/*--------------------------------*- C++ -*----------------------------------*\
| =========                 |                                                 |
| \\      /  F ield         | OpenFOAM: The Open Source CFD Toolbox           |
|  \\    /   O peration     | Version:  v2006                                 |
|   \\  /    A nd           | Website:  www.openfoam.com                      |
|    \\/     M anipulation  |                                                 |
\*---------------------------------------------------------------------------*/
FoamFile
{
    version     2.0;
    format      ascii;
    class       volScalarField;
    location    "10000";
    object      alphat;
}
// * * * * * * * * * * * * * * * * * * * * * * * * * * * * * * * * * * * * * //

dimensions      [1 -1 -1 0 0 0 0];


internalField   nonuniform List<scalar> 
55713
(
4.8455546e-10
4.8715594e-09
2.2753321e-08
4.89095e-08
7.1568934e-08
8.6552043e-08
9.546311e-08
1.0055405e-07
1.0333279e-07
1.0479698e-07
1.0555183e-07
1.0593548e-07
1.0612836e-07
1.0622429e-07
1.0627124e-07
1.0629355e-07
1.0630349e-07
1.0630723e-07
1.063079e-07
1.0630708e-07
1.063056e-07
1.0630389e-07
1.0630218e-07
1.0630059e-07
1.0629921e-07
1.0629807e-07
1.062972e-07
1.062966e-07
1.0629628e-07
1.0629628e-07
1.0629673e-07
1.062974e-07
1.0629837e-07
1.0629964e-07
1.0630122e-07
1.0630309e-07
1.0630528e-07
1.0630778e-07
1.0631061e-07
1.0631377e-07
1.0631725e-07
1.0632106e-07
1.0632519e-07
1.0632965e-07
1.0633444e-07
1.0633955e-07
1.0634502e-07
1.0635083e-07
1.0635701e-07
1.0636357e-07
1.0637053e-07
1.0637792e-07
1.0638577e-07
1.063941e-07
1.0640297e-07
1.0641242e-07
1.0642252e-07
1.0643334e-07
1.0644499e-07
5.7645472e-10
6.5223766e-09
2.7901431e-08
5.575947e-08
7.748879e-08
9.0794505e-08
9.8329756e-08
1.0242559e-07
1.0455711e-07
1.0563671e-07
1.0617537e-07
1.0644155e-07
1.0657193e-07
1.0663506e-07
1.0666494e-07
1.0667835e-07
1.0668362e-07
1.0668488e-07
1.0668418e-07
1.0668258e-07
1.0668062e-07
1.0667859e-07
1.0667665e-07
1.0667488e-07
1.0667334e-07
1.0667206e-07
1.0667105e-07
1.0667031e-07
1.0666983e-07
1.0666965e-07
1.0667e-07
1.0667051e-07
1.0667133e-07
1.0667243e-07
1.0667382e-07
1.066755e-07
1.0667748e-07
1.0667977e-07
1.0668237e-07
1.0668529e-07
1.0668853e-07
1.0669207e-07
1.0669592e-07
1.0670009e-07
1.0670457e-07
1.0670936e-07
1.0671447e-07
1.0671992e-07
1.0672571e-07
1.0673185e-07
1.0673836e-07
1.0674526e-07
1.0675258e-07
1.0676033e-07
1.0676857e-07
1.0677731e-07
1.0678663e-07
1.0679657e-07
1.068072e-07
7.0608399e-10
8.6481194e-09
3.3756095e-08
6.2729267e-08
8.3031588e-08
9.4589957e-08
1.00812e-07
1.0401241e-07
1.0560039e-07
1.0637378e-07
1.0674733e-07
1.0692664e-07
1.0701196e-07
1.0705194e-07
1.0706992e-07
1.0707721e-07
1.0707927e-07
1.0707881e-07
1.0707716e-07
1.07075e-07
1.070727e-07
1.0707043e-07
1.0706831e-07
1.070664e-07
1.0706473e-07
1.0706333e-07
1.070622e-07
1.0706134e-07
1.0706073e-07
1.0706031e-07
1.0706066e-07
1.0706099e-07
1.0706165e-07
1.070626e-07
1.0706381e-07
1.070653e-07
1.0706708e-07
1.0706915e-07
1.0707153e-07
1.0707421e-07
1.0707719e-07
1.0708047e-07
1.0708405e-07
1.0708792e-07
1.0709209e-07
1.0709655e-07
1.0710132e-07
1.0710639e-07
1.0711179e-07
1.0711751e-07
1.0712357e-07
1.0712998e-07
1.0713677e-07
1.0714395e-07
1.0715155e-07
1.0715961e-07
1.0716815e-07
1.0717723e-07
1.0718688e-07
8.9148043e-10
1.1349199e-08
4.0292203e-08
6.9663448e-08
8.8122896e-08
9.7935913e-08
1.0292624e-07
1.0534931e-07
1.0649631e-07
1.0703353e-07
1.0728482e-07
1.0740155e-07
1.0745532e-07
1.0747938e-07
1.0748931e-07
1.0749246e-07
1.0749237e-07
1.0749076e-07
1.0748846e-07
1.0748593e-07
1.0748338e-07
1.0748094e-07
1.074787e-07
1.0747668e-07
1.0747491e-07
1.0747341e-07
1.0747219e-07
1.0747123e-07
1.0747051e-07
1.0746997e-07
1.0747005e-07
1.0747035e-07
1.0747088e-07
1.0747168e-07
1.0747272e-07
1.0747402e-07
1.074756e-07
1.0747746e-07
1.0747961e-07
1.0748206e-07
1.0748479e-07
1.0748781e-07
1.074911e-07
1.0749468e-07
1.0749853e-07
1.0750267e-07
1.0750709e-07
1.0751179e-07
1.0751679e-07
1.0752208e-07
1.0752769e-07
1.0753362e-07
1.0753988e-07
1.0754648e-07
1.0755346e-07
1.0756083e-07
1.0756861e-07
1.0757685e-07
1.0758555e-07
1.1570493e-09
1.4737336e-08
4.744911e-08
7.6404689e-08
9.2716452e-08
1.0083386e-07
1.047039e-07
1.0647722e-07
1.0727856e-07
1.0763929e-07
1.0780274e-07
1.0787575e-07
1.0790802e-07
1.0792144e-07
1.0792604e-07
1.0792649e-07
1.07925e-07
1.0792263e-07
1.0791992e-07
1.0791714e-07
1.0791443e-07
1.0791189e-07
1.0790956e-07
1.0790746e-07
1.0790563e-07
1.0790407e-07
1.0790277e-07
1.0790173e-07
1.0790092e-07
1.0790029e-07
1.0790009e-07
1.0790035e-07
1.0790079e-07
1.0790144e-07
1.0790232e-07
1.0790344e-07
1.0790482e-07
1.0790647e-07
1.079084e-07
1.0791061e-07
1.0791309e-07
1.0791584e-07
1.0791886e-07
1.0792214e-07
1.0792568e-07
1.0792948e-07
1.0793354e-07
1.0793787e-07
1.0794247e-07
1.0794734e-07
1.0795249e-07
1.0795792e-07
1.0796366e-07
1.0796969e-07
1.0797605e-07
1.0798273e-07
1.0798977e-07
1.0799717e-07
1.0800496e-07
1.5391172e-09
1.8934309e-08
5.5124547e-08
8.2802965e-08
9.6791111e-08
1.0329666e-07
1.0618812e-07
1.0743869e-07
1.0797843e-07
1.0821194e-07
1.083134e-07
1.0835716e-07
1.0837527e-07
1.0838179e-07
1.0838298e-07
1.0838172e-07
1.0837935e-07
1.0837652e-07
1.0837356e-07
1.0837064e-07
1.0836786e-07
1.0836527e-07
1.0836289e-07
1.0836076e-07
1.083589e-07
1.0835729e-07
1.0835594e-07
1.0835483e-07
1.0835395e-07
1.0835324e-07
1.083528e-07
1.08353e-07
1.0835336e-07
1.0835389e-07
1.0835461e-07
1.0835555e-07
1.0835674e-07
1.0835819e-07
1.083599e-07
1.0836187e-07
1.083641e-07
1.0836659e-07
1.0836933e-07
1.083723e-07
1.0837553e-07
1.0837899e-07
1.083827e-07
1.0838665e-07
1.0839084e-07
1.0839528e-07
1.0839997e-07
1.0840491e-07
1.0841011e-07
1.0841557e-07
1.0842131e-07
1.0842732e-07
1.0843362e-07
1.0844021e-07
1.084471e-07
2.0899226e-09
2.40698e-08
6.3172369e-08
8.8727161e-08
1.0034087e-07
1.0535611e-07
1.0742866e-07
1.0827467e-07
1.0862362e-07
1.0876804e-07
1.0882819e-07
1.088527e-07
1.0886174e-07
1.0886393e-07
1.0886302e-07
1.0886073e-07
1.0885786e-07
1.0885478e-07
1.0885171e-07
1.0884874e-07
1.0884594e-07
1.0884335e-07
1.0884098e-07
1.0883886e-07
1.0883699e-07
1.0883536e-07
1.0883398e-07
1.0883284e-07
1.088319e-07
1.0883114e-07
1.088305e-07
1.0883062e-07
1.0883088e-07
1.0883131e-07
1.088319e-07
1.0883268e-07
1.0883368e-07
1.0883492e-07
1.0883642e-07
1.0883816e-07
1.0884014e-07
1.0884236e-07
1.0884481e-07
1.0884749e-07
1.0885039e-07
1.0885351e-07
1.0885686e-07
1.0886042e-07
1.088642e-07
1.088682e-07
1.0887242e-07
1.0887687e-07
1.0888153e-07
1.0888642e-07
1.0889154e-07
1.0889688e-07
1.0890245e-07
1.0890824e-07
1.0891426e-07
2.8842247e-09
3.0278361e-08
7.1403058e-08
9.407628e-08
1.0336853e-07
1.0706013e-07
1.0847699e-07
1.0902251e-07
1.0923796e-07
1.0932234e-07
1.0935579e-07
1.0936821e-07
1.0937171e-07
1.0937131e-07
1.0936919e-07
1.0936634e-07
1.0936323e-07
1.0936007e-07
1.0935699e-07
1.0935406e-07
1.0935131e-07
1.0934878e-07
1.0934647e-07
1.0934439e-07
1.0934254e-07
1.0934093e-07
1.0933955e-07
1.0933839e-07
1.0933743e-07
1.0933662e-07
1.093359e-07
1.0933585e-07
1.0933603e-07
1.0933636e-07
1.0933684e-07
1.0933748e-07
1.0933831e-07
1.0933935e-07
1.0934062e-07
1.0934213e-07
1.0934387e-07
1.0934582e-07
1.0934799e-07
1.0935036e-07
1.0935293e-07
1.0935571e-07
1.0935868e-07
1.0936185e-07
1.0936521e-07
1.0936877e-07
1.0937252e-07
1.0937645e-07
1.0938058e-07
1.0938489e-07
1.0938939e-07
1.0939406e-07
1.0939891e-07
1.0940392e-07
1.0940909e-07
4.027307e-09
3.7695501e-08
7.9588809e-08
9.8788251e-08
1.0589372e-07
1.0846667e-07
1.0938279e-07
1.0971628e-07
1.0984009e-07
1.0988678e-07
1.0990386e-07
1.0990906e-07
1.0990934e-07
1.099075e-07
1.0990478e-07
1.0990171e-07
1.0989856e-07
1.0989545e-07
1.0989247e-07
1.0988965e-07
1.0988703e-07
1.0988461e-07
1.098824e-07
1.0988041e-07
1.0987863e-07
1.0987706e-07
1.0987571e-07
1.0987456e-07
1.098736e-07
1.0987279e-07
1.0987206e-07
1.0987181e-07
1.0987192e-07
1.0987215e-07
1.0987253e-07
1.0987305e-07
1.0987372e-07
1.0987456e-07
1.0987563e-07
1.0987691e-07
1.098784e-07
1.0988008e-07
1.0988196e-07
1.0988402e-07
1.0988626e-07
1.0988867e-07
1.0989127e-07
1.0989403e-07
1.0989697e-07
1.0990007e-07
1.0990334e-07
1.0990676e-07
1.0991034e-07
1.0991407e-07
1.0991795e-07
1.0992196e-07
1.0992609e-07
1.0993033e-07
1.0993467e-07
5.6646033e-09
4.64528e-08
8.7473458e-08
1.028388e-07
1.0796042e-07
1.096384e-07
1.1019158e-07
1.1038199e-07
1.1044833e-07
1.1047176e-07
1.1047918e-07
1.1048032e-07
1.1047888e-07
1.1047639e-07
1.1047347e-07
1.1047042e-07
1.104674e-07
1.1046447e-07
1.1046168e-07
1.1045907e-07
1.1045663e-07
1.1045439e-07
1.1045234e-07
1.1045048e-07
1.1044881e-07
1.1044734e-07
1.1044605e-07
1.1044495e-07
1.1044403e-07
1.1044323e-07
1.1044253e-07
1.1044214e-07
1.1044218e-07
1.1044231e-07
1.1044258e-07
1.1044297e-07
1.1044352e-07
1.1044418e-07
1.1044504e-07
1.104461e-07
1.1044734e-07
1.1044875e-07
1.1045033e-07
1.1045208e-07
1.1045398e-07
1.1045603e-07
1.1045824e-07
1.1046059e-07
1.1046308e-07
1.1046572e-07
1.1046849e-07
1.1047139e-07
1.1047442e-07
1.1047756e-07
1.1048081e-07
1.1048415e-07
1.1048758e-07
1.1049107e-07
1.104946e-07
7.9962179e-09
5.6671979e-08
9.478846e-08
1.0622817e-07
1.0963311e-07
1.1063774e-07
1.1094448e-07
1.1104292e-07
1.110755e-07
1.1108578e-07
1.1108798e-07
1.1108706e-07
1.1108491e-07
1.1108226e-07
1.1107945e-07
1.1107663e-07
1.1107388e-07
1.1107125e-07
1.1106877e-07
1.1106644e-07
1.1106428e-07
1.1106228e-07
1.1106045e-07
1.1105878e-07
1.1105728e-07
1.1105594e-07
1.1105477e-07
1.1105377e-07
1.1105291e-07
1.1105217e-07
1.1105152e-07
1.1105112e-07
1.1105099e-07
1.1105107e-07
1.1105124e-07
1.1105153e-07
1.1105193e-07
1.1105246e-07
1.1105312e-07
1.1105395e-07
1.1105494e-07
1.1105608e-07
1.1105737e-07
1.1105878e-07
1.1106033e-07
1.1106201e-07
1.1106381e-07
1.1106574e-07
1.1106778e-07
1.1106994e-07
1.110722e-07
1.1107456e-07
1.1107702e-07
1.1107956e-07
1.1108218e-07
1.1108486e-07
1.1108759e-07
1.1109034e-07
1.1109309e-07
1.1302152e-08
6.8460921e-08
1.0127842e-07
1.0897242e-07
1.1098912e-07
1.1152377e-07
1.1167459e-07
1.1171987e-07
1.1173358e-07
1.1173696e-07
1.1173667e-07
1.1173498e-07
1.1173275e-07
1.1173033e-07
1.1172787e-07
1.1172546e-07
1.1172314e-07
1.1172093e-07
1.1171886e-07
1.1171692e-07
1.1171511e-07
1.1171344e-07
1.117119e-07
1.117105e-07
1.1170923e-07
1.117081e-07
1.117071e-07
1.1170623e-07
1.1170549e-07
1.1170485e-07
1.117043e-07
1.1170391e-07
1.117037e-07
1.1170372e-07
1.1170381e-07
1.1170399e-07
1.1170427e-07
1.1170465e-07
1.1170513e-07
1.1170574e-07
1.1170649e-07
1.1170735e-07
1.1170833e-07
1.1170941e-07
1.117106e-07
1.1171189e-07
1.1171327e-07
1.1171475e-07
1.1171632e-07
1.1171798e-07
1.1171972e-07
1.1172153e-07
1.117234e-07
1.1172534e-07
1.1172732e-07
1.1172933e-07
1.1173136e-07
1.1173339e-07
1.117354e-07
1.5922455e-08
8.1912129e-08
1.067303e-07
1.1111555e-07
1.1211239e-07
1.1234967e-07
1.124113e-07
1.1242847e-07
1.124329e-07
1.1243323e-07
1.1243211e-07
1.1243046e-07
1.1242862e-07
1.1242673e-07
1.1242485e-07
1.1242304e-07
1.1242131e-07
1.1241967e-07
1.1241813e-07
1.1241669e-07
1.1241535e-07
1.124141e-07
1.1241295e-07
1.124119e-07
1.1241094e-07
1.1241009e-07
1.1240932e-07
1.1240866e-07
1.1240809e-07
1.124076e-07
1.1240718e-07
1.1240686e-07
1.1240667e-07
1.1240661e-07
1.1240665e-07
1.1240674e-07
1.124069e-07
1.1240714e-07
1.1240746e-07
1.1240786e-07
1.1240836e-07
1.1240894e-07
1.124096e-07
1.1241034e-07
1.1241115e-07
1.1241203e-07
1.1241298e-07
1.1241399e-07
1.1241507e-07
1.124162e-07
1.1241738e-07
1.1241862e-07
1.1241989e-07
1.124212e-07
1.1242253e-07
1.1242387e-07
1.1242521e-07
1.1242654e-07
1.1242783e-07
2.2176309e-08
9.7063615e-08
1.1098647e-07
1.1274256e-07
1.1308523e-07
1.1315816e-07
1.1317575e-07
1.1318013e-07
1.1318083e-07
1.1318034e-07
1.1317944e-07
1.131784e-07
1.1317731e-07
1.1317621e-07
1.1317515e-07
1.1317414e-07
1.1317317e-07
1.1317226e-07
1.131714e-07
1.1317059e-07
1.1316984e-07
1.1316914e-07
1.1316849e-07
1.131679e-07
1.1316736e-07
1.1316687e-07
1.1316644e-07
1.1316605e-07
1.1316572e-07
1.1316544e-07
1.131652e-07
1.1316501e-07
1.1316489e-07
1.1316481e-07
1.1316482e-07
1.1316485e-07
1.1316492e-07
1.1316502e-07
1.1316518e-07
1.1316538e-07
1.1316563e-07
1.1316593e-07
1.1316626e-07
1.1316664e-07
1.1316705e-07
1.1316751e-07
1.1316799e-07
1.1316851e-07
1.1316907e-07
1.1316965e-07
1.1317025e-07
1.1317088e-07
1.1317153e-07
1.1317219e-07
1.1317286e-07
1.1317353e-07
1.131742e-07
1.1317484e-07
1.1317546e-07
1.0297893e-07
1.0295263e-07
1.0293415e-07
1.0292321e-07
1.0291313e-07
1.0290407e-07
1.028952e-07
1.0288661e-07
1.0287821e-07
1.0287002e-07
1.0286203e-07
1.0285426e-07
1.0284673e-07
1.0283944e-07
1.0283241e-07
1.0282567e-07
1.0281923e-07
1.0281312e-07
1.0280736e-07
1.0280198e-07
1.0279701e-07
1.0279247e-07
1.0278839e-07
1.027848e-07
1.027817e-07
1.0277912e-07
1.0277704e-07
1.0277544e-07
1.0277431e-07
1.027736e-07
1.0277329e-07
1.027733e-07
1.0277343e-07
1.0277332e-07
1.0277229e-07
1.027691e-07
1.0276144e-07
1.0274507e-07
1.0271236e-07
1.0264988e-07
1.0253464e-07
1.0232842e-07
1.0196962e-07
1.0136261e-07
1.0036525e-07
9.8777592e-08
9.6338257e-08
9.2736946e-08
8.7635638e-08
8.0639196e-08
7.1280066e-08
5.9270045e-08
4.4951761e-08
2.9738354e-08
1.6089228e-08
6.4972803e-09
1.8464777e-09
7.255859e-10
8.3789713e-10
1.0309642e-07
1.0307161e-07
1.0305463e-07
1.0304382e-07
1.0303391e-07
1.0302476e-07
1.0301587e-07
1.0300722e-07
1.0299878e-07
1.0299055e-07
1.0298254e-07
1.0297475e-07
1.029672e-07
1.029599e-07
1.0295287e-07
1.0294613e-07
1.0293969e-07
1.0293358e-07
1.0292783e-07
1.0292246e-07
1.029175e-07
1.0291297e-07
1.0290891e-07
1.0290532e-07
1.0290223e-07
1.0289966e-07
1.028976e-07
1.0289602e-07
1.0289491e-07
1.0289422e-07
1.0289395e-07
1.0289401e-07
1.0289424e-07
1.0289433e-07
1.0289367e-07
1.0289119e-07
1.0288487e-07
1.0287103e-07
1.0284299e-07
1.0278895e-07
1.0268857e-07
1.0250778e-07
1.0219113e-07
1.0165151e-07
1.007575e-07
9.932068e-08
9.7088434e-08
9.3751259e-08
8.8964364e-08
8.2332417e-08
7.3367685e-08
6.169022e-08
4.7483004e-08
3.1999218e-08
1.7686697e-08
7.2861365e-09
2.0452121e-09
6.9244645e-10
7.5727758e-10
1.0322619e-07
1.0320271e-07
1.0318712e-07
1.031764e-07
1.0316659e-07
1.0315738e-07
1.0314844e-07
1.0313974e-07
1.0313127e-07
1.0312301e-07
1.0311497e-07
1.0310716e-07
1.030996e-07
1.030923e-07
1.0308527e-07
1.0307853e-07
1.030721e-07
1.0306601e-07
1.0306028e-07
1.0305493e-07
1.0304999e-07
1.0304548e-07
1.0304143e-07
1.0303786e-07
1.0303479e-07
1.0303224e-07
1.030302e-07
1.0302864e-07
1.0302755e-07
1.0302688e-07
1.0302664e-07
1.0302676e-07
1.0302709e-07
1.0302735e-07
1.0302703e-07
1.0302521e-07
1.0302015e-07
1.0300868e-07
1.0298503e-07
1.0293898e-07
1.0285275e-07
1.0269633e-07
1.024204e-07
1.019465e-07
1.0115446e-07
9.9868553e-08
9.7847094e-08
9.4784064e-08
9.032817e-08
8.4081849e-08
7.5545221e-08
6.4252982e-08
5.0220149e-08
3.4510099e-08
1.9518687e-08
8.2270951e-09
2.3014032e-09
6.7118622e-10
6.8334348e-10
1.0336938e-07
1.0334709e-07
1.0333275e-07
1.0332208e-07
1.0331232e-07
1.0330304e-07
1.0329406e-07
1.0328532e-07
1.0327681e-07
1.0326852e-07
1.0326046e-07
1.0325264e-07
1.0324508e-07
1.0323778e-07
1.0323076e-07
1.0322403e-07
1.0321762e-07
1.0321155e-07
1.0320584e-07
1.0320051e-07
1.031956e-07
1.0319112e-07
1.0318709e-07
1.0318355e-07
1.031805e-07
1.0317797e-07
1.0317594e-07
1.0317442e-07
1.0317334e-07
1.031727e-07
1.0317249e-07
1.0317265e-07
1.0317307e-07
1.031735e-07
1.031735e-07
1.0317229e-07
1.031684e-07
1.0315913e-07
1.0313958e-07
1.0310099e-07
1.0302806e-07
1.0289472e-07
1.0265766e-07
1.0224711e-07
1.0155453e-07
1.0041796e-07
9.8608834e-08
9.582781e-08
9.1718635e-08
8.5878518e-08
7.7802357e-08
6.6949957e-08
5.3163507e-08
3.7286605e-08
2.1614366e-08
9.3486682e-09
2.6291274e-09
6.6443168e-10
6.1882588e-10
1.035273e-07
1.0350622e-07
1.0349286e-07
1.0348225e-07
1.0347251e-07
1.0346318e-07
1.0345415e-07
1.0344537e-07
1.0343683e-07
1.0342852e-07
1.0342045e-07
1.0341263e-07
1.0340507e-07
1.0339778e-07
1.0339078e-07
1.0338407e-07
1.0337769e-07
1.0337165e-07
1.0336597e-07
1.0336068e-07
1.033558e-07
1.0335135e-07
1.0334736e-07
1.0334384e-07
1.0334082e-07
1.0333831e-07
1.0333631e-07
1.033348e-07
1.0333376e-07
1.0333314e-07
1.0333295e-07
1.0333316e-07
1.0333366e-07
1.0333424e-07
1.0333454e-07
1.0333388e-07
1.0333106e-07
1.0332381e-07
1.0330803e-07
1.0327635e-07
1.0321579e-07
1.0310405e-07
1.0290368e-07
1.0255353e-07
1.0195691e-07
1.0096661e-07
9.9369314e-08
9.6875951e-08
9.3128338e-08
8.7715559e-08
8.0131426e-08
6.9775383e-08
5.6316296e-08
4.0348763e-08
2.4009895e-08
1.0687181e-08
3.0469722e-09
6.7471427e-10
5.6201875e-10
1.0370143e-07
1.0368166e-07
1.0366905e-07
1.0365851e-07
1.0364876e-07
1.0363939e-07
1.0363032e-07
1.0362151e-07
1.0361294e-07
1.0360462e-07
1.0359655e-07
1.0358874e-07
1.035812e-07
1.0357393e-07
1.0356695e-07
1.0356028e-07
1.0355394e-07
1.0354794e-07
1.035423e-07
1.0353705e-07
1.0353221e-07
1.0352781e-07
1.0352386e-07
1.0352038e-07
1.0351739e-07
1.0351491e-07
1.0351293e-07
1.0351145e-07
1.0351043e-07
1.0350984e-07
1.0350968e-07
1.0350993e-07
1.0351051e-07
1.0351122e-07
1.0351178e-07
1.0351163e-07
1.0350977e-07
1.0350435e-07
1.03492e-07
1.0346662e-07
1.034174e-07
1.0332561e-07
1.031594e-07
1.0286609e-07
1.023609e-07
1.0151211e-07
1.0012368e-07
9.7920642e-08
9.4547397e-08
8.9583497e-08
8.2521777e-08
7.2719098e-08
5.9676643e-08
4.3713457e-08
2.6743427e-08
1.2285537e-08
3.5790733e-09
7.0625959e-10
5.1280747e-10
1.0389369e-07
1.0387526e-07
1.0386319e-07
1.0385271e-07
1.0384294e-07
1.0383354e-07
1.0382444e-07
1.038156e-07
1.0380702e-07
1.0379871e-07
1.0379065e-07
1.0378286e-07
1.0377534e-07
1.0376811e-07
1.0376118e-07
1.0375456e-07
1.0374826e-07
1.0374232e-07
1.0373674e-07
1.0373155e-07
1.0372676e-07
1.0372241e-07
1.0371852e-07
1.0371509e-07
1.0371214e-07
1.0370968e-07
1.0370773e-07
1.0370628e-07
1.0370529e-07
1.0370472e-07
1.0370459e-07
1.0370488e-07
1.0370552e-07
1.0370636e-07
1.0370715e-07
1.0370744e-07
1.0370644e-07
1.0370265e-07
1.0369336e-07
1.0367363e-07
1.0363466e-07
1.03561e-07
1.0342612e-07
1.0318549e-07
1.0276616e-07
1.0205235e-07
1.0086707e-07
9.8953364e-08
9.5963933e-08
9.1470269e-08
8.4960417e-08
7.5767004e-08
6.3237434e-08
4.7393691e-08
2.9854727e-08
1.4194243e-08
4.2567251e-09
7.6514144e-10
4.7068088e-10
1.0410623e-07
1.0408915e-07
1.0407742e-07
1.04067e-07
1.0405721e-07
1.0404778e-07
1.0403866e-07
1.0402982e-07
1.0402125e-07
1.0401295e-07
1.0400492e-07
1.0399717e-07
1.039897e-07
1.0398253e-07
1.0397566e-07
1.039691e-07
1.0396288e-07
1.0395701e-07
1.039515e-07
1.0394638e-07
1.0394167e-07
1.0393739e-07
1.0393356e-07
1.0393019e-07
1.0392729e-07
1.0392488e-07
1.0392296e-07
1.0392153e-07
1.0392057e-07
1.0392003e-07
1.0391992e-07
1.0392025e-07
1.0392094e-07
1.0392188e-07
1.0392287e-07
1.0392355e-07
1.039233e-07
1.0392093e-07
1.0391432e-07
1.0389957e-07
1.0386967e-07
1.0381219e-07
1.0370555e-07
1.0351288e-07
1.031728e-07
1.0258563e-07
1.0159482e-07
9.9965115e-08
9.7364071e-08
9.3360204e-08
8.7431388e-08
7.890029e-08
6.6984654e-08
5.1396144e-08
3.3383202e-08
1.6471633e-08
5.1203019e-09
8.6035929e-10
4.3550352e-10
1.043416e-07
1.0432573e-07
1.0431426e-07
1.0430389e-07
1.0429409e-07
1.0428464e-07
1.0427552e-07
1.0426669e-07
1.0425815e-07
1.0424989e-07
1.0424192e-07
1.0423424e-07
1.0422684e-07
1.0421975e-07
1.0421296e-07
1.042065e-07
1.0420037e-07
1.0419459e-07
1.0418918e-07
1.0418416e-07
1.0417954e-07
1.0417535e-07
1.0417159e-07
1.041683e-07
1.0416546e-07
1.041631e-07
1.0416123e-07
1.0415983e-07
1.041589e-07
1.0415838e-07
1.0415829e-07
1.0415865e-07
1.0415939e-07
1.0416041e-07
1.0416156e-07
1.0416257e-07
1.0416294e-07
1.0416179e-07
1.0415748e-07
1.0414701e-07
1.0412497e-07
1.0408163e-07
1.0399987e-07
1.0385002e-07
1.0358163e-07
1.0311101e-07
1.0230292e-07
1.0094702e-07
9.8732584e-08
9.5233684e-08
8.9915268e-08
8.2095439e-08
7.0896471e-08
5.5719038e-08
3.7365738e-08
1.9183876e-08
6.2215397e-09
1.0051247e-09
4.0731562e-10
1.0460276e-07
1.0458794e-07
1.0457668e-07
1.0456635e-07
1.0455654e-07
1.045471e-07
1.0453799e-07
1.0452921e-07
1.0452072e-07
1.0451254e-07
1.0450465e-07
1.0449706e-07
1.0448977e-07
1.0448279e-07
1.0447612e-07
1.0446978e-07
1.0446378e-07
1.0445812e-07
1.0445284e-07
1.0444794e-07
1.0444344e-07
1.0443935e-07
1.044357e-07
1.044325e-07
1.0442974e-07
1.0442745e-07
1.0442562e-07
1.0442426e-07
1.0442336e-07
1.0442286e-07
1.044228e-07
1.0442318e-07
1.0442395e-07
1.0442503e-07
1.044263e-07
1.0442757e-07
1.0442845e-07
1.044283e-07
1.044259e-07
1.0441902e-07
1.0440361e-07
1.043723e-07
1.0431195e-07
1.0419938e-07
1.0399435e-07
1.0362858e-07
1.0298846e-07
1.01891e-07
1.0005377e-07
9.7067361e-08
9.2387768e-08
8.5324203e-08
7.4942224e-08
6.0349439e-08
4.1833539e-08
2.2404131e-08
7.625988e-09
1.2188641e-09
3.8656796e-10
1.0489314e-07
1.0487924e-07
1.0486815e-07
1.0485786e-07
1.0484805e-07
1.0483864e-07
1.0482959e-07
1.0482087e-07
1.0481248e-07
1.0480441e-07
1.0479665e-07
1.0478919e-07
1.0478205e-07
1.0477522e-07
1.0476872e-07
1.0476254e-07
1.047567e-07
1.0475122e-07
1.0474609e-07
1.0474135e-07
1.04737e-07
1.0473306e-07
1.0472954e-07
1.0472645e-07
1.0472379e-07
1.0472158e-07
1.0471982e-07
1.047185e-07
1.0471763e-07
1.0471715e-07
1.0471711e-07
1.047175e-07
1.0471828e-07
1.047194e-07
1.0472076e-07
1.0472221e-07
1.0472349e-07
1.0472412e-07
1.0472325e-07
1.0471927e-07
1.0470927e-07
1.0468789e-07
1.0464541e-07
1.0456438e-07
1.0441381e-07
1.0413988e-07
1.0365021e-07
1.0279069e-07
1.0131275e-07
9.8835466e-08
9.4818105e-08
8.855362e-08
7.9081915e-08
6.5260571e-08
4.6808262e-08
2.6210979e-08
9.4154532e-09
1.5300563e-09
3.7428094e-10
1.0521687e-07
1.0520379e-07
1.0519283e-07
1.0518257e-07
1.051728e-07
1.0516345e-07
1.0515449e-07
1.0514589e-07
1.0513764e-07
1.0512973e-07
1.0512214e-07
1.0511488e-07
1.0510794e-07
1.0510132e-07
1.0509503e-07
1.0508907e-07
1.0508345e-07
1.0507818e-07
1.0507327e-07
1.0506873e-07
1.0506457e-07
1.0506081e-07
1.0505745e-07
1.0505451e-07
1.0505198e-07
1.0504988e-07
1.0504819e-07
1.0504693e-07
1.0504609e-07
1.0504564e-07
1.050456e-07
1.05046e-07
1.0504678e-07
1.050479e-07
1.0504929e-07
1.0505086e-07
1.0505241e-07
1.0505362e-07
1.050539e-07
1.0505217e-07
1.0504641e-07
1.0503291e-07
1.050048e-07
1.0494952e-07
1.0484428e-07
1.0464823e-07
1.0428924e-07
1.0364239e-07
1.0249703e-07
1.0051204e-07
9.7168541e-08
9.1744868e-08
8.3266165e-08
7.0409054e-08
5.2297178e-08
3.068589e-08
1.1690063e-08
1.9801606e-09
3.7235984e-10
1.0557895e-07
1.0556657e-07
1.0555569e-07
1.0554548e-07
1.0553577e-07
1.0552653e-07
1.0551771e-07
1.0550929e-07
1.0550124e-07
1.0549356e-07
1.0548622e-07
1.0547922e-07
1.0547255e-07
1.0546622e-07
1.0546021e-07
1.0545455e-07
1.0544921e-07
1.0544422e-07
1.0543958e-07
1.0543531e-07
1.054314e-07
1.0542787e-07
1.0542473e-07
1.0542197e-07
1.0541961e-07
1.0541763e-07
1.0541605e-07
1.0541486e-07
1.0541406e-07
1.0541361e-07
1.0541359e-07
1.0541399e-07
1.0541474e-07
1.0541583e-07
1.054172e-07
1.054188e-07
1.054205e-07
1.0542208e-07
1.0542317e-07
1.0542306e-07
1.0542045e-07
1.054129e-07
1.0539584e-07
1.0536072e-07
1.0529161e-07
1.0515912e-07
1.0490954e-07
1.0444616e-07
1.0359833e-07
1.0207396e-07
9.9396961e-08
9.4849908e-08
8.7436968e-08
7.5732477e-08
5.8287175e-08
3.5910212e-08
1.4570028e-08
2.6286009e-09
3.8460298e-10
1.0598553e-07
1.0597367e-07
1.0596286e-07
1.0595271e-07
1.0594311e-07
1.0593404e-07
1.0592543e-07
1.0591726e-07
1.059095e-07
1.0590213e-07
1.0589512e-07
1.0588848e-07
1.0588218e-07
1.0587623e-07
1.058706e-07
1.0586532e-07
1.0586036e-07
1.0585574e-07
1.0585146e-07
1.0584753e-07
1.0584394e-07
1.0584072e-07
1.0583785e-07
1.0583534e-07
1.0583318e-07
1.0583138e-07
1.0582992e-07
1.0582883e-07
1.0582807e-07
1.0582764e-07
1.0582762e-07
1.05828e-07
1.058287e-07
1.0582971e-07
1.0583101e-07
1.0583255e-07
1.0583426e-07
1.0583601e-07
1.0583757e-07
1.0583851e-07
1.0583805e-07
1.0583471e-07
1.0582566e-07
1.0580546e-07
1.0576374e-07
1.0568067e-07
1.0551862e-07
1.052069e-07
1.0461457e-07
1.0350451e-07
1.0146258e-07
9.7808871e-08
9.1528655e-08
8.1148262e-08
6.4737835e-08
4.196227e-08
1.8199048e-08
3.5575135e-09
4.188473e-10
9.1050561e-10
9.4450066e-10
9.8374842e-10
1.0194135e-09
1.0490054e-09
1.0721611e-09
1.0889969e-09
1.0999667e-09
1.1056249e-09
1.1064958e-09
1.1030071e-09
1.0954472e-09
1.083958e-09
1.0685268e-09
1.049002e-09
1.0251038e-09
9.9645362e-10
9.6260709e-10
9.2310442e-10
8.7752181e-10
8.2556844e-10
7.6707688e-10
7.0243333e-10
6.3208326e-10
5.5686749e-10
4.7841029e-10
3.9866789e-10
3.199788e-10
2.4496122e-10
1.7631608e-10
1.1660588e-10
6.803161e-11
3.2226395e-11
1.0046992e-11
3.2469493e-12
9.7924388e-12
2.818945e-11
5.7573517e-11
9.628345e-11
1.4239873e-10
1.9397692e-10
2.4919553e-10
3.0643567e-10
3.6431243e-10
4.2169168e-10
4.7768668e-10
5.3164013e-10
5.8309365e-10
6.3173867e-10
6.7739177e-10
7.1998378e-10
7.5953205e-10
7.9611238e-10
8.2983948e-10
8.6085383e-10
8.893134e-10
9.1539039e-10
9.3926071e-10
9.6108959e-10
9.8103512e-10
9.9925013e-10
1.015878e-09
1.0310539e-09
1.0449057e-09
1.0575499e-09
1.0690889e-09
1.0796184e-09
1.0892268e-09
1.0979946e-09
1.1059935e-09
1.1132887e-09
1.1199299e-09
1.1259716e-09
1.1313928e-09
7.8394968e-10
8.3252514e-10
8.7906869e-10
9.2085227e-10
9.567597e-10
9.8645877e-10
1.0101383e-09
1.0278881e-09
1.0400047e-09
1.0469104e-09
1.0490508e-09
1.0468055e-09
1.0404393e-09
1.0300766e-09
1.0156978e-09
9.9714368e-10
9.7413413e-10
9.4629586e-10
9.1320498e-10
8.7443654e-10
8.2964218e-10
7.7858283e-10
7.2137631e-10
6.583436e-10
5.9011638e-10
5.1788882e-10
4.4327173e-10
3.682379e-10
2.9502203e-10
2.2592714e-10
1.630807e-10
1.0960936e-10
6.8963496e-11
3.8877113e-11
2.1624919e-11
1.615336e-11
2.1314449e-11
3.6940669e-11
6.1861171e-11
9.4375039e-11
1.3287675e-10
1.7581234e-10
2.217564e-10
2.6945115e-10
3.1782477e-10
3.6589424e-10
4.1287195e-10
4.5826525e-10
5.0179434e-10
5.4333914e-10
5.8270666e-10
6.1979926e-10
6.5458831e-10
6.8709552e-10
7.173764e-10
7.4551199e-10
7.7160042e-10
7.9575066e-10
8.1807703e-10
8.3869369e-10
8.5771431e-10
8.7524907e-10
8.9140403e-10
9.062479e-10
9.198557e-10
9.3233346e-10
9.4377628e-10
9.5427202e-10
9.6389959e-10
9.7273234e-10
9.8083622e-10
9.8827216e-10
9.9509653e-10
1.0013536e-09
1.4962576e-09
1.2824408e-09
1.1536764e-09
1.0777195e-09
1.0347663e-09
1.0132026e-09
1.0116961e-09
1.015859e-09
1.0211366e-09
1.0255784e-09
1.0283057e-09
1.0287552e-09
1.026512e-09
1.0213063e-09
1.0129258e-09
1.0011517e-09
9.8571127e-10
9.6626627e-10
9.4242182e-10
9.1375157e-10
8.7984412e-10
8.4034385e-10
7.9507459e-10
7.4405902e-10
6.8755167e-10
6.2618296e-10
5.6095361e-10
4.9320706e-10
4.2454133e-10
3.5661741e-10
2.9041934e-10
2.2776276e-10
1.7567938e-10
1.3288256e-10
9.9954859e-11
7.6695973e-11
6.2556313e-11
5.718313e-11
5.970323e-11
6.9244158e-11
8.5625333e-11
1.0724861e-10
1.329625e-10
1.6175646e-10
1.9271247e-10
2.2501321e-10
2.5793521e-10
2.9089536e-10
3.2345009e-10
3.5528023e-10
3.8613315e-10
4.1582084e-10
4.4421192e-10
4.71223e-10
4.9680853e-10
5.2095384e-10
5.4363055e-10
5.6480584e-10
5.8454657e-10
6.0292224e-10
6.2000538e-10
6.3586859e-10
6.5058421e-10
6.6422037e-10
6.7685232e-10
6.8856216e-10
6.9940808e-10
7.0944682e-10
7.1873385e-10
7.2732136e-10
7.3525926e-10
7.4259586e-10
7.4937665e-10
7.5563901e-10
4.7936247e-09
3.6095479e-09
2.7950443e-09
2.2349504e-09
1.8489682e-09
1.5829763e-09
1.4032338e-09
1.2814299e-09
1.1984026e-09
1.141309e-09
1.105574e-09
1.0825197e-09
1.0653658e-09
1.0511957e-09
1.0382804e-09
1.0254947e-09
1.0118319e-09
9.9647786e-10
9.7874099e-10
9.5800901e-10
9.337317e-10
9.0542406e-10
8.7270668e-10
8.3534781e-10
7.9327407e-10
7.4664062e-10
6.9584658e-10
6.4152015e-10
5.8441633e-10
5.2517398e-10
4.6401932e-10
4.037539e-10
3.4859797e-10
2.9928045e-10
2.5637989e-10
2.2013213e-10
1.9048738e-10
1.673597e-10
1.5035552e-10
1.3896773e-10
1.3284141e-10
1.312994e-10
1.336971e-10
1.3943108e-10
1.4798838e-10
1.5934295e-10
1.7250896e-10
1.8695238e-10
2.0227072e-10
2.1813017e-10
2.3425176e-10
2.5040459e-10
2.6640105e-10
2.8209196e-10
2.9736184e-10
3.1212371e-10
3.2631032e-10
3.3987023e-10
3.5277324e-10
3.6500394e-10
3.7656004e-10
3.8744809e-10
3.9768166e-10
4.072797e-10
4.1626585e-10
4.2466663e-10
4.3250938e-10
4.3982255e-10
4.4663442e-10
4.5297396e-10
4.5886876e-10
4.6434666e-10
4.6943467e-10
4.7415488e-10
1.2115501e-08
9.1151912e-09
6.899453e-09
5.2824792e-09
4.1086991e-09
3.2580922e-09
2.6437211e-09
2.199624e-09
1.8777339e-09
1.6436258e-09
1.4745737e-09
1.3524478e-09
1.263172e-09
1.1968404e-09
1.148261e-09
1.1126954e-09
1.08378e-09
1.0588734e-09
1.036154e-09
1.0142438e-09
9.9201014e-10
9.6853462e-10
9.4308537e-10
9.1511742e-10
8.8425051e-10
8.5028892e-10
8.1321479e-10
7.7316876e-10
7.3038092e-10
6.8504462e-10
6.3720786e-10
5.8805995e-10
5.4033766e-10
4.9531861e-10
4.5365961e-10
4.1577572e-10
3.8187001e-10
3.520262e-10
3.2617723e-10
3.04143e-10
2.8572664e-10
2.7064057e-10
2.5856079e-10
2.4915925e-10
2.4212678e-10
2.3723512e-10
2.341754e-10
2.32659e-10
2.3242909e-10
2.3325895e-10
2.3494949e-10
2.3732682e-10
2.4024004e-10
2.4357151e-10
2.4727997e-10
2.5128016e-10
2.5544873e-10
2.5968773e-10
2.6392699e-10
2.6811514e-10
2.7221428e-10
2.761962e-10
2.8004007e-10
2.8373133e-10
2.8726011e-10
2.9062072e-10
2.9381033e-10
2.9682876e-10
2.9967771e-10
3.0236066e-10
3.0488218e-10
3.0724772e-10
3.0946347e-10
3.1153483e-10
2.3362215e-08
1.8160855e-08
1.404252e-08
1.0852836e-08
8.4193562e-09
6.5799221e-09
5.1980368e-09
4.1627279e-09
3.3872199e-09
2.8055524e-09
2.3694037e-09
2.0421422e-09
1.7957954e-09
1.6094345e-09
1.4682933e-09
1.3612735e-09
1.2789032e-09
1.2143092e-09
1.1630777e-09
1.1218765e-09
1.087075e-09
1.0562448e-09
1.0276419e-09
1.0000161e-09
9.7245479e-10
9.4432034e-10
9.1519431e-10
8.8484086e-10
8.5315843e-10
8.2011228e-10
7.8566852e-10
7.5008845e-10
7.1426875e-10
6.7926386e-10
6.458844e-10
6.1453112e-10
5.8541289e-10
5.586404e-10
5.3423823e-10
5.1216163e-10
4.9232486e-10
4.7460585e-10
4.5885818e-10
4.4492345e-10
4.3264155e-10
4.2186494e-10
4.1244615e-10
4.042423e-10
3.9711864e-10
3.9095079e-10
3.8562525e-10
3.8103947e-10
3.7710103e-10
3.7372799e-10
3.7085103e-10
3.6840841e-10
3.6634296e-10
3.6460261e-10
3.6314074e-10
3.6191744e-10
3.6089753e-10
3.6005034e-10
3.5934961e-10
3.5877259e-10
3.5829984e-10
3.5791467e-10
3.576028e-10
3.5735206e-10
3.571521e-10
3.5699414e-10
3.568707e-10
3.5677555e-10
3.5670324e-10
3.5664949e-10
3.6937876e-08
2.9894204e-08