/*--------------------------------*- C++ -*----------------------------------*\
| =========                 |                                                 |
| \\      /  F ield         | OpenFOAM: The Open Source CFD Toolbox           |
|  \\    /   O peration     | Version:  v2006                                 |
|   \\  /    A nd           | Website:  www.openfoam.com                      |
|    \\/     M anipulation  |                                                 |
\*---------------------------------------------------------------------------*/
FoamFile
{
    version     2.0;
    format      ascii;
    class       volVectorField;
    location    "10000";
    object      C;
}
// * * * * * * * * * * * * * * * * * * * * * * * * * * * * * * * * * * * * * //

dimensions      [0 1 0 0 0 0 0];


internalField   nonuniform List<vector> 
55713
(
(-4.1079202 -0.13222036 0.5)
(-4.1076383 -0.12875641 0.5)
(-4.1073952 -0.12547365 0.5)
(-4.1071829 -0.12235222 0.5)
(-4.1069956 -0.11937514 0.5)
(-4.1068288 -0.11652773 0.5)
(-4.106679 -0.11379718 0.5)
(-4.1065436 -0.11117219 0.5)
(-4.1064202 -0.10864279 0.5)
(-4.1063072 -0.10620006 0.5)
(-4.1062031 -0.10383601 0.5)
(-4.1061069 -0.10154343 0.5)
(-4.1060174 -0.099315805 0.5)
(-4.1059339 -0.097147175 0.5)
(-4.1058557 -0.095032104 0.5)
(-4.1057822 -0.09296559 0.5)
(-4.1057129 -0.090943012 0.5)
(-4.1056474 -0.088960086 0.5)
(-4.1055852 -0.087012814 0.5)
(-4.1055261 -0.085097455 0.5)
(-4.1054698 -0.083210488 0.5)
(-4.1054161 -0.081348581 0.5)
(-4.1053646 -0.079508569 0.5)
(-4.1053153 -0.077687426 0.5)
(-4.1052679 -0.075882248 0.5)
(-4.1052223 -0.074090226 0.5)
(-4.1051783 -0.072308637 0.5)
(-4.1051359 -0.070534817 0.5)
(-4.1050949 -0.068766151 0.5)
(-4.1050552 -0.067000055 0.5)
(-4.1050168 -0.065233959 0.5)
(-4.1049796 -0.063465294 0.5)
(-4.1049434 -0.061691474 0.5)
(-4.1049083 -0.059909886 0.5)
(-4.1048742 -0.058117866 0.5)
(-4.1048411 -0.056312689 0.5)
(-4.1048089 -0.054491549 0.5)
(-4.1047777 -0.052651539 0.5)
(-4.1047473 -0.050789635 0.5)
(-4.1047179 -0.048902671 0.5)
(-4.1046894 -0.046987317 0.5)
(-4.1046619 -0.04504005 0.5)
(-4.1046353 -0.043057129 0.5)
(-4.1046099 -0.041034558 0.5)
(-4.1045856 -0.038968051 0.5)
(-4.1045626 -0.036852989 0.5)
(-4.104541 -0.03468437 0.5)
(-4.104521 -0.032456754 0.5)
(-4.1045029 -0.030164192 0.5)
(-4.104487 -0.027800159 0.5)
(-4.1044737 -0.025357449 0.5)
(-4.1044635 -0.022828071 0.5)
(-4.1044571 -0.020203116 0.5)
(-4.1044554 -0.017472593 0.5)
(-4.1044595 -0.014625227 0.5)
(-4.104471 -0.011648201 0.5)
(-4.1044919 -0.0085268343 0.5)
(-4.104525 -0.0052441491 0.5)
(-4.1045743 -0.0017803009 0.5)
(-4.3220597 -0.13213679 0.5)
(-4.3215804 -0.12852617 0.5)
(-4.3211554 -0.12513289 0.5)
(-4.3207749 -0.12192908 0.5)
(-4.3204311 -0.11889179 0.5)
(-4.3201181 -0.11600182 0.5)
(-4.3198312 -0.11324289 0.5)
(-4.3195665 -0.11060101 0.5)
(-4.3193208 -0.10806408 0.5)
(-4.3190918 -0.1056215 0.5)
(-4.3188772 -0.10326393 0.5)
(-4.3186753 -0.10098308 0.5)
(-4.3184845 -0.098771535 0.5)
(-4.3183036 -0.096622629 0.5)
(-4.3181314 -0.094530325 0.5)
(-4.3179671 -0.092489133 0.5)
(-4.3178097 -0.090494022 0.5)
(-4.3176586 -0.088540365 0.5)
(-4.317513 -0.086623881 0.5)
(-4.3173725 -0.084740586 0.5)
(-4.3172365 -0.082886751 0.5)
(-4.3171046 -0.081058872 0.5)
(-4.3169762 -0.079253631 0.5)
(-4.3168512 -0.077467873 0.5)
(-4.316729 -0.075698578 0.5)
(-4.3166095 -0.073942838 0.5)
(-4.3164923 -0.072197835 0.5)
(-4.3163771 -0.070460825 0.5)
(-4.3162636 -0.068729115 0.5)
(-4.3161517 -0.067000047 0.5)
(-4.3160411 -0.065270978 0.5)
(-4.3159316 -0.063539269 0.5)
(-4.315823 -0.061802259 0.5)
(-4.315715 -0.060057258 0.5)
(-4.3156076 -0.058301518 0.5)
(-4.3155004 -0.056532225 0.5)
(-4.3153932 -0.054746468 0.5)
(-4.315286 -0.05294123 0.5)
(-4.3151785 -0.051113353 0.5)
(-4.3150705 -0.049259522 0.5)
(-4.3149617 -0.047376229 0.5)
(-4.3148521 -0.045459749 0.5)
(-4.3147414 -0.043506098 0.5)
(-4.3146293 -0.041510992 0.5)
(-4.3145156 -0.039469806 0.5)
(-4.3144001 -0.03737751 0.5)
(-4.3142826 -0.035228613 0.5)
(-4.3141627 -0.03301708 0.5)
(-4.3140401 -0.03073624 0.5)
(-4.3139146 -0.028378683 0.5)
(-4.3137857 -0.02593612 0.5)
(-4.3136532 -0.023399208 0.5)
(-4.3135165 -0.020757358 0.5)
(-4.3133753 -0.017998455 0.5)
(-4.3132291 -0.015108524 0.5)
(-4.3130773 -0.01207128 0.5)
(-4.3129192 -0.0088675188 0.5)
(-4.3127541 -0.0054742975 0.5)
(-4.3125812 -0.0018637663 0.5)
(-4.5362203 -0.13205301 0.5)
(-4.5355765 -0.12829537 0.5)
(-4.5350001 -0.12479129 0.5)
(-4.5344793 -0.12150489 0.5)
(-4.534005 -0.11840724 0.5)
(-4.53357 -0.11547461 0.5)
(-4.5331685 -0.11268724 0.5)
(-4.5327957 -0.11002843 0.5)
(-4.5324479 -0.10748395 0.5)
(-4.5321217 -0.10504152 0.5)
(-4.5318146 -0.10269044 0.5)
(-4.5315242 -0.10042134 0.5)
(-4.5312485 -0.098225925 0.5)
(-4.530986 -0.096096791 0.5)
(-4.5307351 -0.094027312 0.5)
(-4.5304946 -0.092011503 0.5)
(-4.5302634 -0.090043926 0.5)
(-4.5300405 -0.088119612 0.5)
(-4.5298251 -0.086233992 0.5)
(-4.5296163 -0.084382838 0.5)
(-4.5294135 -0.082562218 0.5)
(-4.5292161 -0.08076845 0.5)
(-4.5290233 -0.078998067 0.5)
(-4.5288349 -0.077247781 0.5)
(-4.5286501 -0.075514457 0.5)
(-4.5284687 -0.073795086 0.5)
(-4.5282901 -0.072086761 0.5)
(-4.528114 -0.070386652 0.5)
(-4.5279399 -0.068691989 0.5)
(-4.5277676 -0.067000039 0.5)
(-4.5275966 -0.065308089 0.5)
(-4.5274267 -0.063613426 0.5)
(-4.5272575 -0.061913317 0.5)
(-4.5270886 -0.060204993 0.5)
(-4.5269198 -0.058485623 0.5)
(-4.5267507 -0.0567523 0.5)
(-4.526581 -0.055002016 0.5)
(-4.5264103 -0.053231634 0.5)
(-4.5262383 -0.051437868 0.5)
(-4.5260647 -0.049617251 0.5)
(-4.525889 -0.0477661 0.5)
(-4.5257108 -0.045880482 0.5)
(-4.5255298 -0.043956172 0.5)
(-4.5253454 -0.0419886 0.5)
(-4.5251571 -0.039972796 0.5)
(-4.5249644 -0.037903323 0.5)
(-4.5247668 -0.035774196 0.5)
(-4.5245634 -0.033578785 0.5)
(-4.5243535 -0.031309696 0.5)
(-4.5241364 -0.028958633 0.5)
(-4.523911 -0.026516215 0.5)
(-4.5236761 -0.023971752 0.5)
(-4.5234304 -0.021312964 0.5)
(-4.5231724 -0.01852561 0.5)
(-4.5229002 -0.015593011 0.5)
(-4.5226114 -0.0124954 0.5)
(-4.5223031 -0.0092090423 0.5)
(-4.5219716 -0.0057050128 0.5)
(-4.5216122 -0.0019474363 0.5)
(-4.7504016 -0.13196901 0.5)
(-4.7496267 -0.12806399 0.5)
(-4.7489294 -0.12444884 0.5)
(-4.7482966 -0.12107965 0.5)
(-4.747718 -0.1179215 0.5)
(-4.7471852 -0.11494611 0.5)
(-4.7466919 -0.11213021 0.5)
(-4.7462324 -0.10945443 0.5)
(-4.7458025 -0.10690239 0.5)
(-4.7453982 -0.1044601 0.5)
(-4.7450166 -0.10211554 0.5)
(-4.744655 -0.099858224 0.5)
(-4.744311 -0.097678969 0.5)
(-4.7439827 -0.095569655 0.5)
(-4.7436683 -0.093523057 0.5)
(-4.7433665 -0.091532694 0.5)
(-4.7430758 -0.08959272 0.5)
(-4.7427951 -0.087697821 0.5)
(-4.7425233 -0.08584314 0.5)
(-4.7422595 -0.084024208 0.5)
(-4.7420029 -0.082236885 0.5)
(-4.7417527 -0.080477312 0.5)
(-4.7415081 -0.078741872 0.5)
(-4.7412685 -0.077027145 0.5)
(-4.7410334 -0.075329882 0.5)
(-4.7408021 -0.073646971 0.5)
(-4.7405742 -0.071975413 0.5)
(-4.740349 -0.070312296 0.5)
(-4.7401263 -0.06865477 0.5)
(-4.7399054 -0.067000031 0.5)
(-4.7396859 -0.065345291 0.5)
(-4.7394674 -0.063687766 0.5)
(-4.7392496 -0.062024649 0.5)
(-4.7390318 -0.060353092 0.5)
(-4.7388138 -0.058670182 0.5)
(-4.7385951 -0.056972919 0.5)
(-4.7383752 -0.055258193 0.5)
(-4.7381536 -0.053522754 0.5)
(-4.73793 -0.051763184 0.5)
(-4.7377038 -0.049975862 0.5)
(-4.7374744 -0.048156932 0.5)
(-4.7372414 -0.046302254 0.5)
(-4.737004 -0.044407358 0.5)
(-4.7367617 -0.042467387 0.5)
(-4.7365137 -0.040477028 0.5)
(-4.7362592 -0.038430434 0.5)
(-4.7359973 -0.036321126 0.5)
(-4.735727 -0.034141877 0.5)
(-4.7354472 -0.031884568 0.5)
(-4.7351565 -0.029540014 0.5)
(-4.7348535 -0.027097743 0.5)
(-4.7345364 -0.024545709 0.5)
(-4.7342031 -0.021869941 0.5)
(-4.7338511 -0.019054068 0.5)
(-4.7334773 -0.016078695 0.5)
(-4.7330779 -0.012920567 0.5)
(-4.7326483 -0.0095514091 0.5)
(-4.7321824 -0.0059362978 0.5)
(-4.7316721 -0.0020313119 0.5)
(-4.9646036 -0.13188481 0.5)
(-4.9637312 -0.12783203 0.5)
(-4.9629439 -0.12410554 0.5)
(-4.9622274 -0.12065336 0.5)
(-4.9615707 -0.11743455 0.5)
(-4.9609647 -0.11441629 0.5)
(-4.9604023 -0.11157181 0.5)
(-4.9598776 -0.10887901 0.5)
(-4.9593857 -0.10631938 0.5)
(-4.9589225 -0.10387725 0.5)
(-4.9584846 -0.10153922 0.5)
(-4.9580691 -0.099293711 0.5)
(-4.9576733 -0.097130659 0.5)
(-4.9572952 -0.095041216 0.5)
(-4.9569328 -0.093017554 0.5)
(-4.9565844 -0.091052701 0.5)
(-4.9562486 -0.089140397 0.5)
(-4.9559241 -0.087274986 0.5)
(-4.9556096 -0.085451322 0.5)
(-4.9553041 -0.083664691 0.5)
(-4.9550067 -0.081910746 0.5)
(-4.9547165 -0.080185455 0.5)
(-4.9544326 -0.078485044 0.5)
(-4.9541544 -0.076805964 0.5)
(-4.9538811 -0.075144851 0.5)
(-4.9536122 -0.07349849 0.5)
(-4.9533469 -0.07186379 0.5)
(-4.9530848 -0.070237756 0.5)
(-4.9528252 -0.06861746 0.5)
(-4.9525676 -0.067000023 0.5)
(-4.9523116 -0.065382586 0.5)
(-4.9520566 -0.063762291 0.5)
(-4.951802 -0.062136257 0.5)
(-4.9515475 -0.060501557 0.5)
(-4.9512925 -0.058855197 0.5)
(-4.9510364 -0.057194084 0.5)
(-4.9507788 -0.055515005 0.5)
(-4.9505191 -0.053814595 0.5)
(-4.9502566 -0.052089304 0.5)
(-4.949991 -0.050335361 0.5)
(-4.9497213 -0.048548732 0.5)
(-4.9494471 -0.046725069 0.5)
(-4.9491675 -0.04485966 0.5)
(-4.9488817 -0.042947358 0.5)
(-4.9485889 -0.040982508 0.5)
(-4.9482879 -0.03895885 0.5)
(-4.9479778 -0.03686941 0.5)
(-4.9476573 -0.034706363 0.5)
(-4.9473249 -0.032460862 0.5)
(-4.9469789 -0.030122834 0.5)
(-4.9466175 -0.02768071 0.5)
(-4.9462383 -0.025121087 0.5)
(-4.9458388 -0.022428297 0.5)
(-4.9454156 -0.019583832 0.5)
(-4.9449649 -0.01656558 0.5)
(-4.9444816 -0.013346786 0.5)
(-4.9439597 -0.0098946233 0.5)
(-4.9433913 -0.0061681551 0.5)
(-4.9427659 -0.0021153938 0.5)
(-5.1788259 -0.1318004 0.5)
(-5.1778901 -0.1275995 0.5)
(-5.1770438 -0.12376139 0.5)
(-5.1762723 -0.12022601 0.5)
(-5.1755638 -0.1169464 0.5)
(-5.1749091 -0.11388516 0.5)
(-5.1743006 -0.11101203 0.5)
(-5.1737322 -0.10830217 0.5)
(-5.1731987 -0.10573493 0.5)
(-5.1726958 -0.10329295 0.5)
(-5.17222 -0.10096146 0.5)
(-5.1717679 -0.098727796 0.5)
(-5.1713371 -0.09658099 0.5)
(-5.1709252 -0.094511465 0.5)
(-5.1705302 -0.092510798 0.5)
(-5.1701502 -0.090571518 0.5)
(-5.1697838 -0.088686953 0.5)
(-5.1694294 -0.086851103 0.5)
(-5.1690859 -0.085058532 0.5)
(-5.1687521 -0.083304282 0.5)
(-5.168427 -0.0815838 0.5)
(-5.1681096 -0.079892874 0.5)
(-5.1677991 -0.078227579 0.5)
(-5.1674947 -0.076584235 0.5)
(-5.1671956 -0.074959361 0.5)
(-5.1669012 -0.07334964 0.5)
(-5.1666107 -0.071751891 0.5)
(-5.1663236 -0.070163031 0.5)
(-5.1660392 -0.068580058 0.5)
(-5.165757 -0.067000016 0.5)
(-5.1654764 -0.065419973 0.5)
(-5.1651968 -0.063837 0.5)
(-5.1649177 -0.062248141 0.5)
(-5.1646385 -0.060650391 0.5)
(-5.1643587 -0.059040671 0.5)
(-5.1640777 -0.057415797 0.5)
(-5.1637949 -0.055772453 0.5)
(-5.1635096 -0.05410716 0.5)
(-5.1632214 -0.052416234 0.5)
(-5.1629294 -0.050695752 0.5)
(-5.162633 -0.048941503 0.5)
(-5.1623313 -0.047148933 0.5)
(-5.1620236 -0.045313084 0.5)
(-5.1617089 -0.043428521 0.5)
(-5.1613862 -0.041489242 0.5)
(-5.1610544 -0.039488577 0.5)
(-5.1607122 -0.037419054 0.5)
(-5.1603581 -0.03527225 0.5)
(-5.1599905 -0.033038587 0.5)
(-5.1596075 -0.0307071 0.5)
(-5.1592069 -0.028265123 0.5)
(-5.1587861 -0.025697892 0.5)
(-5.1583419 -0.022988038 0.5)
(-5.1578706 -0.020114911 0.5)
(-5.1573675 -0.017053673 0.5)
(-5.1568271 -0.013774063 0.5)
(-5.156242 -0.010238689 0.5)
(-5.1556031 -0.0064005875 0.5)
(-5.1548983 -0.0021996832 0.5)
(-5.3930686 -0.13171577 0.5)
(-5.3921035 -0.12736638 0.5)
(-5.3912296 -0.12341638 0.5)
(-5.3904317 -0.1197976 0.5)
(-5.3896981 -0.11645703 0.5)
(-5.3890194 -0.1133527 0.5)
(-5.3883879 -0.11045084 0.5)
(-5.3877974 -0.10772389 0.5)
(-5.3872427 -0.10514903 0.5)
(-5.3867194 -0.1027072 0.5)
(-5.3862239 -0.10038227 0.5)
(-5.385753 -0.098160475 0.5)
(-5.3853039 -0.096029953 0.5)
(-5.3848743 -0.093980397 0.5)
(-5.3844621 -0.092002782 0.5)
(-5.3840655 -0.090089138 0.5)
(-5.3836829 -0.088232382 0.5)
(-5.3833129 -0.086426167 0.5)
(-5.3829541 -0.084664766 0.5)
(-5.3826054 -0.082942978 0.5)
(-5.3822658 -0.081256041 0.5)
(-5.3819342 -0.079599565 0.5)
(-5.3816098 -0.077969475 0.5)
(-5.3812917 -0.076361956 0.5)
(-5.3809792 -0.07477341 0.5)
(-5.3806715 -0.073200421 0.5)
(-5.380368 -0.071639713 0.5)
(-5.380068 -0.070088121 0.5)
(-5.3797709 -0.068542563 0.5)
(-5.379476 -0.067000008 0.5)
(-5.3791828 -0.065457453 0.5)
(-5.3788908 -0.063911895 0.5)
(-5.3785992 -0.062360303 0.5)
(-5.3783076 -0.060799595 0.5)
(-5.3780154 -0.059226606 0.5)
(-5.3777218 -0.057638061 0.5)
(-5.3774264 -0.056030542 0.5)
(-5.3771285 -0.054400451 0.5)
(-5.3768274 -0.052743976 0.5)
(-5.3765224 -0.051057039 0.5)
(-5.3762127 -0.049335251 0.5)
(-5.3758975 -0.047573851 0.5)
(-5.3755759 -0.045767636 0.5)
(-5.3752469 -0.04391088 0.5)
(-5.3749095 -0.041997237 0.5)
(-5.3745623 -0.040019621 0.5)
(-5.3742041 -0.037970066 0.5)
(-5.3738333 -0.035839544 0.5)
(-5.3734481 -0.033617749 0.5)
(-5.3730465 -0.03129282 0.5)
(-5.372626 -0.02885099 0.5)
(-5.3721839 -0.026276132 0.5)
(-5.3717167 -0.023549172 0.5)
(-5.3712203 -0.020647311 0.5)
(-5.3706898 -0.01754298 0.5)
(-5.370119 -0.014202403 0.5)
(-5.3695 -0.01058361 0.5)
(-5.3688229 -0.0066335978 0.5)
(-5.3680745 -0.0022841809 0.5)
(-5.6073315 -0.13163093 0.5)
(-5.6063718 -0.12713268 0.5)
(-5.6055016 -0.12307051 0.5)
(-5.6047063 -0.11936812 0.5)
(-5.6039743 -0.11596644 0.5)
(-5.6032963 -0.11281892 0.5)
(-5.602665 -0.10988826 0.5)
(-5.6020742 -0.10714416 0.5)
(-5.6015188 -0.10456166 0.5)
(-5.6009946 -0.10211999 0.5)
(-5.6004978 -0.099801635 0.5)
(-5.6000256 -0.097591739 0.5)
(-5.599575 -0.095477543 0.5)
(-5.5991439 -0.093448006 0.5)
(-5.5987302 -0.091493499 0.5)
(-5.5983321 -0.089605556 0.5)
(-5.597948 -0.087776678 0.5)
(-5.5975765 -0.086000171 0.5)
(-5.5972163 -0.084270019 0.5)
(-5.5968662 -0.082580774 0.5)
(-5.5965252 -0.080927466 0.5)
(-5.5961924 -0.079305527 0.5)
(-5.5958668 -0.077710728 0.5)
(-5.5955476 -0.076139122 0.5)
(-5.5952341 -0.074586997 0.5)
(-5.5949255 -0.073050831 0.5)
(-5.5946212 -0.071527257 0.5)
(-5.5943204 -0.070013025 0.5)
(-5.5940227 -0.068504975 0.5)
(-5.5937273 -0.067000001 0.5)
(-5.5934337 -0.065495027 0.5)
(-5.5931413 -0.063986977 0.5)
(-5.5928495 -0.062472745 0.5)
(-5.5925577 -0.060949171 0.5)
(-5.5922654 -0.059413005 0.5)
(-5.5919719 -0.057860879 0.5)
(-5.5916766 -0.056289273 0.5)
(-5.5913788 -0.054694474 0.5)
(-5.5910779 -0.053072535 0.5)
(-5.5907732 -0.051419226 0.5)
(-5.5904638 -0.049729981 0.5)
(-5.590149 -0.047999828 0.5)
(-5.5898278 -0.046223321 0.5)
(-5.5894992 -0.044394441 0.5)
(-5.5891621 -0.042506498 0.5)
(-5.5888153 -0.04055199 0.5)
(-5.5884574 -0.038522451 0.5)
(-5.5880868 -0.036408253 0.5)
(-5.5877016 -0.034198355 0.5)
(-5.5872998 -0.03188 0.5)
(-5.5868789 -0.029438318 0.5)
(-5.586436 -0.026855813 0.5)
(-5.5859675 -0.024111704 0.5)
(-5.5854694 -0.021181039 0.5)
(-5.5849363 -0.018033506 0.5)
(-5.5843621 -0.01463181 0.5)
(-5.5837386 -0.010929392 0.5)
(-5.5830555 -0.0068671887 0.5)
(-5.5822994 -0.0023688879 0.5)
(-5.8216145 -0.13154587 0.5)
(-5.8206949 -0.12689839 0.5)
(-5.8198603 -0.12272377 0.5)
(-5.8190966 -0.11893756 0.5)
(-5.818393 -0.11547462 0.5)
(-5.8177407 -0.1122838 0.5)
(-5.8171329 -0.10932428 0.5)
(-5.8165636 -0.10656299 0.5)
(-5.8160281 -0.10397283 0.5)
(-5.8155225 -0.1015313 0.5)
(-5.8150431 -0.099219547 0.5)
(-5.8145872 -0.097021581 0.5)
(-5.8141521 -0.094923752 0.5)
(-5.8137358 -0.092914284 0.5)
(-5.8133362 -0.090982944 0.5)
(-5.8129517 -0.089120766 0.5)
(-5.8125808 -0.087319835 0.5)
(-5.812222 -0.085573111 0.5)
(-5.8118742 -0.083874286 0.5)
(-5.8115363 -0.082217665 0.5)
(-5.8112073 -0.08059807 0.5)
(-5.8108862 -0.079010754 0.5)
(-5.8105723 -0.077451335 0.5)
(-5.8102647 -0.075915733 0.5)
(-5.8099627 -0.074400118 0.5)
(-5.8096655 -0.072900867 0.5)
(-5.8093727 -0.071414519 0.5)
(-5.8090835 -0.069937742 0.5)
(-5.8087973 -0.068467293 0.5)
(-5.8085135 -0.066999994 0.5)
(-5.8082316 -0.065532695 0.5)
(-5.8079511 -0.064062246 0.5)
(-5.8076713 -0.062585468 0.5)
(-5.8073917 -0.06109912 0.5)
(-5.8071117 -0.059599869 0.5)
(-5.8068308 -0.058084254 0.5)
(-5.8065483 -0.056548651 0.5)
(-5.8062636 -0.054989232 0.5)
(-5.8059761 -0.053401915 0.5)
(-5.805685 -0.051782319 0.5)
(-5.8053896 -0.050125697 0.5)
(-5.8050892 -0.04842687 0.5)
(-5.8047827 -0.046680145 0.5)
(-5.8044693 -0.044879212 0.5)
(-5.8041478 -0.043017032 0.5)
(-5.8038171 -0.041085689 0.5)
(-5.8034758 -0.039076218 0.5)
(-5.8031224 -0.036978384 0.5)
(-5.8027549 -0.034780412 0.5)
(-5.8023715 -0.032468648 0.5)
(-5.8019697 -0.030027114 0.5)
(-5.8015466 -0.027436944 0.5)
(-5.8010988 -0.024675643 0.5)
(-5.8006222 -0.0217161 0.5)
(-5.8001117 -0.018525259 0.5)
(-5.7995612 -0.015062291 0.5)
(-5.7989626 -0.011276038 0.5)
(-5.798306 -0.0071013632 0.5)
(-5.7975783 -0.0024538054 0.5)
(-6.0359175 -0.1314606 0.5)
(-6.0350732 -0.12666352 0.5)
(-6.034306 -0.12237616 0.5)
(-6.0336031 -0.11850592 0.5)
(-6.0329549 -0.11498157 0.5)
(-6.0323535 -0.11174735 0.5)
(-6.0317925 -0.10875888 0.5)
(-6.0312668 -0.10598036 0.5)
(-6.0307719 -0.10338252 0.5)
(-6.0303044 -0.10094115 0.5)
(-6.0298611 -0.098636002 0.5)
(-6.0294393 -0.096449995 0.5)
(-6.0290368 -0.094368573 0.5)
(-6.0286515 -0.092379224 0.5)
(-6.0282818 -0.09047111 0.5)
(-6.0279261 -0.088634762 0.5)
(-6.027583 -0.086861848 0.5)
(-6.0272513 -0.085144982 0.5)
(-6.02693 -0.083477562 0.5)
(-6.0266179 -0.081853647 0.5)
(-6.0263141 -0.080267849 0.5)
(-6.026018 -0.078715243 0.5)
(-6.0257285 -0.077191293 0.5)
(-6.0254452 -0.075691784 0.5)
(-6.0251672 -0.074212772 0.5)
(-6.024894 -0.072750528 0.5)
(-6.024625 -0.0713015 0.5)
(-6.0243595 -0.06986227 0.5)
(-6.0240971 -0.068429517 0.5)
(-6.0238372 -0.066999987 0.5)
(-6.0235793 -0.065570457 0.5)
(-6.0233229 -0.064137704 0.5)
(-6.0230674 -0.062698474 0.5)
(-6.0228124 -0.061249445 0.5)
(-6.0225572 -0.059787201 0.5)
(-6.0223015 -0.058308188 0.5)
(-6.0220447 -0.056808679 0.5)
(-6.021786 -0.055284727 0.5)
(-6.0215251 -0.05373212 0.5)
(-6.0212612 -0.052146321 0.5)
(-6.0209936 -0.050522404 0.5)
(-6.0207215 -0.048854982 0.5)
(-6.0204443 -0.047138113 0.5)
(-6.0201609 -0.045365197 0.5)
(-6.0198703 -0.043528845 0.5)
(-6.0195715 -0.041620726 0.5)
(-6.0192632 -0.039631372 0.5)
(-6.018944 -0.037549943 0.5)
(-6.0186122 -0.035363929 0.5)
(-6.0182658 -0.033058772 0.5)
(-6.0179027 -0.030617386 0.5)
(-6.0175201 -0.028019531 0.5)
(-6.017115 -0.025240995 0.5)
(-6.0166834 -0.022252503 0.5)
(-6.0162206 -0.019018244 0.5)
(-6.0157209 -0.01549385 0.5)
(-6.015177 -0.011623552 0.5)
(-6.0145794 -0.0073361241 0.5)
(-6.0139161 -0.0025389342 0.5)
(-6.2502406 -0.13137511 0.5)
(-6.2495069 -0.12642805 0.5)
(-6.2488391 -0.12202768 0.5)
(-6.2482265 -0.1180732 0.5)
(-6.2476609 -0.11448728 0.5)
(-6.2471354 -0.11120954 0.5)
(-6.2466448 -0.10819206 0.5)
(-6.2461847 -0.10539627 0.5)
(-6.2457513 -0.10279073 0.5)
(-6.2453417 -0.10034951 0.5)
(-6.2449531 -0.09805099 0.5)
(-6.2445833 -0.095876973 0.5)
(-6.2442304 -0.093812 0.5)
(-6.2438927 -0.091842821 0.5)
(-6.2435687 -0.08995799 0.5)
(-6.2432571 -0.088147537 0.5)
(-6.2429567 -0.086402712 0.5)
(-6.2426665 -0.084715778 0.5)
(-6.2423855 -0.083079842 0.5)
(-6.2421129 -0.081488716 0.5)
(-6.2418478 -0.0799368 0.5)
(-6.2415897 -0.078418991 0.5)
(-6.2413378 -0.076930598 0.5)
(-6.2410914 -0.075467274 0.5)
(-6.2408502 -0.074024956 0.5)
(-6.2406134 -0.072599813 0.5)
(-6.2403805 -0.071188198 0.5)
(-6.2401512 -0.069786609 0.5)
(-6.2399248 -0.068391646 0.5)
(-6.2397011 -0.066999981 0.5)
(-6.2394794 -0.065608315 0.5)
(-6.2392594 -0.064213352 0.5)
(-6.2390406 -0.062811763 0.5)
(-6.2388226 -0.061400147 0.5)
(-6.238605 -0.059975003 0.5)
(-6.2383872 -0.058532684 0.5)
(-6.2381688 -0.057069359 0.5)
(-6.2379493 -0.055580965 0.5)
(-6.2377282 -0.054063154 0.5)
(-6.237505 -0.052511236 0.5)
(-6.2372789 -0.050920107 0.5)
(-6.2370495 -0.049284169 0.5)
(-6.2368159 -0.047597232 0.5)
(-6.2365775 -0.045852403 0.5)
(-6.2363332 -0.044041944 0.5)
(-6.2360823 -0.042157107 0.5)
(-6.2358235 -0.040187921 0.5)
(-6.2355556 -0.038122939 0.5)
(-6.2352773 -0.035948911 0.5)
(-6.2349867 -0.033650378 0.5)
(-6.234682 -0.031209141 0.5)
(-6.2343608 -0.028603582 0.5)
(-6.2340204 -0.025807767 0.5)
(-6.2336574 -0.022790252 0.5)
(-6.2332677 -0.019512468 0.5)
(-6.2328462 -0.015926494 0.5)
(-6.2323866 -0.011971939 0.5)
(-6.2318808 -0.0075714743 0.5)
(-6.2313181 -0.0026242753 0.5)
(-6.4645837 -0.1312894 0.5)
(-6.4639961 -0.12619198 0.5)
(-6.46346 -0.12167832 0.5)
(-6.4629673 -0.11763939 0.5)
(-6.4625115 -0.11399174 0.5)
(-6.4620874 -0.11067038 0.5)
(-6.4616908 -0.10762381 0.5)
(-6.4613185 -0.1048107 0.5)
(-6.4609675 -0.10219745 0.5)
(-6.4606355 -0.099756381 0.5)
(-6.4603205 -0.097464505 0.5)
(-6.4600207 -0.095302508 0.5)
(-6.4597346 -0.093254026 0.5)
(-6.4594609 -0.091305068 0.5)
(-6.4591985 -0.089443579 0.5)
(-6.4589463 -0.087659085 0.5)
(-6.4587035 -0.08594242 0.5)
(-6.4584692 -0.084285494 0.5)
(-6.4582427 -0.082681122 0.5)
(-6.4580233 -0.081122866 0.5)
(-6.4578105 -0.079604918 0.5)
(-6.4576036 -0.078121994 0.5)
(-6.4574022 -0.076669248 0.5)
(-6.4572057 -0.075242199 0.5)
(-6.4570137 -0.073836668 0.5)
(-6.4568259 -0.072448718 0.5)
(-6.4566417 -0.071074611 0.5)
(-6.4564609 -0.069710758 0.5)
(-6.456283 -0.068353681 0.5)
(-6.4561077 -0.066999974 0.5)
(-6.4559346 -0.065646267 0.5)
(-6.4557634 -0.06428919 0.5)
(-6.4555938 -0.062925337 0.5)
(-6.4554254 -0.061551229 0.5)
(-6.4552578 -0.060163278 0.5)
(-6.4550907 -0.058757746 0.5)
(-6.4549238 -0.057330695 0.5)
(-6.4547566 -0.055877948 0.5)
(-6.4545887 -0.054395021 0.5)
(-6.4544197 -0.052877071 0.5)
(-6.4542492 -0.051318812 0.5)
(-6.4540765 -0.049714436 0.5)
(-6.4539012 -0.048057507 0.5)
(-6.4537227 -0.046340835 0.5)
(-6.4535403 -0.044556336 0.5)
(-6.4533531 -0.042694839 0.5)
(-6.4531604 -0.040745872 0.5)
(-6.4529612 -0.038697378 0.5)
(-6.4527543 -0.036535367 0.5)
(-6.4525384 -0.034243474 0.5)
(-6.4523119 -0.031802386 0.5)
(-6.452073 -0.029189103 0.5)
(-6.4518195 -0.026375966 0.5)
(-6.4515488 -0.023329356 0.5)
(-6.4512575 -0.020007936 0.5)
(-6.4509418 -0.016360227 0.5)
(-6.4505965 -0.012321203 0.5)
(-6.4502152 -0.0078074166 0.5)
(-6.4497895 -0.00270983 0.5)
(-6.6789469 -0.13120347 0.5)
(-6.6785411 -0.12595532 0.5)
(-6.6781693 -0.12132807 0.5)
(-6.6778261 -0.11720447 0.5)
(-6.6775075 -0.11349496 0.5)
(-6.6772102 -0.11012985 0.5)
(-6.6769315 -0.10705413 0.5)
(-6.6766692 -0.10422366 0.5)
(-6.6764217 -0.10160267 0.5)
(-6.6761873 -0.099161755 0.5)
(-6.6759647 -0.09687654 0.5)
(-6.6757529 -0.094726593 0.5)
(-6.6755509 -0.092694643 0.5)
(-6.6753578 -0.090765957 0.5)
(-6.675173 -0.088927869 0.5)
(-6.6749957 -0.087169402 0.5)
(-6.6748254 -0.085480966 0.5)
(-6.6746616 -0.083854125 0.5)
(-6.6745037 -0.082281396 0.5)
(-6.6743514 -0.080756094 0.5)
(-6.6742042 -0.0792722 0.5)
(-6.6740618 -0.077824248 0.5)
(-6.6739239 -0.076407239 0.5)
(-6.6737902 -0.075016557 0.5)
(-6.6736603 -0.073647905 0.5)
(-6.673534 -0.072297243 0.5)
(-6.673411 -0.070960738 0.5)
(-6.6732912 -0.069634716 0.5)
(-6.6731741 -0.06831562 0.5)
(-6.6730597 -0.066999968 0.5)
(-6.6729476 -0.065684316 0.5)
(-6.6728377 -0.064365219 0.5)
(-6.6727298 -0.063039197 0.5)
(-6.6726235 -0.061702691 0.5)
(-6.6725188 -0.060352028 0.5)
(-6.6724152 -0.058983374 0.5)
(-6.6723127 -0.057592691 0.5)
(-6.672211 -0.05617568 0.5)
(-6.6721098 -0.054727726 0.5)
(-6.6720087 -0.053243828 0.5)
(-6.6719076 -0.051718523 0.5)
(-6.6718061 -0.05014579 0.5)
(-6.6717038 -0.048518943 0.5)
(-6.6716003 -0.046830501 0.5)
(-6.6714951 -0.045072026 0.5)
(-6.6713879 -0.043233929 0.5)
(-6.671278 -0.041305231 0.5)
(-6.6711647 -0.039273267 0.5)
(-6.6710473 -0.037123304 0.5)
(-6.6709249 -0.034838068 0.5)
(-6.6707966 -0.032397129 0.5)
(-6.670661 -0.029776103 0.5)
(-6.6705168 -0.0269456 0.5)
(-6.6703622 -0.023869821 0.5)
(-6.670195 -0.020504655 0.5)
(-6.6700126 -0.016795054 0.5)
(-6.6698116 -0.012671349 0.5)
(-6.6695877 -0.008043954 0.5)
(-6.6693356 -0.0027955991 0.5)
(-6.8933301 -0.13111732 0.5)
(-6.8931421 -0.12571805 0.5)
(-6.8929672 -0.12097693 0.5)
(-6.8928035 -0.11676846 0.5)
(-6.8926496 -0.11299691 0.5)
(-6.8925047 -0.10958796 0.5)
(-6.8923677 -0.106483 0.5)
(-6.892238 -0.10363513 0.5)
(-6.892115 -0.10100638 0.5)
(-6.8919982 -0.098565624 0.5)
(-6.8918871 -0.096287086 0.5)
(-6.8917815 -0.094149221 0.5)
(-6.8916809 -0.092133844 0.5)
(-6.8915851 -0.090225482 0.5)
(-6.8914939 -0.088410855 0.5)
(-6.891407 -0.086678479 0.5)
(-6.8913242 -0.085018345 0.5)
(-6.8912454 -0.083421664 0.5)
(-6.8911704 -0.081880659 0.5)
(-6.891099 -0.080388395 0.5)
(-6.8910311 -0.07893864 0.5)
(-6.8909666 -0.07752575 0.5)
(-6.8909053 -0.076144568 0.5)
(-6.8908473 -0.074790345 0.5)
(-6.8907922 -0.073458665 0.5)
(-6.8907402 -0.072145385 0.5)
(-6.890691 -0.070846577 0.5)
(-6.8906445 -0.069558482 0.5)
(-6.8906008 -0.068277463 0.5)
(-6.8905597 -0.066999962 0.5)
(-6.8905212 -0.06572246 0.5)
(-6.8904851 -0.064441441 0.5)
(-6.8904513 -0.063153345 0.5)
(-6.8904199 -0.061854537 0.5)
(-6.8903908 -0.060541255 0.5)
(-6.8903637 -0.059209574 0.5)
(-6.8903388 -0.057855349 0.5)
(-6.8903158 -0.056474165 0.5)
(-6.8902947 -0.055061272 0.5)
(-6.8902754 -0.053611513 0.5)
(-6.8902578 -0.052119245 0.5)
(-6.8902417 -0.050578234 0.5)
(-6.8902271 -0.048981547 0.5)
(-6.8902138 -0.047321406 0.5)
(-6.8902016 -0.045589021 0.5)
(-6.8901904 -0.043774383 0.5)
(-6.8901799 -0.041866007 0.5)
(-6.89017 -0.039850614 0.5)
(-6.8901604 -0.037712728 0.5)
(-6.8901506 -0.035434166 0.5)
(-6.8901404 -0.032993377 0.5)
(-6.8901293 -0.030364589 0.5)
(-6.8901168 -0.027516676 0.5)
(-6.8901022 -0.024411654 0.5)
(-6.8900847 -0.021002631 0.5)
(-6.8900634 -0.017230982 0.5)
(-6.8900369 -0.01302238 0.5)
(-6.8900036 -0.0082810894 0.5)
(-6.8899616 -0.0028815838 0.5)
(-1.5518443 -0.0010760057 0.5)
(-1.5518127 -0.0032333108 0.5)
(-1.5517842 -0.0054012136 0.5)
(-1.5517584 -0.007579668 0.5)
(-1.5517351 -0.0097685763 0.5)
(-1.551714 -0.011967796 0.5)
(-1.5516948 -0.014177144 0.5)
(-1.5516773 -0.016396401 0.5)
(-1.5516615 -0.018625318 0.5)
(-1.551647 -0.020863615 0.5)
(-1.5516339 -0.023110987 0.5)
(-1.5516219 -0.025367104 0.5)
(-1.551611 -0.027631616 0.5)
(-1.5516011 -0.029904153 0.5)
(-1.5515921 -0.032184326 0.5)
(-1.551584 -0.034471731 0.5)
(-1.5515766 -0.036765948 0.5)
(-1.55157 -0.039066545 0.5)
(-1.551564 -0.041373076 0.5)
(-1.5515587 -0.043685085 0.5)
(-1.551554 -0.046002103 0.5)
(-1.5515498 -0.048323657 0.5)
(-1.5515462 -0.050649261 0.5)
(-1.5515431 -0.052978425 0.5)
(-1.5515406 -0.055310651 0.5)
(-1.5515385 -0.057645438 0.5)
(-1.5515369 -0.059982277 0.5)
(-1.5515358 -0.06232066 0.5)
(-1.5515351 -0.064660072 0.5)
(-1.5515348 -0.067 0.5)
(-1.5515351 -0.069339928 0.5)
(-1.5515358 -0.07167934 0.5)
(-1.5515369 -0.074017723 0.5)
(-1.5515385 -0.076354562 0.5)
(-1.5515406 -0.078689349 0.5)
(-1.5515431 -0.081021575 0.5)
(-1.5515462 -0.083350739 0.5)
(-1.5515498 -0.085676343 0.5)
(-1.551554 -0.087997897 0.5)
(-1.5515587 -0.090314915 0.5)
(-1.551564 -0.092626924 0.5)
(-1.55157 -0.094933455 0.5)
(-1.5515766 -0.097234052 0.5)
(-1.551584 -0.099528269 0.5)
(-1.5515921 -0.10181567 0.5)
(-1.5516011 -0.10409585 0.5)
(-1.551611 -0.10636838 0.5)
(-1.5516219 -0.1086329 0.5)
(-1.5516339 -0.11088901 0.5)
(-1.551647 -0.11313638 0.5)
(-1.5516615 -0.11537468 0.5)
(-1.5516773 -0.1176036 0.5)
(-1.5516948 -0.11982286 0.5)
(-1.551714 -0.1220322 0.5)
(-1.5517351 -0.12423142 0.5)
(-1.5517584 -0.12642033 0.5)
(-1.5517842 -0.12859879 0.5)
(-1.5518127 -0.13076669 0.5)
(-1.5518443 -0.13292399 0.5)
(-1.6592464 -0.0011050446 0.5)
(-1.6592113 -0.0033164361 0.5)
(-1.6591794 -0.0055308124 0.5)
(-1.6591505 -0.0077488205 0.5)
(-1.6591241 -0.009970979 0.5)
(-1.6591 -0.012197695 0.5)
(-1.6590781 -0.014429281 0.5)
(-1.6590581 -0.016665962 0.5)
(-1.6590398 -0.018907891 0.5)
(-1.6590231 -0.021155155 0.5)
(-1.6590078 -0.023407783 0.5)
(-1.6589939 -0.025665753 0.5)
(-1.6589811 -0.027928996 0.5)
(-1.6589696 -0.030197405 0.5)
(-1.658959 -0.032470833 0.5)
(-1.6589494 -0.034749103 0.5)
(-1.6589407 -0.037032006 0.5)
(-1.6589329 -0.039319311 0.5)
(-1.6589259 -0.041610759 0.5)
(-1.6589196 -0.043906074 0.5)
(-1.658914 -0.046204958 0.5)
(-1.6589091 -0.048507098 0.5)
(-1.6589048 -0.050812169 0.5)
(-1.6589011 -0.053119829 0.5)
(-1.6588981 -0.055429729 0.5)
(-1.6588956 -0.057741508 0.5)
(-1.6588937 -0.0600548 0.5)
(-1.6588923 -0.062369231 0.5)
(-1.6588915 -0.064684425 0.5)
(-1.6588913 -0.067 0.5)
(-1.6588915 -0.069315575 0.5)
(-1.6588923 -0.071630769 0.5)
(-1.6588937 -0.0739452 0.5)
(-1.6588956 -0.076258492 0.5)
(-1.6588981 -0.078570271 0.5)
(-1.6589011 -0.080880171 0.5)
(-1.6589048 -0.083187831 0.5)
(-1.6589091 -0.085492902 0.5)
(-1.658914 -0.087795042 0.5)
(-1.6589196 -0.090093926 0.5)
(-1.6589259 -0.092389241 0.5)
(-1.6589329 -0.094680689 0.5)
(-1.6589407 -0.096967994 0.5)
(-1.6589494 -0.099250897 0.5)
(-1.658959 -0.10152917 0.5)
(-1.6589696 -0.1038026 0.5)
(-1.6589811 -0.106071 0.5)
(-1.6589939 -0.10833425 0.5)
(-1.6590078 -0.11059222 0.5)
(-1.6590231 -0.11284485 0.5)
(-1.6590398 -0.11509211 0.5)
(-1.6590581 -0.11733404 0.5)
(-1.6590781 -0.11957072 0.5)
(-1.6591 -0.1218023 0.5)
(-1.6591241 -0.12402902 0.5)
(-1.6591505 -0.12625118 0.5)
(-1.6591794 -0.12846919 0.5)
(-1.6592113 -0.13068356 0.5)
(-1.6592464 -0.13289496 0.5)
(-1.775242 -0.0011364069 0.5)
(-1.7752031 -0.0034062124 0.5)
(-1.7751676 -0.0056707806 0.5)
(-1.7751351 -0.007931507 0.5)
(-1.7751053 -0.010189576 0.5)
(-1.7750779 -0.012445989 0.5)
(-1.7750529 -0.014701591 0.5)
(-1.7750299 -0.01695709 0.5)
(-1.7750089 -0.019213071 0.5)
(-1.7749895 -0.021470019 0.5)
(-1.7749718 -0.023728323 0.5)
(-1.7749556 -0.025988294 0.5)
(-1.7749407 -0.028250167 0.5)
(-1.7749272 -0.030514117 0.5)
(-1.7749148 -0.03278026 0.5)
(-1.7749035 -0.035048663 0.5)
(-1.7748933 -0.037319348 0.5)
(-1.774884 -0.039592296 0.5)
(-1.7748757 -0.041867455 0.5)
(-1.7748682 -0.04414474 0.5)
(-1.7748616 -0.046424038 0.5)
(-1.7748557 -0.048705213 0.5)
(-1.7748507 -0.050988107 0.5)
(-1.7748463 -0.053272543 0.5)
(-1.7748427 -0.05555833 0.5)
(-1.7748397 -0.057845262 0.5)
(-1.7748375 -0.060133123 0.5)
(-1.7748358 -0.062421687 0.5)
(-1.7748349 -0.064710725 0.5)
(-1.7748345 -0.067 0.5)
(-1.7748349 -0.069289275 0.5)
(-1.7748358 -0.071578313 0.5)
(-1.7748375 -0.073866877 0.5)
(-1.7748397 -0.076154738 0.5)
(-1.7748427 -0.07844167 0.5)
(-1.7748463 -0.080727457 0.5)
(-1.7748507 -0.083011893 0.5)
(-1.7748557 -0.085294787 0.5)
(-1.7748616 -0.087575962 0.5)
(-1.7748682 -0.08985526 0.5)