/*--------------------------------*- C++ -*----------------------------------*\
| =========                 |                                                 |
| \\      /  F ield         | OpenFOAM: The Open Source CFD Toolbox           |
|  \\    /   O peration     | Version:  v2006                                 |
|   \\  /    A nd           | Website:  www.openfoam.com                      |
|    \\/     M anipulation  |                                                 |
\*---------------------------------------------------------------------------*/
FoamFile
{
    version     2.0;
    format      ascii;
    class       volScalarField;
    location    "10000";
    object      Cp;
}
// * * * * * * * * * * * * * * * * * * * * * * * * * * * * * * * * * * * * * //

dimensions      [0 0 0 0 0 0 0];


internalField   nonuniform List<scalar> 
55713
(
0.0070344451
0.0070350956
0.0070350191
0.0070354596
0.007035426
0.0070356908
0.0070356799
0.0070358381
0.0070358365
0.0070359334
0.0070359338
0.0070359878
0.0070359898
0.0070360103
0.0070360096
0.0070360072
0.0070360003
0.0070359889
0.0070359731
0.0070359532
0.0070359295
0.0070359022
0.0070358715
0.0070358379
0.0070358015
0.0070357625
0.0070357211
0.0070356774
0.0070356314
0.007035583
0.0070355321
0.0070354783
0.007035421
0.00703536
0.0070352953
0.0070352273
0.0070351541
0.0070350759
0.0070349926
0.007034904
0.0070348099
0.00703471
0.0070346039
0.0070344912
0.0070343714
0.007034244
0.0070341085
0.0070339642
0.0070338106
0.0070336468
0.0070334721
0.0070332854
0.007033085
0.0070328688
0.0070326374
0.0070323815
0.0070321079
0.0070318236
0.0070314167
0.0066143527
0.0066155541
0.0066155426
0.006616377
0.0066164517
0.0066170477
0.0066171465
0.0066176166
0.0066176983
0.0066180949
0.0066181553
0.0066184962
0.006618543
0.0066188402
0.0066188792
0.0066191417
0.0066191764
0.00661941
0.0066194404
0.0066196472
0.0066196716
0.0066198528
0.0066198701
0.0066200281
0.0066200392
0.0066201781
0.0066201853
0.0066203095
0.0066203147
0.0066204278
0.0066204321
0.0066205373
0.0066205414
0.0066206373
0.0066206405
0.006620726
0.0066207276
0.006620802
0.0066208027
0.0066208672
0.006620868
0.0066209225
0.0066209233
0.0066209678
0.0066209686
0.0066210026
0.0066210033
0.0066210271
0.0066210279
0.0066210414
0.0066210421
0.0066210452
0.0066210442
0.0066210417
0.006621038
0.006621027
0.0066210197
0.0066210058
0.0066209855
0.0062658345
0.0062672892
0.0062674371
0.0062684089
0.0062686787
0.0062693791
0.0062696531
0.0062702183
0.0062704602
0.0062709398
0.0062711529
0.0062715654
0.0062717579
0.0062721167
0.0062722956
0.0062726113
0.0062727817
0.0062730626
0.006273228
0.0062734796
0.0062736412
0.0062738668
0.0062740246
0.0062742265
0.0062743803
0.0062745608
0.0062747114
0.0062748732
0.0062750221
0.0062751687
0.0062753181
0.0062754538
0.0062756063
0.0062757314
0.006275889
0.0062760029
0.0062761666
0.0062762687
0.0062764407
0.0062765313
0.0062767138
0.0062767925
0.0062769886
0.0062770553
0.006277268
0.0062773221
0.0062775553
0.0062775967
0.006277855
0.0062778828
0.0062781717
0.0062781854
0.006278512
0.0062785116
0.0062788858
0.0062788775
0.0062793248
0.0062793145
0.0062798102
0.005957544
0.0059590911
0.0059593476
0.0059603605
0.0059607328
0.0059614744
0.0059618337
0.0059624416
0.0059627596
0.0059632792
0.0059635647
0.0059640144
0.0059642758
0.005964669
0.0059649129
0.00596526
0.0059654918
0.0059658014
0.0059660253
0.0059663044
0.0059665237
0.0059667774
0.0059669939
0.0059672258
0.0059674403
0.0059676525
0.0059678652
0.0059680598
0.0059682716
0.0059684512
0.005968664
0.0059688323
0.0059690493
0.0059692072
0.0059694309
0.0059695787
0.0059698114
0.0059699494
0.0059701938
0.0059703219
0.0059705808
0.0059706994
0.0059709768
0.0059710858
0.0059713855
0.005971485
0.0059718126
0.0059719026
0.0059722638
0.0059723439
0.0059727466
0.0059728169
0.0059732709
0.0059733317
0.0059738531
0.0059738995
0.0059745204
0.0059745361
0.0059753052
0.0056925399
0.0056940458
0.0056943599
0.0056953331
0.00569575
0.0056964708
0.0056968619
0.0056974602
0.0056978053
0.0056983182
0.00569863
0.0056990755
0.0056993625
0.0056997537
0.005700022
0.0057003687
0.005700623
0.0057009332
0.0057011776
0.0057014581
0.0057016959
0.0057019522
0.0057021863
0.0057024228
0.005702655
0.0057028746
0.0057031059
0.0057033108
0.0057035419
0.0057037342
0.0057039666
0.0057041492
0.0057043853
0.005704559
0.0057048015
0.0057049671
0.0057052185
0.0057053768
0.0057056398
0.0057057911
0.0057060687
0.0057062136
0.0057065095
0.0057066482
0.0057069665
0.0057070996
0.0057074457
0.0057075734
0.005707953
0.0057080758
0.0057084974
0.0057086162
0.0057090896
0.0057092056
0.0057097469
0.0057098537
0.0057105025
0.0057105624
0.0057113966
0.0054635226
0.0054649055
0.0054652417
0.0054661282
0.0054665459
0.0054672099
0.0054675943
0.0054681482
0.005468487
0.0054689627
0.0054692688
0.0054696834
0.0054699651
0.0054703309
0.0054705942
0.0054709201
0.0054711695
0.0054714626
0.0054717017
0.0054719677
0.0054721994
0.0054724432
0.0054726703
0.005472896
0.0054731207
0.0054733317
0.0054735556
0.0054737541
0.0054739783
0.0054741664
0.0054743921
0.0054745719
0.0054748012
0.0054749734
0.0054752085
0.005475374
0.0054756175
0.0054757769
0.0054760314
0.0054761853
0.0054764537
0.0054766026
0.0054768882
0.0054770324
0.0054773393
0.0054774795
0.0054778125
0.0054779486
0.0054783134
0.0054784463
0.0054788509
0.0054789804
0.0054794341
0.0054795604
0.0054800794
0.0054801923
0.0054808146
0.0054808935
0.0054816974
0.0052671381
0.0052683366
0.0052686596
0.0052694246
0.0052698082
0.005270388
0.0052707355
0.0052712197
0.0052715264
0.0052719416
0.0052722189
0.0052725806
0.0052728361
0.0052731553
0.0052733945
0.0052736794
0.0052739062
0.0052741629
0.0052743805
0.0052746139
0.0052748246
0.0052750387
0.0052752445
0.0052754427
0.0052756458
0.005275831
0.0052760331
0.0052762076
0.00527641
0.0052765757
0.0052767795
0.0052769383
0.0052771452
0.0052772974
0.0052775094
0.0052776559
0.0052778752
0.0052780164
0.0052782453
0.0052783817
0.0052786229
0.0052787548
0.0052790112
0.0052791389
0.0052794142
0.0052795379
0.0052798362
0.0052799559
0.0052802828
0.0052803987
0.005280761
0.0052808721
0.0052812786
0.005281385
0.0052818494
0.0052819413
0.0052825021
0.0052825131
0.0052832217
0.0051012721
0.0051022358
0.0051025313
0.0051031426
0.005103468
0.0051039374
0.0051042254
0.0051046164
0.0051048702
0.0051052035
0.0051054326
0.0051057213
0.0051059324
0.0051061857
0.0051063834
0.0051066086
0.0051067965
0.0051069985
0.0051071792
0.0051073621
0.0051075375
0.0051077044
0.005107876
0.0051080292
0.0051081984
0.0051083402
0.0051085082
0.0051086406
0.0051088087
0.0051089331
0.0051091022
0.0051092202
0.0051093919
0.0051095037
0.0051096796
0.0051097855
0.0051099674
0.0051100678
0.0051102575
0.0051103524
0.0051105521
0.0051106414
0.0051108532
0.0051109367
0.0051111635
0.0051112405
0.0051114855
0.0051115552
0.0051118225
0.0051118834
0.0051121776
0.0051122271
0.0051125547
0.0051125895
0.0051129583
0.0051129718
0.005113392
0.0051133681
0.0051138898
0.0049702463
0.0049709963
0.0049712095
0.0049716856
0.00497192
0.0049722963
0.0049724991
0.0049728097
0.0049729917
0.004973254
0.0049734209
0.0049736468
0.0049738025
0.0049740001
0.0049741479
0.0049743222
0.0049744632
0.0049746191
0.004974755
0.004974896
0.0049750283
0.0049751569
0.0049752864
0.0049754054
0.004975534
0.0049756449
0.0049757735
0.0049758779
0.0049760073
0.0049761063
0.0049762373
0.0049763319
0.0049764654
0.004976556
0.0049766933
0.0049767804
0.0049769225
0.0049770059
0.0049771543
0.0049772344
0.0049773906
0.0049774674
0.0049776335
0.0049777068
0.0049778852
0.0049779546
0.0049781481
0.0049782129
0.0049784251
0.004978484
0.0049787193
0.0049787703
0.0049790348
0.0049790743
0.0049793755
0.0049793965
0.0049797474
0.0049797275
0.0049801598
0.0048512315
0.0048518919
0.0048522959
0.0048526707
0.0048530356
0.0048533254
0.0048536307
0.0048538722
0.0048541331
0.0048543395
0.0048545683
0.004854748
0.0048549529
0.0048551118
0.004855298
0.0048554445
0.0048556202
0.0048557558
0.0048559235
0.00485605
0.0048562118
0.004856331
0.0048564889
0.0048565992
0.0048567502
0.0048568523
0.0048569983
0.0048570935
0.0048572356
0.0048573246
0.0048574641
0.0048575484
0.0048576867
0.0048577662
0.0048579042
0.0048579792
0.0048581194
0.0048581915
0.0048583353
0.0048584042
0.004858553
0.0048586185
0.0048587734
0.0048588353
0.004858997
0.004859055
0.0048592247
0.0048592779
0.0048594566
0.0048595035
0.004859692
0.0048597301
0.0048599289
0.0048599541
0.0048601614
0.0048601677
0.0048603754
0.004860358
0.0048605896
0.0046879828
0.0046880843
0.0046883089
0.0046884868
0.0046886706
0.0046888362
0.0046889885
0.0046891264
0.0046892503
0.0046893611
0.0046894595
0.0046895465
0.0046896231
0.0046896898
0.0046897496
0.004689795
0.0046898361
0.0046898654
0.0046898908
0.0046899062
0.0046899181
0.0046899213
0.0046899199
0.0046899152
0.0046899067
0.0046898945
0.0046898786
0.0046898593
0.0046898366
0.0046898104
0.0046897811
0.0046897483
0.0046897119
0.0046896716
0.0046896273
0.0046895783
0.0046895235
0.0046894627
0.0046893954
0.0046893213
0.0046892396
0.0046891497
0.0046890511
0.0046889422
0.0046888221
0.0046886893
0.0046885427
0.0046883806
0.0046882017
0.0046880038
0.0046877852
0.0046875435
0.0046872769
0.004686983
0.004686661
0.0046863087
0.004685933
0.004685512
0.0046850933
0.0047828611
0.0047816348
0.0047809786
0.0047800915
0.0047794177
0.0047786775
0.0047780709
0.0047774287
0.0047768879
0.0047763257
0.0047758421
0.0047753446
0.0047749097
0.0047744644
0.00477407
0.0047736668
0.0047733063
0.004772937
0.0047726043
0.0047722625
0.0047719527
0.0047716328
0.0047713416
0.004771039
0.0047707627
0.0047704734
0.0047702085
0.0047699289
0.0047696721
0.0047693991
0.004769147
0.0047688782
0.0047686304
0.0047683645
0.0047681196
0.0047678547
0.0047676112
0.0047673453
0.0047671018
0.0047668327
0.004766587
0.0047663118
0.0047660618
0.0047657741
0.0047655279
0.0047652263
0.0047649844
0.0047646617
0.0047644213
0.0047640681
0.0047638231
0.0047634243
0.0047631617
0.0047626909
0.0047623831
0.0047617885
0.0047613709
0.004760585
0.0047597598
0.0054628769
0.0054640199
0.0054640084
0.0054647601
0.0054647553
0.0054653495
0.0054653596
0.0054658792
0.0054659162
0.005466386
0.0054664514
0.0054668849
0.0054669756
0.0054673809
0.0054674935
0.0054678761
0.0054680081
0.0054683727
0.0054685217
0.0054688716
0.0054690367
0.0054693759
0.0054695558
0.0054698874
0.0054700821
0.0054704097
0.0054706193
0.0054709462
0.0054711717
0.0054715014
0.0054717443
0.005472078
0.0054723383
0.0054726784
0.0054729601
0.0054733101
0.0054736176
0.0054739815
0.0054743204
0.0054747032
0.0054750803
0.0054754881
0.0054759117
0.0054763589
0.0054768271
0.0054773214
0.0054778449
0.0054784017
0.0054789965
0.0054796343
0.0054803219
0.0054810658
0.0054818749
0.0054827575
0.0054837255
0.0054847878
0.0054859678
0.0054871428
0.0054887323
0.0029319295
0.0029349665
0.002935153
0.0029375704
0.0029378505
0.0029398009
0.0029400998
0.0029417007
0.0029419926
0.0029433316
0.0029436082
0.0029447477
0.0029450087
0.0029459934
0.0029462407
0.0029471052
0.0029473392
0.0029481076
0.0029483309
0.0029490231
0.0029492375
0.0029498672
0.0029500742
0.0029506528
0.0029508534
0.0029513899
0.002951585
0.0029520866
0.0029522768
0.002952749
0.0029529352
0.0029533845
0.0029535683
0.0029539967
0.0029541782
0.0029545869
0.0029547662
0.0029551558
0.0029553328
0.0029557029
0.0029558768
0.0029562259
0.0029563955
0.0029567209
0.0029568826
0.0029571821
0.0029573303
0.0029575981
0.0029577269
0.0029579528
0.0029580552
0.0029582248
0.0029582923
0.0029583869
0.0029584131
0.0029584124
0.0029583977
0.0029583353
0.002958505
0.024055922
0.024061709
0.02406904
0.024075552
0.024082311
0.024088836
0.024095321
0.024101694
0.024107978
0.024114163
0.024120251
0.024126238
0.024132124
0.024137905
0.02414358
0.024149146
0.0241546
0.02415994
0.024165163
0.024170265
0.024175244
0.024180096
0.024184817
0.024189405
0.024193857
0.024198168
0.02420234
0.024206375
0.024210263
0.024214002
0.024217591
0.02422103
0.024224318
0.024227455
0.024230441
0.024233279
0.024235967
0.024238508
0.024240904
0.024243155
0.024245263
0.024247229
0.024249056
0.024250745
0.024252296
0.024253713
0.024254996
0.024256147
0.024257168
0.024258061
0.024258828
0.024259472
0.024259995
0.024260406
0.024260706
0.024260938
0.024261083
0.024261156
0.024261173
0.022096182
0.022101376
0.022107795
0.022113558
0.022119448
0.022125149
0.022130778
0.022136299
0.022141723
0.022147048
0.022152274
0.022157401
0.02216243
0.022167359
0.022172189
0.022176918
0.022181545
0.022186071
0.022190495
0.022194815
0.022199031
0.022203142
0.022207147
0.022211045
0.022214836
0.022218519
0.022222093
0.022225562
0.022228926
0.022232178
0.022235319
0.02223835
0.022241268
0.022244075
0.02224677
0.022249353
0.022251823
0.022254181
0.022256426
0.022258559
0.022260579
0.022262487
0.022264283
0.022265967
0.02226754
0.022269001
0.022270351
0.02227159
0.022272718
0.022273737
0.022274645
0.022275444
0.022276132
0.022276716
0.022277189
0.022277531
0.022277776
0.022277921
0.022277955
0.02032459
0.02032892
0.020334136
0.020338871
0.020343645
0.020348278
0.020352829
0.020357285
0.020361653
0.020365931
0.020370123
0.020374229
0.020378249
0.020382184
0.020386035
0.020389801
0.020393483
0.020397081
0.020400595
0.020404024
0.020407369
0.020410629
0.020413804
0.020416894
0.020419899
0.020422818
0.02042565
0.0204284
0.020431069
0.02043365
0.020436144
0.020438551
0.020440871
0.020443103
0.020445248
0.020447305
0.020449273
0.020451154
0.020452946
0.02045465
0.020456267
0.020457795
0.020459235
0.020460587
0.020461851
0.020463028
0.020464117
0.020465118
0.020466031
0.020466857
0.020467595
0.020468245
0.020468807
0.020469287
0.020469658
0.020469945
0.020470147
0.020470266
0.020470293
0.018642883
0.018646651
0.018650998
0.018655013
0.018658996
0.018662869
0.018666653
0.018670351
0.018673964
0.018677496
0.018680949
0.018684323
0.018687622
0.018690846
0.018693996
0.018697073
0.018700077
0.01870301
0.018705872
0.018708664
0.018711384
0.018714035
0.018716615
0.018719126
0.018721566
0.018723937
0.018726238
0.01872847
0.018730637
0.018732736
0.018734764
0.018736723
0.018738611
0.01874043
0.018742179
0.018743859
0.018745468
0.018747007
0.018748476
0.018749876
0.018751205
0.018752464
0.018753653
0.018754772
0.018755821
0.0187568
0.018757708
0.018758546
0.018759312
0.018760008
0.018760632
0.018761183
0.018761665
0.018762072
0.018762383
0.018762632
0.018762806
0.018762911
0.018762934
0.017082375
0.017085622
0.017089161
0.017092505
0.017095767
0.017098943
0.017102032
0.017105042
0.017107975
0.017110835
0.017113624
0.017116344
0.017118998
0.017121587
0.017124113
0.017126577
0.017128979
0.017131322
0.017133606
0.017135832
0.017137999
0.01714011
0.017142164
0.017144161
0.017146103
0.017147989
0.01714982
0.017151595
0.017153319
0.017154991
0.017156607
0.017158169
0.017159677
0.017161129
0.017162528
0.017163872
0.017165161
0.017166396
0.017167577
0.017168703
0.017169774
0.017170791
0.017171753
0.017172661
0.017173513
0.01717431
0.017175052
0.017175738
0.017176367
0.01717694
0.017177455
0.017177913
0.017178315
0.01717864
0.017178905
0.017179113
0.017179259
0.01717935
0.017179368
0.015627127
0.015629993
0.015632882
0.015635682
0.015638372
0.015640991
0.015643527
0.01564599
0.015648384
0.015650711
0.015652974
0.015655177
0.015657321
0.015659409
0.015661443
0.015663423
0.015665352
0.01566723
0.015669059
0.01567084
0.015672573
0.015674259
0.015675899
0.015677494
0.015679044
0.015680549
0.01568201
0.015683426
0.015684802
0.015686138
0.01568743
0.015688679
0.015689885
0.015691049
0.015692171
0.01569325
0.015694287
0.015695282
0.015696234
0.015697143
0.015698011
0.015698835
0.015699618
0.015700357
0.015701053
0.015701706
0.015702315
0.015702881
0.015703401
0.015703876
0.015704305
0.01570469
0.015705021
0.015705291
0.015705515
0.015705693
0.015705817
0.015705896
0.015705911
0.014278815
0.014281332
0.014283686
0.01428601
0.014288218
0.014290364
0.014292432
0.014294435
0.014296375
0.014298255
0.01430008
0.01430185
0.01430357
0.014305242
0.014306866
0.014308445
0.014309981
0.014311475
0.014312928
0.014314341
0.014315714
0.01431705
0.014318349
0.014319611
0.014320837
0.014322028
0.014323184
0.014324305
0.014325393
0.014326451
0.014327475
0.014328466
0.014329424
0.014330349
0.014331241
0.014332101
0.014332928
0.014333723
0.014334485
0.014335215
0.014335911
0.014336576
0.014337207
0.014337805
0.01433837
0.014338901
0.014339398
0.014339861
0.014340288
0.01434068
0.014341037
0.014341355
0.014341618
0.014341846
0.014342034
0.014342185
0.014342289
0.014342358
0.014342369
0.013031684
0.013033841
0.013035775
0.013037696
0.01303951
0.013041265
0.01304295
0.013044577
0.013046147
0.013047664
0.013049131
0.013050552
0.013051928
0.013053263
0.013054557
0.013055814
0.013057033
0.013058217
0.013059368
0.013060485
0.013061571
0.013062626
0.013063651
0.013064646
0.013065613
0.013066552
0.013067463
0.013068347
0.013069206
0.01307004
0.01307085
0.013071633
0.013072392
0.013073125
0.013073833
0.013074516
0.013075175
0.013075808
0.013076417
0.013077001
0.01307756
0.013078094
0.013078603
0.013079087
0.013079545
0.013079977
0.013080383
0.013080762
0.013081113
0.013081437
0.013081732
0.013081982
0.013082205
0.013082397
0.013082555
0.013082683
0.01308277
0.013082831
0.01308284
0.011882059
0.011883873
0.011885467
0.011887049
0.011888536
0.011889967
0.011891338
0.011892655
0.011893921
0.011895141
0.011896317
0.011897453
0.01189855
0.011899611
0.011900638
0.011901633
0.011902597
0.011903531
0.011904437
0.011905316
0.01190617
0.011906998
0.011907802
0.011908583
0.011909341
0.011910077
0.011910791
0.011911485
0.011912158
0.011912813
0.011913449
0.011914065
0.011914662
0.01191524
0.011915799
0.011916339
0.011916861
0.011917364
0.011917848
0.011918313
0.01191876
0.011919188
0.011919596
0.011919986
0.011920356
0.011920706
0.011921036
0.011921345
0.011921634
0.011921899
0.011922129
0.011922339
0.011922524
0.011922685
0.011922818
0.011922927
0.011922999
0.011923054
0.01192306
0.01082561
0.010827129
0.010828447
0.010829749
0.010830969
0.010832137
0.010833251
0.010834316
0.010835338
0.010836318
0.01083726
0.010838167
0.01083904
0.010839883
0.010840696
0.010841482
0.010842242
0.010842977
0.010843689
0.010844379
0.010845048
0.010845697
0.010846326
0.010846937
0.01084753
0.010848105
0.010848663
0.010849206
0.010849732
0.010850245
0.010850743
0.010851227
0.010851696
0.01085215
0.010852591
0.010853017
0.01085343
0.010853828
0.010854213
0.010854583
0.01085494
0.010855282
0.01085561
0.010855924
0.010856223
0.010856507
0.010856776
0.010857029
0.010857262
0.01085747
0.010857663
0.010857837
0.010857992
0.010858128
0.010858239
0.010858334
0.010858392
0.010858444
0.010858447
0.0098594435
0.0098607086
0.0098618025
0.0098628714
0.0098638721
0.0098648238
0.0098657282
0.0098665897
0.009867412
0.0098681981
0.0098689509
0.009869673
0.0098703665
0.0098710334
0.0098716756
0.0098722947
0.009872892
0.0098734689
0.0098740266
0.0098745662
0.0098750885
0.0098755946
0.0098760851
0.0098765608
0.0098770224
0.0098774704
0.0098779054
0.0098783279
0.0098787381
0.0098791379
0.0098795277
0.0098799058
0.0098802733
0.0098806301
0.0098809765
0.0098813125
0.0098816382
0.0098819538
0.0098822592
0.0098825544
0.0098828393
0.0098831139
0.0098833781
0.0098836315
0.0098838744
0.0098841059
0.0098843232
0.0098845215
0.009884707
0.0098848802
0.00988504
0.0098851858
0.0098853159
0.0098854307
0.0098855249
0.0098856077
0.0098856537
0.0098857047
0.0098857063
0.0089725316
0.0089735782
0.00897449
0.0089753658
0.0089761864
0.0089769621
0.0089776965
0.0089783929
0.0089790549
0.0089796852
0.0089802865
0.008980861
0.0089814107
0.0089819376
0.0089824432
0.0089829291
0.0089833967
0.008983847
0.0089842812
0.0089847004
0.0089851053
0.008985497
0.008985876
0.0089862432
0.008986599
0.0089869442
0.0089872791
0.0089876045
0.0089879202
0.0089882281
0.0089885287
0.0089888204
0.0089891043
0.0089893801
0.0089896481
0.0089899084
0.0089901611
0.0089904062
0.0089906437
0.0089908737
0.0089910961
0.0089913105
0.0089915172
0.008991716
0.0089919055
0.008992081
0.0089922485
0.0089924076
0.0089925573
0.0089926975
0.0089928272
0.0089929461
0.0089930523
0.0089931472
0.008993224
0.0089932951
0.0089933289
0.0089933809
0.008993371
0.0081545585
0.0081554114
0.0081561936
0.0081569294
0.0081576177
0.0081582647
0.008158875
0.0081594512
0.0081599971
0.0081605149
0.0081610072
0.0081614762
0.0081619237
0.0081623515
0.008162761
0.0081631537
0.0081635308
0.0081638934
0.0081642425
0.0081645791
0.008164904
0.0081652179
0.0081655215
0.0081658155
0.0081661004
0.0081663769
0.0081666451
0.0081669058
0.0081671589
0.008167406
0.0081676473
0.0081678821
0.0081681108
0.0081683335
0.0081685505
0.008168762
0.0081689679
0.0081691683
0.0081693636
0.0081695534
0.0081697365
0.0081699119
0.0081700794
0.008170238
0.0081703884
0.0081705342
0.0081706738
0.0081708075
0.0081709344
0.0081710545
0.0081711668
0.0081712712
0.0081713654
0.0081714522
0.0081715226
0.0081715932
0.008171624
0.008171687
0.0081716892
0.0075111701
0.0075117954
0.0075123881
0.0075129544
0.0075134862
0.007513986
0.0075144589
0.0075149053
0.0075153281
0.0075157288
0.0075161094
0.0075164713
0.0075168159
0.0075171445
0.0075174583
0.0075177583
0.0075180456
0.0075183208
0.0075185849
0.0075188385
0.0075190822
0.0075193166
0.0075195422
0.0075197596
0.0075199688
0.0075201698
0.0075203627
0.0075205478
0.0075207251
0.0075208956
0.0075210599
0.0075212173
0.0075213684
0.0075215133
0.0075216523
0.0075217854
0.0075219129
0.0075220346
0.0075221508
0.00752226
0.0075223645
0.0075224658
0.0075225632
0.0075226565
0.0075227453
0.0075228307
0.007522912
0.00752299
0.0075230638
0.0075231338
0.0075231988
0.0075232596
0.0075233135
0.0075233665
0.0075234065
0.0075234576
0.0075234706
0.0075235381
0.0075235092
0.026430813
0.029063121
0.032258376
0.035715627
0.039478665
0.04358547
0.048050991
0.052893413
0.058129455
0.063773176
0.069834877
0.076319636
0.083225458
0.090541408
0.098245296
0.10630133
0.11465732
0.12324226
0.13196363
0.1407057
0.14932723
0.15766439
0.16551955
0.17271399
0.17898147
0.18411185
0.18787614
0.19005768
0.19046856
0.18895909
0.18542776
0.17982871
0.17217579
0.16254038
0.15104619
0.13786312
0.12320042
0.10728457
0.090356912
0.072657561
0.054422922
0.035876232
0.017217301
-0.0013759028
-0.019747716
-0.037768557
-0.055331378
-0.07235245
-0.088766294
-0.10452129
-0.11958288
-0.13393191
-0.14755919
-0.16046468
-0.17265551
-0.1841447
-0.19495062
-0.20509721
-0.21460859
-0.2235101
-0.23182979
-0.23959613
-0.24683742
-0.25358263
-0.25986101
-0.26569866
-0.27112143
-0.27615578
-0.28082608
-0.28515581
-0.2891663
-0.29287944
-0.29630698
-0.29948093
0.026430756
0.029063075
0.032258365
0.035715618
0.039478659
0.043585465
0.048050987
0.052893409
0.058129451
0.063773175
0.069834929
0.076319731
0.083225581
0.090541572
0.098245508
0.1063016
0.11465766
0.12324268
0.13196414
0.14070633
0.14932789
0.15766512
0.1655204
0.17271479
0.17898246
0.18411294
0.18787714
0.19005864
0.19046946
0.1889599
0.18542865
0.17982991
0.17217673
0.16254015
0.1510451
0.13786285
0.12319756
0.10727925
0.090349169
0.072650857
0.054419197
0.035873739
0.017215269
-0.0013776995
-0.019749755
-0.037771536
-0.055335134
-0.072356801
-0.088770078
-0.1045244
-0.11958639
-0.13393593
-0.14756369
-0.16046966
-0.17266106
-0.18415064
-0.19495649
-0.20510285
-0.21461423
-0.22351581
-0.23183562
-0.23960213
-0.24684381
-0.25358988
-0.25986962
-0.26570835
-0.27113156
-0.27616611
-0.28083656
-0.28516651
-0.28917753
-0.29289295
-0.29632442
-0.29951967
0.026430562
0.029062872
0.032258188
0.03571542
0.039478447
0.043585238
0.048050745
0.052893155
0.058129186
0.063772901
0.069834638
0.07631942
0.083225258
0.090541244
0.098245184
0.10630129
0.11465738
0.12324244
0.13196398
0.14070626
0.14932811
0.15766556
0.165521
0.17271606
0.17898384
0.18411464
0.18787933
0.19006136
0.19047273
0.1889637
0.1854329
0.17983441
0.17218141
0.16254526
0.15105092
0.13786859
0.1232039
0.1072863
0.090356958
0.072658366
0.054425334
0.035878418
0.017218801
-0.0013751226
-0.019749559
-0.03777328
-0.055339416
-0.072361413
-0.088772769
-0.10452582
-0.11958721
-0.13393636
-0.14756384
-0.16046943
-0.17266008
-0.18414969
-0.19495615
-0.20510236
-0.21461302
-0.22351405
-0.2318333
-0.23959929
-0.24684103
-0.25358698
-0.25986481
-0.26570241
-0.27112627
-0.2761616
-0.28083315
-0.28516457
-0.28917758
-0.29289483
-0.29633011
-0.29953344
0.026430149
0.029062473
0.032257852
0.035715026
0.039478028
0.043584786
0.048050244
0.052892607
0.058128588
0.063772254
0.069833942
0.07631868
0.08322448
0.090540437
0.098244362
0.10630047
0.11465659
0.12324173
0.13196339
0.14070587
0.14932796
0.15766604
0.16552204
0.17271751
0.17898594
0.18411767
0.1878834
0.19006657
0.19047916
0.18897142
0.18544194
0.17984479
0.17219308
0.16255805
0.15106451
0.13788288
0.12321863
0.10730109
0.090371502
0.072672663
0.054439675
0.035892992
0.017233533
-0.0013603823
-0.019734387
-0.037757884
-0.055323806
-0.072346104
-0.088758697
-0.10451304
-0.11957551
-0.13392556
-0.14755385
-0.16046028
-0.17265257
-0.18414447
-0.19495449
-0.20510289
-0.21461443
-0.22351654
-0.23183694
-0.23960408
-0.24684668
-0.25359282
-0.25987002
-0.26570677
-0.27113017
-0.27616513
-0.28083639
-0.28516785
-0.28918149
-0.2929008
-0.29634012
-0.29954707
0.026429549
0.029061903
0.032257321
0.0357144
0.039477345
0.043584034
0.04804942
0.052891709
0.058127614
0.0637712
0.069832809
0.07631747
0.0832232
0.090539101
0.09824299
0.1062991
0.11465526
0.1232405
0.1319623
0.14070501
0.14932745
0.15766597
0.16552306
0.17271937
0.17898898
0.18412217
0.18788959
0.19007468
0.19048938
0.18898388
0.18545669
0.17986181
0.17221225
0.16257921
0.15108746
0.13790736
0.12324436
0.10732781
0.090398998
0.072700653
0.054467771
0.035920804
0.017260767
-0.0013338981
-0.019708889
-0.03773352
-0.05530061
-0.07232401
-0.088737361
-0.10449214
-0.11955493
-0.13390531
-0.14753395
-0.16044071
-0.17263302
-0.18412437
-0.19493314
-0.20508088
-0.2145925
-0.22349484
-0.23181545
-0.23958272
-0.2468254
-0.2535717
-0.25984994
-0.26568812
-0.27111292
-0.27615001
-0.28082382
-0.28515793
-0.28917469
-0.29289739
-0.29634028
-0.2995475
0.026428769
0.029061152
0.0322566
0.035713559
0.039476424
0.043583015
0.048048292
0.052890464
0.058126242
0.063769695
0.069831165
0.076315688
0.083221285
0.090537066
0.098240862
0.10629692
0.11465308
0.12323842
0.13196045
0.14070356
0.14932662
0.1576658
0.16552408
0.17272182
0.17899315
0.18412852
0.18789852
0.19008655
0.1905045
0.1890025
0.18547894
0.17988771
0.17224172
0.16261202
0.15112328
0.13794577
0.12328489
0.10736998
0.09044228
0.072744581
0.05451197
0.035965021
0.0173048
-0.0012902227
-0.019665661
-0.03769077
-0.05525836
-0.072282355
-0.088696503
-0.10445227
-0.11951616
-0.1338677
-0.14749748
-0.16040538
-0.17259889
-0.18409164
-0.19490204
-0.20505155
-0.21456473
-0.22346831
-0.23179003
-0.23955841
-0.24680217
-0.25355001
-0.25982957
-0.26566847
-0.27109376
-0.2761312
-0.2808055
-0.28514056
-0.28915864
-0.29288301
-0.29632769
-0.29953717
0.026427832
0.02906022
0.032255681
0.035712487
0.039475241
0.043581699
0.048046827
0.052888839
0.058124444
0.063767711
0.06982899
0.076313316
0.083218723
0.090534328
0.098237978
0.10629394
0.11465009
0.12323552
0.1319578
0.14070137
0.14932515
0.15766547
0.1655251
0.17272495
0.1789987
0.18413716
0.18791084
0.19010311
0.19052582
0.18902895
0.18551078
0.17992502
0.17228439
0.16265977
0.15117567
0.13800224
0.1233448
0.10743264
0.090507038
0.072810797
0.054579053
0.036032442
0.017372075
-0.0012235018
-0.019599832
-0.037626095
-0.055195032
-0.07222051
-0.088636177
-0.10439337
-0.11945856
-0.13381135
-0.14744233
-0.16035138
-0.17254596
-0.18403956
-0.19485048
-0.20500037
-0.21451391
-0.22341786
-0.23174002
-0.23950883
-0.24675303
-0.25350116
-0.25978131
-0.26562126
-0.27104796
-0.27608721
-0.28076377
-0.28510148
-0.28912255
-0.29285023
-0.29629843
-0.29951095
0.026426741
0.029059101
0.032254554
0.035711173
0.039473782
0.043580068
0.048045002
0.052886803
0.058122177
0.063765196
0.069826213
0.076310268
0.083215406
0.090530756
0.098234186
0.10628999
0.11464608
0.12323159
0.13195417
0.1406983
0.14932303
0.15766474
0.16552624
0.17272893
0.17900596
0.18414867
0.18792744
0.19012564
0.19055503
0.18906546
0.185555
0.17997713
0.17234432
0.16272718
0.15124997
0.13808268
0.12343048
0.1075226
0.090600301
0.072906408
0.054676139
0.036130254
0.017469972
-0.0011260199
-0.019503114
-0.037530406
-0.05510062
-0.072127594
-0.088544936
-0.10430389
-0.11937082
-0.13372532
-0.14735799
-0.16026871
-0.17246493
-0.18396018
-0.19477278
-0.20492449
-0.21443996
-0.22334582
-0.23166985
-0.23944053
-0.2466866
-0.25343668
-0.25971893
-0.26556095
-0.27098956
-0.2760306
-0.28070887
-0.28504822
-0.28907086
-0.29279997
-0.29624924
-0.2994633
0.026425488
0.029057788
0.032253208
0.035709604
0.039472031
0.0435781
0.048042787
0.052884318
0.058119394
0.06376209
0.069822762
0.076306458
0.083211232
0.090526231
0.098229348
0.10628491
0.11464088
0.12322646
0.13194936
0.14069419
0.1493201
0.1576636
0.1655275
0.17273395
0.17901534
0.18416374
0.1879494
0.19015569
0.19059426
0.1891148
0.18561511
0.18004833
0.17242657
0.1628201
0.15135282
0.13819446
0.12354998
0.1076485
0.090731264
0.073041127
0.054813398
0.036269012
0.017609296
-0.00098698351
-0.019365138
-0.037393848
-0.054965704
-0.071994513
-0.088413845
-0.10417493
-0.11924436
-0.13360147
-0.14723675
-0.16015
-0.17234864
-0.18384616
-0.1946608
-0.20481439
-0.21433157
-0.22323895
-0.23156438
-0.23933638
-0.24658371
-0.25333502
-0.25961854
-0.26546196
-0.27089215
-0.27593501
-0.28061539
-0.28495714
-0.28898245
-0.29271449
-0.29616685
-0.29938441
0.026424074
0.029056277
0.032251634
0.035707767
0.039469967
0.043575767
0.048040149
0.05288134
0.058116041
0.063758324
0.069818553
0.07630178
0.083206075
0.090520602
0.09822329
0.1062785
0.11463428
0.12321988
0.13194314
0.1406888
0.14931617
0.15766188
0.16552903
0.17274014
0.17902733
0.18418325
0.18797809
0.19019523
0.19064623
0.18918052
0.18569556
0.18014407
0.17253767
0.16294612
0.15149284
0.13834717
0.12371379
0.10782164
0.090911884
0.073227438
0.055003716
0.036461749
0.017803176
-0.00079279015
-0.019171234
-0.03720172
-0.054776182
-0.071808084
-0.088230849
-0.10399569
-0.11906909
-0.13343013
-0.14706927
-0.15998632
-0.17218866
-0.18368977
-0.19450791
-0.20466497