/*--------------------------------*- C++ -*----------------------------------*\
| =========                 |                                                 |
| \\      /  F ield         | OpenFOAM: The Open Source CFD Toolbox           |
|  \\    /   O peration     | Version:  v2006                                 |
|   \\  /    A nd           | Website:  www.openfoam.com                      |
|    \\/     M anipulation  |                                                 |
\*---------------------------------------------------------------------------*/
FoamFile
{
    version     2.0;
    format      ascii;
    class       volScalarField;
    location    "10000";
    object      k;
}
// * * * * * * * * * * * * * * * * * * * * * * * * * * * * * * * * * * * * * //

dimensions      [0 2 -2 0 0 0 0];


internalField   nonuniform List<scalar> 
55713
(
2.7374238e-09
6.3078557e-09
1.3431665e-08
1.8847382e-08
2.2181498e-08
2.4080839e-08
2.5125424e-08
2.5685041e-08
2.5975997e-08
2.6120928e-08
2.6187832e-08
2.6213806e-08
2.6218816e-08
2.6213469e-08
2.6203309e-08
2.6191193e-08
2.6178578e-08
2.6166202e-08
2.6154435e-08
2.6143469e-08
2.6133401e-08
2.6124287e-08
2.6116163e-08
2.6109052e-08
2.6102972e-08
2.6097937e-08
2.609395e-08
2.6091004e-08
2.608909e-08
2.6088286e-08
2.6089055e-08
2.6091058e-08
2.609419e-08
2.609835e-08
2.6103514e-08
2.6109695e-08
2.611691e-08
2.6125169e-08
2.6134471e-08
2.6144805e-08
2.6156161e-08
2.6168529e-08
2.6181905e-08
2.6196294e-08
2.6211704e-08
2.6228153e-08
2.6245666e-08
2.6264275e-08
2.6284023e-08
2.6304962e-08
2.6327158e-08
2.635069e-08
2.6375653e-08
2.6402163e-08
2.6430358e-08
2.6460408e-08
2.6492529e-08
2.652704e-08
2.656472e-08
2.9711725e-09
7.8090382e-09
1.5578997e-08
2.0960318e-08
2.4054588e-08
2.5724776e-08
2.6601142e-08
2.7049522e-08
2.727141e-08
2.7375118e-08
2.7418116e-08
2.7430454e-08
2.742771e-08
2.7417896e-08
2.740506e-08
2.7391229e-08
2.7377414e-08
2.7364113e-08
2.7351575e-08
2.7339927e-08
2.7329234e-08
2.7319535e-08
2.7310857e-08
2.7303216e-08
2.7296629e-08
2.7291106e-08
2.7286648e-08
2.7283242e-08
2.7280859e-08
2.7279513e-08
2.7279927e-08
2.7281527e-08
2.7284274e-08
2.7288037e-08
2.7292798e-08
2.7298576e-08
2.7305394e-08
2.7313264e-08
2.7322185e-08
2.7332145e-08
2.7343131e-08
2.735513e-08
2.7368137e-08
2.7382151e-08
2.739718e-08
2.7413234e-08
2.7430335e-08
2.7448508e-08
2.746779e-08
2.7488224e-08
2.7509865e-08
2.753278e-08
2.755705e-08
2.7582772e-08
2.7610061e-08
2.7639059e-08
2.766994e-08
2.7702969e-08
2.7738775e-08
3.3330951e-09
9.6092623e-09
1.7933099e-08
2.3179005e-08
2.5992722e-08
2.7429402e-08
2.8146382e-08
2.849501e-08
2.8657693e-08
2.8727386e-08
2.8751294e-08
2.8752995e-08
2.8744276e-08
2.8731017e-08
2.8716077e-08
2.8700847e-08
2.8686003e-08
2.8671875e-08
2.8658622e-08
2.8646327e-08
2.8635032e-08
2.8624764e-08
2.8615542e-08
2.860738e-08
2.8600292e-08
2.8594284e-08
2.8589357e-08
2.8585493e-08
2.8582646e-08
2.8580733e-08
2.8580744e-08
2.8581972e-08
2.858433e-08
2.858768e-08
2.8592018e-08
2.8597371e-08
2.8603767e-08
2.8611221e-08
2.8619733e-08
2.862929e-08
2.8639875e-08
2.8651474e-08
2.8664077e-08
2.8677681e-08
2.8692289e-08
2.870791e-08
2.8724557e-08
2.8742252e-08
2.8761023e-08
2.8780905e-08
2.8801943e-08
2.8824192e-08
2.8847717e-08
2.8872597e-08
2.8898925e-08
2.8926815e-08
2.8956403e-08
2.89879e-08
2.9021807e-08
3.8678084e-09
1.1744763e-08
2.049424e-08
2.5502081e-08
2.8003137e-08
2.920834e-08
2.9777938e-08
3.0039334e-08
3.0152583e-08
3.0194943e-08
3.0204032e-08
3.0197593e-08
3.0184377e-08
3.0168502e-08
3.0151917e-08
3.0135545e-08
3.0119822e-08
3.0104956e-08
3.0091047e-08
3.0078147e-08
3.0066282e-08
3.005547e-08
3.0045727e-08
3.0037062e-08
3.0029486e-08
3.0023005e-08
3.0017617e-08
3.0013304e-08
3.0010014e-08
3.0007653e-08
3.000689e-08
3.0007963e-08
3.0009927e-08
3.0012849e-08
3.0016744e-08
3.0021649e-08
3.0027596e-08
3.0034604e-08
3.0042676e-08
3.0051796e-08
3.0061946e-08
3.0073107e-08
3.0085267e-08
3.0098419e-08
3.0112563e-08
3.0127702e-08
3.0143847e-08
3.0161012e-08
3.0179218e-08
3.0198492e-08
3.0218868e-08
3.0240389e-08
3.0263105e-08
3.0287078e-08
3.0312378e-08
3.0339091e-08
3.0367317e-08
3.0397215e-08
3.0429176e-08
4.6289864e-09
1.4251883e-08
2.326158e-08
2.7931238e-08
3.0097572e-08
3.1079499e-08
3.151643e-08
3.1703617e-08
3.1776786e-08
3.1797811e-08
3.1795739e-08
3.1783259e-08
3.176673e-08
3.1748903e-08
3.1731049e-08
3.1713754e-08
3.169729e-08
3.168178e-08
3.1667286e-08
3.1653836e-08
3.1641449e-08
3.1630135e-08
3.1619906e-08
3.1610769e-08
3.1602732e-08
3.1595799e-08
3.1589969e-08
3.158522e-08
3.15815e-08
3.1578703e-08
3.1577144e-08
3.1578009e-08
3.1579646e-08
3.1582125e-08
3.1585558e-08
3.1589989e-08
3.1595459e-08
3.160199e-08
3.1609587e-08
3.1618234e-08
3.1627908e-08
3.1638588e-08
3.1650257e-08
3.1662907e-08
3.1676533e-08
3.1691136e-08
3.1706719e-08
3.1723291e-08
3.1740867e-08
3.1759463e-08
3.1779105e-08
3.1799823e-08
3.1821653e-08
3.1844636e-08
3.1868825e-08
3.1894275e-08
3.1921054e-08
3.1949269e-08
3.1979215e-08
5.6951908e-09
1.7166407e-08
2.6233591e-08
3.0472227e-08
3.2293084e-08
3.3065739e-08
3.3386799e-08
3.3512809e-08
3.3554578e-08
3.3559645e-08
3.354919e-08
3.3532492e-08
3.3513626e-08
3.3494393e-08
3.3475592e-08
3.3457582e-08
3.3440519e-08
3.3424477e-08
3.3409488e-08
3.3395568e-08
3.3382728e-08
3.3370974e-08
3.3360314e-08
3.3350753e-08
3.3342299e-08
3.3334952e-08
3.3328711e-08
3.3323554e-08
3.3319427e-08
3.3316211e-08
3.3313916e-08
3.3314451e-08
3.3315774e-08
3.3317865e-08
3.3320818e-08
3.3324751e-08
3.3329713e-08
3.3335731e-08
3.3342815e-08
3.3350947e-08
3.33601e-08
3.3370247e-08
3.3381371e-08
3.3393458e-08
3.3406503e-08
3.34205e-08
3.3435448e-08
3.3451351e-08
3.3468215e-08
3.3486049e-08
3.3504869e-08
3.352469e-08
3.3545537e-08
3.3567432e-08
3.3590406e-08
3.3614488e-08
3.3639714e-08
3.3666142e-08
3.3693983e-08
7.1731343e-09
2.0521969e-08
2.9409034e-08
3.3136403e-08
3.4613147e-08
3.5195813e-08
3.5419071e-08
3.5496469e-08
3.5514629e-08
3.5508081e-08
3.5491927e-08
3.5472339e-08
3.5451905e-08
3.5431729e-08
3.5412283e-08
3.5393771e-08
3.537628e-08
3.5359846e-08
3.5344486e-08
3.5330207e-08
3.5317014e-08
3.5304912e-08
3.5293905e-08
3.5283997e-08
3.5275191e-08
3.5267489e-08
3.5260888e-08
3.5255368e-08
3.5250872e-08
3.524727e-08
3.5244387e-08
3.5244429e-08
3.5245375e-08
3.524713e-08
3.5249654e-08
3.5253066e-08
3.5257487e-08
3.5262953e-08
3.5269481e-08
3.5277049e-08
3.5285626e-08
3.529518e-08
3.5305692e-08
3.5317145e-08
3.532953e-08
3.5342837e-08
3.5357061e-08
3.5372199e-08
3.5388251e-08
3.5405218e-08
3.5423104e-08
3.5441915e-08
3.5461659e-08
3.5482343e-08
3.5503976e-08
3.5526562e-08
3.5550106e-08
3.557462e-08
3.560024e-08
9.2071031e-09
2.4348138e-08
3.2788336e-08
3.5942642e-08
3.708897e-08
3.7505437e-08
3.7649398e-08
3.7689843e-08
3.7691203e-08
3.7676673e-08
3.7656864e-08
3.7635527e-08
3.7614201e-08
3.759352e-08
3.7573745e-08
3.7554982e-08
3.7537275e-08
3.752064e-08
3.7505081e-08
3.7490601e-08
3.7477203e-08
3.7464886e-08
3.7453654e-08
3.7443508e-08
3.7434451e-08
3.7426483e-08
3.74196e-08
3.7413784e-08
3.7408983e-08
3.7405066e-08
3.7401845e-08
3.7401067e-08
3.7401701e-08
3.7403074e-08
3.7405231e-08
3.7408157e-08
3.7412003e-08
3.7416874e-08
3.7422796e-08
3.7429745e-08
3.7437682e-08
3.7446572e-08
3.7456392e-08
3.7467121e-08
3.7478749e-08
3.7491261e-08
3.750465e-08
3.7518904e-08
3.7534019e-08
3.7549986e-08
3.7566801e-08
3.7584457e-08
3.760295e-08
3.7622269e-08
3.7642405e-08
3.7663337e-08
3.7685042e-08
3.770749e-08
3.7730749e-08
1.1987984e-08
2.8667743e-08
3.637567e-08
3.8919712e-08
3.97613e-08
4.0038693e-08
4.0121468e-08
4.013583e-08
4.0125248e-08
4.0106101e-08
4.0084349e-08
4.0062245e-08
4.0040659e-08
4.0019933e-08
4.0000198e-08
3.9981504e-08
3.9963867e-08
3.9947291e-08
3.9931777e-08
3.9917321e-08
3.9903924e-08
3.9891585e-08
3.9880304e-08
3.9870082e-08
3.986092e-08
3.9852816e-08
3.9845768e-08
3.9839758e-08
3.9834742e-08
3.9830595e-08
3.9827136e-08
3.982563e-08
3.9825879e-08
3.9826843e-08
3.9828566e-08
3.9831078e-08
3.983436e-08
3.9838588e-08
3.9843848e-08
3.9850113e-08
3.9857336e-08
3.9865473e-08
3.9874501e-08
3.9884397e-08
3.9895147e-08
3.9906734e-08
3.9919146e-08
3.9932367e-08
3.9946385e-08
3.9961186e-08
3.9976755e-08
3.9993075e-08
4.001013e-08
4.0027893e-08
4.0046338e-08
4.0065421e-08
4.0085095e-08
4.0105292e-08
4.0126022e-08
1.5762582e-08
3.349328e-08
4.0182001e-08
4.2109067e-08
4.2682704e-08
4.284999e-08
4.2888455e-08
4.2885527e-08
4.2868165e-08
4.2846697e-08
4.2824383e-08
4.2802415e-08
4.2781234e-08
4.2761003e-08
4.2741779e-08
4.272358e-08
4.2706407e-08
4.2690258e-08
4.2675129e-08
4.2661017e-08
4.2647919e-08
4.2635832e-08
4.2624757e-08
4.2614691e-08
4.2605635e-08
4.2597587e-08
4.2590543e-08
4.258449e-08
4.257939e-08
4.2575134e-08
4.2571558e-08
4.256956e-08
4.2569246e-08
4.2569838e-08
4.2571116e-08
4.2573143e-08
4.2575948e-08
4.25795e-08
4.2584034e-08
4.258954e-08
4.2595957e-08
4.2603235e-08
4.2611348e-08
4.2620272e-08
4.2629991e-08
4.2640486e-08
4.2651742e-08
4.2663737e-08
4.2676456e-08
4.2689876e-08
4.2703976e-08
4.2718729e-08
4.2734108e-08
4.2750074e-08
4.2766585e-08
4.2783579e-08
4.2800987e-08
4.2818712e-08
4.2836712e-08
2.0851834e-08
3.8822106e-08
4.4229637e-08
4.5568386e-08
4.5920452e-08
4.6006723e-08
4.6016305e-08
4.6002958e-08
4.5982902e-08
4.5961257e-08
4.5939713e-08
4.5918849e-08
4.5898864e-08
4.5879822e-08
4.5861742e-08
4.5844626e-08
4.5828468e-08
4.5813262e-08
4.5799004e-08
4.5785688e-08
4.5773312e-08
4.5761871e-08
4.5751365e-08
4.574179e-08
4.5733147e-08
4.5725431e-08
4.571864e-08
4.5712764e-08
4.5707773e-08
4.5703581e-08
4.5700057e-08
4.5697817e-08
4.569688e-08
4.5697135e-08
4.5697979e-08
4.5699498e-08
4.5701741e-08
4.5704705e-08
4.5708432e-08
4.5713092e-08
4.5718593e-08
4.5724877e-08
4.5731919e-08
4.5739695e-08
4.5748188e-08
4.5757377e-08
4.5767245e-08
4.5777766e-08
4.5788922e-08
4.5800685e-08
4.5813029e-08
4.5825918e-08
4.5839319e-08
4.5853181e-08
4.5867453e-08
4.5882059e-08
4.5896913e-08
4.5911899e-08
4.5926936e-08
2.7689045e-08
4.4629706e-08
4.8559264e-08
4.9376626e-08
4.9560466e-08
4.9593195e-08
4.9586528e-08
4.9569335e-08
4.9549619e-08
4.9529714e-08
4.9510344e-08
4.949174e-08
4.9473974e-08
4.9457062e-08
4.9441007e-08
4.9425801e-08
4.9411438e-08
4.9397911e-08
4.9385215e-08
4.9373344e-08
4.9362296e-08
4.9352066e-08
4.9342652e-08
4.9334051e-08
4.9326262e-08
4.931928e-08
4.9313105e-08
4.9307727e-08
4.9303128e-08
4.9299247e-08
4.9296003e-08
4.9293712e-08
4.9292434e-08
4.9292282e-08
4.9292739e-08
4.9293759e-08
4.9295409e-08
4.9297703e-08
4.9300623e-08
4.9304336e-08
4.9308783e-08
4.9313904e-08
4.9319675e-08
4.9326074e-08
4.9333085e-08
4.9340687e-08
4.9348861e-08
4.9357582e-08
4.936683e-08
4.9376572e-08
4.9386782e-08
4.9397419e-08
4.9408447e-08
4.941981e-08
4.9431452e-08
4.9443289e-08
4.9455233e-08
4.9467156e-08
4.9478956e-08
3.6741693e-08
5.0860702e-08
5.3239998e-08
5.3641019e-08
5.3712771e-08
5.3716321e-08
5.3703865e-08
5.3687904e-08
5.3671469e-08
5.3655392e-08
5.3639913e-08
5.3625101e-08
5.3610971e-08
5.3597521e-08
5.3584748e-08
5.3572643e-08
5.35612e-08
5.3550413e-08
5.3540279e-08
5.3530792e-08
5.352195e-08
5.3513749e-08
5.3506187e-08
5.349926e-08
5.3492968e-08
5.3487306e-08
5.3482274e-08
5.3477864e-08
5.3474069e-08
5.3470855e-08
5.3468203e-08
5.3466159e-08
5.3464908e-08
5.3464371e-08
5.3464535e-08
5.3465099e-08
5.3466146e-08
5.3467696e-08
5.3469747e-08
5.3472403e-08
5.3475618e-08
5.3479349e-08
5.3483581e-08
5.3488294e-08
5.3493476e-08
5.3499105e-08
5.3505169e-08
5.3511641e-08
5.3518503e-08
5.3525725e-08
5.3533283e-08
5.3541137e-08
5.3549253e-08
5.3557578e-08
5.3566061e-08
5.3574622e-08
5.3583183e-08
5.3591623e-08
5.3599843e-08
4.8328166e-08
5.741766e-08
5.8383046e-08
5.85059e-08
5.8519367e-08
5.8513443e-08
5.8503751e-08
5.849349e-08
5.8483403e-08
5.8473672e-08
5.8464344e-08
5.8455429e-08
5.8446924e-08
5.8438825e-08
5.8431129e-08
5.842383e-08
5.8416924e-08
5.8410407e-08
5.8404278e-08
5.8398534e-08
5.8393173e-08
5.8388192e-08
5.838359e-08
5.8379365e-08
5.8375516e-08
5.8372039e-08
5.8368935e-08
5.8366199e-08
5.836383e-08
5.8361813e-08
5.8360154e-08
5.8358836e-08
5.8357956e-08
5.8357431e-08
5.8357374e-08
5.8357568e-08
5.8358046e-08
5.8358808e-08
5.8359904e-08
5.8361344e-08
5.8363102e-08
5.8365155e-08
5.8367505e-08
5.837013e-08
5.8373032e-08
5.8376186e-08
5.8379594e-08
5.8383228e-08
5.8387085e-08
5.8391136e-08
5.8395371e-08
5.8399756e-08
5.8404275e-08
5.8408882e-08
5.8413552e-08
5.8418222e-08
5.8422845e-08
5.8427336e-08
5.8431622e-08
1.7397968e-08
1.7361436e-08
1.7334698e-08
1.731367e-08
1.7294229e-08
1.7275565e-08
1.725727e-08
1.7239336e-08
1.7221736e-08
1.7204485e-08
1.7187601e-08
1.7171111e-08
1.7155044e-08
1.7139434e-08
1.712432e-08
1.7109747e-08
1.709576e-08
1.7082414e-08
1.7069765e-08
1.7057875e-08
1.704681e-08
1.7036638e-08
1.7027429e-08
1.701925e-08
1.7012165e-08
1.7006233e-08
1.700149e-08
1.6998074e-08
1.6996161e-08
1.6995825e-08
1.6997002e-08
1.6999582e-08
1.7003459e-08
1.7008532e-08
1.7014681e-08
1.7021735e-08
1.7029417e-08
1.703727e-08
1.7044518e-08
1.7049856e-08
1.7051122e-08
1.7044819e-08
1.7025449e-08
1.6984624e-08
1.6909954e-08
1.6783704e-08
1.6581233e-08
1.626925e-08
1.5804295e-08
1.5132078e-08
1.4187655e-08
1.2899618e-08
1.120533e-08
9.0848585e-09
6.623859e-09
4.1120356e-09
2.1771321e-09
2.2061035e-09
1.2949461e-08
1.7660072e-08
1.7623325e-08
1.759669e-08
1.7575504e-08
1.7555684e-08
1.7536565e-08
1.7517854e-08
1.749952e-08
1.7481549e-08
1.746395e-08
1.7446743e-08
1.7429952e-08
1.7413605e-08
1.7397737e-08
1.7382384e-08
1.7367591e-08
1.7353403e-08
1.7339873e-08
1.7327057e-08
1.7315016e-08
1.7303816e-08
1.7293524e-08
1.7284208e-08
1.7275936e-08
1.726877e-08
1.7262769e-08
1.7257984e-08
1.7254493e-08
1.7252512e-08
1.7252129e-08
1.7253276e-08
1.7255842e-08
1.7259719e-08
1.7264811e-08
1.7271006e-08
1.7278147e-08
1.7285986e-08
1.7294113e-08
1.7301835e-08
1.7307984e-08
1.7310615e-08
1.7306562e-08
1.7290798e-08
1.7255584e-08
1.7189349e-08
1.7075337e-08
1.6889963e-08
1.6600929e-08
1.6165341e-08
1.5528564e-08
1.4623817e-08
1.3374852e-08
1.1709036e-08
9.5896212e-09
7.0793097e-09
4.4459983e-09
2.309096e-09
2.0048019e-09
1.1096171e-08
1.7951062e-08
1.7914086e-08
1.7887685e-08
1.7866194e-08
1.7845935e-08
1.7826334e-08
1.7807175e-08
1.7788416e-08
1.7770049e-08
1.7752082e-08
1.7734534e-08
1.7717425e-08
1.7700786e-08
1.7684647e-08
1.7669046e-08
1.7654025e-08
1.7639629e-08
1.7625911e-08
1.7612925e-08
1.7600733e-08
1.7589397e-08
1.7578985e-08
1.7569565e-08
1.7561202e-08
1.7553958e-08
1.7547891e-08
1.7543058e-08
1.7539512e-08
1.7537462e-08
1.7537031e-08
1.753815e-08
1.75407e-08
1.7544576e-08
1.7549685e-08
1.7555922e-08
1.7563146e-08
1.7571135e-08
1.7579524e-08
1.7587702e-08
1.7594633e-08
1.7598589e-08
1.759673e-08
1.7584511e-08
1.7554856e-08
1.7497061e-08
1.7395412e-08
1.7227498e-08
1.6962172e-08
1.6557342e-08
1.5958269e-08
1.5096558e-08
1.389136e-08
1.2259936e-08
1.0147687e-08
7.5916753e-09
4.8335989e-09
2.4828514e-09
1.8458325e-09
9.4675438e-09
1.8274984e-08
1.8237779e-08
1.8211712e-08
1.8189762e-08
1.8169006e-08
1.8148891e-08
1.8129252e-08
1.8110042e-08
1.8091256e-08
1.80729e-08
1.8054991e-08
1.803755e-08
1.8020604e-08
1.8004184e-08
1.7988325e-08
1.7973069e-08
1.7958461e-08
1.794455e-08
1.7931392e-08
1.7919046e-08
1.7907575e-08
1.7897045e-08
1.7887522e-08
1.7879071e-08
1.7871752e-08
1.7865621e-08
1.7860734e-08
1.7857152e-08
1.7855033e-08
1.7854556e-08
1.7855646e-08
1.7858181e-08
1.7862056e-08
1.786718e-08
1.7873457e-08
1.788076e-08
1.7888891e-08
1.7897531e-08
1.7906143e-08
1.7913822e-08
1.7919049e-08
1.791931e-08
1.791054e-08
1.7886341e-08
1.7836906e-08
1.7747641e-08
1.759741e-08
1.7356393e-08
1.6983555e-08
1.6424352e-08
1.560906e-08
1.4452558e-08
1.2862065e-08
1.0764243e-08
8.1677257e-09
5.2828052e-09
2.7052489e-09
1.7314645e-09
8.084372e-09
1.8636613e-08
1.8599347e-08
1.8573443e-08
1.8550989e-08
1.8529686e-08
1.8509023e-08
1.848887e-08
1.8469181e-08
1.8449952e-08
1.8431186e-08
1.84129e-08
1.8395112e-08
1.8377847e-08
1.8361135e-08
1.8345011e-08
1.8329515e-08
1.8314689e-08
1.8300584e-08
1.8287254e-08
1.8274755e-08
1.8263151e-08
1.8252505e-08
1.8242884e-08
1.8234349e-08
1.8226959e-08
1.8220768e-08
1.8215831e-08
1.8212213e-08
1.8210034e-08
1.8209512e-08
1.8210574e-08
1.8213094e-08
1.8216966e-08
1.8222102e-08
1.8228416e-08
1.8235792e-08
1.8244056e-08
1.825293e-08
1.8261952e-08
1.8270339e-08
1.8276774e-08
1.827906e-08
1.8273615e-08
1.825472e-08
1.82135e-08
1.8136539e-08
1.8004097e-08
1.7787853e-08
1.7448112e-08
1.6930887e-08
1.6165485e-08
1.506293e-08
1.3520657e-08
1.1445858e-08
8.8158594e-09
5.8034538e-09
2.9847534e-09
1.6619862e-09
6.9037463e-09
1.9041643e-08
1.9004537e-08
1.897861e-08
1.8955596e-08
1.8933692e-08
1.8912444e-08
1.8891743e-08
1.8871547e-08
1.885185e-08
1.8832655e-08
1.8813974e-08
1.8795826e-08
1.8778233e-08
1.8761222e-08
1.8744829e-08
1.8729089e-08
1.8714046e-08
1.8699748e-08
1.8686247e-08
1.86736e-08
1.8661868e-08
1.8651113e-08
1.8641399e-08
1.8632787e-08
1.8625333e-08
1.8619088e-08
1.8614105e-08
1.8610453e-08
1.8608227e-08
1.860766e-08
1.8608694e-08
1.8611199e-08
1.8615064e-08
1.8620209e-08
1.8626553e-08
1.8633993e-08
1.8642378e-08
1.8651468e-08
1.8660868e-08
1.8669915e-08
1.8677482e-08
1.8681682e-08
1.8679401e-08
1.8665608e-08
1.8632374e-08
1.8567524e-08
1.8452822e-08
1.8261634e-08
1.7955901e-08
1.7482627e-08
1.67706e-08
1.5727511e-08
1.4241486e-08
1.2199778e-08
9.5455348e-09
6.4070822e-09
3.3320999e-09
1.6403813e-09
5.9061194e-09
1.9497005e-08
1.9460279e-08
1.9434117e-08
1.9410477e-08
1.9387914e-08
1.9366039e-08
1.9344755e-08
1.9324024e-08
1.9303837e-08
1.9284194e-08
1.9265107e-08
1.9246588e-08
1.922866e-08
1.9211348e-08
1.9194684e-08
1.9178703e-08
1.9163447e-08
1.9148962e-08
1.9135298e-08
1.9122512e-08
1.911066e-08
1.9099806e-08
1.9090011e-08
1.9081332e-08
1.9073824e-08
1.9067534e-08
1.9062513e-08
1.9058826e-08
1.9056569e-08
1.9055955e-08
1.9056963e-08
1.9059449e-08
1.9063305e-08
1.9068452e-08
1.9074817e-08
1.908231e-08
1.9090799e-08
1.9100081e-08
1.9109824e-08
1.9119472e-08
1.9128083e-08
1.9134062e-08
1.9134752e-08
1.9125798e-08
1.9100235e-08
1.9047169e-08
1.894998e-08
1.8783907e-08
1.851284e-08
1.808527e-08
1.7430033e-08
1.6452132e-08
1.5031102e-08
1.3034146e-08
1.0367518e-08
7.1072963e-09
3.76078e-09
1.6715971e-09
5.0679251e-09
2.0011089e-08
1.9974986e-08
1.9948342e-08
1.9923999e-08
1.9900721e-08
1.9878175e-08
1.9856273e-08
1.983498e-08
1.9814283e-08
1.9794179e-08
1.9774675e-08
1.9755783e-08
1.973752e-08
1.971991e-08
1.9702981e-08
1.9686769e-08
1.9671311e-08
1.9656652e-08
1.964284e-08
1.9629929e-08
1.9617976e-08
1.9607039e-08
1.9597178e-08
1.9588448e-08
1.95809e-08
1.9574578e-08
1.9569529e-08
1.9565815e-08
1.9563533e-08
1.9562878e-08
1.9563859e-08
1.9566324e-08
1.9570163e-08
1.9575303e-08
1.9581677e-08
1.9589206e-08
1.9597777e-08
1.960722e-08
1.9617261e-08
1.9627443e-08
1.9636994e-08
1.9644595e-08
1.9648024e-08
1.9643589e-08
1.962528e-08
1.9583526e-08
1.9503414e-08
1.9362244e-08
1.9126175e-08
1.874573e-08
1.8150506e-08
1.724361e-08
1.5896967e-08
1.3958104e-08
1.1294011e-08
7.920083e-09
4.2877509e-09
1.7637881e-09
4.3709993e-09
2.0594358e-08
2.0558789e-08
2.0531552e-08
2.0506428e-08
2.0482373e-08
2.0459109e-08
2.0436557e-08
2.0414679e-08
2.0393456e-08
2.0372884e-08
2.0352963e-08
2.0333701e-08
2.0315113e-08
2.0297219e-08
2.0280044e-08
2.026362e-08
2.0247982e-08
2.0233173e-08
2.0219239e-08
2.020623e-08
2.01942e-08
2.0183206e-08
2.0173305e-08
2.0164547e-08
2.015698e-08
2.0150644e-08
2.0145582e-08
2.0141853e-08
2.0139552e-08
2.013886e-08
2.0139815e-08
2.0142255e-08
2.0146068e-08
2.0151185e-08
2.0157549e-08
2.0165091e-08
2.0173716e-08
2.018328e-08
2.0193564e-08
2.02042e-08
2.0214569e-08
2.0223609e-08
2.0229507e-08
2.0229206e-08
2.0217634e-08
2.0186559e-08
2.0122849e-08
2.0006048e-08
1.9804908e-08
1.9472555e-08
1.8940212e-08
1.8110081e-08
1.6847737e-08
1.4982022e-08
1.2338901e-08
8.8642565e-09
4.9343111e-09
1.929279e-09
3.7995021e-09
2.1259595e-08
2.122443e-08
2.1196477e-08
2.117048e-08
2.1145583e-08
2.1121557e-08
2.1098325e-08
2.1075844e-08
2.1054091e-08
2.1033054e-08
2.1012728e-08
2.0993115e-08
2.0974226e-08
2.0956077e-08
2.0938689e-08
2.0922089e-08
2.0906311e-08
2.0891393e-08
2.0877377e-08
2.0864311e-08
2.0852246e-08
2.0841234e-08
2.0831329e-08
2.0822578e-08
2.0815023e-08
2.0808699e-08
2.0803645e-08
2.0799916e-08
2.0797605e-08
2.0796882e-08
2.0797811e-08
2.0800217e-08
2.080399e-08
2.0809065e-08
2.0815393e-08
2.0822914e-08
2.083155e-08
2.0841185e-08
2.0851642e-08
2.0862636e-08
2.0873682e-08
2.0883952e-08
2.0892008e-08
2.0895391e-08
2.0889933e-08
2.0868732e-08
2.082049e-08
2.0727151e-08
2.0560382e-08
2.0276496e-08
1.9809342e-08
1.9061458e-08
1.7893652e-08
1.6117787e-08
1.3518021e-08
9.9619386e-09
5.7272123e-09
2.1862268e-09
3.3415231e-09
2.2022811e-08
2.1987886e-08
2.1959066e-08
2.1932092e-08
2.1906285e-08
2.1881455e-08
2.185752e-08
2.1834432e-08
2.1812158e-08
2.1790676e-08
2.1769976e-08
2.1750053e-08
2.1730911e-08
2.171256e-08
2.1695017e-08
2.1678303e-08
2.1662449e-08
2.1647486e-08
2.1633454e-08
2.1620395e-08
2.1608356e-08
2.1597386e-08
2.1587534e-08
2.157884e-08
2.1571342e-08
2.1565069e-08
2.1560052e-08
2.1556344e-08
2.1554037e-08
2.1553289e-08
2.1554191e-08
2.1556553e-08
2.1560264e-08
2.1565266e-08
2.1571519e-08
2.1578973e-08
2.1587564e-08
2.1597198e-08
2.160774e-08
2.1618971e-08
2.1630529e-08
2.1641786e-08
2.1651647e-08
2.16582e-08
2.1658126e-08
2.1645823e-08
2.1611837e-08
2.1540635e-08
2.1407103e-08
2.1171325e-08
2.0770852e-08
2.0110114e-08
1.9047125e-08
1.7379265e-08
1.4849535e-08
1.1239189e-08
6.7001136e-09
2.5609194e-09
2.9892001e-09
2.2904342e-08
2.2869432e-08
2.283956e-08
2.2811493e-08
2.2784709e-08
2.2759038e-08
2.2734393e-08
2.2710711e-08
2.2687948e-08
2.2666071e-08
2.264506e-08
2.26249e-08
2.2605587e-08
2.2587124e-08
2.2569521e-08
2.2552794e-08
2.2536964e-08
2.2522058e-08
2.2508111e-08
2.2495157e-08
2.248324e-08
2.2472401e-08
2.2462684e-08
2.2454124e-08
2.2446749e-08
2.2440582e-08
2.2435647e-08
2.243199e-08
2.2429705e-08
2.2428941e-08
2.2429814e-08
2.2432116e-08
2.2435734e-08
2.2440619e-08
2.2446739e-08
2.2454058e-08
2.2462521e-08
2.2472058e-08
2.2482566e-08
2.2493885e-08
2.2505754e-08
2.251772e-08
2.2528983e-08
2.2538119e-08
2.2542611e-08
2.2538049e-08
2.251682e-08
2.246598e-08
2.2363891e-08
2.2174972e-08
2.1841581e-08
2.1271904e-08
2.0323614e-08
1.8782983e-08
1.6354445e-08
1.2726717e-08
7.8954778e-09
3.091255e-09
2.7395404e-09
2.3930398e-08
2.3895166e-08
2.386402e-08
2.3834734e-08
2.3806907e-08
2.3780375e-08
2.3755033e-08
2.3730802e-08
2.370762e-08
2.368544e-08
2.3664227e-08
2.3643955e-08
2.3624609e-08
2.3606181e-08
2.3588672e-08
2.3572087e-08
2.3556441e-08
2.3541752e-08
2.3528044e-08
2.3515348e-08
2.3503696e-08
2.3493125e-08
2.3483668e-08
2.3475355e-08
2.3468203e-08
2.3462224e-08
2.3457434e-08
2.3453875e-08
2.3451637e-08
2.3450865e-08
2.345171e-08
2.3453927e-08
2.3457404e-08
2.3462106e-08
2.3468011e-08
2.3475093e-08
2.3483311e-08
2.3492613e-08
2.3502923e-08
2.3514133e-08
2.3526063e-08
2.3538408e-08
2.3550616e-08
2.3561686e-08
2.35698e-08
2.357167e-08
2.3561422e-08
2.3528701e-08
2.3455529e-08
2.331118e-08
2.3043891e-08
2.2567691e-08
2.1742958e-08
2.0349226e-08
1.8057354e-08
1.4460775e-08
9.367103e-09
3.8321881e-09
2.5990317e-09
2.5135278e-08
2.5099218e-08
2.5066538e-08
2.5035901e-08
2.5006977e-08
2.497959e-08
2.4953605e-08
2.492892e-08
2.4905449e-08
2.4883126e-08
2.4861897e-08
2.484172e-08
2.4822563e-08
2.4804405e-08
2.4787232e-08
2.4771039e-08
2.4755825e-08
2.4741599e-08
2.4728373e-08
2.4716166e-08
2.4705001e-08
2.4694904e-08
2.4685899e-08
2.4678003e-08
2.4671222e-08
2.4665557e-08
2.4661008e-08
2.4657612e-08
2.4655461e-08
2.465469e-08
2.4655508e-08
2.4657602e-08
2.4660868e-08
2.4665288e-08
2.4670854e-08
2.4677549e-08
2.4685346e-08
2.4694211e-08
2.4704093e-08
2.4714924e-08
2.4726593e-08
2.4738911e-08
2.4751529e-08
2.4763797e-08
2.4774493e-08
2.4781323e-08
2.4780014e-08
2.4762714e-08
2.4715169e-08
2.4611919e-08
2.4408099e-08
2.4025711e-08
2.333153e-08
2.2103837e-08
1.9987711e-08
1.6484243e-08
1.1183496e-08
4.8641728e-09
2.5922499e-09
1.5508962e-08
1.8615005e-08
2.2404742e-08
2.6791548e-08
3.1766858e-08
3.7352814e-08
4.3574596e-08
5.0461966e-08
5.8044581e-08
6.6346813e-08
7.5381994e-08
8.5144607e-08
9.5601905e-08
1.066829e-07
1.1826688e-07
1.3016983e-07
1.4213171e-07
1.538045e-07
1.647452e-07
1.7441393e-07
1.8218957e-07
1.8737525e-07
1.8932612e-07
1.8737787e-07
1.8097682e-07
1.6989223e-07
1.5418852e-07
1.3433569e-07
1.1126514e-07
8.6360027e-08
6.1387185e-08
3.8370364e-08
1.9410406e-08
6.4421161e-09
2.2095077e-09
7.0505819e-09
2.1411806e-08
4.6001861e-08
8.0701332e-08
1.2486518e-07
1.774851e-07
2.3732395e-07
3.0303056e-07
3.7322193e-07
4.4655932e-07
5.2180438e-07
5.978559e-07
6.7376555e-07
7.4872227e-07
8.2205221e-07
8.9322891e-07
9.6185854e-07
1.0276554e-06
1.0904249e-06
1.1500478e-06
1.2064692e-06
1.2596961e-06
1.3097775e-06
1.3567832e-06
1.4008048e-06
1.4419538e-06
1.4803527e-06
1.5161324e-06
1.5494329e-06
1.580392e-06
1.6091401e-06
1.6358074e-06
1.6605225e-06
1.6834093e-06
1.7045839e-06
1.7241573e-06
1.7422191e-06
1.7588707e-06
1.7740962e-06
2.8128827e-09
3.4456419e-09
4.1533897e-09
4.955597e-09
5.8607677e-09
6.8741369e-09
7.9998723e-09
9.2413958e-09
1.0601681e-08
1.2083117e-08
1.3686862e-08
1.5411701e-08
1.7252589e-08
1.9198855e-08
2.1232193e-08
2.3324427e-08
2.5435267e-08
2.7510255e-08
2.9479333e-08
3.1256416e-08
3.2741192e-08
3.3821184e-08
3.4385814e-08
3.4325649e-08
3.3547465e-08
3.1997803e-08
2.9672115e-08
2.662626e-08
2.2983834e-08
1.8933781e-08
1.4717602e-08
1.0647436e-08
7.0908968e-09
4.2654298e-09
2.5118931e-09
1.9776251e-09
2.7413652e-09
4.8998014e-09
8.473994e-09
1.3406745e-08
1.9589766e-08
2.6878669e-08
3.5107467e-08
4.4100449e-08
5.3681743e-08
6.3653437e-08
7.3830056e-08
8.4079682e-08
9.4312446e-08
1.0447301e-07
1.1446965e-07
1.2423051e-07
1.3369986e-07
1.4283636e-07
1.5160884e-07
1.5999658e-07
1.6798672e-07
1.755731e-07
1.8275606e-07
1.8953911e-07
1.9593013e-07
2.0193911e-07
2.0757823e-07
2.1284845e-07
2.1775569e-07
2.2232252e-07
2.265687e-07
2.3051503e-07
2.3417932e-07
2.3758076e-07
2.4073589e-07
2.4366275e-07
2.4637886e-07
2.4890539e-07
2.1074811e-09
2.1177782e-09
2.2013606e-09
2.3541079e-09
2.5724852e-09
2.8536536e-09
3.1978997e-09
3.6019857e-09
4.0627909e-09
4.5778068e-09
5.1450651e-09
5.7626576e-09
6.4280974e-09
7.1377518e-09
7.8862023e-09
8.6655109e-09
9.4644016e-09
1.026746e-08
1.1054458e-08
1.179994e-08
1.2473318e-08
1.3039386e-08
1.3460914e-08
1.369984e-08
1.3721322e-08
1.3498562e-08
1.3017343e-08
1.2279864e-08
1.1307156e-08
1.01389e-08
8.8273045e-09
7.4424605e-09
6.0998863e-09
4.8794525e-09
3.8615682e-09
3.1037121e-09
2.6421989e-09
2.5036045e-09
2.6993509e-09
3.2263547e-09
4.0738869e-09
5.2163509e-09
6.6210393e-09
8.2514682e-09
1.0069559e-08
1.2035826e-08
1.4111317e-08
1.6261122e-08
1.845562e-08
2.0670804e-08
2.288489e-08
2.5078933e-08
2.7236899e-08
2.9345615e-08
3.1394386e-08
3.3374869e-08
3.5276534e-08
3.7087634e-08
3.8807796e-08
4.0437346e-08
4.1977527e-08
4.3430093e-08
4.4797332e-08
4.6081599e-08
4.7286742e-08
4.8418048e-08
4.9478244e-08
5.0470313e-08
5.1397566e-08
5.2263219e-08
5.3070604e-08
5.3823303e-08
5.4524855e-08
5.5178547e-08
3.5793849e-09
3.1592469e-09
2.8411503e-09
2.6151308e-09
2.4719093e-09
2.403055e-09
2.4019329e-09
2.4620732e-09
2.5773824e-09
2.7423686e-09
2.9531497e-09
3.2058159e-09
3.4962052e-09
3.8203753e-09
4.1743761e-09
4.5539213e-09
4.953876e-09
5.3678308e-09
5.7877465e-09
6.2036623e-09
6.6035453e-09
6.973338e-09
7.2975124e-09
7.5594604e-09
7.7430402e-09
7.83377e-09
7.8206371e-09
7.6976985e-09
7.4650645e-09
7.1289732e-09
6.7002402e-09
6.1987068e-09
5.657574e-09
5.1083322e-09
4.5805623e-09
4.0991676e-09
3.6831826e-09
3.3466946e-09
3.0986106e-09
2.9430669e-09
2.8807685e-09
2.9086559e-09
3.0209038e-09
3.2098154e-09
3.4666247e-09
3.7825375e-09
4.1477014e-09
4.5524554e-09
4.9878188e-09
5.4456726e-09
5.91877e-09
6.4007082e-09
6.8859231e-09
7.3696521e-09
7.8478608e-09
8.3172119e-09
8.7748565e-09
9.2183553e-09
9.6459421e-09
1.0056313e-08
1.0448635e-08
1.0822401e-08
1.1177385e-08
1.1513606e-08
1.1831318e-08
1.2130931e-08
1.2412936e-08
1.2677926e-08
1.2926534e-08
1.3159483e-08
1.3377478e-08
1.3581289e-08
1.3771699e-08
1.3949357e-08
5.7578928e-09
5.0133091e-09
4.3828825e-09
3.8586374e-09
3.4322471e-09
3.0951506e-09
2.8391453e-09
2.6562696e-09
2.5388795e-09
2.479799e-09
2.4728076e-09
2.5122793e-09
2.592924e-09
2.7098387e-09
2.8587439e-09
3.035649e-09
3.2361213e-09
3.4556093e-09
3.6892334e-09
3.9315836e-09
4.1765432e-09
4.4172223e-09
4.6460674e-09
4.8548791e-09
5.035514e-09
5.1801851e-09
5.2821737e-09
5.3364854e-09
5.3402942e-09
5.293142e-09
5.1966055e-09
5.0553537e-09
4.8785078e-09
4.6768741e-09
4.4614788e-09
4.24257e-09
4.0289512e-09
3.8277759e-09
3.6444522e-09
3.4827066e-09
3.3448404e-09
3.2318747e-09
3.1437727e-09
3.0796852e-09
3.0381792e-09
3.0174816e-09
3.0155271e-09
3.0301027e-09
3.0589655e-09
3.0999262e-09
3.1509111e-09
3.2099956e-09
3.2754257e-09
3.34563e-09
3.4192365e-09
3.4950421e-09
3.5719941e-09
3.6491805e-09
3.7258389e-09
3.8013299e-09
3.8751419e-09
3.9468671e-09
4.0161863e-09
4.0828688e-09
4.1467494e-09
4.2077298e-09
4.2657523e-09
4.3208043e-09
4.3729036e-09
4.4221009e-09
4.4684658e-09
4.5120839e-09
4.553056e-09
4.5914739e-09
8.0276132e-09
7.0773788e-09
6.2328356e-09
5.4910699e-09
4.8480547e-09
4.298593e-09
3.8366794e-09
3.4557364e-09
3.1488508e-09
2.9090261e-09
2.729543e-09
2.6040566e-09
2.5265831e-09
2.4915251e-09
2.493803e-09
2.528801e-09
2.5920629e-09
2.6792839e-09
2.7863085e-09
2.9090175e-09
3.0430808e-09
3.1839707e-09
3.3270033e-09
3.4672604e-09
3.5999378e-09
3.7204028e-09
3.8244927e-09
3.9087919e-09
3.9708524e-09
4.009317e-09
4.0238807e-09
4.0154186e-09
3.9862452e-09
3.9397511e-09
3.8798869e-09
3.8106381e-09
3.735705e-09
3.6583159e-09
3.5811323e-09
3.5062382e-09
3.4351823e-09
3.3690351e-09
3.3084637e-09
3.2538084e-09
3.205155e-09
3.1624032e-09
3.1253134e-09
3.0935494e-09
3.0667132e-09
3.0443732e-09
3.026086e-09
3.0114118e-09
2.9999247e-09
2.991222e-09
2.9849295e-09
2.9807034e-09
2.9782327e-09
2.9772347e-09
2.9774565e-09
2.9786796e-09
2.9807112e-09
2.983381e-09
2.9865424e-09
2.9900714e-09
2.993862e-09
2.997826e-09
3.0018892e-09
3.0059906e-09
3.0100801e-09
3.0141176e-09
3.0180718e-09
3.0219186e-09
3.0256372e-09
3.0292188e-09
1.0084309e-08
9.0414436e-09
8.0816275e-09