/*--------------------------------*- C++ -*----------------------------------*\
| =========                 |                                                 |
| \\      /  F ield         | OpenFOAM: The Open Source CFD Toolbox           |
|  \\    /   O peration     | Version:  v2006                                 |
|   \\  /    A nd           | Website:  www.openfoam.com                      |
|    \\/     M anipulation  |                                                 |
\*---------------------------------------------------------------------------*/
FoamFile
{
    version     2.0;
    format      ascii;
    class       volScalarField;
    location    "10000";
    object      nut;
}
// * * * * * * * * * * * * * * * * * * * * * * * * * * * * * * * * * * * * * //

dimensions      [0 2 -1 0 0 0 0];


internalField   nonuniform List<scalar> 
55713
(
4.8454151e-10
4.8714277e-09
2.2752723e-08
4.8908233e-08
7.1567091e-08
8.6549822e-08
9.5460664e-08
1.0055147e-07
1.0333015e-07
1.047943e-07
1.0554913e-07
1.0593278e-07
1.0612565e-07
1.0622157e-07
1.0626853e-07
1.0629084e-07
1.0630078e-07
1.0630452e-07
1.0630519e-07
1.0630437e-07
1.0630289e-07
1.0630118e-07
1.0629947e-07
1.0629788e-07
1.062965e-07
1.0629536e-07
1.0629449e-07
1.0629389e-07
1.0629357e-07
1.0629358e-07
1.0629402e-07
1.0629469e-07
1.0629566e-07
1.0629693e-07
1.0629851e-07
1.0630038e-07
1.0630257e-07
1.0630507e-07
1.063079e-07
1.0631106e-07
1.0631454e-07
1.0631835e-07
1.0632248e-07
1.0632694e-07
1.0633172e-07
1.0633684e-07
1.063423e-07
1.0634811e-07
1.0635429e-07
1.0636085e-07
1.0636781e-07
1.063752e-07
1.0638305e-07
1.0639138e-07
1.0640025e-07
1.064097e-07
1.0641979e-07
1.0643061e-07
1.0644225e-07
5.7643924e-10
6.5222122e-09
2.7900747e-08
5.5758119e-08
7.7486922e-08
9.0792322e-08
9.8327395e-08
1.0242313e-07
1.045546e-07
1.0563418e-07
1.0617283e-07
1.06439e-07
1.0656938e-07
1.0663251e-07
1.0666238e-07
1.066758e-07
1.0668107e-07
1.0668232e-07
1.0668163e-07
1.0668003e-07
1.0667807e-07
1.0667604e-07
1.066741e-07
1.0667233e-07
1.0667079e-07
1.0666951e-07
1.066685e-07
1.0666776e-07
1.0666728e-07
1.066671e-07
1.0666745e-07
1.0666797e-07
1.0666878e-07
1.0666988e-07
1.0667127e-07
1.0667295e-07
1.0667493e-07
1.0667722e-07
1.0667982e-07
1.0668274e-07
1.0668597e-07
1.0668952e-07
1.0669337e-07
1.0669753e-07
1.0670201e-07
1.067068e-07
1.0671192e-07
1.0671736e-07
1.0672315e-07
1.0672929e-07
1.067358e-07
1.067427e-07
1.0675001e-07
1.0675777e-07
1.06766e-07
1.0677475e-07
1.0678406e-07
1.06794e-07
1.0680463e-07
7.0606616e-10
8.6479141e-09
3.3755314e-08
6.2727831e-08
8.3029695e-08
9.4587805e-08
1.0080971e-07
1.0401005e-07
1.0559799e-07
1.0637137e-07
1.0674491e-07
1.0692422e-07
1.0700953e-07
1.0704951e-07
1.070675e-07
1.0707478e-07
1.0707684e-07
1.0707638e-07
1.0707473e-07
1.0707258e-07
1.0707027e-07
1.0706801e-07
1.0706589e-07
1.0706398e-07
1.0706231e-07
1.0706091e-07
1.0705978e-07
1.0705892e-07
1.0705831e-07
1.0705789e-07
1.0705823e-07
1.0705856e-07
1.0705923e-07
1.0706017e-07
1.0706139e-07
1.0706288e-07
1.0706465e-07
1.0706673e-07
1.070691e-07
1.0707178e-07
1.0707476e-07
1.0707804e-07
1.0708162e-07
1.0708549e-07
1.0708966e-07
1.0709412e-07
1.0709889e-07
1.0710396e-07
1.0710936e-07
1.0711507e-07
1.0712113e-07
1.0712755e-07
1.0713433e-07
1.0714151e-07
1.0714911e-07
1.0715717e-07
1.0716571e-07
1.0717478e-07
1.0718444e-07
8.9145919e-10
1.1348945e-08
4.029132e-08
6.9661935e-08
8.812099e-08
9.7933799e-08
1.0292402e-07
1.0534704e-07
1.0649401e-07
1.0703123e-07
1.0728251e-07
1.0739923e-07
1.07453e-07
1.0747707e-07
1.0748699e-07
1.0749015e-07
1.0749006e-07
1.0748844e-07
1.0748615e-07
1.0748361e-07
1.0748107e-07
1.0747863e-07
1.0747639e-07
1.0747437e-07
1.074726e-07
1.074711e-07
1.0746988e-07
1.0746892e-07
1.074682e-07
1.0746766e-07
1.0746774e-07
1.0746804e-07
1.0746857e-07
1.0746936e-07
1.0747041e-07
1.0747171e-07
1.0747329e-07
1.0747515e-07
1.074773e-07
1.0747974e-07
1.0748248e-07
1.0748549e-07
1.0748879e-07
1.0749236e-07
1.0749622e-07
1.0750035e-07
1.0750477e-07
1.0750947e-07
1.0751447e-07
1.0751976e-07
1.0752537e-07
1.0753129e-07
1.0753755e-07
1.0754416e-07
1.0755114e-07
1.075585e-07
1.0756628e-07
1.0757452e-07
1.0758322e-07
1.1570231e-09
1.4737022e-08
4.7448121e-08
7.6403108e-08
9.271454e-08
1.0083178e-07
1.0470175e-07
1.0647503e-07
1.0727635e-07
1.0763707e-07
1.0780053e-07
1.0787353e-07
1.079058e-07
1.0791922e-07
1.0792382e-07
1.0792428e-07
1.0792278e-07
1.0792041e-07
1.079177e-07
1.0791492e-07
1.0791222e-07
1.0790968e-07
1.0790735e-07
1.0790525e-07
1.0790342e-07
1.0790185e-07
1.0790056e-07
1.0789952e-07
1.0789871e-07
1.0789808e-07
1.0789787e-07
1.0789813e-07
1.0789858e-07
1.0789922e-07
1.079001e-07
1.0790122e-07
1.079026e-07
1.0790425e-07
1.0790618e-07
1.0790839e-07
1.0791087e-07
1.0791362e-07
1.0791664e-07
1.0791992e-07
1.0792346e-07
1.0792726e-07
1.0793132e-07
1.0793565e-07
1.0794025e-07
1.0794511e-07
1.0795026e-07
1.079557e-07
1.0796143e-07
1.0796746e-07
1.0797382e-07
1.079805e-07
1.0798754e-07
1.0799494e-07
1.0800273e-07
1.5390841e-09
1.8933924e-08
5.5123448e-08
8.2801325e-08
9.6789198e-08
1.0329462e-07
1.0618603e-07
1.0743657e-07
1.079763e-07
1.0820981e-07
1.0831126e-07
1.0835502e-07
1.0837314e-07
1.0837965e-07
1.0838085e-07
1.0837959e-07
1.0837722e-07
1.0837439e-07
1.0837143e-07
1.0836851e-07
1.0836573e-07
1.0836313e-07
1.0836076e-07
1.0835863e-07
1.0835676e-07
1.0835515e-07
1.0835381e-07
1.083527e-07
1.0835182e-07
1.0835111e-07
1.0835067e-07
1.0835086e-07
1.0835123e-07
1.0835176e-07
1.0835247e-07
1.0835342e-07
1.0835461e-07
1.0835605e-07
1.0835776e-07
1.0835974e-07
1.0836197e-07
1.0836445e-07
1.0836719e-07
1.0837017e-07
1.0837339e-07
1.0837685e-07
1.0838056e-07
1.0838451e-07
1.083887e-07
1.0839314e-07
1.0839782e-07
1.0840276e-07
1.0840797e-07
1.0841343e-07
1.0841916e-07
1.0842517e-07
1.0843147e-07
1.0843806e-07
1.0844495e-07
2.0898797e-09
2.4069331e-08
6.3171159e-08
8.8725471e-08
1.0033896e-07
1.0535411e-07
1.0742661e-07
1.0827261e-07
1.0862156e-07
1.0876597e-07
1.0882612e-07
1.0885063e-07
1.0885968e-07
1.0886186e-07
1.0886096e-07
1.0885867e-07
1.0885579e-07
1.0885272e-07
1.0884965e-07
1.0884668e-07
1.0884388e-07
1.0884129e-07
1.0883892e-07
1.088368e-07
1.0883493e-07
1.088333e-07
1.0883192e-07
1.0883078e-07
1.0882984e-07
1.0882908e-07
1.0882844e-07
1.0882855e-07
1.0882882e-07
1.0882925e-07
1.0882984e-07
1.0883062e-07
1.0883162e-07
1.0883286e-07
1.0883435e-07
1.0883609e-07
1.0883808e-07
1.088403e-07
1.0884275e-07
1.0884542e-07
1.0884832e-07
1.0885144e-07
1.0885479e-07
1.0885835e-07
1.0886213e-07
1.0886613e-07
1.0887035e-07
1.0887479e-07
1.0887946e-07
1.0888435e-07
1.0888947e-07
1.0889481e-07
1.0890037e-07
1.0890616e-07
1.0891218e-07
2.8841678e-09
3.0277794e-08
7.1401738e-08
9.4074547e-08
1.0336663e-07
1.0705816e-07
1.0847499e-07
1.090205e-07
1.0923595e-07
1.0932033e-07
1.0935378e-07
1.0936621e-07
1.093697e-07
1.093693e-07
1.0936718e-07
1.0936434e-07
1.0936122e-07
1.0935807e-07
1.0935499e-07
1.0935206e-07
1.0934931e-07
1.0934677e-07
1.0934446e-07
1.0934238e-07
1.0934054e-07
1.0933893e-07
1.0933754e-07
1.0933638e-07
1.0933542e-07
1.0933461e-07
1.093339e-07
1.0933385e-07
1.0933403e-07
1.0933436e-07
1.0933484e-07
1.0933548e-07
1.093363e-07
1.0933734e-07
1.0933862e-07
1.0934013e-07
1.0934186e-07
1.0934382e-07
1.0934598e-07
1.0934835e-07
1.0935093e-07
1.093537e-07
1.0935667e-07
1.0935984e-07
1.093632e-07
1.0936676e-07
1.093705e-07
1.0937444e-07
1.0937857e-07
1.0938288e-07
1.0938738e-07
1.0939205e-07
1.093969e-07
1.094019e-07
1.0940707e-07
4.0272303e-09
3.7694816e-08
7.9587378e-08
9.878648e-08
1.0589182e-07
1.0846473e-07
1.0938083e-07
1.0971432e-07
1.0983813e-07
1.0988482e-07
1.0990189e-07
1.099071e-07
1.0990737e-07
1.0990554e-07
1.0990281e-07
1.0989975e-07
1.0989659e-07
1.0989349e-07
1.0989051e-07
1.0988769e-07
1.0988507e-07
1.0988265e-07
1.0988044e-07
1.0987845e-07
1.0987667e-07
1.098751e-07
1.0987375e-07
1.098726e-07
1.0987164e-07
1.0987083e-07
1.098701e-07
1.0986985e-07
1.0986996e-07
1.0987019e-07
1.0987056e-07
1.0987108e-07
1.0987175e-07
1.098726e-07
1.0987366e-07
1.0987494e-07
1.0987643e-07
1.0987812e-07
1.0987999e-07
1.0988205e-07
1.0988429e-07
1.0988671e-07
1.098893e-07
1.0989207e-07
1.09895e-07
1.098981e-07
1.0990137e-07
1.0990479e-07
1.0990838e-07
1.099121e-07
1.0991598e-07
1.0991999e-07
1.0992412e-07
1.0992836e-07
1.099327e-07
5.6644991e-09
4.6451979e-08
8.7471926e-08
1.02837e-07
1.0795854e-07
1.0963649e-07
1.1018966e-07
1.1038007e-07
1.104464e-07
1.1046984e-07
1.1047726e-07
1.1047839e-07
1.1047696e-07
1.1047446e-07
1.1047154e-07
1.104685e-07
1.1046547e-07
1.1046254e-07
1.1045976e-07
1.1045714e-07
1.1045471e-07
1.1045247e-07
1.1045042e-07
1.1044856e-07
1.1044689e-07
1.1044541e-07
1.1044413e-07
1.1044303e-07
1.104421e-07
1.1044131e-07
1.1044061e-07
1.1044022e-07
1.1044025e-07
1.1044039e-07
1.1044065e-07
1.1044105e-07
1.1044159e-07
1.1044226e-07
1.1044312e-07
1.1044417e-07
1.1044542e-07
1.1044683e-07
1.1044841e-07
1.1045015e-07
1.1045205e-07
1.104541e-07
1.1045631e-07
1.1045866e-07
1.1046116e-07
1.1046379e-07
1.1046656e-07
1.1046946e-07
1.1047249e-07
1.1047563e-07
1.1047888e-07
1.1048222e-07
1.1048565e-07
1.1048913e-07
1.1049267e-07
7.9960776e-09
5.6671019e-08
9.4786865e-08
1.0622639e-07
1.0963127e-07
1.1063589e-07
1.1094261e-07
1.1104106e-07
1.1107364e-07
1.1108392e-07
1.1108611e-07
1.110852e-07
1.1108304e-07
1.110804e-07
1.1107759e-07
1.1107477e-07
1.1107202e-07
1.1106939e-07
1.1106691e-07
1.1106458e-07
1.1106242e-07
1.1106042e-07
1.1105859e-07
1.1105692e-07
1.1105542e-07
1.1105409e-07
1.1105292e-07
1.1105191e-07
1.1105105e-07
1.1105032e-07
1.1104967e-07
1.1104926e-07
1.1104914e-07
1.1104922e-07
1.1104939e-07
1.1104967e-07
1.1105007e-07
1.110506e-07
1.1105126e-07
1.1105209e-07
1.1105308e-07
1.1105422e-07
1.1105551e-07
1.1105692e-07
1.1105847e-07
1.1106015e-07
1.1106195e-07
1.1106388e-07
1.1106592e-07
1.1106807e-07
1.1107034e-07
1.110727e-07
1.1107516e-07
1.110777e-07
1.1108032e-07
1.11083e-07
1.1108572e-07
1.1108847e-07
1.1109123e-07
1.130195e-08
6.8459728e-08
1.0127666e-07
1.0897053e-07
1.1098719e-07
1.1152184e-07
1.1167266e-07
1.1171793e-07
1.1173165e-07
1.1173503e-07
1.1173474e-07
1.1173305e-07
1.1173082e-07
1.117284e-07
1.1172594e-07
1.1172353e-07
1.1172121e-07
1.1171901e-07
1.1171693e-07
1.1171499e-07
1.1171319e-07
1.1171151e-07
1.1170998e-07
1.1170857e-07
1.117073e-07
1.1170617e-07
1.1170517e-07
1.117043e-07
1.1170356e-07
1.1170293e-07
1.1170237e-07
1.1170198e-07
1.1170178e-07
1.117018e-07
1.1170189e-07
1.1170206e-07
1.1170234e-07
1.1170272e-07
1.1170321e-07
1.1170382e-07
1.1170456e-07
1.1170543e-07
1.117064e-07
1.1170749e-07
1.1170867e-07
1.1170996e-07
1.1171135e-07
1.1171283e-07
1.117144e-07
1.1171605e-07
1.1171779e-07
1.117196e-07
1.1172147e-07
1.1172341e-07
1.1172539e-07
1.117274e-07
1.1172943e-07
1.1173146e-07
1.1173347e-07
1.5922125e-08
8.1910455e-08
1.0672812e-07
1.1111329e-07
1.121101e-07
1.1234738e-07
1.1240901e-07
1.1242618e-07
1.1243061e-07
1.1243094e-07
1.1242982e-07
1.1242817e-07
1.1242633e-07
1.1242444e-07
1.1242256e-07
1.1242075e-07
1.1241902e-07
1.1241738e-07
1.1241584e-07
1.124144e-07
1.1241306e-07
1.1241181e-07
1.1241066e-07
1.1240961e-07
1.1240865e-07
1.124078e-07
1.1240704e-07
1.1240637e-07
1.124058e-07
1.1240531e-07
1.124049e-07
1.1240457e-07
1.1240438e-07
1.1240432e-07
1.1240436e-07
1.1240445e-07
1.1240461e-07
1.1240485e-07
1.1240516e-07
1.1240557e-07
1.1240607e-07
1.1240665e-07
1.1240731e-07
1.1240805e-07
1.1240886e-07
1.1240974e-07
1.1241068e-07
1.124117e-07
1.1241277e-07
1.124139e-07
1.1241508e-07
1.1241632e-07
1.1241759e-07
1.1241889e-07
1.1242022e-07
1.1242156e-07
1.1242291e-07
1.1242423e-07
1.1242552e-07
2.2176121e-08
9.7062806e-08
1.1098555e-07
1.1274162e-07
1.1308429e-07
1.1315722e-07
1.1317481e-07
1.1317919e-07
1.1317989e-07
1.131794e-07
1.131785e-07
1.1317746e-07
1.1317637e-07
1.1317527e-07
1.1317421e-07
1.131732e-07
1.1317223e-07
1.1317132e-07
1.1317046e-07
1.1316965e-07
1.131689e-07
1.131682e-07
1.1316755e-07
1.1316696e-07
1.1316642e-07
1.1316593e-07
1.131655e-07
1.1316511e-07
1.1316478e-07
1.131645e-07
1.1316426e-07
1.1316407e-07
1.1316395e-07
1.1316387e-07
1.1316388e-07
1.1316391e-07
1.1316398e-07
1.1316408e-07
1.1316423e-07
1.1316444e-07
1.1316469e-07
1.1316498e-07
1.1316532e-07
1.1316569e-07
1.1316611e-07
1.1316656e-07
1.1316705e-07
1.1316757e-07
1.1316812e-07
1.131687e-07
1.1316931e-07
1.1316994e-07
1.1317058e-07
1.1317124e-07
1.1317191e-07
1.1317258e-07
1.1317325e-07
1.1317389e-07
1.131745e-07
1.0296965e-07
1.0294337e-07
1.029249e-07
1.0291396e-07
1.0290388e-07
1.0289482e-07
1.0288596e-07
1.0287737e-07
1.0286897e-07
1.0286078e-07
1.028528e-07
1.0284504e-07
1.028375e-07
1.0283022e-07
1.0282319e-07
1.0281645e-07
1.0281001e-07
1.0280391e-07
1.0279815e-07
1.0279277e-07
1.027878e-07
1.0278326e-07
1.0277918e-07
1.0277559e-07
1.0277249e-07
1.0276991e-07
1.0276783e-07
1.0276623e-07
1.027651e-07
1.0276439e-07
1.0276408e-07
1.0276408e-07
1.0276421e-07
1.027641e-07
1.0276307e-07
1.0275988e-07
1.0275222e-07
1.0273585e-07
1.0270313e-07
1.0264065e-07
1.0252543e-07
1.0231922e-07
1.0196044e-07
1.0135349e-07
1.0035621e-07
9.8768691e-08
9.6329571e-08
9.2728579e-08
8.7627725e-08
8.0631908e-08
7.1273614e-08
5.926467e-08
4.4947673e-08
2.9735638e-08
1.6087748e-08
6.4966759e-09
1.8463025e-09
7.2551459e-10
8.3781002e-10
1.0308792e-07
1.0306311e-07
1.0304614e-07
1.0303534e-07
1.0302543e-07
1.0301629e-07
1.030074e-07
1.0299875e-07
1.0299032e-07
1.0298209e-07
1.0297408e-07
1.029663e-07
1.0295875e-07
1.0295145e-07
1.0294442e-07
1.0293768e-07
1.0293124e-07
1.0292514e-07
1.0291939e-07
1.0291402e-07
1.0290906e-07
1.0290453e-07
1.0290047e-07
1.0289688e-07
1.028938e-07
1.0289123e-07
1.0288916e-07
1.0288758e-07
1.0288647e-07
1.0288578e-07
1.0288551e-07
1.0288557e-07
1.028858e-07
1.0288588e-07
1.0288522e-07
1.0288274e-07
1.0287642e-07
1.0286258e-07
1.0283453e-07
1.0278049e-07
1.0268012e-07
1.0249934e-07
1.0218271e-07
1.0164313e-07
1.007492e-07
9.9312487e-08
9.7080421e-08
9.3743515e-08
8.895701e-08
8.2325603e-08
7.3361605e-08
6.1685098e-08
4.747905e-08
3.1996542e-08
1.7685208e-08
7.2855159e-09
2.0450344e-09
6.9238413e-10
7.5720544e-10
1.0321837e-07
1.031949e-07
1.0317931e-07
1.031686e-07
1.0315879e-07
1.0314958e-07
1.0314065e-07
1.0313195e-07
1.0312348e-07
1.0311522e-07
1.0310719e-07
1.0309938e-07
1.0309183e-07
1.0308452e-07
1.030775e-07
1.0307076e-07
1.0306434e-07
1.0305825e-07
1.0305251e-07
1.0304716e-07
1.0304222e-07
1.0303772e-07
1.0303367e-07
1.030301e-07
1.0302703e-07
1.0302448e-07
1.0302244e-07
1.0302088e-07
1.0301979e-07
1.0301912e-07
1.0301888e-07
1.0301899e-07
1.0301932e-07
1.0301958e-07
1.0301926e-07
1.0301744e-07
1.0301238e-07
1.0300091e-07
1.0297726e-07
1.029312e-07
1.0284498e-07
1.0268857e-07
1.0241265e-07
1.0193879e-07
1.0114681e-07
9.9860989e-08
9.7839679e-08
9.4776876e-08
9.0321315e-08
8.4075461e-08
7.5539474e-08
6.4248085e-08
5.0216311e-08
3.4507451e-08
1.9517179e-08
8.226452e-09
2.3012197e-09
6.7113078e-10
6.8328372e-10
1.0336221e-07
1.0333993e-07
1.0332559e-07
1.0331492e-07
1.0330517e-07
1.032959e-07
1.0328692e-07
1.0327818e-07
1.0326967e-07
1.0326138e-07
1.0325333e-07
1.0324551e-07
1.0323795e-07
1.0323065e-07
1.0322363e-07
1.0321691e-07
1.032105e-07
1.0320443e-07
1.0319872e-07
1.031934e-07
1.0318848e-07
1.03184e-07
1.0317998e-07
1.0317644e-07
1.0317339e-07
1.0317086e-07
1.0316883e-07
1.0316731e-07
1.0316623e-07
1.0316559e-07
1.0316538e-07
1.0316554e-07
1.0316596e-07
1.0316638e-07
1.0316638e-07
1.0316517e-07
1.0316128e-07
1.03152e-07
1.0313245e-07
1.0309386e-07
1.0302094e-07
1.028876e-07
1.0265055e-07
1.0224004e-07
1.015475e-07
1.00411e-07
9.8601997e-08
9.5821162e-08
9.1712266e-08
8.5872548e-08
7.7796942e-08
6.6945288e-08
5.315979e-08
3.7283987e-08
2.1612838e-08
9.3479998e-09
2.6289356e-09
6.6438148e-10
6.1877635e-10
1.0352073e-07
1.0349965e-07
1.034863e-07
1.0347569e-07
1.0346596e-07
1.0345663e-07
1.0344761e-07
1.0343883e-07
1.0343029e-07
1.0342198e-07
1.0341392e-07
1.034061e-07
1.0339854e-07
1.0339125e-07
1.0338425e-07
1.0337755e-07
1.0337117e-07
1.0336513e-07
1.0335945e-07
1.0335416e-07
1.0334928e-07
1.0334483e-07
1.0334085e-07
1.0333733e-07
1.0333431e-07
1.033318e-07
1.033298e-07
1.0332829e-07
1.0332725e-07
1.0332663e-07
1.0332644e-07
1.0332665e-07
1.0332715e-07
1.0332773e-07
1.0332802e-07
1.0332737e-07
1.0332454e-07
1.0331729e-07
1.0330151e-07
1.0326983e-07
1.0320927e-07
1.0309753e-07
1.0289717e-07
1.0254704e-07
1.0195046e-07
1.0096022e-07
9.9363016e-08
9.6869807e-08
9.3122427e-08
8.7709985e-08
8.0126328e-08
6.9770935e-08
5.6312697e-08
4.0346174e-08
2.4008344e-08
1.0686483e-08
3.0467692e-09
6.7466769e-10
5.6197763e-10
1.0369542e-07
1.0367565e-07
1.0366305e-07
1.0365251e-07
1.0364277e-07
1.036334e-07
1.0362434e-07
1.0361552e-07
1.0360696e-07
1.0359864e-07
1.0359058e-07
1.0358277e-07
1.0357522e-07
1.0356796e-07
1.0356098e-07
1.0355432e-07
1.0354797e-07
1.0354197e-07
1.0353634e-07
1.0353109e-07
1.0352626e-07
1.0352185e-07
1.0351791e-07
1.0351443e-07
1.0351144e-07
1.0350895e-07
1.0350698e-07
1.035055e-07
1.0350448e-07
1.0350388e-07
1.0350373e-07
1.0350398e-07
1.0350455e-07
1.0350527e-07
1.0350582e-07
1.0350567e-07
1.0350381e-07
1.0349839e-07
1.0348604e-07
1.0346065e-07
1.0341144e-07
1.0331965e-07
1.0315345e-07
1.0286015e-07
1.0235499e-07
1.0150625e-07
1.0011789e-07
9.7914975e-08
9.454192e-08
8.9578304e-08
8.2516986e-08
7.2714869e-08
5.9673163e-08
4.3710898e-08
2.6741852e-08
1.2284805e-08
3.5788558e-09
7.0621514e-10
5.1277323e-10
1.0388819e-07
1.0386978e-07
1.038577e-07
1.0384723e-07
1.0383747e-07
1.0382807e-07
1.0381897e-07
1.0381013e-07
1.0380156e-07
1.0379324e-07
1.0378519e-07
1.037774e-07
1.0376989e-07
1.0376266e-07
1.0375573e-07
1.0374911e-07
1.0374282e-07
1.0373687e-07
1.0373129e-07
1.037261e-07
1.0372132e-07
1.0371698e-07
1.0371308e-07
1.0370965e-07
1.037067e-07
1.0370425e-07
1.037023e-07
1.0370085e-07
1.0369985e-07
1.0369928e-07
1.0369915e-07
1.0369944e-07
1.0370008e-07
1.0370092e-07
1.0370171e-07
1.03702e-07
1.03701e-07
1.0369721e-07
1.0368792e-07
1.0366818e-07
1.0362921e-07
1.0355555e-07
1.0342068e-07
1.0318006e-07
1.0276075e-07
1.0204697e-07
1.0086175e-07
9.8948144e-08
9.5958867e-08
9.1465436e-08
8.4955922e-08
7.5762989e-08
6.3234075e-08
4.7391163e-08
2.9853124e-08
1.4193473e-08
4.2564897e-09
7.6509759e-10
4.7065226e-10
1.0410122e-07
1.0408415e-07
1.0407242e-07
1.04062e-07
1.0405222e-07
1.0404279e-07
1.0403367e-07
1.0402483e-07
1.0401626e-07
1.0400796e-07
1.0399994e-07
1.0399219e-07
1.0398473e-07
1.0397755e-07
1.0397068e-07
1.0396413e-07
1.0395791e-07
1.0395204e-07
1.0394653e-07
1.0394142e-07
1.0393671e-07
1.0393243e-07
1.039286e-07
1.0392523e-07
1.0392233e-07
1.0391992e-07
1.03918e-07
1.0391658e-07
1.0391561e-07
1.0391507e-07
1.0391496e-07
1.0391529e-07
1.0391598e-07
1.0391692e-07
1.0391791e-07
1.0391859e-07
1.0391833e-07
1.0391597e-07
1.0390936e-07
1.038946e-07
1.038647e-07
1.0380722e-07
1.0370058e-07
1.0350792e-07
1.0316785e-07
1.0258071e-07
1.0158995e-07
9.9960316e-08
9.7359393e-08
9.3355715e-08
8.7427179e-08
7.8896486e-08
6.6981416e-08
5.1393651e-08
3.3381573e-08
1.647082e-08
5.1200444e-09
8.6031447e-10
4.3547942e-10
1.0433703e-07
1.0432117e-07
1.043097e-07
1.0429933e-07
1.0428953e-07
1.0428009e-07
1.0427097e-07
1.0426214e-07
1.042536e-07
1.0424535e-07
1.0423738e-07
1.042297e-07
1.042223e-07
1.0421521e-07
1.0420843e-07
1.0420197e-07
1.0419584e-07
1.0419006e-07
1.0418466e-07
1.0417963e-07
1.0417502e-07
1.0417082e-07
1.0416707e-07
1.0416377e-07
1.0416094e-07
1.0415858e-07
1.0415671e-07
1.0415531e-07
1.0415438e-07
1.0415386e-07
1.0415377e-07
1.0415413e-07
1.0415487e-07
1.0415589e-07
1.0415704e-07
1.0415804e-07
1.0415842e-07
1.0415727e-07
1.0415295e-07
1.0414249e-07
1.0412044e-07
1.040771e-07
1.0399534e-07
1.0384549e-07
1.0357711e-07
1.0310651e-07
1.0229846e-07
1.0094261e-07
9.8728271e-08
9.5229521e-08
8.9911332e-08
8.2091841e-08
7.0893356e-08
5.5716582e-08
3.7364081e-08
1.9183016e-08
6.2212557e-09
1.0050772e-09
4.0729514e-10
1.045986e-07
1.0458378e-07
1.0457252e-07
1.045622e-07
1.0455239e-07
1.0454295e-07
1.0453385e-07
1.0452506e-07
1.0451658e-07
1.045084e-07
1.0450051e-07
1.0449292e-07
1.0448564e-07
1.0447866e-07
1.0447199e-07
1.0446565e-07
1.0445965e-07
1.04454e-07
1.0444871e-07
1.0444381e-07
1.0443932e-07
1.0443523e-07
1.0443158e-07
1.0442838e-07
1.0442562e-07
1.0442333e-07
1.044215e-07
1.0442015e-07
1.0441924e-07
1.0441875e-07
1.0441868e-07
1.0441906e-07
1.0441983e-07
1.0442091e-07
1.0442218e-07
1.0442345e-07
1.0442433e-07
1.0442418e-07
1.0442178e-07
1.044149e-07
1.0439948e-07
1.0436817e-07
1.0430783e-07
1.0419525e-07
1.0399023e-07
1.0362448e-07
1.0298438e-07
1.0188696e-07
1.000498e-07
9.7063506e-08
9.2384095e-08
8.5320806e-08
7.4939234e-08
6.0347024e-08
4.1831855e-08
2.240322e-08
7.6256724e-09
1.2188118e-09
3.8655032e-10
1.0488935e-07
1.0487546e-07
1.0486437e-07
1.0485407e-07
1.0484427e-07
1.0483487e-07
1.0482582e-07
1.048171e-07
1.0480871e-07
1.0480064e-07
1.0479288e-07
1.0478543e-07
1.0477829e-07
1.0477146e-07
1.0476496e-07
1.0475878e-07
1.0475295e-07
1.0474746e-07
1.0474234e-07
1.0473759e-07
1.0473324e-07
1.047293e-07
1.0472578e-07
1.0472269e-07
1.0472004e-07
1.0471783e-07
1.0471607e-07
1.0471475e-07
1.0471388e-07
1.047134e-07
1.0471336e-07
1.0471375e-07
1.0471453e-07
1.0471565e-07
1.0471701e-07
1.0471845e-07
1.0471973e-07
1.0472037e-07
1.0471949e-07
1.0471552e-07
1.0470552e-07
1.0468413e-07
1.0464165e-07
1.0456063e-07
1.0441005e-07
1.0413614e-07
1.0364648e-07
1.0278699e-07
1.013091e-07
9.8831903e-08
9.4814684e-08
8.855042e-08
7.9079052e-08
6.5258201e-08
4.6806553e-08
2.6210013e-08
9.4151001e-09
1.5299969e-09
3.7426546e-10
1.0521342e-07
1.0520035e-07
1.0518938e-07
1.0517913e-07
1.0516936e-07
1.0516001e-07
1.0515105e-07
1.0514246e-07
1.0513421e-07
1.051263e-07
1.0511871e-07
1.0511145e-07
1.0510451e-07
1.050979e-07
1.0509161e-07
1.0508565e-07
1.0508003e-07
1.0507476e-07
1.0506985e-07
1.0506531e-07
1.0506115e-07
1.0505739e-07
1.0505404e-07
1.050511e-07
1.0504857e-07
1.0504646e-07
1.0504478e-07
1.0504352e-07
1.0504268e-07
1.0504222e-07
1.0504219e-07
1.0504259e-07
1.0504337e-07
1.0504449e-07
1.0504588e-07
1.0504744e-07
1.0504899e-07
1.050502e-07
1.0505048e-07
1.0504875e-07
1.0504299e-07
1.0502949e-07
1.0500138e-07
1.049461e-07
1.0484086e-07
1.0464481e-07
1.0428584e-07
1.0363901e-07
1.0249369e-07
1.0050876e-07
9.7165362e-08
9.1741863e-08
8.3263433e-08
7.0406737e-08
5.2295449e-08
3.0684866e-08
1.1689666e-08
1.9800911e-09
3.723459e-10
1.0557582e-07
1.0556344e-07
1.0555256e-07
1.0554235e-07
1.0553265e-07
1.0552341e-07
1.0551459e-07
1.0550617e-07
1.0549812e-07
1.0549044e-07
1.054831e-07
1.054761e-07
1.0546944e-07
1.0546311e-07
1.054571e-07
1.0545144e-07
1.054461e-07
1.0544111e-07
1.0543648e-07
1.054322e-07
1.0542829e-07
1.0542476e-07
1.0542162e-07
1.0541887e-07
1.054165e-07
1.0541453e-07
1.0541295e-07
1.0541176e-07
1.0541096e-07
1.0541051e-07
1.0541049e-07
1.0541088e-07
1.0541164e-07
1.0541273e-07
1.054141e-07
1.054157e-07
1.0541739e-07
1.0541897e-07
1.0542006e-07
1.0541995e-07
1.0541734e-07
1.0540979e-07
1.0539273e-07
1.0535761e-07
1.052885e-07
1.0515601e-07
1.0490644e-07
1.0444307e-07
1.0359527e-07
1.0207094e-07
9.9394017e-08
9.4847096e-08
8.7434371e-08
7.5730223e-08
5.8285433e-08
3.5909129e-08
1.4569582e-08
2.6285177e-09
3.8458998e-10
1.0598263e-07
1.0597078e-07
1.0595997e-07
1.0594982e-07
1.0594023e-07
1.0593115e-07
1.0592254e-07
1.0591437e-07
1.0590661e-07
1.0589924e-07
1.0589224e-07
1.058856e-07
1.058793e-07
1.0587335e-07
1.0586773e-07
1.0586244e-07
1.0585749e-07
1.0585287e-07
1.0584859e-07
1.0584466e-07
1.0584107e-07
1.0583784e-07
1.0583498e-07
1.0583247e-07
1.0583031e-07
1.0582851e-07
1.0582705e-07
1.0582596e-07
1.0582521e-07
1.0582477e-07
1.0582475e-07
1.0582513e-07
1.0582583e-07
1.0582684e-07
1.0582814e-07
1.0582968e-07
1.0583139e-07
1.0583314e-07
1.058347e-07
1.0583564e-07
1.0583518e-07
1.0583184e-07
1.0582278e-07
1.0580259e-07
1.0576087e-07
1.0567779e-07
1.0551575e-07
1.0520403e-07
1.0461172e-07
1.0350169e-07
1.0145981e-07
9.7806202e-08
9.1526155e-08
8.114604e-08
6.4736056e-08
4.1961108e-08
1.8198537e-08
3.5574104e-09
4.1883433e-10
9.1040248e-10
9.4438286e-10
9.8361181e-10
1.0192562e-09
1.0488259e-09
1.0719579e-09
1.0887686e-09
1.099712e-09
1.1053428e-09
1.1061851e-09
1.1026671e-09
1.0950773e-09
1.0835578e-09
1.0680968e-09
1.048543e-09
1.0246175e-09
9.9594287e-10
9.620758e-10
9.2255793e-10
8.7696693e-10
8.2501345e-10
7.6653144e-10
7.01908e-10
6.3158901e-10
5.5641531e-10
4.7800978e-10
3.9832649e-10
3.1970086e-10
2.4474735e-10
1.7616287e-10
1.1650609e-10
6.797491e-11
3.2200558e-11
1.0039346e-11
3.2446381e-12
9.7860269e-12
2.8172793e-11
5.7543514e-11
9.6240454e-11
1.4234629e-10
1.9392119e-10
2.4914452e-10
3.0639848e-10
3.6429854e-10
4.2171036e-10
4.7774653e-10
5.3174878e-10
5.8325757e-10
6.3196308e-10
6.7768064e-10
7.203399e-10
7.599571e-10
7.9660708e-10
8.3040374e-10
8.6148684e-10
8.9001377e-10
9.1615627e-10
9.4008992e-10
9.6197968e-10
9.8198344e-10
1.0002539e-09
1.0169345e-09
1.0321602e-09
1.046059e-09
1.0587474e-09
1.070328e-09
1.0808964e-09
1.0905413e-09
1.099343e-09
1.1073736e-09
1.1146983e-09
1.121367e-09
1.127434e-09
1.1328787e-09
7.8386564e-10
8.3242677e-10
8.7895295e-10
9.2071752e-10
9.5660435e-10
9.8628126e-10
1.0099371e-09
1.0276619e-09
1.0397521e-09
1.0466304e-09
1.0487424e-09
1.0464681e-09
1.0400722e-09
1.0296798e-09
1.0152718e-09
9.9668966e-10
9.7365414e-10
9.4579303e-10
9.1268369e-10
8.7390256e-10
8.2910271e-10
7.7804645e-10
7.2085274e-10
6.5784315e-10
5.8964968e-10
5.1746572e-10
4.4290052e-10
3.679244e-10
2.9476896e-10
2.2573372e-10
1.6294278e-10
1.0951877e-10
6.8908453e-11
3.8847523e-11
2.1609439e-11
1.6142652e-11
2.1301592e-11
3.6920808e-11
6.1832262e-11
9.4337929e-11
1.3283471e-10
1.7577054e-10
2.217213e-10
2.6942995e-10
3.1782485e-10
3.6592277e-10
4.1293553e-10
4.5836967e-10
5.0194452e-10
5.435391e-10
5.8295949e-10
6.2010715e-10
6.5495265e-10
6.8751695e-10
7.1785492e-10
7.4604707e-10
7.7219104e-10
7.9639547e-10
8.1877438e-10
8.3944169e-10
8.5851093e-10
8.7609215e-10
8.9229136e-10
9.0717718e-10
9.2082464e-10
9.3333978e-10
9.4481775e-10
9.5534648e-10
9.6500497e-10
9.7386664e-10
9.8199753e-10
9.8945868e-10
9.9630649e-10
1.0025855e-09
1.4961027e-09
1.2822943e-09
1.1535295e-09
1.0775669e-09
1.0346038e-09
1.0130263e-09
1.0115013e-09
1.0156429e-09
1.020897e-09
1.0253135e-09
1.0280138e-09
1.0284349e-09
1.0261623e-09
1.0209264e-09
1.0125156e-09
1.0007114e-09
9.8524208e-10
9.6577012e-10
9.4190178e-10
9.1321195e-10
8.7929057e-10
8.3978341e-10
7.9451561e-10
7.4351075e-10
6.8702418e-10
6.2568628e-10
5.6049707e-10
4.9279856e-10
4.2418659e-10
3.563196e-10
2.9017935e-10
2.2757849e-10
1.755418e-10
1.3278305e-10
9.9884226e-11
7.6645574e-11
6.2518711e-11
5.7152283e-11
5.967498e-11
6.9216235e-11
8.5597021e-11
1.0722112e-10
1.3293843e-10
1.6173936e-10
1.9270653e-10
2.2502285e-10
2.5796487e-10
2.9094922e-10
3.2353191e-10
3.5539331e-10
3.8628023e-10
4.160041e-10
4.4443298e-10
4.7148296e-10
4.97108e-10
5.2129302e-10
5.4400921e-10
5.6522341e-10
5.850022e-10
6.0341488e-10
6.205338e-10
6.3643145e-10
6.5118007e-10
6.6484774e-10
6.7750968e-10
6.8924798e-10
7.0012084e-10
7.1018502e-10
7.1949602e-10
7.2810607e-10
7.3606513e-10
7.4342156e-10
7.5022087e-10
7.5650067e-10
4.7931384e-09
3.6091442e-09
2.7946957e-09
2.2346405e-09
1.8486838e-09
1.5827065e-09
1.4029693e-09
1.2811632e-09
1.1981276e-09
1.1410207e-09
1.1052673e-09
1.0821904e-09
1.0650114e-09
1.0508141e-09
1.0378702e-09
1.0250549e-09
1.0113624e-09
9.9597917e-10
9.7821473e-10
9.5745785e-10
9.3315951e-10
9.0483599e-10
8.7210922e-10
8.3474849e-10
7.9268154e-10
7.4606406e-10
6.9529525e-10
6.4100286e-10
5.839409e-10
5.2474695e-10
4.6364592e-10
4.0343573e-10
3.4833198e-10
2.99062e-10
2.562032e-10
2.1999095e-10
1.9037551e-10
1.6727135e-10
1.5028576e-10
1.3891261e-10
1.3279801e-10
1.3126589e-10
1.3367266e-10
1.3941569e-10
1.4798269e-10
1.593481e-10
1.7252648e-10
1.8698395e-10
2.0231803e-10
2.1819485e-10
2.3433529e-10
2.5050822e-10
2.6652583e-10
2.8223868e-10
2.9753106e-10
3.1231575e-10
3.265253e-10
3.4010804e-10
3.5303363e-10
3.6528649e-10
3.7686421e-10
3.8777325e-10
3.9802708e-10
4.0764461e-10
4.1664942e-10
4.2506801e-10
4.3292771e-10
4.4025696e-10
4.4708405e-10
4.5343796e-10
4.5934631e-10
4.6483695e-10
4.6993692e-10
4.746684e-10
1.2114287e-08
9.1141845e-09
6.8986035e-09
5.2817563e-09
4.1080754e-09
3.2575445e-09
2.6432295e-09
2.1991725e-09
1.8773091e-09
1.6432168e-09
1.4741708e-09
1.3520429e-09
1.2627585e-09
1.1964131e-09
1.147815e-09
1.1122265e-09
1.083286e-09
1.0583531e-09
1.0356073e-09
1.0136715e-09
9.9141412e-10
9.6791812e-10
9.4245289e-10
9.1447452e-10
8.8360406e-10
8.4964656e-10
8.1258475e-10
7.7255945e-10
7.2980055e-10
6.8450087e-10
6.3670766e-10
5.8760826e-10
5.3993615e-10
4.9496688e-10
4.5335582e-10
4.1551697e-10
3.8165276e-10
3.5184658e-10
3.2603133e-10
3.0402712e-10
2.8563741e-10
2.7057508e-10
2.5851657e-10
2.4913434e-10
2.4211963e-10
2.3724456e-10
2.3420057e-10
2.3269931e-10
2.3248413e-10
2.3332845e-10
2.3503324e-10
2.3742468e-10
2.4035186e-10
2.4369716e-10
2.4741932e-10
2.5143305e-10
2.5561498e-10
2.5986707e-10
2.6411911e-10
2.6831968e-10
2.7243085e-10
2.7642437e-10
2.8027941e-10
2.8398135e-10
2.8752035e-10
2.9089069e-10
2.9408955e-10
2.9711675e-10
2.9997399e-10
3.0266477e-10
3.0519366e-10
3.0756614e-10
3.0978839e-10
3.118659e-10
2.3359891e-08
1.8158865e-08
1.4040806e-08
1.0851364e-08
8.4180894e-09
6.5788258e-09
5.1970793e-09
4.1618816e-09
3.3864612e-09
2.8048613e-09
2.368763e-09
2.0415374e-09
1.7952142e-09
1.6088665e-09
1.4677297e-09
1.3607069e-09
1.2783277e-09
1.2137204e-09
1.1624724e-09
1.1212523e-09
1.0864313e-09
1.0555825e-09
1.0269633e-09
9.9932467e-10
9.7175552e-10
9.4361905e-10
9.1449772e-10
8.8415626e-10
8.5249337e-10
8.1947423e-10
7.850646e-10
7.4952493e-10
7.1375032e-10
6.7879344e-10
6.4546338e-10
6.1415972e-10
5.8509041e-10
5.5836543e-10
5.3400884e-10
5.1197559e-10
4.9217973e-10
4.7449914e-10
4.5878743e-10
4.4488626e-10
4.3263567e-10
4.2188823e-10
4.1249664e-10
4.0431815e-10
3.9721818e-10
3.9107245e-10
3.8576762e-10
3.8120122e-10
3.7728094e-10
3.7392491e-10
3.7106392e-10
3.6863627e-10
3.6658488e-10
3.6485771e-10
3.634082e-10
3.621965e-10
3.6118745e-10
3.6035044e-10
3.5965923e-10
3.5909112e-10
3.586267e-10
3.582493e-10
3.5794468e-10
3.5770071e-10
3.5750705e-10
3.5735495e-10
3.5723697e-10
3.571469e-10
3.5707929e-10
3.5702995e-10
3.6934219e-08
2.9890946e-08