/*--------------------------------*- C++ -*----------------------------------*\
| =========                 |                                                 |
| \\      /  F ield         | OpenFOAM: The Open Source CFD Toolbox           |
|  \\    /   O peration     | Version:  v2006                                 |
|   \\  /    A nd           | Website:  www.openfoam.com                      |
|    \\/     M anipulation  |                                                 |
\*---------------------------------------------------------------------------*/
FoamFile
{
    version     2.0;
    format      ascii;
    class       volScalarField;
    location    "10000";
    object      nutMean;
}
// * * * * * * * * * * * * * * * * * * * * * * * * * * * * * * * * * * * * * //

dimensions      [0 2 -1 0 0 0 0];


internalField   nonuniform List<scalar> 
55713
(
4.9480206e-10
4.8749007e-09
2.2748005e-08
4.8900359e-08
7.1561734e-08
8.6548815e-08
9.5463377e-08
1.0055683e-07
1.0333728e-07
1.0480258e-07
1.0555814e-07
1.0594227e-07
1.0613546e-07
1.062316e-07
1.0627871e-07
1.0630114e-07
1.0631116e-07
1.0631497e-07
1.0631568e-07
1.0631489e-07
1.0631342e-07
1.063117e-07
1.0630996e-07
1.0630833e-07
1.063069e-07
1.0630569e-07
1.0630473e-07
1.0630403e-07
1.0630361e-07
1.0630354e-07
1.0630395e-07
1.0630463e-07
1.0630561e-07
1.063069e-07
1.0630848e-07
1.0631035e-07
1.0631253e-07
1.06315e-07
1.063178e-07
1.063209e-07
1.0632432e-07
1.0632806e-07
1.0633211e-07
1.0633647e-07
1.0634116e-07
1.0634617e-07
1.0635151e-07
1.063572e-07
1.0636324e-07
1.0636966e-07
1.0637647e-07
1.0638371e-07
1.0639139e-07
1.0639956e-07
1.0640825e-07
1.0641753e-07
1.0642744e-07
1.0643808e-07
1.0644955e-07
5.8512057e-10
6.5230799e-09
2.7894124e-08
5.5750401e-08
7.7482957e-08
9.07927e-08
9.8331003e-08
1.0242888e-07
1.0456171e-07
1.0564214e-07
1.0618134e-07
1.0644786e-07
1.0657848e-07
1.0664178e-07
1.0667179e-07
1.066853e-07
1.0669065e-07
1.0669196e-07
1.066913e-07
1.0668973e-07
1.0668778e-07
1.0668574e-07
1.0668378e-07
1.0668198e-07
1.0668039e-07
1.0667904e-07
1.0667796e-07
1.0667713e-07
1.0667656e-07
1.0667631e-07
1.0667662e-07
1.0667715e-07
1.0667798e-07
1.066791e-07
1.0668049e-07
1.0668217e-07
1.0668414e-07
1.066864e-07
1.0668896e-07
1.0669183e-07
1.0669501e-07
1.0669848e-07
1.0670226e-07
1.0670633e-07
1.0671071e-07
1.067154e-07
1.067204e-07
1.0672573e-07
1.0673139e-07
1.067374e-07
1.0674377e-07
1.0675052e-07
1.0675769e-07
1.0676528e-07
1.0677335e-07
1.0678194e-07
1.0679108e-07
1.0680084e-07
1.0681131e-07
7.1276738e-10
8.6458849e-09
3.3747074e-08
6.2720669e-08
8.3027125e-08
9.4589301e-08
1.008139e-07
1.0401592e-07
1.0560487e-07
1.0637887e-07
1.0675282e-07
1.0693238e-07
1.0701789e-07
1.07058e-07
1.070761e-07
1.0708347e-07
1.070856e-07
1.0708519e-07
1.0708358e-07
1.0708145e-07
1.0707916e-07
1.0707689e-07
1.0707475e-07
1.0707281e-07
1.070711e-07
1.0706964e-07
1.0706844e-07
1.070675e-07
1.0706681e-07
1.0706633e-07
1.0706664e-07
1.0706698e-07
1.0706766e-07
1.0706862e-07
1.0706984e-07
1.0707133e-07
1.0707309e-07
1.0707514e-07
1.0707748e-07
1.0708011e-07
1.0708304e-07
1.0708625e-07
1.0708976e-07
1.0709354e-07
1.0709762e-07
1.0710198e-07
1.0710665e-07
1.0711161e-07
1.0711688e-07
1.0712248e-07
1.0712841e-07
1.0713468e-07
1.0714133e-07
1.0714836e-07
1.0715582e-07
1.0716372e-07
1.071721e-07
1.0718102e-07
1.0719052e-07
8.9565264e-10
1.1343753e-08
4.0281857e-08
6.9655644e-08
8.8119702e-08
9.7936116e-08
1.0292851e-07
1.0535279e-07
1.065005e-07
1.0703817e-07
1.0728974e-07
1.0740667e-07
1.0746059e-07
1.0748476e-07
1.0749479e-07
1.0749802e-07
1.0749799e-07
1.0749642e-07
1.0749417e-07
1.0749166e-07
1.0748912e-07
1.0748669e-07
1.0748443e-07
1.0748238e-07
1.0748057e-07
1.0747903e-07
1.0747774e-07
1.0747672e-07
1.0747592e-07
1.0747534e-07
1.0747538e-07
1.0747569e-07
1.0747624e-07
1.0747704e-07
1.0747809e-07
1.0747939e-07
1.0748095e-07
1.0748279e-07
1.0748491e-07
1.0748731e-07
1.0748999e-07
1.0749294e-07
1.0749617e-07
1.0749967e-07
1.0750344e-07
1.0750748e-07
1.075118e-07
1.075164e-07
1.0752128e-07
1.0752646e-07
1.0753195e-07
1.0753775e-07
1.0754388e-07
1.0755035e-07
1.0755719e-07
1.0756442e-07
1.0757205e-07
1.0758014e-07
1.0758871e-07
1.1579727e-09
1.4728511e-08
4.7437954e-08
7.6397934e-08
9.2714361e-08
1.0083464e-07
1.0470628e-07
1.0648049e-07
1.0728233e-07
1.0764337e-07
1.0780705e-07
1.078802e-07
1.0791259e-07
1.0792611e-07
1.079308e-07
1.0793132e-07
1.0792988e-07
1.0792756e-07
1.0792488e-07
1.0792213e-07
1.0791944e-07
1.079169e-07
1.0791456e-07
1.0791244e-07
1.0791057e-07
1.0790896e-07
1.0790761e-07
1.0790651e-07
1.0790564e-07
1.0790496e-07
1.0790474e-07
1.0790501e-07
1.0790547e-07
1.0790612e-07
1.07907e-07
1.0790812e-07
1.0790949e-07
1.0791112e-07
1.0791301e-07
1.0791518e-07
1.0791761e-07
1.0792031e-07
1.0792326e-07
1.0792647e-07
1.0792993e-07
1.0793365e-07
1.0793762e-07
1.0794185e-07
1.0794635e-07
1.0795111e-07
1.0795615e-07
1.0796147e-07
1.0796708e-07
1.07973e-07
1.0797923e-07
1.0798579e-07
1.0799269e-07
1.0799997e-07
1.0800763e-07
1.5358875e-09
1.8922126e-08
5.5113173e-08
8.2797402e-08
9.6789904e-08
1.0329775e-07
1.061904e-07
1.0744159e-07
1.0798168e-07
1.0821542e-07
1.0831704e-07
1.0836092e-07
1.0837913e-07
1.0838574e-07
1.08387e-07
1.0838581e-07
1.0838349e-07
1.083807e-07
1.0837778e-07
1.0837488e-07
1.0837211e-07
1.0836952e-07
1.0836714e-07
1.0836499e-07
1.083631e-07
1.0836145e-07
1.0836006e-07
1.083589e-07
1.0835796e-07
1.0835721e-07
1.0835675e-07
1.0835696e-07
1.0835734e-07
1.0835787e-07
1.0835859e-07
1.0835953e-07
1.0836071e-07
1.0836214e-07
1.0836381e-07
1.0836575e-07
1.0836794e-07
1.0837037e-07
1.0837305e-07
1.0837597e-07
1.0837912e-07
1.083825e-07
1.0838613e-07
1.0838999e-07
1.0839409e-07
1.0839843e-07
1.0840302e-07
1.0840786e-07
1.0841296e-07
1.0841831e-07
1.0842394e-07
1.0842984e-07
1.0843602e-07
1.084425e-07
1.0844928e-07
2.0815222e-09
2.4054542e-08
6.3161404e-08
8.8722817e-08
1.003403e-07
1.0535729e-07
1.0743066e-07
1.0827709e-07
1.0862629e-07
1.0877087e-07
1.0883114e-07
1.0885575e-07
1.0886488e-07
1.0886714e-07
1.088663e-07
1.0886406e-07
1.0886123e-07
1.088582e-07
1.0885516e-07
1.0885221e-07
1.0884943e-07
1.0884684e-07
1.0884447e-07
1.0884233e-07
1.0884044e-07
1.0883878e-07
1.0883736e-07
1.0883617e-07
1.0883519e-07
1.0883439e-07
1.0883374e-07
1.0883388e-07
1.0883415e-07
1.0883458e-07
1.0883517e-07
1.0883595e-07
1.0883694e-07
1.0883816e-07
1.0883963e-07
1.0884133e-07
1.0884328e-07
1.0884545e-07
1.0884785e-07
1.0885047e-07
1.0885331e-07
1.0885636e-07
1.0885963e-07
1.0886312e-07
1.0886682e-07
1.0887073e-07
1.0887487e-07
1.0887922e-07
1.088838e-07
1.0888859e-07
1.0889361e-07
1.0889886e-07
1.0890433e-07
1.0891002e-07
1.0891595e-07
2.8696465e-09
3.0260636e-08
7.1393094e-08
9.4073062e-08
1.0336834e-07
1.0706118e-07
1.0847859e-07
1.0902439e-07
1.0924e-07
1.093245e-07
1.0935804e-07
1.0937055e-07
1.0937411e-07
1.0937377e-07
1.0937171e-07
1.0936892e-07
1.0936584e-07
1.0936272e-07
1.0935967e-07
1.0935676e-07
1.0935402e-07
1.093515e-07
1.0934918e-07
1.093471e-07
1.0934523e-07
1.0934359e-07
1.0934218e-07
1.0934098e-07
1.0933998e-07
1.0933915e-07
1.0933842e-07
1.0933839e-07
1.0933858e-07
1.0933891e-07
1.0933939e-07
1.0934003e-07
1.0934084e-07
1.0934186e-07
1.0934312e-07
1.093446e-07
1.093463e-07
1.0934821e-07
1.0935033e-07
1.0935265e-07
1.0935517e-07
1.0935789e-07
1.093608e-07
1.093639e-07
1.0936719e-07
1.0937068e-07
1.0937435e-07
1.0937821e-07
1.0938226e-07
1.093865e-07
1.0939091e-07
1.093955e-07
1.0940027e-07
1.094052e-07
1.0941028e-07
4.0057846e-09
3.7676285e-08
7.9580316e-08
9.8785963e-08
1.0589367e-07
1.0846744e-07
1.093839e-07
1.0971757e-07
1.0984149e-07
1.0988827e-07
1.0990541e-07
1.0991068e-07
1.0991101e-07
1.0990923e-07
1.0990655e-07
1.0990353e-07
1.0990041e-07
1.0989734e-07
1.0989438e-07
1.0989158e-07
1.0988897e-07
1.0988655e-07
1.0988435e-07
1.0988235e-07
1.0988055e-07
1.0987897e-07
1.0987759e-07
1.0987642e-07
1.0987543e-07
1.0987459e-07
1.0987385e-07
1.0987362e-07
1.0987374e-07
1.0987397e-07
1.0987434e-07
1.0987486e-07
1.0987552e-07
1.0987635e-07
1.098774e-07
1.0987865e-07
1.0988011e-07
1.0988176e-07
1.098836e-07
1.0988562e-07
1.0988781e-07
1.0989018e-07
1.0989272e-07
1.0989544e-07
1.0989831e-07
1.0990136e-07
1.0990456e-07
1.0990792e-07
1.0991144e-07
1.0991511e-07
1.0991891e-07
1.0992286e-07
1.0992692e-07
1.099311e-07
1.0993537e-07
5.6359651e-09
4.6433439e-08
8.7466721e-08
1.0283719e-07
1.0796031e-07
1.0963877e-07
1.1019216e-07
1.1038268e-07
1.1044908e-07
1.1047258e-07
1.1048005e-07
1.1048124e-07
1.1047985e-07
1.1047739e-07
1.1047451e-07
1.104715e-07
1.104685e-07
1.104656e-07
1.1046283e-07
1.1046023e-07
1.1045781e-07
1.1045558e-07
1.1045353e-07
1.1045166e-07
1.1044999e-07
1.104485e-07
1.104472e-07
1.1044608e-07
1.1044513e-07
1.1044432e-07
1.1044361e-07
1.1044324e-07
1.1044327e-07
1.1044341e-07
1.1044368e-07
1.1044407e-07
1.1044461e-07
1.1044526e-07
1.1044611e-07
1.1044714e-07
1.1044836e-07
1.1044974e-07
1.1045129e-07
1.10453e-07
1.1045487e-07
1.1045688e-07
1.1045905e-07
1.1046135e-07
1.1046381e-07
1.104664e-07
1.1046912e-07
1.1047197e-07
1.1047495e-07
1.1047804e-07
1.1048123e-07
1.1048453e-07
1.104879e-07
1.1049134e-07
1.1049483e-07
7.9613758e-09
5.6654092e-08
9.4783541e-08
1.0622697e-07
1.096328e-07
1.1063769e-07
1.1094453e-07
1.1104304e-07
1.1107567e-07
1.1108599e-07
1.1108822e-07
1.1108734e-07
1.1108522e-07
1.1108261e-07
1.1107983e-07
1.1107703e-07
1.110743e-07
1.1107169e-07
1.1106922e-07
1.1106691e-07
1.1106476e-07
1.1106277e-07
1.1106093e-07
1.1105927e-07
1.1105776e-07
1.1105642e-07
1.1105524e-07
1.1105421e-07
1.1105334e-07
1.1105259e-07
1.1105194e-07
1.1105155e-07
1.1105143e-07
1.1105151e-07
1.1105168e-07
1.1105196e-07
1.1105236e-07
1.1105288e-07
1.1105353e-07
1.1105434e-07
1.1105532e-07
1.1105644e-07
1.110577e-07
1.1105909e-07
1.1106061e-07
1.1106226e-07
1.1106403e-07
1.1106593e-07
1.1106794e-07
1.1107006e-07
1.1107228e-07
1.1107461e-07
1.1107703e-07
1.1107954e-07
1.1108212e-07
1.1108477e-07
1.1108746e-07
1.1109017e-07
1.1109289e-07
1.1263598e-08
6.8446152e-08
1.0127498e-07
1.0897124e-07
1.1098837e-07
1.1152313e-07
1.1167401e-07
1.1171932e-07
1.1173306e-07
1.1173647e-07
1.117362e-07
1.1173453e-07
1.1173233e-07
1.1172993e-07
1.1172749e-07
1.1172509e-07
1.1172279e-07
1.117206e-07
1.1171854e-07
1.1171661e-07
1.1171481e-07
1.1171314e-07
1.117116e-07
1.117102e-07
1.1170893e-07
1.1170779e-07
1.1170679e-07
1.1170591e-07
1.1170516e-07
1.1170452e-07
1.1170396e-07
1.1170358e-07
1.1170337e-07
1.117034e-07
1.1170349e-07
1.1170366e-07
1.1170394e-07
1.1170431e-07
1.1170479e-07
1.1170539e-07
1.1170613e-07
1.1170698e-07
1.1170794e-07
1.11709e-07
1.1171017e-07
1.1171144e-07
1.1171281e-07
1.1171427e-07
1.1171582e-07
1.1171745e-07
1.1171916e-07
1.1172095e-07
1.117228e-07
1.1172471e-07
1.1172667e-07
1.1172866e-07
1.1173067e-07
1.1173268e-07
1.1173466e-07
1.5885556e-08
8.1901572e-08
1.0672755e-07
1.1111387e-07
1.1211086e-07
1.1234818e-07
1.1240983e-07
1.1242702e-07
1.1243146e-07
1.124318e-07
1.124307e-07
1.1242906e-07
1.1242723e-07
1.1242535e-07
1.1242348e-07
1.1242168e-07
1.1241996e-07
1.1241833e-07
1.124168e-07
1.1241536e-07
1.1241402e-07
1.1241278e-07
1.1241163e-07
1.1241058e-07
1.1240962e-07
1.1240877e-07
1.12408e-07
1.1240733e-07
1.1240676e-07
1.1240627e-07
1.1240585e-07
1.1240554e-07
1.1240534e-07
1.1240528e-07
1.1240532e-07
1.1240541e-07
1.1240557e-07
1.1240581e-07
1.1240612e-07
1.1240652e-07
1.1240701e-07
1.1240759e-07
1.1240824e-07
1.1240897e-07
1.1240976e-07
1.1241064e-07
1.1241157e-07
1.1241258e-07
1.1241364e-07
1.1241476e-07
1.1241593e-07
1.1241715e-07
1.1241841e-07
1.124197e-07
1.1242102e-07
1.1242235e-07
1.1242368e-07
1.12425e-07
1.1242627e-07
2.2153369e-08
9.7059288e-08
1.1098555e-07
1.1274193e-07
1.1308464e-07
1.1315758e-07
1.1317517e-07
1.1317956e-07
1.1318026e-07
1.1317978e-07
1.1317888e-07
1.1317784e-07
1.1317676e-07
1.1317566e-07
1.1317461e-07
1.1317359e-07
1.1317263e-07
1.1317172e-07
1.1317086e-07
1.1317006e-07
1.1316931e-07
1.1316861e-07
1.1316797e-07
1.1316737e-07
1.1316683e-07
1.1316635e-07
1.1316591e-07
1.1316553e-07
1.1316519e-07
1.1316491e-07
1.1316467e-07
1.1316449e-07
1.1316436e-07
1.131643e-07
1.1316429e-07
1.1316432e-07
1.1316439e-07
1.131645e-07
1.1316465e-07
1.1316485e-07
1.131651e-07
1.1316539e-07
1.1316572e-07
1.131661e-07
1.1316651e-07
1.1316696e-07
1.1316744e-07
1.1316796e-07
1.131685e-07
1.1316908e-07
1.1316968e-07
1.1317031e-07
1.1317095e-07
1.1317161e-07
1.1317228e-07
1.1317295e-07
1.131736e-07
1.1317425e-07
1.1317486e-07
1.0298792e-07
1.0296132e-07
1.0294282e-07
1.0293223e-07
1.0292242e-07
1.0291368e-07
1.0290508e-07
1.0289675e-07
1.0288858e-07
1.0288059e-07
1.0287279e-07
1.0286519e-07
1.028578e-07
1.0285063e-07
1.028437e-07
1.0283704e-07
1.0283066e-07
1.0282458e-07
1.0281883e-07
1.0281345e-07
1.0280844e-07
1.0280384e-07
1.0279969e-07
1.0279599e-07
1.0279278e-07
1.0279007e-07
1.0278786e-07
1.0278617e-07
1.0278501e-07
1.0278436e-07
1.0278415e-07
1.0278427e-07
1.0278451e-07
1.0278448e-07
1.0278351e-07
1.0278034e-07
1.0277264e-07
1.0275614e-07
1.0272315e-07
1.0266019e-07
1.0254417e-07
1.0233671e-07
1.0197606e-07
1.0136638e-07
1.0036532e-07
9.8772755e-08
9.6327261e-08
9.271861e-08
8.7608995e-08
8.0603817e-08
7.1236947e-08
5.9222877e-08
4.4907724e-08
2.9706969e-08
1.6078485e-08
6.5096456e-09
1.879965e-09
7.7971486e-10
9.1398292e-10
1.0310526e-07
1.0308025e-07
1.0306333e-07
1.0305286e-07
1.0304325e-07
1.0303442e-07
1.030258e-07
1.0301742e-07
1.0300921e-07
1.030012e-07
1.0299338e-07
1.0298576e-07
1.0297835e-07
1.0297118e-07
1.0296425e-07
1.0295759e-07
1.0295122e-07
1.0294515e-07
1.0293942e-07
1.0293404e-07
1.0292905e-07
1.0292447e-07
1.0292033e-07
1.0291665e-07
1.0291345e-07
1.0291075e-07
1.0290856e-07
1.0290688e-07
1.0290573e-07
1.0290509e-07
1.0290492e-07
1.029051e-07
1.0290544e-07
1.0290561e-07
1.0290501e-07
1.0290256e-07
1.0289622e-07
1.0288228e-07
1.0285402e-07
1.0279959e-07
1.0269856e-07
1.0251675e-07
1.0219855e-07
1.0165669e-07
1.0075952e-07
9.9318471e-08
9.7080827e-08
9.3737113e-08
8.8942699e-08
8.2302644e-08
7.3330349e-08
6.1648188e-08
4.7442438e-08
3.1968937e-08
1.7674797e-08
7.2957351e-09
2.0745135e-09
7.4021364e-10
8.2462224e-10
1.0323481e-07
1.0321125e-07
1.0319578e-07
1.031854e-07
1.0317591e-07
1.0316701e-07
1.0315836e-07
1.0314992e-07
1.0314168e-07
1.0313364e-07
1.0312579e-07
1.0311816e-07
1.0311075e-07
1.0310358e-07
1.0309666e-07
1.0309001e-07
1.0308365e-07
1.030776e-07
1.0307189e-07
1.0306653e-07
1.0306157e-07
1.0305702e-07
1.030529e-07
1.0304924e-07
1.0304607e-07
1.0304339e-07
1.0304122e-07
1.0303955e-07
1.0303842e-07
1.030378e-07
1.0303765e-07
1.0303789e-07
1.0303832e-07
1.0303868e-07
1.0303843e-07
1.0303664e-07
1.0303158e-07
1.0302003e-07
1.0299621e-07
1.0294984e-07
1.0286309e-07
1.0270583e-07
1.0242863e-07
1.0195287e-07
1.0115818e-07
9.9868664e-08
9.7842534e-08
9.4773749e-08
9.0311122e-08
8.4057373e-08
7.5513483e-08
6.4216099e-08
5.0183272e-08
3.4481244e-08
1.950592e-08
8.2341826e-09
2.326896e-09
7.1329905e-10
7.4260322e-10
1.0337781e-07
1.0335553e-07
1.0334136e-07
1.0333103e-07
1.033216e-07
1.0331264e-07
1.0330394e-07
1.0329546e-07
1.0328718e-07
1.0327911e-07
1.0327125e-07
1.0326361e-07
1.032562e-07
1.0324903e-07
1.0324212e-07
1.0323549e-07
1.0322915e-07
1.0322313e-07
1.0321744e-07
1.0321212e-07
1.0320719e-07
1.0320267e-07
1.0319858e-07
1.0319496e-07
1.0319181e-07
1.0318916e-07
1.0318701e-07
1.0318537e-07
1.0318424e-07
1.0318364e-07
1.0318352e-07
1.031838e-07
1.0318433e-07
1.0318485e-07
1.0318493e-07
1.0318376e-07
1.0317987e-07
1.0317055e-07
1.0315087e-07
1.0311203e-07
1.0303868e-07
1.0290466e-07
1.0266656e-07
1.0225448e-07
1.015597e-07
1.0042009e-07
9.8606968e-08
9.5820927e-08
9.170577e-08
8.5858905e-08
7.7775855e-08
6.6918017e-08
5.313031e-08
3.7259304e-08
2.160089e-08
9.3534121e-09
2.6511145e-09
7.0147304e-10
6.709345e-10
1.0353552e-07
1.0351451e-07
1.0350139e-07
1.0349113e-07
1.0348172e-07
1.034727e-07
1.0346395e-07
1.0345543e-07
1.0344712e-07
1.0343903e-07
1.0343116e-07
1.0342352e-07
1.0341611e-07
1.0340896e-07
1.0340207e-07
1.0339546e-07
1.0338915e-07
1.0338316e-07
1.0337751e-07
1.0337223e-07
1.0336734e-07
1.0336286e-07
1.0335881e-07
1.0335522e-07
1.0335211e-07
1.0334948e-07
1.0334736e-07
1.0334575e-07
1.0334464e-07
1.0334406e-07
1.0334397e-07
1.0334429e-07
1.033449e-07
1.0334558e-07
1.0334595e-07
1.0334534e-07
1.0334253e-07
1.0333525e-07
1.0331937e-07
1.0328749e-07
1.0322659e-07
1.0311431e-07
1.029131e-07
1.0256171e-07
1.0196329e-07
1.0097046e-07
9.9369785e-08
9.6872095e-08
9.3119218e-08
8.7700365e-08
8.010978e-08
6.9748155e-08
5.6286749e-08
4.0323142e-08
2.3995867e-08
1.0689734e-08
3.0657187e-09
7.0718131e-10
6.0771393e-10
1.0370943e-07
1.036898e-07
1.0367748e-07
1.0366728e-07
1.0365786e-07
1.0364879e-07
1.0364e-07
1.0363144e-07
1.0362311e-07
1.0361501e-07
1.0360713e-07
1.035995e-07
1.0359211e-07
1.0358497e-07
1.0357811e-07
1.0357154e-07
1.0356527e-07
1.0355933e-07
1.0355373e-07
1.035485e-07
1.0354366e-07
1.0353923e-07
1.0353523e-07
1.0353168e-07
1.0352861e-07
1.0352602e-07
1.0352393e-07
1.0352234e-07
1.0352125e-07
1.0352069e-07
1.0352063e-07
1.03521e-07
1.0352168e-07
1.0352249e-07
1.0352313e-07
1.0352303e-07
1.0352119e-07
1.0351575e-07
1.0350332e-07
1.0347778e-07
1.0342831e-07
1.0333608e-07
1.0316921e-07
1.028749e-07
1.0236826e-07
1.015174e-07
1.0012615e-07
9.791943e-08
9.4541606e-08
8.9572298e-08
8.2504617e-08
7.2696357e-08
5.9650731e-08
4.3689676e-08
2.6729046e-08
1.2286063e-08
3.5948179e-09
7.3460944e-10
5.5278845e-10
1.0390144e-07
1.0388322e-07
1.0387147e-07
1.0386133e-07
1.0385188e-07
1.0384277e-07
1.0383394e-07
1.0382535e-07
1.0381701e-07
1.0380891e-07
1.0380104e-07
1.0379343e-07
1.0378607e-07
1.0377897e-07
1.0377216e-07
1.0376564e-07
1.0375942e-07
1.0375354e-07
1.03748e-07
1.0374283e-07
1.0373805e-07
1.0373368e-07
1.0372975e-07
1.0372626e-07
1.0372323e-07
1.0372068e-07
1.0371863e-07
1.0371707e-07
1.0371601e-07
1.0371546e-07
1.0371542e-07
1.0371583e-07
1.0371658e-07
1.0371751e-07
1.0371838e-07
1.0371873e-07
1.0371775e-07
1.0371396e-07
1.0370461e-07
1.0368476e-07
1.0364558e-07
1.0357158e-07
1.0343619e-07
1.0319477e-07
1.0277428e-07
1.020588e-07
1.008712e-07
9.8954413e-08
9.5961051e-08
9.1462625e-08
8.4947345e-08
7.5748483e-08
6.3215097e-08
4.7371879e-08
2.9840177e-08
1.4192888e-08
4.2696734e-09
7.897811e-10
5.0556159e-10
1.0411373e-07
1.0409691e-07
1.0408552e-07
1.0407542e-07
1.0406594e-07
1.0405679e-07
1.0404794e-07
1.0403934e-07
1.04031e-07
1.0402291e-07
1.0401507e-07
1.0400749e-07
1.0400018e-07
1.0399314e-07
1.0398639e-07
1.0397994e-07
1.039738e-07
1.03968e-07
1.0396254e-07
1.0395745e-07
1.0395275e-07
1.0394845e-07
1.0394459e-07
1.0394116e-07
1.039382e-07
1.039357e-07
1.0393369e-07
1.0393216e-07
1.0393113e-07
1.0393061e-07
1.0393059e-07
1.0393103e-07
1.0393183e-07
1.0393287e-07
1.0393393e-07
1.0393467e-07
1.0393445e-07
1.0393208e-07
1.0392543e-07
1.0391059e-07
1.0388053e-07
1.0382279e-07
1.0371574e-07
1.0352246e-07
1.0318147e-07
1.0259298e-07
1.0160031e-07
9.9968058e-08
9.7363694e-08
9.3355695e-08
8.7422011e-08
7.8885718e-08
6.6965836e-08
5.1376462e-08
3.336872e-08
1.6468565e-08
5.1306332e-09
8.8165326e-10
4.6584278e-10
1.0434884e-07
1.0433328e-07
1.0432214e-07
1.0431207e-07
1.0430256e-07
1.0429339e-07
1.0428452e-07
1.0427593e-07
1.0426761e-07
1.0425955e-07
1.0425177e-07
1.0424425e-07
1.0423701e-07
1.0423006e-07
1.0422339e-07
1.0421703e-07
1.0421099e-07
1.0420529e-07
1.0419993e-07
1.0419494e-07
1.0419034e-07
1.0418614e-07
1.0418236e-07
1.0417902e-07
1.0417613e-07
1.0417369e-07
1.0417173e-07
1.0417025e-07
1.0416925e-07
1.0416874e-07
1.0416874e-07
1.0416921e-07
1.0417006e-07
1.0417118e-07
1.041724e-07
1.0417346e-07
1.0417387e-07
1.0417273e-07
1.0416839e-07
1.0415785e-07
1.0413568e-07
1.0409214e-07
1.0401007e-07
1.0385974e-07
1.0359066e-07
1.0311901e-07
1.0230945e-07
1.0095149e-07
9.873431e-08
9.5231883e-08
8.9909171e-08
8.2084502e-08
7.0881057e-08
5.5701599e-08
3.735154e-08
1.9179249e-08
6.2293978e-09
1.023393e-09
4.3361833e-10
1.0460972e-07
1.0459522e-07
1.0458428e-07
1.0457424e-07
1.045647e-07
1.0455552e-07
1.0454666e-07
1.045381e-07
1.0452982e-07
1.0452183e-07
1.0451413e-07
1.0450671e-07
1.0449957e-07
1.0449273e-07
1.0448618e-07
1.0447995e-07
1.0447404e-07
1.0446846e-07
1.0446323e-07
1.0445837e-07
1.0445389e-07
1.0444981e-07
1.0444614e-07
1.0444291e-07
1.044401e-07
1.0443774e-07
1.0443584e-07
1.044344e-07
1.0443344e-07
1.0443296e-07
1.0443298e-07
1.0443346e-07
1.0443434e-07
1.0443551e-07
1.0443686e-07
1.0443818e-07
1.044391e-07
1.0443896e-07
1.0443654e-07
1.0442961e-07
1.044141e-07
1.0438264e-07
1.0432205e-07
1.0420911e-07
1.0400357e-07
1.0363701e-07
1.0299575e-07
1.0189667e-07
1.0005722e-07
9.7067862e-08
9.2384553e-08
8.5316587e-08
7.4930102e-08
6.0334385e-08
4.1819904e-08
2.2398147e-08
7.631492e-09
1.2343806e-09
4.0929241e-10
1.048998e-07
1.0488624e-07
1.0487543e-07
1.0486541e-07
1.0485586e-07
1.0484669e-07
1.0483787e-07
1.0482937e-07
1.0482118e-07
1.0481329e-07
1.048057e-07
1.0479841e-07
1.0479142e-07
1.0478473e-07
1.0477835e-07
1.0477228e-07
1.0476653e-07
1.0476112e-07
1.0475606e-07
1.0475136e-07
1.0474704e-07
1.0474311e-07
1.0473958e-07
1.0473647e-07
1.0473378e-07
1.0473151e-07
1.0472968e-07
1.047283e-07
1.0472737e-07
1.0472691e-07
1.0472695e-07
1.0472745e-07
1.0472834e-07
1.0472954e-07
1.0473097e-07
1.0473248e-07
1.0473379e-07
1.0473444e-07
1.0473356e-07
1.0472954e-07
1.0471947e-07
1.0469796e-07
1.046553e-07
1.04574e-07
1.0442305e-07
1.0414852e-07
1.0365799e-07
1.0279723e-07
1.0131755e-07
9.8837859e-08
9.4817353e-08
8.8548967e-08
7.9072899e-08
6.5247976e-08
4.6795445e-08
2.620383e-08
9.4186836e-09
1.5430451e-09
3.9384628e-10
1.0522323e-07
1.0521046e-07
1.0519976e-07
1.0518974e-07
1.0518021e-07
1.0517108e-07
1.0516233e-07
1.0515394e-07
1.0514588e-07
1.0513814e-07
1.0513072e-07
1.0512362e-07
1.0511682e-07
1.0511034e-07
1.0510417e-07
1.0509832e-07
1.0509279e-07
1.050876e-07
1.0508275e-07
1.0507826e-07
1.0507414e-07
1.0507039e-07
1.0506704e-07
1.0506409e-07
1.0506153e-07
1.0505938e-07
1.0505764e-07
1.0505633e-07
1.0505545e-07
1.0505501e-07
1.0505506e-07
1.0505556e-07
1.0505644e-07
1.0505765e-07
1.0505911e-07
1.0506073e-07
1.0506231e-07
1.0506354e-07
1.0506382e-07
1.0506205e-07
1.0505624e-07
1.0504264e-07
1.050144e-07
1.0495892e-07
1.0485338e-07
1.046569e-07
1.0429728e-07
1.0364951e-07
1.0250282e-07
1.0051594e-07
9.7169852e-08
9.1742814e-08
8.3260057e-08
7.0398994e-08
5.2285481e-08
3.0677846e-08
1.169109e-08
1.9907865e-09
3.8914132e-10
1.0558501e-07
1.0557289e-07
1.0556224e-07
1.0555224e-07
1.0554275e-07
1.0553371e-07
1.0552508e-07
1.0551684e-07
1.0550897e-07
1.0550145e-07
1.0549427e-07
1.0548742e-07
1.0548089e-07
1.0547468e-07
1.054688e-07
1.0546323e-07
1.0545799e-07
1.0545308e-07
1.0544851e-07
1.0544429e-07
1.0544042e-07
1.0543692e-07
1.0543379e-07
1.0543103e-07
1.0542865e-07
1.0542665e-07
1.0542502e-07
1.054238e-07
1.0542297e-07
1.0542254e-07
1.054226e-07
1.0542309e-07
1.0542395e-07
1.0542512e-07
1.0542656e-07
1.0542821e-07
1.0542994e-07
1.0543154e-07
1.0543263e-07
1.0543249e-07
1.0542984e-07
1.0542222e-07
1.0540506e-07
1.0536979e-07
1.0530046e-07
1.0516766e-07
1.0491763e-07
1.0445359e-07
1.0360478e-07
1.0207898e-07
9.9399923e-08
9.4850059e-08
8.7433492e-08
7.5724942e-08
5.827686e-08
3.5901543e-08
1.4568916e-08
2.6369293e-09
3.9894519e-10
1.0599122e-07
1.0597956e-07
1.0596894e-07
1.0595897e-07
1.0594956e-07
1.0594066e-07
1.0593223e-07
1.0592422e-07
1.0591662e-07
1.059094e-07
1.0590254e-07
1.0589603e-07
1.0588986e-07
1.0588403e-07
1.0587852e-07
1.0587333e-07
1.0586847e-07
1.0586393e-07
1.0585972e-07
1.0585585e-07
1.0585231e-07
1.0584912e-07
1.0584627e-07
1.0584377e-07
1.0584161e-07
1.0583979e-07
1.0583831e-07
1.0583719e-07
1.0583642e-07
1.0583601e-07
1.0583608e-07
1.0583654e-07
1.0583734e-07
1.0583843e-07
1.058398e-07
1.0584139e-07
1.0584314e-07
1.0584491e-07
1.0584647e-07
1.0584739e-07
1.058469e-07
1.058435e-07
1.0583436e-07
1.0581405e-07
1.0577218e-07
1.0568889e-07
1.0552653e-07
1.0521435e-07
1.0462133e-07
1.0351022e-07
1.0146674e-07
9.7810791e-08
9.1527473e-08
8.1143178e-08
6.4729164e-08
4.195332e-08
1.8195881e-08
3.5634906e-09
4.311191e-10
9.9487157e-10
1.0335481e-09
1.0779824e-09
1.118441e-09
1.1521868e-09
1.178831e-09
1.1985224e-09
1.2117911e-09
1.219284e-09
1.2216143e-09
1.2193123e-09
1.212719e-09
1.2020537e-09
1.1873241e-09
1.1684165e-09
1.1450334e-09
1.1168002e-09
1.0832201e-09
1.0438021e-09
9.9803891e-10
9.4556928e-10
8.8612034e-10
8.1993646e-10
7.4737825e-10
6.691993e-10
5.8685093e-10
5.0220037e-10
4.1751205e-10
3.3535663e-10
2.5843689e-10
1.8935808e-10
1.3041493e-10
8.3388208e-11
4.9364292e-11
2.9325004e-11
2.3191652e-11
2.9067393e-11
4.5914711e-11
7.2307907e-11
1.0653963e-10
1.4682383e-10
1.9143766e-10
2.3881715e-10
2.8760919e-10
3.3668566e-10
3.8514893e-10
4.3230982e-10
4.776656e-10
5.208607e-10
5.6167114e-10
5.9997889e-10
6.3574918e-10
6.6900842e-10
6.998257e-10
7.2830023e-10
7.5455077e-10
7.7871009e-10
8.0091949e-10
8.2131733e-10
8.4003724e-10
8.5720885e-10
8.7295549e-10
8.8739342e-10
9.006319e-10
9.1277269e-10
9.2390765e-10
9.3412137e-10
9.4349138e-10
9.5208848e-10
9.5997614e-10
9.6721193e-10
9.738398e-10
9.7990787e-10
9.8539516e-10
8.5016683e-10
9.0793906e-10
9.6137795e-10
1.0089375e-09
1.0498649e-09
1.0839593e-09
1.1113738e-09
1.1322528e-09
1.1469723e-09
1.1560394e-09
1.1599922e-09
1.1592829e-09
1.1542506e-09
1.1450665e-09
1.1317519e-09
1.1141556e-09
1.0919994e-09
1.0648789e-09
1.0323328e-09
9.9386772e-10
9.4905838e-10
8.975664e-10
8.3938117e-10
7.7471498e-10
7.0410152e-10
6.2860133e-10
5.4972808e-10
4.6939013e-10
3.8979726e-10
3.1329105e-10
2.4210549e-10
1.7879722e-10
1.2698624e-10
8.6127471e-11
5.7269839e-11
4.0357714e-11
3.4386313e-11
3.8705145e-11
5.2425248e-11
7.4096022e-11
1.0221818e-10
1.353086e-10
1.7198997e-10
2.1103367e-10
2.5138091e-10
2.9211064e-10
3.3242935e-10
3.7178747e-10
4.098028e-10
4.4627916e-10
4.8102644e-10
5.1392479e-10
5.4491618e-10
5.739906e-10
6.0117286e-10
6.265166e-10
6.5009222e-10
6.7198217e-10
6.9227589e-10
7.1106534e-10
7.2844423e-10
7.4450487e-10
7.5933735e-10
7.7302179e-10
7.8562553e-10
7.9722787e-10
8.0790507e-10
8.1773006e-10
8.2676956e-10
8.350866e-10
8.427383e-10
8.4977791e-10
8.5625496e-10
8.622089e-10
1.5412115e-09
1.3375584e-09
1.2173334e-09
1.1488727e-09
1.1132465e-09
1.0995688e-09
1.103215e-09
1.1115293e-09
1.1204206e-09
1.128061e-09
1.1336239e-09
1.1365697e-09
1.1365575e-09
1.1333867e-09
1.1269053e-09
1.1169323e-09
1.1032173e-09
1.0854215e-09
1.0631308e-09
1.0358754e-09
1.0031794e-09
9.6460079e-10
9.1984968e-10
8.6882563e-10
8.1166197e-10
7.4885174e-10
6.8127182e-10
6.1016744e-10
5.370831e-10
4.6370563e-10
3.9135735e-10
3.2127298e-10
2.5894034e-10
2.0553067e-10
1.6165099e-10
1.2754596e-10
1.0295893e-10
8.7386193e-11
8.0051672e-11
8.0059557e-11
8.6836489e-11
9.9321511e-11
1.1639337e-10
1.3705639e-10
1.6039197e-10
1.8558382e-10
2.1191413e-10
2.3878667e-10
2.6572317e-10
2.9236386e-10
3.1842764e-10
3.4370106e-10
3.6802821e-10
3.9130145e-10
4.1345177e-10
4.3444242e-10
4.5425079e-10
4.7284369e-10
4.902459e-10
5.0649812e-10
5.2164971e-10
5.3575387e-10
5.4886652e-10
5.6104319e-10
5.7234044e-10
5.8282048e-10
5.9253653e-10
6.0153839e-10
6.0987421e-10
6.1758916e-10
6.2472648e-10
6.31328e-10
6.3743334e-10
6.4307576e-10
4.8170886e-09
3.6439339e-09
2.8392088e-09
2.2878262e-09
1.9099949e-09
1.6521616e-09
1.4791957e-09
1.3632001e-09
1.2856547e-09
1.2340539e-09
1.2031581e-09
1.1835679e-09
1.1694482e-09
1.1580944e-09
1.1478832e-09
1.1376792e-09
1.1265165e-09
1.1136122e-09
1.0982888e-09
1.0799263e-09
1.0579444e-09
1.0318065e-09
1.0010573e-09
9.6536765e-10
9.245571e-10
8.7866045e-10
8.2795518e-10
7.7296089e-10
7.1436528e-10
6.5283302e-10
5.8869327e-10
5.2357041e-10
4.6143019e-10
4.0407744e-10
3.5262962e-10
3.0768518e-10
2.6940464e-10
2.37746e-10
2.1242828e-10
1.9300247e-10
1.7903898e-10
1.6996879e-10
1.6518058e-10
1.6407955e-10
1.6610668e-10
1.7098681e-10
1.7809076e-10
1.8688628e-10
1.9694698e-10
2.0791598e-10
2.1949201e-10
2.3142219e-10
2.4349802e-10
2.5555066e-10
2.6744584e-10
2.7907926e-10
2.9037015e-10
3.0125503e-10
3.116896e-10
3.2164421e-10
3.3110243e-10
3.4005741e-10
3.4851019e-10
3.5646792e-10
3.6394251e-10
3.7094969e-10
3.7750737e-10
3.8363533e-10
3.8935399e-10
3.9468492e-10
3.9964913e-10
4.0426821e-10
4.0856339e-10
4.1255241e-10
1.2115017e-08
9.1260046e-09
6.9212684e-09
5.3144603e-09
4.1501515e-09
3.3087485e-09
2.7025329e-09
2.2655682e-09
1.9501616e-09
1.722222e-09
1.5588477e-09
1.4416956e-09
1.3570205e-09
1.2951809e-09
1.2510655e-09
1.2187741e-09
1.1929216e-09
1.1710218e-09
1.1513041e-09
1.1323835e-09
1.1131223e-09
1.0925851e-09
1.070006e-09
1.0447854e-09
1.0164751e-09
9.8479685e-10
9.4964421e-10
9.1107239e-10
8.6922895e-10
8.2426894e-10
7.7625234e-10
7.2578572e-10
6.7502137e-10
6.2572103e-10
5.7896438e-10
5.3550944e-10
4.9584148e-10
4.6017889e-10
4.2854111e-10
4.0081744e-10
3.7683565e-10
3.5635434e-10
3.3908562e-10
3.2472323e-10
3.12961e-10
3.0353666e-10
2.9616743e-10
2.9057738e-10
2.8651193e-10
2.8374116e-10
2.8205933e-10
2.8127912e-10
2.8123741e-10
2.8179723e-10
2.8286163e-10
2.8434395e-10
2.8614682e-10
2.8818153e-10
2.9037491e-10
2.9266786e-10
2.9501309e-10
2.973728e-10
2.9971702e-10
3.0202235e-10
3.0427071e-10
3.0644849e-10
3.0854574e-10
3.1055565e-10
3.1247375e-10
3.1429785e-10
3.1602743e-10
3.1766314e-10
3.1920726e-10
3.2065976e-10
2.3338096e-08
1.814642e-08
1.4038998e-08
1.0860365e-08
8.4376284e-09
6.6086965e-09
5.2365074e-09
4.2098759e-09
3.4421912e-09
2.8677731e-09
2.4383151e-09
2.1170821e-09
1.8762363e-09
1.6950439e-09
1.5588982e-09
1.4563668e-09
1.37818e-09
1.3177048e-09
1.270696e-09
1.233225e-09
1.2019392e-09
1.1745157e-09
1.1492636e-09
1.124938e-09
1.1006024e-09
1.0755741e-09
1.0493795e-09
1.0216843e-09
9.9231915e-10
9.6122526e-10
9.2835763e-10
8.938151e-10
8.5819295e-10
8.2239479e-10
7.8731925e-10
7.5362042e-10
7.2172414e-10
6.9189299e-10
6.6426908e-10
6.3890573e-10
6.1579294e-10
5.9486403e-10
5.7600627e-10
5.5908069e-10
5.4393845e-10
5.3043439e-10
5.1842505e-10
5.07771e-10
4.9833933e-10
4.9000577e-10
4.8265552e-10
4.7618365e-10
4.704925e-10
4.6548487e-10
4.61081e-10
4.5721255e-10
4.5381703e-10
4.5083806e-10
4.4822462e-10
4.4593271e-10
4.4392267e-10
4.4215899e-10
4.4061154e-10
4.3925321e-10
4.3805984e-10
4.3701114e-10
4.3608928e-10
4.3527835e-10
4.3456508e-10
4.339382e-10
4.3338793e-10
4.3290537e-10
4.3248554e-10
4.3211165e-10
3.6895811e-08