/*--------------------------------*- C++ -*----------------------------------*\
| =========                 |                                                 |
| \\      /  F ield         | OpenFOAM: The Open Source CFD Toolbox           |
|  \\    /   O peration     | Version:  v2006                                 |
|   \\  /    A nd           | Website:  www.openfoam.com                      |
|    \\/     M anipulation  |                                                 |
\*---------------------------------------------------------------------------*/
FoamFile
{
    version     2.0;
    format      ascii;
    class       volScalarField;
    location    "10000";
    object      omega;
}
// * * * * * * * * * * * * * * * * * * * * * * * * * * * * * * * * * * * * * //

dimensions      [0 0 -1 0 0 0 0];


internalField   nonuniform List<scalar> 
55713
(
5.6495135
1.294868
0.59033218
0.38536216
0.30993992
0.27823095
0.26320186
0.25544172
0.25138836
0.24925905
0.24811036
0.24745699
0.24705446
0.24678103
0.24657638
0.24641063
0.24626893
0.24614384
0.2460316
0.24593033
0.24583904
0.24575727
0.24568479
0.24562156
0.24556755
0.24552281
0.24548731
0.24546099
0.24544373
0.24543615
0.24544235
0.24545964
0.24548688
0.24552307
0.24556802
0.24562184
0.24568466
0.24575656
0.24583752
0.24592743
0.24602618
0.2461337
0.24624995
0.24637495
0.24650879
0.24665162
0.24680363
0.24696513
0.24713645
0.24731809
0.24751057
0.2477146
0.24793098
0.24816074
0.24840504
0.24866539
0.24894362
0.24924258
0.24956931
5.1543551
1.197299
0.55837205
0.37591508
0.31043416
0.28333647
0.27053643
0.26409582
0.26083414
0.2591502
0.25824042
0.25771056
0.25736953
0.25712511
0.25693275
0.25677078
0.25662859
0.2565009
0.25638506
0.25627971
0.25618418
0.25609814
0.25602144
0.25595406
0.255896
0.2558473
0.25580793
0.25577778
0.25575658
0.25574439
0.25574744
0.25576121
0.25578501
0.25581763
0.25585893
0.25590907
0.25596823
0.25603652
0.25611389
0.25620025
0.25629546
0.25639942
0.25651207
0.25663341
0.25676348
0.25690241
0.25705034
0.25720752
0.25737424
0.25755089
0.25773793
0.25793595
0.25814563
0.25836782
0.25860349
0.25885389
0.25912051
0.25940568
0.2597151
4.7206555
1.1111653
0.53126741
0.36951708
0.31305333
0.28998878
0.2792031
0.273964
0.27138483
0.27006691
0.2693458
0.26891004
0.26861416
0.26839
0.26820536
0.26804488
0.26790109
0.2677703
0.26765066
0.26754121
0.26744148
0.26735124
0.26727039
0.26719894
0.26713689
0.26708428
0.26704106
0.26700712
0.26698205
0.26696521
0.26696446
0.26697512
0.26699548
0.26702441
0.2670619
0.26710819
0.2671635
0.26722795
0.26730151
0.26738408
0.26747549
0.26757562
0.26768438
0.26780175
0.26792774
0.26806243
0.26820593
0.26835844
0.26852017
0.26869145
0.26887265
0.26906424
0.26926678
0.26948095
0.26970755
0.26994756
0.27020214
0.27047313
0.27076512
4.3387386
1.034877
0.5086515
0.36608345
0.31778056
0.29824576
0.28931962
0.28514646
0.28313877
0.2821134
0.28153734
0.2811714
0.28090771
0.28069711
0.28051689
0.28035634
0.2802103
0.28007621
0.27995279
0.27983937
0.27973561
0.27964135
0.27955654
0.27948118
0.27941528
0.27935887
0.27931191
0.27927426
0.27924552
0.27922495
0.27921764
0.27922686
0.27924374
0.27926887
0.27930241
0.27934466
0.27939589
0.27945627
0.27952577
0.27960428
0.27969161
0.2797876
0.27989214
0.28000518
0.28012672
0.28025678
0.28039544
0.28054284
0.28069913
0.28086457
0.28103942
0.28122408
0.28141895
0.28162457
0.28184154
0.28207059
0.2823126
0.28256892
0.28284314
4.0007725
0.96708028
0.49025293
0.36557725
0.32462623
0.30823118
0.3010115
0.29775635
0.29621427
0.2954169
0.29494976
0.29463445
0.29439316
0.29419137
0.29401339
0.29385191
0.29370341
0.29356615
0.29343922
0.29332215
0.2932147
0.29311676
0.29302829
0.29294931
0.2928798
0.29281981
0.29276929
0.2927281
0.29269582
0.2926716
0.29265771
0.29266502
0.29267898
0.29270021
0.29272964
0.29276767
0.29281461
0.29287066
0.29293582
0.29300997
0.29309288
0.29318437
0.29328431
0.29339262
0.29350925
0.29363421
0.29376754
0.2939093
0.29405961
0.29421862
0.29438654
0.29456364
0.2947502
0.2949466
0.29515326
0.29537068
0.29559942
0.29584042
0.29609636
3.7003766
0.90664814
0.4759062
0.36801617
0.33364347
0.32011096
0.31441801
0.31193111
0.31075874
0.31013495
0.30974793
0.30946875
0.30924293
0.30904687
0.30886999
0.3087074
0.30855672
0.30841675
0.30828686
0.30816671
0.30805614
0.30795504
0.30786342
0.30778123
0.30770852
0.30764528
0.30759152
0.30754705
0.30751146
0.3074838
0.30746388
0.30746826
0.30747943
0.30749723
0.30752245
0.30755607
0.30759848
0.30764992
0.30771044
0.30777989
0.307858
0.30794458
0.30803946
0.30814253
0.30825374
0.30837304
0.30850042
0.30863591
0.30877956
0.30893146
0.30909171
0.30926047
0.30943793
0.30962431
0.30981982
0.31002476
0.3102394
0.31046426
0.31070126
3.4323193
0.85261899
0.46554526
0.37347115
0.34496219
0.33407156
0.3297048
0.32784348
0.32695746
0.32646314
0.32613426
0.32588088
0.32566609
0.32547421
0.32529828
0.32513507
0.32498297
0.32484118
0.32470924
0.3245869
0.32447404
0.32437059
0.3242765
0.32419179
0.32411646
0.32405054
0.32399399
0.32394668
0.32390814
0.32387732
0.32385272
0.32385277
0.32386067
0.32387552
0.32389696
0.323926
0.32396363
0.32401017
0.3240657
0.32413006
0.32420295
0.32428413
0.3243734
0.32447065
0.32457578
0.32468872
0.32480943
0.32493786
0.32507403
0.32521794
0.32536961
0.32552911
0.3256965
0.32587184
0.32605519
0.32624661
0.32644613
0.32665387
0.32687106
3.192291
0.80415825
0.45920922
0.38206553
0.35880991
0.35032768
0.34707906
0.34571335
0.34504395
0.34464471
0.34435814
0.34412392
0.34391794
0.3437301
0.34355593
0.34339331
0.34324118
0.34309897
0.34296635
0.34284313
0.34272922
0.34262452
0.34252904
0.34244276
0.34236571
0.34229788
0.34223926
0.3421897
0.3421488
0.34211549
0.34208827
0.34208132
0.34208655
0.34209809
0.3421163
0.34214107
0.34217367
0.34221497
0.34226512
0.34232395
0.34239111
0.3424663
0.34254932
0.34264002
0.34273829
0.34284402
0.34295713
0.34307754
0.3432052
0.34334004
0.34348201
0.34363108
0.34378718
0.34395025
0.34412019
0.34429684
0.34447999
0.34466941
0.34486573
2.9767316
0.76052217
0.45705326
0.39397813
0.37548981
0.36914022
0.36680529
0.36582126
0.36531256
0.3649831
0.36472848
0.36451008
0.36431278
0.36413026
0.36395972
0.36379978
0.36364973
0.36350917
0.36337785
0.36325562
0.36314237
0.36303807
0.3629427
0.36285626
0.36277875
0.36271016
0.36265048
0.36259957
0.36255708
0.36252202
0.36249294
0.36248007
0.36248195
0.36248997
0.36250443
0.36252558
0.36255324
0.36258893
0.36263328
0.36268608
0.3627469
0.3628154
0.36289137
0.36297463
0.36306506
0.36316252
0.3632669
0.36337807
0.36349592
0.36362034
0.3637512
0.36388836
0.36403167
0.36418093
0.3643359
0.36449623
0.36466151
0.36483118
0.36500535
2.7826965
0.7210302
0.45937026
0.40947389
0.39536201
0.39083695
0.38922394
0.38852601
0.38813546
0.38785879
0.38763077
0.38742794
0.38724124
0.38706687
0.38690308
0.38674899
0.38660412
0.38646818
0.38634097
0.38622235
0.38611226
0.38601067
0.38591757
0.38583293
0.38575677
0.38568905
0.38562975
0.38557878
0.38553584
0.38550007
0.38547017
0.38545341
0.38545045
0.38545534
0.38546599
0.38548296
0.38550646
0.3855363
0.38557434
0.38562052
0.38567429
0.38573525
0.38580318
0.3858779
0.38595926
0.3860471
0.3861413
0.38624167
0.38634808
0.38646035
0.3865783
0.3867017
0.38683033
0.38696385
0.38710192
0.38724402
0.38738957
0.38753777
0.38768829
2.6077579
0.68504337
0.466622
0.42897426
0.41886273
0.41583906
0.41477574
0.41428781
0.41398573
0.41375257
0.41355046
0.41336604
0.41319414
0.41303256
0.41288024
0.41273662
0.41260136
0.41247423
0.41235508
0.41224382
0.41214042
0.41204482
0.41195702
0.41187699
0.41180472
0.41174019
0.41168338
0.41163421
0.41159245
0.41155742
0.41152809
0.41150943
0.41150145
0.41150345
0.41151041
0.41152305
0.41154174
0.41156647
0.41159759
0.41163648
0.41168233
0.41173469
0.41179335
0.41185811
0.41192884
0.41200536
0.41208751
0.41217511
0.41226797
0.41236589
0.41246862
0.41257589
0.41268741
0.41280276
0.41292151
0.41304303
0.41316662
0.4132913
0.41341641
2.4499352
0.65191183
0.4794714
0.45311907
0.4465422
0.44469492
0.44403464
0.44370079
0.44346985
0.44327829
0.44310611
0.44294631
0.44279613
0.44265436
0.44252038
0.44239384
0.44227447
0.4421621
0.44205666
0.44195808
0.44186633
0.44178137
0.44170318
0.44163173
0.44156702
0.441509
0.44145767
0.44141295
0.44137472
0.44134248
0.44131563
0.44129666
0.44128603
0.44128458
0.44128834
0.44129677
0.44131043
0.44132946
0.44135369
0.44138451
0.44142138
0.44146381
0.44151162
0.44156462
0.44162269
0.44168565
0.44175334
0.44182555
0.44190212
0.44198277
0.4420673
0.44215536
0.44224665
0.4423407
0.44243705
0.44253502
0.44263388
0.44273255
0.44283021
2.3075873
0.62093053
0.49883758
0.48275971
0.47910732
0.47812703
0.47775409
0.47753916
0.47737419
0.47722979
0.47709684
0.47697209
0.47685422
0.47674261
0.47663696
0.47653698
0.47644252
0.47635349
0.47626987
0.47619159
0.47611863
0.47605095
0.47598855
0.47593138
0.47587945
0.47583271
0.47579116
0.47575474
0.4757234
0.47569687
0.47567503
0.47565822
0.4756479
0.47564339
0.47564469
0.47564931
0.47565793
0.47567072
0.47568763
0.47570955
0.47573604
0.47576677
0.47580162
0.47584043
0.47588311
0.47592946
0.47597939
0.47603268
0.47608917
0.47614863
0.47621085
0.4762755
0.47634231
0.47641083
0.47648065
0.47655112
0.47662158
0.47669104
0.47675868
2.1792886
0.59155162
0.52604187
0.51893791
0.51748451
0.51709865
0.51693263
0.51682195
0.51672964
0.51664588
0.51656757
0.51649357
0.51642339
0.51635684
0.51629368
0.51623382
0.51617719
0.51612378
0.51607354
0.51602646
0.51598252
0.51594169
0.51590398
0.51586935
0.5158378
0.5158093
0.51578385
0.51576142
0.51574199
0.51572546
0.51571189
0.5157011
0.51569389
0.51568958
0.51568907
0.51569065
0.51569456
0.5157008
0.5157098
0.51572159
0.51573598
0.51575279
0.51577203
0.51579351
0.51581726
0.51584307
0.51587097
0.5159007
0.51593227
0.51596541
0.51600008
0.51603595
0.51607294
0.51611063
0.51614884
0.51618705
0.51622488
0.51626162
0.51629669
0.16896209
0.16865036
0.16842084
0.16823442
0.16806197
0.16789537
0.16773203
0.1675717
0.16741429
0.1672599
0.16710873
0.16696101
0.166817
0.16667702
0.16654142
0.16641059
0.16628497
0.16616503
0.16605129
0.16594431
0.16584469
0.16575304
0.16567001
0.16559623
0.16553228
0.16547872
0.16543592
0.16540525
0.16538846
0.16538633
0.16539828
0.16542338
0.1654609
0.16551046
0.16557195
0.16564573
0.16573284
0.16583569
0.16595908
0.16611211
0.16631115
0.16658474
0.16698093
0.1675781
0.16849932
0.1699294
0.17213025
0.17545022
0.18035725
0.1876686
0.19905901
0.21766118
0.24929723
0.30552089
0.41173313
0.63294455
1.179185
3.040743
15.456322
0.17131078
0.17099546
0.17076515
0.17057744
0.17040146
0.17023099
0.17006405
0.16990031
0.16973973
0.1695824
0.16942849
0.16927822
0.16913187
0.16898972
0.16885213
0.16871947
0.16859218
0.16847072
0.16835561
0.1682474
0.16814667
0.16805405
0.16797016
0.16789562
0.16783101
0.16777688
0.16773374
0.16770239
0.16768495
0.16768234
0.16769395
0.16771878
0.16775609
0.16780545
0.16786674
0.1679402
0.16802671
0.16812832
0.16824926
0.16839755
0.16858779
0.16884559
0.16921452
0.16976635
0.17061525
0.17193544
0.17397909
0.17708882
0.18172082
0.18862375
0.19933883
0.21682468
0.24661479
0.29970805
0.40029553
0.61025167
1.1291233
2.8955053
14.654109
0.17391345
0.17359469
0.17336504
0.17317473
0.17299481
0.17282023
0.17264944
0.1724821
0.17231817
0.17215773
0.17200095
0.17184802
0.17169922
0.17155482
0.17141517
0.17128063
0.17115163
0.17102863
0.17091214
0.17080269
0.17070087
0.17060729
0.17052256
0.17044729
0.17038206
0.17032739
0.17028386
0.17025201
0.17023392
0.17023083
0.17024209
0.17026666
0.17030375
0.17035291
0.17041398
0.17048712
0.17057304
0.17067349
0.17079209
0.17093586
0.17111763
0.17136017
0.17170253
0.17220978
0.17298678
0.17419628
0.17607885
0.17896952
0.183316
0.18980888
0.19984993
0.21621439
0.2441425
0.29407234
0.38897402
0.58756787
1.0789285
2.750332
13.855948
0.17680528
0.17648338
0.17625559
0.17606132
0.17587703
0.17569809
0.17552322
0.17535207
0.17518461
0.1750209
0.17486111
0.17470542
0.17455407
0.17440735
0.17426557
0.17412912
0.17399839
0.17387383
0.17375595
0.17364527
0.17354238
0.17344786
0.17336233
0.17328638
0.17322055
0.17316538
0.17312141
0.17308925
0.17307051
0.17306697
0.17307789
0.17310219
0.17313905
0.173188
0.17324885
0.17332168
0.17340704
0.17350638
0.17362278
0.17376226
0.17393599
0.17416393
0.1744807
0.17494458
0.17565088
0.17674996
0.17846911
0.1811332
0.18518303
0.19126428
0.20063848
0.21588611
0.24195101
0.28870955
0.37791083
0.5651268
1.0290282
2.60613
13.065095
0.18002784
0.17970444
0.17947732
0.17927871
0.17908968
0.17890611
0.1787269
0.17855173
0.17838055
0.17821343
0.1780505
0.17789194
0.17773797
0.17758887
0.17744493
0.17730653
0.17717406
0.17704795
0.1769287
0.17681683
0.1767129
0.17661749
0.17653121
0.17645462
0.17638826
0.17633263
0.17628827
0.17625582
0.17623652
0.17623252
0.17624312
0.17626715
0.17630377
0.17635249
0.1764131
0.1764856
0.17657041
0.17666869
0.17678301
0.17691846
0.17708461
0.17729872
0.17759104
0.17801313
0.1786505
0.17964046
0.18119516
0.1836264
0.18736746
0.1930326
0.20174999
0.21589119
0.24009961
0.2836913
0.36719982
0.5430649
0.97964539
2.4634145
12.284735
0.18363052
0.18330761
0.1830798
0.18287638
0.18268223
0.18249371
0.18230991
0.1821305
0.18195544
0.18178476
0.18161859
0.18145707
0.18130043
0.18114891
0.1810028
0.18086246
0.18072827
0.18060065
0.18048008
0.18036707
0.18026217
0.18016595
0.18007898
0.18000183
0.17993502
0.17987901
0.17983431
0.17980158
0.17978186
0.17977741
0.17978768
0.17981143
0.17984778
0.17989624
0.17995657
0.18002872
0.18011296
0.18021022
0.18032257
0.18045425
0.1806133
0.18081442
0.18108363
0.18146589
0.18203679
0.18292001
0.18431095
0.18650501
0.18992528
0.19516586
0.20323815
0.21629016
0.23865813
0.27910151
0.35695115
0.5215453
0.93105174
2.3227785
11.517995
0.18767296
0.18735266
0.18712254
0.18691377
0.18671405
0.18652028
0.18633161
0.18614777
0.18596866
0.18579431
0.18562482
0.1854603
0.18530096
0.18514703
0.18499879
0.18485656
0.18472071
0.18459166
0.18446987
0.18435582
0.18425006
0.18415314
0.18406561
0.18398801
0.18392084
0.18386454
0.18381958
0.1837866
0.1837666
0.18376169
0.18377164
0.1837951
0.18383114
0.18387929
0.18393928
0.18401101
0.18409465
0.18419089
0.18430136
0.1844295
0.18458196
0.18477099
0.18501861
0.18536333
0.18587092
0.186651
0.18788074
0.18983587
0.19292475
0.19772792
0.2051656
0.21715262
0.23770574
0.27503326
0.34728417
0.50074398
0.88354026
2.1848156
10.767876
0.19222724
0.19191189
0.19167752
0.19146278
0.19125706
0.19105769
0.19086392
0.19067544
0.19049217
0.19031407
0.19014122
0.18997371
0.18981172
0.18965545
0.18950516
0.18936116
0.1892238
0.18909347
0.18897061
0.1888557
0.18874925
0.18865179
0.18856387
0.18848598
0.1884186
0.18836214
0.18831703
0.18828387
0.18826366
0.18825833
0.18826797
0.18829111
0.18832679
0.18837454
0.18843409
0.18850531
0.18858826
0.18868342
0.18879206
0.18891687
0.18906322
0.18924111
0.18946879
0.1897786
0.1902267
0.19090846
0.19198172
0.19369931
0.19644921
0.20079896
0.20760713
0.21855992
0.23733399
0.271592
0.33833071
0.48085542
0.83744409
2.0501667
10.037212
0.19738301
0.19707206
0.19683262
0.1966113
0.19639912
0.19619382
0.1959947
0.19580145
0.19561392
0.19543207
0.1952559
0.19508549
0.19492098
0.19476253
0.1946104
0.19446485
0.19432621
0.19419485
0.19407118
0.19395566
0.19384878
0.19375105
0.19366297
0.19358503
0.19351765
0.1934612
0.19341608
0.19338287
0.19336251
0.19335683
0.19336616
0.19338892
0.19342416
0.19347139
0.19353036
0.1936009
0.19368301
0.19377698
0.19388374
0.19400536
0.19414603
0.19431373
0.1945232
0.194801
0.19519403
0.19578355
0.19670725
0.1981923
0.20060017
0.20448023
0.21065434
0.22060757
0.23764902
0.26889701
0.33023431
0.46208878
0.79313749
1.9195331
9.3286212
0.20324933
0.20294188
0.20269642
0.20246781
0.20224868
0.20203712
0.20183247
0.20163436
0.2014426
0.20125707
0.20107775
0.20090466
0.20073789
0.20057759
0.20042394
0.20027721
0.20013767
0.20000568
0.19988161
0.19976589
0.19965897
0.19956133
0.19947346
0.19939578
0.19932869
0.19927251
0.19922759
0.19919447
0.19917407
0.19916809
0.19917711
0.19919944
0.19923409
0.19928063
0.1993388
0.19940842
0.19948943
0.19958199
0.19968672
0.19980516
0.19994048
0.20009885
0.20029185
0.20054072
0.20088361
0.20138805
0.20217135
0.20343282
0.20550148
0.20889927
0.21442373
0.22340925
0.23877548
0.26708504
0.32315136
0.44466548
0.75104359
1.7937361
8.6444711
0.20996232
0.20965712
0.20940446
0.20916776
0.20894117
0.20872307
0.20851276
0.20830982
0.20811398
0.20792503
0.2077429
0.20756754
0.20739899
0.20723735
0.20708276
0.20693543
0.20679561
0.20666359
0.20653973
0.2064244
0.20631803
0.20622105
0.20613389
0.20605696
0.20599058
0.20593502
0.20589058
0.20585775
0.20583744
0.20583123
0.20583994
0.20586173
0.20589562
0.2059412
0.20599824
0.20606658
0.20614609
0.20623684
0.20633923
0.20645432
0.20658443
0.20673416
0.20691232
0.20713534
0.20743334
0.20786082
0.20851492
0.20956578
0.21130483
0.2142155
0.21906788
0.22710354
0.24086183
0.26631541
0.31725333
0.42881278
0.71163487
1.6738069
7.9868446
0.21769411
0.21738932
0.217128
0.21688232
0.21664778
0.21642293
0.21620699
0.21599943
0.21579986
0.21560801
0.21542368
0.21524676
0.21507722
0.21491509
0.21476045
0.21461344
0.21447427
0.21434318
0.21422045
0.21410642
0.21400146
0.21390595
0.21382028
0.21374478
0.21367972
0.2136253
0.21358174
0.21354949
0.21352944
0.2135231
0.21353148
0.21355259
0.21358543
0.21362966
0.2136851
0.21375159
0.21382901
0.21391732
0.21401677
0.21412805
0.21425278
0.21439426
0.21455891
0.21475899
0.21501741
0.21537665
0.21591446
0.21677148
0.21819774
0.22062726
0.22478773
0.23186693
0.24408811
0.26677821
0.31273172
0.41475549
0.67542371
1.5611681
7.3575147
0.22666551
0.22635835
0.2260866
0.225831
0.22558807
0.2253564
0.22513506
0.22492336
0.22472077
0.22452689
0.2243414
0.22416409
0.22399483
0.22383355
0.22368025
0.22353501
0.22339793
0.22326919
0.223149
0.22303763
0.22293538
0.22284256
0.22275951
0.22268646
0.22262361
0.22257107
0.22252897
0.22249771
0.22247817
0.22247179
0.22247984
0.22250005
0.22253144
0.22257375
0.22262687
0.22269068
0.22276506
0.22284995
0.22294545
0.22305202
0.22317072
0.22330381
0.22345578
0.22363535
0.2238592
0.22415903
0.22459462
0.22527775
0.22641507
0.22838213
0.23184384
0.23793761
0.24867747
0.26870681
0.30980904
0.4027047
0.64292189
1.4579275
6.7579289
0.23716412
0.23685036
0.23656611
0.23629962
0.23604799
0.23580967
0.23558351
0.23536861
0.23516425
0.23496982
0.23478487
0.23460905
0.23444207
0.23428375
0.23413398
0.23399271
0.23385994
0.23373575
0.23362024
0.2335136
0.23341601
0.23332773
0.23324897
0.23317989
0.23312057
0.233071
0.23303123
0.23300155
0.23298288
0.23297656
0.23298431
0.23300328
0.2330326
0.23307214
0.23312188
0.23318175
0.23325165
0.23333155
0.23342149
0.23352175
0.23363303
0.23375679
0.23389603
0.23405664
0.2342501
0.23449887
0.2348466
0.23537798
0.23625622
0.23779244
0.24056914
0.24564609
0.25491653
0.27239576
0.30875701
0.39284574
0.6145272
1.3673353
6.1892011
17.035281
19.711291
22.778032
26.285391
30.288017
34.845413
40.021907
45.886527
52.512741
59.978038
68.363329
77.752146
88.229627
99.881299
112.79163
127.04237
142.7107
159.86734
178.57437
198.88313
220.83224
244.44561
269.73068
296.67689
325.25492
355.41581
387.09081
420.19182
454.61221
490.22833
526.9011
564.47833
602.7972
641.6868
680.97198
720.4744
760.01716
799.4274
838.53856
877.1931
915.24347
952.55537
989.00804
1024.4947
1058.9242
1092.2201
1124.3202
1155.1767
1184.7563
1213.0378
1240.0103
1265.6748
1290.0405
1313.1262
1334.9568
1355.5624
1374.9795
1393.247
1410.4074
1426.5056
1441.5878
1455.7011
1468.8926
1481.2099
1492.6998
1503.4085
1513.3803
1522.6591
1531.2867
1539.3034
1546.748
1553.6566
1560.0653
1566.0072
3.5884755
4.1392733
4.7253834
5.3823207
6.126637
6.9697532
7.9211589
8.9926426
10.196354
11.544779
13.050737
14.72735
16.587876
18.645461
20.912817
23.401895
26.123513
29.086972
32.299616
35.766477
39.48991
43.469364
47.701579
52.179078
56.893892
61.835598
66.994989
72.368834
77.972369
83.876619
90.323746
97.220193
102.90315
109.79927
116.24055
122.50931
128.69297
132.71111
137.0481
142.11404
147.47475
152.91908
158.34052
163.68058
168.90354
173.9532
178.79318
183.43204
187.89416
192.20881
196.35953
200.33717
204.13668
207.75685
211.19705
214.4591
217.54554
220.45969
223.20686
225.79188
228.2209
230.49985
232.63504
234.62721
236.479
238.20106
239.80148
241.28945
242.67162
243.95615
245.14918
246.25864
247.29223
248.2635
1.4086474
1.6515539
1.9083696
2.1846512
2.4864448
2.816959
3.1615379
3.546508
3.9796286
4.4647875
5.0048601
5.6033275
6.2642113
6.9914459
7.788722
8.6593503
9.6061688
10.63137
11.736317
12.92136
14.185662
15.527082
16.94229
18.42588
19.972109
21.574009
23.22464
24.918629
26.656089
28.454513
30.420168
32.70283
34.748911
36.747556
38.660441
40.494342
42.26253
43.805852
45.234216
46.612688
47.593793
48.650406
49.805307
51.01707
52.253339
53.487128
54.702475
55.889898
57.044201
58.163178
59.244269
60.285303
61.284603
62.241094
63.154054
64.023243
64.845472
65.615885
66.337863
67.014169
67.647446
68.240016
68.794077
69.311506
69.794933
70.247646
70.671006
71.066429
71.43551
71.779678
72.100419
72.399439
72.678403
72.939192
0.74677271
0.87534516
1.0166224
1.1702692
1.3371185
1.5183201
1.7120353
1.9217484
2.1511753
2.4034345
2.6718873
2.9623398
3.2827865
3.6356339
4.02206
4.4426119
4.8982206
5.3895011
5.9166421
6.4793059
7.0765451
7.7067425
8.3676588
9.0559737
9.7681601
10.500131
11.247937
12.008836
12.783938
13.585545
14.451201
15.364794
16.241902
17.081181
17.87863
18.633347
19.346935
20.007578
20.618126
21.186463
21.692859
22.158505
22.599265
23.023343
23.42588
23.737576
24.040955
24.346771
24.653357
24.957842
25.257698
25.55089
25.835857
26.111418
26.376611
26.630779
26.873435
27.104197
27.323012
27.529934
27.725199
27.909096
28.081971
28.244226
28.396338
28.5388
28.672075
28.796651
28.912983
29.021574
29.122859
29.217318
29.305421
29.387583
0.47529771
0.55005569
0.63532894
0.73055953
0.83548786
0.95014839
1.0741198
1.2078496
1.3524035
1.5091125
1.6774227
1.8581359
2.0533807
2.2649691
2.4905964
2.7293442
2.9873193
3.2650816
3.5623865
3.878558
4.212713
4.5636322
4.9297608
5.3089277
5.6988353
6.0968705
6.5004589
6.9075402
7.3174708
7.7328491
8.161682
8.603272
9.035342
9.4488627
9.8410093
10.210341
10.556589
10.879105
11.178227
11.45525
11.710092
11.944466
12.160817
12.361544
12.548256
12.718865
12.875832
13.021537
13.157739
13.285676
13.406236
13.520059
13.627628
13.728638
13.819602
13.900488
13.974119
14.042489
14.106662
14.167168
14.224314
14.278289
14.329224
14.377242
14.422456
14.464986
14.504943
14.542446
14.577609
14.610557
14.641411
14.670288
14.69731
14.72259
0.34364942
0.38974786
0.44390869
0.50602578
0.57590915
0.65339821
0.7382376
0.8303303
0.9298352
1.0371372
1.1523073
1.2755371
1.4073993
1.5486214
1.6990887
1.8584465
2.0276984
2.2074967
2.3968814
2.5944362
2.8009877
3.0163163
3.2396515
3.4696035
3.7045715
3.9426958
4.1820692
4.4209288
4.6579276
4.892548
5.1255408
5.3572849
5.5849295
5.8040501
6.01101
6.2046369
6.3848337
6.5518311
6.7061293
6.848448
6.9795282
7.1001921
7.2113215
7.3137983
7.4084392
7.4958319
7.5765792
7.6512751
7.7204755
7.7846781
7.8443235
7.8997958
7.9514347
7.999526
8.0442462
8.0857573
8.1242651
8.1599884
8.193146
8.2239327
8.2525327
8.2791101
8.3038115
8.3267761
8.3481293
8.3679884
8.3864614
8.4036473
8.4196385
8.4345204
8.4483748
8.4612765
8.4732923
8.4844948
0.27303432
0.30248101
0.33796878
0.37966263
0.42757713
0.48164156
0.54170288
0.60759911
0.67923254
0.75660521
0.83969639
0.92850078
1.0231164
1.1237382
1.2304045
1.3429906
1.4615808
1.5862899
1.7168701
1.8527287
1.9935074
2.1387579
2.2878366
2.439557
2.5925938
2.7456324
2.8974369
3.046809
3.1926448
3.3340543
3.4704938
3.6016283
3.726926
3.8456078
3.9568565
4.0601294
4.1552763
4.2425056
4.322259
4.3950892
4.4615862
4.5223372
4.5779064
4.6288196
4.6755551
4.7185326
4.7581226
4.7946524
4.8284094
4.8596471
4.8885866
4.9154226
4.9403284
4.9634562
4.9849432
5.00491
5.0234666
5.0407135
5.056744
5.0716441
5.0854941
5.0983682
5.1103352
5.1214598
5.131801
5.1414165
5.1503571
5.1586732
5.1664091
5.1736077
5.1803085
5.1865492
5.192359
5.1977796
0.23262572
0.25176562
0.2754325
0.30388367
0.33725781
0.37559356
0.41884026
0.46688758
0.51960654
0.57688432
0.63861013
0.70467732
0.77500778
0.84956331
0.92828398
1.0110491
1.0977448
1.1882585
1.2823786
1.3797396
1.4799175
1.5824174
1.6866572
1.791826
1.8970235
2.0012465
2.1034789
2.2027353
2.2981113
2.3888393
2.474342
2.5542447
2.628331
2.6965071
2.7587933
2.8153327
2.8663886
2.9123244
2.953569
2.990581
3.0238194
3.0537206
3.0806861
3.1050767
3.1272094
3.1473584
3.1657588
3.1826114
3.1980879
3.2123335
3.2254709
3.2376062
3.2488314
3.2592269
3.2688628
3.2778015
3.2860982
3.2938024
3.3009594
3.3076103
3.313792
3.3195396
3.3248844
3.3298557
3.3344803
3.3387843
3.3427903
3.3465207
3.3499954
3.3532339
3.3562526
3.3590698
3.3616946
3.3641509
0.20843045
0.22090911
0.23680224
0.25637062
0.27979861
0.30719053
0.33857117
0.37389645
0.41307387
0.45598556
0.5024979
0.55246798
0.60575401
0.66222412
0.72174341
0.78415508
0.84928558
0.91694446
0.986898
1.0588397
1.1323935
1.2071159
1.2825027
1.3579195
1.4326941
1.5060796
1.5773128
1.6456561
1.7104416
1.7711142
1.8272652
1.8786516
1.9251937
1.9669591
2.0041393
2.0370225
2.0659648
2.091361
2.1136184
2.1331345
2.1502818
2.1653983
2.178781
2.1906858
2.2013296
2.210892
2.2195233
2.2273488
2.2344737
2.2409193
2.2465666
2.2515498
2.2559766
2.2599343
2.2634932
2.2667104
2.2696324
2.2722974
2.2747374
2.2769782
2.2790425
2.2809489
2.2827134
2.2843499
2.2858704
2.287286
2.2886056
2.2898378
2.29099
2.292069
2.2930806
2.2940314
2.294921
2.2957633
0.19339581
0.20145652
0.21210525
0.22557424
0.24204956
0.2616609
0.28447571
0.31050005
0.33968691
0.37194886
0.4071688
0.44520851
0.48591665
0.52913573
0.57470195
0.6224391
0.67215561
0.7236415
0.77665887
0.83092836
0.88612109
0.94185634
0.99771025
1.053172
1.1077172
1.1607776
1.2117824
1.260191
1.3055274
1.3474132
1.3855919
1.4199423
1.450477
1.4773289
1.5007282
1.5209741
1.5384062
1.5533779
1.5662352
1.5773013
1.5868656
1.5951787
1.6024514
1.6088595
1.6145479
1.6191381
1.6228326
1.6258252
1.6282693
1.6303431
1.6323086
1.6341735
1.6359441
1.6376249
1.6392199
1.6407326
1.6421659
1.643523
1.6448066
1.6460197
1.6471652
1.6482461
1.6492654
1.650226
1.6511309
1.6519831
1.6527855
1.653541
1.6542522
1.6549221
1.6555527
1.656148
1.656705
1.6572348
0.18369695
0.18879407
0.19585349
0.20507191
0.2166183
0.23062337
0.24717197
0.26629982
0.28799535
0.31220549
0.33884287
0.36779301
0.39892099
0.43207731
0.46710089
0.50381861
0.54204356
0.58157244
0.62218072
0.66361591
0.7055911
0.74778256
0.78983611
0.83133677
0.87186815
0.91098916
0.94826745
0.98330469
1.0157637
1.0453931
1.0720446
1.0956808
1.1163706
1.1342756
1.1496278
1.1627049
1.1738054
1.1832265
1.1912472
1.1981168
1.2040494
1.2092229
1.2134172
1.2165555
1.2188888
1.2210532
1.2231085
1.2250705
1.2269498
1.2287535
1.2304872
1.2321537
1.2337542
1.2352891
1.2367584
1.2381623
1.2395008
1.2407747
1.2419847
1.2431319
1.2442181
1.2452447
1.2462139
1.2471278
1.2479888
1.2487991
1.2495613
1.2502779
1.2509511
1.2515836
1.2521772
1.2527357
1.2532559
1.2537488
0.17719334
0.18028306
0.18486598
0.19109706
0.1991198
0.20905326
0.22098383
0.23496057
0.25099414
0.26905869
0.28909579
0.31101933
0.33472047
0.36007235
0.38693342
0.41514887
0.4445505
0.47495533
0.50616282
0.53795127
0.57007356
0.60225623
0.6342038
0.66557738
0.69604272
0.72525259
0.75287456
0.7786116
0.8022236
0.82354613
0.84250258
0.85910748
0.87346022
0.88573041
0.8961378
0.90493131
0.91236422
0.91867974
0.92409564
0.92879891
0.93269779
0.93552136
0.93786077
0.94009951
0.94226444
0.94437658
0.94644636
0.948477
0.9504672
0.95241311
0.95430948
0.95615095
0.95793253
0.95965002
0.96129999
0.96288002
0.96438852
0.96582478
0.96718881
0.96848134
0.96970364
0.97085735
0.9719446
0.97296774
0.97392931
0.97483201
0.97567865
0.97647199
0.97721487
0.97791015
0.97856023
0.97916905
0.97973412
0.98026631
0.17272792
0.17440349
0.17724697
0.18136013
0.18684943
0.19381275
0.2023279
0.21244601
0.22418878
0.23754841
0.25248925
0.26895074
0.28685075
0.30608902
0.32654989
0.34810407
0.37060917
0.39390912
0.4178326
0.4421909
0.46677524
0.49135692
0.51569059
0.53949888
0.56251165
0.58445268
0.60506332
0.62411932
0.64144866
0.65694589
0.67058065
0.68239822
0.69251179
0.70108813
0.70833072
0.71445477
0.71967346
0.72418137
0.72814772
0.73120041
0.73360495
0.73594486
0.73825852
0.74056983
0.74288778
0.74521086
0.74753151
0.74983901
0.7521213
0.75436629
0.75656277
0.75870079
0.76077195
0.76276949
0.76468824
0.76652447
0.76827593
0.76994148
0.77152108
0.77301553
0.77442637
0.77575571
0.77700609
0.77818038
0.77928173
0.78031342
0.7812788
0.78218129
0.78302424
0.78381109
0.78454475
0.7852297
0.78586401
0.78646025
0.16965871
0.17028489
0.17185934
0.17444059
0.17809269
0.18288185
0.18886795
0.19609573
0.20458961
0.21435172
0.22536216
0.23758038
0.25094732
0.26538765
0.28081173
0.29711707
0.31418886
0.33189976
0.35010884
0.36866023
0.38738127
0.40608316
0.42456415
0.44259751
0.45996441
0.4764438
0.49183282
0.50596088
0.5187046
0.52999913
0.53984407
0.54830221
0.55549113
0.5615715
0.56672382
0.57113458
0.57498089
0.57841969
0.58101841
0.58336638
0.58573043
0.58814651
0.59062894
0.59317664
0.5957788
0.59841897
0.60107786
0.60373528
0.60637165
0.60896896
0.61151135
0.61398538
0.61638012
0.61868707
0.6209
0.62301454
0.62502817
0.62693987
0.62874984
0.63045935
0.63207048
0.63358593
0.63500891
0.63634299
0.63759199
0.63875988
0.63985069
0.64086849
0.64181731
0.64270119
0.64352367
0.64428974
0.64499822
0.64566173
0.1675681
0.167398
0.16801601
0.16945448
0.17174815
0.17493268
0.17904306
0.18410939
0.1901514
0.1971745
0.20516821
0.21410626
0.2239476
0.23463775
0.24611003
0.2582865
0.27107825
0.28438519
0.29809517
0.31208296
0.32620885
0.34031931
0.35425032
0.36781762
0.38084425
0.39315324
0.40458505
0.41500994
0.42434035
0.43254024
0.43962906
0.44567944
0.45081045
0.45516924
0.45891688
0.46221517
0.46521186
0.46754582
0.46981273
0.4721755
0.47466615
0.47729332
0.48004964
0.48291699
0.48587055
0.4888821
0.49192256
0.49496375
0.49797995
0.50094856
0.50385038
0.50666964
0.50939388
0.51201367
0.51452227
0.5169153
0.51919042