/*--------------------------------*- C++ -*----------------------------------*\
| =========                 |                                                 |
| \\      /  F ield         | OpenFOAM: The Open Source CFD Toolbox           |
|  \\    /   O peration     | Version:  v2006                                 |
|   \\  /    A nd           | Website:  www.openfoam.com                      |
|    \\/     M anipulation  |                                                 |
\*---------------------------------------------------------------------------*/
FoamFile
{
    version     2.0;
    format      ascii;
    class       volScalarField;
    location    "10000";
    object      p;
}
// * * * * * * * * * * * * * * * * * * * * * * * * * * * * * * * * * * * * * //

dimensions      [1 -1 -2 0 0 0 0];


internalField   nonuniform List<scalar> 
55713
(
1.0000376
1.0000376
1.0000376
1.0000376
1.0000376
1.0000376
1.0000376
1.0000376
1.0000376
1.0000376
1.0000376
1.0000376
1.0000376
1.0000376
1.0000376
1.0000376
1.0000376
1.0000376
1.0000376
1.0000376
1.0000376
1.0000376
1.0000376
1.0000376
1.0000376
1.0000376
1.0000376
1.0000376
1.0000376
1.0000376
1.0000376
1.0000376
1.0000376
1.0000376
1.0000376
1.0000376
1.0000376
1.0000376
1.0000376
1.0000376
1.0000376
1.0000376
1.0000376
1.0000376
1.0000376
1.0000376
1.0000376
1.0000376
1.0000376
1.0000376
1.0000376
1.0000376
1.0000376
1.0000376
1.0000376
1.0000376
1.0000376
1.0000376
1.0000376
1.0000354
1.0000354
1.0000354
1.0000354
1.0000354
1.0000354
1.0000354
1.0000354
1.0000354
1.0000354
1.0000354
1.0000354
1.0000354
1.0000354
1.0000354
1.0000354
1.0000354
1.0000354
1.0000354
1.0000354
1.0000354
1.0000354
1.0000354
1.0000354
1.0000354
1.0000354
1.0000354
1.0000354
1.0000354
1.0000354
1.0000354
1.0000354
1.0000354
1.0000354
1.0000354
1.0000354
1.0000354
1.0000354
1.0000354
1.0000354
1.0000354
1.0000354
1.0000354
1.0000354
1.0000354
1.0000354
1.0000354
1.0000354
1.0000354
1.0000354
1.0000354
1.0000354
1.0000354
1.0000354
1.0000354
1.0000354
1.0000354
1.0000354
1.0000354
1.0000335
1.0000335
1.0000335
1.0000335
1.0000335
1.0000335
1.0000335
1.0000335
1.0000335
1.0000335
1.0000335
1.0000335
1.0000335
1.0000335
1.0000335
1.0000335
1.0000335
1.0000335
1.0000335
1.0000335
1.0000335
1.0000335
1.0000335
1.0000335
1.0000335
1.0000336
1.0000336
1.0000336
1.0000336
1.0000336
1.0000336
1.0000336
1.0000336
1.0000336
1.0000336
1.0000336
1.0000336
1.0000336
1.0000336
1.0000336
1.0000336
1.0000336
1.0000336
1.0000336
1.0000336
1.0000336
1.0000336
1.0000336
1.0000336
1.0000336
1.0000336
1.0000336
1.0000336
1.0000336
1.0000336
1.0000336
1.0000336
1.0000336
1.0000336
1.0000319
1.0000319
1.0000319
1.0000319
1.0000319
1.0000319
1.0000319
1.0000319
1.0000319
1.0000319
1.0000319
1.0000319
1.0000319
1.0000319
1.0000319
1.0000319
1.0000319
1.0000319
1.0000319
1.0000319
1.0000319
1.0000319
1.0000319
1.0000319
1.0000319
1.0000319
1.0000319
1.0000319
1.0000319
1.0000319
1.0000319
1.0000319
1.0000319
1.0000319
1.0000319
1.0000319
1.0000319
1.0000319
1.0000319
1.0000319
1.0000319
1.0000319
1.0000319
1.0000319
1.0000319
1.0000319
1.0000319
1.0000319
1.0000319
1.0000319
1.0000319
1.0000319
1.0000319
1.0000319
1.0000319
1.0000319
1.0000319
1.0000319
1.000032
1.0000304
1.0000304
1.0000304
1.0000305
1.0000305
1.0000305
1.0000305
1.0000305
1.0000305
1.0000305
1.0000305
1.0000305
1.0000305
1.0000305
1.0000305
1.0000305
1.0000305
1.0000305
1.0000305
1.0000305
1.0000305
1.0000305
1.0000305
1.0000305
1.0000305
1.0000305
1.0000305
1.0000305
1.0000305
1.0000305
1.0000305
1.0000305
1.0000305
1.0000305
1.0000305
1.0000305
1.0000305
1.0000305
1.0000305
1.0000305
1.0000305
1.0000305
1.0000305
1.0000305
1.0000305
1.0000305
1.0000305
1.0000305
1.0000305
1.0000305
1.0000305
1.0000305
1.0000305
1.0000305
1.0000305
1.0000305
1.0000305
1.0000305
1.0000305
1.0000292
1.0000292
1.0000292
1.0000292
1.0000292
1.0000292
1.0000292
1.0000292
1.0000292
1.0000292
1.0000292
1.0000292
1.0000292
1.0000293
1.0000293
1.0000293
1.0000293
1.0000293
1.0000293
1.0000293
1.0000293
1.0000293
1.0000293
1.0000293
1.0000293
1.0000293
1.0000293
1.0000293
1.0000293
1.0000293
1.0000293
1.0000293
1.0000293
1.0000293
1.0000293
1.0000293
1.0000293
1.0000293
1.0000293
1.0000293
1.0000293
1.0000293
1.0000293
1.0000293
1.0000293
1.0000293
1.0000293
1.0000293
1.0000293
1.0000293
1.0000293
1.0000293
1.0000293
1.0000293
1.0000293
1.0000293
1.0000293
1.0000293
1.0000293
1.0000282
1.0000282
1.0000282
1.0000282
1.0000282
1.0000282
1.0000282
1.0000282
1.0000282
1.0000282
1.0000282
1.0000282
1.0000282
1.0000282
1.0000282
1.0000282
1.0000282
1.0000282
1.0000282
1.0000282
1.0000282
1.0000282
1.0000282
1.0000282
1.0000282
1.0000282
1.0000282
1.0000282
1.0000282
1.0000282
1.0000282
1.0000282
1.0000282
1.0000282
1.0000282
1.0000282
1.0000282
1.0000282
1.0000282
1.0000282
1.0000282
1.0000282
1.0000282
1.0000282
1.0000282
1.0000282
1.0000282
1.0000282
1.0000282
1.0000282
1.0000282
1.0000282
1.0000282
1.0000282
1.0000282
1.0000282
1.0000282
1.0000282
1.0000283
1.0000273
1.0000273
1.0000273
1.0000273
1.0000273
1.0000273
1.0000273
1.0000273
1.0000273
1.0000273
1.0000273
1.0000273
1.0000273
1.0000273
1.0000273
1.0000273
1.0000273
1.0000273
1.0000273
1.0000273
1.0000273
1.0000273
1.0000273
1.0000273
1.0000273
1.0000273
1.0000273
1.0000273
1.0000273
1.0000273
1.0000273
1.0000273
1.0000273
1.0000273
1.0000273
1.0000273
1.0000273
1.0000273
1.0000273
1.0000273
1.0000273
1.0000273
1.0000273
1.0000273
1.0000273
1.0000273
1.0000273
1.0000273
1.0000273
1.0000273
1.0000273
1.0000273
1.0000273
1.0000273
1.0000273
1.0000273
1.0000273
1.0000273
1.0000273
1.0000266
1.0000266
1.0000266
1.0000266
1.0000266
1.0000266
1.0000266
1.0000266
1.0000266
1.0000266
1.0000266
1.0000266
1.0000266
1.0000266
1.0000266
1.0000266
1.0000266
1.0000266
1.0000266
1.0000266
1.0000266
1.0000266
1.0000266
1.0000266
1.0000266
1.0000266
1.0000266
1.0000266
1.0000266
1.0000266
1.0000266
1.0000266
1.0000266
1.0000266
1.0000266
1.0000266
1.0000266
1.0000266
1.0000266
1.0000266
1.0000266
1.0000266
1.0000266
1.0000266
1.0000266
1.0000266
1.0000266
1.0000266
1.0000266
1.0000266
1.0000266
1.0000266
1.0000266
1.0000266
1.0000266
1.0000266
1.0000266
1.0000266
1.0000266
1.0000259
1.0000259
1.0000259
1.0000259
1.0000259
1.000026
1.000026
1.000026
1.000026
1.000026
1.000026
1.000026
1.000026
1.000026
1.000026
1.000026
1.000026
1.000026
1.000026
1.000026
1.000026
1.000026
1.000026
1.000026
1.000026
1.000026
1.000026
1.000026
1.000026
1.000026
1.000026
1.000026
1.000026
1.000026
1.000026
1.000026
1.000026
1.000026
1.000026
1.000026
1.000026
1.000026
1.000026
1.000026
1.000026
1.000026
1.000026
1.000026
1.000026
1.000026
1.000026
1.000026
1.000026
1.000026
1.000026
1.000026
1.000026
1.000026
1.000026
1.0000251
1.0000251
1.0000251
1.0000251
1.0000251
1.0000251
1.0000251
1.0000251
1.0000251
1.0000251
1.0000251
1.0000251
1.0000251
1.0000251
1.0000251
1.0000251
1.0000251
1.0000251
1.0000251
1.0000251
1.0000251
1.0000251
1.0000251
1.0000251
1.0000251
1.0000251
1.0000251
1.0000251
1.0000251
1.0000251
1.0000251
1.0000251
1.0000251
1.0000251
1.0000251
1.0000251
1.0000251
1.0000251
1.0000251
1.0000251
1.0000251
1.0000251
1.0000251
1.0000251
1.0000251
1.0000251
1.0000251
1.0000251
1.0000251
1.0000251
1.0000251
1.0000251
1.0000251
1.0000251
1.0000251
1.0000251
1.0000251
1.0000251
1.0000251
1.0000256
1.0000256
1.0000256
1.0000256
1.0000256
1.0000256
1.0000255
1.0000255
1.0000255
1.0000255
1.0000255
1.0000255
1.0000255
1.0000255
1.0000255
1.0000255
1.0000255
1.0000255
1.0000255
1.0000255
1.0000255
1.0000255
1.0000255
1.0000255
1.0000255
1.0000255
1.0000255
1.0000255
1.0000255
1.0000255
1.0000255
1.0000255
1.0000255
1.0000255
1.0000255
1.0000255
1.0000255
1.0000255
1.0000255
1.0000255
1.0000255
1.0000255
1.0000255
1.0000255
1.0000255
1.0000255
1.0000255
1.0000255
1.0000255
1.0000255
1.0000255
1.0000255
1.0000255
1.0000255
1.0000255
1.0000255
1.0000255
1.0000255
1.0000255
1.0000292
1.0000292
1.0000292
1.0000292
1.0000292
1.0000292
1.0000292
1.0000292
1.0000292
1.0000292
1.0000292
1.0000292
1.0000292
1.0000292
1.0000292
1.0000292
1.0000292
1.0000292
1.0000292
1.0000292
1.0000292
1.0000292
1.0000292
1.0000292
1.0000292
1.0000293
1.0000293
1.0000293
1.0000293
1.0000293
1.0000293
1.0000293
1.0000293
1.0000293
1.0000293
1.0000293
1.0000293
1.0000293
1.0000293
1.0000293
1.0000293
1.0000293
1.0000293
1.0000293
1.0000293
1.0000293
1.0000293
1.0000293
1.0000293
1.0000293
1.0000293
1.0000293
1.0000293
1.0000293
1.0000293
1.0000293
1.0000293
1.0000293
1.0000293
1.0000157
1.0000157
1.0000157
1.0000157
1.0000157
1.0000157
1.0000157
1.0000157
1.0000157
1.0000157
1.0000157
1.0000157
1.0000157
1.0000158
1.0000158
1.0000158
1.0000158
1.0000158
1.0000158
1.0000158
1.0000158
1.0000158
1.0000158
1.0000158
1.0000158
1.0000158
1.0000158
1.0000158
1.0000158
1.0000158
1.0000158
1.0000158
1.0000158
1.0000158
1.0000158
1.0000158
1.0000158
1.0000158
1.0000158
1.0000158
1.0000158
1.0000158
1.0000158
1.0000158
1.0000158
1.0000158
1.0000158
1.0000158
1.0000158
1.0000158
1.0000158
1.0000158
1.0000158
1.0000158
1.0000158
1.0000158
1.0000158
1.0000158
1.0000158
1.0001286
1.0001287
1.0001287
1.0001287
1.0001288
1.0001288
1.0001288
1.0001289
1.0001289
1.0001289
1.000129
1.000129
1.000129
1.0001291
1.0001291
1.0001291
1.0001292
1.0001292
1.0001292
1.0001292
1.0001293
1.0001293
1.0001293
1.0001293
1.0001294
1.0001294
1.0001294
1.0001294
1.0001295
1.0001295
1.0001295
1.0001295
1.0001295
1.0001295
1.0001296
1.0001296
1.0001296
1.0001296
1.0001296
1.0001296
1.0001296
1.0001297
1.0001297
1.0001297
1.0001297
1.0001297
1.0001297
1.0001297
1.0001297
1.0001297
1.0001297
1.0001297
1.0001297
1.0001297
1.0001297
1.0001297
1.0001297
1.0001297
1.0001297
1.0001182
1.0001182
1.0001182
1.0001182
1.0001183
1.0001183
1.0001183
1.0001184
1.0001184
1.0001184
1.0001185
1.0001185
1.0001185
1.0001185
1.0001186
1.0001186
1.0001186
1.0001186
1.0001187
1.0001187
1.0001187
1.0001187
1.0001187
1.0001188
1.0001188
1.0001188
1.0001188
1.0001188
1.0001189
1.0001189
1.0001189
1.0001189
1.0001189
1.0001189
1.000119
1.000119
1.000119
1.000119
1.000119
1.000119
1.000119
1.000119
1.0001191
1.0001191
1.0001191
1.0001191
1.0001191
1.0001191
1.0001191
1.0001191
1.0001191
1.0001191
1.0001191
1.0001191
1.0001191
1.0001191
1.0001191
1.0001191
1.0001191
1.0001087
1.0001087
1.0001087
1.0001088
1.0001088
1.0001088
1.0001088
1.0001089
1.0001089
1.0001089
1.0001089
1.0001089
1.000109
1.000109
1.000109
1.000109
1.000109
1.0001091
1.0001091
1.0001091
1.0001091
1.0001091
1.0001092
1.0001092
1.0001092
1.0001092
1.0001092
1.0001092
1.0001092
1.0001093
1.0001093
1.0001093
1.0001093
1.0001093
1.0001093
1.0001093
1.0001093
1.0001094
1.0001094
1.0001094
1.0001094
1.0001094
1.0001094
1.0001094
1.0001094
1.0001094
1.0001094
1.0001094
1.0001094
1.0001094
1.0001094
1.0001094
1.0001094
1.0001095
1.0001095
1.0001095
1.0001095
1.0001095
1.0001095
1.0000997
1.0000997
1.0000997
1.0000998
1.0000998
1.0000998
1.0000998
1.0000998
1.0000999
1.0000999
1.0000999
1.0000999
1.0000999
1.0000999
1.0001
1.0001
1.0001
1.0001
1.0001
1.0001
1.0001001
1.0001001
1.0001001
1.0001001
1.0001001
1.0001001
1.0001001
1.0001001
1.0001002
1.0001002
1.0001002
1.0001002
1.0001002
1.0001002
1.0001002
1.0001002
1.0001002
1.0001002
1.0001003
1.0001003
1.0001003
1.0001003
1.0001003
1.0001003
1.0001003
1.0001003
1.0001003
1.0001003
1.0001003
1.0001003
1.0001003
1.0001003
1.0001003
1.0001003
1.0001003
1.0001003
1.0001003
1.0001003
1.0001003
1.0000913
1.0000914
1.0000914
1.0000914
1.0000914
1.0000914
1.0000914
1.0000915
1.0000915
1.0000915
1.0000915
1.0000915
1.0000915
1.0000916
1.0000916
1.0000916
1.0000916
1.0000916
1.0000916
1.0000916
1.0000916
1.0000917
1.0000917
1.0000917
1.0000917
1.0000917
1.0000917
1.0000917
1.0000917
1.0000917
1.0000917
1.0000917
1.0000918
1.0000918
1.0000918
1.0000918
1.0000918
1.0000918
1.0000918
1.0000918
1.0000918
1.0000918
1.0000918
1.0000918
1.0000918
1.0000918
1.0000918
1.0000918
1.0000918
1.0000918
1.0000919
1.0000919
1.0000919
1.0000919
1.0000919
1.0000919
1.0000919
1.0000919
1.0000919
1.0000836
1.0000836
1.0000836
1.0000836
1.0000836
1.0000836
1.0000836
1.0000837
1.0000837
1.0000837
1.0000837
1.0000837
1.0000837
1.0000837
1.0000837
1.0000838
1.0000838
1.0000838
1.0000838
1.0000838
1.0000838
1.0000838
1.0000838
1.0000838
1.0000838
1.0000838
1.0000839
1.0000839
1.0000839
1.0000839
1.0000839
1.0000839
1.0000839
1.0000839
1.0000839
1.0000839
1.0000839
1.0000839
1.0000839
1.0000839
1.0000839
1.0000839
1.0000839
1.000084
1.000084
1.000084
1.000084
1.000084
1.000084
1.000084
1.000084
1.000084
1.000084
1.000084
1.000084
1.000084
1.000084
1.000084
1.000084
1.0000764
1.0000764
1.0000764
1.0000764
1.0000764
1.0000764
1.0000764
1.0000764
1.0000764
1.0000765
1.0000765
1.0000765
1.0000765
1.0000765
1.0000765
1.0000765
1.0000765
1.0000765
1.0000765
1.0000765
1.0000765
1.0000766
1.0000766
1.0000766
1.0000766
1.0000766
1.0000766
1.0000766
1.0000766
1.0000766
1.0000766
1.0000766
1.0000766
1.0000766
1.0000766
1.0000766
1.0000766
1.0000766
1.0000766
1.0000767
1.0000767
1.0000767
1.0000767
1.0000767
1.0000767
1.0000767
1.0000767
1.0000767
1.0000767
1.0000767
1.0000767
1.0000767
1.0000767
1.0000767
1.0000767
1.0000767
1.0000767
1.0000767
1.0000767
1.0000697
1.0000697
1.0000697
1.0000697
1.0000697
1.0000697
1.0000697
1.0000698
1.0000698
1.0000698
1.0000698
1.0000698
1.0000698
1.0000698
1.0000698
1.0000698
1.0000698
1.0000698
1.0000698
1.0000698
1.0000698
1.0000698
1.0000699
1.0000699
1.0000699
1.0000699
1.0000699
1.0000699
1.0000699
1.0000699
1.0000699
1.0000699
1.0000699
1.0000699
1.0000699
1.0000699
1.0000699
1.0000699
1.0000699
1.0000699
1.0000699
1.0000699
1.0000699
1.0000699
1.0000699
1.0000699
1.0000699
1.0000699
1.0000699
1.0000699
1.0000699
1.00007
1.00007
1.00007
1.00007
1.00007
1.00007
1.00007
1.00007
1.0000635
1.0000635
1.0000636
1.0000636
1.0000636
1.0000636
1.0000636
1.0000636
1.0000636
1.0000636
1.0000636
1.0000636
1.0000636
1.0000636
1.0000636
1.0000636
1.0000636
1.0000636
1.0000637
1.0000637
1.0000637
1.0000637
1.0000637
1.0000637
1.0000637
1.0000637
1.0000637
1.0000637
1.0000637
1.0000637
1.0000637
1.0000637
1.0000637
1.0000637
1.0000637
1.0000637
1.0000637
1.0000637
1.0000637
1.0000637
1.0000637
1.0000637
1.0000637
1.0000637
1.0000637
1.0000637
1.0000637
1.0000637
1.0000637
1.0000637
1.0000637
1.0000638
1.0000638
1.0000638
1.0000638
1.0000638
1.0000638
1.0000638
1.0000638
1.0000579
1.0000579
1.0000579
1.0000579
1.0000579
1.0000579
1.0000579
1.0000579
1.0000579
1.0000579
1.0000579
1.000058
1.000058
1.000058
1.000058
1.000058
1.000058
1.000058
1.000058
1.000058
1.000058
1.000058
1.000058
1.000058
1.000058
1.000058
1.000058
1.000058
1.000058
1.000058
1.000058
1.000058
1.000058
1.000058
1.000058
1.000058
1.000058
1.000058
1.000058
1.000058
1.000058
1.000058
1.000058
1.000058
1.000058
1.0000581
1.0000581
1.0000581
1.0000581
1.0000581
1.0000581
1.0000581
1.0000581
1.0000581
1.0000581
1.0000581
1.0000581
1.0000581
1.0000581
1.0000527
1.0000527
1.0000527
1.0000527
1.0000527
1.0000527
1.0000528
1.0000528
1.0000528
1.0000528
1.0000528
1.0000528
1.0000528
1.0000528
1.0000528
1.0000528
1.0000528
1.0000528
1.0000528
1.0000528
1.0000528
1.0000528
1.0000528
1.0000528
1.0000528
1.0000528
1.0000528
1.0000528
1.0000528
1.0000528
1.0000528
1.0000528
1.0000528
1.0000528
1.0000528
1.0000528
1.0000528
1.0000528
1.0000528
1.0000528
1.0000528
1.0000528
1.0000528
1.0000528
1.0000529
1.0000529
1.0000529
1.0000529
1.0000529
1.0000529
1.0000529
1.0000529
1.0000529
1.0000529
1.0000529
1.0000529
1.0000529
1.0000529
1.0000529
1.000048
1.000048
1.000048
1.000048
1.000048
1.000048
1.000048
1.000048
1.000048
1.000048
1.000048
1.000048
1.000048
1.000048
1.000048
1.000048
1.000048
1.000048
1.000048
1.000048
1.000048
1.000048
1.000048
1.0000481
1.0000481
1.0000481
1.0000481
1.0000481
1.0000481
1.0000481
1.0000481
1.0000481
1.0000481
1.0000481
1.0000481
1.0000481
1.0000481
1.0000481
1.0000481
1.0000481
1.0000481
1.0000481
1.0000481
1.0000481
1.0000481
1.0000481
1.0000481
1.0000481
1.0000481
1.0000481
1.0000481
1.0000481
1.0000481
1.0000481
1.0000481
1.0000481
1.0000481
1.0000481
1.0000481
1.0000436
1.0000436
1.0000436
1.0000436
1.0000436
1.0000436
1.0000436
1.0000436
1.0000436
1.0000436
1.0000436
1.0000436
1.0000436
1.0000436
1.0000436
1.0000436
1.0000437
1.0000437
1.0000437
1.0000437
1.0000437
1.0000437
1.0000437
1.0000437
1.0000437
1.0000437
1.0000437
1.0000437
1.0000437
1.0000437
1.0000437
1.0000437
1.0000437
1.0000437
1.0000437
1.0000437
1.0000437
1.0000437
1.0000437
1.0000437
1.0000437
1.0000437
1.0000437
1.0000437
1.0000437
1.0000437
1.0000437
1.0000437
1.0000437
1.0000437
1.0000437
1.0000437
1.0000437
1.0000437
1.0000437
1.0000437
1.0000437
1.0000437
1.0000437
1.0000402
1.0000402
1.0000402
1.0000402
1.0000402
1.0000402
1.0000402
1.0000402
1.0000402
1.0000402
1.0000402
1.0000402
1.0000402
1.0000402
1.0000402
1.0000402
1.0000402
1.0000402
1.0000402
1.0000402
1.0000402
1.0000402
1.0000402
1.0000402
1.0000402
1.0000402
1.0000402
1.0000402
1.0000402
1.0000402
1.0000402
1.0000402
1.0000402
1.0000402
1.0000402
1.0000402
1.0000402
1.0000402
1.0000402
1.0000402
1.0000402
1.0000402
1.0000402
1.0000402
1.0000402
1.0000402
1.0000402
1.0000402
1.0000402
1.0000402
1.0000402
1.0000402
1.0000402
1.0000402
1.0000402
1.0000402
1.0000402
1.0000402
1.0000402
1.0001413
1.0001554
1.0001725
1.000191
1.0002111
1.0002331
1.0002569
1.0002828
1.0003108
1.000341
1.0003734
1.0004081
1.000445
1.0004841
1.0005253
1.0005684
1.0006131
1.000659
1.0007056
1.0007524
1.0007985
1.0008431
1.0008851
1.0009235
1.000957
1.0009845
1.0010046
1.0010163
1.0010185
1.0010104
1.0009915
1.0009616
1.0009206
1.0008691
1.0008077
1.0007372
1.0006588
1.0005737
1.0004832
1.0003885
1.000291
1.0001918
1.0000921
0.99999264
0.99989441
0.99979805
0.99970414
0.99961312
0.99952535
0.99944111
0.99936057
0.99928385
0.99921098
0.99914197
0.99907679
0.99901535
0.99895757
0.99890332
0.99885246
0.99880486
0.99876038
0.99871885
0.99868013
0.99864406
0.99861049
0.99857927
0.99855028
0.99852336
0.99849839
0.99847523
0.99845379
0.99843393
0.99841561
0.99839864
1.0001413
1.0001554
1.0001725
1.000191
1.0002111
1.0002331
1.0002569
1.0002828
1.0003108
1.000341
1.0003734
1.0004081
1.000445
1.0004841
1.0005253
1.0005684
1.0006131
1.000659
1.0007056
1.0007524
1.0007985
1.0008431
1.0008851
1.0009235
1.000957
1.0009845
1.0010046
1.0010163
1.0010185
1.0010104
1.0009915
1.0009616
1.0009207
1.0008691
1.0008077
1.0007372
1.0006588
1.0005736
1.0004831
1.0003885
1.000291
1.0001918
1.0000921
0.99999263
0.9998944
0.99979803
0.99970412
0.9996131
0.99952533
0.99944109
0.99936056
0.99928383
0.99921096
0.99914195
0.99907676
0.99901532
0.99895754
0.99890329
0.99885243
0.99880483
0.99876034
0.99871882
0.99868009
0.99864402
0.99861044
0.99857922
0.99855022
0.9985233
0.99849833
0.99847518
0.99845373
0.99843386
0.99841551
0.99839843
1.0001413
1.0001554
1.0001725
1.000191
1.0002111
1.0002331
1.0002569
1.0002828
1.0003108
1.000341
1.0003734
1.0004081
1.000445
1.0004841
1.0005253
1.0005684
1.0006131
1.000659
1.0007056
1.0007524
1.0007985
1.0008431
1.0008851
1.0009235
1.0009571
1.0009845
1.0010046
1.0010163
1.0010185
1.0010104
1.0009915
1.0009616
1.0009207
1.0008692
1.0008077
1.0007372
1.0006588
1.0005737
1.0004832
1.0003885
1.000291
1.0001918
1.0000921
0.99999265
0.9998944
0.99979802
0.99970409
0.99961307
0.99952532
0.99944109
0.99936055
0.99928382
0.99921096
0.99914195
0.99907676
0.99901533
0.99895754
0.99890329
0.99885244
0.99880484
0.99876036
0.99871883
0.99868011
0.99864404
0.99861047
0.99857925
0.99855025
0.99852333
0.99849835
0.99847519
0.99845373
0.99843385
0.99841548
0.99839836
1.0001413
1.0001554
1.0001725
1.000191
1.0002111
1.0002331
1.0002569
1.0002828
1.0003108
1.000341
1.0003734
1.0004081
1.000445
1.0004841
1.0005253
1.0005684
1.0006131
1.000659
1.0007056
1.0007524
1.0007985
1.0008431
1.0008851
1.0009235
1.0009571
1.0009845
1.0010046
1.0010163
1.0010185
1.0010105
1.0009916
1.0009617
1.0009207
1.0008692
1.0008078
1.0007373
1.0006589
1.0005738
1.0004832
1.0003886
1.0002911
1.0001919
1.0000921
0.99999273
0.99989448
0.9997981
0.99970418
0.99961316
0.9995254
0.99944115
0.99936061
0.99928388
0.99921101
0.999142
0.9990768
0.99901536
0.99895755
0.99890329
0.99885243
0.99880483
0.99876034
0.99871881
0.99868008
0.99864401
0.99861044
0.99857923
0.99855023
0.99852331
0.99849833
0.99847517
0.99845371
0.99843382
0.99841543
0.99839828
1.0001413
1.0001554
1.0001725
1.000191
1.0002111
1.000233
1.0002569
1.0002828
1.0003108
1.000341
1.0003734
1.0004081
1.000445
1.0004841
1.0005253
1.0005684
1.0006131
1.000659
1.0007056
1.0007524
1.0007985
1.0008431
1.0008851
1.0009236
1.0009571
1.0009845
1.0010047
1.0010164
1.0010186
1.0010105
1.0009917
1.0009617
1.0009208
1.0008693
1.0008079
1.0007374
1.000659
1.0005739
1.0004834
1.0003887
1.0002912
1.0001921
1.0000923
0.99999287
0.99989461
0.99979823
0.9997043
0.99961327
0.99952551
0.99944127
0.99936072
0.99928399
0.99921112
0.9991421
0.99907691
0.99901546
0.99895767
0.99890341
0.99885255
0.99880494
0.99876045
0.99871892
0.99868019
0.99864412
0.99861055
0.99857933
0.99855032
0.99852339
0.9984984
0.99847522
0.99845374
0.99843384
0.99841543
0.99839828
1.0001413
1.0001554
1.0001725
1.000191
1.0002111
1.000233
1.0002569
1.0002828
1.0003108
1.000341
1.0003734
1.0004081
1.000445
1.0004841
1.0005253
1.0005684
1.0006131
1.000659
1.0007056
1.0007524
1.0007985
1.0008431
1.0008851
1.0009236
1.0009571
1.0009846
1.0010047
1.0010164
1.0010187
1.0010106
1.0009918
1.0009619
1.000921
1.0008695
1.0008081
1.0007376
1.0006592
1.0005741
1.0004836
1.000389
1.0002915
1.0001923
1.0000925
0.9999931
0.99989485
0.99979846
0.99970453
0.9996135
0.99952573
0.99944148
0.99936093
0.99928419
0.99921131
0.99914229
0.99907709
0.99901564
0.99895783
0.99890356
0.99885269
0.99880509
0.99876059
0.99871905
0.99868032
0.99864423
0.99861066
0.99857944
0.99855043
0.99852349
0.9984985
0.99847532
0.99845383
0.99843392
0.9984155
0.99839834
1.0001413
1.0001554
1.0001725
1.000191
1.0002111
1.000233
1.0002569
1.0002828
1.0003108
1.000341
1.0003734
1.0004081
1.000445
1.0004841
1.0005253
1.0005684
1.000613
1.000659
1.0007056
1.0007523
1.0007985
1.0008431
1.0008851
1.0009236
1.0009571
1.0009846
1.0010048
1.0010165
1.0010188
1.0010108
1.000992
1.0009621
1.0009212
1.0008698
1.0008084
1.0007379
1.0006595
1.0005745
1.000484
1.0003893
1.0002918
1.0001927
1.0000929
0.99999346
0.9998952
0.99979881
0.99970486
0.99961383
0.99952605
0.99944179
0.99936124
0.99928449
0.99921161
0.99914258
0.99907737
0.99901592
0.99895811
0.99890384
0.99885297
0.99880536
0.99876086
0.99871931
0.99868058
0.9986445
0.99861092
0.99857969
0.99855067
0.99852373
0.99849872
0.99847552
0.99845402
0.99843409
0.99841565
0.99839848
1.0001413
1.0001554
1.0001725
1.000191
1.0002111
1.000233
1.0002569
1.0002828
1.0003108
1.000341
1.0003734
1.000408
1.000445
1.0004841
1.0005253
1.0005683
1.000613
1.0006589
1.0007056
1.0007523
1.0007984
1.0008431
1.0008851
1.0009236
1.0009572
1.0009847
1.0010049
1.0010166
1.0010189
1.001011
1.0009922
1.0009624
1.0009215
1.0008701
1.0008088
1.0007383
1.00066
1.0005749
1.0004845
1.0003898
1.0002924
1.0001932
1.0000934
0.99999398
0.99989571
0.99979932
0.99970537
0.99961432
0.99952654
0.99944227
0.99936171
0.99928495
0.99921206
0.99914302
0.99907781
0.99901634
0.99895852
0.99890424
0.99885336
0.99880574
0.99876123
0.99871968
0.99868093
0.99864484
0.99861125
0.99858001
0.99855098
0.99852403
0.99849901
0.99847581
0.9984543
0.99843436
0.99841592
0.99839873
1.0001413
1.0001554
1.0001725
1.0001909
1.0002111
1.000233
1.0002569
1.0002828
1.0003108
1.0003409
1.0003734
1.000408
1.0004449
1.0004841
1.0005252
1.0005683
1.000613
1.0006589
1.0007056
1.0007523
1.0007984
1.000843
1.0008851
1.0009236
1.0009572
1.0009847
1.001005
1.0010168
1.0010191
1.0010112
1.0009925
1.0009627
1.000922
1.0008706
1.0008093
1.0007389
1.0006606
1.0005756
1.0004852
1.0003906
1.0002931
1.0001939
1.0000942
0.99999472
0.99989645
0.99980005
0.99970609
0.99961504
0.99952724
0.99944296
0.99936238
0.99928562
0.99921271
0.99914366
0.99907843
0.99901695
0.99895912
0.99890483
0.99885394
0.99880631
0.99876179
0.99872024
0.99868148
0.99864538
0.99861179
0.99858054
0.9985515
0.99852454
0.99849951
0.9984763
0.99845477
0.99843482
0.99841636
0.99839915
1.0001413
1.0001554
1.0001725
1.0001909
1.0002111
1.000233
1.0002569
1.0002828
1.0003108
1.0003409
1.0003733
1.000408
1.0004449
1.000484
1.0005252
1.0005683
1.000613
1.0006589
1.0007055
1.0007523
1.0007984
1.000843
1.0008851
1.0009237
1.0009573
1.0009849
1.0010051
1.001017
1.0010194
1.0010116
1.0009929
1.0009633
1.0009226
1.0008713
1.0008101
1.0007398
1.0006615
1.0005765
1.0004861
1.0003916
1.0002941
1.000195
1.0000952
0.99999576
0.99989749
0.99980108
0.9997071
0.99961603
0.99952822
0.99944392
0.99936332
0.99928653
0.9992136
0.99914453
0.99907928
0.99901779
0.99895994
0.99890563
0.99885472
0.99880707
0.99876254
0.99872096
0.99868219
0.99864607
0.99861246
0.99858119
0.99855214
0.99852516
0.99850012
0.99847689
0.99845536
0.9984354
0.99841694
0.99839973
1.0001413
1.0001554
1.0001724
1.0001909
1.000211
1.000233
1.0002569
1.0002827
1.0003107
1.0003409
1.0003733
1.000408
1.0004449
1.000484
1.0005252
1.0005682
1.0006129
1.0006588
1.0007055
1.0007522
1.0007984
1.000843
1.0008851
1.0009237
1.0009574
1.000985
1.0010053
1.0010173
1.0010198
1.001012
1.0009935
1.0009639
1.0009234
1.0008722
1.0008111
1.0007409
1.0006627
1.0005778
1.0004874
1.0003929
1.0002955
1.0001964
1.0000966
0.99999718
0.9998989
0.99980247
0.99970847
0.99961737
0.99952953
0.9994452
0.99936458
0.99928776
0.99921481
0.99914572
0.99908045
0.99901893
0.99896106
0.99890673
0.9988558
0.99880814
0.99876359
0.998722
0.99868322
0.99864708
0.99861346
0.99858218
0.99855312
0.99852612
0.99850107
0.99847783
0.99845629
0.99843632
0.99841784
0.99840063
1.0001413
1.0001553
1.0001724
1.0001909
1.000211
1.000233
1.0002568
1.0002827
1.0003107
1.0003409
1.0003733
1.0004079
1.0004448
1.0004839
1.0005251
1.0005682
1.0006129
1.0006588
1.0007054
1.0007522
1.0007983
1.000843
1.0008851
1.0009238
1.0009575
1.0009852
1.0010056
1.0010176
1.0010202
1.0010126
1.0009943
1.0009648
1.0009244
1.0008734
1.0008124
1.0007423
1.0006643
1.0005795
1.0004892
1.0003947
1.0002974
1.0001983
1.0000985
0.99999908
0.99990078
0.99980433
0.99971031
0.99961919
0.99953132
0.99944697
0.99936632
0.99928947
0.99921649
0.99914736
0.99908206
0.99902051
0.99896261
0.99890826
0.9988573
0.99880961
0.99876503
0.99872341
0.9986846
0.99864845
0.99861479
0.99858349
0.99855441
0.9985274
0.99850233
0.99847907
0.99845752
0.99843753
0.99841905
0.99840184
1.0001413
1.0001553
1.0001724
1.0001909
1.000211
1.000233
1.0002568
1.0002827
1.0003107
1.0003408
1.0003732
1.0004079
1.0004448
1.0004839
1.0005251
1.0005681
1.0006128
1.0006587
1.0007054
1.0007521
1.0007983
1.000843
1.0008851
1.0009238
1.0009576
1.0009854
1.0010059
1.0010181
1.0010209
1.0010134
1.0009952
1.000966
1.0009258
1.000875
1.0008142
1.0007443
1.0006664
1.0005817
1.0004915
1.0003972
1.0002999
1.0002008
1.000101
1.0000016
0.9999033
0.99980684
0.9997128
0.99962165
0.99953374
0.99944934
0.99936865
0.99929176
0.99921873
0.99914956
0.99908422
0.99902263
0.99896469
0.9989103
0.99885931
0.99881158
0.99876698
0.99872533
0.99868649
0.99865031
0.99861663
0.99858531
0.99855621
0.99852918
0.99850409
0.99848082
0.99845924
0.99843924
0.99842074
0.99840352
1.0001413
1.0001553
1.0001724
1.0001909
1.000211
1.0002329
1.0002568
1.0002827
1.0003106
1.0003408
1.0003732
1.0004078
1.0004447
1.0004838
1.000525
1.000568
1.0006127
1.0006586
1.0007053
1.0007521
1.0007982
1.000843
1.0008852
1.0009239
1.0009578
1.0009856
1.0010063
1.0010187
1.0010216
1.0010144
1.0009965
1.0009675
1.0009276
1.000877
1.0008165
1.0007468
1.0006691
1.0005846
1.0004946
1.0004004
1.0003031
1.0002041
1.0001044
1.000005
0.99990666
0.99981017
0.9997161
0.9996249
0.99953695
0.99945251
0.99937176
0.99929482
0.99922173
0.99915251
0.99908712
0.99902548
0.9989675
0.99891305
0.99886202
0.99881425
0.9987696
0.99872791
0.99868903
0.99865282
0.9986191
0.99858775
0.99855862
0.99853156
0.99850645
0.99848315
0.99846156
0.99844154
0.99842303
0.99840579
1.0001412
1.0001553
1.0001724
1.0001909
1.000211
1.0002329
1.0002568
1.0002826
1.0003106
1.0003408
1.0003731
1.0004078
1.0004447
1.0004837
1.0005249
1.000568
1.0006126
1.0006585
1.0007052
1.000752
1.0007982
1.0008429
1.0008852
1.000924
1.000958
1.000986
1.0010069
1.0010194
1.0010226
1.0010157
1.0009981
1.0009694
1.0009299
1.0008796
1.0008194
1.0007501
1.0006727
1.0005885
1.0004986
1.0004045
1.0003074
1.0002085
1.0001088
1.0000094
0.99991107
0.99981456
0.99972045
0.9996292
0.99954119
0.99945669
0.99937587
0.99929886
0.9992257
0.99915641
0.99909095
0.99902924
0.99897119
0.99891669
0.99886559
0.99881777
0.99877306
0.99873133
0.9986924
0.99865614
0.99862239
0.998591
0.99856182
0.99853473
0.99850959
0.99848626
0.99846464
0.9984446
0.99842606
0.9984088
1.0001412
1.0001553
1.0001724
1.0001908
1.0002109
1.0002329
1.0002567
1.0002826
1.0003106
1.0003407
1.0003731
1.0004077
1.0004446
1.0004837
1.0005248
1.0005678
1.0006125
1.0006584
1.000705
1.0007519
1.0007981
1.0008429
1.0008852
1.0009241
1.0009582
1.0009864
1.0010075
1.0010203
1.0010239
1.0010173
1.0010001
1.0009719
1.0009328
1.000883
1.0008233
1.0007544
1.0006773
1.0005934
1.0005038
1.0004099
1.0003129
1.0002141
1.0001145
1.0000151
0.99991682
0.99982028
0.99972613
0.99963482
0.99954674
0.99946215
0.99938125
0.99930415
0.99923091
0.99916154
0.99909599
0.9990342
0.99897607
0.99892148
0.99887031
0.99882242
0.99877764
0.99873584
0.99869686
0.99866054
0.99862674
0.9985953
0.99856608
0.99853894
0.99851376
0.9984904
0.99846875
0.99844868
0.99843011
0.99841283
1.0001412
1.0001553
1.0001724
1.0001908
1.0002109
1.0002328
1.0002567
1.0002825
1.0003105
1.0003406
1.000373
1.0004076
1.0004445
1.0004835
1.0005247
1.0005677
1.0006123
1.0006582
1.0007049
1.0007517
1.000798
1.0008428
1.0008852
1.0009242
1.0009585
1.0009869
1.0010083
1.0010215
1.0010254
1.0010194
1.0010027
1.0009751
1.0009365
1.0008874
1.0008282
1.0007598
1.0006832
1.0005997
1.0005104
1.0004168
1.0003201
1.0002214
1.0001219
1.0000226
0.99992426
0.9998277
0.99973349
0.99964211
0.99955394
0.99946925
0.99938824
0.99931104
0.99923768
0.99916819
0.99910253
0.99904063
0.9989824
0.99892771
0.99887644