/*--------------------------------*- C++ -*----------------------------------*\
| =========                 |                                                 |
| \\      /  F ield         | OpenFOAM: The Open Source CFD Toolbox           |
|  \\    /   O peration     | Version:  v2006                                 |
|   \\  /    A nd           | Website:  www.openfoam.com                      |
|    \\/     M anipulation  |                                                 |
\*---------------------------------------------------------------------------*/
FoamFile
{
    version     2.0;
    format      ascii;
    class       surfaceScalarField;
    location    "10000";
    object      phi;
}
// * * * * * * * * * * * * * * * * * * * * * * * * * * * * * * * * * * * * * //

dimensions      [1 0 -1 0 0 0 0];
oriented        oriented;


internalField   nonuniform List<scalar> 
110670
(
1.724001e-05
-0.00037583221
0.00035859221
3.0299822e-05
-0.00035368629
0.00034062649
4.0117726e-05
-0.00033443256
0.00032461467
4.7390846e-05
-0.00031745709
0.00031018398
5.2644692e-05
-0.00030237653
0.0002971227
5.62815e-05
-0.00028890768
0.00028527088
5.861263e-05
-0.00027682929
0.00027449817
5.9881957e-05
-0.00026596271
0.00026469339
6.0282272e-05
-0.00025616175
0.00025576144
5.9967467e-05
-0.00024730423
0.00024761904
5.9061216e-05
-0.00023928919
0.00024019545
5.7663842e-05
-0.00023202844
0.00023342582
5.5857094e-05
-0.00022544966
0.00022725642
5.3708043e-05
-0.00021948958
0.00022163863
5.1272092e-05
-0.00021409353
0.00021652949
4.8595177e-05
-0.00020921512
0.00021189204
4.5715617e-05
-0.00020481362
0.00020769319
4.2665517e-05
-0.00020085405
0.00020390416
3.9471931e-05
-0.00019730588
0.00020049947
3.6157775e-05
-0.00019414275
0.00019745691
3.2742564e-05
-0.00019134187
0.00019475708
2.9243028e-05
-0.00018888352
0.00019238305
2.5673622e-05
-0.00018675091
0.00019032032
2.204694e-05
-0.00018492973
0.00018855642
1.8374076e-05
-0.00018340802
0.00018708089
1.4664925e-05
-0.00018217592
0.00018588508
1.0928456e-05
-0.00018122557
0.00018496204
7.1729414e-06
-0.00018055095
0.00018430646
3.4061702e-06
-0.00018014784
0.00018391461
-3.6435114e-07
-0.00018001374
0.00018378426
-4.1311936e-06
-0.00018014781
0.00018391466
-7.8868405e-06
-0.00018055089
0.00018430654
-1.1623504e-05
-0.00018122549
0.00018496216
-1.5332911e-05
-0.00018217583
0.00018588523
-1.9006097e-05
-0.00018340791
0.0001870811
-2.2633169e-05
-0.00018492959
0.00018855666
-2.6203034e-05
-0.00018675075
0.00019032061
-2.9703104e-05
-0.00018888333
0.0001923834
-3.3118924e-05
-0.00019134165
0.00019475747
-3.6433771e-05
-0.00019414251
0.00019745735
-3.9628133e-05
-0.00019730561
0.00020049997
-4.2679102e-05
-0.00020085374
0.00020390471
-4.5559629e-05
-0.00020481328
0.00020769381
-4.8237618e-05
-0.00020921473
0.00021189272
-5.0674759e-05
-0.00021409311
0.00021653025
-5.2825126e-05
-0.0002194891
0.00022163947
-5.4633333e-05
-0.00022544912
0.00022725733
-5.6032304e-05
-0.00023202783
0.0002334268
-5.6940314e-05
-0.00023928849
0.0002401965
-5.725704e-05
-0.00024730338
0.0002476201
-5.6858802e-05
-0.00025616069
0.00025576245
-5.5591681e-05
-0.00026596124
0.00026469412
-5.3262773e-05
-0.00027682705
0.00027449814
-4.9628009e-05
-0.00028890367
0.00028526891
-4.4375505e-05
-0.00030236851
0.000297116
-3.7102076e-05
-0.00031743883
0.00031016541
-2.7279836e-05
-0.00033438689
0.00032456465
-1.4207166e-05
-0.0003535569
0.00034048423
-0.00037539649
0.00035812498
3.0643465e-06
1.7283913e-05
-0.00039311613
3.0372487e-05
-0.00036677487
4.0209967e-05
-0.00034427005
4.7495521e-05
-0.00032474265
5.2756191e-05
-0.00030763721
5.6395317e-05
-0.00029254681
5.8725219e-05
-0.0002791592
5.9990444e-05
-0.00026722794
6.0384364e-05
-0.00025655567
6.0061309e-05
-0.00024698117
5.9145285e-05
-0.00023837317
5.7736911e-05
-0.00023062007
5.5918127e-05
-0.00022363088
5.3756209e-05
-0.00021732766
5.1306703e-05
-0.00021164403
4.8615657e-05
-0.00020652407
4.57215e-05
-0.00020191947
4.2656409e-05
-0.00019778896
3.9447519e-05
-0.00019409699
3.6117794e-05
-0.00019081303
3.2686801e-05
-0.00018791087
2.9171315e-05
-0.00018536803
2.558582e-05
-0.00018316541
2.1942946e-05
-0.00018128686
1.8253809e-05
-0.00017971889
1.4528334e-05
-0.00017845045
1.0775505e-05
-0.00017747274
7.003616e-06
-0.00017677905
3.2204742e-06
-0.0001763647
-5.6639678e-07
-0.00017622687
-4.3495726e-06
-0.00017636463
-8.121535e-06
-0.00017677893
-1.1874478e-05
-0.00017747255
-1.5600109e-05
-0.00017845019
-1.9289443e-05
-0.00017971857
-2.293256e-05
-0.00018128647
-2.6518341e-05
-0.00018316496
-3.0034163e-05
-0.0001853675
-3.3465542e-05
-0.00018791027
-3.6795705e-05
-0.00019081234
-4.0005093e-05
-0.00019409622
-4.3070741e-05
-0.00019778809
-4.5965525e-05
-0.0002019185
-4.8657268e-05
-0.00020652299
-5.1107553e-05
-0.00021164282
-5.3270331e-05
-0.00021732632
-5.5090071e-05
-0.00022362938
-5.649951e-05
-0.00023061839
-5.7416701e-05
-0.0002383713
-5.7741042e-05
-0.00024697903
-5.7348509e-05
-0.00025655322
-5.6084754e-05
-0.00026722499
-5.3756339e-05
-0.00027915546
-5.0118503e-05
-0.00029254151
-4.4858483e-05
-0.00030762853
-3.7571951e-05
-0.00032472536
-2.7729534e-05
-0.00034422931
-1.4627579e-05
-0.00036665885
-0.00039270897
2.6849026e-06
1.7323122e-05
-0.00041043925
3.0440154e-05
-0.0003798919
4.0297211e-05
-0.0003541271
4.7595279e-05
-0.00033204071
5.2862937e-05
-0.00031290487
5.6504734e-05
-0.00029618861
5.8833875e-05
-0.00028148834
6.0095633e-05
-0.00026848969
6.0483898e-05
-0.00025694394
6.0153401e-05
-0.00024665067
5.9228509e-05
-0.00023744828
5.7810063e-05
-0.00022920162
5.5980248e-05
-0.00022180107
5.3806506e-05
-0.00021515392
5.1344512e-05
-0.00020918203
4.8640443e-05
-0.00020382
4.5732809e-05
-0.00019901183
4.2653878e-05
-0.00019471003
3.9430836e-05
-0.00019087395
3.6086712e-05
-0.0001874689
3.264111e-05
-0.00018446527
2.9110846e-05
-0.00018183776
2.5510437e-05
-0.000179565
2.1852537e-05
-0.00017762896
1.8148285e-05
-0.00017601464
1.4407628e-05
-0.00017470979
1.0639564e-05
-0.00017370468
6.8524096e-06
-0.0001729919
3.0539779e-06
-0.00017256627
-7.4818492e-07
-0.0001724247
-4.5466399e-06
-0.00017256618
-8.3338398e-06
-0.00017299173
-1.2101972e-05
-0.00017370442
-1.5842719e-05
-0.00017470945
-1.9547086e-05
-0.0001760142
-2.3205124e-05
-0.00017762843
-2.68057e-05
-0.00017956439
-3.0336156e-05
-0.00018183705
-3.378198e-05
-0.00018446445
-3.7126356e-05
-0.00018746796
-4.0349685e-05
-0.00019087289
-4.3428937e-05
-0.00019470884
-4.6336933e-05
-0.0001990105
-4.9041405e-05
-0.00020381852
-5.1503851e-05
-0.00020918037
-5.3678094e-05
-0.00021515207
-5.5508468e-05
-0.00022179901
-5.6927526e-05
-0.00022919933
-5.7853118e-05
-0.00023744571
-5.8184363e-05
-0.00024664779
-5.7796921e-05
-0.00025694066
-5.653602e-05
-0.0002684859
-5.4207715e-05
-0.00028148377
-5.0566565e-05
-0.00029618266
-4.5298994e-05
-0.0003128961
-3.7999538e-05
-0.00033202482
-2.8137431e-05
-0.00035409142
-1.5007032e-05
-0.00037978925
-0.00041006117
2.3451616e-06
1.736312e-05
-0.00042780237
3.0509477e-05
-0.00039303826
4.0387018e-05
-0.00036400465
4.7698421e-05
-0.00033935212
5.2973927e-05
-0.00031818037
5.6619245e-05
-0.00029983393
5.8948505e-05
-0.0002838176
6.0207631e-05
-0.00026974882
6.0591063e-05
-0.00025732737
6.0253954e-05
-0.00024631357
5.9320966e-05
-0.00023651529
5.7893261e-05
-0.00022777392
5.6053197e-05
-0.000219961
5.3868394e-05
-0.00021296912
5.1394674e-05
-0.00020670831
4.8678325e-05
-0.00020110366
4.5757957e-05
-0.00019609146
4.2665911e-05
-0.00019161799
3.9429445e-05
-0.00018763749
3.607164e-05
-0.0001841111
3.2612147e-05
-0.00018100578
2.9067819e-05
-0.00017829344
2.5453206e-05
-0.00017595039
2.1780992e-05
-0.00017395674
1.806234e-05
-0.00017229599
1.4307215e-05
-0.00017095467
1.0524642e-05
-0.0001699221
6.7229427e-06
-0.0001691902
2.9099573e-06
-0.00016875328
-9.0676095e-07
-0.00016860799
-4.7197543e-06
-0.00016875319
-8.52147e-06
-0.00016919001
-1.230407e-05
-0.00016992182
-1.6059229e-05
-0.00017095429
-1.9777926e-05
-0.00017229551
-2.3450195e-05
-0.00017395617
-2.7064875e-05
-0.00017594971
-3.0609281e-05
-0.00017829264
-3.4068864e-05
-0.00018100487
-3.7426773e-05
-0.00018411006
-4.0663358e-05
-0.00018763631
-4.3755538e-05
-0.00019161666
-4.6676059e-05
-0.00019608998
-4.9392577e-05
-0.000201102
-5.186649e-05
-0.00020670646
-5.4051507e-05
-0.00021296706
-5.5891811e-05
-0.00021995871
-5.7319788e-05
-0.00022777135
-5.8253066e-05
-0.00023651243
-5.8590503e-05
-0.00024631035
-5.8207425e-05
-0.00025732374
-5.6948656e-05
-0.00026974466
-5.4619721e-05
-0.0002838127
-5.0974533e-05
-0.00029982785
-4.569866e-05
-0.00031817197
-3.8385557e-05
-0.00033933792
-2.8503e-05
-0.00036397398
-1.5343446e-05
-0.0003929488
-0.0004274538
2.0491836e-06
1.7402791e-05
-0.00044520516
3.0578474e-05
-0.00040621394
4.0476646e-05
-0.00037390282
4.7801696e-05
-0.00034667717
5.3085465e-05
-0.00032346414
5.6734778e-05
-0.00030348324
5.9064661e-05
-0.00028614748
6.0321733e-05
-0.00027100589
6.0700941e-05
-0.00025770658
6.0357836e-05
-0.00024597046
5.9417419e-05
-0.00023557488
5.7981081e-05
-0.00022633758
5.6131416e-05
-0.00021811134
5.3936204e-05
-0.00021077391
5.1451408e-05
-0.00020422352
4.8723428e-05
-0.00019837568
4.5790974e-05
-0.00019315901
4.2686461e-05
-0.00018851348
3.9437215e-05
-0.00018438824
3.6066364e-05
-0.00018074025
3.2593615e-05
-0.00017753303
2.9035853e-05
-0.00017473568
2.5407664e-05
-0.00017232221
2.1721755e-05
-0.00017027084
1.7989319e-05
-0.00016856355
1.4220339e-05
-0.00016718569
1.0423856e-05
-0.00016612562
6.6082147e-06
-0.00016537456
2.7812691e-06
-0.00016492634
-1.0494136e-06
-0.00016477731
-4.8763577e-06
-0.00016492625
-8.6919962e-06
-0.00016537438
-1.2488474e-05
-0.00016612534
-1.625745e-05
-0.00016718531
-1.9989881e-05
-0.00016856308
-2.3675783e-05
-0.00017027027
-2.7303967e-05
-0.00017232153
-3.0861722e-05
-0.00017473489
-3.4334465e-05
-0.00017753212
-3.7705307e-05
-0.00018073921
-4.0954547e-05
-0.00018438707
-4.4059053e-05
-0.00018851216
-4.6991501e-05
-0.00019315754
-4.9719473e-05
-0.00019837403
-5.2204264e-05
-0.00020422167
-5.439947e-05
-0.00021077185
-5.6249133e-05
-0.00021810905
-5.7685468e-05
-0.00022633502
-5.8625885e-05
-0.00023557202
-5.8968991e-05
-0.00024596725
-5.8589779e-05
-0.00025770295
-5.7332673e-05
-0.00027100177
-5.5002688e-05
-0.00028614269
-5.1353097e-05
-0.00030347744
-4.606862e-05
-0.00032345645
-3.8741662e-05
-0.00034666488
-2.8838551e-05
-0.00037387709
-1.5649932e-05
-0.00040613742
-0.00044488668
1.7829491e-06
1.7442462e-05
-0.00046264762
3.0647804e-05
-0.00041941929
4.0566938e-05
-0.00038382196
4.7906015e-05
-0.00035401625
5.319846e-05
-0.00032875659
5.6852259e-05
-0.00030713704
5.9183303e-05
-0.00028847853
6.0438843e-05
-0.00027226144
6.0814354e-05
-0.00025808209
6.046579e-05
-0.0002456219
5.9518477e-05
-0.00023462757
5.8074056e-05
-0.00022489316
5.6215328e-05
-0.00021625262
5.4010244e-05
-0.00020856883
5.1514907e-05
-0.00020172818
4.8775832e-05
-0.0001956366
4.5831816e-05
-0.000190215
4.2715361e-05
-0.00018539702
3.9453851e-05
-0.00018112673
3.6070477e-05
-0.00017735687
3.2584983e-05
-0.00017404754
2.9014297e-05
-0.00017116499
2.5373038e-05
-0.00016868095
2.1673942e-05
-0.00016657174
1.7928223e-05
-0.00016481783
1.4145888e-05
-0.00016340335
1.0335998e-05
-0.00016231573
6.5069137e-06
-0.00016154548
2.6665033e-06
-0.00016108593
-1.1776479e-06
-0.00016093316
-5.0180501e-06
-0.00016108585
-8.8471179e-06
-0.00016154531
-1.2656985e-05
-0.00016231548
-1.6439288e-05
-0.00016340301
-2.0184967e-05
-0.0001648174
-2.3884016e-05
-0.00016657122
-2.752522e-05
-0.00016868033
-3.1095841e-05
-0.00017116427
-3.4581262e-05
-0.00017404671
-3.7964553e-05
-0.00017735592
-4.1225969e-05
-0.00018112566
-4.434232e-05
-0.00018539581
-4.7286221e-05
-0.00019021364
-5.0025167e-05
-0.00019563508
-5.2520363e-05
-0.00020172648
-5.472529e-05
-0.00020856693
-5.6583847e-05
-0.00021625049
-5.8028077e-05
-0.00022489079
-5.8975185e-05
-0.00023462491
-5.9323515e-05
-0.00024561891
-5.8947744e-05
-0.00025807873
-5.7691893e-05
-0.00027225762
-5.5360471e-05
-0.00028847412
-5.1706115e-05
-0.00030713179
-4.6412719e-05
-0.00032874985
-3.9071639e-05
-0.00035400596
-2.9147783e-05
-0.00038380095
-1.5929987e-05
-0.00041935521
-0.00046235982
1.5431463e-06
1.7481986e-05
-0.00048012961
3.0717147e-05
-0.00043265445
4.0657443e-05
-0.00039376225
4.801084e-05
-0.00036136965
5.3312301e-05
-0.00033405805
5.6970947e-05
-0.00031079569
5.9303522e-05
-0.0002908111
6.0557951e-05
-0.00027351587
6.0930202e-05
-0.00025845435
6.0576617e-05
-0.00024526832
5.9622842e-05
-0.00023367379
5.8170782e-05
-0.0002234411
5.6303438e-05
-0.00021438527
5.4088928e-05
-0.00020635432
5.1583493e-05
-0.00019922275
4.8833761e-05
-0.00019288687
4.5878628e-05
-0.00018725987
4.2750664e-05
-0.00018226906
3.9477327e-05
-0.0001778534
3.6081858e-05
-0.00017396141
3.2584048e-05
-0.00017054973
2.9000865e-05
-0.00016758181
2.5346959e-05
-0.00016502704
2.1635096e-05
-0.00016285988
1.7876513e-05
-0.00016105925
1.4081239e-05
-0.00015960808
1.0258356e-05
-0.00015849285
6.416239e-06
-0.00015770336
2.5627746e-06
-0.00015723247
-1.2944349e-06
-0.00015707595
-5.1478871e-06
-0.0001572324
-8.9899798e-06
-0.00015770322
-1.2812827e-05
-0.00015849263
-1.6608052e-05
-0.00015960779
-2.0366574e-05
-0.00016105888
-2.4078363e-05
-0.00016285943
-2.7732183e-05
-0.00016502651
-3.1315264e-05
-0.00016758119
-3.4812958e-05
-0.00017054901
-3.8208295e-05
-0.00017396059
-4.1481483e-05
-0.00017785247
-4.460928e-05
-0.00018226801
-4.7564229e-05
-0.00018725869
-5.0313754e-05
-0.00019288556
-5.281896e-05
-0.00019922128
-5.5033216e-05
-0.00020635267
-5.690028e-05
-0.00021438343
-5.8352029e-05
-0.00022343904
-5.9305458e-05
-0.00023367148
-5.9658658e-05
-0.00024526571
-5.9285982e-05
-0.00025845141
-5.8031065e-05
-0.00027351254
-5.5697911e-05
-0.00029080727
-5.2038529e-05
-0.00031079118
-4.6735999e-05
-0.00033405238
-3.9380633e-05
-0.00036136133
-2.9435937e-05
-0.00039374564
-1.6188927e-05
-0.00043260222
-0.00047987305
1.3243099e-06
1.7521526e-05
-0.00049765114
3.0786814e-05
-0.00044591974
4.0748508e-05
-0.00040372395
4.8116485e-05
-0.00036873763
5.3427236e-05
-0.0003393688
5.7091036e-05
-0.00031445949
5.9425477e-05
-0.00029314555
6.067913e-05
-0.00027476952
6.1048438e-05
-0.00025882366
6.0690161e-05
-0.00024491004
5.9730274e-05
-0.00023271391
5.8270904e-05
-0.00022198173
5.6395273e-05
-0.00021250964
5.4171664e-05
-0.00020413071
5.1656456e-05
-0.00019670755
4.8896391e-05
-0.00019012681
4.5930456e-05
-0.00018429393
4.2791305e-05
-0.00017912991
3.9506456e-05
-0.00017456855
3.6099206e-05
-0.00017055416
3.2589394e-05
-0.00016703992
2.8994023e-05
-0.00016398644
2.5327779e-05
-0.0001613608
2.1603457e-05
-0.00015913556
1.7832321e-05
-0.00015728812
1.4024416e-05
-0.00015580018
1.0188847e-05
-0.00015465729
6.3340072e-06
-0.00015384853
2.4677994e-06
-0.00015336626
-1.4021594e-06
-0.00015320599
-5.268352e-06
-0.00015336621
-9.1231614e-06
-0.00015384841
-1.2958686e-05
-0.00015465711
-1.6766531e-05
-0.00015579995
-2.0537592e-05
-0.00015728783
-2.4261823e-05
-0.0001591352
-2.7927958e-05
-0.00016136038
-3.1523204e-05
-0.00016398594
-3.5032872e-05
-0.00016703935
-3.8439958e-05
-0.0001705535
-4.1724622e-05
-0.00017456781
-4.4863566e-05
-0.00017912907
-4.782927e-05
-0.00018429299
-5.0589077e-05
-0.00019012575
-5.3103998e-05
-0.00019670636
-5.5327288e-05
-0.00020412938
-5.7202566e-05
-0.00021250815
-5.8661541e-05
-0.00022198006
-5.9621e-05
-0.00023271203
-5.9978778e-05
-0.00024490794
-5.9608915e-05
-0.00025882127
-5.8354649e-05
-0.00027476681
-5.6019487e-05
-0.00029314243
-5.2354809e-05
-0.00031445586
-4.704289e-05
-0.0003393643
-3.9672984e-05
-0.00036873123
-2.9707228e-05
-0.0004037114
-1.6430814e-05
-0.00044587864
-0.00049742651
1.1226385e-06
1.7560816e-05
-0.00051521196
3.0856308e-05
-0.00045921523
4.0839495e-05
-0.00041370714
4.8222211e-05
-0.00037612034
5.3542469e-05
-0.00034468906
5.721169e-05
-0.00031812871
5.9548269e-05
-0.00029548213
6.0801423e-05
-0.00027602268
6.1168112e-05
-0.00025919035
6.080547e-05
-0.0002445474
5.9839767e-05
-0.00023174821
5.8373407e-05
-0.00022051538
5.6489807e-05
-0.00021062605
5.4257417e-05
-0.00020189832
5.1732757e-05
-0.00019418289
4.8962675e-05
-0.00018735673
4.5986257e-05
-0.00018131752
4.2836231e-05
-0.00017597989
3.9540185e-05
-0.00017127251
3.6121463e-05
-0.00016713544
3.2599955e-05
-0.00016351842
2.8992702e-05
-0.00016037919
2.5314425e-05
-0.00015768253
2.1577942e-05
-0.00015539908
1.7794545e-05
-0.00015350473
1.3974305e-05
-0.00015197994
1.0126339e-05
-0.00015080933
6.259063e-06
-0.00014998125
2.3803967e-06
-0.0001494876
-1.5020311e-06
-0.00014932357
-5.3806832e-06
-0.00014948756
-9.2479314e-06
-0.00014998116
-1.3095855e-05
-0.00015080919
-1.6916039e-05
-0.00015197976
-2.0699366e-05
-0.0001535045
-2.4435762e-05
-0.00015539881
-2.8113939e-05
-0.0001576822
-3.1721072e-05
-0.00016037881
-3.5242444e-05
-0.00016351798
-3.866101e-05
-0.00016713494
-4.1956882e-05
-0.00017127194
-4.5106708e-05
-0.00017597924
-4.8082905e-05
-0.0001813168
-5.0852735e-05
-0.00018735592
-5.3377119e-05
-0.00019418198
-5.5609196e-05
-0.00020189731
-5.749245e-05
-0.0002106249
-5.895842e-05
-0.00022051409
-5.9923689e-05
-0.00023174676
-6.0285844e-05
-0.00024454578
-5.9918608e-05
-0.00025918851
-5.8664828e-05
-0.00027602059
-5.6327523e-05
-0.00029547974
-5.2657448e-05
-0.00031812593
-4.733608e-05
-0.00034468567
-3.9951639e-05
-0.00037611567
-2.9964925e-05
-0.00041369812
-1.6659297e-05
-0.00045918426
-0.00051501988
9.3406614e-07
1.759814e-05
-0.0005328101
3.0922513e-05
-0.00047253961
4.0926233e-05
-0.00042371086
4.8323123e-05
-0.00038351724
5.3652574e-05
-0.00035001852
5.7327141e-05
-0.00032180328
5.9665963e-05
-0.00029782095
6.0918862e-05
-0.00027727558
6.1283255e-05
-0.00025955474
6.0916659e-05
-0.00024418081
5.994562e-05
-0.00023077717
5.8472799e-05
-0.00021904256
5.6581795e-05
-0.00020873505
5.4341227e-05
-0.00019965776
5.1807729e-05
-0.00019164939
4.9028267e-05
-0.00018457727
4.6042008e-05
-0.00017833126
4.2881761e-05
-0.00017281964
3.9575166e-05
-0.00016796592
3.6145631e-05
-0.00016370591
3.2613079e-05
-0.00015998587
2.8994593e-05
-0.00015676071
2.5304921e-05
-0.00015399286
2.1556916e-05
-0.00015165108
1.7761886e-05
-0.0001497097
1.3929926e-05
-0.00014814798
1.0070168e-05
-0.00014694957
6.1910476e-06
-0.00014610213
2.3004916e-06
-0.00014559705
-1.5938381e-06
-0.00014542924
-5.4843822e-06
-0.00014559702
-9.3634757e-06
-0.00014610207
-1.3223192e-05
-0.00014694948
-1.7055096e-05
-0.00014814786
-2.0850054e-05
-0.00014970955
-2.459797e-05
-0.00015165089
-2.8287539e-05
-0.00015399264
-3.1905903e-05
-0.00015676045
-3.5438319e-05
-0.00015998557
-3.8867699e-05
-0.00016370556
-4.2174121e-05
-0.00016796552
-4.5334173e-05
-0.00017281919
-4.8320216e-05
-0.00017833076
-5.1099436e-05
-0.0001845767
-5.3632666e-05
-0.00019164875
-5.5872936e-05
-0.00019965704
-5.7763606e-05
-0.00020873424
-5.9236052e-05
-0.00021904165
-6.020667e-05
-0.00023077615
-6.0572799e-05
-0.00024417965
-6.0207878e-05
-0.00025955343
-5.8954381e-05
-0.00027727408
-5.661487e-05
-0.00029781926
-5.293951e-05
-0.00032180129
-4.7609034e-05
-0.00035001615
-4.0210682e-05
-0.00038351402
-3.0203993e-05
-0.00042370481
-1.6870618e-05
-0.00047251764
-0.00053265106
7.6056683e-07
1.7638014e-05
-0.00055044811
3.0993347e-05
-0.00048589494
4.1018894e-05
-0.00043373641
4.8430716e-05
-0.00039092906
5.3769891e-05
-0.00035535769
5.7450004e-05
-0.0003254834
5.979111e-05
-0.00030016206
6.1043635e-05
-0.00027852811
6.1405499e-05
-0.00025991661
6.1034617e-05
-0.00024380993
6.0057864e-05
-0.00022980042
5.8578142e-05
-0.00021756284
5.6679264e-05
-0.00020683617
5.443001e-05
-0.00019740851
5.1887161e-05
-0.00018910655
4.9097797e-05
-0.00018178791
4.6101178e-05
-0.00017533465
4.2930189e-05
-0.00016964865
3.9612542e-05
-0.00016464827
3.6171693e-05
-0.00016026506
3.2627616e-05
-0.00015644179
2.8997434e-05
-0.00015313053
2.5295926e-05
-0.00015029136
2.1535976e-05
-0.00014789113
1.7728916e-05
-0.00014590264
1.3884865e-05
-0.00014430393
1.0012975e-05
-0.00014307769
6.1216998e-06
-0.00014221086
2.2189878e-06
-0.00014169434
-1.6874949e-06
-0.00014152276
-5.5901778e-06
-0.00014169434
-9.4813962e-06
-0.00014221086
-1.33532e-05
-0.00014307768
-1.7197137e-05
-0.00014430393
-2.1004052e-05
-0.00014590264
-2.4763826e-05
-0.00014789112
-2.8465124e-05
-0.00015029135
-3.209506e-05
-0.00015313051
-3.5638855e-05
-0.00015644177
-3.9079382e-05
-0.00016026503
-4.2396665e-05
-0.00016464824
-4.5567243e-05
-0.00016964862
-4.8563402e-05
-0.0001753346
-5.1352252e-05
-0.00018178785
-5.3894528e-05
-0.00018910648
-5.6143143e-05
-0.00019740842
-5.8041313e-05
-0.00020683607
-5.9520245e-05
-0.00021756272
-6.0496118e-05
-0.00022980028
-6.0866022e-05
-0.00024380975
-6.0503066e-05
-0.00025991639
-5.924933e-05
-0.00027852782
-5.6906864e-05
-0.00030016173
-5.3225203e-05
-0.00032548295
-4.7884253e-05
-0.0003553571
-4.0470209e-05
-0.00039092807
-3.0441206e-05
-0.00043373382
-1.7077061e-05
-0.00048588178
-0.00055032398
5.9584949e-07
1.7693737e-05
-0.00056814185
3.1092423e-05
-0.00049929363
4.1147994e-05
-0.00044379198
4.858012e-05
-0.00039836119
5.3932044e-05
-0.00036070962
5.761906e-05
-0.00032917042
5.9962355e-05
-0.00030250536
6.1213322e-05
-0.00027977907
6.1570619e-05
-0.00026027391
6.1192732e-05
-0.00024343204
6.0206977e-05
-0.00022881467
5.8716643e-05
-0.00021607251
5.6805832e-05
-0.00020492536
5.4543575e-05
-0.00019514625
5.1986848e-05
-0.00018654982
4.9182899e-05
-0.00017898396
4.6171119e-05
-0.00017232287
4.2984513e-05
-0.00016646205
3.9650878e-05
-0.00016131464
3.6193762e-05
-0.00015680794
3.2633198e-05
-0.00015288123
2.8986373e-05
-0.00014948371
2.5268115e-05
-0.0001465731
2.1491356e-05
-0.00014411437
1.7667467e-05
-0.00014207876
1.3806608e-05
-0.00014044308
9.9179694e-06
-0.00013918905
6.010042e-06
-0.00013830293
2.0908088e-06
-0.00013777511
-1.8321119e-06
-0.00013759984
-5.751315e-06
-0.00013777514
-9.6591966e-06
-0.00013830298
-1.3547774e-05
-0.00013918911
-1.7408556e-05
-0.00014044315
-2.1232351e-05
-0.00014207884
-2.5008998e-05
-0.00014411447
-2.8727124e-05
-0.00014657322
-3.2373793e-05
-0.00014948384
-3.5934179e-05
-0.00015288139
-3.9391089e-05
-0.00015680812
-4.2724486e-05
-0.00016131485
-4.5910819e-05
-0.00016646228
-4.8922285e-05
-0.00017232314
-5.1725877e-05
-0.00017898426
-5.4282195e-05
-0.00018655017
-5.6543983e-05
-0.00019514663
-5.8454256e-05
-0.0002049258
-5.9943971e-05
-0.000216073
-6.0929009e-05
-0.00022881524
-6.1306066e-05
-0.00024343269
-6.0947795e-05
-0.00026027467
-5.9695664e-05
-0.00027977995
-5.7350994e-05
-0.0003025064
-5.3662337e-05
-0.00032917161
-4.8308396e-05
-0.00036071105
-4.0873715e-05
-0.00039836275
-3.0814372e-05
-0.00044379317
-1.7407254e-05
-0.0004992889
-0.00056805609
3.2485275e-07
1.770228e-05
-0.00058584413
3.1110718e-05
-0.00051270207
4.1174695e-05
-0.00045385596
4.8614005e-05
-0.0004058005
5.3972258e-05
-0.00036606788
5.7664698e-05
-0.00033286286
6.0012708e-05
-0.00030485337
6.126767e-05
-0.00028103404
6.162834e-05
-0.00026063458
6.1253227e-05
-0.00024305693
6.026973e-05
-0.00022783118
5.878115e-05
-0.00021458393
5.6871644e-05
-0.00020301586
5.4610264e-05
-0.00019288487
5.2054022e-05
-0.00018399359
4.9250181e-05
-0.00017618012
4.6238159e-05
-0.00016931085
4.3050973e-05
-0.00016327487
3.9716442e-05
-0.00015798012
3.6258114e-05
-0.00015334962
3.2696038e-05
-0.00014931916
2.9047402e-05
-0.00014583507
2.5327038e-05
-0.00014285275
2.154787e-05
-0.00014033521
1.7721273e-05
-0.00013825217
1.3857392e-05
-0.0001365792
9.965407e-06
-0.00013529707
6.0537905e-06
-0.00013439132
2.1305083e-06
-0.00013385184
-1.7966782e-06
-0.00013367266
-5.7200154e-06
-0.00013385181
-9.6317316e-06
-0.00013439126
-1.3523862e-05
-0.00013529698
-1.7387936e-05
-0.00013657908
-2.1214775e-05
-0.00013825201
-2.4994239e-05
-0.00014033501
-2.8714952e-05
-0.00014285251
-3.2363998e-05
-0.0001458348
-3.5926546e-05
-0.00014931885
-3.9385417e-05
-0.00015334926
-4.2720568e-05
-0.0001579797
-4.5908457e-05
-0.0001632744
-4.8921276e-05
-0.00016931032
-5.1726019e-05
-0.00017617952
-5.4283282e-05
-0.00018399291
-5.6545818e-05
-0.0001928841
-5.8456633e-05
-0.00020301499
-5.9946696e-05
-0.00021458294
-6.0931884e-05
-0.00022783006
-6.1308925e-05
-0.00024305565
-6.0950471e-05
-0.00026063313
-5.9698048e-05
-0.00028103237
-5.7353004e-05
-0.00030485145
-5.3663991e-05
-0.00033286062
-4.8309786e-05
-0.00036606526
-4.0875132e-05
-0.0004057974
-3.0816249e-05
-0.00045385205
-1.7410426e-05
-0.00051269472
-0.00058578583
3.1930759e-07
1.7748862e-05
3.1181983e-05
4.1263913e-05
4.8716674e-05
5.4085187e-05
5.7785213e-05
6.0138743e-05
6.1397434e-05
6.176039e-05
6.1386305e-05
6.0402825e-05
5.891335e-05
5.7002213e-05
5.4738528e-05
5.2179438e-05
4.9372242e-05
4.6356461e-05
4.3165131e-05
3.9826146e-05
3.6363071e-05
3.2796011e-05
2.9142162e-05
2.54164e-05
2.163166e-05
1.7799341e-05
1.3929601e-05
1.0031639e-05
6.113932e-06
2.1844613e-06
-1.7489668e-06
-5.6784881e-06
-9.5962549e-06
-1.3494297e-05
-1.7364127e-05
-2.119656e-05
-2.4981425e-05
-2.8707341e-05
-3.2361356e-05
-3.5928621e-05
-3.9391913e-05
-4.2731164e-05
-4.5922779e-05
-4.8938909e-05
-5.1746476e-05
-5.4306021e-05
-5.6570197e-05
-5.8481936e-05
-5.9972066e-05
-6.0956356e-05
-6.1331334e-05
-6.096948e-05
-5.9712038e-05
-5.7360072e-05
-5.3661806e-05
-4.8295547e-05
-4.0845337e-05
-3.0766584e-05
-1.7335397e-05
4.2695483e-07
-8.2228437e-06
-0.00022275247
0.00021682554
1.4149767e-05
-3.0785887e-06
-0.00022344031
0.00021829605
1.3555878e-06
-0.00022416394
0.00021972976
5.1438379e-06
-0.00022491228
0.00022112403
8.3431533e-06
-0.00022567626
0.00022247694
1.1004532e-05
-0.00022644862
0.00022378724
1.3173846e-05
-0.000227223
0.00022505369
1.4892536e-05
-0.00022799375
0.00022627506
1.6198213e-05
-0.00022875608
0.0002274504
1.712513e-05
-0.00022950546
0.00022857854
1.7704699e-05
-0.00023023805
0.00022965848
1.7965712e-05
-0.00023095024
0.00023068923
1.793481e-05
-0.00023163891
0.00023166981
1.7636668e-05
-0.00023230126
0.0002325994
1.7094255e-05
-0.00023293458
0.00023347699
1.6329051e-05
-0.00023353665
0.00023430185
1.5361217e-05
-0.00023410534
0.00023507317
1.4209761e-05
-0.00023463879
0.00023579024
1.2892678e-05
-0.00023513528
0.00023645236
1.1427067e-05
-0.00023559329
0.0002370589
9.8292577e-06
-0.00023601149
0.0002376093
8.114889e-06
-0.00023638868
0.00023810305
6.2990157e-06
-0.00023672382
0.00023853969
4.3961806e-06
-0.00023701596
0.0002389188
2.4204947e-06
-0.00023726438
0.00023924006
3.8570674e-07
-0.00023746839
0.00023950317
-1.694728e-06
-0.00023762747
0.00023970791
-3.8075796e-06
-0.00023774127
0.00023985412
-5.9397631e-06
-0.00023780952
0.0002399417
-8.078296e-06
-0.00023783204
0.00023997057
-1.0210228e-05
-0.00023780876
0.00023994069
-1.232257e-05
-0.00023773973
0.00023985207
-1.4402234e-05
-0.0002376251
0.00023970476
-1.6435978e-05
-0.00023746515
0.00023949889
-1.8410331e-05
-0.00023726028
0.00023923463
-2.0311534e-05
-0.000237011
0.00023891221
-2.2125474e-05
-0.000236718
0.00023853194
-2.3837614e-05
-0.00023638201
0.00023809415
-2.5432907e-05
-0.00023600397
0.00023759926
-2.6895731e-05
-0.00023558492
0.00023704774
-2.820978e-05
-0.00023512607
0.00023644012
-2.935798e-05
-0.00023462876
0.00023577696
-3.0322368e-05
-0.00023409451
0.0002350589
-3.1083974e-05
-0.00023352506
0.00023428667
-3.1622667e-05
-0.00023292229
0.00023346099
-3.1917049e-05
-0.00023228835
0.00023258274
-3.1944196e-05
-0.00023162555
0.0002316527
-3.1679546e-05
-0.00023093667
0.00023067202
-3.1096579e-05
-0.00023022467
0.0002296417
-3.0166664e-05
-0.00022949299
0.00022856308
-2.8858691e-05
-0.0002287457
0.00022743773
-2.7138799e-05
-0.00022798753
0.00022626764
-2.4970027e-05
-0.00022722461
0.00022505584
-2.2311923e-05
-0.00022646486
0.00022380676
-1.91203e-05
-0.00022572026
0.00022252864
-1.5346994e-05
-0.0002250111
0.00022123779
-1.0939967e-05
-0.00022437798
0.00021997096
-5.8439332e-06
-0.00022392285
0.00021882682
-0.00022398162
0.00021813768
-6.9708381e-06
-0.00022913316
1.3351523e-05
-1.4357955e-06
-0.00022897536
3.3313382e-06
-0.00022893108
7.3995791e-06
-0.00022898053
1.0830488e-05
-0.00022910717
1.3679211e-05
-0.00022929735
1.5995374e-05
-0.00022953917
1.7823796e-05
-0.00022982218
1.9205156e-05
-0.00023013744
2.0176499e-05
-0.00023047681
2.0771789e-05
-0.00023083335
2.1022154e-05
-0.00023120061
2.0956386e-05
-0.00023157315
2.0601161e-05
-0.00023194604
1.9981289e-05
-0.00023231472
1.9119976e-05
-0.00023267534
1.8038997e-05
-0.00023302436
1.6758878e-05
-0.00023335867
1.529905e-05
-0.00023367545
1.3677987e-05
-0.00023397223
1.1913323e-05
-0.00023424683
1.002197e-05
-0.00023449733
8.0202152e-06
-0.00023472207
5.9238114e-06
-0.00023491956
3.7480643e-06
-0.00023508863
1.5079071e-06
-0.00023522823
-7.8202606e-07
-0.00023533754
-3.1073592e-06
-0.00023541594
-5.4538573e-06
-0.00023546302
-7.807367e-06
-0.00023547853
-1.0153758e-05
-0.00023546237
-1.247888e-05
-0.00023541461
-1.4768479e-05
-0.0002353355
-1.7008145e-05
-0.00023522548
-1.9183239e-05
-0.00023508519
-2.1278828e-05
-0.00023491542
-2.3279609e-05
-0.00023471722
-2.516983e-05
-0.00023449179
-2.6933206e-05
-0.00023424059
-2.8552831e-05
-0.0002339653
-3.0011073e-05
-0.00023366783
-3.1289465e-05
-0.00023335037
-3.2368583e-05
-0.0002330154
-3.3227911e-05
-0.00023266574
-3.3845679e-05
-0.00023230453
-3.4198703e-05
-0.00023193533
-3.4262197e-05
-0.00023156206
-3.4009517e-05
-0.00023118935
-3.3411906e-05
-0.00023082228
-3.2438335e-05
-0.00023046657
-3.1054947e-05
-0.00023012909
-2.9224868e-05
-0.00022981761
-2.690773e-05
-0.00022954175
-2.4059254e-05
-0.00022931334
-2.0630738e-05
-0.00022914878
-1.6568806e-05
-0.00022907303
-1.1815466e-05
-0.00022913132
-6.3102517e-06
-0.00022942807
-0.00023029187
-5.6061966e-06
-0.00023600458
1.2477605e-05
3.5005052e-07
-0.00023493161
5.4753778e-06
-0.00023405641
9.8444437e-06
-0.0002333496
1.3523908e-05
-0.00023278664
1.6573422e-05
-0.00023234687
1.9046661e-05
-0.00023201242
2.099211e-05
-0.00023176763
2.2453766e-05
-0.0002315991
2.347171e-05
-0.00023149476
2.408268e-05
-0.00023144432
2.4320354e-05
-0.00023143829
2.4215883e-05
-0.00023146868
2.3798125e-05
-0.00023152828
2.3093927e-05
-0.00023161052
2.2128396e-05
-0.00023170981
2.0925094e-05
-0.00023182106
1.9506235e-05
-0.00023193982
1.7892845e-05
-0.00023206206
1.6104913e-05
-0.0002321843
1.4161527e-05
-0.00023230345
1.2080984e-05
-0.00023241679
9.8809137e-06
-0.000232522
7.5783614e-06