/*--------------------------------*- C++ -*----------------------------------*\
| =========                 |                                                 |
| \\      /  F ield         | OpenFOAM: The Open Source CFD Toolbox           |
|  \\    /   O peration     | Version:  v2006                                 |
|   \\  /    A nd           | Website:  www.openfoam.com                      |
|    \\/     M anipulation  |                                                 |
\*---------------------------------------------------------------------------*/
FoamFile
{
    version     2.0;
    format      ascii;
    class       volScalarField;
    location    "10000";
    object      pMean;
}
// * * * * * * * * * * * * * * * * * * * * * * * * * * * * * * * * * * * * * //

dimensions      [1 -1 -2 0 0 0 0];


internalField   nonuniform List<scalar> 
55713
(
1.0000374
1.0000374
1.0000374
1.0000374
1.0000374
1.0000374
1.0000374
1.0000374
1.0000374
1.0000374
1.0000374
1.0000374
1.0000374
1.0000374
1.0000374
1.0000374
1.0000374
1.0000374
1.0000374
1.0000374
1.0000374
1.0000374
1.0000374
1.0000374
1.0000374
1.0000374
1.0000374
1.0000374
1.0000374
1.0000374
1.0000374
1.0000374
1.0000374
1.0000374
1.0000374
1.0000374
1.0000374
1.0000374
1.0000374
1.0000374
1.0000374
1.0000374
1.0000374
1.0000374
1.0000374
1.0000374
1.0000374
1.0000374
1.0000374
1.0000374
1.0000374
1.0000374
1.0000374
1.0000374
1.0000374
1.0000374
1.0000374
1.0000374
1.0000374
1.0000351
1.0000351
1.0000351
1.0000351
1.0000351
1.0000351
1.0000351
1.0000351
1.0000351
1.0000351
1.0000351
1.0000351
1.0000351
1.0000351
1.0000351
1.0000351
1.0000351
1.0000351
1.0000351
1.0000351
1.0000351
1.0000351
1.0000351
1.0000351
1.0000351
1.0000351
1.0000351
1.0000351
1.0000351
1.0000351
1.0000351
1.0000351
1.0000351
1.0000351
1.0000351
1.0000351
1.0000351
1.0000351
1.0000351
1.0000351
1.0000351
1.0000351
1.0000351
1.0000351
1.0000351
1.0000351
1.0000351
1.0000351
1.0000351
1.0000351
1.0000351
1.0000351
1.0000351
1.0000351
1.0000351
1.0000351
1.0000351
1.0000351
1.0000351
1.0000332
1.0000332
1.0000332
1.0000332
1.0000332
1.0000332
1.0000332
1.0000332
1.0000332
1.0000332
1.0000332
1.0000332
1.0000332
1.0000332
1.0000332
1.0000332
1.0000332
1.0000332
1.0000332
1.0000332
1.0000332
1.0000332
1.0000332
1.0000332
1.0000332
1.0000332
1.0000332
1.0000332
1.0000332
1.0000332
1.0000332
1.0000332
1.0000332
1.0000332
1.0000332
1.0000332
1.0000332
1.0000332
1.0000332
1.0000332
1.0000332
1.0000332
1.0000332
1.0000332
1.0000332
1.0000332
1.0000332
1.0000332
1.0000332
1.0000332
1.0000332
1.0000332
1.0000332
1.0000332
1.0000332
1.0000332
1.0000332
1.0000332
1.0000332
1.0000315
1.0000315
1.0000315
1.0000315
1.0000315
1.0000315
1.0000315
1.0000315
1.0000315
1.0000315
1.0000315
1.0000315
1.0000315
1.0000315
1.0000315
1.0000315
1.0000315
1.0000315
1.0000315
1.0000315
1.0000315
1.0000315
1.0000315
1.0000315
1.0000315
1.0000315
1.0000315
1.0000315
1.0000315
1.0000315
1.0000315
1.0000315
1.0000315
1.0000315
1.0000315
1.0000315
1.0000315
1.0000315
1.0000315
1.0000315
1.0000315
1.0000315
1.0000315
1.0000315
1.0000315
1.0000315
1.0000315
1.0000315
1.0000315
1.0000315
1.0000315
1.0000315
1.0000315
1.0000315
1.0000315
1.0000315
1.0000315
1.0000315
1.0000316
1.00003
1.00003
1.00003
1.00003
1.00003
1.00003
1.00003
1.00003
1.00003
1.00003
1.00003
1.00003
1.00003
1.00003
1.00003
1.00003
1.00003
1.00003
1.00003
1.00003
1.00003
1.00003
1.00003
1.00003
1.00003
1.00003
1.00003
1.00003
1.00003
1.00003
1.00003
1.0000301
1.0000301
1.0000301
1.0000301
1.0000301
1.0000301
1.0000301
1.0000301
1.0000301
1.0000301
1.0000301
1.0000301
1.0000301
1.0000301
1.0000301
1.0000301
1.0000301
1.0000301
1.0000301
1.0000301
1.0000301
1.0000301
1.0000301
1.0000301
1.0000301
1.0000301
1.0000301
1.0000301
1.0000287
1.0000287
1.0000287
1.0000287
1.0000287
1.0000287
1.0000287
1.0000287
1.0000287
1.0000288
1.0000288
1.0000288
1.0000288
1.0000288
1.0000288
1.0000288
1.0000288
1.0000288
1.0000288
1.0000288
1.0000288
1.0000288
1.0000288
1.0000288
1.0000288
1.0000288
1.0000288
1.0000288
1.0000288
1.0000288
1.0000288
1.0000288
1.0000288
1.0000288
1.0000288
1.0000288
1.0000288
1.0000288
1.0000288
1.0000288
1.0000288
1.0000288
1.0000288
1.0000288
1.0000288
1.0000288
1.0000288
1.0000288
1.0000288
1.0000288
1.0000288
1.0000288
1.0000288
1.0000288
1.0000288
1.0000288
1.0000288
1.0000288
1.0000288
1.0000276
1.0000276
1.0000276
1.0000277
1.0000277
1.0000277
1.0000277
1.0000277
1.0000277
1.0000277
1.0000277
1.0000277
1.0000277
1.0000277
1.0000277
1.0000277
1.0000277
1.0000277
1.0000277
1.0000277
1.0000277
1.0000277
1.0000277
1.0000277
1.0000277
1.0000277
1.0000277
1.0000277
1.0000277
1.0000277
1.0000277
1.0000277
1.0000277
1.0000277
1.0000277
1.0000277
1.0000277
1.0000277
1.0000277
1.0000277
1.0000277
1.0000277
1.0000277
1.0000277
1.0000277
1.0000277
1.0000277
1.0000277
1.0000277
1.0000277
1.0000277
1.0000277
1.0000277
1.0000277
1.0000277
1.0000277
1.0000277
1.0000277
1.0000277
1.0000267
1.0000267
1.0000267
1.0000267
1.0000267
1.0000267
1.0000267
1.0000267
1.0000267
1.0000267
1.0000268
1.0000268
1.0000268
1.0000268
1.0000268
1.0000268
1.0000268
1.0000268
1.0000268
1.0000268
1.0000268
1.0000268
1.0000268
1.0000268
1.0000268
1.0000268
1.0000268
1.0000268
1.0000268
1.0000268
1.0000268
1.0000268
1.0000268
1.0000268
1.0000268
1.0000268
1.0000268
1.0000268
1.0000268
1.0000268
1.0000268
1.0000268
1.0000268
1.0000268
1.0000268
1.0000268
1.0000268
1.0000268
1.0000268
1.0000268
1.0000268
1.0000268
1.0000268
1.0000268
1.0000268
1.0000268
1.0000268
1.0000268
1.0000268
1.000026
1.000026
1.000026
1.000026
1.000026
1.000026
1.000026
1.000026
1.000026
1.000026
1.000026
1.000026
1.000026
1.000026
1.000026
1.000026
1.000026
1.000026
1.000026
1.000026
1.000026
1.000026
1.000026
1.000026
1.000026
1.000026
1.000026
1.000026
1.000026
1.000026
1.000026
1.000026
1.000026
1.000026
1.000026
1.000026
1.000026
1.000026
1.000026
1.000026
1.000026
1.000026
1.000026
1.000026
1.000026
1.000026
1.0000261
1.0000261
1.0000261
1.0000261
1.0000261
1.0000261
1.0000261
1.0000261
1.0000261
1.0000261
1.0000261
1.0000261
1.0000261
1.0000254
1.0000254
1.0000254
1.0000254
1.0000254
1.0000254
1.0000254
1.0000254
1.0000254
1.0000254
1.0000254
1.0000254
1.0000254
1.0000254
1.0000254
1.0000254
1.0000254
1.0000254
1.0000254
1.0000254
1.0000254
1.0000254
1.0000254
1.0000254
1.0000254
1.0000254
1.0000254
1.0000254
1.0000254
1.0000254
1.0000254
1.0000254
1.0000254
1.0000254
1.0000254
1.0000254
1.0000254
1.0000254
1.0000254
1.0000254
1.0000254
1.0000254
1.0000254
1.0000254
1.0000254
1.0000254
1.0000254
1.0000254
1.0000254
1.0000254
1.0000254
1.0000254
1.0000254
1.0000254
1.0000254
1.0000254
1.0000254
1.0000254
1.0000254
1.0000245
1.0000245
1.0000245
1.0000245
1.0000245
1.0000245
1.0000245
1.0000245
1.0000245
1.0000245
1.0000245
1.0000245
1.0000245
1.0000245
1.0000245
1.0000245
1.0000245
1.0000245
1.0000245
1.0000245
1.0000245
1.0000245
1.0000245
1.0000245
1.0000245
1.0000245
1.0000245
1.0000245
1.0000245
1.0000245
1.0000245
1.0000245
1.0000245
1.0000245
1.0000245
1.0000245
1.0000245
1.0000245
1.0000245
1.0000245
1.0000245
1.0000245
1.0000245
1.0000245
1.0000245
1.0000245
1.0000245
1.0000245
1.0000245
1.0000245
1.0000245
1.0000245
1.0000245
1.0000245
1.0000245
1.0000245
1.0000245
1.0000245
1.0000245
1.000025
1.000025
1.000025
1.000025
1.000025
1.000025
1.000025
1.000025
1.0000249
1.0000249
1.0000249
1.0000249
1.0000249
1.0000249
1.0000249
1.0000249
1.0000249
1.0000249
1.0000249
1.0000249
1.0000249
1.0000249
1.0000249
1.0000249
1.0000249
1.0000249
1.0000249
1.0000249
1.0000249
1.0000249
1.0000249
1.0000249
1.0000249
1.0000249
1.0000249
1.0000249
1.0000249
1.0000249
1.0000249
1.0000249
1.0000249
1.0000249
1.0000249
1.0000249
1.0000249
1.0000249
1.0000249
1.0000249
1.0000249
1.0000249
1.0000249
1.0000249
1.0000249
1.0000249
1.0000249
1.0000249
1.0000249
1.0000249
1.0000249
1.0000285
1.0000285
1.0000285
1.0000285
1.0000285
1.0000285
1.0000285
1.0000286
1.0000286
1.0000286
1.0000286
1.0000286
1.0000286
1.0000286
1.0000286
1.0000286
1.0000286
1.0000286
1.0000286
1.0000286
1.0000286
1.0000286
1.0000286
1.0000286
1.0000286
1.0000286
1.0000286
1.0000286
1.0000286
1.0000286
1.0000286
1.0000286
1.0000286
1.0000286
1.0000286
1.0000286
1.0000286
1.0000286
1.0000286
1.0000286
1.0000286
1.0000286
1.0000286
1.0000286
1.0000286
1.0000286
1.0000286
1.0000286
1.0000286
1.0000286
1.0000286
1.0000286
1.0000286
1.0000286
1.0000286
1.0000286
1.0000287
1.0000287
1.0000287
1.0000153
1.0000153
1.0000153
1.0000153
1.0000153
1.0000154
1.0000154
1.0000154
1.0000154
1.0000154
1.0000154
1.0000154
1.0000154
1.0000154
1.0000154
1.0000154
1.0000154
1.0000154
1.0000154
1.0000154
1.0000154
1.0000154
1.0000154
1.0000154
1.0000154
1.0000154
1.0000154
1.0000154
1.0000154
1.0000154
1.0000154
1.0000154
1.0000154
1.0000154
1.0000154
1.0000154
1.0000154
1.0000154
1.0000154
1.0000154
1.0000154
1.0000154
1.0000154
1.0000154
1.0000154
1.0000154
1.0000155
1.0000155
1.0000155
1.0000155
1.0000155
1.0000155
1.0000155
1.0000155
1.0000155
1.0000155
1.0000155
1.0000155
1.0000155
1.0001325
1.0001326
1.0001326
1.0001326
1.0001327
1.0001327
1.0001327
1.0001328
1.0001328
1.0001329
1.0001329
1.0001329
1.000133
1.000133
1.000133
1.0001331
1.0001331
1.0001331
1.0001331
1.0001332
1.0001332
1.0001332
1.0001333
1.0001333
1.0001333
1.0001333
1.0001333
1.0001334
1.0001334
1.0001334
1.0001334
1.0001335
1.0001335
1.0001335
1.0001335
1.0001335
1.0001335
1.0001336
1.0001336
1.0001336
1.0001336
1.0001336
1.0001336
1.0001336
1.0001336
1.0001336
1.0001336
1.0001337
1.0001337
1.0001337
1.0001337
1.0001337
1.0001337
1.0001337
1.0001337
1.0001337
1.0001337
1.0001337
1.0001337
1.0001216
1.0001216
1.0001216
1.0001217
1.0001217
1.0001217
1.0001218
1.0001218
1.0001218
1.0001218
1.0001219
1.0001219
1.0001219
1.000122
1.000122
1.000122
1.000122
1.0001221
1.0001221
1.0001221
1.0001221
1.0001222
1.0001222
1.0001222
1.0001222
1.0001223
1.0001223
1.0001223
1.0001223
1.0001223
1.0001223
1.0001224
1.0001224
1.0001224
1.0001224
1.0001224
1.0001224
1.0001225
1.0001225
1.0001225
1.0001225
1.0001225
1.0001225
1.0001225
1.0001225
1.0001225
1.0001225
1.0001225
1.0001226
1.0001226
1.0001226
1.0001226
1.0001226
1.0001226
1.0001226
1.0001226
1.0001226
1.0001226
1.0001226
1.0001117
1.0001117
1.0001117
1.0001117
1.0001118
1.0001118
1.0001118
1.0001118
1.0001119
1.0001119
1.0001119
1.0001119
1.000112
1.000112
1.000112
1.000112
1.000112
1.0001121
1.0001121
1.0001121
1.0001121
1.0001121
1.0001122
1.0001122
1.0001122
1.0001122
1.0001122
1.0001122
1.0001123
1.0001123
1.0001123
1.0001123
1.0001123
1.0001123
1.0001123
1.0001123
1.0001124
1.0001124
1.0001124
1.0001124
1.0001124
1.0001124
1.0001124
1.0001124
1.0001124
1.0001124
1.0001124
1.0001124
1.0001125
1.0001125
1.0001125
1.0001125
1.0001125
1.0001125
1.0001125
1.0001125
1.0001125
1.0001125
1.0001125
1.0001023
1.0001023
1.0001023
1.0001023
1.0001023
1.0001024
1.0001024
1.0001024
1.0001024
1.0001024
1.0001025
1.0001025
1.0001025
1.0001025
1.0001025
1.0001026
1.0001026
1.0001026
1.0001026
1.0001026
1.0001026
1.0001027
1.0001027
1.0001027
1.0001027
1.0001027
1.0001027
1.0001027
1.0001027
1.0001028
1.0001028
1.0001028
1.0001028
1.0001028
1.0001028
1.0001028
1.0001028
1.0001028
1.0001028
1.0001029
1.0001029
1.0001029
1.0001029
1.0001029
1.0001029
1.0001029
1.0001029
1.0001029
1.0001029
1.0001029
1.0001029
1.0001029
1.0001029
1.0001029
1.0001029
1.0001029
1.0001029
1.0001029
1.0001029
1.0000935
1.0000935
1.0000936
1.0000936
1.0000936
1.0000936
1.0000936
1.0000937
1.0000937
1.0000937
1.0000937
1.0000937
1.0000937
1.0000937
1.0000938
1.0000938
1.0000938
1.0000938
1.0000938
1.0000938
1.0000938
1.0000939
1.0000939
1.0000939
1.0000939
1.0000939
1.0000939
1.0000939
1.0000939
1.0000939
1.0000939
1.000094
1.000094
1.000094
1.000094
1.000094
1.000094
1.000094
1.000094
1.000094
1.000094
1.000094
1.000094
1.000094
1.000094
1.000094
1.000094
1.0000941
1.0000941
1.0000941
1.0000941
1.0000941
1.0000941
1.0000941
1.0000941
1.0000941
1.0000941
1.0000941
1.0000941
1.0000854
1.0000854
1.0000854
1.0000854
1.0000855
1.0000855
1.0000855
1.0000855
1.0000855
1.0000855
1.0000855
1.0000856
1.0000856
1.0000856
1.0000856
1.0000856
1.0000856
1.0000856
1.0000856
1.0000856
1.0000856
1.0000857
1.0000857
1.0000857
1.0000857
1.0000857
1.0000857
1.0000857
1.0000857
1.0000857
1.0000857
1.0000857
1.0000857
1.0000858
1.0000858
1.0000858
1.0000858
1.0000858
1.0000858
1.0000858
1.0000858
1.0000858
1.0000858
1.0000858
1.0000858
1.0000858
1.0000858
1.0000858
1.0000858
1.0000858
1.0000858
1.0000858
1.0000858
1.0000858
1.0000858
1.0000858
1.0000858
1.0000858
1.0000858
1.0000779
1.0000779
1.0000779
1.0000779
1.0000779
1.0000779
1.0000779
1.0000779
1.000078
1.000078
1.000078
1.000078
1.000078
1.000078
1.000078
1.000078
1.000078
1.000078
1.000078
1.0000781
1.0000781
1.0000781
1.0000781
1.0000781
1.0000781
1.0000781
1.0000781
1.0000781
1.0000781
1.0000781
1.0000781
1.0000781
1.0000781
1.0000781
1.0000782
1.0000782
1.0000782
1.0000782
1.0000782
1.0000782
1.0000782
1.0000782
1.0000782
1.0000782
1.0000782
1.0000782
1.0000782
1.0000782
1.0000782
1.0000782
1.0000782
1.0000782
1.0000782
1.0000782
1.0000782
1.0000782
1.0000782
1.0000782
1.0000782
1.0000709
1.0000709
1.0000709
1.0000709
1.0000709
1.0000709
1.000071
1.000071
1.000071
1.000071
1.000071
1.000071
1.000071
1.000071
1.000071
1.000071
1.000071
1.000071
1.000071
1.0000711
1.0000711
1.0000711
1.0000711
1.0000711
1.0000711
1.0000711
1.0000711
1.0000711
1.0000711
1.0000711
1.0000711
1.0000711
1.0000711
1.0000711
1.0000711
1.0000711
1.0000711
1.0000711
1.0000711
1.0000711
1.0000711
1.0000711
1.0000712
1.0000712
1.0000712
1.0000712
1.0000712
1.0000712
1.0000712
1.0000712
1.0000712
1.0000712
1.0000712
1.0000712
1.0000712
1.0000712
1.0000712
1.0000712
1.0000712
1.0000645
1.0000645
1.0000645
1.0000645
1.0000645
1.0000645
1.0000645
1.0000645
1.0000645
1.0000645
1.0000645
1.0000646
1.0000646
1.0000646
1.0000646
1.0000646
1.0000646
1.0000646
1.0000646
1.0000646
1.0000646
1.0000646
1.0000646
1.0000646
1.0000646
1.0000646
1.0000646
1.0000646
1.0000646
1.0000646
1.0000646
1.0000646
1.0000646
1.0000647
1.0000647
1.0000647
1.0000647
1.0000647
1.0000647
1.0000647
1.0000647
1.0000647
1.0000647
1.0000647
1.0000647
1.0000647
1.0000647
1.0000647
1.0000647
1.0000647
1.0000647
1.0000647
1.0000647
1.0000647
1.0000647
1.0000647
1.0000647
1.0000647
1.0000647
1.0000586
1.0000586
1.0000586
1.0000586
1.0000586
1.0000586
1.0000586
1.0000586
1.0000586
1.0000586
1.0000586
1.0000586
1.0000586
1.0000586
1.0000587
1.0000587
1.0000587
1.0000587
1.0000587
1.0000587
1.0000587
1.0000587
1.0000587
1.0000587
1.0000587
1.0000587
1.0000587
1.0000587
1.0000587
1.0000587
1.0000587
1.0000587
1.0000587
1.0000587
1.0000587
1.0000587
1.0000587
1.0000587
1.0000587
1.0000587
1.0000587
1.0000587
1.0000587
1.0000587
1.0000587
1.0000587
1.0000587
1.0000587
1.0000587
1.0000587
1.0000587
1.0000587
1.0000587
1.0000587
1.0000587
1.0000588
1.0000588
1.0000588
1.0000588
1.0000532
1.0000532
1.0000532
1.0000532
1.0000532
1.0000532
1.0000532
1.0000532
1.0000532
1.0000532
1.0000532
1.0000532
1.0000532
1.0000532
1.0000532
1.0000532
1.0000532
1.0000533
1.0000533
1.0000533
1.0000533
1.0000533
1.0000533
1.0000533
1.0000533
1.0000533
1.0000533
1.0000533
1.0000533
1.0000533
1.0000533
1.0000533
1.0000533
1.0000533
1.0000533
1.0000533
1.0000533
1.0000533
1.0000533
1.0000533
1.0000533
1.0000533
1.0000533
1.0000533
1.0000533
1.0000533
1.0000533
1.0000533
1.0000533
1.0000533
1.0000533
1.0000533
1.0000533
1.0000533
1.0000533
1.0000533
1.0000533
1.0000533
1.0000533
1.0000482
1.0000482
1.0000482
1.0000482
1.0000482
1.0000482
1.0000483
1.0000483
1.0000483
1.0000483
1.0000483
1.0000483
1.0000483
1.0000483
1.0000483
1.0000483
1.0000483
1.0000483
1.0000483
1.0000483
1.0000483
1.0000483
1.0000483
1.0000483
1.0000483
1.0000483
1.0000483
1.0000483
1.0000483
1.0000483
1.0000483
1.0000483
1.0000483
1.0000483
1.0000483
1.0000483
1.0000483
1.0000483
1.0000483
1.0000483
1.0000483
1.0000483
1.0000483
1.0000483
1.0000483
1.0000483
1.0000483
1.0000483
1.0000483
1.0000483
1.0000483
1.0000483
1.0000483
1.0000483
1.0000483
1.0000483
1.0000483
1.0000483
1.0000483
1.0000437
1.0000437
1.0000437
1.0000437
1.0000437
1.0000437
1.0000437
1.0000437
1.0000437
1.0000437
1.0000437
1.0000437
1.0000437
1.0000437
1.0000437
1.0000437
1.0000437
1.0000437
1.0000437
1.0000437
1.0000437
1.0000437
1.0000437
1.0000437
1.0000437
1.0000437
1.0000437
1.0000437
1.0000437
1.0000437
1.0000437
1.0000437
1.0000437
1.0000437
1.0000437
1.0000437
1.0000437
1.0000437
1.0000437
1.0000437
1.0000437
1.0000437
1.0000437
1.0000437
1.0000438
1.0000438
1.0000438
1.0000438
1.0000438
1.0000438
1.0000438
1.0000438
1.0000438
1.0000438
1.0000438
1.0000438
1.0000438
1.0000438
1.0000438
1.0000401
1.0000401
1.0000401
1.0000401
1.0000401
1.0000401
1.0000401
1.0000401
1.0000401
1.0000401
1.0000401
1.0000401
1.0000401
1.0000401
1.0000401
1.0000401
1.0000401
1.0000401
1.0000401
1.0000401
1.0000401
1.0000401
1.0000401
1.0000401
1.0000401
1.0000401
1.0000401
1.0000401
1.0000401
1.0000401
1.0000401
1.0000401
1.0000401
1.0000401
1.0000401
1.0000401
1.0000401
1.0000401
1.0000401
1.0000401
1.0000401
1.0000401
1.0000401
1.0000401
1.0000401
1.0000401
1.0000401
1.0000401
1.0000401
1.0000401
1.0000401
1.0000401
1.0000401
1.0000401
1.0000401
1.0000401
1.0000401
1.0000401
1.0000401
1.0001458
1.0001605
1.0001784
1.0001978
1.0002188
1.0002418
1.0002668
1.000294
1.0003233
1.000355
1.000389
1.0004255
1.0004643
1.0005056
1.0005491
1.0005947
1.0006421
1.000691
1.0007409
1.0007911
1.000841
1.0008897
1.0009362
1.0009794
1.001018
1.0010509
1.0010768
1.0010946
1.0011033
1.001102
1.0010902
1.0010676
1.0010342
1.0009904
1.0009368
1.0008742
1.0008037
1.0007264
1.0006437
1.0005567
1.0004666
1.0003746
1.0002817
1.0001889
1.000097
1.0000067
0.99991847
0.99983282
0.9997501
0.99967057
0.99959443
0.9995218
0.99945273
0.99938723
0.99932528
0.99926683
0.99921178
0.99916003
0.99911146
0.99906595
0.99902335
0.99898353
0.99894635
0.99891166
0.99887933
0.99884921
0.99882119
0.99879513
0.9987709
0.9987484
0.99872751
0.99870813
0.9986902
0.99867356
1.0001458
1.0001605
1.0001784
1.0001978
1.0002188
1.0002418
1.0002668
1.000294
1.0003233
1.000355
1.000389
1.0004255
1.0004643
1.0005056
1.0005491
1.0005947
1.0006421
1.000691
1.0007409
1.0007911
1.000841
1.0008897
1.0009362
1.0009794
1.001018
1.0010509
1.0010768
1.0010947
1.0011033
1.001102
1.0010902
1.0010676
1.0010342
1.0009904
1.0009368
1.0008742
1.0008037
1.0007264
1.0006437
1.0005566
1.0004665
1.0003746
1.0002817
1.0001889
1.000097
1.0000067
0.99991845
0.9998328
0.99975008
0.99967055
0.99959442
0.99952178
0.99945271
0.99938721
0.99932526
0.9992668
0.99921175
0.99916
0.99911143
0.99906592
0.99902332
0.9989835
0.99894632
0.99891163
0.9988793
0.99884918
0.99882115
0.99879509
0.99877086
0.99874836
0.99872747
0.99870808
0.99869013
0.99867337
1.0001458
1.0001605
1.0001784
1.0001978
1.0002188
1.0002418
1.0002668
1.000294
1.0003233
1.000355
1.000389
1.0004255
1.0004643
1.0005056
1.0005491
1.0005947
1.0006421
1.000691
1.0007409
1.0007911
1.000841
1.0008897
1.0009362
1.0009794
1.001018
1.0010509
1.0010769
1.0010947
1.0011033
1.0011021
1.0010902
1.0010676
1.0010343
1.0009904
1.0009368
1.0008742
1.0008037
1.0007265
1.0006437
1.0005567
1.0004666
1.0003746
1.0002817
1.000189
1.000097
1.0000067
0.99991844
0.99983278
0.99975006
0.99967054
0.9995944
0.99952177
0.9994527
0.9993872
0.99932526
0.9992668
0.99921175
0.99916001
0.99911144
0.99906592
0.99902333
0.99898351
0.99894633
0.99891165
0.99887932
0.99884921
0.99882118
0.99879512
0.99877089
0.99874838
0.99872749
0.99870809
0.99869012
0.99867332
1.0001458
1.0001605
1.0001784
1.0001978
1.0002188
1.0002418
1.0002668
1.000294
1.0003233
1.000355
1.000389
1.0004255
1.0004643
1.0005056
1.0005491
1.0005947
1.0006421
1.000691
1.0007409
1.0007911
1.000841
1.0008897
1.0009362
1.0009794
1.001018
1.0010509
1.0010769
1.0010947
1.0011034
1.0011021
1.0010903
1.0010677
1.0010343
1.0009905
1.0009369
1.0008743
1.0008038
1.0007265
1.0006438
1.0005567
1.0004667
1.0003747
1.0002818
1.000189
1.0000971
1.0000068
0.99991852
0.99983286
0.99975014
0.99967061
0.99959447
0.99952183
0.99945276
0.99938726
0.99932531
0.99926684
0.99921178
0.99916002
0.99911145
0.99906593
0.99902333
0.99898351
0.99894632
0.99891163
0.9988793
0.99884919
0.99882117
0.99879511
0.99877088
0.99874837
0.99872747
0.99870806
0.99869007
0.99867326
1.0001458
1.0001605
1.0001784
1.0001978
1.0002188
1.0002418
1.0002668
1.000294
1.0003233
1.000355
1.000389
1.0004255
1.0004643
1.0005055
1.0005491
1.0005946
1.0006421
1.000691
1.0007408
1.0007911
1.000841
1.0008897
1.0009362
1.0009794
1.0010181
1.001051
1.0010769
1.0010947
1.0011034
1.0011022
1.0010904
1.0010678
1.0010344
1.0009906
1.000937
1.0008744
1.0008039
1.0007267
1.0006439
1.0005569
1.0004668
1.0003748
1.000282
1.0001892
1.0000972
1.0000069
0.99991864
0.99983298
0.99975025
0.99967072
0.99959458
0.99952194
0.99945286
0.99938736
0.99932541
0.99926695
0.99921189
0.99916014
0.99911157
0.99906605
0.99902345
0.99898363
0.99894644
0.99891175
0.99887942
0.99884931
0.99882129
0.99879522
0.99877099
0.99874847
0.99872755
0.99870812
0.99869011
0.99867329
1.0001458
1.0001605
1.0001784
1.0001977
1.0002188
1.0002418
1.0002668
1.0002939
1.0003233
1.000355
1.000389
1.0004254
1.0004643
1.0005055
1.000549
1.0005946
1.0006421
1.000691
1.0007408
1.0007911
1.000841
1.0008897
1.0009362
1.0009794
1.0010181
1.001051
1.0010769
1.0010948
1.0011035
1.0011022
1.0010905
1.0010679
1.0010346
1.0009908
1.0009372
1.0008746
1.0008041
1.0007269
1.0006441
1.0005571
1.000467
1.000375
1.0002822
1.0001894
1.0000975
1.0000071
0.99991886
0.9998332
0.99975047
0.99967094
0.99959479
0.99952214
0.99945306
0.99938756
0.9993256
0.99926713
0.99921207
0.99916031
0.99911173
0.9990662
0.9990236
0.99898377
0.99894659
0.99891189
0.99887956
0.99884944
0.99882141
0.99879534
0.9987711
0.99874857
0.99872765
0.99870821
0.99869019
0.99867335
1.0001458
1.0001605
1.0001784
1.0001977
1.0002188
1.0002418
1.0002668
1.0002939
1.0003233
1.0003549
1.000389
1.0004254
1.0004643
1.0005055
1.000549
1.0005946
1.000642
1.0006909
1.0007408
1.0007911
1.000841
1.0008897
1.0009362
1.0009794
1.0010181
1.001051
1.001077
1.0010949
1.0011036
1.0011024
1.0010906
1.0010681
1.0010348
1.000991
1.0009375
1.0008749
1.0008044
1.0007272
1.0006445
1.0005574
1.0004674
1.0003754
1.0002825
1.0001897
1.0000978
1.0000074
0.9999192
0.99983353
0.99975079
0.99967125
0.99959509
0.99952244
0.99945336
0.99938785
0.99932588
0.99926741
0.99921235
0.99916058
0.999112
0.99906648
0.99902387
0.99898405
0.99894686
0.99891217
0.99887983
0.99884971
0.99882168
0.9987956
0.99877135
0.99874882
0.99872788
0.99870843
0.99869039
0.99867353
1.0001458
1.0001605
1.0001784
1.0001977
1.0002188
1.0002418
1.0002668
1.0002939
1.0003233
1.0003549
1.000389
1.0004254
1.0004643
1.0005055
1.000549
1.0005946
1.000642
1.0006909
1.0007408
1.0007911
1.000841
1.0008897
1.0009362
1.0009795
1.0010181
1.0010511
1.0010771
1.001095
1.0011037
1.0011026
1.0010909
1.0010684
1.0010351
1.0009914
1.0009378
1.0008753
1.0008049
1.0007277
1.0006449
1.0005579
1.0004679
1.0003759
1.000283
1.0001903
1.0000983
1.0000079
0.99991969
0.99983401
0.99975127
0.99967172
0.99959556
0.9995229
0.99945381
0.99938829
0.99932632
0.99926784
0.99921277
0.999161
0.99911241
0.99906688
0.99902427
0.99898443
0.99894724
0.99891254
0.99888019
0.99885006
0.99882202
0.99879593
0.99877167
0.99874913
0.99872818
0.99870872
0.99869067
0.9986738
1.0001458
1.0001605
1.0001784
1.0001977
1.0002188
1.0002418
1.0002668
1.0002939
1.0003233
1.0003549
1.0003889
1.0004254
1.0004642
1.0005055
1.000549
1.0005946
1.000642
1.0006909
1.0007408
1.000791
1.000841
1.0008897
1.0009362
1.0009795
1.0010182
1.0010512
1.0010772
1.0010951
1.0011039
1.0011028
1.0010912
1.0010687
1.0010355
1.0009918
1.0009384
1.0008759
1.0008055
1.0007283
1.0006456
1.0005586
1.0004686
1.0003766
1.0002838
1.000191
1.000099
1.0000087
0.9999204
0.99983472
0.99975196
0.9996724
0.99959623
0.99952356
0.99945446
0.99938893
0.99932695
0.99926846
0.99921338
0.9991616
0.999113
0.99906746
0.99902485
0.99898501
0.99894781
0.9989131
0.99888075
0.99885062
0.99882257
0.99879647
0.99877221
0.99874965
0.99872869
0.99870921
0.99869115
0.99867427
1.0001458
1.0001605
1.0001784
1.0001977
1.0002188
1.0002418
1.0002668
1.0002939
1.0003232
1.0003549
1.0003889
1.0004254
1.0004642
1.0005054
1.0005489
1.0005945
1.0006419
1.0006908
1.0007407
1.000791
1.0008409
1.0008897
1.0009362
1.0009795
1.0010182
1.0010512
1.0010773
1.0010953
1.0011042
1.0011031
1.0010916
1.0010692
1.0010361
1.0009925
1.0009391
1.0008767
1.0008063
1.0007292
1.0006466
1.0005596
1.0004696
1.0003776
1.0002848
1.000192
1.0001001
1.0000097
0.9999214
0.9998357
0.99975293
0.99967336
0.99959717
0.99952448
0.99945536
0.99938981
0.99932781
0.99926931
0.99921421
0.99916242
0.99911381
0.99906825
0.99902562
0.99898577
0.99894855
0.99891383
0.99888147
0.99885132
0.99882325
0.99879714
0.99877286
0.99875029
0.99872932
0.99870984
0.99869177
0.99867488
1.0001458
1.0001605
1.0001784
1.0001977
1.0002188
1.0002417
1.0002668
1.0002939
1.0003232
1.0003549
1.0003889
1.0004253
1.0004642
1.0005054
1.0005489
1.0005945
1.0006419
1.0006908
1.0007407
1.000791
1.0008409
1.0008897
1.0009362
1.0009795
1.0010183
1.0010514
1.0010775
1.0010956
1.0011045
1.0011036
1.0010921
1.0010698
1.0010368
1.0009933
1.00094
1.0008777
1.0008075
1.0007304
1.0006478
1.0005609
1.0004709
1.000379
1.0002862
1.0001934
1.0001014
1.000011
0.99992275
0.99983703
0.99975424
0.99967464
0.99959842
0.99952571
0.99945657
0.999391
0.99932898
0.99927046
0.99921534
0.99916353
0.99911491
0.99906934
0.99902669
0.99898683
0.9989496
0.99891487
0.99888249
0.99885234
0.99882426
0.99879814
0.99877385
0.99875127
0.99873029
0.99871079
0.99869271
0.99867582
1.0001458
1.0001605
1.0001784
1.0001977
1.0002187
1.0002417
1.0002667
1.0002939
1.0003232
1.0003548
1.0003889
1.0004253
1.0004641
1.0005054
1.0005488
1.0005944
1.0006418
1.0006907
1.0007406
1.0007909
1.0008409
1.0008896
1.0009362
1.0009795
1.0010184
1.0010515
1.0010777
1.0010959
1.001105
1.0011041
1.0010928
1.0010707
1.0010378
1.0009945
1.0009413
1.0008791
1.000809
1.000732
1.0006495
1.0005627
1.0004728
1.0003809
1.000288
1.0001953
1.0001033
1.0000129
0.99992457
0.99983883
0.99975601
0.99967639
0.99960015
0.99952741
0.99945824
0.99939265
0.99933061
0.99927206
0.99921692
0.99916508
0.99911643
0.99907084
0.99902817
0.99898828
0.99895103
0.99891628
0.99888388
0.99885371
0.99882561
0.99879947
0.99877517
0.99875257
0.99873158
0.99871207
0.99869398
0.99867708
1.0001457
1.0001605
1.0001783
1.0001977
1.0002187
1.0002417
1.0002667
1.0002938
1.0003232
1.0003548
1.0003888
1.0004252
1.0004641
1.0005053
1.0005488
1.0005944
1.0006418
1.0006906
1.0007405
1.0007908
1.0008408
1.0008896
1.0009362
1.0009796
1.0010185
1.0010517
1.001078
1.0010963
1.0011055
1.0011048
1.0010937
1.0010718
1.0010391
1.000996
1.000943
1.000881
1.000811
1.0007342
1.0006518
1.0005651
1.0004752
1.0003833
1.0002905
1.0001977
1.0001058
1.0000154
0.99992702
0.99984126
0.99975841
0.99967875
0.99960247
0.9995297
0.99946049
0.99939485
0.99933278
0.99927419
0.99921902
0.99916715
0.99911847
0.99907285
0.99903016
0.99899024
0.99895297
0.99891819
0.99888578
0.99885558
0.99882746
0.99880131
0.99877698
0.99875437
0.99873336
0.99871384
0.99869573
0.99867882
1.0001457
1.0001604
1.0001783
1.0001977
1.0002187
1.0002417
1.0002667
1.0002938
1.0003231
1.0003548
1.0003888
1.0004252
1.000464
1.0005052
1.0005487
1.0005943
1.0006417
1.0006906
1.0007404
1.0007907
1.0008407
1.0008895
1.0009362
1.0009796
1.0010186
1.0010519
1.0010784
1.0010968
1.0011062
1.0011058
1.0010949
1.0010732
1.0010408
1.0009979
1.0009452
1.0008834
1.0008137
1.000737
1.0006548
1.0005682
1.0004784
1.0003865
1.0002938
1.000201
1.0001091
1.0000186
0.99993028
0.99984448
0.99976159
0.99968189
0.99960557
0.99953275
0.99946349
0.99939782
0.99933569
0.99927706
0.99922185
0.99916994
0.99912122
0.99907556
0.99903283
0.99899288
0.99895557
0.99892077
0.99888832
0.99885809
0.99882995
0.99880376
0.99877942
0.99875678
0.99873575
0.99871621
0.99869809
0.99868116
1.0001457
1.0001604
1.0001783
1.0001976
1.0002187
1.0002417
1.0002666
1.0002938
1.0003231
1.0003547
1.0003887
1.0004251
1.0004639
1.0005051
1.0005486
1.0005942
1.0006416
1.0006904
1.0007403
1.0007906
1.0008406
1.0008895
1.0009362
1.0009797
1.0010187
1.0010522
1.0010788
1.0010975
1.0011071
1.001107
1.0010964
1.001075
1.001043
1.0010004
1.000948
1.0008866
1.0008171
1.0007407
1.0006587
1.0005722
1.0004825
1.0003908
1.0002981
1.0002054
1.0001134
1.000023
0.99993458
0.99984873
0.9997658
0.99968605
0.99960967
0.99953679
0.99946747
0.99940173
0.99933954
0.99928085
0.99922558
0.99917362
0.99912484
0.99907914
0.99903636
0.99899636
0.99895901
0.99892416
0.99889167
0.99886141
0.99883324
0.99880702
0.99878264
0.99875998
0.99873892
0.99871936
0.99870121
0.99868426
1.0001457
1.0001604
1.0001783
1.0001976
1.0002187
1.0002416
1.0002666
1.0002937
1.000323
1.0003547
1.0003886
1.000425
1.0004639
1.000505
1.0005485
1.000594
1.0006414
1.0006903
1.0007402
1.0007905
1.0008405
1.0008894
1.0009361
1.0009797
1.0010189
1.0010525
1.0010794
1.0010983
1.0011083
1.0011085
1.0010983
1.0010774
1.0010457
1.0010037
1.0009517
1.0008907
1.0008216
1.0007455
1.0006637
1.0005774
1.0004879
1.0003963
1.0003037
1.000211
1.0001191
1.0000286
0.99994019
0.9998543
0.9997713
0.99969148
0.99961503
0.99954207
0.99947268
0.99940686
0.9993446
0.99928584
0.99923049
0.99917846
0.99912962
0.99908385
0.99904101
0.99900095
0.99896355
0.99892865
0.99889611
0.9988658
0.99883759
0.99881133
0.99878692
0.99876422
0.99874313
0.99872353
0.99870536
0.99868839
1.0001457
1.0001604
1.0001783
1.0001976
1.0002186
1.0002416
1.0002666
1.0002937
1.000323
1.0003546
1.0003886
1.000425
1.0004638
1.0005049
1.0005484
1.0005939
1.0006413
1.0006901
1.00074
1.0007903
1.0008404
1.0008893
1.0009361
1.0009798
1.0010192
1.001053
1.0010801
1.0010993
1.0011097
1.0011104
1.0011007
1.0010803
1.0010493
1.0010078
1.0009564
1.0008959
1.0008272
1.0007516
1.0006701
1.0005841
1.0004949
1.0004034
1.0003109
1.0002183
1.0001264
1.0000359
0.99994745
0.99986151
0.99977844
0.99969854
0.99962199
0.99954894
0.99947944
0.99941353
0.99935117
0.99929231
0.99923687
0.99918474
0.99913582
0.99908996
0.99904704
0.99900691