/*--------------------------------*- C++ -*----------------------------------*\
| =========                 |                                                 |
| \\      /  F ield         | OpenFOAM: The Open Source CFD Toolbox           |
|  \\    /   O peration     | Version:  v2006                                 |
|   \\  /    A nd           | Website:  www.openfoam.com                      |
|    \\/     M anipulation  |                                                 |
\*---------------------------------------------------------------------------*/
FoamFile
{
    version     2.0;
    format      ascii;
    class       volScalarField;
    location    "10000";
    object      rho;
}
// * * * * * * * * * * * * * * * * * * * * * * * * * * * * * * * * * * * * * //

dimensions      [1 -3 0 0 0 0 0];


internalField   nonuniform List<scalar> 
55713
(
1.0000288
1.000027
1.0000263
1.0000259
1.0000257
1.0000257
1.0000256
1.0000256
1.0000256
1.0000256
1.0000256
1.0000255
1.0000255
1.0000255
1.0000255
1.0000255
1.0000255
1.0000255
1.0000255
1.0000255
1.0000255
1.0000255
1.0000255
1.0000255
1.0000255
1.0000255
1.0000255
1.0000255
1.0000255
1.0000255
1.0000255
1.0000255
1.0000255
1.0000255
1.0000255
1.0000255
1.0000255
1.0000255
1.0000255
1.0000255
1.0000255
1.0000255
1.0000255
1.0000255
1.0000255
1.0000255
1.0000255
1.0000255
1.0000256
1.0000256
1.0000256
1.0000256
1.0000256
1.0000256
1.0000256
1.0000256
1.0000256
1.0000256
1.0000257
1.0000268
1.0000252
1.0000245
1.0000242
1.0000241
1.000024
1.000024
1.000024
1.000024
1.000024
1.000024
1.000024
1.0000239
1.0000239
1.0000239
1.0000239
1.0000239
1.0000239
1.0000239
1.0000239
1.0000239
1.0000239
1.0000239
1.0000239
1.0000239
1.0000239
1.0000239
1.0000239
1.0000239
1.0000239
1.0000239
1.0000239
1.0000239
1.0000239
1.0000239
1.0000239
1.0000239
1.0000239
1.0000239
1.0000239
1.0000239
1.0000239
1.0000239
1.0000239
1.0000239
1.000024
1.000024
1.000024
1.000024
1.000024
1.000024
1.000024
1.000024
1.000024
1.000024
1.000024
1.000024
1.0000241
1.0000241
1.0000253
1.0000237
1.0000231
1.0000229
1.0000228
1.0000228
1.0000227
1.0000227
1.0000227
1.0000227
1.0000227
1.0000227
1.0000227
1.0000227
1.0000227
1.0000227
1.0000227
1.0000227
1.0000227
1.0000226
1.0000226
1.0000226
1.0000226
1.0000226
1.0000226
1.0000226
1.0000226
1.0000226
1.0000226
1.0000226
1.0000226
1.0000226
1.0000226
1.0000226
1.0000226
1.0000226
1.0000226
1.0000227
1.0000227
1.0000227
1.0000227
1.0000227
1.0000227
1.0000227
1.0000227
1.0000227
1.0000227
1.0000227
1.0000227
1.0000227
1.0000227
1.0000227
1.0000227
1.0000228
1.0000228
1.0000228
1.0000228
1.0000228
1.0000228
1.0000238
1.0000224
1.0000219
1.0000217
1.0000216
1.0000216
1.0000216
1.0000216
1.0000216
1.0000215
1.0000215
1.0000215
1.0000215
1.0000215
1.0000215
1.0000215
1.0000215
1.0000215
1.0000215
1.0000215
1.0000215
1.0000215
1.0000215
1.0000215
1.0000215
1.0000215
1.0000215
1.0000215
1.0000215
1.0000215
1.0000215
1.0000215
1.0000215
1.0000215
1.0000215
1.0000215
1.0000215
1.0000215
1.0000215
1.0000215
1.0000215
1.0000215
1.0000215
1.0000215
1.0000215
1.0000216
1.0000216
1.0000216
1.0000216
1.0000216
1.0000216
1.0000216
1.0000216
1.0000216
1.0000216
1.0000216
1.0000216
1.0000216
1.0000217
1.0000226
1.0000213
1.0000208
1.0000207
1.0000206
1.0000206
1.0000206
1.0000206
1.0000206
1.0000206
1.0000206
1.0000206
1.0000206
1.0000205
1.0000205
1.0000205
1.0000205
1.0000205
1.0000205
1.0000205
1.0000205
1.0000205
1.0000205
1.0000205
1.0000205
1.0000205
1.0000205
1.0000205
1.0000205
1.0000205
1.0000205
1.0000205
1.0000205
1.0000205
1.0000205
1.0000205
1.0000205
1.0000205
1.0000205
1.0000205
1.0000206
1.0000206
1.0000206
1.0000206
1.0000206
1.0000206
1.0000206
1.0000206
1.0000206
1.0000206
1.0000206
1.0000206
1.0000206
1.0000206
1.0000206
1.0000206
1.0000207
1.0000207
1.0000207
1.0000215
1.0000203
1.0000199
1.0000198
1.0000198
1.0000197
1.0000197
1.0000197
1.0000197
1.0000197
1.0000197
1.0000197
1.0000197
1.0000197
1.0000197
1.0000197
1.0000197
1.0000197
1.0000197
1.0000197
1.0000197
1.0000197
1.0000197
1.0000197
1.0000197
1.0000197
1.0000197
1.0000197
1.0000197
1.0000197
1.0000197
1.0000197
1.0000197
1.0000197
1.0000197
1.0000197
1.0000197
1.0000197
1.0000197
1.0000197
1.0000197
1.0000197
1.0000197
1.0000197
1.0000197
1.0000197
1.0000197
1.0000197
1.0000197
1.0000197
1.0000198
1.0000198
1.0000198
1.0000198
1.0000198
1.0000198
1.0000198
1.0000198
1.0000198
1.0000205
1.0000195
1.0000192
1.0000191
1.000019
1.000019
1.000019
1.000019
1.000019
1.000019
1.000019
1.000019
1.000019
1.000019
1.000019
1.000019
1.000019
1.000019
1.000019
1.000019
1.000019
1.0000189
1.0000189
1.0000189
1.0000189
1.0000189
1.0000189
1.0000189
1.0000189
1.0000189
1.0000189
1.0000189
1.0000189
1.0000189
1.000019
1.000019
1.000019
1.000019
1.000019
1.000019
1.000019
1.000019
1.000019
1.000019
1.000019
1.000019
1.000019
1.000019
1.000019
1.000019
1.000019
1.000019
1.000019
1.000019
1.000019
1.0000191
1.0000191
1.0000191
1.0000191
1.0000197
1.0000187
1.0000185
1.0000184
1.0000184
1.0000184
1.0000184
1.0000184
1.0000184
1.0000184
1.0000184
1.0000184
1.0000184
1.0000184
1.0000184
1.0000183
1.0000183
1.0000183
1.0000183
1.0000183
1.0000183
1.0000183
1.0000183
1.0000183
1.0000183
1.0000183
1.0000183
1.0000183
1.0000183
1.0000183
1.0000183
1.0000183
1.0000183
1.0000183
1.0000183
1.0000183
1.0000183
1.0000183
1.0000183
1.0000183
1.0000184
1.0000184
1.0000184
1.0000184
1.0000184
1.0000184
1.0000184
1.0000184
1.0000184
1.0000184
1.0000184
1.0000184
1.0000184
1.0000184
1.0000184
1.0000184
1.0000184
1.0000184
1.0000184
1.000019
1.0000182
1.000018
1.0000179
1.0000179
1.0000179
1.0000179
1.0000179
1.0000179
1.0000179
1.0000179
1.0000179
1.0000179
1.0000179
1.0000179
1.0000179
1.0000179
1.0000179
1.0000179
1.0000179
1.0000179
1.0000179
1.0000179
1.0000179
1.0000179
1.0000178
1.0000178
1.0000178
1.0000178
1.0000178
1.0000178
1.0000179
1.0000179
1.0000179
1.0000179
1.0000179
1.0000179
1.0000179
1.0000179
1.0000179
1.0000179
1.0000179
1.0000179
1.0000179
1.0000179
1.0000179
1.0000179
1.0000179
1.0000179
1.0000179
1.0000179
1.0000179
1.0000179
1.0000179
1.0000179
1.0000179
1.0000179
1.0000179
1.000018
1.0000184
1.0000177
1.0000175
1.0000175
1.0000175
1.0000175
1.0000175
1.0000174
1.0000174
1.0000174
1.0000174
1.0000174
1.0000174
1.0000174
1.0000174
1.0000174
1.0000174
1.0000174
1.0000174
1.0000174
1.0000174
1.0000174
1.0000174
1.0000174
1.0000174
1.0000174
1.0000174
1.0000174
1.0000174
1.0000174
1.0000174
1.0000174
1.0000174
1.0000174
1.0000174
1.0000174
1.0000174
1.0000174
1.0000174
1.0000174
1.0000174
1.0000174
1.0000174
1.0000174
1.0000174
1.0000174
1.0000174
1.0000175
1.0000175
1.0000175
1.0000175
1.0000175
1.0000175
1.0000175
1.0000175
1.0000175
1.0000175
1.0000175
1.0000175
1.0000175
1.0000169
1.0000168
1.0000168
1.0000168
1.0000168
1.0000168
1.0000168
1.0000168
1.0000168
1.0000168
1.0000168
1.0000168
1.0000168
1.0000168
1.0000168
1.0000168
1.0000168
1.0000167
1.0000167
1.0000167
1.0000167
1.0000167
1.0000167
1.0000167
1.0000167
1.0000167
1.0000167
1.0000167
1.0000167
1.0000167
1.0000167
1.0000167
1.0000167
1.0000167
1.0000167
1.0000167
1.0000167
1.0000167
1.0000167
1.0000167
1.0000167
1.0000167
1.0000167
1.0000168
1.0000168
1.0000168
1.0000168
1.0000168
1.0000168
1.0000168
1.0000168
1.0000168
1.0000168
1.0000168
1.0000168
1.0000168
1.0000168
1.0000168
1.0000179
1.0000174
1.0000174
1.0000173
1.0000173
1.0000173
1.0000173
1.0000173
1.0000173
1.0000173
1.0000173
1.0000173
1.0000173
1.0000173
1.0000173
1.0000173
1.0000173
1.0000173
1.0000173
1.0000172
1.0000172
1.0000172
1.0000172
1.0000172
1.0000172
1.0000172
1.0000172
1.0000172
1.0000172
1.0000172
1.0000172
1.0000172
1.0000172
1.0000172
1.0000172
1.0000172
1.0000172
1.0000172
1.0000172
1.0000172
1.0000172
1.0000172
1.0000172
1.0000172
1.0000172
1.0000172
1.0000172
1.0000172
1.0000172
1.0000172
1.0000172
1.0000172
1.0000172
1.0000173
1.0000173
1.0000173
1.0000173
1.0000173
1.0000173
1.0000208
1.0000204
1.0000204
1.0000204
1.0000204
1.0000204
1.0000204
1.0000204
1.0000204
1.0000204
1.0000204
1.0000204
1.0000204
1.0000204
1.0000204
1.0000204
1.0000204
1.0000204
1.0000204
1.0000204
1.0000204
1.0000204
1.0000204
1.0000204
1.0000204
1.0000204
1.0000204
1.0000204
1.0000204
1.0000204
1.0000204
1.0000204
1.0000204
1.0000204
1.0000204
1.0000204
1.0000204
1.0000204
1.0000204
1.0000204
1.0000204
1.0000204
1.0000204
1.0000204
1.0000204
1.0000204
1.0000204
1.0000204
1.0000204
1.0000205
1.0000205
1.0000205
1.0000205
1.0000205
1.0000205
1.0000205
1.0000205
1.0000205
1.0000205
1.0000085
1.0000083
1.0000083
1.0000083
1.0000083
1.0000083
1.0000083
1.0000083
1.0000083
1.0000083
1.0000083
1.0000083
1.0000083
1.0000083
1.0000083
1.0000083
1.0000083
1.0000083
1.0000083
1.0000083
1.0000083
1.0000083
1.0000083
1.0000083
1.0000083
1.0000083
1.0000083
1.0000083
1.0000083
1.0000083
1.0000083
1.0000083
1.0000083
1.0000083
1.0000083
1.0000083
1.0000083
1.0000083
1.0000083
1.0000083
1.0000083
1.0000083
1.0000083
1.0000083
1.0000084
1.0000084
1.0000084
1.0000084
1.0000084
1.0000084
1.0000084
1.0000084
1.0000084
1.0000084
1.0000084
1.0000084
1.0000084
1.0000084
1.0000084
1.0000901
1.00009
1.0000899
1.0000899
1.0000899
1.0000898
1.0000898
1.0000898
1.0000898
1.0000897
1.0000897
1.0000897
1.0000897
1.0000897
1.0000897
1.0000897
1.0000896
1.0000896
1.0000896
1.0000896
1.0000896
1.0000896
1.0000896
1.0000896
1.0000896
1.0000896
1.0000896
1.0000896
1.0000896
1.0000896
1.0000897
1.0000897
1.0000897
1.0000897
1.0000897
1.0000898
1.0000898
1.0000898
1.0000899
1.0000899
1.0000899
1.00009
1.00009
1.00009
1.0000901
1.0000901
1.0000902
1.0000902
1.0000903
1.0000904
1.0000905
1.0000907
1.0000909
1.0000913
1.000092
1.000093
1.0000949
1.0000983
1.000104
1.0000825
1.0000824
1.0000823
1.0000823
1.0000823
1.0000823
1.0000822
1.0000822
1.0000822
1.0000822
1.0000821
1.0000821
1.0000821
1.0000821
1.0000821
1.0000821
1.0000821
1.000082
1.000082
1.000082
1.000082
1.000082
1.000082
1.000082
1.000082
1.000082
1.000082
1.000082
1.000082
1.000082
1.000082
1.0000821
1.0000821
1.0000821
1.0000821
1.0000822
1.0000822
1.0000822
1.0000822
1.0000823
1.0000823
1.0000823
1.0000824
1.0000824
1.0000825
1.0000825
1.0000825
1.0000826
1.0000827
1.0000828
1.0000829
1.000083
1.0000833
1.0000836
1.0000842
1.0000852
1.0000869
1.00009
1.0000953
1.0000758
1.0000757
1.0000757
1.0000756
1.0000756
1.0000756
1.0000756
1.0000755
1.0000755
1.0000755
1.0000755
1.0000755
1.0000754
1.0000754
1.0000754
1.0000754
1.0000754
1.0000754
1.0000753
1.0000753
1.0000753
1.0000753
1.0000753
1.0000753
1.0000753
1.0000753
1.0000753
1.0000753
1.0000753
1.0000753
1.0000753
1.0000754
1.0000754
1.0000754
1.0000754
1.0000754
1.0000754
1.0000755
1.0000755
1.0000755
1.0000756
1.0000756
1.0000756
1.0000757
1.0000757
1.0000757
1.0000758
1.0000758
1.0000759
1.000076
1.0000761
1.0000762
1.0000764
1.0000768
1.0000773
1.0000782
1.0000798
1.0000826
1.0000875
1.0000694
1.0000693
1.0000693
1.0000693
1.0000692
1.0000692
1.0000692
1.0000692
1.0000691
1.0000691
1.0000691
1.0000691
1.0000691
1.000069
1.000069
1.000069
1.000069
1.000069
1.000069
1.0000689
1.0000689
1.0000689
1.0000689
1.0000689
1.0000689
1.0000689
1.0000689
1.0000689
1.0000689
1.0000689
1.0000689
1.0000689
1.000069
1.000069
1.000069
1.000069
1.000069
1.0000691
1.0000691
1.0000691
1.0000691
1.0000692
1.0000692
1.0000692
1.0000693
1.0000693
1.0000693
1.0000694
1.0000694
1.0000695
1.0000696
1.0000697
1.0000699
1.0000702
1.0000707
1.0000715
1.0000729
1.0000756
1.00008
1.0000635
1.0000634
1.0000634
1.0000634
1.0000633
1.0000633
1.0000633
1.0000633
1.0000632
1.0000632
1.0000632
1.0000632
1.0000632
1.0000631
1.0000631
1.0000631
1.0000631
1.0000631
1.0000631
1.000063
1.000063
1.000063
1.000063
1.000063
1.000063
1.000063
1.000063
1.000063
1.000063
1.000063
1.000063
1.000063
1.000063
1.0000631
1.0000631
1.0000631
1.0000631
1.0000631
1.0000631
1.0000632
1.0000632
1.0000632
1.0000633
1.0000633
1.0000633
1.0000633
1.0000634
1.0000634
1.0000635
1.0000635
1.0000636
1.0000637
1.0000639
1.0000642
1.0000646
1.0000653
1.0000666
1.000069
1.0000732
1.000058
1.0000579
1.0000579
1.0000579
1.0000578
1.0000578
1.0000578
1.0000578
1.0000577
1.0000577
1.0000577
1.0000577
1.0000577
1.0000576
1.0000576
1.0000576
1.0000576
1.0000576
1.0000576
1.0000575
1.0000575
1.0000575
1.0000575
1.0000575
1.0000575
1.0000575
1.0000575
1.0000575
1.0000575
1.0000575
1.0000575
1.0000575
1.0000575
1.0000575
1.0000576
1.0000576
1.0000576
1.0000576
1.0000576
1.0000576
1.0000577
1.0000577
1.0000577
1.0000577
1.0000578
1.0000578
1.0000578
1.0000579
1.0000579
1.000058
1.0000581
1.0000582
1.0000583
1.0000585
1.0000589
1.0000596
1.0000608
1.0000629
1.0000668
1.0000529
1.0000528
1.0000528
1.0000528
1.0000527
1.0000527
1.0000527
1.0000527
1.0000526
1.0000526
1.0000526
1.0000526
1.0000526
1.0000526
1.0000525
1.0000525
1.0000525
1.0000525
1.0000525
1.0000525
1.0000525
1.0000524
1.0000524
1.0000524
1.0000524
1.0000524
1.0000524
1.0000524
1.0000524
1.0000524
1.0000524
1.0000524
1.0000524
1.0000524
1.0000525
1.0000525
1.0000525
1.0000525
1.0000525
1.0000525
1.0000526
1.0000526
1.0000526
1.0000526
1.0000527
1.0000527
1.0000527
1.0000527
1.0000528
1.0000528
1.0000529
1.000053
1.0000531
1.0000533
1.0000537
1.0000543
1.0000553
1.0000573
1.0000608
1.0000481
1.0000481
1.0000481
1.000048
1.000048
1.000048
1.000048
1.000048
1.0000479
1.0000479
1.0000479
1.0000479
1.0000479
1.0000478
1.0000478
1.0000478
1.0000478
1.0000478
1.0000478
1.0000478
1.0000478
1.0000477
1.0000477
1.0000477
1.0000477
1.0000477
1.0000477
1.0000477
1.0000477
1.0000477
1.0000477
1.0000477
1.0000477
1.0000477
1.0000478
1.0000478
1.0000478
1.0000478
1.0000478
1.0000478
1.0000478
1.0000479
1.0000479
1.0000479
1.0000479
1.000048
1.000048
1.000048
1.000048
1.0000481
1.0000481
1.0000482
1.0000483
1.0000485
1.0000488
1.0000493
1.0000503
1.0000521
1.0000553
1.0000438
1.0000437
1.0000437
1.0000437
1.0000437
1.0000437
1.0000436
1.0000436
1.0000436
1.0000436
1.0000436
1.0000436
1.0000435
1.0000435
1.0000435
1.0000435
1.0000435
1.0000435
1.0000435
1.0000434
1.0000434
1.0000434
1.0000434
1.0000434
1.0000434
1.0000434
1.0000434
1.0000434
1.0000434
1.0000434
1.0000434
1.0000434
1.0000434
1.0000434
1.0000434
1.0000434
1.0000434
1.0000435
1.0000435
1.0000435
1.0000435
1.0000435
1.0000435
1.0000436
1.0000436
1.0000436
1.0000436
1.0000437
1.0000437
1.0000437
1.0000438
1.0000438
1.0000439
1.0000441
1.0000443
1.0000448
1.0000457
1.0000473
1.0000503
1.0000398
1.0000397
1.0000397
1.0000397
1.0000397
1.0000397
1.0000397
1.0000396
1.0000396
1.0000396
1.0000396
1.0000396
1.0000396
1.0000395
1.0000395
1.0000395
1.0000395
1.0000395
1.0000395
1.0000395
1.0000395
1.0000395
1.0000394
1.0000394
1.0000394
1.0000394
1.0000394
1.0000394
1.0000394
1.0000394
1.0000394
1.0000394
1.0000394
1.0000394
1.0000395
1.0000395
1.0000395
1.0000395
1.0000395
1.0000395
1.0000395
1.0000395
1.0000396
1.0000396
1.0000396
1.0000396
1.0000396
1.0000397
1.0000397
1.0000397
1.0000398
1.0000398
1.0000399
1.00004
1.0000402
1.0000406
1.0000414
1.0000429
1.0000456
1.0000361
1.0000361
1.0000361
1.0000361
1.000036
1.000036
1.000036
1.000036
1.000036
1.000036
1.000036
1.0000359
1.0000359
1.0000359
1.0000359
1.0000359
1.0000359
1.0000359
1.0000359
1.0000359
1.0000358
1.0000358
1.0000358
1.0000358
1.0000358
1.0000358
1.0000358
1.0000358
1.0000358
1.0000358
1.0000358
1.0000358
1.0000358
1.0000358
1.0000358
1.0000358
1.0000358
1.0000359
1.0000359
1.0000359
1.0000359
1.0000359
1.0000359
1.0000359
1.000036
1.000036
1.000036
1.000036
1.000036
1.0000361
1.0000361
1.0000361
1.0000362
1.0000363
1.0000365
1.0000368
1.0000375
1.0000388
1.0000414
1.0000328
1.0000327
1.0000327
1.0000327
1.0000327
1.0000327
1.0000327
1.0000327
1.0000326
1.0000326
1.0000326
1.0000326
1.0000326
1.0000326
1.0000326
1.0000326
1.0000326
1.0000325
1.0000325
1.0000325
1.0000325
1.0000325
1.0000325
1.0000325
1.0000325
1.0000325
1.0000325
1.0000325
1.0000325
1.0000325
1.0000325
1.0000325
1.0000325
1.0000325
1.0000325
1.0000325
1.0000325
1.0000325
1.0000325
1.0000325
1.0000326
1.0000326
1.0000326
1.0000326
1.0000326
1.0000326
1.0000326
1.0000327
1.0000327
1.0000327
1.0000327
1.0000328
1.0000328
1.0000329
1.0000331
1.0000334
1.0000339
1.0000351
1.0000374
1.0000297
1.0000296
1.0000296
1.0000296
1.0000296
1.0000296
1.0000296
1.0000296
1.0000296
1.0000295
1.0000295
1.0000295
1.0000295
1.0000295
1.0000295
1.0000295
1.0000295
1.0000295
1.0000295
1.0000295
1.0000295
1.0000294
1.0000294
1.0000294
1.0000294
1.0000294
1.0000294
1.0000294
1.0000294
1.0000294
1.0000294
1.0000294
1.0000294
1.0000294
1.0000294
1.0000294
1.0000295
1.0000295
1.0000295
1.0000295
1.0000295
1.0000295
1.0000295
1.0000295
1.0000295
1.0000295
1.0000296
1.0000296
1.0000296
1.0000296
1.0000296
1.0000296
1.0000297
1.0000298
1.0000299
1.0000301
1.0000306
1.0000317
1.0000338
1.0000273
1.0000273
1.0000273
1.0000273
1.0000273
1.0000273
1.0000272
1.0000272
1.0000272
1.0000272
1.0000272
1.0000272
1.0000272
1.0000272
1.0000272
1.0000272
1.0000272
1.0000272
1.0000271
1.0000271
1.0000271
1.0000271
1.0000271
1.0000271
1.0000271
1.0000271
1.0000271
1.0000271
1.0000271
1.0000271
1.0000271
1.0000271
1.0000271
1.0000271
1.0000271
1.0000271
1.0000271
1.0000271
1.0000271
1.0000272
1.0000272
1.0000272
1.0000272
1.0000272
1.0000272
1.0000272
1.0000272
1.0000272
1.0000272
1.0000272
1.0000273
1.0000273
1.0000273
1.0000274
1.0000275
1.0000277
1.0000281
1.000029
1.000031
1.0001133
1.0001247
1.0001389
1.0001543
1.0001711
1.0001896
1.0002097
1.0002316
1.0002553
1.0002808
1.0003084
1.0003378
1.0003693
1.0004026
1.0004377
1.0004746
1.0005128
1.0005522
1.0005924
1.0006327
1.0006727
1.0007116
1.0007484
1.0007825
1.0008127
1.0008379
1.0008571
1.0008694
1.0008738
1.0008697
1.0008566
1.0008341
1.0008024
1.0007616
1.0007123
1.0006552
1.0005912
1.0005214
1.0004468
1.0003684
1.0002874
1.0002047
1.0001214
1.0000381
0.99995572
0.99987473
0.99979568
0.99971897
0.9996449
0.99957373
0.99950563
0.9994407
0.99937898
0.99932049
0.99926521
0.99921308
0.99916403
0.99911795
0.99907473
0.99903428
0.99899645
0.99896113
0.99892819
0.9988975
0.99886892
0.99884234
0.99881765
0.99879472
0.99877345
0.99875372
0.99873544
0.99871851
0.99870288
0.99868835
1.0001072
1.0001182
1.0001317
1.0001464
1.0001624
1.00018
1.0001992
1.0002201
1.0002429
1.0002675
1.000294
1.0003225
1.000353
1.0003853
1.0004196
1.0004555
1.000493
1.0005317
1.0005712
1.000611
1.0006507
1.0006894
1.0007263
1.0007608
1.0007915
1.0008176
1.0008381
1.0008521
1.0008585
1.0008568
1.0008465
1.0008271
1.0007988
1.0007617
1.0007163
1.0006633
1.0006035
1.0005379
1.0004675
1.0003934
1.0003165
1.0002378
1.0001583
1.0000787
0.99999975
0.99992202
0.99984604
0.99977219
0.99970079
0.9996321
0.99956629
0.99950348
0.99944371
0.99938703
0.9993334
0.99928279
0.99923513
0.99919034
0.9991483
0.99910893
0.99907209
0.99903768
0.99900557
0.99897563
0.99894775
0.99892181
0.99889771
0.99887532
0.99885454
0.99883526
0.9988174
0.99880084
0.99878555
0.99877124
1.0001036
1.0001142
1.0001273
1.0001416
1.0001571
1.0001741
1.0001926
1.0002128
1.0002347
1.0002584
1.0002839
1.0003114
1.0003408
1.0003721
1.0004052
1.0004399
1.0004762
1.0005137
1.0005521
1.0005909
1.0006295
1.0006674
1.0007036
1.0007374
1.0007678
1.0007938
1.0008145
1.000829
1.0008363
1.0008358
1.000827
1.0008097
1.0007838
1.0007494
1.0007072
1.0006576
1.0006015
1.0005397
1.0004734
1.0004034
1.0003308
1.0002564
1.0001811
1.0001057
1.0000309
0.99995714
0.99988502
0.99981489
0.99974708
0.9996818
0.99961923
0.99955948
0.99950261
0.99944864
0.99939757
0.99934935
0.99930393
0.99926123
0.99922114
0.99918358
0.99914844
0.9991156
0.99908495
0.99905637
0.99902975
0.99900498
0.99898194
0.99896055
0.99894068
0.99892226
0.99890517
0.99888934
0.99887471
0.998861
1.0001015
1.0001119
1.0001247
1.0001387
1.0001539
1.0001705
1.0001885
1.0002082
1.0002296
1.0002526
1.0002775
1.0003042
1.0003328
1.0003631
1.0003953
1.0004291
1.0004643
1.0005007
1.000538
1.0005756
1.0006132
1.0006499
1.0006851
1.000718
1.0007475
1.0007728
1.0007929
1.000807
1.0008142
1.0008138
1.0008054
1.0007886
1.0007636
1.0007305
1.0006896
1.0006418
1.0005876
1.0005281
1.0004642
1.0003968
1.0003268
1.0002552
1.0001828
1.0001104
1.0000385
0.99996767
0.99989844
0.99983117
0.99976612
0.99970354
0.99964357
0.99958632
0.99953184
0.99948016
0.99943127
0.99938511
0.99934164
0.99930077
0.99926243
0.9992265
0.99919289
0.99916148
0.99913217
0.99910485
0.99907941
0.99905574
0.99903373
0.99901328
0.9989943
0.9989767
0.99896037
0.99894524
0.99893126
0.99891815
1.0001002
1.0001104
1.0001231
1.0001369
1.0001518
1.0001682
1.000186
1.0002053
1.0002263
1.0002489
1.0002733
1.0002995
1.0003274
1.0003572
1.0003886
1.0004216
1.000456
1.0004916
1.0005279
1.0005646
1.0006012
1.0006369
1.0006711
1.000703
1.0007316
1.000756
1.0007754
1.0007887
1.0007952
1.0007944
1.0007856
1.0007687
1.0007436
1.0007106
1.0006701
1.0006227
1.0005692
1.0005105
1.0004475
1.0003811
1.0003124
1.0002421
1.000171
1.0001
1.0000295
0.99996024
0.99989253
0.99982677
0.99976325
0.99970215
0.99964365
0.99958783
0.99953475
0.99948441
0.99943681
0.9993919
0.99934961
0.99930988
0.99927261
0.9992377
0.99920505
0.99917455
0.99914609
0.99911957
0.99909488
0.99907191
0.99905056
0.99903072
0.99901231
0.99899523
0.99897939
0.99896471
0.99895114
0.99893844
1.0000995
1.0001096
1.0001221
1.0001357
1.0001505
1.0001666
1.0001842
1.0002033
1.000224
1.0002464
1.0002704
1.0002962
1.0003238
1.000353
1.000384
1.0004164
1.0004502
1.0004851
1.0005207
1.0005567
1.0005925
1.0006274
1.0006608
1.0006918
1.0007196
1.0007432
1.0007617
1.0007743
1.0007801
1.0007786
1.0007693
1.0007518
1.0007264
1.000693
1.0006523
1.0006047
1.0005512
1.0004925
1.0004296
1.0003634
1.0002949
1.0002249
1.0001542
1.0000836
1.0000136
0.9999448
0.99987762
0.9998124
0.99974942
0.99968889
0.99963095
0.99957569
0.99952315
0.99947336
0.99942629
0.99938189
0.9993401
0.99930084
0.99926402
0.99922955
0.99919731
0.9991672
0.99913912
0.99911295
0.99908859
0.99906594
0.99904488
0.99902532
0.99900717
0.99899033
0.99897472
0.99896025
0.99894688
0.99893435
1.000099
1.000109
1.0001214
1.0001349
1.0001496
1.0001656
1.000183
1.000202
1.0002225
1.0002446
1.0002684
1.000294
1.0003212
1.0003501
1.0003806
1.0004127
1.000446
1.0004804
1.0005155
1.0005509
1.0005861
1.0006204
1.0006531
1.0006835
1.0007106
1.0007335
1.0007514
1.0007633
1.0007685
1.0007664
1.0007564
1.0007385
1.0007125
1.0006787
1.0006376
1.0005897
1.0005358
1.0004768
1.0004137
1.0003473
1.0002787
1.0002086
1.0001378
1.0000672
0.99999715
0.99992836
0.9998612
0.99979602
0.9997331
0.99967264
0.99961478
0.99955961
0.99950717
0.99945748
0.99941051
0.99936621
0.99932453
0.99928538
0.99924867
0.9992143
0.99918216
0.99915215
0.99912417
0.99909809
0.99907381
0.99905124
0.99903025
0.99901076
0.99899267
0.99897589
0.99896034
0.99894591
0.99893258
0.99892009
1.0000987
1.0001086
1.000121
1.0001344
1.0001489
1.0001648
1.0001822
1.000201
1.0002214
1.0002433
1.000267
1.0002923
1.0003193
1.000348
1.0003782
1.0004099
1.0004429
1.000477
1.0005117
1.0005467
1.0005814
1.0006152
1.0006474
1.0006773
1.0007039
1.0007263
1.0007436
1.000755
1.0007597
1.0007571
1.0007467
1.0007283
1.0007018
1.0006677
1.0006261
1.0005779
1.0005237
1.0004644
1.000401
1.0003344
1.0002655
1.0001952
1.0001243
1.0000534
0.99998324
0.9999143
0.999847
0.99978171
0.99971868
0.99965812
0.99960018
0.99954493
0.99949242
0.99944267
0.99939564
0.9993513
0.99930957
0.99927038
0.99923363
0.99919923
0.99916706
0.99913703
0.99910902
0.99908291
0.99905862
0.99903602
0.99901502
0.99899551
0.99897741
0.99896061
0.99894504
0.99893061
0.99891727
0.99890476
1.0000985
1.0001083
1.0001207
1.000134
1.0001485
1.0001643
1.0001815
1.0002002
1.0002205
1.0002423
1.0002658
1.000291
1.0003178
1.0003463
1.0003764
1.0004079
1.0004406
1.0004744
1.0005088
1.0005435
1.0005778
1.0006113
1.0006431
1.0006727
1.0006988
1.0007208
1.0007378
1.0007488
1.0007531
1.0007501
1.0007393
1.0007206
1.0006939
1.0006594
1.0006176
1.0005691
1.0005146
1.0004551
1.0003915
1.0003247
1.0002556
1.0001851
1.000114
1.000043
0.99997265
0.99990357
0.99983614
0.99977071
0.99970756
0.99964689
0.99958883
0.99953348
0.99948087
0.99943102
0.9993839
0.99933947
0.99929767
0.9992584
0.99922158
0.99918711
0.99915489
0.9991248
0.99909673
0.99907059
0.99904624
0.9990236
0.99900256
0.99898302
0.99896488
0.99894805
0.99893245
0.99891797
0.9989046
0.99889207
1.0000983
1.0001082
1.0001204
1.0001337
1.0001481
1.0001639
1.000181
1.0001997
1.0002198
1.0002416
1.000265
1.00029
1.0003167
1.000345
1.0003749
1.0004062
1.0004388
1.0004723
1.0005065
1.000541
1.0005751
1.0006083
1.0006398
1.0006691
1.000695
1.0007167
1.0007333
1.0007441
1.0007481
1.0007449
1.0007339
1.000715
1.0006881
1.0006534
1.0006114
1.0005627
1.0005081
1.0004485
1.0003847
1.0003178
1.0002486
1.0001779
1.0001067
1.0000356
0.99996515
0.99989595
0.9998284
0.99976286
0.9996996
0.99963883
0.99958067
0.99952523
0.99947254
0.99942262
0.99937543
0.99933094
0.99928908
0.99924976
0.9992129
0.99917838
0.99914612
0.99911599
0.99908789
0.9990617
0.99903733
0.99901466
0.99899358
0.99897401
0.99895585
0.998939
0.99892337
0.99890888
0.9988955
0.99888296
1.0000982
1.000108
1.0001202
1.0001335
1.0001478
1.0001636
1.0001807
1.0001992
1.0002193
1.000241
1.0002643
1.0002892
1.0003158
1.000344
1.0003738
1.0004049
1.0004373
1.0004707
1.0005047
1.000539
1.0005729
1.0006059
1.0006373
1.0006663
1.000692
1.0007135
1.00073
1.0007406
1.0007445
1.0007411
1.00073
1.0007109
1.0006839
1.0006491
1.0006071
1.0005583
1.0005037
1.0004439
1.0003801
1.0003131
1.0002438
1.0001731
1.0001018
1.0000306
0.99996011
0.99989082
0.99982321
0.99975761
0.99969429
0.99963346
0.99957526
0.99951977
0.99946704
0.99941708
0.99936986
0.99932533
0.99928344
0.99924409
0.9992072
0.99917266
0.99914037
0.99911022
0.99908209
0.99905589
0.9990315
0.99900881
0.99898772
0.99896813
0.99894995
0.99893309
0.99891745
0.99890294
0.99888955
0.99887699
1.0000981
1.0001079
1.0001201
1.0001333
1.0001476
1.0001633
1.0001803
1.0001989
1.0002189
1.0002405
1.0002637
1.0002886
1.0003151
1.0003432
1.0003728
1.0004039
1.0004362
1.0004694
1.0005033
1.0005374
1.0005712
1.000604
1.0006352
1.0006641
1.0006897
1.0007111
1.0007274
1.0007379
1.0007417
1.0007383
1.0007271
1.0007081
1.000681
1.0006463
1.0006042
1.0005555
1.0005008
1.0004411
1.0003773
1.0003102
1.0002409
1.0001702
1.0000989
1.0000276
0.99995706
0.99988774
0.99982009
0.99975446
0.99969111
0.99963025
0.99957202
0.9995165
0.99946374
0.99941374
0.99936649
0.99932194
0.99928001
0.99924064
0.99920372
0.99916915
0.99913684
0.99910666
0.99907852
0.99905229
0.99902788
0.99900517
0.99898406
0.99896446
0.99894626
0.99892938
0.99891373
0.99889922
0.99888581
0.99887326
1.000098
1.0001078
1.00012
1.0001331
1.0001474
1.0001631
1.0001801
1.0001985
1.0002185
1.00024
1.0002632
1.000288
1.0003144
1.0003424
1.000372
1.000403
1.0004351
1.0004683
1.0005021
1.0005361
1.0005697
1.0006025
1.0006336
1.0006624
1.0006879
1.0007092
1.0007255
1.0007359
1.0007398
1.0007363
1.0007252
1.0007062
1.0006792
1.0006445
1.0006025
1.0005539
1.0004993
1.0004396
1.0003758
1.0003088
1.0002395
1.0001688
1.0000975
1.0000262
0.99995564
0.99988631
0.99981864
0.99975298
0.9996896
0.99962871
0.99957044
0.99951488
0.99946209
0.99941206
0.99936478
0.99932019
0.99927824
0.99923884
0.99920189
0.9991673
0.99913496
0.99910476
0.9990766
0.99905035
0.99902592
0.99900319
0.99898207
0.99896245
0.99894424
0.99892735
0.99891168
0.99889716
0.99888374
0.99887118
1.0000979
1.0001077
1.0001198
1.000133
1.0001473
1.0001629
1.0001798
1.0001983
1.0002182
1.0002397
1.0002628
1.0002875
1.0003139
1.0003418
1.0003713
1.0004022
1.0004343
1.0004673
1.000501
1.0005349
1.0005685
1.0006012
1.0006322
1.000661
1.0006864
1.0007077
1.000724
1.0007345
1.0007384
1.000735
1.000724
1.0007051
1.0006783
1.0006437
1.0006019
1.0005534
1.0004989
1.0004394
1.0003757
1.0003087
1.0002395
1.0001688
1.0000975
1.0000262
0.99995563
0.99988628
0.99981859
0.9997529
0.99968949
0.99962855
0.99957025
0.99951466
0.99946182
0.99941176
0.99936444
0.99931982
0.99927783
0.99923839
0.99920141
0.99916679
0.99913442
0.99910419
0.999076
0.99904973
0.99902527
0.99900252
0.99898138
0.99896174
0.99894351
0.9989266
0.99891092
0.99889639
0.99888296
0.99887039
1.0000979
1.0001076
1.0001197
1.0001328
1.0001471
1.0001627
1.0001796
1.000198
1.0002179
1.0002393
1.0002624
1.0002871
1.0003134
1.0003413
1.0003707
1.0004015
1.0004335
1.0004665
1.0005001
1.0005339
1.0005675
1.0006001
1.0006311
1.0006598
1.0006853
1.0007066
1.000723
1.0007335
1.0007375
1.0007343
1.0007235
1.0007048
1.0006781
1.0006438
1.0006022
1.0005539
1.0004996
1.0004402
1.0003767
1.0003098
1.0002406
1.00017
1.0000987
1.0000275
0.99995692
0.99988756
0.99981984
0.99975412
0.99969066
0.99962969
0.99957133
0.99951569
0.99946281
0.99941269
0.99936533
0.99932066
0.99927862
0.99923914
0.99920212
0.99916745
0.99913504
0.99910478
0.99907655
0.99905025
0.99902576
0.99900298
0.99898181
0.99896215
0.99894389
0.99892696
0.99891126
0.99889671
0.99888326
0.99887067
1.0000978
1.0001075
1.0001196
1.0001327
1.000147
1.0001625
1.0001794
1.0001978
1.0002176
1.000239
1.000262
1.0002866
1.0003129
1.0003407
1.0003701
1.0004008
1.0004328
1.0004657
1.0004993
1.0005331
1.0005666
1.0005992
1.0006301
1.0006589
1.0006843
1.0007057
1.0007222
1.0007329
1.0007371
1.0007341
1.0007235
1.0007051
1.0006788
1.0006448
1.0006034
1.0005554
1.0005014
1.0004422
1.0003788
1.0003122
1.0002431
1.0001726
1.0001013
1.0000301
0.99995955
0.99989017
0.99982242
0.99975665
0.99969315
0.99963212
0.9995737
0.999518
0.99946505
0.99941487
0.99936744
0.99932271
0.99928062
0.99924108
0.999204
0.99916928
0.99913683
0.99910652
0.99907824
0.9990519
0.99902737
0.99900456
0.99898335
0.99896366
0.99894538
0.99892842
0.9989127
0.99889812
0.99888465
0.99887205
1.0000978
1.0001074
1.0001195
1.0001326
1.0001468
1.0001623
1.0001792
1.0001975
1.0002173
1.0002387
1.0002617
1.0002862
1.0003125
1.0003402
1.0003695
1.0004002
1.0004322
1.000465
1.0004985
1.0005323
1.0005657
1.0005983
1.0006293
1.0006581
1.0006836
1.0007051
1.0007217
1.0007326
1.0007371
1.0007344
1.0007242
1.0007061
1.0006802
1.0006466
1.0006057
1.000558
1.0005043
1.0004455
1.0003823
1.0003159
1.000247
1.0001765
1.0001054
1.0000342
0.99996364
0.99989424
0.99982645
0.99976063
0.99969706
0.99963596
0.99957746
0.99952168
0.99946865
0.99941839
0.99937087
0.99932606
0.99928389