/*--------------------------------*- C++ -*----------------------------------*\
| =========                 |                                                 |
| \\      /  F ield         | OpenFOAM: The Open Source CFD Toolbox           |
|  \\    /   O peration     | Version:  v2006                                 |
|   \\  /    A nd           | Website:  www.openfoam.com                      |
|    \\/     M anipulation  |                                                 |
\*---------------------------------------------------------------------------*/
FoamFile
{
    version     2.0;
    format      ascii;
    class       volScalarField;
    location    "10000";
    object      T;
}
// * * * * * * * * * * * * * * * * * * * * * * * * * * * * * * * * * * * * * //

dimensions      [0 0 0 1 0 0 0];


internalField   nonuniform List<scalar> 
55713
(
1.0000078
1.0000096
1.0000103
1.0000107
1.0000108
1.0000109
1.000011
1.000011
1.000011
1.000011
1.000011
1.000011
1.000011
1.0000111
1.0000111
1.0000111
1.0000111
1.0000111
1.0000111
1.0000111
1.0000111
1.0000111
1.0000111
1.0000111
1.0000111
1.0000111
1.0000111
1.0000111
1.0000111
1.0000111
1.0000111
1.0000111
1.0000111
1.0000111
1.0000111
1.0000111
1.0000111
1.0000111
1.0000111
1.0000111
1.0000111
1.0000111
1.0000111
1.0000111
1.0000111
1.000011
1.000011
1.000011
1.000011
1.000011
1.000011
1.000011
1.000011
1.000011
1.000011
1.000011
1.0000109
1.0000109
1.0000109
1.0000075
1.0000091
1.0000098
1.0000101
1.0000102
1.0000103
1.0000103
1.0000104
1.0000104
1.0000104
1.0000104
1.0000104
1.0000104
1.0000104
1.0000104
1.0000104
1.0000104
1.0000104
1.0000104
1.0000105
1.0000105
1.0000105
1.0000105
1.0000105
1.0000105
1.0000105
1.0000105
1.0000105
1.0000105
1.0000105
1.0000105
1.0000105
1.0000105
1.0000105
1.0000105
1.0000105
1.0000105
1.0000105
1.0000105
1.0000105
1.0000104
1.0000104
1.0000104
1.0000104
1.0000104
1.0000104
1.0000104
1.0000104
1.0000104
1.0000104
1.0000104
1.0000104
1.0000104
1.0000104
1.0000103
1.0000103
1.0000103
1.0000103
1.0000103
1.0000072
1.0000087
1.0000093
1.0000096
1.0000097
1.0000097
1.0000098
1.0000098
1.0000098
1.0000098
1.0000098
1.0000098
1.0000098
1.0000098
1.0000098
1.0000098
1.0000099
1.0000099
1.0000099
1.0000099
1.0000099
1.0000099
1.0000099
1.0000099
1.0000099
1.0000099
1.0000099
1.0000099
1.0000099
1.0000099
1.0000099
1.0000099
1.0000099
1.0000099
1.0000099
1.0000099
1.0000099
1.0000099
1.0000099
1.0000099
1.0000099
1.0000099
1.0000099
1.0000099
1.0000098
1.0000098
1.0000098
1.0000098
1.0000098
1.0000098
1.0000098
1.0000098
1.0000098
1.0000098
1.0000098
1.0000098
1.0000098
1.0000097
1.0000097
1.000007
1.0000084
1.0000089
1.0000091
1.0000092
1.0000093
1.0000093
1.0000093
1.0000093
1.0000093
1.0000093
1.0000093
1.0000093
1.0000093
1.0000093
1.0000093
1.0000094
1.0000094
1.0000094
1.0000094
1.0000094
1.0000094
1.0000094
1.0000094
1.0000094
1.0000094
1.0000094
1.0000094
1.0000094
1.0000094
1.0000094
1.0000094
1.0000094
1.0000094
1.0000094
1.0000094
1.0000094
1.0000094
1.0000094
1.0000094
1.0000094
1.0000094
1.0000094
1.0000094
1.0000093
1.0000093
1.0000093
1.0000093
1.0000093
1.0000093
1.0000093
1.0000093
1.0000093
1.0000093
1.0000093
1.0000093
1.0000093
1.0000093
1.0000093
1.0000068
1.0000081
1.0000086
1.0000087
1.0000088
1.0000088
1.0000088
1.0000089
1.0000089
1.0000089
1.0000089
1.0000089
1.0000089
1.0000089
1.0000089
1.0000089
1.0000089
1.0000089
1.0000089
1.0000089
1.0000089
1.0000089
1.0000089
1.0000089
1.0000089
1.0000089
1.0000089
1.0000089
1.0000089
1.0000089
1.0000089
1.0000089
1.0000089
1.0000089
1.0000089
1.0000089
1.0000089
1.0000089
1.0000089
1.0000089
1.0000089
1.0000089
1.0000089
1.0000089
1.0000089
1.0000089
1.0000089
1.0000089
1.0000089
1.0000089
1.0000089
1.0000089
1.0000089
1.0000089
1.0000089
1.0000089
1.0000088
1.0000088
1.0000088
1.0000067
1.0000079
1.0000083
1.0000084
1.0000084
1.0000085
1.0000085
1.0000085
1.0000085
1.0000085
1.0000085
1.0000085
1.0000085
1.0000085
1.0000085
1.0000085
1.0000085
1.0000085
1.0000085
1.0000085
1.0000086
1.0000086
1.0000086
1.0000086
1.0000086
1.0000086
1.0000086
1.0000086
1.0000086
1.0000086
1.0000086
1.0000086
1.0000086
1.0000086
1.0000086
1.0000086
1.0000086
1.0000086
1.0000086
1.0000086
1.0000086
1.0000085
1.0000085
1.0000085
1.0000085
1.0000085
1.0000085
1.0000085
1.0000085
1.0000085
1.0000085
1.0000085
1.0000085
1.0000085
1.0000085
1.0000085
1.0000085
1.0000085
1.0000085
1.0000066
1.0000077
1.000008
1.0000081
1.0000081
1.0000081
1.0000082
1.0000082
1.0000082
1.0000082
1.0000082
1.0000082
1.0000082
1.0000082
1.0000082
1.0000082
1.0000082
1.0000082
1.0000082
1.0000082
1.0000082
1.0000082
1.0000082
1.0000082
1.0000082
1.0000082
1.0000082
1.0000082
1.0000082
1.0000082
1.0000082
1.0000082
1.0000082
1.0000082
1.0000082
1.0000082
1.0000082
1.0000082
1.0000082
1.0000082
1.0000082
1.0000082
1.0000082
1.0000082
1.0000082
1.0000082
1.0000082
1.0000082
1.0000082
1.0000082
1.0000082
1.0000082
1.0000082
1.0000082
1.0000082
1.0000082
1.0000082
1.0000081
1.0000081
1.0000065
1.0000075
1.0000078
1.0000078
1.0000079
1.0000079
1.0000079
1.0000079
1.0000079
1.0000079
1.0000079
1.0000079
1.0000079
1.0000079
1.0000079
1.0000079
1.0000079
1.0000079
1.0000079
1.0000079
1.0000079
1.0000079
1.0000079
1.000008
1.000008
1.000008
1.000008
1.000008
1.000008
1.000008
1.000008
1.000008
1.000008
1.000008
1.000008
1.000008
1.000008
1.000008
1.0000079
1.0000079
1.0000079
1.0000079
1.0000079
1.0000079
1.0000079
1.0000079
1.0000079
1.0000079
1.0000079
1.0000079
1.0000079
1.0000079
1.0000079
1.0000079
1.0000079
1.0000079
1.0000079
1.0000079
1.0000079
1.0000065
1.0000074
1.0000076
1.0000076
1.0000076
1.0000077
1.0000077
1.0000077
1.0000077
1.0000077
1.0000077
1.0000077
1.0000077
1.0000077
1.0000077
1.0000077
1.0000077
1.0000077
1.0000077
1.0000077
1.0000077
1.0000077
1.0000077
1.0000077
1.0000077
1.0000077
1.0000077
1.0000077
1.0000077
1.0000077
1.0000077
1.0000077
1.0000077
1.0000077
1.0000077
1.0000077
1.0000077
1.0000077
1.0000077
1.0000077
1.0000077
1.0000077
1.0000077
1.0000077
1.0000077
1.0000077
1.0000077
1.0000077
1.0000077
1.0000077
1.0000077
1.0000077
1.0000077
1.0000077
1.0000077
1.0000077
1.0000077
1.0000076
1.0000076
1.0000065
1.0000073
1.0000074
1.0000074
1.0000075
1.0000075
1.0000075
1.0000075
1.0000075
1.0000075
1.0000075
1.0000075
1.0000075
1.0000075
1.0000075
1.0000075
1.0000075
1.0000075
1.0000075
1.0000075
1.0000075
1.0000075
1.0000075
1.0000075
1.0000075
1.0000075
1.0000075
1.0000075
1.0000075
1.0000075
1.0000075
1.0000075
1.0000075
1.0000075
1.0000075
1.0000075
1.0000075
1.0000075
1.0000075
1.0000075
1.0000075
1.0000075
1.0000075
1.0000075
1.0000075
1.0000075
1.0000075
1.0000075
1.0000075
1.0000075
1.0000075
1.0000075
1.0000075
1.0000075
1.0000075
1.0000075
1.0000075
1.0000075
1.0000075
1.0000065
1.0000071
1.0000072
1.0000072
1.0000072
1.0000073
1.0000073
1.0000073
1.0000073
1.0000073
1.0000073
1.0000073
1.0000073
1.0000073
1.0000073
1.0000073
1.0000073
1.0000073
1.0000073
1.0000073
1.0000073
1.0000073
1.0000073
1.0000073
1.0000073
1.0000073
1.0000073
1.0000073
1.0000073
1.0000073
1.0000073
1.0000073
1.0000073
1.0000073
1.0000073
1.0000073
1.0000073
1.0000073
1.0000073
1.0000073
1.0000073
1.0000073
1.0000073
1.0000073
1.0000073
1.0000073
1.0000073
1.0000073
1.0000073
1.0000073
1.0000073
1.0000073
1.0000073
1.0000073
1.0000073
1.0000072
1.0000072
1.0000072
1.0000072
1.0000066
1.0000071
1.0000072
1.0000072
1.0000072
1.0000072
1.0000072
1.0000072
1.0000072
1.0000072
1.0000072
1.0000072
1.0000072
1.0000072
1.0000072
1.0000072
1.0000072
1.0000072
1.0000072
1.0000072
1.0000072
1.0000072
1.0000072
1.0000072
1.0000072
1.0000072
1.0000072
1.0000072
1.0000072
1.0000072
1.0000072
1.0000072
1.0000072
1.0000072
1.0000072
1.0000072
1.0000072
1.0000072
1.0000072
1.0000072
1.0000072
1.0000072
1.0000072
1.0000072
1.0000072
1.0000072
1.0000072
1.0000072
1.0000072
1.0000072
1.0000072
1.0000072
1.0000072
1.0000072
1.0000072
1.0000072
1.0000072
1.0000072
1.0000072
1.0000074
1.0000077
1.0000078
1.0000078
1.0000078
1.0000078
1.0000078
1.0000078
1.0000078
1.0000078
1.0000078
1.0000078
1.0000078
1.0000078
1.0000078
1.0000078
1.0000078
1.0000078
1.0000078
1.0000078
1.0000078
1.0000078
1.0000078
1.0000078
1.0000078
1.0000078
1.0000078
1.0000078
1.0000078
1.0000078
1.0000078
1.0000078
1.0000078
1.0000078
1.0000078
1.0000078
1.0000078
1.0000078
1.0000078
1.0000078
1.0000078
1.0000078
1.0000078
1.0000078
1.0000078
1.0000078
1.0000078
1.0000078
1.0000078
1.0000078
1.0000078
1.0000078
1.0000078
1.0000078
1.0000078
1.0000078
1.0000078
1.0000078
1.0000078
1.0000062
1.0000064
1.0000064
1.0000064
1.0000064
1.0000064
1.0000064
1.0000064
1.0000064
1.0000064
1.0000064
1.0000064
1.0000064
1.0000064
1.0000064
1.0000064
1.0000065
1.0000065
1.0000065
1.0000065
1.0000065
1.0000065
1.0000065
1.0000065
1.0000065
1.0000065
1.0000065
1.0000065
1.0000065
1.0000065
1.0000065
1.0000065
1.0000065
1.0000065
1.0000065
1.0000065
1.0000065
1.0000065
1.0000065
1.0000065
1.0000065
1.0000065
1.0000065
1.0000065
1.0000065
1.0000065
1.0000065
1.0000065
1.0000064
1.0000064
1.0000064
1.0000064
1.0000064
1.0000064
1.0000064
1.0000064
1.0000064
1.0000064
1.0000064
1.0000375
1.0000376
1.0000377
1.0000378
1.0000379
1.0000379
1.000038
1.000038
1.0000381
1.0000382
1.0000382
1.0000383
1.0000383
1.0000383
1.0000384
1.0000384
1.0000385
1.0000385
1.0000385
1.0000386
1.0000386
1.0000386
1.0000387
1.0000387
1.0000387
1.0000387
1.0000388
1.0000388
1.0000388
1.0000388
1.0000388
1.0000388
1.0000388
1.0000388
1.0000388
1.0000388
1.0000388
1.0000387
1.0000387
1.0000387
1.0000387
1.0000387
1.0000386
1.0000386
1.0000386
1.0000385
1.0000385
1.0000384
1.0000384
1.0000383
1.0000382
1.000038
1.0000377
1.0000373
1.0000367
1.0000356
1.0000338
1.0000304
1.0000247
1.0000346
1.0000347
1.0000348
1.0000349
1.000035
1.000035
1.0000351
1.0000351
1.0000352
1.0000352
1.0000353
1.0000353
1.0000354
1.0000354
1.0000354
1.0000355
1.0000355
1.0000356
1.0000356
1.0000356
1.0000356
1.0000357
1.0000357
1.0000357
1.0000357
1.0000358
1.0000358
1.0000358
1.0000358
1.0000358
1.0000358
1.0000358
1.0000358
1.0000358
1.0000358
1.0000358
1.0000358
1.0000358
1.0000357
1.0000357
1.0000357
1.0000357
1.0000356
1.0000356
1.0000356
1.0000355
1.0000355
1.0000354
1.0000354
1.0000353
1.0000352
1.000035
1.0000348
1.0000345
1.0000339
1.0000329
1.0000312
1.0000281
1.0000228
1.0000318
1.0000319
1.000032
1.0000321
1.0000321
1.0000322
1.0000322
1.0000323
1.0000323
1.0000324
1.0000324
1.0000324
1.0000325
1.0000325
1.0000326
1.0000326
1.0000326
1.0000327
1.0000327
1.0000327
1.0000328
1.0000328
1.0000328
1.0000328
1.0000328
1.0000329
1.0000329
1.0000329
1.0000329
1.0000329
1.0000329
1.0000329
1.0000329
1.0000329
1.0000329
1.0000329
1.0000329
1.0000328
1.0000328
1.0000328
1.0000328
1.0000328
1.0000327
1.0000327
1.0000327
1.0000326
1.0000326
1.0000326
1.0000325
1.0000324
1.0000323
1.0000322
1.000032
1.0000317
1.0000311
1.0000302
1.0000287
1.0000258
1.0000209
1.0000292
1.0000293
1.0000294
1.0000295
1.0000295
1.0000295
1.0000296
1.0000296
1.0000297
1.0000297
1.0000298
1.0000298
1.0000298
1.0000299
1.0000299
1.0000299
1.00003
1.00003
1.00003
1.0000301
1.0000301
1.0000301
1.0000301
1.0000301
1.0000302
1.0000302
1.0000302
1.0000302
1.0000302
1.0000302
1.0000302
1.0000302
1.0000302
1.0000302
1.0000302
1.0000302
1.0000302
1.0000302
1.0000301
1.0000301
1.0000301
1.0000301
1.00003
1.00003
1.00003
1.00003
1.0000299
1.0000299
1.0000298
1.0000298
1.0000297
1.0000295
1.0000294
1.0000291
1.0000286
1.0000278
1.0000263
1.0000237
1.0000192
1.0000268
1.0000269
1.0000269
1.000027
1.000027
1.0000271
1.0000271
1.0000272
1.0000272
1.0000272
1.0000273
1.0000273
1.0000273
1.0000274
1.0000274
1.0000274
1.0000275
1.0000275
1.0000275
1.0000275
1.0000276
1.0000276
1.0000276
1.0000276
1.0000276
1.0000277
1.0000277
1.0000277
1.0000277
1.0000277
1.0000277
1.0000277
1.0000277
1.0000277
1.0000277
1.0000277
1.0000276
1.0000276
1.0000276
1.0000276
1.0000276
1.0000276
1.0000275
1.0000275
1.0000275
1.0000274
1.0000274
1.0000274
1.0000273
1.0000273
1.0000272
1.0000271
1.0000269
1.0000266
1.0000262
1.0000255
1.0000242
1.0000218
1.0000176
1.0000245
1.0000246
1.0000247
1.0000247
1.0000248
1.0000248
1.0000248
1.0000249
1.0000249
1.0000249
1.000025
1.000025
1.000025
1.0000251
1.0000251
1.0000251
1.0000251
1.0000252
1.0000252
1.0000252
1.0000252
1.0000252
1.0000253
1.0000253
1.0000253
1.0000253
1.0000253
1.0000253
1.0000253
1.0000253
1.0000253
1.0000253
1.0000253
1.0000253
1.0000253
1.0000253
1.0000253
1.0000253
1.0000253
1.0000252
1.0000252
1.0000252
1.0000252
1.0000252
1.0000251
1.0000251
1.0000251
1.0000251
1.000025
1.000025
1.0000249
1.0000248
1.0000246
1.0000244
1.000024
1.0000234
1.0000222
1.00002
1.0000162
1.0000224
1.0000225
1.0000226
1.0000226
1.0000226
1.0000227
1.0000227
1.0000227
1.0000228
1.0000228
1.0000228
1.0000228
1.0000229
1.0000229
1.0000229
1.000023
1.000023
1.000023
1.000023
1.000023
1.0000231
1.0000231
1.0000231
1.0000231
1.0000231
1.0000231
1.0000231
1.0000231
1.0000232
1.0000232
1.0000232
1.0000232
1.0000231
1.0000231
1.0000231
1.0000231
1.0000231
1.0000231
1.0000231
1.0000231
1.0000231
1.000023
1.000023
1.000023
1.000023
1.000023
1.0000229
1.0000229
1.0000229
1.0000228
1.0000227
1.0000227
1.0000225
1.0000223
1.000022
1.0000214
1.0000203
1.0000183
1.0000148
1.0000205
1.0000206
1.0000206
1.0000206
1.0000207
1.0000207
1.0000207
1.0000208
1.0000208
1.0000208
1.0000208
1.0000209
1.0000209
1.0000209
1.0000209
1.000021
1.000021
1.000021
1.000021
1.000021
1.0000211
1.0000211
1.0000211
1.0000211
1.0000211
1.0000211
1.0000211
1.0000211
1.0000211
1.0000211
1.0000211
1.0000211
1.0000211
1.0000211
1.0000211
1.0000211
1.0000211
1.0000211
1.0000211
1.0000211
1.000021
1.000021
1.000021
1.000021
1.000021
1.0000209
1.0000209
1.0000209
1.0000209
1.0000208
1.0000208
1.0000207
1.0000206
1.0000204
1.0000201
1.0000196
1.0000186
1.0000168
1.0000136
1.0000187
1.0000188
1.0000188
1.0000188
1.0000189
1.0000189
1.0000189
1.0000189
1.000019
1.000019
1.000019
1.000019
1.0000191
1.0000191
1.0000191
1.0000191
1.0000191
1.0000191
1.0000192
1.0000192
1.0000192
1.0000192
1.0000192
1.0000192
1.0000192
1.0000193
1.0000193
1.0000193
1.0000193
1.0000193
1.0000193
1.0000193
1.0000193
1.0000193
1.0000193
1.0000192
1.0000192
1.0000192
1.0000192
1.0000192
1.0000192
1.0000192
1.0000192
1.0000191
1.0000191
1.0000191
1.0000191
1.0000191
1.000019
1.000019
1.0000189
1.0000189
1.0000188
1.0000186
1.0000184
1.0000179
1.0000171
1.0000154
1.0000124
1.0000171
1.0000171
1.0000171
1.0000172
1.0000172
1.0000172
1.0000172
1.0000173
1.0000173
1.0000173
1.0000173
1.0000173
1.0000174
1.0000174
1.0000174
1.0000174
1.0000174
1.0000174
1.0000175
1.0000175
1.0000175
1.0000175
1.0000175
1.0000175
1.0000175
1.0000175
1.0000175
1.0000176
1.0000176
1.0000176
1.0000176
1.0000176
1.0000176
1.0000175
1.0000175
1.0000175
1.0000175
1.0000175
1.0000175
1.0000175
1.0000175
1.0000175
1.0000175
1.0000174
1.0000174
1.0000174
1.0000174
1.0000174
1.0000173
1.0000173
1.0000173
1.0000172
1.0000171
1.000017
1.0000168
1.0000164
1.0000156
1.0000142
1.0000114
1.0000156
1.0000156
1.0000156
1.0000156
1.0000157
1.0000157
1.0000157
1.0000157
1.0000157
1.0000158
1.0000158
1.0000158
1.0000158
1.0000158
1.0000158
1.0000159
1.0000159
1.0000159
1.0000159
1.0000159
1.0000159
1.0000159
1.0000159
1.000016
1.000016
1.000016
1.000016
1.000016
1.000016
1.000016
1.000016
1.000016
1.000016
1.000016
1.000016
1.000016
1.000016
1.0000159
1.0000159
1.0000159
1.0000159
1.0000159
1.0000159
1.0000159
1.0000159
1.0000158
1.0000158
1.0000158
1.0000158
1.0000158
1.0000157
1.0000157
1.0000156
1.0000155
1.0000153
1.000015
1.0000143
1.000013
1.0000104
1.0000142
1.0000142
1.0000142
1.0000142
1.0000143
1.0000143
1.0000143
1.0000143
1.0000143
1.0000144
1.0000144
1.0000144
1.0000144
1.0000144
1.0000144
1.0000144
1.0000144
1.0000145
1.0000145
1.0000145
1.0000145
1.0000145
1.0000145
1.0000145
1.0000145
1.0000145
1.0000145
1.0000145
1.0000145
1.0000145
1.0000145
1.0000145
1.0000145
1.0000145
1.0000145
1.0000145
1.0000145
1.0000145
1.0000145
1.0000145
1.0000145
1.0000145
1.0000145
1.0000145
1.0000144
1.0000144
1.0000144
1.0000144
1.0000144
1.0000144
1.0000143
1.0000143
1.0000142
1.0000141
1.000014
1.0000137
1.0000131
1.0000119
1.0000096
1.0000129
1.0000129
1.0000129
1.000013
1.000013
1.000013
1.000013
1.000013
1.000013
1.0000131
1.0000131
1.0000131
1.0000131
1.0000131
1.0000131
1.0000131
1.0000131
1.0000131
1.0000132
1.0000132
1.0000132
1.0000132
1.0000132
1.0000132
1.0000132
1.0000132
1.0000132
1.0000132
1.0000132
1.0000132
1.0000132
1.0000132
1.0000132
1.0000132
1.0000132
1.0000132
1.0000132
1.0000132
1.0000132
1.0000132
1.0000132
1.0000132
1.0000131
1.0000131
1.0000131
1.0000131
1.0000131
1.0000131
1.0000131
1.0000131
1.000013
1.000013
1.000013
1.0000129
1.0000128
1.0000125
1.000012
1.000011
1.0000088
1.0000118
1.0000118
1.0000118
1.0000119
1.0000119
1.0000119
1.0000119
1.0000119
1.0000119
1.0000119
1.000012
1.000012
1.000012
1.000012
1.000012
1.000012
1.000012
1.000012
1.000012
1.000012
1.000012
1.000012
1.000012
1.0000121
1.0000121
1.0000121
1.0000121
1.0000121
1.0000121
1.0000121
1.0000121
1.0000121
1.0000121
1.0000121
1.0000121
1.0000121
1.0000121
1.000012
1.000012
1.000012
1.000012
1.000012
1.000012
1.000012
1.000012
1.000012
1.000012
1.000012
1.000012
1.0000119
1.0000119
1.0000119
1.0000119
1.0000118
1.0000117
1.0000115
1.0000111
1.0000102
1.0000082
1.000027
1.0000296
1.0000325
1.0000356
1.0000389
1.0000424
1.0000462
1.0000502
1.0000545
1.0000591
1.000064
1.0000692
1.0000747
1.0000805
1.0000865
1.0000928
1.0000992
1.0001057
1.0001122
1.0001185
1.0001247
1.0001304
1.0001355
1.0001399
1.0001433
1.0001455
1.0001464
1.0001458
1.0001435
1.0001396
1.0001338
1.0001264
1.0001172
1.0001065
1.0000943
1.000081
1.0000665
1.0000513
1.0000354
1.0000192
1.0000027
0.99998616
0.99996975
0.99995358
0.99993777
0.99992239
0.99990752
0.99989321
0.99987949
0.99986641
0.99985396
0.99984215
0.99983099
0.99982045
0.99981053
0.99980121
0.99979247
0.99978428
0.99977662
0.99976946
0.99976278
0.99975656
0.99975077
0.99974538
0.99974037
0.99973572
0.99973141
0.9997274
0.9997237
0.99972026
0.99971709
0.99971416
0.99971145
0.999709
1.0000331
1.0000362
1.0000398
1.0000436
1.0000476
1.000052
1.0000567
1.0000616
1.0000669
1.0000725
1.0000783
1.0000845
1.000091
1.0000977
1.0001047
1.0001118
1.000119
1.0001262
1.0001334
1.0001402
1.0001467
1.0001525
1.0001576
1.0001616
1.0001644
1.0001657
1.0001653
1.0001631
1.0001588
1.0001524
1.000144
1.0001334
1.0001208
1.0001064
1.0000903
1.0000728
1.0000542
1.0000347
1.0000146
0.99999416
0.99997358
0.99995307
0.99993283
0.99991301
0.99989372
0.99987508
0.99985714
0.99983996
0.99982357
0.99980801
0.99979326
0.99977933
0.9997662
0.99975386
0.99974228
0.99973143
0.99972129
0.99971181
0.99970297
0.99969473
0.99968706
0.99967992
0.9996733
0.99966714
0.99966143
0.99965613
0.99965123
0.99964668
0.99964248
0.99963859
0.99963499
0.99963168
0.9996286
0.99962582
1.0000367
1.0000402
1.0000441
1.0000484
1.000053
1.0000579
1.0000633
1.000069
1.0000751
1.0000816
1.0000884
1.0000956
1.0001032
1.000111
1.0001191
1.0001274
1.0001358
1.0001442
1.0001524
1.0001604
1.0001678
1.0001746
1.0001804
1.000185
1.0001881
1.0001895
1.0001889
1.0001862
1.0001811
1.0001735
1.0001634
1.0001508
1.0001358
1.0001187
1.0000995
1.0000786
1.0000563
1.000033
1.0000088
0.99998416
0.99995933
0.99993455
0.99991005
0.99988602
0.99986261
0.99983995
0.99981813
0.99979722
0.99977726
0.99975829
0.9997403
0.99972331
0.99970729
0.99969223
0.99967809
0.99966484
0.99965246
0.99964089
0.99963009
0.99962004
0.99961067
0.99960197
0.99959388
0.99958637
0.9995794
0.99957294
0.99956696
0.99956141
0.99955628
0.99955154
0.99954715
0.9995431
0.99953934
0.99953592
1.0000388
1.0000425
1.0000467
1.0000513
1.0000562
1.0000615
1.0000673
1.0000735
1.0000802
1.0000873
1.0000948
1.0001028
1.0001112
1.0001199
1.000129
1.0001383
1.0001477
1.0001572
1.0001665
1.0001756
1.0001842
1.000192
1.0001988
1.0002044
1.0002084
1.0002105
1.0002105
1.0002081
1.0002032
1.0001955
1.0001851
1.0001719
1.000156
1.0001377
1.0001171
1.0000945
1.0000702
1.0000446
1.0000181
0.99999088
0.99996334
0.99993576
0.99990839
0.99988144
0.99985509
0.9998295
0.99980478
0.99978103
0.99975829
0.99973661
0.99971602
0.99969652
0.9996781
0.99966074
0.99964442
0.9996291
0.99961475
0.99960132
0.99958878
0.99957709
0.99956619
0.99955604
0.9995466
0.99953783
0.99952968
0.99952213
0.99951512
0.99950863
0.99950261
0.99949704
0.99949189
0.99948712
0.9994827
0.99947865
1.0000401
1.0000439
1.0000483
1.0000531
1.0000582
1.0000638
1.0000699
1.0000765
1.0000835
1.000091
1.000099
1.0001075
1.0001165
1.0001259
1.0001356
1.0001457
1.000156
1.0001663
1.0001766
1.0001866
1.0001962
1.000205
1.0002128
1.0002194
1.0002243
1.0002273
1.0002281
1.0002265
1.0002222
1.000215
1.0002049
1.0001919
1.0001761
1.0001576
1.0001367
1.0001137
1.0000888
1.0000624
1.0000349
1.0000066
0.99997793
0.99994907
0.99992034
0.99989196
0.99986415
0.99983705
0.99981081
0.99978553
0.99976128
0.99973811
0.99971605
0.99969511
0.9996753
0.99965659
0.99963897
0.99962241
0.99960688
0.99959232
0.99957871
0.99956599
0.99955413
0.99954307
0.99953278
0.99952321
0.99951431
0.99950604
0.99949837
0.99949126
0.99948466
0.99947855
0.99947289
0.99946766
0.9994628
0.99945835
1.0000408
1.0000448
1.0000493
1.0000542
1.0000596
1.0000654
1.0000716
1.0000784
1.0000857
1.0000935
1.0001019
1.0001108
1.0001201
1.00013
1.0001403
1.0001509
1.0001618
1.0001728
1.0001838
1.0001945
1.0002049
1.0002145
1.0002232
1.0002305
1.0002363
1.0002402
1.0002418
1.0002409
1.0002373
1.0002308
1.0002214
1.0002089
1.0001935
1.0001754
1.0001547
1.0001318
1.000107
1.0000807
1.0000531
1.0000246
0.99999566
0.99996649
0.99993738
0.99990859
0.99988031
0.99985272
0.99982596
0.99980013
0.99977532
0.99975158
0.99972896
0.99970745
0.99968708
0.99966783
0.99964968
0.9996326
0.99961656
0.99960152
0.99958745
0.99957429
0.99956201
0.99955055
0.99953988
0.99952994
0.99952071
0.99951212
0.99950415
0.99949676
0.9994899
0.99948354
0.99947765
0.99947219
0.99946713
0.99946249
1.0000413
1.0000453
1.00005
1.000055
1.0000605
1.0000664
1.0000728
1.0000798
1.0000873
1.0000953
1.0001039
1.000113
1.0001227
1.0001329
1.0001436
1.0001546
1.0001659
1.0001774
1.0001889
1.0002003
1.0002112
1.0002215
1.0002308
1.0002389
1.0002453
1.0002499
1.0002522
1.000252
1.0002491
1.0002432
1.0002344
1.0002225
1.0002076
1.00019
1.0001697
1.0001472
1.0001227
1.0000966
1.0000693
1.000041
1.0000122
0.99998315
0.99995412
0.99992537
0.99989711
0.99986951
0.99984271
0.99981684
0.99979196
0.99976815
0.99974543
0.99972384
0.99970336
0.99968401
0.99966574
0.99964856
0.99963241
0.99961726
0.99960308
0.99958981
0.99957743
0.99956587
0.9995551
0.99954507
0.99953575
0.99952708
0.99951903
0.99951156
0.99950462
0.99949819
0.99949224
0.99948672
0.9994816
0.9994769
1.0000416
1.0000457
1.0000504
1.0000555
1.0000611
1.0000671
1.0000737
1.0000808
1.0000884
1.0000966
1.0001053
1.0001147
1.0001246
1.000135
1.000146
1.0001573
1.000169
1.0001808
1.0001928
1.0002045
1.0002159
1.0002267
1.0002365
1.0002451
1.0002521
1.0002572
1.0002601
1.0002604
1.000258
1.0002527
1.0002444
1.000233
1.0002186
1.0002014
1.0001815
1.0001594
1.0001353
1.0001095
1.0000824
1.0000545
1.0000259
0.99999705
0.99996821
0.99993964
0.99991153
0.99988408
0.99985741
0.99983165
0.99980687
0.99978314
0.99976051
0.99973898
0.99971857
0.99969926
0.99968105
0.9996639
0.99964778
0.99963267
0.99961851
0.99960527
0.99959291
0.99958137
0.99957061
0.9995606
0.99955129
0.99954263
0.99953458
0.99952712
0.99952019
0.99951377
0.99950781
0.9995023
0.99949718
0.99949248
1.0000418
1.000046
1.0000508
1.0000559
1.0000615
1.0000677
1.0000743
1.0000815
1.0000892
1.0000975
1.0001064
1.0001159
1.000126
1.0001367
1.0001478
1.0001594
1.0001713
1.0001834
1.0001956
1.0002077
1.0002195
1.0002306
1.0002408
1.0002498
1.0002572
1.0002627
1.000266
1.0002668
1.0002649
1.00026
1.000252
1.000241
1.000227
1.0002101
1.0001906
1.0001688
1.000145
1.0001195
1.0000926
1.0000649
1.0000365
1.0000079
0.99997922
0.99995081
0.99992286
0.99989554
0.999869
0.99984336
0.99981869
0.99979507
0.99977253
0.99975109
0.99973077
0.99971155
0.99969341
0.99967634
0.9996603
0.99964525
0.99963115
0.99961797
0.99960565
0.99959416
0.99958345
0.99957348
0.9995642
0.99955558
0.99954757
0.99954013
0.99953323
0.99952683
0.99952089
0.9995154
0.99951029
0.99950561
1.0000419
1.0000462
1.000051
1.0000562
1.0000619
1.0000681
1.0000748
1.000082
1.0000899
1.0000983
1.0001073
1.0001169
1.0001271
1.0001379
1.0001492
1.000161
1.0001731
1.0001854
1.0001979
1.0002102
1.0002222
1.0002336
1.0002441
1.0002534
1.0002611
1.000267
1.0002706
1.0002717
1.0002701
1.0002655
1.0002578
1.0002471
1.0002334
1.0002168
1.0001976
1.000176
1.0001523
1.000127
1.0001004
1.0000728
1.0000446
1.0000161
0.99998755
0.99995925
0.9999314
0.99990419
0.99987775
0.9998522
0.99982763
0.9998041
0.99978163
0.99976027
0.99974
0.99972083
0.99970274
0.99968571
0.9996697
0.99965469
0.99964062
0.99962746
0.99961517
0.9996037
0.99959301
0.99958306
0.9995738
0.99956519
0.99955719
0.99954976
0.99954287
0.99953648
0.99953056
0.99952507
0.99951998
0.99951531
1.0000421
1.0000463
1.0000512
1.0000564
1.0000622
1.0000684
1.0000751
1.0000825
1.0000904
1.0000989
1.000108
1.0001177
1.000128
1.0001389
1.0001503
1.0001622
1.0001745
1.000187
1.0001996
1.0002121
1.0002243
1.0002359
1.0002467
1.0002562
1.0002642
1.0002703
1.0002742
1.0002755
1.0002741
1.0002698
1.0002624
1.0002519
1.0002384
1.000222
1.0002029
1.0001815
1.000158
1.0001328
1.0001063
1.0000788
1.0000507
1.0000223
0.99999384
0.99996563
0.99993785
0.9999107
0.99988431
0.9998588
0.99983426
0.99981075
0.9997883
0.99976696
0.99974671
0.99972756
0.99970948
0.99969246
0.99967647
0.99966146
0.99964741
0.99963426
0.99962198
0.99961052
0.99959983
0.99958989
0.99958063
0.99957203
0.99956403
0.99955661
0.99954972
0.99954334
0.99953742
0.99953193
0.99952684
0.99952217
1.0000421
1.0000464
1.0000513
1.0000566
1.0000624
1.0000686
1.0000754
1.0000828
1.0000908
1.0000993
1.0001085
1.0001183
1.0001287
1.0001397
1.0001512
1.0001632
1.0001756
1.0001883
1.000201
1.0002137
1.000226
1.0002378
1.0002487
1.0002584
1.0002666
1.0002729
1.000277
1.0002785
1.0002773
1.0002732
1.0002659
1.0002556
1.0002423
1.000226
1.0002071
1.0001858
1.0001624
1.0001374
1.0001109
1.0000835
1.0000555
1.0000271
0.99999872
0.99997054
0.99994278
0.99991565
0.99988927
0.99986377
0.99983923
0.99981573
0.99979329
0.99977194
0.99975169
0.99973254
0.99971447
0.99969745
0.99968145
0.99966644
0.99965238
0.99963923
0.99962695
0.99961549
0.9996048
0.99959485
0.99958559
0.99957699
0.99956899
0.99956157
0.99955468
0.99954829
0.99954237
0.99953688
0.99953179
0.99952713
1.0000422
1.0000465
1.0000514
1.0000567
1.0000625
1.0000688
1.0000757
1.0000831
1.0000911
1.0000997
1.000109
1.0001188
1.0001293
1.0001404
1.000152
1.0001641
1.0001766
1.0001893
1.0002022
1.0002149
1.0002274
1.0002393
1.0002504
1.0002602
1.0002685
1.000275
1.0002792
1.0002809
1.0002799
1.0002759
1.0002688
1.0002587
1.0002454
1.0002293
1.0002105
1.0001893
1.0001661
1.0001411
1.0001147
1.0000874
1.0000594
1.000031
1.0000026
0.99997447
0.99994672
0.99991959
0.99989321
0.9998677
0.99984316
0.99981965
0.9997972
0.99977584
0.99975559
0.99973642
0.99971834
0.99970131
0.99968531
0.99967029
0.99965623
0.99964307
0.99963078
0.99961931
0.99960862
0.99959866
0.9995894
0.99958078
0.99957278
0.99956535
0.99955846
0.99955207
0.99954614
0.99954065
0.99953556
0.99953089
1.0000423
1.0000466
1.0000515
1.0000569
1.0000627
1.000069
1.0000759
1.0000834
1.0000914
1.0001001
1.0001094
1.0001193
1.0001298
1.0001409
1.0001526
1.0001648
1.0001773
1.0001902
1.0002031
1.000216
1.0002286
1.0002406
1.0002517
1.0002617
1.0002702
1.0002767
1.0002811
1.000283
1.0002821
1.0002782
1.0002713
1.0002612
1.0002482
1.0002322
1.0002135
1.0001924
1.0001692
1.0001443
1.000118
1.0000907
1.0000627
1.0000344
1.000006
0.99997784
0.99995009
0.99992295
0.99989656
0.99987105
0.99984649
0.99982296
0.9998005
0.99977913
0.99975886
0.99973968
0.99972158
0.99970454
0.99968852
0.99967349
0.99965941
0.99964624
0.99963394
0.99962246
0.99961176
0.99960179
0.99959252
0.9995839
0.99957589
0.99956845
0.99956155
0.99955516
0.99954922
0.99954373
0.99953864
0.99953396
1.0000423
1.0000467
1.0000516
1.000057
1.0000628
1.0000692
1.0000761
1.0000836
1.0000917
1.0001004
1.0001097
1.0001197
1.0001302
1.0001414
1.0001532
1.0001654
1.000178
1.0001909
1.0002039
1.0002169
1.0002296
1.0002416
1.0002529
1.000263
1.0002715
1.0002782
1.0002827
1.0002847
1.0002839
1.0002802
1.0002734
1.0002635
1.0002506
1.0002347
1.0002162
1.0001952
1.0001721
1.0001472
1.000121
1.0000937
1.0000658
1.0000375
1.0000091
0.99998096
0.99995321
0.99992606
0.99989966
0.99987413
0.99984956
0.99982601
0.99980353
0.99978214
0.99976185
0.99974265
0.99972453
0.99970747
0.99969143
0.99967639
0.99966229
0.99964911
0.99963679
0.9996253
0.99961458
0.9996046
0.99959532
0.99958669
0.99957867
0.99957122
0.99956431
0.99955791
0.99955197
0.99954647
0.99954137
0.99953668
1.0000424
1.0000467
1.0000517
1.0000571
1.0000629
1.0000693
1.0000763
1.0000838
1.0000919
1.0001006
1.00011
1.00012
1.0001306
1.0001418
1.0001536
1.0001659
1.0001786
1.0001915
1.0002046
1.0002176
1.0002304
1.0002426
1.0002539
1.000264
1.0002727
1.0002795
1.0002841
1.0002862
1.0002856
1.000282
1.0002754
1.0002657
1.0002529
1.0002372
1.0002187
1.0001979
1.0001749
1.0001501
1.000124
1.0000968
1.0000689
1.0000406
1.0000122
0.99998409
0.99995634
0.99992918
0.99990276
0.99987721
0.99985262
0.99982905
0.99980655
0.99978513
0.99976482
0.9997456
0.99972746
0.99971037
0.99969431
0.99967925
0.99966513
0.99965193
0.99963959
0.99962808
0.99961735
0.99960736
0.99959806
0.99958941
0.99958138
0.99957393
0.99956701
0.99956059
0.99955465
0.99954914
0.99954403
0.99953934
1.0000424
1.0000468
1.0000518
1.0000572
1.0000631
1.0000695
1.0000764
1.000084
1.0000921
1.0001009
1.0001103
1.0001203
1.000131
1.0001422
1.0001541
1.0001664
1.0001791
1.0001921
1.0002052
1.0002183
1.0002311
1.0002433
1.0002547
1.000265
1.0002737
1.0002806
1.0002854
1.0002877
1.0002872
1.0002838
1.0002773
1.0002678
1.0002552
1.0002396
1.0002214
1.0002007
1.0001778
1.0001532
1.0001271
1.0001
1.0000721
1.0000439
1.0000156
0.99998744
0.99995969
0.99993252
0.99990609
0.99988053
0.99985591
0.99983231
0.99980978
0.99978834
0.99976799