/*--------------------------------*- C++ -*----------------------------------*\
| =========                 |                                                 |
| \\      /  F ield         | OpenFOAM: The Open Source CFD Toolbox           |
|  \\    /   O peration     | Version:  v2006                                 |
|   \\  /    A nd           | Website:  www.openfoam.com                      |
|    \\/     M anipulation  |                                                 |
\*---------------------------------------------------------------------------*/
FoamFile
{
    version     2.0;
    format      ascii;
    class       volScalarField;
    location    "10000";
    object      TMean;
}
// * * * * * * * * * * * * * * * * * * * * * * * * * * * * * * * * * * * * * //

dimensions      [0 0 0 1 0 0 0];


internalField   nonuniform List<scalar> 
55713
(
1.0000079
1.0000097
1.0000105
1.0000108
1.000011
1.0000111
1.0000111
1.0000111
1.0000111
1.0000112
1.0000112
1.0000112
1.0000112
1.0000112
1.0000112
1.0000112
1.0000112
1.0000112
1.0000112
1.0000113
1.0000113
1.0000113
1.0000113
1.0000113
1.0000113
1.0000113
1.0000113
1.0000113
1.0000113
1.0000113
1.0000113
1.0000113
1.0000113
1.0000113
1.0000113
1.0000113
1.0000113
1.0000113
1.0000113
1.0000112
1.0000112
1.0000112
1.0000112
1.0000112
1.0000112
1.0000112
1.0000112
1.0000112
1.0000112
1.0000112
1.0000111
1.0000111
1.0000111
1.0000111
1.0000111
1.0000111
1.0000111
1.000011
1.000011
1.0000076
1.0000092
1.0000099
1.0000102
1.0000103
1.0000104
1.0000104
1.0000105
1.0000105
1.0000105
1.0000105
1.0000105
1.0000105
1.0000105
1.0000105
1.0000106
1.0000106
1.0000106
1.0000106
1.0000106
1.0000106
1.0000106
1.0000106
1.0000106
1.0000106
1.0000106
1.0000106
1.0000106
1.0000106
1.0000106
1.0000106
1.0000106
1.0000106
1.0000106
1.0000106
1.0000106
1.0000106
1.0000106
1.0000106
1.0000106
1.0000106
1.0000106
1.0000106
1.0000106
1.0000105
1.0000105
1.0000105
1.0000105
1.0000105
1.0000105
1.0000105
1.0000105
1.0000105
1.0000105
1.0000104
1.0000104
1.0000104
1.0000104
1.0000104
1.0000073
1.0000088
1.0000094
1.0000096
1.0000098
1.0000098
1.0000098
1.0000099
1.0000099
1.0000099
1.0000099
1.0000099
1.0000099
1.0000099
1.0000099
1.0000099
1.0000099
1.0000099
1.00001
1.00001
1.00001
1.00001
1.00001
1.00001
1.00001
1.00001
1.00001
1.00001
1.00001
1.00001
1.00001
1.00001
1.00001
1.00001
1.00001
1.00001
1.00001
1.00001
1.00001
1.00001
1.00001
1.00001
1.0000099
1.0000099
1.0000099
1.0000099
1.0000099
1.0000099
1.0000099
1.0000099
1.0000099
1.0000099
1.0000099
1.0000099
1.0000098
1.0000098
1.0000098
1.0000098
1.0000098
1.0000071
1.0000085
1.000009
1.0000092
1.0000093
1.0000093
1.0000093
1.0000093
1.0000093
1.0000094
1.0000094
1.0000094
1.0000094
1.0000094
1.0000094
1.0000094
1.0000094
1.0000094
1.0000094
1.0000094
1.0000094
1.0000094
1.0000094
1.0000094
1.0000094
1.0000095
1.0000095
1.0000095
1.0000095
1.0000095
1.0000095
1.0000095
1.0000095
1.0000095
1.0000095
1.0000094
1.0000094
1.0000094
1.0000094
1.0000094
1.0000094
1.0000094
1.0000094
1.0000094
1.0000094
1.0000094
1.0000094
1.0000094
1.0000094
1.0000094
1.0000094
1.0000094
1.0000093
1.0000093
1.0000093
1.0000093
1.0000093
1.0000093
1.0000093
1.0000069
1.0000081
1.0000086
1.0000087
1.0000088
1.0000088
1.0000089
1.0000089
1.0000089
1.0000089
1.0000089
1.0000089
1.0000089
1.0000089
1.0000089
1.0000089
1.0000089
1.000009
1.000009
1.000009
1.000009
1.000009
1.000009
1.000009
1.000009
1.000009
1.000009
1.000009
1.000009
1.000009
1.000009
1.000009
1.000009
1.000009
1.000009
1.000009
1.000009
1.000009
1.000009
1.000009
1.000009
1.000009
1.000009
1.000009
1.0000089
1.0000089
1.0000089
1.0000089
1.0000089
1.0000089
1.0000089
1.0000089
1.0000089
1.0000089
1.0000089
1.0000089
1.0000089
1.0000088
1.0000088
1.0000067
1.0000079
1.0000083
1.0000084
1.0000084
1.0000085
1.0000085
1.0000085
1.0000085
1.0000085
1.0000085
1.0000085
1.0000085
1.0000085
1.0000085
1.0000085
1.0000085
1.0000086
1.0000086
1.0000086
1.0000086
1.0000086
1.0000086
1.0000086
1.0000086
1.0000086
1.0000086
1.0000086
1.0000086
1.0000086
1.0000086
1.0000086
1.0000086
1.0000086
1.0000086
1.0000086
1.0000086
1.0000086
1.0000086
1.0000086
1.0000086
1.0000086
1.0000086
1.0000086
1.0000085
1.0000085
1.0000085
1.0000085
1.0000085
1.0000085
1.0000085
1.0000085
1.0000085
1.0000085
1.0000085
1.0000085
1.0000085
1.0000085
1.0000085
1.0000066
1.0000077
1.000008
1.0000081
1.0000081
1.0000081
1.0000081
1.0000081
1.0000082
1.0000082
1.0000082
1.0000082
1.0000082
1.0000082
1.0000082
1.0000082
1.0000082
1.0000082
1.0000082
1.0000082
1.0000082
1.0000082
1.0000082
1.0000082
1.0000082
1.0000082
1.0000082
1.0000082
1.0000082
1.0000082
1.0000082
1.0000082
1.0000082
1.0000082
1.0000082
1.0000082
1.0000082
1.0000082
1.0000082
1.0000082
1.0000082
1.0000082
1.0000082
1.0000082
1.0000082
1.0000082
1.0000082
1.0000082
1.0000082
1.0000082
1.0000082
1.0000082
1.0000082
1.0000081
1.0000081
1.0000081
1.0000081
1.0000081
1.0000081
1.0000065
1.0000075
1.0000077
1.0000078
1.0000078
1.0000078
1.0000078
1.0000079
1.0000079
1.0000079
1.0000079
1.0000079
1.0000079
1.0000079
1.0000079
1.0000079
1.0000079
1.0000079
1.0000079
1.0000079
1.0000079
1.0000079
1.0000079
1.0000079
1.0000079
1.0000079
1.0000079
1.0000079
1.0000079
1.0000079
1.0000079
1.0000079
1.0000079
1.0000079
1.0000079
1.0000079
1.0000079
1.0000079
1.0000079
1.0000079
1.0000079
1.0000079
1.0000079
1.0000079
1.0000079
1.0000079
1.0000079
1.0000079
1.0000079
1.0000079
1.0000079
1.0000079
1.0000079
1.0000079
1.0000078
1.0000078
1.0000078
1.0000078
1.0000078
1.0000065
1.0000073
1.0000075
1.0000076
1.0000076
1.0000076
1.0000076
1.0000076
1.0000076
1.0000076
1.0000076
1.0000076
1.0000076
1.0000076
1.0000077
1.0000077
1.0000077
1.0000077
1.0000077
1.0000077
1.0000077
1.0000077
1.0000077
1.0000077
1.0000077
1.0000077
1.0000077
1.0000077
1.0000077
1.0000077
1.0000077
1.0000077
1.0000077
1.0000077
1.0000077
1.0000077
1.0000077
1.0000077
1.0000077
1.0000077
1.0000077
1.0000077
1.0000077
1.0000077
1.0000077
1.0000077
1.0000077
1.0000076
1.0000076
1.0000076
1.0000076
1.0000076
1.0000076
1.0000076
1.0000076
1.0000076
1.0000076
1.0000076
1.0000076
1.0000065
1.0000072
1.0000073
1.0000074
1.0000074
1.0000074
1.0000074
1.0000074
1.0000074
1.0000074
1.0000074
1.0000074
1.0000074
1.0000074
1.0000074
1.0000075
1.0000075
1.0000075
1.0000075
1.0000075
1.0000075
1.0000075
1.0000075
1.0000075
1.0000075
1.0000075
1.0000075
1.0000075
1.0000075
1.0000075
1.0000075
1.0000075
1.0000075
1.0000075
1.0000075
1.0000075
1.0000075
1.0000075
1.0000075
1.0000075
1.0000075
1.0000075
1.0000075
1.0000075
1.0000075
1.0000075
1.0000074
1.0000074
1.0000074
1.0000074
1.0000074
1.0000074
1.0000074
1.0000074
1.0000074
1.0000074
1.0000074
1.0000074
1.0000074
1.0000064
1.000007
1.0000071
1.0000072
1.0000072
1.0000072
1.0000072
1.0000072
1.0000072
1.0000072
1.0000072
1.0000072
1.0000072
1.0000072
1.0000072
1.0000072
1.0000072
1.0000072
1.0000072
1.0000072
1.0000072
1.0000072
1.0000072
1.0000072
1.0000072
1.0000072
1.0000073
1.0000073
1.0000073
1.0000073
1.0000073
1.0000073
1.0000073
1.0000073
1.0000072
1.0000072
1.0000072
1.0000072
1.0000072
1.0000072
1.0000072
1.0000072
1.0000072
1.0000072
1.0000072
1.0000072
1.0000072
1.0000072
1.0000072
1.0000072
1.0000072
1.0000072
1.0000072
1.0000072
1.0000072
1.0000072
1.0000072
1.0000072
1.0000072
1.0000066
1.000007
1.0000071
1.0000071
1.0000071
1.0000071
1.0000071
1.0000071
1.0000071
1.0000071
1.0000071
1.0000071
1.0000071
1.0000071
1.0000072
1.0000072
1.0000072
1.0000072
1.0000072
1.0000072
1.0000072
1.0000072
1.0000072
1.0000072
1.0000072
1.0000072
1.0000072
1.0000072
1.0000072
1.0000072
1.0000072
1.0000072
1.0000072
1.0000072
1.0000072
1.0000072
1.0000072
1.0000072
1.0000072
1.0000072
1.0000072
1.0000072
1.0000072
1.0000071
1.0000071
1.0000071
1.0000071
1.0000071
1.0000071
1.0000071
1.0000071
1.0000071
1.0000071
1.0000071
1.0000071
1.0000071
1.0000071
1.0000071
1.0000071
1.0000073
1.0000076
1.0000077
1.0000077
1.0000077
1.0000077
1.0000077
1.0000077
1.0000077
1.0000077
1.0000077
1.0000077
1.0000077
1.0000077
1.0000077
1.0000077
1.0000077
1.0000077
1.0000077
1.0000077
1.0000078
1.0000078
1.0000078
1.0000078
1.0000078
1.0000078
1.0000078
1.0000078
1.0000078
1.0000078
1.0000078
1.0000078
1.0000078
1.0000078
1.0000078
1.0000078
1.0000078
1.0000078
1.0000078
1.0000077
1.0000077
1.0000077
1.0000077
1.0000077
1.0000077
1.0000077
1.0000077
1.0000077
1.0000077
1.0000077
1.0000077
1.0000077
1.0000077
1.0000077
1.0000077
1.0000077
1.0000077
1.0000077
1.0000077
1.0000061
1.0000063
1.0000063
1.0000063
1.0000063
1.0000063
1.0000063
1.0000063
1.0000063
1.0000063
1.0000063
1.0000063
1.0000063
1.0000063
1.0000063
1.0000063
1.0000063
1.0000063
1.0000064
1.0000064
1.0000064
1.0000064
1.0000064
1.0000064
1.0000064
1.0000064
1.0000064
1.0000064
1.0000064
1.0000064
1.0000064
1.0000064
1.0000064
1.0000064
1.0000064
1.0000064
1.0000064
1.0000064
1.0000064
1.0000064
1.0000064
1.0000064
1.0000064
1.0000064
1.0000064
1.0000064
1.0000063
1.0000063
1.0000063
1.0000063
1.0000063
1.0000063
1.0000063
1.0000063
1.0000063
1.0000063
1.0000063
1.0000063
1.0000063
1.000039
1.0000392
1.0000393
1.0000394
1.0000394
1.0000395
1.0000396
1.0000396
1.0000397
1.0000398
1.0000398
1.0000399
1.0000399
1.00004
1.00004
1.0000401
1.0000401
1.0000402
1.0000402
1.0000402
1.0000403
1.0000403
1.0000403
1.0000404
1.0000404
1.0000404
1.0000404
1.0000404
1.0000404
1.0000404
1.0000405
1.0000405
1.0000405
1.0000405
1.0000404
1.0000404
1.0000404
1.0000404
1.0000404
1.0000404
1.0000403
1.0000403
1.0000403
1.0000403
1.0000402
1.0000402
1.0000401
1.0000401
1.00004
1.0000399
1.0000398
1.0000396
1.0000393
1.0000389
1.0000383
1.0000372
1.0000353
1.0000318
1.0000259
1.000036
1.0000361
1.0000362
1.0000363
1.0000364
1.0000364
1.0000365
1.0000366
1.0000366
1.0000367
1.0000367
1.0000368
1.0000368
1.0000369
1.0000369
1.000037
1.000037
1.000037
1.0000371
1.0000371
1.0000371
1.0000372
1.0000372
1.0000372
1.0000372
1.0000373
1.0000373
1.0000373
1.0000373
1.0000373
1.0000373
1.0000373
1.0000373
1.0000373
1.0000373
1.0000373
1.0000373
1.0000373
1.0000372
1.0000372
1.0000372
1.0000372
1.0000371
1.0000371
1.0000371
1.000037
1.000037
1.0000369
1.0000368
1.0000368
1.0000366
1.0000365
1.0000362
1.0000359
1.0000353
1.0000343
1.0000325
1.0000293
1.0000239
1.0000331
1.0000332
1.0000333
1.0000333
1.0000334
1.0000335
1.0000335
1.0000336
1.0000336
1.0000337
1.0000337
1.0000338
1.0000338
1.0000338
1.0000339
1.0000339
1.000034
1.000034
1.000034
1.0000341
1.0000341
1.0000341
1.0000341
1.0000342
1.0000342
1.0000342
1.0000342
1.0000342
1.0000342
1.0000342
1.0000342
1.0000342
1.0000342
1.0000342
1.0000342
1.0000342
1.0000342
1.0000342
1.0000342
1.0000342
1.0000341
1.0000341
1.0000341
1.000034
1.000034
1.000034
1.0000339
1.0000339
1.0000338
1.0000337
1.0000336
1.0000335
1.0000333
1.0000329
1.0000324
1.0000315
1.0000299
1.0000269
1.0000219
1.0000303
1.0000304
1.0000305
1.0000306
1.0000306
1.0000307
1.0000307
1.0000308
1.0000308
1.0000309
1.0000309
1.000031
1.000031
1.000031
1.0000311
1.0000311
1.0000312
1.0000312
1.0000312
1.0000312
1.0000313
1.0000313
1.0000313
1.0000313
1.0000314
1.0000314
1.0000314
1.0000314
1.0000314
1.0000314
1.0000314
1.0000314
1.0000314
1.0000314
1.0000314
1.0000314
1.0000314
1.0000314
1.0000313
1.0000313
1.0000313
1.0000313
1.0000312
1.0000312
1.0000312
1.0000311
1.0000311
1.0000311
1.000031
1.0000309
1.0000308
1.0000307
1.0000305
1.0000302
1.0000297
1.0000289
1.0000274
1.0000247
1.0000201
1.0000278
1.0000279
1.0000279
1.000028
1.000028
1.0000281
1.0000281
1.0000282
1.0000282
1.0000283
1.0000283
1.0000283
1.0000284
1.0000284
1.0000285
1.0000285
1.0000285
1.0000286
1.0000286
1.0000286
1.0000286
1.0000287
1.0000287
1.0000287
1.0000287
1.0000287
1.0000287
1.0000287
1.0000287
1.0000287
1.0000287
1.0000287
1.0000287
1.0000287
1.0000287
1.0000287
1.0000287
1.0000287
1.0000287
1.0000287
1.0000286
1.0000286
1.0000286
1.0000286
1.0000285
1.0000285
1.0000285
1.0000284
1.0000284
1.0000283
1.0000282
1.0000281
1.0000279
1.0000277
1.0000272
1.0000265
1.0000251
1.0000227
1.0000184
1.0000254
1.0000255
1.0000255
1.0000256
1.0000256
1.0000257
1.0000257
1.0000258
1.0000258
1.0000258
1.0000259
1.0000259
1.0000259
1.000026
1.000026
1.000026
1.0000261
1.0000261
1.0000261
1.0000261
1.0000262
1.0000262
1.0000262
1.0000262
1.0000262
1.0000262
1.0000263
1.0000263
1.0000263
1.0000263
1.0000263
1.0000263
1.0000263
1.0000263
1.0000263
1.0000262
1.0000262
1.0000262
1.0000262
1.0000262
1.0000262
1.0000261
1.0000261
1.0000261
1.0000261
1.000026
1.000026
1.000026
1.0000259
1.0000259
1.0000258
1.0000257
1.0000255
1.0000253
1.0000249
1.0000242
1.000023
1.0000208
1.0000169
1.0000232
1.0000233
1.0000233
1.0000233
1.0000234
1.0000234
1.0000235
1.0000235
1.0000235
1.0000236
1.0000236
1.0000236
1.0000237
1.0000237
1.0000237
1.0000238
1.0000238
1.0000238
1.0000238
1.0000239
1.0000239
1.0000239
1.0000239
1.0000239
1.0000239
1.000024
1.000024
1.000024
1.000024
1.000024
1.000024
1.000024
1.000024
1.000024
1.000024
1.000024
1.0000239
1.0000239
1.0000239
1.0000239
1.0000239
1.0000239
1.0000238
1.0000238
1.0000238
1.0000238
1.0000237
1.0000237
1.0000236
1.0000236
1.0000235
1.0000234
1.0000233
1.0000231
1.0000227
1.0000221
1.0000211
1.000019
1.0000154
1.0000211
1.0000212
1.0000212
1.0000213
1.0000213
1.0000214
1.0000214
1.0000214
1.0000215
1.0000215
1.0000215
1.0000215
1.0000216
1.0000216
1.0000216
1.0000217
1.0000217
1.0000217
1.0000217
1.0000217
1.0000218
1.0000218
1.0000218
1.0000218
1.0000218
1.0000218
1.0000218
1.0000218
1.0000218
1.0000218
1.0000218
1.0000218
1.0000218
1.0000218
1.0000218
1.0000218
1.0000218
1.0000218
1.0000218
1.0000218
1.0000218
1.0000217
1.0000217
1.0000217
1.0000217
1.0000216
1.0000216
1.0000216
1.0000215
1.0000215
1.0000214
1.0000214
1.0000212
1.0000211
1.0000208
1.0000202
1.0000193
1.0000174
1.0000141
1.0000193
1.0000193
1.0000193
1.0000194
1.0000194
1.0000194
1.0000195
1.0000195
1.0000195
1.0000196
1.0000196
1.0000196
1.0000196
1.0000197
1.0000197
1.0000197
1.0000197
1.0000198
1.0000198
1.0000198
1.0000198
1.0000198
1.0000198
1.0000198
1.0000199
1.0000199
1.0000199
1.0000199
1.0000199
1.0000199
1.0000199
1.0000199
1.0000199
1.0000199
1.0000199
1.0000199
1.0000199
1.0000198
1.0000198
1.0000198
1.0000198
1.0000198
1.0000198
1.0000197
1.0000197
1.0000197
1.0000197
1.0000196
1.0000196
1.0000196
1.0000195
1.0000194
1.0000193
1.0000192
1.0000189
1.0000185
1.0000176
1.0000159
1.0000129
1.0000175
1.0000176
1.0000176
1.0000176
1.0000177
1.0000177
1.0000177
1.0000177
1.0000178
1.0000178
1.0000178
1.0000178
1.0000179
1.0000179
1.0000179
1.0000179
1.0000179
1.000018
1.000018
1.000018
1.000018
1.000018
1.000018
1.000018
1.000018
1.0000181
1.0000181
1.0000181
1.0000181
1.0000181
1.0000181
1.0000181
1.0000181
1.0000181
1.0000181
1.0000181
1.000018
1.000018
1.000018
1.000018
1.000018
1.000018
1.000018
1.0000179
1.0000179
1.0000179
1.0000179
1.0000179
1.0000178
1.0000178
1.0000178
1.0000177
1.0000176
1.0000175
1.0000172
1.0000168
1.0000161
1.0000146
1.0000118
1.0000159
1.000016
1.000016
1.000016
1.000016
1.0000161
1.0000161
1.0000161
1.0000161
1.0000162
1.0000162
1.0000162
1.0000162
1.0000162
1.0000163
1.0000163
1.0000163
1.0000163
1.0000163
1.0000163
1.0000164
1.0000164
1.0000164
1.0000164
1.0000164
1.0000164
1.0000164
1.0000164
1.0000164
1.0000164
1.0000164
1.0000164
1.0000164
1.0000164
1.0000164
1.0000164
1.0000164
1.0000164
1.0000164
1.0000164
1.0000163
1.0000163
1.0000163
1.0000163
1.0000163
1.0000163
1.0000162
1.0000162
1.0000162
1.0000162
1.0000161
1.0000161
1.000016
1.0000159
1.0000157
1.0000154
1.0000147
1.0000134
1.0000108
1.0000145
1.0000145
1.0000145
1.0000145
1.0000146
1.0000146
1.0000146
1.0000146
1.0000147
1.0000147
1.0000147
1.0000147
1.0000147
1.0000147
1.0000148
1.0000148
1.0000148
1.0000148
1.0000148
1.0000148
1.0000148
1.0000149
1.0000149
1.0000149
1.0000149
1.0000149
1.0000149
1.0000149
1.0000149
1.0000149
1.0000149
1.0000149
1.0000149
1.0000149
1.0000149
1.0000149
1.0000149
1.0000149
1.0000149
1.0000148
1.0000148
1.0000148
1.0000148
1.0000148
1.0000148
1.0000148
1.0000147
1.0000147
1.0000147
1.0000147
1.0000147
1.0000146
1.0000146
1.0000145
1.0000143
1.000014
1.0000134
1.0000123
1.0000099
1.0000131
1.0000132
1.0000132
1.0000132
1.0000132
1.0000132
1.0000133
1.0000133
1.0000133
1.0000133
1.0000133
1.0000133
1.0000134
1.0000134
1.0000134
1.0000134
1.0000134
1.0000134
1.0000134
1.0000134
1.0000135
1.0000135
1.0000135
1.0000135
1.0000135
1.0000135
1.0000135
1.0000135
1.0000135
1.0000135
1.0000135
1.0000135
1.0000135
1.0000135
1.0000135
1.0000135
1.0000135
1.0000135
1.0000135
1.0000135
1.0000134
1.0000134
1.0000134
1.0000134
1.0000134
1.0000134
1.0000134
1.0000134
1.0000133
1.0000133
1.0000133
1.0000133
1.0000132
1.0000131
1.000013
1.0000128
1.0000123
1.0000112
1.0000091
1.000012
1.000012
1.000012
1.000012
1.0000121
1.0000121
1.0000121
1.0000121
1.0000121
1.0000121
1.0000121
1.0000122
1.0000122
1.0000122
1.0000122
1.0000122
1.0000122
1.0000122
1.0000122
1.0000122
1.0000123
1.0000123
1.0000123
1.0000123
1.0000123
1.0000123
1.0000123
1.0000123
1.0000123
1.0000123
1.0000123
1.0000123
1.0000123
1.0000123
1.0000123
1.0000123
1.0000123
1.0000123
1.0000123
1.0000123
1.0000122
1.0000122
1.0000122
1.0000122
1.0000122
1.0000122
1.0000122
1.0000122
1.0000122
1.0000121
1.0000121
1.0000121
1.0000121
1.000012
1.0000119
1.0000117
1.0000113
1.0000104
1.0000084
1.0000283
1.0000311
1.0000342
1.0000374
1.0000409
1.0000446
1.0000486
1.0000529
1.0000574
1.0000623
1.0000675
1.0000731
1.0000789
1.0000851
1.0000916
1.0000983
1.0001053
1.0001124
1.0001195
1.0001266
1.0001334
1.0001399
1.0001459
1.0001512
1.0001556
1.0001588
1.0001608
1.0001614
1.0001604
1.0001577
1.0001533
1.0001473
1.0001395
1.0001303
1.0001196
1.0001077
1.0000948
1.000081
1.0000666
1.0000517
1.0000366
1.0000215
1.0000063
0.99999141
0.99997677
0.99996252
0.99994872
0.99993542
0.99992266
0.99991047
0.99989886
0.99988784
0.99987741
0.99986756
0.99985828
0.99984956
0.99984137
0.9998337
0.99982651
0.9998198
0.99981353
0.99980769
0.99980225
0.99979718
0.99979247
0.99978809
0.99978402
0.99978025
0.99977675
0.9997735
0.9997705
0.99976772
0.99976516
0.99976284
1.0000346
1.0000379
1.0000417
1.0000457
1.00005
1.0000546
1.0000596
1.0000648
1.0000704
1.0000763
1.0000825
1.0000891
1.000096
1.0001032
1.0001107
1.0001184
1.0001262
1.0001341
1.0001419
1.0001495
1.0001568
1.0001636
1.0001696
1.0001746
1.0001785
1.000181
1.0001818
1.0001809
1.000178
1.0001731
1.0001661
1.0001571
1.0001461
1.0001334
1.0001189
1.0001031
1.0000862
1.0000684
1.0000499
1.000031
1.0000119
0.99999293
0.99997412
0.99995567
0.99993769
0.99992027
0.9999035
0.99988743
0.99987208
0.99985749
0.99984365
0.99983057
0.99981823
0.99980663
0.99979573
0.99978552
0.99977597
0.99976704
0.9997587
0.99975093
0.9997437
0.99973697
0.99973071
0.9997249
0.9997195
0.9997145
0.99970986
0.99970556
0.99970159
0.99969791
0.99969451
0.99969137
0.99968846
0.99968583
1.0000384
1.000042
1.0000462
1.0000507
1.0000556
1.0000608
1.0000665
1.0000725
1.000079
1.0000858
1.0000931
1.0001007
1.0001088
1.0001171
1.0001258
1.0001347
1.0001438
1.0001529
1.0001619
1.0001707
1.0001791
1.0001869
1.0001938
1.0001995
1.0002039
1.0002066
1.0002074
1.0002061
1.0002026
1.0001966
1.0001882
1.0001774
1.0001642
1.0001489
1.0001316
1.0001127
1.0000923
1.0000708
1.0000485
1.0000257
1.0000026
0.99997953
0.99995668
0.99993423
0.99991233
0.99989111
0.99987064
0.99985101
0.99983226
0.99981442
0.9997975
0.99978149
0.9997664
0.9997522
0.99973887
0.99972637
0.99971468
0.99970376
0.99969356
0.99968406
0.99967522
0.99966699
0.99965935
0.99965225
0.99964567
0.99963957
0.99963391
0.99962868
0.99962384
0.99961936
0.99961522
0.99961141
0.99960787
0.99960465
1.0000406
1.0000444
1.0000489
1.0000537
1.0000589
1.0000646
1.0000707
1.0000772
1.0000843
1.0000918
1.0000998
1.0001082
1.0001172
1.0001265
1.0001361
1.0001461
1.0001563
1.0001666
1.0001768
1.0001868
1.0001964
1.0002053
1.0002133
1.0002201
1.0002254
1.000229
1.0002305
1.0002297
1.0002265
1.0002206
1.000212
1.0002007
1.0001869
1.0001706
1.000152
1.0001315
1.0001093
1.0000859
1.0000614
1.0000362
1.0000106
0.99998496
0.99995944
0.99993427
0.99990962
0.99988566
0.99986248
0.99984018
0.99981882
0.99979844
0.99977907
0.99976071
0.99974336
0.999727
0.99971161
0.99969717
0.99968363
0.99967097
0.99965913
0.99964809
0.99963781
0.99962823
0.99961932
0.99961104
0.99960336
0.99959624
0.99958963
0.99958351
0.99957785
0.99957261
0.99956776
0.99956329
0.99955914
0.99955535
1.0000418
1.0000459
1.0000505
1.0000555
1.000061
1.0000669
1.0000733
1.0000803
1.0000877
1.0000957
1.0001042
1.0001132
1.0001227
1.0001327
1.0001431
1.0001539
1.000165
1.0001762
1.0001874
1.0001984
1.000209
1.000219
1.000228
1.0002359
1.0002423
1.0002468
1.0002493
1.0002493
1.0002468
1.0002415
1.0002334
1.0002225
1.0002088
1.0001925
1.0001738
1.0001529
1.0001303
1.0001061
1.0000809
1.0000548
1.0000282
1.0000014
0.99997466
0.99994821
0.99992224
0.99989691
0.99987234
0.99984865
0.9998259
0.99980415
0.99978343
0.99976375
0.99974512
0.99972752
0.99971094
0.99969535
0.99968072
0.99966701
0.99965419
0.99964221
0.99963104
0.99962062
0.99961093
0.99960192
0.99959354
0.99958576
0.99957855
0.99957186
0.99956567
0.99955993
0.99955463
0.99954972
0.99954518
0.99954101
1.0000426
1.0000468
1.0000516
1.0000568
1.0000624
1.0000685
1.0000751
1.0000823
1.00009
1.0000983
1.0001071
1.0001166
1.0001265
1.000137
1.000148
1.0001594
1.0001711
1.0001829
1.0001949
1.0002067
1.0002181
1.000229
1.0002389
1.0002477
1.000255
1.0002604
1.0002638
1.0002647
1.000263
1.0002584
1.000251
1.0002407
1.0002275
1.0002117
1.0001933
1.0001728
1.0001503
1.0001262
1.000101
1.0000748
1.0000481
1.0000211
0.99999404
0.99996727
0.99994093
0.99991519
0.99989019
0.99986604
0.99984282
0.99982059
0.99979937
0.99977921
0.99976009
0.99974201
0.99972496
0.99970892
0.99969384
0.99967971
0.99966648
0.99965411
0.99964256
0.99963179
0.99962176
0.99961243
0.99960375
0.99959569
0.99958821
0.99958128
0.99957485
0.99956889
0.99956338
0.99955828
0.99955355
0.99954922
1.0000431
1.0000474
1.0000523
1.0000576
1.0000633
1.0000696
1.0000764
1.0000837
1.0000916
1.0001001
1.0001092
1.0001189
1.0001292
1.0001401
1.0001514
1.0001632
1.0001754
1.0001878
1.0002003
1.0002127
1.0002248
1.0002363
1.000247
1.0002565
1.0002645
1.0002707
1.0002748
1.0002764
1.0002755
1.0002716
1.0002649
1.0002552
1.0002426
1.0002273
1.0002095
1.0001893
1.0001673
1.0001436
1.0001186
1.0000927
1.0000662
1.0000393
1.0000125
0.99998579
0.99995952
0.99993383
0.99990886
0.99988471
0.99986148
0.99983922
0.99981796
0.99979774
0.99977857
0.99976043
0.99974331
0.99972719
0.99971204
0.99969783
0.99968452
0.99967208
0.99966045
0.99964961
0.99963951
0.99963011
0.99962136
0.99961324
0.9996057
0.9995987
0.99959221
0.9995862
0.99958064
0.99957548
0.99957071
0.99956633
1.0000434
1.0000478
1.0000527
1.0000581
1.000064
1.0000703
1.0000773
1.0000847
1.0000928
1.0001015
1.0001108
1.0001207
1.0001312
1.0001423
1.000154
1.0001661
1.0001786
1.0001914
1.0002043
1.0002172
1.0002298
1.0002418
1.000253
1.0002631
1.0002717
1.0002785
1.0002831
1.0002854
1.000285
1.0002817
1.0002756
1.0002664
1.0002543
1.0002395
1.0002221
1.0002024
1.0001808
1.0001574
1.0001328
1.0001072
1.000081
1.0000544
1.0000278
1.0000013
0.99997525
0.99994974
0.99992493
0.99990093
0.99987782
0.99985568
0.99983453
0.99981441
0.99979531
0.99977725
0.9997602
0.99974414
0.99972905
0.99971489
0.99970163
0.99968922
0.99967763
0.99966682
0.99965675
0.99964737
0.99963865
0.99963055
0.99962302
0.99961604
0.99960957
0.99960357
0.99959801
0.99959287
0.9995881
0.99958374
1.0000436
1.000048
1.0000531
1.0000585
1.0000645
1.0000709
1.0000779
1.0000855
1.0000937
1.0001025
1.0001119
1.000122
1.0001327
1.000144
1.0001559
1.0001682
1.000181
1.0001941
1.0002074
1.0002206
1.0002335
1.0002459
1.0002576
1.0002681
1.0002771
1.0002843
1.0002894
1.0002922
1.0002922
1.0002894
1.0002837
1.000275
1.0002633
1.0002489
1.0002319
1.0002125
1.0001912
1.0001681
1.0001438
1.0001185
1.0000925
1.0000661
1.0000397
1.0000134
0.99998753
0.99996218
0.99993752
0.99991366
0.99989068
0.99986866
0.99984762
0.99982761
0.99980861
0.99979064
0.99977368
0.99975771
0.9997427
0.99972861
0.99971541
0.99970307
0.99969155
0.99968079
0.99967077
0.99966144
0.99965276
0.9996447
0.99963721
0.99963027
0.99962382
0.99961785
0.99961232
0.9996072
0.99960246
0.99959811
1.0000438
1.0000482
1.0000533
1.0000588
1.0000648
1.0000713
1.0000784
1.0000861
1.0000943
1.0001032
1.0001128
1.000123
1.0001338
1.0001453
1.0001573
1.0001699
1.0001829
1.0001962
1.0002097
1.0002232
1.0002364
1.0002491
1.000261
1.0002719
1.0002812
1.0002888
1.0002943
1.0002974
1.0002978
1.0002953
1.0002899
1.0002815
1.0002702
1.000256
1.0002393
1.0002202
1.0001991
1.0001763
1.0001521
1.000127
1.0001012
1.000075
1.0000487
1.0000226
0.99999678
0.99997154
0.99994699
0.99992324
0.99990036
0.99987843
0.99985749
0.99983755
0.99981863
0.99980072
0.99978382
0.9997679
0.99975293
0.99973889
0.99972573
0.99971342
0.99970193
0.9996912
0.99968121
0.9996719
0.99966325
0.9996552
0.99964773
0.9996408
0.99963438
0.99962842
0.9996229
0.9996178
0.99961306
0.99960873
1.0000439
1.0000484
1.0000535
1.000059
1.0000651
1.0000717
1.0000788
1.0000865
1.0000949
1.0001039
1.0001135
1.0001238
1.0001348
1.0001463
1.0001585
1.0001712
1.0001844
1.0001979
1.0002116
1.0002252
1.0002387
1.0002516
1.0002638
1.0002748
1.0002845
1.0002923
1.0002981
1.0003014
1.0003021
1.0002999
1.0002947
1.0002866
1.0002755
1.0002616
1.000245
1.0002261
1.0002052
1.0001825
1.0001585
1.0001335
1.0001078
1.0000817
1.0000555
1.0000294
1.0000037
0.99997857
0.99995408
0.99993038
0.99990754
0.99988565
0.99986473
0.99984482
0.99982592
0.99980804
0.99979115
0.99977525
0.9997603
0.99974627
0.99973313
0.99972084
0.99970935
0.99969864
0.99968866
0.99967936
0.99967072
0.99966268
0.99965522
0.9996483
0.99964188
0.99963593
0.99963042
0.99962532
0.99962059
0.99961626
1.000044
1.0000485
1.0000536
1.0000592
1.0000653
1.0000719
1.0000791
1.0000869
1.0000953
1.0001044
1.0001141
1.0001245
1.0001355
1.0001472
1.0001595
1.0001723
1.0001856
1.0001992
1.000213
1.0002269
1.0002405
1.0002536
1.0002659
1.0002772
1.000287
1.0002951
1.000301
1.0003046
1.0003055
1.0003035
1.0002985
1.0002906
1.0002796
1.0002659
1.0002495
1.0002307
1.0002099
1.0001874
1.0001635
1.0001385
1.0001129
1.0000868
1.0000607
1.0000347
1.000009
0.99998391
0.99995944
0.99993575
0.99991293
0.99989104
0.99987013
0.99985023
0.99983133
0.99981345
0.99979657
0.99978067
0.99976572
0.9997517
0.99973856
0.99972626
0.99971478
0.99970407
0.99969408
0.99968479
0.99967614
0.99966811
0.99966065
0.99965373
0.99964731
0.99964136
0.99963585
0.99963075
0.99962603
0.9996217
1.0000441
1.0000486
1.0000538
1.0000594
1.0000655
1.0000721
1.0000794
1.0000872
1.0000957
1.0001048
1.0001146
1.000125
1.0001361
1.0001479
1.0001603
1.0001732
1.0001866
1.0002003
1.0002143
1.0002282
1.0002419
1.0002552
1.0002677
1.0002791
1.0002891
1.0002973
1.0003034
1.0003071
1.0003082
1.0003064
1.0003016
1.0002938
1.000283
1.0002694
1.0002531
1.0002345
1.0002138
1.0001913
1.0001675
1.0001426
1.000117
1.000091
1.0000649
1.0000389
1.0000133
0.99998813
0.99996366
0.99993997
0.99991715
0.99989526
0.99987434
0.99985443
0.99983553
0.99981765
0.99980076
0.99978485
0.9997699
0.99975587
0.99974272
0.99973043
0.99971894
0.99970822
0.99969824
0.99968894
0.99968029
0.99967225
0.99966479
0.99965787
0.99965145
0.9996455
0.99963999
0.99963489
0.99963016
0.99962583
1.0000441
1.0000487
1.0000539
1.0000595
1.0000656
1.0000723
1.0000796
1.0000875
1.000096
1.0001051
1.000115
1.0001255
1.0001367
1.0001485
1.0001609
1.0001739
1.0001874
1.0002012
1.0002153
1.0002293
1.0002432
1.0002565
1.0002691
1.0002807
1.0002908
1.0002991
1.0003054
1.0003093
1.0003105
1.0003088
1.0003042
1.0002965
1.0002859
1.0002724
1.0002562
1.0002377
1.0002171
1.0001947
1.0001709
1.0001461
1.0001205
1.0000945
1.0000684
1.0000425
1.0000168
0.99999169
0.99996722
0.99994352
0.99992069
0.99989879
0.99987786
0.99985794
0.99983903
0.99982113
0.99980424
0.99978832
0.99977335
0.99975931
0.99974616
0.99973385
0.99972236
0.99971163
0.99970164
0.99969233
0.99968368
0.99967564
0.99966817
0.99966124
0.99965482
0.99964886
0.99964335
0.99963825
0.99963352
0.99962919
1.0000442
1.0000488
1.000054
1.0000596
1.0000658
1.0000725
1.0000798
1.0000877
1.0000962
1.0001054
1.0001153
1.0001259
1.0001371
1.000149
1.0001615
1.0001746
1.0001881
1.000202
1.0002161
1.0002302
1.0002442
1.0002576
1.0002703
1.000282
1.0002922
1.0003007
1.0003071
1.0003111
1.0003124
1.0003109
1.0003064
1.0002989
1.0002884
1.000275
1.000259
1.0002406
1.00022
1.0001977
1.000174
1.0001492
1.0001237
1.0000978
1.0000717
1.0000457
1.0000201
0.99999494
0.99997046
0.99994675
0.9999239
0.99990199
0.99988105
0.99986111
0.99984218
0.99982427
0.99980736
0.99979142
0.99977645
0.99976239
0.99974922
0.99973691
0.9997254
0.99971467
0.99970466
0.99969535
0.99968669
0.99967864
0.99967116
0.99966423
0.9996578
0.99965184
0.99964632
0.99964122
0.99963648
0.99963215
1.0000442
1.0000488
1.0000541
1.0000597
1.0000659
1.0000727
1.00008
1.0000879
1.0000965
1.0001057
1.0001156
1.0001262
1.0001375
1.0001495
1.000162
1.0001751
1.0001887
1.0002027
1.0002169
1.000231
1.000245
1.0002586
1.0002714
1.0002831
1.0002934
1.000302
1.0003085
1.0003127
1.0003141
1.0003128
1.0003085
1.0003011
1.0002907
1.0002775
1.0002616
1.0002433
1.0002229
1.0002007
1.0001771
1.0001523
1.0001269
1.0001009
1.0000749
1.0000489
1.0000233
0.99999815
0.99997366
0.99994994
0.99992707
0.99990514
0.99988418
0.99986422
0.99984528
0.99982734
0.99981041
0.99979446
0.99977947
0.99976539
0.99975221
0.99973988
0.99972836
0.99971761
0.9997076
0.99969827
0.9996896
0.99968154
0.99967405
0.99966711
0.99966067
0.99965471
0.99964919
0.99964407
0.99963934
0.999635
1.0000443
1.0000489
1.0000541
1.0000598
1.000066
1.0000728
1.0000802
1.0000881
1.0000967
1.000106
1.0001159
1.0001266
1.0001379
1.0001499
1.0001625
1.0001756
1.0001893
1.0002033
1.0002175
1.0002317
1.0002458
1.0002594
1.0002723
1.0002841
1.0002945
1.0003032
1.0003098
1.0003141
1.0003158
1.0003146
1.0003104
1.0003032
1.0002931
1.00028
1.0002643
1.0002461
1.0002259
1.0002038
1.0001802
1.0001556
1.0001302
1.0001043
1.0000783
1.0000523
1.0000267
1.0000015
0.99997704
0.99995331
0.99993043
0.99990848
0.99988749
0.99986751
0.99984854
0.99983059
0.99981363