/*--------------------------------*- C++ -*----------------------------------*\
| =========                 |                                                 |
| \\      /  F ield         | OpenFOAM: The Open Source CFD Toolbox           |
|  \\    /   O peration     | Version:  v2006                                 |
|   \\  /    A nd           | Website:  www.openfoam.com                      |
|    \\/     M anipulation  |                                                 |
\*---------------------------------------------------------------------------*/
FoamFile
{
    version     2.0;
    format      ascii;
    class       volVectorField;
    location    "10000";
    object      U;
}
// * * * * * * * * * * * * * * * * * * * * * * * * * * * * * * * * * * * * * //

dimensions      [0 1 -1 0 0 0 0];


internalField   nonuniform List<vector> 
55713
(
(0.1031677 6.554683e-07 0)
(0.10308151 -3.0633321e-07 0)
(0.10305587 8.7253744e-07 2.5739567e-18)
(0.10304656 7.414605e-07 -2.5686418e-18)
(0.10304269 1.3698981e-06 2.5876213e-18)
(0.10304087 1.5446516e-06 1.7326203e-27)
(0.10303989 1.9649766e-06 -2.6486271e-18)
(0.10303928 2.2079383e-06 0)
(0.10303884 2.5467903e-06 1.0674328e-20)
(0.10303849 2.7897659e-06 0)
(0.10303817 3.0988121e-06 -1.1049403e-20)
(0.10303789 3.3306011e-06 -1.1246842e-20)
(0.10303763 3.6190007e-06 0)
(0.10303738 3.8436481e-06 2.9833689e-18)
(0.10303714 4.1068067e-06 -3.0365866e-18)
(0.10303692 4.3246214e-06 -6.0359051e-21)
(0.10303671 4.5591942e-06 3.1508353e-18)
(0.10303651 4.7701004e-06 -3.1994494e-18)
(0.10303632 4.9968253e-06 6.3566622e-21)
(0.10303615 5.2012995e-06 -3.3101561e-18)
(0.10303598 5.4217391e-06 3.3594699e-18)
(0.10303584 5.6213003e-06 0)
(0.1030357 5.837174e-06 0)
(0.10303558 6.0332126e-06 -1.7746419e-18)
(0.10303547 6.2459852e-06 1.796199e-18)
(0.10303539 6.439605e-06 0)
(0.10303532 6.6504533e-06 0)
(0.10303526 6.8424985e-06 0)
(0.10303523 7.0523214e-06 2.3877217e-19)
(0.10303523 7.2433576e-06 -6.4196874e-29)
(0.10303524 7.4529945e-06 -2.4158622e-19)
(0.10303529 7.64229e-06 0)
(0.10303535 7.8510428e-06 0)
(0.10303544 8.0425497e-06 0)
(0.10303554 8.2532371e-06 0)
(0.10303566 8.4508458e-06 1.788773e-18)
(0.1030358 8.6715337e-06 -1.7531883e-18)
(0.10303595 8.8763266e-06 -3.4629244e-18)
(0.10303611 9.1014463e-06 1.5642069e-27)
(0.10303629 9.3115733e-06 3.3427871e-18)
(0.10303648 9.5428646e-06 0)
(0.10303668 9.7597948e-06 6.3223079e-21)
(0.1030369 9.9989914e-06 -3.1814345e-18)
(0.10303713 1.0224472e-05 3.1262657e-18)
(0.10303737 1.0473637e-05 3.0715676e-18)
(0.10303762 1.0709534e-05 -3.0232934e-18)
(0.10303788 1.0971104e-05 0)
(0.10303816 1.1219733e-05 0)
(0.10303845 1.1496698e-05 -2.8478604e-18)
(0.10303876 1.1760961e-05 2.8080869e-18)
(0.10303908 1.2056853e-05 0)
(0.10303941 1.2341013e-05 0)
(0.10303977 1.265983e-05 0)
(0.10304015 1.2967549e-05 0)
(0.10304055 1.33214e-05 2.5799544e-18)
(0.10304097 1.3649562e-05 -3.5946131e-27)
(0.10304143 1.405046e-05 -3.768714e-18)
(0.10304192 1.446764e-05 1.2248479e-18)
(0.10304248 1.465186e-05 -1.9212585e-20)
(0.10317466 1.0727007e-06 0)
(0.10309644 -2.2845197e-07 2.4242867e-18)
(0.10307435 1.0287016e-06 -2.5134253e-18)
(0.10306666 7.5331182e-07 3.9399286e-20)
(0.10306355 1.3274301e-06 -2.5520374e-18)
(0.10306211 1.4454038e-06 5.1573473e-18)
(0.10306132 1.7906586e-06 4.0561234e-27)
(0.10306082 2.0085173e-06 -2.6779793e-18)
(0.10306043 2.2905259e-06 -1.0654425e-20)
(0.10306011 2.5104724e-06 2.1711004e-20)
(0.10305983 2.7728592e-06 -2.8207185e-18)
(0.10305956 2.978721e-06 2.8967171e-18)
(0.10305931 3.2253844e-06 2.9397484e-18)
(0.10305908 3.4189774e-06 2.6619771e-27)
(0.10305885 3.6521035e-06 2.4799578e-27)
(0.10305864 3.8350989e-06 -3.099176e-18)
(0.10305843 4.0566375e-06 -6.1739652e-21)
(0.10305824 4.2312407e-06 0)
(0.10305806 4.4444096e-06 3.267176e-18)
(0.10305789 4.6139119e-06 -6.6604656e-18)
(0.10305773 4.8218573e-06 3.3937787e-18)
(0.10305758 4.9886485e-06 1.3454493e-20)
(0.10305745 5.1934867e-06 0)
(0.10305733 5.3589168e-06 6.9520496e-21)
(0.10305722 5.5615206e-06 0)
(0.10305713 5.7259252e-06 9.0445773e-19)
(0.10305706 5.9266848e-06 -1.8666409e-18)
(0.103057 6.0900912e-06 9.3300554e-19)
(0.10305697 6.2888207e-06 2.4056627e-19)
(0.10305695 6.4505444e-06 -2.5885335e-19)
(0.10305696 6.6438178e-06 0)
(0.10305699 6.7994857e-06 9.4267977e-19)
(0.10305705 6.9913743e-06 -1.8860352e-18)
(0.10305712 7.1482696e-06 9.2837324e-19)
(0.10305721 7.3435438e-06 0)
(0.10305731 7.5043726e-06 1.798248e-18)
(0.10305743 7.7042688e-06 -1.776015e-18)
(0.10305756 7.8689399e-06 1.3594205e-20)
(0.10305771 8.0736439e-06 0)
(0.10305786 8.2435953e-06 6.5715393e-21)
(0.10305803 8.4547449e-06 3.3072417e-18)
(0.10305821 8.6310617e-06 -6.5065686e-18)
(0.1030584 8.8498692e-06 -3.8260957e-28)
(0.1030586 9.0343981e-06 3.1366218e-18)
(0.10305882 9.2629848e-06 -3.0802843e-18)
(0.10305904 9.4574005e-06 6.0543902e-18)
(0.10305927 9.69806e-06 -5.9370607e-18)
(0.10305951 9.9048652e-06 2.9131957e-18)
(0.10305977 1.0160735e-05 -1.1165264e-20)
(0.10306003 1.0382959e-05 0)
(0.10306031 1.0657526e-05 0)
(0.1030606 1.0898796e-05 0)
(0.10306091 1.1190811e-05 -2.666306e-18)
(0.10306123 1.1454834e-05 2.6154512e-18)
(0.10306157 1.1778662e-05 0)
(0.10306193 1.2052275e-05 3.9060033e-20)
(0.10306231 1.2451314e-05 0)
(0.10306271 1.2730201e-05 1.8874976e-20)
(0.10306318 1.3169207e-05 1.8503975e-20)
(0.10318118 1.2933306e-06 0)
(0.10311031 -2.6234366e-07 3.735206e-20)
(0.10309141 9.927652e-07 -3.806367e-20)
(0.10308511 6.528967e-07 -3.8687926e-20)
(0.10308266 1.1756531e-06 -2.5570206e-18)
(0.10308152 1.2758365e-06 2.5841468e-18)
(0.1030809 1.5757098e-06 0)
(0.10308048 1.7638881e-06 2.0842518e-20)
(0.10308015 2.0166062e-06 -5.4454816e-18)
(0.10307986 2.1999003e-06 5.513822e-18)
(0.1030796 2.4346467e-06 0)
(0.10307936 2.6058148e-06 -2.2591981e-20)
(0.10307912 2.826534e-06 0)
(0.1030789 2.987497e-06 2.9822179e-18)
(0.10307869 3.1963378e-06 -6.1256117e-18)
(0.10307849 3.3486095e-06 3.119996e-18)
(0.1030783 3.5471266e-06 -3.1648731e-18)
(0.10307811 3.6918064e-06 -3.8474284e-27)
(0.10307794 3.8816373e-06 3.292236e-18)
(0.10307778 4.0204939e-06 -3.3499463e-18)
(0.10307763 4.2039223e-06 -3.5303271e-27)
(0.10307748 4.3390445e-06 3.4659345e-18)
(0.10307736 4.5184709e-06 0)
(0.10307724 4.6519672e-06 1.7773714e-18)
(0.10307714 4.8294072e-06 1.6273506e-27)
(0.10307705 4.9626467e-06 -1.8212065e-18)
(0.10307698 5.1391804e-06 -1.4684064e-20)
(0.10307692 5.2725059e-06 4.9216448e-19)
(0.10307688 5.4482219e-06 -4.8459294e-19)
(0.10307686 5.5809661e-06 2.4523841e-19)
(0.10307687 5.7526459e-06 -2.4448347e-19)
(0.10307689 5.8806248e-06 3.0097782e-20)
(0.10307694 6.0513482e-06 0)
(0.103077 6.17993e-06 1.4584795e-20)
(0.10307707 6.3532732e-06 -1.4352896e-20)
(0.10307716 6.4842556e-06 -1.4121463e-20)
(0.10307727 6.6614337e-06 -1.3890655e-20)
(0.10307738 6.7955605e-06 -1.3660579e-20)
(0.10307751 6.9780535e-06 3.4249553e-18)
(0.10307765 7.1167319e-06 -3.3798496e-18)
(0.1030778 7.3054831e-06 0)
(0.10307796 7.4491502e-06 3.2632546e-18)
(0.10307812 7.6456745e-06 -3.1926321e-18)
(0.1030783 7.796206e-06 3.1717334e-18)
(0.10307849 8.0023339e-06 -3.0892141e-18)
(0.10307868 8.161034e-06 -3.0076514e-18)
(0.10307889 8.3791157e-06 -2.2049556e-27)
(0.1030791 8.5485966e-06 2.8929051e-18)
(0.10307932 8.7815048e-06 2.2327367e-20)
(0.10307955 8.9641538e-06 0)
(0.1030798 9.2152392e-06 0)
(0.10308004 9.4142405e-06 0)
(0.10308031 9.6878831e-06 2.0528514e-20)
(0.10308058 9.9065831e-06 -2.0082525e-20)
(0.10308087 1.0208576e-05 0)
(0.10308117 1.0421227e-05 2.4575983e-18)
(0.10308149 1.0816081e-05 -2.4019765e-18)
(0.10308182 1.1016362e-05 0)
(0.10308219 1.1491621e-05 0)
(0.10318614 1.3292907e-06 6.8455383e-20)
(0.10312209 -2.6236314e-07 -7.255319e-20)
(0.10310604 9.0136363e-07 -2.3431228e-18)
(0.10310096 5.8719044e-07 2.4320085e-18)
(0.10309904 1.0418303e-06 3.882015e-20)
(0.10309815 1.1388413e-06 0)
(0.10309765 1.3960251e-06 -2.598497e-18)
(0.1030973 1.5626595e-06 7.9533685e-18)
(0.10309701 1.7855046e-06 -1.0872547e-17)
(0.10309675 1.9417754e-06 5.5783249e-18)
(0.10309652 2.1475967e-06 -2.8383176e-18)
(0.10309629 2.2925956e-06 2.2641195e-20)
(0.10309607 2.4854849e-06 5.9150791e-18)
(0.10309587 2.6215339e-06 -2.9931735e-18)
(0.10309567 2.8038436e-06 0)
(0.10309548 2.9326027e-06 0)
(0.1030953 3.1060338e-06 -1.2473494e-20)
(0.10309512 3.2285518e-06 0)
(0.10309496 3.3943446e-06 0)
(0.10309481 3.511627e-06 2.6321349e-20)
(0.10309466 3.6712057e-06 -1.3390246e-20)
(0.10309453 3.7844939e-06 -2.7240725e-20)
(0.10309441 3.9394987e-06 -1.7729423e-18)
(0.1030943 4.0503891e-06 1.8166508e-18)
(0.1030942 4.2027277e-06 1.4314698e-20)
(0.10309411 4.3128313e-06 -1.4547463e-20)
(0.10309404 4.4640559e-06 9.6073925e-19)
(0.10309399 4.5743907e-06 -9.6088666e-19)
(0.10309395 4.7254168e-06 1.524674e-20)
(0.10309393 4.8359469e-06 -2.3136226e-19)
(0.10309393 4.9841752e-06 -2.4586786e-19)
(0.10309394 5.0913085e-06 4.690899e-19)
(0.10309398 5.2393049e-06 0)
(0.10309403 5.3471666e-06 -1.8913355e-18)
(0.1030941 5.4972339e-06 1.442669e-20)
(0.10309418 5.6066725e-06 3.6616373e-18)
(0.10309427 5.7599135e-06 -1.7727609e-18)
(0.10309437 5.872249e-06 0)
(0.10309448 6.0303951e-06 1.3493367e-20)
(0.10309461 6.146602e-06 0)
(0.10309474 6.3102909e-06 0)
(0.10309488 6.4312053e-06 2.5596816e-20)
(0.10309503 6.6023767e-06 -1.2566918e-20)
(0.10309519 6.7295621e-06 -3.1824561e-18)
(0.10309535 6.909441e-06 3.0983075e-18)
(0.10309553 7.0441227e-06 -3.6190343e-26)
(0.10309571 7.2353758e-06 2.3271026e-20)
(0.1030959 7.3800722e-06 3.4748293e-26)
(0.10309609 7.5849839e-06 -2.2326495e-20)
(0.1030963 7.7416658e-06 -5.5715616e-18)
(0.10309651 7.9637685e-06 5.4702197e-18)
(0.10309673 8.1358799e-06 4.1764705e-20)
(0.10309695 8.379454e-06 -2.6509101e-18)
(0.10309719 8.5704898e-06 5.0931441e-18)
(0.10309743 8.8576868e-06 -5.0031018e-18)
(0.10309769 9.0418373e-06 2.4167252e-18)
(0.10309796 9.4430418e-06 -7.3438372e-20)
(0.10309824 9.5386801e-06 0)
(0.10309855 1.0168538e-05 0)
(0.10319003 1.2350766e-06 -6.6158831e-20)
(0.10313239 -2.3331687e-07 7.050302e-20)
(0.10311892 7.8160017e-07 -2.3266238e-18)
(0.10311487 5.2487717e-07 2.3148539e-18)
(0.10311339 9.0686803e-07 -2.4524508e-18)
(0.10311271 1.004948e-06 2.5565477e-18)
(0.1031123 1.2239266e-06 2.542526e-18)
(0.103112 1.3720512e-06 -2.6485555e-18)
(0.10311175 1.566546e-06 5.3850066e-18)
(0.10311152 1.7012231e-06 -1.1068929e-17)
(0.1031113 1.8797612e-06 5.6832421e-18)
(0.10311109 2.0037448e-06 -2.2690237e-20)
(0.10311089 2.1700504e-06 -2.9663431e-18)
(0.1031107 2.2858673e-06 6.0553758e-18)
(0.10311052 2.4424274e-06 -3.0884897e-18)
(0.10311034 2.5518464e-06 -3.1488474e-18)
(0.10311017 2.7005467e-06 2.506922e-20)
(0.10311001 2.804814e-06 3.2430955e-18)
(0.10310986 2.9470575e-06 -2.6001904e-20)
(0.10310971 3.04717e-06 -5.293421e-20)
(0.10310958 3.1841537e-06 1.3466175e-20)
(0.10310945 3.2809174e-06 1.3699067e-20)
(0.10310934 3.4136201e-06 0)
(0.10310923 3.5078632e-06 -1.8133038e-18)
(0.10310914 3.6375132e-06 -1.4401148e-20)
(0.10310906 3.7304222e-06 1.8881098e-18)
(0.10310899 3.8584426e-06 0)
(0.10310894 3.951229e-06 0)
(0.1031089 4.0789533e-06 -3.0689461e-20)
(0.10310888 4.1720406e-06 2.3274327e-19)
(0.10310888 4.2975859e-06 -2.4718972e-19)
(0.10310889 4.3883086e-06 0)
(0.10310892 4.5141231e-06 0)
(0.10310897 4.6058086e-06 -1.8860804e-18)
(0.10310903 4.7334457e-06 3.7113686e-18)
(0.1031091 4.8265689e-06 -1.8396327e-18)
(0.10310918 4.9570594e-06 -1.767097e-18)
(0.10310927 5.0528377e-06 1.7649979e-18)
(0.10310937 5.1874813e-06 0)
(0.10310948 5.2865902e-06 0)
(0.1031096 5.4262925e-06 -3.3757581e-18)
(0.10310973 5.530014e-06 3.2636985e-18)
(0.10310986 5.6765093e-06 2.5226867e-20)
(0.10311 5.7857782e-06 -3.1684285e-18)
(0.10311015 5.9400958e-06 6.1906457e-18)
(0.10311031 6.0565389e-06 -3.069831e-18)
(0.10311047 6.2213898e-06 -3.0073522e-18)
(0.10311064 6.3468512e-06 5.8427202e-18)
(0.10311082 6.5238699e-06 -2.8578722e-18)
(0.103111 6.6604561e-06 -6.5471498e-20)
(0.10311118 6.853491e-06 0)
(0.10311138 7.0045735e-06 -4.1581063e-20)
(0.10311158 7.2173407e-06 2.5929892e-18)
(0.10311178 7.3864006e-06 -5.0462378e-18)
(0.103112 7.6420487e-06 2.5278852e-18)
(0.10311222 7.8004661e-06 3.7142165e-20)
(0.10311245 8.1754036e-06 1.4375471e-19)
(0.10311269 8.2350771e-06 6.9359695e-20)
(0.10311295 8.8959464e-06 6.6510294e-20)
(0.10319278 1.0619801e-06 -1.0238527e-18)
(0.10314124 -1.8564966e-07 -1.0967559e-18)
(0.10313009 6.5002181e-07 2.3460455e-18)
(0.10312693 4.6967218e-07 -2.2751708e-18)
(0.1031258 7.8000253e-07 -7.0474104e-27)
(0.10312528 8.7943983e-07 2.4559167e-18)
(0.10312495 1.0684282e-06 4.0120588e-20)
(0.10312469 1.1982097e-06 5.2786256e-18)
(0.10312447 1.3658146e-06 4.2334279e-20)
(0.10312426 1.4827065e-06 -5.59921e-18)
(0.10312406 1.6357131e-06 5.64539e-18)
(0.10312387 1.7425248e-06 -5.7984452e-18)
(0.10312368 1.8842257e-06 -2.9750676e-18)
(0.1031235 1.9833158e-06 3.0385099e-18)
(0.10312333 2.1160646e-06 2.4227166e-20)
(0.10312317 2.209143e-06 0)
(0.10312301 2.3348881e-06 -2.5188996e-20)
(0.10312286 2.4233672e-06 3.3106765e-18)
(0.10312272 2.5436188e-06 -6.6649019e-18)
(0.10312258 2.6286346e-06 2.5833301e-26)
(0.10312246 2.7446536e-06 2.7078469e-20)
(0.10312234 2.8270294e-06 3.5262675e-18)
(0.10312224 2.9396326e-06 -1.7932851e-18)
(0.10312214 3.0198681e-06 1.8235079e-18)
(0.10312205 3.129767e-06 1.8538222e-18)
(0.10312198 3.2085586e-06 -1.8989561e-18)
(0.10312192 3.3167796e-06 9.5737019e-19)
(0.10312187 3.3951086e-06 -9.7265588e-19)
(0.10312183 3.5028864e-06 -2.3155122e-19)
(0.10312181 3.5812407e-06 1.5602829e-20)
(0.10312181 3.687103e-06 2.4843611e-19)
(0.10312182 3.7634801e-06 0)
(0.10312185 3.8697655e-06 -1.5045053e-20)
(0.10312189 3.9470751e-06 0)
(0.10312194 4.0551166e-06 -1.4564814e-20)
(0.103122 4.1338368e-06 -1.8337094e-18)
(0.10312208 4.2445377e-06 -2.8175249e-20)
(0.10312216 4.3255362e-06 5.3183789e-18)
(0.10312225 4.439823e-06 -6.9696529e-18)
(0.10312235 4.5238071e-06 -2.6750549e-20)
(0.10312246 4.6428327e-06 6.7790027e-18)
(0.10312258 4.7310095e-06 -3.3021825e-18)
(0.1031227 4.8559846e-06 3.1901838e-18)
(0.10312283 4.9490538e-06 -3.2038507e-18)
(0.10312297 5.0813183e-06 2.4348638e-20)
(0.10312311 5.1811209e-06 0)
(0.10312326 5.3228209e-06 0)
(0.10312341 5.430493e-06 4.5694121e-20)
(0.10312357 5.5833326e-06 5.7162359e-18)
(0.10312373 5.7015891e-06 -5.5371644e-18)
(0.1031239 5.8694262e-06 -4.2515403e-20)
(0.10312407 6.0009394e-06 2.649689e-18)
(0.10312425 6.1874443e-06 -5.1121361e-18)
(0.10312444 6.3348692e-06 -4.2248558e-27)
(0.10312463 6.5605426e-06 2.3833266e-18)
(0.10312483 6.7028045e-06 -8.3645984e-26)
(0.10312503 7.0245473e-06 -2.2520006e-18)
(0.10312524 7.0870812e-06 2.0927871e-18)
(0.10312546 7.6846967e-06 -6.4300373e-20)
(0.10319452 8.4303581e-07 0)
(0.10314884 -1.297355e-07 6.6680571e-20)
(0.10313978 5.1662656e-07 -6.7461037e-26)
(0.10313737 4.1617754e-07 0)
(0.10313653 6.5903708e-07 -2.4664037e-18)
(0.10313612 7.5922889e-07 2.5118986e-18)
(0.10313585 9.2176168e-07 0)
(0.10313563 1.0338202e-06 4.1097948e-20)
(0.10313543 1.1776294e-06 0)
(0.10313524 1.2779683e-06 5.5988949e-18)
(0.10313505 1.4085201e-06 -5.651908e-18)
(0.10313488 1.4997242e-06 2.9167832e-18)
(0.10313471 1.6199597e-06 4.591063e-27)
(0.10313454 1.7040788e-06 -3.0491979e-18)
(0.10313438 1.8162133e-06 -3.1377981e-18)
(0.10313423 1.8948866e-06 3.176732e-18)
(0.10313409 2.0006687e-06 0)
(0.10313395 2.0752068e-06 2.5788574e-20)
(0.10313382 2.1760965e-06 -2.6267409e-20)
(0.10313369 2.2475699e-06 2.6064895e-26)
(0.10313358 2.3448156e-06 -2.7218381e-20)
(0.10313347 2.4141612e-06 0)
(0.10313337 2.5086543e-06 0)
(0.10313328 2.5763335e-06 0)
(0.10313321 2.6686617e-06 0)
(0.10313314 2.7351675e-06 0)
(0.10313308 2.8260458e-06 -9.4748361e-19)
(0.10313303 2.8920734e-06 5.0425716e-19)
(0.103133 2.9824393e-06 4.9670769e-19)
(0.10313298 3.0482583e-06 2.3524663e-19)
(0.10313298 3.1367682e-06 -7.4877406e-19)
(0.10313299 3.2008061e-06 5.0673024e-19)
(0.10313302 3.2896756e-06 1.5112015e-20)
(0.10313305 3.3545729e-06 0)
(0.1031331 3.4450549e-06 1.4627769e-20)
(0.10313316 3.5113289e-06 0)
(0.10313322 3.6042178e-06 0)
(0.1031333 3.6725104e-06 3.5882246e-18)
(0.10313338 3.7685758e-06 -6.9710379e-18)
(0.10313348 3.8396274e-06 6.9026752e-18)
(0.10313358 3.9399325e-06 -6.8056457e-18)
(0.10313368 4.0146264e-06 6.6293107e-18)
(0.1031338 4.120127e-06 -3.2269773e-18)
(0.10313392 4.1992956e-06 2.4917758e-20)
(0.10313404 4.3114799e-06 3.1501506e-18)
(0.10313418 4.3966345e-06 -3.0609728e-18)
(0.10313431 4.5170255e-06 2.3398393e-20)
(0.10313445 4.6092459e-06 -2.2871716e-20)
(0.1031346 4.7400076e-06 5.7169647e-18)
(0.10313475 4.8420272e-06 -1.1106268e-17)
(0.1031349 4.9861202e-06 5.4708168e-18)
(0.10313506 5.099754e-06 4.1225119e-20)
(0.10313523 5.2605225e-06 0)
(0.1031354 5.389849e-06 -2.5163573e-18)
(0.10313557 5.580505e-06 2.3917288e-18)
(0.10313575 5.7139999e-06 -7.1916682e-20)
(0.10313593 5.9993618e-06 2.136764e-18)
(0.10313612 6.0769558e-06 -2.0381162e-18)
(0.10313631 6.5477995e-06 1.2443595e-19)
(0.10319527 6.0559031e-07 0)
(0.10315529 -8.2845586e-08 -2.2065277e-18)
(0.1031481 3.8253984e-07 -6.8046722e-20)
(0.10314631 3.5987797e-07 4.61317e-18)
(0.10314569 5.4317521e-07 7.3837647e-20)
(0.10314538 6.4325518e-07 -4.9810494e-18)
(0.10314515 7.8130273e-07 2.5384787e-18)
(0.10314495 8.7769764e-07 5.1608366e-18)
(0.10314477 9.9957631e-07 -5.3597913e-18)
(0.1031446 1.0851728e-06 -3.4657871e-26)
(0.10314443 1.1952419e-06 4.455401e-20)
(0.10314426 1.2725478e-06 -2.2835228e-20)
(0.10314411 1.3734168e-06 0)
(0.10314396 1.4443426e-06 2.390415e-20)
(0.10314381 1.5378332e-06 3.1500683e-18)
(0.10314367 1.6037387e-06 -3.1902383e-18)
(0.10314354 1.6917366e-06 3.2283143e-18)
(0.10314341 1.7539177e-06 -3.3163558e-18)
(0.10314329 1.837565e-06 2.113735e-26)
(0.10314318 1.8969666e-06 -3.4129096e-18)
(0.10314307 1.9773318e-06 6.9745571e-18)
(0.10314297 2.0347827e-06 -3.5619812e-18)
(0.10314288 2.1129361e-06 0)
(0.1031428 2.1692737e-06 1.4391156e-20)
(0.10314273 2.2457034e-06 -1.8873692e-18)
(0.10314267 2.3011666e-06 1.8886712e-18)
(0.10314262 2.3764834e-06 -1.5113255e-20)
(0.10314258 2.4316473e-06 4.7604192e-19)
(0.10314255 2.5066043e-06 -4.9920087e-19)
(0.10314253 2.5615325e-06 1.5756159e-20)
(0.10314253 2.6346393e-06 5.0127811e-19)
(0.10314254 2.6878253e-06 -5.0880825e-19)
(0.10314256 2.7611561e-06 -1.5172898e-20)
(0.1031426 2.815161e-06 0)
(0.10314264 2.8899201e-06 0)
(0.1031427 2.9451818e-06 -1.8632279e-18)
(0.10314276 3.021999e-06 1.8179344e-18)
(0.10314283 3.0791367e-06 -2.7924269e-20)
(0.10314291 3.1587974e-06 -2.7443429e-20)
(0.10314299 3.2184786e-06 0)
(0.10314309 3.3018282e-06 2.6477606e-20)
(0.10314319 3.3647862e-06 -3.3007277e-18)
(0.10314329 3.452745e-06 3.2381536e-18)
(0.10314341 3.5199448e-06 -3.199725e-18)
(0.10314352 3.6138494e-06 3.1102288e-18)
(0.10314365 3.6864422e-06 2.3971832e-20)
(0.10314378 3.7876607e-06 -2.3441461e-20)
(0.10314391 3.8670226e-06 0)
(0.10314404 3.9777722e-06 0)
(0.10314419 4.0660905e-06 -4.3509883e-20)
(0.10314433 4.1886659e-06 0)
(0.10314448 4.2880006e-06 -4.105168e-20)
(0.10314463 4.4262259e-06 0)
(0.10314479 4.541149e-06 2.5322698e-18)
(0.10314495 4.6998543e-06 -2.289108e-18)
(0.10314512 4.8350353e-06 7.0782748e-20)
(0.10314528 5.0243058e-06 -2.1610474e-18)
(0.10314546 5.1052581e-06 3.075033e-18)
(0.10314564 5.499649e-06 -1.0845655e-18)
(0.10319486 3.8502055e-07 1.1633807e-19)
(0.10316048 -2.5910995e-08 -2.0222187e-18)
(0.10315495 2.7892376e-07 -3.99263e-27)
(0.10315367 3.1219822e-07 2.1646899e-18)
(0.10315322 4.4748514e-07 0)
(0.10315297 5.4208409e-07 3.7995308e-20)
(0.10315277 6.5639485e-07 -3.9442039e-20)
(0.1031526 7.3768142e-07 5.2660205e-18)
(0.10315243 8.379584e-07 -1.078744e-17)
(0.10315227 9.0974338e-07 -4.339729e-20)
(0.10315211 9.993815e-07 5.6647324e-18)
(0.10315196 1.0640177e-06 2.9518476e-18)
(0.10315182 1.1455291e-06 -3.0006634e-18)
(0.10315168 1.2045228e-06 -2.398514e-20)
(0.10315155 1.280324e-06 -2.4512357e-20)
(0.10315142 1.3356498e-06 0)
(0.10315129 1.4062847e-06 2.5530178e-20)
(0.10315118 1.4583667e-06 -2.6025032e-20)
(0.10315107 1.5252587e-06 2.6513128e-20)
(0.10315096 1.5749161e-06 0)
(0.10315087 1.6389228e-06 3.5444216e-18)
(0.10315078 1.6869086e-06 -5.3672164e-18)
(0.1031507 1.7484569e-06 1.8054303e-18)
(0.10315062 1.7947106e-06 1.8358154e-18)
(0.10315056 1.8548837e-06 -1.8516161e-18)
(0.1031505 1.9005191e-06 -9.4101382e-19)
(0.10315046 1.959805e-06 9.7149067e-19)
(0.10315042 2.005211e-06 0)
(0.1031504 2.0642052e-06 -2.5071255e-19)
(0.10315038 2.1093824e-06 2.5313492e-19)
(0.10315038 2.1669183e-06 4.874024e-19)
(0.10315039 2.210769e-06 -1.5009771e-18)
(0.10315042 2.2684246e-06 9.8974294e-19)
(0.10315045 2.3129725e-06 1.4981275e-20)
(0.10315049 2.3717935e-06 -1.9011168e-18)
(0.10315054 2.4176775e-06 1.869826e-18)
(0.1031506 2.4784562e-06 0)
(0.10315067 2.5259712e-06 -3.5871226e-18)
(0.10315074 2.5890296e-06 3.5254031e-18)
(0.10315082 2.6387135e-06 0)
(0.10315091 2.7048124e-06 0)
(0.103151 2.7572596e-06 -2.6080381e-20)
(0.1031511 2.8273242e-06 2.5582406e-20)
(0.10315121 2.8833072e-06 0)
(0.10315132 2.9583849e-06 0)
(0.10315144 3.0188881e-06 -2.4029165e-20)
(0.10315156 3.1002491e-06 0)
(0.10315168 3.1665835e-06 0)
(0.10315181 3.2560215e-06 5.7188345e-18)
(0.10315195 3.3297966e-06 -5.5637739e-18)
(0.10315209 3.4293957e-06 0)
(0.10315223 3.5128088e-06 4.08806e-20)
(0.10315237 3.6261492e-06 -3.9491622e-20)
(0.10315252 3.7227131e-06 -2.4718308e-18)
(0.10315267 3.854115e-06 2.261825e-18)
(0.10315283 3.9674486e-06 -6.968002e-20)
(0.10315299 4.1281369e-06 2.0517903e-18)
(0.10315315 4.203289e-06 -2.123521e-18)
(0.10315332 4.5399503e-06 0)
(0.10319368 1.7183217e-07 -1.1285856e-19)
(0.10316486 -3.974846e-08 2.0316738e-18)
(0.10316078 1.2890775e-07 -2.0875601e-18)
(0.10315989 2.1146553e-07 -6.8728785e-20)
(0.10315956 3.1895275e-07 3.6059945e-20)
(0.10315935 4.0403531e-07 0)
(0.10315917 4.9238239e-07 3.9224356e-20)
(0.10315901 5.6718308e-07 0)
(0.10315885 6.4498357e-07 5.3434713e-18)
(0.1031587 7.1092698e-07 6.4649042e-27)
(0.10315856 7.8096183e-07 -5.7380622e-18)
(0.10315842 8.4018826e-07 2.29295e-20)
(0.10315828 9.0419632e-07 0)
(0.10315815 9.5872301e-07 0)
(0.10315802 1.0158256e-06 3.1492769e-18)
(0.1031579 1.0641437e-06 -3.241366e-18)
(0.10315779 1.1184701e-06 0)
(0.10315768 1.1639535e-06 -1.3068127e-20)
(0.10315758 1.2156754e-06 0)
(0.10315748 1.2590591e-06 0)
(0.10315739 1.3086825e-06 0)
(0.10315731 1.3499979e-06 -1.796504e-18)
(0.10315723 1.3999835e-06 1.8413223e-18)
(0.10315717 1.4429711e-06 0)
(0.10315711 1.4922822e-06 -1.4752749e-20)
(0.10315706 1.5343441e-06 0)
(0.10315702 1.5830993e-06 -1.5237335e-20)
(0.10315698 1.6248102e-06 -5.1092192e-19)
(0.10315696 1.6735698e-06 5.0334466e-19)
(0.10315695 1.7147877e-06 -1.5876324e-20)
(0.10315695 1.7616648e-06 5.3623286e-19)
(0.10315696 1.8011072e-06 -1.490031e-18)
(0.10315698 1.8483822e-06 9.6218863e-19)
(0.10315701 1.8887222e-06 -3.0053297e-20)
(0.10315705 1.9372245e-06 1.1351159e-26)
(0.10315709 1.9778253e-06 0)
(0.10315715 2.0270878e-06 0)
(0.10315721 2.0690687e-06 0)
(0.10315728 2.1207049e-06 1.3816532e-20)
(0.10315736 2.1647572e-06 -3.4750557e-18)
(0.10315744 2.219272e-06 6.8384822e-18)
(0.10315753 2.2660929e-06 1.9596467e-27)
(0.10315762 2.3239451e-06 -6.5701306e-18)
(0.10315772 2.3744523e-06 3.2446163e-18)
(0.10315783 2.4365556e-06 0)
(0.10315794 2.4914729e-06 0)
(0.10315805 2.5589676e-06 0)
(0.10315817 2.6194617e-06 5.8745605e-18)
(0.1031583 2.6937725e-06 -5.7423603e-18)
(0.10315842 2.7613488e-06 2.1713012e-20)
(0.10315856 2.8443392e-06 -4.2103405e-20)
(0.10315869 2.9212267e-06 -3.1682568e-26)
(0.10315883 3.0154915e-06 3.0593447e-26)
(0.10315897 3.1047682e-06 -3.769495e-20)
(0.10315912 3.2133294e-06 3.605088e-20)
(0.10315927 3.3205266e-06 0)
(0.10315942 3.4470502e-06 5.091289e-26)
(0.10315958 3.5154662e-06 6.0921736e-20)
(0.10315974 3.7911924e-06 0)
(0.1031937 -1.7236452e-07 9.3122165e-19)
(0.10317045 7.6491317e-08 -9.6011877e-19)
(0.10316761 4.158743e-08 0)
(0.10316702 1.545706e-07 6.7668503e-20)
(0.10316677 2.1856858e-07 -3.5649041e-20)
(0.1031666 2.8150005e-07 2.4294125e-18)
(0.10316643 3.4793109e-07 -2.5355639e-18)
(0.10316628 3.998581e-07 5.1905785e-18)
(0.10316614 4.5846137e-07 3.3633108e-27)
(0.103166 5.0481116e-07 -5.5540728e-18)
(0.10316586 5.5708331e-07 -5.6772127e-18)
(0.10316573 5.9916577e-07 5.858725e-18)
(0.1031656 6.4679837e-07 0)
(0.10316548 6.8430872e-07 0)
(0.10316536 7.3730594e-07 3.1606379e-18)
(0.10316525 7.8231438e-07 -3.1907898e-18)
(0.10316515 8.3079881e-07 -1.2869582e-20)
(0.10316505 8.7301304e-07 2.8860303e-27)
(0.10316496 9.1896091e-07 0)
(0.10316487 9.5908515e-07 1.3609616e-20)
(0.10316479 1.0031465e-06 -3.5454426e-18)
(0.10316472 1.0427337e-06 3.5923366e-18)
(0.10316465 1.0768813e-06 1.83363e-18)
(0.10316459 1.1023119e-06 -1.8640891e-18)
(0.10316454 1.132744e-06 0)
(0.1031645 1.1581464e-06 0)
(0.10316446 1.188346e-06 -9.4772955e-19)
(0.10316443 1.2135676e-06 1.0095392e-18)
(0.10316442 1.2436758e-06 0)
(0.10316441 1.2687725e-06 1.5921102e-20)
(0.10316441 1.2985788e-06 -1.5809818e-20)
(0.10316443 1.3228676e-06 1.5558142e-20)
(0.10316445 1.3524266e-06 9.797896e-19)
(0.10316448 1.3769664e-06 9.7909433e-19)
(0.10316452 1.4081301e-06 1.4819197e-20)
(0.10316456 1.4377086e-06 -1.8804782e-18)
(0.10316462 1.474736e-06 -1.8207785e-18)
(0.10316468 1.5065005e-06 -1.8044013e-18)
(0.10316475 1.5446848e-06 3.5334325e-18)
(0.10316482 1.5778718e-06 1.3614983e-20)
(0.1031649 1.6180636e-06 -2.6741875e-20)
(0.10316499 1.6527023e-06 1.3123281e-20)
(0.10316509 1.6962707e-06 -1.2870752e-20)
(0.10316518 1.7320213e-06 -2.5224046e-20)
(0.10316529 1.7794368e-06 -1.2345674e-20)
(0.1031654 1.8175005e-06 -2.4140481e-20)
(0.10316551 1.86949e-06 0)
(0.10316563 1.9105961e-06 0)
(0.10316576 1.9681689e-06 -5.6986034e-18)
(0.10316589 2.0132645e-06 -4.3383771e-20)
(0.10316602 2.0780222e-06 5.4183698e-18)
(0.10316616 2.1282383e-06 -4.0544803e-20)
(0.1031663 2.202368e-06 3.9001756e-20)
(0.10316645 2.2591058e-06 2.4287703e-18)
(0.1031666 2.3466211e-06 -2.3158461e-18)
(0.10316676 2.4092861e-06 -2.1620158e-18)
(0.10316692 2.5276887e-06 4.1361755e-18)
(0.10316708 2.5679101e-06 -8.9179216e-19)
(0.10316725 2.7972526e-06 -8.247514e-19)
(0.10318855 -3.8561453e-07 -1.064136e-19)
(0.10317087 1.5817482e-07 5.8512373e-20)
(0.10316909 2.2745059e-07 3.1320386e-20)
(0.10316874 3.5492528e-07 0)
(0.10316857 4.3716024e-07 0)
(0.10316844 4.8997197e-07 2.3354101e-18)
(0.10316831 5.4704265e-07 -2.4632221e-18)
(0.10316819 5.7282686e-07 5.1929684e-18)
(0.10316807 6.0802485e-07 -5.3473813e-18)
(0.10316796 6.1800439e-07 5.5529103e-18)
(0.10316785 6.3943449e-07 -5.7721187e-18)
(0.10316774 6.3957418e-07 -5.8926865e-18)
(0.10316764 6.5233925e-07 3.0248891e-18)
(0.10316754 6.4645845e-07 6.211675e-18)
(0.10316744 6.5371541e-07 -3.1714751e-18)
(0.10316736 6.4423971e-07 2.6367975e-26)
(0.10316727 6.4807212e-07 1.2917904e-20)
(0.10316719 6.3647281e-07 -3.3452929e-18)
(0.10316712 6.3818814e-07 6.8694796e-18)
(0.10316705 6.2562314e-07 -3.5239923e-18)
(0.10316699 6.2632637e-07 0)
(0.10316694 6.1332855e-07 1.4134411e-20)
(0.10316689 6.1370681e-07 0)
(0.10316684 6.0103752e-07 7.3034339e-21)
(0.10316681 6.0173786e-07 -7.4222456e-21)
(0.10316678 5.8984926e-07 0)
(0.10316676 5.9139985e-07 -2.2989666e-20)
(0.10316674 5.808239e-07 0)
(0.10316674 5.8382445e-07 0)
(0.10316674 5.7534039e-07 0)
(0.10316675 5.7954082e-07 0)
(0.10316678 5.6990055e-07 0)
(0.10316681 5.7267929e-07 2.2997162e-20)
(0.10316684 5.6165555e-07 7.5428773e-21)
(0.10316689 5.6383627e-07 0)
(0.10316694 5.5189134e-07 2.1903785e-20)
(0.103167 5.5397459e-07 -1.4363613e-20)
(0.10316706 5.4161463e-07 7.0626753e-21)
(0.10316714 5.4447023e-07 -6.9432998e-21)
(0.10316722 5.3257254e-07 -1.3646185e-20)
(0.1031673 5.3699577e-07 3.444541e-18)
(0.10316739 5.2582466e-07 -6.7486629e-18)
(0.10316749 5.3442299e-07 1.2901945e-20)
(0.10316759 5.1910588e-07 3.248819e-18)
(0.1031677 5.2982126e-07 1.2371808e-20)
(0.10316781 5.1604781e-07 2.4183504e-20)
(0.10316793 5.3316996e-07 0)
(0.10316805 5.2422323e-07 -5.8729607e-18)
(0.10316818 5.5022144e-07 2.2341783e-20)
(0.10316831 5.4982779e-07 5.5887795e-18)
(0.10316845 5.8969805e-07 2.0943038e-20)
(0.10316859 6.0381344e-07 0)
(0.10316874 6.6551653e-07 -2.4796983e-18)
(0.10316889 7.0436038e-07 2.3882736e-18)
(0.10316905 8.0254605e-07 0)
(0.10316921 8.8130311e-07 3.3261577e-20)
(0.10316938 1.0354708e-06 -2.0280576e-18)
(0.10316956 1.1260032e-06 1.7989659e-18)
(0.10316975 1.3748014e-06 -1.068153e-19)
(0.10316196 -1.2961778e-08 5.1714561e-20)
(0.1031499 -1.7202264e-07 1.7696938e-18)
(0.1031489 1.6336577e-08 -1.9964572e-18)
(0.10314865 -2.3681533e-08 2.1012575e-18)
(0.10314848 7.1105818e-08 -4.4622387e-18)
(0.10314832 7.2007181e-08 4.7077992e-18)
(0.10314817 1.3292083e-07 -2.4598842e-18)
(0.10314803 1.3446699e-07 5.1363854e-18)
(0.10314789 1.9056002e-07 -1.0470623e-20)
(0.10314776 1.9325144e-07 -5.5423299e-18)
(0.10314762 2.4647253e-07 -5.7117361e-18)
(0.1031475 2.5077848e-07 5.9105485e-18)
(0.10314738 3.0176412e-07 0)
(0.10314727 3.0740281e-07 -1.2146554e-20)
(0.10314716 3.5660947e-07 6.2154159e-21)
(0.10314706 3.6283414e-07 -1.270272e-20)
(0.10314696 4.1008371e-07 -3.3122809e-18)
(0.10314687 4.1673906e-07 3.3701426e-18)
(0.10314679 4.6243585e-07 -6.7306884e-21)
(0.10314671 4.6860956e-07 3.521223e-18)
(0.10314664 5.1201151e-07 -7.1358453e-18)
(0.10314657 5.1809231e-07 5.4415804e-18)
(0.10314652 5.5954011e-07 -1.843634e-18)
(0.10314647 5.6457666e-07 -3.6590822e-21)
(0.10314642 6.0352823e-07 -1.8959997e-18)
(0.10314639 6.0729909e-07 1.937506e-18)
(0.10314636 6.4379247e-07 7.6735305e-21)
(0.10314634 6.4569256e-07 0)
(0.10314633 6.7942154e-07 0)
(0.10314632 6.7947998e-07 0)
(0.10314633 7.1449471e-07 0)
(0.10314634 7.1805031e-07 -9.9855112e-19)
(0.10314636 7.5515794e-07 9.7499566e-19)
(0.10314639 7.5857815e-07 -1.9378878e-18)
(0.10314643 7.9640752e-07 1.8996063e-18)
(0.10314647 7.9938849e-07 -3.657991e-21)
(0.10314653 8.376441e-07 0)
(0.10314658 8.3972531e-07 3.6250855e-18)
(0.10314665 8.7828276e-07 -3.557703e-18)
(0.10314672 8.7893408e-07 0)
(0.1031468 9.1724693e-07 -3.4486267e-18)
(0.10314688 9.1597164e-07 3.3853741e-18)
(0.10314697 9.503894e-07 -3.3074423e-18)
(0.10314707 9.7283232e-07 3.2278524e-18)
(0.10314717 1.0160127e-06 -3.177196e-18)
(0.10314728 1.04146e-06 3.1043935e-18)