/*--------------------------------*- C++ -*----------------------------------*\
| =========                 |                                                 |
| \\      /  F ield         | OpenFOAM: The Open Source CFD Toolbox           |
|  \\    /   O peration     | Version:  v2006                                 |
|   \\  /    A nd           | Website:  www.openfoam.com                      |
|    \\/     M anipulation  |                                                 |
\*---------------------------------------------------------------------------*/
FoamFile
{
    version     2.0;
    format      ascii;
    class       volVectorField;
    location    "10000";
    object      UMean;
}
// * * * * * * * * * * * * * * * * * * * * * * * * * * * * * * * * * * * * * //

dimensions      [0 1 -1 0 0 0 0];


internalField   nonuniform List<vector> 
55713
(
(0.10316661 6.8387955e-07 0)
(0.10308079 -3.0573677e-07 0)
(0.1030553 9.2034813e-07 2.5739213e-18)
(0.103046 7.8688835e-07 -2.5685866e-18)
(0.10304209 1.4477843e-06 2.587543e-18)
(0.10304022 1.6254414e-06 1.7962518e-27)
(0.10303917 2.0790608e-06 -2.6484966e-18)
(0.1030385 2.3117869e-06 0)
(0.10303799 2.6847431e-06 1.0673603e-20)
(0.10303757 2.921496e-06 0)
(0.10303719 3.250801e-06 -1.1048451e-20)
(0.10303685 3.4884981e-06 -1.124577e-20)
(0.10303653 3.788498e-06 0)
(0.10303623 4.0229428e-06 2.9830293e-18)
(0.10303594 4.2976146e-06 -3.0362123e-18)
(0.10303568 4.5260237e-06 -6.0351029e-21)
(0.10303542 4.7768204e-06 3.150386e-18)
(0.10303519 4.9998557e-06 -3.1989616e-18)
(0.10303496 5.2398228e-06 6.3556287e-21)
(0.10303476 5.4573194e-06 -3.3095842e-18)
(0.10303458 5.687349e-06 3.3588545e-18)
(0.10303442 5.8992584e-06 0)
(0.10303427 6.1227885e-06 0)
(0.10303415 6.33129e-06 -1.7742596e-18)
(0.10303405 6.5509086e-06 1.7957919e-18)
(0.10303397 6.7569594e-06 0)
(0.10303392 6.9744026e-06 0)
(0.10303389 7.1787374e-06 0)
(0.10303388 7.3952422e-06 2.38707e-19)
(0.10303388 7.5986305e-06 -6.9183343e-29)
(0.1030339 7.8150577e-06 -2.416448e-19)
(0.10303393 8.0168296e-06 0)
(0.10303398 8.2327061e-06 0)
(0.10303405 8.4376722e-06 0)
(0.10303414 8.6568432e-06 0)
(0.10303425 8.8676502e-06 1.789328e-18)
(0.10303439 9.0944829e-06 -1.7537368e-18)
(0.10303455 9.3120669e-06 -3.4640163e-18)
(0.10303473 9.5445285e-06 1.666368e-27)
(0.10303493 9.7680816e-06 3.3438558e-18)
(0.10303515 1.0007238e-05 0)
(0.10303539 1.0237778e-05 6.3243529e-21)
(0.10303564 1.0485466e-05 -3.1824692e-18)
(0.10303591 1.0724653e-05 3.1272873e-18)
(0.1030362 1.0983089e-05 3.0725759e-18)
(0.1030365 1.123286e-05 -3.02429e-18)
(0.10303682 1.1504634e-05 0)
(0.10303715 1.176735e-05 0)
(0.1030375 1.2055549e-05 -2.84881e-18)
(0.10303787 1.233411e-05 2.8090267e-18)
(0.10303825 1.2642701e-05 0)
(0.10303865 1.2940885e-05 0)
(0.10303908 1.3275064e-05 0)
(0.10303952 1.3595896e-05 0)
(0.10304 1.396796e-05 2.5808388e-18)
(0.10304049 1.4309664e-05 -3.7941059e-27)
(0.10304103 1.4730584e-05 -3.770029e-18)
(0.10304159 1.5164662e-05 1.2252808e-18)
(0.10304222 1.5358631e-05 -1.921253e-20)
(0.1031744 1.115745e-06 0)
(0.10309672 -2.2411264e-07 2.4242542e-18)
(0.10307479 1.0814542e-06 -2.5133729e-18)
(0.1030671 7.9914384e-07 3.9398175e-20)
(0.10306396 1.4001351e-06 -2.5519448e-18)
(0.10306247 1.5176982e-06 5.1571162e-18)
(0.10306162 1.8914464e-06 4.1739003e-27)
(0.10306105 2.1009317e-06 -2.6778147e-18)
(0.1030606 2.4208211e-06 -1.0653684e-20)
(0.10306022 2.6273591e-06 2.170932e-20)
(0.10305988 2.922955e-06 -2.8204774e-18)
(0.10305956 3.1188537e-06 2.8964464e-18)
(0.10305926 3.3938881e-06 2.93945e-18)
(0.10305897 3.5822605e-06 2.7643608e-27)
(0.1030587 3.8380554e-06 2.4844657e-27)
(0.10305844 4.0225284e-06 -3.0987848e-18)
(0.10305819 4.2602157e-06 -6.1731339e-21)
(0.10305797 4.4427143e-06 0)
(0.10305775 4.6661667e-06 3.2666793e-18)
(0.10305755 4.8468386e-06 -6.6593939e-18)
(0.10305737 5.0602614e-06 3.3932021e-18)
(0.10305721 5.2390493e-06 1.3452083e-20)
(0.10305707 5.4456613e-06 0)
(0.10305695 5.6229754e-06 6.9506739e-21)
(0.10305685 5.8261008e-06 0)
(0.10305677 6.0032762e-06 9.0426108e-19)
(0.10305671 6.2055877e-06 -1.8662164e-18)
(0.10305667 6.3827935e-06 9.327839e-19)
(0.10305666 6.5850846e-06 2.4050665e-19)
(0.10305665 6.7620378e-06 -2.5885229e-19)
(0.10305666 6.9596773e-06 0)
(0.10305668 7.1302048e-06 9.4292038e-19)
(0.10305671 7.3255705e-06 -1.8865218e-18)
(0.10305677 7.4975382e-06 9.2861513e-19)
(0.10305685 7.6965775e-06 0)
(0.10305695 7.8725891e-06 1.7987249e-18)
(0.10305707 8.0744365e-06 -1.7764897e-18)
(0.10305721 8.2528604e-06 1.3597864e-20)
(0.10305737 8.4590123e-06 0)
(0.10305754 8.6432332e-06 6.5733313e-21)
(0.10305774 8.8571102e-06 3.3081485e-18)
(0.10305795 9.0485898e-06 -6.5083616e-18)
(0.10305818 9.2717885e-06 -4.0492385e-28)
(0.10305842 9.4716134e-06 3.1374938e-18)
(0.10305867 9.7060875e-06 -3.081144e-18)
(0.10305894 9.9157576e-06 6.0560857e-18)
(0.10305922 1.0163853e-05 -5.9387286e-18)
(0.10305952 1.0385487e-05 2.9140164e-18)
(0.10305983 1.0649985e-05 -1.1168419e-20)
(0.10306015 1.0886389e-05 0)
(0.10306049 1.1171197e-05 0)
(0.10306084 1.1425279e-05 0)
(0.10306121 1.1732058e-05 -2.6670669e-18)
(0.10306159 1.200566e-05 2.6161998e-18)
(0.103062 1.2348279e-05 0)
(0.10306242 1.2631973e-05 3.90713e-20)
(0.10306288 1.3050484e-05 0)
(0.10306334 1.3339015e-05 1.8880492e-20)
(0.10306387 1.3804701e-05 1.850378e-20)
(0.10318171 1.3431111e-06 0)
(0.10311149 -2.5882764e-07 3.7351325e-20)
(0.10309275 1.0422022e-06 -3.8062662e-20)
(0.10308646 6.9430495e-07 -3.8686645e-20)
(0.10308397 1.2401139e-06 -2.556917e-18)
(0.10308279 1.341148e-06 2.5840226e-18)
(0.1030821 1.6639545e-06 0)
(0.10308162 1.8502452e-06 2.0841215e-20)
(0.10308124 2.1278718e-06 -5.4451036e-18)
(0.1030809 2.3085578e-06 5.5134011e-18)
(0.10308058 2.5638915e-06 0)
(0.10308029 2.7345389e-06 -2.2589943e-20)
(0.10308001 2.9715533e-06 0)
(0.10307974 3.1349536e-06 2.9819071e-18)
(0.10307948 3.3562339e-06 -6.1249296e-18)
(0.10307924 3.5149699e-06 3.119626e-18)
(0.10307901 3.7228134e-06 -3.1644746e-18)
(0.10307879 3.8781696e-06 -3.9111936e-27)
(0.10307859 4.0749744e-06 3.291772e-18)
(0.1030784 4.2276036e-06 -3.3494483e-18)
(0.10307823 4.4159275e-06 -3.5636832e-27)
(0.10307808 4.5657922e-06 3.4653647e-18)
(0.10307794 4.7483515e-06 0)
(0.10307782 4.8953733e-06 1.7770502e-18)
(0.10307772 5.0741787e-06 1.6639314e-27)
(0.10307764 5.2182113e-06 -1.8208466e-18)
(0.10307759 5.395483e-06 -1.4681034e-20)
(0.10307755 5.5373998e-06 4.9205861e-19)
(0.10307753 5.7153374e-06 -4.8448437e-19)
(0.10307752 5.8572433e-06 2.4523621e-19)
(0.10307752 6.0325459e-06 -2.4453587e-19)
(0.10307753 6.17057e-06 3.0104305e-20)
(0.10307756 6.3459017e-06 0)
(0.1030776 6.4851026e-06 1.4588019e-20)
(0.10307767 6.6630599e-06 -1.4356097e-20)
(0.10307775 6.8044661e-06 -1.4124638e-20)
(0.10307786 6.9863009e-06 -1.3893802e-20)
(0.10307798 7.1310352e-06 -1.3663696e-20)
(0.10307812 7.3180144e-06 3.4257416e-18)
(0.10307828 7.4669691e-06 -3.3806301e-18)
(0.10307845 7.6608231e-06 0)
(0.10307864 7.8143867e-06 3.2640156e-18)
(0.10307884 8.0182927e-06 -3.1933797e-18)
(0.10307906 8.1775451e-06 3.1724788e-18)
(0.10307928 8.3931734e-06 -3.0899424e-18)
(0.10307952 8.5597305e-06 -3.0083625e-18)
(0.10307977 8.7893864e-06 -2.2664968e-27)
(0.10308003 8.9656511e-06 2.893592e-18)
(0.10308031 9.211619e-06 2.2332676e-20)
(0.10308059 9.4005419e-06 0)
(0.10308088 9.6669457e-06 0)
(0.10308119 9.8714517e-06 0)
(0.10308151 1.0162969e-05 2.0533413e-20)
(0.10308184 1.038627e-05 -2.0087319e-20)
(0.10308219 1.0709698e-05 0)
(0.10308254 1.0928833e-05 2.4581853e-18)
(0.10308293 1.1342377e-05 -2.4025508e-18)
(0.10308332 1.1548851e-05 0)
(0.10308375 1.2052251e-05 0)
(0.10318738 1.3785997e-06 6.845443e-20)
(0.10312404 -2.5803395e-07 -7.2551349e-20)
(0.10310816 9.4617966e-07 -2.3430489e-18)
(0.10310308 6.2584197e-07 2.4319166e-18)
(0.10310112 1.0996108e-06 3.8818425e-20)
(0.10310019 1.1985164e-06 0)
(0.10309964 1.4747893e-06 -2.5983478e-18)
(0.10309923 1.6425036e-06 7.952863e-18)
(0.10309889 1.8827961e-06 -1.087179e-17)
(0.10309858 2.0411267e-06 5.5779034e-18)
(0.10309829 2.2614935e-06 -2.8380862e-18)
(0.10309802 2.4094692e-06 2.2639213e-20)
(0.10309776 2.6139425e-06 5.9145253e-18)
(0.10309751 2.7538857e-06 -2.992875e-18)
(0.10309727 2.9452634e-06 0)
(0.10309704 3.0794219e-06 0)
(0.10309682 3.259696e-06 -1.2472015e-20)
(0.10309662 3.3900769e-06 0)
(0.10309643 3.5609355e-06 0)
(0.10309625 3.6885427e-06 2.631771e-20)
(0.10309609 3.8520515e-06 -1.3388304e-20)
(0.10309595 3.9769913e-06 -2.7236588e-20)
(0.10309581 4.1355192e-06 -1.7726606e-18)
(0.1030957 4.2577759e-06 1.8163492e-18)
(0.10309561 4.4134325e-06 1.4312217e-20)
(0.10309553 4.5327273e-06 -1.4544836e-20)
(0.10309547 4.687571e-06 9.6055847e-19)
(0.10309543 4.8052856e-06 -9.6069851e-19)
(0.10309541 4.9606576e-06 1.5243636e-20)
(0.1030954 5.0781265e-06 -2.3135898e-19)
(0.10309539 5.2307242e-06 -2.4591261e-19)
(0.1030954 5.3448912e-06 4.691762e-19)
(0.10309542 5.4977153e-06 0)
(0.10309546 5.6129903e-06 -1.8916901e-18)
(0.10309551 5.7682895e-06 1.4429418e-20)
(0.10309559 5.8854489e-06 3.662335e-18)
(0.10309568 6.0442706e-06 -1.7731011e-18)
(0.10309579 6.1642094e-06 0)
(0.10309592 6.3278229e-06 1.3495989e-20)
(0.10309606 6.4514931e-06 0)
(0.10309621 6.6215752e-06 0)
(0.10309638 6.7496149e-06 2.5601857e-20)
(0.10309656 6.9282937e-06 -1.2569402e-20)
(0.10309675 7.0616491e-06 -3.1830869e-18)
(0.10309695 7.2507932e-06 3.0989231e-18)
(0.10309717 7.3912285e-06 -3.7488703e-26)
(0.10309739 7.5929449e-06 2.3275663e-20)
(0.10309762 7.7426194e-06 3.5995203e-26)
(0.10309787 7.9596451e-06 -2.233095e-20)
(0.10309812 8.1209208e-06 -5.5726728e-18)
(0.10309838 8.3570117e-06 5.4713098e-18)
(0.10309865 8.5330238e-06 4.1773014e-20)
(0.10309893 8.7929695e-06 -2.6514365e-18)
(0.10309921 8.9873361e-06 5.0941529e-18)
(0.10309951 9.291812e-06 -5.0040898e-18)
(0.10309982 9.4824601e-06 2.4172006e-18)
(0.10310015 9.8995279e-06 -7.3452754e-20)
(0.10310048 1.0003205e-05 0)
(0.10310084 1.0655635e-05 0)
(0.10319192 1.2791791e-06 -6.6157569e-20)
(0.10313503 -2.2722771e-07 7.0500893e-20)
(0.1031217 8.2096363e-07 -2.3265402e-18)
(0.10311766 5.6103502e-07 2.3147575e-18)
(0.10311615 9.5815007e-07 -2.452334e-18)
(0.10311542 1.0592423e-06 2.5564113e-18)
(0.10311496 1.2938807e-06 2.5423766e-18)
(0.10311462 1.4445179e-06 -2.6483859e-18)
(0.10311432 1.6513193e-06 5.3846338e-18)
(0.10311404 1.7899811e-06 -1.1068105e-17)
(0.10311378 1.9791592e-06 5.6827901e-18)
(0.10311352 2.1075737e-06 -2.2688315e-20)
(0.10311328 2.2828654e-06 -2.9660763e-18)
(0.10311305 2.4032071e-06 6.0547992e-18)
(0.10311283 2.5673447e-06 -3.0881791e-18)
(0.10311262 2.6815878e-06 -3.1485138e-18)
(0.10311241 2.8364578e-06 2.5066426e-20)
(0.10311222 2.9465249e-06 3.2427162e-18)
(0.10311205 3.093486e-06 -2.5998715e-20)
(0.10311188 3.2007043e-06 -5.2927417e-20)
(0.10311173 3.3413172e-06 1.3464369e-20)
(0.10311159 3.4460802e-06 1.3697149e-20)
(0.10311147 3.5823213e-06 0)
(0.10311136 3.6846058e-06 -1.8130278e-18)
(0.10311127 3.8184756e-06 -1.4398866e-20)
(0.1031112 3.9186069e-06 1.8877986e-18)
(0.10311115 4.0514616e-06 0)
(0.10311111 4.150901e-06 0)
(0.10311108 4.2833574e-06 -3.0683798e-20)
(0.10311107 4.3825984e-06 2.3273897e-19)
(0.10311106 4.5124593e-06 -2.472276e-19)
(0.10311107 4.6089565e-06 0)
(0.10311108 4.7390512e-06 0)
(0.10311112 4.8366375e-06 -1.8863777e-18)
(0.10311116 4.9689314e-06 3.7119584e-18)
(0.10311123 5.0682651e-06 -1.8399271e-18)
(0.10311131 5.2037421e-06 -1.7673817e-18)
(0.10311141 5.3056584e-06 1.7652839e-18)
(0.10311152 5.4454018e-06 0)
(0.10311165 5.5508216e-06 0)
(0.10311179 5.6961833e-06 -3.3763127e-18)
(0.10311194 5.8059669e-06 3.2642364e-18)
(0.1031121 5.9586545e-06 2.5231036e-20)
(0.10311228 6.0737276e-06 -3.1689532e-18)
(0.10311246 6.2355884e-06 6.1916725e-18)
(0.10311265 6.3574005e-06 -3.0703405e-18)
(0.10311285 6.5304586e-06 -3.0078515e-18)
(0.10311306 6.6610001e-06 5.8436894e-18)
(0.10311328 6.8478969e-06 -2.8583456e-18)
(0.10311351 6.9893438e-06 -6.548232e-20)
(0.10311374 7.1938334e-06 0)
(0.10311398 7.3487543e-06 -4.1587889e-20)
(0.10311422 7.5762608e-06 2.5934128e-18)
(0.10311448 7.7469837e-06 -5.0470572e-18)
(0.10311474 8.0186407e-06 2.5282928e-18)
(0.10311501 8.182186e-06 3.71481e-20)
(0.10311529 8.5724156e-06 1.4377746e-19)
(0.10311558 8.6394557e-06 6.9370531e-20)
(0.10311588 9.3167872e-06 6.6508376e-20)
(0.10319526 1.0984495e-06 -1.0238283e-18)
(0.10314447 -1.7752503e-07 -1.0967183e-18)
(0.10313345 6.8372926e-07 2.3459525e-18)
(0.10313029 5.0326381e-07 -2.2750687e-18)
(0.10312913 8.2496005e-07 -7.2617123e-27)
(0.10312856 9.2935215e-07 2.4557818e-18)
(0.10312819 1.1289203e-06 4.0118201e-20)
(0.10312789 1.2633433e-06 5.278288e-18)
(0.10312763 1.4393944e-06 4.2331386e-20)
(0.10312737 1.5614694e-06 -5.5988027e-18)
(0.10312713 1.7220579e-06 5.6449545e-18)
(0.1031269 1.8340289e-06 -5.7979723e-18)
(0.10312668 1.9825802e-06 -2.9748117e-18)
(0.10312646 2.0866187e-06 3.0382348e-18)
(0.10312626 2.2256002e-06 2.4224863e-20)
(0.10312606 2.3235802e-06 0)
(0.10312588 2.4547902e-06 -2.5186369e-20)
(0.1031257 2.5483606e-06 3.3103154e-18)
(0.10312554 2.6731261e-06 -6.664143e-18)
(0.10312538 2.7635143e-06 2.6652437e-26)
(0.10312524 2.8831662e-06 2.7075119e-20)
(0.10312511 2.9709718e-06 3.5258135e-18)
(0.103125 3.0871145e-06 -1.793045e-18)
(0.1031249 3.172738e-06 1.8232542e-18)
(0.10312482 3.28679e-06 1.8535545e-18)
(0.10312475 3.3709235e-06 -1.8986715e-18)
(0.1031247 3.4837588e-06 9.5722142e-19)
(0.10312466 3.5674241e-06 -9.7249925e-19)
(0.10312464 3.6797313e-06 -2.315126e-19)
(0.10312463 3.7631339e-06 1.5602487e-20)
(0.10312462 3.8731711e-06 2.4846781e-19)
(0.10312462 3.9541655e-06 0)
(0.10312463 4.064524e-06 -1.5047008e-20)
(0.10312466 4.1464553e-06 0)
(0.10312471 4.2588153e-06 -1.4566737e-20)
(0.10312477 4.3423194e-06 -1.8339531e-18)
(0.10312484 4.4575696e-06 -2.8179016e-20)
(0.10312493 4.5433868e-06 5.3190936e-18)
(0.10312503 4.662514e-06 -6.9705938e-18)
(0.10312515 4.7514706e-06 -2.6754174e-20)
(0.10312527 4.8756344e-06 6.7799243e-18)
(0.10312541 4.9686081e-06 -3.3026325e-18)
(0.10312556 5.0992099e-06 3.1906193e-18)
(0.10312572 5.1972052e-06 -3.2042885e-18)
(0.10312589 5.3358849e-06 2.4351967e-20)
(0.10312606 5.440231e-06 0)
(0.10312624 5.5889007e-06 0)
(0.10312643 5.7013778e-06 4.570034e-20)
(0.10312663 5.8625217e-06 5.7170113e-18)
(0.10312683 5.9852187e-06 -5.5379121e-18)
(0.10312704 6.1624715e-06 -4.2521111e-20)
(0.10312726 6.2976469e-06 2.6500423e-18)
(0.10312748 6.4967109e-06 -5.1128122e-18)
(0.10312771 6.6459591e-06 -4.3180208e-27)
(0.10312794 6.8854277e-06 2.383635e-18)
(0.10312818 7.0320932e-06 -8.6333799e-26)
(0.10312843 7.368464e-06 -2.252283e-18)
(0.10312868 7.4364708e-06 2.0930441e-18)
(0.10312894 8.0491532e-06 -6.4298221e-20)
(0.10319753 8.7099798e-07 0)
(0.10315258 -1.1991508e-07 6.667805e-20)
(0.10314363 5.4468783e-07 -6.9433883e-26)
(0.10314121 4.4689394e-07 0)
(0.10314035 6.9819652e-07 -2.4662757e-18)
(0.1031399 8.0425141e-07 2.5117581e-18)
(0.10313959 9.7402296e-07 0)
(0.10313933 1.0914347e-06 4.1095339e-20)
(0.10313909 1.2415084e-06 0)
(0.10313886 1.3469688e-06 5.5984983e-18)
(0.10313864 1.4832914e-06 -5.6514868e-18)
(0.10313843 1.579415e-06 2.916555e-18)
(0.10313823 1.7050176e-06 4.7092045e-27)
(0.10313803 1.7939099e-06 -3.0489364e-18)
(0.10313784 1.9111116e-06 -3.1375169e-18)
(0.10313766 1.9943817e-06 3.176435e-18)
(0.10313749 2.1048906e-06 0)
(0.10313733 2.1839497e-06 2.5785959e-20)
(0.10313718 2.2890485e-06 -2.626464e-20)
(0.10313704 2.3649767e-06 2.6826693e-26)
(0.10313691 2.4658534e-06 -2.7215287e-20)
(0.10313679 2.5393033e-06 0)
(0.10313669 2.6372341e-06 0)
(0.10313659 2.7088587e-06 0)
(0.10313652 2.8048124e-06 0)
(0.10313646 2.8753795e-06 0)
(0.10313641 2.970087e-06 -9.4735051e-19)
(0.10313637 3.0402616e-06 5.0418392e-19)
(0.10313635 3.1345135e-06 4.9663312e-19)
(0.10313634 3.2043913e-06 2.3524084e-19)
(0.10313633 3.2966077e-06 -7.4885247e-19)
(0.10313633 3.3644148e-06 5.0678379e-19)
(0.10313635 3.4569454e-06 1.5113625e-20)
(0.10313637 3.5256332e-06 0)
(0.10313641 3.6199458e-06 1.4629351e-20)
(0.10313647 3.6900759e-06 0)
(0.10313654 3.7869593e-06 0)
(0.10313662 3.8591963e-06 3.5886185e-18)
(0.10313671 3.959518e-06 -6.9718059e-18)
(0.10313682 4.0345997e-06 6.9034379e-18)
(0.10313693 4.1393578e-06 -6.8063993e-18)
(0.10313706 4.2181142e-06 6.6300457e-18)
(0.1031372 4.3285081e-06 -3.2273352e-18)
(0.10313734 4.4118957e-06 2.4920521e-20)
(0.1031375 4.5293695e-06 3.1504994e-18)
(0.10313766 4.6186168e-06 -3.061311e-18)
(0.10313783 4.7449092e-06 2.3400969e-20)
(0.103138 4.8416111e-06 -2.2874223e-20)
(0.10313818 4.9789623e-06 5.7175876e-18)
(0.10313837 5.0851155e-06 -1.110747e-17)
(0.10313856 5.2367206e-06 5.4714033e-18)
(0.10313875 5.3546021e-06 4.1229491e-20)
(0.10313895 5.5253324e-06 0)
(0.10313916 5.657162e-06 -2.5166168e-18)
(0.10313937 5.8592647e-06 2.3919711e-18)
(0.10313959 5.9969078e-06 -7.1923813e-20)
(0.10313981 6.2931381e-06 2.1369705e-18)
(0.10314004 6.3737532e-06 -2.0383072e-18)
(0.10314026 6.8621904e-06 1.2443128e-19)
(0.10319875 6.2537331e-07 0)
(0.10315946 -7.1175978e-08 -2.2064378e-18)
(0.10315236 4.0589621e-07 -6.8043642e-20)
(0.10315056 3.875503e-07 4.6129417e-18)
(0.10314992 5.7743535e-07 7.3833723e-20)
(0.10314957 6.8327456e-07 -4.9807682e-18)
(0.10314931 8.264719e-07 2.5383276e-18)
(0.10314908 9.2843376e-07 5.1605135e-18)
(0.10314886 1.0548109e-06 -5.3594396e-18)
(0.10314866 1.1455185e-06 -3.5606382e-26)
(0.10314846 1.2596987e-06 4.4550815e-20)
(0.10314826 1.3417775e-06 -2.283352e-20)
(0.10314808 1.4465229e-06 0)
(0.1031479 1.5219035e-06 2.3902213e-20)
(0.10314772 1.6191595e-06 3.1498032e-18)
(0.10314756 1.6894375e-06 -3.1899596e-18)
(0.1031474 1.7809281e-06 3.2280218e-18)
(0.10314725 1.8473276e-06 -3.3160445e-18)
(0.10314712 1.9342691e-06 2.1716085e-26)
(0.10314699 1.9977571e-06 -3.4125662e-18)
(0.10314687 2.0811881e-06 6.9738314e-18)
(0.10314676 2.142469e-06 -3.561598e-18)
(0.10314667 2.2233879e-06 0)
(0.10314658 2.2832445e-06 1.4389503e-20)
(0.10314652 2.3624947e-06 -1.8871454e-18)
(0.10314646 2.4214654e-06 1.88844e-18)
(0.10314642 2.4996894e-06 -1.5111346e-20)
(0.10314638 2.5583423e-06 4.7597988e-19)
(0.10314637 2.6362847e-06 -4.9913377e-19)
(0.10314635 2.694648e-06 1.575574e-20)
(0.10314635 2.7707329e-06 5.0132031e-19)
(0.10314635 2.8271744e-06 -5.0885144e-19)
(0.10314636 2.9035451e-06 -1.5174195e-20)
(0.10314639 2.9607897e-06 0)
(0.10314643 3.0387613e-06 0)
(0.10314648 3.0972971e-06 -1.86339e-18)
(0.10314654 3.1775573e-06 1.8180933e-18)
(0.10314662 3.2379665e-06 -2.7926717e-20)
(0.1031467 3.3212864e-06 -2.7445842e-20)
(0.1031468 3.3842357e-06 0)
(0.10314691 3.4714988e-06 2.6479939e-20)
(0.10314703 3.5377775e-06 -3.3010184e-18)
(0.10314716 3.6300326e-06 3.2384384e-18)
(0.10314729 3.7005959e-06 -3.2000058e-18)
(0.10314743 3.7991045e-06 3.1105008e-18)
(0.10314758 3.8751298e-06 2.3973918e-20)
(0.10314774 3.9814742e-06 -2.3443489e-20)
(0.1031479 4.0644661e-06 0)
(0.10314807 4.1806942e-06 0)
(0.10314824 4.2726421e-06 -4.3513543e-20)
(0.10314842 4.4015022e-06 0)
(0.1031486 4.5050376e-06 -4.1055034e-20)
(0.10314878 4.6503277e-06 0)
(0.10314897 4.7692338e-06 2.5324684e-18)
(0.10314917 4.9362577e-06 -2.2892828e-18)
(0.10314937 5.0760637e-06 7.0787988e-20)
(0.10314957 5.2753851e-06 -2.1612016e-18)
(0.10314978 5.3579825e-06 3.0752428e-18)
(0.10314998 5.7735681e-06 -1.0845211e-18)
(0.10319877 3.9746296e-07 1.1633395e-19)
(0.10316502 -1.4098778e-08 -2.0221313e-18)
(0.10315956 2.9641651e-07 -4.0874139e-27)
(0.10315826 3.3547718e-07 2.1645796e-18)
(0.10315779 4.7715292e-07 0)
(0.10315751 5.7647989e-07 3.7993162e-20)
(0.10315729 6.9490945e-07 -3.9439713e-20)
(0.10315708 7.8108453e-07 5.2656973e-18)
(0.10315689 8.8509623e-07 -1.0786751e-17)
(0.1031567 9.6126632e-07 -4.3394417e-20)
(0.10315652 1.0543266e-06 5.6643434e-18)
(0.10315634 1.1230107e-06 2.9516376e-18)
(0.10315617 1.2076626e-06 -3.0004425e-18)
(0.10315601 1.2709237e-06 -2.3983315e-20)
(0.10315585 1.3495228e-06 -2.451043e-20)
(0.1031557 1.4084435e-06 0)
(0.10315556 1.481931e-06 2.552804e-20)
(0.10315542 1.537445e-06 -2.6022783e-20)
(0.1031553 1.6069825e-06 2.6510767e-20)
(0.10315518 1.6599377e-06 0)
(0.10315507 1.726493e-06 3.5440862e-18)
(0.10315497 1.777583e-06 -5.3666934e-18)
(0.10315489 1.8419078e-06 1.8052491e-18)
(0.10315481 1.8913752e-06 1.8356256e-18)
(0.10315475 1.9538888e-06 -1.8514191e-18)
(0.1031547 2.0025613e-06 -9.4091076e-19)
(0.10315466 2.0642404e-06 9.7138115e-19)
(0.10315464 2.1126444e-06 0)
(0.10315462 2.1740661e-06 -2.5068262e-19)
(0.10315461 2.2221935e-06 2.5312782e-19)
(0.10315461 2.2821285e-06 4.8743438e-19)
(0.10315461 2.3288072e-06 -1.5010764e-18)
(0.10315462 2.388926e-06 9.8980879e-19)
(0.10315465 2.4363445e-06 1.4982278e-20)
(0.10315468 2.4977435e-06 -1.9012446e-18)
(0.10315473 2.5463445e-06 1.8699521e-18)
(0.10315479 2.6096589e-06 0)
(0.10315486 2.65998e-06 -3.5873657e-18)
(0.10315494 2.7258656e-06 3.5256422e-18)
(0.10315504 2.778464e-06 0)
(0.10315514 2.8476603e-06 0)
(0.10315525 2.9031491e-06 -2.6082143e-20)
(0.10315536 2.9765097e-06 2.5584127e-20)
(0.10315549 3.0356378e-06 0)
(0.10315562 3.1142834e-06 0)
(0.10315576 3.1780145e-06 -2.4030751e-20)
(0.10315591 3.263329e-06 0)
(0.10315606 3.3329843e-06 0)
(0.10315621 3.4267333e-06 5.7191981e-18)
(0.10315637 3.5039866e-06 -5.5641217e-18)
(0.10315654 3.6086511e-06 0)
(0.10315671 3.6957001e-06 4.0883047e-20)
(0.10315688 3.8147716e-06 -3.9493921e-20)
(0.10315706 3.9147033e-06 -2.4719701e-18)
(0.10315724 4.0532345e-06 2.2619477e-18)
(0.10315742 4.1709562e-06 -6.9683632e-20)
(0.10315761 4.339097e-06 2.051891e-18)
(0.1031578 4.4119449e-06 -2.1236185e-18)
(0.10315799 4.7677799e-06 0)
(0.10319796 1.7974309e-07 -1.1285421e-19)
(0.10316969 -2.3317746e-08 2.0315818e-18)
(0.10316566 1.4430687e-07 -2.0874575e-18)
(0.10316476 2.3392345e-07 -6.872521e-20)
(0.10316441 3.4518893e-07 3.6057989e-20)
(0.10316418 4.3372652e-07 0)
(0.10316398 5.2619721e-07 3.922208e-20)
(0.10316379 6.043411e-07 0)
(0.10316361 6.8558145e-07 5.3431416e-18)
(0.10316344 7.5471524e-07 6.4373153e-27)
(0.10316327 8.2779419e-07 -5.737687e-18)
(0.1031631 8.9003648e-07 2.2927958e-20)
(0.10316295 9.5692259e-07 0)
(0.1031628 1.0127391e-06 0)
(0.10316265 1.0730021e-06 3.1490474e-18)
(0.10316251 1.1242955e-06 -3.2411236e-18)
(0.10316238 1.1810594e-06 0)
(0.10316226 1.2294133e-06 -1.3067098e-20)
(0.10316214 1.2835155e-06 0)
(0.10316203 1.3296223e-06 0)
(0.10316194 1.3816525e-06 0)
(0.10316185 1.426062e-06 -1.7963475e-18)
(0.10316177 1.4769305e-06 1.8411578e-18)
(0.1031617 1.5216582e-06 0)
(0.10316164 1.5730225e-06 -1.4751363e-20)
(0.1031616 1.6172801e-06 0)
(0.10316156 1.6679735e-06 -1.5235827e-20)
(0.10316154 1.711852e-06 -5.1087006e-19)
(0.10316152 1.7625088e-06 5.0329224e-19)
(0.10316151 1.8058794e-06 -1.5875864e-20)
(0.10316151 1.8546174e-06 5.3625856e-19)
(0.10316151 1.8961757e-06 -1.4901028e-18)
(0.10316153 1.9453178e-06 9.6223522e-19)
(0.10316155 1.987718e-06 -3.0054757e-20)
(0.10316159 2.0382281e-06 1.1413193e-26)
(0.10316163 2.0816923e-06 0)
(0.10316169 2.1338032e-06 0)
(0.10316175 2.1785806e-06 0)
(0.10316183 2.2327753e-06 1.3817203e-20)
(0.10316191 2.2794054e-06 -3.4752239e-18)
(0.10316201 2.3363524e-06 6.8388115e-18)
(0.10316211 2.3856693e-06 1.9114e-27)
(0.10316222 2.4462757e-06 -6.5704422e-18)
(0.10316233 2.4992494e-06 3.2447687e-18)
(0.10316246 2.5642922e-06 0)
(0.10316258 2.6220073e-06 0)
(0.10316272 2.6925596e-06 0)
(0.10316286 2.7561064e-06 5.8748193e-18)
(0.10316301 2.8337656e-06 -5.7426075e-18)
(0.10316316 2.9047293e-06 2.1713921e-20)
(0.10316331 2.9914311e-06 -4.2105114e-20)
(0.10316347 3.0720783e-06 -3.185329e-26)
(0.10316363 3.1704375e-06 3.0757429e-26)
(0.1031638 3.2640519e-06 -3.7696291e-20)
(0.10316397 3.3774377e-06 3.6052088e-20)
(0.10316414 3.4881221e-06 0)
(0.10316432 3.6224935e-06 5.1181197e-26)
(0.1031645 3.691974e-06 6.0923295e-20)
(0.10316468 3.985099e-06 0)
(0.10319825 -1.6317497e-07 9.311832e-19)
(0.10317546 7.9022686e-08 -9.6007374e-19)
(0.10317265 5.4867161e-08 0)
(0.10317206 1.710002e-07 6.766496e-20)
(0.10317179 2.3660151e-07 -3.564712e-20)
(0.1031716 3.0436201e-07 2.4292784e-18)
(0.10317142 3.7228116e-07 -2.5354206e-18)
(0.10317125 4.280106e-07 5.1902784e-18)
(0.10317108 4.883984e-07 3.3481947e-27)
(0.10317093 5.3799925e-07 -5.5537373e-18)
(0.10317077 5.9205543e-07 -5.6768623e-18)
(0.10317062 6.3704507e-07 5.8583556e-18)
(0.10317048 6.8630828e-07 0)
(0.10317034 7.3237179e-07 0)
(0.10317021 7.8566282e-07 3.1604259e-18)
(0.10317008 8.3188897e-07 -3.1905713e-18)
(0.10316997 8.8198183e-07 -1.2868682e-20)
(0.10316986 9.2532376e-07 2.989205e-27)
(0.10316975 9.7234622e-07 0)
(0.10316966 1.0132741e-06 1.3608605e-20)
(0.10316957 1.0580429e-06 -3.5451736e-18)
(0.10316949 1.0969857e-06 3.5920582e-18)
(0.10316942 1.1379985e-06 1.8334849e-18)
(0.10316936 1.1684976e-06 -1.8639383e-18)
(0.10316931 1.2010849e-06 0)
(0.10316927 1.2287766e-06 0)
(0.10316924 1.2610624e-06 -9.4764766e-19)
(0.10316922 1.2886161e-06 1.00945e-18)
(0.10316921 1.320845e-06 0)
(0.10316921 1.3482467e-06 1.5920635e-20)
(0.10316921 1.3800869e-06 -1.581034e-20)
(0.10316921 1.4066438e-06 1.5558658e-20)
(0.10316923 1.438353e-06 9.7982217e-19)
(0.10316926 1.4655073e-06 9.791269e-19)
(0.10316929 1.4982359e-06 1.481969e-20)
(0.10316934 1.5269472e-06 -1.8805406e-18)
(0.10316939 1.56227e-06 -1.8208386e-18)
(0.10316945 1.5937977e-06 -1.8044605e-18)
(0.10316953 1.6324166e-06 3.5335477e-18)
(0.10316961 1.6669351e-06 1.3615422e-20)
(0.1031697 1.7089314e-06 -2.6742729e-20)
(0.1031698 1.7456825e-06 1.3123694e-20)
(0.1031699 1.7906814e-06 -1.2871151e-20)
(0.10317002 1.8291691e-06 -2.5224812e-20)
(0.10317014 1.8781983e-06 -1.234604e-20)
(0.10317026 1.9184823e-06 -2.4141179e-20)
(0.10317039 1.972656e-06 0)
(0.10317053 2.0159484e-06 0)
(0.10317067 2.0758963e-06 -5.6987512e-18)
(0.10317082 2.1233283e-06 -4.3384842e-20)
(0.10317097 2.190589e-06 5.418496e-18)
(0.10317113 2.2433585e-06 -4.0545685e-20)
(0.10317129 2.3202231e-06 3.9002538e-20)
(0.10317145 2.3797334e-06 2.4288143e-18)
(0.10317162 2.4707289e-06 -2.3158832e-18)
(0.10317179 2.5342403e-06 -2.1620454e-18)
(0.10317197 2.6634057e-06 4.1362214e-18)
(0.10317215 2.6949798e-06 -8.9179952e-19)
(0.10317234 2.9401712e-06 -8.2471196e-19)
(0.10319341 -3.7251493e-07 -1.0640901e-19)
(0.1031761 1.61968e-07 5.8509619e-20)
(0.10317434 2.3356494e-07 3.1318844e-20)
(0.10317398 3.648599e-07 0)
(0.1031738 4.4527533e-07 0)
(0.10317366 5.0320132e-07 2.33529e-18)
(0.10317351 5.6014533e-07 -2.4630938e-18)
(0.10317338 5.8999732e-07 5.1926941e-18)
(0.10317325 6.2599031e-07 -5.3470946e-18)
(0.10317312 6.3978684e-07 5.5526079e-18)
(0.10317299 6.6228191e-07 -5.7717991e-18)
(0.10317288 6.6607666e-07 -5.8923545e-18)
(0.10317276 6.8010281e-07 3.0247156e-18)
(0.10317265 6.7762391e-07 6.211312e-18)
(0.10317254 6.863419e-07 -3.1712862e-18)
(0.10317245 6.8000789e-07 2.5733897e-26)
(0.10317235 6.8543364e-07 1.2917104e-20)
(0.10317226 6.7674497e-07 -3.3450815e-18)
(0.10317218 6.8019882e-07 6.8690364e-18)
(0.10317211 6.702831e-07 -3.5237602e-18)
(0.10317204 6.7271719e-07 0)
(0.10317198 6.6234149e-07 1.4133439e-20)
(0.10317193 6.6448466e-07 0)
(0.10317189 6.5426136e-07 7.3029083e-21)
(0.10317185 6.5664997e-07 -7.4216988e-21)
(0.10317183 6.4714308e-07 0)
(0.10317181 6.503884e-07 -2.2987892e-20)
(0.1031718 6.4210467e-07 0)
(0.1031718 6.4678682e-07 0)
(0.10317181 6.4049943e-07 0)
(0.10317182 6.4628297e-07 0)
(0.10317183 6.3880836e-07 0)
(0.10317186 6.4322064e-07 2.2997715e-20)
(0.10317189 6.344261e-07 7.5430601e-21)
(0.10317193 6.3830677e-07 0)
(0.10317198 6.286743e-07 2.1904323e-20)
(0.10317204 6.3268551e-07 -1.4363966e-20)
(0.10317211 6.2271802e-07 7.0628486e-21)
(0.10317219 6.2759539e-07 -6.9434696e-21)
(0.10317227 6.1787896e-07 -1.3646518e-20)
(0.10317236 6.2446069e-07 3.4446241e-18)
(0.10317246 6.1567124e-07 -6.7488238e-18)
(0.10317256 6.2530554e-07 1.2902247e-20)
(0.10317267 6.1581062e-07 3.2488935e-18)
(0.1031728 6.2866162e-07 1.2372085e-20)
(0.10317292 6.1752776e-07 2.4184027e-20)
(0.10317305 6.3744616e-07 0)
(0.10317318 6.3116943e-07 -5.873077e-18)
(0.10317333 6.6011412e-07 2.2342198e-20)
(0.10317347 6.6250606e-07 5.5888763e-18)
(0.10317362 7.0523921e-07 2.0943368e-20)
(0.10317378 7.2226482e-07 0)
(0.10317394 7.8689125e-07 -2.4797284e-18)
(0.1031741 8.2860959e-07 2.3882974e-18)
(0.10317428 9.2900905e-07 0)
(0.10317445 1.009013e-06 3.3261736e-20)
(0.10317463 1.1713199e-06 -2.0280612e-18)
(0.10317481 1.2335343e-06 1.798963e-18)
(0.10317502 1.4942662e-06 -1.0681013e-19)
(0.10316755 -8.6109089e-09 5.1712189e-20)
(0.10315574 -1.6548375e-07 1.7696061e-18)
(0.10315475 2.6087149e-08 -1.9963539e-18)
(0.1031545 -1.41938e-08 2.101147e-18)
(0.10315432 8.2857885e-08 -4.462002e-18)
(0.10315416 8.6403162e-08 4.7075479e-18)
(0.103154 1.4698063e-07 -2.4597522e-18)
(0.10315385 1.5265499e-07 5.136109e-18)
(0.1031537 2.0776561e-07 -1.0470058e-20)
(0.10315356 2.1369263e-07 -5.5420304e-18)
(0.10315342 2.6653108e-07 -5.711427e-18)
(0.10315329 2.7329849e-07 5.9102286e-18)
(0.10315316 3.2437015e-07 0)
(0.10315304 3.3192149e-07 -1.2145897e-20)
(0.10315293 3.8148104e-07 6.2150802e-21)
(0.10315282 3.8932975e-07 -1.2702033e-20)
(0.10315272 4.3707449e-07 -3.3121014e-18)
(0.10315262 4.4516039e-07 3.3699599e-18)
(0.10315253 4.9118098e-07 -6.7303241e-21)
(0.10315245 4.990497e-07 3.5210316e-18)
(0.10315238 5.4302265e-07 -7.1354563e-18)
(0.10315231 5.5043162e-07 5.4412829e-18)
(0.10315226 5.9220694e-07 -1.8435328e-18)
(0.1031522 5.9883735e-07 -3.6588802e-21)
(0.10315216 6.3840694e-07 -1.8958945e-18)
(0.10315213 6.4370864e-07 1.9373978e-18)
(0.1031521 6.8064812e-07 7.673099e-21)
(0.10315209 6.8422428e-07 0)
(0.10315208 7.1838229e-07 0)
(0.10315208 7.2014991e-07 0)
(0.10315208 7.5545785e-07 0)
(0.10315209 7.6049986e-07 -9.9854951e-19)
(0.10315211 7.9787603e-07 9.7499374e-19)
(0.10315213 8.0286322e-07 -1.9378833e-18)
(0.10315217 8.4102877e-07 1.899601e-18)
(0.10315221 8.4566652e-07 -3.6579787e-21)
(0.10315227 8.8438342e-07 0)
(0.10315232 8.8818374e-07 3.6250696e-18)
(0.10315239 9.2721781e-07 -3.5576852e-18)
(0.10315247 9.2961713e-07 0)
(0.10315255 9.686813e-07 -3.4486048e-18)
(0.10315264 9.6951351e-07 3.3853501e-18)
(0.10315273 1.0081925e-06 -3.3074162e-18)
(0.10315283 1.0186259e-06 3.2278243e-18)
(0.10315295 1.0631845e-06 -3.1771656e-18)
(0.10315306 1.0901079e-06 3.1043609e-18)