/*--------------------------------*- C++ -*----------------------------------*\
| =========                 |                                                 |
| \\      /  F ield         | OpenFOAM: The Open Source CFD Toolbox           |
|  \\    /   O peration     | Version:  v2006                                 |
|   \\  /    A nd           | Website:  www.openfoam.com                      |
|    \\/     M anipulation  |                                                 |
\*---------------------------------------------------------------------------*/
FoamFile
{
    version     2.0;
    format      ascii;
    class       volVectorField;
    location    "10000";
    object      wallShearStress;
}
// * * * * * * * * * * * * * * * * * * * * * * * * * * * * * * * * * * * * * //

dimensions      [1 -1 -2 0 0 0 0];


internalField   uniform (0 0 0);

boundaryField
{
    Side
    {
        type            empty;
    }
    Ground
    {
        type            calculated;
        value           uniform (0 0 0);
    }
    Inlet
    {
        type            calculated;
        value           uniform (0 0 0);
    }
    Airfoil
    {
        type            calculated;
        value           nonuniform List<vector> 
527
(
(1.2155112e-06 -2.9675192e-07 -2.2001373e-20)
(6.1726041e-06 2.0994922e-06 3.0299524e-20)
(7.3472975e-06 1.8218619e-06 1.6365955e-20)
(6.5933928e-06 1.8050276e-06 -1.7357277e-20)
(6.9153276e-06 1.9592197e-06 -1.805528e-20)
(6.6061457e-06 1.8443727e-06 1.8713852e-20)
(6.0898607e-06 1.669153e-06 9.4318465e-24)
(5.6286656e-06 1.5359779e-06 -9.7372484e-24)
(5.3480021e-06 1.453079e-06 -8.8340085e-28)
(5.1898455e-06 1.4014332e-06 -8.0769319e-38)
(5.0722807e-06 1.3398035e-06 0)
(4.9706779e-06 1.2929026e-06 1.0793683e-20)
(4.9403438e-06 1.2625474e-06 -1.0952893e-20)
(4.9167235e-06 1.2376607e-06 -1.1126227e-20)
(4.9371978e-06 1.2317068e-06 1.1269156e-20)
(4.9614984e-06 1.2199853e-06 5.8774718e-39)
(4.9908401e-06 1.217024e-06 1.1754944e-38)
(5.0165429e-06 1.2047804e-06 -1.1623106e-20)
(5.0443358e-06 1.2002598e-06 -2.2996374e-23)
(5.052904e-06 1.1812467e-06 1.1898625e-20)
(5.077576e-06 1.1770044e-06 1.200147e-20)
(5.0721786e-06 1.1490387e-06 -1.211954e-20)
(5.0840619e-06 1.1451486e-06 -1.225069e-20)
(5.0897904e-06 1.1187916e-06 -2.4237571e-23)
(5.0823702e-06 1.1094406e-06 1.8249165e-27)
(5.1000713e-06 1.0945355e-06 -2.4697056e-23)
(5.0799212e-06 1.0762169e-06 2.4921166e-23)
(5.0933007e-06 1.0696485e-06 1.2862063e-20)
(5.0785642e-06 1.0448295e-06 5.0868125e-23)
(5.0704483e-06 1.0356224e-06 1.3108617e-20)
(5.0786839e-06 1.0203366e-06 -1.3242759e-20)
(5.0463391e-06 9.9763422e-07 -1.3362428e-20)
(5.0443045e-06 9.8698969e-07 -1.3503043e-20)
(5.0219309e-06 9.5693618e-07 -1.360704e-20)
(4.9831741e-06 9.3405292e-07 -1.3711204e-20)
(4.9953673e-06 9.2297505e-07 5.4085012e-23)
(4.9580273e-06 8.8087133e-07 -1.4034275e-27)
(4.9130034e-06 8.5745754e-07 1.4009674e-20)
(4.9106748e-06 8.4192096e-07 -5.8774718e-39)
(4.8615272e-06 7.9586359e-07 -7.1026331e-21)
(4.8202009e-06 7.7053049e-07 -5.6303025e-23)
(4.8019974e-06 7.5093586e-07 7.2544293e-21)
(4.7457276e-06 7.0849874e-07 7.2746404e-21)
(4.6937399e-06 6.7770006e-07 1.1530508e-22)
(4.6527653e-06 6.5275058e-07 7.3681418e-21)
(4.6026996e-06 6.1416552e-07 6.2595074e-37)
(4.5345313e-06 5.7393032e-07 5.8990464e-23)
(4.4818547e-06 5.4275093e-07 -7.5965782e-21)
(4.4098309e-06 5.0493321e-07 -7.7929556e-21)
(4.3043562e-06 4.4188374e-07 -7.6623034e-21)
(4.2562713e-06 4.0114053e-07 -5.8774718e-39)
(4.1524972e-06 3.5854436e-07 1.1375405e-39)
(4.0448749e-06 2.9408715e-07 2.0662987e-39)
(3.9031282e-06 2.3502895e-07 -6.1998346e-23)
(3.8521745e-06 1.8191089e-07 8.145289e-21)
(3.6690398e-06 1.2735119e-07 -8.0620929e-21)
(3.4474017e-06 3.9942207e-08 -6.340597e-23)
(3.3646534e-06 -2.1861403e-08 -1.793662e-43)
(3.2257099e-06 -8.5237786e-08 -6.4317045e-23)
(2.9766257e-06 -1.5054031e-07 8.3598927e-21)
(2.7145629e-06 -2.3411246e-07 -6.5352242e-23)
(2.5905235e-06 -2.9461242e-07 6.5673498e-23)
(2.3731262e-06 -3.6948886e-07 5.2461027e-39)
(2.0417976e-06 -4.6409714e-07 6.7728678e-40)
(1.7328909e-06 -5.6221421e-07 6.704984e-23)
(1.5384455e-06 -6.4278156e-07 -6.7753005e-23)
(1.2415326e-06 -7.3191408e-07 -6.8086186e-23)
(7.3999514e-07 -8.3123114e-07 8.8424067e-21)
(3.2499077e-07 -9.4358241e-07 1.0579449e-37)
(3.8473874e-08 -1.0604369e-06 -1.5428363e-38)
(-3.3521068e-07 -1.2023599e-06 -4.4162775e-21)
(-1.1177841e-06 -1.3321547e-06 -7.1201968e-27)
(-1.7792391e-06 -1.4687485e-06 -7.2686633e-27)
(-2.1233724e-06 -1.5994004e-06 -9.2012305e-21)
(-2.4896194e-06 -1.7649582e-06 -7.153794e-23)
(-3.5750615e-06 -1.8730212e-06 1.4333401e-22)
(-4.6096606e-06 -1.9741969e-06 -4.7613744e-21)
(-4.9092326e-06 -2.1187098e-06 -4.4846943e-21)
(-5.4132739e-06 -2.2762202e-06 -9.0100767e-27)
(-6.2914634e-06 -2.4085907e-06 -1.4605941e-22)
(-7.5096889e-06 -2.4858547e-06 7.311486e-23)
(-8.1860295e-06 -2.6057084e-06 7.3724948e-23)
(-8.662533e-06 -2.7570095e-06 4.6576448e-21)
(-9.2012642e-06 -2.9474629e-06 9.5065941e-21)
(-1.0557371e-05 -3.0195503e-06 -4.7707798e-21)
(-1.1723865e-05 -3.0729256e-06 8.4650986e-27)
(-1.2072088e-05 -3.2501461e-06 3.7618238e-23)
(-1.2710836e-05 -3.4176227e-06 -3.7785113e-23)
(-1.3620675e-05 -3.5720826e-06 4.8456378e-21)
(-1.5074443e-05 -3.6115242e-06 -4.8743148e-21)
(-1.6031045e-05 -3.6916114e-06 -3.8169603e-23)
(-1.6501428e-05 -3.8748116e-06 -4.87482e-21)
(-1.7139254e-05 -4.0798135e-06 4.9423078e-21)
(-1.845321e-05 -4.1804128e-06 -2.0571151e-38)
(-2.0101419e-05 -4.14803e-06 -4.9327274e-21)
(-2.0865149e-05 -4.245716e-06 9.9033205e-21)
(-2.133248e-05 -4.4349769e-06 -4.9719926e-21)
(-2.1942485e-05 -4.6664893e-06 3.9449395e-23)
(-2.3574545e-05 -4.7061127e-06 -5.0877834e-21)
(-2.5432075e-05 -4.5848692e-06 -1.8073226e-37)
(-2.6052277e-05 -4.6895215e-06 2.5481495e-21)
(-2.6464587e-05 -4.8816147e-06 2.5970531e-21)
(-2.7047357e-05 -5.1131569e-06 2.5767996e-21)
(-2.8685489e-05 -5.1361572e-06 2.5389358e-21)
(-3.0659994e-05 -4.9572026e-06 -2.5423434e-21)
(-3.133235e-05 -5.0275746e-06 -1.1015547e-26)
(-3.1648249e-05 -5.2247488e-06 2.5721515e-21)
(-3.2206631e-05 -5.4378836e-06 -2.5713939e-39)
(-3.3567613e-05 -5.5121741e-06 -1.0394917e-37)
(-3.5698364e-05 -5.2996599e-06 -1.9358923e-37)
(-3.6684295e-05 -5.2659641e-06 -2.6562209e-21)
(-3.6853036e-05 -5.4781143e-06 2.6710519e-21)
(-3.7374924e-05 -5.6581499e-06 -2.6816624e-21)
(-3.8187136e-05 -5.8571551e-06 4.22217e-23)
(-4.0504756e-05 -5.6391805e-06 -5.7003393e-27)
(-4.2040713e-05 -5.4331236e-06 -2.7522488e-21)
(-4.2006626e-05 -5.6804644e-06 5.4645744e-21)
(-4.2511528e-05 -5.8288695e-06 2.7012215e-21)
(-4.3099624e-05 -6.0392274e-06 4.3123176e-23)
(-4.4830543e-05 -5.9805404e-06 4.3273033e-23)
(-4.6671711e-05 -5.7532686e-06 -8.6689689e-23)
(-4.72071e-05 -5.8404845e-06 -2.7487805e-21)
(-4.7556115e-05 -6.0094735e-06 -6.1346111e-38)
(-4.8111885e-05 -6.1777923e-06 -5.643237e-21)
(-4.8949764e-05 -6.3582947e-06 2.7964009e-21)
(-5.110533e-05 -6.1676933e-06 8.888749e-23)
(-5.2560343e-05 -5.9931454e-06 -4.4576953e-23)
(-5.2603099e-05 -6.2346988e-06 2.8774403e-21)
(-5.312957e-05 -6.388434e-06 -4.5187506e-23)
(-5.3728755e-05 -6.6117522e-06 9.0736967e-23)
(-5.5323945e-05 -6.6424859e-06 -2.9664336e-21)
(-5.7940541e-05 -6.2763631e-06 1.4603328e-21)
(-5.9070823e-05 -6.1600179e-06 1.4192452e-21)
(-5.8948162e-05 -6.4210265e-06 1.5251269e-21)
(-5.9309925e-05 -6.6127512e-06 1.5329036e-21)
(-5.981723e-05 -6.9010945e-06 1.4461706e-21)
(-6.2395358e-05 -6.7129515e-06 1.49802e-21)
(-6.5757722e-05 -6.0494047e-06 -4.6766662e-23)
(-6.6464307e-05 -5.9658552e-06 4.691803e-23)
(-6.5949001e-05 -6.2506312e-06 -4.7383734e-23)
(-6.6025564e-05 -6.450711e-06 1.525549e-21)
(-6.6320588e-05 -6.7415866e-06 9.5812941e-23)
(-6.9210072e-05 -6.4426374e-06 1.5362059e-21)
(-7.2935304e-05 -5.6023117e-06 -1.582974e-21)
(-7.3477316e-05 -5.4850936e-06 1.5399021e-21)
(-7.2632947e-05 -5.7677821e-06 -8.6095778e-42)
(-7.2540812e-05 -5.9017225e-06 1.5659686e-21)
(-7.2620374e-05 -6.091424e-06 -4.077496e-38)
(-7.4199258e-05 -5.9894016e-06 -1.5312e-21)
(-7.6876226e-05 -5.4524862e-06 -4.9519718e-23)
(-7.7655228e-05 -5.2886327e-06 4.9696635e-23)
(-7.6986218e-05 -5.5176811e-06 -4.9575552e-27)
(-7.6990715e-05 -5.5923983e-06 -5.0506189e-23)
(-7.7078862e-05 -5.6983546e-06 1.2782353e-38)
(-7.7466581e-05 -5.7750891e-06 2.5522605e-23)
(-7.8628574e-05 -5.6530237e-06 -2.5681683e-23)
(-7.9315455e-05 -5.5959231e-06 -8.0033513e-22)
(-7.9123135e-05 -5.765944e-06 -2.5969358e-23)
(-7.9241762e-05 -5.8798348e-06 8.3654406e-22)
(-7.9272803e-05 -6.0712217e-06 1.2856969e-39)
(-7.9471004e-05 -6.3032242e-06 -8.7446273e-22)
(-8.2219571e-05 -5.9466276e-06 8.7405232e-22)
(-8.4536948e-05 -5.4264236e-06 -1.6768013e-21)
(-8.3914183e-05 -5.6564959e-06 -5.3541125e-23)
(-8.2961308e-05 -5.9551664e-06 -8.3632049e-22)
(-8.2272949e-05 -6.3025015e-06 -8.4295899e-22)
(-8.1832165e-05 -6.8073047e-06 8.7871621e-22)
(-8.5316226e-05 -6.8726958e-06 8.4756458e-22)
(-9.8033559e-05 -4.5431025e-06 -2.6795764e-23)
(-0.00010254457 -2.5422004e-06 -4.0083403e-22)
(-9.5061701e-05 -3.9377333e-06 2.7146814e-23)
(-9.2532686e-05 -4.1937308e-06 -2.7532247e-23)
(-9.0287953e-05 -4.8053606e-06 2.7847156e-23)
(-8.9778574e-05 -5.5937883e-06 -2.7982055e-23)
(-0.0001016494 -4.1949758e-06 4.3773618e-22)
(-0.00011983874 7.644652e-07 1.1364643e-39)
(-0.00012092464 2.5427345e-06 -2.3840557e-22)
(-0.00010976343 6.1966715e-07 -8.1024452e-23)
(-0.00010469649 1.7529137e-07 -4.6348227e-40)
(-0.00010044921 -6.3942403e-07 0)
(-9.8852572e-05 -1.6632191e-06 2.0663679e-46)
(-0.00011706466 1.2852874e-06 1.9907473e-28)
(-0.00013579877 7.8726038e-06 -9.8773325e-41)
(-0.0001321377 8.6261634e-06 1.6071212e-38)
(-0.00012023519 6.6150684e-06 -8.6331371e-22)
(-0.00011434867 5.9199788e-06 -9.3672206e-39)
(-0.00010875541 4.9859513e-06 8.9944573e-22)
(-0.000106218 4.2372987e-06 -3.4897489e-39)
(-0.00012001003 6.9354289e-06 2.7403201e-23)
(-0.00013573654 1.2409513e-05 -2.675926e-23)
(-0.0001329398 1.3283e-05 -8.8239456e-22)
(-0.00012116602 1.1041258e-05 5.4811912e-23)
(-0.00011523172 1.0215676e-05 -2.8053894e-23)
(-0.00010996004 9.1812602e-06 9.4423395e-22)
(-0.00010756849 8.4869619e-06 9.2248013e-22)
(-0.0001193424 9.9383768e-06 -2.7728005e-23)
(-0.00014631547 1.8289543e-05 -8.106355e-22)
(-0.0001500581 2.2594774e-05 1.6645905e-26)
(-0.00013076663 1.8280583e-05 -2.6822642e-23)
(-0.00012323775 1.7275441e-05 -2.9387359e-39)
(-0.00011668174 1.6033847e-05 1.8453396e-21)
(-0.00011161429 1.5016648e-05 -2.8942488e-23)
(-0.00011254314 1.513326e-05 -1.8296585e-21)
(-0.0001344974 2.0746373e-05 -1.3467678e-23)
(-0.00014422286 2.6501585e-05 1.3390192e-23)
(-0.00013244488 2.4314106e-05 2.5025173e-39)
(-0.00012300139 2.2388422e-05 0)
(-0.0001162991 2.1050326e-05 7.3468397e-40)
(-0.0001111038 1.9946038e-05 -1.8733551e-21)
(-0.00010742413 1.9267386e-05 4.5051051e-38)
(-0.00011077287 2.0305403e-05 -1.8484091e-21)
(-0.00012835539 2.5199175e-05 1.7708153e-21)
(-0.00013230807 2.8479612e-05 1.7535915e-21)
(-0.00011702715 2.4645546e-05 0)
(-0.00011130325 2.3584156e-05 4.8022038e-27)
(-0.0001058145 2.2315803e-05 1.9395899e-21)
(-0.00010202908 2.1485476e-05 1.9606626e-21)
(-0.0001007104 2.1340088e-05 -1.535919e-23)
(-0.00010604209 2.3076179e-05 -1.9201434e-21)
(-0.00012558019 2.8653416e-05 1.8055683e-21)
(-0.00012968372 3.2191791e-05 0)
(-0.0001133597 2.7875791e-05 1.8453187e-21)
(-0.00010766045 2.6682363e-05 1.5022671e-23)
(-0.00010200611 2.5251667e-05 4.0549367e-27)
(-9.8060305e-05 2.4273481e-05 1.571246e-23)
(-9.5521246e-05 2.3810946e-05 2.0189513e-21)
(-9.784337e-05 2.4904034e-05 -1.4693679e-39)
(-0.00011079626 2.8701795e-05 -1.4831352e-23)
(-0.00011612525 3.1817103e-05 1.48456e-23)
(-0.0001080902 3.0216243e-05 -1.9140894e-21)
(-0.00010118199 2.8343871e-05 -1.55358e-23)
(-9.6214563e-05 2.699131e-05 1.5942738e-23)
(-9.223306e-05 2.5880888e-05 2.0681744e-21)
(-8.9362436e-05 2.510919e-05 -4.7019774e-38)
(-8.8847078e-05 2.5276024e-05 2.6835413e-44)
(-9.2790915e-05 2.6922939e-05 7.6468297e-40)
(-0.00010337419 3.0175059e-05 0)
(-0.00010494631 3.1935056e-05 -2.0019716e-21)
(-9.4113404e-05 2.8835983e-05 -2.6686638e-27)
(-9.0058797e-05 2.7733882e-05 -2.7536826e-27)
(-8.5999479e-05 2.6541956e-05 3.3929219e-23)
(-8.3198408e-05 2.5732889e-05 -3.4561637e-23)
(-8.1664009e-05 2.5434079e-05 1.7454474e-23)
(-8.2620334e-05 2.605234e-05 -4.4192525e-21)
(-8.7452126e-05 2.8134499e-05 2.1377941e-21)
(-9.9391468e-05 3.1470441e-05 6.6121557e-39)
(-0.00010145851 3.3862975e-05 2.0300606e-21)
(-8.9795793e-05 3.0390783e-05 2.9387359e-39)
(-8.5862704e-05 2.9227443e-05 4.3872471e-21)
(-8.1731833e-05 2.7900552e-05 0)
(-7.8701584e-05 2.6929226e-05 0)
(-7.6372441e-05 2.6229085e-05 -1.1677191e-21)
(-7.5263418e-05 2.604689e-05 1.1764673e-21)
(-7.6392468e-05 2.6775944e-05 -2.9387359e-39)
(-8.1057805e-05 2.8409634e-05 8.8254469e-24)
(-8.3901648e-05 2.9793382e-05 1.1228464e-21)
(-8.1765852e-05 2.9606052e-05 1.1378733e-21)
(-7.6891869e-05 2.8018401e-05 0)
(-7.4087002e-05 2.7065951e-05 -1.1955086e-21)
(-7.1487378e-05 2.6172674e-05 -2.9387359e-38)
(-6.9485531e-05 2.5497164e-05 -2.9387359e-39)
(-6.8069514e-05 2.509059e-05 1.2551533e-21)
(-6.7782928e-05 2.5195679e-05 -9.8075211e-24)
(-6.88723e-05 2.5858585e-05 1.2592073e-21)
(-7.2410988e-05 2.7149429e-05 -1.8904582e-23)
(-7.4642604e-05 2.8188063e-05 9.4661746e-24)
(-7.3159792e-05 2.8055993e-05 -4.7612695e-24)
(-6.9221466e-05 2.673627e-05 1.2602139e-21)
(-6.7108265e-05 2.5987972e-05 6.8634457e-28)
(-6.5199853e-05 2.531322e-05 -5.068178e-24)
(-6.388352e-05 2.4899428e-05 -1.3145287e-21)
(-6.3351954e-05 2.4865956e-05 2.6430739e-21)
(-6.3787462e-05 2.5245264e-05 -1.1754944e-38)
(-6.5073929e-05 2.6026687e-05 -1.1754944e-38)
(-6.8129984e-05 2.7598245e-05 2.5054528e-21)
(-7.4163331e-05 2.9702105e-05 4.6883564e-24)
(-7.5965196e-05 3.0748242e-05 1.2019408e-21)
(-6.9927405e-05 2.8897542e-05 4.9025424e-24)
(-6.7289575e-05 2.7937312e-05 5.8774718e-39)
(-6.4756021e-05 2.6975789e-05 -1.3198206e-21)
(-6.2766257e-05 2.6212388e-05 2.0926864e-28)
(-6.1098211e-05 2.5579772e-05 -2.6762568e-24)
(-5.9822318e-05 2.5116371e-05 -5.7397185e-41)
(-5.8981004e-05 2.4889593e-05 2.4072379e-38)
(-5.8928144e-05 2.5054641e-05 0)
(-5.9487333e-05 2.5484176e-05 2.1319156e-27)
(-6.1178611e-05 2.6200412e-05 4.800288e-41)
(-6.2357209e-05 2.6686991e-05 2.9387359e-39)
(-6.1676876e-05 2.6594635e-05 -6.8902812e-22)
(-5.9119702e-05 2.567461e-05 7.029118e-22)
(-5.7801281e-05 2.5153661e-05 1.3982433e-24)
(-5.6490743e-05 2.4639697e-05 7.279405e-22)
(-5.5488267e-05 2.4255272e-05 -1.4361737e-24)
(-5.4737769e-05 2.4001025e-05 -7.4299691e-22)
(-5.4354877e-05 2.3956592e-05 -3.5296614e-29)
(-5.4413055e-05 2.4127719e-05 -1.4875642e-21)
(-5.4816846e-05 2.4462349e-05 7.393166e-22)
(-5.5666187e-05 2.5024073e-05 -2.9387359e-39)
(-5.7308955e-05 2.591656e-05 -1.7115293e-25)
(-5.976681e-05 2.6835519e-05 1.7100112e-25)
(-6.0459023e-05 2.7046759e-05 -8.8162076e-39)
(-5.6949471e-05 2.588064e-05 7.2783431e-22)
(-5.5832165e-05 2.5449624e-05 -7.4216193e-22)
(-5.4488054e-05 2.4910292e-05 3.6801666e-25)
(-5.3526928e-05 2.4522654e-05 0)
(-5.2752226e-05 2.4223262e-05 7.5327463e-25)
(-5.2195589e-05 2.406816e-05 2.932784e-29)
(-5.1995108e-05 2.4117651e-05 -7.6055629e-25)
(-5.2086375e-05 2.4292657e-05 7.7670926e-22)
(-5.2446067e-05 2.4584452e-05 -7.7158936e-22)
(-5.3098502e-05 2.5023823e-05 1.5285593e-21)
(-5.4149057e-05 2.5676664e-05 -1.4680121e-24)
(-5.5854407e-05 2.6503405e-05 1.4390327e-24)
(-5.7567042e-05 2.7173824e-05 -3.6549463e-22)
(-5.7895158e-05 2.7327043e-05 5.8774718e-39)
(-5.5584619e-05 2.6535519e-05 7.4897478e-22)
(-5.4807925e-05 2.6254407e-05 1.4863793e-24)
(-5.3974992e-05 2.5952821e-05 -3.8616644e-22)
(-5.345831e-05 2.5851181e-05 1.513596e-24)
(-5.3271889e-05 2.5935001e-05 3.8794224e-22)
(-5.333544e-05 2.6096644e-05 -3.8850331e-22)
(-5.3579703e-05 2.6331844e-05 1.5039631e-24)
(-5.4019637e-05 2.6662003e-05 1.4920039e-24)
(-5.4666451e-05 2.7093824e-05 -1.4761597e-24)
(-5.5533738e-05 2.7645885e-05 2.8870784e-39)
(-5.6641458e-05 2.8332982e-05 0)
(-5.8010335e-05 2.9177631e-05 -2.5242828e-27)
(-5.9729093e-05 3.0208638e-05 -3.5176587e-22)
(-6.1940211e-05 3.1368031e-05 1.3308807e-24)
(-6.4186611e-05 3.2479085e-05 3.340543e-22)
(-6.556944e-05 3.3568972e-05 0)
(-6.6640385e-05 3.4667801e-05 -1.2711746e-24)
(-6.8330232e-05 3.5818482e-05 -3.1714108e-22)
(-7.0240763e-05 3.7085995e-05 1.540752e-22)
(-7.2450538e-05 3.8502845e-05 2.3609707e-24)
(-7.4920051e-05 4.0063945e-05 -2.2922653e-24)
(-7.7645927e-05 4.1769481e-05 1.1106478e-24)
(-8.0616951e-05 4.3615403e-05 0)
(-8.3822386e-05 4.5597372e-05 2.6631122e-22)
(-8.7249588e-05 4.771197e-05 -2.5705237e-22)
(-9.0887413e-05 4.9956131e-05 1.2373478e-22)
(-9.473109e-05 5.23273e-05 -1.1975635e-22)
(-9.8766722e-05 5.4771423e-05 4.4914664e-25)
(-0.00010299734 5.7145323e-05 1.1087047e-22)
(-0.00010734949 5.9445795e-05 2.1385031e-22)
(-0.00011185675 6.1653275e-05 2.0223091e-25)
(-0.00011626813 6.3498087e-05 -8.5105008e-27)
(-0.00011871262 6.504369e-05 -9.7693883e-23)
(-0.00012047784 6.7727907e-05 4.6632722e-26)
(-2.8886775e-05 -2.9898483e-06 0)
(-2.7050828e-05 -2.5226863e-06 -3.0948969e-24)
(-2.791652e-05 -2.4048846e-06 3.0969156e-24)
(-2.7409673e-05 -1.9620904e-06 -6.3459599e-21)
(-2.6253209e-05 -1.6039458e-06 3.8864782e-37)
(-2.5663527e-05 -1.3279474e-06 -3.105323e-24)
(-2.4369787e-05 -1.0055712e-06 -6.3628195e-21)
(-2.3397803e-05 -8.7705941e-07 3.1832393e-21)
(-2.3413202e-05 -8.5496643e-07 3.1910371e-21)
(-2.338791e-05 -8.2750385e-07 -3.1887213e-21)
(-2.3350983e-05 -8.0769775e-07 -3.1147634e-24)
(-2.3353614e-05 -8.0124586e-07 -3.1899395e-21)
(-2.3532017e-05 -8.1925558e-07 1.5575239e-24)
(-2.3827054e-05 -8.2987188e-07 3.1914561e-21)
(-2.3992236e-05 -8.1155786e-07 3.1899158e-21)
(-2.4186953e-05 -7.8111464e-07 -6.3801284e-21)
(-2.4107159e-05 -6.8609534e-07 -7.5352864e-30)
(-2.3747433e-05 -5.948581e-07 -3.1910509e-21)
(-2.3584907e-05 -5.3087074e-07 3.1917566e-21)
(-2.348221e-05 -4.5998608e-07 -3.192242e-21)
(-2.3184921e-05 -3.7752764e-07 -1.5964253e-21)
(-2.2932311e-05 -3.3075588e-07 -1.5968002e-21)
(-2.295098e-05 -2.8998154e-07 3.194765e-21)
(-2.2795327e-05 -2.2462158e-07 -1.5597181e-24)
(-2.2586483e-05 -1.8754819e-07 -7.9753592e-22)
(-2.2720943e-05 -1.5345508e-07 -7.9914698e-22)
(-2.2558785e-05 -6.9735853e-08 3.9939636e-22)
(-2.2172921e-05 -1.4003692e-08 -9.9871372e-23)
(-2.2145193e-05 3.3646311e-08 -2.5111268e-42)
(-2.1839742e-05 1.1018645e-07 7.9918741e-22)
(-2.1479649e-05 1.4292774e-07 -1.5987684e-21)
(-2.1519879e-05 1.74699e-07 -7.9947083e-22)
(-2.1392507e-05 2.3131338e-07 -1.5990252e-21)
(-2.1099481e-05 2.7168799e-07 -1.0372245e-37)
(-2.1095861e-05 3.1417917e-07 -2.2958874e-41)
(-2.0773188e-05 3.9247607e-07 1.5988301e-21)
(-2.0271088e-05 4.2479745e-07 -3.2001422e-21)
(-2.0135798e-05 4.6089746e-07 3.2015286e-21)
(-1.9862845e-05 5.043811e-07 -3.2011898e-21)
(-1.954226e-05 5.2853865e-07 -3.2018384e-21)
(-1.9420393e-05 5.5865112e-07 -3.0430597e-37)
(-1.9184166e-05 6.0876502e-07 -3.2011352e-21)
(-1.8701803e-05 6.502214e-07 -3.2034576e-21)
(-1.8228477e-05 6.8063706e-07 -3.20599e-21)
(-1.7816196e-05 7.2599556e-07 1.5651876e-24)
(-1.7006161e-05 7.6618792e-07 -3.1314315e-24)
(-1.6073043e-05 7.6100778e-07 -1.2832081e-20)
(-1.5279011e-05 7.5278211e-07 -6.4203656e-21)
(-1.4341767e-05 7.0626514e-07 -7.1746481e-42)
(-1.3645538e-05 6.3278836e-07 -6.4311234e-21)
(-1.3148261e-05 5.5422684e-07 -2.6775375e-28)
(-1.2771553e-05 4.6400534e-07 3.2199569e-21)
(-1.2337663e-05 3.4556848e-07 -3.2179543e-21)
(-1.2414374e-05 1.9285632e-07 -3.2185122e-21)
(-1.2911819e-05 5.8090921e-08 3.1430392e-24)
(-1.3302724e-05 -1.1573408e-07 -6.2855625e-24)
(-1.3873672e-05 -3.1805649e-07 3.1422184e-24)
(-1.474635e-05 -5.6079947e-07 3.2134855e-21)
(-1.5909e-05 -8.4784545e-07 3.1399634e-24)
(-1.7186688e-05 -1.1778828e-06 -6.4307062e-21)
(-1.8625675e-05 -1.5512968e-06 3.1368576e-24)
(-2.0282485e-05 -1.9757686e-06 -1.2843323e-20)
(-2.2119919e-05 -2.468313e-06 3.1325691e-24)
(-2.468617e-05 -3.0760696e-06 1.2811858e-20)
(-2.7211654e-05 -3.8525227e-06 -1.2796195e-20)
(-3.4445107e-05 -4.7380267e-06 6.241037e-24)
(-2.9671854e-05 -5.1995069e-06 1.2723036e-20)
(-7.1438383e-05 -1.1770288e-05 1.2416159e-37)
(-6.5348576e-05 8.2770778e-06 6.0526608e-21)
(-0.00013112065 -9.3236359e-05 -9.0134675e-22)
(-0.00010496568 -6.9172144e-05 3.1521297e-23)
(-9.6743778e-05 -6.0884861e-05 -3.0901619e-27)
(-0.00010612524 -6.3166161e-05 -3.7090527e-21)
(-0.00015560659 -9.5255402e-05 1.5167406e-21)
(-0.00016347072 -7.443687e-05 -1.4711869e-21)
(-8.0156253e-05 -1.7585787e-05 -2.9387359e-39)
(-3.7124645e-05 -5.7464866e-06 4.090199e-21)
(-3.7459108e-05 -5.2377063e-06 4.3346354e-38)
(-9.2788984e-06 1.7866669e-06 3.7178122e-21)
(5.6609745e-07 3.0934805e-06 1.5540287e-26)
(-2.2074081e-06 1.4497222e-06 1.0299972e-26)
(-4.3816891e-06 9.7181194e-07 -2.131819e-23)
(-1.2291563e-05 -9.2318653e-07 -4.8527534e-21)
(-1.8622513e-05 -2.351939e-06 -4.3860916e-21)
(-2.0330382e-05 -2.5803002e-06 -3.9997961e-21)
(-2.1532048e-05 -2.759109e-06 -1.4400895e-23)
(-2.711213e-05 -3.8947144e-06 -6.6158773e-24)
(-2.7088625e-05 -3.3711695e-06 -6.1431725e-21)
(-2.4513574e-05 -2.8551389e-06 5.6346197e-24)
(-2.8318265e-05 -3.5282558e-06 5.4630692e-21)
(-2.7713174e-06 -1.9676431e-05 5.357834e-22)
(-3.3937387e-06 -2.385405e-05 1.8367099e-40)
(-4.7217931e-06 -3.1774541e-05 1.0052808e-21)
(-7.0192825e-06 -4.2037643e-05 -9.5571081e-22)
(-1.0285262e-05 -4.4424675e-05 -9.1168485e-22)
(-1.1094953e-05 -4.776625e-05 8.7578095e-22)
(-1.3644058e-05 -5.7090848e-05 0)
(-1.6695826e-05 -6.7756262e-05 2.3796367e-23)
(-2.3828602e-05 -9.3552546e-05 -7.0344496e-22)
(-3.5021095e-05 -9.6231723e-05 -4.2174974e-23)
(-3.5158614e-05 -7.9727883e-05 7.8424823e-27)
(-3.39716e-05 -7.2504808e-05 -1.4212105e-21)
(-3.9983568e-05 -8.2251641e-05 1.3687268e-21)
(-4.8507728e-05 -9.7089834e-05 1.2527916e-21)
(-5.1980223e-05 -9.3522514e-05 2.9387359e-39)
(-5.2154959e-05 -9.0175118e-05 2.4124596e-21)
(-6.1099815e-05 -0.00010261422 -1.8427503e-26)
(-7.2192547e-05 -0.00011786665 3.0786656e-23)
(-0.00010269685 -0.00016793759 -3.3366803e-21)
(-0.00011782944 -0.00014851778 -2.6146753e-23)
(-8.6101461e-05 -9.8088797e-05 4.0208139e-21)
(-7.9105895e-05 -8.420503e-05 1.1754944e-38)
(-9.0824162e-05 -9.3004023e-05 0)
(-0.00011362077 -0.00011472348 0)
(-0.00011375859 -0.00010056551 -2.8499492e-23)
(-8.6744151e-05 -7.0477659e-05 3.3055758e-23)
(-8.6758667e-05 -6.7485405e-05 2.1265147e-21)
(-9.8263822e-05 -7.4094863e-05 -1.8927649e-21)
(-0.00012901653 -9.9586507e-05 0)
(-1.5180062e-07 -1.289609e-05 3.4721183e-23)
(-4.0772742e-07 -1.58256e-06 -6.3335752e-22)
(-6.0211866e-07 4.9916198e-06 0)
(-1.532859e-06 1.0762327e-05 -2.2040519e-39)
(-3.037307e-06 1.6041853e-05 -1.0853245e-21)
(-4.13767e-06 2.133361e-05 -9.9845914e-22)
(-5.3311082e-06 2.7140664e-05 -9.0310208e-22)
(-6.8191693e-06 3.3887969e-05 -9.1835496e-40)
(-8.9635739e-06 4.1160736e-05 -6.6872861e-22)
(-1.0656068e-05 5.5364968e-05 3.8591471e-27)
(-1.6441629e-05 5.897321e-05 1.2198128e-21)
(-1.8691919e-05 5.1808669e-05 5.5835982e-38)
(-2.0955372e-05 5.2000657e-05 1.9230408e-23)
(-2.3466524e-05 5.6588784e-05 -1.7461714e-23)
(-2.6555256e-05 6.2433057e-05 5.1285917e-22)
(-2.9673372e-05 7.2663039e-05 -4.7381233e-22)
(-3.3341061e-05 7.6266857e-05 -9.0339266e-22)
(-3.4657953e-05 7.0657741e-05 -4.7465685e-22)
(-3.6878715e-05 7.0049866e-05 -4.4966997e-22)
(-3.9901839e-05 7.3635486e-05 -4.0227804e-22)
(-4.3657251e-05 7.9212248e-05 3.6610859e-22)
(-4.8501265e-05 8.661756e-05 -1.0606095e-23)
(-5.5340614e-05 9.5545454e-05 -5.8360971e-22)
(-6.3944492e-05 0.00011887354 2.6553245e-22)
(-8.2901585e-05 0.00013059226 -9.5812686e-24)
(-7.95492e-05 9.6342143e-05 1.195982e-23)
(-7.2831521e-05 8.3306788e-05 -4.2395418e-22)
(-6.8259527e-05 7.8202891e-05 -6.96861e-24)
(-6.6419887e-05 7.605264e-05 4.5431539e-22)
(-6.8368019e-05 7.6667965e-05 -2.9387359e-39)
(-7.3385433e-05 8.0354947e-05 0)
(-7.973231e-05 8.9884778e-05 -2.9387359e-39)
(-8.6726549e-05 9.972089e-05 3.7953907e-22)
(-9.3618455e-05 9.5348427e-05 6.8634229e-24)
(-8.6635172e-05 7.2770178e-05 -5.2646109e-22)
(-7.8370292e-05 6.372787e-05 5.8274324e-22)
(-7.2084591e-05 5.9339796e-05 6.173727e-22)
(-6.8283925e-05 5.6645094e-05 6.2551398e-22)
(-6.7811237e-05 5.5796191e-05 1.9728677e-23)
(-6.9926286e-05 5.6788386e-05 2.9530586e-22)
(-7.4016138e-05 5.9263339e-05 5.7801653e-22)
(-7.9916215e-05 6.353704e-05 5.8774718e-39)
(-8.6892939e-05 7.1755166e-05 -7.7483882e-24)
(-9.1751988e-05 8.1278767e-05 -2.5172961e-22)
(-0.0001006816 8.1519613e-05 6.0170393e-22)
(-9.1249357e-05 5.8013636e-05 -1.1524175e-23)
(-7.9737688e-05 4.6907139e-05 -4.2742296e-22)
(-6.9999508e-05 4.1046703e-05 4.9961884e-22)
(-6.2957587e-05 3.7063571e-05 -5.1759913e-22)
(-5.8268003e-05 3.4341521e-05 1.6418581e-23)
(-5.55662e-05 3.2389587e-05 1.0655915e-21)
(-5.5503073e-05 3.1611426e-05 5.4438635e-22)
(-5.7934194e-05 3.223203e-05 1.0594344e-21)
(-6.1235251e-05 3.405255e-05 -1.5894611e-23)
(-6.4898251e-05 3.6667015e-05 1.5133102e-23)
(-6.8974179e-05 3.9793475e-05 2.2917095e-22)
(-7.3357181e-05 4.3328479e-05 1.3526623e-23)
(-7.9581548e-05 4.5876387e-05 -1.2770324e-23)
(-0.00010265284 3.9120172e-05 1.7480493e-22)
)
;
    }
    Outlet
    {
        type            calculated;
        value           uniform (0 0 0);
    }
}


// ************************************************************************* //
