/*--------------------------------*- C++ -*----------------------------------*\
| =========                 |                                                 |
| \\      /  F ield         | OpenFOAM: The Open Source CFD Toolbox           |
|  \\    /   O peration     | Version:  v2006                                 |
|   \\  /    A nd           | Website:  www.openfoam.com                      |
|    \\/     M anipulation  |                                                 |
\*---------------------------------------------------------------------------*/
FoamFile
{
    version     2.0;
    format      ascii;
    class       volScalarField;
    location    "10000";
    object      yPlus;
}
// * * * * * * * * * * * * * * * * * * * * * * * * * * * * * * * * * * * * * //

dimensions      [0 0 0 0 0 0 0];


internalField   uniform 0;

boundaryField
{
    Side
    {
        type            empty;
    }
    Ground
    {
        type            calculated;
        value           nonuniform List<scalar> 
519
(
1.3977511
1.40976
1.4212918
1.4360091
1.452874
1.4724209
1.4945556
1.5194764
1.5479799
1.5788986
1.6052157
1.6503163
1.7728772
1.6466547
1.8287413
1.782992
1.7354602
1.6911372
1.6484438
1.6081594
1.5701779
1.5347726
1.5020894
1.4723932
1.4460742
1.4232126
1.4034175
1.3938539
1.8605238
1.8733138
1.8887013
1.8988889
1.9057124
1.9099432
1.9118545
1.911757
1.9098968
1.9064521
1.9015342
1.8951807
1.8873595
1.8779647
1.8668181
1.8536669
1.8381821
1.8199604
1.7985227
1.7733133
1.7437176
1.7089944
1.6685658
1.6215007
1.566804
1.5037089
1.4311643
1.3479772
1.2526924
1.1433125
1.0167445
0.86745136
0.68334398
0.4254108
0.31932787
0.61508035
0.80332591
0.94902229
1.0688644
1.1702885
1.2574527
1.3330579
1.3990334
1.4568314
1.5076084
1.5523184
1.5917654
1.6266322
1.6574856
1.6848116
1.7090468
1.7305734
1.7497203
1.7667721
1.7819758
1.7955486
1.8076877
1.8185635
1.8283155
1.8370684
1.8449352
1.8520127
1.8583876
1.8641405
1.8693365
1.8740279
1.8782669
1.8821008
1.8855691
1.8887042
1.8915371
1.8940728
1.8963533
1.8982197
1.6870256
1.6295917
1.5717233
1.5378313
1.5062215
1.4776951
1.4531725
1.4329037
1.4160087
1.4017975
1.3896992
1.3796733
1.3714304
1.364608
1.3590552
1.3544441
1.3507234
1.3477075
1.3453328
1.343446
1.3420605
1.3409609
1.340282
1.339745
1.3394953
1.3393675
1.339257
1.3392265
1.3390297
1.3388795
1.3385508
1.3379674
1.3372368
1.3361177
1.3347758
1.3331028
1.3308038
1.3282911
1.3253079
1.3214696
1.3172857
1.3124865
1.306681
1.3002881
1.2931608
1.2849419
1.2758523
1.2659424
1.254886
1.24267
1.2296203
1.2154349
1.1999141
1.1833997
1.1658797
1.1471094
1.1269349
1.1058468
1.083795
1.060201
1.0350696
1.0084946
0.98003445
0.9495768
0.91744817
0.88431134
0.85053458
0.81553805
0.77901985
0.74008935
0.69808282
0.65218643
0.6018805
0.54825615
0.49261608
0.43797288
0.39096461
0.36591523
0.37558078
0.41292139
0.46273614
0.51589311
0.56806531
0.61703837
0.66254047
0.70431478
0.7426941
0.77784353
0.81086497
0.84272871
0.87402155
0.90455353
0.93383922
0.96151814
0.98748304
1.0119423
1.0347622
1.0563798
1.0773328
1.098028
1.1187428
1.1386815
1.157479
1.1750613
1.1916519
1.2078831
1.2236008
1.2386681
1.2530924
1.2668111
1.279982
1.2924247
1.3037618
1.314145
1.3236662
1.3325966
1.341208
1.3488822
1.3557577
1.3618652
1.3674336
1.3728066
1.3778267
1.382488
1.386894
1.3912302
1.3957984
1.4009192
1.4063005
1.4121408
1.418523
1.4256874
1.4339243
1.44322
1.4532278
1.4639375
1.4752728
1.4873943
1.5005674
1.5143987
1.5284659
1.5426543
1.5568109
1.571056
1.5856812
1.6002307
1.6142253
1.6276233
1.6406175
1.6538326
1.6674353
1.6807689
1.6934468
1.7055724
1.7170567
1.7278964
1.7381507
1.7478339
1.7567851
1.7650306
1.772546
1.7793165
1.785507
1.7914029
1.7966583
1.8012024
1.8050206
1.8080733
1.810502
1.8131918
1.8167372
1.8194233
1.8216434
1.8232505
1.8242561
1.8253421
1.8281879
1.8310876
1.8333812
1.8354375
1.837144
1.8385601
1.8406621
1.8437676
1.8466871
1.8491799
1.8514617
1.8534651
1.8552057
1.857388
1.8604126
1.8633751
1.8659633
1.8683941
1.8706136
1.8726287
1.8748622
1.8783623
1.8822543
1.8855863
1.8888242
1.8918527
1.8947027
1.8973508
1.9008134
1.9049718
1.9087715
1.9123804
1.9158007
1.9190501
1.9221195
1.9250455
1.9286392
1.932534
1.9359869
1.9393437
1.9425195
1.9455497
1.9484177
1.9511655
1.954618
1.9583971
1.9617439
1.9650004
1.9680773
1.9710145
1.9738008
1.9764185
1.9793943
1.982699
1.985778
1.9886885
1.9914438
1.9940492
1.9965168
1.9988368
2.0010468
2.0035763
2.0062169
2.0085759
2.0108238
2.0129212
2.0148891
2.0167341
2.0184455
2.0200387
2.0219665
2.0240373
2.02583
2.0275163
2.0290548
2.0304645
2.0317457
2.0329015
2.033926
2.0349764
2.0361267
2.0371841
2.0380907
2.0388811
2.0395486
2.0401002
2.0405426
2.040876
2.0410979
2.0413214
2.0416035
2.0418041
2.0418774
2.0418523
2.0417269
2.0415015
2.0411816
2.0407765
2.0402813
2.0396872
2.0391983
2.0387823
2.0382339
2.0375949
2.036861
2.0360445
2.0351438
2.0341583
2.0330958
2.0319606
2.0307434
2.0294943
2.028256
2.0269642
2.0255902
2.0241487
2.0226389
2.0210667
2.0194304
2.017739
2.0159932
2.0141971
2.0123503
2.0104609
2.0086146
2.0067801
2.0048637
2.0029023
2.0008966
1.9988517
1.9967676
1.9946472
1.9924925
1.9903066
1.9880891
1.9858448
1.9835708
1.9812872
1.9790399
1.9768023
1.97453
1.9722345
1.9699172
1.9675837
1.9652328
1.9628673
1.9604916
1.9581063
1.9557117
1.9533127
1.9509113
1.9485057
1.9460987
1.9437046
1.9413405
1.93899
1.9366362
1.9342858
1.9319403
1.9296018
1.9272717
1.9249517
1.9226434
1.9203481
1.9180655
1.9157968
1.9135421
1.9112979
1.9090664
1.9068482
1.9046321
1.9024082
1.9001609
1.0051503
1.0172262
1.0264501
1.0320662
1.033393
1.0294649
1.0191653
1.0014719
0.97569311
0.94233928
0.90483957
0.87145251
0.85406406
0.86055857
0.88679573
0.92303434
0.96349337
1.0067822
1.0527884
1.1016241
1.1532837
1.2079444
1.2654712
1.3257125
1.3886668
1.4543323
1.5229527
1.5943791
1.6679631
1.7422947
1.8152365
1.8838161
1.9445406
1.9936341
2.027542
2.0434474
2.0399973
2.0177275
1.9794492
1.929647
1.8732982
1.8148283
1.7551141
1.7053505
0.99099388
0.97709436
0.96416434
0.95233542
0.94144116
0.93146322
0.9222409
0.91373367
0.90590486
0.89871672
0.89212341
0.88604732
0.88044125
0.8752604
0.87046955
0.86602682
0.86193215
0.85810067
0.8546581
0.85124869
0.84865044
0.84510088
0.84466256
0.83843254
)
;
    }
    Inlet
    {
        type            calculated;
        value           uniform 0;
    }
    Airfoil
    {
        type            calculated;
        value           nonuniform List<scalar> 
527
(
0.73981013
2.0118741
2.2179365
2.0633269
2.072955
1.9979059
1.8928401
1.7928603
1.7207197
1.6686385
1.6263032
1.586628
1.5589765
1.5329953
1.5132249
1.4952963
1.4775641
1.4606299
1.4433876
1.4251664
1.4078585
1.3893531
1.3705702
1.3543126
1.3340896
1.3186289
1.2985275
1.2816566
1.2639004
1.2448754
1.2293847
1.2097778
1.1923567
1.1757788
1.1560771
1.1412394
1.1256325
1.1060146
1.0905589
1.0749661
1.0568382
1.0406847
1.0242599
1.0064575
0.98886308
0.97260059
0.95485859
0.93694865
0.91786276
0.89907199
0.88252679
0.86052772
0.84196902
0.81878068
0.80316191
0.77400769
0.74684118
0.72887479
0.70501517
0.67031747
0.63608816
0.61444014
0.58174187
0.53560729
0.49202276
0.46162873
0.41762333
0.3483716
0.31342521
0.31894126
0.35242826
0.43793309
0.51352637
0.54826827
0.58339123
0.67176611
0.75214036
0.76966457
0.79957364
0.84992265
0.91905217
0.95368455
0.97244241
0.99378545
1.0515432
1.1047018
1.1124467
1.1320714
1.1615399
1.212918
1.2461603
1.2549334
1.2694375
1.3057162
1.3574363
1.3779624
1.3836851
1.3938084
1.432867
1.4859341
1.4991664
1.5014158
1.5083868
1.5420788
1.5920821
1.6058164
1.6045778
1.6093475
1.6326797
1.6790094
1.7011935
1.696171
1.699047
1.7083015
1.7501016
1.7860435
1.7768501
1.7787341
1.7824065
1.8081676
1.8435517
1.8495985
1.8481114
1.8505582
1.8582949
1.8903079
1.9180477
1.9110309
1.9126116
1.9155653
1.9354279
1.9772769
1.9978587
1.9885516
1.9873259
1.9887133
2.0228595
2.0795712
2.0939404
2.0793743
2.074087
2.0724289
2.1096597
2.1709519
2.1838274
2.1656599
2.1586168
2.1542411
2.1715657
2.2099914
2.2240696
2.2094501
2.2044323
2.2006583
2.2011614
2.212965
2.2212039
2.2137815
2.2107136
2.2065232
2.2047986
2.2373635
2.2733859
2.2644894
2.2476516
2.2344455
2.2248271
2.2676292
2.4324634
2.527868
2.4316459
2.3969504
2.3656029
2.3572292
2.5051635
2.7562457
2.8173792
2.6842992
2.6223453
2.5690453
2.549264
2.7756113
3.0458209
3.0469493
2.9094267
2.8411851
2.774152
2.7451423
2.9235769
3.1519687
3.1577044
3.0196459
2.9509454
2.8880766
2.8619327
3.0219924
3.3802067
3.4911024
3.26552
3.180105
3.1029489
3.043118
3.0648737
3.3651231
3.5408986
3.4129791
3.3002546
3.2201145
3.1578474
3.1156694
3.1757565
3.4356766
3.5280334
3.3281217
3.2584445
3.1884244
3.1421262
3.1333342
3.2285486
3.5311244
3.6217713
3.3976305
3.3250333
3.2489346
3.1976372
3.1685094
3.2206399
3.4420617
3.5440956
3.4338765
3.3355584
3.2656193
3.209734
3.1716412
3.1758876
3.2600107
3.4541886
3.4910191
3.3190694
3.2600487
3.1981866
3.1578096
3.1411481
3.1728164
3.2787455
3.5051799
3.5439035
3.3481137
3.2872885
3.2197691
3.1715938
3.1363443
3.1260039
3.1625845
3.2694016
3.3301019
3.2935826
3.206148
3.158743
3.1141205
3.081252
3.0609781
3.0663894
3.1029484
3.192072
3.2421707
3.2133547
3.1371125
3.0994873
3.0655832
3.0450562
3.0434427
3.06517
3.1077195
3.1920231
3.3386108
3.35936
3.2339016
3.1828512
3.1328344
3.0943057
3.0626878
3.0402237
3.0288668
3.0380461
3.0627875
3.1148156
3.1445129
3.1269645
3.0714072
3.0457949
3.0199514
3.0017036
2.9901399
2.9888819
2.9998226
3.0203172
3.053212
3.1070581
3.178394
3.1779278
3.09572
3.0732294
3.0444136
3.0253664
3.0113351
3.0037741
3.0067018
3.0178169
3.0365617
3.0638319
3.1025453
3.1582201
3.2052327
3.1983639
3.1434704
3.1289584
3.1131937
3.1067545
3.1099895
3.1198691
3.1348522
3.1554974
3.1821089
3.215146
3.2551105
3.3025102
3.3592877
3.4281221
3.4883909
3.5215004
3.5620248
3.616164
3.6760951
3.7430193
3.8158674
3.8942785
3.9777362
4.065747
4.1578139
4.2534947
4.3524398
4.4537379
4.555735
4.6573076
4.7590251
4.8558433
4.9176709
4.9607759
1.5733182
1.5153221
1.5320767
1.5087537
1.469926
1.4473473
1.4049112
1.3740697
1.3726486
1.3702005
1.3676487
1.3664784
1.3706731
1.3780583
1.3814503
1.3856021
1.3814711
1.3696191
1.3636854
1.3595454
1.3498302
1.3417212
1.3416277
1.3364295
1.3298774
1.3334955
1.3283672
1.3168156
1.3159683
1.3069384
1.2963236
1.2978119
1.2943745
1.2859666
1.2864369
1.2774377
1.2627337
1.2594003
1.251901
1.242793
1.2400134
1.2338782
1.2198574
1.2059201
1.194078
1.168899
1.1383141
1.111705
1.0785469
1.0526662
1.0333968
1.0179215
0.9990679
0.99869916
1.0145724
1.0247842
1.0401911
1.0645452
1.0963609
1.1290097
1.1637098
1.2016107
1.2406977
1.2946032
1.3401373
1.4935624
1.3710911
2.0507399
2.3447373
4.3461984
3.8127849
3.6086076
3.7228204
4.5019111
4.2133235
2.7589603
1.8589195
1.8161351
0.88207745
0.45654804
0.44381386
0.60559264
1.0217464
1.2632168
1.318533
1.3608233
1.5329456
1.5248161
1.4539645
1.5685774
1.3322075
1.4616984
1.6848372
1.9505871
2.0479453
2.1202493
2.317999
2.5256392
2.9737056
3.1455418
2.9215309
2.8052082
3.0067558
3.2918426
3.2905275
3.2589198
3.504732
3.7871531
4.5513222
4.4668416
3.7303874
3.5394282
3.7887312
4.2605692
4.0961043
3.5542151
3.565939
3.8185167
4.4557223
1.0388912
0.38693506
0.73150155
1.1262444
1.4074228
1.6975384
1.9957383
2.3174642
2.6477464
3.1739909
3.1342108
3.0091872
3.1167501
3.3412919
3.6003565
3.9661239
3.9445389
3.8701069
3.9524261
4.1366521
4.3716599
4.6545228
4.9799557
5.5764436
4.9579644
4.5345649
4.3070492
4.2177199
4.2079462
4.290954
4.4585356
4.7338116
4.6611823
4.2346943
3.931553
3.7322551
3.6136058
3.549237
3.556773
3.6265815
3.7435498
3.9045063
4.1242708
4.0653119
3.6210162
3.330911
3.0835856
2.8976944
2.7616423
2.6690306
2.6140748
2.6156054
2.6737917
2.7568413
2.8519593
2.9563376
3.0684476
3.2150324
3.5165637
)
;
    }
    Outlet
    {
        type            calculated;
        value           uniform 0;
    }
}


// ************************************************************************* //
