/*--------------------------------*- C++ -*----------------------------------*\
| =========                 |                                                 |
| \\      /  F ield         | OpenFOAM: The Open Source CFD Toolbox           |
|  \\    /   O peration     | Version:  v2006                                 |
|   \\  /    A nd           | Website:  www.openfoam.com                      |
|    \\/     M anipulation  |                                                 |
\*---------------------------------------------------------------------------*/
FoamFile
{
    version     2.0;
    format      ascii;
    class       volScalarField;
    location    "5000";
    object      Cp;
}
// * * * * * * * * * * * * * * * * * * * * * * * * * * * * * * * * * * * * * //

dimensions      [0 0 0 0 0 0 0];


internalField   nonuniform List<scalar> 
19765
(
0.14940966
0.20552627
0.35624297
0.46146738
0.56567157
0.64397128
0.73612926
0.78961969
0.8578758
0.91332064
0.95183426
0.98120457
1.0042434
1.0159702
1.0188528
1.0150699
1.0050552
0.98867983
0.96575768
0.93604481
0.8985996
0.85384779
0.80579846
0.74952793
0.68131665
0.61043167
0.54961867
0.48048007
0.39388257
0.3158334
0.23440062
0.1360775
0.025177511
-0.12091681
-0.23864753
-0.3217985
-0.42838819
-0.58954335
-0.70130105
-0.82549599
-1.0293381
-1.2045679
-1.2323182
-1.3874225
-1.3808318
-1.4298745
-1.3857249
-1.317687
-1.2310479
0.33738604
0.36607649
0.40282553
0.44688055
0.49360276
0.53856926
0.58563611
0.62518194
0.66656184
0.70751383
0.74214168
0.77085776
0.79731413
0.81584387
0.82623071
0.83332541
0.83549887
0.83018063
0.81908059
0.80116537
0.77664082
0.74700563
0.71048636
0.66748796
0.61954776
0.56705849
0.50794597
0.44336249
0.37433658
0.30022297
0.22167782
0.13958499
0.054520569
-0.030935486
-0.11550705
-0.20080692
-0.28812044
-0.37431948
-0.45400902
-0.52876508
-0.5947155
-0.64898808
-0.70105714
-0.74548154
-0.77707305
-0.80403871
-0.82455813
-0.84330458
-0.86213012
0.32973177
0.36581329
0.40656564
0.44702555
0.48710888
0.52468498
0.56157285
0.59313011
0.62432882
0.65335736
0.67904948
0.70140794
0.72133705
0.73638766
0.74601138
0.75206298
0.75417944
0.75074343
0.74148456
0.72619269
0.70480909
0.67778566
0.64481521
0.6057964
0.56172757
0.51310483
0.45890207
0.39952338
0.33600756
0.26801629
0.19638389
0.12237623
0.047202522
-0.028024793
-0.10466444
-0.18215688
-0.25814376
-0.33215883
-0.40457297
-0.47281049
-0.53618083
-0.59811505
-0.65705741
-0.71107468
-0.76025092
-0.79984905
-0.83488227
-0.86473417
-0.89231163
0.36308981
0.38663569
0.41119928
0.43726203
0.46394806
0.49049891
0.51718471
0.54153691
0.56601054
0.58980609
0.61109579
0.62984413
0.64677012
0.65986658
0.66839938
0.67412263
0.67684831
0.67482659
0.66766655
0.6551064
0.63737942
0.61538769
0.58847709
0.55612403
0.51925798
0.47856027
0.43314204
0.3830574
0.32943295
0.27222882
0.21213738
0.15036161
0.087747699
0.025378587
-0.037905901
-0.10150683
-0.16320567
-0.2222506
-0.27979933
-0.33330427
-0.38193454
-0.4293488
-0.47629949
-0.51839627
-0.56005881
-0.59842273
-0.6375764
-0.67595654
-0.71339248
0.34746126
0.3687478
0.39045655
0.41191213
0.4329702
0.45330033
0.47346066
0.49172256
0.50998585
0.52783724
0.54394095
0.55814103
0.5709914
0.58102683
0.58745735
0.59155804
0.59331452
0.59122252
0.58474301
0.57356627
0.55748679
0.53715108
0.51212522
0.48193103
0.44747335
0.40954601
0.36753017
0.32125755
0.27179207
0.21941745
0.1646112
0.10832242
0.051227465
-0.005686016
-0.062825472
-0.11980849
-0.17537225
-0.22895473
-0.28115011
-0.33060958
-0.37720291
-0.4230267
-0.46850786
-0.51129773
-0.55426837
-0.59546021
-0.63625536
-0.67575325
-0.71408607
0.34256834
0.35794668
0.37395044
0.38987907
0.40572872
0.42113966
0.43667322
0.45080308
0.46509736
0.47913783
0.49180033
0.50293268
0.51295753
0.52069211
0.52545561
0.52820035
0.52886699
0.52621677
0.51977538
0.50925933
0.49447691
0.47606434
0.45367129
0.42676608
0.39607949
0.36226388
0.32486255
0.28379968
0.23999309
0.19372997
0.1454628
0.096020823
0.04600901
-0.0037336318
-0.053477406
-0.10289005
-0.15097613
-0.19728805
-0.24221802
-0.28481748
-0.32499559
-0.36434915
-0.40308808
-0.44007011
-0.47708239
-0.51324594
-0.5498262
-0.58671262
-0.62329982
0.32581194
0.33882888
0.35227319
0.36529119
0.37801475
0.39019704
0.4024214
0.41345454
0.42461282
0.43556312
0.44539956
0.45397838
0.46163418
0.46740659
0.47070365
0.47225221
0.47197011
0.46880338
0.46231839
0.4522273
0.43833645
0.42107276
0.40013713
0.37510598
0.34655231
0.31508218
0.28035924
0.24232731
0.20179253
0.15905571
0.11451599
0.068882042
0.022654425
-0.023414839
-0.069435351
-0.11512568
-0.15976698
-0.20297847
-0.24504388
-0.28531338
-0.3238004
-0.36157809
-0.39896165
-0.43514953
-0.47148297
-0.50735986
-0.54369881
-0.58026869
-0.61703487
0.31266129
0.32277783
0.33340308
0.34367955
0.35375548
0.36337828
0.37307933
0.38178335
0.39060839
0.39923998
0.40691991
0.41351475
0.41929062
0.42344754
0.42547868
0.42594593
0.4247477
0.42099525
0.41431049
0.40442229
0.39116861
0.3748629
0.35527529
0.33207193
0.30568039
0.27662592
0.24465421
0.20975976
0.17265234
0.133614
0.093020819
0.051503288
0.0095115728
-0.032287722
-0.073954697
-0.11523972
-0.15554366
-0.19453955
-0.23244615
-0.26873852
-0.30340266
-0.33733358
-0.37076049
-0.40314404
-0.43553734
-0.46755464
-0.49999283
-0.53275527
-0.56580605
0.29647599
0.30487356
0.31371454
0.32216233
0.33038048
0.33815413
0.34597024
0.35291153
0.3599326
0.36675626
0.37274335
0.37777165
0.38205651
0.38492293
0.38593214
0.38552583
0.38359074
0.37936334
0.37250868
0.36277191
0.35001027
0.33443661
0.31584976
0.29399384
0.2691969
0.24192132
0.21197409
0.1793724
0.14473931
0.10833679
0.070507053
0.03180398
-0.0073850998
-0.046467006
-0.085452614
-0.12411656
-0.16197344
-0.19872822
-0.23455054
-0.26902682
-0.30216043
-0.33460945
-0.36663692
-0.39779324
-0.42895772
-0.45983569
-0.49108125
-0.52264292
-0.55456731
0.28208199
0.28881902
0.29600098
0.30283905
0.30948927
0.31574481
0.32203552
0.32755981
0.33313418
0.33850267
0.34311903
0.34686879
0.34992556
0.35171186
0.35184656
0.35067987
0.34809291
0.34342774
0.33638934
0.32674366
0.31436389
0.29939796
0.28167582
0.26100508
0.23763676
0.21197563
0.18387779
0.15338418
0.12104789
0.087112561
0.051900807
0.015912608
-0.020500222
-0.056800407
-0.092973889
-0.1288086
-0.16387788
-0.19791168
-0.23104772
-0.26292537
-0.2935248
-0.32340822
-0.35280161
-0.38132616
-0.40974879
-0.43782602
-0.46615013
-0.49469445
-0.52348737
0.26723834
0.27280158
0.27877092
0.28441242
0.28987229
0.29496353
0.30006608
0.30448186
0.30891174
0.31312342
0.31664531
0.31937047
0.32143926
0.32235235
0.32177571
0.31998923
0.31687165
0.31185021
0.30466369
0.29509804
0.28303365
0.26858059
0.25158281
0.23189344
0.20971471
0.1853931
0.15882681
0.13006956
0.099611551
0.067677009
0.034565236
0.00072432891
-0.033533027
-0.067723362
-0.10181669
-0.13561488
-0.16874733
-0.20096537
-0.23238325
-0.26268904
-0.29186103
-0.32034376
-0.34836674
-0.37557195
-0.4026438
-0.42936248
-0.45624699
-0.4832835
-0.5105592
0.25358444
0.25810066
0.26299951
0.26760618
0.27205413
0.27616762
0.28027816
0.28377199
0.28725118
0.29050178
0.29311338
0.29498461
0.2962279
0.29640736
0.29522829
0.29291497
0.28934636
0.28402121
0.27670754
0.26720988
0.25541483
0.24140985
0.22504821
0.20621921
0.18509331
0.16196474
0.1367659
0.1095622
0.080792274
0.050664831
0.019462753
-0.01240518
-0.044651742
-0.076833883
-0.10890888
-0.14068456
-0.17182273
-0.20208927
-0.23157876
-0.26000582
-0.28733367
-0.31394576
-0.34005037
-0.36531025
-0.39035301
-0.41496845
-0.43963559
-0.4643397
-0.489153
0.24028568
0.24399537
0.24805374
0.25184305
0.25548331
0.25881289
0.26212115
0.26486782
0.26757136
0.27003549
0.27190028
0.27306969
0.27363318
0.27320723
0.27153002
0.26878156
0.26484255
0.25927159
0.25186173
0.24243429
0.2308823
0.21727693
0.20147917
0.1834046
0.16320138
0.14112031
0.11711987
0.091273187
0.063973669
0.035415032
0.0058633051
-0.024309157
-0.054840444
-0.085326434
-0.11571842
-0.14583298
-0.17536405
-0.20409387
-0.232104
-0.25913512
-0.2851462
-0.31045608
-0.33526564
-0.35924305
-0.38296683
-0.40622994
-0.42946606
-0.4526576
-0.47590694
0.2279062
0.23091477
0.2342428
0.2373274
0.24027605
0.24293809
0.24556478
0.24767812
0.24972487
0.25152392
0.25275768
0.25333451
0.25332444
0.25238761
0.25028994
0.24717548
0.2429277
0.23715598
0.22967483
0.22032075
0.2089934
0.19575128
0.18046417
0.16306812
0.14369415
0.12255777
0.09963813
0.075014667
0.049042738
0.021903788
-0.0061497768
-0.034775179
-0.063729114
-0.092638489
-0.1214482
-0.1499789
-0.17794558
-0.20514157
-0.2316349
-0.25718248
-0.28173441
-0.30556749
-0.32886638
-0.35130872
-0.37343451
-0.39503792
-0.41652191
-0.43786222
-0.45915363
0.21610479
0.21854681
0.22127702
0.22378309
0.22616034
0.22826939
0.23032839
0.23191344
0.23341019
0.23465154
0.23535566
0.23543515
0.23494384
0.23357883
0.23112967
0.22771112
0.22321013
0.21727943
0.20975203
0.20047818
0.18936419
0.17645836
0.16163971
0.14486002
0.12623659
0.10595616
0.084014193
0.060494512
0.03571941
0.0098592454
-0.016846574
-0.04408196
-0.071620886
-0.099119323
-0.12651928
-0.15364755
-0.18024028
-0.20610392
-0.23129766
-0.25559556
-0.27894504
-0.3015836
-0.323685
-0.3449328
-0.36583071
-0.38617343
-0.40633153
-0.42627406
-0.44611086
0.20506169
0.20701437
0.2092266
0.21123269
0.2131172
0.21475048
0.21632147
0.21745292
0.21847792
0.2192418
0.21949325
0.21914863
0.21824806
0.21652012
0.21377457
0.21010205
0.20539335
0.19933846
0.19178644
0.18259992
0.1716917
0.15910179
0.1447186
0.12850661
0.1105719
0.091077653
0.070032546
0.047523727
0.023845125
-0.00084222997
-0.026310261
-0.052265622
-0.078496154
-0.10468239
-0.13076303
-0.15656887
-0.18185184
-0.20642833
-0.23034763
-0.25339614
-0.27551691
-0.29691749
-0.31775745
-0.33772998
-0.35730678
-0.3762849
-0.39500927
-0.41344279
-0.43169255
0.19461845
0.19616381
0.19794065
0.19952557
0.20099311
0.20222298
0.20337872
0.20412379
0.20474615
0.20510254
0.20496787
0.20426215
0.20301401
0.20097917
0.19798491
0.19410196
0.18922519
0.18307689
0.17552009
0.16642866
0.1557216
0.14343217
0.12945791
0.11377383
0.096476761
0.07771014
0.057493459
0.035916243
0.013247679
-0.01035938
-0.034687414
-0.05946343
-0.084487772
-0.10946356
-0.13432778
-0.15891635
-0.18299688
-0.20639683
-0.22915854
-0.2510818
-0.27210898
-0.29242155
-0.3121676
-0.33105026
-0.34951033
-0.36734822
-0.38488332
-0.40207287
-0.41903189
0.18481611
0.18600933
0.1874081
0.18862735
0.18973287
0.19061273
0.19140827
0.19181837
0.1920921
0.19209647
0.19162904
0.1906132
0.18906793
0.18677242
0.18356918
0.17951242
0.17450121
0.16828591
0.16074183
0.15175296
0.14124439
0.12924366
0.11565698
0.10046839
0.083767041
0.065679636
0.046234723
0.025523665
0.0037939994
-0.018808416
-0.042075641
-0.065752549
-0.089650123
-0.11349135
-0.13721139
-0.16065049
-0.18358934
-0.20586468
-0.22751136
-0.24834012
-0.26829207
-0.28752693
-0.30618016
-0.32396725
-0.34130008
-0.35798464
-0.37431819
-0.39025402
-0.40590677
0.17556752
0.17646186
0.17753723
0.17844303
0.17923715
0.17981543
0.18029995
0.18042064
0.18039299
0.18009346
0.17933933
0.17805726
0.17625816
0.17374172
0.17036388
0.16616507
0.16104862
0.15478949
0.14727381
0.13839478
0.12808339
0.11636217
0.10314599
0.088425973
0.072284817
0.054835709
0.036114263
0.016213433
-0.0046384211
-0.026301578
-0.048576998
-0.0712256
-0.094067933
-0.11684516
-0.13949135
-0.16185164
-0.1837195
-0.20494136
-0.22554638
-0.24535692
-0.26431508
-0.28256209
-0.30022268
-0.31702571
-0.33335532
-0.3490242
-0.36430839
-0.37915782
-0.39369155
0.16686422
0.16749925
0.16829273
0.16892506
0.16944721
0.16976211
0.16997501
0.16984311
0.16955286
0.16898926
0.16798683
0.16647539
0.16445904
0.16175548
0.15823248
0.15391899
0.14872259
0.14243988
0.13496652
0.12620414
0.11608934
0.10463987
0.091779994
0.077506023
0.061895147
0.045050108
0.027011083
0.0078727344
-0.012153513
-0.032933301
-0.054275831
-0.075956368
-0.097803926
-0.11957602
-0.14120575
-0.16254286
-0.18339231
-0.20360918
-0.22321692
-0.24204818
-0.26004592
-0.2773353
-0.29403008
-0.30987378
-0.32522403
-0.33990186
-0.35416407
-0.36795885
-0.38140573
0.15864908
0.15906119
0.15961077
0.16000599
0.16029169
0.16037732
0.16035353
0.16000153
0.15948262
0.15868967
0.15747237
0.15576356
0.15356169
0.1507004
0.14705798
0.1426538
0.13739963
0.13111118
0.12369265
0.11505335
0.10513511
0.093951646
0.081436427
0.067589415
0.052482975
0.036212025
0.01881989
0.00040247166
-0.01884373
-0.03878914
-0.059250677
-0.080016587
-0.10092357
-0.12174415
-0.14241081
-0.16277824
-0.18266246
-0.20192725
-0.22059142
-0.23849825
-0.25559284
-0.27198675
-0.28778422
-0.30274421
-0.3171991
-0.33097911
-0.34432291
-0.3571775
-0.36966489
0.15089739
0.15111546
0.15145175
0.15163935
0.15171773
0.15160232
0.15137104
0.1508263
0.15010758
0.14911495
0.14771149
0.14583295
0.14347308
0.14047964
0.13674032
0.13226651
0.1269741
0.12069573
0.11334324
0.104833
0.095111647
0.084189639
0.072008974
0.058572531
0.043948473
0.028225431
0.01144915
-0.0062837471
-0.02478995
-0.043944158
-0.063570548
-0.083469116
-0.10348355
-0.12340009
-0.14315074
-0.1625951
-0.18155946
-0.19991566
-0.21767812
-0.23469995
-0.25092838
-0.26646295
-0.28139862
-0.29551017
-0.3091059
-0.32202606
-0.33449259
-0.34645249
-0.35802819
0.1435663
0.14361633
0.14376688
0.14377335
0.14367048
0.14337919
0.14296636
0.14225317
0.14136015
0.14019401
0.13862969
0.13660577
0.13411212
0.13100912
0.12719287
0.12266814
0.11735482
0.11110064
0.10382433
0.095448705
0.085924842
0.075260632
0.063405793
0.050365689
0.036204806
0.021006552
0.004818645
-0.012262058
-0.030063945
-0.048465595
-0.067298034
-0.086371986
-0.10553759
-0.12459368
-0.14347208
-0.16203739
-0.18012581
-0.19761703
-0.21452179
-0.23070308
-0.24611099
-0.26083478
-0.27496131
-0.28828145
-0.30108078
-0.31320998
-0.32487538
-0.33602439
-0.34678065
0.13662724
0.13653087
0.13651885
0.13636657
0.13610467
0.13565911
0.13508714
0.13422664
0.13318162
0.1318649
0.13016201
0.12801423
0.12540824
0.12221571
0.11834036
0.11378143
0.10846271
0.10224538
0.095054403
0.086818543
0.077492954
0.067083515
0.055546894
0.042890632
0.029176
0.014481955
-0.00114215
-0.017599634
-0.034729315
-0.052413314
-0.070489156
-0.088777374
-0.10713407
-0.12536971
-0.14341606
-0.16114273
-0.17839524
-0.19506067
-0.21114642
-0.22652478
-0.24114868
-0.25509827
-0.26845271
-0.2810188
-0.29306054
-0.30443931
-0.31534696
-0.32573208
-0.33571828
0.13004536
0.12982201
0.12966825
0.12937737
0.12897642
0.12839601
0.12768503
0.12669619
0.12551916
0.1240724
0.12225089
0.11999853
0.1172994
0.11403534
0.11011694
0.10553887
0.10022869
0.094059662
0.086962371
0.078871049
0.06974462
0.059587409
0.048362316
0.03607881
0.022795325
0.0085869789
-0.0064955311
-0.022356052
-0.038842732
-0.055840983
-0.073194495
-0.090732828
-0.10831766
-0.12577019
-0.14302232
-0.15994869
-0.17640375
-0.19228165
-0.20758699
-0.2222012
-0.23608038
-0.24929686
-0.26192305
-0.27378146
-0.28511591
-0.29579854
-0.30600772
-0.31569351
-0.32497971
0.12379284
0.1234593
0.1231819
0.12277002
0.12224759
0.12154951
0.12071739
0.11961718
0.11832606
0.11676767
0.11484549
0.11250592
0.10973097
0.10641163
0.10246473
0.097881206
0.092592216
0.086481873
0.079485899
0.07154355
0.062617224
0.052710063
0.041790555
0.029869863
0.017003913
0.0032644629
-0.011296713
-0.026584275
-0.042454777
-0.058796697
-0.07545961
-0.092281395
-0.10912895
-0.12583343
-0.14232698
-0.15848923
-0.17418307
-0.18930934
-0.20387014
-0.21775553
-0.23092475
-0.24344317
-0.25537691
-0.2665637
-0.27722832
-0.28725353
-0.29680517
-0.30583525
-0.31446698
0.11784033
0.11741178
0.11702716
0.11651027
0.11588235
0.11508225
0.11414527
0.1129492
0.11156028
0.10990702
0.10790051
0.10548956
0.10265454
0.099294735
0.09533266
0.090756163
0.085499894
0.079457737
0.07257009
0.06478084
0.056055584
0.046396583
0.035777321
0.024210448
0.011749645
-0.0015363022
-0.015594788
-0.030331542
-0.045610706
-0.061323678
-0.077325636
-0.093462164
-0.10960508
-0.12559475
-0.14136372
-0.15679653
-0.17176409
-0.18617361
-0.20002506
-0.21321684
-0.22571145
-0.23756822
-0.24884775
-0.25940249
-0.26943953
-0.27885202
-0.28779421
-0.29622019
-0.30425259
0.11216256
0.11165252
0.11117534
0.11056781
0.10984884
0.10896092
0.10793387
0.1066561
0.10518431
0.10345149
0.1013756
0.098907801
0.096027149
0.092640462
0.088675454
0.084117468
0.078904498
0.07293925
0.066166396
0.05853409
0.050010874
0.040598364
0.030274506
0.019053243
0.006986222
-0.0058604342
-0.019433525
-0.033640055
-0.048351082
-0.06346078
-0.078829696
-0.094310559
-0.10977983
-0.12508642
-0.14016337
-0.15490001
-0.16917486
-0.18290105
-0.1960767
-0.20860812
-0.22046094
-0.23168907
-0.2423481
-0.25230444
-0.26174864
-0.27058387
-0.27895363
-0.28681435
-0.29428752
0.10673468
0.10615556
0.10559927
0.10491434
0.10411762
0.10315503
0.10205158
0.10070523
0.099164365
0.097366113
0.095234681
0.092723446
0.089810487
0.086409469
0.082452865
0.077924006
0.072764088
0.0668838
0.060231727
0.052759956
0.044439733
0.035272223
0.025239342
0.014356141
0.0026723993
-0.0097481793
-0.022852022
-0.036547601
-0.050712293
-0.065242966
-0.080005297
-0.09485867
-0.10968394
-0.12433794
-0.13875429
-0.15282698
-0.16644168
-0.17951713
-0.19204985
-0.20395367
-0.21519732
-0.22583003
-0.23590292
-0.24529576
-0.25418377
-0.26247979
-0.27031735
-0.27765534
-0.28461401
0.10153478
0.10089788
0.10027476
0.099524544
0.098662352
0.097637229
0.096470035
0.095067339
0.093470194
0.091619626
0.089445484
0.08690328
0.08397037
0.080566669
0.076629013
0.07213914
0.067041304
0.061253435
0.054727706
0.047419831
0.039303535
0.030379675
0.020633693
0.01008157
-0.001228655
-0.013235509
-0.025885266
-0.03908803
-0.052727007
-0.066701677
-0.080882652
-0.095135516
-0.10934529
-0.12337615
-0.13716233
-0.15060234
-0.16358856
-0.17604491
-0.18796653
-0.19927427
-0.20993985
-0.22000825
-0.22952656
-0.23838709
-0.24675078
-0.25453968
-0.26187808
-0.26872744
-0.27520639
0.096542226
0.095858037
0.09517947
0.094375277
0.093459049
0.092382767
0.091163656
0.089716061
0.088074619
0.086183973
0.083979106
0.081417573
0.078476227
0.075080697
0.071171835
0.066730136
0.061702775
0.056014259
0.049620058
0.042479228
0.034567764
0.025886325
0.016423464
0.0061959297
-0.0047498965
-0.016354627
-0.028564595
-0.041291696
-0.054424535
-0.067865172
-0.081488956
-0.095167268
-0.10878909
-0.12222538
-0.13541106
-0.14824893
-0.16063762
-0.1725059
-0.18384768
-0.19459042
-0.20470868
-0.21424373
-0.22323911
-0.23159892
-0.23947099
-0.2467861
-0.25366004
-0.26005689
-0.26609351
0.09173885
0.091017073
0.090293589
0.08944592
0.088486326
0.087369523
0.086109561
0.084627828
0.082953315
0.081034044
0.078809675
0.076239711
0.073300692
0.069923478
0.066052625
0.061667684
0.056718619
0.051135919
0.044878086
0.037907259
0.030201501
0.021761357
0.012578109
0.00266911
-0.0079208583
-0.019134392
-0.030918094
-0.043185797
-0.055831161
-0.068758796
-0.081848622
-0.094977455
-0.10803803
-0.12090759
-0.13352176
-0.14578739
-0.15760895
-0.16891959
-0.17971215
-0.18992019
-0.19952091
-0.20855222
-0.21705443
-0.2249426
-0.23235241
-0.23922285
-0.24566183
-0.2516361
-0.25726047
0.087108188
0.086357875
0.085599289
0.084717974
0.083725023
0.082577707
0.081287291
0.079781559
0.078084529
0.076147378
0.073914035
0.071345865
0.068419247
0.065069848
0.061245642
0.056925491
0.05206202
0.04659117
0.040474235
0.03367619
0.026176984
0.017977104
0.0090702023
-0.00052591221
-0.010768035
-0.021600679
-0.032970927
-0.044794694
-0.056970399
-0.069405217
-0.081983478
-0.094587112
-0.10711243
-0.11944248
-0.13151357
-0.14323639
-0.15452074
-0.1653038
-0.17557741
-0.18528075
-0.19439351
-0.20295059
-0.21098945
-0.2184354
-0.22541298
-0.23186895
-0.23790395
-0.24348744
-0.24873206
0.082636022
0.081865576
0.081080999
0.080175211
0.079158265
0.077989824
0.07667871
0.075158521
0.073448885
0.07150393
0.06927149
0.066714704
0.063809922
0.06049723
0.056727769
0.05247993
0.047708869
0.042355506
0.036383709
0.029761065
0.022469229
0.014508671
0.0058750786
-0.0034134279
-0.013315222
-0.023776697
-0.034745628
-0.046140157
-0.057863234
-0.06982462
-0.081912932
-0.094014925
-0.10603031
-0.11784752
-0.12940352
-0.14061254
-0.15138929
-0.16167452
-0.17145908
-0.18068732
-0.1893411
-0.19745257
-0.20505655
-0.21208777
-0.21866044
-0.22472855
-0.23038599
-0.23560499
-0.24049569
0.078309967
0.077527202
0.076725106
0.075803405
0.074771225
0.073590466
0.072267797
0.070742116
0.069029171
0.06708585
0.064863565
0.062327146
0.059453023
0.056185357
0.052478226
0.048309734
0.043637449
0.038406841
0.032584154
0.026139377
0.019055707
0.011333619
0.0029705206
-0.006015302
-0.015583804
-0.025683254
-0.036262345
-0.047241597
-0.058528305
-0.070034876
-0.0816541
-0.09327732
-0.10480751
-0.11613806
-0.12720656
-0.13793052
-0.14822904
-0.15804603
-0.16737138
-0.17615406
-0.18437789
-0.19207256
-0.19927052
-0.20591528
-0.21211165
-0.21782045
-0.22312939
-0.22801343
-0.23258014
0.074119736
0.073331847
0.072520048
0.07159037
0.070551095
0.069366225
0.068040528
0.066517736
0.064810166
0.062877285
0.060673794
0.058166129
0.055330898
0.052116022
0.048478309
0.044395733
0.03982816
0.034725226
0.029055371
0.022790789
0.015916065
0.0084316955
0.00033650299
-0.0083512015
-0.01759297
-0.027338972
-0.03753905
-0.048116251
-0.058982082
-0.070051674
-0.081221924
-0.09238856
-0.1034577
-0.11432732
-0.12493559
-0.135203
-0.14505254
-0.15443084
-0.16332672
-0.17169323
-0.17951586
-0.18682188
-0.19364147
-0.1999261
-0.20577175
-0.21114554
-0.21612935
-0.220701
-0.22496507
0.070056776
0.069270365
0.068456054
0.067525719
0.066486883
0.065305513
0.063984695
0.062472585
0.060778454
0.058864193
0.05668752
0.054216408
0.051427718
0.048272851
0.044711157
0.040720617
0.036263283
0.03129261
0.025779068
0.019696881
0.013031874
0.0057845752
-0.0020450687
-0.010438818
-0.019359934
-0.028760521
-0.038591736
-0.048779361
-0.059239001
-0.069888648
-0.080629253
-0.09136079
-0.10199244
-0.11242642
-0.12260147
-0.13244069
-0.14187048
-0.15083972
-0.15933605
-0.16731609
-0.17476671
-0.18171297
-0.18818305
-0.19413583
-0.1996594
-0.20472687
-0.20941484
-0.21370397
-0.21769578
0.06611447
0.065335486
0.064525181
0.063600854
0.062569341
0.061398447
0.060089774
0.058595518
0.056922262
0.055034157
0.052891711
0.050464357
0.04772928
0.044641104
0.041161552
0.037268726
0.032926761
0.028092617
0.022738647
0.016840933
0.010386411
0.0033756347
-0.0041906315
-0.012294231
-0.02090028
-0.029962866
-0.039434607
-0.049244316
-0.059311605
-0.069557466
-0.079886917
-0.090204092
-0.10042119
-0.1104444
-0.12021294
-0.12965224
-0.13869157
-0.14728156
-0.15540847
-0.16303186
-0.17013955
-0.17675429
-0.18290209
-0.18854836
-0.19377353
-0.19855611
-0.20296756
-0.20699157
-0.21072603
0.062287591
0.061521372
0.060720959
0.059808668
0.058790724
0.057636645
0.05634673
0.05487687
0.053231275
0.051376216
0.049274778
0.046897791
0.044222823
0.041207486
0.037815725
0.034025861
0.029804011
0.025110358
0.019919001
0.014207731
0.007964469
0.001189783
-0.0061149939
-0.013931832
-0.022227882
-0.03095927
-0.040080202
-0.049522793
-0.059210644
-0.069067934
-0.079003791
-0.0889265
-0.098751295
-0.10838812
-0.11777663
-0.12684422
-0.13552253
-0.14376345
-0.15155161
-0.15884894
-0.16564393
-0.17195719
-0.17781285
-0.18318256
-0.18814017
-0.19266948
-0.19683755
-0.20063084
-0.20414396
0.058572711
0.057823866
0.057038511
0.056143565
0.055144732
0.054013118
0.052747881
0.051308292
0.049696477
0.04788069
0.045826405
0.043505792
0.04089685
0.037959974
0.034661186
0.030979111
0.02688175
0.022332255
0.017306347
0.011783387
0.0057521771
-0.00078672616
-0.0078316332
-0.015364713
-0.023355288
-0.031761577
-0.040539552
-0.049624885
-0.058945198
-0.068428066
-0.077986839
-0.087534029
-0.096987982
-0.10626225
-0.11529688
-0.12402094
-0.13236788
-0.14029029
-0.14777086
-0.15477312
-0.16128559
-0.16732629
-0.17291696
-0.17803419
-0.182745
-0.18703752
-0.19097421
-0.19454475
-0.19783961
0.054967119
0.054239669
0.053473921
0.05260099
0.051626156
0.050521992
0.049286671
0.047882557
0.046309964
0.044539003
0.042537376
0.040278539
0.037740972
0.034887655
0.031686565
0.028116695
0.024147838
0.019745882
0.014888062
0.0095551868
0.00373684
-0.0025664514
-0.0093528299
-0.016604735
-0.024293784
-0.032380336
-0.040822325
-0.049559235
-0.058522771
-0.067644161
-0.076841152
-0.086030654
-0.095134293
-0.10406913
-0.11277565
-0.12118426
-0.12922975
-0.13686487
-0.14407005
-0.1508098
-0.15707234
-0.16287333
-0.16823269
-0.17313205
-0.17763322
-0.18172895
-0.18547834
-0.1888735
-0.19200208
0.051469953
0.050767099
0.050024695
0.049177656
0.048230935
0.047158458
0.045957552
0.04459341
0.043064783
0.041343522
0.039399412
0.037207151
0.034745742
0.031980576
0.028881463
0.025427818
0.021591136
0.017339827
0.012652542
0.0075114325
0.0019067833
-0.0041609257
-0.010689838
-0.01766271
-0.025053588
-0.032824983
-0.040936998
-0.049333193
-0.057949434
-0.066720909
-0.075569997
-0.084418312
-0.093190999
-0.10180865
-0.11021224
-0.11833329
-0.12610747
-0.1334871
-0.14044984
-0.14696023
-0.15300514
-0.15859678
-0.163752
-0.16845515
-0.17276159
-0.17666689
-0.18022597
-0.18343407
-0.18637485
0.048079839
0.047404338
0.046688478
0.045870648
0.04495554
0.043918342
0.042755675
0.041435332
0.039954732
0.038287375
0.036405005
0.034283527
0.031902511
0.029229596
0.026236313
0.022902537
0.019201372
0.015103554
0.010589064
0.005641315
0.00025122732
-0.0055807758
-0.011852981
-0.018548489
-0.025643917
-0.033103912
-0.040890949
-0.048952924
-0.057229953
-0.065661495
-0.074174913
-0.082696928
-0.091156554
-0.099478042
-0.10760301
-0.11546399
-0.12299718
-0.13015401
-0.136909
-0.14322605
-0.14909039
-0.15451127
-0.15950364
-0.16405569
-0.16821916
-0.17199375
-0.17543239
-0.1785318
-0.18137454
0.044797904
0.044151564
0.043464463
0.042678251
0.041797384
0.040798254
0.039676868
0.038403428
0.036974216
0.035364299
0.033547266
0.031500204
0.029203286
0.026626254
0.023742251
0.020531639
0.016969028
0.013027298
0.0086876933
0.003934823
-0.0012397981
-0.0068358041
-0.012851745
-0.019271061
-0.026073095
-0.033224552
-0.040690501
-0.04842343
-0.056367747
-0.064467581
-0.07265565
-0.080864352
-0.089026973
-0.097071665
-0.10494101
-0.11256865
-0.11989108
-0.12685835
-0.13344118
-0.13960141
-0.14532083
-0.1506035
-0.15545945
-0.15987644
-0.16389895
-0.16752719
-0.17080966
-0.17374643
-0.17641608
0.041622531
0.041007091
0.040350646
0.039598118
0.03875365
0.037794838
0.036717172
0.035493121
0.03411802
0.032568459
0.030819774
0.028850218
0.02664061
0.024162656
0.021391015
0.018306545
0.014885254
0.011101987
0.0069391809
0.0023826117
-0.002575633
-0.0079352429
-0.013695117
-0.019839002
-0.026349069
-0.033193902
-0.040341416
-0.047748918
-0.055365171
-0.063139356
-0.071010097
-0.078916114
-0.086795438
-0.094580526
-0.10221547
-0.10963536
-0.11677706
-0.12358896
-0.13003773
-0.13608258
-0.14170189
-0.14689568
-0.15167178
-0.15602087
-0.15998575
-0.1635708
-0.16682435
-0.16974636
-0.17241669
0.038556871
0.037972762
0.037347526
0.036629576
0.035822588
0.034905415
0.033873064
0.032700163
0.031381227
0.029894328
0.028216448
0.026326988
0.024207445
0.021831375
0.019174848
0.016219209
0.012941739
0.0093190539
0.0053347323
0.00097572276
-0.0037653006
-0.0088880689
-0.014391881
-0.020260712
-0.02647967
-0.033018946
-0.039849544
-0.046933704
-0.054224483
-0.06167661
-0.069235173
-0.07684604
-0.084452488
-0.091991956
-0.099410964
-0.1066468
-0.11363697
-0.1203279
-0.12668131
-0.13265179
-0.13821114
-0.14335088
-0.14807005
-0.15235372
-0.15623394
-0.15971182
-0.16282911
-0.16559064
-0.16807006
0.035597189
0.035045418
0.034452137
0.03376972
0.03300112
0.032126574
0.031140677
0.030020178
0.028758924
0.027336475
0.025731386
0.02392419
0.021897085
0.019625353
0.017086375
0.014261961
0.011130536
0.0076703133
0.0038659719
-0.00029429051
-0.0048171522
-0.0097023531
-0.014949564
-0.020542955
-0.026470821
-0.032704753
-0.039219088
-0.04598079
-0.052947077
-0.060078597
-0.067327437
-0.074647351
-0.08198736
-0.089290924
-0.096508398
-0.10358066
-0.11044667
-0.11705126
-0.12335136
-0.12929689
-0.13485404
-0.14000889
-0.14475777
-0.14908871
-0.1530347
-0.1566024
-0.15983572
-0.16273686
-0.16538287
0.032750344
0.03222951
0.031666818
0.031018992
0.030288111
0.029455883
0.028516534
0.027448873
0.026246186
0.024889492
0.02335881
0.021635733
0.019703133
0.017537894
0.015118625
0.012427624
0.0094443693
0.0061484691
0.0025256394
-0.0014345512
-0.0057380359
-0.010384526
-0.015374007
-0.020690847
-0.026326663
-0.032254013
-0.038451066
-0.044889222
-0.051529707
-0.058339647
-0.065278498
-0.07230846
-0.079384698
-0.08645805
-0.093484418
-0.10040991
-0.107176
-0.11372642
-0.12001283
-0.12597808
-0.13157761
-0.13678308
-0.14157405
-0.14592324
-0.14984373
-0.15333136
-0.15641763
-0.15911363
-0.16148402
0.030007756
0.029518097
0.028985894
0.028372507
0.027679047
0.026888847
0.025995963
0.024981306
0.023837794
0.022547893
0.021092986
0.019455658
0.017619439
0.015562716
0.013265259
0.010709854
0.007876852
0.0047469169
0.0013066627
-0.0024527391
-0.0065363661
-0.010943974
-0.01567581
-0.02071633
-0.026059752
-0.031678275
-0.037554691
-0.043664589
-0.049973123
-0.056454816
-0.063077381
-0.069811729
-0.076619849
-0.083462288
-0.090302643
-0.09709431
-0.10378263
-0.11031157
-0.11662897
-0.12267261
-0.12839149
-0.13375137
-0.13872974
-0.14330398
-0.14749271
-0.15130039
-0.1547647
-0.15788783
-0.16074333
0.027383837
0.026920658
0.02641495
0.025832375
0.025173435
0.024423021
0.023575128
0.022612597
0.021528093
0.020305482
0.018927471
0.017377556
0.015639782
0.013693728
0.011520029
0.0091017963
0.0064200615
0.0034563187
0.0001981526
-0.0033612453
-0.007225998
-0.011395956
-0.01587143
-0.020636785
-0.025688569
-0.030997942
-0.036552564
-0.042330425
-0.048300079
-0.054444406
-0.060738261
-0.067162197
-0.0736858
-0.080282778
-0.086927573
-0.093584215
-0.10020461
-0.10673544
-0.11312118
-0.11929124
-0.12517828
-0.13072351
-0.13587252
-0.1405681
-0.14478871
-0.14851045
-0.15174401
-0.15450578
-0.15684436
0.024858074
0.024421014
0.023941456
0.023388715
0.022762941
0.022050633
0.021246236
0.020334807
0.01930928
0.018154981
0.016855763
0.015395629
0.013758642
0.011925057
0.0098761203
0.0075954865
0.0050653584
0.0022683778
-0.0008068084
-0.0041645563