/*--------------------------------*- C++ -*----------------------------------*\
| =========                 |                                                 |
| \\      /  F ield         | OpenFOAM: The Open Source CFD Toolbox           |
|  \\    /   O peration     | Version:  v2006                                 |
|   \\  /    A nd           | Website:  www.openfoam.com                      |
|    \\/     M anipulation  |                                                 |
\*---------------------------------------------------------------------------*/
FoamFile
{
    version     2.0;
    format      ascii;
    class       volScalarField;
    location    "5000";
    object      k;
}
// * * * * * * * * * * * * * * * * * * * * * * * * * * * * * * * * * * * * * //

dimensions      [0 2 -2 0 0 0 0];


internalField   nonuniform List<scalar> 
19765
(
0.00015498153
0.00015792193
0.00016089464
0.00016390293
0.00016724722
0.00017050754
0.00017431969
0.0001774623
0.00018170382
0.00018430178
0.00018661506
0.00018938276
0.00019214825
0.00019405202
0.00019630951
0.00019899897
0.00020132089
0.0002033436
0.00020588272
0.00020872016
0.00021161674
0.00021418562
0.00021694628
0.00022008233
0.00022305074
0.00022537356
0.00022796979
0.00023096503
0.00023349636
0.00023607366
0.00023899836
0.00024233366
0.00024646277
0.00024930524
0.00025099269
0.00025357048
0.00025739386
0.00026002804
0.00026355238
0.00026872961
0.00027263344
0.00027389942
0.00027688193
0.00027705885
0.0002775419
0.00027733956
0.00027660765
0.00027509894
0.00027278256
0.00015628766
0.00015899499
0.00016260825
0.00017083297
0.00017862309
0.00018661804
0.00019358769
0.00020281765
0.00021037763
0.00022040307
0.00023149157
0.00024054956
0.00024714158
0.00025289648
0.00025677966
0.0002581212
0.00025918016
0.00026104967
0.00026336013
0.00026583379
0.00026889116
0.00027263265
0.00027615196
0.00028002753
0.00028607322
0.00029420808
0.00030170132
0.00030919024
0.00031887368
0.00032886513
0.00033825111
0.0003466573
0.00035364863
0.0003635233
0.00037503336
0.0003836431
0.00038914903
0.0003959808
0.0003993052
0.00039905001
0.00040179343
0.00040480156
0.00039994674
0.00039875753
0.00039489613
0.00039037622
0.00038281441
0.00037306776
0.00036198113
1.656026e-05
1.5920542e-05
1.5574466e-05
1.6331516e-05
1.6771477e-05
1.7184764e-05
1.7272212e-05
1.7762256e-05
1.77683e-05
1.8267849e-05
1.8873084e-05
1.9054858e-05
1.8877752e-05
1.8713949e-05
1.8311707e-05
1.7677633e-05
1.7253265e-05
1.7001498e-05
1.676594e-05
1.6551334e-05
1.6520959e-05
1.6724166e-05
1.6876946e-05
1.7036649e-05
1.7586278e-05
1.866662e-05
1.9782151e-05
2.0945429e-05
2.2593112e-05
2.445714e-05
2.6368166e-05
2.8243618e-05
2.993006e-05
3.2424783e-05
3.5686503e-05
3.8682166e-05
4.1095833e-05
4.4215525e-05
4.6837781e-05
4.8256547e-05
5.0277529e-05
5.3995608e-05
5.5921642e-05
5.9334064e-05
6.1629573e-05
6.7516125e-05
7.5423066e-05
8.5259946e-05
9.317508e-05
3.7221302e-07
3.3353443e-07
3.136972e-07
3.1760506e-07
3.1851165e-07
3.1986918e-07
3.1669879e-07
3.1963884e-07
3.1555091e-07
3.1736594e-07
3.2057817e-07
3.1819479e-07
3.1106188e-07
3.0481842e-07
2.9664047e-07
2.8602025e-07
2.7897088e-07
2.7549217e-07
2.7220755e-07
2.6853001e-07
2.6849832e-07
2.7277179e-07
2.7563169e-07
2.7922295e-07
2.8884239e-07
3.0646332e-07
3.2577967e-07
3.4715563e-07
3.7654537e-07
4.1104914e-07
4.4895344e-07
4.8932127e-07
5.3058444e-07
5.8840384e-07
6.643265e-07
7.4325649e-07
8.2075748e-07
9.1952397e-07
1.0165412e-06
1.0988512e-06
1.2072141e-06
1.3712835e-06
1.5159876e-06
1.749594e-06
1.9797306e-06
2.3108583e-06
2.7106011e-06
3.2124512e-06
3.8039324e-06
7.4606315e-08
7.4582895e-08
7.5162427e-08
7.7077131e-08
7.8632722e-08
8.0150155e-08
8.1227867e-08
8.2775474e-08
8.3647713e-08
8.5083242e-08
8.6676212e-08
8.7751227e-08
8.8395294e-08
8.9141156e-08
8.9625194e-08
8.9783029e-08
9.0328783e-08
9.1290914e-08
9.213134e-08
9.2867096e-08
9.3914254e-08
9.5270394e-08
9.6614357e-08
9.8215063e-08
1.0054308e-07
1.0386542e-07
1.0743548e-07
1.1118845e-07
1.1575568e-07
1.2076012e-07
1.2592947e-07
1.3112715e-07
1.3604349e-07
1.4199239e-07
1.4896407e-07
1.5558909e-07
1.6135747e-07
1.6783609e-07
1.7358875e-07
1.7781041e-07
1.826963e-07
1.8948442e-07
1.9441759e-07
2.0194032e-07
2.0834677e-07
2.1678078e-07
2.2544963e-07
2.3245142e-07
2.3814936e-07
5.3001309e-08
5.3147409e-08
5.3564717e-08
5.4522896e-08
5.5280658e-08
5.6044323e-08
5.6642268e-08
5.7414836e-08
5.7910087e-08
5.8661383e-08
5.9398728e-08
5.9905447e-08
6.0270922e-08
6.0677063e-08
6.0975549e-08
6.1203334e-08
6.1631641e-08
6.2223358e-08
6.2773813e-08
6.3322538e-08
6.4006179e-08
6.4809459e-08
6.5744825e-08
6.6852516e-08
6.8263892e-08
7.0130998e-08
7.2173499e-08
7.4326736e-08
7.68526e-08
7.9635437e-08
8.255221e-08
8.555708e-08
8.8458872e-08
9.1725732e-08
9.5477477e-08
9.9264008e-08
1.0268868e-07
1.0633631e-07
1.0985666e-07
1.1274956e-07
1.1561111e-07
1.1941666e-07
1.2252615e-07
1.266757e-07
1.3055315e-07
1.352769e-07
1.4047048e-07
1.4617786e-07
1.5126481e-07
4.1243611e-08
4.1235708e-08
4.1361011e-08
4.1761237e-08
4.2073935e-08
4.2398098e-08
4.265417e-08
4.3003696e-08
4.3232913e-08
4.3591169e-08
4.3954873e-08
4.4218543e-08
4.4423484e-08
4.4655488e-08
4.4845035e-08
4.5009007e-08
4.5280197e-08
4.56461e-08
4.6009661e-08
4.6387609e-08
4.6827085e-08
4.7317197e-08
4.7891306e-08
4.857988e-08
4.9436471e-08
5.0524567e-08
5.1708108e-08
5.2968244e-08
5.442968e-08
5.6031704e-08
5.7718524e-08
5.9465362e-08
6.118683e-08
6.3102568e-08
6.5259703e-08
6.7440104e-08
6.9469435e-08
7.1615515e-08
7.371112e-08
7.5527521e-08
7.7351069e-08
7.9595418e-08
8.1527359e-08
8.3908545e-08
8.6149934e-08
8.8727626e-08
9.1451223e-08
9.4339048e-08
9.6987519e-08
3.5115857e-08
3.5112913e-08
3.5183152e-08
3.5406295e-08
3.5580271e-08
3.5760086e-08
3.5902602e-08
3.6095049e-08
3.6224125e-08
3.6422877e-08
3.6625718e-08
3.6779509e-08
3.6907212e-08
3.7053627e-08
3.7183953e-08
3.7308968e-08
3.7497336e-08
3.7742368e-08
3.799615e-08
3.8270551e-08
3.8589571e-08
3.8945833e-08
3.9363829e-08
3.9858445e-08
4.0454236e-08
4.1185896e-08
4.1982253e-08
4.2834948e-08
4.3812349e-08
4.4882428e-08
4.6015083e-08
4.7196882e-08
4.8380962e-08
4.9685255e-08
5.1138064e-08
5.2622899e-08
5.404155e-08
5.5537247e-08
5.7022524e-08
5.8369164e-08
5.9726615e-08
6.1335672e-08
6.2791146e-08
6.4521879e-08
6.6207494e-08
6.8123734e-08
7.0178603e-08
7.2396998e-08
7.453572e-08
3.1252341e-08
3.1238982e-08
3.1269028e-08
3.1391332e-08
3.148676e-08
3.1587528e-08
3.1668832e-08
3.1780875e-08
3.1858987e-08
3.1979128e-08
3.2104164e-08
3.2204576e-08
3.2293764e-08
3.2397046e-08
3.2495194e-08
3.2594901e-08
3.2735108e-08
3.2912266e-08
3.3099964e-08
3.3305341e-08
3.3540544e-08
3.3799969e-08
3.4099432e-08
3.4451691e-08
3.487054e-08
3.5374068e-08
3.5921804e-08
3.6510513e-08
3.7179503e-08
3.791015e-08
3.8685814e-08
3.9498649e-08
4.0322336e-08
4.1223355e-08
4.221682e-08
4.3235455e-08
4.4224091e-08
4.5262674e-08
4.6300737e-08
4.7264473e-08
4.8239183e-08
4.9355947e-08
5.0387243e-08
5.1570069e-08
5.2723524e-08
5.39981e-08
5.5337848e-08
5.6751538e-08
5.810022e-08
2.8801341e-08
2.8796882e-08
2.8817955e-08
2.8896347e-08
2.8957834e-08
2.9022846e-08
2.9076366e-08
2.9149245e-08
2.9202582e-08
2.9282556e-08
2.9366852e-08
2.9438421e-08
2.9505668e-08
2.9583766e-08
2.9661622e-08
2.9743739e-08
2.9853315e-08
2.9988304e-08
3.0133516e-08
3.0293669e-08
3.0476197e-08
3.0677577e-08
3.0907001e-08
3.1173542e-08
3.1486112e-08
3.1854976e-08
3.2255822e-08
3.2687501e-08
3.3174682e-08
3.370629e-08
3.427241e-08
3.4868377e-08
3.5478048e-08
3.6142231e-08
3.6870865e-08
3.7622712e-08
3.8362894e-08
3.9140257e-08
3.9924023e-08
4.066713e-08
4.1420707e-08
4.2269291e-08
4.3069728e-08
4.397201e-08
4.4863634e-08
4.584172e-08
4.6873826e-08
4.7971814e-08
4.9038544e-08
2.7134061e-08
2.7135235e-08
2.7152383e-08
2.7207029e-08
2.7251099e-08
2.7297925e-08
2.7338038e-08
2.7391174e-08
2.7432897e-08
2.7492488e-08
2.7556029e-08
2.7613168e-08
2.7669345e-08
2.7734068e-08
2.7800587e-08
2.7871916e-08
2.7962498e-08
2.807111e-08
2.8188517e-08
2.8317719e-08
2.8463343e-08
2.8623051e-08
2.8802238e-08
2.9007532e-08
2.9245425e-08
2.9521853e-08
2.9821509e-08
3.0144252e-08
3.0506073e-08
3.0900097e-08
3.1320288e-08
3.1763781e-08
3.2220462e-08
3.2716182e-08
3.3257275e-08
3.3817248e-08
3.4373736e-08
3.4957322e-08
3.5548097e-08
3.611522e-08
3.6691045e-08
3.7328139e-08
3.7935277e-08
3.8606364e-08
3.926961e-08
3.9985324e-08
4.0731877e-08
4.1515618e-08
4.2272155e-08
2.5971899e-08
2.5980421e-08
2.5998721e-08
2.6041985e-08
2.6078246e-08
2.6116611e-08
2.6150953e-08
2.6194353e-08
2.6231019e-08
2.6280133e-08
2.6332767e-08
2.6382496e-08
2.643294e-08
2.6490232e-08
2.6550142e-08
2.6614708e-08
2.6693128e-08
2.6784626e-08
2.6883394e-08
2.6991354e-08
2.711147e-08
2.7242283e-08
2.7386931e-08
2.7549977e-08
2.7736393e-08
2.7949792e-08
2.8180202e-08
2.8427973e-08
2.8703975e-08
2.9003924e-08
2.9324093e-08
2.9662813e-08
3.001357e-08
3.039356e-08
3.0807257e-08
3.1237112e-08
3.1667959e-08
3.2119948e-08
3.2579826e-08
3.3026364e-08
3.3480541e-08
3.3978286e-08
3.4457679e-08
3.498222e-08
3.5503553e-08
3.6062932e-08
3.6646215e-08
3.7259779e-08
3.7855481e-08
2.5137947e-08
2.5152292e-08
2.51728e-08
2.5210465e-08
2.5243535e-08
2.5278372e-08
2.5310927e-08
2.5350095e-08
2.5385423e-08
2.542978e-08
2.5477339e-08
2.5524007e-08
2.5572215e-08
2.5625993e-08
2.56826e-08
2.5743369e-08
2.5814241e-08
2.5894678e-08
2.5980884e-08
2.6074033e-08
2.6175996e-08
2.6285794e-08
2.6405211e-08
2.6537378e-08
2.6686175e-08
2.6853804e-08
2.703366e-08
2.7226324e-08
2.7439359e-08
2.7670079e-08
2.7916229e-08
2.8176927e-08
2.8447961e-08
2.8741025e-08
2.9059285e-08
2.9390806e-08
2.9725159e-08
3.0075847e-08
3.043375e-08
3.0783937e-08
3.1140443e-08
3.1527415e-08
3.1902313e-08
3.2307897e-08
3.2710944e-08
3.3139063e-08
3.3582199e-08
3.4044543e-08
3.4491122e-08
2.4527397e-08
2.4547179e-08
2.4570765e-08
2.4606332e-08
2.4638891e-08
2.4673011e-08
2.4705988e-08
2.4744006e-08
2.4780037e-08
2.482286e-08
2.4868638e-08
2.4914735e-08
2.4962774e-08
2.5015418e-08
2.5070841e-08
2.5129856e-08
2.5196282e-08
2.5269699e-08
2.5347532e-08
2.5430425e-08
2.5519514e-08
2.5614055e-08
2.5715002e-08
2.5824506e-08
2.5945563e-08
2.6079514e-08
2.6221947e-08
2.6373558e-08
2.653974e-08
2.6718878e-08
2.6909741e-08
2.7112009e-08
2.7322959e-08
2.7550748e-08
2.779775e-08
2.8055762e-08
2.831747e-08
2.8592217e-08
2.8873658e-08
2.9151055e-08
2.943393e-08
2.9739362e-08
3.0037103e-08
3.0357211e-08
3.0676158e-08
3.101345e-08
3.1361945e-08
3.1725362e-08
3.2076417e-08
2.4073888e-08
2.4098242e-08
2.4124979e-08
2.41603e-08
2.4193766e-08
2.4228722e-08
2.4263348e-08
2.430202e-08
2.4339958e-08
2.4383216e-08
2.4429267e-08
2.4476393e-08
2.4525649e-08
2.4578779e-08
2.463452e-08
2.4693288e-08
2.4757471e-08
2.4826697e-08
2.4899134e-08
2.4975029e-08
2.5054992e-08
2.5138366e-08
2.5225567e-08
2.5318064e-08
2.5418141e-08
2.5526584e-08
2.5640444e-08
2.5760469e-08
2.5890552e-08
2.6029851e-08
2.6177879e-08
2.6334643e-08
2.6498361e-08
2.6674822e-08
2.6865892e-08
2.7065943e-08
2.7269851e-08
2.7484185e-08
2.7704465e-08
2.7922864e-08
2.8145941e-08
2.8385687e-08
2.8620378e-08
2.8871119e-08
2.9120992e-08
2.9383611e-08
2.965365e-08
2.9933811e-08
3.0203099e-08
2.3732781e-08
2.3761261e-08
2.3791235e-08
2.3827491e-08
2.3862744e-08
2.3899492e-08
2.393652e-08
2.3976963e-08
2.4017562e-08
2.40625e-08
2.4110136e-08
2.4159343e-08
2.4210768e-08
2.4265512e-08
2.4322661e-08
2.4382322e-08
2.4445883e-08
2.4512972e-08
2.4582207e-08
2.4653527e-08
2.4727147e-08
2.4802417e-08
2.4879387e-08
2.495904e-08
2.504308e-08
2.5131922e-08
2.5223623e-08
2.5318941e-08
2.542073e-08
2.5528792e-08
2.5643138e-08
2.5763875e-08
2.5889873e-08
2.6025422e-08
2.6172147e-08
2.632626e-08
2.6484182e-08
2.6650616e-08
2.6822389e-08
2.6993745e-08
2.7169226e-08
2.735747e-08
2.75426e-08
2.7739774e-08
2.7936626e-08
2.8142937e-08
2.8354709e-08
2.857422e-08
2.8784653e-08
2.3474562e-08
2.3506704e-08
2.3539837e-08
2.3577712e-08
2.3615261e-08
2.3654377e-08
2.3694262e-08
2.373719e-08
2.3780938e-08
2.3828386e-08
2.3878498e-08
2.3930532e-08
2.3984826e-08
2.4042021e-08
2.410142e-08
2.4162871e-08
2.4227046e-08
2.429354e-08
2.436124e-08
2.4429826e-08
2.4499208e-08
2.4568693e-08
2.4638063e-08
2.4707949e-08
2.4779578e-08
2.4853112e-08
2.4927302e-08
2.50029e-08
2.508204e-08
2.5165119e-08
2.5252301e-08
2.5343662e-08
2.5438714e-08
2.554086e-08
2.5651584e-08
2.5768374e-08
2.5888736e-08
2.6016059e-08
2.6148102e-08
2.6280619e-08
2.641678e-08
2.6562789e-08
2.6706977e-08
2.686022e-08
2.7013388e-08
2.717345e-08
2.7337317e-08
2.750673e-08
2.7668288e-08
2.327817e-08
2.3313708e-08
2.3349974e-08
2.3389948e-08
2.3430148e-08
2.3472036e-08
2.3515107e-08
2.3561022e-08
2.3608283e-08
2.3658842e-08
2.371208e-08
2.3767507e-08
2.3825224e-08
2.3885533e-08
2.3947859e-08
2.4011838e-08
2.4077609e-08
2.4144712e-08
2.4212179e-08
2.4279476e-08
2.4346255e-08
2.4411756e-08
2.4475554e-08
2.4538019e-08
2.4599977e-08
2.4661411e-08
2.4721569e-08
2.4781182e-08
2.4841922e-08
2.4904732e-08
2.4969443e-08
2.5036343e-08
2.5105737e-08
2.5180409e-08
2.5261636e-08
2.5347776e-08
2.5437132e-08
2.5532203e-08
2.5631458e-08
2.5731793e-08
2.5835436e-08
2.5946902e-08
2.6057553e-08
2.6175278e-08
2.6293274e-08
2.6416576e-08
2.6542772e-08
2.6673296e-08
2.679723e-08
2.3129028e-08
2.3167744e-08
2.3207104e-08
2.3249497e-08
2.3292596e-08
2.3337543e-08
2.3384044e-08
2.343332e-08
2.3484383e-08
2.3538511e-08
2.3595381e-08
2.3654662e-08
2.3716269e-08
2.3780242e-08
2.3846072e-08
2.391321e-08
2.3981384e-08
2.4050066e-08
2.4118352e-08
2.4185516e-08
2.4250994e-08
2.4313933e-08
2.4373744e-08
2.44306e-08
2.4484982e-08
2.4536745e-08
2.4585497e-08
2.4631945e-08
2.4677516e-08
2.4723559e-08
2.476905e-08
2.4815357e-08
2.4863365e-08
2.4915118e-08
2.4971653e-08
2.5032015e-08
2.5095172e-08
2.5163039e-08
2.5234635e-08
2.5307726e-08
2.5383887e-08
2.5466389e-08
2.5548833e-08
2.5636924e-08
2.572556e-08
2.5818344e-08
2.5913357e-08
2.601172e-08
2.6104546e-08
2.301641e-08
2.3058191e-08
2.3100653e-08
2.3145726e-08
2.3191932e-08
2.3240181e-08
2.329033e-08
2.334328e-08
2.3398405e-08
2.3456492e-08
2.351742e-08
2.3580961e-08
2.3646876e-08
2.3714999e-08
2.3784845e-08
2.3855702e-08
2.392697e-08
2.399804e-08
2.4068018e-08
2.4136003e-08
2.4201238e-08
2.4262763e-08
2.4319852e-08
2.4372517e-08
2.4420954e-08
2.4464915e-08
2.4504274e-08
2.4539726e-08
2.4572614e-08
2.4604416e-08
2.4633071e-08
2.4662232e-08
2.4692205e-08
2.4724341e-08
2.4759694e-08
2.4797959e-08
2.4838656e-08
2.4883298e-08
2.4931323e-08
2.4981164e-08
2.5033932e-08
2.5092006e-08
2.5150652e-08
2.5213997e-08
2.5278204e-08
2.5345852e-08
2.5415399e-08
2.548775e-08
2.5555589e-08
2.2932615e-08
2.29774e-08
2.3022991e-08
2.3070956e-08
2.3120454e-08
2.317222e-08
2.3226222e-08
2.3283123e-08
2.3342562e-08
2.3404953e-08
2.3470322e-08
2.3538496e-08
2.3609112e-08
2.3681835e-08
2.3756171e-08
2.383126e-08
2.3906233e-08
2.398039e-08
2.4052807e-08
2.4122417e-08
2.4188289e-08
2.4249346e-08
2.4304737e-08
2.4354342e-08
2.4398117e-08
2.4435728e-08
2.4467248e-08
2.4493378e-08
2.4515473e-08
2.4534674e-08
2.4548971e-08
2.4563763e-08
2.4577798e-08
2.4592614e-08
2.460947e-08
2.462853e-08
2.4649714e-08
2.4674242e-08
2.4701876e-08
2.4731571e-08
2.4764116e-08
2.4801227e-08
2.4839439e-08
2.4881703e-08
2.4925134e-08
2.4971546e-08
2.5019685e-08
2.5070253e-08
2.5117232e-08
2.2871886e-08
2.2919672e-08
2.2968457e-08
2.3019517e-08
2.3072493e-08
2.3127986e-08
2.3186051e-08
2.3247173e-08
2.3311179e-08
2.3378208e-08
2.3448379e-08
2.3521553e-08
2.3597255e-08
2.3675006e-08
2.3754285e-08
2.3834092e-08
2.391333e-08
2.3991195e-08
2.4066707e-08
2.4138638e-08
2.4205897e-08
2.4267278e-08
2.4321817e-08
2.4369274e-08
2.440941e-08
2.444181e-08
2.44667e-08
2.4484803e-08
2.4497475e-08
2.4504635e-08
2.4509403e-08
2.4509711e-08
2.4509121e-08
2.4508607e-08
2.4509192e-08
2.451135e-08
2.4515335e-08
2.4522186e-08
2.4531932e-08
2.4543943e-08
2.455879e-08
2.4577707e-08
2.4598191e-08
2.4622333e-08
2.464797e-08
2.4676356e-08
2.4706459e-08
2.4738829e-08
2.4768489e-08
2.2829994e-08
2.288082e-08
2.2932889e-08
2.2987238e-08
2.3043881e-08
2.3103317e-08
2.3165665e-08
2.3231277e-08
2.3300118e-08
2.3372111e-08
2.3447443e-08
2.3525983e-08
2.3607156e-08
2.3690359e-08
2.3775025e-08
2.3860022e-08
2.3944049e-08
2.4026193e-08
2.4105392e-08
2.4180265e-08
2.4249561e-08
2.4311946e-08
2.4366342e-08
2.4412397e-08
2.4449715e-08
2.4477804e-08
2.4497006e-08
2.45081e-08
2.451231e-08
2.450532e-08
2.450085e-08
2.4491278e-08
2.4478428e-08
2.4464212e-08
2.4450152e-08
2.4437135e-08
2.4425701e-08
2.441676e-08
2.4410558e-08
2.4406803e-08
2.4405919e-08
2.4408784e-08
2.4413643e-08
2.4421943e-08
2.4432071e-08
2.4444863e-08
2.4459461e-08
2.4476272e-08
2.4491191e-08
2.2803764e-08
2.2857707e-08
2.291318e-08
2.2971022e-08
2.3031534e-08
2.309514e-08
2.3162009e-08
2.323239e-08
2.3306351e-08
2.3383645e-08
2.34645e-08
2.3548781e-08
2.3635821e-08
2.3724902e-08
2.3815401e-08
2.3906054e-08
2.3995375e-08
2.4082335e-08
2.4165772e-08
2.424415e-08
2.4316062e-08
2.4380044e-08
2.4434901e-08
2.4480176e-08
2.4515341e-08
2.4539832e-08
2.4554086e-08
2.4558932e-08
2.4555034e-08
2.4544649e-08
2.4527347e-08
2.4505229e-08
2.4480033e-08
2.4453097e-08
2.4425708e-08
2.4398898e-08
2.4373427e-08
2.4350143e-08
2.4329488e-08
2.4311455e-08
2.4296375e-08
2.4284872e-08
2.4275769e-08
2.4270034e-08
2.426648e-08
2.4265629e-08
2.426676e-08
2.4270165e-08
2.4272457e-08
2.2790854e-08
2.2848022e-08
2.2907045e-08
2.296859e-08
2.303319e-08
2.3101209e-08
2.3172856e-08
2.3248301e-08
2.3327686e-08
2.341063e-08
2.3497384e-08
2.3587796e-08
2.3681113e-08
2.3776511e-08
2.3873294e-08
2.3970072e-08
2.4065185e-08
2.4157477e-08
2.4245674e-08
2.4328081e-08
2.4403138e-08
2.4469243e-08
2.4525085e-08
2.4570106e-08
2.4603662e-08
2.4625122e-08
2.4635003e-08
2.4634147e-08
2.4623409e-08
2.4603891e-08
2.4577363e-08
2.4545359e-08
2.4509403e-08
2.4470822e-08
2.4431053e-08
2.4391411e-08
2.4352895e-08
2.4316342e-08
2.4282367e-08
2.4251197e-08
2.4223108e-08
2.4198536e-08
2.4176763e-08
2.4158393e-08
2.4142569e-08
2.4129579e-08
2.4118807e-08
2.4110441e-08
2.4101701e-08
2.2789531e-08
2.2850063e-08
2.2912807e-08
2.2978281e-08
2.3047206e-08
2.31199e-08
2.3196604e-08
2.3277427e-08
2.3362565e-08
2.3451528e-08
2.3544575e-08
2.3641528e-08
2.3741551e-08
2.3843717e-08
2.3947251e-08
2.4050633e-08
2.4152034e-08
2.4250167e-08
2.4343627e-08
2.4430563e-08
2.4509256e-08
2.4577964e-08
2.4635254e-08
2.468047e-08
2.4712866e-08
2.4731748e-08
2.4737697e-08
2.4731601e-08
2.4714276e-08
2.4687173e-08
2.4651915e-08
2.4610169e-08
2.4563698e-08
2.4513922e-08
2.4462391e-08
2.4410624e-08
2.4359815e-08
2.4310809e-08
2.426437e-08
2.4220927e-08
2.4180732e-08
2.4144088e-08
2.4110637e-08
2.4080715e-08
2.4053723e-08
2.4029768e-08
2.4008323e-08
2.3989482e-08
2.3970978e-08
2.2798555e-08
2.2862614e-08
2.2929274e-08
2.299892e-08
2.3072427e-08
2.3150079e-08
2.3232144e-08
2.3318681e-08
2.3409927e-08
2.3505298e-08
2.3605055e-08
2.3708982e-08
2.3816165e-08
2.3925571e-08
2.403634e-08
2.4146818e-08
2.4255012e-08
2.4359492e-08
2.4458715e-08
2.4550663e-08
2.4633458e-08
2.4705212e-08
2.4764368e-08
2.4810169e-08
2.4841778e-08
2.4858443e-08
2.48608e-08
2.4849778e-08
2.4826241e-08
2.4791714e-08
2.4747989e-08
2.4696885e-08
2.4640329e-08
2.4579812e-08
2.4517e-08
2.4453614e-08
2.4391035e-08
2.4330143e-08
2.4271847e-08
2.4216754e-08
2.4165109e-08
2.4117128e-08
2.407274e-08
2.403208e-08
2.3994752e-08
2.3960725e-08
2.3929541e-08
2.3901209e-08
2.3873903e-08
2.2817064e-08
2.2884839e-08
2.2955635e-08
2.3029713e-08
2.3108083e-08
2.3191e-08
2.3278755e-08
2.3371367e-08
2.3469103e-08
2.35713e-08
2.3678208e-08
2.3789571e-08
2.3904391e-08
2.4021536e-08
2.4140047e-08
2.4258134e-08
2.4373638e-08
2.4484979e-08
2.4590462e-08
2.4687901e-08
2.4775248e-08
2.4850466e-08
2.4911872e-08
2.4958603e-08
2.4989739e-08
2.5004472e-08
2.5003489e-08
2.4987769e-08
2.495822e-08
2.4916495e-08
2.4864522e-08
2.4804264e-08
2.4737816e-08
2.4666778e-08
2.4592947e-08
2.4518238e-08
2.4444208e-08
2.4371798e-08
2.4302049e-08
2.4235726e-08
2.4173088e-08
2.411429e-08
2.40595e-08
2.4008697e-08
2.3961648e-08
2.3918217e-08
2.3878001e-08
2.3840929e-08
2.3805559e-08
2.284451e-08
2.2916214e-08
2.299139e-08
2.3070184e-08
2.3153721e-08
2.3242234e-08
2.3336036e-08
2.3435114e-08
2.3539752e-08
2.3649222e-08
2.3763753e-08
2.3883043e-08
2.4006011e-08
2.413142e-08
2.4258205e-08
2.4384438e-08
2.4507788e-08
2.4626517e-08
2.4738767e-08
2.4842172e-08
2.4934515e-08
2.5013601e-08
2.5077613e-08
2.5125584e-08
2.5156513e-08
2.516954e-08
2.5165399e-08
2.5145122e-08
2.510968e-08
2.5060849e-08
2.5000704e-08
2.4931361e-08
2.4855092e-08
2.4773619e-08
2.4688885e-08
2.4602993e-08
2.4517673e-08
2.4433941e-08
2.4352969e-08
2.4275664e-08
2.4202315e-08
2.4133042e-08
2.4068204e-08
2.4007669e-08
2.3951331e-08
2.3898973e-08
2.3850236e-08
2.3804977e-08
2.3762086e-08
2.2880609e-08
2.2956478e-08
2.3036304e-08
2.3120119e-08
2.3209153e-08
2.3303623e-08
2.3403859e-08
2.3509822e-08
2.362181e-08
2.3739031e-08
2.3861689e-08
2.3989432e-08
2.4121093e-08
2.4255324e-08
2.439095e-08
2.4525892e-08
2.4657649e-08
2.4784309e-08
2.4903843e-08
2.5013699e-08
2.511148e-08
2.5194827e-08
2.5261785e-08
2.5311279e-08
2.5342228e-08
2.5353727e-08
2.534655e-08
2.5321789e-08
2.528049e-08
2.5224558e-08
2.515622e-08
2.5077755e-08
2.4991615e-08
2.4899665e-08
2.4804006e-08
2.4706926e-08
2.461033e-08
2.4515323e-08
2.4423205e-08
2.4335019e-08
2.425109e-08
2.4171526e-08
2.4096844e-08
2.4026828e-08
2.3961478e-08
2.3900511e-08
2.3843604e-08
2.3790544e-08
2.3740519e-08
2.2925302e-08
2.3005596e-08
2.3090369e-08
2.3179536e-08
2.3274426e-08
2.3375243e-08
2.3482334e-08
2.3595636e-08
2.3715455e-08
2.3840943e-08
2.3972272e-08
2.4109032e-08
2.4249966e-08
2.4393616e-08
2.4538682e-08
2.4682931e-08
2.4823681e-08
2.4958841e-08
2.5086196e-08
2.5202998e-08
2.5306663e-08
2.5394661e-08
2.5464893e-08
2.5516171e-08
2.5547338e-08
2.5557444e-08
2.5547304e-08
2.5518074e-08
2.5470883e-08
2.5407774e-08
2.5331132e-08
2.5243409e-08
2.5147244e-08
2.5044663e-08
2.4937935e-08
2.4829539e-08
2.4721554e-08
2.4615188e-08
2.451187e-08
2.441277e-08
2.4318262e-08
2.4228454e-08
2.4143999e-08
2.4064618e-08
2.3990397e-08
2.3921003e-08
2.3856141e-08
2.3795529e-08
2.3738624e-08
2.2978732e-08
2.3063738e-08
2.3153782e-08
2.3248662e-08
2.3349798e-08
2.3457385e-08
2.3571787e-08
2.369292e-08
2.3821093e-08
2.3955403e-08
2.4095986e-08
2.424237e-08
2.4393203e-08
2.4546908e-08
2.4702054e-08
2.4856245e-08
2.5006609e-08
2.5150864e-08
2.5286597e-08
2.5410857e-08
2.552086e-08
2.5613901e-08
2.5687728e-08
2.5741039e-08
2.5772597e-08
2.5781412e-08
2.5768338e-08
2.57346e-08
2.5681423e-08
2.5610991e-08
2.5525854e-08
2.5428647e-08
2.5322209e-08
2.5208741e-08
2.5090693e-08
2.497074e-08
2.4851137e-08
2.473321e-08
2.4618518e-08
2.4508356e-08
2.4403151e-08
2.4303025e-08
2.4208749e-08
2.4119999e-08
2.4036933e-08
2.3959173e-08
2.388645e-08
2.3818414e-08
2.375477e-08
2.3041235e-08
2.3131267e-08
2.3226936e-08
2.332792e-08
2.3435727e-08
2.3550544e-08
2.3672753e-08
2.3802249e-08
2.3939342e-08
2.4083075e-08
2.4233544e-08
2.4390205e-08
2.4551609e-08
2.4716052e-08
2.4881962e-08
2.5046771e-08
2.5207407e-08
2.5361385e-08
2.5506082e-08
2.563833e-08
2.5755141e-08
2.5853621e-08
2.5931363e-08
2.5986943e-08
2.6019045e-08
2.6026643e-08
2.6010628e-08
2.5972299e-08
2.5912985e-08
2.5835017e-08
2.5741123e-08
2.5634129e-08
2.5517082e-08
2.5392377e-08
2.5262658e-08
2.5130803e-08
2.4999251e-08
2.4869454e-08
2.4743106e-08
2.4621624e-08
2.4505497e-08
2.4394872e-08
2.4290621e-08
2.4192391e-08
2.4100397e-08
2.4014229e-08
2.3933637e-08
2.3858203e-08
2.3787864e-08
2.3113329e-08
2.3208731e-08
2.3310414e-08
2.3417926e-08
2.3532867e-08
2.3655416e-08
2.3785971e-08
2.3924409e-08
2.4071038e-08
2.4224846e-08
2.4385882e-08
2.4553528e-08
2.4726227e-08
2.4902144e-08
2.5079553e-08
2.5255701e-08
2.5427309e-08
2.5591675e-08
2.5745951e-08
2.5886742e-08
2.6010846e-08
2.6115172e-08
2.6197149e-08
2.6255228e-08
2.6288011e-08
2.6294441e-08
2.6275446e-08
2.6232402e-08
2.616675e-08
2.6080977e-08
2.5977995e-08
2.5860833e-08
2.5732762e-08
2.5596382e-08
2.545455e-08
2.5310354e-08
2.5166422e-08
2.5024347e-08
2.4885961e-08
2.4752801e-08
2.4625428e-08
2.450402e-08
2.4389542e-08
2.4281621e-08
2.4180523e-08
2.4085807e-08
2.3997241e-08
2.3914337e-08
2.3837258e-08
2.3195721e-08
2.3296869e-08
2.3404992e-08
2.3519497e-08
2.3642077e-08
2.3772905e-08
2.3912395e-08
2.4060406e-08
2.4217241e-08
2.4381832e-08
2.4554175e-08
2.4733571e-08
2.491835e-08
2.5106532e-08
2.5296229e-08
2.5484492e-08
2.5667819e-08
2.5843277e-08
2.6007782e-08
2.61577e-08
2.6289602e-08
2.6400191e-08
2.6486728e-08
2.6547531e-08
2.6581123e-08
2.6586414e-08
2.6564369e-08
2.6516448e-08
2.6444211e-08
2.6350309e-08
2.6237845e-08
2.6110066e-08
2.5970477e-08
2.5821905e-08
2.566743e-08
2.5510364e-08
2.5353529e-08
2.5198673e-08
2.5047769e-08
2.490248e-08
2.476344e-08
2.463087e-08
2.4505821e-08
2.4387905e-08
2.4277437e-08
2.4173947e-08
2.4077219e-08
2.3986693e-08
2.3902753e-08
2.3289317e-08
2.3396623e-08
2.3511653e-08
2.3633661e-08
2.3764433e-08
2.3904138e-08
2.4053206e-08
2.4211479e-08
2.4379251e-08
2.4555396e-08
2.4739852e-08
2.493183e-08
2.5129538e-08
2.5330843e-08
2.5533679e-08
2.5734888e-08
2.5930733e-08
2.6118034e-08
2.6293457e-08
2.6453115e-08
2.6593341e-08
2.6710627e-08
2.6802053e-08
2.6865806e-08
2.6900321e-08
2.6904484e-08
2.6879295e-08
2.6826302e-08
2.6747192e-08
2.6644784e-08
2.6522384e-08
2.6383471e-08
2.6231798e-08
2.6070437e-08
2.5902708e-08
2.5732153e-08
2.5561806e-08
2.5393574e-08
2.522958e-08
2.5071616e-08
2.4920397e-08
2.4776193e-08
2.4640136e-08
2.4511832e-08
2.4391637e-08
2.427906e-08
2.4173895e-08
2.4075509e-08
2.398451e-08
2.3395238e-08
2.3509156e-08
2.3631608e-08
2.3761677e-08
2.3901249e-08
2.4050488e-08
2.4209841e-08
2.4379131e-08
2.4558639e-08
2.4747181e-08
2.4944627e-08
2.5150092e-08
2.5361652e-08
2.5577008e-08
2.5793903e-08
2.6008954e-08
2.6218172e-08
2.6418117e-08
2.6605187e-08
2.6775232e-08
2.6924335e-08
2.7048765e-08
2.714542e-08
2.7212348e-08
2.7247895e-08
2.7250925e-08
2.7222473e-08
2.7164181e-08
2.7077868e-08
2.6966529e-08
2.6833683e-08
2.6683053e-08
2.6518661e-08
2.6343839e-08
2.6162163e-08
2.5977422e-08
2.5792864e-08
2.561057e-08
2.5432822e-08
2.5261545e-08
2.5097541e-08
2.4941136e-08
2.4793543e-08
2.4654369e-08
2.4524008e-08
2.4401949e-08
2.4287998e-08
2.4181442e-08
2.4083121e-08
2.3514853e-08
2.3635883e-08
2.3766326e-08
2.3905072e-08
2.4054113e-08
2.4213609e-08
2.4384023e-08
2.4565159e-08
2.4757282e-08
2.4959143e-08
2.517054e-08
2.539048e-08
2.5616896e-08
2.5847311e-08
2.6079258e-08
2.6309116e-08
2.6532626e-08
2.6746069e-08
2.6945561e-08
2.7126675e-08
2.7285233e-08
2.7417274e-08
2.7519506e-08
2.7589834e-08
2.7626515e-08
2.7628393e-08
2.759654e-08
2.7532693e-08
2.7438811e-08
2.7318069e-08
2.7174211e-08
2.7011221e-08
2.6833406e-08
2.6644378e-08
2.6447987e-08
2.6248276e-08
2.6048722e-08
2.5851591e-08
2.565933e-08
2.5474003e-08
2.5296509e-08
2.5127241e-08
2.4967488e-08
2.4816866e-08
2.4675807e-08
2.4543779e-08
2.4420603e-08
2.430548e-08
2.4199495e-08
2.3649812e-08
2.3778509e-08
2.3917573e-08
2.4065677e-08
2.4224929e-08
2.4395481e-08
2.4577814e-08
2.4771709e-08
2.4977413e-08
2.5193608e-08
2.5420007e-08
2.5655503e-08
2.589787e-08
2.6144438e-08
2.6392516e-08
2.663822e-08
2.6877008e-08
2.7104862e-08
2.73176e-08
2.7510502e-08
2.7679121e-08
2.7819257e-08
2.7927423e-08
2.8001378e-08
2.8039291e-08
2.8039986e-08
2.8004572e-08
2.7934889e-08
2.7833036e-08
2.7702373e-08
2.7546885e-08
2.7370833e-08
2.7178829e-08
2.6974782e-08
2.676283e-08
2.6547283e-08
2.6331858e-08
2.6119017e-08
2.5911383e-08
2.5711167e-08
2.5519376e-08
2.5336475e-08
2.5163838e-08
2.5001093e-08
2.4848711e-08
2.4706143e-08
2.4573225e-08
2.4449066e-08
2.4335013e-08
2.3802098e-08
2.3939079e-08
2.4087466e-08
2.4245688e-08
2.4415974e-08
2.459847e-08
2.4793673e-08
2.5001338e-08
2.5221691e-08
2.5453334e-08
2.5695893e-08
2.5948128e-08
2.6207643e-08
2.6471556e-08
2.6736931e-08
2.6999607e-08
2.7254731e-08
2.7497969e-08
2.7724825e-08
2.7930272e-08
2.8109585e-08
2.8258318e-08
2.8372784e-08
2.8450597e-08
2.8489834e-08
2.8489304e-08
2.8450154e-08
2.8374329e-08
2.8264069e-08
2.8122928e-08
2.7955142e-08
2.7765271e-08
2.755825e-08
2.7338303e-08
2.7109867e-08
2.6877535e-08
2.6645268e-08
2.6415739e-08
2.6191761e-08
2.5975703e-08
2.576869e-08
2.5571271e-08
2.538491e-08
2.5209253e-08
2.5044812e-08
2.4891025e-08
2.474774e-08
2.4613969e-08
2.4491348e-08
2.3974089e-08
2.4120044e-08
2.4278544e-08
2.4447733e-08
2.4629974e-08
2.4825404e-08
2.5034535e-08
2.5257095e-08
2.549328e-08
2.5741608e-08
2.60016e-08
2.6271873e-08
2.6549846e-08
2.6832402e-08
2.7116341e-08
2.7397199e-08
2.7669794e-08
2.7929454e-08
2.8171351e-08
2.8390139e-08
2.8580803e-08
2.873865e-08
2.8859792e-08
2.8941691e-08
2.8982341e-08
2.8980535e-08
2.8937458e-08
2.8855164e-08
2.8736033e-08
2.8583818e-08
2.8403021e-08
2.8198525e-08
2.7975602e-08
2.7738809e-08
2.7492891e-08
2.7242728e-08
2.6992544e-08
2.6745233e-08
2.6503814e-08
2.627083e-08
2.6047537e-08
2.5834587e-08
2.5633535e-08
2.5444058e-08
2.5266713e-08
2.5100925e-08
2.4946561e-08
2.4802524e-08
2.4670768e-08
2.4168636e-08
2.4324345e-08
2.4493849e-08
2.4674961e-08
2.4870194e-08
2.5079671e-08
2.5303917e-08
2.5542628e-08
2.5795964e-08
2.6062347e-08
2.6341182e-08
2.6630926e-08
2.6928788e-08
2.7231402e-08
2.7535277e-08
2.7835622e-08
2.8126903e-08
2.8404089e-08
2.8661998e-08
2.8894956e-08
2.9097652e-08
2.9265143e-08
2.9393338e-08
2.9479555e-08
2.95217e-08
2.9518557e-08
2.9471351e-08
2.9382243e-08
2.9253752e-08
2.9089835e-08
2.8895279e-08
2.8675307e-08
2.8435549e-08
2.8180897e-08
2.7916414e-08
2.7647274e-08
2.7377972e-08
2.7111649e-08
2.6851547e-08
2.6600404e-08
2.6359626e-08
2.6129979e-08
2.5913125e-08
2.5708776e-08
2.5517539e-08
2.5338828e-08
2.5172531e-08
2.5017433e-08
2.4875846e-08
2.4389161e-08
2.4555512e-08
2.4737032e-08
2.4931156e-08
2.5140558e-08
2.536534e-08
2.5606043e-08
2.5862319e-08
2.6134286e-08
2.6420255e-08
2.6719497e-08
2.7030291e-08
2.7349618e-08
2.7673831e-08
2.7999126e-08
2.8320361e-08
2.8631623e-08
2.8927498e-08
2.9202437e-08
2.9450424e-08
2.9665848e-08
2.9843518e-08
2.9979144e-08
3.0069903e-08
3.0113621e-08
3.0109073e-08
3.0057527e-08
2.996125e-08
2.9822892e-08
2.9646619e-08
2.9437526e-08
2.9201197e-08
2.8943624e-08
2.8670036e-08
2.8385811e-08
2.8096426e-08
2.7806669e-08
2.7519947e-08
2.7239755e-08
2.6969051e-08