/*--------------------------------*- C++ -*----------------------------------*\
| =========                 |                                                 |
| \\      /  F ield         | OpenFOAM: The Open Source CFD Toolbox           |
|  \\    /   O peration     | Version:  v2006                                 |
|   \\  /    A nd           | Website:  www.openfoam.com                      |
|    \\/     M anipulation  |                                                 |
\*---------------------------------------------------------------------------*/
FoamFile
{
    version     2.0;
    format      ascii;
    class       volScalarField;
    location    "5000";
    object      nut;
}
// * * * * * * * * * * * * * * * * * * * * * * * * * * * * * * * * * * * * * //

dimensions      [0 2 -1 0 0 0 0];


internalField   nonuniform List<scalar> 
19765
(
9.7765252e-06
9.7712451e-06
9.4779353e-06
9.5306074e-06
9.5278072e-06
9.6834828e-06
9.5982477e-06
9.7722704e-06
9.7418253e-06
9.5523629e-06
9.6565022e-06
1.003565e-05
1.0257507e-05
1.0449539e-05
1.0853105e-05
1.1024318e-05
1.0977595e-05
1.1133586e-05
1.1551216e-05
1.1917138e-05
1.2164712e-05
1.2290394e-05
1.2511488e-05
1.2650407e-05
1.2743922e-05
1.2801865e-05
1.2831807e-05
1.2773425e-05
1.2796475e-05
1.2682709e-05
1.2456984e-05
1.2168308e-05
1.2205198e-05
1.2356715e-05
1.2218578e-05
1.1883553e-05
1.1872422e-05
1.181486e-05
1.1541964e-05
1.1637277e-05
1.2019036e-05
1.2178196e-05
1.2139521e-05
1.245792e-05
1.2351298e-05
1.2590209e-05
1.2599494e-05
1.2572908e-05
1.2443752e-05
5.4188978e-05
5.6821126e-05
5.9035115e-05
6.0821477e-05
6.2979272e-05
6.5187131e-05
6.7412141e-05
6.9635534e-05
7.1927206e-05
7.3940014e-05
7.6315299e-05
7.8900346e-05
8.1120993e-05
8.3107382e-05
8.5149198e-05
8.6399647e-05
8.6709438e-05
8.7311577e-05
8.856201e-05
9.0066701e-05
9.1504185e-05
9.247537e-05
9.3309257e-05
9.4374911e-05
9.5418347e-05
9.5941165e-05
9.6184461e-05
9.6510547e-05
9.6757264e-05
9.6806317e-05
9.6742071e-05
9.6611536e-05
9.663164e-05
9.6498075e-05
9.5867856e-05
9.4946254e-05
9.4135611e-05
9.3030431e-05
9.1638143e-05
9.0614604e-05
8.9715573e-05
8.76902e-05
8.5529475e-05
8.1877102e-05
7.9274802e-05
7.3117012e-05
6.6256874e-05
5.9415746e-05
5.4305025e-05
1.5984367e-05
1.5313512e-05
1.4837377e-05
1.5079807e-05
1.5200126e-05
1.5315701e-05
1.5251065e-05
1.541437e-05
1.5317188e-05
1.5464211e-05
1.5705993e-05
1.574455e-05
1.5577951e-05
1.5410733e-05
1.5123418e-05
1.4680495e-05
1.4326224e-05
1.4087569e-05
1.3906517e-05
1.3760069e-05
1.3704051e-05
1.3758677e-05
1.3784009e-05
1.3844409e-05
1.414249e-05
1.4692931e-05
1.5201731e-05
1.5719863e-05
1.6462046e-05
1.7256976e-05
1.8028534e-05
1.8745625e-05
1.9389441e-05
2.0389868e-05
2.1637851e-05
2.2680231e-05
2.3493705e-05
2.456243e-05
2.5386238e-05
2.5812049e-05
2.6535211e-05
2.7787854e-05
2.8433267e-05
2.9616938e-05
3.0406538e-05
3.262597e-05
3.5509848e-05
3.8902669e-05
4.125766e-05
6.2466062e-07
5.5913274e-07
5.21237e-07
5.1582066e-07
5.0836427e-07
5.0161453e-07
4.9015268e-07
4.8621636e-07
4.7519015e-07
4.702327e-07
4.6756404e-07
4.5955531e-07
4.4656335e-07
4.3469396e-07
4.2157853e-07
4.0629416e-07
3.9475166e-07
3.8720441e-07
3.8089049e-07
3.7476283e-07
3.7217975e-07
3.7436389e-07
3.753349e-07
3.7739224e-07
3.8561003e-07
4.0101588e-07
4.1716774e-07
4.3526092e-07
4.6057057e-07
4.896745e-07
5.2108456e-07
5.5387912e-07
5.8771485e-07
6.3561503e-07
6.9659358e-07
7.5758783e-07
8.1783043e-07
8.939624e-07
9.6654707e-07
1.0296214e-06
1.1148303e-06
1.2361793e-06
1.3442008e-06
1.5116402e-06
1.6744504e-06
1.9090278e-06
2.194899e-06
2.5587196e-06
2.9891308e-06
1.6339977e-07
1.6288943e-07
1.631665e-07
1.6508503e-07
1.6677539e-07
1.6838499e-07
1.6945604e-07
1.7103629e-07
1.7185884e-07
1.7316904e-07
1.7477946e-07
1.7589833e-07
1.7651053e-07
1.7723547e-07
1.7773291e-07
1.7782365e-07
1.7824446e-07
1.7910198e-07
1.7984569e-07
1.8047017e-07
1.8146849e-07
1.8284366e-07
1.8411836e-07
1.8558002e-07
1.877106e-07
1.9072008e-07
1.9385649e-07
1.9713574e-07
2.0111859e-07
2.0535177e-07
2.0960065e-07
2.1374088e-07
2.1761951e-07
2.2243685e-07
2.279222e-07
2.3278859e-07
2.3696539e-07
2.4174877e-07
2.4569294e-07
2.4852853e-07
2.5229521e-07
2.5722058e-07
2.6077411e-07
2.6627788e-07
2.7085933e-07
2.7702523e-07
2.8303371e-07
2.875792e-07
2.919456e-07
1.4134513e-07
1.4149417e-07
1.4198317e-07
1.4314735e-07
1.4405185e-07
1.4496131e-07
1.4566338e-07
1.4657301e-07
1.4714155e-07
1.4801309e-07
1.4885281e-07
1.4941573e-07
1.4981334e-07
1.5025832e-07
1.5057967e-07
1.5082885e-07
1.5131658e-07
1.51989e-07
1.5261183e-07
1.5323212e-07
1.5399054e-07
1.5486725e-07
1.5591753e-07
1.5716814e-07
1.5874769e-07
1.6081696e-07
1.6305795e-07
1.6538626e-07
1.680711e-07
1.7097921e-07
1.7397541e-07
1.7701587e-07
1.7990433e-07
1.830916e-07
1.8667651e-07
1.9022916e-07
1.9338576e-07
1.966929e-07
1.9983862e-07
2.0239791e-07
2.0488793e-07
2.0816055e-07
2.1078621e-07
2.1425317e-07
2.1743586e-07
2.2126231e-07
2.253986e-07
2.2987631e-07
2.338105e-07
1.2426079e-07
1.2419503e-07
1.2432773e-07
1.2486264e-07
1.2527137e-07
1.2569665e-07
1.2602435e-07
1.2648588e-07
1.2677509e-07
1.2724783e-07
1.2772697e-07
1.2806284e-07
1.2831491e-07
1.2860414e-07
1.2883204e-07
1.290231e-07
1.2936402e-07
1.2983608e-07
1.3030387e-07
1.3079121e-07
1.3136309e-07
1.3200521e-07
1.3275395e-07
1.3365037e-07
1.3476563e-07
1.3617793e-07
1.3769819e-07
1.39299e-07
1.4113838e-07
1.4312928e-07
1.4519622e-07
1.473069e-07
1.4935578e-07
1.51607e-07
1.5410487e-07
1.5658729e-07
1.5885918e-07
1.6123129e-07
1.6351446e-07
1.6546683e-07
1.6740653e-07
1.6977198e-07
1.7177602e-07
1.742248e-07
1.7649556e-07
1.7907825e-07
1.8176912e-07
1.8458716e-07
1.871379e-07
1.1527254e-07
1.1522388e-07
1.1529413e-07
1.1560821e-07
1.1584486e-07
1.1609061e-07
1.1627785e-07
1.1654274e-07
1.1670835e-07
1.1698228e-07
1.1726125e-07
1.1746307e-07
1.1762413e-07
1.1781374e-07
1.1797807e-07
1.181346e-07
1.183889e-07
1.1872958e-07
1.1908338e-07
1.1946873e-07
1.199214e-07
1.2043059e-07
1.2103398e-07
1.217503e-07
1.2261374e-07
1.2367269e-07
1.24819e-07
1.2603771e-07
1.2742397e-07
1.2892699e-07
1.3050077e-07
1.3212492e-07
1.337334e-07
1.3548401e-07
1.3740808e-07
1.3934771e-07
1.4117633e-07
1.4308007e-07
1.4494708e-07
1.4662174e-07
1.4829073e-07
1.5024514e-07
1.5199153e-07
1.5404221e-07
1.5601378e-07
1.5822453e-07
1.6056063e-07
1.6304707e-07
1.6541309e-07
1.0885376e-07
1.087886e-07
1.0879929e-07
1.0896742e-07
1.0909093e-07
1.092238e-07
1.0932423e-07
1.0947604e-07
1.095708e-07
1.0973575e-07
1.0990789e-07
1.1003797e-07
1.1014887e-07
1.1028269e-07
1.1040735e-07
1.1053473e-07
1.107296e-07
1.1098537e-07
1.1125853e-07
1.1156119e-07
1.1191301e-07
1.1230537e-07
1.1276338e-07
1.1330612e-07
1.139552e-07
1.1473795e-07
1.1558764e-07
1.164973e-07
1.1752655e-07
1.1864338e-07
1.1981984e-07
1.2104252e-07
1.2227028e-07
1.2360069e-07
1.2505193e-07
1.2652305e-07
1.2793478e-07
1.2940212e-07
1.308529e-07
1.3218649e-07
1.3352197e-07
1.3503678e-07
1.3642009e-07
1.3799074e-07
1.395051e-07
1.4116041e-07
1.4287995e-07
1.4467443e-07
1.4636783e-07
1.0464525e-07
1.0459592e-07
1.0459379e-07
1.0469416e-07
1.0476524e-07
1.0484273e-07
1.0490011e-07
1.049912e-07
1.0504766e-07
1.0515065e-07
1.0526022e-07
1.0534647e-07
1.0542458e-07
1.0552111e-07
1.0561662e-07
1.057197e-07
1.0587116e-07
1.0606702e-07
1.0628103e-07
1.0652181e-07
1.0680225e-07
1.0711695e-07
1.0748167e-07
1.0791057e-07
1.0841857e-07
1.0902234e-07
1.0967957e-07
1.1038697e-07
1.1118425e-07
1.1205118e-07
1.1296975e-07
1.1393103e-07
1.1490767e-07
1.1596335e-07
1.171111e-07
1.1828446e-07
1.1942904e-07
1.2061986e-07
1.2180935e-07
1.2292775e-07
1.2405166e-07
1.2530468e-07
1.2647572e-07
1.2778222e-07
1.2906062e-07
1.3044802e-07
1.3189595e-07
1.3341989e-07
1.3488614e-07
1.0164455e-07
1.016053e-07
1.0159705e-07
1.0165838e-07
1.0170075e-07
1.0174818e-07
1.0178328e-07
1.0184163e-07
1.0187869e-07
1.0194792e-07
1.0202323e-07
1.0208575e-07
1.0214579e-07
1.0222071e-07
1.0229823e-07
1.0238455e-07
1.0250634e-07
1.0266117e-07
1.0283253e-07
1.0302638e-07
1.0325124e-07
1.0350368e-07
1.037935e-07
1.0413155e-07
1.0452951e-07
1.049976e-07
1.0550801e-07
1.0605953e-07
1.0667912e-07
1.073535e-07
1.0807081e-07
1.0882496e-07
1.0959772e-07
1.1043155e-07
1.1133528e-07
1.1226367e-07
1.1317956e-07
1.1413249e-07
1.1508961e-07
1.1600198e-07
1.1692107e-07
1.1792886e-07
1.1888185e-07
1.1992558e-07
1.209486e-07
1.2204243e-07
1.2317295e-07
1.2434937e-07
1.2547629e-07
9.9495704e-08
9.9469694e-08
9.9463575e-08
9.9505115e-08
9.953366e-08
9.9565969e-08
9.9590418e-08
9.9631174e-08
9.9658583e-08
9.9708755e-08
9.9764281e-08
9.9813045e-08
9.9862261e-08
9.9923558e-08
9.9989027e-08
1.0006324e-07
1.00164e-07
1.0028978e-07
1.0043001e-07
1.005889e-07
1.007723e-07
1.0097838e-07
1.0121325e-07
1.0148458e-07
1.0180183e-07
1.0217164e-07
1.0257524e-07
1.0301257e-07
1.035026e-07
1.0403637e-07
1.0460584e-07
1.0520713e-07
1.05828e-07
1.0649795e-07
1.072235e-07
1.0797319e-07
1.0872037e-07
1.0949887e-07
1.1028559e-07
1.1104497e-07
1.1181186e-07
1.1264501e-07
1.1344224e-07
1.1430679e-07
1.1515988e-07
1.160673e-07
1.1700565e-07
1.1798473e-07
1.1892932e-07
9.7914798e-08
9.7899207e-08
9.7896724e-08
9.7927738e-08
9.7949852e-08
9.7974942e-08
9.7995088e-08
9.8027037e-08
9.805064e-08
9.8090806e-08
9.8135692e-08
9.8177356e-08
9.8220913e-08
9.8274315e-08
9.8332344e-08
9.839836e-08
9.8484491e-08
9.8589732e-08
9.8707167e-08
9.8839756e-08
9.8991564e-08
9.9161646e-08
9.9353862e-08
9.9573602e-08
9.982862e-08
1.0012329e-07
1.0044478e-07
1.007937e-07
1.0118339e-07
1.0160748e-07
1.0206068e-07
1.02541e-07
1.0304042e-07
1.0357961e-07
1.0416309e-07
1.0476834e-07
1.0537601e-07
1.0600936e-07
1.0665176e-07
1.0727703e-07
1.0790937e-07
1.0858992e-07
1.0924561e-07
1.0994895e-07
1.106436e-07
1.1137566e-07
1.1212798e-07
1.1290746e-07
1.1365693e-07
9.6733928e-08
9.6727919e-08
9.6730388e-08
9.6756647e-08
9.677669e-08
9.679913e-08
9.6818504e-08
9.6846626e-08
9.6869613e-08
9.6904921e-08
9.694439e-08
9.6982759e-08
9.702369e-08
9.7072693e-08
9.7126267e-08
9.7186871e-08
9.7262853e-08
9.7353528e-08
9.745427e-08
9.7567165e-08
9.7695053e-08
9.7837483e-08
9.7996909e-08
9.8177116e-08
9.838441e-08
9.8621728e-08
9.8880248e-08
9.916097e-08
9.9473016e-08
9.9811842e-08
1.0017477e-07
1.0056145e-07
1.0096642e-07
1.0140398e-07
1.018771e-07
1.0236941e-07
1.0286662e-07
1.0338521e-07
1.0391314e-07
1.044309e-07
1.0495544e-07
1.0551688e-07
1.0606151e-07
1.0664207e-07
1.0721733e-07
1.0782104e-07
1.0844071e-07
1.0908269e-07
1.097008e-07
9.5840096e-08
9.5841866e-08
9.5849173e-08
9.5873696e-08
9.5893929e-08
9.5916204e-08
9.5936714e-08
9.5963916e-08
9.5988119e-08
9.6021721e-08
9.6059041e-08
9.6096548e-08
9.6136875e-08
9.618387e-08
9.6235133e-08
9.6292432e-08
9.636154e-08
9.644196e-08
9.6530519e-08
9.6628653e-08
9.6738331e-08
9.6859329e-08
9.6993195e-08
9.7142587e-08
9.7312596e-08
9.7505215e-08
9.7714388e-08
9.7941226e-08
9.8191358e-08
9.846231e-08
9.8754058e-08
9.9066905e-08
9.9396191e-08
9.9751417e-08
1.0013459e-07
1.005339e-07
1.0093896e-07
1.0136168e-07
1.0179328e-07
1.0221909e-07
1.0265114e-07
1.0311124e-07
1.0355965e-07
1.0403454e-07
1.0450542e-07
1.0499664e-07
1.0549869e-07
1.0601642e-07
1.0651318e-07
9.5155144e-08
9.5163652e-08
9.5175722e-08
9.5200408e-08
9.522218e-08
9.5245772e-08
9.5268515e-08
9.5296538e-08
9.5323022e-08
9.535685e-08
9.5394049e-08
9.5432233e-08
9.5473283e-08
9.5519889e-08
9.5570368e-08
9.5625953e-08
9.5690615e-08
9.5763953e-08
9.5843727e-08
9.5930879e-08
9.6026737e-08
9.6131161e-08
9.624509e-08
9.6370386e-08
9.651112e-08
9.6668655e-08
9.6838879e-08
9.7022713e-08
9.7222863e-08
9.7440213e-08
9.7676579e-08
9.7930988e-08
9.819859e-08
9.8486071e-08
9.879543e-08
9.9118457e-08
9.9447694e-08
9.9791897e-08
1.0014461e-07
1.0049465e-07
1.0085058e-07
1.012285e-07
1.0159856e-07
1.0198889e-07
1.0237666e-07
1.0277982e-07
1.0319114e-07
1.0361484e-07
1.0402083e-07
9.4625974e-08
9.4640121e-08
9.4656578e-08
9.4682453e-08
9.4706456e-08
9.473217e-08
9.475772e-08
9.4787595e-08
9.4816966e-08
9.4852235e-08
9.489062e-08
9.4930495e-08
9.4973185e-08
9.5020552e-08
9.5071383e-08
9.512648e-08
9.5188531e-08
9.5257171e-08
9.5330758e-08
9.5409841e-08
9.5495262e-08
9.5586879e-08
9.5685202e-08
9.5791524e-08
9.5909058e-08
9.6038748e-08
9.6177837e-08
9.6326733e-08
9.6485986e-08
9.666176e-08
9.6854638e-08
9.7060619e-08
9.7275794e-08
9.750621e-08
9.775418e-08
9.8014001e-08
9.8280219e-08
9.8559241e-08
9.8846211e-08
9.913254e-08
9.9424276e-08
9.9733232e-08
1.0003688e-07
1.0035589e-07
1.0067301e-07
1.0100139e-07
1.0133538e-07
1.0167832e-07
1.0200575e-07
9.421383e-08
9.4232892e-08
9.4253462e-08
9.4281189e-08
9.4307849e-08
9.4336186e-08
9.4364889e-08
9.4397275e-08
9.4429912e-08
9.4467428e-08
9.4507879e-08
9.4550151e-08
9.4595148e-08
9.4644128e-08
9.4696181e-08
9.4751766e-08
9.4812628e-08
9.4878402e-08
9.4947823e-08
9.502112e-08
9.5098754e-08
9.5180531e-08
9.5266649e-08
9.5357993e-08
9.5457048e-08
9.556447e-08
9.5678431e-08
9.5798562e-08
9.5924574e-08
9.6069133e-08
9.6226075e-08
9.638967e-08
9.6560132e-08
9.6743186e-08
9.6940726e-08
9.7148652e-08
9.7362936e-08
9.7588247e-08
9.7820886e-08
9.8054192e-08
9.8292425e-08
9.8544337e-08
9.8792812e-08
9.9053175e-08
9.9312337e-08
9.9580034e-08
9.9851835e-08
1.0013058e-07
1.0039602e-07
9.3891398e-08
9.3914742e-08
9.3939127e-08
9.3969083e-08
9.399862e-08
9.4029867e-08
9.4061912e-08
9.4097226e-08
9.413337e-08
9.4173679e-08
9.4216812e-08
9.4261995e-08
9.4309808e-08
9.4361058e-08
9.4415028e-08
9.4471893e-08
9.4532692e-08
9.4597036e-08
9.4663889e-08
9.4733214e-08
9.480516e-08
9.4879449e-08
9.4956045e-08
9.5035544e-08
9.51198e-08
9.5209275e-08
9.5302729e-08
9.5399067e-08
9.5499151e-08
9.5619431e-08
9.5743455e-08
9.5869733e-08
9.6003781e-08
9.6147911e-08
9.6303818e-08
9.6468869e-08
9.6640035e-08
9.6820591e-08
9.7007661e-08
9.7196082e-08
9.7388882e-08
9.7592564e-08
9.7794104e-08
9.8004877e-08
9.821489e-08
9.8431318e-08
9.8650633e-08
9.8875149e-08
9.9088113e-08
9.3638235e-08
9.3665433e-08
9.3693424e-08
9.3725871e-08
9.375844e-08
9.3792796e-08
9.3828321e-08
9.3866862e-08
9.3906696e-08
9.3950208e-08
9.3996484e-08
9.4044984e-08
9.4096028e-08
9.4150083e-08
9.4206547e-08
9.4265355e-08
9.432701e-08
9.4391074e-08
9.4456643e-08
9.4523454e-08
9.45914e-08
9.4660088e-08
9.4729307e-08
9.4799436e-08
9.48718e-08
9.4946713e-08
9.5023284e-08
9.5100654e-08
9.5183685e-08
9.5277555e-08
9.5370602e-08
9.5468164e-08
9.5573446e-08
9.5684622e-08
9.5806146e-08
9.593581e-08
9.6070876e-08
9.6213619e-08
9.6361947e-08
9.6511992e-08
9.6665979e-08
9.68288e-08
9.6990516e-08
9.7159616e-08
9.7328425e-08
9.7502259e-08
9.7678282e-08
9.7858435e-08
9.8028722e-08
9.3439438e-08
9.3470155e-08
9.3501577e-08
9.3536691e-08
9.3572392e-08
9.3609999e-08
9.3649107e-08
9.3691102e-08
9.3734779e-08
9.3781814e-08
9.3831603e-08
9.3883758e-08
9.3938393e-08
9.3995705e-08
9.4055159e-08
9.4116482e-08
9.4179757e-08
9.4244483e-08
9.4309821e-08
9.4375307e-08
9.4440617e-08
9.4505236e-08
9.4568807e-08
9.4631538e-08
9.4694323e-08
9.4757349e-08
9.4819984e-08
9.488534e-08
9.4967902e-08
9.5035261e-08
9.5091005e-08
9.5163338e-08
9.5241016e-08
9.5326125e-08
9.5419964e-08
9.5519596e-08
9.5623318e-08
9.5733241e-08
9.5848082e-08
9.5965003e-08
9.6085624e-08
9.6213587e-08
9.6341282e-08
9.6475009e-08
9.6608843e-08
9.6746688e-08
9.6886237e-08
9.7029079e-08
9.7163531e-08
9.3283683e-08
9.3317699e-08
9.3352448e-08
9.3390374e-08
9.3429302e-08
9.3470287e-08
9.3513082e-08
9.3558729e-08
9.3606398e-08
9.3657234e-08
9.3710855e-08
9.376697e-08
9.3825523e-08
9.3886496e-08
9.3949381e-08
9.4013726e-08
9.4079272e-08
9.414545e-08
9.4211433e-08
9.427658e-08
9.4340375e-08
9.440218e-08
9.4461508e-08
9.4518426e-08
9.4573488e-08
9.4626756e-08
9.4678069e-08
9.4727703e-08
9.4776256e-08
9.4825549e-08
9.4883471e-08
9.4936246e-08
9.4993626e-08
9.50559e-08
9.5123502e-08
9.519575e-08
9.5271848e-08
9.5353453e-08
9.5439628e-08
9.5528199e-08
9.5620289e-08
9.5718585e-08
9.581727e-08
9.5921011e-08
9.6025234e-08
9.61328e-08
9.6241825e-08
9.6353628e-08
9.6458415e-08
9.3162498e-08
9.3199667e-08
9.3237679e-08
9.3278543e-08
9.3320792e-08
9.3365278e-08
9.3411871e-08
9.3461353e-08
9.3513171e-08
9.3568062e-08
9.3625805e-08
9.3686166e-08
9.3748947e-08
9.3813955e-08
9.3880676e-08
9.3948501e-08
9.401689e-08
9.4085194e-08
9.4152566e-08
9.4218201e-08
9.4281414e-08
9.434144e-08
9.4397677e-08
9.4450069e-08
9.44989e-08
9.4544131e-08
9.4585732e-08
9.462441e-08
9.4663334e-08
9.4681656e-08
9.4728174e-08
9.4769691e-08
9.4809238e-08
9.4850683e-08
9.4896094e-08
9.4945448e-08
9.4998258e-08
9.5055771e-08
9.5117373e-08
9.5181479e-08
9.5248905e-08
9.5321651e-08
9.5395307e-08
9.5473317e-08
9.5552155e-08
9.5633894e-08
9.5716982e-08
9.58025e-08
9.588224e-08
9.306939e-08
9.3109633e-08
9.3150894e-08
9.3194825e-08
9.3240502e-08
9.3288621e-08
9.333914e-08
9.3392643e-08
9.3448781e-08
9.3507974e-08
9.3570118e-08
9.3635007e-08
9.370232e-08
9.3771714e-08
9.3842655e-08
9.3914384e-08
9.3986127e-08
9.4057147e-08
9.412655e-08
9.419338e-08
9.4256796e-08
9.4315908e-08
9.4370005e-08
9.4418924e-08
9.4462734e-08
9.4501294e-08
9.4534744e-08
9.456387e-08
9.4589052e-08
9.4615355e-08
9.463679e-08
9.4656999e-08
9.4678e-08
9.4701271e-08
9.4727691e-08
9.4757205e-08
9.4789617e-08
9.4825988e-08
9.4866034e-08
9.4908673e-08
9.4954513e-08
9.500504e-08
9.5056938e-08
9.511273e-08
9.5169698e-08
9.5229327e-08
9.5290331e-08
9.5353592e-08
9.5412222e-08
9.2999423e-08
9.3042716e-08
9.3087249e-08
9.3134378e-08
9.3183604e-08
9.3235501e-08
9.3290093e-08
9.3347811e-08
9.3408455e-08
9.3472201e-08
9.3539021e-08
9.3608721e-08
9.368087e-08
9.3754995e-08
9.3830522e-08
9.3906557e-08
9.3982121e-08
9.4056382e-08
9.4128381e-08
9.4197018e-08
9.4261307e-08
9.4320234e-08
9.4372985e-08
9.4419298e-08
9.4459071e-08
9.4492071e-08
9.4518559e-08
9.4539255e-08
9.4555312e-08
9.4566895e-08
9.4576019e-08
9.4583777e-08
9.4590922e-08
9.4598715e-08
9.4608297e-08
9.4620118e-08
9.4634373e-08
9.4652023e-08
9.4673042e-08
9.4696739e-08
9.4723574e-08
9.4754647e-08
9.4787496e-08
9.4823947e-08
9.4861915e-08
9.4902436e-08
9.4944439e-08
9.4988632e-08
9.5029241e-08
9.2948806e-08
9.2995167e-08
9.3043032e-08
9.3093504e-08
9.314642e-08
9.3202256e-08
9.3261088e-08
9.3323228e-08
9.3388585e-08
9.3457142e-08
9.3528919e-08
9.360372e-08
9.3681013e-08
9.3760208e-08
9.3840681e-08
9.3921409e-08
9.4001228e-08
9.4079207e-08
9.4154309e-08
9.4225291e-08
9.4291031e-08
9.4350395e-08
9.4402467e-08
9.4446894e-08
9.4483434e-08
9.4511771e-08
9.4532259e-08
9.4545658e-08
9.4552827e-08
9.4554942e-08
9.4553067e-08
9.4548388e-08
9.4542086e-08
9.4535506e-08
9.4529856e-08
9.4525831e-08
9.4523866e-08
9.4524833e-08
9.4528911e-08
9.4535738e-08
9.4545678e-08
9.4559548e-08
9.4575564e-08
9.4595024e-08
9.4616342e-08
9.4640219e-08
9.4665755e-08
9.4693511e-08
9.4718655e-08
9.291465e-08
9.2964137e-08
9.3015423e-08
9.3069396e-08
9.3126161e-08
9.3186115e-08
9.3249375e-08
9.331616e-08
9.3386457e-08
9.3460091e-08
9.3537117e-08
9.3617316e-08
9.3700069e-08
9.3784675e-08
9.3870451e-08
9.3956247e-08
9.4040733e-08
9.4122873e-08
9.4201536e-08
9.4275347e-08
9.4343045e-08
9.4403383e-08
9.445534e-08
9.4498483e-08
9.453245e-08
9.4556853e-08
9.4572119e-08
9.457902e-08
9.4578432e-08
9.4571454e-08
9.4559379e-08
9.4543542e-08
9.4525241e-08
9.4505774e-08
9.4486403e-08
9.4468061e-08
9.4451417e-08
9.4437309e-08
9.4426108e-08
9.4417724e-08
9.441247e-08
9.4410954e-08
9.4411933e-08
9.4416306e-08
9.4422879e-08
9.4432099e-08
9.4443208e-08
9.4456632e-08
9.4468347e-08
9.2894758e-08
9.294746e-08
9.3002284e-08
9.3059933e-08
9.3120724e-08
9.3184995e-08
9.3252895e-08
9.3324563e-08
9.3400047e-08
9.3479041e-08
9.3561616e-08
9.3647526e-08
9.3736064e-08
9.3826427e-08
9.3917862e-08
9.4009098e-08
9.4098646e-08
9.4185362e-08
9.4268013e-08
9.4345088e-08
9.4415197e-08
9.4476974e-08
9.4529303e-08
9.4571667e-08
9.4603606e-08
9.4624664e-08
9.4635333e-08
9.463641e-08
9.4628745e-08
9.4613546e-08
9.4592194e-08
9.4566104e-08
9.4536711e-08
9.4505337e-08
9.4473327e-08
9.4441826e-08
9.4411706e-08
9.4383803e-08
9.4358651e-08
9.4336394e-08
9.4317319e-08
9.4301885e-08
9.4289282e-08
9.4280109e-08
9.4273484e-08
9.4269661e-08
9.4267998e-08
9.4268806e-08
9.4268748e-08
9.2887489e-08
9.2943521e-08
9.3002028e-08
9.3063541e-08
9.3128557e-08
9.3197364e-08
9.3270133e-08
9.3346942e-08
9.342788e-08
9.3512533e-08
9.3600972e-08
9.3692917e-08
9.3787578e-08
9.388405e-08
9.3981505e-08
9.407855e-08
9.4173547e-08
9.4265235e-08
9.4352272e-08
9.4433013e-08
9.450594e-08
9.4569569e-08
9.4622688e-08
9.4664701e-08
9.4695062e-08
9.4713258e-08
9.4719831e-08
9.4715609e-08
9.4701444e-08
9.4678626e-08
9.4648629e-08
9.4612972e-08
9.4573221e-08
9.4530741e-08
9.4486965e-08
9.4443228e-08
9.4400588e-08
9.4359901e-08
9.4321851e-08
9.4286783e-08
9.4254981e-08
9.4226801e-08
9.4201782e-08
9.4180298e-08
9.4161715e-08
9.4146143e-08
9.4133035e-08
9.41226e-08
9.4112093e-08
9.2891643e-08
9.2951147e-08
9.3013503e-08
9.3079088e-08
9.3148547e-08
9.3222126e-08
9.3300017e-08
9.3382244e-08
9.3468924e-08
9.3559551e-08
9.3654184e-08
9.3752505e-08
9.3853638e-08
9.3956582e-08
9.4060424e-08
9.4163648e-08
9.4264473e-08
9.4361516e-08
9.4453319e-08
9.4538102e-08
9.4614217e-08
9.4680067e-08
9.4734341e-08
9.4776367e-08
9.4805525e-08
9.4821248e-08
9.4824126e-08
9.4815019e-08
9.4794796e-08
9.4764828e-08
9.4726687e-08
9.4681991e-08
9.4632437e-08
9.4579451e-08
9.4524567e-08
9.4469295e-08
9.4414865e-08
9.4362174e-08
9.4312043e-08
9.4264993e-08
9.4221322e-08
9.4181319e-08
9.4144806e-08
9.4111988e-08
9.4082435e-08
9.4056145e-08
9.4032651e-08
9.4012069e-08
9.3992172e-08
9.2906386e-08
9.2969526e-08
9.3035919e-08
9.31058e-08
9.317994e-08
9.3258549e-08
9.3341835e-08
9.3429778e-08
9.3522508e-08
9.3619441e-08
9.3720617e-08
9.382567e-08
9.393364e-08
9.4043429e-08
9.4154031e-08
9.4263811e-08
9.437084e-08
9.4473613e-08
9.4570546e-08
9.4659725e-08
9.4739372e-08
9.4807775e-08
9.4863526e-08
9.4905879e-08
9.4934144e-08
9.4947713e-08
9.4947212e-08
9.4933541e-08
9.4907597e-08
9.487083e-08
9.4824911e-08
9.4771561e-08
9.4712608e-08
9.4649557e-08
9.4584051e-08
9.4517765e-08
9.4452092e-08
9.4387985e-08
9.4326395e-08
9.4267997e-08
9.4213118e-08
9.4162007e-08
9.4114717e-08
9.407133e-08
9.403158e-08
9.3995381e-08
9.3962335e-08
9.3932472e-08
9.390402e-08
9.2931188e-08
9.2998148e-08
9.306879e-08
9.3143209e-08
9.3222287e-08
9.3306205e-08
9.339518e-08
9.3489155e-08
9.3588268e-08
9.369186e-08
9.3799944e-08
9.3912102e-08
9.402729e-08
9.414431e-08
9.4262058e-08
9.4378773e-08
9.4492385e-08
9.4601255e-08
9.4703673e-08
9.4797584e-08
9.4881085e-08
9.4952343e-08
9.5009859e-08
9.5052807e-08
9.508044e-08
9.5092111e-08
9.5088481e-08
9.5070489e-08
9.5039072e-08
9.4995761e-08
9.4942322e-08
9.4880587e-08
9.4812513e-08
9.4739704e-08
9.4663916e-08
9.4586987e-08
9.4510462e-08
9.4435367e-08
9.4362773e-08
9.4293496e-08
9.4227902e-08
9.4166219e-08
9.4108694e-08
9.4055319e-08
9.4005963e-08
9.3960478e-08
9.3918524e-08
9.3880052e-08
9.3843692e-08
9.2965781e-08
9.3036766e-08
9.3111888e-08
9.3191107e-08
9.3275401e-08
9.3364927e-08
9.345991e-08
9.3560256e-08
9.3666105e-08
9.3776728e-08
9.3892107e-08
9.4011763e-08
9.4134567e-08
9.4259217e-08
9.4384506e-08
9.4508545e-08
9.4629118e-08
9.4744451e-08
9.48527e-08
9.4951669e-08
9.5039324e-08
9.5113718e-08
9.5173255e-08
9.5217035e-08
9.5244253e-08
9.5254232e-08
9.5247665e-08
9.5225534e-08
9.5188819e-08
9.5139134e-08
9.5078344e-08
9.5008392e-08
9.4931373e-08
9.4848997e-08
9.4763147e-08
9.4675818e-08
9.4588703e-08
9.4502908e-08
9.4419624e-08
9.4339797e-08
9.4263836e-08
9.4191969e-08
9.4124604e-08
9.4061671e-08
9.4003149e-08
9.3948844e-08
9.3898467e-08
9.3851897e-08
9.3808125e-08
9.301013e-08
9.3085363e-08
9.3165219e-08
9.3249519e-08
9.333933e-08
9.3434785e-08
9.3536116e-08
9.3643195e-08
9.3756156e-08
9.3874207e-08
9.3997287e-08
9.4124854e-08
9.4255689e-08
9.4388385e-08
9.4521624e-08
9.4653382e-08
9.47813e-08
9.4903462e-08
9.501788e-08
9.5122222e-08
9.5214319e-08
9.5292108e-08
9.5353898e-08
9.5398715e-08
9.54257e-08
9.5434153e-08
9.5424795e-08
9.5398652e-08
9.5356755e-08
9.5300798e-08
9.5232749e-08
9.5154668e-08
9.506879e-08
9.4976946e-08
9.4881151e-08
9.4783557e-08
9.4686001e-08
9.4589681e-08
9.4495903e-08
9.4405731e-08
9.4319628e-08
9.4237835e-08
9.4160896e-08
9.4088699e-08
9.4021317e-08
9.3958524e-08
9.3900072e-08
9.3845774e-08
9.3794949e-08
9.3064412e-08
9.3144138e-08
9.3229003e-08
9.3318685e-08
9.3414336e-08
9.3516065e-08
9.3624109e-08
9.3738307e-08
9.3858782e-08
9.3984679e-08
9.411589e-08
9.4251803e-08
9.4391105e-08
9.4532278e-08
9.4673887e-08
9.4813772e-08
9.4949423e-08
9.5078776e-08
9.5199701e-08
9.530972e-08
9.5406532e-08
9.5487958e-08
9.5552213e-08
9.5598247e-08
9.5625153e-08
9.563221e-08
9.5620168e-08
9.5590098e-08
9.5543084e-08
9.5480902e-08
9.5405624e-08
9.5319433e-08
9.5224708e-08
9.5123415e-08
9.5017708e-08
9.4909894e-08
9.4801954e-08
9.4695183e-08
9.4590999e-08
9.4490584e-08
9.4394458e-08
9.4302883e-08
9.4216526e-08
9.4135246e-08
9.40592e-08
9.3988135e-08
9.3921846e-08
9.3860077e-08
9.3802456e-08
9.3129009e-08
9.3213492e-08
9.3303664e-08
9.3399052e-08
9.3500889e-08
9.3609264e-08
9.3724411e-08
9.384614e-08
9.3974557e-08
9.4108744e-08
9.4248539e-08
9.4393254e-08
9.4541479e-08
9.4691579e-08
9.4841993e-08
9.499042e-08
9.5134197e-08
9.5271107e-08
9.539887e-08
9.5514863e-08
9.5616652e-08
9.5701942e-08
9.5768853e-08
9.5816263e-08
9.5843219e-08
9.5848984e-08
9.5834334e-08
9.5800384e-08
9.5748278e-08
9.5679871e-08
9.5597342e-08
9.5503004e-08
9.5399387e-08
9.52886e-08
9.5172943e-08
9.5054877e-08
9.4936529e-08
9.4819294e-08
9.4704706e-08
9.4594055e-08
9.4487926e-08
9.4386614e-08
9.4290894e-08
9.420061e-08
9.4115991e-08
9.4036767e-08
9.396277e-08
9.389368e-08
9.3829415e-08
9.3204503e-08
9.3294029e-08
9.338983e-08
9.3491274e-08
9.3599671e-08
9.3715086e-08
9.3837756e-08
9.3967456e-08
9.4104271e-08
9.4247218e-08
9.4396076e-08
9.4550074e-08
9.4707698e-08
9.4867191e-08
9.5026861e-08
9.5184256e-08
9.5336556e-08
9.5481387e-08
9.5616316e-08
9.5738571e-08
9.5845586e-08
9.5934951e-08
9.6004693e-08
9.6053619e-08
9.6080731e-08
9.6085284e-08
9.6068076e-08
9.6030269e-08
9.5973062e-08
9.5898393e-08
9.5808551e-08
9.5705986e-08
9.5593384e-08
9.5473004e-08
9.5347303e-08
9.5218892e-08
9.5090041e-08
9.4962256e-08
9.4837183e-08
9.4716221e-08
9.4600025e-08
9.4488931e-08
9.4383814e-08
9.4284516e-08
9.419133e-08
9.4103976e-08
9.402232e-08
9.3945982e-08
9.3875156e-08
9.3291686e-08
9.3386566e-08
9.3488345e-08
9.359622e-08
9.3711577e-08
9.3834459e-08
9.39651e-08
9.4103239e-08
9.4248936e-08
9.4401143e-08
9.4559569e-08
9.4723356e-08
9.4890877e-08
9.5060249e-08
9.5229637e-08
9.5396435e-08
9.555766e-08
9.5710775e-08
9.585319e-08
9.5981985e-08
9.6094463e-08
9.6188099e-08
9.626083e-08
9.6311395e-08
9.6338753e-08
9.6342154e-08
9.6322418e-08
9.6280752e-08
9.6218412e-08
9.6137416e-08
9.6040169e-08
9.5929263e-08
9.5807547e-08
9.567744e-08
9.5541552e-08
9.540265e-08
9.5263145e-08
9.5124657e-08
9.4988947e-08
9.4857523e-08
9.4731115e-08
9.4610113e-08
9.4495481e-08
9.438707e-08
9.4285235e-08
9.418969e-08
9.4100335e-08
9.4016726e-08
9.3939333e-08
9.3391577e-08
9.3492144e-08
9.3600279e-08
9.371499e-08
9.383774e-08
9.3968546e-08
9.4107637e-08
9.4254717e-08
9.4409813e-08
9.4571807e-08
9.4740335e-08
9.491444e-08
9.5092379e-08
9.5272132e-08
9.5451712e-08
9.5628356e-08
9.5798909e-08
9.5960668e-08
9.6110881e-08
9.6246483e-08
9.6364644e-08
9.6462729e-08
9.653859e-08
9.6590899e-08
9.6618577e-08
9.6620871e-08
9.6598623e-08
9.6553081e-08
9.6485557e-08
9.6398151e-08
9.6293386e-08
9.6174005e-08
9.6043023e-08
9.5903023e-08
9.5756772e-08
9.5607192e-08
9.5456831e-08
9.5307429e-08
9.5160866e-08
9.5018761e-08
9.4881925e-08
9.4750811e-08
9.4626472e-08
9.4508779e-08
9.4398143e-08
9.429428e-08
9.4197125e-08
9.4106169e-08
9.4022159e-08
9.3505436e-08
9.3612055e-08
9.3726957e-08
9.3848942e-08
9.397955e-08
9.4118773e-08
9.426683e-08
9.4423386e-08
9.4588431e-08
9.4760772e-08
9.4939962e-08
9.512494e-08
9.5313837e-08
9.5504487e-08
9.5694747e-08
9.5881681e-08
9.6061964e-08
9.6232719e-08
9.639103e-08
9.6533688e-08
9.6657735e-08
9.6760431e-08
9.6839545e-08
9.6893686e-08
9.6921742e-08
9.6922961e-08
9.6898205e-08
9.6848761e-08
9.6775994e-08
9.6682084e-08
9.6569679e-08
9.6441677e-08
9.6301264e-08
9.6151189e-08
9.5994377e-08
9.5833895e-08
9.5672434e-08
9.5511856e-08
9.5354165e-08
9.5201095e-08
9.5053547e-08
9.4912045e-08
9.4777732e-08
9.4650504e-08
9.4530833e-08
9.4418437e-08
9.4313288e-08
9.4214811e-08
9.4124038e-08
9.3634805e-08
9.3747871e-08
9.3869989e-08
9.3999724e-08
9.4138696e-08
9.4286867e-08
9.4444445e-08
9.461105e-08
9.4786629e-08
9.4969909e-08
9.5160351e-08
9.535678e-08
9.5557193e-08
9.5759271e-08
9.5960701e-08
9.6158372e-08
9.634878e-08
9.6528869e-08
9.6695561e-08
9.6845503e-08
9.6975615e-08
9.7083058e-08
9.7165525e-08
9.722157e-08
9.7250049e-08
9.7250215e-08
9.7222951e-08
9.7169576e-08
9.7091504e-08
9.6990995e-08
9.6870828e-08
9.6734063e-08
9.6584055e-08
9.6423718e-08
9.6256127e-08
9.6084494e-08
9.591165e-08
9.5739588e-08
9.5570438e-08
9.5406058e-08
9.5247449e-08
9.5095216e-08
9.4950594e-08
9.4813518e-08
9.4684516e-08
9.4563322e-08
9.4449943e-08
9.4343737e-08
9.4246036e-08
9.378154e-08
9.3901488e-08
9.4031313e-08
9.4169318e-08
9.4317204e-08
9.4474901e-08
9.4642598e-08
9.4819868e-08
9.5006605e-08
9.5201451e-08
9.5403764e-08
9.5612245e-08
9.5824748e-08
9.603879e-08
9.6251881e-08
9.6460727e-08
9.6661639e-08
9.6851381e-08
9.7026711e-08
9.7184136e-08
9.7320461e-08
9.743276e-08
9.7518658e-08
9.7576657e-08
9.760559e-08
9.7604719e-08
9.7574943e-08
9.7517613e-08
9.7434181e-08
9.7326989e-08
9.7198952e-08
9.7053295e-08
9.6893541e-08
9.6722756e-08
9.6544163e-08
9.6361109e-08
9.6176566e-08
9.5992664e-08
9.5811671e-08
9.5635576e-08
9.5465491e-08
9.5302115e-08
9.5146776e-08
9.4999455e-08
9.4860743e-08
9.4730386e-08
9.4608434e-08
9.4494174e-08
9.4389254e-08
9.3947859e-08
9.4075168e-08
9.4213245e-08
9.4360092e-08
9.4517497e-08
9.4685348e-08
9.4863816e-08
9.5052415e-08
9.525098e-08
9.5458055e-08
9.5672888e-08
9.5894041e-08
9.6119218e-08
9.6345762e-08
9.6570996e-08
9.6791438e-08
9.7003209e-08
9.720289e-08
9.7387078e-08
9.7552146e-08
9.7694795e-08
9.7812021e-08
9.7901394e-08
9.7961376e-08
9.7990781e-08
9.7988883e-08
9.7956598e-08
9.7895298e-08
9.7806468e-08
9.7692531e-08
9.7556546e-08
9.7401901e-08
9.7232272e-08
9.7050871e-08
9.6861049e-08
9.6666286e-08
9.6469695e-08
9.6273553e-08
9.6080281e-08
9.5892007e-08
9.5709973e-08