/*--------------------------------*- C++ -*----------------------------------*\
| =========                 |                                                 |
| \\      /  F ield         | OpenFOAM: The Open Source CFD Toolbox           |
|  \\    /   O peration     | Version:  v2006                                 |
|   \\  /    A nd           | Website:  www.openfoam.com                      |
|    \\/     M anipulation  |                                                 |
\*---------------------------------------------------------------------------*/
FoamFile
{
    version     2.0;
    format      ascii;
    class       volScalarField;
    location    "5000";
    object      nutMean;
}
// * * * * * * * * * * * * * * * * * * * * * * * * * * * * * * * * * * * * * //

dimensions      [0 2 -1 0 0 0 0];


internalField   nonuniform List<scalar> 
19765
(
9.8707502e-06
9.8586543e-06
9.5539394e-06
9.5944909e-06
9.5805123e-06
9.7264963e-06
9.6312346e-06
9.7958557e-06
9.7545913e-06
9.5560789e-06
9.6504562e-06
1.0019921e-05
1.0233219e-05
1.0417964e-05
1.0814376e-05
1.0979361e-05
1.0925483e-05
1.1074834e-05
1.1484323e-05
1.184109e-05
1.2079327e-05
1.2196121e-05
1.2406896e-05
1.2535781e-05
1.2620508e-05
1.2671443e-05
1.2695335e-05
1.2632305e-05
1.265077e-05
1.2534272e-05
1.2307033e-05
1.2017452e-05
1.204925e-05
1.2195354e-05
1.2056439e-05
1.1722661e-05
1.1707716e-05
1.1647823e-05
1.1375183e-05
1.1464306e-05
1.1836353e-05
1.199125e-05
1.1950004e-05
1.2261624e-05
1.2155658e-05
1.2389202e-05
1.2397186e-05
1.2370481e-05
1.2243555e-05
5.5133423e-05
5.7867265e-05
6.004269e-05
6.1742922e-05
6.382507e-05
6.5955725e-05
6.8099134e-05
7.0232827e-05
7.2441734e-05
7.4352092e-05
7.6613878e-05
7.9085429e-05
8.1199451e-05
8.3079929e-05
8.5022208e-05
8.6216092e-05
8.6516919e-05
8.7108735e-05
8.8312543e-05
8.9733848e-05
9.1064064e-05
9.1923453e-05
9.2654685e-05
9.3630079e-05
9.4581769e-05
9.5009423e-05
9.5171374e-05
9.543322e-05
9.5623569e-05
9.5620089e-05
9.5506276e-05
9.5327029e-05
9.5300832e-05
9.5125869e-05
9.4458555e-05
9.3506115e-05
9.2667416e-05
9.153741e-05
9.0122669e-05
8.9071051e-05
8.8141656e-05
8.6116795e-05
8.396905e-05
8.0461455e-05
7.7878781e-05
7.1953053e-05
6.5306743e-05
5.8636939e-05
5.3658933e-05
1.6688521e-05
1.5941587e-05
1.5402829e-05
1.5607373e-05
1.5682733e-05
1.5752652e-05
1.563793e-05
1.575768e-05
1.5609421e-05
1.5714785e-05
1.5918156e-05
1.5914463e-05
1.5706827e-05
1.5506637e-05
1.5188324e-05
1.4718043e-05
1.4352097e-05
1.411341e-05
1.3923386e-05
1.3755663e-05
1.3663961e-05
1.3678666e-05
1.3671802e-05
1.3703549e-05
1.3968308e-05
1.4478765e-05
1.4950191e-05
1.5435038e-05
1.6140497e-05
1.689753e-05
1.7631939e-05
1.8313058e-05
1.8923349e-05
1.9881459e-05
2.1078586e-05
2.2075079e-05
2.2849837e-05
2.387112e-05
2.4652403e-05
2.5048094e-05
2.5731691e-05
2.6927217e-05
2.7537345e-05
2.8672421e-05
2.9427174e-05
3.1490714e-05
3.4195551e-05
3.7411035e-05
3.9638505e-05
6.706188e-07
5.9422498e-07
5.4881018e-07
5.3938937e-07
5.2819623e-07
5.1819076e-07
5.0357471e-07
4.9722757e-07
4.8372628e-07
4.7691968e-07
4.7267988e-07
4.6309023e-07
4.4867039e-07
4.3569997e-07
4.216258e-07
4.0556312e-07
3.9361807e-07
3.8587064e-07
3.7921227e-07
3.7265322e-07
3.6923624e-07
3.7035192e-07
3.7055225e-07
3.7202077e-07
3.7953916e-07
3.9399349e-07
4.0913889e-07
4.2621259e-07
4.5025017e-07
4.7788342e-07
5.0768302e-07
5.3874307e-07
5.7074159e-07
6.1615137e-07
6.7393366e-07
7.3158229e-07
7.8840738e-07
8.6023124e-07
9.2848496e-07
9.8756951e-07
1.0675299e-06
1.1815113e-06
1.2826799e-06
1.4399851e-06
1.5930666e-06
1.813874e-06
2.0825794e-06
2.4236716e-06
2.8257527e-06
1.6359052e-07
1.6291851e-07
1.630573e-07
1.6487089e-07
1.6646338e-07
1.6797492e-07
1.6894501e-07
1.7042892e-07
1.7114825e-07
1.7236528e-07
1.7388587e-07
1.7490942e-07
1.7542755e-07
1.7606195e-07
1.7646345e-07
1.764608e-07
1.7680183e-07
1.7758442e-07
1.7825839e-07
1.7882558e-07
1.7972611e-07
1.8095344e-07
1.8212319e-07
1.8351797e-07
1.8557042e-07
1.8846086e-07
1.9146206e-07
1.9461082e-07
1.9844567e-07
2.025177e-07
2.0660423e-07
2.1058344e-07
2.1430592e-07
2.1893922e-07
2.242167e-07
2.2888968e-07
2.3288935e-07
2.3747383e-07
2.412392e-07
2.4392384e-07
2.4750456e-07
2.5220512e-07
2.5556682e-07
2.6081279e-07
2.6515671e-07
2.7102999e-07
2.767894e-07
2.8121744e-07
2.853266e-07
1.4109289e-07
1.4116921e-07
1.4159693e-07
1.4270584e-07
1.4355266e-07
1.4440615e-07
1.4505358e-07
1.4590776e-07
1.4642218e-07
1.4724146e-07
1.4802632e-07
1.4853449e-07
1.4887976e-07
1.4927179e-07
1.4953825e-07
1.4973424e-07
1.5016993e-07
1.5078797e-07
1.5135782e-07
1.5193142e-07
1.5263702e-07
1.5344348e-07
1.5442713e-07
1.5562247e-07
1.5714406e-07
1.5913436e-07
1.612842e-07
1.6352478e-07
1.6611554e-07
1.689209e-07
1.7181192e-07
1.7474483e-07
1.7752943e-07
1.806054e-07
1.8406486e-07
1.8748872e-07
1.9052756e-07
1.9371208e-07
1.9673588e-07
1.9918926e-07
2.0157722e-07
2.0471969e-07
2.0723329e-07
2.1056033e-07
2.1360986e-07
2.1727969e-07
2.2124774e-07
2.255412e-07
2.293504e-07
1.2392046e-07
1.2382952e-07
1.2393641e-07
1.2444497e-07
1.2482509e-07
1.2522069e-07
1.2551838e-07
1.25948e-07
1.2620559e-07
1.266465e-07
1.2709199e-07
1.2739422e-07
1.2761404e-07
1.2787066e-07
1.2806549e-07
1.2822497e-07
1.2853472e-07
1.2897386e-07
1.2940885e-07
1.2986576e-07
1.3040527e-07
1.3100803e-07
1.3171556e-07
1.3257379e-07
1.336498e-07
1.3501138e-07
1.3647437e-07
1.3801914e-07
1.3979755e-07
1.4172163e-07
1.4371941e-07
1.4575896e-07
1.4773793e-07
1.4991441e-07
1.5232968e-07
1.5472821e-07
1.5692213e-07
1.5921382e-07
1.6141729e-07
1.6329859e-07
1.6516884e-07
1.674518e-07
1.6938274e-07
1.7174683e-07
1.739373e-07
1.7643135e-07
1.7903042e-07
1.8175149e-07
1.8421489e-07
1.149228e-07
1.1485481e-07
1.1490672e-07
1.1520185e-07
1.1541956e-07
1.156464e-07
1.1581527e-07
1.160607e-07
1.1620766e-07
1.1646234e-07
1.1672122e-07
1.1690324e-07
1.1704517e-07
1.1721516e-07
1.1735944e-07
1.1749617e-07
1.1773003e-07
1.1804877e-07
1.1838019e-07
1.187434e-07
1.1917224e-07
1.196538e-07
1.2022656e-07
1.2091229e-07
1.217445e-07
1.2276512e-07
1.2386867e-07
1.2504474e-07
1.2638434e-07
1.2783619e-07
1.2935666e-07
1.3092556e-07
1.3247908e-07
1.3417097e-07
1.3603033e-07
1.3790346e-07
1.3966886e-07
1.4150719e-07
1.4330851e-07
1.4492267e-07
1.4653214e-07
1.4841713e-07
1.5009955e-07
1.5207698e-07
1.5397664e-07
1.5610773e-07
1.5835931e-07
1.6075557e-07
1.630355e-07
1.0853657e-07
1.0846138e-07
1.0846159e-07
1.0861793e-07
1.0872965e-07
1.0885049e-07
1.0893922e-07
1.0907843e-07
1.091612e-07
1.0931348e-07
1.0947244e-07
1.0958969e-07
1.0968817e-07
1.0980923e-07
1.0992097e-07
1.1003549e-07
1.1021674e-07
1.1045775e-07
1.107157e-07
1.1100294e-07
1.1133838e-07
1.1171253e-07
1.1214976e-07
1.1267016e-07
1.1329613e-07
1.1405139e-07
1.1487062e-07
1.1574946e-07
1.167449e-07
1.178247e-07
1.189624e-07
1.2014475e-07
1.2133199e-07
1.2261922e-07
1.2402336e-07
1.2544621e-07
1.2681161e-07
1.2823121e-07
1.2963407e-07
1.3092299e-07
1.3221434e-07
1.3367927e-07
1.3501623e-07
1.3653554e-07
1.3799991e-07
1.3960147e-07
1.4126546e-07
1.4300228e-07
1.4464147e-07
1.0436105e-07
1.0430517e-07
1.0429625e-07
1.0438874e-07
1.044522e-07
1.0452199e-07
1.04572e-07
1.0465509e-07
1.0470408e-07
1.0479895e-07
1.0490012e-07
1.0497825e-07
1.0504844e-07
1.0513673e-07
1.0522384e-07
1.0531838e-07
1.0546051e-07
1.0564608e-07
1.058493e-07
1.0607876e-07
1.0634688e-07
1.0664792e-07
1.0699698e-07
1.0740831e-07
1.0789789e-07
1.0848028e-07
1.0911392e-07
1.0979711e-07
1.105677e-07
1.1140538e-07
1.1229313e-07
1.1322217e-07
1.141661e-07
1.1518689e-07
1.1629665e-07
1.1743078e-07
1.1853712e-07
1.1968836e-07
1.2083777e-07
1.2191804e-07
1.2300403e-07
1.2421463e-07
1.2534539e-07
1.2660753e-07
1.2784197e-07
1.2918194e-07
1.3058021e-07
1.3205168e-07
1.3346727e-07
1.0139769e-07
1.0135444e-07
1.0134186e-07
1.0139786e-07
1.0143517e-07
1.0147746e-07
1.0150769e-07
1.0156073e-07
1.0159288e-07
1.0165666e-07
1.0172638e-07
1.0178352e-07
1.0183831e-07
1.019077e-07
1.0197958e-07
1.0206007e-07
1.0217532e-07
1.0232281e-07
1.0248638e-07
1.0267189e-07
1.0288755e-07
1.031298e-07
1.0340787e-07
1.0373235e-07
1.041158e-07
1.0456733e-07
1.0505951e-07
1.055921e-07
1.0619081e-07
1.0684234e-07
1.0753552e-07
1.082644e-07
1.0901136e-07
1.098177e-07
1.1069159e-07
1.1158915e-07
1.124747e-07
1.1339624e-07
1.1432154e-07
1.1520338e-07
1.1609202e-07
1.170664e-07
1.1798748e-07
1.1899679e-07
1.1998585e-07
1.2104374e-07
1.2213723e-07
1.2327526e-07
1.243655e-07
9.9281397e-08
9.9252856e-08
9.9243964e-08
9.9281926e-08
9.9307149e-08
9.9336095e-08
9.9357396e-08
9.9394671e-08
9.9418924e-08
9.9465502e-08
9.951733e-08
9.9562565e-08
9.9608298e-08
9.9665872e-08
9.972751e-08
9.9797667e-08
9.9893746e-08
1.0001418e-07
1.0014863e-07
1.003012e-07
1.0047753e-07
1.0067567e-07
1.0090133e-07
1.0116187e-07
1.0146739e-07
1.018239e-07
1.022129e-07
1.0263492e-07
1.0310805e-07
1.0362336e-07
1.0417333e-07
1.0475411e-07
1.0535388e-07
1.0600122e-07
1.0670222e-07
1.0742636e-07
1.0814812e-07
1.0890024e-07
1.096601e-07
1.1039339e-07
1.1113415e-07
1.1193886e-07
1.1270861e-07
1.1354364e-07
1.1436737e-07
1.1524371e-07
1.1614986e-07
1.1709524e-07
1.1800723e-07
9.7729832e-08
9.7712651e-08
9.7708387e-08
9.7736961e-08
9.7756864e-08
9.7779713e-08
9.7797793e-08
9.7827433e-08
9.7848981e-08
9.788674e-08
9.7929154e-08
9.7968471e-08
9.8009689e-08
9.8060546e-08
9.811593e-08
9.8179079e-08
9.8261797e-08
9.8363079e-08
9.8476155e-08
9.8603897e-08
9.875019e-08
9.8914013e-08
9.9098917e-08
9.9310006e-08
9.9555467e-08
9.9839357e-08
1.0014903e-07
1.0048548e-07
1.0086144e-07
1.0127063e-07
1.017081e-07
1.0217177e-07
1.0265386e-07
1.0317439e-07
1.0373761e-07
1.0432174e-07
1.0490827e-07
1.0551973e-07
1.0613981e-07
1.0674332e-07
1.0735384e-07
1.0801094e-07
1.0864391e-07
1.0932315e-07
1.0999389e-07
1.1070095e-07
1.1142762e-07
1.1218058e-07
1.1290455e-07
9.6573939e-08
9.6566963e-08
9.656833e-08
9.6592957e-08
9.6611564e-08
9.6632549e-08
9.6650605e-08
9.6677229e-08
9.6698911e-08
9.6732632e-08
9.6770465e-08
9.6807286e-08
9.6846651e-08
9.6893908e-08
9.6945638e-08
9.7004185e-08
9.7077641e-08
9.7165331e-08
9.7262725e-08
9.7371829e-08
9.7495343e-08
9.763274e-08
9.7786251e-08
9.7959419e-08
9.8158807e-08
9.8387239e-08
9.8636032e-08
9.8906439e-08
9.9207212e-08
9.9533916e-08
9.9883945e-08
1.0025676e-07
1.0064708e-07
1.0106882e-07
1.0152482e-07
1.0199928e-07
1.0247856e-07
1.0297859e-07
1.0348759e-07
1.0398678e-07
1.0449267e-07
1.0503418e-07
1.0555939e-07
1.0611943e-07
1.0667425e-07
1.0725664e-07
1.0785439e-07
1.0847364e-07
1.0906979e-07
9.5701571e-08
9.5702772e-08
9.5709418e-08
9.5732857e-08
9.575217e-08
9.5773514e-08
9.5793201e-08
9.5819445e-08
9.5842841e-08
9.5875407e-08
9.5911654e-08
9.594815e-08
9.5987432e-08
9.6033225e-08
9.6083191e-08
9.6138995e-08
9.6206209e-08
9.6284342e-08
9.637029e-08
9.6465416e-08
9.6571578e-08
9.668848e-08
9.6817503e-08
9.6961107e-08
9.7124513e-08
9.7309731e-08
9.7510813e-08
9.7729072e-08
9.7969981e-08
9.8231043e-08
9.8512003e-08
9.8813029e-08
9.9129752e-08
9.9471498e-08
9.9840208e-08
1.002245e-07
1.0061446e-07
1.0102158e-07
1.014373e-07
1.0184748e-07
1.0226382e-07
1.0270724e-07
1.0313936e-07
1.0359716e-07
1.0405105e-07
1.0452466e-07
1.0500873e-07
1.0550794e-07
1.0598691e-07
9.503479e-08
9.5043001e-08
9.5054716e-08
9.5078708e-08
9.5099922e-08
9.5122949e-08
9.5145212e-08
9.5172653e-08
9.5198668e-08
9.5231843e-08
9.5268358e-08
9.5305895e-08
9.5346258e-08
9.5392038e-08
9.5441599e-08
9.5496084e-08
9.5559303e-08
9.5630864e-08
9.5708572e-08
9.5793303e-08
9.5886297e-08
9.5987345e-08
9.6097261e-08
9.6217743e-08
9.6352906e-08
9.6504209e-08
9.6667632e-08
9.6844308e-08
9.7036958e-08
9.724606e-08
9.7473058e-08
9.7717154e-08
9.7973928e-08
9.8249938e-08
9.8547092e-08
9.8857491e-08
9.9174016e-08
9.9505101e-08
9.9844425e-08
1.0018124e-07
1.0052382e-07
1.0088762e-07
1.0124382e-07
1.0161965e-07
1.0199296e-07
1.0238118e-07
1.0277725e-07
1.0318523e-07
1.0357613e-07
9.4521079e-08
9.4535105e-08
9.4551408e-08
9.4576857e-08
9.4600549e-08
9.4625947e-08
9.4651247e-08
9.4680795e-08
9.4709924e-08
9.4744803e-08
9.4782769e-08
9.4822247e-08
9.4864494e-08
9.4911296e-08
9.4961472e-08
9.501575e-08
9.5076687e-08
9.5143925e-08
9.5215853e-08
9.5292963e-08
9.5376023e-08
9.5464826e-08
9.555979e-08
9.566207e-08
9.5774867e-08
9.5899263e-08
9.6032594e-08
9.6175526e-08
9.6328736e-08
9.6497244e-08
9.668175e-08
9.6878795e-08
9.7084786e-08
9.7305541e-08
9.7543302e-08
9.7792599e-08
9.8048204e-08
9.8316243e-08
9.8591959e-08
9.8867081e-08
9.9147482e-08
9.9444475e-08
9.9736346e-08
1.0004309e-07
1.00348e-07
1.0066381e-07
1.0098504e-07
1.0131491e-07
1.0162983e-07
9.4122045e-08
9.4141103e-08
9.4161657e-08
9.418915e-08
9.4215668e-08
9.4243863e-08
9.4272474e-08
9.4304707e-08
9.4337257e-08
9.4374561e-08
9.4414776e-08
9.4456821e-08
9.4501542e-08
9.4550137e-08
9.4601721e-08
9.4656688e-08
9.4716676e-08
9.4781328e-08
9.4849397e-08
9.4921065e-08
9.4996731e-08
9.507614e-08
9.5159417e-08
9.5247334e-08
9.5342328e-08
9.5445218e-08
9.5554278e-08
9.5669613e-08
9.5790567e-08
9.592807e-08
9.6077699e-08
9.6233865e-08
9.6396615e-08
9.6571582e-08
9.6760677e-08
9.6959886e-08
9.7165272e-08
9.7381273e-08
9.7604289e-08
9.7827939e-08
9.805638e-08
9.8298e-08
9.8536321e-08
9.8786165e-08
9.9034856e-08
9.9291825e-08
9.9552765e-08
9.9820407e-08
1.0007522e-07
9.3810773e-08
9.3834189e-08
9.3858646e-08
9.3888499e-08
9.391801e-08
9.394923e-08
9.3981288e-08
9.4016567e-08
9.4052723e-08
9.4092945e-08
9.4135964e-08
9.4181034e-08
9.4228684e-08
9.4279675e-08
9.4333305e-08
9.4389695e-08
9.4449799e-08
9.451323e-08
9.4578966e-08
9.4646928e-08
9.4717216e-08
9.4789493e-08
9.4863666e-08
9.4940231e-08
9.5020982e-08
9.5106551e-08
9.5195823e-08
9.5288419e-08
9.5384511e-08
9.5497372e-08
9.5615236e-08
9.5735505e-08
9.5862932e-08
9.6000485e-08
9.6149506e-08
9.6307223e-08
9.6470698e-08
9.664313e-08
9.6821795e-08
9.7001787e-08
9.7186071e-08
9.7380878e-08
9.7573672e-08
9.7775446e-08
9.7976522e-08
9.8183843e-08
9.839398e-08
9.8609154e-08
9.8813222e-08
9.3567117e-08
9.3594434e-08
9.3622554e-08
9.365499e-08
9.368761e-08
9.3722017e-08
9.3757623e-08
9.3796207e-08
9.3836119e-08
9.3879624e-08
9.3925869e-08
9.3974331e-08
9.4025289e-08
9.407917e-08
9.4135383e-08
9.419382e-08
9.4254911e-08
9.4318221e-08
9.4382853e-08
9.444851e-08
9.4515042e-08
9.4582006e-08
9.4649139e-08
9.4716733e-08
9.4786055e-08
9.4857582e-08
9.4930501e-08
9.5004259e-08
9.5083471e-08
9.5172049e-08
9.5259377e-08
9.535193e-08
9.5451541e-08
9.5557668e-08
9.5673251e-08
9.5796312e-08
9.5924459e-08
9.6060007e-08
9.6200991e-08
9.6343724e-08
9.6490363e-08
9.6645574e-08
9.6799795e-08
9.696121e-08
9.7122394e-08
9.7288481e-08
9.7456715e-08
9.7628958e-08
9.7791731e-08
9.3376446e-08
9.3407308e-08
9.3438895e-08
9.3474058e-08
9.350986e-08
9.3547567e-08
9.3586798e-08
9.3628886e-08
9.3672679e-08
9.371976e-08
9.3769572e-08
9.3821737e-08
9.3876335e-08
9.3933531e-08
9.3992796e-08
9.4053821e-08
9.4116629e-08
9.4180722e-08
9.4245262e-08
9.4309759e-08
9.437385e-08
9.4436977e-08
9.4498738e-08
9.4559261e-08
9.4619389e-08
9.467946e-08
9.4739038e-08
9.4799879e-08
9.4876941e-08
9.4942018e-08
9.4994721e-08
9.5062597e-08
9.5136089e-08
9.5216239e-08
9.530421e-08
9.5397794e-08
9.5495453e-08
9.5599202e-08
9.5707783e-08
9.5818466e-08
9.5932809e-08
9.605428e-08
9.6175568e-08
9.630274e-08
9.6430073e-08
9.6561334e-08
9.6694282e-08
9.6830439e-08
9.6958564e-08
9.3227649e-08
9.3261825e-08
9.3296757e-08
9.3334772e-08
9.3373831e-08
9.3414947e-08
9.345789e-08
9.3503658e-08
9.3551466e-08
9.360238e-08
9.3656055e-08
9.3712209e-08
9.3770755e-08
9.383165e-08
9.3894388e-08
9.3958487e-08
9.402364e-08
9.4089276e-08
9.4154569e-08
9.4218856e-08
9.4281589e-08
9.434209e-08
9.4399835e-08
9.4454815e-08
9.4507542e-08
9.4558221e-08
9.4606755e-08
9.4653625e-08
9.4698337e-08
9.4744122e-08
9.479853e-08
9.4848111e-08
9.4901163e-08
9.4958677e-08
9.502137e-08
9.5088618e-08
9.5159648e-08
9.5236025e-08
9.531685e-08
9.5400054e-08
9.5486729e-08
9.5579436e-08
9.56726e-08
9.5770709e-08
9.5869354e-08
9.5971289e-08
9.6074683e-08
9.6180799e-08
9.6280219e-08
9.3112444e-08
9.3149777e-08
9.3187979e-08
9.3228956e-08
9.3271353e-08
9.3315985e-08
9.3362738e-08
9.3412356e-08
9.3464322e-08
9.3519308e-08
9.3577123e-08
9.3637538e-08
9.3700329e-08
9.3765281e-08
9.3831883e-08
9.3899498e-08
9.3967547e-08
9.403538e-08
9.4102147e-08
9.4167025e-08
9.4229303e-08
9.428818e-08
9.434302e-08
9.4393698e-08
9.4440465e-08
9.4483407e-08
9.4522591e-08
9.4558657e-08
9.4594657e-08
9.4612478e-08
9.4654199e-08
9.4691435e-08
9.4727075e-08
9.4764621e-08
9.4805944e-08
9.4851021e-08
9.4899428e-08
9.4952382e-08
9.500932e-08
9.5068752e-08
9.5131472e-08
9.5199382e-08
9.5268265e-08
9.5341428e-08
9.5415472e-08
9.5492389e-08
9.5570672e-08
9.5651353e-08
9.5726543e-08
9.3024485e-08
9.3064891e-08
9.3106342e-08
9.3150398e-08
9.319623e-08
9.3244501e-08
9.3295182e-08
9.3348827e-08
9.3405112e-08
9.3464408e-08
9.352663e-08
9.3591579e-08
9.365891e-08
9.3728261e-08
9.37991e-08
9.3870644e-08
9.3942087e-08
9.4012689e-08
9.4081555e-08
9.414771e-08
9.4210293e-08
9.4268383e-08
9.4321237e-08
9.4368631e-08
9.4410605e-08
9.4447132e-08
9.4478428e-08
9.4505259e-08
9.452801e-08
9.4551179e-08
9.456978e-08
9.4587094e-08
9.460497e-08
9.4624853e-08
9.4647648e-08
9.467338e-08
9.4701918e-08
9.4734302e-08
9.4770286e-08
9.4808858e-08
9.485061e-08
9.4896952e-08
9.4944722e-08
9.4996335e-08
9.5049176e-08
9.5104666e-08
9.5161558e-08
9.5220691e-08
9.5275448e-08
9.2958967e-08
9.3002416e-08
9.3047133e-08
9.3094393e-08
9.3143773e-08
9.319582e-08
9.325057e-08
9.3308428e-08
9.3369213e-08
9.3433062e-08
9.3499961e-08
9.356972e-08
9.3641888e-08
9.3715975e-08
9.379141e-08
9.3867277e-08
9.394257e-08
9.4016455e-08
9.408797e-08
9.4155999e-08
9.4219537e-08
9.4277547e-08
9.4329183e-08
9.4374129e-08
9.4412259e-08
9.444344e-08
9.4468006e-08
9.4486651e-08
9.4500469e-08
9.4509721e-08
9.4516297e-08
9.4521304e-08
9.4525548e-08
9.453029e-08
9.4536671e-08
9.4545176e-08
9.4556043e-08
9.4570213e-08
9.4587688e-08
9.4607838e-08
9.4631111e-08
9.465855e-08
9.4687817e-08
9.4720654e-08
9.4755058e-08
9.4792018e-08
9.4830494e-08
9.4871156e-08
9.4908463e-08
9.2912202e-08
9.2958711e-08
9.300675e-08
9.3057352e-08
9.3110416e-08
9.3166397e-08
9.3225379e-08
9.3287652e-08
9.3353141e-08
9.3421794e-08
9.3493647e-08
9.35685e-08
9.3645809e-08
9.3724967e-08
9.3805353e-08
9.3885923e-08
9.3965493e-08
9.4043128e-08
9.4117787e-08
9.4188215e-08
9.4253274e-08
9.4311807e-08
9.4362871e-08
9.4406065e-08
9.4441125e-08
9.4467825e-08
9.4486582e-08
9.4498133e-08
9.4503309e-08
9.4503259e-08
9.4499076e-08
9.4491959e-08
9.4483105e-08
9.4473839e-08
9.4465368e-08
9.4458421e-08
9.4453473e-08
9.4451381e-08
9.4452351e-08
9.445607e-08
9.4462895e-08
9.4473597e-08
9.4486493e-08
9.4502817e-08
9.4521048e-08
9.4541849e-08
9.4564348e-08
9.4589073e-08
9.4611391e-08
9.2881391e-08
9.2931014e-08
9.2982462e-08
9.3036561e-08
9.3093465e-08
9.3153556e-08
9.3216955e-08
9.3283862e-08
9.3354279e-08
9.3428002e-08
9.3505094e-08
9.3585338e-08
9.3668101e-08
9.3752668e-08
9.3838357e-08
9.3924002e-08
9.4008255e-08
9.4090075e-08
9.416833e-08
9.424163e-08
9.4308704e-08
9.4368282e-08
9.4419322e-08
9.4461345e-08
9.4493972e-08
9.4516891e-08
9.4530588e-08
9.4535814e-08
9.4533416e-08
9.4524491e-08
9.4510345e-08
9.4492316e-08
9.447172e-08
9.4449848e-08
9.4427964e-08
9.4407029e-08
9.4387743e-08
9.4370937e-08
9.4357e-08
9.4345884e-08
9.4337896e-08
9.4333611e-08
9.4331864e-08
9.4333506e-08
9.4337396e-08
9.4343952e-08
9.4352437e-08
9.4363251e-08
9.4372537e-08
9.286441e-08
9.2917236e-08
9.297221e-08
9.3029976e-08
9.3090896e-08
9.3155293e-08
9.3223318e-08
9.3295097e-08
9.3370687e-08
9.344976e-08
9.3532391e-08
9.3618337e-08
9.3706876e-08
9.3797197e-08
9.3888543e-08
9.3979632e-08
9.4068959e-08
9.4155375e-08
9.4237644e-08
9.4314245e-08
9.4383776e-08
9.4444855e-08
9.4496341e-08
9.4537682e-08
9.4568399e-08
9.4588104e-08
9.4597341e-08
9.4596888e-08
9.458757e-08
9.4570597e-08
9.4547359e-08
9.4519282e-08
9.4487816e-08
9.445428e-08
9.4420022e-08
9.4386209e-08
9.435374e-08
9.4323445e-08
9.4295875e-08
9.4271207e-08
9.4249725e-08
9.4231861e-08
9.421687e-08
9.420531e-08
9.4196344e-08
9.4190204e-08
9.4186264e-08
9.4184814e-08
9.418266e-08
9.2859681e-08
9.2915825e-08
9.2974467e-08
9.3036088e-08
9.3101222e-08
9.3170141e-08
9.3243022e-08
9.331993e-08
9.340096e-08
9.3485679e-08
9.3574164e-08
9.3666135e-08
9.3760788e-08
9.3857212e-08
9.3954577e-08
9.4051476e-08
9.414626e-08
9.4237664e-08
9.4324342e-08
9.440464e-08
9.4477028e-08
9.4540009e-08
9.459235e-08
9.4633421e-08
9.4662662e-08
9.4679615e-08
9.4684872e-08
9.467924e-08
9.4663555e-08
9.4639107e-08
9.4607383e-08
9.4569911e-08
9.4528274e-08
9.4483836e-08
9.4438034e-08
9.4392222e-08
9.4347481e-08
9.4304663e-08
9.4264467e-08
9.4227262e-08
9.4193332e-08
9.4163013e-08
9.4135893e-08
9.4112316e-08
9.4091684e-08
9.4074088e-08
9.4058998e-08
9.4046601e-08
9.4034277e-08
9.2866056e-08
9.2925659e-08
9.2988136e-08
9.3053819e-08
9.3123382e-08
9.3197062e-08
9.327505e-08
9.3357363e-08
9.3444121e-08
9.3534802e-08
9.3629471e-08
9.3727806e-08
9.3828923e-08
9.3931813e-08
9.4035561e-08
9.4138641e-08
9.423926e-08
9.4336032e-08
9.4427495e-08
9.4511859e-08
9.458747e-08
9.4652714e-08
9.4706265e-08
9.474742e-08
9.4775544e-08
9.4790119e-08
9.4791778e-08
9.4781362e-08
9.4759729e-08
9.4728252e-08
9.4688515e-08
9.4642148e-08
9.4590864e-08
9.4536092e-08
9.4479369e-08
9.4422223e-08
9.4365902e-08
9.4311301e-08
9.4259255e-08
9.4210303e-08
9.4164743e-08
9.4122849e-08
9.4084481e-08
9.4049822e-08
9.4018469e-08
9.3990405e-08
9.3965178e-08
9.3942884e-08
9.3921404e-08
9.2882745e-08
9.2945972e-08
9.3012472e-08
9.308244e-08
9.3156672e-08
9.3235368e-08
9.3318738e-08
9.3406753e-08
9.3499548e-08
9.3596524e-08
9.3697725e-08
9.3802781e-08
9.3910727e-08
9.4020457e-08
9.4130962e-08
9.4240598e-08
9.4347428e-08
9.444994e-08
9.4546549e-08
9.463533e-08
9.4714502e-08
9.4782335e-08
9.4837411e-08
9.4878952e-08
9.4906258e-08
9.4918758e-08
9.4917121e-08
9.4902226e-08
9.4874964e-08
9.4836789e-08
9.4789382e-08
9.4734481e-08
9.4673929e-08
9.4609236e-08
9.4542047e-08
9.4474056e-08
9.440667e-08
9.434084e-08
9.4277529e-08
9.4217429e-08
9.4160865e-08
9.4108073e-08
9.4059139e-08
9.4014126e-08
9.3972788e-08
9.393503e-08
9.3900464e-08
9.3869103e-08
9.3839265e-08
9.2909256e-08
9.2976291e-08
9.3047027e-08
9.3121522e-08
9.3200679e-08
9.3284672e-08
9.3373718e-08
9.3467753e-08
9.3566917e-08
9.3670541e-08
9.377864e-08
9.3890792e-08
9.4005949e-08
9.4122904e-08
9.4240552e-08
9.4357124e-08
9.4470541e-08
9.457916e-08
9.4681267e-08
9.4774801e-08
9.485785e-08
9.4928572e-08
9.4985452e-08
9.5027641e-08
9.5054379e-08
9.5065048e-08
9.506035e-08
9.5041208e-08
9.5008549e-08
9.4963911e-08
9.4909077e-08
9.484589e-08
9.4776327e-08
9.4701994e-08
9.4624655e-08
9.4546161e-08
9.4468071e-08
9.4391408e-08
9.4317256e-08
9.4246444e-08
9.4179335e-08
9.4116151e-08
9.4057162e-08
9.4002344e-08
9.3951584e-08
9.3904723e-08
9.386143e-08
9.3821642e-08
9.3784066e-08
9.2945354e-08
9.3016401e-08
9.3091605e-08
9.3170889e-08
9.3255251e-08
9.3344839e-08
9.343988e-08
9.3540274e-08
9.3646163e-08
9.3756808e-08
9.3872192e-08
9.3991834e-08
9.4114599e-08
9.4239181e-08
9.4364368e-08
9.4488265e-08
9.4608648e-08
9.4723739e-08
9.483169e-08
9.4930299e-08
9.5017524e-08
9.5091409e-08
9.5150345e-08
9.5193411e-08
9.5219788e-08
9.5228823e-08
9.5221248e-08
9.5198026e-08
9.5160133e-08
9.510919e-08
9.5047079e-08
9.4975759e-08
9.4897341e-08
9.4813542e-08
9.4726249e-08
9.463747e-08
9.454891e-08
9.4461677e-08
9.4376968e-08
9.4295743e-08
9.421841e-08
9.414519e-08
9.4076511e-08
9.401229e-08
9.3952518e-08
9.3896994e-08
9.3845434e-08
9.3797705e-08
9.3752862e-08
9.2991029e-08
9.3066315e-08
9.314624e-08
9.3230594e-08
9.3320461e-08
9.3415968e-08
9.3517346e-08
9.3624462e-08
9.3737452e-08
9.3855515e-08
9.3978592e-08
9.4106138e-08
9.4236929e-08
9.4369553e-08
9.4502689e-08
9.4634307e-08
9.476204e-08
9.4883968e-08
9.4998101e-08
9.5102097e-08
9.5193784e-08
9.5271088e-08
9.5332308e-08
9.537645e-08
9.5402643e-08
9.54102e-08
9.5399883e-08
9.53727e-08
9.5329678e-08
9.5272521e-08
9.5203213e-08
9.5123833e-08
9.5036632e-08
9.4943446e-08
9.4846297e-08
9.4747346e-08
9.4648444e-08
9.4550788e-08
9.4455691e-08
9.4364232e-08
9.4276872e-08
9.4193846e-08
9.4115717e-08
9.4042359e-08
9.3973857e-08
9.3909976e-08
9.3850474e-08
9.379515e-08
9.374338e-08
9.3046485e-08
9.3126253e-08
9.3211175e-08
9.3300902e-08
9.3396599e-08
9.349837e-08
9.360645e-08
9.3720675e-08
9.3841169e-08
9.396707e-08
9.4098271e-08
9.4234156e-08
9.437341e-08
9.4514509e-08
9.4656015e-08
9.4795762e-08
9.4931234e-08
9.5060362e-08
9.5181013e-08
9.5290701e-08
9.5387121e-08
9.5468085e-08
9.5531795e-08
9.5577189e-08
9.5603344e-08
9.5609548e-08
9.5596589e-08
9.5565521e-08
9.5517426e-08
9.5454091e-08
9.5377606e-08
9.5290174e-08
9.5194189e-08
9.5091621e-08
9.4984632e-08
9.4875535e-08
9.4766325e-08
9.4658296e-08
9.4552878e-08
9.4451261e-08
9.4353967e-08
9.4261255e-08
9.4173805e-08
9.4091467e-08
9.4014405e-08
9.3942361e-08
9.3875131e-08
9.3812449e-08
9.3753988e-08
9.3112121e-08
9.3196638e-08
9.3286856e-08
9.3382281e-08
9.3484155e-08
9.359256e-08
9.3707735e-08
9.3829482e-08
9.395791e-08
9.4092094e-08
9.4231872e-08
9.4376556e-08
9.4524729e-08
9.4674753e-08
9.4825066e-08
9.4973359e-08
9.5116963e-08
9.5253657e-08
9.5381157e-08
9.5496833e-08
9.5598246e-08
9.5683094e-08
9.5749485e-08
9.5796285e-08
9.5822525e-08
9.5827473e-08
9.5811941e-08
9.577703e-08
9.572388e-08
9.5654359e-08
9.5570667e-08
9.5475136e-08
9.5370311e-08
9.5258304e-08
9.514142e-08
9.502213e-08
9.4902567e-08
9.4784135e-08
9.4668373e-08
9.4556584e-08
9.4449353e-08
9.4346976e-08
9.4250237e-08
9.4158974e-08
9.4073422e-08
9.3993305e-08
9.3918456e-08
9.3848545e-08
9.3783528e-08
9.3188539e-08
9.3278091e-08
9.337393e-08
9.3475402e-08
9.3583826e-08
9.3699265e-08
9.3821954e-08
9.3951664e-08
9.4088482e-08
9.4231421e-08
9.4380257e-08
9.453422e-08
9.4691791e-08
9.4851209e-08
9.5010779e-08
9.5168044e-08
9.5320179e-08
9.5464803e-08
9.559948e-08
9.5721432e-08
9.5828087e-08
9.5917028e-08
9.5986272e-08
9.6034615e-08
9.6061043e-08
9.6064809e-08
9.604675e-08
9.6008012e-08
9.5949792e-08
9.5874043e-08
9.5783075e-08
9.5679357e-08
9.5565588e-08
9.5444032e-08
9.5317146e-08
9.5187551e-08
9.5057526e-08
9.4928583e-08
9.4802379e-08
9.4680322e-08
9.4563071e-08
9.4450964e-08
9.4344881e-08
9.4244662e-08
9.4150604e-08
9.4062422e-08
9.3979983e-08
9.3902896e-08
9.3831386e-08
9.3276545e-08
9.3371443e-08
9.3473252e-08
9.3581149e-08
9.3696526e-08
9.3819425e-08
9.3950077e-08
9.4088221e-08
9.4233916e-08
9.4386109e-08
9.454451e-08
9.4708259e-08
9.4875726e-08
9.5045025e-08
9.5214315e-08
9.5380989e-08
9.5542057e-08
9.5694976e-08
9.583715e-08
9.5965657e-08
9.607779e-08
9.6171019e-08
9.6243272e-08
9.6293277e-08
9.6319978e-08
9.632262e-08
9.6302059e-08
9.6259489e-08
9.6196162e-08
9.6114114e-08
9.6015772e-08
9.5903746e-08
9.5780897e-08
9.5649644e-08
9.55126e-08
9.5372539e-08
9.5231883e-08
9.5092261e-08
9.4955444e-08
9.4822952e-08
9.4695519e-08
9.4573537e-08
9.4457976e-08
9.4348686e-08
9.4246022e-08
9.4149697e-08
9.4059608e-08
9.3975304e-08
9.3897278e-08
9.3377167e-08
9.3477747e-08
9.3585906e-08
9.3700634e-08
9.3823398e-08
9.3954216e-08
9.4093314e-08
9.4240394e-08
9.4395483e-08
9.4557461e-08
9.4725961e-08
9.4900027e-08
9.5077912e-08
9.5257593e-08
9.5437081e-08
9.5613607e-08
9.5784011e-08
9.5945585e-08
9.6095571e-08
9.6230898e-08
9.6348729e-08
9.6446425e-08
9.6521826e-08
9.6573597e-08
9.6600642e-08
9.6602199e-08
9.6579149e-08
9.6532726e-08
9.6464238e-08
9.6375804e-08
9.6269969e-08
9.6149494e-08
9.6017402e-08
9.5876276e-08
9.5728883e-08
9.5578153e-08
9.5426648e-08
9.5276119e-08
9.5128458e-08
9.4985296e-08
9.4847451e-08
9.4715376e-08
9.4590131e-08
9.4471584e-08
9.4360149e-08
9.4255537e-08
9.4157682e-08
9.4066068e-08
9.398146e-08
9.3491675e-08
9.3598304e-08
9.3713226e-08
9.3835224e-08
9.3965844e-08
9.4105074e-08
9.4253135e-08
9.4409689e-08
9.4574725e-08
9.4747048e-08
9.492621e-08
9.5111149e-08
9.5299994e-08
9.5490575e-08
9.5680748e-08
9.5867572e-08
9.6047716e-08
9.6218297e-08
9.6376395e-08
9.6518792e-08
9.6642525e-08
9.6744846e-08
9.6823518e-08
9.687714e-08
9.6904585e-08
9.6905088e-08
9.687955e-08
9.6829244e-08
9.6755532e-08
9.6660615e-08
9.6547161e-08
9.6418083e-08
9.6276574e-08
9.6125378e-08
9.5967422e-08
9.5805782e-08
9.5643167e-08
9.5481453e-08
9.5322658e-08
9.5168528e-08
9.5019973e-08
9.4877518e-08
9.474231e-08
9.4614245e-08
9.4493792e-08
9.4380668e-08
9.4274842e-08
9.4175734e-08
9.4084386e-08
9.3621615e-08
9.3734689e-08
9.3856825e-08
9.3986572e-08
9.4125555e-08
9.4273733e-08
9.4431315e-08
9.4597918e-08
9.4773489e-08
9.4956752e-08
9.5147168e-08
9.534356e-08
9.5543924e-08
9.5745938e-08
9.5947287e-08
9.6144856e-08
9.6335134e-08
9.6515063e-08
9.6681556e-08
9.6831252e-08
9.6961065e-08
9.706815e-08
9.7150191e-08
9.7205735e-08
9.7233622e-08
9.7233091e-08
9.7205061e-08
9.7150841e-08
9.7071841e-08
9.6970343e-08
9.6849142e-08
9.6711311e-08
9.6560208e-08
9.6398739e-08
9.6229984e-08
9.6057168e-08
9.5883142e-08
9.5709918e-08
9.5539644e-08
9.5374189e-08
9.5214564e-08
9.5061376e-08
9.4915861e-08
9.4777953e-08
9.464818e-08
9.452627e-08
9.4412228e-08
9.4305406e-08
9.4207143e-08
9.3768841e-08
9.3888799e-08
9.4018643e-08
9.4156661e-08
9.4304561e-08
9.4462268e-08
9.4629972e-08
9.4807245e-08
9.4993978e-08
9.5188812e-08
9.5391104e-08
9.5599553e-08
9.5812012e-08
9.6025996e-08
9.6239013e-08
9.6447766e-08
9.664856e-08
9.6838155e-08
9.70133e-08
9.7170495e-08
9.7306538e-08
9.7418494e-08
9.7503981e-08
9.7561496e-08
9.7589855e-08
9.7588304e-08
9.7557777e-08
9.7499616e-08
9.741527e-08
9.7307103e-08
9.7178043e-08
9.7031321e-08
9.6870457e-08
9.6698514e-08
9.6518716e-08
9.6334435e-08
9.6148665e-08
9.596356e-08
9.578141e-08
9.5604214e-08
9.5433095e-08
9.5268752e-08
9.5112516e-08
9.4964364e-08
9.4824884e-08
9.4693819e-08
9.4571214e-08
9.445635e-08
9.4350878e-08
9.3935571e-08
9.4062894e-08
9.4200994e-08
9.4347859e-08
9.4505283e-08
9.4673152e-08
9.4851634e-08
9.5040244e-08
9.5238814e-08
9.5445887e-08
9.5660709e-08
9.588184e-08
9.6106982e-08
9.6333477e-08
9.6558646e-08
9.6779004e-08
9.6990668e-08
9.7190216e-08
9.7374235e-08
9.7539089e-08
9.7681471e-08
9.7798371e-08
9.788735e-08
9.7946863e-08
9.797571e-08
9.7973147e-08
9.7940124e-08
9.7878005e-08
9.7788274e-08
9.7673374e-08
9.7536368e-08
9.7380646e-08
9.7209879e-08
9.7027273e-08
9.6836188e-08
9.6640136e-08
9.6442258e-08
9.6244862e-08
9.6050389e-08
9.5860982e-08