/*--------------------------------*- C++ -*----------------------------------*\
| =========                 |                                                 |
| \\      /  F ield         | OpenFOAM: The Open Source CFD Toolbox           |
|  \\    /   O peration     | Version:  v2006                                 |
|   \\  /    A nd           | Website:  www.openfoam.com                      |
|    \\/     M anipulation  |                                                 |
\*---------------------------------------------------------------------------*/
FoamFile
{
    version     2.0;
    format      ascii;
    class       surfaceScalarField;
    location    "5000";
    object      phi;
}
// * * * * * * * * * * * * * * * * * * * * * * * * * * * * * * * * * * * * * //

dimensions      [1 0 -1 0 0 0 0];
oriented        oriented;


internalField   nonuniform List<scalar> 
39234
(
-0.0006301565
-6.258405e-06
0.0006364149
-0.00060835672
-2.1799774e-05
-0.00055824622
-5.0110503e-05
-0.00051440705
-4.3839167e-05
-0.0004705104
-4.3896653e-05
-0.00043138731
-3.9123095e-05
-0.0003852945
-4.6092807e-05
-0.00034571599
-3.957851e-05
-0.00029949674
-4.621925e-05
-0.00025263005
-4.6866688e-05
-0.00020983573
-4.2794323e-05
-0.00016857855
-4.1257179e-05
-0.00012646922
-4.2109324e-05
-8.4949664e-05
-4.1519559e-05
-4.2717257e-05
-4.2232407e-05
9.4617986e-07
-4.3663436e-05
4.5268448e-05
-4.4322268e-05
9.0917102e-05
-4.5648653e-05
0.00013823426
-4.7317162e-05
0.0001874145
-4.9180233e-05
0.00023755422
-5.0139726e-05
0.00028655622
-4.9001997e-05
0.00033655948
-5.0003264e-05
0.00038765615
-5.109666e-05
0.00043496357
-4.7307429e-05
0.00047581741
-4.0853838e-05
0.00051628899
-4.0471577e-05
0.00055669344
-4.0404451e-05
0.00059120128
-3.4507842e-05
0.00062355706
-3.2355777e-05
0.00065615959
-3.2602536e-05
0.00069000019
-3.3840597e-05
0.00072673454
-3.6734353e-05
0.00075305381
-2.6319261e-05
0.00077085964
-1.7805832e-05
0.00079266462
-2.1804986e-05
0.00082084225
-2.8177627e-05
0.00084091984
-2.0077589e-05
0.00086678299
-2.5863153e-05
0.00090412717
-3.7344179e-05
0.00093140475
-2.7277579e-05
0.00093940099
-7.9962418e-06
0.00096118023
-2.177924e-05
0.00095676709
4.4131398e-06
0.0009599294
-3.1623122e-06
0.00094302729
1.6902118e-05
0.00092137307
2.1654214e-05
0.00089540792
2.5965152e-05
1.9772426e-05
0.00087563549
-0.0005907176
-2.3167117e-05
0.00060762631
-0.00057116609
-4.135128e-05
-0.00054808942
-7.3187171e-05
-0.0005221342
-6.9794383e-05
-0.00049503427
-7.0996591e-05
-0.00046755245
-6.6604913e-05
-0.00043940851
-7.4236745e-05
-0.00041068401
-6.8303013e-05
-0.0003807155
-7.6187756e-05
-0.0003486105
-7.8971689e-05
-0.00031490298
-7.650184e-05
-0.00027960712
-7.655304e-05
-0.00024202456
-7.9691891e-05
-0.00020241051
-8.1133603e-05
-0.00016059641
-8.404651e-05
-0.00011553042
-8.8729424e-05
-6.7103587e-05
-9.2749102e-05
-1.6228224e-05
-9.6524016e-05
3.6984234e-05
-0.00010052962
9.2286171e-05
-0.00010448217
0.00014949352
-0.00010734708
0.00020831974
-0.00010782821
0.00026762045
-0.00010930398
0.00032670481
-0.00011018102
0.00038542066
-0.00010602328
0.00044329093
-9.8724116e-05
0.0004988258
-9.6006445e-05
0.00055146777
-9.3046418e-05
0.00060121272
-8.4252797e-05
0.00064738068
-7.8523738e-05
0.00068964849
-7.4870338e-05
0.00072789356
-7.2085673e-05
0.00076173375
-7.0574543e-05
0.00079211542
-5.6700925e-05
0.00081986178
-4.5552194e-05
0.00084487411
-4.6817317e-05
0.00086700238
-5.0305897e-05
0.00088721968
-4.0294893e-05
0.00090546813
-4.4111602e-05
0.00092096592
-5.2841969e-05
0.00093422642
-4.0538075e-05
0.00094739846
-2.1168278e-05
0.00095913856
-3.3519339e-05
0.00097049903
-6.9473301e-06
0.00098081345
-1.347674e-05
0.00098959252
8.1230536e-06
0.00099697579
1.4270938e-05
0.0010030348
1.9906099e-05
1.417734e-05
0.0010086299
-0.00065522931
-3.8322811e-05
0.00067038501
-0.00063661794
-5.9962653e-05
-0.00061518462
-9.4620489e-05
-0.00059220361
-9.2775395e-05
-0.00056808899
-9.5111213e-05
-0.00054312969
-9.1564208e-05
-0.00051700801
-0.00010035843
-0.00048984458
-9.5466435e-05
-0.00046104745
-0.00010498489
-0.00043000403
-0.00011001511
-0.00039669451
-0.00010981136
-0.00036097019
-0.00011227736
-0.0003224159
-0.00011824619
-0.00028104721
-0.00012250229
-0.00023670142
-0.00012839229
-0.0001886593
-0.00013677155
-0.00013666922
-0.00014473918
-8.125794e-05
-0.0001519353
-2.2648828e-05
-0.00015913873
3.8773314e-05
-0.00016590431
0.00010262907
-0.00017120283
0.00016851561
-0.00017371475
0.00023532757
-0.00017611594
0.00030221026
-0.00017706371
0.00036877594
-0.00017258895
0.00043445995
-0.00016440813
0.00049790482
-0.00015945132
0.00055843211
-0.00015357371
0.00061587907
-0.00014169975
0.00066944193
-0.0001320866
0.00071862501
-0.00012405341
0.00076312977
-0.00011659044
0.00080279183
-0.0001102366
0.00083864378
-9.2552877e-05
0.00087095823
-7.7866637e-05
0.00089928746
-7.5146548e-05
0.00092395828
-7.4976715e-05
0.00094618887
-6.2525488e-05
0.00096548181
-6.3404538e-05
0.00098186878
-6.9228941e-05
0.00099662056
-5.5289853e-05
0.0010101208
-3.4668556e-05
0.0010209572
-4.4355661e-05
0.0010304896
-1.6479728e-05
0.001037862
-2.0849199e-05
0.0010441305
1.8545206e-06
0.0010491026
9.2988463e-06
0.0010535004
1.5508356e-05
1.0383482e-05
0.0010572942
-0.0006820106
-5.1727561e-05
0.00069541535
-0.00066769626
-7.4276991e-05
-0.00065227742
-0.00011003934
-0.00063527987
-0.00010977295
-0.00061685858
-0.0001135325
-0.00059693283
-0.00011148995
-0.00057534784
-0.00012194342
-0.0005518619
-0.00011895238
-0.00052617046
-0.00013067633
-0.00049770846
-0.00013847711
-0.00046629152
-0.0001412283
-0.00043167658
-0.0001468923
-0.00039349743
-0.00015642534
-0.00035166799
-0.00016433173
-0.00030599393
-0.00017406635
-0.00025596232
-0.00018680317
-0.00020142795
-0.00019927354
-0.00014279558
-0.00021056767
-8.0321378e-05
-0.00022161294
-1.4443075e-05
-0.00023178261
5.4407425e-05
-0.00024005333
0.00012582364
-0.00024513096
0.00019865845
-0.00024895075
0.00027193184
-0.0002503371
0.00034510619
-0.00024576329
0.00041747946
-0.0002367814
0.0004875873
-0.00022955916
0.00055454302
-0.00022052943
0.00061802762
-0.00020518435
0.00067716774
-0.00019122673
0.00073137972
-0.00017826539
0.00078035672
-0.00016556744
0.00082392834
-0.00015380822
0.00086305931
-0.00013168385
0.00089799013
-0.00011279746
0.00092829007
-0.00010544648
0.00095421915
-0.0001009058
0.0009770176
-8.5323938e-05
0.00099629282
-8.2679761e-05
0.0010121583
-8.5094449e-05
0.0010261501
-6.9281634e-05
0.001039249
-4.7767477e-05
0.0010502716
-5.5378261e-05
0.0010610644
-2.7272448e-05
0.0010706107
-3.0395572e-05
0.0010803708
-7.9055741e-06
0.0010900747
-4.049878e-07
0.001100039
5.5439648e-06
3.5272107e-07
0.0011100698
-0.00072824717
-6.4456737e-05
0.00074097635
-0.00071475927
-8.7764891e-05
-0.00070029617
-0.00012450243
-0.00068463896
-0.00012543016
-0.00066767453
-0.00013049693
-0.00064920044
-0.00012996405
-0.00062894076
-0.00014220309
-0.000606594
-0.00014129914
-0.0005818022
-0.00015546813
-0.00055400294
-0.00016627637
-0.00052288323
-0.00017234801
-0.00048812119
-0.00018165433
-0.0004493353
-0.00019521122
-0.00040630453
-0.00020736251
-0.00035881266
-0.00022155822
-0.00030649298
-0.00023912285
-0.00024917197
-0.00025659455
-0.00018710306
-0.00027263658
-0.00012054757
-0.00028816842
-4.9903515e-05
-0.00030242667
2.4298309e-05
-0.00031425516
0.00010128118
-0.00032211384
0.0001798937
-0.00032756327
0.00025918565
-0.00032962906
0.00033842159
-0.00032499923
0.00041672359
-0.00031508341
0.00049267782
-0.00030551339
0.00056532077
-0.00029317238
0.00063413994
-0.00027400352
0.00069824931
-0.0002553361
0.0007570395
-0.00023705557
0.00081018207
-0.00021871001
0.00085752259
-0.00020114874
0.0008997858
-0.00017394706
0.00093716505
-0.0001501767
0.00096940521
-0.00013768664
0.00099685616
-0.00012835675
0.0010205955
-0.00010906325
0.0010405096
-0.00010259388
0.001056925
-0.00010150985
0.0010711492
-8.3505795e-05
0.0010839971
-6.0615421e-05
0.0010947608
-6.6141971e-05
0.0011050213
-3.7532897e-05
0.0011141051
-3.9479416e-05
0.0011229431
-1.6743564e-05
0.0011313324
-8.7942803e-06
0.0011394885
-2.6121405e-06
-7.7267474e-06
0.001147568
-0.00077610957
-7.5388615e-05
0.00078704145
-0.0007644852
-9.9389254e-05
-0.00075176472
-0.00013722292
-0.00073775212
-0.00013944275
-0.00072224209
-0.00014600696
-0.00070499404
-0.0001472121
-0.00068564556
-0.00016155157
-0.00066391396
-0.00016303074
-0.00063936164
-0.00018002045
-0.00061147478
-0.00019416323
-0.00057992352
-0.00020389928
-0.00054433569
-0.00021724216
-0.00050429562
-0.00023525129
-0.00045954679
-0.00025211134
-0.00040984248
-0.00027126253
-0.00035482835
-0.00029413697
-0.00029435605
-0.00031706686
-0.00022866375
-0.00033832888
-0.00015805012
-0.00035878205
-8.2995694e-05
-0.0003774811
-4.068479e-06
-0.00039318237
7.8039261e-05
-0.00040422157
0.00016218134
-0.00041170534
0.00024728914
-0.00041473686
0.00033245828
-0.00041016836
0.00041668534
-0.00039931047
0.00049853996
-0.000387368
0.00057696886
-0.00037160128
0.00065132652
-0.00034836119
0.00072070557
-0.00032471515
0.00078446286
-0.00030081286
0.00084223326
-0.00027648041
0.00089383691
-0.00025275239
0.00093985367
-0.00021996383
0.00098048259
-0.00019080562
0.0010155992
-0.00017280327
0.0010455649
-0.00015832241
0.0010713461
-0.00013484445
0.001093012
-0.00012425984
0.0011109545
-0.00011945231
0.001126314
-9.8865269e-05
0.0011399125
-7.4213966e-05
0.0011513952
-7.7624623e-05
0.0011621034
-4.8241142e-05
0.0011717383
-4.9114301e-05
0.0011812004
-2.6205663e-05
0.0011905999
-1.8193826e-05
0.0012000801
-1.2092337e-05
-1.7220643e-05
0.001209574
-0.00083045049
-8.5769619e-05
0.0008408315
-0.0008193887
-0.00011045104
-0.00080722135
-0.00014939027
-0.00079378515
-0.00015287895
-0.00077880045
-0.00016099166
-0.00076197859
-0.00016403396
-0.00074289751
-0.00018063265
-0.00072124001
-0.00018468824
-0.00069651398
-0.00020474648
-0.00066820093
-0.00022247628
-0.00063592296
-0.00023617725
-0.00059925868
-0.00025390644
-0.00055775757
-0.0002767524
-0.00051111743
-0.00029875147
-0.00045905777
-0.0003233222
-0.00040123357
-0.00035196118
-0.00033750422
-0.0003807962
-0.00026807845
-0.00040775465
-0.00019325413
-0.00043360636
-0.00011351968
-0.00045721556
-2.9507322e-05
-0.00047719473
5.8011767e-05
-0.00049174066
0.00014785332
-0.0005015469
0.00023886037
-0.00050574392
0.00033001821
-0.0005013262
0.00042021386
-0.00048950611
0.00050798294
-0.00047513709
0.00059220102
-0.00045581935
0.0006721113
-0.00042827146
0.00074676647
-0.00039937032
0.00081548998
-0.00036953637
0.00087788511
-0.00033887555
0.00093375813
-0.00030862541
0.00098359736
-0.00026980305
0.0010275818
-0.00023479003
0.0010656496
-0.00021087108
0.0010982018
-0.00019087464
0.0011261683
-0.00016281094
0.0011497028
-0.00014779433
0.0011692653
-0.00013901486
0.001185966
-0.00011556596
0.0012006028
-8.8850776e-05
0.0012129594
-8.9981145e-05
0.0012243001
-5.9581844e-05
0.0012344267
-5.9240911e-05
0.0012441946
-3.5973613e-05
0.0012536973
-2.7696538e-05
0.0012632076
-2.1602652e-05
-2.6837634e-05
0.0012728246
-0.00088794641
-9.5266705e-05
0.0008974435
-0.00087765437
-0.00012074309
-0.00086612417
-0.00016092047
-0.0008532017
-0.00016580142
-0.00083857773
-0.00017561563
-0.00082194403
-0.00018066766
-0.00080284411
-0.00019973257
-0.00078094659
-0.00020658576
-0.00075571618
-0.00022997689
-0.00072663328
-0.00025155918
-0.00069328816
-0.00026952237
-0.00065521897
-0.00029197562
-0.00061194074
-0.00032003063
-0.00056311611
-0.0003475761
-0.00050843548
-0.00037800283
-0.00044755067
-0.00041284599
-0.00038032757
-0.00044801931
-0.00030696143
-0.00048112079
-0.00022775843
-0.00051280936
-0.00014323081
-0.00054174318
-5.4059195e-05
-0.00056636634
3.8930323e-05
-0.00058473018
0.00013453913
-0.0005971557
0.00023153189
-0.00060273669
0.00032878184
-0.00059857615
0.00042507255
-0.00058579682
0.00051888919
-0.00056895372
0.00060902718
-0.00054595735
0.00069463017
-0.00051387445
0.00077471142
-0.00047945157
0.00084855562
-0.00044338057
0.00091573016
-0.00040605009
0.00097601691
-0.00036891215
0.0010298276
-0.00032361375
0.0010773437
-0.00028230615
0.0011185698
-0.00025209714
0.0011539205
-0.00022622542
0.001184286
-0.00019317641
0.0012099058
-0.00017341407
0.0012312735
-0.00016038264
0.0012494422
-0.00013373467
0.0012652165
-0.00010462507
0.0012785142
-0.00010327883
0.0012905267
-7.1594297e-05
0.0013011811
-6.9895315e-05
0.0013113073
-4.6099849e-05
0.0013210857
-3.7474903e-05
0.0013308322
-3.1349173e-05
-3.6651593e-05
0.0013406462
-0.00094987512
-0.00010435388
0.00095896229
-0.00093991782
-0.00013070039
-0.000928648
-0.00017219029
-0.00091589969
-0.00017854973
-0.00090133143
-0.00019018389
-0.0008846061
-0.000197393
-0.00086523885
-0.00021909982
-0.00084286727
-0.00022895733
-0.00081692248
-0.00025592169
-0.00078686851
-0.00028161314
-0.00075225649
-0.00030413439
-0.00071258459
-0.00033164753
-0.00066733411
-0.00036528111
-0.00061613035
-0.00039877987
-0.00055863319
-0.00043549999
-0.00049448782
-0.00047699136
-0.00042356123
-0.00051894589
-0.00034603615
-0.00055864588
-0.00026222505
-0.00059662046
-0.0001726602
-0.00063130802
-7.8060352e-05
-0.00066096619
2.0684522e-05
-0.00068347506
0.00012232368
-0.00069879486
0.00022554603
-0.00070595903
0.00032912592
-0.00070215604
0.00043174738
-0.00068841829
0.00053183825
-0.0006690446
0.00062811737
-0.00064223646
0.00071963515
-0.00060539224
0.00080535771
-0.00056517413
0.00088452921
-0.00052255207
0.00095668293
-0.0004782038
0.0010215811
-0.00043381034
0.0010795792
-0.00038161183
0.0011308508
-0.00033357772
0.001175439
-0.00029668539
0.0012137804
-0.00026456679
0.0012467503
-0.0002261463
0.001274641
-0.00020130477
0.0012979863
-0.00018372793
0.0013178323
-0.00015358068
0.0013349824
-0.00012177522
0.0013494318
-0.00011772822
0.0013623476
-8.451006e-05
0.0013737132
-8.1260881e-05
0.001384355
-5.6741728e-05
0.0013944733
-4.7593161e-05
0.0014043947
-4.1270553e-05
-4.6525334e-05
0.0014142684
-0.0010154638
-0.00011301066
0.0010241206
-0.001005821
-0.00014034325
-0.00099475492
-0.00018325633
-0.00098208213
-0.00019122252
-0.00096744217
-0.00020482385
-0.00095047595
-0.00021435922
-0.00093067775
-0.00023889802
-0.00090765671
-0.00025197837
-0.00088081514
-0.00028276326
-0.00084959765
-0.00031283063
-0.00081351862
-0.00034021343
-0.00077203881
-0.00037312733
-0.00072460599
-0.00041271393
-0.0006708096
-0.00045257626
-0.00061028045
-0.00049602915
-0.00054265324
-0.00054461856
-0.00046779256
-0.00059380658
-0.00038587162
-0.00064056681
-0.00029721157
-0.00068528051
-0.00020236788
-0.00072615171
-0.00010210114
-0.00076123293
2.6402931e-06
-0.00078821649
0.0001105521
-0.00080670667
0.00022024687
-0.0008156538
0.00033040237
-0.00081231153
0.00043960295
-0.00079761887
0.00054620979
-0.00077565144
0.00064885998
-0.00074488666
0.00074651306
-0.00070304532
0.00083808421
-0.00065674528
0.00092277302
-0.00060724089
0.0010000757
-0.00055550643
0.0010697299
-0.00050346462
0.0011320419
-0.00044392384
0.0011871841
-0.00038871991
0.0012352381
-0.00034473938
0.0012766549
-0.00030598357
0.0013122981
-0.0002617895
0.0013425149
-0.00023152159
0.0013678689
-0.00020908188
0.001389391
-0.00017510281
0.0014078983
-0.00014028247
0.0014234604
-0.00013329031
0.0014372222
-9.8271949e-05
0.0014492312
-9.3269829e-05
0.0014603115
-6.7822073e-05
0.0014707036
-5.7985233e-05
0.0014807609
-5.1327854e-05
-5.6407005e-05
0.0014906426
-0.0010852495
-0.00012143727
0.0010936762
-0.0010757391
-0.00014985366
-0.001064714
-0.00019428143
-0.0010519631
-0.00020397349
-0.0010371044
-0.00021968252
-0.0010197527
-0.00023171092
-0.00099938224
-0.00025926846
-0.00097556753
-0.00027579309
-0.00094768446
-0.00031064632
-0.00091515196
-0.00034536313
-0.00087744445
-0.00037792094
-0.00083398478
-0.000416587
-0.00078418681
-0.0004625119
-0.00072760294
-0.00050916013
-0.00066383421
-0.00055979787
-0.00059250311
-0.00061594966
-0.00051346936
-0.00067284033
-0.00042689798
-0.00072713819
-0.00033311966
-0.00077905883
-0.00023271385
-0.00082655752
-0.00012648199
-0.00086746479
-1.5440056e-05
-0.00089925842
9.9052059e-05
-0.00092119878
0.00021553271
-0.00093213445
0.00033257458
-0.00092935341
0.00044866344
-0.00091370773
0.00056208767
-0.00088907567
0.00067140088
-0.00085419986
0.00077547296
-0.0008071174
0.00087316371
-0.00075443603
0.00096362623
-0.00069770341
0.0010463197
-0.00063819992
0.0011209594
-0.00057810428
0.0011878117
-0.00051077616
0.0012470461
-0.00044795428
0.0012987731
-0.0003964664
0.0013434622
-0.00035067264
0.0013819765
-0.00030030379
0.0014147061
-0.0002642512
0.0014422476
-0.00023662343
0.0014656386
-0.00019849379
0.0014857065
-0.00016035041
0.0015025755
-0.0001501593
0.0015173886
-0.00011308502
0.0015302322
-0.00010611349
0.0015419396
-7.9529384e-05
0.0015527703
-6.8815977e-05
0.0015630931
-6.1650698e-05
-6.6415026e-05
0.0015731012
-0.0011591051
-0.00012967674
0.0011673446
-0.0011496732
-0.00015928564
-0.001138624
-0.00020533057
-0.0011257155
-0.00021688198
-0.0011105478
-0.00023485022
-0.0010927102
-0.00024954854
-0.0010716582
-0.00028032049
-0.0010469305
-0.00030052075
-0.0010178776
-0.00033969923
-0.00098388932
-0.00037935143
-0.00094439924
-0.00041741102
-0.00089879215
-0.00046219409
-0.00084644706
-0.00051485699
-0.00078687872
-0.00056872847
-0.0007196581
-0.00062701848
-0.00064439351
-0.00069121426
-0.00056093774
-0.0007562961
-0.0004694489
-0.00081862703
-0.00037026869
-0.00087823904
-0.00026400269
-0.00093282353
-0.00015149652
-0.00097997096
-3.383117e-05
-0.0010169238
8.7569429e-05
-0.0010425994
0.0002111644
-0.0010557294
0.00033542269
-0.0010536117
0.00045872817
-0.0010370132
0.00057928915
-0.0010096367
0.00069557113
-0.00097048183
0.00080635315
-0.00091789942
0.00091043508
-0.00085851796
0.0010069198
-0.00079418813
0.001095227
-0.00072650708
0.0011750464
-0.00065792371
0.0012466085
-0.00058233831
0.0013100812
-0.00051142693
0.0013656022
-0.00045198739
0.0014136575
-0.000398728
0.0014551133
-0.00034175954
0.0014904035
-0.0002995414
0.0015201558
-0.00026637572
0.0015454133
-0.00022375129
0.0015670226
-0.00018195971
0.0015851616
-0.00016829834
0.0016009748
-0.00012889818
0.0016145912
-0.00011972987
0.001626854
-9.1792212e-05
0.0016380488
-8.0010776e-05
0.0016485632
-7.2165077e-05
-7.6451361e-05
0.0016585995
-0.001237409
-0.00013783343
0.0012455657
-0.0012279576
-0.00016873697
-0.0012167914
-0.00021649679
-0.0012036327
-0.00023004064
-0.0011880619
-0.00025042102
-0.0011696404
-0.00026797008
-0.0011478041
-0.00030215684
-0.0011220526
-0.0003262722
-0.0010917106
-0.00037004123
-0.0010561349
-0.0004149271
-0.0010147161
-0.00045882991
-0.00096679919
-0.00051011096
-0.00091172731
-0.00056992886
-0.00084897607
-0.00063147972
-0.00077808539
-0.00069790916
-0.00069864794
-0.00077065171
-0.00061050811
-0.00084443593
-0.00051381793
-0.00091531721
-0.00040893141
-0.00098312556
-0.00029648224
-0.0010452727
-0.0001773629
-0.0010990903
-5.2719598e-05
-0.0011415671
7.5953234e-05
-0.0011712722
0.00020702875
-0.0011868049
0.00033887128
-0.0011854542
0.00046975917
-0.0011679011
0.00059781407
-0.0011376916
0.00072140941
-0.0010940772
0.00083923179
-0.0010357218
0.000950017
-0.00096930317
0.0010528152
-0.00089698636
0.0011470057
-0.00082069759
0.0012322533
-0.00074317131
0.0013087577
-0.00065884266
0.0013766857
-0.00057935497
0.0014362
-0.00051150171
0.0014878063
-0.00045033428
0.0015323803
-0.00038633351
0.0015703967
-0.00033755786
0.0016025169
-0.00029849585
0.0016297999
-0.00025103434
0.0016531116
-0.00020527142
0.001672676
-0.00018786272
0.0016896479
-0.00014587002
0.0017041894
-0.0001342714
0.0017171589
-0.00010476175
0.0017288606
-9.1712442e-05
0.0017396979
-8.3002408e-05
-8.6651217e-05
0.0017498978
-0.0013202672
-0.00014595475
0.0013283885
-0.0013107457
-0.00017825845
-0.0012994066
-0.00022783585
-0.0012859345
-0.00024351279
-0.0012698899
-0.0002664656
-0.0012508054
-0.00028705453
-0.0012280966
-0.00032486567
-0.0012012223
-0.00035314654
-0.0011694801
-0.00040178342
-0.0011321909
-0.00045221629
-0.0010887001
-0.00050232071
-0.0010383121
-0.00056049899
-0.00098033204
-0.00062790888
-0.00091419514
-0.00069761661
-0.00083940922
-0.00077269508
-0.00075554974
-0.0008545112
-0.00066245139
-0.00093753428
-0.00056026088
-0.0010175077
-0.00044934585
-0.0010940406
-0.00033037029
-0.0011642483
-0.00020427631
-0.0012251843
-7.2278094e-05
-0.0012735653
6.4054326e-05
-0.0013076046
0.00020300283
-0.0013257534
0.00034282364
-0.001325275
0.00048168529
-0.0013067627
0.00061761584
-0.0012736221
0.00074889161
-0.0012253529
0.00087410382
-0.001160934
0.00099191956
-0.0010871189
0.0011013327
-0.0010063995
0.0012016799
-0.0009210447
0.0012925988
-0.00083409029
0.0013742605
-0.00074050436
0.0014468313
-0.00065192573
0.0015104971
-0.00057516749
0.0015657832
-0.00050562042
0.0016135781
-0.00043412842
0.0016543979
-0.00037837762
0.0016889378
-0.0003330358
0.0017182752
-0.00028037173
0.0017433
-0.00023029625
0.0017642832
-0.00020884591
0.0017823935
-0.00016398026
0.0017978286
-0.00014970656
0.0018114642
-0.00011839731
0.0018236261
-0.00010387435
0.0018347355
-9.4111766e-05
-9.6946398e-05
0.0018450306
-0.0014080209
-0.00015410595
0.0014161721
-0.0013983655
-0.00018791387
-0.0013867892
-0.00023941219
-0.0013729359
-0.00025736601
-0.0013563452
-0.00028305637
-0.0013365187
-0.00030688104
-0.0013128499
-0.00034853448
-0.0012847542
-0.00038124223
-0.0012515009
-0.00043503667
-0.0012123717
-0.0004913455
-0.0011666645
-0.00054802796
-0.0011136407
-0.00061352278
-0.001052566
-0.00068898357
-0.00098283321
-0.00076734939
-0.00090391672
-0.00085161157
-0.00081537337
-0.00094305454
-0.00071702695
-0.0010358807
-0.00060901949
-0.0011255152
-0.00049173355
-0.0012113265
-0.00036586565
-0.0012901162
-0.00023241034
-0.0013586396
-9.2653192e-05
-0.0014133224
5.1755156e-05
-0.001452013
0.0001989996
-0.0014729979
0.00034722372
-0.0014734992
0.00049448144
-0.0014540205
0.00063870038
-0.001417841
0.0007780546
-0.0013647072
0.00091103661
-0.001293916
0.0010362403
-0.0012123226
0.0011526004
-0.0011227596
0.0012594088
-0.0010278531
0.0013562763
-0.0009309577
0.0014433476
-0.00082757567
0.0015207897
-0.00072936784
0.0015888118
-0.00064318963
0.0016479618
-0.00056477039
0.0016991457
-0.00048531232
0.0017429214
-0.00042215334
0.0017800211
-0.00037013552
0.0018115465
-0.00031189711
0.0018384138
-0.00025716349
0.0018609383
-0.00023137046
0.0018803078
-0.00018334975
0.0018967525
-0.00016615124
0.0019111679
-0.00013281277
0.0019238999
-0.0001166063
0.0019353868
-0.00010559869
-0.00010744706
0.0019458875
-0.0015008937
-0.0001623286
0.0015091163
-0.0014910605
-0.00019774704
-0.0014791988
-0.00025127385
-0.0014649101
-0.00027165473
-0.0014477114
-0.00030025507
-0.0014270722
-0.0003275203
-0.0014023621
-0.00037324458
-0.001372951
-0.00041065332
-0.0013380781
-0.00046990958
-0.0012969826
-0.00053244095
-0.0012489128
-0.00059609778
-0.0011930851
-0.00066935045
-0.0011287235
-0.00075334519
-0.0010551766
-0.00084089633
-0.00097188364
-0.00093490449
-0.00087838155
-0.0010365566
-0.00077448208
-0.0011397802
-0.00066032321
-0.001239674
-0.00053630373
-0.001335346
-0.00040315499
-0.0014232649
-0.00026192715
-0.0014998674
-0.00011398103
-0.0015612686
3.8946855e-05
-0.0016049409
0.00019493862
-0.0016289896
0.00035201991
-0.0016305805
0.00050812457
-0.0016101251
0.00066107261
-0.0015707891
0.00080893013
-0.0015125647
0.00095008681
-0.0014350727
0.0010830586
-0.0013452944
0.001206717
-0.0012464181
0.0013203074
-0.0011414435
0.0014234114
-0.0010340617
0.0015161492
-0.00092031345
0.0015986885
-0.00081190716
0.0016712613
-0.00071576243
0.0017344387
-0.00062794783
0.0017891474
-0.00054002102
0.001835988
-0.00046899391
0.0018757311
-0.00040987862
0.0019095055
-0.00034567146
0.0019382574
-0.00028591538
0.001962348
-0.00025546113
0.0019829875
-0.00020398927
0.0020004409
-0.00018360461
0.0020156261
-0.000147998
0.0020289112
-0.00012989139
0.0020407536
-0.00011744104
-0.00011812025
0.0020514268
-0.0015992292
-0.00017066949
0.0016075701
-0.0015891704
-0.00020780587
-0.0015769723
-0.00026347194
-0.0015621917
-0.00028643526
-0.0015443219
-0.00031812489
-0.0015227979
-0.00034904436
-0.0014969636
-0.00039907881
-0.001466141
-0.00044147593
-0.0014295369
-0.00050651366
-0.0013863452
-0.00057563265
-0.0013357617
-0.00064668134
-0.0012769554
-0.00072815677
-0.0012091061
-0.0008211944
-0.0011315163
-0.00091848622
-0.0010435884
-0.0010228324
-0.00094483767
-0.0011353074
-0.00083506302
-0.0012495548
-0.00071439868
-0.0013603384
-0.0005832612
-0.0014664835
-0.00044241913
-0.001564107
-0.00029298151
-0.001649305
-0.00013638865
-0.0017178614
2.5531594e-05
-0.0017668611
0.00019075235
-0.0017942104
0.00035717546
-0.0017970036
0.00052260863
-0.0017755583
0.000684757
-0.0017329374
0.00084157267
-0.0016693803
0.00099133787
-0.0015848379
0.0011324857
-0.0014864422
0.0012638211
-0.0013777535
0.0013845404
-0.0012621628
0.0014941951
-0.0011437164
0.0015928824
-0.0010190008
0.0016807719
-0.00089979667
0.0017581189
-0.0007931094
0.0018255205
-0.00069534941
0.0018839281
-0.00059842863
0.0019339869
-0.0005190527
0.0019765092
-0.00045240089
0.0020126557
-0.00038181797
0.0020434056
-0.00031666528
0.0020691663
-0.00028122186
0.0020911742
-0.00022599718
0.0021097286
-0.00020215904
0.0021257725
-0.00016404182
0.0021396961
-0.00014381505
0.0021519769
-0.00012972181
-0.00012905161
0.0021629082
-0.0017033267
-0.00017916451
0.0017118218
-0.0016930036
-0.00021812906
-0.0016804255
-0.00027605001
-0.0016651028
-0.00030175792
-0.0016465032
-0.00033672454
-0.0016240253
-0.00037152219
-0.0015969857
-0.00042611846
-0.0015646555
-0.00047380613
-0.0015262071
-0.00054496207
-0.0014807858
-0.0006210539
-0.0014275323
-0.00069993485
-0.0013655657
-0.00079012335
-0.0012940193
-0.00089274085
-0.0012121466
-0.0010003589
-0.0011193117
-0.0011156672
-0.0010150066
-0.0012396124
-0.0008990164
-0.0013655451
-0.00077147209
-0.0014878827
-0.00063280929
-0.0016051463
-0.00048383634
-0.0017130799
-0.00032572476
-0.0018074166
-0.00015999884
-0.0018835873
1.1416581e-05
-0.0019382765
0.00018637899
-0.0019691728
0.0003626598
-0.0019732844
0.00053793422
-0.0019508327
0.00070978489
-0.0019047881
0.00087604342
-0.0018356389
0.0010348795
-0.0017436739
0.0011846379
-0.0016362007
0.0013240534
-0.001517169
0.0014522703
-0.0013903797
0.0015688089
-0.001260255
0.0016737437
-0.0011239357
0.0017672468
-0.00099329974
0.0018495969
-0.00087545952
0.0019214187
-0.0007671712
0.0019836913
-0.00066070118
0.0020371059
-0.00057246737
0.0020825187
-0.00049781368
0.0021211257
-0.00042042494
0.0021539423
-0.00034948187
0.0021814238
-0.00030870341
0.0022048363
-0.00024940969
0.0022245158
-0.00022183852
0.0022414326
-0.00018095858
0.0022560019
-0.00015838436
0.0022687226
-0.00014244254
-0.0001402353
0.0022799063
-0.0018135535
-0.0001878509
0.0018222399
-0.0018029258
-0.00022875672
-0.0017899229
-0.00028905295
-0.0017740063
-0.00031767446
-0.0017546166
-0.00035611431
-0.0017311139
-0.00039502485
-0.0017027848
-0.00045444752
-0.0016688475
-0.00050774351
-0.001628437
-0.00058537251
-0.0015806472
-0.00066884374
-0.0015245604
-0.00075602161
-0.0014592431
-0.00085544072
-0.001383779
-0.00096820486
-0.0012973708
-0.0010867672
-0.0011993419
-0.0012136962
-0.0010891594
-0.0013497948
-0.00096659364
-0.0014881109
-0.00083177282
-0.0016227035
-0.0006851531
-0.001751766
-0.00052758526
-0.0018706478
-0.00036030709
-0.0019746948
-0.00018493163
-0.0020589628
-3.4870563e-06
-0.0021197211
0.00018176181
-0.0021544217
0.00036844918
-0.0021599717
0.0005541104
-0.0021364939
0.0007361978
-0.0020868755
0.00091241559
-0.0020118567
0.0010808152
-0.0019120736
0.0012396481
-0.0017950336
0.0013875742
-0.0016650951
0.0015236837
-0.0015264891
0.0016474637
-0.001384035
0.0017589674
-0.0012354394
0.0018583697
-0.0010927021
0.0019459741
-0.00096306388
0.0020224352
-0.00084363228
0.0020887635
-0.00072702952
0.0021456992
-0.00062940308
0.0021941454
-0.00054625988
0.0022353379
-0.00046161739
0.0022703318
-0.00038447579
0.002299632
-0.00033800367
0.002324538
-0.00027431562
0.0023454234
-0.00024272398
0.0023632886
-0.00019882374
0.0023785747
-0.00017367048
0.0023918038
-0.00015567162
-0.00015174022
0.0024033087
-0.0019302678
-0.00019676073
0.0019391776
-0.0019192998
-0.00023972468
-0.0019058304
-0.00030252236
-0.0018892706
-0.00033423432
-0.0018690315
-0.00037635338
-0.001844433
-0.00041962337
-0.0018147293
-0.00048415125
-0.0017790825
-0.00054339033
-0.0017365881
-0.00062786682
-0.0016862849
-0.00071914694
-0.0016271941
-0.00081511249
-0.0015583261
-0.00092430869
-0.0014787127
-0.0010478183
-0.0013875025
-0.0011779773
-0.0012839765
-0.0013172223
-0.0011675751
-0.0014661961
-0.0010380529
-0.0016176331
-0.00089553575
-0.0017652207
-0.00074050186
-0.0019067999
-0.00057384724
-0.0020373024
-0.00039687989
-0.0021516621
-0.0002113064
-0.0022445363
-1.9266492e-05
-0.002311761
0.00017684686
-0.002350535
0.00037452438
-0.0023576493
0.00057115222
-0.0023331218
0.00076404452
-0.0022797678
0.00095077078
-0.0021985829
0.0011292582
-0.002090561
0.0012976591
-0.0019634345
0.0014545544
-0.0018219903
0.0015989767
-0.0016709115
0.0017303789
-0.0015154372
0.0018487928
-0.0013538533
0.0019543971
-0.0011983063
0.0020475202
-0.0010561871
0.002128849
-0.000924961
0.0021994285
-0.00079760906
0.0022600498
-0.00069002442
0.0023116659
-0.00059787595
0.0023555558
-0.00050550728
0.0023928179
-0.00042173788
0.0024240087
-0.00036919451
0.0024504645
-0.00030077139
0.0024725992
-0.00026485869
0.0024914457
-0.00021767023
0.0025074735
-0.0001896983
0.0025212298
-0.00016942788
-0.00016357918
0.0025330687
-0.0020538741
-0.00020592641
0.0020630398
-0.0020425292
-0.0002510696
-0.0020285506
-0.00031650093
-0.0020112965
-0.00035148845
-0.0019901469
-0.00039750296
-0.0019643787
-0.0004453916
-0.0019332114
-0.00051531855
-0.0018957482
-0.0005808535
-0.0018510422
-0.00067257278
-0.0017980736
-0.0007721156
-0.0017357988
-0.00087738723
-0.0016631696
-0.00099693796
-0.0015791622
-0.0011318256
-0.0014828688
-0.0012742708
-0.001373525
-0.001426566
-0.0012505434
-0.0015891777
-0.0011136616
-0.0017545149
-0.00096300345
-0.0019158788
-0.00079907096
-0.0020707324
-0.00062280826
-0.0022135651
-0.00043559778
-0.0023388726
-0.00023924534
-0.0024408887
-3.6008158e-05
-0.0025149982
0.00017158429
-0.0025581275
0.00038087069
-0.0025669357
0.00058908071
-0.0025413318
0.00079338146
-0.0024840686
0.00099119996