/*--------------------------------*- C++ -*----------------------------------*\
| =========                 |                                                 |
| \\      /  F ield         | OpenFOAM: The Open Source CFD Toolbox           |
|  \\    /   O peration     | Version:  v2006                                 |
|   \\  /    A nd           | Website:  www.openfoam.com                      |
|    \\/     M anipulation  |                                                 |
\*---------------------------------------------------------------------------*/
FoamFile
{
    version     2.0;
    format      ascii;
    class       volScalarField;
    location    "5000";
    object      pMean;
}
// * * * * * * * * * * * * * * * * * * * * * * * * * * * * * * * * * * * * * //

dimensions      [1 -1 -2 0 0 0 0];


internalField   nonuniform List<scalar> 
19765
(
1.0005624
1.0008501
1.0016715
1.0022403
1.0028082
1.0032334
1.0037466
1.0040416
1.0044312
1.0047531
1.0049763
1.0051481
1.0052905
1.0053697
1.0054007
1.0053999
1.0053663
1.0052975
1.0051931
1.0050524
1.0048714
1.0046528
1.0044152
1.0041348
1.0037935
1.0034371
1.003128
1.0027753
1.0023339
1.0019332
1.0015134
1.0010067
1.0004344
0.99968175
0.99907123
0.99863466
0.99807704
0.99723939
0.99665271
0.99599999
0.99493658
0.99401852
0.99385674
0.99303866
0.99305426
0.99278213
0.99299228
0.99332692
0.99375905
1.0016694
1.001819
1.0020122
1.0022477
1.0024987
1.0027422
1.0029975
1.0032142
1.0034406
1.0036672
1.0038616
1.004025
1.0041765
1.0042865
1.0043535
1.0044032
1.0044283
1.0044144
1.0043693
1.0042878
1.004171
1.0040269
1.0038466
1.0036316
1.0033899
1.0031243
1.0028241
1.0024944
1.0021404
1.0017596
1.0013546
1.0009298
1.0004885
1.0000436
0.99960286
0.99915792
0.99870137
0.99824915
0.99783043
0.99743634
0.99708649
0.9967973
0.99652111
0.99628187
0.99610955
0.9959619
0.99584746
0.99574231
0.99563609
1.0016322
1.0018242
1.0020427
1.0022615
1.0024793
1.0026851
1.0028875
1.0030628
1.0032358
1.0033976
1.0035426
1.0036705
1.0037858
1.0038756
1.0039371
1.0039797
1.0040016
1.0039946
1.0039573
1.0038883
1.0037871
1.0036564
1.0034943
1.0032999
1.0030784
1.0028326
1.0025574
1.0022542
1.0019284
1.0015789
1.0012095
1.0008266
1.0004367
1.0000454
0.99964655
0.99924284
0.99884581
0.99845777
0.99807805
0.99771922
0.99738435
0.99705682
0.99674557
0.99645782
0.99619606
0.99598232
0.9957932
0.99563084
0.99548095
1.0018405
1.0019673
1.0020981
1.002238
1.0023818
1.002526
1.002671
1.0028049
1.0029393
1.0030706
1.0031895
1.0032956
1.0033926
1.0034698
1.0035234
1.0035624
1.0035858
1.0035846
1.0035565
1.0035001
1.0034162
1.0033096
1.0031771
1.0030155
1.0028297
1.0026235
1.0023923
1.0021359
1.0018602
1.0015655
1.0012549
1.0009346
1.0006091
1.000284
0.99995402
0.99962211
0.99929919
0.99898922
0.99868705
0.99840533
0.99814817
0.99789748
0.99764972
0.99742627
0.99720542
0.99700154
0.99679385
0.9965898
0.99639025
1.0017645
1.0018796
1.0019967
1.002113
1.0022276
1.0023389
1.0024494
1.0025505
1.0026517
1.0027509
1.0028414
1.0029224
1.0029966
1.0030563
1.0030975
1.0031265
1.0031434
1.0031404
1.0031145
1.003064
1.0029879
1.0028894
1.0027662
1.0026156
1.0024421
1.0022502
1.0020364
1.0017997
1.0015457
1.0012761
1.0009931
1.0007016
1.0004052
1.0001091
0.99981166
0.99951465
0.9992243
0.99894363
0.99867007
0.99841027
0.99816479
0.99792333
0.99768387
0.9974576
0.99723062
0.99701235
0.99679589
0.99658575
0.99638128
1.001753
1.0018362
1.0019223
1.0020084
1.0020944
1.0021786
1.0022635
1.0023417
1.0024208
1.0024988
1.0025701
1.0026338
1.002692
1.0027386
1.0027699
1.0027908
1.002801
1.002794
1.0027673
1.0027193
1.0026489
1.0025594
1.0024489
1.0023145
1.0021598
1.0019884
1.0017979
1.0015876
1.0013624
1.0011239
1.0008744
1.000618
1.0003581
1.000099
0.99983974
0.99958186
0.9993303
0.99908748
0.99885176
0.99862779
0.99841599
0.99820851
0.99800438
0.99780887
0.99761338
0.99742203
0.99722852
0.99703328
0.99683916
1.00167
1.001741
1.0018139
1.0018848
1.0019543
1.0020212
1.0020885
1.0021499
1.002212
1.0022733
1.0023291
1.0023786
1.0024236
1.0024591
1.0024818
1.0024956
1.0024999
1.0024893
1.0024616
1.0024149
1.0023484
1.0022643
1.0021608
1.0020356
1.0018916
1.0017321
1.0015552
1.0013605
1.0011521
1.0009319
1.0007018
1.0004654
1.0002253
0.99998566
0.99974604
0.99950785
0.99927464
0.99904846
0.99882814
0.99861686
0.99841449
0.99821581
0.99801927
0.99782849
0.99763708
0.99744775
0.99725597
0.99706275
0.99686828
1.0016083
1.0016635
1.0017211
1.001777
1.0018321
1.0018851
1.0019385
1.0019871
1.0020365
1.002085
1.0021289
1.0021674
1.0022019
1.0022282
1.0022436
1.002251
1.0022499
1.0022356
1.0022061
1.0021598
1.002096
1.0020162
1.0019191
1.0018028
1.0016696
1.0015222
1.0013591
1.0011803
1.0009895
1.0007882
1.0005783
1.000363
1.0001449
0.99992724
0.99971012
0.99949471
0.99928399
0.99907973
0.99888102
0.99869045
0.99850804
0.99832944
0.99815352
0.99798267
0.99781186
0.99764278
0.99747149
0.99729835
0.99712351
1.0015273
1.0015734
1.0016215
1.0016678
1.0017129
1.001756
1.0017993
1.0018383
1.0018778
1.0019165
1.0019511
1.0019809
1.0020071
1.0020261
1.0020356
1.0020379
1.0020324
1.002015
1.001984
1.0019379
1.0018761
1.0017996
1.0017072
1.0015976
1.0014723
1.0013337
1.0011809
1.0010138
1.0008356
1.0006479
1.0004523
1.0002517
1.0000481
0.99984478
0.99964172
0.99944011
0.99924234
0.99905
0.99886242
0.99868162
0.99850755
0.99833702
0.99816873
0.99800465
0.99784061
0.99767786
0.99751315
0.99734664
0.99717806
1.0014561
1.0014931
1.0015323
1.0015699
1.0016065
1.0016413
1.0016763
1.0017075
1.0017391
1.0017698
1.0017969
1.0018196
1.001839
1.0018519
1.0018564
1.0018542
1.0018447
1.0018246
1.0017921
1.0017461
1.0016858
1.0016119
1.0015236
1.0014197
1.0013015
1.001171
1.0010275
1.0008711
1.0007047
1.0005296
1.0003474
1.0001608
0.99997161
0.99978264
0.99959415
0.99940719
0.99922389
0.99904571
0.9988721
0.99870482
0.99854397
0.99838681
0.99823223
0.9980819
0.99793215
0.99778403
0.99763459
0.99748388
0.99733171
1.0013812
1.0014119
1.0014446
1.0014758
1.001506
1.0015345
1.0015631
1.0015883
1.0016137
1.001638
1.001659
1.0016761
1.0016899
1.0016979
1.0016983
1.0016925
1.0016799
1.0016574
1.0016238
1.0015777
1.0015186
1.0014471
1.0013622
1.001263
1.0011507
1.0010269
1.0008911
1.0007435
1.0005867
1.0004218
1.0002505
1.000075
0.999897
0.99971903
0.99954139
0.99936508
0.99919195
0.99902336
0.99885883
0.99869991
0.9985467
0.99839704
0.9982498
0.99810658
0.9979641
0.9978233
0.99768162
0.99753903
0.99739506
1.0013124
1.0013375
1.0013644
1.0013899
1.0014147
1.0014378
1.001461
1.0014812
1.0015014
1.0015205
1.0015365
1.0015488
1.001558
1.0015618
1.0015587
1.0015499
1.0015345
1.0015101
1.0014755
1.0014294
1.0013714
1.0013018
1.0012199
1.0011249
1.0010178
1.0008999
1.000771
1.0006313
1.0004831
1.0003275
1.000166
1.0000006
0.99983301
0.99966544
0.99949826
0.99933245
0.99916969
0.99901126
0.99885677
0.99870765
0.99856407
0.99842418
0.99828693
0.99815387
0.99802198
0.99789218
0.99776208
0.9976317
0.99750063
1.0012449
1.0012656
1.001288
1.0013092
1.0013296
1.0013484
1.0013673
1.0013834
1.0013993
1.0014141
1.001426
1.0014344
1.0014398
1.0014402
1.0014342
1.0014228
1.0014052
1.0013792
1.0013437
1.0012977
1.0012406
1.0011728
1.0010935
1.0010022
1.0008996
1.000787
1.0006641
1.0005313
1.0003906
1.000243
1.00009
0.99993342
0.99977469
0.99961594
0.99945751
0.99930035
0.999146
0.99899563
0.99884892
0.99870716
0.99857055
0.99843756
0.99830718
0.99818095
0.99805607
0.99793348
0.997811
0.99768867
0.99756595
1.0011821
1.0011989
1.0012174
1.0012347
1.0012514
1.0012666
1.0012818
1.0012944
1.0013067
1.0013179
1.0013263
1.0013314
1.0013336
1.0013311
1.0013226
1.001309
1.0012896
1.0012623
1.0012261
1.0011802
1.001124
1.0010579
1.0009809
1.0008929
1.0007944
1.0006865
1.0005691
1.0004424
1.0003085
1.0001682
1.0000229
0.99987427
0.9997237
0.99957312
0.9994229
0.99927396
0.99912775
0.99898538
0.99884658
0.99871256
0.99858359
0.99845832
0.99833582
0.99821763
0.99810111
0.9979872
0.9978739
0.99776126
0.99764881
1.0011219
1.0011357
1.001151
1.0011651
1.0011787
1.0011909
1.001203
1.0012127
1.001222
1.0012301
1.0012356
1.0012379
1.0012374
1.0012325
1.001222
1.0012065
1.0011856
1.0011572
1.0011206
1.0010748
1.0010195
1.0009548
1.0008801
1.0007951
1.0007003
1.0005967
1.0004841
1.0003631
1.0002353
1.0001015
0.99996311
0.99982169
0.99967844
0.99953518
0.99939228
0.99925064
0.9991116
0.99897619
0.9988442
0.99871674
0.99859411
0.99847514
0.99835895
0.99824708
0.99813705
0.99802982
0.99792353
0.99781831
0.99771357
1.0010656
1.0010767
1.0010892
1.0011006
1.0011115
1.0011212
1.0011305
1.0011378
1.0011445
1.00115
1.0011529
1.0011529
1.0011501
1.001143
1.0011308
1.0011139
1.0010916
1.0010624
1.0010254
1.0009799
1.0009254
1.0008622
1.0007895
1.0007073
1.0006159
1.0005162
1.0004081
1.0002922
1.00017
1.0000423
0.99991021
0.99977539
0.9996389
0.99950245
0.99936639
0.99923162
0.9990994
0.99897072
0.99884537
0.99872445
0.99860824
0.99849575
0.99838617
0.99828098
0.99817787
0.99807779
0.99797902
0.99788171
0.99778531
1.0010122
1.0010211
1.0010312
1.0010404
1.001049
1.0010564
1.0010636
1.0010687
1.0010732
1.0010764
1.0010772
1.0010752
1.0010704
1.0010616
1.0010479
1.0010297
1.0010063
1.0009764
1.0009392
1.0008941
1.0008404
1.0007786
1.0007079
1.0006282
1.0005399
1.0004438
1.00034
1.0002288
1.0001117
0.99998953
0.99986335
0.9997346
0.99960436
0.99947418
0.99934445
0.99921601
0.99909005
0.99896751
0.99884822
0.9987332
0.99862274
0.99851597
0.99841213
0.9983127
0.99821547
0.99812141
0.99802892
0.99793818
0.9978486
1.000962
1.000969
1.0009771
1.0009843
1.0009909
1.0009964
1.0010016
1.0010048
1.0010075
1.0010087
1.0010077
1.0010039
1.0009974
1.0009871
1.0009722
1.0009529
1.0009287
1.0008983
1.000861
1.0008162
1.0007634
1.0007029
1.000634
1.0005567
1.0004714
1.0003787
1.0002788
1.000172
1.0000597
0.99994268
0.99982195
0.99969889
0.99957447
0.99945018
0.99932638
0.99920392
0.99908391
0.99896724
0.99885378
0.99874447
0.99863965
0.99853852
0.99844041
0.99834672
0.99825541
0.9981674
0.99808122
0.99799706
0.99791435
1.0009146
1.00092
1.0009263
1.0009318
1.0009367
1.0009406
1.0009441
1.0009457
1.0009467
1.0009463
1.0009436
1.0009383
1.0009304
1.0009188
1.0009029
1.0008827
1.0008578
1.000827
1.0007897
1.0007453
1.0006934
1.0006341
1.0005671
1.0004921
1.0004096
1.0003201
1.0002238
1.0001211
1.0000133
0.99990109
0.99978547
0.99966771
0.99954876
0.99942998
0.99931176
0.99919491
0.99908049
0.99896932
0.9988613
0.99875733
0.99865772
0.99856178
0.99846888
0.99838038
0.99829434
0.99821169
0.99813103
0.99805261
0.9979758
1.00087
1.0008739
1.0008787
1.0008827
1.0008862
1.0008886
1.0008906
1.0008908
1.0008903
1.0008885
1.0008844
1.0008778
1.0008687
1.000856
1.0008392
1.0008183
1.0007928
1.0007618
1.0007245
1.0006806
1.0006296
1.0005716
1.0005063
1.0004335
1.0003536
1.0002671
1.0001743
1.0000755
0.99997192
0.99986422
0.99975341
0.99964065
0.99952685
0.99941329
0.99930036
0.99918883
0.99907972
0.9989738
0.99887099
0.99877214
0.99867757
0.99858665
0.99849881
0.99841534
0.99833444
0.998257
0.99818172
0.99810883
0.99803774
1.0008278
1.0008305
1.000834
1.0008367
1.0008389
1.0008401
1.0008407
1.0008398
1.000838
1.0008349
1.0008296
1.0008219
1.0008117
1.0007981
1.0007805
1.000759
1.0007332
1.0007019
1.0006649
1.0006214
1.0005713
1.0005146
1.0004509
1.0003802
1.0003029
1.0002193
1.0001297
1.0000346
0.99993503
0.99983162
0.99972534
0.99961731
0.99950839
0.99939977
0.99929184
0.99918536
0.99908128
0.99898034
0.99888246
0.99878846
0.99869862
0.9986124
0.99852927
0.99845045
0.99837426
0.99830155
0.9982311
0.99816317
0.99809714
1.000788
1.0007897
1.000792
1.0007935
1.0007946
1.0007946
1.0007942
1.0007921
1.0007893
1.000785
1.0007787
1.00077
1.0007589
1.0007445
1.0007263
1.0007044
1.0006782
1.0006469
1.0006101
1.0005672
1.000518
1.0004625
1.0004005
1.0003318
1.0002569
1.0001761
1.0000896
0.999998
0.9999022
0.99980286
0.99970089
0.99959734
0.99949305
0.99938912
0.99928596
0.99918428
0.99908501
0.99898881
0.99889564
0.99880627
0.99872098
0.99863927
0.99856066
0.9984863
0.99841462
0.99834643
0.99828059
0.99821737
0.99815614
1.0007503
1.0007511
1.0007523
1.0007529
1.000753
1.0007521
1.0007506
1.0007476
1.0007438
1.0007386
1.0007314
1.0007218
1.0007099
1.0006949
1.0006762
1.0006539
1.0006275
1.0005963
1.0005597
1.0005174
1.0004692
1.0004149
1.0003545
1.0002877
1.0002151
1.000137
1.0000535
0.99996522
0.99987303
0.99977756
0.99967969
0.99958042
0.99948052
0.99938107
0.99928244
0.99918535
0.99909064
0.99899897
0.99891029
0.99882532
0.99874433
0.99866688
0.99859252
0.99852232
0.99845483
0.9983908
0.99832918
0.99827023
0.99821332
1.0007146
1.0007146
1.0007149
1.0007146
1.0007138
1.0007121
1.0007097
1.000706
1.0007013
1.0006952
1.0006872
1.000677
1.0006644
1.0006488
1.0006297
1.0006072
1.0005807
1.0005495
1.0005133
1.0004717
1.0004243
1.0003713
1.0003124
1.0002476
1.0001772
1.0001016
1.000021
0.99993592
0.99984718
0.99975541
0.99966145
0.99956624
0.99947055
0.99937536
0.99928107
0.99918835
0.999098
0.99901064
0.99892625
0.99884549
0.99876861
0.99869522
0.99862491
0.99855868
0.99849517
0.99843509
0.99837746
0.99832253
0.99826968
1.0006807
1.00068
1.0006796
1.0006785
1.0006769
1.0006745
1.0006713
1.0006668
1.0006614
1.0006546
1.0006459
1.0006351
1.000622
1.0006059
1.0005866
1.0005638
1.0005373
1.0005063
1.0004705
1.0004295
1.0003831
1.0003313
1.000274
1.000211
1.0001428
1.0000696
0.99999181
0.99990978
0.99982434
0.99973611
0.99964588
0.99955456
0.99946287
0.99937176
0.9992816
0.99919306
0.99910688
0.99902364
0.99894333
0.99886658
0.9987936
0.99872406
0.99865758
0.99859506
0.99853527
0.99847886
0.99842491
0.99837367
0.9983245
1.0006485
1.0006472
1.0006461
1.0006444
1.0006421
1.000639
1.0006352
1.0006301
1.000624
1.0006166
1.0006073
1.0005959
1.0005823
1.000566
1.0005464
1.0005235
1.000497
1.0004663
1.0004309
1.0003906
1.0003452
1.0002946
1.0002388
1.0001777
1.0001115
1.0000408
0.99996559
0.9998865
0.99980423
0.99971938
0.99963273
0.99954512
0.99945727
0.99937005
0.99928385
0.99919929
0.99911709
0.99903778
0.99896138
0.99888844
0.99881919
0.99875332
0.99869047
0.99863149
0.99857522
0.99852227
0.99847178
0.99842399
0.99837827
1.0006178
1.0006159
1.0006143
1.000612
1.0006092
1.0006055
1.0006011
1.0005954
1.0005888
1.0005808
1.0005711
1.0005593
1.0005453
1.0005287
1.0005089
1.000486
1.0004596
1.0004292
1.0003943
1.0003547
1.0003103
1.0002609
1.0002066
1.0001472
1.0000832
1.0000147
0.99994209
0.99986582
0.9997866
0.999705
0.99962177
0.99953772
0.99945353
0.99937004
0.99928761
0.99920686
0.99912846
0.99905291
0.99898022
0.99891092
0.99884522
0.99878281
0.99872341
0.99866775
0.99861478
0.99856505
0.99851777
0.99847317
0.99843062
1.0005886
1.0005862
1.0005841
1.0005812
1.0005779
1.0005737
1.0005688
1.0005627
1.0005556
1.0005472
1.000537
1.0005249
1.0005106
1.0004938
1.000474
1.0004511
1.0004249
1.0003947
1.0003604
1.0003216
1.0002781
1.00023
1.0001771
1.0001195
1.0000574
0.99999119
0.99992107
0.99984752
0.99977123
0.99969275
0.9996128
0.99953216
0.99945148
0.99937154
0.99929273
0.99921562
0.99914084
0.99906886
0.99899971
0.99893388
0.99887155
0.99881245
0.9987563
0.99870379
0.99865395
0.99860726
0.99856299
0.99852137
0.99848177
1.0005605
1.0005578
1.0005552
1.000552
1.0005482
1.0005436
1.0005383
1.0005317
1.0005242
1.0005154
1.000505
1.0004925
1.0004781
1.0004611
1.0004413
1.0004185
1.0003925
1.0003627
1.000329
1.0002909
1.0002485
1.0002016
1.0001501
1.0000942
1.0000341
0.99997003
0.99990231
0.9998314
0.99975793
0.99968244
0.99960564
0.99952826
0.99945093
0.9993744
0.99929904
0.99922539
0.99915407
0.99908551
0.99901973
0.99895719
0.99889806
0.99884209
0.99878902
0.99873948
0.99869256
0.99864871
0.99860726
0.99856839
0.9985315
1.0005337
1.0005306
1.0005277
1.0005241
1.0005199
1.0005149
1.0005093
1.0005024
1.0004946
1.0004855
1.0004747
1.0004621
1.0004475
1.0004305
1.0004107
1.0003881
1.0003623
1.000333
1.0002998
1.0002626
1.0002211
1.0001754
1.0001254
1.0000712
1.000013
0.99995103
0.99988564
0.99981726
0.99974651
0.9996739
0.99960012
0.99952586
0.99945174
0.99937846
0.99930639
0.99923606
0.99916803
0.99910271
0.99904014
0.99898073
0.99892463
0.99887163
0.99882148
0.99877474
0.99873058
0.99868941
0.99865058
0.99861429
0.99857994
1.0005079
1.0005045
1.0005013
1.0004974
1.0004929
1.0004876
1.0004817
1.0004746
1.0004665
1.0004571
1.0004462
1.0004334
1.0004187
1.0004017
1.000382
1.0003596
1.0003342
1.0003053
1.0002728
1.0002363
1.0001959
1.0001514
1.0001028
1.0000503
0.99999388
0.999934
0.99987086
0.99980494
0.99973681
0.99966697
0.99959608
0.99952482
0.99945376
0.99938359
0.99931466
0.99924748
0.99918258
0.99912035
0.99906082
0.99900438
0.99895116
0.99890096
0.99885357
0.99880946
0.9987679
0.99872922
0.99869284
0.99865894
0.99862692
1.000483
1.0004795
1.0004759
1.0004718
1.0004671
1.0004616
1.0004554
1.0004481
1.0004398
1.0004302
1.0004192
1.0004063
1.0003916
1.0003746
1.0003551
1.0003329
1.0003079
1.0002795
1.0002476
1.000212
1.0001726
1.0001294
1.0000822
1.0000312
0.99997667
0.99991879
0.99985785
0.9997943
0.99972869
0.99966151
0.9995934
0.999525
0.99945687
0.99938966
0.99932372
0.99925954
0.99919762
0.99913831
0.99908167
0.99902804
0.99897755
0.99893
0.9988852
0.99884358
0.99880445
0.99876812
0.99873404
0.99870237
0.99867252
1.000459
1.0004553
1.0004516
1.0004472
1.0004424
1.0004367
1.0004303
1.0004228
1.0004144
1.0004047
1.0003936
1.0003807
1.000366
1.0003491
1.0003298
1.000308
1.0002833
1.0002555
1.0002243
1.0001896
1.0001512
1.0001091
1.0000634
1.000014
0.99996119
0.99990526
0.99984645
0.99978519
0.99972202
0.9996574
0.99959195
0.99952629
0.99946096
0.99939658
0.99933348
0.99927215
0.99921304
0.99915651
0.99910259
0.99905162
0.99900369
0.99895865
0.99891629
0.998877
0.99884015
0.99880601
0.99877406
0.99874445
0.99871661
1.0004358
1.000432
1.0004281
1.0004237
1.0004186
1.0004128
1.0004063
1.0003987
1.0003902
1.0003805
1.0003693
1.0003564
1.0003418
1.0003251
1.0003061
1.0002845
1.0002603
1.000233
1.0002026
1.0001687
1.0001314
1.0000905
1.0000462
0.99999835
0.99994731
0.99989329
0.99983655
0.99977751
0.99971668
0.99965453
0.99959163
0.99952859
0.99946593
0.99940423
0.99934384
0.9992852
0.99922876
0.99917484
0.9991235
0.99907503
0.99902952
0.99898682
0.99894676
0.99890966
0.99887495
0.99884285
0.99881289
0.99878521
0.99875924
1.0004134
1.0004095
1.0004055
1.0004009
1.0003958
1.0003899
1.0003833
1.0003757
1.0003671
1.0003574
1.0003462
1.0003335
1.000319
1.0003025
1.0002837
1.0002625
1.0002388
1.0002121
1.0001824
1.0001495
1.0001132
1.0000735
1.0000305
0.99998426
0.99993492
0.99988276
0.99982803
0.99977115
0.99971258
0.9996528
0.99959235
0.99953181
0.99947168
0.99941254
0.9993547
0.99929861
0.99924469
0.99919324
0.99914431
0.99909819
0.99905495
0.99901445
0.99897653
0.99894147
0.99890874
0.99887855
0.99885043
0.99882452
0.99880027
1.0003916
1.0003877
1.0003836
1.000379
1.0003738
1.0003679
1.0003613
1.0003536
1.0003451
1.0003354
1.0003243
1.0003116
1.0002973
1.0002811
1.0002626
1.0002419
1.0002187
1.0001926
1.0001637
1.0001316
1.0000964
1.0000579
1.0000163
0.99997157
0.99992391
0.99987357
0.99982081
0.999766
0.99970962
0.99965212
0.99959401
0.99953586
0.99947815
0.99942142
0.999366
0.99931231
0.99926076
0.99921162
0.99916496
0.99912103
0.99907991
0.99904147
0.99900554
0.99897239
0.99894152
0.99891309
0.99888669
0.99886244
0.99883978
1.0003705
1.0003666
1.0003625
1.0003578
1.0003526
1.0003467
1.0003401
1.0003325
1.000324
1.0003144
1.0003034
1.0002909
1.0002768
1.0002609
1.0002428
1.0002225
1.0001998
1.0001744
1.0001463
1.0001151
1.0000809
1.0000437
1.0000034
0.99996021
0.9999142
0.99986564
0.99981478
0.999762
0.99970773
0.99965241
0.99959655
0.99954068
0.99948527
0.99943083
0.99937769
0.99932625
0.99927691
0.99922993
0.99918538
0.99914349
0.99910434
0.9990678
0.99903372
0.99900233
0.99897316
0.99894636
0.99892153
0.99889877
0.99887756
1.00035
1.0003461
1.000342
1.0003374
1.0003322
1.0003263
1.0003198
1.0003122
1.0003038
1.0002943
1.0002835
1.0002712
1.0002574
1.0002417
1.0002241
1.0002043
1.0001821
1.0001575
1.0001301
1.0000999
1.0000668
1.0000308
0.99999182
0.99995007
0.99990568
0.99985887
0.99980987
0.99975905
0.99970683
0.99965362
0.99959991
0.99954621
0.99949297
0.99944069
0.9993897
0.99934037
0.99929309
0.99924811
0.99920552
0.99916552
0.99912819
0.9990934
0.99906103
0.99903126
0.99900367
0.99897838
0.99895502
0.99893366
0.99891381
1.0003301
1.0003262
1.0003222
1.0003176
1.0003125
1.0003067
1.0003002
1.0002928
1.0002845
1.0002751
1.0002645
1.0002525
1.0002389
1.0002236
1.0002064
1.0001871
1.0001656
1.0001416
1.0001151
1.0000858
1.0000538
1.000019
0.99998137
0.9999411
0.9998983
0.9998532
0.99980602
0.99975711
0.99970687
0.99965568
0.99960404
0.9995524
0.99950123
0.99945099
0.99940199
0.99935463
0.99930926
0.99926613
0.99922534
0.99918707
0.99915139
0.99911821
0.99908739
0.99905909
0.99903292
0.99900898
0.99898691
0.99896678
0.99894811
1.0003107
1.0003069
1.000303
1.0002985
1.0002934
1.0002877
1.0002814
1.0002741
1.000266
1.0002568
1.0002464
1.0002347
1.0002214
1.0002065
1.0001898
1.000171
1.0001501
1.0001269
1.0001011
1.0000728
1.0000419
1.0000083
0.99997202
0.99993321
0.99989199
0.99984857
0.99980316
0.99975611
0.99970778
0.99965856
0.99960889
0.99955923
0.99951001
0.99946168
0.99941455
0.99936901
0.9993254
0.99928396
0.9992448
0.9992081
0.99917393
0.9991422
0.99911279
0.99908583
0.99906098
0.99903829
0.99901745
0.9989985
0.99898099
1.0002919
1.0002882
1.0002843
1.00028
1.000275
1.0002695
1.0002632
1.0002562
1.0002482
1.0002393
1.0002291
1.0002177
1.0002048
1.0001903
1.000174
1.0001558
1.0001356
1.0001131
1.0000882
1.0000609
1.000031
0.99999863
0.9999637
0.99992633
0.99988667
0.9998449
0.99980125
0.99975601
0.99970954
0.99966221
0.99961443
0.99956665
0.99951928
0.99947274
0.99942736
0.99938349
0.99934148
0.99930158
0.99926388
0.99922859
0.99919575
0.9991653
0.99913713
0.99911134
0.99908761
0.99906597
0.99904614
0.99902813
0.99901151
1.0002736
1.00027
1.0002663
1.000262
1.0002573
1.0002519
1.0002458
1.0002389
1.0002312
1.0002225
1.0002126
1.0002015
1.000189
1.000175
1.0001592
1.0001416
1.000122
1.0001003
1.0000763
1.0000499
1.0000211
0.99998996
0.99995635
0.99992042
0.9998823
0.99984217
0.99980022
0.99975676
0.9997121
0.9996666
0.99962065
0.99957467
0.99952904
0.99948419
0.99944041
0.99939808
0.99935752
0.99931898
0.99928259
0.99924852
0.99921686
0.99918753
0.99916045
0.99913571
0.99911302
0.99909241
0.99907358
0.99905657
0.99904094
1.0002559
1.0002525
1.0002488
1.0002447
1.0002401
1.0002349
1.000229
1.0002223
1.0002148
1.0002064
1.0001969
1.0001861
1.000174
1.0001604
1.0001452
1.0001282
1.0001093
1.0000883
1.0000652
1.0000399
1.0000122
0.9999822
0.99994992
0.99991542
0.99987883
0.9998403
0.99980005
0.99975832
0.99971544
0.99967172
0.99962754
0.99958327
0.9995393
0.99949602
0.99945373
0.99941278
0.99937351
0.99933618
0.99930091
0.99926789
0.9992372
0.9992088
0.99918261
0.99915869
0.99913678
0.99911688
0.99909871
0.9990823
0.99906722
1.0002387
1.0002354
1.000232
1.000228
1.0002235
1.0002185
1.0002128
1.0002064
1.0001992
1.000191
1.0001818
1.0001714
1.0001598
1.0001466
1.000132
1.0001156
1.0000974
1.0000772
1.000055
1.0000306
1.0000041
0.99997531
0.99994435
0.99991128
0.9998762
0.99983928
0.99980069
0.99976068
0.99971954
0.99967756
0.99963508
0.99959247
0.99955007
0.99950826
0.99946734
0.99942764
0.99938951
0.99935321
0.99931888
0.99928672
0.99925683
0.99922919
0.99920374
0.99918056
0.99915941
0.99914029
0.99912296
0.99910741
0.99909324
1.000222
1.0002189
1.0002156
1.0002118
1.0002076
1.0002027
1.0001973
1.0001911
1.0001841
1.0001763
1.0001674
1.0001574
1.0001462
1.0001336
1.0001195
1.0001037
1.0000863
1.0000669
1.0000456
1.0000223
0.99999679
0.99996924
0.9999396
0.99990795
0.99987438
0.99983905
0.99980212
0.9997638
0.99972438
0.9996841
0.99964329
0.99960228
0.99956138
0.99952096
0.99948129
0.99944272
0.99940558
0.99937012
0.99933654
0.99930503
0.9992757
0.99924857
0.99922359
0.9992008
0.99917999
0.99916114
0.999144
0.99912857
0.99911444
1.000206
1.000203
1.0001999
1.0001962
1.0001922
1.0001875
1.0001823
1.0001764
1.0001697
1.0001622
1.0001537
1.0001441
1.0001333
1.0001212
1.0001077
1.0000926
1.0000759
1.0000574
1.000037
1.0000146
0.99999027
0.99996394
0.99993562
0.99990539
0.99987333
0.99983958
0.9998043
0.99976767
0.99972994
0.99969135
0.99965219
0.99961273
0.99957329
0.99953417
0.99949566
0.99945809
0.99942178
0.99938701
0.99935397
0.9993229
0.99929394
0.99926714
0.99924249
0.99922009
0.99919975
0.99918148
0.99916507
0.99915048
0.99913734
1.0001904
1.0001876
1.0001846
1.0001812
1.0001773
1.0001729
1.0001679
1.0001623
1.0001559
1.0001487
1.0001405
1.0001314
1.0001211
1.0001095
1.0000966
1.0000822
1.0000662
1.0000485
1.000029
1.0000077
0.99998447
0.99995937
0.99993237
0.99990356
0.99987301
0.99984085
0.9998072
0.99977226
0.99973622
0.99969931
0.99966178
0.99962386
0.99958582
0.99954797
0.99951055
0.99947388
0.99943826
0.99940399
0.99937128
0.9993404
0.99931151
0.99928468
0.99925994
0.99923735
0.99921673
0.99919805
0.99918109
0.99916584
0.9991519
1.0001754
1.0001728
1.00017
1.0001667
1.000163
1.0001588
1.0001541
1.0001487
1.0001426
1.0001357
1.000128
1.0001192
1.0001094
1.0000984
1.0000861
1.0000724
1.0000571
1.0000403
1.0000217
1.0000014
0.99997936
0.99995548
0.99992982
0.99990244
0.9998734
0.99984282
0.99981083
0.99977757
0.99974323
0.99970801
0.9996721
0.99963571
0.99959908
0.99956245
0.99952607
0.9994902
0.99945516
0.99942122
0.99938865
0.99935772
0.99932867
0.99930165
0.99927674
0.9992541
0.99923365
0.99921541
0.99919922
0.99918503
0.99917251
1.000161
1.0001585
1.0001559
1.0001528
1.0001493
1.0001453
1.0001408
1.0001356
1.0001299
1.0001233
1.000116
1.0001076
1.0000983
1.0000879
1.0000762
1.0000632
1.0000487
1.0000327
1.0000151
0.99999584
0.99997488
0.99995224
0.99992791
0.99990196
0.99987443
0.99984546
0.99981512
0.99978357
0.99975097
0.99971746
0.99968321
0.99964838
0.99961316
0.99957777
0.99954239
0.99950727
0.99947268
0.99943892
0.99940625
0.99937499
0.99934539
0.99931763
0.99929183
0.9992681
0.99924633
0.99922652
0.99920847
0.99919216
0.99917723
1.0001472
1.0001448
1.0001423
1.0001394
1.000136
1.0001323
1.000128
1.0001231
1.0001176
1.0001114
1.0001045
1.0000966
1.0000878
1.0000779
1.0000668
1.0000545
1.0000408
1.0000257
1.000009
0.9999908
0.99997098
0.99994957
0.99992656
0.99990203
0.99987601
0.99984864
0.99981998
0.99979015
0.99975931
0.99972756
0.99969503
0.99966183
0.99962812
0.99959403
0.9995597
0.99952533
0.99949115
0.99945744
0.99942449
0.99939264
0.99936225
0.99933361
0.99930699
0.99928268
0.99926079
0.99924145
0.99922459
0.99921013
0.99919782
1.0001338
1.0001316
1.0001292
1.0001264
1.0001233
1.0001197
1.0001156
1.000111
1.0001058
1.0001
1.0000934
1.000086
1.0000777
1.0000684
1.000058
1.0000464
1.0000335
1.0000192
1.0000035
0.99998632
0.99996764
0.99994747
0.99992582
0.99990275
0.99987827
0.99985251
0.99982551
0.9997974
0.99976832
0.99973832
0.99970754
0.99967602
0.99964388
0.99961117
0.99957799
0.99954443
0.99951071
0.99947703
0.99944367
0.99941097
0.99937927
0.9993489
0.99932011
0.99929315
0.99926809
0.99924496
0.99922365
0.99920421
0.99918629
1.0001212
1.000119
1.0001167
1.000114
1.000111
1.0001076
1.0001037
1.0000994
1.0000945
1.000089
1.0000829
1.0000759
1.0000682
1.0000595
1.0000497
1.0000388
1.0000267
1.0000133
0.9999986
0.99998247
0.99996497
0.99994609
0.99992585
0.99990429
0.99988142
0.99985734
0.99983208
0.99980578
0.99977853
0.99975036
0.99972138
0.99969161
0.99966109
0.99962979
0.99959775
0.99956502
0.99953172
0.99949801
0.99946414
0.99943046
0.99939739
0.99936541
0.99933505
0.99930688
0.99928139
0.99925898
0.99923989
0.99922406
0.99921144
1.0001089
1.0001068
1.0001046
1.000102
1.0000991
1.0000959
1.0000922
1.0000881
1.0000836
1.0000784
1.0000727
1.0000662
1.000059
1.0000509
1.0000419
1.0000318
1.0000205
1.000008
0.99999416
0.99997907
0.99996269
0.99994502
0.99992607
0.99990588
0.99988451
0.99986213
0.9998387
0.99981438
0.99978921
0.99976322
0.99973638
0.99970874
0.99968022
0.99965072
0.99962019
0.99958856
0.99955587
0.99952215
0.99948755
0.99945235
0.9994169
0.99938164
0.99934701
0.99931347
0.99928128
0.99925068
0.99922175
0.99919479
0.9991695
1.0000974
1.0000953
1.000093
1.0000905
1.0000876
1.0000844
1.0000809
1.0000771
1.0000728
1.0000681
1.0000628
1.0000569
1.0000503
1.0000429
1.0000345
1.0000251
1.0000145
1.0000027
0.99998972
0.99997551
0.99996008
0.99994343
0.99992555
0.99990653
0.99988643
0.99986545
0.99984353
0.99982091
0.99979759
0.99977351
0.99974894
0.99972362
0.99969753
0.99967044
0.99964222
0.99961265
0.99958164
0.99954901
0.99951478
0.99947905
0.99944214
0.99940458
0.99936717
0.99933108
0.99929759
0.99926796
0.99924329
0.99922392
0.99921018
1.0000858
1.0000836
1.0000812
1.0000787
1.000076
1.0000731
1.0000699
1.0000665
1.0000627
1.0000584
1.0000537
1.0000483
1.0000422
1.0000353
1.0000276
1.0000188
1.000009
0.99999803
0.99998599
0.99997291
0.99995879
0.9999436
0.99992741
0.99991027
0.99989205
0.99987272
0.99985225
0.99983113
0.99980906
0.9997858
0.9997631
0.99973924
0.99971475
0.9996891
0.99966251
0.9996344
0.99960477
0.99957308
0.9995393
0.99950313
0.99946477
0.99942417
0.99938158
0.99933708
0.99929107
0.99924387
0.99919629
0.99914884
0.99910367
1.0000755
1.0000733
1.000071
1.0000684
1.0000657
1.0000628
1.0000596
1.0000562
1.0000525
1.0000485
1.000044
1.0000392
1.0000338
1.0000278
1.000021
1.0000135
1.0000052
0.9999957
0.99998505
0.99997362
0.9999616
0.99994879
0.99993525
0.99992098
0.99990578
0.99988956
0.99987224
0.99985453
0.99983564
0.99981639
0.99979618
0.9997755
0.9997532
0.99972965
0.99970463
0.9996778
0.99964896
0.99961734
0.99958273
0.99954424
0.99950211
0.99945597
0.99940717
0.9993572
0.99930882
0.99926473
0.99922953
0.99920308
0.99919144
1.0000641
1.0000606
1.0000572
1.0000539
1.0000508
1.0000479
1.0000452
1.0000425
1.0000397
1.0000366
1.0000332
1.0000294
1.0000253
1.0000205
1.000015
1.0000085
1.0000008
0.99999157
0.99998083
0.99996955
0.99995774
0.99994492
0.99993108
0.9999163
0.99990093
0.99988558
0.99987007
0.99985489
0.99983926
0.99982849
0.99980954
0.99979612
0.99977882
0.99976325
0.99974458
0.99972577
0.99970373
0.99968008
0.99965233
0.99962123
0.99958434
0.99954141
0.99948755
0.99942447
0.99934848
0.99925706
0.99915055
0.99902792
0.99890381
1.0000522
1.0000496
1.0000474
1.0000461
1.0000451
1.000044
1.0000427
1.000041
1.0000389
1.0000363
1.0000331
1.000029
1.0000238
1.0000174
1.0000098
1.0000007
0.99999012
0.99997805
0.99996562