/*--------------------------------*- C++ -*----------------------------------*\
| =========                 |                                                 |
| \\      /  F ield         | OpenFOAM: The Open Source CFD Toolbox           |
|  \\    /   O peration     | Version:  v2006                                 |
|   \\  /    A nd           | Website:  www.openfoam.com                      |
|    \\/     M anipulation  |                                                 |
\*---------------------------------------------------------------------------*/
FoamFile
{
    version     2.0;
    format      ascii;
    class       volScalarField;
    location    "5000";
    object      rho;
}
// * * * * * * * * * * * * * * * * * * * * * * * * * * * * * * * * * * * * * //

dimensions      [1 -3 0 0 0 0 0];


internalField   nonuniform List<scalar> 
19765
(
1.0004844
1.0007142
1.0013842
1.001799
1.002231
1.0025384
1.0029244
1.0031199
1.0034067
1.0036317
1.0037784
1.0038933
1.0039878
1.0040318
1.0040388
1.0040207
1.0039807
1.0039148
1.003824
1.0037066
1.0035549
1.0033724
1.0031821
1.0029609
1.0026855
1.0023951
1.0021589
1.0018922
1.0015399
1.0012321
1.0009163
1.0005264
1.0000966
0.99948843
0.99899847
0.9986761
0.99826752
0.9975803
0.99713221
0.99665853
0.99580106
0.99501058
0.99495702
0.99420976
0.99422719
0.99392216
0.99405093
0.99425968
0.99457371
1.0012289
1.0013245
1.0014553
1.0016172
1.0017912
1.001959
1.0021416
1.0022904
1.0024545
1.0026205
1.0027585
1.0028728
1.0029829
1.0030588
1.0031005
1.0031331
1.0031469
1.0031298
1.0030921
1.0030281
1.0029386
1.002831
1.0026959
1.0025355
1.0023569
1.0021616
1.0019386
1.0016941
1.0014335
1.0011525
1.000854
1.0005414
1.0002148
0.99988595
0.99956331
0.99923872
0.99890182
0.99856696
0.99826262
0.99797564
0.99771601
0.99751055
0.99731198
0.99714322
0.99703644
0.99694221
0.99687198
0.99680536
0.99673663
1.0012365
1.0013777
1.0015359
1.0016882
1.0018394
1.0019792
1.0021184
1.0022328
1.0023497
1.0024567
1.0025507
1.0026334
1.002709
1.0027653
1.0028015
1.0028257
1.002835
1.0028226
1.0027885
1.0027314
1.0026509
1.0025484
1.0024237
1.0022761
1.0021087
1.0019235
1.0017172
1.0014913
1.0012504
1.0009925
1.0007212
1.0004416
1.0001582
0.99987586
0.99958833
0.99929714
0.99901194
0.99873534
0.99846421
0.99820801
0.99797138
0.99773883
0.99751322
0.99730174
0.99710944
0.99695914
0.99682326
0.99670593
0.99659517
1.0013887
1.0014762
1.0015681
1.0016665
1.0017679
1.0018691
1.0019722
1.0020648
1.0021598
1.0022522
1.0023342
1.0024065
1.0024728
1.0025236
1.0025565
1.0025797
1.0025916
1.0025846
1.002558
1.0025106
1.0024433
1.0023605
1.0022594
1.0021371
1.0019972
1.0018432
1.0016712
1.001481
1.0012776
1.0010605
1.0008322
1.0005979
1.0003602
1.0001242
0.99988465
0.99964373
0.99941026
0.99918835
0.99897186
0.99877103
0.99859056
0.99841565
0.99824038
0.99808697
0.99793318
0.99779334
0.9976493
0.99750878
0.99737371
1.0013195
1.0014012
1.0014847
1.0015667
1.0016471
1.0017244
1.0018017
1.0018704
1.0019404
1.002009
1.0020703
1.0021244
1.0021741
1.0022125
1.0022367
1.0022527
1.0022601
1.0022525
1.002228
1.0021855
1.0021239
1.0020462
1.0019504
1.0018343
1.0017016
1.0015562
1.0013952
1.0012174
1.0010275
1.0008265
1.000616
1.0003999
1.0001803
0.99996167
0.99974239
0.99952346
0.99930957
0.9991039
0.99890314
0.99871249
0.99853329
0.99835771
0.99818143
0.99801777
0.99785171
0.99769377
0.99753706
0.99738495
0.99723591
1.0013069
1.001365
1.0014262
1.0014867
1.0015473
1.001606
1.0016659
1.0017193
1.0017744
1.0018286
1.0018771
1.0019197
1.0019586
1.0019883
1.0020063
1.0020171
1.0020201
1.0020102
1.0019858
1.0019458
1.0018893
1.0018195
1.0017345
1.0016321
1.0015152
1.0013867
1.0012446
1.0010882
1.0009214
1.0007453
1.0005614
1.0003732
1.0001825
0.9999932
0.99980397
0.99961586
0.99943268
0.99925671
0.99908587
0.99892391
0.99877166
0.99862258
0.9984752
0.99833533
0.99819468
0.9980576
0.99791861
0.99777811
0.99763875
1.0012406
1.0012902
1.001342
1.0013917
1.0014404
1.0014867
1.0015338
1.0015754
1.0016183
1.0016605
1.0016981
1.0017308
1.0017605
1.0017827
1.0017951
1.0018013
1.0018006
1.0017887
1.0017642
1.0017258
1.0016727
1.0016069
1.001527
1.0014312
1.0013218
1.0012016
1.0010689
1.0009232
1.0007681
1.0006045
1.0004339
1.0002591
1.0000818
0.99990529
0.99972904
0.99955392
0.99938257
0.999217
0.99905565
0.998901
0.99875332
0.9986087
0.99846476
0.99832626
0.99818654
0.99804907
0.99790962
0.99776938
0.99762813
1.0011927
1.001231
1.0012719
1.001311
1.0013495
1.0013861
1.0014235
1.0014563
1.0014903
1.0015236
1.0015529
1.0015781
1.0016005
1.0016164
1.001624
1.001626
1.0016217
1.0016075
1.0015821
1.0015444
1.0014938
1.0014317
1.0013571
1.0012686
1.0011678
1.0010571
1.0009353
1.000802
1.0006605
1.0005116
1.0003566
1.0001983
1.0000379
0.99987847
0.99971963
0.9995622
0.99940838
0.99925983
0.99911536
0.99897702
0.99884508
0.99871608
0.99858858
0.99846554
0.99834209
0.99822029
0.99809668
0.9979718
0.99784577
1.0011301
1.001162
1.0011962
1.0012284
1.0012599
1.0012894
1.0013196
1.0013458
1.0013729
1.0013992
1.001422
1.0014412
1.0014579
1.0014689
1.0014727
1.0014713
1.0014642
1.0014482
1.0014221
1.001385
1.0013363
1.001277
1.001206
1.0011226
1.0010277
1.0009236
1.0008093
1.0006846
1.0005522
1.0004131
1.0002684
1.0001204
0.9999703
0.99982078
0.99967167
0.99952371
0.99937866
0.99923802
0.99910085
0.99896871
0.99884177
0.99871768
0.9985947
0.99847554
0.99835597
0.99823777
0.99811802
0.99799709
0.99787458
1.0010761
1.0011015
1.0011293
1.0011553
1.0011808
1.0012046
1.0012289
1.0012496
1.0012712
1.0012918
1.0013095
1.0013238
1.0013357
1.0013426
1.001343
1.0013386
1.001329
1.0013112
1.0012845
1.0012477
1.0012004
1.0011434
1.0010758
1.0009969
1.0009076
1.0008097
1.0007026
1.000586
1.0004626
1.000333
1.0001985
1.0000611
0.99992187
0.99978326
0.99964519
0.99950838
0.99937438
0.99924453
0.99911806
0.99899635
0.99887962
0.99876579
0.99865348
0.99854487
0.99843636
0.99832936
0.99822128
0.99811236
0.99800243
1.0010192
1.0010402
1.0010634
1.0010848
1.0011058
1.0011252
1.0011449
1.0011615
1.0011786
1.0011949
1.0012084
1.0012188
1.0012269
1.0012304
1.0012281
1.0012214
1.0012097
1.0011906
1.0011633
1.0011268
1.0010807
1.0010257
1.0009608
1.0008856
1.0008008
1.000708
1.0006066
1.0004967
1.0003803
1.0002583
1.0001317
1.0000024
0.99987133
0.99974062
0.99961031
0.99948107
0.99935425
0.99923107
0.99911088
0.99899486
0.99888321
0.99877438
0.99866692
0.99856296
0.99845922
0.99835702
0.99825408
0.99815059
0.99804601
1.0009674
1.0009844
1.0010035
1.001021
1.001038
1.0010537
1.0010696
1.0010827
1.0010962
1.0011087
1.0011187
1.0011258
1.0011307
1.0011315
1.0011269
1.0011182
1.0011047
1.0010844
1.0010566
1.0010204
1.0009753
1.0009219
1.0008595
1.0007876
1.0007069
1.0006186
1.0005225
1.0004185
1.0003086
1.0001936
1.0000743
0.99995258
0.99982928
0.99970633
0.99958383
0.99946244
0.99934339
0.99922783
0.99911518
0.99900655
0.99890218
0.9988007
0.99870086
0.99860456
0.99850886
0.99841495
0.99832074
0.99822642
0.99813158
1.0009166
1.0009306
1.0009464
1.0009608
1.0009748
1.0009874
1.0010002
1.0010105
1.001021
1.0010306
1.0010377
1.0010422
1.0010445
1.0010429
1.0010364
1.001026
1.0010111
1.0009899
1.0009617
1.0009257
1.0008816
1.0008298
1.0007695
1.0007005
1.0006233
1.000539
1.0004474
1.0003486
1.0002443
1.0001352
1.0000222
0.99990696
0.99979019
0.99967367
0.99955753
0.99944242
0.99932943
0.99921964
0.99911253
0.99900911
0.99890961
0.99881295
0.99871788
0.99862631
0.99853546
0.99844653
0.99835761
0.9982689
0.99817979
1.0008695
1.0008808
1.0008937
1.0009055
1.0009168
1.0009269
1.0009371
1.000945
1.000953
1.0009599
1.0009647
1.0009669
1.000967
1.0009634
1.0009554
1.0009436
1.0009275
1.0009055
1.000877
1.0008413
1.0007981
1.0007476
1.0006892
1.0006228
1.0005488
1.0004681
1.0003806
1.0002865
1.0001873
1.0000836
0.99997641
0.99986705
0.99975633
0.99964587
0.9995358
0.99942678
0.99931983
0.99921595
0.99911471
0.99901704
0.99892322
0.99883229
0.99874312
0.99865752
0.9985729
0.99849045
0.99840834
0.99832684
0.99824538
1.0008244
1.0008336
1.0008442
1.0008538
1.0008629
1.0008709
1.0008789
1.0008848
1.0008907
1.0008955
1.0008982
1.0008985
1.0008968
1.0008916
1.0008822
1.0008692
1.0008522
1.0008296
1.0008009
1.0007655
1.0007231
1.0006739
1.0006173
1.0005532
1.0004821
1.0004047
1.0003209
1.000231
1.0001364
1.0000376
0.99993552
0.99983145
0.99972614
0.99962106
0.99951636
0.99941267
0.99931095
0.99921212
0.9991158
0.99902286
0.99893357
0.99884714
0.99876247
0.99868136
0.99860135
0.99852362
0.9984465
0.99837026
0.99829424
1.0007823
1.0007896
1.0007983
1.0008059
1.0008131
1.0008193
1.0008255
1.0008297
1.0008337
1.0008367
1.0008377
1.0008363
1.000833
1.0008265
1.0008159
1.000802
1.0007841
1.000761
1.0007323
1.0006972
1.0006556
1.0006076
1.0005527
1.0004908
1.0004222
1.0003478
1.0002675
1.0001815
1.000091
0.9999967
0.99989937
0.9998002
0.9996999
0.99959984
0.99950019
0.99940156
0.99930487
0.99921098
0.99911955
0.99903143
0.99894687
0.9988652
0.99878541
0.99870922
0.99863432
0.99856186
0.99849028
0.99841987
0.99835
1.0007424
1.0007482
1.0007552
1.0007612
1.0007668
1.0007715
1.000776
1.0007788
1.0007813
1.0007827
1.0007822
1.0007795
1.0007748
1.0007671
1.0007556
1.0007409
1.0007224
1.0006989
1.0006701
1.0006354
1.0005946
1.0005477
1.0004944
1.0004345
1.0003684
1.0002968
1.0002196
1.0001371
1.0000505
0.99996033
0.99986735
0.99977269
0.999677
0.99958156
0.99948655
0.99939257
0.99930047
0.99921106
0.99912404
0.9990402
0.9989598
0.99888225
0.99880662
0.99873455
0.99866389
0.99859575
0.99852867
0.99846298
0.99839798
1.000705
1.0007094
1.000715
1.0007196
1.0007239
1.0007272
1.0007303
1.0007318
1.0007329
1.000733
1.0007313
1.0007274
1.0007216
1.0007128
1.0007006
1.0006852
1.0006661
1.0006424
1.0006137
1.0005794
1.0005393
1.0004935
1.0004416
1.0003836
1.0003198
1.0002508
1.0001765
1.0000974
1.0000144
0.99992804
0.99983912
0.99974866
0.99965728
0.99956618
0.99947554
0.99938595
0.99929823
0.99921313
0.99913038
0.99905073
0.99897446
0.99890104
0.99882962
0.99876175
0.99869543
0.99863172
0.99856926
0.9985084
0.99844843
1.0006697
1.000673
1.0006773
1.0006807
1.0006838
1.000686
1.0006879
1.0006883
1.0006883
1.0006872
1.0006843
1.0006794
1.0006726
1.0006631
1.0006502
1.0006342
1.0006147
1.0005909
1.0005622
1.0005283
1.000489
1.0004443
1.0003938
1.0003376
1.000276
1.0002094
1.0001379
1.0000618
0.99998217
0.99989941
0.99981427
0.99972774
0.9996404
0.99955336
0.99946682
0.99938136
0.99929773
0.99921665
0.99913787
0.99906212
0.99898963
0.99891998
0.99885234
0.99878821
0.99872571
0.99866587
0.9986074
0.99855068
0.99849495
1.0006365
1.0006388
1.000642
1.0006443
1.0006464
1.0006476
1.0006485
1.0006479
1.0006469
1.0006448
1.0006409
1.0006352
1.0006276
1.0006173
1.0006038
1.0005874
1.0005676
1.0005437
1.0005152
1.0004818
1.0004431
1.0003995
1.0003504
1.0002959
1.0002363
1.000172
1.0001031
1.0000299
0.99995345
0.99987406
0.9997925
0.99970966
0.99962613
0.99954293
0.99946028
0.99937872
0.99929899
0.99922175
0.99914679
0.99907479
0.99900598
0.99893999
0.99887606
0.9988156
0.99875686
0.99870081
0.99864626
0.99859359
0.99854204
1.0006051
1.0006066
1.0006088
1.0006103
1.0006114
1.0006117
1.0006117
1.0006103
1.0006084
1.0006054
1.0006008
1.0005943
1.0005859
1.000575
1.0005611
1.0005444
1.0005244
1.0005004
1.0004721
1.0004391
1.0004013
1.0003586
1.0003109
1.000258
1.0002003
1.0001382
1.0000718
1.0000014
0.99992788
0.99985168
0.99977348
0.99969414
0.99961421
0.99953465
0.99945567
0.99937782
0.99930179
0.99922818
0.99915683
0.99908835
0.999023
0.99896042
0.99889992
0.99884283
0.99878751
0.99873489
0.99868384
0.99863475
0.99858686
1.0005755
1.0005762
1.0005776
1.0005783
1.0005787
1.0005782
1.0005774
1.0005753
1.0005726
1.0005688
1.0005635
1.0005563
1.0005474
1.000536
1.0005217
1.0005047
1.0004845
1.0004606
1.0004326
1.0004001
1.000363
1.0003213
1.0002748
1.0002235
1.0001677
1.0001077
1.0000436
0.99997585
0.99990516
0.99983198
0.99975697
0.99968095
0.99960443
0.99952833
0.99945285
0.99937853
0.99930601
0.99923588
0.99916797
0.99910289
0.99904085
0.99898155
0.99892436
0.99887051
0.99881848
0.99876915
0.99872146
0.99867581
0.9986314
1.0005475
1.0005476
1.0005483
1.0005483
1.0005479
1.0005468
1.0005453
1.0005425
1.0005392
1.0005347
1.0005288
1.0005211
1.0005116
1.0004998
1.0004852
1.000468
1.0004478
1.0004239
1.0003962
1.0003642
1.0003279
1.0002872
1.0002419
1.0001922
1.0001381
1.0000801
1.0000183
0.999953
0.999885
0.9998147
0.99974273
0.99966985
0.99959658
0.99952377
0.99945162
0.99938066
0.9993115
0.99924467
0.99918004
0.99911817
0.99905927
0.99900306
0.99894897
0.99889814
0.99884916
0.99880284
0.99875821
0.99871566
0.99867438
1.000521
1.0005205
1.0005206
1.00052
1.000519
1.0005173
1.0005152
1.0005118
1.0005079
1.0005029
1.0004964
1.0004882
1.0004783
1.0004662
1.0004514
1.000434
1.0004138
1.0003901
1.0003627
1.0003312
1.0002957
1.0002559
1.0002119
1.0001636
1.0001112
1.0000551
0.99999547
0.9999326
0.99986717
0.99979961
0.99973053
0.99966066
0.99959049
0.99952081
0.99945184
0.99938409
0.99931812
0.99925445
0.99919296
0.99913416
0.99907826
0.999025
0.99897387
0.99892592
0.99887984
0.9988364
0.99879467
0.99875504
0.99871671
1.0004958
1.0004949
1.0004944
1.0004933
1.0004918
1.0004895
1.0004869
1.0004831
1.0004786
1.0004731
1.0004662
1.0004576
1.0004474
1.0004349
1.00042
1.0004025
1.0003823
1.0003588
1.0003317
1.0003009
1.000266
1.0002273
1.0001844
1.0001376
1.0000868
1.0000326
0.99997501
0.99991442
0.99985145
0.99978651
0.9997202
0.99965319
0.99958597
0.99951928
0.99945335
0.99938866
0.99932574
0.99926508
0.99920657
0.9991507
0.99909764
0.99904719
0.99899885
0.9989536
0.99891022
0.99886943
0.99883037
0.99879342
0.99875776
1.0004719
1.0004706
1.0004696
1.000468
1.0004661
1.0004634
1.0004602
1.000456
1.0004511
1.0004452
1.0004379
1.000429
1.0004184
1.0004058
1.0003907
1.0003733
1.0003531
1.0003298
1.0003031
1.0002728
1.0002388
1.000201
1.0001593
1.0001138
1.0000647
1.0000123
0.99995666
0.99989826
0.99983764
0.99977521
0.99971154
0.99964727
0.99958287
0.99951905
0.99945602
0.99939424
0.99933424
0.99927645
0.99922079
0.99916771
0.99911737
0.99906958
0.99902389
0.9989812
0.99894039
0.99890212
0.99886558
0.99883113
0.99879798
1.0004492
1.0004475
1.0004461
1.0004441
1.0004417
1.0004387
1.0004351
1.0004305
1.0004253
1.000419
1.0004113
1.0004022
1.0003914
1.0003786
1.0003635
1.000346
1.000326
1.000303
1.0002767
1.000247
1.0002137
1.0001769
1.0001363
1.0000922
1.0000446
0.99999391
0.99994023
0.99988394
0.99982558
0.99976556
0.99970441
0.99964276
0.99958106
0.99951997
0.99945971
0.99940072
0.9993435
0.99928845
0.9992355
0.99918507
0.99913732
0.99909205
0.99904887
0.99900859
0.99897019
0.99893425
0.99890004
0.9988679
0.99883704
1.0004275
1.0004255
1.0004237
1.0004214
1.0004187
1.0004153
1.0004114
1.0004065
1.0004009
1.0003943
1.0003864
1.000377
1.000366
1.0003531
1.000338
1.0003206
1.0003008
1.000278
1.0002522
1.0002231
1.0001906
1.0001547
1.0001153
1.0000725
1.0000264
0.99997738
0.99992556
0.99987129
0.99981511
0.99975739
0.99969867
0.99963952
0.9995804
0.99952192
0.99946431
0.99940798
0.99935341
0.99930097
0.99925061
0.99920271
0.99915741
0.99911454
0.99907374
0.99903575
0.99899961
0.99896588
0.99893386
0.99890388
0.99887516
1.0004067
1.0004044
1.0004024
1.0003998
1.0003967
1.0003931
1.0003889
1.0003837
1.0003779
1.000371
1.0003629
1.0003534
1.0003423
1.0003293
1.0003142
1.000297
1.0002773
1.0002549
1.0002295
1.000201
1.0001693
1.0001343
1.0000961
1.0000545
1.0000099
0.99996252
0.99991249
0.99986018
0.99980609
0.99975058
0.99969418
0.99963743
0.99958077
0.99952479
0.9994697
0.99941592
0.99936388
0.99931393
0.99926602
0.99922052
0.99917755
0.99913695
0.9990984
0.99906255
0.99902855
0.99899688
0.99896689
0.99893891
0.99891216
1.0003869
1.0003844
1.000382
1.0003792
1.0003759
1.000372
1.0003675
1.0003622
1.0003561
1.0003491
1.0003408
1.0003311
1.0003199
1.000307
1.000292
1.0002748
1.0002554
1.0002334
1.0002085
1.0001806
1.0001497
1.0001156
1.0000784
1.0000382
0.99999501
0.99994919
0.9999009
0.99985048
0.99979839
0.99974501
0.99969083
0.99963638
0.99958208
0.99952848
0.9994758
0.99942444
0.9993748
0.99932721
0.99928165
0.99923843
0.99919766
0.99915922
0.99912279
0.99908898
0.99905698
0.99902725
0.99899917
0.99897306
0.99894815
1.0003678
1.0003651
1.0003626
1.0003595
1.000356
1.0003519
1.0003473
1.0003417
1.0003355
1.0003283
1.0003199
1.0003101
1.0002989
1.000286
1.0002711
1.0002542
1.000235
1.0002133
1.000189
1.0001617
1.0001316
1.0000984
1.0000623
1.0000233
0.99998155
0.99993727
0.99989066
0.99984206
0.9997919
0.99974057
0.99968852
0.99963627
0.99958422
0.99953289
0.99948251
0.99943345
0.9993861
0.99934076
0.99929741
0.99925635
0.99921768
0.99918127
0.99914685
0.99911494
0.99908482
0.9990569
0.9990306
0.99900621
0.99898299
1.0003494
1.0003466
1.0003439
1.0003406
1.000337
1.0003327
1.0003279
1.0003223
1.0003159
1.0003086
1.0003001
1.0002903
1.0002791
1.0002663
1.0002515
1.0002348
1.0002159
1.0001947
1.0001708
1.0001442
1.0001149
1.0000827
1.0000476
1.0000098
0.99996943
0.99992664
0.99988166
0.99983482
0.99978653
0.99973716
0.99968716
0.99963701
0.99958711
0.99953794
0.99948975
0.99944288
0.9993977
0.99935448
0.99931323
0.99927421
0.99923752
0.99920304
0.9991705
0.99914039
0.99911204
0.99908582
0.99906118
0.99903841
0.99901677
1.0003317
1.0003288
1.0003259
1.0003225
1.0003188
1.0003144
1.0003095
1.0003037
1.0002973
1.0002899
1.0002814
1.0002716
1.0002605
1.0002477
1.0002331
1.0002167
1.0001981
1.0001773
1.000154
1.0001281
1.0000995
1.0000682
1.0000342
0.99999762
0.99995855
0.99991721
0.99987382
0.99982867
0.99978218
0.99973469
0.99968665
0.99963851
0.99959066
0.99954356
0.99949744
0.99945265
0.99940952
0.99936832
0.99932905
0.99929196
0.99925713
0.99922445
0.99919369
0.99916527
0.99913857
0.99911392
0.99909083
0.99906955
0.99904936
1.0003146
1.0003116
1.0003086
1.0003052
1.0003013
1.0002968
1.0002918
1.000286
1.0002795
1.0002721
1.0002636
1.0002539
1.0002428
1.0002302
1.0002158
1.0001997
1.0001815
1.0001611
1.0001383
1.0001131
1.0000853
1.0000549
1.000022
0.99998658
0.99994881
0.9999089
0.99986703
0.99982353
0.99977877
0.9997331
0.99968693
0.99964072
0.99959481
0.99954968
0.99950552
0.99946269
0.9994215
0.9993822
0.9993448
0.99930952
0.99927644
0.99924546
0.99921636
0.99918952
0.99916438
0.99914121
0.99911956
0.99909967
0.99908084
1.000298
1.000295
1.000292
1.0002884
1.0002845
1.00028
1.000275
1.0002691
1.0002626
1.0002552
1.0002468
1.0002371
1.0002261
1.0002137
1.0001996
1.0001837
1.0001659
1.000146
1.0001238
1.0000992
1.0000722
1.0000428
1.0000109
0.99997663
0.99994013
0.99990161
0.99986124
0.99981933
0.99977624
0.9997323
0.99968794
0.99964355
0.9995995
0.99955623
0.99951393
0.99947295
0.99943358
0.99939607
0.99936042
0.99932684
0.99929541
0.99926602
0.99923847
0.9992131
0.9991894
0.9991676
0.99914728
0.99912868
0.99911109
1.000282
1.0002789
1.0002759
1.0002723
1.0002683
1.0002638
1.0002588
1.000253
1.0002465
1.0002391
1.0002307
1.0002212
1.0002104
1.0001981
1.0001843
1.0001687
1.0001513
1.0001319
1.0001103
1.0000864
1.0000602
1.0000317
1.0000008
0.9999677
0.99993245
0.99989528
0.99985636
0.99981599
0.99977451
0.99973225
0.9996896
0.99964696
0.99960468
0.99956316
0.99952262
0.99948338
0.99944572
0.99940988
0.99937587
0.99934388
0.99931398
0.99928607
0.99925998
0.99923599
0.99921363
0.99919311
0.99917404
0.99915662
0.9991402
1.0002664
1.0002634
1.0002603
1.0002567
1.0002528
1.0002483
1.0002433
1.0002375
1.000231
1.0002237
1.0002155
1.000206
1.0001954
1.0001834
1.0001698
1.0001546
1.0001377
1.0001187
1.0000977
1.0000746
1.0000492
1.0000215
0.99999171
0.99995971
0.9999257
0.99988985
0.99985234
0.99981346
0.99977354
0.99973289
0.99969188
0.99965091
0.99961029
0.99957043
0.99953154
0.99949393
0.99945788
0.99942359
0.99939111
0.9993606
0.99933213
0.99930559
0.99928084
0.99925812
0.99923699
0.99921765
0.99919971
0.99918338
0.999168
1.0002513
1.0002483
1.0002452
1.0002417
1.0002378
1.0002333
1.0002283
1.0002226
1.0002163
1.0002091
1.0002009
1.0001917
1.0001813
1.0001695
1.0001563
1.0001414
1.0001249
1.0001065
1.0000861
1.0000636
1.000039
1.0000123
0.9999835
0.99995261
0.99991981
0.99988525
0.99984912
0.99981168
0.99977327
0.99973417
0.99969473
0.99965534
0.99961631
0.99957801
0.99954067
0.99950458
0.99947001
0.99943718
0.99940612
0.99937698
0.99934982
0.99932456
0.99930105
0.9992795
0.99925953
0.99924128
0.99922441
0.99920909
0.99919471
1.0002367
1.0002337
1.0002307
1.0002272
1.0002233
1.0002189
1.000214
1.0002084
1.0002021
1.0001951
1.0001871
1.000178
1.0001678
1.0001564
1.0001434
1.000129
1.0001129
1.0000951
1.0000753
1.0000535
1.0000298
1.000004
0.99997613
0.99994635
0.99991473
0.99988144
0.99984665
0.99981062
0.99977366
0.99973605
0.99969812
0.99966023
0.99962269
0.99958586
0.99954997
0.9995153
0.99948212
0.99945063
0.99942087
0.99939299
0.99936704
0.99934294
0.99932056
0.99930008
0.99928114
0.99926386
0.99924792
0.99923349
0.99921996
1.0002224
1.0002195
1.0002166
1.0002131
1.0002093
1.000205
1.0002002
1.0001947
1.0001886
1.0001817
1.0001738
1.000165
1.0001551
1.0001439
1.0001314
1.0001173
1.0001017
1.0000844
1.0000653
1.0000443
1.0000213
0.99999639
0.99996956
0.99994086
0.99991041
0.99987838
0.9998449
0.99981024
0.99977469
0.99973851
0.99970202
0.99966556
0.99962942
0.99959397
0.99955943
0.99952608
0.99949418
0.99946393
0.99943536
0.99940863
0.99938378
0.99936074
0.99933939
0.99931989
0.9993019
0.99928554
0.9992705
0.99925693
0.99924426
1.0002087
1.0002058
1.0002029
1.0001996
1.0001959
1.0001917
1.000187
1.0001816
1.0001756
1.0001689
1.0001612
1.0001526
1.000143
1.0001321
1.0001199
1.0001064
1.0000913
1.0000745
1.000056
1.0000357
1.0000136
0.99998957
0.99996373
0.99993612
0.99990682
0.99987601
0.99984382
0.99981049
0.99977631
0.99974152
0.99970641
0.9996713
0.99963649
0.99960234
0.99956906
0.99953693
0.99950621
0.99947708
0.9994496
0.99942389
0.99940002
0.99937791
0.99935746
0.9993388
0.99932162
0.99930602
0.99929169
0.99927879
0.99926675
1.0001953
1.0001926
1.0001898
1.0001865
1.0001829
1.0001788
1.0001742
1.000169
1.0001632
1.0001566
1.0001492
1.0001409
1.0001315
1.000121
1.0001092
1.0000961
1.0000815
1.0000653
1.0000474
1.0000279
1.0000065
0.99998346
0.99995861
0.99993206
0.99990392
0.99987431
0.99984338
0.99981137
0.99977851
0.99974505
0.99971126
0.99967745
0.9996439
0.99961097
0.99957887
0.99954788
0.99951823
0.99949011
0.99946358
0.99943878
0.99941576
0.99939447
0.99937481
0.99935691
0.99934049
0.99932562
0.99931204
0.99929985
0.99928855
1.0001824
1.0001798
1.0001771
1.0001739
1.0001704
1.0001664
1.000162
1.000157
1.0001513
1.0001449
1.0001378
1.0001297
1.0001206
1.0001104
1.000099
1.0000864
1.0000723
1.0000567
1.0000395
1.0000207
1.0000002
0.99997801
0.99995415
0.99992867
0.99990166
0.99987324
0.99984356
0.99981283
0.99978128
0.99974911
0.99971659
0.99968401
0.99965167
0.99961989
0.99958889
0.99955894
0.99953025
0.99950302
0.99947732
0.99945328
0.99943095
0.99941032
0.99939129
0.99937395
0.99935806
0.99934368
0.99933054
0.99931875
0.9993078
1.0001699
1.0001674
1.0001648
1.0001618
1.0001584
1.0001546
1.0001503
1.0001454
1.0001399
1.0001338
1.0001268
1.000119
1.0001103
1.0001005
1.0000895
1.0000773
1.0000637
1.0000487
1.0000322
1.0000142
0.99999448
0.99997319
0.99995031
0.9999259
0.99990001
0.99987278
0.99984433
0.99981486
0.99978458
0.99975367
0.99972238
0.99969099
0.99965981
0.99962913
0.99959916
0.99957015
0.99954232
0.99951584
0.99949081
0.99946737
0.9994456
0.99942548
0.99940696
0.99939013
0.99937479
0.99936096
0.99934843
0.99933728
0.99932702
1.0001579
1.0001555
1.000153
1.0001501
1.0001469
1.0001432
1.0001391
1.0001344
1.0001291
1.0001232
1.0001164
1.0001089
1.0001005
1.000091
1.0000805
1.0000687
1.0000557
1.0000413
1.0000255
1.0000082
0.99998935
0.99996897
0.99994708
0.99992372
0.99989895
0.9998729
0.99984566
0.99981744
0.99978842
0.99975874
0.99972865
0.99969843
0.99966836
0.99963873
0.99960973
0.99958156
0.99955445
0.99952857
0.99950405
0.99948103
0.99945961
0.9994398
0.99942156
0.99940496
0.99938979
0.99937609
0.99936362
0.99935247
0.99934215
1.0001464
1.0001441
1.0001417
1.0001389
1.0001358
1.0001323
1.0001283
1.0001238
1.0001187
1.000113
1.0001066
1.0000993
1.0000912
1.0000821
1.000072
1.0000607
1.0000483
1.0000345
1.0000194
1.0000028
0.99998478
0.99996531
0.9999444
0.9999221
0.99989845
0.99987357
0.99984755
0.99982057
0.99979279
0.99976432
0.99973541
0.99970635
0.99967738
0.99964877
0.99962065
0.99959321
0.99956668
0.99954124
0.99951704
0.99949427
0.99947304
0.99945341
0.99943536
0.99941899
0.99940416
0.99939088
0.99937897
0.99936848
0.99935897
1.0001352
1.000133
1.0001308
1.0001281
1.0001252
1.0001218
1.000118
1.0001137
1.0001089
1.0001034
1.0000972
1.0000902
1.0000824
1.0000737
1.000064
1.0000532
1.0000413
1.0000282
1.0000137
0.99999791
0.99998073
0.99996218
0.99994225
0.99992101
0.99989848
0.99987477
0.99984996
0.99982422
0.99979767
0.99977041
0.99974269
0.99971478
0.99968692
0.99965928
0.99963196
0.99960515
0.99957905
0.99955389
0.99952984
0.9995071
0.99948584
0.9994661
0.9994479
0.9994313
0.99941616
0.99940248
0.99939004
0.99937892
0.99936864
1.0001244
1.0001223
1.0001202
1.0001177
1.0001149
1.0001117
1.0001081
1.000104
1.0000994
1.0000942
1.0000883
1.0000816
1.0000741
1.0000658
1.0000565
1.0000462
1.0000348
1.0000223
1.0000085
0.99999352
0.99997719
0.99995955
0.99994061
0.99992043
0.99989903
0.9998765
0.9998529
0.99982841
0.99980309
0.99977703
0.99975051
0.9997238
0.99969703
0.99967032
0.99964373
0.99961743
0.99959164
0.99956661
0.99954254
0.99951968
0.99949822
0.99947828
0.99945992
0.99944328
0.99942828
0.99941498
0.99940322
0.999393
0.99938399
1.0001139
1.000112
1.00011
1.0001076
1.000105
1.000102
1.0000986
1.0000947
1.0000903
1.0000853
1.0000797
1.0000734
1.0000663
1.0000583
1.0000495
1.0000396
1.0000288
1.0000169
1.0000039
0.9999896
0.99997411
0.99995739
0.99993944
0.99992033
0.99990005
0.9998787
0.99985633
0.99983311
0.99980903
0.99978421
0.99975896
0.99973347
0.99970781
0.99968198
0.99965604
0.99963015
0.99960457
0.99957955
0.99955531
0.99953213
0.99951019
0.99948964
0.99947053
0.99945299
0.99943689
0.99942225
0.99940888
0.99939684
0.99938569
1.0001037
1.0001019
1.0001
1.0000978
1.0000953
1.0000925
1.0000893
1.0000856
1.0000815
1.0000768
1.0000716
1.0000656
1.0000589
1.0000513
1.0000429
1.0000336
1.0000232
1.0000119
0.99999957
0.99998609
0.99997144
0.99995563
0.99993867
0.99992061
0.99990145
0.99988129
0.99986015
0.99983821
0.9998154
0.99979187
0.99976796
0.99974377
0.99971924
0.99969429
0.99966899
0.9996435
0.9996181
0.99959302
0.99956851
0.99954485
0.99952228
0.99950105
0.99948135
0.99946342
0.99944734
0.9994332
0.99942097
0.99941059
0.99940187
1.0000938
1.0000921
1.0000903
1.0000882
1.0000859
1.0000832
1.0000802
1.0000768
1.0000729
1.0000686
1.0000636
1.0000581
1.0000518
1.0000447
1.0000368
1.0000279
1.0000181
1.0000074
0.99999568
0.99998298
0.99996918
0.9999543
0.99993835
0.99992138
0.99990337
0.9998844
0.99986448
0.9998438
0.99982224
0.99979999
0.99977749
0.99975462
0.9997312
0.99970712
0.9996825
0.9996575
0.99963236
0.99960727
0.99958243
0.9995581
0.99953453
0.99951194
0.99949052
0.99947047
0.99945177
0.9994345
0.99941851
0.99940393
0.99939029
1.0000844
1.0000828
1.000081
1.000079
1.0000768
1.0000742
1.0000714
1.0000682
1.0000646
1.0000605
1.000056
1.0000508
1.000045
1.0000384
1.000031
1.0000227
1.0000134
1.0000033
0.99999227
0.99998036
0.99996746
0.99995355
0.99993866
0.99992283
0.99990603
0.99988831
0.99986969
0.99985034
0.99983008
0.99980922
0.99978818
0.99976661
0.99974422
0.99972098
0.99969704
0.99967255
0.99964767
0.99962253
0.9995973
0.99957223
0.99954765
0.99952389
0.99950137
0.99948053
0.99946175
0.99944537
0.99943157
0.99942028
0.99941162
1.0000753
1.0000737
1.000072
1.0000701
1.000068
1.0000656
1.0000628
1.0000598
1.0000564
1.0000527
1.0000484
1.0000437
1.0000384
1.0000324
1.0000256
1.0000179
1.0000092
0.99999962
0.99998923
0.99997805
0.99996599
0.99995298
0.99993904
0.99992422
0.99990853
0.99989208
0.99987484
0.99985698
0.99983826
0.99981916
0.99979988
0.99977984
0.99975875
0.99973667
0.99971376
0.99969004
0.99966559
0.99964041
0.99961458
0.99958829
0.99956182
0.99953547
0.99950956
0.99948442
0.9994602
0.9994371
0.99941508
0.99939451
0.99937483
1.0000668
1.0000653
1.0000636
1.0000616
1.0000595
1.0000571
1.0000545
1.0000516
1.0000485
1.000045
1.0000411
1.0000368
1.000032
1.0000266
1.0000204
1.0000132
1.0000051
0.99999595
0.99998602
0.99997543
0.99996405
0.99995174
0.99993855
0.99992454
0.99990974
0.99989429
0.99987814
0.99986149
0.99984409
0.99982654
0.99980913
0.99979063
0.99977119
0.99975086
0.99972976
0.9997077
0.99968462
0.99966034
0.99963487
0.99960825
0.99958076
0.99955277
0.99952493
0.99949814
0.99947345
0.99945182
0.99943419
0.9994207
0.99941186
1.0000584
1.0000568
1.000055
1.0000531
1.0000511
1.0000489
1.0000466
1.000044
1.0000411
1.0000379
1.0000344
1.0000304
1.000026
1.0000209
1.0000152
1.0000087
1.0000012
0.99999273
0.99998345
0.99997368
0.99996329
0.99995213
0.99994026
0.99992773
0.99991439
0.99990014
0.99988498
0.99986932
0.99985263
0.99983557
0.99981952
0.99980161
0.99978309
0.99976362
0.99974368
0.99972261
0.99970052
0.99967686
0.99965173
0.99962481
0.99959635
0.99956623
0.99953465
0.99950151
0.9994671
0.99943131
0.99939485
0.99935775
0.99932194
1.0000512
1.0000496
1.0000479
1.000046
1.0000439
1.0000417
1.0000392
1.0000366
1.0000338
1.0000307
1.0000273
1.0000237
1.0000198
1.0000155
1.0000108
1.0000055
0.99999938
0.99999216
0.9999839
0.9999754
0.99996676
0.9999576
0.99994795
0.99993783
0.99992701
0.99991533
0.99990277
0.99988989
0.99987577
0.99986235
0.99984788
0.99983202
0.99981506
0.99979699
0.99977807
0.9997576
0.9997358
0.99971171
0.9996856
0.99965638
0.9996247
0.99958994
0.99955351
0.99951648
0.99948087
0.99944867
0.9994244
0.99940631
0.99940293
1.0000432
1.0000405
1.0000379
1.0000354
1.000033
1.0000308
1.0000287
1.0000266
1.0000245
1.0000221
1.0000195
1.0000168
1.0000138
1.0000104
1.0000065
1.000002
0.99999653
0.99998937
0.99998074
0.99997207
0.9999634
0.999954
0.99994383
0.999933
0.99992181
0.99991073
0.99989961
0.9998888
0.99987761
0.99987287
0.9998579
0.99984823
0.99983542
0.99982442
0.99981084
0.99979723
0.99978108
0.99976382
0.99974356
0.99972089
0.99969412
0.99966297
0.99962291
0.99957599
0.99951713
0.99944673
0.99936329
0.99926536
0.99916796
1.0000355
1.0000339
1.0000322
1.0000314
1.0000306
1.0000298
1.0000286
1.0000272
1.0000254
1.0000231
1.0000202
1.0000167
1.0000121
1.0000067