/*--------------------------------*- C++ -*----------------------------------*\
| =========                 |                                                 |
| \\      /  F ield         | OpenFOAM: The Open Source CFD Toolbox           |
|  \\    /   O peration     | Version:  v2006                                 |
|   \\  /    A nd           | Website:  www.openfoam.com                      |
|    \\/     M anipulation  |                                                 |
\*---------------------------------------------------------------------------*/
FoamFile
{
    version     2.0;
    format      ascii;
    class       volScalarField;
    location    "5000";
    object      TMean;
}
// * * * * * * * * * * * * * * * * * * * * * * * * * * * * * * * * * * * * * //

dimensions      [0 0 0 1 0 0 0];


internalField   nonuniform List<scalar> 
19765
(
1.0002438
1.0003031
1.0004433
1.000592
1.0007183
1.0008312
1.0009411
1.0010351
1.0011187
1.0011973
1.0012616
1.001309
1.0013438
1.0013681
1.0013816
1.0013856
1.001379
1.001364
1.0013388
1.001304
1.0012618
1.0012117
1.0011523
1.0010807
1.0009996
1.0009184
1.0008361
1.0007404
1.0006371
1.000534
1.000421
1.0002925
1.0001378
0.99997392
0.99984059
0.99972233
0.99956647
0.99939845
0.99925301
0.99906759
0.99884184
0.9986997
0.99860382
0.99851891
0.99853003
0.99856697
0.99866589
0.99881067
0.99894993
1.0005165
1.0005738
1.0006393
1.0007131
1.0007899
1.000864
1.000935
1.001
1.0010597
1.0011156
1.001166
1.0012089
1.0012443
1.0012717
1.00129
1.0013001
1.0013029
1.001297
1.001281
1.0012551
1.0012194
1.0011747
1.0011209
1.0010579
1.0009869
1.0009085
1.0008222
1.0007284
1.0006269
1.0005185
1.0004039
1.0002841
1.0001621
1.0000397
0.99991577
0.99978963
0.99966451
0.99954278
0.99942485
0.99931512
0.99922366
0.99914045
0.99906185
0.99899364
0.99893146
0.99888111
0.99884057
0.99880582
0.99877289
1.0004747
1.0005264
1.0005863
1.0006508
1.0007149
1.0007775
1.0008373
1.0008936
1.0009458
1.0009963
1.0010423
1.0010821
1.0011163
1.0011438
1.0011629
1.0011749
1.001181
1.0011794
1.0011688
1.0011489
1.0011201
1.0010832
1.0010369
1.0009814
1.0009187
1.0008493
1.0007714
1.0006856
1.0005928
1.0004931
1.0003874
1.000277
1.0001639
1.0000493
0.99993227
0.99981411
0.99969746
0.99958239
0.99947011
0.99936453
0.99926486
0.99916878
0.99908118
0.99900503
0.99893588
0.99887529
0.99882414
0.99878163
0.99874467
1.0005129
1.0005517
1.0005915
1.0006328
1.0006748
1.0007163
1.0007569
1.0007957
1.0008329
1.0008691
1.0009028
1.0009328
1.0009592
1.0009809
1.0009965
1.0010069
1.0010128
1.0010125
1.0010047
1.000989
1.0009656
1.0009351
1.0008968
1.0008506
1.0007978
1.0007389
1.0006727
1.0005998
1.0005213
1.0004374
1.000349
1.0002575
1.0001647
1.0000713
0.99997637
0.99988101
0.99978797
0.99969723
0.99960887
0.99952604
0.99944849
0.99937191
0.99929808
0.99922803
0.99916058
0.99909665
0.99903283
0.99896957
0.99890596
1.0005036
1.0005362
1.0005691
1.0006022
1.000635
1.0006672
1.0006986
1.0007287
1.0007575
1.0007857
1.0008119
1.0008355
1.0008565
1.0008739
1.0008865
1.0008949
1.0008996
1.0008991
1.000892
1.0008781
1.0008573
1.00083
1.0007959
1.0007546
1.0007071
1.000654
1.0005946
1.0005293
1.000459
1.0003842
1.0003058
1.0002249
1.0001431
1.0000609
0.99997812
0.99989567
0.99981542
0.99973727
0.99966145
0.99958981
0.99952175
0.99945417
0.999389
0.99932539
0.99926315
0.99920211
0.99914183
0.99908359
0.99902824
1.0004945
1.0005191
1.0005439
1.0005689
1.0005936
1.000618
1.0006419
1.0006649
1.0006872
1.0007092
1.0007297
1.0007481
1.0007645
1.000778
1.0007876
1.0007937
1.0007967
1.0007951
1.0007879
1.0007747
1.0007553
1.00073
1.0006987
1.0006609
1.0006175
1.0005689
1.0005148
1.0004556
1.0003919
1.0003244
1.0002539
1.0001813
1.0001079
1.0000344
0.99996066
0.99988745
0.99981613
0.99974685
0.99967968
0.99961582
0.99955496
0.99949529
0.99943713
0.99938068
0.99932481
0.9992698
0.99921447
0.99915892
0.99910364
1.0004743
1.0004948
1.0005153
1.0005357
1.0005556
1.000575
1.000594
1.0006122
1.0006299
1.0006472
1.0006634
1.0006779
1.0006906
1.0007009
1.000708
1.0007121
1.0007133
1.0007107
1.0007031
1.0006902
1.0006719
1.0006484
1.0006195
1.0005847
1.0005448
1.0005002
1.0004507
1.0003965
1.0003384
1.0002769
1.0002127
1.0001467
1.0000799
1.0000129
0.99994592
0.9998794
0.99981449
0.99975125
0.99968979
0.99963102
0.99957461
0.99951891
0.99946456
0.99941103
0.99935793
0.99930493
0.99925141
0.99919739
0.99914322
1.0004548
1.0004711
1.0004874
1.0005037
1.0005195
1.0005349
1.00055
1.0005645
1.0005785
1.0005923
1.0006051
1.0006164
1.0006262
1.0006339
1.0006389
1.0006412
1.000641
1.0006373
1.0006293
1.0006165
1.0005989
1.0005765
1.0005493
1.0005167
1.0004795
1.000438
1.000392
1.0003419
1.0002882
1.0002315
1.0001724
1.0001117
1.0000503
0.99998889
0.99992747
0.99986657
0.99980709
0.99974917
0.99969287
0.99963889
0.99958704
0.99953614
0.99948635
0.99943758
0.99938913
0.99934097
0.99929235
0.99924322
0.99919362
1.0004331
1.0004466
1.0004601
1.0004735
1.0004864
1.000499
1.0005112
1.0005229
1.0005341
1.0005451
1.0005552
1.0005639
1.0005714
1.000577
1.0005802
1.0005811
1.0005796
1.0005749
1.0005664
1.0005537
1.0005366
1.0005152
1.0004893
1.0004587
1.0004238
1.000385
1.0003421
1.0002954
1.0002455
1.0001929
1.0001381
1.0000819
1.000025
0.99996795
0.99991096
0.99985443
0.99979914
0.99974519
0.99969265
0.99964211
0.99959341
0.99954548
0.99949864
0.99945253
0.99940677
0.99936112
0.99931503
0.99926839
0.99922132
1.0004123
1.0004233
1.0004343
1.0004452
1.0004558
1.0004659
1.0004758
1.0004853
1.0004942
1.000503
1.000511
1.0005177
1.0005233
1.0005272
1.0005289
1.0005285
1.000526
1.0005205
1.0005116
1.0004989
1.0004822
1.0004615
1.0004367
1.0004077
1.0003746
1.000338
1.0002976
1.0002538
1.0002071
1.0001578
1.0001067
1.0000542
1.000001
0.9999478
0.99989463
0.99984191
0.99979032
0.99973997
0.99969095
0.99964376
0.99959829
0.9995537
0.99951015
0.99946746
0.99942518
0.99938318
0.99934092
0.99929829
0.99925527
1.0003916
1.0004007
1.0004098
1.0004189
1.0004276
1.0004359
1.000444
1.0004516
1.0004588
1.0004658
1.000472
1.0004771
1.0004811
1.0004835
1.000484
1.0004826
1.0004791
1.000473
1.0004637
1.000451
1.0004346
1.0004145
1.0003907
1.000363
1.0003316
1.0002969
1.0002587
1.0002174
1.0001734
1.0001272
1.0000791
1.0000298
0.99997994
0.99992995
0.99988001
0.99983047
0.99978195
0.99973455
0.99968835
0.9996438
0.99960083
0.99955868
0.99951756
0.99947723
0.99943737
0.99939781
0.99935809
0.99931807
0.9992778
1.0003719
1.0003794
1.0003869
1.0003944
1.0004015
1.0004084
1.0004149
1.0004211
1.0004268
1.0004323
1.0004371
1.0004408
1.0004435
1.0004448
1.0004443
1.0004419
1.0004377
1.0004311
1.0004215
1.0004087
1.0003925
1.000373
1.0003501
1.0003235
1.0002935
1.0002604
1.0002242
1.0001851
1.0001435
1.0000997
1.0000544
1.0000079
0.99996084
0.99991369
0.9998666
0.9998199
0.99977414
0.99972946
0.99968592
0.99964393
0.99960345
0.99956386
0.99952529
0.99948761
0.99945047
0.99941376
0.99937706
0.99934025
0.99930332
1.0003531
1.0003592
1.0003655
1.0003717
1.0003775
1.0003831
1.0003884
1.0003934
1.0003979
1.0004022
1.0004058
1.0004084
1.00041
1.0004103
1.0004089
1.0004058
1.0004009
1.0003938
1.000384
1.0003712
1.0003553
1.0003363
1.000314
1.0002884
1.0002597
1.0002281
1.0001936
1.0001564
1.0001169
1.0000755
1.0000325
0.99998849
0.99994396
0.99989932
0.99985475
0.99981055
0.99976723
0.9997249
0.99968366
0.99964385
0.99960548
0.99956797
0.9995315
0.99949591
0.99946092
0.99942642
0.99939205
0.99935767
0.99932332
1.0003352
1.0003403
1.0003454
1.0003506
1.0003554
1.0003599
1.0003642
1.0003681
1.0003716
1.0003749
1.0003774
1.0003791
1.0003798
1.0003792
1.0003771
1.0003734
1.000368
1.0003605
1.0003505
1.0003377
1.000322
1.0003034
1.0002819
1.0002572
1.0002296
1.0001993
1.0001663
1.0001308
1.0000932
1.0000538
1.000013
0.99997121
0.99992893
0.99988657
0.99984427
0.99980235
0.99976126
0.99972113
0.99968204
0.99964434
0.99960803
0.99957261
0.99953824
0.99950481
0.99947206
0.99943989
0.99940798
0.99937621
0.99934462
1.0003183
1.0003225
1.0003267
1.0003309
1.0003348
1.0003385
1.0003419
1.0003449
1.0003476
1.00035
1.0003517
1.0003525
1.0003525
1.0003512
1.0003485
1.0003443
1.0003385
1.0003306
1.0003204
1.0003077
1.0002922
1.0002741
1.0002531
1.0002292
1.0002027
1.0001736
1.000142
1.000108
1.0000721
1.0000346
0.99999569
0.99995592
0.99991571
0.99987541
0.99983519
0.99979533
0.99975628
0.99971814
0.99968101
0.9996452
0.99961072
0.99957714
0.99954462
0.99951304
0.9994822
0.99945199
0.99942215
0.99939255
0.99936325
1.0003024
1.0003058
1.0003092
1.0003126
1.0003158
1.0003187
1.0003214
1.0003237
1.0003256
1.0003273
1.0003282
1.0003284
1.0003277
1.0003258
1.0003226
1.0003179
1.0003117
1.0003036
1.0002933
1.0002806
1.0002654
1.0002476
1.0002272
1.0002041
1.0001785
1.0001505
1.0001201
1.0000877
1.0000533
1.0000174
0.99998033
0.99994241
0.99990408
0.99986568
0.99982738
0.99978944
0.99975228
0.99971602
0.99968074
0.99964673
0.99961402
0.99958224
0.99955152
0.99952178
0.99949283
0.99946459
0.99943681
0.99940937
0.99938235
1.0002873
1.0002901
1.0002929
1.0002956
1.0002981
1.0003004
1.0003024
1.0003041
1.0003054
1.0003064
1.0003068
1.0003063
1.000305
1.0003027
1.000299
1.000294
1.0002875
1.0002791
1.0002688
1.0002561
1.0002411
1.0002237
1.0002039
1.0001815
1.0001568
1.0001298
1.0001006
1.0000694
1.0000365
1.0000022
0.99996672
0.9999305
0.99989392
0.99985729
0.99982077
0.99978462
0.99974923
0.9997147
0.99968114
0.9996488
0.99961774
0.99958759
0.99955851
0.99953043
0.99950317
0.99947666
0.9994507
0.99942515
0.99940011
1.0002732
1.0002754
1.0002776
1.0002797
1.0002817
1.0002834
1.0002849
1.000286
1.0002868
1.0002872
1.000287
1.0002861
1.0002843
1.0002815
1.0002775
1.0002721
1.0002654
1.0002569
1.0002465
1.0002339
1.0002192
1.0002021
1.0001828
1.0001611
1.0001371
1.0001111
1.000083
1.0000531
1.0000215
0.99998859
0.99995467
0.99992005
0.9998851
0.99985011
0.99981526
0.99978079
0.99974706
0.99971418
0.99968225
0.99965151
0.99962201
0.99959345
0.99956596
0.99953948
0.99951385
0.99948903
0.99946481
0.99944109
0.99941795
1.0002598
1.0002615
1.0002632
1.0002649
1.0002664
1.0002676
1.0002686
1.0002692
1.0002695
1.0002695
1.0002688
1.0002675
1.0002653
1.0002621
1.0002578
1.0002522
1.0002452
1.0002366
1.0002262
1.0002137
1.0001992
1.0001825
1.0001637
1.0001426
1.0001194
1.0000943
1.0000672
1.0000384
1.0000081
0.99997654
0.99994404
0.99991091
0.99987749
0.99984406
0.99981077
0.99977789
0.99974572
0.9997144
0.999684
0.99965476
0.99962674
0.99959965
0.99957363
0.99954863
0.9995245
0.99950121
0.99947857
0.99945648
0.99943504
1.0002472
1.0002485
1.0002498
1.000251
1.0002521
1.0002529
1.0002534
1.0002537
1.0002536
1.0002531
1.0002521
1.0002503
1.0002478
1.0002443
1.0002397
1.0002338
1.0002267
1.000218
1.0002076
1.0001953
1.000181
1.0001647
1.0001463
1.0001258
1.0001034
1.0000791
1.000053
1.0000252
0.99999611
0.99996583
0.99993469
0.99990296
0.99987098
0.99983901
0.99980721
0.99977582
0.99974514
0.99971529
0.99968636
0.99965856
0.99963195
0.99960627
0.99958166
0.99955807
0.99953538
0.99951355
0.99949241
0.99947186
0.99945202
1.0002353
1.0002362
1.0002371
1.000238
1.0002387
1.0002391
1.0002393
1.0002392
1.0002387
1.0002379
1.0002365
1.0002344
1.0002316
1.0002278
1.000223
1.000217
1.0002097
1.000201
1.0001906
1.0001784
1.0001643
1.0001484
1.0001305
1.0001106
1.0000888
1.0000653
1.0000401
1.0000134
0.99998543
0.99995635
0.99992648
0.99989608
0.99986546
0.99983488
0.99980449
0.99977452
0.99974526
0.99971681
0.99968927
0.99966283
0.99963755
0.99961321
0.99958993
0.99956766
0.9995463
0.9995258
0.99950603
0.99948689
0.99946849
1.000224
1.0002247
1.0002253
1.0002258
1.0002261
1.0002263
1.0002261
1.0002257
1.0002249
1.0002238
1.0002221
1.0002197
1.0002166
1.0002126
1.0002076
1.0002014
1.0001941
1.0001853
1.000175
1.0001629
1.0001491
1.0001335
1.000116
1.0000967
1.0000756
1.0000529
1.0000286
1.0000029
0.99997592
0.99994798
0.99991931
0.99989017
0.99986085
0.99983159
0.99980254
0.99977392
0.999746
0.99971889
0.99969267
0.99966753
0.99964353
0.99962046
0.99959844
0.99957743
0.99955733
0.9995381
0.99951963
0.99950181
0.99948475
1.0002134
1.0002138
1.0002141
1.0002143
1.0002144
1.0002142
1.0002138
1.0002131
1.000212
1.0002106
1.0002086
1.000206
1.0002027
1.0001985
1.0001933
1.0001871
1.0001796
1.0001709
1.0001606
1.0001487
1.0001352
1.0001199
1.0001029
1.0000841
1.0000636
1.0000417
1.0000182
0.99999338
0.99996745
0.9999406
0.99991308
0.99988513
0.99985705
0.99982904
0.99980127
0.99977394
0.99974731
0.99972147
0.99969651
0.99967261
0.99964982
0.99962796
0.99960713
0.9995873
0.99956838
0.99955033
0.99953305
0.99951643
0.99950061
1.0002033
1.0002034
1.0002035
1.0002035
1.0002033
1.0002029
1.0002022
1.0002013
1.0001999
1.0001983
1.0001961
1.0001933
1.0001897
1.0001854
1.0001801
1.0001738
1.0001663
1.0001576
1.0001474
1.0001357
1.0001224
1.0001074
1.0000908
1.0000726
1.0000528
1.0000315
1.0000088
0.9999849
0.99995993
0.99993412
0.99990769
0.99988089
0.99985398
0.99982718
0.99980062
0.99977452
0.99974911
0.99972449
0.99970074
0.99967803
0.99965639
0.99963568
0.99961598
0.99959727
0.99957947
0.99956253
0.99954637
0.99953088
0.99951619
1.0001937
1.0001937
1.0001935
1.0001933
1.0001929
1.0001922
1.0001913
1.0001902
1.0001886
1.0001868
1.0001844
1.0001814
1.0001777
1.0001732
1.0001678
1.0001614
1.0001539
1.0001452
1.0001352
1.0001236
1.0001106
1.000096
1.0000798
1.0000621
1.0000429
1.0000223
1.0000004
0.99997732
0.99995328
0.99992845
0.99990307
0.99987737
0.99985158
0.99982592
0.99980053
0.99977561
0.99975137
0.99972791
0.99970531
0.99968372
0.99966318
0.99964356
0.99962493
0.99960728
0.99959052
0.99957462
0.9995595
0.99954505
0.9995314
1.0001846
1.0001844
1.000184
1.0001836
1.000183
1.0001822
1.0001811
1.0001797
1.000178
1.000176
1.0001734
1.0001702
1.0001664
1.0001618
1.0001564
1.0001499
1.0001425
1.0001338
1.0001239
1.0001125
1.0000997
1.0000855
1.0000697
1.0000525
1.0000339
1.0000139
0.9999928
0.99997056
0.99994741
0.99992353
0.99989915
0.99987449
0.99984978
0.99982522
0.99980094
0.99977713
0.99975401
0.99973166
0.99971016
0.99968964
0.99967015
0.99965157
0.99963396
0.9996173
0.99960153
0.99958661
0.99957246
0.99955898
0.9995463
1.000176
1.0001756
1.000175
1.0001745
1.0001737
1.0001727
1.0001714
1.0001699
1.000168
1.0001658
1.0001631
1.0001598
1.0001559
1.0001512
1.0001457
1.0001393
1.0001318
1.0001233
1.0001134
1.0001023
1.0000898
1.0000758
1.0000605
1.0000438
1.0000257
1.0000064
0.99998599
0.99996454
0.99994225
0.99991928
0.99989587
0.9998722
0.99984852
0.999825
0.99980179
0.99977905
0.999757
0.99973571
0.99971525
0.99969575
0.99967726
0.99965966
0.99964301
0.9996273
0.99961246
0.99959845
0.9995852
0.99957262
0.99956084
1.0001677
1.0001671
1.0001665
1.0001657
1.0001648
1.0001637
1.0001623
1.0001606
1.0001586
1.0001563
1.0001534
1.0001501
1.000146
1.0001413
1.0001358
1.0001293
1.0001219
1.0001134
1.0001038
1.0000928
1.0000806
1.000067
1.0000521
1.0000358
1.0000183
0.99999964
0.9999799
0.99995921
0.99993774
0.99991565
0.99989315
0.99987044
0.99984774
0.99982522
0.99980303
0.99978132
0.99976028
0.99973999
0.99972053
0.99970201
0.99968447
0.9996678
0.99965207
0.99963725
0.99962328
0.99961013
0.99959773
0.99958599
0.99957503
1.0001598
1.0001591
1.0001583
1.0001575
1.0001564
1.0001551
1.0001536
1.0001519
1.0001497
1.0001473
1.0001443
1.0001409
1.0001368
1.000132
1.0001265
1.0001201
1.0001127
1.0001043
1.0000948
1.0000841
1.0000721
1.0000588
1.0000443
1.0000285
1.0000116
0.99999352
0.99997446
0.9999545
0.99993381
0.99991257
0.99989095
0.99986916
0.9998474
0.99982584
0.99980461
0.99978388
0.99976381
0.99974449
0.99972598
0.99970838
0.99969174
0.99967596
0.99966109
0.99964711
0.99963397
0.99962162
0.99961001
0.99959905
0.99958885
1.0001522
1.0001514
1.0001505
1.0001496
1.0001484
1.000147
1.0001454
1.0001435
1.0001413
1.0001388
1.0001358
1.0001322
1.0001281
1.0001233
1.0001178
1.0001114
1.0001041
1.0000958
1.0000865
1.000076
1.0000643
1.0000514
1.0000372
1.0000219
1.0000055
0.99998802
0.9999696
0.99995036
0.99993043
0.99990999
0.99988922
0.99986831
0.99984745
0.9998268
0.9998065
0.9997867
0.99976756
0.99974915
0.99973154
0.99971483
0.99969905
0.9996841
0.99967005
0.99965687
0.9996445
0.9996329
0.99962204
0.9996118
0.99960232
1.0001449
1.000144
1.0001431
1.000142
1.0001407
1.0001393
1.0001376
1.0001356
1.0001333
1.0001307
1.0001276
1.0001241
1.0001199
1.0001151
1.0001096
1.0001033
1.0000961
1.0000879
1.0000788
1.0000685
1.000057
1.0000445
1.0000307
1.0000159
0.99999997
0.99998308
0.9999653
0.99994674
0.99992755
0.99990788
0.99988792
0.99986785
0.99984785
0.99982808
0.99980866
0.99978974
0.99977148
0.99975395
0.9997372
0.99972132
0.99970635
0.9996922
0.99967892
0.99966649
0.99965484
0.99964396
0.99963379
0.99962422
0.99961539
1.0001379
1.0001369
1.0001359
1.0001348
1.0001334
1.0001319
1.0001302
1.0001281
1.0001258
1.0001231
1.00012
1.0001164
1.0001122
1.0001074
1.0001019
1.0000957
1.0000886
1.0000806
1.0000716
1.0000615
1.0000504
1.0000381
1.0000248
1.0000104
0.99999499
0.99997866
0.99996149
0.99994359
0.99992511
0.99990619
0.99988701
0.99986774
0.99984856
0.99982962
0.99981105
0.99979298
0.99977555
0.99975885
0.99974291
0.99972783
0.99971363
0.99970023
0.99968768
0.99967595
0.99966499
0.99965477
0.99964524
0.99963631
0.99962809
1.0001311
1.0001301
1.000129
1.0001278
1.0001264
1.0001248
1.000123
1.000121
1.0001186
1.0001158
1.0001127
1.0001091
1.0001049
1.0001002
1.0000947
1.0000886
1.0000816
1.0000737
1.0000649
1.0000551
1.0000442
1.0000323
1.0000194
1.0000054
0.99999051
0.99997473
0.99995815
0.99994089
0.99992309
0.99990489
0.99988646
0.99986795
0.99984956
0.99983141
0.99981364
0.99979637
0.99977974
0.99976382
0.99974866
0.99973432
0.99972085
0.99970816
0.9996963
0.99968523
0.99967491
0.99966531
0.99965639
0.99964804
0.99964038
1.0001245
1.0001235
1.0001224
1.0001211
1.0001197
1.0001181
1.0001162
1.0001141
1.0001117
1.000109
1.0001058
1.0001022
1.0000981
1.0000933
1.000088
1.0000819
1.000075
1.0000673
1.0000587
1.0000491
1.0000386
1.000027
1.0000144
1.0000009
0.99998648
0.99997123
0.99995524
0.9999386
0.99992146
0.99990394
0.99988622
0.99986846
0.99985081
0.99983342
0.99981641
0.99979991
0.99978403
0.99976885
0.99975441
0.99974079
0.999728
0.99971598
0.99970476
0.99969431
0.9996846
0.99967557
0.99966721
0.9996594
0.99965227
1.0001182
1.0001171
1.000116
1.0001147
1.0001132
1.0001116
1.0001097
1.0001076
1.0001052
1.0001024
1.0000993
1.0000957
1.0000916
1.0000869
1.0000816
1.0000756
1.0000689
1.0000614
1.000053
1.0000436
1.0000333
1.0000221
1.0000099
0.99999684
0.99998288
0.99996815
0.99995272
0.99993668
0.99992017
0.99990332
0.99988629
0.99986922
0.99985229
0.99983562
0.99981934
0.99980355
0.99978839
0.99977391
0.99976015
0.99974719
0.99973504
0.99972365
0.99971303
0.99970317
0.99969401
0.99968552
0.99967768
0.99967037
0.99966372
1.000112
1.000111
1.0001098
1.0001085
1.000107
1.0001054
1.0001035
1.0001013
1.0000989
1.0000962
1.000093
1.0000895
1.0000854
1.0000808
1.0000756
1.0000697
1.0000632
1.0000558
1.0000476
1.0000385
1.0000285
1.0000176
1.0000058
0.99999316
0.99997968
0.99996546
0.99995057
0.99993512
0.99991922
0.999903
0.99988663
0.99987023
0.99985398
0.99983799
0.99982239
0.99980729
0.9997928
0.99977897
0.99976586
0.99975352
0.99974197
0.99973116
0.9997211
0.99971177
0.99970314
0.99969515
0.99968779
0.99968095
0.99967474
1.000106
1.000105
1.0001038
1.0001025
1.000101
1.0000994
1.0000975
1.0000953
1.0000929
1.0000902
1.0000871
1.0000836
1.0000796
1.0000751
1.00007
1.0000642
1.0000578
1.0000506
1.0000426
1.0000338
1.0000241
1.0000135
1.0000021
0.99998987
0.99997684
0.99996312
0.99994876
0.99993388
0.99991857
0.99990297
0.99988721
0.99987146
0.99985585
0.99984052
0.99982557
0.99981111
0.99979724
0.99978403
0.99977151
0.99975975
0.99974875
0.99973847
0.99972893
0.9997201
0.99971194
0.99970441
0.99969749
0.99969107
0.99968527
1.0001002
1.0000992
1.000098
1.0000967
1.0000952
1.0000936
1.0000917
1.0000896
1.0000872
1.0000845
1.0000815
1.000078
1.0000741
1.0000696
1.0000646
1.000059
1.0000527
1.0000458
1.000038
1.0000294
1.00002
1.0000098
0.99999877
0.99998693
0.99997435
0.99996111
0.99994728
0.99993294
0.9999182
0.99990319
0.99988804
0.9998729
0.99985791
0.99984319
0.99982885
0.99981498
0.9998017
0.99978905
0.99977708
0.99976585
0.99975535
0.99974557
0.9997365
0.99972812
0.9997204
0.9997133
0.99970678
0.99970076
0.99969533
1.0000946
1.0000936
1.0000924
1.0000911
1.0000896
1.000088
1.0000862
1.0000841
1.0000817
1.0000791
1.0000761
1.0000727
1.0000688
1.0000645
1.0000596
1.0000541
1.000048
1.0000412
1.0000337
1.0000254
1.0000163
1.0000064
0.99999575
0.99998431
0.99997218
0.99995942
0.99994609
0.99993229
0.9999181
0.99990366
0.99988909
0.99987453
0.99986013
0.99984599
0.99983222
0.99981891
0.99980615
0.99979402
0.99978255
0.99977179
0.99976176
0.99975242
0.99974378
0.99973581
0.99972848
0.99972175
0.9997156
0.99970992
0.99970482
1.0000891
1.0000881
1.0000869
1.0000857
1.0000842
1.0000826
1.0000808
1.0000788
1.0000765
1.0000739
1.0000709
1.0000676
1.0000639
1.0000596
1.0000549
1.0000495
1.0000436
1.000037
1.0000297
1.0000217
1.0000129
1.0000033
0.99999304
0.99998201
0.99997032
0.99995802
0.99994519
0.99993191
0.99991826
0.99990436
0.99989034
0.99987635
0.9998625
0.99984891
0.99983566
0.99982286
0.99981059
0.99979892
0.9997879
0.99977756
0.99976794
0.99975899
0.99975074
0.99974314
0.99973617
0.99972979
0.99972397
0.99971862
0.99971383
1.0000837
1.0000828
1.0000816
1.0000804
1.000079
1.0000774
1.0000757
1.0000737
1.0000714
1.0000689
1.000066
1.0000628
1.0000591
1.000055
1.0000504
1.0000452
1.0000395
1.0000331
1.000026
1.0000183
1.0000098
1.0000006
0.99999062
0.99998
0.99996874
0.99995691
0.99994456
0.99993178
0.99991865
0.99990528
0.9998918
0.99987835
0.99986503
0.99985194
0.99983918
0.99982683
0.99981499
0.99980373
0.9997931
0.99978314
0.99977388
0.99976528
0.99975736
0.99975009
0.99974343
0.99973735
0.99973181
0.99972674
0.9997222
1.0000785
1.0000776
1.0000765
1.0000753
1.0000739
1.0000724
1.0000707
1.0000688
1.0000666
1.0000641
1.0000613
1.0000582
1.0000546
1.0000507
1.0000462
1.0000412
1.0000356
1.0000294
1.0000226
1.0000151
1.0000069
0.99999805
0.99998849
0.99997826
0.99996743
0.99995605
0.99994419
0.9999319
0.99991927
0.99990642
0.99989346
0.99988052
0.9998677
0.99985508
0.99984274
0.9998308
0.99981934
0.99980844
0.99979815
0.99978852
0.99977957
0.99977128
0.99976366
0.99975667
0.9997503
0.9997445
0.99973924
0.99973443
0.99973015
1.0000734
1.0000725
1.0000715
1.0000703
1.000069
1.0000676
1.0000659
1.000064
1.0000619
1.0000595
1.0000568
1.0000538
1.0000504
1.0000465
1.0000422
1.0000374
1.000032
1.000026
1.0000194
1.0000122
1.0000044
0.99999581
0.99998661
0.99997678
0.99996638
0.99995545
0.99994406
0.99993225
0.99992012
0.99990777
0.99989532
0.99988287
0.99987051
0.99985831
0.99984636
0.99983477
0.99982364
0.99981305
0.99980305
0.9997937
0.99978502
0.99977699
0.99976962
0.99976288
0.99975674
0.99975115
0.99974609
0.99974148
0.99973737
1.0000685
1.0000676
1.0000666
1.0000655
1.0000642
1.0000628
1.0000612
1.0000594
1.0000574
1.0000551
1.0000525
1.0000496
1.0000463
1.0000426
1.0000384
1.0000338
1.0000286
1.0000229
1.0000165
1.0000096
1.000002
0.99999381
0.99998498
0.99997555
0.99996557
0.99995508
0.99994416
0.99993283
0.99992118
0.99990933
0.99989737
0.99988539
0.99987345
0.99986163
0.99985003
0.99983875
0.9998279
0.99981758
0.99980783
0.99979873
0.99979027
0.99978247
0.99977531
0.99976879
0.99976286
0.99975749
0.99975265
0.99974827
0.99974438
1.0000636
1.0000628
1.0000618
1.0000608
1.0000596
1.0000582
1.0000567
1.000055
1.000053
1.0000509
1.0000484
1.0000456
1.0000424
1.0000389
1.0000349
1.0000304
1.0000254
1.0000199
1.0000138
1.0000072
0.99999992
0.99999205
0.99998359
0.99997455
0.99996499
0.99995495
0.99994448
0.99993362
0.99992246
0.99991109
0.99989962
0.99988808
0.99987653
0.99986505
0.99985375
0.99984274
0.99983216
0.99982207
0.99981254
0.99980363
0.99979536
0.99978772
0.99978072
0.99977434
0.99976854
0.99976328
0.99975854
0.99975424
0.99975043
1.0000589
1.0000581
1.0000572
1.0000562
1.0000551
1.0000538
1.0000523
1.0000507
1.0000488
1.0000467
1.0000444
1.0000417
1.0000387
1.0000353
1.0000315
1.0000272
1.0000225
1.0000172
1.0000114
1.000005
0.99999804
0.99999051
0.99998242
0.99997377
0.99996463
0.99995503
0.99994502
0.99993463
0.99992394
0.99991307
0.99990206
0.99989094
0.99987974
0.99986857
0.99985755
0.9998468
0.99983645
0.99982657
0.99981723
0.99980848
0.99980034
0.99979282
0.99978594
0.99977967
0.99977399
0.99976888
0.99976431
0.9997602
0.99975659
1.0000544
1.0000536
1.0000528
1.0000518
1.0000507
1.0000495
1.0000481
1.0000465
1.0000448
1.0000428
1.0000405
1.000038
1.0000351
1.0000319
1.0000283
1.0000242
1.0000197
1.0000147
1.0000091
1.000003
0.99999636
0.99998918
0.99998145
0.9999732
0.99996447
0.99995532
0.99994577
0.99993584
0.99992564
0.99991525
0.9999047
0.99989397
0.9998831
0.99987223
0.99986148
0.99985099
0.99984086
0.99983117
0.99982197
0.99981331
0.99980523
0.99979775
0.99979087
0.99978458
0.99977888
0.99977372
0.99976907
0.99976487
0.99976116
1.0000501
1.0000494
1.0000485
1.0000476
1.0000466
1.0000454
1.0000441
1.0000426
1.0000409
1.000039
1.0000368
1.0000344
1.0000317
1.0000287
1.0000253
1.0000214
1.0000171
1.0000123
1.000007
1.0000012
0.99999489
0.99998805
0.99998069
0.99997283
0.99996452
0.9999558
0.99994672
0.99993726
0.99992754
0.99991765
0.99990754
0.99989717
0.99988662
0.99987605
0.9998656
0.99985538
0.99984547
0.99983593
0.99982681
0.99981818
0.99981008
0.99980255
0.99979562
0.99978931
0.99978361
0.9997785
0.99977397
0.99976995
0.99976644
1.000046
1.0000453
1.0000445
1.0000437
1.0000427
1.0000415
1.0000402
1.0000388
1.0000371
1.0000353
1.0000333
1.000031
1.0000284
1.0000256
1.0000224
1.0000188
1.0000147
1.0000102
1.0000051
0.9999996
0.99999359
0.99998709
0.99998011
0.99997265
0.99996476
0.99995648
0.99994786
0.99993887
0.99992966
0.99992026
0.99991057
0.99990055
0.99989034
0.99988011
0.99987
0.99986006
0.99985035
0.99984091
0.99983181
0.99982311
0.99981487
0.99980715
0.9998
0.99979342
0.99978743
0.99978199
0.99977709
0.99977265
0.99976874
1.0000422
1.0000415
1.0000408
1.0000399
1.000039
1.0000379
1.0000366
1.0000352
1.0000337
1.0000319
1.0000299
1.0000277
1.0000253
1.0000226
1.0000196
1.0000162
1.0000124
1.0000082
1.0000034
0.99999816
0.99999246
0.99998631
0.99997969
0.99997263
0.99996516
0.99995733
0.99994918
0.99994066
0.99993197
0.99992307
0.99991378
0.99990412
0.9998943
0.99988448
0.99987475
0.99986511
0.99985557
0.99984619
0.99983702
0.99982815
0.99981968
0.99981169
0.99980426
0.99979745
0.9997913
0.99978583
0.99978103
0.99977685
0.99977325
1.0000386
1.000038
1.0000372
1.0000364
1.0000355
1.0000344
1.0000333
1.0000319
1.0000304
1.0000287
1.0000268
1.0000247
1.0000223
1.0000198
1.0000169
1.0000138
1.0000103
1.0000063
1.0000018
0.99999688
0.9999915
0.9999857
0.99997945
0.99997279
0.99996574
0.99995837
0.99995068
0.99994265
0.99993448
0.99992607
0.99991716
0.9999079
0.99989855
0.99988922
0.99987991
0.99987056
0.99986119
0.99985181
0.99984251
0.99983338
0.99982453
0.99981606
0.99980807
0.99980061
0.99979373
0.99978744
0.99978173
0.99977655
0.99977198
1.0000352
1.0000346
1.0000339
1.0000331
1.0000322
1.0000312
1.0000301
1.0000288
1.0000273
1.0000257
1.0000239
1.0000218
1.0000196
1.0000171
1.0000144
1.0000115
1.0000082
1.0000046
1.0000004
0.99999576
0.9999907
0.99998525
0.99997939
0.99997313
0.99996652
0.9999596
0.99995239
0.99994486
0.99993725
0.99992931
0.99992078
0.999912
0.99990322
0.99989444
0.99988556
0.9998765
0.99986725
0.99985785
0.99984838
0.99983894
0.99982965
0.99982066
0.99981211
0.99980415
0.9997969
0.99979046
0.99978486
0.99978014
0.99977614
1.0000318
1.0000313
1.0000306
1.0000299
1.000029
1.000028
1.000027
1.0000258
1.0000244
1.0000229
1.0000211
1.0000192
1.000017
1.0000147
1.0000121
1.0000093
1.0000063
1.0000029
0.99999911
0.99999477
0.99999003
0.99998491
0.99997942
0.99997355
0.99996736
0.9999609
0.99995418
0.99994719
0.99994017
0.9999327
0.99992461
0.99991646
0.99990838
0.99990022
0.99989181
0.99988308
0.99987399
0.99986459
0.99985493
0.99984509
0.99983518
0.99982533
0.9998157
0.99980642
0.99979762
0.99978936
0.99978174
0.9997747
0.9997685
1.0000286
1.0000281
1.0000274
1.0000267
1.0000258
1.0000249
1.0000239
1.0000228
1.0000215
1.0000201
1.0000185
1.0000167
1.0000147
1.0000125
1.00001
1.0000073
1.0000045
1.0000014
0.99999788
0.99999385
0.9999894
0.99998461
0.99997946
0.99997397
0.99996817
0.99996215
0.99995588
0.9999494
0.99994294
0.99993588
0.9999283
0.99992095
0.99991365
0.99990618
0.99989833
0.99989006
0.99988132
0.99987212
0.99986244
0.99985233
0.99984189
0.99983125
0.99982063
0.99981033
0.99980064
0.99979188
0.99978428
0.99977807
0.99977305
1.0000254
1.0000248
1.0000242
1.0000234
1.0000226
1.0000218
1.0000209
1.0000198
1.0000187
1.0000175
1.000016
1.0000144
1.0000126
1.0000105
1.0000081
1.0000055
1.0000028
0.99999995
0.99999678
0.99999312
0.99998902
0.99998461
0.99997989
0.99997486
0.99996955
0.999964
0.99995819
0.99995222
0.99994626
0.99993945
0.99993245
0.99992595
0.99991931
0.99991243
0.99990507
0.99989731
0.99988897
0.99988007
0.99987045
0.99986015
0.99984911
0.99983742
0.99982515
0.99981245
0.9997995
0.99978669
0.99977416
0.99976238
0.99975164
1.0000223
1.0000217
1.000021
1.0000203
1.0000195
1.0000187
1.0000178
1.0000169
1.0000158
1.0000147
1.0000135
1.000012
1.0000104
1.0000085
1.0000064
1.000004
1.0000014
0.9999988
0.99999598
0.99999274
0.99998909
0.99998515
0.99998095
0.99997648
0.99997175
0.99996682
0.99996165
0.99995641
0.99995112
0.99994488
0.99993874
0.99993333
0.99992732
0.99992116
0.99991436
0.99990723
0.99989935
0.99989086
0.99988129
0.99987079
0.99985899
0.99984608
0.9998321
0.99981753
0.99980316
0.99978984
0.99977789
0.99976884
0.99976069
1.000019
1.0000182
1.0000173
1.0000165
1.0000156
1.0000149
1.0000141
1.0000134
1.0000126
1.0000117
1.0000108
1.0000096
1.0000083
1.0000068
1.0000049
1.0000027
1.0000002
0.99999752
0.99999482
0.99999181
0.99998838
0.9999846
0.99998053
0.99997617
0.99997161
0.99996698
0.99996226
0.99995762
0.99995289
0.99994749
0.99994265
0.99993846
0.9999335
0.99992862
0.99992308
0.99991739
0.99991085
0.99990377
0.99989541
0.999886
0.99987472
0.99986157
0.99984605
0.9998279
0.99980819
0.99978416
0.99975747
0.99972846
0.99969733
1.0000145
1.0000135
1.0000129
1.0000124
1.000012
1.0000115
1.0000111
1.0000107
1.0000102
1.0000096
1.0000089
1.000008
1.0000069
1.0000054
1.0000036
1.0000014
0.99999864