/*--------------------------------*- C++ -*----------------------------------*\
| =========                 |                                                 |
| \\      /  F ield         | OpenFOAM: The Open Source CFD Toolbox           |
|  \\    /   O peration     | Version:  v2006                                 |
|   \\  /    A nd           | Website:  www.openfoam.com                      |
|    \\/     M anipulation  |                                                 |
\*---------------------------------------------------------------------------*/
FoamFile
{
    version     2.0;
    format      ascii;
    class       volVectorField;
    location    "5000";
    object      U;
}
// * * * * * * * * * * * * * * * * * * * * * * * * * * * * * * * * * * * * * //

dimensions      [0 1 -1 0 0 0 0];


internalField   nonuniform List<vector> 
19765
(
(0.087538821 0.028531527 -9.1870496e-20)
(0.084735852 0.031447795 9.2435736e-20)
(0.077877844 0.033227884 -9.4814816e-20)
(0.070137322 0.033425331 0)
(0.063489656 0.032604286 0)
(0.057454202 0.030939219 2.331766e-19)
(0.051258373 0.028481625 -1.8624409e-19)
(0.04567827 0.02570319 0)
(0.040245044 0.022367834 4.7110057e-19)
(0.034392947 0.018286617 4.0117188e-20)
(0.029589506 0.014014206 -8.0802502e-19)
(0.0258116 0.0094858656 8.0469638e-19)
(0.02244976 0.0047501097 -9.0769006e-19)
(0.019623034 -0.00012895947 -1.0501092e-18)
(0.017574926 -0.0051383945 1.2367976e-18)
(0.015982733 -0.010406878 0)
(0.014638314 -0.015511372 -2.2810004e-20)
(0.013713183 -0.020619075 1.8003054e-20)
(0.013204535 -0.025860281 -9.4163187e-19)
(0.013109444 -0.031197756 7.8997307e-19)
(0.013424875 -0.03667911 -3.3936374e-19)
(0.014113405 -0.042034149 5.8775314e-19)
(0.01519252 -0.047243358 -2.6604269e-19)
(0.016737685 -0.052696497 1.1220653e-20)
(0.018712634 -0.058134771 -5.4806982e-20)
(0.020873924 -0.062776638 4.3184164e-20)
(0.023224634 -0.066920774 -1.9067763e-19)
(0.026025472 -0.071423121 1.8127143e-19)
(0.029108663 -0.075772465 0)
(0.032301975 -0.079592706 3.3406039e-19)
(0.035868995 -0.08348267 -3.1847723e-19)
(0.04001322 -0.087522257 6.1079827e-19)
(0.045353856 -0.091786078 -5.8928641e-19)
(0.051195089 -0.09553499 2.8402377e-19)
(0.056109938 -0.097829633 -2.798445e-19)
(0.060732687 -0.099599176 -2.6544164e-19)
(0.066852056 -0.10181758 1.8809457e-22)
(0.073428659 -0.10358746 5.1599493e-19)
(0.079460249 -0.1044078 -2.7218946e-19)
(0.087164188 -0.10529358 -2.4701053e-19)
(0.096115078 -0.10571371 2.4168383e-19)
(0.10220599 -0.10420989 -1.5063158e-20)
(0.10759781 -0.10182547 -2.9707464e-20)
(0.11284146 -0.09869969 1.1930447e-19)
(0.11594657 -0.094647298 -2.7019982e-19)
(0.11837972 -0.089830908 1.2080353e-19)
(0.11837626 -0.084414609 0)
(0.11720633 -0.078949864 -1.2703003e-19)
(0.11588023 -0.074036725 0)
(0.079017366 0.016513019 1.4979697e-19)
(0.075988602 0.019130201 1.4423748e-19)
(0.072439468 0.021231743 -6.8546767e-20)
(0.068604144 0.022025806 6.8054137e-20)
(0.064721094 0.021914556 -3.3623115e-19)
(0.06102116 0.021099612 2.6653873e-19)
(0.057437903 0.019766823 -3.2589259e-20)
(0.054140753 0.018045198 2.5855591e-19)
(0.051002395 0.015938823 3.1549219e-20)
(0.04785721 0.013598714 -2.9578832e-19)
(0.044939112 0.01089666 1.576108e-20)
(0.042431269 0.0077738738 4.783194e-19)
(0.040206067 0.0042892964 -7.7343772e-19)
(0.038296358 0.00056907353 2.3079737e-19)
(0.036873603 -0.0033448474 -2.7049481e-19)
(0.035741992 -0.0074467865 3.1202054e-19)
(0.034736246 -0.011706554 -1.8087674e-20)
(0.034074117 -0.016080506 0)
(0.033857358 -0.020544779 1.9591902e-20)
(0.03404817 -0.025063264 -2.9779433e-19)
(0.03460473 -0.029584914 2.5985892e-19)
(0.035426004 -0.034140803 2.0250709e-20)
(0.036585129 -0.038671628 7.5926795e-21)
(0.038161026 -0.043088171 -1.0698574e-20)
(0.040000788 -0.047408684 -2.7004223e-20)
(0.041946994 -0.051727634 2.2571352e-20)
(0.044109707 -0.055964868 9.2354822e-20)
(0.046595907 -0.060010592 -2.9494563e-19)
(0.049334129 -0.063923603 3.64569e-19)
(0.052305035 -0.067682389 -1.7598915e-19)
(0.055567012 -0.07118912 1.061042e-20)
(0.059188893 -0.074351395 0)
(0.063153866 -0.077036367 1.6904346e-19)
(0.06727045 -0.079321105 -7.1513526e-23)
(0.071429163 -0.081355229 -1.5655314e-19)
(0.075725462 -0.083099705 -1.7331217e-19)
(0.080222268 -0.084369253 6.9987285e-23)
(0.084822776 -0.085131162 -1.3332585e-19)
(0.08948172 -0.08538417 1.4229731e-19)
(0.094210655 -0.084953276 1.507955e-19)
(0.098861505 -0.083685323 1.7326662e-19)
(0.10339824 -0.081631184 -3.1912752e-19)
(0.10783441 -0.079196582 1.8231936e-19)
(0.11211597 -0.076104745 -2.1155964e-20)
(0.11603689 -0.072998056 -8.7076653e-20)
(0.11954696 -0.069766556 1.801212e-19)
(0.12258265 -0.066628528 -1.3989333e-19)
(0.12513584 -0.063939514 -4.8120103e-20)
(0.12734076 -0.06139621 9.9109087e-20)
(0.082799063 0.015737908 8.149291e-20)
(0.080509208 0.015872423 4.2863645e-24)
(0.077848786 0.015839995 1.5884304e-19)
(0.074960028 0.015687183 -2.0007123e-24)
(0.072090883 0.015151145 -2.4949825e-19)
(0.069264867 0.014323765 3.4317576e-19)
(0.066530985 0.013188041 -8.7271399e-20)
(0.063912016 0.011864695 0)
(0.061445473 0.010244074 0)
(0.058968495 0.0084560254 4.7926261e-20)
(0.056664745 0.0063883242 0)
(0.054609264 0.0039843219 5.3239117e-20)
(0.052750392 0.001288131 5.076504e-19)
(0.051143525 -0.0016279233 6.0665289e-19)
(0.049893508 -0.004750347 -1.0536364e-18)
(0.048879074 -0.0080674634 -3.0748995e-23)
(0.04801516 -0.011546088 4.0397351e-20)
(0.047425707 -0.015165607 -7.4349022e-19)
(0.047166858 -0.018921264 8.2813472e-19)
(0.047254439 -0.022758781 0)
(0.04767003 -0.026626279 5.0783038e-20)
(0.048314031 -0.030579289 -1.482701e-23)
(0.049312294 -0.034526135 -1.7776833e-20)
(0.050678536 -0.038399272 -3.0825591e-20)
(0.052265363 -0.042193727 1.0877958e-19)
(0.05397977 -0.045983031 -1.23962e-20)
(0.055982992 -0.049693803 -1.6888632e-19)
(0.058311033 -0.053238506 5.1770952e-19)
(0.060843879 -0.056673699 -3.0963936e-19)
(0.06361793 -0.059952721 3.6306085e-20)
(0.066647137 -0.062992233 2.5681802e-19)
(0.069905392 -0.065740502 -5.5294679e-19)
(0.073381797 -0.068102295 -2.6393461e-19)
(0.076908692 -0.070223973 4.8309324e-19)
(0.080485911 -0.072175084 4.6948724e-19)
(0.084182752 -0.073809635 -4.2493322e-19)
(0.087990457 -0.075000092 0)
(0.091790363 -0.07591006 1.8870245e-19)
(0.095619292 -0.076458848 -2.1038776e-19)
(0.099426844 -0.076522077 2.308394e-19)
(0.10310403 -0.076299972 -2.302796e-19)
(0.10661347 -0.076005938 0)
(0.11002304 -0.075319209 0)
(0.11314206 -0.074361338 2.5662524e-20)
(0.11605367 -0.073206465 0)
(0.11862739 -0.072022013 -5.1107598e-20)
(0.12095178 -0.070728326 2.0190182e-19)
(0.12307348 -0.069349279 -9.9880081e-20)
(0.12503057 -0.067827747 0)
(0.081852781 0.011117386 -8.5757746e-20)
(0.080195508 0.011229188 -2.5473827e-19)
(0.078481527 0.011162998 8.2688562e-20)
(0.076678522 0.010974398 -4.2307033e-19)
(0.074855016 0.010498353 3.4518756e-19)
(0.073038752 0.0098019989 3.5589389e-19)
(0.071249821 0.0088614822 -2.7112379e-19)
(0.069523418 0.0077807449 3.7574674e-19)
(0.06784214 0.0064446314 4.8937338e-23)
(0.066161624 0.0050033907 -8.9105532e-19)
(0.064570546 0.0033583526 5.1819952e-19)
(0.063118965 0.0014477632 0)
(0.061783732 -0.00069911636 -5.7232315e-20)
(0.060619671 -0.0030131206 -1.0362857e-18)
(0.059698521 -0.0055253398 1.1786225e-18)
(0.058947398 -0.0082344374 1.0641876e-18)
(0.058319132 -0.011071666 -2.5056701e-18)
(0.057906967 -0.014032795 1.4181854e-18)
(0.057770147 -0.017149047 -8.2763398e-19)
(0.057920943 -0.020340839 1.0106225e-18)
(0.058356663 -0.023551475 0)
(0.059002293 -0.026866529 -5.7348329e-19)
(0.059924062 -0.030174054 6.6930493e-19)
(0.061129212 -0.033434329 -3.6753139e-19)
(0.062540525 -0.036640903 6.175352e-20)
(0.064106792 -0.039845725 -7.33436e-24)
(0.065921379 -0.042972429 -1.9480966e-19)
(0.067996153 -0.045942145 5.3422718e-19)
(0.070251123 -0.048793158 -3.3201615e-19)
(0.072702849 -0.051481775 -3.5050958e-19)
(0.075342977 -0.053939599 2.9476579e-19)
(0.078136762 -0.05613566 6.6724444e-19)
(0.081054118 -0.058007348 -1.7936874e-22)
(0.08399573 -0.05966299 -5.9290137e-19)
(0.086982071 -0.061150896 4.5108549e-19)
(0.090038456 -0.062373165 -5.0118192e-19)
(0.093113438 -0.063243647 4.881376e-19)
(0.096138823 -0.063880714 -9.6585024e-19)
(0.099151251 -0.064245278 5.0301923e-19)
(0.10208504 -0.064265499 2.0279124e-19)
(0.10488313 -0.064056607 -2.3160993e-19)
(0.10762758 -0.063750373 -5.8237746e-20)
(0.11036994 -0.063168606 2.2833658e-19)
(0.11297372 -0.062467646 -2.3170695e-19)
(0.11555118 -0.061542419 0)
(0.11802932 -0.060455636 1.151867e-19)
(0.12049414 -0.05925728 -5.6955909e-20)
(0.12290413 -0.058001384 0)
(0.12526804 -0.05674089 0)
(0.082814511 0.0089441966 -8.0083133e-20)
(0.081487685 0.0085660978 -2.3734979e-19)
(0.080124114 0.0081443104 3.0789093e-19)
(0.078728657 0.0077291737 7.8368115e-20)
(0.077342369 0.0071621405 2.386384e-19)
(0.075972158 0.0064788932 -2.444127e-19)
(0.074626692 0.0056408686 2.4698977e-19)
(0.073327162 0.0047126768 -4.2435679e-19)
(0.072063206 0.0035968762 -8.6089259e-20)
(0.070800859 0.0023953692 1.7626401e-19)
(0.06960503 0.0010274607 -8.2179367e-19)
(0.06850733 -0.00055563539 8.5293693e-19)
(0.067494788 -0.0023366671 9.8469025e-20)
(0.066608695 -0.0042704828 8.2747436e-19)
(0.065901256 -0.0063834551 -1.093539e-19)
(0.065326421 -0.0086689055 -9.3037668e-19)
(0.064856605 -0.011075984 0)
(0.064561812 -0.013610745 0)
(0.064491063 -0.016298401 0)
(0.064658761 -0.019088687 -5.3919227e-19)
(0.065066141 -0.021940147 8.054354e-19)
(0.065669579 -0.024868315 -8.223325e-19)
(0.066512624 -0.027785707 5.1732095e-19)
(0.067610501 -0.030675578 -6.2228885e-20)
(0.06890765 -0.033523652 1.0484697e-23)
(0.070358134 -0.036358726 2.4273907e-20)
(0.072020013 -0.039112176 4.3925452e-20)
(0.073900005 -0.041728696 -8.0737462e-20)
(0.075936975 -0.044237646 2.2673604e-19)
(0.078133047 -0.046594519 -2.8530248e-19)
(0.08047531 -0.048748302 0)
(0.082931692 -0.050680116 -5.8472711e-19)
(0.085473461 -0.052342069 1.0027754e-18)
(0.08802431 -0.053825985 -4.3007877e-19)
(0.090589249 -0.055163879 -4.2221619e-19)
(0.093183026 -0.056278012 1.4186702e-22)
(0.095771018 -0.057109424 9.2261251e-19)
(0.098301091 -0.057770152 -4.5781162e-19)
(0.10079554 -0.058226676 0)
(0.10322034 -0.05842769 0)
(0.10553978 -0.058487545 -1.6627926e-19)
(0.10779747 -0.058539401 2.2340543e-19)
(0.1100392 -0.058385556 5.4952354e-20)
(0.11217973 -0.058232094 3.3475934e-19)
(0.1143073 -0.057939847 -5.5248815e-20)
(0.11636213 -0.057628496 -2.7922871e-19)
(0.11838387 -0.057255533 5.5796761e-20)
(0.12036914 -0.056735913 0)
(0.12231496 -0.056032733 -3.6341066e-23)
(0.083589568 0.0066604294 4.2245219e-24)
(0.082603466 0.0062882462 -5.8086083e-24)
(0.081598299 0.0058593628 0)
(0.080570512 0.0054142811 -3.6202125e-19)
(0.079552657 0.0048505346 7.3127492e-20)
(0.078544113 0.0041951209 2.235465e-19)
(0.077546314 0.0034214699 7.4972063e-20)
(0.076578026 0.0025735327 1.5360027e-19)
(0.075628295 0.0015807994 7.7520438e-20)
(0.074674217 0.00051140375 -1.5767369e-19)
(0.073768686 -0.00069335383 0)
(0.072937057 -0.0020702414 -2.5020202e-19)
(0.072170527 -0.0036100328 -8.5903861e-20)
(0.071502534 -0.0052832021 1.7848585e-19)
(0.070975994 -0.0071084612 0)
(0.07055928 -0.0090818984 -1.9570092e-19)
(0.070234297 -0.011169251 1.0385551e-18)
(0.070058043 -0.013373565 -8.9580282e-19)
(0.070073099 -0.01570826 0)
(0.070294681 -0.018132834 9.6433372e-19)
(0.070732253 -0.020612316 -1.2767679e-18)
(0.071353165 -0.023151914 7.8418362e-19)
(0.0721785 -0.025693827 -4.5340982e-19)
(0.073229015 -0.028224494 1.1000388e-19)
(0.074461613 -0.030719186 -9.6565293e-20)
(0.075839457 -0.033194113 -1.3012753e-19)
(0.077400217 -0.035594049 1.1845224e-19)
(0.07914648 -0.037872254 3.6476784e-19)
(0.081031497 -0.040045838 -6.1735537e-19)
(0.083049627 -0.042080191 1.3151881e-22)
(0.085184454 -0.043935889 4.9698329e-19)
(0.087407169 -0.045597746 4.7827457e-19)
(0.089690599 -0.047030896 -4.6341037e-19)
(0.09197816 -0.048299904 -1.1384303e-19)
(0.09427017 -0.049430377 0)
(0.096570582 -0.050372525 4.3949549e-19)
(0.098850306 -0.051088187 -1.0855127e-22)
(0.10107284 -0.051652559 -4.2926027e-19)
(0.1032534 -0.052048303 0)
(0.10536779 -0.052245796 0)
(0.10739607 -0.052317881 -1.0460582e-19)
(0.10936963 -0.052343966 5.269059e-20)
(0.11133398 -0.052210069 -5.1944326e-20)
(0.11322613 -0.052032289 -5.2711688e-19)
(0.1151249 -0.051729761 4.6988544e-19)
(0.11699228 -0.051361394 0)
(0.1188785 -0.050900464 -5.2691267e-20)
(0.12077654 -0.050347488 0)
(0.12268123 -0.049667021 2.0762233e-19)
(0.084664147 0.0051443209 6.9329148e-20)
(0.083861024 0.0046822242 -1.3662455e-19)
(0.083047718 0.0041981165 -2.6561962e-19)
(0.082228411 0.0037180873 5.36795e-19)
(0.081426777 0.0031570311 -4.0552688e-19)
(0.080639532 0.0025313244 0)
(0.079863763 0.0018170878 5.5028825e-19)
(0.079113816 0.001042977 -7.0095268e-20)
(0.078379446 0.00015377153 3.3051185e-23)
(0.077642649 -0.00080366706 -9.2728253e-19)
(0.076945922 -0.0018752681 -2.8661607e-23)
(0.076309006 -0.0030902962 5.958062e-19)
(0.075725735 -0.0044438785 6.0913575e-19)
(0.075223265 -0.0059156488 -1.4122721e-18)
(0.074836661 -0.0075202007 6.497053e-19)
(0.074544065 -0.0092555023 8.435982e-19)
(0.074334336 -0.011096657 -1.5920924e-18)
(0.074253693 -0.01304517 1.9279488e-23)
(0.074337358 -0.015109433 6.0794707e-19)
(0.074599058 -0.017257618 -8.8996659e-19)
(0.075046649 -0.019463692 7.5157005e-19)
(0.075657577 -0.021723556 5.1620489e-19)
(0.076447002 -0.02398702 2.2686404e-19)
(0.077436748 -0.026243828 -1.9430559e-19)
(0.078591619 -0.028471965 1.3403865e-21)
(0.079882405 -0.030680445 -7.7492311e-20)
(0.081335432 -0.032821732 0)
(0.082949417 -0.034856933 1.3175572e-19)
(0.084685697 -0.036799355 -1.2444514e-19)
(0.086535947 -0.038619053 1.1847986e-19)
(0.088483414 -0.040283888 0)
(0.090502707 -0.041782945 0)
(0.092568583 -0.043088089 4.2766199e-19)
(0.094635287 -0.044254373 -4.2158975e-19)
(0.096699874 -0.045302919 -4.16255e-19)
(0.098762989 -0.046192881 8.1890715e-19)
(0.10080099 -0.046893562 -9.4479519e-23)
(0.10278732 -0.047472826 -1.0057279e-19)
(0.10473217 -0.047915572 -3.9777136e-19)
(0.10661868 -0.04819483 -3.930377e-19)
(0.10843322 -0.048376671 4.4348628e-19)
(0.1102026 -0.048540283 0)
(0.11195694 -0.048571965 -1.9610811e-19)
(0.11365904 -0.048595123 1.988846e-19)
(0.1153633 -0.048522158 -1.971099e-19)
(0.1170482 -0.048423282 9.9574881e-20)
(0.11874769 -0.048266647 0)
(0.12046151 -0.048047109 1.9828535e-19)
(0.12219909 -0.047708299 -1.9602907e-19)
(0.085655366 0.0037649781 -1.9382122e-19)
(0.085025893 0.0033220393 1.2725359e-19)
(0.084387249 0.0028553865 2.474244e-19)
(0.083743359 0.0023850111 -1.2466412e-19)
(0.083115754 0.0018488632 -3.7582611e-19)
(0.082500345 0.0012586858 7.6037064e-19)
(0.081893773 0.000596182 -8.8717307e-19)
(0.081308267 -0.00011888015 5.1467584e-19)
(0.080735324 -0.00092858251 -1.289092e-19)
(0.080160774 -0.0018007535 -1.2992837e-19)
(0.079620625 -0.0027704716 -5.2800179e-19)
(0.079131043 -0.003860733 9.6106701e-24)
(0.078687632 -0.0050695504 -1.4455851e-23)
(0.078312941 -0.0063828424 8.3737672e-19)
(0.078036408 -0.0078113392 0)
(0.077842463 -0.009354444 -2.9541674e-19)
(0.077724488 -0.010994501 0)
(0.077721232 -0.012731433 3.2247911e-19)
(0.07786254 -0.01456952 -1.7152017e-19)
(0.078161213 -0.016482754 0)
(0.078624904 -0.018449841 -4.8452982e-23)
(0.07923925 -0.020463827 -2.1713106e-19)
(0.080014343 -0.02248264 0)
(0.080968201 -0.024497268 -1.7226427e-19)
(0.082072946 -0.026487516 7.5322694e-20)
(0.083304598 -0.028456973 3.4727156e-20)
(0.084681182 -0.030365098 0)
(0.086199359 -0.032177791 -1.1928757e-19)
(0.087826989 -0.033903705 -1.1308638e-19)
(0.089554064 -0.035518064 -1.0815426e-19)
(0.091363667 -0.036994303 0)
(0.093232742 -0.038323361 -2.023199e-19)
(0.095138041 -0.039482831 0)
(0.097042339 -0.04051561 -9.7576103e-20)
(0.098941547 -0.041439233 8.5995527e-23)
(0.10083326 -0.042223772 8.3277375e-23)
(0.10269693 -0.042846597 3.7711744e-19)
(0.10451192 -0.04335971 4.7038523e-19)
(0.10628583 -0.04375337 -7.4141049e-23)
(0.10800479 -0.044008399 -6.9851117e-23)
(0.1096595 -0.044173672 -7.4230558e-19)
(0.11127141 -0.044306829 6.7800527e-23)
(0.11286795 -0.044327136 3.7009535e-19)
(0.11441858 -0.044320143 1.8749764e-19)
(0.11597208 -0.044224273 -1.8607941e-19)
(0.11751114 -0.044084657 9.3912536e-20)
(0.11906848 -0.0438767 9.3806685e-20)
(0.12064623 -0.043594127 -1.8705922e-19)
(0.12225417 -0.043200196 2.7750646e-19)
(0.086664183 0.0027448959 1.2052396e-19)
(0.086150362 0.0023012186 -4.1535727e-19)
(0.085629645 0.0018425517 0)
(0.085107807 0.0013828309 -4.6438304e-19)
(0.084602781 0.00087104868 9.3129114e-19)
(0.084110503 0.00031476881 -4.6974222e-19)
(0.083627153 -0.00030160927 -1.1719954e-19)
(0.08316307 -0.00096445967 1.1855508e-19)
(0.082710957 -0.0017073603 2.3691585e-19)
(0.082259452 -0.0025074774 0)
(0.081839102 -0.0033927016 0)
(0.081463347 -0.0043816691 -1.2169096e-19)
(0.081129022 -0.0054739348 0)
(0.080855176 -0.006659371 -2.5052142e-19)
(0.08066676 -0.0079462454 0)
(0.080552502 -0.0093347766 -7.8503805e-19)
(0.080508749 -0.010811804 5.3946336e-19)
(0.080568307 -0.012376178 -5.6196032e-19)
(0.080756552 -0.01402973 8.8789786e-19)
(0.081084979 -0.015750961 6.3218654e-19)
(0.081560283 -0.017522355 -5.157862e-19)
(0.082172975 -0.019336092 1.8585366e-19)
(0.082930571 -0.021155385 -1.7652006e-19)
(0.083847963 -0.022970918 1.461062e-23)
(0.084903059 -0.024765552 6.846484e-20)
(0.086075902 -0.026540062 -6.2428195e-20)
(0.087379245 -0.02825938 0)
(0.088808356 -0.02989383 1.0817812e-19)
(0.090335798 -0.031449856 1.0296661e-19)
(0.091951104 -0.032906394 0)
(0.093637988 -0.03424108 -1.9120443e-19)
(0.095375778 -0.035446826 3.7258368e-19)
(0.097143185 -0.036505218 0)
(0.098909056 -0.037452626 -9.041373e-19)
(0.10066856 -0.038304028 7.1817695e-19)
(0.10241797 -0.039034791 0)
(0.10413926 -0.039626189 3.5216386e-19)
(0.10581636 -0.040123638 -3.5217156e-19)
(0.10745451 -0.040518784 0)
(0.10904229 -0.040794599 2.6061786e-19)
(0.11057256 -0.040994059 -3.4911968e-19)
(0.11206494 -0.041170688 0)
(0.11353823 -0.041249026 8.7173314e-20)
(0.11497309 -0.041311963 -3.5314663e-19)
(0.11640594 -0.041299744 3.5078483e-19)
(0.11782662 -0.041259337 3.5391605e-19)
(0.11926097 -0.041167297 -4.4187134e-19)
(0.1207123 -0.04102029 4.406477e-19)
(0.12219009 -0.040773369 -4.3596904e-19)
(0.08760696 0.001857157 -5.6290441e-20)
(0.087192931 0.0014398011 1.1086237e-19)
(0.086772292 0.0010074514 2.1571948e-19)
(0.086350366 0.00057037471 5.4150491e-19)
(0.085943725 8.8989592e-05 -5.4197398e-19)
(0.085548573 -0.00043176067 -4.3637497e-19)
(0.085161728 -0.0010045466 9.7789176e-19)
(0.084792171 -0.0016199804 -5.479547e-19)
(0.084434149 -0.0023045893 -5.4614179e-19)
(0.084078422 -0.0030424259 8.7471562e-19)
(0.083751525 -0.0038555255 -4.4067208e-19)
(0.083464941 -0.004758962 2.2201629e-19)
(0.083216492 -0.0057532768 2.2352126e-19)
(0.083022511 -0.0068311356 9.0526167e-19)
(0.082904492 -0.0079987315 -9.1923979e-19)
(0.082854211 -0.0092567905 0)
(0.082870033 -0.010595538 0)
(0.082980161 -0.012013044 4.4788316e-23)
(0.083206426 -0.013509373 0)
(0.083559168 -0.01506645 5.4744892e-19)
(0.08404457 -0.016669098 -5.8877517e-19)
(0.08465675 -0.018309454 6.446199e-19)
(0.085401541 -0.019955711 -3.1389558e-19)
(0.086290726 -0.021597739 4.8008232e-19)
(0.087306798 -0.023220946 -6.152325e-20)
(0.088432545 -0.02482412 -1.1261568e-19)
(0.089676868 -0.026376544 -1.0452546e-19)
(0.091034288 -0.027851839 -2.9514056e-19)
(0.092481135 -0.02925429 -5.6361989e-19)
(0.094006768 -0.03056589 1.8102609e-19)
(0.095595527 -0.031767398 1.7569615e-19)
(0.097228548 -0.032852743 -1.7174636e-19)
(0.098886205 -0.03380653 -6.7521546e-19)
(0.10054197 -0.03465852 1.3412627e-18)
(0.10219063 -0.035421403 -6.6742156e-19)
(0.1038272 -0.036075635 0)
(0.10543528 -0.036606207 -4.9360943e-19)
(0.10700159 -0.037050299 4.9451466e-19)
(0.10852982 -0.037401912 1.6418248e-19)
(0.11000964 -0.03764768 -2.4506143e-19)
(0.11143547 -0.037822032 -1.6423681e-19)
(0.11282409 -0.03796798 0)
(0.11419161 -0.038026143 -8.2180331e-20)
(0.11552168 -0.038061138 -2.4963078e-19)
(0.11684668 -0.038026274 5.7911134e-19)
(0.11815793 -0.037956805 -2.5039165e-19)
(0.11947928 -0.037833593 -1.6677765e-19)
(0.12081416 -0.037652618 -2.4946803e-19)
(0.12217223 -0.037378232 -1.6463614e-19)
(0.088509134 0.0011659634 5.2649214e-19)
(0.088169833 0.00076845575 2.0735999e-19)
(0.087824765 0.00035824068 -5.0464893e-19)
(0.08747944 -5.7312492e-05 4.0470824e-19)
(0.087148474 -0.00051073471 -8.0887227e-19)
(0.086828553 -0.0009990965 3.046299e-19)
(0.08651691 -0.0015331856 3.0290525e-19)
(0.086221459 -0.0021065777 -4.0623846e-19)
(0.085937571 -0.0027408051 0)
(0.085657789 -0.0034245667 -8.0667926e-19)
(0.085405256 -0.0041756602 8.1001162e-19)
(0.085189945 -0.0050064942 -8.1316269e-19)
(0.085010453 -0.005918136 6.1176446e-19)
(0.08488098 -0.006905135 -4.1116797e-19)
(0.084820214 -0.0079721803 1.2466433e-18)
(0.084822156 -0.0091202301 8.415413e-19)
(0.084886555 -0.010341798 -1.2858324e-18)
(0.085037868 -0.011634407 2.2031204e-19)
(0.085294999 -0.012996958 1.3713483e-18)
(0.085667199 -0.014414078 -9.5986021e-19)
(0.086160241 -0.015872202 -5.1139103e-19)
(0.08677028 -0.017363964 5.555186e-19)
(0.087502069 -0.018861843 -9.6536416e-19)
(0.088364961 -0.020354621 2.4641078e-19)
(0.08934491 -0.021830088 -5.5487819e-20)
(0.090426994 -0.023286112 1.0194466e-19)
(0.091617367 -0.02469538 9.496792e-20)
(0.092910074 -0.026034506 5.3809539e-19)
(0.094284412 -0.027306476 -1.7181674e-19)
(0.0957299 -0.028495797 4.9800682e-19)
(0.097231652 -0.029585842 0)
(0.098772468 -0.030571604 0)
(0.10033427 -0.031440173 0)
(0.10189417 -0.032216901 3.1105958e-19)
(0.1034468 -0.032912876 -3.1023358e-19)
(0.10498658 -0.033511941 3.0871219e-19)
(0.10649848 -0.03400157 -3.0754611e-19)
(0.10797156 -0.034414079 1.5427432e-19)
(0.10940822 -0.034744631 -6.1599812e-19)
(0.11079912 -0.034981718 4.6057058e-19)
(0.11213955 -0.035155293 -1.5444628e-19)
(0.11344514 -0.035304043 3.1170776e-19)
(0.11472702 -0.035374668 0)
(0.11597414 -0.035426434 -7.8391399e-20)
(0.11721204 -0.035416628 1.5600575e-19)
(0.11843539 -0.035378909 -1.5728839e-19)
(0.11966387 -0.035295872 3.1440892e-19)
(0.12090162 -0.035165529 1.5680391e-19)
(0.12215659 -0.03495077 -2.274285e-23)
(0.089349819 0.00057808014 -2.9578608e-19)
(0.08907325 0.00020713807 0)
(0.088791419 -0.0001764885 -7.7620869e-24)
(0.088509212 -0.00056755489 0)
(0.088240111 -0.00099212895 -3.778067e-19)
(0.087981215 -0.0014487096 9.4673363e-20)
(0.087730429 -0.0019463467 5.6401266e-19)
(0.08749478 -0.0024807888 1.8865971e-19)
(0.087270752 -0.0030694877 -5.6173055e-19)
(0.087052293 -0.0037046351 -7.4590026e-19)
(0.086859831 -0.0044006141 7.4670563e-19)
(0.086702177 -0.0051676715 0)
(0.086578575 -0.00600718 3.7349872e-19)
(0.086501515 -0.0069150492 -3.7512402e-19)
(0.086487424 -0.007894755 7.5511727e-19)
(0.086531979 -0.0089473446 -7.6143182e-19)
(0.086635906 -0.010067022 5.3779366e-23)
(0.086820609 -0.011250925 7.8946159e-19)
(0.087102586 -0.012497122 -1.2217174e-18)
(0.087490172 -0.013792336 8.4951316e-19)
(0.087988839 -0.015124243 -1.1231123e-18)
(0.088595921 -0.016485974 -2.4185959e-19)
(0.089315609 -0.017853647 0)
(0.090155449 -0.019215204 0)
(0.091103688 -0.020560271 0)
(0.092147461 -0.02188617 0)
(0.093290802 -0.023168399 0)
(0.094527508 -0.024385987 1.6391281e-19)
(0.095839301 -0.025540783 -6.2966617e-19)
(0.097215952 -0.026619298 3.0512899e-19)
(0.09864331 -0.027606912 5.9581611e-19)
(0.10010554 -0.028499261 -5.8591815e-19)
(0.10158586 -0.0292853 5.7912634e-19)
(0.10306421 -0.029986352 -5.7773887e-19)
(0.10453514 -0.030611998 2.8868345e-19)
(0.10599245 -0.03114891 -2.8796777e-19)
(0.10742208 -0.031586661 4.3131075e-19)
(0.10881461 -0.031952687 5.7784747e-19)
(0.11017141 -0.032243419 -2.8906495e-19)
(0.11148363 -0.032449456 -1.404509e-24)
(0.11274723 -0.032595898 0)
(0.1139761 -0.032715464 -1.4671627e-19)
(0.11517914 -0.032763948 1.4602215e-19)
(0.11634712 -0.032790523 2.9559441e-19)
(0.11750247 -0.032759938 -3.6805592e-19)
(0.11864064 -0.032699659 -3.710507e-19)
(0.11977943 -0.032594968 2.9675547e-19)
(0.12092259 -0.032443983 0)
(0.12207747 -0.032214628 1.4676106e-19)
(0.090140735 0.00010877707 -2.7718658e-19)
(0.089914001 -0.00023907784 -2.7293709e-19)
(0.089682655 -0.00059901099 2.6596416e-19)
(0.089451269 -0.00096735346 0)
(0.089232029 -0.0013655881 -2.6502443e-19)
(0.089022496 -0.0017932643 -6.2727227e-24)
(0.088821076 -0.0022581499 5.2590297e-19)
(0.088634091 -0.002757556 -5.2650581e-19)
(0.088458876 -0.0033058522 5.2168421e-19)
(0.08829058 -0.0038977097 0)
(0.088147309 -0.0045448982 0)
(0.088036942 -0.0052559695 0)
(0.087959247 -0.0060324349 -3.4319833e-19)
(0.087925326 -0.0068711707 -6.8691769e-19)
(0.087949724 -0.0077747224 1.3779558e-18)
(0.088029404 -0.008744121 -1.3842678e-18)
(0.088165779 -0.0097747713 3.4951679e-19)
(0.088377707 -0.01086355 2.462799e-23)
(0.088679676 -0.012007945 7.3047184e-19)
(0.089079217 -0.013196343 3.788887e-19)
(0.089581467 -0.014417469 -1.9770953e-23)
(0.090184511 -0.015664913 0)
(0.090892131 -0.016917805 2.1693267e-19)
(0.091710449 -0.018163684 -2.0123243e-19)
(0.092629387 -0.019393553 0)
(0.093637802 -0.020604448 -8.4308829e-20)
(0.094738129 -0.021774313 0)
(0.095924041 -0.022884292 1.5011935e-19)
(0.097179231 -0.023935438 -2.8913468e-19)
(0.098493805 -0.024915962 -5.6167158e-19)
(0.099854333 -0.025812981 8.792153e-23)
(0.10124618 -0.02662277 8.1313908e-19)
(0.10265374 -0.027335914 -5.371566e-19)
(0.10405928 -0.027970734 2.684604e-19)
(0.10545735 -0.028535735 0)
(0.10684143 -0.029019849 -8.0618248e-19)
(0.1081984 -0.02941437 4.0641003e-23)
(0.1095201 -0.0297433 -5.4128189e-19)
(0.11080716 -0.030004008 4.0687388e-19)
(0.11205123 -0.030188609 -4.0695524e-19)
(0.11324871 -0.030318991 7.49758e-23)
(0.11441255 -0.030424283 6.9062959e-19)
(0.1155487 -0.030465607 1.3763936e-19)
(0.11665063 -0.030486947 -2.7867992e-19)
(0.11773666 -0.03045699 -2.7778565e-19)
(0.11880386 -0.030400854 3.5009702e-19)
(0.11986729 -0.030305411 7.0012004e-20)
(0.12093093 -0.030170002 1.3974851e-19)
(0.12200043 -0.029963238 -2.0798389e-19)
(0.090877117 -0.00028332174 0)
(0.090692208 -0.00060718691 -8.5340341e-20)
(0.090503323 -0.00094312837 0)
(0.090314429 -0.001288725 0)
(0.090136761 -0.001661484 0)
(0.089968258 -0.0020617216 0)
(0.089807848 -0.0024960845 -6.5469624e-19)
(0.089661239 -0.002963049 6.5411884e-19)
(0.089526531 -0.0034744713 6.471212e-19)
(0.08939985 -0.0040268938 -1.283551e-18)
(0.08929736 -0.0046299725 6.391285e-19)
(0.089226181 -0.0052908743 0)
(0.089186521 -0.0060111572 6.3231966e-19)
(0.089188336 -0.0067884063 -3.1548102e-19)
(0.089244603 -0.0076244221 -3.1542635e-19)
(0.089353289 -0.0085201594 1.2631848e-18)
(0.0895163 -0.0094719055 -6.3558398e-19)
(0.089750352 -0.010476361 -6.4447091e-19)
(0.090068249 -0.0115306 1.725953e-23)
(0.090476819 -0.012624334 3.4010601e-19)
(0.090980864 -0.013747185 -3.5562798e-19)
(0.091579012 -0.014893117 -3.7763419e-19)
(0.092274692 -0.016043714 3.8863565e-19)
(0.093072895 -0.017186478 0)
(0.093964844 -0.018313435 8.3124667e-20)
(0.094940795 -0.019421422 -3.5205323e-25)
(0.096001956 -0.020490493 0)
(0.097141968 -0.021503589 0)
(0.098346169 -0.022461101 0)
(0.099605016 -0.023352636 1.0359087e-18)
(0.10090575 -0.024166722 -5.1497253e-23)
(0.10223477 -0.024900086 -7.5322568e-19)
(0.10357749 -0.025544601 4.9882793e-19)
(0.10491803 -0.02611596 0)
(0.10625094 -0.026621666 -2.5048879e-19)
(0.10756945 -0.027052474 2.5097203e-19)
(0.10886111 -0.027401079 -2.5162029e-19)
(0.11011869 -0.027688323 7.6100408e-19)
(0.11134213 -0.027912394 0)
(0.11252341 -0.02806682 0)
(0.11365924 -0.028170445 5.1491425e-19)
(0.11476137 -0.028248566 -5.2037941e-19)
(0.11583408 -0.02826816 5.1928843e-19)
(0.11687203 -0.028266894 -3.9428436e-19)
(0.11789118 -0.028218263 0)
(0.1188891 -0.028143656 -6.6102391e-20)
(0.11987924 -0.02803179 -6.6124673e-20)
(0.12086518 -0.027882345 -1.9810253e-19)
(0.12185174 -0.027667149 -1.3107496e-19)
(0.091566438 -0.0005982002 -3.2536715e-19)
(0.091415875 -0.000900532 8.0102085e-20)
(0.091261995 -0.0012147353 1.5627667e-19)
(0.09110833 -0.0015393231 0)
(0.09096516 -0.001888759 0)
(0.090830789 -0.002263913 1.5465433e-19)
(0.090704556 -0.002670543 1.529866e-19)
(0.090591662 -0.0031079778 0)
(0.09049081 -0.0035860942 0)
(0.090398954 -0.004102803 2.984026e-19)
(0.090330579 -0.0046660848 0)
(0.090292175 -0.005281986 0)
(0.090284304 -0.005952049 -5.8390697e-19)
(0.090315959 -0.0066743784 2.9050435e-19)
(0.090398791 -0.0074501888 0)
(0.090531554 -0.0082803233 -5.783373e-19)
(0.0907165 -0.0091617116 -5.8008943e-19)
(0.090968527 -0.010090944 5.8625792e-19)
(0.091299005 -0.011064809 1.1941362e-18)
(0.091714147 -0.012074094 -6.1401105e-19)
(0.092218419 -0.013109198 -6.3894805e-19)
(0.092810845 -0.014164407 3.3751661e-19)
(0.093494522 -0.015223328 -3.5002099e-19)
(0.094273497 -0.01627367 -8.3318253e-20)
(0.09514005 -0.01730824 7.7150534e-20)
(0.096085587 -0.018323752 0)
(0.097110345 -0.019302112 2.656911e-19)
(0.098207997 -0.020227841 0)
(0.099365249 -0.021100834 4.9033867e-19)
(0.10057291 -0.021911892 -2.9177185e-23)
(0.10181886 -0.022650779 -4.7050206e-19)
(0.10309039 -0.02331465 -6.830634e-23)
(0.10437383 -0.023896514 -4.6362487e-19)
(0.10565486 -0.024409988 -4.6489541e-19)
(0.10692806 -0.024861824 -1.1679502e-18)
(0.10818657 -0.025244348 9.3811319e-19)
(0.1094186 -0.025551504 0)
(0.1106177 -0.025801712 -2.3781242e-19)
(0.11178335 -0.025993882 0)
(0.11290788 -0.026122741 4.7999616e-19)
(0.11398828 -0.026204864 2.4234473e-19)
(0.11503543 -0.026262767 -5.8858028e-23)
(0.11605189 -0.026267712 -4.8987737e-19)
(0.11703375 -0.026253085 4.4981949e-24)
(0.11799438 -0.02619571 -2.4763608e-19)
(0.11893217 -0.026114793 2.4969256e-19)
(0.11985866 -0.026000386 -2.4985705e-19)
(0.1207775 -0.025852937 5.6166668e-19)
(0.12169203 -0.025645618 6.1965243e-20)
(0.092209012 -0.00085586017 -3.0559511e-19)
(0.092087503 -0.0011374705 7.5231579e-20)
(0.091963344 -0.0014308892 2.9371902e-19)
(0.091839552 -0.0017353899 7.3176446e-19)
(0.091725619 -0.0020628584 -5.8161039e-19)
(0.091620151 -0.002414564 -1.4486421e-19)
(0.091522862 -0.0027954996 -1.4315575e-19)
(0.091438509 -0.0032056288 -5.7005229e-19)
(0.091366308 -0.0036532047 8.4356462e-19)