/*--------------------------------*- C++ -*----------------------------------*\
| =========                 |                                                 |
| \\      /  F ield         | OpenFOAM: The Open Source CFD Toolbox           |
|  \\    /   O peration     | Version:  v2006                                 |
|   \\  /    A nd           | Website:  www.openfoam.com                      |
|    \\/     M anipulation  |                                                 |
\*---------------------------------------------------------------------------*/
FoamFile
{
    version     2.0;
    format      ascii;
    class       volVectorField;
    location    "5000";
    object      UMean;
}
// * * * * * * * * * * * * * * * * * * * * * * * * * * * * * * * * * * * * * //

dimensions      [0 1 -1 0 0 0 0];


internalField   nonuniform List<vector> 
19765
(
(0.089381372 0.029690505 -9.0216637e-20)
(0.086727002 0.032805841 9.0658524e-20)
(0.079901293 0.03476519 -9.2844315e-20)
(0.072147001 0.035128703 0)
(0.065494985 0.034478891 0)
(0.05945489 0.03298747 2.270785e-19)
(0.053213955 0.030691756 -1.8097264e-19)
(0.047615948 0.028049867 0)
(0.042113751 0.024839664 4.5552593e-19)
(0.03612677 0.020859847 3.8691816e-20)
(0.031218916 0.01669244 -7.7654756e-19)
(0.027360778 0.012245575 7.7038023e-19)
(0.023909432 0.0075658511 -8.6498343e-19)
(0.020996223 0.0027495081 -9.951001e-19)
(0.018874286 -0.0021732599 1.1637201e-18)
(0.0171748 -0.0073640872 0)
(0.015683719 -0.012445925 -2.1993455e-20)
(0.014617381 -0.017501864 1.8320648e-20)
(0.014003193 -0.022695477 -9.8663792e-19)
(0.013815576 -0.027984521 8.4288802e-19)
(0.014042143 -0.033407948 -3.6604583e-19)
(0.014631929 -0.038723537 6.3775369e-19)
(0.015602305 -0.043898159 -2.8948477e-19)
(0.017034213 -0.049298444 1.2191924e-20)
(0.018885607 -0.054689507 -5.9127252e-20)
(0.020915555 -0.05933128 4.6146541e-20)
(0.023136786 -0.063496759 -2.0224203e-19)
(0.025804494 -0.068004182 1.911522e-19)
(0.028752558 -0.072366605 0)
(0.031819081 -0.076218111 3.4928434e-19)
(0.03526179 -0.080134974 -3.319333e-19)
(0.039276857 -0.084191502 6.349253e-19)
(0.044462845 -0.088461118 -6.1115679e-19)
(0.050146721 -0.092233511 2.9398826e-19)
(0.05494596 -0.094593658 -2.891399e-19)
(0.059475679 -0.096438122 -2.7382256e-19)
(0.065472302 -0.098714874 1.8766114e-22)
(0.071925029 -0.10055404 5.3081348e-19)
(0.077857313 -0.10146312 -2.7966435e-19)
(0.085431544 -0.1024321 -2.5352216e-19)
(0.094237326 -0.10293997 2.4779062e-19)
(0.10026316 -0.10156277 -1.5427713e-20)
(0.10560792 -0.099321395 -3.0392461e-20)
(0.11082389 -0.096358805 1.2201438e-19)
(0.11394349 -0.092471664 -2.7587797e-19)
(0.11641861 -0.087844487 1.2333909e-19)
(0.11650143 -0.082626493 0)
(0.1154472 -0.07735844 -1.2939251e-19)
(0.11423624 -0.072624514 0)
(0.080724051 0.017250691 1.4727289e-19)
(0.077694631 0.020015331 1.4177401e-19)
(0.07413406 0.022314705 -6.7356363e-20)
(0.070279739 0.023272095 6.6868973e-20)
(0.066363516 0.023311711 -3.3038532e-19)
(0.062618032 0.022635881 2.6195871e-19)
(0.058981714 0.021437235 -3.2032525e-20)
(0.055624392 0.019835149 2.5425165e-19)
(0.052424396 0.017844135 3.1030387e-20)
(0.049219515 0.015608212 -2.9099715e-19)
(0.046233666 0.012992318 1.5512574e-20)
(0.043650111 0.0099440081 4.7098166e-19)
(0.041346847 0.0065319239 -7.6172908e-19)
(0.039356572 0.0028807259 2.2735285e-19)
(0.037846159 -0.00097225335 -2.6648708e-19)
(0.036623832 -0.0050126615 3.072344e-19)
(0.035520066 -0.0092057464 -1.7792928e-20)
(0.034743799 -0.013520356 0)
(0.034407305 -0.017941187 1.9401812e-20)
(0.03447905 -0.022426349 -2.9935127e-19)
(0.034918491 -0.026921675 2.6401244e-19)
(0.035625246 -0.031452756 2.0710629e-20)
(0.036667752 -0.035960005 7.7973187e-21)
(0.0381224 -0.040360068 -1.1008784e-20)
(0.039837757 -0.044667991 -2.7786441e-20)
(0.041659214 -0.048971519 2.3206328e-20)
(0.043698932 -0.053194598 9.4899542e-20)
(0.04606332 -0.057236033 -3.0287542e-19)
(0.048678661 -0.061150782 3.7409757e-19)
(0.051527619 -0.064913924 -1.8048437e-19)
(0.054670889 -0.068431615 1.087612e-20)
(0.058175026 -0.071612952 0)
(0.062023438 -0.074328765 1.7313434e-19)
(0.066023655 -0.076656013 -7.0978598e-23)
(0.070065899 -0.078736625 -1.602386e-19)
(0.074249919 -0.080530003 -1.7737033e-19)
(0.078641419 -0.081856766 6.9882715e-23)
(0.083139729 -0.082687343 -1.3641457e-19)
(0.08769954 -0.083015736 1.4558619e-19)
(0.09233785 -0.082670575 1.5427874e-19)
(0.096905202 -0.081506717 1.7725745e-19)
(0.10135648 -0.079580342 -3.2644899e-19)
(0.1057137 -0.077277143 1.8647059e-19)
(0.10992572 -0.07430804 -2.1637726e-20)
(0.11379102 -0.071331031 -8.8985207e-20)
(0.11725761 -0.068209229 1.8423802e-19)
(0.12026339 -0.065175996 -1.4302837e-19)
(0.12280602 -0.062572483 -4.9175354e-20)
(0.12500151 -0.060138404 1.0123201e-19)
(0.084208861 0.016718443 8.0209498e-20)
(0.081922118 0.016945632 5.5421329e-24)
(0.079263821 0.016997713 1.5623017e-19)
(0.076367303 0.016927442 -5.2624656e-25)
(0.073478666 0.016468034 -2.4513482e-19)
(0.070624134 0.015714162 3.3702989e-19)
(0.06785614 0.01464767 -8.5662264e-20)
(0.065194544 0.013392261 0)
(0.062681881 0.011835685 0)
(0.060159306 0.010115381 4.6962963e-20)
(0.057802937 0.0081112649 0)
(0.055688644 0.0057642514 5.209956e-20)
(0.053768708 0.0031230054 4.9623604e-19)
(0.052094604 0.00026083574 5.922811e-19)
(0.05076965 -0.0028129392 -1.0270628e-18)
(0.049677923 -0.006080935 -2.959329e-23)
(0.04873173 -0.0095048932 3.9149794e-20)
(0.048051381 -0.013073224 -7.1764675e-19)
(0.047699051 -0.016788051 7.951145e-19)
(0.04769054 -0.020592443 0)
(0.04800903 -0.024432305 5.1597374e-20)
(0.048558705 -0.028356995 -1.5766136e-23)
(0.049456174 -0.032276306 -1.871722e-20)
(0.050716304 -0.036129233 -3.2521585e-20)
(0.052196684 -0.039908531 1.1419255e-19)
(0.05380621 -0.04368265 -1.2930302e-20)
(0.055702898 -0.047380355 -1.7539788e-19)
(0.05792317 -0.050920332 5.3585983e-19)
(0.060349191 -0.054354992 -3.1961946e-19)
(0.063016186 -0.057635878 3.7399673e-20)
(0.065939786 -0.060683293 2.6414125e-19)
(0.069095156 -0.063445848 -5.6798109e-19)
(0.072471839 -0.065830134 -2.7083347e-19)
(0.075903912 -0.067976585 4.9523926e-19)
(0.079387857 -0.069950591 4.8095832e-19)
(0.082993889 -0.071612076 -4.3509966e-19)
(0.086717364 -0.072839303 0)
(0.090438752 -0.073788918 1.9305263e-19)
(0.094191458 -0.074381105 -2.1517127e-19)
(0.09793066 -0.074497095 2.360198e-19)
(0.10154838 -0.074330934 -2.3536146e-19)
(0.10499952 -0.074087803 0)
(0.10835785 -0.073460642 0)
(0.11143323 -0.072574363 2.6202339e-20)
(0.11430658 -0.071481185 0)
(0.11685052 -0.070360841 -5.2232712e-20)
(0.11914594 -0.069134931 2.0656719e-19)
(0.12123657 -0.067825919 -1.022347e-19)
(0.12316921 -0.066380933 0)
(0.083006927 0.011882982 -8.4815495e-20)
(0.081333861 0.012079872 -2.5187877e-19)
(0.079606337 0.012091535 8.1715161e-20)
(0.077789098 0.011978981 -4.1790572e-19)
(0.075945464 0.011575217 3.4080921e-19)
(0.07410413 0.01094808 3.5122746e-19)
(0.07228841 0.010073237 -2.6739444e-19)
(0.070528519 0.0090553123 3.704028e-19)
(0.06881316 0.0077783561 4.9495796e-23)
(0.067097795 0.0063966465 -8.7690265e-19)
(0.065464741 0.0048084188 5.0958562e-19)
(0.063964709 0.0029509107 0)
(0.062578053 0.00085524409 -5.6164236e-20)
(0.061357016 -0.0014101439 -1.0156874e-18)
(0.060372356 -0.0038786517 1.1534727e-18)
(0.059555552 -0.006545307 1.0391503e-18)
(0.058858423 -0.0093393053 -2.4399159e-18)
(0.058370106 -0.012260624 1.3764828e-18)
(0.058151095 -0.015342056 -7.9980813e-19)
(0.058214777 -0.01850676 9.7061804e-19)
(0.058559509 -0.021700676 0)
(0.059114997 -0.024996246 -5.89658e-19)
(0.059941801 -0.028283054 7.012765e-19)
(0.061050483 -0.031531035 -3.863114e-19)
(0.062365764 -0.034731344 6.452915e-20)
(0.063836778 -0.037931625 -8.1347721e-24)
(0.065555527 -0.041054647 -2.0122662e-19)
(0.067534604 -0.044026964 5.4997064e-19)
(0.069695272 -0.046885713 -3.4089687e-19)
(0.072053341 -0.049584589 -3.5918861e-19)
(0.074601937 -0.052057645 3.0160403e-19)
(0.077307684 -0.054274536 6.8190152e-19)
(0.080141057 -0.056172641 -1.7750182e-22)
(0.083003078 -0.057858154 -6.0474897e-19)
(0.08591092 -0.059376596 4.5976445e-19)
(0.088890903 -0.060632051 -5.1055705e-19)
(0.091895492 -0.061541039 4.9705338e-19)
(0.094855952 -0.062219678 -9.8303531e-19)
(0.097805759 -0.062627829 5.1181016e-19)
(0.10068329 -0.062695461 2.062794e-19)
(0.10343191 -0.062536679 -2.3551575e-19)
(0.10612608 -0.062280607 -5.9202089e-20)
(0.1088184 -0.061751901 2.3208782e-19)
(0.11137718 -0.061105886 -2.3546024e-19)
(0.11391043 -0.060240316 0)
(0.11634573 -0.059218739 1.1707869e-19)
(0.11876733 -0.058083306 -5.7934256e-20)
(0.12113814 -0.056886924 0)
(0.12346672 -0.05567346 0)
(0.083821993 0.0097531644 -7.9360218e-20)
(0.082485416 0.0094248902 -2.3510844e-19)
(0.081112698 0.0090515488 3.048183e-19)
(0.079706262 0.0086861792 7.7558456e-20)
(0.078304003 0.0081672611 2.3607791e-19)
(0.076913638 0.0075314422 -2.4170769e-19)
(0.075545518 0.006739651 2.4413407e-19)
(0.074218191 0.0058572319 -4.193095e-19)
(0.072924758 0.0047859518 -8.5012034e-20)
(0.071631689 0.0036300747 1.7395363e-19)
(0.070399432 0.0023071375 -8.1061776e-19)
(0.069259645 0.00076762588 8.4084114e-19)
(0.068201514 -0.00097045783 9.699361e-20)
(0.06726472 -0.0028626863 8.1440804e-19)
(0.06650082 -0.0049368273 -1.0751563e-19)
(0.06586695 -0.0071842318 -9.1339394e-19)
(0.065335502 -0.0095530242 0)
(0.064973982 -0.012051664 0)
(0.064831793 -0.014706072 0)
(0.064923935 -0.017466304 -5.2385779e-19)
(0.065252496 -0.020293636 7.8982628e-19)
(0.065775901 -0.023199714 -8.3117399e-19)
(0.066534189 -0.02609692 5.3535138e-19)
(0.067546227 -0.028973243 -6.471816e-20)
(0.068757273 -0.03181285 1.0089682e-23)
(0.070121559 -0.034641426 2.5018709e-20)
(0.071696553 -0.037390393 4.5118223e-20)
(0.073490133 -0.040007916 -8.2717513e-20)
(0.075442376 -0.042521932 2.3182535e-19)
(0.077554952 -0.044886531 -2.9125705e-19)
(0.079816056 -0.047052395 0)
(0.082194689 -0.049000659 -5.9565936e-19)
(0.084662633 -0.050683319 1.0207172e-18)
(0.087144086 -0.052189908 -4.3743998e-19)
(0.089642049 -0.053550671 -4.291867e-19)
(0.09217176 -0.054689935 1.4026599e-22)
(0.094700938 -0.055550667 9.3709877e-19)
(0.097177349 -0.056242052 -4.6481148e-19)
(0.099621138 -0.056730415 0)
(0.10200044 -0.056966196 0)
(0.10427998 -0.057061545 -1.6868199e-19)
(0.10649902 -0.057146123 2.2656192e-19)
(0.1087034 -0.05702769 5.571867e-20)
(0.11081124 -0.056908191 3.3933463e-19)
(0.11290701 -0.056651554 -5.5994013e-20)
(0.114934 -0.056375318 -2.8293737e-19)
(0.11693077 -0.056038907 5.6526637e-20)
(0.11889332 -0.055566628 0)
(0.12082036 -0.054915339 -3.5181533e-23)
(0.084468178 0.0073904091 3.4368057e-24)
(0.083468647 0.0070662737 -5.0209419e-24)
(0.082452764 0.0066830855 0)
(0.081413088 0.0062829171 -3.588946e-19)
(0.080380264 0.0057623803 7.2472827e-20)
(0.079353647 0.0051490554 2.2149202e-19)
(0.078336047 0.0044163404 7.4253065e-20)
(0.077343861 0.0036085968 1.5209147e-19)
(0.076368657 0.0026550628 7.6720879e-20)
(0.075387827 0.0016255527 -1.559781e-19)
(0.074450717 0.00046014017 0)
(0.073582469 -0.00087846565 -2.4732187e-19)
(0.072775853 -0.0023804957 -8.4864449e-20)
(0.072063147 -0.0040169882 1.7622638e-19)
(0.07148654 -0.0058078809 0)
(0.071016796 -0.0077479112 -1.9288372e-19)
(0.070636063 -0.0098019367 1.0222932e-18)
(0.070399405 -0.011974806 -8.8052998e-19)
(0.070349424 -0.014280809 0)
(0.070501761 -0.01667974 9.4390181e-19)
(0.070865741 -0.019138679 -1.2454226e-18)
(0.071411217 -0.021660112 7.8051538e-19)
(0.072157877 -0.024185203 -4.6477462e-19)
(0.073127961 -0.026703862 1.1349295e-19)
(0.074279364 -0.029191647 -9.9383363e-20)
(0.075575776 -0.031662322 -1.3342011e-19)
(0.077054907 -0.034060529 1.2113359e-19)
(0.078720379 -0.036342104 3.7230411e-19)
(0.080526206 -0.038523093 -6.2911474e-19)
(0.082466594 -0.040567613 1.2863317e-22)
(0.084526166 -0.042437368 5.0539524e-19)
(0.086676983 -0.044117116 4.8602098e-19)
(0.088892306 -0.045571675 -4.7063472e-19)
(0.09111566 -0.046864323 -1.1555084e-19)
(0.093345777 -0.048019273 0)
(0.095587223 -0.048987637 4.4575372e-19)
(0.097812733 -0.049732215 -1.0756298e-22)
(0.099985494 -0.050326949 -4.3513521e-19)
(0.10211911 -0.050753872 0)
(0.10419102 -0.050983961 0)
(0.10618123 -0.051089427 -1.0598073e-19)
(0.10811785 -0.051148729 5.337206e-20)
(0.11004613 -0.051049197 -5.2611585e-20)
(0.11190549 -0.050906668 -5.3377808e-19)
(0.11377167 -0.050640662 4.7578354e-19)
(0.11560827 -0.050310198 0)
(0.11746379 -0.049888693 -5.3341542e-20)
(0.11933256 -0.049375998 0)
(0.12121189 -0.04873969 2.101555e-19)
(0.085453457 0.0058584919 6.8867799e-20)
(0.084636861 0.0054304318 -1.3567727e-19)
(0.083811733 0.0049796238 -2.6368102e-19)
(0.082980116 0.0045333993 5.3276843e-19)
(0.082163636 0.0040053679 -4.0239348e-19)
(0.081359205 0.0034124969 0)
(0.080564675 0.0027307702 5.4577769e-19)
(0.079792732 0.0019892226 -6.9508289e-20)
(0.079034747 0.0011323057 3.4116787e-23)
(0.078273089 0.00020816581 -9.1890232e-19)
(0.077547403 -0.00083009649 -3.0259468e-23)
(0.076877179 -0.0020121573 5.9011557e-19)
(0.076257396 -0.0033328151 6.0306524e-19)
(0.075714311 -0.0047722169 -1.3976394e-18)
(0.075282347 -0.0063459569 6.426646e-19)
(0.074941474 -0.0080510888 8.3380057e-19)
(0.074680821 -0.0098621467 -1.5721344e-18)
(0.07454514 -0.011782056 1.455709e-23)
(0.07456965 -0.013819948 5.9895182e-19)
(0.074768516 -0.015944229 -8.7532707e-19)
(0.075149607 -0.018130138 7.3746326e-19)
(0.075692202 -0.020372518 5.13432e-19)
(0.076410607 -0.022620555 2.3095557e-19)
(0.077327024 -0.024865761 -1.993502e-19)
(0.078407654 -0.027086604 1.3731161e-21)
(0.079623856 -0.02929044 -7.9152791e-20)
(0.081002124 -0.031429702 0)
(0.082542178 -0.03346736 1.3410182e-19)
(0.084206078 -0.03541562 -1.2650359e-19)
(0.08598546 -0.037243626 1.2032713e-19)
(0.087864445 -0.038920088 0)
(0.089818319 -0.04043387 0)
(0.091822233 -0.041756593 4.335789e-19)
(0.093830562 -0.04294194 -4.2722395e-19)
(0.095839193 -0.044009878 -4.2167212e-19)
(0.097849227 -0.044920509 8.2937762e-19)
(0.09983839 -0.045644037 -9.3356703e-23)
(0.10177979 -0.046246791 -1.018149e-19)
(0.1036824 -0.0467134 -4.0264317e-19)
(0.10553055 -0.047017739 -3.9781302e-19)
(0.1073105 -0.047224833 4.4879859e-19)
(0.10904644 -0.047412136 0)
(0.11076853 -0.047468626 -1.9841247e-19)
(0.1124411 -0.047515683 2.0118912e-19)
(0.11411635 -0.047467501 -1.9938298e-19)
(0.11577389 -0.047393141 1.0071183e-19)
(0.11744661 -0.047261636 0)
(0.11913467 -0.047068208 2.0051989e-19)
(0.12084821 -0.046758161 -1.9822901e-19)
(0.086356418 0.0044314492 -1.9270984e-19)
(0.085713916 0.004019559 1.2649296e-19)
(0.085063977 0.0035828069 2.4586805e-19)
(0.084408322 0.0031422209 -1.2386003e-19)
(0.083766961 0.0026350126 -3.7333512e-19)
(0.083135799 0.0020734791 7.5523139e-19)
(0.082512095 0.0014393196 -8.8096867e-19)
(0.081906682 0.00075264748 5.1102235e-19)
(0.081312259 -2.8829277e-05 -1.2795757e-19)
(0.080714946 -0.00087188796 -1.2893742e-19)
(0.080148425 -0.0018123723 -5.2389358e-19)
(0.079628592 -0.0028736095 7.188511e-24)
(0.079151919 -0.0040533582 -1.6290357e-23)
(0.078740247 -0.0053379389 8.3020046e-19)
(0.078422432 -0.0067389391 0)
(0.078184333 -0.008255098 -2.9261034e-19)
(0.078019582 -0.0098683067 0)
(0.077965751 -0.011579646 3.189587e-19)
(0.078052642 -0.013394096 -1.6948803e-19)
(0.078293388 -0.015285926 0)
(0.078695715 -0.01723471 -4.775352e-23)
(0.079246562 -0.019232996 -2.1576417e-19)
(0.079955737 -0.021238428 0)
(0.080841315 -0.023242817 -1.7599221e-19)
(0.081876677 -0.025226658 7.6888389e-20)
(0.083038465 -0.027192501 3.5367242e-20)
(0.08434507 -0.029099716 0)
(0.08579408 -0.030915652 -1.211424e-19)
(0.087353976 -0.032648052 -1.1472842e-19)
(0.089014813 -0.034271368 -1.096438e-19)
(0.090760462 -0.035759641 0)
(0.092568453 -0.037103571 -2.0489633e-19)
(0.094415895 -0.038280481 0)
(0.096265635 -0.039332252 -9.8749781e-20)
(0.098112635 -0.040275452 8.4652947e-23)
(0.099954902 -0.041080706 8.2113066e-23)
(0.10177298 -0.041725938 3.8143394e-19)
(0.10354593 -0.042262158 4.7569644e-19)
(0.10528034 -0.042679251 -7.343798e-23)
(0.10696327 -0.042958494 -6.9329316e-23)
(0.10858527 -0.043148244 -7.5049781e-19)
(0.1101657 -0.043305317 6.7371622e-23)
(0.11173179 -0.043350182 3.7412537e-19)
(0.11325435 -0.043367894 1.895183e-19)
(0.11478012 -0.043297501 -1.8807977e-19)
(0.11629279 -0.043184049 9.4915717e-20)
(0.11782398 -0.043003437 9.4803809e-20)
(0.11937619 -0.042749713 -1.8904213e-19)
(0.12095993 -0.042386567 2.8044422e-19)
(0.087298039 0.0033827986 1.1991295e-19)
(0.086771226 0.0029636004 -4.1316861e-19)
(0.086238866 0.0025288821 0)
(0.085705178 0.0020935006 -4.6176356e-19)
(0.085186649 0.0016056107 9.2591316e-19)
(0.084679255 0.0010732739 -4.6698833e-19)
(0.084179554 0.00048084541 -1.1649144e-19)
(0.083696791 -0.00015774428 1.1783217e-19)
(0.083224504 -0.00087628933 2.354188e-19)
(0.08275159 -0.0016511055 0)
(0.082306663 -0.0025107226 0)
(0.081902899 -0.0034740554 -1.208734e-19)
(0.081537793 -0.004540488 0)
(0.081229809 -0.0057002467 -2.4872953e-19)
(0.081003385 -0.0069623305 0)
(0.080848373 -0.0083264831 -7.7887699e-19)
(0.080761339 -0.0097792292 5.3493975e-19)
(0.080774141 -0.011320391 -5.5694536e-19)
(0.080912107 -0.012952438 8.7933976e-19)
(0.081187013 -0.014654156 6.255149e-19)
(0.081605749 -0.016408589 -5.0969109e-19)
(0.082159758 -0.018207737 1.844443e-19)
(0.08285648 -0.020014944 -1.7784937e-19)
(0.083710714 -0.021821128 1.5010685e-23)
(0.084701459 -0.023609736 6.9699305e-20)
(0.085809419 -0.025380934 -6.3434052e-20)
(0.087047782 -0.02709954 0)
(0.088412689 -0.028736998 1.0966737e-19)
(0.08987727 -0.030298908 1.0429845e-19)
(0.091431171 -0.031763574 0)
(0.093058795 -0.033109072 -1.9347044e-19)
(0.094739963 -0.034328029 3.7686569e-19)
(0.096453707 -0.035401778 0)
(0.098168939 -0.036365722 -9.1401917e-19)
(0.099880066 -0.037234003 7.2586894e-19)
(0.10158371 -0.037982482 0)
(0.10326269 -0.038592912 3.5586923e-19)
(0.10490065 -0.039109712 -3.5583545e-19)
(0.10650203 -0.039524294 0)
(0.10805614 -0.039820124 2.6331384e-19)
(0.10955569 -0.040039555 -3.5270196e-19)
(0.11101849 -0.04023507 0)
(0.11246335 -0.040332829 8.806022e-20)
(0.11387182 -0.040414561 -3.5671302e-19)
(0.11527881 -0.040421622 3.5432535e-19)
(0.11667483 -0.04040036 3.5746866e-19)
(0.11808489 -0.040327946 -4.4629901e-19)
(0.1195126 -0.040201277 4.4505429e-19)
(0.12096793 -0.039976551 -4.403293e-19)
(0.08817721 0.002458771 -5.6040416e-20)
(0.087751012 0.0020631327 1.1035002e-19)
(0.087319366 0.0016519258 2.1467646e-19)
(0.086886174 0.0012362031 5.3883733e-19)
(0.086466829 0.00077576851 -5.3924946e-19)
(0.086057524 0.0002760215 -4.3415595e-19)
(0.085655369 -0.00027571159 9.7278499e-19)
(0.085268428 -0.00086976504 -5.4507505e-19)
(0.084891579 -0.001532837 -5.431804e-19)
(0.08451579 -0.0022482649 8.698623e-19)
(0.084165982 -0.003038613 -4.3819997e-19)
(0.08385339 -0.0039191896 2.2075144e-19)
(0.083576351 -0.004890406 2.2221127e-19)
(0.083350711 -0.0059452234 8.9982878e-19)
(0.083197512 -0.0070904668 -9.1355202e-19)
(0.083109431 -0.0083265109 0)
(0.083085017 -0.0096433441 0)
(0.083151698 -0.011039866 4.4060293e-23)
(0.08333125 -0.012516723 0)
(0.08363426 -0.01405613 5.4272285e-19)
(0.084067149 -0.015643314 -5.8311496e-19)
(0.084624654 -0.017270374 6.3824856e-19)
(0.085312697 -0.018905836 -3.1465577e-19)
(0.086142972 -0.020539556 4.8762886e-19)
(0.0870988 -0.022157414 -6.2497562e-20)
(0.08816372 -0.023757916 -1.1422201e-19)
(0.089347122 -0.025310203 -1.0590119e-19)
(0.090644326 -0.026788795 -2.9877642e-19)
(0.092032181 -0.028197246 -5.7017306e-19)
(0.093500205 -0.029517014 1.8303796e-19)
(0.095033357 -0.030729185 1.7758358e-19)
(0.096613209 -0.031827406 -1.7354143e-19)
(0.098220438 -0.032796045 -6.8212297e-19)
(0.099828573 -0.033664062 1.3546766e-18)
(0.10143177 -0.034443427 -6.7398517e-19)
(0.10302536 -0.035114938 0)
(0.10459365 -0.035663922 -4.9840524e-19)
(0.10612311 -0.03612679 4.992782e-19)
(0.10761673 -0.036497296 1.6576285e-19)
(0.10906483 -0.036762404 -2.4741815e-19)
(0.11046164 -0.036956127 -1.6580843e-19)
(0.11182244 -0.037120804 0)
(0.11316329 -0.037198061 -8.2964532e-20)
(0.1144686 -0.037251972 -2.5199809e-19)
(0.11576937 -0.037236464 5.8460986e-19)
(0.11705752 -0.037186616 -2.5276074e-19)
(0.11835611 -0.03708372 -1.6835435e-19)
(0.1196688 -0.036924034 -2.5182717e-19)
(0.12100564 -0.036672476 -1.6619511e-19)
(0.089026851 0.0017383591 5.2441017e-19)
(0.088675761 0.0013589703 2.0651145e-19)
(0.088319835 0.00096657764 -5.0249193e-19)
(0.087963477 0.00056924571 4.0295412e-19)
(0.087620227 0.00013383418 -8.0530842e-19)
(0.087286765 -0.00033632425 3.03277e-19)
(0.086960512 -0.00085203532 3.0153031e-19)
(0.086648626 -0.0014066302 -4.0439061e-19)
(0.086346933 -0.0020218045 0)
(0.086048149 -0.0026856596 -8.0283887e-19)
(0.085774048 -0.0034164476 8.0613016e-19)
(0.085534375 -0.004226782 -8.0922607e-19)
(0.085328123 -0.0051176406 6.0872738e-19)
(0.08516908 -0.0060838339 -4.0908795e-19)
(0.085075535 -0.0071306024 1.2401675e-18)
(0.085042216 -0.0082586485 8.3694054e-19)
(0.085069026 -0.0094603192 -1.2783837e-18)
(0.08517978 -0.010733857 2.1896238e-19)
(0.085393333 -0.012078689 1.3623539e-18)
(0.08571916 -0.013479718 -9.5301477e-19)
(0.08616328 -0.014923721 -5.0734855e-19)
(0.086722292 -0.016403334 5.50531e-19)
(0.087401114 -0.017891457 -9.6649058e-19)
(0.088209028 -0.019376816 2.4975786e-19)
(0.08913258 -0.0208475 -5.6269378e-20)
(0.09015767 -0.022301282 1.0324643e-19)
(0.091290955 -0.02371074 9.6092631e-20)
(0.092527228 -0.025053189 5.4408726e-19)
(0.093846267 -0.026330957 -1.7362796e-19)
(0.095237773 -0.027528087 5.0305032e-19)
(0.096687415 -0.028628185 0)
(0.09817838 -0.029625952 0)
(0.099692861 -0.030508247 0)
(0.10120802 -0.031299685 3.1392972e-19)
(0.10271799 -0.032010714 -3.1305787e-19)
(0.10421743 -0.032625452 3.1150866e-19)
(0.10569191 -0.033131644 -3.1032623e-19)
(0.10713024 -0.033560885 1.5566223e-19)
(0.10853425 -0.033908147 -6.2154288e-19)
(0.1098951 -0.034162227 4.6472653e-19)
(0.11120796 -0.034352658 -1.5583666e-19)
(0.11248713 -0.034517428 3.145039e-19)
(0.11374375 -0.034604312 0)
(0.11496733 -0.034671829 -7.9095648e-20)
(0.11618229 -0.034678014 1.5741134e-19)
(0.11738375 -0.034656155 -1.5870396e-19)
(0.11859076 -0.034589293 3.1724095e-19)
(0.11980759 -0.034475623 1.582185e-19)
(0.12104257 -0.03427888 -2.2646898e-23)
(0.08981913 0.0011200257 -2.9474835e-19)
(0.089531504 0.00076506573 0)
(0.089239371 0.00039716874 -7.3819723e-24)
(0.088946641 2.2183766e-05 0)
(0.088665882 -0.00038645779 -3.7634714e-19)
(0.088394173 -0.00082689256 9.4305463e-20)
(0.088129549 -0.0013081763 5.6178269e-19)
(0.087878401 -0.0018258384 1.8791647e-19)
(0.087637555 -0.0023974714 -5.5946233e-19)
(0.087401099 -0.0030147584 -7.4284703e-19)
(0.087188297 -0.0036924709 7.4364307e-19)
(0.087007749 -0.0044410349 0)
(0.086859011 -0.0052617584 3.7192604e-19)
(0.086754225 -0.0061507785 -3.7351905e-19)
(0.086709461 -0.0071120548 7.5181708e-19)
(0.086720992 -0.0081464472 -7.5793518e-19)
(0.086789673 -0.0092480413 5.2862225e-23)
(0.086936371 -0.010414605 7.8542697e-19)
(0.08717754 -0.011644683 -1.2150414e-18)
(0.087521719 -0.012925258 8.4448364e-19)
(0.087974602 -0.014244324 -1.1157524e-18)
(0.088533888 -0.015595021 -2.4006513e-19)
(0.089203946 -0.016953895 0)
(0.08999225 -0.018308892 0)
(0.0908875 -0.019649796 0)
(0.091877651 -0.020973943 0)
(0.092967259 -0.022256762 0)
(0.094150821 -0.023477841 1.6557485e-19)
(0.09541051 -0.024638446 -6.3574225e-19)
(0.096736298 -0.025724685 3.0796164e-19)
(0.098114539 -0.026722109 6.0119925e-19)
(0.099529741 -0.027626073 -5.9109656e-19)
(0.10096539 -0.028425317 5.8416841e-19)
(0.10240148 -0.029140521 -5.8268675e-19)
(0.10383211 -0.029780706 2.911302e-19)
(0.10525132 -0.030332749 -2.9040194e-19)
(0.10664558 -0.030786426 4.3495422e-19)
(0.10800523 -0.031168568 5.8271648e-19)
(0.10933116 -0.031475422 -2.9150609e-19)
(0.11061497 -0.03169782 -5.048024e-25)
(0.11185246 -0.03186053 0)
(0.11305642 -0.031995738 -1.479588e-19)
(0.11423571 -0.032060034 1.4726607e-19)
(0.1153816 -0.032102104 2.9810953e-19)
(0.1165155 -0.032087223 -3.7120167e-19)
(0.11763325 -0.032042668 -3.7422279e-19)
(0.11875207 -0.031954076 2.9929792e-19)
(0.1198758 -0.031819757 0)
(0.12101212 -0.03160823 1.4802634e-19)
(0.090568108 0.00062367474 -2.7631912e-19)
(0.090330819 0.00028958154 -2.7205779e-19)
(0.090089511 -5.670435e-05 2.6507493e-19)
(0.089847957 -0.00041097834 0)
(0.089617522 -0.000795191 -2.6412369e-19)
(0.089395746 -0.0012085715 -6.6380317e-24)
(0.089181115 -0.0016588997 5.2408849e-19)
(0.088979408 -0.0021432934 -5.2470379e-19)
(0.088788213 -0.0026762544 5.1986293e-19)
(0.088602791 -0.0032520213 0)
(0.088440248 -0.0038827039 0)
(0.088308267 -0.0045770147 0)
(0.088206863 -0.0053364236 -3.4197005e-19)
(0.088146833 -0.0061580104 -6.8443316e-19)
(0.088142409 -0.0070447499 1.372877e-18)
(0.088191044 -0.0079975392 -1.3789265e-18)
(0.088294256 -0.0090117047 3.4809329e-19)
(0.088470452 -0.01008468 2.1796311e-23)
(0.088734085 -0.011214385 7.2713697e-19)
(0.089092867 -0.012389452 3.7701817e-19)
(0.08955214 -0.013598902 -1.7864357e-23)
(0.090110313 -0.014836336 0)
(0.090771326 -0.016081289 2.1709415e-19)
(0.091541224 -0.017321376 -2.0329265e-19)
(0.0924103 -0.018547653 0)
(0.093368189 -0.01975723 -8.5194281e-20)
(0.094417866 -0.020928017 0)
(0.095553664 -0.022041599 1.5151686e-19)
(0.096759705 -0.023098506 -2.91702e-19)
(0.098026303 -0.024086594 -5.6649266e-19)
(0.099340493 -0.024993091 8.5789566e-23)
(0.10068795 -0.025813997 8.1981205e-19)
(0.10205331 -0.026539688 -5.4150974e-19)
(0.10341889 -0.027187899 2.7060456e-19)
(0.10477887 -0.027766629 0)
(0.10612696 -0.028264963 -8.1257157e-19)
(0.10745043 -0.028674347 3.9861621e-23)
(0.10874095 -0.029018232 -5.4557859e-19)
(0.10999873 -0.029293825 4.1011764e-19)
(0.11121579 -0.029493435 -4.1022202e-19)
(0.11238838 -0.029638643 7.416745e-23)
(0.11352849 -0.029758067 6.961876e-19)
(0.11464207 -0.02981359 1.3875535e-19)
(0.11572294 -0.029848671 -2.8094049e-19)
(0.11678861 -0.029832531 -2.8005345e-19)
(0.11783642 -0.02979004 3.5295954e-19)
(0.11888097 -0.029708411 7.0586584e-20)
(0.11992626 -0.029587116 1.4090091e-19)
(0.12097826 -0.029395456 -2.0970611e-19)
(0.091266186 0.00020509045 0)
(0.091071344 -0.00010659403 -8.5095785e-20)
(0.090872981 -0.00043041826 0)
(0.090674373 -0.00076349002 0)
(0.090486038 -0.0011237205 0)
(0.090305887 -0.0015111406 0)
(0.090132895 -0.0019324057 -6.5272602e-19)
(0.089972307 -0.0023858209 6.5217303e-19)
(0.089822412 -0.0028833607 6.451681e-19)
(0.089679421 -0.0034211967 -1.2796561e-18)
(0.089558637 -0.0040092825 6.372043e-19)
(0.089467002 -0.0046549295 0)
(0.089404918 -0.0053596704 6.3039968e-19)
(0.089382074 -0.0061212727 -3.1451469e-19)
(0.089411173 -0.0069419194 -3.1444629e-19)
(0.089490587 -0.0078224718 1.2590897e-18)
(0.089622307 -0.0087591692 -6.3341602e-19)
(0.08982267 -0.0097492069 -6.4216263e-19)
(0.090104451 -0.010790054 1.8201121e-23)
(0.090474645 -0.011871652 3.3870256e-19)
(0.090938235 -0.012983902 -3.5400553e-19)
(0.091494147 -0.01412078 -3.7568743e-19)
(0.092145948 -0.015264244 3.888133e-19)
(0.092898541 -0.016401932 0)
(0.093743455 -0.017525851 8.3995143e-20)
(0.094671682 -0.018632948 -9.0497293e-26)
(0.095684974 -0.019703276 0)
(0.096777603 -0.020720123 0)
(0.097935315 -0.021683416 0)
(0.099148782 -0.022582443 1.0441649e-18)
(0.10040567 -0.023405805 -5.1308949e-23)
(0.10169266 -0.024149967 -7.5899752e-19)
(0.1029954 -0.024806603 5.0260684e-19)
(0.10429805 -0.025390884 0)
(0.10559486 -0.025909861 -2.5235475e-19)
(0.10687925 -0.026354402 2.5284518e-19)
(0.10813915 -0.026717315 -2.535049e-19)
(0.10936713 -0.027018963 7.6671089e-19)
(0.1105628 -0.02725738 0)
(0.11171845 -0.027426252 0)
(0.11283066 -0.027544159 5.1884756e-19)
(0.11391034 -0.027635977 -5.2436341e-19)
(0.11496177 -0.027669297 5.2329991e-19)
(0.11597989 -0.027681382 -3.9733581e-19)
(0.11697996 -0.027646147 0)
(0.11795977 -0.027584816 -6.661951e-20)
(0.11893232 -0.027486389 -6.664453e-20)
(0.11990124 -0.027350676 -1.9966612e-19)
(0.1208716 -0.027150066 -1.3211595e-19)
(0.09192142 -0.00013418441 -3.2455569e-19)
(0.091761431 -0.00042582315 7.9897772e-20)
(0.091598462 -0.00072932268 1.558657e-19)
(0.091435464 -0.0010427763 0)
(0.091282077 -0.0013810165 0)
(0.091136575 -0.0017446605 1.5425076e-19)
(0.090998316 -0.0021394775 1.525849e-19)
(0.090872102 -0.002564646 0)
(0.090756771 -0.0030301528 0)
(0.090649346 -0.003533591 2.9762415e-19)
(0.090563562 -0.004083205 0)
(0.090505743 -0.004685174 0)
(0.090476606 -0.005341029 -5.824044e-19)
(0.09048491 -0.0060490411 2.8975385e-19)
(0.09054206 -0.0068107681 0)
(0.090647148 -0.0076269919 -5.7676339e-19)
(0.090802498 -0.0084946185 -5.7843347e-19)
(0.091022682 -0.0094106816 5.8450021e-19)
(0.091319054 -0.01037233 1.1903237e-18)
(0.091697974 -0.011370567 -6.1188968e-19)
(0.092164077 -0.012396057 -6.3650884e-19)
(0.092716659 -0.013443094 3.3605943e-19)
(0.093358937 -0.01449563 -3.5006092e-19)
(0.094094867 -0.015541556 -8.3950718e-20)
(0.094916982 -0.016573606 7.7892456e-20)
(0.095817362 -0.017588628 0)
(0.096796804 -0.018568553 2.679141e-19)
(0.097849583 -0.01949817 0)
(0.098962796 -0.020376961 4.9409411e-19)
(0.10012747 -0.021195437 -3.0488147e-23)
(0.10133188 -0.021943403 -4.7392942e-19)
(0.10256357 -0.022617756 -6.676892e-23)
(0.10380909 -0.023211319 -4.6692495e-19)
(0.10505415 -0.023737226 -4.6817628e-19)
(0.10629311 -0.024201823 -1.176164e-18)
(0.10751925 -0.024597509 9.4472926e-19)
(0.1087211 -0.024918308 0)
(0.10989207 -0.025182204 -2.395056e-19)
(0.11103131 -0.025387963 0)
(0.11213144 -0.025530438 4.8347363e-19)
(0.11318932 -0.025625964 2.4411032e-19)
(0.11421508 -0.025696667 -5.8222119e-23)
(0.11521131 -0.025714368 -4.9349626e-19)
(0.11617429 -0.02571206 3.9224222e-24)
(0.11711682 -0.025666961 -2.4948832e-19)
(0.11803743 -0.025598101 2.5156823e-19)
(0.11894731 -0.025495795 -2.5174587e-19)
(0.11985009 -0.02536058 5.659369e-19)
(0.1207494 -0.025166213 6.2439858e-20)
(0.092532867 -0.00041522516 -3.0491442e-19)
(0.092402463 -0.00068730944 7.5060713e-20)
(0.092269646 -0.00097115228 2.9303367e-19)
(0.09213693 -0.0012656552 7.3006353e-19)
(0.09201324 -0.0015830293 -5.8026209e-19)
(0.091897151 -0.0019243198 -1.4453284e-19)
(0.091788377 -0.0022945305 -1.4282781e-19)
(0.091691325 -0.002693492 -5.6877646e-19)
(0.091605313 -0.0031295584 8.4166586e-19)