/*--------------------------------*- C++ -*----------------------------------*\
| =========                 |                                                 |
| \\      /  F ield         | OpenFOAM: The Open Source CFD Toolbox           |
|  \\    /   O peration     | Version:  v2006                                 |
|   \\  /    A nd           | Website:  www.openfoam.com                      |
|    \\/     M anipulation  |                                                 |
\*---------------------------------------------------------------------------*/
FoamFile
{
    version     2.0;
    format      ascii;
    class       volVectorField;
    location    "5000";
    object      wallShearStress;
}
// * * * * * * * * * * * * * * * * * * * * * * * * * * * * * * * * * * * * * //

dimensions      [1 -1 -2 0 0 0 0];


internalField   uniform (0 0 0);

boundaryField
{
    Side
    {
        type            empty;
    }
    Inlet
    {
        type            calculated;
        value           uniform (0 0 0);
    }
    Wing
    {
        type            calculated;
        value           nonuniform List<vector> 
139
(
(-3.0072858e-05 -1.0262986e-05 3.1914526e-23)
(-2.9142649e-05 -1.0472197e-05 -3.1784424e-23)
(-2.6606785e-05 -9.4367306e-06 3.1751155e-23)
(-2.2640594e-05 -8.9319833e-06 0)
(-1.9635694e-05 -8.1720332e-06 -2.9387359e-39)
(-1.6798393e-05 -7.255048e-06 -6.4976144e-23)
(-1.4566543e-05 -5.926411e-06 4.8567088e-23)
(-1.2058379e-05 -4.6983712e-06 0)
(-1.0408089e-05 -3.2329716e-06 -1.0506209e-22)
(-8.5603206e-06 -1.8898462e-06 -8.0288383e-24)
(-6.9831393e-06 -8.9640051e-07 1.4640689e-22)
(-5.8614209e-06 -1.8423459e-07 -1.2949101e-22)
(-4.8632142e-06 3.972905e-07 1.3059801e-22)
(-4.1597809e-06 8.6526888e-07 1.374764e-22)
(-3.8383537e-06 1.3073003e-06 -1.5359237e-22)
(-3.7388341e-06 1.8863727e-06 1.7632415e-38)
(-3.7763882e-06 2.5835112e-06 3.0693616e-24)
(-3.8340263e-06 3.4392276e-06 -2.6331151e-24)
(-3.982932e-06 4.429031e-06 1.5070481e-22)
(-4.2994485e-06 5.5773166e-06 -1.3808229e-22)
(-4.6466943e-06 6.907017e-06 6.4865385e-23)
(-4.9606913e-06 8.317923e-06 -1.2205963e-22)
(-5.6630353e-06 9.7837167e-06 5.9459834e-23)
(-6.5611722e-06 1.1476086e-05 -2.709035e-24)
(-7.0378622e-06 1.3314948e-05 1.4172175e-23)
(-7.3166437e-06 1.5089905e-05 -1.178754e-23)
(-8.5015386e-06 1.6705651e-05 5.4986131e-23)
(-9.9583168e-06 1.8628443e-05 -5.5166857e-23)
(-1.085541e-05 2.0692613e-05 0)
(-1.2365138e-05 2.2670677e-05 -1.1238518e-22)
(-1.4446131e-05 2.4697704e-05 1.1236238e-22)
(-1.7013865e-05 2.682917e-05 -2.2813088e-22)
(-2.028496e-05 2.9856876e-05 2.2920519e-22)
(-2.212459e-05 3.3342961e-05 -1.1491543e-22)
(-2.3917124e-05 3.6359182e-05 1.1626173e-22)
(-2.7131173e-05 3.8283732e-05 1.1422489e-22)
(-3.1332606e-05 4.0559946e-05 2.0540559e-25)
(-3.4344843e-05 4.3473338e-05 -2.3496622e-22)
(-3.8660139e-05 4.5329247e-05 1.2743396e-22)
(-4.4364902e-05 4.6787908e-05 1.1914683e-22)
(-4.8738066e-05 4.9167467e-05 -1.1871951e-22)
(-5.0558984e-05 5.0537454e-05 7.4354662e-24)
(-5.4563423e-05 4.9484339e-05 1.4880578e-23)
(-5.5594571e-05 4.989213e-05 -5.9553573e-23)
(-5.7395036e-05 4.7714707e-05 1.3482718e-22)
(-5.7200746e-05 4.6077751e-05 -5.9499179e-23)
(-5.6155409e-05 4.2981941e-05 5.8774718e-39)
(-5.4478862e-05 3.9688608e-05 6.0664971e-23)
(-5.3147254e-05 3.6389203e-05 -1.4693679e-39)
(-1.6566839e-05 -1.4784415e-06 -4.0120942e-21)
(-1.3797656e-05 -8.4243185e-07 -1.2195754e-37)
(-1.3188363e-05 -5.3870441e-08 -2.2567058e-22)
(-1.5011931e-05 3.3993563e-07 -6.3286323e-23)
(-1.8051693e-05 5.1976182e-07 1.0163284e-21)
(-2.0452031e-05 4.5356047e-07 -4.7907495e-22)
(-2.2009703e-05 3.383965e-07 1.8367099e-40)
(-2.3251583e-05 1.8663852e-07 3.2223687e-23)
(-2.4237313e-05 2.0884378e-08 9.6792811e-23)
(-2.5080097e-05 -1.4600008e-07 1.0696005e-27)
(-2.5804153e-05 -3.3031565e-07 3.2501034e-23)
(-2.6360358e-05 -4.9418745e-07 3.2522664e-23)
(-2.6897158e-05 -6.5506126e-07 -4.9350679e-28)
(-2.7388621e-05 -8.2757143e-07 -3.2728522e-23)
(-2.7727211e-05 -9.9126693e-07 2.6230675e-22)
(-2.7879604e-05 -1.1313922e-06 1.3160498e-22)
(-2.7974983e-05 -1.24183e-06 -1.3183504e-22)
(-2.8209395e-05 -1.3699659e-06 0)
(-2.8572073e-05 -1.548216e-06 -1.3154373e-22)
(-2.90546e-05 -1.8060895e-06 -3.6734198e-40)
(-2.9600477e-05 -2.1507235e-06 -1.6443586e-23)
(-3.0005257e-05 -2.5423902e-06 1.6482039e-23)
(-3.0152745e-05 -2.9441283e-06 1.3226074e-22)
(-2.9943529e-05 -3.3070974e-06 -1.3218057e-22)
(-2.9671776e-05 -3.6696965e-06 1.3481861e-22)
(-2.9419221e-05 -4.044199e-06 -1.3498562e-22)
(-2.8971306e-05 -4.3997834e-06 -3.6734198e-40)
(-2.8521397e-05 -4.7745171e-06 -6.6722613e-23)
(-2.80459e-05 -5.1440947e-06 -1.6667588e-23)
(-2.7714176e-05 -5.6286602e-06 1.6653708e-23)
(-2.7555953e-05 -6.1918696e-06 -3.314239e-23)
(-2.7651876e-05 -7.0444047e-06 -3.6734198e-40)
(-2.826057e-05 -8.1738042e-06 0)
(-2.9418789e-05 -9.6714779e-06 -3.6734198e-40)
(-5.2381524e-05 -9.5523602e-07 2.8789556e-23)
(-5.0503721e-05 -1.369438e-06 3.0869595e-23)
(-4.9054187e-05 -1.6859392e-06 -5.2484948e-27)
(-4.7781155e-05 -1.9651413e-06 -6.6177037e-23)
(-4.658863e-05 -2.2297401e-06 3.9039087e-24)
(-4.5370294e-05 -2.4919948e-06 5.8669421e-23)
(-4.3920897e-05 -2.7598395e-06 1.2533553e-22)
(-4.2421402e-05 -2.9946616e-06 1.2567223e-22)
(-4.1124612e-05 -3.1912507e-06 5.078601e-22)
(-4.0031676e-05 -3.3735127e-06 -2.524117e-22)
(-3.9039088e-05 -3.5618298e-06 -2.525389e-22)
(-3.8074483e-05 -3.7615585e-06 2.6035689e-22)
(-3.6948387e-05 -3.981373e-06 -5.1138851e-22)
(-3.5670327e-05 -4.1903531e-06 -7.858747e-24)
(-3.4444415e-05 -4.3738107e-06 -9.9673048e-22)
(-3.3286765e-05 -4.5687157e-06 1.0024901e-21)
(-3.1911291e-05 -4.7496695e-06 1.1754944e-38)
(-3.04098e-05 -4.89625e-06 -4.4078351e-27)
(-2.9002658e-05 -5.0251578e-06 1.9759559e-21)
(-2.739806e-05 -5.1377867e-06 -1.9592732e-21)
(-2.5518555e-05 -5.1726958e-06 1.8981302e-24)
(-2.346476e-05 -5.161827e-06 3.8490471e-21)
(-2.0819403e-05 -4.961433e-06 -3.6832464e-24)
(-1.9329331e-05 -4.9024843e-06 1.4694222e-23)
(-1.1592967e-05 -3.9237788e-06 -6.5535816e-21)
(-5.2282796e-05 3.3672684e-05 2.9387359e-39)
(-5.2099009e-05 3.1455734e-05 -6.3220601e-23)
(-5.232434e-05 2.9816355e-05 -2.9387359e-39)
(-5.2723083e-05 2.8460518e-05 3.2031533e-23)
(-5.3545098e-05 2.7354744e-05 3.2009526e-23)
(-5.4490465e-05 2.6470397e-05 -1.598411e-23)
(-5.6089977e-05 2.5705852e-05 1.5915011e-23)
(-5.7285302e-05 2.5186938e-05 -7.3468397e-40)
(-5.8347385e-05 2.4401987e-05 6.337019e-23)
(-5.9679109e-05 2.381274e-05 -6.3139467e-23)
(-6.1044018e-05 2.3180996e-05 -1.4693679e-39)
(-6.2841841e-05 2.2587194e-05 6.2419893e-23)
(-6.4116149e-05 2.1978149e-05 6.2227304e-23)
(-6.5559749e-05 2.1144728e-05 -2.2040519e-39)
(-6.6612498e-05 2.0401556e-05 -1.9237782e-24)
(-6.7785052e-05 1.9382239e-05 1.9070151e-24)
(-6.895327e-05 1.8507101e-05 1.1479437e-41)
(-6.9661963e-05 1.7363266e-05 0)
(-7.0467979e-05 1.6222437e-05 6.0761772e-23)
(-7.0702316e-05 1.4969188e-05 -1.2058505e-22)
(-7.1775867e-05 1.3611351e-05 5.9566144e-23)
(-7.2071545e-05 1.2377809e-05 1.8367099e-40)
(-7.1576612e-05 1.0691909e-05 9.2935115e-25)
(-7.089919e-05 9.2221342e-06 -6.0133098e-23)
(-6.9192504e-05 7.5333829e-06 -1.8367099e-40)
(-6.8321776e-05 5.9867074e-06 2.9731346e-23)
(-6.6322162e-05 4.7021051e-06 -1.4877515e-23)
(-6.3501359e-05 3.040054e-06 -1.9773447e-24)
(-6.074905e-05 1.7286122e-06 2.3265464e-25)
(-5.7522009e-05 5.2907986e-07 9.3920963e-25)
(-5.4617841e-05 -3.4749308e-07 9.477285e-25)
)
;
    }
    Outlet
    {
        type            calculated;
        value           uniform (0 0 0);
    }
    Ground
    {
        type            calculated;
        value           uniform (0 0 0);
    }
}


// ************************************************************************* //
