/*--------------------------------*- C++ -*----------------------------------*\
| =========                 |                                                 |
| \\      /  F ield         | OpenFOAM: The Open Source CFD Toolbox           |
|  \\    /   O peration     | Version:  v2006                                 |
|   \\  /    A nd           | Website:  www.openfoam.com                      |
|    \\/     M anipulation  |                                                 |
\*---------------------------------------------------------------------------*/
FoamFile
{
    version     2.0;
    format      ascii;
    class       volScalarField;
    location    "5000";
    object      yPlus;
}
// * * * * * * * * * * * * * * * * * * * * * * * * * * * * * * * * * * * * * //

dimensions      [0 0 0 0 0 0 0];


internalField   uniform 0;

boundaryField
{
    Side
    {
        type            empty;
    }
    Inlet
    {
        type            calculated;
        value           uniform 0;
    }
    Wing
    {
        type            calculated;
        value           nonuniform List<scalar> 
139
(
88.864495
86.737913
79.338915
73.516925
67.82356
63.226672
56.842957
52.135242
46.239375
39.422451
34.35513
30.612112
26.827776
23.996141
23.31286
24.221837
26.221351
29.715049
34.598081
39.967871
45.47954
50.702741
56.23487
61.777059
67.218354
71.882331
75.955664
79.898072
84.223267
87.307124
89.731015
91.827743
96.367748
101.74676
103.9434
104.01658
107.15841
110.07537
110.31347
114.10449
121.07346
124.42411
125.09944
129.14448
127.91167
129.2433
127.04509
124.02708
120.51464
60.986678
56.30469
55.916309
60.086702
65.916324
70.026934
72.530477
74.463599
75.937699
77.184265
78.227406
79.014879
79.784945
80.4732
80.938847
81.147152
81.32068
81.712231
82.282153
83.025519
83.836678
84.415394
84.639627
84.360092
84.111359
83.862148
83.378437
82.964117
82.529136
82.458558
82.682511
83.550279
85.320995
88.055514
110.40879
108.39208
106.81852
105.41388
104.08678
102.69171
101.00727
99.266402
97.749677
96.457799
95.264915
94.086601
92.674144
91.073755
89.531581
88.062112
86.257976
84.317236
82.478292
80.31016
77.728498
74.795853
70.831984
68.664379
53.434579
117.74102
115.5945
114.49556
113.74917
113.46482
113.69949
114.29828
115.59526
115.96386
117.01801
118.05854
119.47113
121.00072
122.02638
123.45813
124.27368
125.73073
126.47151
127.35867
127.8229
128.667
129.52628
129.08314
128.75914
127.28044
126.48854
124.83861
122.07177
119.24703
115.88131
112.81635
)
;
    }
    Outlet
    {
        type            calculated;
        value           uniform 0;
    }
    Ground
    {
        type            calculated;
        value           nonuniform List<scalar> 
154
(
81.658006
84.69991
87.775831
90.734169
93.577591
96.326454
98.98064
101.53913
104.0037
106.37683
108.65741
110.8535
112.95128
114.98756
116.8847
118.80484
120.46061
122.29388
124.00997
125.70439
127.30357
129.05251
130.61534
132.13911
133.62073
135.04102
136.41158
137.73926
139.02704
140.27819
141.49579
142.68247
143.84052
144.97206
146.07898
147.16306
148.22591
149.26906
150.2939
151.30176
152.29386
153.27137
154.23536
155.18685
156.1268
157.05612
157.97564
158.88617
159.78847
160.68326
161.57123
162.45301
163.32923
164.20046
165.06727
165.93018
166.78969
167.6463
168.50045
169.35258
170.20311
171.05243
171.90086
172.74874
173.59627
174.44366
175.29074
176.1377
176.98288
177.8284
178.66161
179.51691
180.25369
181.38777
57.247482
54.11341
51.468142
49.258312
47.531274
46.344982
45.72977
45.680341
46.161469
47.119974
48.488246
50.193508
52.165435
54.340516
56.66409
59.090679
61.583342
64.112364
66.654605
69.190365
71.708899
74.18547
76.653745
78.967688
130.8157
130.02638
129.12959
128.10377
126.95511
125.66905
124.22624
122.6095
120.8007
118.78173
116.53837
114.05368
111.34292
108.36504
105.12603
101.62375
97.864613
93.860336
89.621713
85.183837
80.550222
75.750145
70.815523
65.74669
60.705675
475.54573
400.96022
342.20406
305.93935
277.79535
253.82554
234.37219
218.79974
206.03606
195.19009
186.10536
178.37423
171.74401
166.03243
161.10031
156.81168
153.07627
149.81443
146.95745
144.45725
142.25688
140.34043
138.66012
137.20865
135.95346
134.86312
133.94128
133.16885
132.55189
132.0123
131.66756
)
;
    }
}


// ************************************************************************* //
