/*--------------------------------*- C++ -*----------------------------------*\
| =========                 |                                                 |
| \\      /  F ield         | OpenFOAM: The Open Source CFD Toolbox           |
|  \\    /   O peration     | Version:  v2006                                 |
|   \\  /    A nd           | Website:  www.openfoam.com                      |
|    \\/     M anipulation  |                                                 |
\*---------------------------------------------------------------------------*/
FoamFile
{
    version     2.0;
    format      ascii;
    class       volScalarField;
    location    "8000";
    object      alphat;
}
// * * * * * * * * * * * * * * * * * * * * * * * * * * * * * * * * * * * * * //

dimensions      [1 -1 -1 0 0 0 0];


internalField   nonuniform List<scalar> 
55713
(
2.7454335e-10
2.8786959e-09
2.8916321e-08
6.9339206e-08
8.9621286e-08
9.5670739e-08
9.5901675e-08
9.5050269e-08
9.448843e-08
9.4282889e-08
9.4249487e-08
9.4261233e-08
9.4272551e-08
9.4276726e-08
9.4277206e-08
9.4277188e-08
9.4276987e-08
9.4276566e-08
9.4277261e-08
9.4279081e-08
9.428061e-08
9.4280852e-08
9.4280097e-08
9.4279183e-08
9.4278417e-08
9.4277979e-08
9.4277941e-08
9.4277843e-08
9.4277735e-08
9.427752e-08
9.4277324e-08
9.4277061e-08
9.4276841e-08
9.427664e-08
9.4276706e-08
9.4277359e-08
9.4277948e-08
9.4277636e-08
9.4276846e-08
9.4275736e-08
9.4274679e-08
9.4273712e-08
9.4272759e-08
9.427168e-08
9.4270644e-08
9.4269626e-08
9.4268657e-08
9.4267684e-08
9.4266742e-08
9.4265729e-08
9.4264704e-08
9.4263614e-08
9.4262515e-08
9.4261381e-08
9.4260287e-08
9.4259177e-08
9.4258094e-08
9.4256926e-08
9.4255671e-08
3.3410555e-10
4.1765447e-09
3.5947732e-08
7.6187481e-08
9.3059067e-08
9.6975223e-08
9.6595555e-08
9.5765898e-08
9.533504e-08
9.5209801e-08
9.5203307e-08
9.5217044e-08
9.5224855e-08
9.5226408e-08
9.5225774e-08
9.5225365e-08
9.5224708e-08
9.5223859e-08
9.5224412e-08
9.5226263e-08
9.5227404e-08
9.5226768e-08
9.5225569e-08
9.5224319e-08
9.5223211e-08
9.5222532e-08
9.5222142e-08
9.5221715e-08
9.5221247e-08
9.5220714e-08
9.5220169e-08
9.5219586e-08
9.5219004e-08
9.5218448e-08
9.5218099e-08
9.5218422e-08
9.5218958e-08
9.5218364e-08
9.5217228e-08
9.5215733e-08
9.5214235e-08
9.5212888e-08
9.5211564e-08
9.5210108e-08
9.5208641e-08
9.5207208e-08
9.5205793e-08
9.5204386e-08
9.5202984e-08
9.52015e-08
9.519996e-08
9.5198341e-08
9.5196654e-08
9.5194896e-08
9.5193121e-08
9.5191291e-08
9.5189405e-08
9.5187369e-08
9.5185141e-08
4.1898944e-10
5.8743314e-09
4.3441587e-08
8.230146e-08
9.5733552e-08
9.8040466e-08
9.7316353e-08
9.6573574e-08
9.6263748e-08
9.6198135e-08
9.6206406e-08
9.6218777e-08
9.6222904e-08
9.6222195e-08
9.6221037e-08
9.6220281e-08
9.6219181e-08
9.6218101e-08
9.6218645e-08
9.6220264e-08
9.6220632e-08
9.621945e-08
9.6217861e-08
9.6216265e-08
9.6214865e-08
9.6213953e-08
9.6213241e-08
9.6212488e-08
9.6211685e-08
9.6210836e-08
9.6209977e-08
9.6209077e-08
9.6208175e-08
9.6207273e-08
9.6206541e-08
9.6206491e-08
9.6206991e-08
9.6206197e-08
9.620476e-08
9.6202891e-08
9.6200979e-08
9.6199257e-08
9.6197613e-08
9.6195802e-08
9.6193932e-08
9.6192095e-08
9.6190275e-08
9.6188463e-08
9.618665e-08
9.6184735e-08
9.6182737e-08
9.618064e-08
9.6178429e-08
9.6176102e-08
9.6173713e-08
9.6171233e-08
9.6168631e-08
9.6165814e-08
9.6162696e-08
5.4146828e-10
8.1945269e-09
5.1585359e-08
8.7810375e-08
9.796668e-08
9.8988633e-08
9.8090854e-08
9.7478781e-08
9.7277649e-08
9.7253521e-08
9.7267539e-08
9.727599e-08
9.7276587e-08
9.72749e-08
9.7273436e-08
9.7272273e-08
9.7270705e-08
9.7269481e-08
9.7270121e-08
9.7271398e-08
9.7271052e-08
9.7269345e-08
9.7267379e-08
9.7265472e-08
9.7263833e-08
9.7262706e-08
9.7261685e-08
9.7260639e-08
9.7259526e-08
9.7258401e-08
9.7257247e-08
9.7256063e-08
9.7254859e-08
9.7253649e-08
9.7252552e-08
9.7252113e-08
9.7252561e-08
9.7251704e-08
9.7249995e-08
9.7247786e-08
9.7245469e-08
9.7243392e-08
9.7241474e-08
9.7239364e-08
9.7237116e-08
9.7234896e-08
9.7232696e-08
9.7230518e-08
9.7228334e-08
9.7226037e-08
9.7223631e-08
9.7221112e-08
9.7218429e-08
9.7215586e-08
9.7212634e-08
9.7209566e-08
9.7206309e-08
9.7202786e-08
9.7198851e-08
7.1904279e-10
1.1285205e-08
6.0083373e-08
9.2560171e-08
9.9794954e-08
9.9876008e-08
9.8952519e-08
9.84904e-08
9.8375857e-08
9.8376325e-08
9.8389502e-08
9.839308e-08
9.839173e-08
9.8389633e-08
9.8387865e-08
9.8386247e-08
9.83842e-08
9.8382956e-08
9.8383738e-08
9.8384606e-08
9.8383514e-08
9.8381359e-08
9.8379045e-08
9.8376874e-08
9.8375054e-08
9.8373716e-08
9.8372413e-08
9.8371103e-08
9.836972e-08
9.8368343e-08
9.8366925e-08
9.8365485e-08
9.8364021e-08
9.8362541e-08
9.8361125e-08
9.8360283e-08
9.8360614e-08
9.8359889e-08
9.8357927e-08
9.8355418e-08
9.835271e-08
9.8350293e-08
9.834815e-08
9.8345812e-08
9.8343224e-08
9.8340653e-08
9.8338115e-08
9.8335619e-08
9.8333122e-08
9.8330509e-08
9.832776e-08
9.8324888e-08
9.8321807e-08
9.831852e-08
9.8315076e-08
9.8311505e-08
9.8307682e-08
9.8303557e-08
9.8298907e-08
9.7882369e-10
1.5340986e-08
6.8660286e-08
9.6141763e-08
1.0132064e-07
1.0076548e-07
9.9925875e-08
9.961105e-08
9.9558127e-08
9.9569709e-08
9.9577932e-08
9.9578164e-08
9.95758e-08
9.9573526e-08
9.9571459e-08
9.9569359e-08
9.95668e-08
9.9565682e-08
9.9566649e-08
9.9567029e-08
9.9565232e-08
9.9562684e-08
9.9560054e-08
9.9557688e-08
9.9555742e-08
9.9554218e-08
9.9552652e-08
9.9551122e-08
9.9549493e-08
9.9547918e-08
9.9546263e-08
9.954462e-08
9.9542925e-08
9.9541228e-08
9.9539538e-08
9.9538325e-08
9.9538417e-08
9.9538042e-08
9.9535862e-08
9.9533106e-08
9.9530025e-08
9.9527284e-08
9.952497e-08
9.9522499e-08
9.9519629e-08
9.9516751e-08
9.951392e-08
9.9511161e-08
9.9508418e-08
9.9505562e-08
9.9502543e-08
9.9499398e-08
9.9496007e-08
9.9492364e-08
9.9488512e-08
9.9484534e-08
9.9480251e-08
9.9475644e-08
9.9470401e-08
1.363332e-09
2.0574559e-08
7.6916418e-08
9.9023513e-08
1.0256204e-07
1.0169716e-07
1.0102926e-07
1.0084104e-07
1.0082615e-07
1.0083823e-07
1.0084158e-07
1.0083966e-07
1.0083692e-07
1.0083458e-07
1.0083227e-07
1.0082962e-07
1.0082656e-07
1.0082572e-07
1.0082692e-07
1.0082668e-07
1.0082431e-07
1.0082139e-07
1.0081853e-07
1.0081602e-07
1.0081401e-07
1.008123e-07
1.0081054e-07
1.0080882e-07
1.0080701e-07
1.0080526e-07
1.0080343e-07
1.0080162e-07
1.0079976e-07
1.0079789e-07
1.00796e-07
1.0079447e-07
1.0079425e-07
1.0079429e-07
1.0079205e-07
1.0078909e-07
1.0078567e-07
1.0078261e-07
1.007802e-07
1.0077771e-07
1.0077464e-07
1.0077151e-07
1.0076845e-07
1.0076549e-07
1.0076259e-07
1.0075958e-07
1.0075638e-07
1.0075306e-07
1.0074946e-07
1.0074558e-07
1.0074142e-07
1.0073716e-07
1.0073254e-07
1.007276e-07
1.0072191e-07
1.9452634e-09
2.7210973e-08
8.5016646e-08
1.0204567e-07
1.0365825e-07
1.0274157e-07
1.0227483e-07
1.0217879e-07
1.0218372e-07
1.0219102e-07
1.0219047e-07
1.0218741e-07
1.0218467e-07
1.0218235e-07
1.0217982e-07
1.0217661e-07
1.0217304e-07
1.0217275e-07
1.0217413e-07
1.0217318e-07
1.0217035e-07
1.021671e-07
1.021641e-07
1.0216156e-07
1.021595e-07
1.0215767e-07
1.0215574e-07
1.021539e-07
1.0215195e-07
1.021501e-07
1.0214814e-07
1.0214623e-07
1.0214425e-07
1.0214228e-07
1.0214027e-07
1.021385e-07
1.0213796e-07
1.0213838e-07
1.0213635e-07
1.0213322e-07
1.0212948e-07
1.0212613e-07
1.0212367e-07
1.0212132e-07
1.0211815e-07
1.0211486e-07
1.0211166e-07
1.0210858e-07
1.0210562e-07
1.0210256e-07
1.0209929e-07
1.020959e-07
1.0209222e-07
1.0208824e-07
1.0208389e-07
1.020795e-07
1.020747e-07
1.0206961e-07
1.0206366e-07
2.8711875e-09
3.5462472e-08
9.2221214e-08
1.0433862e-07
1.0476745e-07
1.0396107e-07
1.0366504e-07
1.0362762e-07
1.036369e-07
1.0363922e-07
1.0363637e-07
1.0363298e-07
1.036304e-07
1.0362812e-07
1.0362542e-07
1.0362169e-07
1.0361777e-07
1.0361831e-07
1.0361966e-07
1.0361795e-07
1.036147e-07
1.0361125e-07
1.0360824e-07
1.0360579e-07
1.0360374e-07
1.0360183e-07
1.0359982e-07
1.0359793e-07
1.035959e-07
1.0359402e-07
1.0359198e-07
1.0359006e-07
1.0358803e-07
1.0358604e-07
1.0358398e-07
1.035821e-07
1.0358127e-07
1.0358192e-07
1.0358049e-07
1.0357722e-07
1.0357319e-07
1.0356961e-07
1.0356714e-07
1.0356511e-07
1.0356198e-07
1.0355861e-07
1.0355539e-07
1.0355229e-07
1.0354941e-07
1.0354644e-07
1.0354322e-07
1.0353989e-07
1.0353628e-07
1.0353238e-07
1.03528e-07
1.0352366e-07
1.0351888e-07
1.0351385e-07
1.0350786e-07
4.4762293e-09
4.548151e-08
9.8586587e-08
1.0633334e-07
1.0599355e-07
1.0535998e-07
1.0519739e-07
1.0519247e-07
1.0519886e-07
1.0519711e-07
1.0519308e-07
1.0518979e-07
1.0518747e-07
1.0518517e-07
1.0518239e-07
1.0517835e-07
1.0517441e-07
1.0517602e-07
1.0517689e-07
1.0517446e-07
1.0517086e-07
1.0516743e-07
1.0516459e-07
1.0516237e-07
1.0516034e-07
1.0515845e-07
1.0515643e-07
1.0515457e-07
1.0515255e-07
1.0515073e-07
1.051487e-07
1.0514686e-07
1.0514485e-07
1.0514295e-07
1.0514093e-07
1.0513908e-07
1.0513803e-07
1.0513877e-07
1.0513838e-07
1.0513507e-07
1.0513072e-07
1.0512704e-07
1.0512465e-07
1.0512306e-07
1.0512018e-07
1.0511685e-07
1.051138e-07
1.0511076e-07
1.0510811e-07
1.0510538e-07
1.0510238e-07
1.0509929e-07
1.0509592e-07
1.0509233e-07
1.0508812e-07
1.0508403e-07
1.0507953e-07
1.0507482e-07
1.0506909e-07
7.1856125e-09
5.7291311e-08
1.0383517e-07
1.0810327e-07
1.0738193e-07
1.0694862e-07
1.0687655e-07
1.0688391e-07
1.0688484e-07
1.068808e-07
1.0687642e-07
1.0687346e-07
1.0687142e-07
1.0686895e-07
1.0686638e-07
1.0686253e-07
1.0685907e-07
1.0686164e-07
1.0686158e-07
1.068585e-07
1.0685475e-07
1.0685164e-07
1.0684919e-07
1.0684723e-07
1.0684533e-07
1.0684353e-07
1.0684164e-07
1.068399e-07
1.0683802e-07
1.0683633e-07
1.0683445e-07
1.0683278e-07
1.0683091e-07
1.0682922e-07
1.0682735e-07
1.0682567e-07
1.0682456e-07
1.0682539e-07
1.0682611e-07
1.0682322e-07
1.0681847e-07
1.0681482e-07
1.0681269e-07
1.0681157e-07
1.0680928e-07
1.0680609e-07
1.0680347e-07
1.0680058e-07
1.0679838e-07
1.0679606e-07
1.0679348e-07
1.0679082e-07
1.0678791e-07
1.0678489e-07
1.0678113e-07
1.0677755e-07
1.0677364e-07
1.0676955e-07
1.0676445e-07
1.1051641e-08
7.08226e-08
1.0728958e-07
1.097056e-07
1.0897479e-07
1.0873126e-07
1.0870917e-07
1.087162e-07
1.0871315e-07
1.0870864e-07
1.0870428e-07
1.0870191e-07
1.0870014e-07
1.0869749e-07
1.0869544e-07
1.0869254e-07
1.0868994e-07
1.0869314e-07
1.0869209e-07
1.0868842e-07
1.0868485e-07
1.0868237e-07
1.0868046e-07
1.0867881e-07
1.0867714e-07
1.0867559e-07
1.0867394e-07
1.0867246e-07
1.0867085e-07
1.0866944e-07
1.0866784e-07
1.0866648e-07
1.086649e-07
1.0866356e-07
1.0866198e-07
1.0866064e-07
1.0865957e-07
1.0866055e-07
1.0866238e-07
1.0866086e-07
1.0865545e-07
1.0865187e-07
1.0865029e-07
1.0864959e-07
1.0864838e-07
1.0864537e-07
1.0864354e-07
1.0864087e-07
1.0863939e-07
1.0863773e-07
1.0863578e-07
1.0863379e-07
1.086316e-07
1.0862941e-07
1.0862649e-07
1.0862368e-07
1.0862076e-07
1.0861762e-07
1.0861358e-07
1.6821212e-08
8.601269e-08
1.0960028e-07
1.1121106e-07
1.1079369e-07
1.1070473e-07
1.1070255e-07
1.1070465e-07
1.1070071e-07
1.1069727e-07
1.1069313e-07
1.1069184e-07
1.1069058e-07
1.1068781e-07
1.1068629e-07
1.1068493e-07
1.106835e-07
1.106871e-07
1.1068534e-07
1.106813e-07
1.106784e-07
1.1067667e-07
1.106753e-07
1.1067406e-07
1.1067279e-07
1.1067164e-07
1.1067044e-07
1.1066937e-07
1.1066822e-07
1.1066723e-07
1.1066611e-07
1.106652e-07
1.1066412e-07
1.1066325e-07
1.106622e-07
1.1066134e-07
1.1066056e-07
1.1066151e-07
1.1066436e-07
1.1066526e-07
1.1065908e-07
1.1065576e-07
1.1065505e-07
1.1065478e-07
1.1065489e-07
1.1065221e-07
1.1065162e-07
1.1064926e-07
1.1064885e-07
1.1064795e-07
1.106469e-07
1.1064582e-07
1.1064466e-07
1.1064357e-07
1.1064191e-07
1.1064014e-07
1.1063862e-07
1.106368e-07
1.1063431e-07
2.4878247e-08
1.0253519e-07
1.127712e-07
1.1294242e-07
1.1284885e-07
1.1284362e-07
1.1284453e-07
1.1284321e-07
1.1284081e-07
1.1283985e-07
1.1283604e-07
1.1283649e-07
1.1283653e-07
1.12834e-07
1.1283254e-07
1.1283312e-07
1.1283396e-07
1.1283725e-07
1.128345e-07
1.1283079e-07
1.1282927e-07
1.1282848e-07
1.128278e-07
1.128272e-07
1.1282658e-07
1.1282605e-07
1.1282551e-07
1.1282505e-07
1.1282457e-07
1.1282419e-07
1.1282375e-07
1.1282346e-07
1.1282307e-07
1.1282284e-07
1.128225e-07
1.1282232e-07
1.1282205e-07
1.128223e-07
1.1282557e-07
1.128279e-07
1.1282293e-07
1.1282125e-07
1.1282096e-07
1.128214e-07
1.1282168e-07
1.1282069e-07
1.1282135e-07
1.1282024e-07
1.1282081e-07
1.1282089e-07
1.1282085e-07
1.1282089e-07
1.1282091e-07
1.1282109e-07
1.1282098e-07
1.1282063e-07
1.1282076e-07
1.1282051e-07
1.1282007e-07
8.5590437e-08
8.5589291e-08
8.5588495e-08
8.5589703e-08
8.5590451e-08
8.55914e-08
8.55923e-08
8.5593241e-08
8.5594182e-08
8.5595138e-08
8.5596082e-08
8.5597028e-08
8.5597971e-08
8.5598937e-08
8.5599934e-08
8.5600976e-08
8.5602054e-08
8.5603132e-08
8.5604139e-08
8.5605017e-08
8.5605748e-08
8.5606341e-08
8.5606784e-08
8.5607054e-08
8.5607157e-08
8.5607153e-08
8.5607113e-08
8.5607093e-08
8.5607099e-08
8.5607107e-08
8.5607095e-08
8.5607097e-08
8.5607197e-08
8.5607434e-08
8.5607681e-08
8.5607691e-08
8.5607297e-08
8.5606607e-08
8.5605928e-08
8.5605367e-08
8.5604252e-08
8.5600845e-08
8.5593466e-08
8.5585313e-08
8.559464e-08
8.5665989e-08
8.586573e-08
8.62321e-08
8.6649138e-08
8.6639639e-08
8.5127287e-08
8.0293337e-08
6.946822e-08
5.0766225e-08
2.711713e-08
8.6729331e-09
1.5856056e-09
4.0930945e-10
5.3362693e-10
8.588066e-08
8.5879717e-08
8.5879724e-08
8.5880762e-08
8.5881611e-08
8.588254e-08
8.5883453e-08
8.5884396e-08
8.5885337e-08
8.5886291e-08
8.588723e-08
8.5888172e-08
8.5889111e-08
8.5890073e-08
8.5891066e-08
8.5892103e-08
8.5893171e-08
8.5894238e-08
8.5895231e-08
8.5896096e-08
8.5896819e-08
8.5897411e-08
8.5897854e-08
8.5898122e-08
8.5898216e-08
8.58982e-08
8.5898152e-08
8.5898129e-08
8.5898132e-08
8.5898138e-08
8.5898124e-08
8.5898128e-08
8.5898232e-08
8.589847e-08
8.589871e-08
8.5898711e-08
8.5898314e-08
8.5897623e-08
8.5896909e-08
8.5896231e-08
8.5894916e-08
8.5891416e-08
8.5884497e-08
8.5877558e-08
8.5887587e-08
8.5955427e-08
8.6143178e-08
8.6491862e-08
8.6908117e-08
8.696717e-08
8.5665413e-08
8.1214228e-08
7.1082247e-08
5.2979062e-08
2.915428e-08
9.6618976e-09
1.7413085e-09
3.8468699e-10
4.7946754e-10
8.6199897e-08
8.619915e-08
8.6199452e-08
8.6200443e-08
8.6201331e-08
8.6202265e-08
8.6203189e-08
8.6204142e-08
8.6205088e-08
8.6206045e-08
8.6206986e-08
8.6207927e-08
8.6208863e-08
8.6209821e-08
8.6210807e-08
8.6211837e-08
8.6212897e-08
8.6213956e-08
8.6214942e-08
8.6215804e-08
8.6216526e-08
8.6217123e-08
8.6217571e-08
8.6217837e-08
8.621792e-08
8.621789e-08
8.6217831e-08
8.6217804e-08
8.6217805e-08
8.6217811e-08
8.6217794e-08
8.621779e-08
8.621788e-08
8.6218118e-08
8.6218382e-08
8.6218422e-08
8.6218046e-08
8.6217328e-08
8.6216567e-08
8.6215947e-08
8.6214994e-08
8.6212262e-08
8.6205992e-08
8.6197497e-08
8.6199412e-08
8.6247382e-08
8.6403488e-08
8.6725691e-08
8.7168324e-08
8.7390349e-08
8.6492807e-08
8.2772885e-08
7.3666931e-08
5.6422664e-08
3.2300194e-08
1.1190318e-08
1.9893288e-09
3.7241868e-10
4.2661323e-10
8.6551685e-08
8.6551191e-08
8.6551783e-08
8.6552735e-08
8.6553654e-08
8.6554593e-08
8.6555524e-08
8.6556483e-08
8.655743e-08
8.6558387e-08
8.6559324e-08
8.6560261e-08
8.656119e-08
8.6562142e-08
8.6563119e-08
8.656414e-08
8.6565189e-08
8.6566239e-08
8.6567214e-08
8.6568067e-08
8.6568786e-08
8.6569387e-08
8.6569836e-08
8.6570097e-08
8.6570164e-08
8.6570115e-08
8.6570043e-08
8.6570013e-08
8.6570013e-08
8.657002e-08
8.657e-08
8.6569989e-08
8.6570068e-08
8.6570305e-08
8.6570588e-08
8.6570664e-08
8.6570313e-08
8.6569581e-08
8.6568765e-08
8.6568115e-08
8.6567317e-08
8.6565122e-08
8.6559709e-08
8.6551223e-08
8.6548861e-08
8.6582597e-08
8.6710675e-08
8.6999818e-08
8.7441861e-08
8.7773824e-08
8.7205351e-08
8.4133437e-08
7.6024307e-08
5.9764139e-08
3.5602079e-08
1.2924345e-08
2.3140633e-09
3.6957852e-10
3.8231868e-10
8.693999e-08
8.6939798e-08
8.6940568e-08
8.6941509e-08
8.6942442e-08
8.6943389e-08
8.6944325e-08
8.6945286e-08
8.6946232e-08
8.6947187e-08
8.6948118e-08
8.6949048e-08
8.6949967e-08
8.695091e-08
8.6951875e-08
8.6952886e-08
8.6953923e-08
8.6954963e-08
8.6955924e-08
8.6956769e-08
8.6957484e-08
8.6958089e-08
8.6958538e-08
8.6958792e-08
8.6958836e-08
8.6958766e-08
8.6958679e-08
8.6958648e-08
8.6958647e-08
8.6958656e-08
8.6958632e-08
8.6958614e-08
8.6958679e-08
8.6958915e-08
8.6959217e-08
8.6959338e-08
8.6959021e-08
8.6958283e-08
8.6957411e-08
8.6956727e-08
8.6956072e-08
8.6954408e-08
8.6949889e-08
8.6941646e-08
8.6935583e-08
8.6955794e-08
8.7055367e-08
8.7306885e-08
8.7736328e-08
8.815947e-08
8.7905678e-08
8.5490809e-08
7.8432511e-08
6.3315715e-08
3.9332997e-08
1.5014341e-08
2.7424937e-09
3.7703406e-10
3.417279e-10
8.7369537e-08
8.7369619e-08
8.7370524e-08
8.7371468e-08
8.7372406e-08
8.7373359e-08
8.7374295e-08
8.7375256e-08
8.7376197e-08
8.7377146e-08
8.7378068e-08
8.7378988e-08
8.7379896e-08
8.7380827e-08
8.7381778e-08
8.7382775e-08
8.7383798e-08
8.7384823e-08
8.7385769e-08
8.7386602e-08
8.7387314e-08
8.7387923e-08
8.738837e-08
8.738861e-08
8.7388627e-08
8.7388528e-08
8.7388427e-08
8.7388394e-08
8.7388395e-08
8.7388405e-08
8.738838e-08
8.7388354e-08
8.7388404e-08
8.7388635e-08
8.7388959e-08
8.7389129e-08
8.7388858e-08
8.7388122e-08
8.7387195e-08
8.7386451e-08
8.7385877e-08
8.738466e-08
8.7381083e-08
8.7373617e-08
8.7365343e-08
8.7374428e-08
8.7447067e-08
8.7657163e-08
8.8058219e-08
8.8540765e-08
8.8561768e-08
8.6778001e-08
8.0783603e-08
6.6975893e-08
4.3442448e-08
1.7511035e-08
3.2979325e-09
3.9763684e-10
3.0746913e-10
8.7845828e-08
8.7846172e-08
8.7847135e-08
8.7848088e-08
8.7849028e-08
8.784998e-08
8.7850914e-08
8.7851869e-08
8.7852804e-08
8.7853742e-08
8.7854652e-08
8.785556e-08
8.7856453e-08
8.7857369e-08
8.7858304e-08
8.7859284e-08
8.786029e-08
8.7861298e-08
8.7862224e-08
8.7863044e-08
8.7863752e-08
8.7864364e-08
8.7864806e-08
8.7865024e-08
8.7865005e-08
8.7864872e-08
8.7864757e-08
8.7864724e-08
8.7864728e-08
8.786474e-08
8.7864714e-08
8.786468e-08
8.7864713e-08
8.7864935e-08
8.7865282e-08
8.7865508e-08
8.7865295e-08
8.7864574e-08
8.7863598e-08
8.7862779e-08
8.7862237e-08
8.7861382e-08
8.7858706e-08
8.7852339e-08
8.7843067e-08
8.7843416e-08
8.7891526e-08
8.8058484e-08
8.8418059e-08
8.8928888e-08
8.917994e-08
8.7994538e-08
8.3010505e-08
7.0723862e-08
4.7951126e-08
2.0511988e-08
4.0272394e-09
4.3704551e-10
2.7803472e-10
8.8375391e-08
8.8375945e-08
8.8376921e-08
8.8377879e-08
8.8378814e-08
8.837976e-08
8.8380689e-08
8.8381632e-08
8.8382555e-08
8.8383479e-08
8.8384374e-08
8.8385265e-08
8.838614e-08
8.8387037e-08
8.838795e-08
8.8388909e-08
8.8389893e-08
8.8390877e-08
8.8391779e-08
8.8392582e-08
8.8393286e-08
8.8393898e-08
8.839433e-08
8.8394519e-08
8.8394452e-08
8.8394278e-08
8.8394149e-08
8.8394118e-08
8.8394124e-08
8.839414e-08
8.8394113e-08
8.8394072e-08
8.8394085e-08
8.8394296e-08
8.8394664e-08
8.8394957e-08
8.8394815e-08
8.8394126e-08
8.8393107e-08
8.8392203e-08
8.8391646e-08
8.8391058e-08
8.8389198e-08
8.838414e-08
8.8375021e-08
8.8369267e-08
8.8396283e-08
8.8520435e-08
8.8827626e-08
8.9334876e-08
8.9759852e-08
8.911752e-08
8.5224323e-08
7.4496079e-08
5.2838527e-08
2.4101451e-08
4.9871797e-09
4.9298031e-10
2.5311132e-10
8.8966011e-08
8.8966679e-08
8.896766e-08
8.8968617e-08
8.8969541e-08
8.8970476e-08
8.8971389e-08
8.8972317e-08
8.8973221e-08
8.8974125e-08
8.8974996e-08
8.8975863e-08
8.8976712e-08
8.8977583e-08
8.8978467e-08
8.8979398e-08
8.8980351e-08
8.8981306e-08
8.8982173e-08
8.8982955e-08
8.8983652e-08
8.8984262e-08
8.8984675e-08
8.8984822e-08
8.8984691e-08
8.8984468e-08
8.8984327e-08
8.8984301e-08
8.898431e-08
8.898433e-08
8.8984303e-08
8.8984257e-08
8.8984247e-08
8.898444e-08
8.8984832e-08
8.8985201e-08
8.8985149e-08
8.8984513e-08
8.8983462e-08
8.8982467e-08
8.8981858e-08
8.8981443e-08
8.8980266e-08
8.8976563e-08
8.8968519e-08
8.8959269e-08
8.8969467e-08
8.9053511e-08
8.9300935e-08
8.9775261e-08
9.0317077e-08
9.0144598e-08
8.7290682e-08
7.824086e-08
5.8067951e-08
2.8371886e-08
6.2545138e-09
5.7820884e-10
2.3265002e-10
8.962698e-08
8.9627721e-08
8.9628699e-08
8.9629644e-08
8.963055e-08
8.9631465e-08
8.9632357e-08
8.963326e-08
8.9634136e-08
8.9635011e-08
8.9635848e-08
8.963668e-08
8.9637493e-08
8.9638328e-08
8.9639173e-08
8.9640065e-08
8.964098e-08
8.9641892e-08
8.9642715e-08
8.964347e-08
8.9644157e-08
8.9644759e-08
8.9645143e-08
8.9645232e-08
8.9645018e-08
8.9644734e-08
8.9644586e-08
8.9644567e-08
8.9644581e-08
8.9644603e-08
8.9644579e-08
8.9644527e-08
8.9644497e-08
8.9644652e-08
8.9645081e-08
8.9645535e-08
8.9645595e-08
8.964504e-08
8.9643976e-08
8.9642886e-08
8.9642199e-08
8.9641872e-08
8.9641205e-08
8.9638782e-08
8.9632435e-08
8.962207e-08
8.9620267e-08
8.9669255e-08
8.985392e-08
9.0269447e-08
9.0867059e-08
9.1080553e-08
8.9203045e-08
8.1852526e-08
6.3574064e-08
3.3411607e-08
7.9408172e-09
6.9953858e-10
2.1690107e-10
9.0369653e-08
9.0370425e-08
9.0371384e-08
9.0372306e-08
9.0373184e-08
9.0374066e-08
9.0374923e-08
9.0375788e-08
9.0376622e-08
9.0377451e-08
9.0378238e-08
9.0379021e-08
9.0379782e-08
9.0380568e-08
9.038136e-08
9.03822e-08
9.0383063e-08
9.0383919e-08
9.0384684e-08
9.0385404e-08
9.0386078e-08
9.0386661e-08
9.0387002e-08
9.0387013e-08
9.0386688e-08
9.0386323e-08
9.0386184e-08
9.0386175e-08
9.0386191e-08
9.0386217e-08
9.0386196e-08
9.0386143e-08
9.0386094e-08
9.03862e-08
9.0386648e-08
9.0387215e-08
9.0387413e-08
9.0386978e-08
9.0385926e-08
9.0384742e-08
9.0383953e-08
9.0383657e-08
9.0383336e-08
9.0381962e-08
9.0377596e-08
9.0368056e-08
9.0359164e-08
9.0380154e-08
9.0504199e-08
9.0841918e-08
9.1434653e-08
9.1931301e-08
9.0935912e-08
8.5118363e-08
6.926278e-08
3.9288702e-08
1.0198843e-08
8.6884538e-10
2.0692028e-10
9.1207748e-08
9.1208526e-08
9.1209454e-08
9.1210331e-08
9.1211169e-08
9.1211996e-08
9.1212805e-08
9.1213608e-08
9.1214387e-08
9.1215145e-08
9.1215869e-08
9.1216576e-08
9.1217273e-08
9.1217985e-08
9.1218714e-08
9.121948e-08
9.122028e-08
9.1221054e-08
9.1221755e-08
9.1222428e-08
9.1223091e-08
9.1223635e-08
9.1223925e-08
9.1223826e-08
9.1223339e-08
9.1222879e-08
9.1222774e-08
9.1222775e-08
9.12228e-08
9.1222821e-08
9.1222814e-08
9.1222755e-08
9.1222699e-08
9.1222744e-08
9.1223216e-08
9.1223851e-08
9.1224268e-08
9.1223989e-08
9.1223004e-08
9.122172e-08
9.1220809e-08
9.1220497e-08
9.1220407e-08
9.1219793e-08
9.1217286e-08
9.1209897e-08
9.1198419e-08
9.119976e-08
9.127034e-08
9.1520305e-08
9.2054628e-08
9.2714242e-08
9.245792e-08
8.8357151e-08
7.4993865e-08
4.6030129e-08
1.3237219e-08
1.104492e-09
2.0586703e-10
9.2157318e-08
9.2158124e-08
9.2159025e-08
9.2159844e-08
9.2160626e-08
9.2161382e-08
9.2162129e-08
9.2162858e-08
9.2163565e-08
9.2164236e-08
9.2164878e-08
9.2165494e-08
9.2166109e-08
9.2166734e-08
9.2167386e-08
9.2168062e-08
9.216878e-08
9.2169456e-08
9.217008e-08
9.2170712e-08
9.2171361e-08
9.2171855e-08
9.2172088e-08
9.217177e-08
9.217109e-08
9.2170617e-08
9.2170522e-08
9.2170532e-08
9.2170563e-08
9.2170581e-08
9.2170594e-08
9.2170533e-08
9.2170473e-08
9.2170467e-08
9.2170941e-08
9.2171624e-08
9.217229e-08
9.2172255e-08
9.2171394e-08
9.2170023e-08
9.2168936e-08
9.216858e-08
9.2168669e-08
9.2168534e-08
9.2167448e-08
9.2162811e-08
9.2152276e-08
9.2142622e-08
9.2171117e-08
9.2333374e-08
9.2769859e-08
9.348522e-08
9.3791335e-08
9.123905e-08
8.0637143e-08
5.3596761e-08
1.7325008e-08
1.4635665e-09
2.15084e-10
9.3234844e-08
9.3235788e-08
9.3236672e-08
9.3237434e-08
9.3238165e-08
9.3238859e-08
9.3239555e-08
9.3240215e-08
9.3240853e-08
9.3241437e-08
9.3241998e-08
9.3242512e-08
9.3243042e-08
9.3243577e-08
9.3244155e-08
9.3244764e-08
9.3245407e-08
9.3245979e-08
9.3246541e-08
9.3247158e-08
9.3247817e-08
9.3248274e-08
9.3248414e-08
9.3247738e-08
9.3246921e-08
9.3246494e-08
9.3246413e-08
9.3246419e-08
9.3246459e-08
9.3246474e-08
9.3246518e-08
9.3246461e-08
9.3246422e-08
9.3246377e-08
9.3246827e-08
9.324754e-08
9.3248347e-08
9.3248783e-08
9.3248112e-08
9.3246666e-08
9.3245279e-08
9.3244792e-08
9.3245133e-08
9.3245244e-08
9.3244982e-08
9.3242953e-08
9.3235536e-08
9.3222553e-08
9.3223033e-08
9.3307586e-08
9.3621512e-08
9.4291713e-08
9.4980655e-08
9.3787356e-08
8.5941577e-08
6.1871402e-08
2.2768534e-08
2.0423914e-09
2.3428059e-10
5.8451364e-10
6.1121937e-10
6.2703666e-10
6.3778276e-10
6.4643633e-10
6.5389691e-10
6.601099e-10
6.6476955e-10
6.6761001e-10
6.6843305e-10
6.6705898e-10
6.6329533e-10
6.5691237e-10
6.4763795e-10
6.3515156e-10
6.1909934e-10
5.9910313e-10
5.7478846e-10
5.4582722e-10
5.1195209e-10
4.731465e-10
4.2975935e-10
3.8245481e-10
3.3202355e-10
2.7916382e-10
2.2521714e-10
1.7275958e-10
1.2143933e-10
7.6529251e-11
3.9955837e-11
1.3275084e-11
9.2274203e-13
3.6103701e-12
1.6986345e-11
4.402953e-11
9.1066906e-11
1.526278e-10
2.1502349e-10
2.8012518e-10
3.5001633e-10
4.2420248e-10
5.0076164e-10
5.8059031e-10
6.5807153e-10
7.3317043e-10
8.0558372e-10
8.7409209e-10
9.3731254e-10
9.950628e-10
1.0478249e-09
1.0960433e-09
1.1402117e-09
1.1804775e-09
1.2166873e-09
1.2492784e-09
1.2790024e-09
1.3062168e-09
1.3310547e-09
1.3537974e-09
1.3747422e-09
1.3939486e-09
1.4114217e-09
1.42727e-09
1.4416425e-09
1.4546811e-09
1.4665162e-09
1.4772693e-09
1.4870485e-09
1.4959505e-09
1.504057e-09
1.5114438e-09
1.5181418e-09
1.524235e-09
1.5297196e-09
4.4334507e-10
4.6680599e-10
4.8825414e-10
5.0861872e-10
5.2655897e-10
5.4172534e-10
5.5414324e-10
5.6391034e-10
5.7111629e-10
5.7584315e-10
5.7816439e-10
5.7811676e-10
5.7567422e-10
5.7073871e-10
5.6312993e-10
5.5260933e-10
5.3887693e-10
5.216123e-10
5.004954e-10
4.7522412e-10
4.456563e-10
4.1094591e-10
3.7088249e-10
3.2685007e-10
2.8018536e-10
2.321696e-10
1.8481842e-10
1.3983315e-10
9.882556e-11
6.3819279e-11
3.8013287e-11
1.7279228e-11
7.2443007e-12
1.0898145e-11
2.3615988e-11
4.8504447e-11
8.5731559e-11
1.2918228e-10
1.7650585e-10
2.2745029e-10
2.8175492e-10
3.3861189e-10
3.9848424e-10
4.5896787e-10
5.1859624e-10
5.7723654e-10
6.3423544e-10
6.8863677e-10
7.3981347e-10
7.8755828e-10
8.3188982e-10
8.729714e-10
9.1100953e-10
9.4582166e-10
9.7756238e-10
1.0065444e-09
1.033064e-09
1.057342e-09
1.0795703e-09
1.0999649e-09
1.118703e-09
1.1359075e-09
1.1516879e-09
1.1661509e-09
1.1793995e-09
1.1915323e-09
1.2026415e-09
1.2128148e-09
1.2221324e-09
1.2306688e-09
1.2384952e-09
1.2456701e-09
1.2522511e-09
1.2582588e-09
1.3345962e-09
1.1102758e-09
9.3088164e-10
7.8759038e-10
6.798381e-10
6.026665e-10
5.4959503e-10
5.1627225e-10
4.987615e-10
4.9234425e-10
4.9296955e-10
4.9707961e-10
5.0216992e-10
5.064678e-10
5.0876834e-10
5.0830654e-10
5.0460802e-10
4.9738941e-10
4.8646461e-10
4.7168441e-10
4.5297931e-10
4.3009937e-10
4.0276623e-10
3.711868e-10
3.3596211e-10
2.9789378e-10
2.5820105e-10
2.179994e-10
1.7825067e-10
1.4037813e-10
1.0673617e-10
7.8436693e-11
5.5471729e-11
3.9484858e-11
3.4131735e-11
3.7639026e-11
4.8651673e-11
6.5864403e-11
8.8368495e-11
1.1545015e-10
1.4632056e-10
1.8021031e-10
2.1670779e-10
2.5503671e-10
2.9437071e-10
3.3416855e-10
3.7393293e-10
4.1315959e-10
4.513955e-10
4.8828888e-10
5.2359475e-10
5.5717101e-10
5.8888828e-10
6.184764e-10
6.4597537e-10
6.7146784e-10
6.9508015e-10
7.1690155e-10
7.3711236e-10
7.5590273e-10
7.7336351e-10
7.8957485e-10
8.0461343e-10
8.1855296e-10
8.3146485e-10
8.4341777e-10
8.5447711e-10
8.6470557e-10
8.741617e-10
8.8290298e-10
8.9098135e-10
8.9845477e-10
9.0537157e-10
9.117572e-10
6.5300087e-09
4.6394243e-09
3.3326874e-09
2.4652989e-09
1.9022549e-09
1.525986e-09
1.2624615e-09
1.0603664e-09
9.0410968e-10
7.7043498e-10
6.7266903e-10
5.9983554e-10
5.4809837e-10
5.1367766e-10
4.9245158e-10
4.8069409e-10
4.7477818e-10
4.7189202e-10
4.6981655e-10
4.6681507e-10
4.6106195e-10
4.511701e-10
4.3713621e-10
4.1914361e-10
3.9744212e-10
3.7239999e-10
3.4452819e-10
3.1479599e-10
2.8419449e-10
2.5313856e-10
2.2216192e-10
1.9258313e-10
1.6504034e-10
1.393392e-10
1.1799494e-10
1.0276663e-10
9.12973e-11
8.8440552e-11
8.9027495e-11
9.3055276e-11
1.0000114e-10
1.0955811e-10
1.216524e-10
1.3589647e-10
1.5187994e-10
1.6921785e-10
1.8754922e-10
2.0654268e-10
2.2589823e-10
2.4535037e-10
2.6467239e-10
2.8367684e-10
3.0220894e-10
3.2013043e-10
3.3734112e-10
3.5377234e-10
3.6938272e-10
3.8415244e-10
3.9808384e-10
4.1119408e-10
4.2350609e-10
4.3504821e-10
4.4585192e-10
4.5595029e-10
4.6537742e-10
4.7416774e-10
4.8235566e-10
4.899752e-10
4.9705959e-10
5.0364108e-10
5.097519e-10
5.1541284e-10
5.2065759e-10
5.2550199e-10
2.1890439e-08
1.6410876e-08
1.2034622e-08
8.7194143e-09
6.3066347e-09
4.5963345e-09
3.4209366e-09
2.6210515e-09
2.0514317e-09
1.6566265e-09
1.3741409e-09
1.1642568e-09
9.9986955e-10
8.6838315e-10
7.5486483e-10
6.6881904e-10
6.0194017e-10
5.5181341e-10
5.1553761e-10
4.9050119e-10
4.7596809e-10
4.6772227e-10
4.6244502e-10
4.5666653e-10
4.4830675e-10
4.3708082e-10
4.2309707e-10
4.0665419e-10
3.8823825e-10
3.6828176e-10
3.4701254e-10
3.2494348e-10
3.023717e-10
2.7996981e-10
2.582539e-10
2.3782229e-10
2.1878057e-10
2.0296924e-10
1.9026281e-10
1.8086773e-10
1.7277654e-10
1.6827819e-10
1.6551057e-10
1.6416445e-10
1.6410452e-10
1.6517509e-10
1.6723582e-10
1.7014208e-10
1.7375022e-10
1.7792334e-10
1.825354e-10
1.8747228e-10
1.9263216e-10
1.9792565e-10
2.0327598e-10
2.0861779e-10
2.1389655e-10
2.1906855e-10
2.241e-10
2.2896473e-10
2.3364306e-10
2.3812155e-10
2.4239183e-10
2.464494e-10
2.5029294e-10
2.5392383e-10
2.5734536e-10
2.6056249e-10
2.635813e-10
2.6640907e-10
2.6905345e-10
2.7152229e-10
2.7382662e-10
2.75963e-10
4.3981486e-08
3.5876737e-08
2.8408982e-08
2.1963224e-08
1.6657715e-08
1.2459939e-08
9.2552662e-09
6.8895913e-09
5.1531088e-09
3.9050688e-09
3.0131125e-09
2.3793915e-09
1.9282568e-09
1.5908527e-09
1.3425163e-09
1.1545314e-09
1.0088497e-09
8.8911619e-10
7.9033616e-10
7.0417504e-10
6.3700494e-10
5.8340155e-10
5.4408962e-10
5.1749837e-10
4.9991817e-10
4.8809852e-10
4.7991243e-10
4.7199439e-10
4.6310197e-10
4.5305076e-10
4.4190181e-10
4.2977315e-10
4.1695185e-10
4.0353121e-10
3.8974654e-10
3.7576241e-10
3.6207619e-10
3.4766986e-10
3.3396464e-10
3.2208817e-10
3.1161338e-10
3.0246237e-10
2.9451574e-10
2.8810444e-10
2.8254168e-10
2.7756853e-10
2.7329291e-10
2.6967983e-10
2.6666172e-10
2.6416777e-10
2.6213426e-10
2.6051058e-10
2.5922732e-10
2.5822899e-10
2.5746781e-10
2.5690399e-10
2.5650438e-10
2.5624082e-10
2.5608922e-10
2.560291e-10
2.5604292e-10
2.561156e-10
2.5623424e-10
2.5638773e-10
2.5656679e-10
2.5676359e-10
2.5697167e-10
2.571857e-10
2.5740133e-10
2.5761514e-10
2.5782414e-10
2.5802603e-10
2.5821898e-10
2.5840174e-10
6.367316e-08