/*--------------------------------*- C++ -*----------------------------------*\
| =========                 |                                                 |
| \\      /  F ield         | OpenFOAM: The Open Source CFD Toolbox           |
|  \\    /   O peration     | Version:  v2006                                 |
|   \\  /    A nd           | Website:  www.openfoam.com                      |
|    \\/     M anipulation  |                                                 |
\*---------------------------------------------------------------------------*/
FoamFile
{
    version     2.0;
    format      ascii;
    class       volScalarField;
    location    "8000";
    object      Cp;
}
// * * * * * * * * * * * * * * * * * * * * * * * * * * * * * * * * * * * * * //

dimensions      [0 0 0 0 0 0 0];


internalField   nonuniform List<scalar> 
55713
(
0.0055660205
0.005566601
0.0055665234
0.0055669004
0.0055668522
0.0055669469
0.0055668521
0.0055667401
0.005566662
0.0055666282
0.0055665993
0.0055665643
0.0055665522
0.0055665719
0.0055666009
0.0055666455
0.0055666917
0.0055667391
0.0055667716
0.0055667813
0.0055667571
0.0055667108
0.0055666508
0.0055665814
0.005566512
0.005566455
0.0055664133
0.0055663784
0.0055663463
0.005566319
0.0055662904
0.0055662506
0.0055661952
0.0055661239
0.0055660333
0.0055659115
0.0055657666
0.0055656188
0.0055654906
0.0055653917
0.0055653071
0.0055652218
0.005565134
0.0055650388
0.00556493
0.0055648054
0.005564657
0.0055644774
0.0055642762
0.0055640623
0.0055638452
0.0055636213
0.0055633972
0.0055631636
0.0055629266
0.0055626797
0.0055624238
0.0055621818
0.0055617969
0.0052030763
0.0052041665
0.0052041566
0.0052048654
0.0052049626
0.0052054123
0.0052056526
0.0052059795
0.0052061991
0.0052063664
0.0052064383
0.0052064341
0.0052063738
0.0052063601
0.0052064152
0.0052064737
0.0052066006
0.0052067659
0.0052069849
0.0052072445
0.00520751
0.005207743
0.0052079167
0.005208018
0.0052080187
0.0052079364
0.0052079112
0.0052079196
0.005207945
0.0052080093
0.0052081222
0.0052082667
0.005208441
0.0052086026
0.0052087352
0.0052087882
0.005208768
0.0052087427
0.0052087764
0.0052088186
0.0052088493
0.005208899
0.0052089576
0.0052090073
0.0052090316
0.0052090386
0.0052090242
0.0052090236
0.0052090042
0.0052089665
0.0052089767
0.0052089797
0.0052090034
0.0052090108
0.0052090237
0.0052090147
0.0052090188
0.0052090266
0.0052090171
0.0048893204
0.0048906077
0.0048907359
0.0048915806
0.004891883
0.0048925279
0.004892961
0.0048935711
0.0048941157
0.0048946437
0.0048950926
0.004895461
0.0048957398
0.0048959145
0.0048959985
0.004896007
0.0048959879
0.0048959799
0.0048960376
0.0048961519
0.0048963634
0.0048966492
0.0048969881
0.0048973239
0.0048975911
0.0048977751
0.0048978615
0.0048978614
0.0048978048
0.0048978055
0.0048978625
0.0048979546
0.0048981096
0.0048983376
0.004898607
0.0048988896
0.00489913
0.0048993606
0.0048995887
0.004899702
0.0048997094
0.0048997271
0.0048997773
0.0048998147
0.0048997886
0.0048998287
0.0048999795
0.0049001962
0.0049004687
0.0049007325
0.0049010323
0.0049012416
0.0049015432
0.0049016582
0.0049019946
0.0049020128
0.0049024041
0.0049023916
0.0049028331
0.0046166281
0.0046179978
0.0046182361
0.00461913
0.0046195041
0.0046201824
0.0046205649
0.0046210421
0.0046214156
0.0046218566
0.0046223302
0.0046228582
0.0046233856
0.0046238563
0.0046242443
0.0046245526
0.0046247932
0.0046249484
0.0046250464
0.0046250984
0.0046251349
0.0046252081
0.004625343
0.0046255738
0.0046259006
0.0046262681
0.004626585
0.0046268234
0.0046269941
0.0046270769
0.004627102
0.0046270996
0.0046270995
0.004627156
0.0046273027
0.004627554
0.0046279271
0.0046282858
0.0046285545
0.0046287586
0.004628916
0.0046289926
0.0046290474
0.0046291106
0.0046292417
0.0046293685
0.004629581
0.004629767
0.0046300616
0.0046302564
0.0046305823
0.0046307206
0.0046310827
0.0046311907
0.0046316505
0.0046317255
0.0046322806
0.0046323107
0.0046329961
0.0043821973
0.0043835491
0.0043838386
0.0043846982
0.0043850936
0.00438567
0.0043859984
0.0043863533
0.0043865907
0.0043868163
0.0043870253
0.0043872617
0.0043875567
0.0043879303
0.0043883811
0.0043888659
0.0043893006
0.0043896689
0.004389969
0.0043902099
0.0043903765
0.0043904906
0.004390568
0.0043906408
0.0043907604
0.0043909624
0.0043912568
0.0043916215
0.0043919574
0.0043922355
0.0043924528
0.0043926147
0.004392714
0.0043927678
0.004392809
0.0043928639
0.0043929555
0.0043930783
0.004393255
0.0043934938
0.0043937953
0.0043940875
0.0043943688
0.0043946278
0.0043948763
0.0043950597
0.0043952868
0.0043954123
0.0043956433
0.0043957432
0.0043960225
0.0043961237
0.0043964848
0.0043965876
0.0043970388
0.0043971295
0.0043977051
0.0043977611
0.0043985104
0.0041818216
0.0041830711
0.0041833867
0.0041841634
0.0041845318
0.0041850819
0.0041854375
0.0041858591
0.004186193
0.0041865008
0.0041867419
0.0041869361
0.0041870923
0.004187243
0.0041874139
0.0041876357
0.0041879097
0.004188233
0.0041885863
0.0041889392
0.0041892517
0.0041895118
0.0041897264
0.0041898753
0.0041899733
0.0041900584
0.0041901735
0.0041903533
0.0041906014
0.0041909101
0.0041912358
0.004191527
0.0041917703
0.0041919643
0.0041920969
0.0041921803
0.0041922399
0.0041923027
0.0041924215
0.0041925835
0.004192815
0.0041930507
0.0041933151
0.0041935333
0.0041937995
0.0041939861
0.0041942581
0.0041944161
0.0041947098
0.0041948577
0.0041951932
0.0041953278
0.0041957093
0.0041958266
0.0041962745
0.0041963801
0.0041969347
0.0041970116
0.0041977528
0.0040006282
0.0040017247
0.0040020722
0.0040027594
0.004003184
0.0040036903
0.004004096
0.0040045548
0.004004968
0.0040053835
0.0040057604
0.0040060961
0.0040063763
0.0040065984
0.0040067618
0.0040068975
0.0040070239
0.00400717
0.0040073492
0.0040075769
0.0040078566
0.0040081678
0.0040084617
0.0040087135
0.0040089154
0.004009057
0.0040091517
0.0040092337
0.0040093336
0.0040094679
0.004009656
0.0040098957
0.0040101726
0.0040104454
0.0040106878
0.0040108955
0.0040110805
0.0040112424
0.0040114026
0.0040115374
0.0040117024
0.0040118352
0.0040120343
0.0040121942
0.0040124313
0.004012597
0.0040128582
0.004013032
0.0040133268
0.0040135036
0.0040138242
0.0040139952
0.0040143554
0.0040145283
0.0040149574
0.0040151201
0.0040156502
0.0040157584
0.0040164626
0.003839863
0.0038406083
0.0038408687
0.0038413331
0.0038415764
0.0038419484
0.0038422001
0.0038424962
0.0038427424
0.003843005
0.0038432648
0.0038435285
0.003843799
0.0038440364
0.003844239
0.003844404
0.0038445369
0.0038446507
0.0038447524
0.0038448496
0.0038449532
0.0038450736
0.0038452143
0.0038453698
0.0038455347
0.0038456887
0.0038458051
0.0038458828
0.003845931
0.0038459671
0.0038460064
0.0038460703
0.0038461673
0.0038462985
0.0038464611
0.0038466198
0.0038467828
0.0038469094
0.0038470436
0.003847139
0.0038472577
0.0038473451
0.0038474737
0.003847558
0.0038476997
0.0038477723
0.0038479378
0.003847999
0.0038481864
0.0038482312
0.0038484427
0.0038484741
0.003848723
0.0038487471
0.0038490406
0.0038490412
0.0038493544
0.0038493418
0.0038497038
0.0037580575
0.0037585193
0.0037586341
0.0037589333
0.0037592107
0.0037593516
0.0037595701
0.0037596889
0.003759847
0.0037599449
0.0037600725
0.003760171
0.0037602986
0.0037604184
0.0037605634
0.0037606993
0.0037608359
0.0037609533
0.003761047
0.0037611163
0.003761172
0.0037612139
0.0037612549
0.0037613087
0.0037613751
0.0037614689
0.0037615635
0.0037616527
0.0037617228
0.0037617656
0.0037617815
0.003761781
0.0037617817
0.003761792
0.0037618135
0.0037618504
0.0037618858
0.0037619239
0.0037619681
0.0037619947
0.0037620497
0.0037620687
0.0037621266
0.0037621428
0.0037621917
0.003762223
0.0037622514
0.0037622972
0.003762317
0.0037623604
0.0037623833
0.0037624193
0.003762443
0.0037624606
0.003762469
0.0037624608
0.0037624467
0.0037624273
0.0037624075
0.0036860013
0.003687041
0.003687895
0.0036879648
0.0036886809
0.0036888093
0.0036893378
0.0036895016
0.003689897
0.0036900373
0.0036903657
0.0036905098
0.0036908037
0.0036909602
0.0036912274
0.0036913973
0.0036916452
0.003691819
0.0036920557
0.0036922426
0.0036924629
0.0036926507
0.0036928774
0.0036930864
0.003693327
0.0036935541
0.0036938078
0.003694055
0.0036943103
0.0036945589
0.003694799
0.0036950312
0.0036952594
0.0036954888
0.0036957279
0.0036959745
0.0036962228
0.003696474
0.0036967283
0.0036969847
0.003697246
0.0036975111
0.0036977837
0.0036980605
0.0036983462
0.0036986451
0.0036989468
0.0036992585
0.0036995883
0.0036999272
0.0037002854
0.0037006614
0.0037010599
0.0037014884
0.0037019313
0.0037024342
0.0037029446
0.0037036509
0.0037043747
0.0033493283
0.003349302
0.003350345
0.0033508974
0.0033515947
0.003352229
0.0033528046
0.003353344
0.0033538641
0.0033543292
0.0033547498
0.0033551371
0.0033554888
0.0033558193
0.0033561221
0.0033564036
0.003356671
0.003356921
0.0033571382
0.0033573525
0.0033575621
0.0033577624
0.0033579346
0.0033580913
0.003358226
0.0033583453
0.0033583981
0.00335849
0.0033585505
0.0033586424
0.0033587095
0.0033587914
0.0033588328
0.0033588821
0.0033588867
0.0033588955
0.0033588947
0.0033588845
0.0033588709
0.0033588445
0.0033588034
0.0033587558
0.0033586957
0.0033586253
0.0033585351
0.003358447
0.0033583425
0.0033582067
0.003358059
0.0033578847
0.003357694
0.0033574768
0.0033572386
0.0033569834
0.0033566769
0.00335639
0.0033559652
0.0033556971
0.0033552506
0.0033417989
0.0033383945
0.0033371699
0.0033350376
0.0033335985
0.0033321109
0.0033306772
0.0033294493
0.0033282615
0.0033271636
0.0033261306
0.0033251637
0.0033242322
0.0033233415
0.0033224758
0.003321607
0.0033207881
0.0033199596
0.0033192073
0.0033184485
0.0033177193
0.0033170389
0.0033163337
0.0033157076
0.0033150298
0.0033144402
0.0033138438
0.0033133103
0.0033127132
0.0033121864
0.003311588
0.003311066
0.0033104849
0.0033099663
0.0033093956
0.0033088889
0.0033083059
0.0033078144
0.0033072307
0.0033067313
0.0033061649
0.0033056364
0.0033050438
0.00330447
0.0033038298
0.0033032159
0.0033024879
0.0033018913
0.0033010789
0.0033003978
0.003299499
0.0032986986
0.003297687
0.0032967074
0.0032955286
0.003294395
0.0032929868
0.0032915811
0.0032895149
0.005036462
0.0050352549
0.0050341019
0.0050331621
0.0050322471
0.0050314354
0.0050305723
0.0050297611
0.0050290878
0.0050284713
0.0050278622
0.0050273197
0.0050268211
0.0050263665
0.0050259671
0.0050255957
0.005025239
0.0050249084
0.0050245989
0.0050243067
0.005024038
0.0050237964
0.0050235842
0.0050234048
0.0050232399
0.005023092
0.0050229532
0.0050228291
0.0050227289
0.0050226492
0.0050225882
0.0050225406
0.0050225081
0.0050224936
0.005022489
0.005022508
0.0050225452
0.0050225961
0.0050226567
0.0050227239
0.0050227934
0.0050228704
0.0050229606
0.0050230676
0.0050232018
0.0050233622
0.0050235409
0.0050237248
0.0050239345
0.0050241725
0.0050244489
0.005024741
0.0050250918
0.005025451
0.0050259366
0.0050263065
0.0050269211
0.005027291
0.0050279423
0.0031917319
0.0031954917
0.0031953612
0.0031982777
0.0031982639
0.0032002272
0.0032007208
0.0032022438
0.0032025306
0.0032038309
0.0032041118
0.003205202
0.0032054524
0.0032063645
0.0032066027
0.0032074043
0.0032076592
0.0032083588
0.0032085977
0.003209163
0.0032093932
0.0032098169
0.0032100315
0.0032103461
0.00321053
0.0032107944
0.0032109473
0.0032111646
0.0032112915
0.0032114662
0.0032115674
0.0032117039
0.0032117784
0.0032118749
0.0032119203
0.0032119724
0.0032119855
0.0032119913
0.0032119804
0.0032119545
0.0032119207
0.0032118834
0.0032118388
0.0032117875
0.0032117262
0.0032116435
0.0032115328
0.0032114075
0.0032112716
0.0032111092
0.0032109321
0.0032107139
0.0032104849
0.003210186
0.0032098881
0.0032094459
0.0032090623
0.0032083795
0.0032078904
0.020787537
0.020793068
0.020800071
0.020806237
0.020812675
0.020818912
0.020825113
0.020831231
0.020837271
0.020843232
0.020849112
0.020854908
0.020860618
0.020866241
0.020871774
0.020877214
0.020882557
0.020887802
0.020892943
0.020897976
0.020902898
0.020907702
0.020912383
0.020916937
0.020921359
0.020925645
0.020929791
0.020933794
0.020937652
0.020941364
0.020944929
0.020948346
0.020951617
0.020954742
0.020957723
0.020960561
0.020963258
0.020965816
0.020968237
0.020970521
0.020972671
0.020974688
0.020976575
0.020978333
0.020979964
0.020981469
0.020982851
0.020984111
0.02098525
0.020986268
0.020987167
0.020987949
0.020988611
0.020989154
0.020989592
0.020989907
0.020990124
0.020990238
0.020990254
0.019069816
0.019074643
0.0190805
0.019085807
0.019091203
0.019096463
0.01910165
0.019106753
0.019111771
0.019116705
0.019121554
0.019126318
0.019130995
0.019135584
0.019140086
0.019144498
0.019148819
0.01915305
0.019157187
0.019161232
0.019165181
0.019169035
0.019172792
0.019176451
0.019180012
0.019183473
0.019186833
0.019190092
0.01919325
0.019196304
0.019199255
0.019202101
0.019204844
0.019207481
0.019210012
0.019212438
0.019214758
0.019216971
0.019219078
0.019221078
0.019222972
0.01922476
0.019226441
0.019228016
0.019229486
0.019230851
0.019232111
0.019233268
0.01923432
0.01923527
0.019236118
0.019236864
0.019237504
0.019238046
0.019238492
0.019238811
0.019239046
0.019239193
0.019239232
0.017466494
0.017470603
0.017475443
0.017479884
0.017484339
0.017488689
0.017492959
0.017497151
0.017501264
0.0175053
0.017509258
0.017513139
0.017516944
0.017520672
0.017524323
0.017527897
0.017531393
0.017534812
0.017538153
0.017541415
0.017544598
0.017547701
0.017550724
0.017553668
0.01755653
0.01755931
0.01756201
0.017564627
0.017567161
0.017569613
0.017571981
0.017574266
0.017576467
0.017578585
0.017580618
0.017582567
0.017584432
0.017586213
0.017587909
0.017589521
0.017591049
0.017592493
0.017593853
0.01759513
0.017596323
0.017597433
0.01759846
0.017599405
0.017600267
0.017601047
0.017601746
0.017602361
0.017602892
0.017603348
0.01760371
0.017603981
0.017604176
0.017604298
0.017604329
0.015963891
0.015967432
0.015971415
0.015975148
0.015978828
0.01598243
0.015985948
0.015989393
0.015992765
0.015996066
0.015999297
0.016002459
0.016005553
0.01600858
0.01601154
0.016014434
0.016017263
0.016020026
0.016022723
0.016025355
0.016027922
0.016030423
0.01603286
0.016035231
0.016037536
0.016039776
0.01604195
0.016044059
0.016046101
0.016048078
0.016049988
0.016051833
0.016053611
0.016055323
0.016056968
0.016058547
0.016060059
0.016061505
0.016062884
0.016064197
0.016065443
0.016066623
0.016067737
0.016068784
0.016069765
0.01607068
0.016071528
0.016072311
0.016073027
0.016073678
0.016074262
0.016074778
0.016075228
0.016075616
0.016075908
0.016076141
0.016076308
0.016076414
0.016076441
0.014565806
0.014568857
0.014572097
0.014575214
0.014578237
0.014581196
0.014584075
0.014586887
0.014589631
0.01459231
0.014594926
0.014597481
0.014599977
0.014602414
0.014604793
0.014607117
0.014609384
0.014611597
0.014613755
0.014615859
0.01461791
0.014619907
0.014621851
0.014623743
0.014625582
0.014627369
0.014629103
0.014630785
0.014632415
0.014633993
0.014635519
0.014636992
0.014638414
0.014639784
0.014641102
0.014642368
0.014643582
0.014644743
0.014645854
0.014646912
0.014647918
0.014648872
0.014649775
0.014650625
0.014651423
0.01465217
0.014652864
0.014653506
0.014654096
0.014654633
0.014655117
0.014655546
0.014655926
0.01465624
0.014656488
0.014656685
0.014656826
0.014656917
0.01465694
0.013265715
0.013268384
0.013271014
0.013273609
0.013276096
0.013278524
0.01328088
0.013283172
0.013285403
0.013287575
0.013289691
0.013291754
0.013293764
0.013295724
0.013297634
0.013299496
0.013301311
0.01330308
0.013304804
0.013306484
0.013308119
0.013309711
0.01331126
0.013312766
0.01331423
0.013315653
0.013317033
0.013318373
0.013319671
0.013320928
0.013322144
0.01332332
0.013324455
0.013325549
0.013326602
0.013327616
0.013328588
0.013329521
0.013330413
0.013331265
0.013332076
0.013332847
0.013333577
0.013334267
0.013334916
0.013335525
0.013336092
0.013336618
0.013337103
0.013337546
0.013337945
0.013338304
0.01333862
0.013338873
0.013339083
0.013339248
0.013339367
0.013339445
0.013339465
0.012062364
0.012064707
0.012066856
0.012069004
0.012071047
0.012073036
0.012074959
0.012076824
0.012078634
0.012080392
0.012082099
0.012083759
0.012085374
0.012086945
0.012088474
0.012089962
0.01209141
0.01209282
0.012094192
0.012095528
0.012096827
0.012098092
0.012099321
0.012100517
0.012101678
0.012102807
0.012103902
0.012104965
0.012105996
0.012106995
0.012107961
0.012108896
0.0121098
0.012110672
0.012111512
0.012112322
0.0121131
0.012113847
0.012114563
0.012115248
0.012115902
0.012116524
0.012117115
0.012117675
0.012118203
0.0121187
0.012119164
0.012119596
0.012119995
0.01212036
0.012120694
0.012120996
0.012121246
0.01212146
0.012121636
0.012121777
0.012121877
0.012121944
0.012121961
0.010951506
0.0109535
0.010955271
0.010957042
0.010958718
0.010960343
0.010961908
0.01096342
0.010964883
0.0109663
0.010967672
0.010969002
0.010970293
0.010971547
0.010972764
0.010973946
0.010975095
0.010976212
0.010977298
0.010978354
0.01097938
0.010980378
0.010981347
0.01098229
0.010983205
0.010984094
0.010984957
0.010985794
0.010986607
0.010987394
0.010988157
0.010988895
0.010989609
0.010990298
0.010990964
0.010991606
0.010992224
0.010992818
0.010993389
0.010993936
0.010994459
0.010994958
0.010995434
0.010995885
0.010996311
0.010996714
0.010997091
0.010997444
0.01099777
0.010998071
0.010998349
0.010998588
0.010998796
0.010998975
0.010999123
0.010999242
0.010999325
0.010999385
0.010999398
0.0099296154
0.0099312908
0.0099327523
0.0099342104
0.0099355854
0.0099369106
0.0099381833
0.0099394081
0.0099405886
0.0099417276
0.009942828
0.0099438919
0.0099449214
0.0099459185
0.0099468848
0.0099478218
0.0099487307
0.0099496128
0.0099504692
0.0099513007
0.0099521083
0.0099528927
0.0099536547
0.0099543948
0.0099551136
0.0099558116
0.0099564893
0.009957147
0.0099577852
0.0099584042
0.0099590041
0.0099595853
0.009960148
0.0099606922
0.0099612182
0.0099617261
0.0099622159
0.0099626877
0.0099631415
0.0099635774
0.0099639952
0.0099643948
0.0099647763
0.0099651394
0.009965484
0.0099658098
0.0099661164
0.0099664032
0.0099666719
0.0099669217
0.0099671412
0.0099673355
0.0099675083
0.0099676577
0.009967782
0.0099678829
0.0099679519
0.009968005
0.0099680156
0.0089927868
0.0089941935
0.0089954005
0.0089965977
0.0089977246
0.0089988043
0.0089998378
0.0090008284
0.0090017798
0.0090026947
0.0090035757
0.009004425
0.0090052447
0.0090060364
0.009006802
0.0090075427
0.0090082599
0.0090089546
0.0090096281
0.0090102813
0.009010915
0.00901153
0.009012127
0.0090127066
0.0090132692
0.0090138154
0.0090143456
0.0090148603
0.0090153598
0.0090158446
0.009016315
0.0090167712
0.0090172134
0.0090176419
0.0090180566
0.0090184577
0.0090188453
0.0090192195
0.0090195802
0.0090199274
0.0090202612
0.0090205814
0.0090208879
0.0090211807
0.0090214594
0.009021724
0.0090219743
0.0090222108
0.009022432
0.0090226275
0.0090228061
0.0090229676
0.0090231118
0.0090232375
0.009023342
0.0090234288
0.0090234852
0.0090235342
0.0090235412
0.0081376564
0.0081388321
0.0081398346
0.008140816
0.0081417392
0.0081426174
0.0081434544
0.0081442531
0.0081450169
0.0081457485
0.0081464503
0.0081471245
0.008147773
0.0081483976
0.0081489997
0.0081495808
0.0081501421
0.0081506846
0.0081512096
0.0081517177
0.0081522102
0.0081526874
0.0081531503
0.0081535992
0.0081540348
0.0081544574
0.0081548675
0.0081552657
0.0081556523
0.0081560279
0.0081563925
0.0081567465
0.0081570898
0.0081574227
0.0081577452
0.0081580574
0.0081583595
0.0081586514
0.0081589334
0.0081592052
0.0081594671
0.0081597189
0.0081599606
0.0081601921
0.0081604132
0.0081606243
0.0081608245
0.0081610088
0.0081611769
0.0081613335
0.0081614772
0.008161608
0.0081617249
0.0081618274
0.0081619118
0.0081619847
0.0081620274
0.0081620703
0.0081620695
0.0073575824
0.0073585512
0.0073593875
0.0073601908
0.0073609477
0.0073616641
0.0073623444
0.007362991
0.0073636073
0.0073641955
0.007364758
0.0073652967
0.0073658136
0.0073663103
0.0073667883
0.0073672488
0.007367693
0.0073681215
0.0073685352
0.0073689348
0.0073693211
0.0073696946
0.0073700562
0.0073704067
0.0073707467
0.0073710769
0.0073713976
0.0073717095
0.0073720128
0.007372308
0.0073725951
0.0073728742
0.0073731452
0.0073734081
0.0073736634
0.007373911
0.0073741514
0.0073743847
0.0073746108
0.0073748301
0.0073750427
0.0073752487
0.007375448
0.0073756408
0.0073758261
0.0073760006
0.0073761599
0.0073763113
0.0073764532
0.0073765854
0.0073767077
0.0073768198
0.0073769207
0.0073770117
0.0073770859
0.0073771564
0.0073771918
0.0073772381
0.0073772373
0.0066507061
0.0066514887
0.0066521969
0.0066528598
0.0066534791
0.0066540616
0.0066546116
0.0066551303
0.0066556222
0.0066560885
0.0066565322
0.0066569552
0.00665736
0.0066577481
0.0066581211
0.0066584803
0.006658827
0.0066591612
0.0066594829
0.0066597924
0.0066600901
0.0066603763
0.0066606521
0.0066609196
0.0066611804
0.0066614357
0.0066616855
0.0066619298
0.0066621686
0.0066624016
0.0066626283
0.0066628486
0.0066630624
0.0066632702
0.0066634729
0.0066636714
0.0066638661
0.0066640573
0.0066642451
0.0066644291
0.0066646074
0.006664778
0.0066649403
0.0066650945
0.0066652371
0.0066653739
0.0066655036
0.0066656271
0.0066657438
0.0066658528
0.0066659534
0.0066660467
0.0066661295
0.0066662082
0.0066662692
0.0066663343
0.0066663602
0.0066664103
0.0066664127
0.0060313748
0.0060319977
0.0060325874
0.0060331606
0.0060336974
0.006034205
0.0060346885
0.006035145
0.00603558
0.0060359923
0.0060363851
0.0060367592
0.0060371164
0.006037456
0.0060377796
0.0060380894
0.0060383868
0.0060386734
0.0060389504
0.0060392174
0.0060394748
0.0060397235
0.006039963
0.006040194
0.0060404176
0.0060406329
0.0060408394
0.0060410367
0.0060412244
0.0060414025
0.0060415716
0.0060417334
0.0060418889
0.0060420385
0.0060421824
0.0060423211
0.0060424541
0.0060425809
0.0060427022
0.0060428167
0.0060429237
0.0060430262
0.0060431223
0.0060432122
0.0060432969
0.006043376
0.0060434507
0.0060435248
0.0060435969
0.0060436628
0.0060437227
0.0060437874
0.0060438467
0.0060439117
0.0060439581
0.006044014
0.0060440347
0.0060441025
0.0060441177
0.023065461
0.025585182
0.028400065
0.03147437
0.03482043
0.038462578
0.042414901
0.046689686
0.051297842
0.056247297
0.061541593
0.067177988
0.073146313
0.079426589
0.085986929
0.092781756
0.099747036
0.10680119
0.11383952
0.12073471
0.1273352
0.13347433
0.13893934
0.14351368
0.14700309
0.14907304
0.14960206
0.14844651
0.14527065
0.13999977
0.13262727
0.12305107
0.11132877
0.097641941
0.082074982
0.064905167
0.046358025
0.026562481
0.0058511026
-0.015444038
-0.037109544
-0.058943652
-0.080706405
-0.10219093
-0.12321583
-0.14380676
-0.16390359
-0.18324991
-0.20180127
-0.21955191
-0.23647952
-0.25257043
-0.26783145
-0.28218748
-0.29567315
-0.30841109
-0.32040156
-0.33163948
-0.3421698
-0.35205834
-0.3613051
-0.36991062
-0.37792334
-0.38538386
-0.39232364
-0.39877368
-0.40476576
-0.41032886
-0.41549109
-0.42027806
-0.42471356
-0.42881876
-0.43260426
-0.43612517
0.023065437
0.025585166
0.028400035
0.031474335
0.034820396
0.038462546
0.042414872
0.046689663
0.051297825
0.056247287
0.061541595
0.067178023
0.073146368
0.079426681
0.085987059
0.092781939
0.099747279
0.10680151
0.11383993
0.12073521
0.1273358
0.13347491
0.13893994
0.14351444
0.14700394
0.1490738
0.14960282
0.14844731
0.14527182
0.14000158
0.13262657
0.12304998
0.11132998
0.097642433
0.082075422
0.064899996
0.04634903
0.026557707
0.0058514912
-0.015443865
-0.037109537
-0.058946391
-0.080711894
-0.1022007
-0.12322208
-0.14380576
-0.16390287
-0.18325233
-0.2018057
-0.21955727
-0.23648546
-0.25257692
-0.26783897
-0.28219299
-0.29567596
-0.30841474
-0.32040751
-0.33164637
-0.34217857
-0.35207215
-0.36132136
-0.36992562
-0.3779371
-0.38539679
-0.39233585
-0.39878482
-0.40477635
-0.4103392
-0.41550173
-0.42028924
-0.42472695
-0.42883645
-0.43262177
-0.43613938
0.023065246
0.025584995
0.028399826
0.0314741
0.034820142
0.038462274
0.04241458
0.046689351
0.051297496
0.056246945
0.061541241
0.067177657
0.073145995
0.079426309
0.085986698
0.092781602
0.099746985
0.10680128
0.11383979
0.12073521
0.12733604
0.13347542
0.13894096
0.14351566
0.14700561
0.14907586
0.14960547
0.14845075
0.14527594
0.14000613
0.1326302
0.12305555
0.11133719
0.097648602
0.082083395
0.064907716
0.046354129
0.026564545
0.0058590279
-0.015437954
-0.037104762
-0.058939557
-0.080703291
-0.10219394
-0.12322822
-0.14381766
-0.16390493
-0.18324921
-0.20180123
-0.21955215
-0.23647988
-0.25257325
-0.2678434
-0.2822016
-0.29567999
-0.30841534
-0.32040307
-0.33163737
-0.34215802
-0.35204959
-0.36130582
-0.36991365
-0.37792737
-0.38538858
-0.3923299
-0.39878129
-0.40477297
-0.41033607
-0.41549848
-0.42028652
-0.42472564
-0.42882066
-0.43259258
-0.43611325
0.02306484
0.025584708
0.02839946
0.031473693
0.034819705
0.038461805
0.042414076
0.046688812
0.051296911
0.056246316
0.061540572
0.067176953
0.073145264
0.079425565
0.085985958
0.092780892
0.099746335
0.10680074
0.11383944
0.12073516
0.1273368
0.13347627
0.13894223
0.14351769
0.14700866
0.14907972
0.1496105
0.14845731
0.1452839
0.14001569
0.13263993
0.12306726
0.11135124
0.097662935
0.082100285
0.064923446
0.046366232
0.026578835
0.0058763441
-0.015420323
-0.03708697
-0.058920061
-0.08068339
-0.10217707
-0.12322232
-0.14381297
-0.16388864
-0.18323298
-0.2017875
-0.21953998
-0.23646867
-0.25255969
-0.2678166
-0.28217661
-0.29567455
-0.30841957
-0.32041043
-0.33165254
-0.34218848
-0.35207626
-0.36131756
-0.36992033
-0.37793094
-0.38538945
-0.3923266
-0.39877507
-0.40476634
-0.41032938
-0.41549538
-0.42028725
-0.42475706
-0.42888597
-0.4326116
-0.43606602
0.023064266
0.025584288
0.028398928
0.031473095
0.034819048
0.038461081
0.042413281
0.046687943
0.05129597
0.056245308
0.061539497
0.06717582
0.073144085
0.079424359
0.08598476
0.092779735
0.099745282
0.10679982
0.11383873
0.12073479
0.12733681
0.13347731
0.13894401
0.1435207
0.14701325
0.14908563
0.14961835
0.14846773
0.14529662
0.14003095
0.13265616
0.12308662
0.11137428
0.097687085
0.082127604
0.064950544
0.046390909
0.026606717
0.0059073761
-0.015389621
-0.037056934
-0.05888878
-0.08065142
-0.10214725
-0.12320268
-0.14379608
-0.16386438
-0.18320802
-0.20176309
-0.21951541
-0.2364435
-0.25253188
-0.26778377
-0.28215452
-0.29567117
-0.30840951
-0.32039821
-0.33164176
-0.34217276
-0.35205048
-0.36128476
-0.36988818
-0.37790128
-0.38536193
-0.39230207
-0.39875339
-0.40474568
-0.41030845
-0.41547018
-0.42025506
-0.42468796
-0.42878083
-0.43256047
-0.43607661
0.023063558
0.025583721
0.028398228
0.031472308
0.034818181
0.038460124
0.042412227
0.046686787
0.051294707
0.056243932
0.061538007
0.067174223
0.073142394
0.079422594
0.085982964
0.092777949
0.09974359
0.10679834
0.11383763
0.1207342
0.12733703
0.13347861
0.13894649
0.14352491
0.14701976
0.14909418
0.14962982
0.14848306
0.14531542
0.14005362
0.13268127
0.12311633
0.11140904
0.097724172
0.082169099
0.064992879
0.046431356
0.026650641
0.005954883
-0.015341829
-0.037009127
-0.058839174
-0.080601118
-0.1020997
-0.12316608
-0.143763
-0.16382292
-0.18316454
-0.20172079
-0.21947424
-0.23640302
-0.2524906
-0.26773743
-0.28211178
-0.29563593
-0.30837998
-0.32037288
-0.33162393
-0.34216326
-0.35203522
-0.36126531
-0.36986982
-0.37788202
-0.38534074
-0.39227903
-0.39872799
-0.40471884
-0.41028057
-0.41544176
-0.42022827
-0.42466663
-0.42877722
-0.43256983
-0.43607699
0.023062724
0.025582996
0.02839735
0.031471319
0.034817085
0.038458909
0.042410881
0.046685301
0.051293071
0.056242142
0.061536059
0.067172125
0.07314016
0.079420251
0.085980566
0.092775551
0.099741309
0.1067963
0.11383603
0.12073325
0.12733701
0.13348013
0.13894973
0.14353055
0.14702867
0.149106
0.14964583
0.14850461
0.14534194
0.1400858
0.1327177
0.12315925
0.11145895
0.097778189
0.082229114
0.065055089
0.046492771
0.02671661
0.0060254526
-0.015270357
-0.036937504
-0.058765977
-0.080527689
-0.1020294
-0.12310647
-0.14370701
-0.16375955
-0.18310011
-0.20165836
-0.21941307
-0.23634218
-0.25242865
-0.26767155
-0.28205139
-0.29558921
-0.30834056
-0.32033403
-0.33158512
-0.34212348
-0.35199061
-0.36121402
-0.3698146
-0.37782579
-0.38528461
-0.39222356
-0.39867358
-0.404665
-0.41022662
-0.41538609
-0.42016915
-0.42460036
-0.42870272
-0.43249875
-0.436017
0.023061752
0.025582103
0.028396285
0.031470115
0.034815745
0.038457415
0.042409218
0.046683456
0.05129103
0.056239894
0.061533599
0.067169456
0.073137298
0.079417227
0.085977442
0.092772401
0.099738276
0.10679355
0.11383384
0.12073192
0.12733696
0.13348189
0.13895398
0.14353803
0.14704058
0.1491219
0.14966754
0.14853407
0.14537839
0.14013022
0.13276881
0.12321937
0.11152866
0.097854402
0.08231348
0.065143619
0.046582124
0.026811786
0.0061262897
-0.015167883
-0.036834421
-0.058661049
-0.080422496
-0.10192747
-0.12301512
-0.14362002
-0.16366631
-0.18300568
-0.20156584
-0.21932202
-0.23625199
-0.25233864
-0.26757991
-0.28196528
-0.29551319
-0.30826939
-0.32026445
-0.33151881
-0.34206165
-0.35192916
-0.36115042
-0.36975136
-0.37776436
-0.38522416
-0.39216334
-0.3986131
-0.40460394
-0.41016512
-0.41532456
-0.42010877
-0.42454275
-0.42865042
-0.43245289
-0.43597316
0.023060642
0.025581037
0.028395022
0.031468683
0.034814142
0.038455621
0.042407212
0.046681218
0.051288542
0.056237139
0.061530565
0.067166143
0.073133722
0.079413422
0.085973483
0.092768377
0.099734367
0.10678997
0.11383094
0.12073013
0.12733692
0.133484
0.13895941
0.1435477
0.14705622
0.14914302
0.14969649
0.14857345
0.14542733
0.14019024
0.13283882
0.12330177
0.11162408
0.097959538
0.082429707
0.065266703
0.046708266
0.026945571
0.0062673325
-0.015023955
-0.036689111
-0.058513614
-0.080274967
-0.10178358
-0.12288172
-0.14349152
-0.16353271
-0.18287129
-0.20143411
-0.21919269
-0.23612432
-0.2522121
-0.26745326
-0.28184411
-0.2954023
-0.30816604
-0.32016521
-0.33142274
-0.34196727
-0.35183281
-0.36105034
-0.36964879
-0.37766039
-0.38511908
-0.39205757
-0.39850712
-0.40449799
-0.41005919
-0.41521842
-0.42000212
-0.42443533
-0.42854232
-0.43234522
-0.43586757
0.023059394
0.025579794
0.028393555
0.031467009
0.034812259
0.038453501
0.042404828
0.046678545
0.051285553
0.05623381
0.061526878
0.067162095
0.073129325
0.079408714
0.085968549
0.09276333
0.099729423
0.10678541
0.11382721
0.12072777
0.12733674
0.13348647
0.13896632
0.14356023
0.14707635
0.14917036
0.14973468
0.14862581
0.1454924
0.14027021
0.13293301
0.12341279
0.11175266
0.098102169
0.082587373
0.065434888
0.046882671
0.027130121
0.006461288
-0.014825468
-0.036488224
-0.058310146
-0.080071381
-0.10158379