/*--------------------------------*- C++ -*----------------------------------*\
| =========                 |                                                 |
| \\      /  F ield         | OpenFOAM: The Open Source CFD Toolbox           |
|  \\    /   O peration     | Version:  v2006                                 |
|   \\  /    A nd           | Website:  www.openfoam.com                      |
|    \\/     M anipulation  |                                                 |
\*---------------------------------------------------------------------------*/
FoamFile
{
    version     2.0;
    format      ascii;
    class       volScalarField;
    location    "8000";
    object      k;
}
// * * * * * * * * * * * * * * * * * * * * * * * * * * * * * * * * * * * * * //

dimensions      [0 2 -2 0 0 0 0];


internalField   nonuniform List<scalar> 
55713
(
1.5508287e-09
3.9977675e-09
1.328709e-08
2.0757291e-08
2.4165427e-08
2.5101741e-08
2.511455e-08
2.4963895e-08
2.4869072e-08
2.4836124e-08
2.4831749e-08
2.4834137e-08
2.4836017e-08
2.4836598e-08
2.4836695e-08
2.4836732e-08
2.4836674e-08
2.4836539e-08
2.4836705e-08
2.4837144e-08
2.4837469e-08
2.4837432e-08
2.483712e-08
2.4836768e-08
2.4836456e-08
2.483623e-08
2.4836088e-08
2.4835921e-08
2.4835722e-08
2.4835475e-08
2.4835216e-08
2.483493e-08
2.4834642e-08
2.4834356e-08
2.4834129e-08
2.4834035e-08
2.4833886e-08
2.4833467e-08
2.4832893e-08
2.483222e-08
2.4831554e-08
2.4830895e-08
2.4830193e-08
2.4829423e-08
2.4828664e-08
2.4827926e-08
2.4827205e-08
2.482648e-08
2.4825749e-08
2.4824986e-08
2.4824197e-08
2.4823372e-08
2.4822526e-08
2.4821662e-08
2.4820791e-08
2.4819911e-08
2.4819074e-08
2.4818293e-08
2.4817533e-08
1.7218394e-09
5.3361337e-09
1.5766919e-08
2.300427e-08
2.5853333e-08
2.6446156e-08
2.6351602e-08
2.6202063e-08
2.6128747e-08
2.6108612e-08
2.6107941e-08
2.6109884e-08
2.6110523e-08
2.6110137e-08
2.6109527e-08
2.610898e-08
2.6108299e-08
2.6107587e-08
2.6107293e-08
2.6107333e-08
2.6107149e-08
2.6106458e-08
2.610561e-08
2.6104757e-08
2.6103954e-08
2.610327e-08
2.610265e-08
2.6102012e-08
2.610134e-08
2.6100627e-08
2.6099897e-08
2.6099143e-08
2.6098376e-08
2.6097613e-08
2.60969e-08
2.6096349e-08
2.609581e-08
2.6094911e-08
2.6093826e-08
2.6092618e-08
2.60914e-08
2.6090208e-08
2.6088966e-08
2.6087627e-08
2.6086263e-08
2.6084912e-08
2.6083558e-08
2.6082185e-08
2.6080781e-08
2.6079316e-08
2.6077785e-08
2.6076176e-08
2.6074488e-08
2.6072727e-08
2.6070892e-08
2.6068964e-08
2.6066974e-08
2.6064928e-08
2.6062813e-08
1.9775605e-09
6.9653434e-09
1.8390137e-08
2.5250336e-08
2.7542418e-08
2.785779e-08
2.7701342e-08
2.7567197e-08
2.7514443e-08
2.7503622e-08
2.7504533e-08
2.7505465e-08
2.7504798e-08
2.7503464e-08
2.7502238e-08
2.7501064e-08
2.7499741e-08
2.7498486e-08
2.7497746e-08
2.74973e-08
2.7496471e-08
2.7495188e-08
2.7493794e-08
2.7492417e-08
2.7491115e-08
2.7489955e-08
2.7488847e-08
2.7487721e-08
2.7486563e-08
2.7485369e-08
2.7484158e-08
2.7482921e-08
2.7481669e-08
2.7480413e-08
2.7479202e-08
2.7478172e-08
2.7477245e-08
2.7475877e-08
2.7474273e-08
2.7472512e-08
2.7470728e-08
2.7468988e-08
2.7467209e-08
2.7465296e-08
2.7463318e-08
2.746134e-08
2.7459348e-08
2.7457322e-08
2.7455242e-08
2.7453072e-08
2.7450802e-08
2.7448411e-08
2.7445885e-08
2.7443227e-08
2.7440432e-08
2.7437463e-08
2.7434329e-08
2.7431028e-08
2.7427552e-08
2.3488009e-09
9.0306939e-09
2.1263304e-08
2.7547752e-08
2.9282424e-08
2.9375903e-08
2.9192546e-08
2.9082767e-08
2.9048291e-08
2.9043619e-08
2.9044532e-08
2.9043974e-08
2.9042013e-08
2.9039993e-08
2.903816e-08
2.9036328e-08
2.9034347e-08
2.903256e-08
2.9031395e-08
2.9030422e-08
2.9028944e-08
2.9027057e-08
2.9025103e-08
2.9023199e-08
2.90214e-08
2.901976e-08
2.9018151e-08
2.9016531e-08
2.9014883e-08
2.9013208e-08
2.9011512e-08
2.900979e-08
2.9008048e-08
2.9006298e-08
2.9004584e-08
2.9003061e-08
2.900175e-08
2.8999948e-08
2.8997817e-08
2.8995495e-08
2.8993129e-08
2.8990834e-08
2.8988527e-08
2.898605e-08
2.898345e-08
2.8980834e-08
2.89782e-08
2.8975517e-08
2.8972761e-08
2.8969885e-08
2.8966876e-08
2.8963707e-08
2.8960342e-08
2.895678e-08
2.895302e-08
2.8949007e-08
2.8944718e-08
2.8940155e-08
2.8935303e-08
2.875991e-09
1.1584165e-08
2.4342135e-08
2.9881815e-08
3.1097997e-08
3.1033294e-08
3.0852522e-08
3.0770559e-08
3.0750243e-08
3.0748778e-08
3.0748531e-08
3.0746244e-08
3.0743379e-08
3.0740743e-08
3.0738263e-08
3.073575e-08
3.0733108e-08
3.0730821e-08
3.0729244e-08
3.0727706e-08
3.0725547e-08
3.0723058e-08
3.0720542e-08
3.0718117e-08
3.0715829e-08
3.0713708e-08
3.0711596e-08
3.0709485e-08
3.0707343e-08
3.070519e-08
3.0703009e-08
3.0700805e-08
3.069858e-08
3.0696339e-08
3.0694126e-08
3.0692104e-08
3.069041e-08
3.0688242e-08
3.0685587e-08
3.0682702e-08
3.0679741e-08
3.0676887e-08
3.0674074e-08
3.0671062e-08
3.0667848e-08
3.0664597e-08
3.0661329e-08
3.0658003e-08
3.0654585e-08
3.0651024e-08
3.0647297e-08
3.0643374e-08
3.0639193e-08
3.0634747e-08
3.0630043e-08
3.0625015e-08
3.0619596e-08
3.0613803e-08
3.0607596e-08
3.6208474e-09
1.4695238e-08
2.7600723e-08
3.2270901e-08
3.3032197e-08
3.2869753e-08
3.2712212e-08
3.2656741e-08
3.2646111e-08
3.2645305e-08
3.2643153e-08
3.2639576e-08
3.2635988e-08
3.2632744e-08
3.2629591e-08
3.2626399e-08
3.2623107e-08
3.2620379e-08
3.2618408e-08
3.2616265e-08
3.2613413e-08
3.2610325e-08
3.2607255e-08
3.2604328e-08
3.2601575e-08
3.2598978e-08
3.2596371e-08
3.2593784e-08
3.259116e-08
3.2588546e-08
3.2585889e-08
3.2583222e-08
3.2580524e-08
3.2577812e-08
3.2575111e-08
3.2572596e-08
3.2570518e-08
3.2568085e-08
3.2564919e-08
3.2561483e-08
3.2557925e-08
3.2554515e-08
3.255123e-08
3.2547738e-08
3.254394e-08
3.2540071e-08
3.2536192e-08
3.2532252e-08
3.2528206e-08
3.2523995e-08
3.2519587e-08
3.2514956e-08
3.2510009e-08
3.2504721e-08
3.2499112e-08
3.2493127e-08
3.2486628e-08
3.2479665e-08
3.2472157e-08
4.6774529e-09
1.8424365e-08
3.0974375e-08
3.4754424e-08
3.5134207e-08
3.4928672e-08
3.4806257e-08
3.4772495e-08
3.4767309e-08
3.4765309e-08
3.4761391e-08
3.4756799e-08
3.4752596e-08
3.4748743e-08
3.4744921e-08
3.4741063e-08
3.4737165e-08
3.4734081e-08
3.4731745e-08
3.4728937e-08
3.4725414e-08
3.4721737e-08
3.4718151e-08
3.4714753e-08
3.4711568e-08
3.4708508e-08
3.470544e-08
3.4702398e-08
3.4699325e-08
3.4696275e-08
3.4693178e-08
3.4690076e-08
3.4686943e-08
3.4683789e-08
3.4680636e-08
3.467765e-08
3.4675209e-08
3.4672599e-08
3.4668999e-08
3.4665031e-08
3.4660888e-08
3.4656933e-08
3.4653234e-08
3.4649356e-08
3.4645033e-08
3.4640585e-08
3.4636146e-08
3.4631643e-08
3.4627033e-08
3.4622238e-08
3.4617216e-08
3.4611953e-08
3.4606327e-08
3.4600281e-08
3.4593844e-08
3.4587005e-08
3.4579524e-08
3.4571503e-08
3.4562797e-08
6.2065491e-09
2.281867e-08
3.4624896e-08
3.7392599e-08
3.7461622e-08
3.7259833e-08
3.7175068e-08
3.7156447e-08
3.7153215e-08
3.7149257e-08
3.7143899e-08
3.7138546e-08
3.7133815e-08
3.712937e-08
3.71249e-08
3.7120428e-08
3.7115993e-08
3.7112701e-08
3.7110003e-08
3.7106484e-08
3.7102335e-08
3.709811e-08
3.7094069e-08
3.7090269e-08
3.7086691e-08
3.7083215e-08
3.7079726e-08
3.7076284e-08
3.707281e-08
3.7069378e-08
3.7065892e-08
3.7062415e-08
3.7058902e-08
3.7055369e-08
3.7051821e-08
3.7048418e-08
3.7045638e-08
3.7042972e-08
3.7039083e-08
3.7034623e-08
3.7029916e-08
3.7025449e-08
3.7021412e-08
3.7017297e-08
3.701255e-08
3.7007599e-08
3.700269e-08
3.6997711e-08
3.699264e-08
3.698737e-08
3.6981844e-08
3.6976071e-08
3.6969903e-08
3.6963246e-08
3.6956103e-08
3.6948579e-08
3.6940278e-08
3.693138e-08
3.6921658e-08
8.5411886e-09
2.7896998e-08
3.8328894e-08
4.0183795e-08
4.0085031e-08
3.9920048e-08
3.9867198e-08
3.9857514e-08
3.9853673e-08
3.9847864e-08
3.9841507e-08
3.9835599e-08
3.9830431e-08
3.9825439e-08
3.9820385e-08
3.9815391e-08
3.9810556e-08
3.9807255e-08
3.9804165e-08
3.9799938e-08
3.9795211e-08
3.9790533e-08
3.9786143e-08
3.9782044e-08
3.9778139e-08
3.9774322e-08
3.9770495e-08
3.9766734e-08
3.9762941e-08
3.9759214e-08
3.9755422e-08
3.9751669e-08
3.9747865e-08
3.9744055e-08
3.9740208e-08
3.9736483e-08
3.9733413e-08
3.9730816e-08
3.9726914e-08
3.9722028e-08
3.9716796e-08
3.9711884e-08
3.9707606e-08
3.9703478e-08
3.9698469e-08
3.9693143e-08
3.968791e-08
3.9682593e-08
3.9677221e-08
3.9671654e-08
3.9665792e-08
3.9659699e-08
3.9653197e-08
3.9646169e-08
3.9638516e-08
3.9630562e-08
3.9621709e-08
3.9612211e-08
3.9601766e-08
1.2447655e-08
3.362611e-08
4.2189604e-08
4.3262392e-08
4.3089984e-08
4.2973121e-08
4.2943493e-08
4.293808e-08
4.2932553e-08
4.2925345e-08
4.2918402e-08
4.2912143e-08
4.2906672e-08
4.2901217e-08
4.2895708e-08
4.2890348e-08
4.2885347e-08
4.2882291e-08
4.2878738e-08
4.2873868e-08
4.2868667e-08
4.2863703e-08
4.285912e-08
4.2854864e-08
4.2850741e-08
4.284671e-08
4.2842673e-08
4.2838727e-08
4.2834748e-08
4.2830859e-08
4.2826898e-08
4.2823017e-08
4.2819062e-08
4.2815134e-08
4.2811139e-08
4.280725e-08
4.2803987e-08
4.2801577e-08
4.2798111e-08
4.2792935e-08
4.2787239e-08
4.2782006e-08
4.277764e-08
4.2773761e-08
4.276878e-08
4.2763274e-08
4.2757959e-08
4.2752504e-08
4.2747081e-08
4.2741487e-08
4.2735556e-08
4.2729425e-08
4.2722897e-08
4.2715867e-08
4.2708025e-08
4.2700008e-08
4.2691035e-08
4.2681345e-08
4.2670634e-08
1.8729769e-08
3.9892514e-08
4.6239528e-08
4.673318e-08
4.6567995e-08
4.6498436e-08
4.6482873e-08
4.6478569e-08
4.647133e-08
4.646343e-08
4.6456339e-08
4.645e-08
4.6444444e-08
4.6438663e-08
4.6432945e-08
4.642746e-08
4.642268e-08
4.6420128e-08
4.6416076e-08
4.6410682e-08
4.6405215e-08
4.6400232e-08
4.63957e-08
4.6391463e-08
4.6387316e-08
4.6383267e-08
4.6379229e-08
4.6375295e-08
4.6371344e-08
4.6367497e-08
4.6363589e-08
4.6359786e-08
4.6355905e-08
4.6352096e-08
4.6348192e-08
4.6344384e-08
4.6341114e-08
4.6339073e-08
4.6336517e-08
4.633145e-08
4.6325358e-08
4.6320015e-08
4.6315826e-08
4.6312449e-08
4.6308e-08
4.63026e-08
4.6297587e-08
4.6292292e-08
4.6287181e-08
4.6281978e-08
4.6276379e-08
4.6270635e-08
4.626453e-08
4.6258036e-08
4.6250544e-08
4.6242969e-08
4.6234557e-08
4.6225255e-08
4.6214979e-08
2.7071836e-08
4.6563441e-08
5.0599648e-08
5.074058e-08
5.062874e-08
5.0595109e-08
5.0586316e-08
5.0581866e-08
5.0573668e-08
5.0565955e-08
5.055928e-08
5.0553271e-08
5.0547989e-08
5.0542134e-08
5.053661e-08
5.0531433e-08
5.0527408e-08
5.0525603e-08
5.052116e-08
5.051544e-08
5.0510092e-08
5.0505512e-08
5.0501357e-08
5.0497421e-08
5.0493551e-08
5.0489797e-08
5.0486068e-08
5.0482464e-08
5.0478856e-08
5.0475371e-08
5.0471841e-08
5.0468442e-08
5.0464976e-08
5.0461625e-08
5.0458173e-08
5.0454825e-08
5.0451857e-08
5.0450434e-08
5.0449287e-08
5.0445133e-08
5.0438736e-08
5.0433605e-08
5.0430017e-08
5.0427411e-08
5.0424283e-08
5.0419362e-08
5.0415258e-08
5.041055e-08
5.040627e-08
5.0402067e-08
5.0397394e-08
5.039264e-08
5.0387615e-08
5.038236e-08
5.0376136e-08
5.0369642e-08
5.0362842e-08
5.0354719e-08
5.0345916e-08
3.8834984e-08
5.3558273e-08
5.5458067e-08
5.544563e-08
5.5396053e-08
5.5383602e-08
5.5377667e-08
5.5372741e-08
5.5365593e-08
5.5359324e-08
5.5353758e-08
5.5348764e-08
5.5344375e-08
5.5338978e-08
5.5334305e-08
5.533027e-08
5.5327512e-08
5.5326634e-08
5.5322196e-08
5.5316721e-08
5.5312233e-08
5.5308587e-08
5.5305252e-08
5.5302071e-08
5.5298961e-08
5.5295978e-08
5.5293042e-08
5.5290236e-08
5.5287456e-08
5.5284804e-08
5.5282148e-08
5.5279634e-08
5.527709e-08
5.5274681e-08
5.527222e-08
5.5269876e-08
5.5267775e-08
5.5267204e-08
5.5267804e-08
5.5265775e-08
5.5259518e-08
5.5255159e-08
5.5252752e-08
5.525137e-08
5.5250241e-08
5.5246461e-08
5.5244181e-08
5.5240667e-08
5.5237955e-08
5.5235472e-08
5.52326e-08
5.5229615e-08
5.5226607e-08
5.5223433e-08
5.5219715e-08
5.5215209e-08
5.5211346e-08
5.5205667e-08
5.5199769e-08
5.4297323e-08
6.0643423e-08
6.1025292e-08
6.0994527e-08
6.0985337e-08
6.0981035e-08
6.0978048e-08
6.0974032e-08
6.0969706e-08
6.0966539e-08
6.0963156e-08
6.096025e-08
6.0957642e-08
6.0954099e-08
6.0951092e-08
6.0949302e-08
6.0948093e-08
6.0948045e-08
6.0944643e-08
6.0940869e-08
6.0938463e-08
6.0936547e-08
6.0934765e-08
6.0933092e-08
6.0931492e-08
6.0930006e-08
6.092859e-08
6.0927284e-08
6.092604e-08
6.0924907e-08
6.0923824e-08
6.092287e-08
6.092194e-08
6.0921141e-08
6.0920354e-08
6.0919695e-08
6.0919157e-08
6.0919457e-08
6.09218e-08
6.0922425e-08
6.0918323e-08
6.0916281e-08
6.0915724e-08
6.0916124e-08
6.0916695e-08
6.0915814e-08
6.0916156e-08
6.0915112e-08
6.0914928e-08
6.0914983e-08
6.0914909e-08
6.0914755e-08
6.0914773e-08
6.0914708e-08
6.0914612e-08
6.0913803e-08
6.0913895e-08
6.0912735e-08
6.0911686e-08
1.532031e-08
1.532004e-08
1.5319804e-08
1.5320307e-08
1.5320659e-08
1.532109e-08
1.5321515e-08
1.5321955e-08
1.5322398e-08
1.5322841e-08
1.532328e-08
1.5323714e-08
1.5324141e-08
1.5324565e-08
1.5324987e-08
1.5325409e-08
1.5325832e-08
1.5326251e-08
1.5326654e-08
1.5327027e-08
1.5327358e-08
1.5327645e-08
1.5327882e-08
1.5328066e-08
1.5328204e-08
1.5328308e-08
1.5328386e-08
1.5328443e-08
1.5328481e-08
1.5328495e-08
1.532848e-08
1.5328444e-08
1.5328402e-08
1.5328362e-08
1.5328303e-08
1.5328178e-08
1.5327957e-08
1.5327661e-08
1.5327348e-08
1.5327042e-08
1.5326649e-08
1.5325919e-08
1.5324608e-08
1.5323127e-08
1.5323952e-08
1.5333225e-08
1.5360144e-08
1.5409728e-08
1.5464542e-08
1.5455344e-08
1.5230163e-08
1.4543481e-08
1.3097584e-08
1.0675697e-08
7.3833158e-09
3.9040214e-09
1.5703127e-09
1.2983157e-09
8.2458878e-09
1.5583078e-08
1.558286e-08
1.5582913e-08
1.558336e-08
1.5583756e-08
1.5584187e-08
1.5584623e-08
1.558507e-08
1.5585518e-08
1.5585965e-08
1.5586407e-08
1.5586844e-08
1.5587274e-08
1.5587701e-08
1.5588126e-08
1.5588551e-08
1.5588977e-08
1.55894e-08
1.5589806e-08
1.559018e-08
1.5590513e-08
1.5590801e-08
1.5591039e-08
1.5591224e-08
1.5591361e-08
1.5591463e-08
1.5591539e-08
1.5591594e-08
1.559163e-08
1.5591641e-08
1.5591625e-08
1.5591586e-08
1.5591543e-08
1.5591503e-08
1.5591441e-08
1.5591313e-08
1.559109e-08
1.5590791e-08
1.5590468e-08
1.5590141e-08
1.5589714e-08
1.5588962e-08
1.5587701e-08
1.5586383e-08
1.5587339e-08
1.5596246e-08
1.562176e-08
1.5669296e-08
1.5724429e-08
1.5724686e-08
1.5527176e-08
1.4891896e-08
1.3513269e-08
1.1141843e-08
7.8305882e-09
4.228536e-09
1.6643567e-09
1.1789348e-09
7.0245954e-09
1.5875902e-08
1.5875736e-08
1.5875898e-08
1.5876332e-08
1.587675e-08
1.5877189e-08
1.5877637e-08
1.5878093e-08
1.5878549e-08
1.5879004e-08
1.5879452e-08
1.5879895e-08
1.5880329e-08
1.588076e-08
1.5881188e-08
1.5881617e-08
1.5882047e-08
1.5882475e-08
1.5882885e-08
1.5883263e-08
1.5883598e-08
1.588389e-08
1.5884131e-08
1.5884317e-08
1.5884454e-08
1.5884554e-08
1.5884628e-08
1.5884683e-08
1.588472e-08
1.5884732e-08
1.5884716e-08
1.5884677e-08
1.5884632e-08
1.5884594e-08
1.5884539e-08
1.588442e-08
1.5884202e-08
1.5883899e-08
1.5883566e-08
1.5883244e-08
1.5882867e-08
1.5882221e-08
1.5881049e-08
1.5879512e-08
1.5879346e-08
1.5885535e-08
1.5906845e-08
1.5951311e-08
1.6011521e-08
1.6036733e-08
1.5896848e-08
1.535657e-08
1.4093255e-08
1.1806637e-08
8.4726946e-09
4.6896487e-09
1.8065594e-09
1.0826889e-09
5.9099133e-09
1.6203409e-08
1.6203309e-08
1.6203584e-08
1.620401e-08
1.6204446e-08
1.6204895e-08
1.6205352e-08
1.6205817e-08
1.620628e-08
1.6206741e-08
1.6207193e-08
1.6207639e-08
1.6208077e-08
1.6208511e-08
1.6208941e-08
1.6209373e-08
1.6209807e-08
1.6210238e-08
1.6210651e-08
1.6211031e-08
1.6211368e-08
1.6211662e-08
1.6211904e-08
1.621209e-08
1.6212225e-08
1.6212322e-08
1.6212394e-08
1.6212448e-08
1.6212484e-08
1.6212497e-08
1.621248e-08
1.621244e-08
1.6212394e-08
1.6212356e-08
1.6212306e-08
1.6212197e-08
1.6211984e-08
1.6211678e-08
1.6211335e-08
1.6211005e-08
1.6210647e-08
1.6210074e-08
1.6209018e-08
1.6207481e-08
1.6206728e-08
1.6210975e-08
1.622852e-08
1.6268813e-08
1.6329989e-08
1.6372373e-08
1.6280225e-08
1.5827516e-08
1.4681116e-08
1.2493812e-08
9.1574319e-09
5.2013996e-09
1.997429e-09
1.0185127e-09
4.9940864e-09
1.6570907e-08
1.6570892e-08
1.6571243e-08
1.6571671e-08
1.657212e-08
1.6572579e-08
1.6573045e-08
1.6573518e-08
1.6573986e-08
1.6574452e-08
1.6574907e-08
1.6575356e-08
1.6575795e-08
1.657623e-08
1.6576662e-08
1.6577096e-08
1.6577532e-08
1.6577967e-08
1.6578382e-08
1.6578763e-08
1.6579101e-08
1.6579397e-08
1.657964e-08
1.6579825e-08
1.6579956e-08
1.6580049e-08
1.6580116e-08
1.6580169e-08
1.6580205e-08
1.6580219e-08
1.6580203e-08
1.6580162e-08
1.6580114e-08
1.6580077e-08
1.6580034e-08
1.6579935e-08
1.6579731e-08
1.6579424e-08
1.657907e-08
1.6578733e-08
1.6578393e-08
1.6577895e-08
1.6576962e-08
1.6575458e-08
1.6574189e-08
1.6576557e-08
1.6590199e-08
1.6625589e-08
1.6686045e-08
1.6743253e-08
1.6697602e-08
1.6335827e-08
1.5318236e-08
1.325144e-08
9.932394e-09
5.7964757e-09
2.2441682e-09
9.8235473e-10
4.1973042e-09
1.6984886e-08
1.6984968e-08
1.6985376e-08
1.6985811e-08
1.698627e-08
1.6986739e-08
1.6987213e-08
1.6987691e-08
1.6988164e-08
1.6988631e-08
1.6989089e-08
1.6989538e-08
1.6989977e-08
1.6990411e-08
1.6990842e-08
1.6991277e-08
1.6991714e-08
1.699215e-08
1.6992566e-08
1.6992947e-08
1.6993286e-08
1.6993582e-08
1.6993825e-08
1.6994007e-08
1.6994131e-08
1.6994217e-08
1.699428e-08
1.6994332e-08
1.6994367e-08
1.6994382e-08
1.6994366e-08
1.6994325e-08
1.6994275e-08
1.699424e-08
1.6994204e-08
1.6994117e-08
1.6993924e-08
1.6993619e-08
1.6993256e-08
1.6992907e-08
1.6992579e-08
1.6992144e-08
1.6991345e-08
1.698995e-08
1.6988374e-08
1.6989182e-08
1.6999074e-08
1.7028874e-08
1.7086201e-08
1.7153773e-08
1.7149624e-08
1.6877481e-08
1.5997091e-08
1.4072935e-08
1.0799053e-08
6.4880035e-09
2.5534561e-09
9.7707914e-10
3.5408571e-09
1.7453265e-08
1.7453446e-08
1.7453883e-08
1.7454329e-08
1.7454796e-08
1.7455272e-08
1.7455752e-08
1.7456233e-08
1.7456707e-08
1.7457175e-08
1.745763e-08
1.7458077e-08
1.7458513e-08
1.7458945e-08
1.7459373e-08
1.7459806e-08
1.7460243e-08
1.7460679e-08
1.7461093e-08
1.7461472e-08
1.7461809e-08
1.7462105e-08
1.7462345e-08
1.7462521e-08
1.7462637e-08
1.7462713e-08
1.746277e-08
1.746282e-08
1.7462856e-08
1.7462871e-08
1.7462856e-08
1.7462814e-08
1.7462763e-08
1.7462729e-08
1.7462701e-08
1.7462631e-08
1.7462453e-08
1.7462153e-08
1.7461782e-08
1.7461421e-08
1.7461097e-08
1.7460717e-08
1.7460049e-08
1.7458812e-08
1.7457101e-08
1.7456674e-08
1.7463095e-08
1.7486914e-08
1.7539037e-08
1.7612523e-08
1.7644126e-08
1.7458841e-08
1.6722858e-08
1.4964591e-08
1.1769969e-08
7.2997737e-09
2.9449159e-09
1.0103101e-09
2.9933959e-09
1.7985806e-08
1.7986067e-08
1.7986514e-08
1.798697e-08
1.7987442e-08
1.7987924e-08
1.7988406e-08
1.7988887e-08
1.7989358e-08
1.7989822e-08
1.7990272e-08
1.7990713e-08
1.7991142e-08
1.7991566e-08
1.7991989e-08
1.7992416e-08
1.799285e-08
1.7993283e-08
1.7993692e-08
1.7994065e-08
1.7994398e-08
1.7994691e-08
1.7994926e-08
1.7995093e-08
1.7995196e-08
1.7995258e-08
1.7995308e-08
1.7995356e-08
1.7995391e-08
1.7995408e-08
1.7995393e-08
1.7995351e-08
1.7995299e-08
1.7995266e-08
1.7995249e-08
1.7995198e-08
1.7995041e-08
1.7994751e-08
1.7994375e-08
1.7994002e-08
1.7993679e-08
1.7993342e-08
1.7992798e-08
1.7991755e-08
1.7990076e-08
1.7988786e-08
1.799218e-08
1.8009917e-08
1.805499e-08
1.8129619e-08
1.8189731e-08
1.8085756e-08
1.7498822e-08
1.5929477e-08
1.2854807e-08
8.2519581e-09
3.4390062e-09
1.0695738e-09
2.5401775e-09
1.859466e-08
1.859497e-08
1.8595423e-08
1.8595885e-08
1.8596359e-08
1.8596841e-08
1.859732e-08
1.8597796e-08
1.8598259e-08
1.8598713e-08
1.8599152e-08
1.859958e-08
1.8599996e-08
1.8600408e-08
1.8600817e-08
1.8601235e-08
1.860166e-08
1.8602085e-08
1.8602483e-08
1.8602846e-08
1.8603172e-08
1.8603459e-08
1.8603684e-08
1.8603837e-08
1.8603919e-08
1.8603965e-08
1.8604006e-08
1.860405e-08
1.8604084e-08
1.8604102e-08
1.8604089e-08
1.8604048e-08
1.8603994e-08
1.8603963e-08
1.8603959e-08
1.8603934e-08
1.8603804e-08
1.8603533e-08
1.8603156e-08
1.8602771e-08
1.8602446e-08
1.8602145e-08
1.860171e-08
1.8600877e-08
1.8599368e-08
1.8597594e-08
1.8598549e-08
1.8610468e-08
1.8647126e-08
1.8718221e-08
1.8798478e-08
1.8767337e-08
1.8329988e-08
1.6971532e-08
1.4063936e-08
9.3692544e-09
4.0624536e-09
1.1748084e-09
2.1700189e-09
1.9295152e-08
1.9295487e-08
1.9295941e-08
1.9296404e-08
1.9296874e-08
1.9297351e-08
1.929782e-08
1.9298281e-08
1.9298728e-08
1.9299163e-08
1.9299581e-08
1.9299987e-08
1.930038e-08
1.930077e-08
1.9301159e-08
1.9301558e-08
1.9301967e-08
1.9302376e-08
1.9302756e-08
1.9303101e-08
1.9303414e-08
1.9303689e-08
1.9303899e-08
1.930403e-08
1.9304084e-08
1.9304104e-08
1.9304135e-08
1.9304176e-08
1.9304208e-08
1.9304226e-08
1.9304216e-08
1.9304177e-08
1.9304123e-08
1.9304092e-08
1.9304107e-08
1.9304113e-08
1.9304021e-08
1.9303779e-08
1.930341e-08
1.9303017e-08
1.930269e-08
1.9302418e-08
1.9302077e-08
1.9301451e-08
1.9300211e-08
1.9298313e-08
1.9297523e-08
1.9304263e-08
1.9331776e-08
1.9395077e-08
1.9486268e-08
1.9516446e-08
1.9224529e-08
1.809529e-08
1.5407018e-08
1.0679646e-08
4.8552261e-09
1.3286422e-09
1.8747606e-09
2.0106863e-08
2.0107206e-08
2.0107657e-08
2.0108113e-08
2.0108571e-08
2.0109032e-08
2.0109479e-08
2.0109914e-08
2.0110331e-08
2.0110735e-08
2.0111118e-08
2.0111487e-08
2.0111844e-08
2.0112198e-08
2.0112554e-08
2.0112923e-08
2.0113305e-08
2.0113686e-08
2.0114035e-08
2.0114353e-08
2.0114645e-08
2.0114899e-08
2.0115084e-08
2.0115183e-08
2.0115195e-08
2.0115181e-08
2.0115201e-08
2.0115236e-08
2.0115266e-08
2.0115284e-08
2.0115277e-08
2.0115243e-08
2.0115192e-08
2.011516e-08
2.0115195e-08
2.0115246e-08
2.0115204e-08
2.0115008e-08
2.0114659e-08
2.0114263e-08
2.0113937e-08
2.0113696e-08
2.0113437e-08
2.0112996e-08
2.0112078e-08
2.0110361e-08
2.0108566e-08
2.0111117e-08
2.012954e-08
2.0181651e-08
2.0274297e-08
2.0351279e-08
2.019482e-08
1.9307719e-08
1.6893147e-08
1.2212817e-08
5.8702473e-09
1.5409409e-09
1.652441e-09
2.1055077e-08
2.1055423e-08
2.1055862e-08
2.1056298e-08
2.1056733e-08
2.1057161e-08
2.1057571e-08
2.1057962e-08
2.1058333e-08
2.1058685e-08
2.1059015e-08
2.1059328e-08
2.1059629e-08
2.1059929e-08
2.1060235e-08
2.1060556e-08
2.1060896e-08
2.1061231e-08
2.1061533e-08
2.106181e-08
2.1062071e-08
2.1062291e-08
2.1062441e-08
2.1062492e-08
2.106244e-08
2.106238e-08
2.106239e-08
2.1062417e-08
2.1062443e-08
2.1062458e-08
2.1062459e-08
2.106243e-08
2.1062388e-08
2.1062358e-08
2.1062419e-08
2.1062513e-08
2.1062553e-08
2.1062424e-08
2.1062118e-08
2.1061726e-08
2.1061405e-08
2.10612e-08
2.1061023e-08
2.106074e-08
2.1060147e-08
2.1058827e-08
2.1056732e-08
2.1056344e-08
2.1066575e-08
2.1105399e-08
2.1190593e-08
2.1297436e-08
2.1259772e-08
2.0620538e-08
1.8531484e-08
1.3998796e-08
7.1776919e-09
1.8297045e-09
1.5144924e-09
2.2172407e-08
2.2172777e-08
2.2173196e-08
2.2173601e-08
2.2174001e-08
2.2174382e-08
2.2174738e-08
2.2175068e-08
2.2175374e-08
2.2175653e-08
2.2175908e-08
2.2176143e-08
2.2176368e-08
2.2176593e-08
2.217683e-08
2.2177085e-08
2.2177364e-08
2.2177631e-08
2.2177866e-08
2.2178087e-08
2.2178305e-08
2.2178478e-08
2.2178581e-08
2.2178545e-08
2.2178409e-08
2.2178311e-08
2.2178299e-08
2.2178314e-08
2.2178334e-08
2.2178346e-08
2.2178359e-08
2.2178341e-08
2.2178312e-08
2.2178291e-08
2.2178382e-08
2.2178526e-08
2.2178671e-08
2.2178648e-08
2.2178415e-08
2.2178043e-08
2.2177725e-08
2.2177566e-08
2.2177488e-08
2.2177342e-08
2.2177033e-08
2.2176215e-08
2.2174399e-08
2.2172428e-08
2.217614e-08
2.2201229e-08
2.2271629e-08
2.2390164e-08
2.2447523e-08
2.2049424e-08
2.0333263e-08
1.606632e-08
8.8619237e-09
2.2705758e-09
1.4533536e-09
2.3499469e-08
2.3499893e-08
2.350029e-08
2.3500664e-08
2.3501031e-08
2.3501363e-08
2.3501662e-08
2.3501926e-08
2.350216e-08
2.3502358e-08
2.3502529e-08
2.3502673e-08
2.3502811e-08
2.3502951e-08
2.350311e-08
2.3503297e-08
2.3503508e-08
2.3503693e-08
2.3503851e-08
2.3504014e-08
2.3504188e-08
2.3504312e-08
2.3504352e-08
2.3504182e-08
2.3503961e-08
2.3503833e-08
2.3503797e-08
2.3503798e-08
2.3503813e-08
2.3503827e-08
2.3503856e-08
2.3503857e-08
2.3503852e-08
2.3503852e-08
2.3503975e-08
2.3504177e-08
2.3504417e-08
2.3504576e-08
2.3504451e-08
2.3504117e-08
2.3503779e-08
2.3503657e-08
2.3503728e-08
2.3503717e-08
2.3503614e-08
2.350328e-08
2.350211e-08
2.3499799e-08
2.3499193e-08
2.3511843e-08
2.3562645e-08
2.3675101e-08
2.3797903e-08
2.3622134e-08
2.2315333e-08
1.8445545e-08
1.1000272e-08
2.9828818e-09
1.449833e-09
9.9547059e-09
1.2044543e-08
1.427832e-08
1.6758851e-08
1.9572362e-08
2.2776761e-08
2.6408408e-08
3.0491316e-08
3.5042845e-08
4.0073205e-08
4.5580953e-08
5.1547453e-08
5.7929731e-08
6.4652845e-08
7.160062e-08
7.8607275e-08
8.5448276e-08
9.1834223e-08
9.7409915e-08
1.0175342e-07
1.0441765e-07
1.0498302e-07
1.0309076e-07
9.8437902e-08
9.0739473e-08
7.9994178e-08
6.6832268e-08
5.0997929e-08
3.4772299e-08
1.9577964e-08
6.9917122e-09
5.2069062e-10
2.1757685e-09
1.0898174e-08
2.9981252e-08
6.5615203e-08
1.1602049e-07
1.7194754e-07
2.3499536e-07
3.0719945e-07
3.8850756e-07
4.7737902e-07
5.7472979e-07
6.7488102e-07
7.7725352e-07
8.8097016e-07
9.8408804e-07
1.0843355e-06
1.1807339e-06
1.2731363e-06
1.3614503e-06
1.4457432e-06
1.525729e-06
1.6007822e-06
1.6710967e-06
1.7373718e-06
1.7998594e-06
1.8585518e-06
1.9136873e-06
1.9655689e-06
2.0141922e-06
2.0594924e-06
2.1015716e-06
2.1406117e-06
2.1768e-06
2.2103226e-06
2.2413626e-06
2.270094e-06
2.2966806e-06
2.3212689e-06
2.3440009e-06
2.3649514e-06
2.3842814e-06
2.4020154e-06
1.6375993e-09
2.0312604e-09
2.4644831e-09
2.9489353e-09
3.4874679e-09
4.0855265e-09
4.7489674e-09
5.4827455e-09
6.2904676e-09
7.1743379e-09
8.1349904e-09
9.1707335e-09
1.0276498e-08
1.1442505e-08
1.265271e-08
1.3883417e-08
1.5101683e-08
1.6264194e-08
1.7316904e-08
1.8194069e-08
1.8824385e-08
1.909267e-08
1.8893444e-08
1.8197547e-08
1.6992169e-08
1.528648e-08
1.316737e-08
1.0743338e-08
8.1605411e-09
5.6441355e-09
3.5918773e-09
1.7390647e-09
7.7379149e-10
1.232271e-09
2.8178069e-09
6.0912251e-09
1.1318781e-08
1.7894584e-08
2.5577671e-08
3.439098e-08
4.4353296e-08
5.5379074e-08
6.7552259e-08
8.0447999e-08
9.3753388e-08
1.0750436e-07
1.2155484e-07
1.3563748e-07
1.4953471e-07
1.6311063e-07
1.7628082e-07
1.8899873e-07
2.012598e-07
2.1289744e-07
2.2387204e-07
2.3421422e-07
2.4396165e-07
2.5313427e-07
2.6174283e-07
2.6982279e-07
2.7741324e-07
2.8452991e-07
2.9118809e-07
2.9740567e-07
3.0320218e-07
3.0859927e-07
3.1361777e-07
3.1828094e-07
3.226096e-07
3.2662615e-07
3.3035304e-07
3.3381262e-07
3.3700803e-07
3.4004614e-07
1.4708192e-09
1.4090315e-09
1.3660193e-09
1.3356754e-09
1.3294424e-09
1.3550737e-09
1.4166318e-09
1.5211498e-09
1.6752971e-09
1.8805033e-09
2.1359319e-09
2.4374796e-09
2.7803887e-09
3.158804e-09
3.5657563e-09
3.9931559e-09
4.4314867e-09
4.869451e-09
5.2935103e-09
5.6872794e-09
6.0322639e-09
6.3042848e-09
6.4749891e-09
6.5207384e-09
6.4245676e-09
6.1769493e-09
5.7826022e-09
5.2520784e-09
4.6014423e-09
3.8670744e-09
3.1268984e-09
2.435209e-09
1.8184219e-09
1.3622426e-09
1.235393e-09
1.4251003e-09
1.9228946e-09
2.7122498e-09
3.7833968e-09
5.1284061e-09
6.7309254e-09
8.5696159e-09
1.0634729e-08
1.2893692e-08
1.5307145e-08
1.784946e-08
2.0491626e-08
2.3200365e-08
2.5942364e-08
2.8687546e-08
3.1410233e-08
3.409026e-08
3.6704873e-08
3.9209142e-08
4.1594921e-08
4.385993e-08
4.6006271e-08
4.8033067e-08
4.9950088e-08
5.1772277e-08
5.3501467e-08
5.5138668e-08
5.6685422e-08
5.8143725e-08
5.9516075e-08
6.0805337e-08
6.2014609e-08
6.3147248e-08
6.4206687e-08
6.5196668e-08
6.6120886e-08
6.6984452e-08
6.7789669e-08
6.8544333e-08
3.2223018e-09
2.5918493e-09
2.1237697e-09
1.7986898e-09
1.5917353e-09
1.4648269e-09
1.3891289e-09
1.3353727e-09
1.3005299e-09
1.2629948e-09
1.2536826e-09
1.267839e-09
1.3105268e-09
1.385886e-09
1.4952818e-09
1.6382947e-09
1.8112518e-09
2.0092973e-09
2.2260453e-09
2.4534447e-09
2.6789864e-09
2.888043e-09
3.0713386e-09
3.2199277e-09
3.3247798e-09
3.3782295e-09
3.3747592e-09
3.3149047e-09
3.2030507e-09
3.0398308e-09
2.8304949e-09
2.592753e-09
2.3383486e-09
2.0697125e-09
1.8307604e-09
1.6598263e-09
1.5305812e-09
1.5351063e-09
1.5961224e-09
1.71941e-09
1.9005361e-09
2.1377526e-09
2.4330376e-09
2.7814757e-09
3.177002e-09
3.6133601e-09
4.0835635e-09
4.5805396e-09
5.0974531e-09
5.6278141e-09
6.1656156e-09
6.705503e-09
7.2424352e-09
7.771619e-09
8.2893102e-09
8.7925139e-09
9.2788399e-09
9.7465117e-09
1.0194538e-08
1.062241e-08
1.1029796e-08
1.1416655e-08
1.1783172e-08
1.2129684e-08
1.2456643e-08
1.2764593e-08
1.305415e-08
1.3325991e-08
1.3580822e-08
1.3819385e-08
1.4042459e-08
1.4250439e-08
1.4443904e-08
1.4624562e-08
6.3414351e-09
5.2060991e-09
4.2339865e-09
3.434172e-09
2.8008598e-09
2.3139342e-09
1.9588642e-09
1.7100056e-09
1.5253765e-09
1.4028478e-09
1.3231767e-09
1.2721735e-09
1.2368583e-09
1.2129593e-09
1.1873667e-09
1.1813666e-09
1.1905067e-09
1.2183491e-09
1.2667529e-09
1.3369479e-09
1.4342498e-09
1.5525942e-09
1.6847069e-09
1.8186694e-09
1.9436351e-09
2.0540912e-09
2.1458667e-09
2.2156495e-09
2.2619195e-09
2.2835676e-09
2.2795321e-09
2.2514662e-09
2.2002359e-09
2.1307526e-09
2.0477206e-09
1.9574363e-09
1.8631599e-09
1.7832584e-09
1.7199409e-09
1.6781645e-09
1.6418112e-09
1.6344682e-09
1.6402415e-09
1.6573256e-09
1.6854603e-09
1.723941e-09
1.7718495e-09
1.8280569e-09
1.8913535e-09
1.9605073e-09
2.034306e-09
2.1116028e-09
2.1912799e-09
2.2723189e-09
2.3538769e-09
2.4352099e-09
2.5156461e-09
2.5946152e-09
2.6716695e-09
2.746442e-09
2.8186254e-09
2.8879951e-09
2.9544029e-09
3.0177591e-09
3.0780188e-09
3.1351771e-09
3.1892587e-09
3.2403154e-09
3.2884168e-09
3.333654e-09
3.3761219e-09
3.4159289e-09
3.4531998e-09
3.4880129e-09
9.5460556e-09
8.2115904e-09
6.9539073e-09
5.8228704e-09
4.838243e-09
4.0042598e-09
3.3178223e-09
2.7719725e-09
2.3367813e-09
2.0006488e-09
1.7455259e-09
1.5580886e-09
1.4254669e-09
1.3251228e-09
1.2570524e-09
1.2119586e-09
1.183876e-09
1.1628243e-09
1.1483192e-09
1.1328807e-09
1.1308349e-09
1.138684e-09
1.163154e-09
1.2069453e-09
1.2666805e-09
1.3377748e-09
1.4164957e-09
1.4933254e-09
1.5632286e-09
1.623873e-09
1.6740811e-09
1.7131224e-09
1.74106e-09
1.7578432e-09
1.7642282e-09
1.7610119e-09
1.7511359e-09
1.7301939e-09
1.7055748e-09
1.6839498e-09
1.6642244e-09
1.6468864e-09
1.6320705e-09
1.622305e-09
1.6144684e-09
1.60764e-09
1.6027588e-09
1.5998877e-09
1.5988836e-09
1.599554e-09
1.6017077e-09
1.6052076e-09
1.6097495e-09
1.6150958e-09
1.6210722e-09
1.6275342e-09
1.6343512e-09
1.641406e-09
1.6486033e-09
1.6558594e-09
1.6630958e-09
1.6702463e-09
1.677259e-09
1.6840926e-09
1.6907149e-09
1.697101e-09
1.7032328e-09
1.7090981e-09
1.7146892e-09
1.7200031e-09
1.7250378e-09
1.729792e-09
1.7342742e-09
1.7384797e-09
1.2106571e-08
1.0858381e-08