/*--------------------------------*- C++ -*----------------------------------*\
| =========                 |                                                 |
| \\      /  F ield         | OpenFOAM: The Open Source CFD Toolbox           |
|  \\    /   O peration     | Version:  v2006                                 |
|   \\  /    A nd           | Website:  www.openfoam.com                      |
|    \\/     M anipulation  |                                                 |
\*---------------------------------------------------------------------------*/
FoamFile
{
    version     2.0;
    format      ascii;
    class       volScalarField;
    location    "8000";
    object      nut;
}
// * * * * * * * * * * * * * * * * * * * * * * * * * * * * * * * * * * * * * //

dimensions      [0 2 -1 0 0 0 0];


internalField   nonuniform List<scalar> 
55713
(
2.7453716e-10
2.8786344e-09
2.8915724e-08
6.9337796e-08
8.9619472e-08
9.5668803e-08
9.5899734e-08
9.5048343e-08
9.4486515e-08
9.4280977e-08
9.4247575e-08
9.4259322e-08
9.4270639e-08
9.4274813e-08
9.4275293e-08
9.4275275e-08
9.4275073e-08
9.4274651e-08
9.4275344e-08
9.4277163e-08
9.4278692e-08
9.4278934e-08
9.427818e-08
9.4277266e-08
9.42765e-08
9.4276062e-08
9.4276023e-08
9.4275925e-08
9.4275817e-08
9.4275602e-08
9.4275407e-08
9.4275144e-08
9.4274925e-08
9.4274724e-08
9.427479e-08
9.4275443e-08
9.4276032e-08
9.4275721e-08
9.4274932e-08
9.4273823e-08
9.4272767e-08
9.4271799e-08
9.4270845e-08
9.4269767e-08
9.4268731e-08
9.4267715e-08
9.4266747e-08
9.4265774e-08
9.4264832e-08
9.4263819e-08
9.4262794e-08
9.4261704e-08
9.4260606e-08
9.4259473e-08
9.425838e-08
9.425727e-08
9.4256187e-08
9.4255019e-08
9.4253765e-08
3.3409856e-10
4.176462e-09
3.5947044e-08
7.618604e-08
9.3057312e-08
9.6973394e-08
9.6593733e-08
9.5764089e-08
9.5333238e-08
9.5208001e-08
9.5201507e-08
9.5215245e-08
9.5223055e-08
9.5224607e-08
9.5223973e-08
9.5223564e-08
9.5222905e-08
9.5222056e-08
9.5222607e-08
9.5224457e-08
9.5225598e-08
9.5224962e-08
9.5223763e-08
9.5222514e-08
9.5221405e-08
9.5220726e-08
9.5220335e-08
9.5219908e-08
9.521944e-08
9.5218908e-08
9.5218362e-08
9.521778e-08
9.5217199e-08
9.5216644e-08
9.5216295e-08
9.5216617e-08
9.5217153e-08
9.521656e-08
9.5215425e-08
9.5213932e-08
9.5212434e-08
9.5211087e-08
9.5209762e-08
9.5208305e-08
9.5206839e-08
9.5205407e-08
9.5203993e-08
9.5202586e-08
9.5201184e-08
9.5199699e-08
9.5198159e-08
9.5196541e-08
9.5194855e-08
9.5193098e-08
9.5191324e-08
9.5189494e-08
9.5187608e-08
9.5185572e-08
9.5183344e-08
4.1898126e-10
5.874223e-09
4.344081e-08
8.2300004e-08
9.5731862e-08
9.8038733e-08
9.7314632e-08
9.6571864e-08
9.6262042e-08
9.619643e-08
9.6204702e-08
9.6217072e-08
9.6221198e-08
9.6220489e-08
9.621933e-08
9.6218574e-08
9.6217474e-08
9.6216391e-08
9.6216933e-08
9.6218552e-08
9.621892e-08
9.6217739e-08
9.621615e-08
9.6214554e-08
9.6213154e-08
9.6212242e-08
9.6211529e-08
9.6210775e-08
9.6209972e-08
9.6209124e-08
9.6208265e-08
9.6207365e-08
9.6206464e-08
9.6205563e-08
9.6204831e-08
9.6204781e-08
9.6205281e-08
9.6204487e-08
9.6203051e-08
9.6201183e-08
9.6199272e-08
9.619755e-08
9.6195905e-08
9.6194093e-08
9.6192224e-08
9.6190388e-08
9.6188569e-08
9.6186758e-08
9.6184944e-08
9.6183028e-08
9.6181031e-08
9.6178934e-08
9.6176723e-08
9.6174397e-08
9.617201e-08
9.616953e-08
9.6166927e-08
9.616411e-08
9.6160993e-08
5.4145838e-10
8.1943854e-09
5.1584493e-08
8.7808914e-08
9.7965051e-08
9.8986986e-08
9.808922e-08
9.7477156e-08
9.7276026e-08
9.72519e-08
9.7265918e-08
9.7274367e-08
9.7274964e-08
9.7273276e-08
9.7271811e-08
9.7270648e-08
9.7269079e-08
9.7267853e-08
9.7268491e-08
9.7269768e-08
9.7269423e-08
9.7267717e-08
9.7265751e-08
9.7263844e-08
9.7262204e-08
9.7261076e-08
9.7260055e-08
9.7259009e-08
9.7257895e-08
9.725677e-08
9.7255617e-08
9.7254434e-08
9.725323e-08
9.7252021e-08
9.7250925e-08
9.7250485e-08
9.7250933e-08
9.7250076e-08
9.7248367e-08
9.724616e-08
9.7243844e-08
9.7241767e-08
9.7239848e-08
9.7237737e-08
9.7235489e-08
9.7233271e-08
9.7231072e-08
9.7228894e-08
9.722671e-08
9.7224412e-08
9.7222007e-08
9.7219488e-08
9.7216805e-08
9.7213963e-08
9.7211013e-08
9.7207945e-08
9.7204687e-08
9.7201164e-08
9.7197229e-08
7.1903042e-10
1.1285022e-08
6.0082422e-08
9.2558716e-08
9.9793384e-08
9.9874435e-08
9.8950959e-08
9.8488847e-08
9.8374305e-08
9.8374773e-08
9.838795e-08
9.8391527e-08
9.8390176e-08
9.8388078e-08
9.838631e-08
9.8384691e-08
9.8382642e-08
9.8381397e-08
9.8382177e-08
9.8383045e-08
9.8381954e-08
9.83798e-08
9.8377486e-08
9.8375315e-08
9.8373494e-08
9.8372156e-08
9.8370853e-08
9.8369542e-08
9.8368159e-08
9.8366782e-08
9.8365364e-08
9.8363924e-08
9.8362461e-08
9.8360982e-08
9.8359567e-08
9.8358724e-08
9.8359055e-08
9.835833e-08
9.8356369e-08
9.8353862e-08
9.8351155e-08
9.8348738e-08
9.8346594e-08
9.8344254e-08
9.8341666e-08
9.8339097e-08
9.833656e-08
9.8334065e-08
9.8331568e-08
9.8328954e-08
9.8326204e-08
9.8323333e-08
9.8320252e-08
9.8316966e-08
9.8313524e-08
9.8309953e-08
9.8306129e-08
9.8302005e-08
9.8297355e-08
9.7880776e-10
1.534075e-08
6.8659255e-08
9.6140325e-08
1.0131912e-07
1.0076397e-07
9.9924375e-08
9.9609554e-08
9.9556632e-08
9.9568214e-08
9.9576436e-08
9.9576668e-08
9.9574302e-08
9.9572028e-08
9.9569961e-08
9.956786e-08
9.9565299e-08
9.956418e-08
9.9565146e-08
9.9565526e-08
9.956373e-08
9.9561182e-08
9.9558552e-08
9.9556186e-08
9.9554239e-08
9.9552715e-08
9.9551148e-08
9.9549618e-08
9.9547989e-08
9.9546414e-08
9.9544759e-08
9.9543117e-08
9.9541422e-08
9.9539726e-08
9.9538036e-08
9.9536824e-08
9.9536915e-08
9.953654e-08
9.9534361e-08
9.9531606e-08
9.9528527e-08
9.9525786e-08
9.9523471e-08
9.9520998e-08
9.9518128e-08
9.9515251e-08
9.9512421e-08
9.9509664e-08
9.950692e-08
9.9504064e-08
9.9501044e-08
9.94979e-08
9.9494509e-08
9.9490866e-08
9.9487017e-08
9.9483041e-08
9.9478756e-08
9.9474149e-08
9.9468906e-08
1.363311e-09
2.0574259e-08
7.6915319e-08
9.90221e-08
1.0256058e-07
1.0169571e-07
1.0102781e-07
1.008396e-07
1.008247e-07
1.0083678e-07
1.0084014e-07
1.0083821e-07
1.0083547e-07
1.0083314e-07
1.0083083e-07
1.0082818e-07
1.0082511e-07
1.0082426e-07
1.0082547e-07
1.0082523e-07
1.0082286e-07
1.0081994e-07
1.0081708e-07
1.0081457e-07
1.0081256e-07
1.0081085e-07
1.0080909e-07
1.0080736e-07
1.0080555e-07
1.0080381e-07
1.0080198e-07
1.0080016e-07
1.007983e-07
1.0079643e-07
1.0079455e-07
1.0079302e-07
1.007928e-07
1.0079284e-07
1.007906e-07
1.0078764e-07
1.0078422e-07
1.0078116e-07
1.0077875e-07
1.0077626e-07
1.0077319e-07
1.0077006e-07
1.0076701e-07
1.0076405e-07
1.0076114e-07
1.0075813e-07
1.0075493e-07
1.0075161e-07
1.0074802e-07
1.0074413e-07
1.0073997e-07
1.0073571e-07
1.0073109e-07
1.0072616e-07
1.0072047e-07
1.9452349e-09
2.7210596e-08
8.5015486e-08
1.0204427e-07
1.0365683e-07
1.0274017e-07
1.0227343e-07
1.0217739e-07
1.0218232e-07
1.0218962e-07
1.0218907e-07
1.0218601e-07
1.0218326e-07
1.0218095e-07
1.0217842e-07
1.0217521e-07
1.0217164e-07
1.0217134e-07
1.0217273e-07
1.0217177e-07
1.0216894e-07
1.021657e-07
1.0216269e-07
1.0216015e-07
1.021581e-07
1.0215626e-07
1.0215434e-07
1.021525e-07
1.0215054e-07
1.0214869e-07
1.0214673e-07
1.0214482e-07
1.0214285e-07
1.0214088e-07
1.0213887e-07
1.021371e-07
1.0213655e-07
1.0213698e-07
1.0213494e-07
1.0213181e-07
1.0212808e-07
1.0212473e-07
1.0212227e-07
1.0211991e-07
1.0211675e-07
1.0211345e-07
1.0211025e-07
1.0210717e-07
1.0210422e-07
1.0210116e-07
1.0209789e-07
1.020945e-07
1.0209082e-07
1.0208684e-07
1.0208249e-07
1.020781e-07
1.020733e-07
1.0206821e-07
1.0206226e-07
2.8711466e-09
3.5461994e-08
9.2219983e-08
1.0433723e-07
1.0476605e-07
1.0395968e-07
1.0366365e-07
1.0362623e-07
1.0363551e-07
1.0363783e-07
1.0363498e-07
1.0363159e-07
1.0362901e-07
1.0362673e-07
1.0362402e-07
1.0362029e-07
1.0361637e-07
1.0361691e-07
1.0361826e-07
1.0361655e-07
1.036133e-07
1.0360986e-07
1.0360685e-07
1.036044e-07
1.0360234e-07
1.0360043e-07
1.0359842e-07
1.0359653e-07
1.035945e-07
1.0359262e-07
1.0359058e-07
1.0358866e-07
1.0358663e-07
1.0358464e-07
1.0358258e-07
1.035807e-07
1.0357987e-07
1.0358052e-07
1.0357909e-07
1.0357583e-07
1.0357179e-07
1.0356822e-07
1.0356575e-07
1.0356372e-07
1.0356058e-07
1.0355722e-07
1.03554e-07
1.035509e-07
1.0354802e-07
1.0354505e-07
1.0354182e-07
1.035385e-07
1.0353489e-07
1.0353099e-07
1.0352661e-07
1.0352227e-07
1.0351749e-07
1.0351247e-07
1.0350648e-07
4.4761672e-09
4.5480911e-08
9.8585294e-08
1.0633194e-07
1.0599215e-07
1.0535859e-07
1.05196e-07
1.0519108e-07
1.0519747e-07
1.0519572e-07
1.0519169e-07
1.051884e-07
1.0518608e-07
1.0518378e-07
1.0518099e-07
1.0517696e-07
1.0517301e-07
1.0517462e-07
1.051755e-07
1.0517307e-07
1.0516947e-07
1.0516604e-07
1.051632e-07
1.0516097e-07
1.0515894e-07
1.0515705e-07
1.0515504e-07
1.0515317e-07
1.0515116e-07
1.0514933e-07
1.051473e-07
1.0514547e-07
1.0514345e-07
1.0514156e-07
1.0513954e-07
1.0513769e-07
1.0513664e-07
1.0513738e-07
1.0513699e-07
1.0513367e-07
1.0512933e-07
1.0512565e-07
1.0512326e-07
1.0512166e-07
1.0511878e-07
1.0511545e-07
1.051124e-07
1.0510936e-07
1.0510672e-07
1.0510399e-07
1.0510099e-07
1.0509789e-07
1.0509452e-07
1.0509094e-07
1.0508672e-07
1.0508265e-07
1.0507814e-07
1.0507343e-07
1.050677e-07
7.1855247e-09
5.7290646e-08
1.0383396e-07
1.0810202e-07
1.0738068e-07
1.0694737e-07
1.0687531e-07
1.0688267e-07
1.0688359e-07
1.0687955e-07
1.0687516e-07
1.068722e-07
1.0687017e-07
1.068677e-07
1.0686512e-07
1.0686127e-07
1.068578e-07
1.0686038e-07
1.0686033e-07
1.0685724e-07
1.068535e-07
1.0685038e-07
1.0684793e-07
1.0684597e-07
1.0684407e-07
1.0684227e-07
1.0684038e-07
1.0683863e-07
1.0683676e-07
1.0683507e-07
1.0683319e-07
1.0683152e-07
1.0682964e-07
1.0682796e-07
1.0682609e-07
1.0682441e-07
1.068233e-07
1.0682414e-07
1.0682485e-07
1.0682196e-07
1.0681722e-07
1.0681356e-07
1.0681144e-07
1.0681031e-07
1.0680802e-07
1.0680483e-07
1.0680221e-07
1.0679932e-07
1.0679713e-07
1.0679481e-07
1.0679223e-07
1.0678957e-07
1.0678666e-07
1.0678364e-07
1.0677988e-07
1.067763e-07
1.067724e-07
1.067683e-07
1.067632e-07
1.1051506e-08
7.0821792e-08
1.0728833e-07
1.0970433e-07
1.0897352e-07
1.0872998e-07
1.0870792e-07
1.0871495e-07
1.0871188e-07
1.0870737e-07
1.0870301e-07
1.0870064e-07
1.0869887e-07
1.0869622e-07
1.0869416e-07
1.0869126e-07
1.0868867e-07
1.0869186e-07
1.0869082e-07
1.0868715e-07
1.0868358e-07
1.086811e-07
1.0867918e-07
1.0867754e-07
1.0867587e-07
1.0867431e-07
1.0867267e-07
1.0867119e-07
1.0866958e-07
1.0866816e-07
1.0866657e-07
1.0866521e-07
1.0866363e-07
1.0866228e-07
1.0866071e-07
1.0865937e-07
1.086583e-07
1.0865928e-07
1.0866111e-07
1.0865959e-07
1.0865419e-07
1.0865061e-07
1.0864903e-07
1.0864833e-07
1.0864712e-07
1.086441e-07
1.0864228e-07
1.0863961e-07
1.0863813e-07
1.0863647e-07
1.0863452e-07
1.0863253e-07
1.0863034e-07
1.0862817e-07
1.0862525e-07
1.0862243e-07
1.0861954e-07
1.0861637e-07
1.0861233e-07
1.6820877e-08
8.6011017e-08
1.0959811e-07
1.1120889e-07
1.107915e-07
1.1070254e-07
1.1070039e-07
1.1070246e-07
1.1069852e-07
1.1069509e-07
1.1069096e-07
1.1068967e-07
1.106884e-07
1.1068563e-07
1.106841e-07
1.1068275e-07
1.1068132e-07
1.1068493e-07
1.1068317e-07
1.1067913e-07
1.1067622e-07
1.106745e-07
1.1067313e-07
1.1067189e-07
1.1067062e-07
1.1066947e-07
1.1066826e-07
1.106672e-07
1.1066605e-07
1.1066505e-07
1.1066394e-07
1.1066303e-07
1.1066195e-07
1.1066108e-07
1.1066002e-07
1.1065917e-07
1.1065839e-07
1.1065935e-07
1.1066218e-07
1.1066309e-07
1.1065691e-07
1.1065359e-07
1.1065288e-07
1.1065261e-07
1.1065272e-07
1.1065003e-07
1.1064944e-07
1.1064709e-07
1.1064668e-07
1.1064577e-07
1.1064473e-07
1.1064365e-07
1.1064248e-07
1.1064139e-07
1.1063975e-07
1.1063795e-07
1.1063647e-07
1.1063462e-07
1.1063213e-07
2.4877969e-08
1.0253392e-07
1.1276987e-07
1.1294103e-07
1.1284753e-07
1.128423e-07
1.1284317e-07
1.1284185e-07
1.1283947e-07
1.1283852e-07
1.128347e-07
1.1283514e-07
1.1283518e-07
1.1283266e-07
1.1283121e-07
1.1283178e-07
1.1283261e-07
1.1283588e-07
1.1283312e-07
1.1282939e-07
1.1282787e-07
1.1282707e-07
1.128264e-07
1.1282579e-07
1.1282518e-07
1.1282465e-07
1.128241e-07
1.1282364e-07
1.1282316e-07
1.1282278e-07
1.1282235e-07
1.1282205e-07
1.1282167e-07
1.1282143e-07
1.128211e-07
1.1282091e-07
1.1282065e-07
1.128209e-07
1.1282419e-07
1.1282652e-07
1.1282156e-07
1.1281989e-07
1.1281961e-07
1.1282006e-07
1.1282037e-07
1.1281939e-07
1.1282003e-07
1.1281891e-07
1.1281948e-07
1.1281957e-07
1.1281954e-07
1.1281958e-07
1.1281961e-07
1.1281975e-07
1.1281964e-07
1.128193e-07
1.1281936e-07
1.1281922e-07
1.1281877e-07
8.5583731e-08
8.5582584e-08
8.5581786e-08
8.5582991e-08
8.5583737e-08
8.5584684e-08
8.5585582e-08
8.5586521e-08
8.558746e-08
8.5588414e-08
8.5589355e-08
8.5590299e-08
8.559124e-08
8.5592205e-08
8.55932e-08
8.559424e-08
8.5595315e-08
8.5596391e-08
8.5597396e-08
8.5598273e-08
8.5599002e-08
8.5599593e-08
8.5600034e-08
8.5600302e-08
8.5600403e-08
8.5600397e-08
8.5600356e-08
8.5600334e-08
8.5600339e-08
8.5600346e-08
8.5600332e-08
8.5600333e-08
8.5600432e-08
8.5600668e-08
8.5600914e-08
8.5600924e-08
8.560053e-08
8.559984e-08
8.5599162e-08
8.5598601e-08
8.5597485e-08
8.5594078e-08
8.5586698e-08
8.5578546e-08
8.5587871e-08
8.5659214e-08
8.5858939e-08
8.6225281e-08
8.6642286e-08
8.6632788e-08
8.5120554e-08
8.0286983e-08
6.9462715e-08
5.0762189e-08
2.7114962e-08
8.6722315e-09
1.5854747e-09
4.0927449e-10
5.3357933e-10
8.5874496e-08
8.5873552e-08
8.5873557e-08
8.5874594e-08
8.5875441e-08
8.5876368e-08
8.5877279e-08
8.5878221e-08
8.5879159e-08
8.5880111e-08
8.5881049e-08
8.5881989e-08
8.5882927e-08
8.5883887e-08
8.5884878e-08
8.5885913e-08
8.588698e-08
8.5888044e-08
8.5889036e-08
8.58899e-08
8.5890621e-08
8.5891212e-08
8.5891653e-08
8.5891919e-08
8.5892011e-08
8.5891994e-08
8.5891945e-08
8.5891921e-08
8.5891923e-08
8.5891927e-08
8.5891912e-08
8.5891915e-08
8.5892018e-08
8.5892256e-08
8.5892495e-08
8.5892495e-08
8.5892099e-08
8.5891408e-08
8.5890695e-08
8.5890017e-08
8.5888701e-08
8.5885201e-08
8.5878282e-08
8.5871343e-08
8.588137e-08
8.5949205e-08
8.6136942e-08
8.6485601e-08
8.6901827e-08
8.6960875e-08
8.5659212e-08
8.1208345e-08
7.1077091e-08
5.2975207e-08
2.9152146e-08
9.6611821e-09
1.7411768e-09
3.8465689e-10
4.7942837e-10
8.6194238e-08
8.619349e-08
8.619379e-08
8.619478e-08
8.6195666e-08
8.6196599e-08
8.6197521e-08
8.6198472e-08
8.6199416e-08
8.6200372e-08
8.6201311e-08
8.6202251e-08
8.6203186e-08
8.6204143e-08
8.6205127e-08
8.6206155e-08
8.6207213e-08
8.6208272e-08
8.6209256e-08
8.6210117e-08
8.6210838e-08
8.6211434e-08
8.621188e-08
8.6212145e-08
8.6212226e-08
8.6212195e-08
8.6212135e-08
8.6212107e-08
8.6212107e-08
8.6212112e-08
8.6212094e-08
8.6212089e-08
8.6212178e-08
8.6212416e-08
8.6212679e-08
8.621272e-08
8.6212343e-08
8.6211626e-08
8.6210866e-08
8.6210245e-08
8.6209292e-08
8.620656e-08
8.620029e-08
8.6191795e-08
8.619371e-08
8.6241676e-08
8.6397771e-08
8.6719954e-08
8.7162557e-08
8.7384568e-08
8.6487085e-08
8.2767407e-08
7.3662049e-08
5.6418913e-08
3.2298035e-08
1.1189561e-08
1.9891915e-09
3.7239206e-10
4.2658139e-10
8.6546499e-08
8.6546005e-08
8.6546595e-08
8.6547546e-08
8.6548463e-08
8.6549401e-08
8.6550331e-08
8.6551288e-08
8.6552234e-08
8.655319e-08
8.6554126e-08
8.6555062e-08
8.6555989e-08
8.655694e-08
8.6557916e-08
8.6558935e-08
8.6559983e-08
8.6561032e-08
8.6562006e-08
8.6562858e-08
8.6563576e-08
8.6564176e-08
8.6564623e-08
8.6564883e-08
8.6564949e-08
8.65649e-08
8.6564827e-08
8.6564796e-08
8.6564794e-08
8.65648e-08
8.6564779e-08
8.6564768e-08
8.6564847e-08
8.6565083e-08
8.6565365e-08
8.6565442e-08
8.6565091e-08
8.656436e-08
8.6563544e-08
8.6562894e-08
8.6562096e-08
8.6559902e-08
8.6554488e-08
8.6546002e-08
8.6543639e-08
8.6577373e-08
8.6705444e-08
8.699457e-08
8.7436586e-08
8.776853e-08
8.7200091e-08
8.412836e-08
7.6019714e-08
5.9760518e-08
3.5599909e-08
1.2923549e-08
2.3139177e-09
3.6955443e-10
3.8229267e-10
8.6935246e-08
8.6935052e-08
8.6935822e-08
8.6936761e-08
8.6937693e-08
8.6938639e-08
8.6939573e-08
8.6940534e-08
8.6941479e-08
8.6942432e-08
8.6943362e-08
8.6944291e-08
8.6945209e-08
8.6946152e-08
8.6947116e-08
8.6948125e-08
8.6949161e-08
8.6950199e-08
8.695116e-08
8.6952004e-08
8.6952718e-08
8.6953323e-08
8.695377e-08
8.6954022e-08
8.6954066e-08
8.6953995e-08
8.6953908e-08
8.6953876e-08
8.6953874e-08
8.6953882e-08
8.6953858e-08
8.6953839e-08
8.6953904e-08
8.6954139e-08
8.6954441e-08
8.6954562e-08
8.6954245e-08
8.6953508e-08
8.6952636e-08
8.6951953e-08
8.6951298e-08
8.6949634e-08
8.6945115e-08
8.6936872e-08
8.6930809e-08
8.6951019e-08
8.7050586e-08
8.730209e-08
8.7731511e-08
8.8154629e-08
8.7900852e-08
8.5486114e-08
7.8428199e-08
6.3312225e-08
3.9330817e-08
1.5013499e-08
2.7423367e-09
3.770117e-10
3.4170673e-10
8.7365203e-08
8.7365284e-08
8.7366188e-08
8.7367131e-08
8.7368068e-08
8.736902e-08
8.7369956e-08
8.7370915e-08
8.7371855e-08
8.7372803e-08
8.7373724e-08
8.7374643e-08
8.737555e-08
8.737648e-08
8.7377431e-08
8.7378427e-08
8.7379448e-08
8.7380473e-08
8.7381418e-08
8.7382251e-08
8.7382962e-08
8.738357e-08
8.7384016e-08
8.7384254e-08
8.738427e-08
8.7384171e-08
8.738407e-08
8.7384036e-08
8.7384036e-08
8.7384046e-08
8.738402e-08
8.7383994e-08
8.7384044e-08
8.7384273e-08
8.7384597e-08
8.7384767e-08
8.7384496e-08
8.7383761e-08
8.7382835e-08
8.7382092e-08
8.7381518e-08
8.7380301e-08
8.7376724e-08
8.7369258e-08
8.7360984e-08
8.7370069e-08
8.7442704e-08
8.7652789e-08
8.8053826e-08
8.8536349e-08
8.8557351e-08
8.6773673e-08
8.0779569e-08
6.6972541e-08
4.3440262e-08
1.7510144e-08
3.2977612e-09
3.9761542e-10
3.0745184e-10
8.7841873e-08
8.7842217e-08
8.7843179e-08
8.7844132e-08
8.784507e-08
8.7846022e-08
8.7846955e-08
8.7847909e-08
8.7848843e-08
8.784978e-08
8.785069e-08
8.7851596e-08
8.7852489e-08
8.7853404e-08
8.7854338e-08
8.7855317e-08
8.7856322e-08
8.7857329e-08
8.7858255e-08
8.7859075e-08
8.7859783e-08
8.7860393e-08
8.7860834e-08
8.7861051e-08
8.7861031e-08
8.7860898e-08
8.7860783e-08
8.7860749e-08
8.7860752e-08
8.7860763e-08
8.7860737e-08
8.7860703e-08
8.7860736e-08
8.7860958e-08
8.7861304e-08
8.786153e-08
8.7861317e-08
8.7860597e-08
8.7859621e-08
8.7858803e-08
8.7858262e-08
8.7857407e-08
8.7854731e-08
8.7848364e-08
8.7839093e-08
8.7839441e-08
8.7887548e-08
8.8054499e-08
8.8414058e-08
8.8924865e-08
8.9175906e-08
8.7990558e-08
8.3006747e-08
7.0720654e-08
4.7948939e-08
2.0511043e-08
4.0270499e-09
4.3702418e-10
2.7802054e-10
8.8371788e-08
8.8372341e-08
8.8373316e-08
8.8374273e-08
8.8375208e-08
8.8376154e-08
8.8377081e-08
8.8378023e-08
8.8378946e-08
8.8379869e-08
8.8380763e-08
8.8381653e-08
8.8382528e-08
8.8383424e-08
8.8384337e-08
8.8385295e-08
8.8386278e-08
8.8387262e-08
8.8388163e-08
8.8388965e-08
8.8389669e-08
8.8390281e-08
8.8390711e-08
8.8390899e-08
8.8390831e-08
8.8390657e-08
8.8390528e-08
8.8390496e-08
8.8390502e-08
8.8390517e-08
8.839049e-08
8.8390448e-08
8.8390462e-08
8.8390672e-08
8.839104e-08
8.8391332e-08
8.8391191e-08
8.8390503e-08
8.8389484e-08
8.8388581e-08
8.8388025e-08
8.8387437e-08
8.8385577e-08
8.8380519e-08
8.8371401e-08
8.8365646e-08
8.8392662e-08
8.8516808e-08
8.8823987e-08
8.9331217e-08
8.9756177e-08
8.9113871e-08
8.5220832e-08
7.4493021e-08
5.2836348e-08
2.4100447e-08
4.9869675e-09
4.9295854e-10
2.5309963e-10
8.8962731e-08
8.8963399e-08
8.8964378e-08
8.8965335e-08
8.8966258e-08
8.8967192e-08
8.8968105e-08
8.8969032e-08
8.8969935e-08
8.8970839e-08
8.8971709e-08
8.8972576e-08
8.8973424e-08
8.8974295e-08
8.8975178e-08
8.8976107e-08
8.897706e-08
8.8978014e-08
8.8978881e-08
8.8979663e-08
8.898036e-08
8.8980969e-08
8.898138e-08
8.8981527e-08
8.8981396e-08
8.8981173e-08
8.8981031e-08
8.8981005e-08
8.8981013e-08
8.8981032e-08
8.8981005e-08
8.8980958e-08
8.8980949e-08
8.8981141e-08
8.8981533e-08
8.8981902e-08
8.898185e-08
8.8981215e-08
8.8980164e-08
8.897917e-08
8.8978563e-08
8.8978148e-08
8.8976971e-08
8.8973268e-08
8.8965224e-08
8.8955975e-08
8.8966172e-08
8.9050213e-08
8.9297628e-08
8.9771937e-08
9.0313734e-08
9.0141262e-08
8.728745e-08
7.8237959e-08
5.8065789e-08
2.8370819e-08
6.2542737e-09
5.7818579e-10
2.3264032e-10
8.9623997e-08
8.9624737e-08
8.9625714e-08
8.9626658e-08
8.9627564e-08
8.9628478e-08
8.9629369e-08
8.9630271e-08
8.9631147e-08
8.9632021e-08
8.9632858e-08
8.963369e-08
8.9634502e-08
8.9635337e-08
8.9636181e-08
8.9637072e-08
8.9637986e-08
8.9638898e-08
8.9639721e-08
8.9640476e-08
8.9641163e-08
8.9641763e-08
8.9642146e-08
8.9642235e-08
8.964202e-08
8.9641736e-08
8.9641588e-08
8.9641569e-08
8.9641582e-08
8.9641603e-08
8.9641579e-08
8.9641527e-08
8.9641496e-08
8.9641651e-08
8.9642081e-08
8.9642534e-08
8.9642594e-08
8.964204e-08
8.9640976e-08
8.9639887e-08
8.9639201e-08
8.9638875e-08
8.9638208e-08
8.9635785e-08
8.9629439e-08
8.9619074e-08
8.961727e-08
8.9666257e-08
8.9850916e-08
9.026643e-08
9.0864023e-08
9.1077511e-08
8.9200065e-08
8.1849788e-08
6.3571929e-08
3.3410474e-08
7.9405426e-09
6.9951345e-10
2.168929e-10
9.036694e-08
9.0367711e-08
9.0368669e-08
9.0369591e-08
9.0370468e-08
9.037135e-08
9.0372206e-08
9.037307e-08
9.0373903e-08
9.0374731e-08
9.0375519e-08
9.0376301e-08
9.0377063e-08
9.0377847e-08
9.0378638e-08
9.0379478e-08
9.0380341e-08
9.0381196e-08
9.0381961e-08
9.0382682e-08
9.0383355e-08
9.0383937e-08
9.0384277e-08
9.0384287e-08
9.0383961e-08
9.0383596e-08
9.0383457e-08
9.0383448e-08
9.0383464e-08
9.0383489e-08
9.0383467e-08
9.0383414e-08
9.0383365e-08
9.0383471e-08
9.0383919e-08
9.0384486e-08
9.0384684e-08
9.0384248e-08
9.0383198e-08
9.0382014e-08
9.0381226e-08
9.0380931e-08
9.038061e-08
9.0379237e-08
9.0374871e-08
9.0365331e-08
9.035644e-08
9.0377429e-08
9.050147e-08
9.083918e-08
9.1431898e-08
9.1928532e-08
9.0933174e-08
8.5115798e-08
6.9260685e-08
3.9287504e-08
1.0198526e-08
8.688173e-10
2.0691327e-10
9.1205282e-08
9.1206059e-08
9.1206986e-08
9.1207862e-08
9.12087e-08
9.1209526e-08
9.1210335e-08
9.1211137e-08
9.1211915e-08
9.1212672e-08
9.1213396e-08
9.1214104e-08
9.1214801e-08
9.1215511e-08
9.121624e-08
9.1217005e-08
9.1217805e-08
9.1218578e-08
9.1219279e-08
9.1219953e-08
9.1220615e-08
9.1221158e-08
9.1221447e-08
9.1221347e-08
9.122086e-08
9.12204e-08
9.1220295e-08
9.1220295e-08
9.122032e-08
9.1220341e-08
9.1220333e-08
9.1220274e-08
9.1220218e-08
9.1220263e-08
9.1220735e-08
9.122137e-08
9.1221787e-08
9.1221507e-08
9.1220522e-08
9.1219239e-08
9.121833e-08
9.1218019e-08
9.1217929e-08
9.1217316e-08
9.1214808e-08
9.1207421e-08
9.1195943e-08
9.1197284e-08
9.1267861e-08
9.1517821e-08
9.205213e-08
9.2711727e-08
9.2455413e-08
8.8354754e-08
7.4991825e-08
4.6028867e-08
1.3236849e-08
1.10446e-09
2.0586075e-10
9.2155074e-08
9.215588e-08
9.215678e-08
9.2157599e-08
9.215838e-08
9.2159136e-08
9.2159882e-08
9.216061e-08
9.2161316e-08
9.2161987e-08
9.2162629e-08
9.2163245e-08
9.216386e-08
9.2164485e-08
9.2165136e-08
9.2165811e-08
9.2166528e-08
9.2167204e-08
9.2167829e-08
9.216846e-08
9.2169109e-08
9.2169602e-08
9.2169833e-08
9.2169515e-08
9.2168835e-08
9.2168362e-08
9.2168267e-08
9.2168276e-08
9.2168306e-08
9.2168324e-08
9.2168337e-08
9.2168276e-08
9.2168216e-08
9.216821e-08
9.2168684e-08
9.2169367e-08
9.2170033e-08
9.2169997e-08
9.2169137e-08
9.2167767e-08
9.2166681e-08
9.2166326e-08
9.2166415e-08
9.2166281e-08
9.2165195e-08
9.2160558e-08
9.2150024e-08
9.214037e-08
9.2168864e-08
9.2331117e-08
9.2767593e-08
9.3482937e-08
9.3789046e-08
9.1236823e-08
8.0635171e-08
5.3595442e-08
1.7324574e-08
1.4635284e-09
2.1507811e-10
9.3232793e-08
9.3233737e-08
9.323462e-08
9.3235382e-08
9.3236112e-08
9.3236806e-08
9.32375e-08
9.323816e-08
9.3238798e-08
9.3239381e-08
9.3239941e-08
9.3240456e-08
9.3240986e-08
9.324152e-08
9.3242097e-08
9.3242705e-08
9.3243348e-08
9.324392e-08
9.3244483e-08
9.32451e-08
9.3245757e-08
9.3246213e-08
9.3246353e-08
9.3245676e-08
9.3244859e-08
9.3244432e-08
9.3244351e-08
9.3244356e-08
9.3244395e-08
9.324441e-08
9.3244454e-08
9.3244397e-08
9.3244357e-08
9.3244313e-08
9.3244764e-08
9.3245476e-08
9.3246283e-08
9.3246719e-08
9.3246047e-08
9.3244602e-08
9.3243216e-08
9.3242731e-08
9.3243073e-08
9.3243184e-08
9.3242922e-08
9.3240893e-08
9.3233477e-08
9.3220494e-08
9.3220974e-08
9.3305525e-08
9.3619445e-08
9.4289633e-08
9.4978561e-08
9.3785289e-08
8.5939681e-08
6.1870029e-08
2.2768021e-08
2.0423436e-09
2.3427481e-10
5.8445625e-10
6.1115267e-10
6.2696055e-10
6.3769681e-10
6.4633978e-10
6.5378884e-10
6.5998937e-10
6.6463567e-10
6.6746199e-10
6.6827022e-10
6.6688084e-10
6.6310159e-10
6.5670304e-10
6.4741343e-10
6.3491274e-10
6.1884771e-10
5.9884088e-10
5.7451859e-10
5.4555358e-10
5.1167942e-10
4.7288026e-10
4.2950543e-10
3.8221917e-10
3.3181185e-10
2.7898118e-10
2.2506738e-10
1.7264405e-10
1.2135856e-10
7.6479303e-11
3.9930628e-11
1.326712e-11
9.2222725e-13
3.6085358e-12
1.6978716e-11
4.4012784e-11
9.103909e-11
1.5259361e-10
2.1499427e-10
2.8011292e-10
3.500341e-10
4.2426481e-10
5.008838e-10
5.8078808e-10
6.5835849e-10
7.3355862e-10
8.0608422e-10
8.7471384e-10
9.3806068e-10
9.9594004e-10
1.0488324e-09
1.0971803e-09
1.1414768e-09
1.1818682e-09
1.2181991e-09
1.2509064e-09
1.2807424e-09
1.3080643e-09
1.3330046e-09
1.3558448e-09
1.3768825e-09
1.3961769e-09
1.4137327e-09
1.4296585e-09
1.4441037e-09
1.4572101e-09
1.4691086e-09
1.4799207e-09
1.4897549e-09
1.4987081e-09
1.5068622e-09
1.514293e-09
1.521032e-09
1.5271629e-09
1.5326825e-09
4.4330334e-10
4.667571e-10
4.8819718e-10
5.0855274e-10
5.2648314e-10
5.4163889e-10
5.5404543e-10
5.6380045e-10
5.7099367e-10
5.7570721e-10
5.7801464e-10
5.7795287e-10
5.7549606e-10
5.705464e-10
5.6292397e-10
5.5239068e-10
5.3864711e-10
5.2137347e-10
5.0025049e-10
4.7497681e-10
4.4541101e-10
4.1070812e-10
3.706584e-10
3.2664541e-10
2.8000501e-10
2.3201744e-10
1.8469633e-10
1.3974104e-10
9.8761494e-11
6.3779142e-11
3.7990452e-11
1.7269508e-11
7.2405678e-12
1.0893136e-11
2.3606648e-11
4.8488711e-11
8.5710355e-11
1.2916105e-10
1.7649228e-10
2.2745337e-10
2.8178476e-10
3.3867937e-10
3.9860083e-10
4.5914461e-10
5.1884282e-10
5.7756319e-10
6.3465013e-10
6.8914491e-10
7.4041899e-10
7.8826368e-10
8.326963e-10
8.7387899e-10
9.1201751e-10
9.4692744e-10
9.7876281e-10
1.0078365e-09
1.0344444e-09
1.058807e-09
1.0811162e-09
1.1015879e-09
1.1203994e-09
1.1376731e-09
1.153519e-09
1.1680436e-09
1.1813499e-09
1.1935369e-09
1.2046968e-09
1.2149175e-09
1.2242794e-09
1.2328569e-09
1.2407217e-09
1.2479324e-09
1.2545464e-09
1.2605848e-09
1.3344748e-09
1.1101633e-09
9.3077655e-10
7.8749146e-10
6.7974328e-10
6.0257332e-10
5.49501e-10
5.161747e-10
4.9865763e-10
4.9223148e-10
4.9284564e-10
4.9694283e-10
5.0201901e-10
5.0630206e-10
5.0858758e-10
5.0811111e-10
5.0439884e-10
4.9716798e-10
4.8623305e-10
4.7144554e-10
4.5273656e-10
4.2985692e-10
4.0252901e-10
3.7096007e-10
3.3575095e-10
2.9770297e-10
2.5803415e-10
2.1785867e-10
1.7813722e-10
1.4029126e-10
1.0667291e-10
7.8392974e-11
5.5443268e-11
3.9466672e-11
3.4118079e-11
3.76265e-11
4.8639042e-11
6.5852481e-11
8.8359813e-11
1.1544868e-10
1.463315e-10
1.8023974e-10
2.1676238e-10
2.5512335e-10
2.9449603e-10
3.3433905e-10
3.741547e-10
4.1343769e-10
4.5173407e-10
4.8869115e-10
5.2406304e-10
5.5770675e-10
5.8949209e-10
6.1914706e-10
6.4671202e-10
6.7226971e-10
6.9594557e-10
7.1782831e-10
7.3809827e-10
7.5694584e-10
7.744614e-10
7.9072483e-10
8.0581285e-10
8.197992e-10
8.3275534e-10
8.4474998e-10
8.5584859e-10
8.6611386e-10
8.7560452e-10
8.8437815e-10
8.9248681e-10
8.999885e-10
9.0693161e-10
9.1334192e-10
6.5294266e-09
4.6389641e-09
3.3323191e-09
2.4649958e-09
1.9019953e-09
1.5257553e-09
1.2622503e-09
1.0601705e-09
9.0392562e-10
7.702625e-10
6.7250379e-10
5.9967425e-10
5.4793746e-10
5.1351346e-10
4.922807e-10
4.8051361e-10
4.7458601e-10
4.7168692e-10
4.6959826e-10
4.6658432e-10
4.6082082e-10
4.5092191e-10
4.3688496e-10
4.1889378e-10
3.9719838e-10
3.7216723e-10
3.4431086e-10
3.1459766e-10
2.8401792e-10
2.529856e-10
2.2203331e-10
1.9247821e-10
1.6495748e-10
1.3927632e-10
1.1794857e-10
1.0273292e-10
9.1273802e-11
8.8424493e-11
8.9018425e-11
9.3053457e-11
1.0000759e-10
1.095745e-10
1.2168093e-10
1.3593979e-10
1.5194091e-10
1.6929948e-10
1.8765456e-10
2.0667448e-10
2.26059e-10
2.4554228e-10
2.6489724e-10
2.8393602e-10
3.0250348e-10
3.2046081e-10
3.3770747e-10
3.5417458e-10
3.6982048e-10
3.8462505e-10
3.9859046e-10
4.1173376e-10
4.2407772e-10
4.3565054e-10
4.4648364e-10
4.5661007e-10
4.660639e-10
4.7487958e-10
4.8309149e-10
4.907337e-10
4.9783948e-10
5.0444108e-10
5.1057086e-10
5.1624948e-10
5.2151046e-10
5.2637009e-10
2.188851e-08
1.6409268e-08
1.2033309e-08
8.7183567e-09
6.305786e-09
4.5956493e-09
3.4203727e-09
2.6205746e-09
2.0510206e-09
1.6562615e-09
1.3738088e-09
1.1639489e-09
9.9958092e-10
8.681103e-10
7.5460744e-10
6.6857238e-10
6.0170093e-10
5.5157799e-10
5.1530258e-10
4.9026339e-10
4.7572403e-10
4.6747013e-10
4.6218467e-10
4.5640003e-10
4.4803771e-10
4.3681365e-10
4.2283623e-10
4.0640397e-10
3.8800287e-10
3.680648e-10
3.4681691e-10
3.2477134e-10
3.0222434e-10
2.7984741e-10
2.5815588e-10
2.3774726e-10
2.1872677e-10
2.0293446e-10
1.9024511e-10
1.8086553e-10
1.7278868e-10
1.6830402e-10
1.6554974e-10
1.6421682e-10
1.6417012e-10
1.6525418e-10
1.6732882e-10
1.7024937e-10
1.7387222e-10
1.7806047e-10
1.8268803e-10
1.8764071e-10
1.9281661e-10
1.981262e-10
2.0349262e-10
2.0885044e-10
2.1414505e-10
2.1933265e-10
2.2437935e-10
2.2925895e-10
2.339517e-10
2.384441e-10
2.4272774e-10
2.4679811e-10
2.5065389e-10
2.5429639e-10
2.577289e-10
2.6095643e-10
2.6398509e-10
2.6682215e-10
2.6947529e-10
2.7195235e-10
2.7426438e-10
2.76408e-10
4.3977637e-08
3.5873246e-08
2.8405906e-08
2.1960582e-08
1.6655493e-08
1.2458098e-08
9.2537549e-09
6.88835e-09
5.1520865e-09
3.9042175e-09
3.0123923e-09
2.3787694e-09
1.9277067e-09
1.5903589e-09
1.3420643e-09
1.1541111e-09
1.0084541e-09
8.8874209e-10
7.8998095e-10
7.0383864e-10
6.3668324e-10
5.8309195e-10
5.4378826e-10
5.1720144e-10
4.996234e-10
4.8780561e-10
4.7962224e-10
4.7170982e-10
4.628272e-10
4.5278996e-10
4.4165883e-10
4.2955157e-10
4.1675467e-10
4.0336069e-10
3.8960433e-10
3.7564938e-10
3.6199243e-10
3.4761527e-10
3.3393825e-10
3.2208863e-10
3.1163938e-10
3.0251262e-10
2.94589e-10
2.8819965e-10
2.8265769e-10
2.7770425e-10
2.7344744e-10
2.6985221e-10
2.6685106e-10
2.6437324e-10
2.623551e-10
2.6074609e-10
2.5947679e-10
2.584917e-10
2.5774309e-10
2.571912e-10
2.5680294e-10
2.5655013e-10
2.5640869e-10
2.5635819e-10
2.563811e-10
2.5646235e-10
2.5658902e-10
2.5675007e-10
2.5693623e-10
2.5713968e-10
2.5735399e-10
2.5757383e-10
2.5779491e-10
2.5801378e-10
2.5822751e-10
2.584338e-10
2.5863083e-10
2.5881738e-10
6.3667607e-08
5.5841781e-08