/*--------------------------------*- C++ -*----------------------------------*\
| =========                 |                                                 |
| \\      /  F ield         | OpenFOAM: The Open Source CFD Toolbox           |
|  \\    /   O peration     | Version:  v2006                                 |
|   \\  /    A nd           | Website:  www.openfoam.com                      |
|    \\/     M anipulation  |                                                 |
\*---------------------------------------------------------------------------*/
FoamFile
{
    version     2.0;
    format      ascii;
    class       volScalarField;
    location    "8000";
    object      nutMean;
}
// * * * * * * * * * * * * * * * * * * * * * * * * * * * * * * * * * * * * * //

dimensions      [0 2 -1 0 0 0 0];


internalField   nonuniform List<scalar> 
55713
(
3.164865e-10
2.9344616e-09
2.8941237e-08
6.9334535e-08
8.9601167e-08
9.5652793e-08
9.5891089e-08
9.5044457e-08
9.4484471e-08
9.4279502e-08
9.4246107e-08
9.4257605e-08
9.4268727e-08
9.4273019e-08
9.4273674e-08
9.4273724e-08
9.4273803e-08
9.4274014e-08
9.4274298e-08
9.4274474e-08
9.4274395e-08
9.4274146e-08
9.4273855e-08
9.4273576e-08
9.4273346e-08
9.4273227e-08
9.4273158e-08
9.4273062e-08
9.4272918e-08
9.4272728e-08
9.4272514e-08
9.4272284e-08
9.427207e-08
9.4271959e-08
9.4272095e-08
9.4272601e-08
9.4272655e-08
9.4272181e-08
9.4271376e-08
9.4270427e-08
9.4269533e-08
9.4268722e-08
9.4267836e-08
9.4266809e-08
9.4265734e-08
9.4264689e-08
9.4263682e-08
9.4262718e-08
9.4261786e-08
9.4260857e-08
9.425989e-08
9.4258866e-08
9.4257787e-08
9.4256697e-08
9.4255615e-08
9.4254547e-08
9.4253492e-08
9.4252364e-08
9.425111e-08
3.8024681e-10
4.2344584e-09
3.5983097e-08
7.6182953e-08
9.3038063e-08
9.6958978e-08
9.6586864e-08
9.5761059e-08
9.5331483e-08
9.5206615e-08
9.5200042e-08
9.5213484e-08
9.52212e-08
9.5222974e-08
9.5222706e-08
9.5222353e-08
9.5222045e-08
9.522186e-08
9.5221775e-08
9.5221547e-08
9.5221039e-08
9.5220368e-08
9.5219704e-08
9.5219064e-08
9.52185e-08
9.5218051e-08
9.5217642e-08
9.5217202e-08
9.5216724e-08
9.5216199e-08
9.5215651e-08
9.521508e-08
9.5214512e-08
9.5214026e-08
9.521378e-08
9.5214044e-08
9.521389e-08
9.5213091e-08
9.5211937e-08
9.5210605e-08
9.5209321e-08
9.5208153e-08
9.5206932e-08
9.5205529e-08
9.520404e-08
9.5202566e-08
9.5201117e-08
9.5199695e-08
9.5198292e-08
9.5196878e-08
9.519541e-08
9.5193852e-08
9.5192195e-08
9.5190477e-08
9.5188722e-08
9.5186923e-08
9.5185071e-08
9.5183072e-08
9.5180855e-08
4.7031999e-10
5.9437218e-09
4.3487394e-08
8.2293445e-08
9.5712194e-08
9.8026391e-08
9.7309385e-08
9.6569459e-08
9.6260468e-08
9.6195086e-08
9.6203184e-08
9.6215233e-08
9.6219345e-08
9.6219163e-08
9.6218453e-08
9.6217747e-08
9.6217042e-08
9.6216474e-08
9.6216008e-08
9.6215355e-08
9.621442e-08
9.6213374e-08
9.6212358e-08
9.621138e-08
9.6210502e-08
9.6209738e-08
9.6209003e-08
9.6208236e-08
9.6207439e-08
9.6206599e-08
9.6205734e-08
9.6204844e-08
9.6203947e-08
9.6203103e-08
9.6202484e-08
9.6202476e-08
9.6202193e-08
9.6201108e-08
9.6199628e-08
9.6197933e-08
9.6196273e-08
9.619477e-08
9.619325e-08
9.6191513e-08
9.6189638e-08
9.6187765e-08
9.618591e-08
9.6184065e-08
9.6182228e-08
9.6180371e-08
9.6178447e-08
9.6176409e-08
9.6174229e-08
9.617194e-08
9.6169577e-08
9.616712e-08
9.6164552e-08
9.6161772e-08
9.6158671e-08
5.9936042e-10
8.2763696e-09
5.1629106e-08
8.7797218e-08
9.7946157e-08
9.8977005e-08
9.8085376e-08
9.7475182e-08
9.7274588e-08
9.7250578e-08
9.7264282e-08
9.7272407e-08
9.7273274e-08
9.7272275e-08
9.72713e-08
9.7270205e-08
9.7269106e-08
9.7268199e-08
9.7267378e-08
9.7266321e-08
9.7264992e-08
9.7263596e-08
9.7262253e-08
9.7260966e-08
9.7259806e-08
9.725875e-08
9.7257713e-08
9.7256646e-08
9.7255556e-08
9.7254427e-08
9.7253272e-08
9.7252091e-08
9.7250894e-08
9.7249728e-08
9.7248753e-08
9.724845e-08
9.7248105e-08
9.7246787e-08
9.7245014e-08
9.7242982e-08
9.7240963e-08
9.7239145e-08
9.7237367e-08
9.7235347e-08
9.7233123e-08
9.7230884e-08
9.7228658e-08
9.7226427e-08
9.7224195e-08
9.7221933e-08
9.7219596e-08
9.7217127e-08
9.7214478e-08
9.7211669e-08
9.7208751e-08
9.7205696e-08
9.7202473e-08
9.7198985e-08
9.7195074e-08
7.8512625e-10
1.1376352e-08
6.0118986e-08
9.2543096e-08
9.9776211e-08
9.986679e-08
9.894821e-08
9.8487118e-08
9.8372945e-08
9.8373379e-08
9.8386092e-08
9.8389587e-08
9.8388714e-08
9.8387397e-08
9.8386104e-08
9.8384603e-08
9.8383145e-08
9.8381947e-08
9.8380793e-08
9.8379348e-08
9.8377653e-08
9.8375939e-08
9.8374301e-08
9.8372743e-08
9.8371332e-08
9.837001e-08
9.8368698e-08
9.836736e-08
9.8366007e-08
9.8364619e-08
9.8363207e-08
9.8361767e-08
9.8360306e-08
9.8358858e-08
9.8357559e-08
9.8356942e-08
9.8356571e-08
9.8355117e-08
9.8353089e-08
9.8350753e-08
9.8348399e-08
9.8346285e-08
9.8344297e-08
9.834206e-08
9.8339537e-08
9.8336971e-08
9.8334424e-08
9.8331856e-08
9.832928e-08
9.8326665e-08
9.8323972e-08
9.8321138e-08
9.8318092e-08
9.8314834e-08
9.8311434e-08
9.8307867e-08
9.8304076e-08
9.8299984e-08
9.8295366e-08
1.0552979e-09
1.5441217e-08
6.8687088e-08
9.6122871e-08
1.013043e-07
1.0075847e-07
9.9922416e-08
9.9607923e-08
9.9555305e-08
9.956658e-08
9.957449e-08
9.9574854e-08
9.9573135e-08
9.9571633e-08
9.9569972e-08
9.9568082e-08
9.9566326e-08
9.9564887e-08
9.9563424e-08
9.9561615e-08
9.9559593e-08
9.9557598e-08
9.9555705e-08
9.9553922e-08
9.9552297e-08
9.9550741e-08
9.954919e-08
9.9547618e-08
9.9546039e-08
9.9544428e-08
9.9542798e-08
9.9541139e-08
9.9539455e-08
9.9537769e-08
9.9536197e-08
9.9535266e-08
9.9534853e-08
9.953341e-08
9.9531175e-08
9.9528575e-08
9.9525914e-08
9.9523527e-08
9.9521378e-08
9.9519005e-08
9.9516245e-08
9.9513402e-08
9.9510592e-08
9.9507746e-08
9.9504886e-08
9.9501983e-08
9.9498999e-08
9.9495876e-08
9.9492521e-08
9.9488898e-08
9.94851e-08
9.9481122e-08
9.9476866e-08
9.947229e-08
9.9467084e-08
1.4533248e-09
2.0681891e-08
7.6938364e-08
9.9002579e-08
1.0254862e-07
1.0169209e-07
1.0102636e-07
1.00838e-07
1.0082329e-07
1.008349e-07
1.0083823e-07
1.0083668e-07
1.0083467e-07
1.0083299e-07
1.0083094e-07
1.008287e-07
1.0082673e-07
1.008251e-07
1.0082336e-07
1.0082122e-07
1.0081891e-07
1.0081668e-07
1.0081459e-07
1.0081263e-07
1.0081083e-07
1.0080908e-07
1.0080734e-07
1.0080558e-07
1.0080382e-07
1.0080203e-07
1.0080023e-07
1.007984e-07
1.0079654e-07
1.0079467e-07
1.0079288e-07
1.0079167e-07
1.0079116e-07
1.0078991e-07
1.0078753e-07
1.0078472e-07
1.0078179e-07
1.0077915e-07
1.007769e-07
1.0077449e-07
1.0077157e-07
1.0076851e-07
1.0076551e-07
1.0076246e-07
1.0075939e-07
1.0075628e-07
1.0075309e-07
1.0074977e-07
1.0074621e-07
1.0074233e-07
1.0073823e-07
1.0073397e-07
1.0072938e-07
1.0072446e-07
1.0071882e-07
2.0541664e-09
2.7321404e-08
8.5018882e-08
1.0202293e-07
1.0364807e-07
1.0273795e-07
1.0227226e-07
1.0217581e-07
1.0218067e-07
1.0218752e-07
1.021874e-07
1.0218489e-07
1.0218288e-07
1.0218097e-07
1.0217856e-07
1.0217604e-07
1.0217393e-07
1.0217218e-07
1.0217018e-07
1.0216776e-07
1.0216522e-07
1.0216282e-07
1.0216059e-07
1.0215853e-07
1.021566e-07
1.0215471e-07
1.0215282e-07
1.0215093e-07
1.0214904e-07
1.0214713e-07
1.0214521e-07
1.0214327e-07
1.021413e-07
1.0213931e-07
1.0213737e-07
1.0213591e-07
1.021353e-07
1.0213437e-07
1.0213199e-07
1.0212902e-07
1.0212587e-07
1.0212303e-07
1.021207e-07
1.0211839e-07
1.0211542e-07
1.0211222e-07
1.0210912e-07
1.0210595e-07
1.0210277e-07
1.0209955e-07
1.0209625e-07
1.0209283e-07
1.020892e-07
1.0208521e-07
1.0208094e-07
1.0207654e-07
1.0207177e-07
1.020667e-07
1.0206079e-07
3.0059159e-09
3.5568995e-08
9.2214387e-08
1.0431987e-07
1.0476039e-07
1.0395832e-07
1.0366264e-07
1.0362454e-07
1.0363353e-07
1.0363564e-07
1.0363376e-07
1.0363096e-07
1.0362905e-07
1.0362687e-07
1.0362415e-07
1.0362144e-07
1.036193e-07
1.036175e-07
1.0361529e-07
1.0361263e-07
1.0360993e-07
1.0360744e-07
1.0360517e-07
1.0360307e-07
1.0360107e-07
1.0359909e-07
1.0359713e-07
1.0359517e-07
1.0359322e-07
1.0359126e-07
1.035893e-07
1.0358731e-07
1.0358531e-07
1.0358328e-07
1.0358128e-07
1.0357965e-07
1.0357895e-07
1.0357836e-07
1.0357623e-07
1.0357318e-07
1.0356987e-07
1.0356686e-07
1.0356452e-07
1.0356243e-07
1.0355956e-07
1.0355631e-07
1.0355322e-07
1.0355005e-07
1.0354687e-07
1.0354368e-07
1.0354039e-07
1.0353702e-07
1.0353346e-07
1.0352954e-07
1.0352525e-07
1.035209e-07
1.0351614e-07
1.0351113e-07
1.0350519e-07
4.6341693e-09
4.5574941e-08
9.8573177e-08
1.0631879e-07
1.0598881e-07
1.0535774e-07
1.0519512e-07
1.0518911e-07
1.0519514e-07
1.0519366e-07
1.0519112e-07
1.0518835e-07
1.0518658e-07
1.0518414e-07
1.0518119e-07
1.0517843e-07
1.0517637e-07
1.0517463e-07
1.0517224e-07
1.0516941e-07
1.0516664e-07
1.0516419e-07
1.0516196e-07
1.0515989e-07
1.0515789e-07
1.0515592e-07
1.0515398e-07
1.0515204e-07
1.0515011e-07
1.0514818e-07
1.0514626e-07
1.0514432e-07
1.0514238e-07
1.0514041e-07
1.0513844e-07
1.0513675e-07
1.0513597e-07
1.0513575e-07
1.051342e-07
1.0513116e-07
1.0512775e-07
1.0512467e-07
1.0512237e-07
1.0512062e-07
1.0511804e-07
1.0511486e-07
1.0511194e-07
1.051089e-07
1.0510588e-07
1.0510287e-07
1.0509975e-07
1.050966e-07
1.050933e-07
1.0508967e-07
1.0508555e-07
1.0508147e-07
1.05077e-07
1.0507229e-07
1.0506661e-07
7.3458572e-09
5.7365412e-08
1.0382028e-07
1.0809336e-07
1.0737898e-07
1.0694678e-07
1.0687447e-07
1.0688025e-07
1.0688107e-07
1.0687783e-07
1.068755e-07
1.0687285e-07
1.0687127e-07
1.0686863e-07
1.068656e-07
1.0686296e-07
1.0686115e-07
1.0685955e-07
1.0685701e-07
1.0685409e-07
1.0685142e-07
1.0684914e-07
1.0684708e-07
1.0684513e-07
1.0684324e-07
1.0684138e-07
1.0683955e-07
1.0683773e-07
1.0683594e-07
1.0683415e-07
1.0683238e-07
1.068306e-07
1.0682883e-07
1.0682703e-07
1.0682524e-07
1.0682362e-07
1.0682281e-07
1.0682294e-07
1.0682231e-07
1.0681951e-07
1.0681603e-07
1.0681299e-07
1.0681084e-07
1.0680953e-07
1.0680752e-07
1.0680454e-07
1.0680198e-07
1.0679925e-07
1.0679654e-07
1.0679395e-07
1.067912e-07
1.0678847e-07
1.0678563e-07
1.0678256e-07
1.0677891e-07
1.0677534e-07
1.0677149e-07
1.0676737e-07
1.0676232e-07
1.122006e-08
7.0879571e-08
1.0727609e-07
1.0969937e-07
1.0897283e-07
1.0872955e-07
1.0870717e-07
1.0871231e-07
1.087096e-07
1.0870626e-07
1.0870464e-07
1.0870209e-07
1.0870086e-07
1.0869807e-07
1.0869522e-07
1.0869294e-07
1.0869158e-07
1.086902e-07
1.0868754e-07
1.086847e-07
1.0868236e-07
1.0868042e-07
1.0867864e-07
1.0867693e-07
1.0867527e-07
1.0867366e-07
1.0867208e-07
1.0867053e-07
1.08669e-07
1.086675e-07
1.0866601e-07
1.0866453e-07
1.0866307e-07
1.086616e-07
1.0866013e-07
1.0865876e-07
1.0865804e-07
1.086585e-07
1.0865898e-07
1.0865683e-07
1.0865337e-07
1.086505e-07
1.0864868e-07
1.0864783e-07
1.0864674e-07
1.0864412e-07
1.0864219e-07
1.0863995e-07
1.0863777e-07
1.0863584e-07
1.086337e-07
1.0863164e-07
1.0862952e-07
1.0862729e-07
1.086245e-07
1.0862169e-07
1.0861888e-07
1.0861567e-07
1.0861167e-07
1.6970095e-08
8.604531e-08
1.0959124e-07
1.1120673e-07
1.1079118e-07
1.1070221e-07
1.1069966e-07
1.1070019e-07
1.1069698e-07
1.1069455e-07
1.1069383e-07
1.1069146e-07
1.1069074e-07
1.1068811e-07
1.1068577e-07
1.1068418e-07
1.1068345e-07
1.1068233e-07
1.1067977e-07
1.1067736e-07
1.106756e-07
1.1067416e-07
1.1067281e-07
1.1067152e-07
1.1067028e-07
1.1066909e-07
1.1066793e-07
1.1066681e-07
1.1066572e-07
1.1066466e-07
1.1066363e-07
1.1066262e-07
1.1066164e-07
1.1066067e-07
1.1065971e-07
1.1065882e-07
1.106584e-07
1.1065907e-07
1.1066061e-07
1.1065962e-07
1.1065648e-07
1.1065398e-07
1.1065267e-07
1.1065237e-07
1.106524e-07
1.1065036e-07
1.1064938e-07
1.1064787e-07
1.1064642e-07
1.106454e-07
1.1064417e-07
1.1064303e-07
1.1064191e-07
1.1064077e-07
1.1063922e-07
1.106375e-07
1.1063609e-07
1.106342e-07
1.1063174e-07
2.4946655e-08
1.0254422e-07
1.1276812e-07
1.1294077e-07
1.1284756e-07
1.1284203e-07
1.1284269e-07
1.1284146e-07
1.1283935e-07
1.1283827e-07
1.1283826e-07
1.1283652e-07
1.1283619e-07
1.1283453e-07
1.1283316e-07
1.1283257e-07
1.1283246e-07
1.128318e-07
1.1282996e-07
1.1282857e-07
1.1282772e-07
1.12827e-07
1.1282632e-07
1.1282568e-07
1.1282509e-07
1.1282454e-07
1.1282402e-07
1.1282354e-07
1.1282309e-07
1.1282267e-07
1.1282228e-07
1.1282193e-07
1.1282161e-07
1.1282131e-07
1.1282104e-07
1.1282081e-07
1.1282083e-07
1.1282142e-07
1.128234e-07
1.1282365e-07
1.1282167e-07
1.1282024e-07
1.1281977e-07
1.1282005e-07
1.1282061e-07
1.1282e-07
1.1282013e-07
1.1281965e-07
1.1281933e-07
1.1281934e-07
1.1281932e-07
1.128193e-07
1.1281936e-07
1.1281945e-07
1.1281939e-07
1.1281915e-07
1.1281928e-07
1.1281908e-07
1.1281867e-07
8.5579999e-08
8.5578171e-08
8.5576952e-08
8.5578219e-08
8.5578896e-08
8.5579796e-08
8.5580652e-08
8.5581545e-08
8.558246e-08
8.5583386e-08
8.558431e-08
8.5585225e-08
8.5586135e-08
8.5587049e-08
8.5587978e-08
8.5588921e-08
8.558987e-08
8.5590817e-08
8.5591749e-08
8.5592654e-08
8.5593518e-08
8.5594311e-08
8.5594956e-08
8.5595367e-08
8.5595514e-08
8.5595462e-08
8.5595335e-08
8.5595241e-08
8.559521e-08
8.5595209e-08
8.5595193e-08
8.5595143e-08
8.5595075e-08
8.5595009e-08
8.5594932e-08
8.55948e-08
8.5594567e-08
8.5594226e-08
8.5593819e-08
8.5593322e-08
8.5592203e-08
8.5588946e-08
8.558194e-08
8.5574336e-08
8.5584421e-08
8.5656832e-08
8.5857693e-08
8.6224148e-08
8.6638034e-08
8.6619345e-08
8.5090008e-08
8.0232362e-08
6.9384472e-08
5.0676502e-08
2.7052126e-08
8.6651442e-09
1.6701915e-09
4.8893466e-10
6.6039012e-10
8.5870593e-08
8.5869021e-08
8.5868781e-08
8.5869821e-08
8.5870628e-08
8.58715e-08
8.5872376e-08
8.5873275e-08
8.5874195e-08
8.5875121e-08
8.5876043e-08
8.5876954e-08
8.5877859e-08
8.5878769e-08
8.5879694e-08
8.5880634e-08
8.5881582e-08
8.5882528e-08
8.588346e-08
8.5884361e-08
8.588522e-08
8.5886006e-08
8.5886641e-08
8.5887039e-08
8.5887173e-08
8.5887108e-08
8.5886975e-08
8.5886881e-08
8.588685e-08
8.5886845e-08
8.5886822e-08
8.5886765e-08
8.5886691e-08
8.5886621e-08
8.588654e-08
8.5886407e-08
8.5886183e-08
8.5885859e-08
8.588545e-08
8.5884865e-08
8.5883549e-08
8.5880183e-08
8.5873624e-08
8.5867219e-08
8.5877947e-08
8.5946687e-08
8.6135313e-08
8.6483936e-08
8.6897397e-08
8.6948568e-08
8.5632156e-08
8.1161656e-08
7.1007414e-08
5.289832e-08
2.9098225e-08
9.6566998e-09
1.8171255e-09
4.549312e-10
5.9215653e-10
8.6190321e-08
8.6188952e-08
8.6189082e-08
8.6190052e-08
8.6190909e-08
8.6191785e-08
8.6192676e-08
8.6193586e-08
8.6194513e-08
8.6195445e-08
8.6196369e-08
8.6197281e-08
8.6198185e-08
8.6199093e-08
8.6200016e-08
8.6200955e-08
8.6201903e-08
8.6202849e-08
8.6203779e-08
8.6204675e-08
8.6205529e-08
8.620631e-08
8.620694e-08
8.6207333e-08
8.6207459e-08
8.6207385e-08
8.6207246e-08
8.6207151e-08
8.6207119e-08
8.6207113e-08
8.6207089e-08
8.620703e-08
8.6206954e-08
8.6206883e-08
8.620681e-08
8.6206692e-08
8.6206482e-08
8.6206165e-08
8.6205765e-08
8.6205272e-08
8.6204303e-08
8.6201656e-08
8.6195694e-08
8.618767e-08
8.6190179e-08
8.6238907e-08
8.6395822e-08
8.6718206e-08
8.7158897e-08
8.7374763e-08
8.6465021e-08
8.2726886e-08
7.3601672e-08
5.6350721e-08
3.2250051e-08
1.1185448e-08
2.0548117e-09
4.3488894e-10
5.2558025e-10
8.6542567e-08
8.6541476e-08
8.6541968e-08
8.6542884e-08
8.6543779e-08
8.6544659e-08
8.6545562e-08
8.654648e-08
8.6547412e-08
8.6548346e-08
8.6549268e-08
8.6550176e-08
8.6551076e-08
8.655198e-08
8.6552899e-08
8.6553836e-08
8.6554782e-08
8.6555727e-08
8.6556653e-08
8.6557542e-08
8.6558388e-08
8.6559161e-08
8.6559783e-08
8.6560165e-08
8.6560277e-08
8.6560189e-08
8.6560043e-08
8.6559948e-08
8.6559917e-08
8.6559911e-08
8.6559886e-08
8.6559824e-08
8.6559744e-08
8.6559672e-08
8.6559604e-08
8.6559498e-08
8.6559305e-08
8.6559e-08
8.6558604e-08
8.6558128e-08
8.6557313e-08
8.6555164e-08
8.6550011e-08
8.6541951e-08
8.654011e-08
8.6574479e-08
8.6703245e-08
8.6992626e-08
8.7433244e-08
8.7760306e-08
8.7181756e-08
8.4094347e-08
7.596738e-08
5.96997e-08
3.55579e-08
1.2925155e-08
2.3699041e-09
4.2554411e-10
4.7002079e-10
8.6931312e-08
8.6930576e-08
8.6931297e-08
8.6932194e-08
8.6933106e-08
8.6933995e-08
8.6934905e-08
8.693583e-08
8.6936764e-08
8.6937696e-08
8.6938614e-08
8.6939516e-08
8.6940409e-08
8.6941306e-08
8.6942221e-08
8.6943154e-08
8.6944097e-08
8.6945039e-08
8.6945959e-08
8.6946839e-08
8.6947675e-08
8.6948439e-08
8.6949049e-08
8.6949416e-08
8.694951e-08
8.6949405e-08
8.6949252e-08
8.6949157e-08
8.6949129e-08
8.6949124e-08
8.6949098e-08
8.6949034e-08
8.6948951e-08
8.6948878e-08
8.6948816e-08
8.6948724e-08
8.694855e-08
8.6948262e-08
8.6947873e-08
8.6947421e-08
8.6946758e-08
8.6945095e-08
8.6940785e-08
8.6932917e-08
8.6927311e-08
8.6948054e-08
8.7048218e-08
8.730002e-08
8.7728474e-08
8.814779e-08
8.7885723e-08
8.5457555e-08
7.8383e-08
6.3257769e-08
3.9292632e-08
1.5021774e-08
2.7933605e-09
4.2741233e-10
4.1924004e-10
8.7361241e-08
8.7360916e-08
8.7361785e-08
8.736268e-08
8.7363599e-08
8.7364495e-08
8.736541e-08
8.7366337e-08
8.7367269e-08
8.7368196e-08
8.7369106e-08
8.7369998e-08
8.7370881e-08
8.737177e-08
8.7372678e-08
8.7373605e-08
8.7374543e-08
8.7375479e-08
8.7376389e-08
8.7377256e-08
8.737808e-08
8.7378832e-08
8.7379428e-08
8.7379776e-08
8.7379846e-08
8.7379719e-08
8.7379557e-08
8.7379464e-08
8.737944e-08
8.7379436e-08
8.7379411e-08
8.7379345e-08
8.7379259e-08
8.7379185e-08
8.7379129e-08
8.7379053e-08
8.7378901e-08
8.7378634e-08
8.7378255e-08
8.7377813e-08
8.7377252e-08
8.7376e-08
8.7372573e-08
8.736543e-08
8.7357559e-08
8.7367094e-08
8.7440233e-08
8.7650622e-08
8.8051e-08
8.8530581e-08
8.8544856e-08
8.6749869e-08
8.0740948e-08
6.6924138e-08
4.3404039e-08
1.7518993e-08
3.3458352e-09
4.4374723e-10
3.7649723e-10
8.7837933e-08
8.783797e-08
8.7838921e-08
8.7839826e-08
8.7840744e-08
8.7841645e-08
8.7842561e-08
8.7843486e-08
8.7844412e-08
8.7845328e-08
8.7846226e-08
8.7847103e-08
8.7847971e-08
8.7848849e-08
8.7849746e-08
8.7850664e-08
8.7851595e-08
8.7852521e-08
8.7853416e-08
8.7854266e-08
8.7855075e-08
8.7855812e-08
8.7856389e-08
8.7856712e-08
8.7856752e-08
8.7856598e-08
8.7856426e-08
8.7856337e-08
8.7856317e-08
8.7856316e-08
8.7856291e-08
8.7856226e-08
8.7856137e-08
8.7856062e-08
8.7856011e-08
8.7855954e-08
8.7855827e-08
8.7855587e-08
8.7855225e-08
8.785479e-08
8.7854297e-08
8.7853376e-08
8.7850788e-08
8.7844686e-08
8.7835765e-08
8.7836501e-08
8.7885036e-08
8.8052282e-08
8.8411411e-08
8.8919955e-08
8.9165556e-08
8.7970756e-08
8.2974479e-08
7.0677925e-08
4.7914304e-08
2.0517226e-08
4.0717154e-09
4.7771249e-10
3.3953837e-10
8.8367918e-08
8.8368245e-08
8.8369224e-08
8.8370137e-08
8.837105e-08
8.837195e-08
8.8372862e-08
8.8373778e-08
8.8374692e-08
8.8375592e-08
8.837647e-08
8.8377326e-08
8.8378175e-08
8.8379036e-08
8.8379919e-08
8.8380824e-08
8.8381742e-08
8.8382652e-08
8.8383527e-08
8.8384354e-08
8.8385143e-08
8.8385861e-08
8.8386414e-08
8.8386705e-08
8.8386707e-08
8.8386519e-08
8.8386338e-08
8.8386254e-08
8.838624e-08
8.8386242e-08
8.8386219e-08
8.8386153e-08
8.8386063e-08
8.8385987e-08
8.8385943e-08
8.8385905e-08
8.8385808e-08
8.8385601e-08
8.8385264e-08
8.8384838e-08
8.8384382e-08
8.8383706e-08
8.838187e-08
8.8377012e-08
8.8368193e-08
8.8362774e-08
8.8390158e-08
8.8514585e-08
8.8821499e-08
8.9326999e-08
8.9747572e-08
8.9097373e-08
8.5193458e-08
7.445563e-08
5.2803382e-08
2.4103474e-08
5.0299095e-09
5.3274966e-10
3.0830981e-10
8.8958961e-08
8.895948e-08
8.8960465e-08
8.896138e-08
8.8962281e-08
8.8963174e-08
8.8964073e-08
8.8964973e-08
8.8965867e-08
8.8966742e-08
8.8967591e-08
8.8968418e-08
8.896924e-08
8.8970076e-08
8.8970938e-08
8.8971823e-08
8.8972722e-08
8.8973609e-08
8.8974454e-08
8.8975251e-08
8.8976016e-08
8.897671e-08
8.8977232e-08
8.8977483e-08
8.8977437e-08
8.8977207e-08
8.8977017e-08
8.8976939e-08
8.8976932e-08
8.8976938e-08
8.8976917e-08
8.8976853e-08
8.8976763e-08
8.8976685e-08
8.8976648e-08
8.8976633e-08
8.8976571e-08
8.8976406e-08
8.8976104e-08
8.8975695e-08
8.8975258e-08
8.8974743e-08
8.8973526e-08
8.8969956e-08
8.8962153e-08
8.8953194e-08
8.8963718e-08
8.9048026e-08
8.9295299e-08
8.9768297e-08
9.0306552e-08
9.0127484e-08
8.7264365e-08
7.8205437e-08
5.8034752e-08
2.8370334e-08
6.2954757e-09
6.1685042e-10
2.8256734e-10
8.9620387e-08
8.9621021e-08
8.9621998e-08
8.9622902e-08
8.9623783e-08
8.9624658e-08
8.9625535e-08
8.9626409e-08
8.9627271e-08
8.9628109e-08
8.9628917e-08
8.9629703e-08
8.9630488e-08
8.9631291e-08
8.9632122e-08
8.9632979e-08
8.9633849e-08
8.9634702e-08
8.9635505e-08
8.9636263e-08
8.9636997e-08
8.9637661e-08
8.9638142e-08
8.9638343e-08
8.9638236e-08
8.9637953e-08
8.9637756e-08
8.9637688e-08
8.9637686e-08
8.9637696e-08
8.9637679e-08
8.9637619e-08
8.963753e-08
8.9637453e-08
8.9637424e-08
8.9637435e-08
8.9637414e-08
8.9637299e-08
8.9637048e-08
8.9636668e-08
8.9636243e-08
8.963582e-08
8.9635057e-08
8.9632688e-08
8.9626515e-08
8.9616403e-08
8.9614893e-08
8.966414e-08
8.9848753e-08
9.0263293e-08
9.0858027e-08
9.1065947e-08
8.9180497e-08
8.1821732e-08
6.3543279e-08
3.3406033e-08
7.9801257e-09
7.3928992e-10
2.6251498e-10
9.0363509e-08
9.0364205e-08
9.0365156e-08
9.0366035e-08
9.0366886e-08
9.036773e-08
9.0368571e-08
9.0369403e-08
9.0370218e-08
9.0371003e-08
9.0371755e-08
9.0372485e-08
9.0373219e-08
9.0373976e-08
9.0374764e-08
9.037558e-08
9.0376409e-08
9.0377211e-08
9.0377958e-08
9.0378665e-08
9.037936e-08
9.0379983e-08
9.0380412e-08
9.0380551e-08
9.0380364e-08
9.0380013e-08
9.0379813e-08
9.0379758e-08
9.0379762e-08
9.0379775e-08
9.0379763e-08
9.0379709e-08
9.0379625e-08
9.037955e-08
9.037953e-08
9.0379574e-08
9.0379602e-08
9.0379548e-08
9.0379364e-08
9.0379034e-08
9.0378629e-08
9.0378254e-08
9.0377784e-08
9.0376393e-08
9.0372117e-08
9.0362787e-08
9.0354166e-08
9.0375413e-08
9.0499488e-08
9.0836501e-08
9.1426939e-08
9.1918815e-08
9.0916441e-08
8.5092126e-08
6.923499e-08
3.9279167e-08
1.0233829e-08
9.115297e-10
2.4903458e-10
9.1202016e-08
9.1202752e-08
9.1203663e-08
9.1204503e-08
9.1205309e-08
9.1206104e-08
9.1206892e-08
9.1207667e-08
9.1208416e-08
9.1209128e-08
9.1209803e-08
9.121046e-08
9.1211126e-08
9.1211822e-08
9.1212552e-08
9.1213312e-08
9.1214082e-08
9.1214812e-08
9.1215482e-08
9.1216127e-08
9.1216774e-08
9.1217344e-08
9.1217706e-08
9.1217771e-08
9.1217469e-08
9.1217043e-08
9.1216839e-08
9.1216805e-08
9.1216813e-08
9.121683e-08
9.1216824e-08
9.121678e-08
9.1216706e-08
9.1216636e-08
9.1216627e-08
9.121671e-08
9.1216797e-08
9.1216819e-08
9.1216722e-08
9.1216467e-08
9.1216098e-08
9.1215757e-08
9.1215453e-08
9.1214763e-08
9.1212258e-08
9.1205026e-08
9.1193783e-08
9.1195393e-08
9.1266066e-08
9.1515564e-08
9.2048101e-08
9.2703651e-08
9.2440919e-08
8.8333949e-08
7.496949e-08
4.6018377e-08
1.3263952e-08
1.1522932e-09
2.4467318e-10
9.2152002e-08
9.2152785e-08
9.2153663e-08
9.2154449e-08
9.2155195e-08
9.2155926e-08
9.2156646e-08
9.2157349e-08
9.2158015e-08
9.2158635e-08
9.2159217e-08
9.2159784e-08
9.216037e-08
9.2160993e-08
9.2161654e-08
9.2162343e-08
9.2163031e-08
9.2163666e-08
9.2164238e-08
9.216481e-08
9.2165404e-08
9.2165911e-08
9.2166194e-08
9.2166165e-08
9.2165683e-08
9.2165211e-08
9.216501e-08
9.2164991e-08
9.2165005e-08
9.2165023e-08
9.2165031e-08
9.2164999e-08
9.216494e-08
9.2164882e-08
9.2164895e-08
9.2165014e-08
9.2165166e-08
9.2165281e-08
9.2165296e-08
9.2165143e-08
9.2164838e-08
9.2164532e-08
9.2164318e-08
9.2164049e-08
9.2162911e-08
9.2158338e-08
9.2147988e-08
9.2138609e-08
9.2167254e-08
9.2329233e-08
9.2764406e-08
9.3476404e-08
9.3776541e-08
9.1218036e-08
8.0615422e-08
5.3586003e-08
1.7343382e-08
1.5145357e-09
2.5357849e-10
9.3229925e-08
9.3230859e-08
9.3231714e-08
9.3232445e-08
9.3233137e-08
9.3233814e-08
9.3234475e-08
9.3235112e-08
9.3235698e-08
9.3236227e-08
9.3236714e-08
9.3237195e-08
9.3237702e-08
9.3238255e-08
9.3238849e-08
9.3239479e-08
9.3240094e-08
9.3240623e-08
9.3241088e-08
9.3241596e-08
9.324215e-08
9.3242605e-08
9.3242815e-08
9.3242613e-08
9.3241937e-08
9.3241479e-08
9.3241303e-08
9.3241283e-08
9.3241301e-08
9.3241326e-08
9.324135e-08
9.324134e-08
9.3241304e-08
9.3241267e-08
9.3241308e-08
9.3241466e-08
9.3241673e-08
9.3241888e-08
9.3242034e-08
9.3242016e-08
9.3241797e-08
9.3241527e-08
9.3241352e-08
9.3241279e-08
9.3240993e-08
9.3238888e-08
9.3231549e-08
9.3218822e-08
9.3219503e-08
9.3303931e-08
9.3616963e-08
9.4284572e-08
9.4968045e-08
9.3767957e-08
8.592104e-08
6.1864312e-08
2.2787867e-08
2.0946101e-09
2.7399907e-10
7.2546796e-10
7.6036563e-10
7.8240719e-10
7.9819515e-10
8.1151049e-10
8.2359972e-10
8.3445938e-10
8.4374944e-10
8.5116471e-10
8.5649736e-10
8.5956329e-10
8.6017726e-10
8.5811125e-10
8.5308312e-10
8.44738e-10
8.3266081e-10
8.1637631e-10
7.9538577e-10
7.6919507e-10
7.3736784e-10
6.9958505e-10
6.5580559e-10
6.063699e-10
5.5182823e-10
4.9295738e-10
4.3087752e-10
3.6724074e-10
3.0326242e-10
2.4157262e-10
1.8489055e-10
1.3537323e-10
9.5732127e-11
6.8498854e-11
5.254951e-11
4.8787692e-11
5.90643e-11
8.2948593e-11
1.1592094e-10
1.5457827e-10
1.9833693e-10
2.4661425e-10
2.9809477e-10
3.5242119e-10
4.0724085e-10
4.6135188e-10
5.1436371e-10
5.6557014e-10
6.1424199e-10
6.5986373e-10
7.0230283e-10
7.4161956e-10
7.7795634e-10
8.1145579e-10
8.4214708e-10
8.7013366e-10
8.9568289e-10
9.1907253e-10
9.4050312e-10
9.6014497e-10
9.7818841e-10
9.9478874e-10
1.0100473e-09
1.0240554e-09
1.0369081e-09
1.0487006e-09
1.0595231e-09
1.0694619e-09
1.0785961e-09
1.0869994e-09
1.0947358e-09
1.1018688e-09
1.1084394e-09
1.1145153e-09
1.120071e-09
5.381218e-10
5.7369616e-10
6.0640367e-10
6.3569059e-10
6.6072748e-10
6.8179638e-10
6.9940941e-10
7.1396679e-10
7.2571717e-10
7.3483688e-10
7.414498e-10
7.4562568e-10
7.4735796e-10
7.4655451e-10
7.4302637e-10
7.3649767e-10
7.2660968e-10
7.129466e-10
6.9506155e-10
6.7251617e-10
6.4493489e-10
6.1180624e-10
5.726361e-10
5.2762985e-10
4.7762303e-10
4.2381657e-10
3.6781049e-10
3.1142557e-10
2.564621e-10
2.0469144e-10
1.5917474e-10
1.1930791e-10
8.7224986e-11
6.5434987e-11
5.3358318e-11
5.1278401e-11
5.9584893e-11
7.6729872e-11
1.0053033e-10
1.2942277e-10
1.6249783e-10
1.9877225e-10
2.3792814e-10
2.7875907e-10
3.2019207e-10
3.6158538e-10
4.0244474e-10
4.4222415e-10
4.8040186e-10
5.1665309e-10
5.5081077e-10
5.8282484e-10
6.1271794e-10
6.4050582e-10
6.6620088e-10
6.8988971e-10
7.1170151e-10
7.3177175e-10
7.5023051e-10
7.6720567e-10
7.8282527e-10
7.9720135e-10
8.1043284e-10
8.2260957e-10
8.3381405e-10
8.4412353e-10
8.5360877e-10
8.6233704e-10
8.7036904e-10
8.7776232e-10
8.8456917e-10
8.9083646e-10
8.9661615e-10
9.0192356e-10
1.4268902e-09
1.1972841e-09
1.0130406e-09
8.7055998e-10
7.6639345e-10
6.9447038e-10
6.4826586e-10
6.2328481e-10
6.146371e-10
6.1696644e-10
6.2567354e-10
6.3722454e-10
6.4912085e-10
6.5964571e-10
6.6769307e-10
6.7260079e-10
6.7398427e-10
6.7160429e-10
6.65267e-10
6.5477305e-10
6.3991664e-10
6.2044437e-10
5.9602828e-10
5.6647533e-10
5.3189551e-10
4.927382e-10
4.4980181e-10
4.0421763e-10
3.5697807e-10
3.0951482e-10
2.6336196e-10
2.2038263e-10
1.8133859e-10
1.4802975e-10
1.2096259e-10
1.0246448e-10
9.1427306e-11
8.7391606e-11
8.9589098e-11
9.704211e-11
1.0923417e-10
1.2527873e-10
1.445446e-10
1.6634247e-10
1.8996516e-10
2.1481291e-10
2.4040357e-10
2.663129e-10
2.9214288e-10
3.1755753e-10
3.4229189e-10
3.6616141e-10
3.890423e-10
4.1076154e-10
4.3122831e-10
4.5042214e-10
4.6837281e-10
4.8511932e-10
5.0070134e-10
5.1519949e-10
5.2868399e-10
5.4121679e-10
5.5285608e-10
5.6365733e-10
5.7367379e-10
5.8295658e-10
5.9155438e-10
5.9951378e-10
6.068789e-10
6.1369146e-10
6.1999122e-10
6.2581464e-10
6.3120099e-10
6.3617237e-10
6.5609897e-09
4.7022388e-09
3.4209231e-09
2.572031e-09
2.0213125e-09
1.6484857e-09
1.3783168e-09
1.1676833e-09
9.9659925e-10
8.6459393e-10
7.6826373e-10
7.0006105e-10
6.5553952e-10
6.2985691e-10
6.1809358e-10
6.1580346e-10
6.1915084e-10
6.2510412e-10
6.3114142e-10
6.3516303e-10
6.3534537e-10
6.3101679e-10
6.2226099e-10
6.0912833e-10
5.9164091e-10
5.6990966e-10
5.4419813e-10
5.1500141e-10
4.8312445e-10
4.4929739e-10
4.1405509e-10
3.7844496e-10
3.4327196e-10
3.0936946e-10
2.7737973e-10
2.4886007e-10
2.2441288e-10
2.0435763e-10
1.8908721e-10
1.7813108e-10
1.7075974e-10
1.6658183e-10
1.6543565e-10
1.6694518e-10
1.7070074e-10
1.7630916e-10
1.8338149e-10
1.9161761e-10
2.0074595e-10
2.105184e-10
2.2070847e-10
2.3112288e-10
2.4161159e-10
2.5204465e-10
2.6230915e-10
2.723151e-10
2.8199408e-10
2.9129849e-10
3.0019511e-10
3.0866451e-10
3.1669722e-10
3.2429145e-10
3.3145141e-10
3.3818573e-10
3.4450645e-10
3.5042805e-10
3.5596664e-10
3.6113952e-10
3.6596464e-10
3.704602e-10
3.7464473e-10
3.7853457e-10
3.821513e-10
3.8549491e-10
2.1829784e-08
1.6375122e-08
1.2028677e-08
8.7382813e-09
6.3521594e-09
4.674176e-09
3.5261971e-09
2.7379057e-09
2.1803332e-09
1.7885592e-09
1.5023811e-09
1.2834621e-09
1.1088663e-09
9.6696518e-10
8.5385293e-10
7.6928612e-10
7.0734125e-10
6.6500617e-10
6.3886112e-10
6.2647202e-10
6.2396004e-10
6.2648386e-10
6.3009897e-10
6.3172983e-10
6.3035329e-10
6.257984e-10
6.1805827e-10
6.0716912e-10
5.9334914e-10
5.7692151e-10
5.5819122e-10
5.3750967e-10
5.15517e-10
4.9192959e-10
4.6845661e-10
4.4502799e-10
4.2200526e-10
4.0035216e-10
3.8068613e-10
3.6311478e-10
3.4746492e-10
3.3386914e-10
3.2242261e-10
3.1294557e-10
3.0526145e-10
2.9916828e-10
2.9446535e-10
2.9093389e-10
2.8840103e-10
2.8669009e-10
2.8567537e-10
2.85259e-10
2.8534632e-10
2.8584825e-10
2.8668202e-10
2.8778032e-10
2.890806e-10
2.9052848e-10
2.9208068e-10
2.9370082e-10
2.9535815e-10
2.9702759e-10
2.986891e-10
3.0032675e-10
3.0192808e-10
3.0348351e-10
3.0498593e-10
3.0643037e-10
3.0781361e-10
3.091338e-10
3.1039048e-10
3.1158322e-10
3.1271587e-10
3.137784e-10
4.3877864e-08
3.5766461e-08
2.8305343e-08
2.1875329e-08
1.6592815e-08
1.2427629e-08
9.2626004e-09
6.924713e-09
5.2190087e-09
3.9955906e-09
3.1226019e-09
2.501937e-09
2.0529991e-09
1.7183257e-09
1.467936e-09
1.2734904e-09
1.1180546e-09
9.9009682e-10
8.8473812e-10
8.0174846e-10
7.3976477e-10
6.9646512e-10
6.7063339e-10
6.5753972e-10
6.5270316e-10
6.5230346e-10
6.5348664e-10
6.538813e-10
6.5277646e-10
6.4997936e-10
6.4548761e-10
6.3934875e-10
6.3172794e-10
6.2283465e-10
6.1281483e-10
6.0191988e-10
5.9048072e-10
5.7847794e-10
5.6604701e-10
5.5395026e-10
5.4242756e-10
5.3159082e-10
5.2145643e-10
5.1211745e-10
5.0364932e-10
4.9597618e-10
4.8905961e-10
4.8286186e-10
4.7733409e-10
4.7241797e-10
4.6805678e-10
4.6420489e-10
4.6080746e-10
4.578137e-10
4.5517788e-10
4.5286003e-10
4.5082445e-10
4.4904014e-10
4.4747754e-10
4.4611029e-10
4.4491559e-10
4.4387336e-10
4.4296573e-10
4.4217675e-10
4.4149247e-10
4.4090037e-10
4.4038922e-10
4.3994993e-10
4.3957448e-10
4.3925588e-10
4.3898798e-10
4.3876572e-10
4.3858416e-10
4.3844103e-10
6.3571459e-08