/*--------------------------------*- C++ -*----------------------------------*\
| =========                 |                                                 |
| \\      /  F ield         | OpenFOAM: The Open Source CFD Toolbox           |
|  \\    /   O peration     | Version:  v2006                                 |
|   \\  /    A nd           | Website:  www.openfoam.com                      |
|    \\/     M anipulation  |                                                 |
\*---------------------------------------------------------------------------*/
FoamFile
{
    version     2.0;
    format      ascii;
    class       volScalarField;
    location    "8000";
    object      omega;
}
// * * * * * * * * * * * * * * * * * * * * * * * * * * * * * * * * * * * * * //

dimensions      [0 0 -1 0 0 0 0];


internalField   nonuniform List<scalar> 
55713
(
5.6488843
1.3887722
0.45951089
0.29936473
0.26964483
0.26238167
0.26188342
0.26264419
0.26320234
0.26342667
0.26347361
0.26346611
0.26345443
0.26344892
0.26344861
0.26344906
0.263449
0.26344875
0.26344857
0.26344814
0.26344733
0.26344626
0.26344505
0.26344388
0.26344271
0.26344153
0.26344013
0.26343863
0.26343683
0.26343481
0.26343261
0.2634303
0.26342787
0.26342539
0.2634228
0.26341998
0.26341675
0.26341317
0.26340929
0.26340526
0.26340114
0.26339685
0.26339207
0.26338692
0.26338175
0.26337677
0.26337182
0.26336685
0.26336173
0.26335647
0.26335096
0.26334525
0.26333934
0.26333334
0.26332715
0.26332092
0.26331507
0.26331004
0.26330548
5.1536871
1.2776684
0.43861518
0.30194863
0.27782162
0.27271558
0.27280861
0.27361053
0.27407804
0.27422708
0.27423874
0.27421958
0.2742038
0.27419527
0.2741907
0.27418613
0.27418087
0.27417584
0.27417117
0.27416626
0.27416104
0.27415561
0.27415016
0.2741448
0.27413956
0.27413433
0.27412895
0.27412348
0.27411777
0.27411181
0.27410571
0.27409947
0.27409309
0.27408667
0.27408018
0.27407348
0.27406627
0.27405854
0.27405041
0.27404202
0.27403354
0.27402489
0.27401566
0.27400579
0.27399569
0.27398562
0.27397547
0.27396509
0.27395438
0.27394326
0.27393161
0.27391936
0.27390649
0.27389304
0.27387887
0.27386388
0.2738484
0.27383276
0.27381694
4.7199259
1.1857472
0.42333779
0.30680844
0.28770378
0.28415086
0.28465752
0.28545785
0.28582858
0.28591105
0.28589593
0.28586886
0.28584967
0.28583791
0.28582861
0.28581866
0.28580818
0.28579836
0.28578905
0.28577961
0.2857699
0.28576007
0.2857503
0.28574073
0.28573136
0.28572201
0.28571261
0.28570314
0.28569349
0.2856836
0.28567357
0.28566338
0.28565304
0.28564266
0.28563225
0.28562169
0.28561057
0.28559871
0.28558629
0.28557353
0.28556066
0.28554769
0.28553408
0.28551957
0.28550455
0.28548943
0.28547413
0.28545844
0.2854422
0.28542533
0.28540765
0.28538901
0.28536931
0.28534857
0.2853266
0.28530308
0.28527821
0.28525224
0.28522534
4.3379159
1.1020587
0.41220342
0.31372387
0.29890685
0.29676531
0.29761218
0.29835469
0.29861717
0.29864321
0.29860955
0.29857788
0.29855589
0.2985403
0.29852595
0.29851069
0.29849514
0.29848053
0.29846659
0.29845267
0.29843854
0.29842437
0.29841031
0.29839659
0.29838312
0.29836972
0.29835631
0.29834287
0.29832933
0.29831556
0.29830166
0.29828758
0.29827337
0.29825907
0.29824481
0.29823051
0.29821565
0.29819974
0.29818308
0.29816597
0.29814873
0.2981315
0.29811366
0.29809466
0.29807481
0.29805471
0.29803436
0.29801344
0.29799178
0.29796925
0.29794568
0.2979208
0.2978944
0.29786647
0.29783683
0.29780495
0.2977708
0.29773466
0.29769679
3.9998182
1.0265079
0.4051457
0.32284172
0.31162383
0.3107231
0.31179609
0.31242684
0.3125841
0.31256772
0.31252334
0.31248874
0.31246391
0.31244378
0.31242418
0.31240378
0.31238344
0.31236415
0.31234564
0.31232725
0.31230877
0.31229031
0.31227207
0.31225431
0.31223684
0.31221952
0.31220219
0.31218489
0.31216751
0.31214999
0.31213231
0.31211448
0.3120965
0.31207841
0.31206041
0.31204251
0.31202425
0.31200451
0.31198373
0.31196235
0.31194083
0.31191948
0.31189767
0.31187447
0.31184999
0.31182508
0.31179989
0.31177398
0.31174714
0.31171921
0.31169002
0.31165923
0.31162647
0.31159166
0.31155472
0.3115149
0.31147189
0.31142603
0.31137762
3.6992426
0.95792174
0.40199567
0.33566457
0.32602135
0.32620543
0.32736969
0.32784747
0.32791498
0.32786874
0.32782006
0.32778338
0.32775512
0.32773003
0.32770517
0.32768002
0.32765539
0.32763168
0.32760871
0.32758592
0.32756319
0.32754055
0.32751837
0.32749675
0.32747551
0.32745443
0.3274334
0.32741245
0.32739144
0.32737037
0.32734912
0.32732773
0.3273062
0.32728452
0.32726295
0.32724167
0.32722049
0.32719728
0.32717264
0.32714716
0.32712154
0.32709628
0.32707089
0.32704393
0.3270152
0.32698577
0.32695609
0.32692555
0.32689391
0.32686097
0.32682659
0.32679037
0.32675178
0.3267106
0.32666687
0.32661976
0.3265685
0.32651363
0.32645536
3.4309508
0.89550565
0.40270749
0.35097644
0.34257029
0.3434626
0.34452153
0.34482977
0.34482927
0.34476814
0.34471781
0.34467884
0.34464653
0.34461631
0.3445863
0.34455709
0.34452892
0.34450122
0.34447392
0.34444689
0.34442004
0.34439355
0.34436775
0.34434262
0.3443179
0.34429338
0.34426897
0.34424467
0.34422038
0.34419608
0.34417161
0.34414702
0.34412228
0.34409738
0.34407252
0.34404814
0.34402466
0.34399865
0.34397054
0.34394129
0.34391184
0.34388304
0.34385458
0.34382459
0.34379216
0.3437587
0.34372507
0.34369048
0.34365462
0.3436173
0.34357837
0.34353747
0.34349388
0.34344712
0.3433974
0.34334402
0.3432855
0.34322269
0.34315566
3.1906424
0.83859501
0.40727751
0.36643505
0.36140041
0.36266082
0.36348706
0.36364648
0.36359729
0.36353257
0.36348212
0.36344061
0.36340408
0.36336882
0.36333406
0.36330172
0.363271
0.36323984
0.3632085
0.36317746
0.3631469
0.36311708
0.36308821
0.36306005
0.36303232
0.36300481
0.3629775
0.36295035
0.36292328
0.36289625
0.36286909
0.36284185
0.36281447
0.36278688
0.36275927
0.36273224
0.36270695
0.36267934
0.36264849
0.36261594
0.3625831
0.36255124
0.36252047
0.36248853
0.36245328
0.3624165
0.36237976
0.36234193
0.36230275
0.36226199
0.36221947
0.36217497
0.36212759
0.36207652
0.36202196
0.3619638
0.3618995
0.36183037
0.36175622
2.9748354
0.78667315
0.4156246
0.38513381
0.3826147
0.3839955
0.38458224
0.38462764
0.38455617
0.38449149
0.38444074
0.38439631
0.384356
0.38431628
0.38427753
0.38424319
0.38421107
0.38417721
0.38414239
0.38410791
0.38407434
0.38404197
0.38401076
0.38398026
0.3839502
0.38392042
0.38389093
0.38386166
0.38383256
0.38380355
0.38377449
0.38374538
0.38371618
0.38368675
0.38365724
0.38362824
0.38360167
0.3835742
0.38354182
0.38350673
0.38347116
0.38343695
0.38340481
0.38337247
0.38333571
0.38329673
0.3832581
0.38321824
0.38317703
0.38313426
0.38308956
0.383043
0.38299358
0.38294011
0.38288239
0.38282159
0.38275376
0.38268059
0.38260181
2.7808735
0.73934557
0.42795028
0.40686168
0.40653938
0.40787486
0.40822362
0.40819126
0.40811392
0.4080522
0.40800181
0.4079551
0.40791207
0.40786913
0.40782756
0.40779225
0.40775999
0.4077247
0.40768753
0.40765063
0.40761513
0.40758123
0.40754867
0.40751681
0.40748547
0.40745447
0.40742389
0.40739358
0.40736355
0.40733365
0.40730385
0.40727403
0.40724421
0.40721419
0.40718402
0.4071542
0.40712722
0.40710143
0.40706997
0.40703358
0.40699622
0.40696069
0.4069284
0.40689769
0.40686144
0.40682196
0.4067832
0.40674306
0.40670168
0.40665905
0.40661422
0.40656785
0.40651878
0.40646576
0.40640742
0.4063469
0.40627893
0.40620492
0.40612513
2.6065972
0.69631812
0.44532182
0.43230627
0.43367202
0.43477868
0.43492622
0.43485599
0.43478452
0.43472704
0.43467853
0.43463126
0.43458753
0.4345435
0.43450049
0.4344648
0.43443416
0.43439982
0.4343621
0.43432417
0.43428822
0.43425427
0.4342218
0.43419011
0.43415903
0.43412842
0.43409833
0.43406859
0.43403924
0.43401009
0.43398116
0.43395231
0.43392361
0.43389479
0.43386584
0.43383701
0.43381093
0.43378841
0.43376159
0.43372588
0.43368812
0.43365294
0.43362233
0.43359529
0.43356293
0.43352535
0.43348902
0.43345118
0.43341223
0.43337292
0.43333095
0.43328797
0.43324261
0.43319403
0.43313913
0.43308269
0.43301972
0.43294924
0.4328737
2.449606
0.65747335
0.47162306
0.46252121
0.4645967
0.46532805
0.46534159
0.46527058
0.46520831
0.46515665
0.4651139
0.46506873
0.46502774
0.4649852
0.46494319
0.46490797
0.46488203
0.46485175
0.46481533
0.46477842
0.46474447
0.46471293
0.46468288
0.4646537
0.46462524
0.46459735
0.46457007
0.46454324
0.46451691
0.46449088
0.46446522
0.46443975
0.4644146
0.46438951
0.46436447
0.46433939
0.46431663
0.46429936
0.46428099
0.46424923
0.46421346
0.46418153
0.46415523
0.46413424
0.46411063
0.46407823
0.46404825
0.4640163
0.46398321
0.46395161
0.46391693
0.46388166
0.46384479
0.46380566
0.46376084
0.46371307
0.46366283
0.46360157
0.46353778
2.3087371
0.62269085
0.50601301
0.49857192
0.50000275
0.50029205
0.50024817
0.50019431
0.50014754
0.50010641
0.5000748
0.5000355
0.5000016
0.49996535
0.49993001
0.49989968
0.4998812
0.49985698
0.49982483
0.49979359
0.49976617
0.49974102
0.49971708
0.49969394
0.49967155
0.49964979
0.49962871
0.49960818
0.49958825
0.49956875
0.4995498
0.4995312
0.49951308
0.49949524
0.49947776
0.49946043
0.49944496
0.49943549
0.49942809
0.49940565
0.49937703
0.49935262
0.49933408
0.49932278
0.49931211
0.49929006
0.49927212
0.49925099
0.49922832
0.49920995
0.4991887
0.49916661
0.49914469
0.49912091
0.49909473
0.49906213
0.49903388
0.49899086
0.4989488
2.1825464
0.5914474
0.5411489
0.54005639
0.54042245
0.54040935
0.54037873
0.54034946
0.54032249
0.54029901
0.5402873
0.54025944
0.54023613
0.54021682
0.54019712
0.54017852
0.54016383
0.54014775
0.5401308
0.54011519
0.54010118
0.54008798
0.54007542
0.5400635
0.54005226
0.54004164
0.54003169
0.5400223
0.54001358
0.54000538
0.53999784
0.53999082
0.53998441
0.53997843
0.53997307
0.53996811
0.5399646
0.53996605
0.5399711
0.53996549
0.53995286
0.53994277
0.53993915
0.53994051
0.53994411
0.53994098
0.53994098
0.53993708
0.53993272
0.5399328
0.53993226
0.53993069
0.53993069
0.53992945
0.53992915
0.5399236
0.53992411
0.53991453
0.53990736
0.1790096
0.17900885
0.17900776
0.17901112
0.17901367
0.17901673
0.17901982
0.17902299
0.1790262
0.17902939
0.17903254
0.17903564
0.17903866
0.1790416
0.17904444
0.1790472
0.17904989
0.17905254
0.17905515
0.17905766
0.17906001
0.17906213
0.17906397
0.17906556
0.17906696
0.17906818
0.17906918
0.1790699
0.17907033
0.17907048
0.17907034
0.17906991
0.17906921
0.17906826
0.17906705
0.17906557
0.17906381
0.1790618
0.17905955
0.17905715
0.17905489
0.1790535
0.17905362
0.17905337
0.1790435
0.17900263
0.17889977
0.17871473
0.17848724
0.17840063
0.17892463
0.1811437
0.1885556
0.21030805
0.27229674
0.45017495
0.99043696
3.1722371
15.453912
0.1814634
0.18146286
0.18146346
0.18146647
0.1814693
0.18147235
0.18147551
0.18147872
0.18148195
0.18148516
0.18148832
0.18149142
0.18149445
0.18149739
0.18150024
0.181503
0.18150571
0.18150838
0.18151101
0.18151354
0.18151589
0.181518
0.18151984
0.18152143
0.18152283
0.18152406
0.18152504
0.18152573
0.18152614
0.18152627
0.18152611
0.18152566
0.18152494
0.18152396
0.18152274
0.18152125
0.18151949
0.18151747
0.18151522
0.18151284
0.18151065
0.18150929
0.18150924
0.18150855
0.18149848
0.18145887
0.18135958
0.18117809
0.18094474
0.18082484
0.18126685
0.18337889
0.1901213
0.21032183
0.26861104
0.43768309
0.95588038
3.0648996
14.652023
0.18418751
0.18418718
0.18418842
0.18419134
0.18419429
0.1841974
0.18420062
0.18420388
0.18420715
0.18421039
0.18421358
0.1842167
0.18421975
0.1842227
0.18422556
0.18422835
0.18423107
0.18423377
0.18423642
0.18423896
0.18424132
0.18424343
0.18424526
0.18424686
0.18424827
0.18424951
0.18425049
0.18425119
0.18425161
0.18425175
0.1842516
0.18425116
0.18425045
0.18424949
0.18424829
0.18424683
0.18424511
0.18424312
0.18424089
0.18423848
0.18423614
0.18423448
0.18423428
0.18423461
0.18422859
0.1841979
0.18411175
0.18394049
0.18369724
0.18351905
0.18380604
0.18553886
0.19132314
0.20926736
0.26232849
0.41910925
0.90818781
2.9073898
13.854128
0.187222
0.18722191
0.18722382
0.18722668
0.18722974
0.18723289
0.18723617
0.18723947
0.18724277
0.18724602
0.18724923
0.18725236
0.18725541
0.18725836
0.18726122
0.18726401
0.18726675
0.18726946
0.18727213
0.18727467
0.18727702
0.18727911
0.18728094
0.18728253
0.18728394
0.18728518
0.18728616
0.18728685
0.18728726
0.1872874
0.18728726
0.18728682
0.18728612
0.18728517
0.18728398
0.18728255
0.18728086
0.1872789
0.1872767
0.1872743
0.18727189
0.18727002
0.18726952
0.18727013
0.18726655
0.18724263
0.1871684
0.18700952
0.1867638
0.18654036
0.18669963
0.18813532
0.19312249
0.20906465
0.25723189
0.40247456
0.86322389
2.756056
13.063516
0.19061207
0.19061232
0.19061467
0.19061753
0.19062065
0.19062386
0.19062718
0.1906305
0.19063382
0.19063708
0.19064029
0.19064341
0.19064645
0.19064939
0.19065224
0.19065502
0.19065776
0.19066048
0.19066315
0.19066568
0.19066801
0.19067008
0.19067189
0.19067347
0.19067488
0.1906761
0.19067707
0.19067775
0.19067816
0.19067831
0.19067817
0.19067775
0.19067705
0.19067612
0.19067495
0.19067355
0.1906719
0.19066999
0.19066783
0.19066545
0.19066298
0.19066089
0.19066007
0.19066085
0.19065955
0.19064247
0.19058113
0.19043747
0.19019444
0.1899305
0.1899595
0.19109334
0.19531541
0.20930302
0.25253465
0.38608427
0.81834161
2.6056346
12.283352
0.19441248
0.19441325
0.1944159
0.19441878
0.19442195
0.1944252
0.19442854
0.19443188
0.19443519
0.19443844
0.19444162
0.19444471
0.19444772
0.19445062
0.19445344
0.1944562
0.19445893
0.19446164
0.1944643
0.1944668
0.1944691
0.19447114
0.19447292
0.19447447
0.19447586
0.19447706
0.19447801
0.19447867
0.19447909
0.19447923
0.19447911
0.19447869
0.19447801
0.1944771
0.19447596
0.1944746
0.19447299
0.19447114
0.19446904
0.1944667
0.19446422
0.19446195
0.19446077
0.19446142
0.19446179
0.19445083
0.19440242
0.19427647
0.19404269
0.19374837
0.19365557
0.19450002
0.19803387
0.21012993
0.24859548
0.37052828
0.77429988
2.4573472
11.516786
0.19868958
0.19869086
0.19869366
0.19869658
0.19869977
0.19870305
0.1987064
0.19870972
0.198713
0.1987162
0.19871933
0.19872237
0.19872531
0.19872815
0.19873092
0.19873363
0.19873633
0.19873902
0.19874164
0.19874409
0.19874633
0.19874831
0.19875005
0.19875156
0.19875293
0.19875409
0.198755
0.19875564
0.19875605
0.1987562
0.19875608
0.19875568
0.19875502
0.19875414
0.19875304
0.19875172
0.19875018
0.1987484
0.19874638
0.19874412
0.19874167
0.19873927
0.19873772
0.19873805
0.19873954
0.1987339
0.19869817
0.19859195
0.19837385
0.19806072
0.19785755
0.19841721
0.20146384
0.21160142
0.24546881
0.35589481
0.73128369
2.3117946
10.766816
0.2035243
0.20352597
0.20352879
0.20353175
0.20353494
0.2035382
0.20354152
0.20354479
0.203548
0.20355112
0.20355416
0.2035571
0.20355994
0.20356268
0.20356535
0.20356798
0.20357062
0.20357326
0.20357581
0.20357818
0.20358033
0.20358224
0.2035839
0.20358537
0.20358668
0.20358779
0.20358865
0.20358926
0.20358965
0.2035898
0.2035897
0.20358932
0.20358869
0.20358784
0.2035868
0.20358555
0.20358409
0.20358241
0.2035805
0.20357835
0.20357598
0.20357353
0.20357165
0.20357151
0.20357351
0.20357216
0.20354834
0.20346325
0.20326705
0.20294831
0.20265715
0.20295108
0.20533503
0.21383852
0.24329477
0.34239855
0.68959869
2.1697034
10.036275
0.20901629
0.2090182
0.209021
0.20902395
0.2090271
0.20903033
0.20903357
0.20903673
0.20903982
0.2090428
0.20904569
0.20904846
0.20905114
0.20905372
0.20905625
0.20905876
0.2090613
0.20906384
0.20906628
0.20906851
0.20907054
0.20907233
0.2090739
0.20907527
0.20907651
0.20907754
0.20907833
0.20907889
0.20907926
0.20907941
0.20907933
0.20907898
0.2090784
0.2090776
0.20907663
0.20907548
0.20907414
0.20907259
0.20907082
0.20906883
0.20906661
0.2090642
0.20906207
0.20906142
0.20906335
0.20906515
0.20905192
0.20898847
0.20881994
0.2085086
0.2081464
0.20819918
0.20999569
0.21692197
0.24220693
0.33024265
0.64954842
2.0318874
9.3277852
0.21529002
0.21529197
0.2152947
0.2152976
0.21530067
0.21530378
0.21530688
0.21530986
0.21531274
0.2153155
0.21531815
0.21532068
0.21532311
0.21532546
0.21532777
0.21533008
0.21533245
0.21533482
0.21533708
0.21533912
0.21534096
0.21534258
0.215344
0.21534526
0.21534637
0.21534728
0.21534798
0.21534848
0.21534882
0.21534896
0.2153489
0.2153486
0.21534807
0.21534735
0.21534648
0.21534546
0.21534429
0.21534292
0.21534136
0.21533959
0.21533759
0.21533535
0.21533315
0.21533198
0.21533339
0.21533712
0.21533264
0.21529016
0.21515391
0.21486479
0.21445526
0.21428392
0.21552147
0.22107926
0.24235568
0.31964963
0.61144765
1.8993805
8.6437159
0.22250243
0.22250432
0.22250695
0.22250973
0.22251264
0.22251556
0.2225184
0.22252109
0.22252366
0.22252608
0.22252838
0.22253054
0.22253261
0.2225346
0.22253659
0.2225386
0.2225407
0.22254282
0.22254479
0.22254654
0.22254811
0.22254949
0.2225507
0.22255177
0.22255271
0.22255345
0.22255402
0.22255443
0.22255471
0.22255485
0.22255483
0.22255458
0.22255414
0.22255353
0.2225528
0.22255197
0.22255103
0.22254993
0.22254866
0.22254719
0.22254552
0.22254358
0.2225415
0.22254001
0.2225406
0.22254509
0.22254712
0.22252366
0.22242224
0.22216901
0.22174205
0.22138153
0.22208419
0.22684061
0.24390673
0.31085755
0.57559764
1.7736075
7.9861531
0.23085371
0.23085553
0.230858
0.23086056
0.23086321
0.23086581
0.23086826
0.23087052
0.23087262
0.23087455
0.23087633
0.23087797
0.23087952
0.23088101
0.23088252
0.23088411
0.23088581
0.23088751
0.23088905
0.23089038
0.23089157
0.23089261
0.23089352
0.23089433
0.230895
0.2308955
0.23089588
0.23089617
0.23089639
0.2308965
0.23089653
0.23089637
0.23089605
0.2308956
0.23089508
0.23089451
0.23089389
0.23089318
0.23089232
0.23089127
0.23089005
0.2308886
0.23088688
0.23088533
0.23088518
0.2308894
0.23089549
0.23088784
0.23082139
0.23061518
0.23020209
0.22971674
0.22994621
0.23338346
0.24711339
0.3041308
0.54225078
1.6566507
7.3568778
0.24059887
0.24060078
0.24060298
0.24060524
0.24060754
0.2406097
0.24061162
0.2406133
0.24061477
0.24061605
0.24061714
0.24061807
0.24061891
0.24061973
0.24062059
0.24062161
0.24062276
0.24062388
0.24062481
0.24062556
0.24062623
0.24062682
0.24062733
0.24062777
0.24062807
0.24062824
0.24062836
0.24062851
0.24062864
0.24062873
0.24062883
0.24062879
0.24062863
0.24062843
0.24062817
0.24062796
0.24062779
0.24062763
0.24062734
0.24062689
0.24062627
0.24062548
0.2406244
0.24062316
0.24062264
0.24062588
0.24063367
0.2406375
0.24060338
0.2404523
0.24007984
0.2395107
0.23934056
0.24167243
0.25216369
0.29977027
0.51152332
1.5514395
6.7573292
0.25205154
0.25205354
0.25205541
0.25205736
0.25205932
0.252061
0.25206233
0.25206338
0.25206417
0.25206472
0.25206503
0.25206518
0.25206524
0.25206529
0.25206544
0.2520658
0.25206633
0.25206676
0.25206694
0.25206701
0.2520671
0.2520672
0.25206725
0.25206725
0.2520671
0.25206688
0.25206671
0.25206671
0.25206677
0.25206688
0.25206707
0.25206723
0.25206729
0.25206741
0.25206751
0.25206775
0.25206814
0.25206867
0.25206914
0.25206946
0.25206959
0.25206959
0.25206943
0.25206901
0.25206861
0.25207051
0.25207802
0.25208833
0.25208053
0.25198769
0.25168537
0.25108912
0.25056079
0.25187462
0.25966274
0.29813377
0.48314571
1.4605191
6.1885995
17.032423
19.707913
22.773874
26.280281
30.281846
34.838099
40.013384
45.876737
52.501633
59.96557
68.349471
77.736887
88.212979
99.863305
112.77238
127.022
142.68945
159.84552
178.55242
198.86166
220.81202
244.42769
269.71636
296.66783
325.25303
355.42323
387.11018
420.22524
454.66287
490.29942
526.99549
564.60121
602.95052
641.87267
681.19418
720.73659
760.32338
799.77732
838.93081
877.6272
915.71949
953.07339
989.56886
1025.0966
1059.5656
1092.9009
1125.04
1155.9332
1185.5472
1213.8607
1240.8628
1266.555
1290.9468
1314.0563
1335.9087
1356.5349
1375.9717
1394.2576
1411.4353
1427.5502
1442.6483
1456.7764
1469.9816
1482.3117
1493.8134
1504.5332
1514.5154
1523.8037
1532.4403
1540.4653
1547.9177
1554.8335
1561.2489
1567.197
3.6940828
4.3518575
5.0481305
5.7986814
6.6240827
7.5428972
8.5714405
9.7246206
11.016703
12.461782
14.074021
15.867615
17.856766
20.055345
22.476766
25.133329
28.036322
31.194902
34.616466
38.305174
42.262955
46.4872
50.97266
55.710401
60.685235
65.885045
71.291993
76.880335
82.628773
88.495005
94.546844
100.70147
106.8689
113.12362
119.36497
125.62151
132.0585
138.54474
144.92232
151.20013
157.40133
163.51476
169.47345
175.21277
180.69709
186.13436
191.53047
196.81997
201.95958
206.92394
211.69882
216.27563
220.67537
224.82973
228.72962
232.39308
235.83834
239.07498
242.10426
244.93987
247.6021
250.09812
252.43459
254.61865
256.65738
258.55862
260.32921
261.97741
263.5098
264.93436
266.25878
267.49256
268.62938
269.75268
1.1021708
1.269211
1.4676125
1.6961141
1.9558007
2.2488112
2.5780331
2.946967
3.3596139
3.8203638
4.3338761
4.9049499
5.5384132
6.2389712
7.011096
7.8588243
8.7856798
9.7943777
10.886776
12.063492
13.324004
14.666007
16.08577
17.578006
19.13492
20.748699
22.410221
24.107732
25.830887
27.564614
29.312956
31.064124
32.797884
34.516276
36.209336
37.874911
39.533974
41.186751
42.818072
44.421522
45.99779
47.545651
49.061692
50.539053
51.977425
53.387301
54.767789
56.115747
57.428397
58.702814
59.935982
61.12578
62.265251
63.327672
64.317531
65.241568
66.106134
66.914424
67.674035
68.396276
69.082161
69.731802
70.345642
70.924349
71.46886
71.980276
72.45979
72.908715
73.32841
73.720352
74.086121
74.42812
74.746175
75.047835
0.49350456
0.55871296
0.63732483
0.72969284
0.83687656
0.96006675
1.1005178
1.2595829
1.4387576
1.639694
1.8642015
2.1142129
2.3917452
2.6988308
3.0374576
3.4094658
3.816488
4.2598113
4.7403185
5.2583093
5.8135099
6.404752
7.0300853
7.6867403
8.3705774
9.0771816
9.8014891
10.536965
11.277636
12.015826
12.748064
13.470371
14.175462
14.860477
15.521684
16.156713
16.769119
17.360646
17.930247
18.477658
19.003918
19.509582
19.995225
20.461085
20.909458
21.343008
21.761067
22.163063
22.549216
22.919939
23.275499
23.616246
23.941659
24.251387
24.545831
24.825367
25.090119
25.340293
25.576473
25.799219
26.008902
26.205993
26.39105
26.564644
26.727328
26.879642
27.022108
27.155239
27.27952
27.39544
27.503447
27.603784
27.696289
27.783801
0.28971524
0.31726578
0.35185555
0.39390129
0.44417298
0.50350539
0.57270489
0.65253078
0.74371585
0.84699657
0.96314474
1.0929806
1.2373769
1.397241
1.5734893
1.7669989
1.9785688
2.2088429
2.45827
2.7269992
3.0148776
3.3212693
3.6450947
3.9848143
4.338106
4.7024429
5.0749358
5.4518403
5.8296463
6.2042543
6.5727249
6.9324659
7.2801414
7.6139801
7.9321089
8.2332652
8.518207
8.7873609
9.0406574
9.2785205
9.5018446
9.7114033
9.9078469
10.092301
10.266547
10.432057
10.589028
10.737525
10.877836
11.010346
11.135409
11.253437
11.36458
11.469048
11.567383
11.660066
11.747393
11.82959
11.906931
11.97965
12.047894
12.111833
12.171674
12.227642
12.279956
12.328831
12.37447
12.417075
12.456828
12.493918
12.528503
12.560763
12.59077
12.619074
0.21706613
0.2289057
0.24480499
0.26515101
0.29048934
0.32141823
0.35853795
0.40241458
0.45356018
0.51243273
0.5794484
0.65499774
0.73946255
0.8332225
0.93665583
1.050123
1.1739513
1.3083934
1.4536037
1.6095744
1.7761343
1.9528379
2.1389832
2.3336077
2.5352706
2.7424342
2.9533569
3.1657713
3.3775642
3.5863715
3.7904397
3.9881645
4.1776615
4.3579932
4.5282562
4.6879137
4.8374933
4.9773242
5.1074556
5.2282188
5.3402251
5.4440256
5.540161
5.6291014
5.7117443
5.7890364
5.861305
5.9287552
5.9916704
6.0503628
6.1051134
6.1562098
6.2038288
6.2481532
6.2894886
6.3281098
6.3642229
6.3979933
6.429592
6.4591634
6.4868114
6.5126376
6.5367526
6.5592684
6.5802898
6.5999186
6.618249
6.6353716
6.6513697
6.6663224
6.6803023
6.6933659
6.7055973
6.7170129
0.19015276
0.19444905
0.20130488
0.21099879
0.22389218
0.240393
0.26093449
0.28595111
0.31585227
0.3510026
0.3917117
0.43823308
0.49077173
0.54949141
0.61452464
0.68597184
0.76390231
0.84833565
0.93923336
1.0364628
1.1397966
1.2488447
1.3630701
1.4817838
1.6040002
1.7287011
1.8547611
1.9807297
2.1052844
2.2269994
2.3448214
2.4578275
2.5649829
2.6658018
2.7598885
2.8470784
2.9277967
3.0023974
3.0710794
3.1341634
3.1921033
3.2453087
3.2941747
3.3390368
3.3804159
3.4188551
3.4545807
3.4877383
3.5185089
3.5470851
3.5736367
3.5983291
3.6212717
3.6425697
3.6623787
3.6808524
3.6981071
3.7142329
3.7293161
3.7434289
3.7566254
3.7689571
3.7804777
3.7912418
3.8013006
3.8107048
3.8195001
3.8277311
3.8354383
3.8426592
3.8494328
3.8557776
3.8617814
3.8672475
0.18030647
0.18079111
0.18291093
0.18690398
0.19302406
0.20154609
0.2127672
0.22699993
0.24455767
0.26573618
0.29079625
0.31995039
0.35335738
0.39112036
0.43329181
0.47987553
0.53083255
0.58607604
0.64547097
0.708818
0.7758559
0.84622247
0.91946545
0.9950473
1.0722428
1.15033
1.2285374
1.3058975
1.3815546
1.454631
1.5244828
1.5905875
1.6524112
1.7097435
1.7624654
1.8106039
1.8545033
1.894487
1.9307963
1.9637218
1.9936088
2.0207658
2.0454767
2.0679834
2.0886007
2.1076421
2.1252597
2.1415519
2.1566281
2.1705979
2.183556
2.1955902
2.2067618
2.2171288
2.2267718
2.2357684
2.2441809
2.2520524
2.2594221
2.2663246
2.2727868
2.2788336
2.2844908
2.2897846
2.2947398
2.2993805
2.3037285
2.3078046
2.3116284
2.315217
2.3185912
2.3217496
2.3247746
2.32741
0.17697134
0.17558773
0.17524135
0.17610438
0.17838242
0.18228085
0.18800991
0.19578802
0.20583984
0.21838816
0.23364186
0.25178236
0.27295245
0.29724771
0.32471327
0.35534193
0.3890773
0.42581237
0.46539273
0.50761028
0.55220852
0.59886102
0.64718396
0.69674161
0.74697858
0.79736231
0.84733886
0.89624178
0.94350498
0.98858121
1.0310813
1.0707201
1.1072445
1.1406025
1.1708185
1.198008
1.2224564
1.2444383
1.2641768
1.2819072
1.2978795
1.3123114
1.3253936
1.3372857
1.3481743
1.3582323
1.3675668
1.3762484
1.3843322
1.3918685
1.3989001
1.4054651
1.4115907
1.4173034
1.4226389
1.4276324
1.4323061
1.4366817
1.4407805
1.4446209
1.4482178
1.4515844
1.4547348
1.4576829
1.4604422
1.4630254
1.4654446
1.467711
1.4698357
1.4718278
1.4737006
1.4754482
1.4771384
1.4785425
0.17602253
0.17386507
0.17215429
0.1714337
0.1715762
0.17277985
0.17521662
0.17904997
0.18444121
0.19155024
0.20053174
0.21152776
0.22465887
0.24001496
0.25764833
0.27756794
0.2997379
0.32407507
0.35045057
0.3786874
0.40856576
0.43981254
0.47210986
0.50511554
0.5383594
0.57162563
0.60422435
0.6357861
0.66596644
0.69442377
0.72092497
0.74532355
0.76751822
0.78753849
0.80547205
0.82146215
0.83574225
0.8485344
0.86002002
0.87037393
0.87976562
0.88833874
0.89620086
0.903485
0.91029137
0.91670687
0.92275194
0.92842898
0.93375828
0.93876426
0.94346775
0.94788701
0.95203502
0.95592504
0.95957582
0.96300647
0.9662316
0.96926266
0.97211022
0.9747836
0.97729096
0.97964021
0.98183974
0.98389812
0.98582385
0.98762518
0.98931007
0.99088604
0.99236052
0.99373966
0.99503289
0.99623424
0.99739824
0.99833525
0.17593906
0.17344115
0.17133492
0.16968653
0.16863936
0.16830218
0.16878825
0.17021669
0.17270601
0.17637167
0.18132457
0.18766829
0.19549484
0.20487872
0.21587096
0.22849299
0.24273262
0.25853992
0.27582628
0.29446204
0.31427967
0.33506821
0.35658046
0.37854898
0.40064509
0.42248188
0.44395327
0.46461472
0.48418166
0.5024431
0.5192729
0.53461377
0.54845044
0.5608526
0.57193011
0.58182405
0.59072122
0.59879333
0.60617629
0.61299068
0.61934036
0.62533527
0.63104388
0.63646709
0.64164177
0.64660609
0.65137058
0.65593314
0.66029383
0.66445496
0.66841815
0.67218521
0.67575713
0.67913681
0.68233129
0.68534898
0.68819678
0.69088068
0.6934067
0.69578089
0.69800915
0.70009755
0.70205258
0.70388103
0.70558971
0.70718542
0.70867477
0.7100642
0.71136007
0.71256786
0.71369567
0.71473949
0.71574278
0.71655726
0.17612478
0.17350249
0.17120151
0.16920609
0.16758445
0.16640469
0.16578083
0.1657791
0.16648919
0.16799626
0.17038041
0.17371549
0.17806751
0.18349185
0.19002991
0.19770483
0.20651768
0.21644341
0.22742817
0.2393865
0.25220229
0.26572473
0.27977434
0.29414745
0.30862285
0.32291622
0.3368676
0.35025201
0.36287397
0.3745871
0.3853184
0.39505584
0.4038265
0.41171483
0.41883192
0.4253039
0.43127657
0.43687878
0.44220199
0.44733557
0.45235058
0.45725364
0.46205745
0.46676688
0.47138823
0.47592467
0.48036312
0.48468385
0.48887062
0.49291128
0.49679584
0.50051641
0.50406698
0.50744458
0.51065001
0.51368623
0.51655655
0.51926462
0.52181466
0.52421149
0.52646033
0.52856681
0.53053706
0.53237756
0.53409491
0.53569576
0.53718674
0.5385743
0.53986482
0.54106402
0.5421794
0.54320976
0.54418831
0.54500544
0.17633326
0.17370153
0.17133265
0.1692152
0.16735807
0.16579366
0.16457476
0.16376425
0.16342414
0.16361552
0.16439632
0.16581965
0.16793238
0.1707738
0.17437403
0.17875179
0.18391201
0.18984277
0.19651292
0.20386915
0.21183583
0.22031051
0.22917165
0.23827043
0.24746016
0.25654385
0.26538743
0.27384082
0.28178994
0.28915302
0.29589862
0.30204263
0.30763325
0.31275722
0.31751764
0.32202142
0.3263814
0.3306837
0.33501061
0.33938934
0.34382895
0.34832888
0.35287619
0.35744927
0.3620271
0.36658804
0.37110252
0.37553877
0.37986984
0.38407432
0.38813481
0.39203779
0.39577323
0.39933491
0.40272039
0.40592983
0.40896486
0.41182812
0.41452335
0.41705519
0.41942901
0.42165078
0.423727
0.42566449
0.42747025
0.42915135
0.43071479
0.43216745
0.43351609
0.43476691
0.43592736
0.43699841
0.43800621
0.43887191
0.17647867
0.17388844
0.17152713
0.16938445
0.16745215
0.16573461
0.16424864
0.16302767
0.16211225
0.16154422
0.16136669
0.16161586
0.16232568
0.16352453
0.16523398
0.16746774
0.17023043
0.17351593
0.17730556
0.181566
0.18624892
0.19128684
0.19660017
0.20208484
0.20764986
0.21315629
0.21851528
0.22363448
0.22844488
0.23290891
0.23702863
0.24084231
0.24441223
0.2478248
0.25117357
0.25454946
0.25803171
0.26170244
0.26557986
0.26966758
0.27395624
0.27842128
0.28302684
0.28773115
0.29249366
0.29727542
0.30203512
0.30673266
0.31133387
0.3158112
0.32014261
0.32431107
0.32830418
0.33211385
0.33573593
0.33916923
0.34241468
0.34547475
0.34835333
0.3510554
0.35358685
0.35595423
0.35816461
0.36022538
0.3621441
0.36392841
0.36558586
0.36712387
0.36854972
0.36987022
0.37109292
0.37222083
0.37327421
0.37420057
0.17655388
0.17401342
0.17169285
0.16957219
0.16763739
0.16588047
0.16429996
0.16290478
0.16171231
0.16075177
0.16001952
0.15960128
0.1594809
0.15968046
0.16021806
0.16110483
0.16234511
0.16393573
0.16586512
0.1681119
0.17064483
0.17341947
0.17638391
0.17946903
0.18261712
0.18573691
0.18877411
0.19167903
0.19441947
0.19698957
0.19941505
0.20175016
0.20406675
0.20645014
0.20898722
0.21175039
0.21481738
0.21821692
0.22195587
0.22602061
0.23038108
0.23499337
0.23980438
0.24475742