/*--------------------------------*- C++ -*----------------------------------*\
| =========                 |                                                 |
| \\      /  F ield         | OpenFOAM: The Open Source CFD Toolbox           |
|  \\    /   O peration     | Version:  v2006                                 |
|   \\  /    A nd           | Website:  www.openfoam.com                      |
|    \\/     M anipulation  |                                                 |
\*---------------------------------------------------------------------------*/
FoamFile
{
    version     2.0;
    format      ascii;
    class       volScalarField;
    location    "8000";
    object      p;
}
// * * * * * * * * * * * * * * * * * * * * * * * * * * * * * * * * * * * * * //

dimensions      [1 -1 -2 0 0 0 0];


internalField   nonuniform List<scalar> 
55713
(
1.0000298
1.0000298
1.0000298
1.0000298
1.0000298
1.0000298
1.0000298
1.0000298
1.0000298
1.0000298
1.0000298
1.0000298
1.0000298
1.0000298
1.0000298
1.0000298
1.0000298
1.0000298
1.0000298
1.0000298
1.0000298
1.0000298
1.0000298
1.0000298
1.0000298
1.0000298
1.0000298
1.0000298
1.0000298
1.0000298
1.0000298
1.0000298
1.0000298
1.0000298
1.0000298
1.0000298
1.0000298
1.0000298
1.0000298
1.0000298
1.0000298
1.0000298
1.0000298
1.0000298
1.0000298
1.0000298
1.0000298
1.0000298
1.0000298
1.0000298
1.0000298
1.0000297
1.0000297
1.0000297
1.0000297
1.0000297
1.0000297
1.0000297
1.0000297
1.0000278
1.0000278
1.0000278
1.0000278
1.0000278
1.0000278
1.0000278
1.0000278
1.0000278
1.0000278
1.0000278
1.0000278
1.0000278
1.0000278
1.0000278
1.0000278
1.0000278
1.0000278
1.0000278
1.0000278
1.0000278
1.0000278
1.0000278
1.0000278
1.0000278
1.0000278
1.0000278
1.0000278
1.0000278
1.0000278
1.0000278
1.0000278
1.0000279
1.0000279
1.0000279
1.0000279
1.0000279
1.0000279
1.0000279
1.0000279
1.0000279
1.0000279
1.0000279
1.0000279
1.0000279
1.0000279
1.0000279
1.0000279
1.0000279
1.0000279
1.0000279
1.0000279
1.0000279
1.0000279
1.0000279
1.0000279
1.0000279
1.0000279
1.0000279
1.0000261
1.0000262
1.0000262
1.0000262
1.0000262
1.0000262
1.0000262
1.0000262
1.0000262
1.0000262
1.0000262
1.0000262
1.0000262
1.0000262
1.0000262
1.0000262
1.0000262
1.0000262
1.0000262
1.0000262
1.0000262
1.0000262
1.0000262
1.0000262
1.0000262
1.0000262
1.0000262
1.0000262
1.0000262
1.0000262
1.0000262
1.0000262
1.0000262
1.0000262
1.0000262
1.0000262
1.0000262
1.0000262
1.0000262
1.0000262
1.0000262
1.0000262
1.0000262
1.0000262
1.0000262
1.0000262
1.0000262
1.0000262
1.0000262
1.0000262
1.0000262
1.0000262
1.0000262
1.0000262
1.0000262
1.0000262
1.0000262
1.0000262
1.0000262
1.0000247
1.0000247
1.0000247
1.0000247
1.0000247
1.0000247
1.0000247
1.0000247
1.0000247
1.0000247
1.0000247
1.0000247
1.0000247
1.0000247
1.0000247
1.0000247
1.0000247
1.0000247
1.0000247
1.0000247
1.0000247
1.0000247
1.0000247
1.0000247
1.0000247
1.0000247
1.0000247
1.0000247
1.0000247
1.0000247
1.0000247
1.0000247
1.0000247
1.0000247
1.0000247
1.0000247
1.0000247
1.0000247
1.0000247
1.0000248
1.0000248
1.0000248
1.0000248
1.0000248
1.0000248
1.0000248
1.0000248
1.0000248
1.0000248
1.0000248
1.0000248
1.0000248
1.0000248
1.0000248
1.0000248
1.0000248
1.0000248
1.0000248
1.0000248
1.0000234
1.0000234
1.0000234
1.0000234
1.0000234
1.0000235
1.0000235
1.0000235
1.0000235
1.0000235
1.0000235
1.0000235
1.0000235
1.0000235
1.0000235
1.0000235
1.0000235
1.0000235
1.0000235
1.0000235
1.0000235
1.0000235
1.0000235
1.0000235
1.0000235
1.0000235
1.0000235
1.0000235
1.0000235
1.0000235
1.0000235
1.0000235
1.0000235
1.0000235
1.0000235
1.0000235
1.0000235
1.0000235
1.0000235
1.0000235
1.0000235
1.0000235
1.0000235
1.0000235
1.0000235
1.0000235
1.0000235
1.0000235
1.0000235
1.0000235
1.0000235
1.0000235
1.0000235
1.0000235
1.0000235
1.0000235
1.0000235
1.0000235
1.0000235
1.0000224
1.0000224
1.0000224
1.0000224
1.0000224
1.0000224
1.0000224
1.0000224
1.0000224
1.0000224
1.0000224
1.0000224
1.0000224
1.0000224
1.0000224
1.0000224
1.0000224
1.0000224
1.0000224
1.0000224
1.0000224
1.0000224
1.0000224
1.0000224
1.0000224
1.0000224
1.0000224
1.0000224
1.0000224
1.0000224
1.0000224
1.0000224
1.0000224
1.0000224
1.0000224
1.0000224
1.0000224
1.0000224
1.0000224
1.0000224
1.0000224
1.0000224
1.0000224
1.0000224
1.0000224
1.0000224
1.0000224
1.0000224
1.0000224
1.0000224
1.0000224
1.0000224
1.0000224
1.0000224
1.0000224
1.0000224
1.0000224
1.0000224
1.0000224
1.0000214
1.0000214
1.0000214
1.0000214
1.0000214
1.0000214
1.0000214
1.0000214
1.0000214
1.0000214
1.0000214
1.0000214
1.0000214
1.0000214
1.0000214
1.0000214
1.0000214
1.0000214
1.0000214
1.0000214
1.0000214
1.0000214
1.0000214
1.0000214
1.0000214
1.0000214
1.0000214
1.0000214
1.0000214
1.0000214
1.0000214
1.0000214
1.0000214
1.0000214
1.0000214
1.0000214
1.0000214
1.0000214
1.0000214
1.0000215
1.0000215
1.0000215
1.0000215
1.0000215
1.0000215
1.0000215
1.0000215
1.0000215
1.0000215
1.0000215
1.0000215
1.0000215
1.0000215
1.0000215
1.0000215
1.0000215
1.0000215
1.0000215
1.0000215
1.0000205
1.0000205
1.0000205
1.0000205
1.0000205
1.0000205
1.0000205
1.0000205
1.0000205
1.0000205
1.0000206
1.0000206
1.0000206
1.0000206
1.0000206
1.0000206
1.0000206
1.0000206
1.0000206
1.0000206
1.0000206
1.0000206
1.0000206
1.0000206
1.0000206
1.0000206
1.0000206
1.0000206
1.0000206
1.0000206
1.0000206
1.0000206
1.0000206
1.0000206
1.0000206
1.0000206
1.0000206
1.0000206
1.0000206
1.0000206
1.0000206
1.0000206
1.0000206
1.0000206
1.0000206
1.0000206
1.0000206
1.0000206
1.0000206
1.0000206
1.0000206
1.0000206
1.0000206
1.0000206
1.0000206
1.0000206
1.0000206
1.0000206
1.0000206
1.0000201
1.0000201
1.0000201
1.0000201
1.0000201
1.0000201
1.0000201
1.0000201
1.0000201
1.0000201
1.0000201
1.0000201
1.0000201
1.0000201
1.0000201
1.0000201
1.0000201
1.0000201
1.0000201
1.0000201
1.0000201
1.0000201
1.0000201
1.0000201
1.0000201
1.0000201
1.0000201
1.0000201
1.0000201
1.0000201
1.0000201
1.0000201
1.0000201
1.0000201
1.0000201
1.0000201
1.0000201
1.0000201
1.0000201
1.0000201
1.0000201
1.0000201
1.0000201
1.0000201
1.0000201
1.0000201
1.0000201
1.0000201
1.0000201
1.0000201
1.0000201
1.0000201
1.0000201
1.0000201
1.0000201
1.0000201
1.0000201
1.0000201
1.0000201
1.0000197
1.0000197
1.0000197
1.0000197
1.0000197
1.0000197
1.0000197
1.0000197
1.0000197
1.0000197
1.0000197
1.0000197
1.0000197
1.0000197
1.0000197
1.0000197
1.0000197
1.0000197
1.0000197
1.0000197
1.0000197
1.0000197
1.0000197
1.0000197
1.0000197
1.0000197
1.0000198
1.0000198
1.0000198
1.0000198
1.0000198
1.0000198
1.0000198
1.0000198
1.0000198
1.0000198
1.0000198
1.0000198
1.0000198
1.0000198
1.0000198
1.0000198
1.0000198
1.0000198
1.0000198
1.0000198
1.0000198
1.0000198
1.0000198
1.0000198
1.0000198
1.0000198
1.0000198
1.0000198
1.0000198
1.0000198
1.0000198
1.0000198
1.0000198
1.0000179
1.0000179
1.0000179
1.0000179
1.0000179
1.0000179
1.0000179
1.0000179
1.0000179
1.0000179
1.0000179
1.0000179
1.0000179
1.0000179
1.0000179
1.0000179
1.0000179
1.0000179
1.000018
1.000018
1.000018
1.000018
1.000018
1.000018
1.000018
1.000018
1.000018
1.000018
1.000018
1.000018
1.000018
1.000018
1.000018
1.000018
1.000018
1.000018
1.000018
1.000018
1.000018
1.000018
1.000018
1.000018
1.000018
1.000018
1.000018
1.000018
1.000018
1.000018
1.000018
1.000018
1.000018
1.000018
1.000018
1.000018
1.0000179
1.0000179
1.0000179
1.0000179
1.0000179
1.0000179
1.0000179
1.0000178
1.0000178
1.0000178
1.0000178
1.0000178
1.0000178
1.0000178
1.0000178
1.0000178
1.0000178
1.0000178
1.0000178
1.0000178
1.0000178
1.0000178
1.0000178
1.0000177
1.0000177
1.0000177
1.0000177
1.0000177
1.0000177
1.0000177
1.0000177
1.0000177
1.0000177
1.0000177
1.0000177
1.0000177
1.0000177
1.0000177
1.0000177
1.0000177
1.0000177
1.0000177
1.0000177
1.0000177
1.0000177
1.0000177
1.0000177
1.0000177
1.0000177
1.0000177
1.0000177
1.0000177
1.0000177
1.0000177
1.0000176
1.0000176
1.0000176
1.0000176
1.0000176
1.0000176
1.0000176
1.0000176
1.0000176
1.0000176
1.0000269
1.0000269
1.0000269
1.0000269
1.0000269
1.0000269
1.0000269
1.0000269
1.0000269
1.0000269
1.0000269
1.0000269
1.0000269
1.0000269
1.0000269
1.0000269
1.0000269
1.0000269
1.0000269
1.0000269
1.0000269
1.0000269
1.0000269
1.0000269
1.0000269
1.0000269
1.0000269
1.0000269
1.0000269
1.0000269
1.0000269
1.0000269
1.0000269
1.0000269
1.0000269
1.0000269
1.0000269
1.0000269
1.0000269
1.0000269
1.0000269
1.0000269
1.0000269
1.0000269
1.0000269
1.0000269
1.0000269
1.0000269
1.0000269
1.0000269
1.0000269
1.0000269
1.0000269
1.0000269
1.0000269
1.0000269
1.0000269
1.0000269
1.0000269
1.0000171
1.0000171
1.0000171
1.0000171
1.0000171
1.0000171
1.0000171
1.0000171
1.0000171
1.0000171
1.0000171
1.0000171
1.0000171
1.0000171
1.0000171
1.0000172
1.0000172
1.0000172
1.0000172
1.0000172
1.0000172
1.0000172
1.0000172
1.0000172
1.0000172
1.0000172
1.0000172
1.0000172
1.0000172
1.0000172
1.0000172
1.0000172
1.0000172
1.0000172
1.0000172
1.0000172
1.0000172
1.0000172
1.0000172
1.0000172
1.0000172
1.0000172
1.0000172
1.0000172
1.0000172
1.0000172
1.0000172
1.0000172
1.0000172
1.0000172
1.0000172
1.0000172
1.0000172
1.0000172
1.0000172
1.0000172
1.0000172
1.0000172
1.0000172
1.0001112
1.0001112
1.0001112
1.0001113
1.0001113
1.0001113
1.0001114
1.0001114
1.0001114
1.0001115
1.0001115
1.0001115
1.0001115
1.0001116
1.0001116
1.0001116
1.0001117
1.0001117
1.0001117
1.0001117
1.0001118
1.0001118
1.0001118
1.0001118
1.0001119
1.0001119
1.0001119
1.0001119
1.000112
1.000112
1.000112
1.000112
1.000112
1.000112
1.0001121
1.0001121
1.0001121
1.0001121
1.0001121
1.0001121
1.0001121
1.0001122
1.0001122
1.0001122
1.0001122
1.0001122
1.0001122
1.0001122
1.0001122
1.0001122
1.0001122
1.0001122
1.0001122
1.0001122
1.0001122
1.0001122
1.0001122
1.0001122
1.0001122
1.000102
1.000102
1.000102
1.0001021
1.0001021
1.0001021
1.0001021
1.0001022
1.0001022
1.0001022
1.0001022
1.0001023
1.0001023
1.0001023
1.0001023
1.0001024
1.0001024
1.0001024
1.0001024
1.0001025
1.0001025
1.0001025
1.0001025
1.0001025
1.0001026
1.0001026
1.0001026
1.0001026
1.0001026
1.0001026
1.0001027
1.0001027
1.0001027
1.0001027
1.0001027
1.0001027
1.0001027
1.0001028
1.0001028
1.0001028
1.0001028
1.0001028
1.0001028
1.0001028
1.0001028
1.0001028
1.0001028
1.0001028
1.0001028
1.0001029
1.0001029
1.0001029
1.0001029
1.0001029
1.0001029
1.0001029
1.0001029
1.0001029
1.0001029
1.0000934
1.0000934
1.0000934
1.0000935
1.0000935
1.0000935
1.0000935
1.0000936
1.0000936
1.0000936
1.0000936
1.0000936
1.0000937
1.0000937
1.0000937
1.0000937
1.0000937
1.0000938
1.0000938
1.0000938
1.0000938
1.0000938
1.0000938
1.0000939
1.0000939
1.0000939
1.0000939
1.0000939
1.0000939
1.0000939
1.000094
1.000094
1.000094
1.000094
1.000094
1.000094
1.000094
1.000094
1.000094
1.0000941
1.0000941
1.0000941
1.0000941
1.0000941
1.0000941
1.0000941
1.0000941
1.0000941
1.0000941
1.0000941
1.0000941
1.0000941
1.0000941
1.0000941
1.0000941
1.0000941
1.0000941
1.0000941
1.0000941
1.0000854
1.0000854
1.0000854
1.0000854
1.0000854
1.0000855
1.0000855
1.0000855
1.0000855
1.0000855
1.0000856
1.0000856
1.0000856
1.0000856
1.0000856
1.0000856
1.0000856
1.0000857
1.0000857
1.0000857
1.0000857
1.0000857
1.0000857
1.0000857
1.0000858
1.0000858
1.0000858
1.0000858
1.0000858
1.0000858
1.0000858
1.0000858
1.0000858
1.0000858
1.0000859
1.0000859
1.0000859
1.0000859
1.0000859
1.0000859
1.0000859
1.0000859
1.0000859
1.0000859
1.0000859
1.0000859
1.0000859
1.0000859
1.0000859
1.0000859
1.000086
1.000086
1.000086
1.000086
1.000086
1.000086
1.000086
1.000086
1.000086
1.0000779
1.0000779
1.0000779
1.0000779
1.000078
1.000078
1.000078
1.000078
1.000078
1.000078
1.000078
1.0000781
1.0000781
1.0000781
1.0000781
1.0000781
1.0000781
1.0000781
1.0000781
1.0000782
1.0000782
1.0000782
1.0000782
1.0000782
1.0000782
1.0000782
1.0000782
1.0000782
1.0000782
1.0000782
1.0000783
1.0000783
1.0000783
1.0000783
1.0000783
1.0000783
1.0000783
1.0000783
1.0000783
1.0000783
1.0000783
1.0000783
1.0000783
1.0000783
1.0000783
1.0000783
1.0000784
1.0000784
1.0000784
1.0000784
1.0000784
1.0000784
1.0000784
1.0000784
1.0000784
1.0000784
1.0000784
1.0000784
1.0000784
1.0000709
1.0000709
1.000071
1.000071
1.000071
1.000071
1.000071
1.000071
1.000071
1.0000711
1.0000711
1.0000711
1.0000711
1.0000711
1.0000711
1.0000711
1.0000711
1.0000711
1.0000711
1.0000712
1.0000712
1.0000712
1.0000712
1.0000712
1.0000712
1.0000712
1.0000712
1.0000712
1.0000712
1.0000712
1.0000712
1.0000712
1.0000712
1.0000713
1.0000713
1.0000713
1.0000713
1.0000713
1.0000713
1.0000713
1.0000713
1.0000713
1.0000713
1.0000713
1.0000713
1.0000713
1.0000713
1.0000713
1.0000713
1.0000713
1.0000713
1.0000713
1.0000713
1.0000713
1.0000713
1.0000713
1.0000713
1.0000713
1.0000713
1.0000645
1.0000645
1.0000645
1.0000645
1.0000645
1.0000646
1.0000646
1.0000646
1.0000646
1.0000646
1.0000646
1.0000646
1.0000646
1.0000646
1.0000646
1.0000646
1.0000647
1.0000647
1.0000647
1.0000647
1.0000647
1.0000647
1.0000647
1.0000647
1.0000647
1.0000647
1.0000647
1.0000647
1.0000647
1.0000647
1.0000647
1.0000647
1.0000648
1.0000648
1.0000648
1.0000648
1.0000648
1.0000648
1.0000648
1.0000648
1.0000648
1.0000648
1.0000648
1.0000648
1.0000648
1.0000648
1.0000648
1.0000648
1.0000648
1.0000648
1.0000648
1.0000648
1.0000648
1.0000648
1.0000648
1.0000648
1.0000648
1.0000648
1.0000648
1.0000586
1.0000586
1.0000586
1.0000586
1.0000586
1.0000586
1.0000586
1.0000586
1.0000586
1.0000586
1.0000586
1.0000587
1.0000587
1.0000587
1.0000587
1.0000587
1.0000587
1.0000587
1.0000587
1.0000587
1.0000587
1.0000587
1.0000587
1.0000587
1.0000587
1.0000587
1.0000587
1.0000587
1.0000587
1.0000588
1.0000588
1.0000588
1.0000588
1.0000588
1.0000588
1.0000588
1.0000588
1.0000588
1.0000588
1.0000588
1.0000588
1.0000588
1.0000588
1.0000588
1.0000588
1.0000588
1.0000588
1.0000588
1.0000588
1.0000588
1.0000588
1.0000588
1.0000588
1.0000588
1.0000588
1.0000588
1.0000588
1.0000588
1.0000588
1.0000531
1.0000531
1.0000531
1.0000531
1.0000531
1.0000531
1.0000531
1.0000531
1.0000532
1.0000532
1.0000532
1.0000532
1.0000532
1.0000532
1.0000532
1.0000532
1.0000532
1.0000532
1.0000532
1.0000532
1.0000532
1.0000532
1.0000532
1.0000532
1.0000532
1.0000532
1.0000532
1.0000532
1.0000532
1.0000532
1.0000533
1.0000533
1.0000533
1.0000533
1.0000533
1.0000533
1.0000533
1.0000533
1.0000533
1.0000533
1.0000533
1.0000533
1.0000533
1.0000533
1.0000533
1.0000533
1.0000533
1.0000533
1.0000533
1.0000533
1.0000533
1.0000533
1.0000533
1.0000533
1.0000533
1.0000533
1.0000533
1.0000533
1.0000533
1.0000481
1.0000481
1.0000481
1.0000481
1.0000481
1.0000481
1.0000481
1.0000481
1.0000481
1.0000481
1.0000481
1.0000481
1.0000482
1.0000482
1.0000482
1.0000482
1.0000482
1.0000482
1.0000482
1.0000482
1.0000482
1.0000482
1.0000482
1.0000482
1.0000482
1.0000482
1.0000482
1.0000482
1.0000482
1.0000482
1.0000482
1.0000482
1.0000482
1.0000482
1.0000482
1.0000482
1.0000482
1.0000482
1.0000482
1.0000482
1.0000482
1.0000482
1.0000482
1.0000482
1.0000482
1.0000482
1.0000482
1.0000482
1.0000482
1.0000482
1.0000482
1.0000482
1.0000482
1.0000482
1.0000482
1.0000482
1.0000482
1.0000483
1.0000483
1.0000435
1.0000435
1.0000435
1.0000435
1.0000435
1.0000435
1.0000435
1.0000435
1.0000436
1.0000436
1.0000436
1.0000436
1.0000436
1.0000436
1.0000436
1.0000436
1.0000436
1.0000436
1.0000436
1.0000436
1.0000436
1.0000436
1.0000436
1.0000436
1.0000436
1.0000436
1.0000436
1.0000436
1.0000436
1.0000436
1.0000436
1.0000436
1.0000436
1.0000436
1.0000436
1.0000436
1.0000436
1.0000436
1.0000436
1.0000436
1.0000436
1.0000436
1.0000436
1.0000436
1.0000436
1.0000436
1.0000436
1.0000436
1.0000436
1.0000436
1.0000436
1.0000436
1.0000436
1.0000436
1.0000436
1.0000436
1.0000436
1.0000436
1.0000436
1.0000393
1.0000393
1.0000394
1.0000394
1.0000394
1.0000394
1.0000394
1.0000394
1.0000394
1.0000394
1.0000394
1.0000394
1.0000394
1.0000394
1.0000394
1.0000394
1.0000394
1.0000394
1.0000394
1.0000394
1.0000394
1.0000394
1.0000394
1.0000394
1.0000394
1.0000394
1.0000394
1.0000394
1.0000394
1.0000394
1.0000394
1.0000394
1.0000394
1.0000394
1.0000394
1.0000394
1.0000394
1.0000394
1.0000394
1.0000394
1.0000394
1.0000394
1.0000394
1.0000394
1.0000394
1.0000394
1.0000394
1.0000394
1.0000394
1.0000394
1.0000394
1.0000394
1.0000394
1.0000394
1.0000394
1.0000394
1.0000394
1.0000394
1.0000394
1.0000356
1.0000356
1.0000356
1.0000356
1.0000356
1.0000356
1.0000356
1.0000356
1.0000356
1.0000356
1.0000356
1.0000356
1.0000356
1.0000356
1.0000356
1.0000356
1.0000356
1.0000356
1.0000356
1.0000356
1.0000356
1.0000356
1.0000356
1.0000356
1.0000356
1.0000356
1.0000356
1.0000356
1.0000356
1.0000356
1.0000356
1.0000356
1.0000356
1.0000356
1.0000356
1.0000356
1.0000356
1.0000356
1.0000356
1.0000356
1.0000356
1.0000356
1.0000356
1.0000356
1.0000356
1.0000356
1.0000356
1.0000356
1.0000356
1.0000356
1.0000356
1.0000356
1.0000356
1.0000356
1.0000356
1.0000356
1.0000356
1.0000356
1.0000356
1.0000323
1.0000323
1.0000323
1.0000323
1.0000323
1.0000323
1.0000323
1.0000323
1.0000323
1.0000323
1.0000323
1.0000323
1.0000323
1.0000323
1.0000323
1.0000323
1.0000323
1.0000323
1.0000323
1.0000323
1.0000323
1.0000323
1.0000323
1.0000323
1.0000323
1.0000323
1.0000323
1.0000323
1.0000323
1.0000323
1.0000323
1.0000323
1.0000323
1.0000323
1.0000323
1.0000323
1.0000323
1.0000323
1.0000323
1.0000323
1.0000323
1.0000323
1.0000323
1.0000323
1.0000323
1.0000323
1.0000323
1.0000323
1.0000323
1.0000323
1.0000323
1.0000323
1.0000323
1.0000323
1.0000323
1.0000323
1.0000323
1.0000323
1.0000323
1.0001233
1.0001368
1.0001519
1.0001683
1.0001862
1.0002057
1.0002268
1.0002497
1.0002743
1.0003008
1.0003291
1.0003592
1.0003911
1.0004247
1.0004598
1.0004961
1.0005334
1.0005711
1.0006087
1.0006456
1.0006809
1.0007137
1.0007429
1.0007674
1.000786
1.0007971
1.0007999
1.0007938
1.0007768
1.0007486
1.0007092
1.000658
1.0005953
1.0005221
1.0004389
1.0003471
1.0002479
1.000142
1.0000313
0.99991742
0.99980157
0.99968482
0.99956845
0.99945357
0.99934115
0.99923105
0.99912359
0.99902014
0.99892094
0.99882603
0.99873551
0.99864947
0.99856787
0.99849111
0.998419
0.99835089
0.99828677
0.99822668
0.99817037
0.9981175
0.99806805
0.99802204
0.99797919
0.9979393
0.99790219
0.9978677
0.99783566
0.99780592
0.99777831
0.99775272
0.997729
0.99770705
0.99768681
0.99766798
1.0001233
1.0001368
1.0001519
1.0001683
1.0001862
1.0002057
1.0002268
1.0002497
1.0002743
1.0003008
1.0003291
1.0003592
1.0003911
1.0004247
1.0004598
1.0004961
1.0005334
1.0005711
1.0006087
1.0006456
1.0006809
1.0007137
1.0007429
1.0007674
1.000786
1.0007971
1.0007999
1.0007938
1.0007768
1.0007486
1.0007092
1.000658
1.0005953
1.0005221
1.0004389
1.000347
1.0002478
1.000142
1.0000313
0.99991742
0.99980157
0.99968481
0.99956842
0.99945352
0.99934112
0.99923105
0.99912359
0.99902013
0.99892092
0.998826
0.99873548
0.99864944
0.99856783
0.99849108
0.99841898
0.99835087
0.99828674
0.99822664
0.99817033
0.99811742
0.99806797
0.99802196
0.99797912
0.99793923
0.99790213
0.99786764
0.99783561
0.99780586
0.99777826
0.99775266
0.99772893
0.99770695
0.99768671
0.99766791
1.0001233
1.0001368
1.0001519
1.0001683
1.0001862
1.0002057
1.0002268
1.0002497
1.0002743
1.0003008
1.0003291
1.0003592
1.0003911
1.0004247
1.0004598
1.0004961
1.0005334
1.0005711
1.0006087
1.0006456
1.0006809
1.0007137
1.0007429
1.0007674
1.0007861
1.0007971
1.0008
1.0007938
1.0007768
1.0007486
1.0007092
1.000658
1.0005953
1.0005221
1.0004389
1.0003471
1.0002479
1.000142
1.0000313
0.99991745
0.9998016
0.99968484
0.99956847
0.99945356
0.99934108
0.99923099
0.99912358
0.99902014
0.99892094
0.99882603
0.99873551
0.99864946
0.99856781
0.99849103
0.99841896
0.99835086
0.99828676
0.99822669
0.99817044
0.99811754
0.99806805
0.99802202
0.99797917
0.99793928
0.99790216
0.99786766
0.99783563
0.99780588
0.99777827
0.99775267
0.99772894
0.99770704
0.99768687
0.99766804
1.0001233
1.0001368
1.0001519
1.0001683
1.0001862
1.0002057
1.0002268
1.0002497
1.0002743
1.0003008
1.0003291
1.0003592
1.0003911
1.0004247
1.0004598
1.0004961
1.0005334
1.0005711
1.0006087
1.0006456
1.0006809
1.0007137
1.0007429
1.0007674
1.0007861
1.0007971
1.0008
1.0007938
1.0007769
1.0007487
1.0007092
1.0006581
1.0005954
1.0005222
1.000439
1.0003472
1.0002479
1.0001421
1.0000314
0.99991755
0.99980169
0.99968495
0.99956858
0.99945365
0.99934111
0.99923101
0.99912367
0.99902023
0.99892102
0.99882609
0.99873557
0.99864953
0.99856795
0.99849116
0.99841899
0.99835084
0.99828672
0.99822661
0.99817027
0.9981174
0.99806799
0.99802199
0.99797915
0.99793927
0.99790218
0.9978677
0.99783566
0.99780591
0.99777829
0.99775267
0.99772877
0.99770669
0.99768677
0.9976683
1.0001233
1.0001368
1.0001519
1.0001683
1.0001862
1.0002057
1.0002268
1.0002496
1.0002743
1.0003008
1.0003291
1.0003592
1.0003911
1.0004247
1.0004598
1.0004961
1.0005334
1.0005711
1.0006087
1.0006456
1.0006809
1.0007137
1.000743
1.0007674
1.0007861
1.0007972
1.0008
1.0007939
1.0007769
1.0007488
1.0007093
1.0006582
1.0005955
1.0005223
1.0004391
1.0003473
1.0002481
1.0001423
1.0000316
0.99991771
0.99980185
0.99968511
0.99956875
0.99945381
0.99934122
0.9992311
0.9991238
0.99902036
0.99892115
0.99882622
0.99873571
0.99864968
0.99856812
0.99849128
0.99841901
0.99835089
0.99828679
0.99822667
0.99817036
0.99811754
0.99806816
0.99802216
0.99797931
0.99793942
0.99790231
0.99786781
0.99783577
0.99780603
0.99777843
0.99775284
0.99772914
0.99770725
0.99768704
0.99766824
1.0001233
1.0001368
1.0001518
1.0001683
1.0001862
1.0002057
1.0002268
1.0002496
1.0002743
1.0003007
1.0003291
1.0003592
1.0003911
1.0004247
1.0004598
1.0004961
1.0005333
1.0005711
1.0006087
1.0006456
1.0006809
1.0007137
1.000743
1.0007674
1.0007861
1.0007972
1.0008001
1.000794
1.000777
1.0007489
1.0007095
1.0006583
1.0005957
1.0005225
1.0004394
1.0003475
1.0002483
1.0001425
1.0000318
0.99991797
0.99980211
0.99968538
0.99956902
0.99945406
0.99934141
0.99923128
0.99912402
0.9990206
0.99892137
0.99882644
0.99873592
0.9986499
0.99856837
0.99849151
0.9984192
0.99835105
0.99828692
0.99822676
0.99817041
0.99811762
0.99806827
0.99802226
0.99797941
0.99793953
0.99790243
0.99786795
0.99783591
0.99780618
0.99777858
0.99775298
0.99772925
0.99770727
0.99768699
0.99766824
1.0001233
1.0001368
1.0001518
1.0001683
1.0001862
1.0002056
1.0002268
1.0002496
1.0002743
1.0003007
1.000329
1.0003592
1.0003911
1.0004247
1.0004597
1.0004961
1.0005333
1.0005711
1.0006087
1.0006456
1.0006809
1.0007137
1.000743
1.0007675
1.0007862
1.0007973
1.0008002
1.0007941
1.0007772
1.0007491
1.0007097
1.0006585
1.000596
1.0005228
1.0004397
1.0003479
1.0002486
1.0001429
1.0000322
0.99991835
0.99980249
0.99968577
0.99956941
0.99945444
0.99934173
0.99923158
0.99912436
0.99902094
0.99892171
0.99882677
0.99873625
0.99865023
0.99856872
0.99849183
0.99841945
0.99835126
0.99828713
0.99822697
0.99817062
0.99811786
0.99806854
0.99802255
0.99797972
0.99793983
0.99790273
0.99786824
0.9978362
0.99780646
0.99777888
0.9977533
0.99772961
0.99770767
0.99768737
0.99766856
1.0001233
1.0001368
1.0001518
1.0001683
1.0001862
1.0002056
1.0002268
1.0002496
1.0002743
1.0003007
1.000329
1.0003592
1.0003911
1.0004247
1.0004597
1.0004961
1.0005333
1.000571
1.0006087
1.0006456
1.0006809
1.0007137
1.000743
1.0007675
1.0007862
1.0007974
1.0008003
1.0007942
1.0007774
1.0007493
1.0007099
1.0006589
1.0005964
1.0005232
1.0004401
1.0003483
1.0002491
1.0001434
1.0000328
0.9999189
0.99980304
0.99968633
0.99956997
0.99945498
0.99934222
0.99923204
0.99912485
0.99902144
0.9989222
0.99882726
0.99873673
0.99865071
0.99856921
0.99849229
0.99841985
0.99835164
0.9982875
0.99822733
0.99817095
0.99811819
0.99806888
0.99802289
0.99798004
0.99794016
0.99790305
0.99786856
0.99783653
0.99780679
0.9977792
0.99775362
0.99772991
0.99770795
0.99768762
0.99766879
1.0001233
1.0001368
1.0001518
1.0001683
1.0001862
1.0002056
1.0002268
1.0002496
1.0002742
1.0003007
1.000329
1.0003591
1.0003911
1.0004246
1.0004597
1.000496
1.0005333
1.000571
1.0006087
1.0006456
1.0006809
1.0007138
1.000743
1.0007676
1.0007863
1.0007975
1.0008004
1.0007944
1.0007776
1.0007496
1.0007103
1.0006593
1.0005969
1.0005238
1.0004408
1.000349
1.0002498
1.0001441
1.0000335
0.99991966
0.99980382
0.99968712
0.99957076
0.99945575
0.99934294
0.99923273
0.99912557
0.99902216
0.99892291
0.99882795
0.99873741
0.99865139
0.99856989
0.99849294
0.99842044
0.9983522
0.99828803
0.99822784
0.99817146
0.9981187
0.99806942
0.99802344
0.9979806
0.99794072
0.99790362
0.99786913
0.9978371
0.99780736
0.99777977
0.99775419
0.99773049
0.99770853
0.99768819
0.99766936
1.0001233
1.0001368
1.0001518
1.0001683
1.0001861
1.0002056
1.0002267
1.0002496
1.0002742
1.0003007
1.000329
1.0003591
1.000391
1.0004246
1.0004597
1.000496
1.0005333
1.000571
1.0006086
1.0006455
1.0006809
1.0007138
1.0007431
1.0007676
1.0007864
1.0007976
1.0008007
1.0007947
1.000778
1.00075
1.0007108
1.0006599
1.0005976
1.0005246
1.0004416
1.0003499
1.0002507
1.0001451
1.0000345
0.99992073
0.99980489
0.99968821
0.99957185
0.99945682
0.99934395
0.99923372
0.99912657
0.99902317
0.99892389
0.99882892
0.99873837
0.99865233
0.99857083
0.99849384
0.99842129
0.99835301
0.99828883
0.99822861
0.99817222
0.99811946
0.99807017
0.99802418
0.99798133
0.99794144
0.99790433
0.99786983
0.99783779
0.99780805
0.99778045
0.99775486
0.99773115
0.99770918
0.99768883
0.99766999
1.0001233
1.0001368
1.0001518
1.0001682
1.0001861
1.0002056
1.0002267
1.0002496
1.0002742
1.0003007
1.000329
1.0003591
1.000391
1.0004246
1.0004597
1.000496
1.0005332
1.000571
1.0006086
1.0006455
1.0006809
1.0007138
1.0007431
1.0007677
1.0007866
1.0007978
1.0008009
1.0007951
1.0007784
1.0007506
1.0007115
1.0006607
1.0005985
1.0005256
1.0004427
1.0003511
1.000252
1.0001464
1.000036
0.99992217
0.99980636
0.99968969
0.99957333
0.99945828
0.99934536
0.9992351
0.99912796
0.99902455
0.99892525
0.99883026
0.99873969
0.99865363
0.9985721
0.99849508
0.99842248
0.99835415
0.99828994
0.9982297
0.99817328
0.99812051
0.99807122
0.99802524
0.99798239
0.99794249
0.99790538
0.99787088
0.99783883
0.99780909
0.99778149
0.99775589
0.99773217
0.99771019
0.99768983
0.99767098
1.0001233
1.0001368
1.0001518
1.0001682
1.0001861
1.0002056
1.0002267
1.0002496
1.0002742
1.0003006
1.0003289
1.0003591
1.000391
1.0004245
1.0004596
1.0004959
1.0005332
1.0005709
1.0006086
1.0006455
1.0006809
1.0007138
1.0007432
1.0007678
1.0007867
1.0007981
1.0008013
1.0007956
1.000779
1.0007513
1.0007124
1.0006617
1.0005997
1.0005269
1.0004442
1.0003527
1.0002537
1.0001482
1.0000378
0.99992411
0.99980833
0.99969169
0.99957533
0.99946026
0.99934729
0.99923699
0.99912986
0.99902643
0.99892711
0.99883208
0.99874148
0.9986554
0.99857384
0.99849677
0.99842411
0.99835573
0.99829149
0.99823122
0.99817478
0.99812199
0.99807268
0.99802668
0.99798381
0.9979439
0.99790677
0.99787225
0.99784019
0.99781043
0.99778281
0.99775721
0.99773347
0.99771148
0.99769112
0.99767226
1.0001233
1.0001368
1.0001518
1.0001682
1.0001861
1.0002056
1.0002267
1.0002495
1.0002742
1.0003006
1.0003289
1.000359
1.0003909
1.0004245
1.0004596
1.0004959
1.0005331
1.0005709
1.0006086
1.0006455
1.0006809
1.0007138
1.0007432
1.000768
1.000787
1.0007984
1.0008017
1.0007961
1.0007798
1.0007523
1.0007135
1.0006631
1.0006013
1.0005287
1.0004462
1.0003549
1.0002559
1.0001506
1.0000404
0.99992669
0.99981096
0.99969435
0.99957801
0.99946292
0.9993499
0.99923956
0.99913241
0.99902897
0.9989296
0.99883454
0.9987439
0.99865777
0.99857616
0.99849904
0.99842633
0.99835789
0.9982936
0.99823329
0.99817681
0.998124
0.99807467
0.99802865
0.99798576
0.99794583
0.99790868
0.99787415
0.99784207
0.99781229
0.99778466
0.99775904
0.99773529
0.99771328
0.9976929
0.99767402
1.0001233
1.0001367
1.0001518
1.0001682
1.0001861
1.0002056
1.0002267
1.0002495
1.0002741
1.0003006
1.0003289
1.000359
1.0003909
1.0004244
1.0004595
1.0004958
1.0005331
1.0005708
1.0006085
1.0006455
1.0006809
1.0007139
1.0007433
1.0007681
1.0007872
1.0007988
1.0008023
1.0007969
1.0007808
1.0007535
1.000715
1.0006649
1.0006033
1.000531
1.0004488
1.0003577
1.0002589
1.0001538
1.0000437
0.9999301
0.99981444
0.99969787
0.99958154
0.99946644
0.99935338
0.99924299
0.99913582
0.99903234
0.99893293
0.99883781
0.99874712
0.99866093
0.99857926
0.99850207
0.99842929
0.99836079
0.99829644
0.99823608
0.99817956
0.99812671
0.99807734
0.99803129
0.99798837
0.9979484
0.99791123
0.99787667
0.99784456
0.99781476
0.99778711
0.99776146
0.99773769
0.99771567
0.99769528
0.99767639
1.0001233
1.0001367
1.0001518
1.0001682
1.0001861
1.0002055
1.0002266
1.0002495
1.0002741
1.0003005
1.0003288
1.0003589
1.0003908
1.0004244
1.0004594
1.0004958
1.000533
1.0005707
1.0006084
1.0006454
1.0006809
1.0007139
1.0007435
1.0007683
1.0007876
1.0007993
1.000803
1.0007979
1.000782
1.0007551
1.0007169
1.0006671
1.000606
1.000534
1.0004521
1.0003613
1.0002628
1.0001579
1.000048
0.99993456
0.999819
0.99970249
0.99958619
0.99947107
0.99935797
0.99924753
0.99914032
0.99903679
0.99893732
0.99884213
0.99875137
0.9986651
0.99858336
0.99850609
0.99843322
0.99836465
0.99830022
0.9982398
0.99818322
0.99813031
0.99808089
0.99803479
0.99799182
0.99795182
0.9979146
0.99788001
0.99784787
0.99781803
0.99779035
0.99776467
0.99774087
0.99771882
0.9976984
0.99767948
1.0001232
1.0001367
1.0001518
1.0001682
1.000186
1.0002055
1.0002266
1.0002494
1.0002741
1.0003005
1.0003288
1.0003589
1.0003908
1.0004243
1.0004594
1.0004957
1.0005329
1.0005707
1.0006084
1.0006454
1.0006809
1.0007139
1.0007436
1.0007686
1.000788
1.0008
1.0008039
1.0007991
1.0007836
1.0007571
1.0007193
1.00067
1.0006093
1.0005379
1.0004564
1.000366
1.0002678
1.0001632
1.0000536
0.99994035
0.99982492
0.9997085
0.99959224
0.99947712
0.99936398
0.99925349
0.99914622
0.99904263
0.99894307
0.99884779
0.99875693
0.99867057
0.99858873
0.99851136
0.9984384
0.99836972
0.99830521
0.99824471
0.99818805
0.99813506
0.99808558
0.99803942
0.99799639
0.99795633
0.99791907
0.99788443
0.99785224
0.99782237
0.99779465
0.99776894
0.99774511
0.99772303
0.99770258
0.99768365
1.0001232
1.0001367
1.0001517
1.0001682
1.000186
1.0002055
1.0002266
1.0002494
1.000274
1.0003004
1.0003287
1.0003588
1.0003907
1.0004242
1.0004593
1.0004956
1.0005328
1.0005706
1.0006083
1.0006453
1.0006808
1.000714
1.0007438
1.0007689
1.0007885
1.0008008
1.0008051
1.0008006
1.0007856
1.0007596
1.0007224
1.0006737
1.0006136
1.0005428
1.0004619
1.000372
1.0002743
1.0001701
1.0000608
0.9999478
0.99983255