/*--------------------------------*- C++ -*----------------------------------*\
| =========                 |                                                 |
| \\      /  F ield         | OpenFOAM: The Open Source CFD Toolbox           |
|  \\    /   O peration     | Version:  v2006                                 |
|   \\  /    A nd           | Website:  www.openfoam.com                      |
|    \\/     M anipulation  |                                                 |
\*---------------------------------------------------------------------------*/
FoamFile
{
    version     2.0;
    format      ascii;
    class       surfaceScalarField;
    location    "8000";
    object      phi;
}
// * * * * * * * * * * * * * * * * * * * * * * * * * * * * * * * * * * * * * //

dimensions      [1 0 -1 0 0 0 0];
oriented        oriented;


internalField   nonuniform List<scalar> 
110670
(
1.7248546e-05
-0.00037606875
0.00035882009
3.0310363e-05
-0.00035388433
0.00034082243
4.0129956e-05
-0.00033464802
0.00032482832
4.7401958e-05
-0.00031768232
0.00031041026
5.2652094e-05
-0.00030260505
0.00029735482
5.6283119e-05
-0.00028913395
0.00028550288
5.8606767e-05
-0.00027704988
0.00027472615
5.9867492e-05
-0.00026617603
0.00026491527
6.0258383e-05
-0.00025636757
0.00025597661
5.9933815e-05
-0.00024750334
0.00024782788
5.9017623e-05
-0.00023948279
0.00024039892
5.7610268e-05
-0.0002322174
0.00023362474
5.5793403e-05
-0.00022563461
0.00022745141
5.3634225e-05
-0.00021967108
0.00022183025
5.1188036e-05
-0.00021427217
0.0002167183
4.8500788e-05
-0.00020939118
0.00021207843
4.5610569e-05
-0.00020498698
0.00020787715
4.2549549e-05
-0.00020102429
0.00020408531
3.9344726e-05
-0.00019747275
0.00020067751
3.6019305e-05
-0.00019430651
0.00019763193
3.2592835e-05
-0.00019150327
0.00019492968
2.9082239e-05
-0.0001890434
0.000192554
2.5501818e-05
-0.00018690986
0.00019049022
2.1864229e-05
-0.00018508801
0.0001887256
1.8180393e-05
-0.00018356571
0.00018724949
1.4460309e-05
-0.00018233305
0.00018605314
1.0712827e-05
-0.00018138222
0.00018512965
6.9463616e-06
-0.00018070724
0.00018447371
3.1685765e-06
-0.0001803039
0.00018408163
-6.1287476e-07
-0.0001801697
0.00018395117
-4.3906974e-06
-0.00018030377
0.00018408154
-8.1572192e-06
-0.00018070692
0.00018447346
-1.1904786e-05
-0.00018138161
0.00018512912
-1.562498e-05
-0.00018233202
0.00018605223
-1.9309011e-05
-0.00018356423
0.0001872482
-2.2946886e-05
-0.00018508626
0.00018872416
-2.6527694e-05
-0.00018690827
0.00019048903
-3.0038676e-05
-0.00018904242
0.00019255342
-3.3465438e-05
-0.00019150297
0.00019492968
-3.6791016e-05
-0.00019430635
0.00019763195
-3.9995995e-05
-0.00019747188
0.00020067681
-4.3057386e-05
-0.00020102214
0.00020408355
-4.5948349e-05
-0.00020498375
0.00020787467
-4.8636686e-05
-0.00020938775
0.00021207611
-5.1084116e-05
-0.00021426959
0.00021671699
-5.3244465e-05
-0.00021966997
0.00022183035
-5.5062426e-05
-0.00022563487
0.0002274528
-5.6470871e-05
-0.00023221853
0.000233627
-5.7388248e-05
-0.0002394842
0.00024040155
-5.7714088e-05
-0.00024750434
0.0002478302
-5.7324727e-05
-0.00025636739
0.000255978
-5.6065994e-05
-0.0002661744
0.00026491569
-5.3744906e-05
-0.0002770475
0.00027472638
-5.0117065e-05
-0.00028913218
0.00028550436
-4.4870599e-05
-0.00030260569
0.00029735919
-3.7602061e-05
-0.00031768599
0.00031041747
-2.7783076e-05
-0.00033464645
0.00032482744
-1.471122e-05
-0.00035383069
0.00034075885
-0.00037568472
0.00035841115
2.5623257e-06
1.7286838e-05
-0.00039335553
3.0379107e-05
-0.00036697657
4.0218216e-05
-0.00034448708
4.7502901e-05
-0.00032496698
5.2760306e-05
-0.00030786242
5.6394122e-05
-0.00029276775
5.8717193e-05
-0.00027937294
5.9974543e-05
-0.00026743337
6.0359947e-05
-0.00025675297
6.0028148e-05
-0.00024717155
5.9103361e-05
-0.000238558
5.7686192e-05
-0.00023080025
5.5858613e-05
-0.00022380703
5.3687891e-05
-0.00021750038
5.1229553e-05
-0.00021181384
4.8529486e-05
-0.00020669114
4.5626013e-05
-0.00020208352
4.2551258e-05
-0.00019794955
3.933246e-05
-0.00019425397
3.5992776e-05
-0.00019096684
3.255193e-05
-0.00018806245
2.9026746e-05
-0.00018551823
2.5431671e-05
-0.0001833148
2.177926e-05
-0.00018143562
1.8080601e-05
-0.00017986707
1.4345575e-05
-0.00017859806
1.0583189e-05
-0.00017761985
6.8017111e-06
-0.00017692578
3.008966e-06
-0.00017651118
-7.8751931e-07
-0.00017637323
-4.5803008e-06
-0.00017651101
-8.3618209e-06
-0.00017692541
-1.2124294e-05
-0.00017761916
-1.5859385e-05
-0.00017859693
-1.9558178e-05
-0.00017986546
-2.3210753e-05
-0.00018143369
-2.6806084e-05
-0.00018331297
-3.0331511e-05
-0.00018551701
-3.3772493e-05
-0.00018806202
-3.7112108e-05
-0.00019096676
-4.0330757e-05
-0.00019425325
-4.3405504e-05
-0.00019794741
-4.6309334e-05
-0.00020207994
-4.90101e-05
-0.00020668699
-5.1469342e-05
-0.00021181037
-5.3640838e-05
-0.00021749849
-5.546903e-05
-0.0002238067
-5.6886713e-05
-0.00023080085
-5.7812071e-05
-0.00023855887
-5.8144447e-05
-0.00024717196
-5.7759773e-05
-0.00025675209
-5.6503496e-05
-0.00026743067
-5.418207e-05
-0.00027936895
-5.0550402e-05
-0.00029276385
-4.5295719e-05
-0.0003078604
-3.8013582e-05
-0.00032496812
-2.8174125e-05
-0.00034448593
-1.507286e-05
-0.00036693195
-0.00039299912
2.2415054e-06
1.7327497e-05
-0.00041068304
3.0450154e-05
-0.00038009925
4.0309516e-05
-0.00035434643
4.76074e-05
-0.00033226488
5.2872484e-05
-0.0003131275
5.6509696e-05
-0.00029640496
5.8832816e-05
-0.00028169606
6.0087527e-05
-0.00026868807
6.0468112e-05
-0.00025713356
6.0129786e-05
-0.00024683321
5.9197071e-05
-0.0002376253
5.777083e-05
-0.00022937401
5.5933249e-05
-0.00022196946
5.3751812e-05
-0.00021531895
5.1282062e-05
-0.0002093441
4.8570021e-05
-0.0002039791
4.5654079e-05
-0.00019916759
4.2566478e-05
-0.00019486195
3.933452e-05
-0.00019102202
3.5981464e-05
-0.00018761378
3.2527048e-05
-0.00018460804
2.8988119e-05
-0.0001819793
2.537911e-05
-0.0001797058
2.171264e-05
-0.00017776916
1.7999817e-05
-0.00017615426
1.425061e-05
-0.00017484885
1.0474002e-05
-0.00017384325
6.6783108e-06
-0.00017313009
2.8713344e-06
-0.00017270421
-9.3936071e-07
-0.00017256253
-4.7463642e-06
-0.00017270402
-8.5420879e-06
-0.00017312967
-1.2318747e-05
-0.00017384252
-1.6067978e-05
-0.00017484769
-1.9780848e-05
-0.00017615261
-2.3447405e-05
-0.00017776713
-2.7056615e-05
-0.00017970378
-3.0595771e-05
-0.00018197784
-3.4050285e-05
-0.00018460752
-3.7403132e-05
-0.0001876139
-4.063467e-05
-0.00019102173
-4.3721881e-05
-0.00019486019
-4.6637759e-05
-0.00019916408
-4.9350106e-05
-0.00020397463
-5.1820452e-05
-0.00020934004
-5.4002423e-05
-0.0002153165
-5.5840308e-05
-0.00022196883
-5.7266665e-05
-0.00022937448
-5.8199484e-05
-0.00023762606
-5.8537828e-05
-0.00024683361
-5.8157304e-05
-0.00025713263
-5.6902945e-05
-0.00026868502
-5.4580714e-05
-0.0002816912
-5.0944824e-05
-0.00029639973
-4.5681603e-05
-0.00031312363
-3.838563e-05
-0.00033226409
-2.8525627e-05
-0.00035434595
-1.5395087e-05
-0.00038006247
-0.00041035397
1.9597504e-06
1.7368022e-05
-0.00042805105
3.0519572e-05
-0.00039325077
4.0399807e-05
-0.00036422666
4.7711464e-05
-0.00033957652
5.2984882e-05
-0.00031840091
5.662622e-05
-0.00030004629
5.8950239e-05
-0.00028402006
6.0203125e-05
-0.00026994094
6.0579737e-05
-0.00025751016
6.0235713e-05
-0.00024648917
5.9295843e-05
-0.00023668542
5.7861252e-05
-0.00022793939
5.6014322e-05
-0.00022012253
5.3822706e-05
-0.00021312731
5.1342066e-05
-0.00020686345
4.8618571e-05
-0.0002012556
4.5690719e-05
-0.00019623972
4.2590824e-05
-0.00019176205
3.934634e-05
-0.00018777751
3.5980575e-05
-0.000184248
3.251332e-05
-0.00018114076
2.8961374e-05
-0.00017842733
2.5339159e-05
-0.00017608357
2.165932e-05
-0.00017408927
1.7932954e-05
-0.00017242788
1.4170117e-05
-0.00017108597
1.0379791e-05
-0.00017005293
6.5703962e-06
-0.00016932066
2.7497176e-06
-0.00016888353
-1.0746445e-06
-0.00016873814
-4.895278e-06
-0.00016888338
-8.7046076e-06
-0.00016932033
-1.2494791e-05
-0.00017005232
-1.6257512e-05
-0.00017108496
-1.9983778e-05
-0.00017242633
-2.3663693e-05
-0.00017408719
-2.7286151e-05
-0.0001760813
-3.0838433e-05
-0.00017842553
-3.4305884e-05
-0.00018114006
-3.7671433e-05
-0.00018424832
-4.0915332e-05
-0.00018777782
-4.4014485e-05
-0.000191761
-4.6941853e-05
-0.00019623671
-4.9665232e-05
-0.00020125123
-5.2146148e-05
-0.00020685913
-5.4338118e-05
-0.00021312451
-5.6185216e-05
-0.00022012173
-5.761977e-05
-0.00022793991
-5.8559504e-05
-0.00023668633
-5.890322e-05
-0.00024648987
-5.8526205e-05
-0.00025750964
-5.7273128e-05
-0.00026993807
-5.4949471e-05
-0.00028401485
-5.1308819e-05
-0.00030004036
-4.603651e-05
-0.00031839594
-3.8726256e-05
-0.00033957432
-2.8845316e-05
-0.00036422689
-1.5685231e-05
-0.00039322254
-0.00042774949
1.7102854e-06
1.7408621e-05
-0.00044545967
3.0590305e-05
-0.00040643242
4.0491642e-05
-0.00037412801
4.7817443e-05
-0.00034690229
5.3099641e-05
-0.00032368312
5.6745652e-05
-0.00030369226
5.907108e-05
-0.0002863455
6.032274e-05
-0.00027119257
6.0695941e-05
-0.00025788336
6.034687e-05
-0.00024614005
5.9400536e-05
-0.00023573908
5.7958288e-05
-0.00022649709
5.6102693e-05
-0.00021826693
5.3901554e-05
-0.00021092612
5.1410557e-05
-0.00020437245
4.867612e-05
-0.00019852111
4.5736747e-05
-0.00019330035
4.2624992e-05
-0.00018865025
3.9368366e-05
-0.00018452088
3.5990371e-05
-0.00018086997
3.2510705e-05
-0.00017766108
2.8946219e-05
-0.0001748628
2.5311307e-05
-0.00017244865
2.1618664e-05
-0.00017039658
1.7879373e-05
-0.00016868858
1.41035e-05
-0.00016731004
1.0300023e-05
-0.00016624944
6.4774132e-06
-0.00016549799
2.6434583e-06
-0.00016504956
-1.19416e-06
-0.00016490047
-5.0280368e-06
-0.00016504949
-8.8505112e-06
-0.00016549781
-1.2653799e-05
-0.00016624902
-1.642949e-05
-0.00016730922
-2.0168634e-05
-0.00016868717
-2.3861262e-05
-0.00017039453
-2.7496326e-05
-0.00017244622
-3.1061097e-05
-0.00017486072
-3.4540953e-05
-0.00017766018
-3.7918743e-05
-0.00018087049
-4.1174616e-05
-0.00018452193
-4.4285382e-05
-0.0001886502
-4.722392e-05
-0.00019329815
-4.9957973e-05
-0.00019851714
-5.2449025e-05
-0.00020436806
-5.4650559e-05
-0.00021092294
-5.6506435e-05
-0.00021826584
-5.7948777e-05
-0.00022649754
-5.8894976e-05
-0.00023574011
-5.9243595e-05
-0.00024614122
-5.8869623e-05
-0.0002578836
-5.7617374e-05
-0.0002711903
-5.5291877e-05
-0.00028634034
-5.1646125e-05
-0.00030368609
-4.6364392e-05
-0.00032367766
-3.9039566e-05
-0.00034689913
-2.9137478e-05
-0.00037412897
-1.5947762e-05
-0.00040641224
-0.00044518575
1.488508e-06
1.7449259e-05
-0.00046290889
3.0660681e-05
-0.00041964383
4.0583526e-05
-0.00038405082
4.7923737e-05
-0.00035424249
5.3215145e-05
-0.00032897449
5.6866164e-05
-0.00030734328
5.9193477e-05
-0.00028867277
6.0444207e-05
-0.0002724433
6.0814379e-05
-0.0002582535
6.046048e-05
-0.00024578617
5.9508017e-05
-0.00023478658
5.805837e-05
-0.00022504746
5.6194587e-05
-0.00021640311
5.3984311e-05
-0.00020871585
5.148354e-05
-0.00020187165
4.873865e-05
-0.00019577621
4.5788355e-05
-0.00019035002
4.266521e-05
-0.0001855271
3.9397009e-05
-0.00018125266
3.6007174e-05
-0.00017748013
3.2515513e-05
-0.0001741694
2.8938762e-05
-0.00017128606
2.5291499e-05
-0.00016880135
2.1586326e-05
-0.00016669142
1.7834529e-05
-0.00016493675
1.4046025e-05
-0.00016352155
1.0229958e-05
-0.00016243334
6.3946046e-06
-0.00016166265
2.5479211e-06
-0.00016120285
-1.3025554e-06
-0.00016105
-5.1492442e-06
-0.00016120278
-8.9845837e-06
-0.00016166246
-1.2800632e-05
-0.00016243295
-1.6589039e-05
-0.00016352082
-2.0340715e-05
-0.00016493548
-2.404575e-05
-0.00016668949
-2.7693014e-05
-0.00016879894
-3.1269912e-05
-0.00017128383
-3.4761737e-05
-0.00017416834
-3.8151329e-05
-0.0001774809
-4.1418673e-05
-0.00018125458
-4.4540588e-05
-0.00018552829
-4.7489823e-05
-0.00019034891
-5.0234106e-05
-0.00019577286
-5.2734841e-05
-0.00020186731
-5.4945544e-05
-0.00020871224
-5.6809796e-05
-0.00021640158
-5.8259612e-05
-0.00022504772
-5.9212004e-05
-0.00023478771
-5.9565256e-05
-0.00024578797
-5.9194057e-05
-0.00025825479
-5.794236e-05
-0.000272442
-5.5614742e-05
-0.00028866795
-5.1963691e-05
-0.00030733714
-4.6672357e-05
-0.00032896899
-3.933281e-05
-0.00035423867
-2.9409555e-05
-0.00038405222
-1.6190246e-05
-0.00041963154
-0.00046266258
1.2865744e-06
1.7490217e-05
-0.00048039911
3.0731881e-05
-0.0004328855
4.0676363e-05
-0.00039399529
4.8031191e-05
-0.00036159732
5.3331995e-05
-0.00033427528
5.6988385e-05
-0.00031099966
5.931783e-05
-0.00029100221
6.0568185e-05
-0.00027369365
6.0935801e-05
-0.00025862111
6.0577546e-05
-0.00024542791
5.9619186e-05
-0.00023382821
5.8162428e-05
-0.0002235907
5.6290611e-05
-0.00021453128
5.407145e-05
-0.00020649668
5.1561108e-05
-0.00019936129
4.8806169e-05
-0.00019302127
4.5845308e-05
-0.00018738915
4.2711318e-05
-0.00018239311
3.9432051e-05
-0.00017797338
3.6030963e-05
-0.00017407904
3.252775e-05
-0.00017066618
2.8939219e-05
-0.00016769752
2.5279926e-05
-0.00016514205
2.1562609e-05
-0.0001629741
1.7798548e-05
-0.00016117268
1.3997769e-05
-0.00015972077
1.0169384e-05
-0.00015860494
6.3217318e-06
-0.000157815
2.4627247e-06
-0.00015734383
-1.4000761e-06
-0.0001571872
-5.2591271e-06
-0.00015734371
-9.1068325e-06
-0.00015781476
-1.2935244e-05
-0.00015860453
-1.6735971e-05
-0.00015972009
-2.0499888e-05
-0.00016117155
-2.4217021e-05
-0.00016297236
-2.7876223e-05
-0.00016513973
-3.1464886e-05
-0.00016769516
-3.4968345e-05
-0.00017066487
-3.8369337e-05
-0.00017407991
-4.1647769e-05
-0.00017797613
-4.4780424e-05
-0.00018239563
-4.7740028e-05
-0.00018738929
-5.0494199e-05
-0.00019301869
-5.300429e-05
-0.00019935721
-5.5223818e-05
-0.00020649271
-5.7096021e-05
-0.00021452936
-5.8552861e-05
-0.00022359088
-5.9511059e-05
-0.0002338295
-5.9868566e-05
-0.00024543046
-5.9499812e-05
-0.00025862353
-5.8248347e-05
-0.00027369346
-5.5918279e-05
-0.00029099801
-5.2261742e-05
-0.00031099367
-4.6960653e-05
-0.00033427007
-3.9606237e-05
-0.00036159309
-2.9661811e-05
-0.00039399664
-1.6412964e-05
-0.00043288039
-0.00048017975
1.1042117e-06
1.7531782e-05
-0.00049793087
3.0803302e-05
-0.00044615701
4.0770206e-05
-0.00040396217
4.8140059e-05
-0.00036896715
5.3450736e-05
-0.00033958594
5.7112999e-05
-0.00031466191
5.9444937e-05
-0.00029333413
6.0695467e-05
-0.00027494416
6.1061279e-05
-0.0002589869
6.0699291e-05
-0.0002450659
5.9735563e-05
-0.00023286447
5.8272004e-05
-0.00022212712
5.6392405e-05
-0.00021265166
5.4164465e-05
-0.00020426873
5.1644662e-05
-0.00019684147
4.8879719e-05
-0.00019025632
4.5908311e-05
-0.00018441771
4.2763597e-05
-0.00017924838
3.9473427e-05
-0.00017468318
3.606125e-05
-0.00017066684
3.2546714e-05
-0.00016715161
2.8946608e-05
-0.00016409739
2.5275542e-05
-0.00016147096
2.1546287e-05
-0.00015924482
1.7770158e-05
-0.00015739652
1.3957229e-05
-0.00015590782
1.0116638e-05
-0.00015476432
6.2567825e-06
-0.00015395512
2.385576e-06
-0.00015347259
-1.4893835e-06
-0.00015331222
-5.3605745e-06
-0.00015347249
-9.2203929e-06
-0.00015395492
-1.3060905e-05
-0.00015476399
-1.6873703e-05
-0.00015590727
-2.0649623e-05
-0.0001573956
-2.4378646e-05
-0.00015924331
-2.8049575e-05
-0.00016146878
-3.1649806e-05
-0.00016409492
-3.5164752e-05
-0.0001671499
-3.8577055e-05
-0.00017066759
-4.1866533e-05
-0.00017468663
-4.5009923e-05
-0.00017925223
-4.7979893e-05
-0.0001844193
-5.0743904e-05
-0.00019025466
-5.3263235e-05
-0.00019683786
-5.5491528e-05
-0.0002042644
-5.7371424e-05
-0.00021264945
-5.8834908e-05
-0.00022212738
-5.9798553e-05
-0.00023286584
-6.0159972e-05
-0.00024506903
-5.9793339e-05
-0.00025899014
-5.8541735e-05
-0.00027494505
-5.620872e-05
-0.000293331
-5.2546184e-05
-0.0003146562
-4.7234888e-05
-0.00033958135
-3.9864781e-05
-0.00036896319
-2.9898469e-05
-0.00040396294
-1.6618974e-05
-0.00044615987
-0.0004977386
9.3988376e-07
1.7570028e-05
-0.0005155009
3.0870811e-05
-0.00045945777
4.0860176e-05
-0.00041395154
4.8244431e-05
-0.00037635139
5.3564715e-05
-0.00034490621
5.7233157e-05
-0.00031833032
5.9567162e-05
-0.00029566812
6.0817717e-05
-0.00027619469
6.1182382e-05
-0.00025935155
6.0817354e-05
-0.00024470084
5.9848639e-05
-0.00023189574
5.837865e-05
-0.0002206571
5.6491503e-05
-0.0002107645
5.4255122e-05
-0.00020203231
5.1726187e-05
-0.00019431251
4.8951457e-05
-0.00018748156
4.5969695e-05
-0.00018143593
4.2814554e-05
-0.00017609321
3.951362e-05
-0.00017138222
3.6090438e-05
-0.00016724363
3.2564658e-05
-0.00016362581
2.8953114e-05
-0.00016048582
2.5270429e-05
-0.00015778824
2.1529423e-05
-0.00015550379
1.7741424e-05
-0.00015360849
1.3916532e-05
-0.0001520829
1.00639e-05
-0.00015091166
6.1919481e-06
-0.00015008314
2.308626e-06
-0.00014958924
-1.5784524e-06
-0.00014942511
-5.4617305e-06
-0.00014958918
-9.3336012e-06
-0.00015008303
-1.3186105e-05
-0.00015091145
-1.7010836e-05
-0.00015208252
-2.0798597e-05
-0.0001536078
-2.4539351e-05
-0.00015550255
-2.8221831e-05
-0.00015778626
-3.1833471e-05
-0.00016048326
-3.5359715e-05
-0.00016362362
-3.8783216e-05
-0.00016724408
-4.2083641e-05
-0.00017138616
-4.523774e-05
-0.00017609812
-4.8217992e-05
-0.000181439
-5.0991789e-05
-0.00018748086
-5.3520277e-05
-0.00019430932
-5.5757372e-05
-0.00020202731
-5.7644912e-05
-0.00021076186
-5.9114865e-05
-0.00022065743
-6.0083749e-05
-0.00023189691
-6.0449083e-05
-0.00024470371
-6.0084502e-05
-0.00025935468
-5.8832755e-05
-0.00027619681
-5.6496689e-05
-0.00029566703
-5.2828045e-05
-0.00031832486
-4.7507101e-05
-0.00034490225
-4.0121182e-05
-0.00037634912
-3.013359e-05
-0.00041395049
-1.6823506e-05
-0.00045946998
-0.00051533912
7.7705999e-07
1.7606718e-05
-0.00053310758
3.0935621e-05
-0.00047278666
4.0946511e-05
-0.00042396239
4.8342282e-05
-0.00038374714
5.3670488e-05
-0.00035023438
5.7346001e-05
-0.00032200582
5.968089e-05
-0.00029800297
6.0931141e-05
-0.00027744493
6.1296679e-05
-0.00025971705
6.0930328e-05
-0.00024433448
5.9958092e-05
-0.00023092346
5.848359e-05
-0.00021918259
5.6590283e-05
-0.00020887115
5.4347596e-05
-0.00019978962
5.1811647e-05
-0.00019177652
4.9028881e-05
-0.00018469878
4.6038952e-05
-0.00017844596
4.2875499e-05
-0.00017292975
3.9565852e-05
-0.00016807253
3.6133363e-05
-0.00016381114
3.2598233e-05
-0.00016009064
2.897711e-05
-0.00015686469
2.52847e-05
-0.00015409579
2.1533787e-05
-0.00015175288
1.7735809e-05
-0.00014981047
1.3900783e-05
-0.00014824787
1.0037947e-05
-0.00014704877
6.155651e-06
-0.00014620084
2.2619334e-06
-0.00014569547
-1.6356289e-06
-0.00014552755
-5.5293321e-06
-0.00014569542
-9.4116016e-06
-0.00014620076
-1.3274391e-05
-0.0001470486
-1.7109361e-05
-0.00014824756
-2.0907227e-05
-0.00014980988
-2.4657992e-05
-0.00015175179
-2.8350303e-05
-0.00015409389
-3.1971738e-05
-0.00015686184
-3.5507357e-05
-0.00016008795
-3.8940185e-05
-0.00016381127
-4.2249857e-05
-0.00016807644
-4.5412919e-05
-0.00017293508
-4.8401564e-05
-0.0001784503
-5.1183311e-05
-0.00018469913
-5.3719691e-05
-0.00019177289
-5.5963759e-05
-0.00019978326
-5.7857652e-05
-0.00020886791
-5.933253e-05
-0.00021918258
-6.0305124e-05
-0.00023092426
-6.0673403e-05
-0.00024433545
-6.0309947e-05
-0.00025971808
-5.9057238e-05
-0.00027744955
-5.6717924e-05
-0.00029800628
-5.3042834e-05
-0.00032199998
-4.7715343e-05
-0.00035022968
-4.0314706e-05
-0.00038374979
-3.0310845e-05
-0.00042395429
-1.6973916e-05
-0.00047280694
-0.00053297607
6.6307742e-07
1.7649066e-05
-0.00055075663
3.0998041e-05
-0.00048613562
4.1036319e-05
-0.00043400065
4.8438996e-05
-0.0003911498
5.3774367e-05
-0.00035556973
5.7460421e-05
-0.00032569186
5.9790244e-05
-0.00030033277
6.1038234e-05
-0.0002786929
6.1406391e-05
-0.00026008518
6.1038115e-05
-0.00024396619
6.0061772e-05
-0.00022994709
5.858398e-05
-0.00021770478
5.6683562e-05
-0.0002069707
5.4435677e-05
-0.00019754172
5.1893033e-05
-0.00018923385
4.9101637e-05
-0.00018190737
4.6104393e-05
-0.00017544868
4.2933027e-05
-0.00016975836
3.9615237e-05
-0.00016475471
3.6172691e-05
-0.00016036858
3.2628112e-05
-0.00015654602
2.8997683e-05
-0.00015323425
2.5295883e-05
-0.00015039395
2.1535561e-05
-0.00014799254
1.7728092e-05
-0.00014600296
1.3883561e-05
-0.00014440333
1.0011172e-05
-0.00014317634
6.1193283e-06
-0.00014230899
2.216032e-06
-0.00014179213
-1.6910655e-06
-0.00014162044
-5.5943038e-06
-0.00014179214
-9.4860741e-06
-0.00014230898
-1.3358351e-05
-0.00014317629
-1.7202727e-05
-0.00014440317
-2.1010007e-05
-0.00014600256
-2.4770098e-05
-0.00014799169
-2.8471849e-05
-0.0001503921
-3.210319e-05
-0.00015323049
-3.5647124e-05
-0.00015654397
-3.9088288e-05
-0.0001603701
-4.2406913e-05
-0.00016475777
-4.5578115e-05
-0.00016976387
-4.8573705e-05
-0.00017545468
-5.1362035e-05
-0.0001819108
-5.390681e-05
-0.00018922808
-5.6155417e-05
-0.00019753465
-5.8054939e-05
-0.00020696835
-5.9532919e-05
-0.0002177046
-6.0506567e-05
-0.00022995058
-6.08763e-05
-0.00024396572
-6.0511327e-05
-0.00026008301
-5.9253785e-05
-0.0002787071
-5.6908015e-05
-0.00030035201
-5.3220758e-05
-0.00032568724
-4.788991e-05
-0.00035556048
-4.0467107e-05
-0.00039117261
-3.044948e-05
-0.00043397187
-1.7074912e-05
-0.00048618153
-0.00055066205
6.1112767e-07
1.7712023e-05
-0.00056846863
3.1120077e-05
-0.00049954365
4.1196217e-05
-0.00044407676
4.8626955e-05
-0.00039858052
5.3992383e-05
-0.00036093513
5.7683747e-05
-0.0003293832
6.0018016e-05
-0.000302667
6.1278293e-05
-0.00027995315
6.1642388e-05
-0.00026044924
6.1257595e-05
-0.00024358136
6.0271904e-05
-0.00022896135
5.8775148e-05
-0.00021620799
5.6861069e-05
-0.00020505658
5.4593933e-05
-0.00019527455
5.2030638e-05
-0.00018667051
4.9217194e-05
-0.00017909389
4.6197664e-05
-0.0001724291
4.3002413e-05
-0.00016656308
3.9660454e-05
-0.0001614127
3.6197803e-05
-0.00015690589
3.2630191e-05
-0.00015297835
2.897553e-05
-0.00014957956
2.524924e-05
-0.0001466676
2.1464347e-05
-0.00014420762
1.7632379e-05
-0.00014217093
1.3763449e-05
-0.00014053437
9.8668564e-06
-0.00013927968
5.9510144e-06
-0.00013839312
2.0240178e-06
-0.00013786506
-1.9066598e-06
-0.00013768974
-5.8336041e-06
-0.00013786513
-9.7493724e-06
-0.00013839319
-1.364581e-05
-0.00013927978
-1.7514525e-05
-0.00014053444
-2.134609e-05
-0.00014217092
-2.5130369e-05
-0.0001442074
-2.8855497e-05
-0.0001466669
-3.2508071e-05
-0.00014957791
-3.607624e-05
-0.00015297572
-3.9539955e-05
-0.00015690638
-4.2879395e-05
-0.00016141825
-4.6073852e-05
-0.00016656942
-4.909191e-05
-0.00017243654
-5.1899575e-05
-0.00017910315
-5.4458614e-05
-0.00018666896
-5.6728063e-05
-0.00019526522
-5.8645682e-05
-0.00020505065
-6.0139499e-05
-0.0002162108
-6.113008e-05
-0.00022895991
-6.1508061e-05
-0.00024358777
-6.1155148e-05
-0.00026043584
-5.9901222e-05
-0.00027996105
-5.7559624e-05
-0.00030269353
-5.3860681e-05
-0.00032938622
-4.8508561e-05
-0.00036091252
-4.1057732e-05
-0.00039862349
-3.099429e-05
-0.00044403522
-1.757049e-05
-0.00049960539
-0.00056841725
1.8480911e-07
1.7572942e-05
-0.00058604155
3.1061069e-05
-0.00051303176
4.111701e-05
-0.00045413268
4.8607368e-05
-0.00040607086
5.3961113e-05
-0.00036628884
5.7627532e-05
-0.0003330496
6.000994e-05
-0.00030504938
6.1273281e-05
-0.00028121648
6.1622882e-05
-0.0002607988
6.1254628e-05
-0.0002432131
6.0271233e-05
-0.00022797792
5.8781136e-05
-0.00021471788
5.6862924e-05
-0.00020313832
5.4582351e-05
-0.00019299397
5.2007312e-05
-0.00018409542
4.9193132e-05
-0.00017627971
4.6176255e-05
-0.00016941218
4.2992577e-05
-0.0001633794
3.9668415e-05
-0.00015808848
3.6222408e-05
-0.00015345988
3.2670704e-05
-0.00014942659
2.9031198e-05
-0.00014594005
2.5319382e-05
-0.00014295572
2.1548258e-05
-0.00014043649
1.7729455e-05
-0.00013835206
1.3873063e-05
-0.00013667798
9.9884518e-06
-0.00013539501
6.084006e-06
-0.00013448868
2.1678728e-06
-0.00013394886
-1.7522836e-06
-0.00013376959
-5.6684826e-06
-0.00013394886
-9.5730239e-06
-0.00013448866
-1.3457743e-05
-0.00013539499
-1.731425e-05
-0.00013667795
-2.1133078e-05
-0.00013835203
-2.4904077e-05
-0.00014043642
-2.8615317e-05
-0.00014295559
-3.2253545e-05
-0.0001459397
-3.5807956e-05
-0.00014942125
-3.9267519e-05
-0.00015344684
-4.2613524e-05
-0.00015807219
-4.5818775e-05
-0.00016336418
-4.8852019e-05
-0.00016940323
-5.1674831e-05
-0.00017628035
-5.4237813e-05
-0.00018410592
-5.6499047e-05
-0.000193004
-5.8414518e-05
-0.00020313512
-5.9920528e-05
-0.00021470481
-6.0921623e-05
-0.00022795877
-6.1311979e-05
-0.00024319743
-6.0960587e-05
-0.00026078717
-5.972268e-05
-0.00028119899
-5.7380262e-05
-0.00030503588
-5.3700604e-05
-0.00033306591
-4.8308239e-05
-0.0003663048
-4.0888891e-05
-0.00040604288
-3.0767749e-05
-0.00045415628
-1.7398388e-05
-0.0005129748
-0.00058610809
2.925487e-07
1.7600844e-05
3.1099855e-05
4.1162315e-05
4.8661762e-05
5.4008881e-05
5.7682598e-05
6.0070723e-05
6.1324478e-05
6.1673265e-05
6.1313534e-05
6.0329366e-05
5.8845462e-05
5.6926914e-05
5.4649545e-05
5.2077906e-05
4.926764e-05
4.6253685e-05
4.3072963e-05
3.9750921e-05
3.6302565e-05
3.2750578e-05
2.9111541e-05
2.5400222e-05
2.1629483e-05
1.7810897e-05
1.3954517e-05
1.0069764e-05
6.1649434e-06
2.2483057e-06
-1.672516e-06
-5.5891932e-06
-9.4940887e-06
-1.3378857e-05
-1.7235337e-05
-2.1053916e-05
-2.4824793e-05
-2.8536219e-05
-3.217634e-05
-3.5729011e-05
-3.9187562e-05
-4.2532803e-05
-4.5734437e-05
-4.8763783e-05
-5.1585123e-05
-5.414963e-05
-5.640491e-05
-5.8314837e-05
-5.9816167e-05
-6.080865e-05
-6.1195908e-05
-6.083347e-05
-5.9589028e-05
-5.7232833e-05
-5.3548924e-05
-4.814801e-05
-4.0721351e-05
-3.0588165e-05
-1.7199988e-05
5.1396061e-07
-6.4638256e-06
-0.00022316746
0.00021725603
1.2375077e-05
-1.3360488e-06
-0.00022386477
0.00021873688
3.0803257e-06
-0.00022459492
0.00022017844
6.8492694e-06
-0.00022534867
0.00022157962
1.0027826e-05
-0.00022611773
0.00022293907
1.2667057e-05
-0.00022689516
0.00022425582
1.4812921e-05
-0.00022767464
0.00022552868
1.6506919e-05
-0.00022845052
0.00022675642
1.7786712e-05
-0.00022921792
0.00022793803
1.8686589e-05
-0.00022997228
0.00022907232
1.9237987e-05
-0.00023070975
0.00023015827
1.946972e-05
-0.00023142671
0.00023119488
1.9408441e-05
-0.00023212001
0.0002321812
1.9078841e-05
-0.00023278682
0.00023311633
1.8503895e-05
-0.00023342442
0.00023399928
1.7705111e-05
-0.00023403056
0.00023482925
1.6702671e-05
-0.00023460314
0.00023560549
1.5515627e-05
-0.00023514035
0.00023632731
1.4162001e-05
-0.00023564044
0.00023699399
1.265894e-05
-0.00023610184
0.00023760483
1.1022791e-05
-0.00023652305
0.00023815913
9.2692426e-06
-0.0002369028
0.00023865628
7.4133794e-06
-0.00023724012
0.00023909592
5.4698114e-06
-0.00023753428
0.0002394778
3.452719e-06
-0.00023778475
0.00023980179
1.3759679e-06
-0.00023799087
0.00024006758
-7.4686912e-07
-0.00023815196
0.00024027476
-2.9024175e-06
-0.00023826739
0.0002404229
-5.0774559e-06
-0.0002383367
0.0002405117
-7.2588406e-06
-0.00023835967
0.00024054103
-9.4334814e-06
-0.00023833628
0.0002405109
-1.1588246e-05
-0.00023826665
0.0002404214
-1.3709928e-05
-0.00023815101
0.00024027267
-1.5785163e-05
-0.0002379897
0.00024006492
-1.7800376e-05
-0.00023778319
0.00023979839
-1.9741687e-05
-0.00023753207
0.00023947337
-2.1594862e-05
-0.00023723702
0.00023909018
-2.3345256e-05
-0.00023689869
0.00023864907
-2.4977779e-05
-0.00023651788
0.00023815039
-2.6476836e-05
-0.0002360955
0.00023759455
-2.7826216e-05
-0.00023563276
0.00023698212
-2.9008931e-05
-0.00023513114
0.00023631384
-3.0007068e-05
-0.00023459239
0.00023559051
-3.0801641e-05
-0.00023401843
0.00023481299
-3.1372458e-05
-0.00023341124
0.00023398204
-3.1698014e-05
-0.00023277297
0.00023309851
-3.175525e-05
-0.0002321058
0.00023216302
-3.1519431e-05
-0.00023141226
0.00023117643
-3.0963828e-05
-0.00023069493
0.00023013931
-3.0059573e-05
-0.00022995671
0.00022905244
-2.8775295e-05
-0.00022920101
0.00022791671
-2.7076787e-05
-0.00022843173
0.00022673322
-2.4926708e-05
-0.00022765399
0.0002255039
-2.2284111e-05
-0.00022687439
0.00022423176
-1.9104215e-05
-0.00022610372
0.00022292383
-1.5338428e-05
-0.00022536258
0.00022159667
-1.0934064e-05
-0.00022469648
0.00022029201
-5.8369745e-06
-0.00022422078
0.00021912358
-0.00022426499
0.00021842802
-5.2355397e-06
-0.00022953336
1.1601431e-05
2.8252219e-07
-0.00022938285
5.0308332e-06
-0.00022934324
9.0785906e-06
-0.00022939645
1.2487591e-05
-0.00022952674
1.5313074e-05
-0.00022972066
1.7604769e-05
-0.00022996635
1.9407556e-05
-0.00023025332
2.0762184e-05
-0.00023057256
2.170575e-05
-0.00023091587
2.2272276e-05
-0.00023127629
2.2492938e-05
-0.00023164738
2.2396571e-05
-0.00023202366
2.2009896e-05
-0.00023240016
2.1357763e-05
-0.0002327723
2.0463442e-05
-0.00023313624
1.9348766e-05
-0.00023348848
1.803435e-05
-0.00023382593
1.6539682e-05
-0.00023414578
1.4883298e-05
-0.00023444545
1.3082865e-05
-0.00023472262
1.1155343e-05
-0.00023497527
9.1170608e-06
-0.00023520184
6.9838335e-06
-0.00023540105
4.7710087e-06
-0.00023557193
2.4935655e-06
-0.00023571343
1.6617332e-07
-0.00023582457
-2.1967264e-06
-0.00023590448
-4.5808564e-06
-0.00023595257
-6.9720089e-06
-0.00023596852
-9.3560124e-06
-0.00023595228
-1.171866e-05
-0.00023590401
-1.4045658e-05
-0.00023582402
-1.6322538e-05
-0.00023571282
-1.853461e-05
-0.00023557113
-2.0666863e-05
-0.00023539982
-2.2703915e-05
-0.00023519998
-2.4629924e-05
-0.00023497269
-2.6428554e-05
-0.00023471926
-2.8082878e-05
-0.00023444119
-2.9575291e-05
-0.00023414035
-3.0887347e-05
-0.00023381909
-3.1999624e-05
-0.00023348012
-3.2891559e-05
-0.0002331265
-3.3541311e-05
-0.0002327615
-3.3925599e-05
-0.00023238869
-3.4019533e-05
-0.00023201187
-3.3796349e-05
-0.00023163546
-3.3227151e-05
-0.00023126414
-3.2280755e-05
-0.00023090312
-3.092313e-05
-0.00023055864
-2.9117229e-05
-0.00023023765
-2.6822442e-05
-0.00022994879
-2.3994237e-05
-0.00022970259
-2.0583724e-05
-0.00022951426
-1.6537237e-05
-0.00022940896
-1.1796889e-05
-0.00022943674
-6.3022066e-06
-0.00022971538
-0.0002305672
-3.9757289e-06
-0.00023639152
1.0833907e-05
1.9652478e-06
-0.00023532382
7.073526e-06
-0.00023445149
1.1423963e-05
-0.00023374688
1.5083376e-05
-0.00023318613
1.8111511e-05
-0.00023274878
2.0562156e-05
-0.00023241698
2.2483859e-05
-0.00023217501
2.3920693e-05
-0.00023200937
2.491279e-05
-0.00023190794
2.5496949e-05
-0.00023186043
2.5706901e-05
-0.00023185731
2.5573837e-05
-0.00023189056
2.512666e-05
-0.00023195295
2.4392252e-05
-0.00023203786
2.3395787e-05
-0.00023213974
2.2160882e-05
-0.00023225354
2.0709828e-05
-0.00023237485
1.9063713e-05
-0.00023249964
1.7242583e-05
-0.00023262429
1.5265562e-05
-0.00023274557
1.3150994e-05
-0.00023286068
1.0916551e-05
-0.00023296738
8.579337e-06
-0.00023306382
6.1559628e-06