/*--------------------------------*- C++ -*----------------------------------*\
| =========                 |                                                 |
| \\      /  F ield         | OpenFOAM: The Open Source CFD Toolbox           |
|  \\    /   O peration     | Version:  v2006                                 |
|   \\  /    A nd           | Website:  www.openfoam.com                      |
|    \\/     M anipulation  |                                                 |
\*---------------------------------------------------------------------------*/
FoamFile
{
    version     2.0;
    format      ascii;
    class       volScalarField;
    location    "8000";
    object      pMean;
}
// * * * * * * * * * * * * * * * * * * * * * * * * * * * * * * * * * * * * * //

dimensions      [1 -1 -2 0 0 0 0];


internalField   nonuniform List<scalar> 
55713
(
1.0000321
1.0000322
1.0000322
1.0000322
1.0000322
1.0000322
1.0000322
1.0000322
1.0000322
1.0000322
1.0000322
1.0000322
1.0000322
1.0000322
1.0000322
1.0000322
1.0000322
1.0000322
1.0000322
1.0000322
1.0000322
1.0000322
1.0000322
1.0000322
1.0000322
1.0000322
1.0000322
1.0000322
1.0000322
1.0000322
1.0000322
1.0000322
1.0000322
1.0000322
1.0000322
1.0000322
1.0000322
1.0000321
1.0000321
1.0000321
1.0000321
1.0000321
1.0000321
1.0000321
1.0000321
1.0000321
1.0000321
1.0000321
1.0000321
1.0000321
1.0000321
1.0000321
1.0000321
1.0000321
1.0000321
1.0000321
1.0000321
1.0000321
1.0000321
1.00003
1.00003
1.00003
1.00003
1.00003
1.00003
1.00003
1.0000301
1.0000301
1.0000301
1.0000301
1.0000301
1.0000301
1.0000301
1.0000301
1.0000301
1.0000301
1.0000301
1.0000301
1.0000301
1.0000301
1.0000301
1.0000301
1.0000301
1.0000301
1.0000301
1.0000301
1.0000301
1.0000301
1.0000301
1.0000301
1.0000301
1.0000301
1.0000301
1.0000301
1.0000301
1.0000301
1.0000301
1.0000301
1.0000301
1.0000301
1.0000301
1.0000301
1.0000301
1.0000301
1.0000301
1.0000301
1.0000301
1.0000301
1.0000301
1.0000301
1.0000301
1.0000301
1.0000301
1.0000301
1.0000301
1.0000301
1.0000301
1.0000301
1.0000282
1.0000282
1.0000282
1.0000282
1.0000282
1.0000282
1.0000282
1.0000282
1.0000282
1.0000282
1.0000282
1.0000282
1.0000282
1.0000282
1.0000282
1.0000282
1.0000282
1.0000283
1.0000283
1.0000283
1.0000283
1.0000283
1.0000283
1.0000283
1.0000283
1.0000283
1.0000283
1.0000283
1.0000283
1.0000283
1.0000283
1.0000283
1.0000283
1.0000283
1.0000283
1.0000283
1.0000283
1.0000283
1.0000283
1.0000283
1.0000283
1.0000283
1.0000283
1.0000283
1.0000283
1.0000283
1.0000283
1.0000283
1.0000283
1.0000283
1.0000283
1.0000283
1.0000283
1.0000283
1.0000283
1.0000283
1.0000283
1.0000283
1.0000283
1.0000266
1.0000266
1.0000266
1.0000266
1.0000266
1.0000266
1.0000266
1.0000266
1.0000267
1.0000267
1.0000267
1.0000267
1.0000267
1.0000267
1.0000267
1.0000267
1.0000267
1.0000267
1.0000267
1.0000267
1.0000267
1.0000267
1.0000267
1.0000267
1.0000267
1.0000267
1.0000267
1.0000267
1.0000267
1.0000267
1.0000267
1.0000267
1.0000267
1.0000267
1.0000267
1.0000267
1.0000267
1.0000267
1.0000267
1.0000267
1.0000267
1.0000267
1.0000267
1.0000267
1.0000267
1.0000267
1.0000267
1.0000267
1.0000267
1.0000267
1.0000267
1.0000267
1.0000267
1.0000267
1.0000267
1.0000267
1.0000267
1.0000267
1.0000267
1.0000253
1.0000253
1.0000253
1.0000253
1.0000253
1.0000253
1.0000253
1.0000253
1.0000253
1.0000253
1.0000253
1.0000253
1.0000253
1.0000253
1.0000253
1.0000253
1.0000253
1.0000253
1.0000253
1.0000253
1.0000253
1.0000253
1.0000253
1.0000253
1.0000253
1.0000253
1.0000253
1.0000253
1.0000253
1.0000253
1.0000253
1.0000253
1.0000253
1.0000253
1.0000253
1.0000253
1.0000253
1.0000253
1.0000253
1.0000253
1.0000253
1.0000253
1.0000253
1.0000253
1.0000253
1.0000253
1.0000253
1.0000253
1.0000253
1.0000253
1.0000253
1.0000253
1.0000253
1.0000253
1.0000253
1.0000253
1.0000254
1.0000254
1.0000254
1.0000241
1.0000241
1.0000241
1.0000241
1.0000241
1.0000241
1.0000241
1.0000241
1.0000241
1.0000241
1.0000241
1.0000241
1.0000241
1.0000241
1.0000241
1.0000241
1.0000241
1.0000241
1.0000241
1.0000241
1.0000241
1.0000241
1.0000241
1.0000241
1.0000241
1.0000241
1.0000242
1.0000242
1.0000242
1.0000242
1.0000242
1.0000242
1.0000242
1.0000242
1.0000242
1.0000242
1.0000242
1.0000242
1.0000242
1.0000242
1.0000242
1.0000242
1.0000242
1.0000242
1.0000242
1.0000242
1.0000242
1.0000242
1.0000242
1.0000242
1.0000242
1.0000242
1.0000242
1.0000242
1.0000242
1.0000242
1.0000242
1.0000242
1.0000242
1.0000231
1.0000231
1.0000231
1.0000231
1.0000231
1.0000231
1.0000231
1.0000231
1.0000231
1.0000231
1.0000231
1.0000231
1.0000231
1.0000231
1.0000231
1.0000231
1.0000231
1.0000231
1.0000231
1.0000231
1.0000231
1.0000231
1.0000231
1.0000231
1.0000231
1.0000231
1.0000231
1.0000231
1.0000231
1.0000231
1.0000231
1.0000231
1.0000231
1.0000231
1.0000231
1.0000231
1.0000231
1.0000231
1.0000231
1.0000231
1.0000231
1.0000231
1.0000231
1.0000231
1.0000231
1.0000231
1.0000231
1.0000231
1.0000231
1.0000231
1.0000231
1.0000231
1.0000231
1.0000231
1.0000231
1.0000231
1.0000231
1.0000231
1.0000231
1.0000221
1.0000221
1.0000221
1.0000221
1.0000221
1.0000221
1.0000221
1.0000221
1.0000221
1.0000221
1.0000221
1.0000221
1.0000222
1.0000222
1.0000222
1.0000222
1.0000222
1.0000222
1.0000222
1.0000222
1.0000222
1.0000222
1.0000222
1.0000222
1.0000222
1.0000222
1.0000222
1.0000222
1.0000222
1.0000222
1.0000222
1.0000222
1.0000222
1.0000222
1.0000222
1.0000222
1.0000222
1.0000222
1.0000222
1.0000222
1.0000222
1.0000222
1.0000222
1.0000222
1.0000222
1.0000222
1.0000222
1.0000222
1.0000222
1.0000222
1.0000222
1.0000222
1.0000222
1.0000222
1.0000222
1.0000222
1.0000222
1.0000222
1.0000222
1.0000217
1.0000217
1.0000217
1.0000217
1.0000217
1.0000217
1.0000217
1.0000217
1.0000217
1.0000217
1.0000217
1.0000217
1.0000217
1.0000217
1.0000217
1.0000217
1.0000217
1.0000217
1.0000217
1.0000217
1.0000217
1.0000217
1.0000217
1.0000217
1.0000217
1.0000217
1.0000217
1.0000217
1.0000217
1.0000217
1.0000217
1.0000217
1.0000217
1.0000217
1.0000217
1.0000217
1.0000217
1.0000217
1.0000217
1.0000217
1.0000217
1.0000217
1.0000217
1.0000217
1.0000217
1.0000217
1.0000217
1.0000217
1.0000217
1.0000217
1.0000217
1.0000217
1.0000217
1.0000217
1.0000217
1.0000217
1.0000217
1.0000217
1.0000217
1.0000213
1.0000213
1.0000213
1.0000213
1.0000213
1.0000213
1.0000213
1.0000213
1.0000213
1.0000213
1.0000213
1.0000213
1.0000213
1.0000213
1.0000213
1.0000213
1.0000213
1.0000213
1.0000213
1.0000213
1.0000213
1.0000213
1.0000213
1.0000213
1.0000213
1.0000213
1.0000213
1.0000213
1.0000213
1.0000213
1.0000213
1.0000213
1.0000213
1.0000213
1.0000213
1.0000213
1.0000213
1.0000213
1.0000213
1.0000213
1.0000213
1.0000213
1.0000213
1.0000213
1.0000213
1.0000213
1.0000213
1.0000213
1.0000213
1.0000213
1.0000213
1.0000213
1.0000213
1.0000213
1.0000213
1.0000214
1.0000214
1.0000214
1.0000214
1.0000193
1.0000193
1.0000193
1.0000193
1.0000193
1.0000193
1.0000193
1.0000193
1.0000194
1.0000194
1.0000194
1.0000194
1.0000194
1.0000194
1.0000194
1.0000194
1.0000194
1.0000194
1.0000194
1.0000194
1.0000194
1.0000194
1.0000194
1.0000194
1.0000194
1.0000194
1.0000194
1.0000194
1.0000194
1.0000194
1.0000194
1.0000194
1.0000194
1.0000194
1.0000194
1.0000194
1.0000194
1.0000194
1.0000194
1.0000194
1.0000194
1.0000194
1.0000194
1.0000194
1.0000194
1.0000194
1.0000194
1.0000194
1.0000194
1.0000194
1.0000194
1.0000194
1.0000194
1.0000194
1.0000194
1.0000194
1.0000194
1.0000194
1.0000194
1.0000193
1.0000192
1.0000192
1.0000192
1.0000192
1.0000192
1.0000192
1.0000192
1.0000192
1.0000192
1.0000192
1.0000192
1.0000192
1.0000192
1.0000192
1.0000191
1.0000191
1.0000191
1.0000191
1.0000191
1.0000191
1.0000191
1.0000191
1.0000191
1.0000191
1.0000191
1.0000191
1.0000191
1.0000191
1.0000191
1.0000191
1.0000191
1.0000191
1.0000191
1.0000191
1.0000191
1.0000191
1.0000191
1.0000191
1.0000191
1.0000191
1.0000191
1.0000191
1.0000191
1.000019
1.000019
1.000019
1.000019
1.000019
1.000019
1.000019
1.000019
1.000019
1.000019
1.000019
1.000019
1.000019
1.000019
1.000019
1.0000291
1.0000291
1.0000291
1.0000291
1.0000291
1.0000291
1.0000291
1.0000291
1.0000291
1.0000291
1.0000291
1.0000291
1.0000291
1.000029
1.000029
1.000029
1.000029
1.000029
1.000029
1.000029
1.000029
1.000029
1.000029
1.000029
1.000029
1.000029
1.000029
1.000029
1.000029
1.000029
1.000029
1.000029
1.000029
1.000029
1.000029
1.000029
1.000029
1.000029
1.000029
1.000029
1.000029
1.000029
1.000029
1.000029
1.000029
1.000029
1.000029
1.000029
1.000029
1.000029
1.000029
1.000029
1.000029
1.000029
1.000029
1.000029
1.0000291
1.0000291
1.0000291
1.0000185
1.0000185
1.0000185
1.0000185
1.0000185
1.0000185
1.0000185
1.0000185
1.0000185
1.0000185
1.0000185
1.0000186
1.0000186
1.0000186
1.0000186
1.0000186
1.0000186
1.0000186
1.0000186
1.0000186
1.0000186
1.0000186
1.0000186
1.0000186
1.0000186
1.0000186
1.0000186
1.0000186
1.0000186
1.0000186
1.0000186
1.0000186
1.0000186
1.0000186
1.0000186
1.0000186
1.0000186
1.0000186
1.0000186
1.0000186
1.0000186
1.0000186
1.0000186
1.0000186
1.0000186
1.0000186
1.0000186
1.0000186
1.0000186
1.0000186
1.0000186
1.0000186
1.0000186
1.0000186
1.0000186
1.0000186
1.0000186
1.0000186
1.0000186
1.0001221
1.0001221
1.0001221
1.0001222
1.0001222
1.0001223
1.0001223
1.0001223
1.0001224
1.0001224
1.0001224
1.0001225
1.0001225
1.0001225
1.0001226
1.0001226
1.0001226
1.0001227
1.0001227
1.0001227
1.0001228
1.0001228
1.0001228
1.0001228
1.0001229
1.0001229
1.0001229
1.0001229
1.000123
1.000123
1.000123
1.000123
1.000123
1.0001231
1.0001231
1.0001231
1.0001231
1.0001231
1.0001231
1.0001232
1.0001232
1.0001232
1.0001232
1.0001232
1.0001232
1.0001232
1.0001232
1.0001232
1.0001233
1.0001233
1.0001233
1.0001233
1.0001233
1.0001233
1.0001233
1.0001233
1.0001233
1.0001233
1.0001233
1.0001119
1.0001119
1.0001119
1.000112
1.000112
1.000112
1.000112
1.0001121
1.0001121
1.0001121
1.0001122
1.0001122
1.0001122
1.0001123
1.0001123
1.0001123
1.0001123
1.0001124
1.0001124
1.0001124
1.0001124
1.0001125
1.0001125
1.0001125
1.0001125
1.0001125
1.0001126
1.0001126
1.0001126
1.0001126
1.0001126
1.0001127
1.0001127
1.0001127
1.0001127
1.0001127
1.0001127
1.0001127
1.0001128
1.0001128
1.0001128
1.0001128
1.0001128
1.0001128
1.0001128
1.0001128
1.0001128
1.0001128
1.0001128
1.0001129
1.0001129
1.0001129
1.0001129
1.0001129
1.0001129
1.0001129
1.0001129
1.0001129
1.0001129
1.0001023
1.0001024
1.0001024
1.0001024
1.0001025
1.0001025
1.0001025
1.0001025
1.0001026
1.0001026
1.0001026
1.0001026
1.0001026
1.0001027
1.0001027
1.0001027
1.0001027
1.0001028
1.0001028
1.0001028
1.0001028
1.0001028
1.0001028
1.0001029
1.0001029
1.0001029
1.0001029
1.0001029
1.0001029
1.000103
1.000103
1.000103
1.000103
1.000103
1.000103
1.000103
1.0001031
1.0001031
1.0001031
1.0001031
1.0001031
1.0001031
1.0001031
1.0001031
1.0001031
1.0001031
1.0001031
1.0001031
1.0001031
1.0001032
1.0001032
1.0001032
1.0001032
1.0001032
1.0001032
1.0001032
1.0001032
1.0001032
1.0001032
1.0000934
1.0000935
1.0000935
1.0000935
1.0000935
1.0000935
1.0000936
1.0000936
1.0000936
1.0000936
1.0000937
1.0000937
1.0000937
1.0000937
1.0000937
1.0000937
1.0000938
1.0000938
1.0000938
1.0000938
1.0000938
1.0000938
1.0000939
1.0000939
1.0000939
1.0000939
1.0000939
1.0000939
1.0000939
1.0000939
1.000094
1.000094
1.000094
1.000094
1.000094
1.000094
1.000094
1.000094
1.000094
1.000094
1.000094
1.0000941
1.0000941
1.0000941
1.0000941
1.0000941
1.0000941
1.0000941
1.0000941
1.0000941
1.0000941
1.0000941
1.0000941
1.0000941
1.0000941
1.0000941
1.0000941
1.0000941
1.0000941
1.0000852
1.0000852
1.0000852
1.0000852
1.0000852
1.0000853
1.0000853
1.0000853
1.0000853
1.0000853
1.0000853
1.0000854
1.0000854
1.0000854
1.0000854
1.0000854
1.0000854
1.0000854
1.0000854
1.0000855
1.0000855
1.0000855
1.0000855
1.0000855
1.0000855
1.0000855
1.0000855
1.0000855
1.0000856
1.0000856
1.0000856
1.0000856
1.0000856
1.0000856
1.0000856
1.0000856
1.0000856
1.0000856
1.0000856
1.0000856
1.0000857
1.0000857
1.0000857
1.0000857
1.0000857
1.0000857
1.0000857
1.0000857
1.0000857
1.0000857
1.0000857
1.0000857
1.0000857
1.0000857
1.0000857
1.0000857
1.0000857
1.0000857
1.0000857
1.0000775
1.0000775
1.0000775
1.0000775
1.0000775
1.0000775
1.0000776
1.0000776
1.0000776
1.0000776
1.0000776
1.0000776
1.0000776
1.0000777
1.0000777
1.0000777
1.0000777
1.0000777
1.0000777
1.0000777
1.0000777
1.0000777
1.0000777
1.0000778
1.0000778
1.0000778
1.0000778
1.0000778
1.0000778
1.0000778
1.0000778
1.0000778
1.0000778
1.0000778
1.0000778
1.0000778
1.0000778
1.0000779
1.0000779
1.0000779
1.0000779
1.0000779
1.0000779
1.0000779
1.0000779
1.0000779
1.0000779
1.0000779
1.0000779
1.0000779
1.0000779
1.0000779
1.0000779
1.0000779
1.0000779
1.0000779
1.0000779
1.0000779
1.0000779
1.0000704
1.0000704
1.0000704
1.0000704
1.0000704
1.0000704
1.0000704
1.0000704
1.0000705
1.0000705
1.0000705
1.0000705
1.0000705
1.0000705
1.0000705
1.0000705
1.0000705
1.0000705
1.0000706
1.0000706
1.0000706
1.0000706
1.0000706
1.0000706
1.0000706
1.0000706
1.0000706
1.0000706
1.0000706
1.0000706
1.0000706
1.0000706
1.0000706
1.0000706
1.0000707
1.0000707
1.0000707
1.0000707
1.0000707
1.0000707
1.0000707
1.0000707
1.0000707
1.0000707
1.0000707
1.0000707
1.0000707
1.0000707
1.0000707
1.0000707
1.0000707
1.0000707
1.0000707
1.0000707
1.0000707
1.0000707
1.0000707
1.0000707
1.0000707
1.0000638
1.0000638
1.0000638
1.0000638
1.0000638
1.0000639
1.0000639
1.0000639
1.0000639
1.0000639
1.0000639
1.0000639
1.0000639
1.0000639
1.0000639
1.0000639
1.0000639
1.000064
1.000064
1.000064
1.000064
1.000064
1.000064
1.000064
1.000064
1.000064
1.000064
1.000064
1.000064
1.000064
1.000064
1.000064
1.000064
1.000064
1.000064
1.000064
1.000064
1.0000641
1.0000641
1.0000641
1.0000641
1.0000641
1.0000641
1.0000641
1.0000641
1.0000641
1.0000641
1.0000641
1.0000641
1.0000641
1.0000641
1.0000641
1.0000641
1.0000641
1.0000641
1.0000641
1.0000641
1.0000641
1.0000641
1.0000578
1.0000578
1.0000578
1.0000578
1.0000578
1.0000578
1.0000578
1.0000578
1.0000578
1.0000579
1.0000579
1.0000579
1.0000579
1.0000579
1.0000579
1.0000579
1.0000579
1.0000579
1.0000579
1.0000579
1.0000579
1.0000579
1.0000579
1.0000579
1.0000579
1.0000579
1.0000579
1.0000579
1.0000579
1.000058
1.000058
1.000058
1.000058
1.000058
1.000058
1.000058
1.000058
1.000058
1.000058
1.000058
1.000058
1.000058
1.000058
1.000058
1.000058
1.000058
1.000058
1.000058
1.000058
1.000058
1.000058
1.000058
1.000058
1.000058
1.000058
1.000058
1.000058
1.000058
1.000058
1.0000523
1.0000523
1.0000523
1.0000523
1.0000523
1.0000523
1.0000523
1.0000523
1.0000523
1.0000523
1.0000523
1.0000523
1.0000523
1.0000523
1.0000523
1.0000523
1.0000524
1.0000524
1.0000524
1.0000524
1.0000524
1.0000524
1.0000524
1.0000524
1.0000524
1.0000524
1.0000524
1.0000524
1.0000524
1.0000524
1.0000524
1.0000524
1.0000524
1.0000524
1.0000524
1.0000524
1.0000524
1.0000524
1.0000524
1.0000524
1.0000524
1.0000524
1.0000524
1.0000524
1.0000524
1.0000524
1.0000524
1.0000524
1.0000524
1.0000524
1.0000524
1.0000524
1.0000524
1.0000524
1.0000524
1.0000524
1.0000524
1.0000524
1.0000524
1.0000472
1.0000472
1.0000472
1.0000472
1.0000473
1.0000473
1.0000473
1.0000473
1.0000473
1.0000473
1.0000473
1.0000473
1.0000473
1.0000473
1.0000473
1.0000473
1.0000473
1.0000473
1.0000473
1.0000473
1.0000473
1.0000473
1.0000473
1.0000473
1.0000473
1.0000473
1.0000473
1.0000473
1.0000473
1.0000473
1.0000473
1.0000473
1.0000473
1.0000473
1.0000474
1.0000474
1.0000474
1.0000474
1.0000474
1.0000474
1.0000474
1.0000474
1.0000474
1.0000474
1.0000474
1.0000474
1.0000474
1.0000474
1.0000474
1.0000474
1.0000474
1.0000474
1.0000474
1.0000474
1.0000474
1.0000474
1.0000474
1.0000474
1.0000474
1.0000426
1.0000427
1.0000427
1.0000427
1.0000427
1.0000427
1.0000427
1.0000427
1.0000427
1.0000427
1.0000427
1.0000427
1.0000427
1.0000427
1.0000427
1.0000427
1.0000427
1.0000427
1.0000427
1.0000427
1.0000427
1.0000427
1.0000427
1.0000427
1.0000427
1.0000427
1.0000427
1.0000427
1.0000427
1.0000427
1.0000427
1.0000427
1.0000427
1.0000427
1.0000427
1.0000427
1.0000427
1.0000427
1.0000427
1.0000427
1.0000427
1.0000428
1.0000428
1.0000428
1.0000428
1.0000428
1.0000428
1.0000428
1.0000428
1.0000428
1.0000428
1.0000428
1.0000428
1.0000428
1.0000428
1.0000428
1.0000428
1.0000428
1.0000428
1.0000385
1.0000385
1.0000385
1.0000385
1.0000385
1.0000385
1.0000385
1.0000385
1.0000385
1.0000385
1.0000385
1.0000385
1.0000385
1.0000385
1.0000385
1.0000385
1.0000385
1.0000385
1.0000385
1.0000386
1.0000386
1.0000386
1.0000386
1.0000386
1.0000386
1.0000386
1.0000386
1.0000386
1.0000386
1.0000386
1.0000386
1.0000386
1.0000386
1.0000386
1.0000386
1.0000386
1.0000386
1.0000386
1.0000386
1.0000386
1.0000386
1.0000386
1.0000386
1.0000386
1.0000386
1.0000386
1.0000386
1.0000386
1.0000386
1.0000386
1.0000386
1.0000386
1.0000386
1.0000386
1.0000386
1.0000386
1.0000386
1.0000386
1.0000386
1.0000349
1.0000349
1.0000349
1.0000349
1.0000349
1.0000349
1.0000349
1.0000349
1.0000349
1.0000349
1.0000349
1.0000349
1.0000349
1.0000349
1.0000349
1.0000349
1.0000349
1.0000349
1.0000349
1.0000349
1.0000349
1.0000349
1.0000349
1.0000349
1.0000349
1.0000349
1.0000349
1.0000349
1.0000349
1.0000349
1.0000349
1.0000349
1.0000349
1.0000349
1.0000349
1.0000349
1.0000349
1.0000349
1.0000349
1.0000349
1.0000349
1.0000349
1.0000349
1.0000349
1.0000349
1.0000349
1.0000349
1.0000349
1.0000349
1.0000349
1.0000349
1.0000349
1.0000349
1.0000349
1.0000349
1.0000349
1.0000349
1.0000349
1.0000349
1.0001356
1.0001506
1.0001674
1.0001858
1.0002058
1.0002276
1.0002514
1.0002772
1.000305
1.0003351
1.0003673
1.0004018
1.0004385
1.0004773
1.0005182
1.000561
1.0006052
1.0006507
1.0006967
1.0007428
1.0007881
1.0008318
1.0008729
1.0009101
1.0009424
1.0009684
1.0009869
1.0009969
1.0009974
1.0009875
1.0009668
1.0009351
1.0008925
1.0008395
1.0007767
1.0007053
1.0006263
1.0005408
1.0004501
1.0003556
1.0002586
1.0001601
1.0000612
0.99996291
0.99986609
0.99977122
0.99967865
0.9995889
0.99950246
0.99941955
0.9993403
0.99926479
0.99919302
0.99912508
0.99906102
0.99900061
0.99894371
0.99889022
0.99884003
0.99879297
0.99874887
0.99870763
0.99866913
0.9986332
0.99859969
0.99856848
0.99853941
0.99851235
0.99848717
0.99846375
0.99844198
0.99842173
0.99840295
0.99838545
1.0001356
1.0001506
1.0001674
1.0001858
1.0002058
1.0002276
1.0002514
1.0002772
1.000305
1.0003351
1.0003673
1.0004018
1.0004385
1.0004773
1.0005182
1.000561
1.0006052
1.0006507
1.0006967
1.0007428
1.0007881
1.0008318
1.0008729
1.0009101
1.0009424
1.0009684
1.0009869
1.0009969
1.0009974
1.0009875
1.0009668
1.0009351
1.0008925
1.0008395
1.0007767
1.0007052
1.0006262
1.0005408
1.0004501
1.0003556
1.0002586
1.0001601
1.0000612
0.99996288
0.99986605
0.99977119
0.99967863
0.99958889
0.99950244
0.99941953
0.99934027
0.99926476
0.99919299
0.99912505
0.99906099
0.99900059
0.99894369
0.99889019
0.99884
0.99879294
0.99874883
0.99870759
0.99866908
0.99863315
0.99859965
0.99856843
0.99853936
0.99851231
0.99848713
0.99846371
0.99844194
0.99842169
0.99840291
0.99838541
1.0001356
1.0001506
1.0001674
1.0001858
1.0002058
1.0002276
1.0002514
1.0002772
1.000305
1.0003351
1.0003673
1.0004018
1.0004385
1.0004773
1.0005182
1.000561
1.0006052
1.0006507
1.0006967
1.0007428
1.0007881
1.0008318
1.0008729
1.0009101
1.0009424
1.0009684
1.0009869
1.0009969
1.0009974
1.0009875
1.0009668
1.0009351
1.0008925
1.0008395
1.0007767
1.0007053
1.0006263
1.0005408
1.0004501
1.0003556
1.0002586
1.0001601
1.0000612
0.99996292
0.99986607
0.99977119
0.99967862
0.99958888
0.99950245
0.99941953
0.99934028
0.99926477
0.99919298
0.99912504
0.99906097
0.99900058
0.99894368
0.9988902
0.99884003
0.99879298
0.99874888
0.99870764
0.99866913
0.9986332
0.9985997
0.99856848
0.99853942
0.99851236
0.99848719
0.99846377
0.998442
0.99842176
0.99840299
0.99838547
1.0001356
1.0001506
1.0001674
1.0001858
1.0002058
1.0002276
1.0002514
1.0002772
1.000305
1.000335
1.0003673
1.0004018
1.0004385
1.0004773
1.0005182
1.000561
1.0006052
1.0006507
1.0006967
1.0007428
1.0007881
1.0008318
1.0008729
1.0009101
1.0009424
1.0009684
1.0009869
1.0009969
1.0009974
1.0009875
1.0009669
1.0009352
1.0008926
1.0008396
1.0007768
1.0007054
1.0006263
1.0005409
1.0004502
1.0003557
1.0002587
1.0001602
1.0000613
0.999963
0.99986614
0.99977124
0.99967868
0.99958896
0.99950252
0.9994196
0.99934034
0.99926483
0.99919306
0.99912513
0.99906105
0.99900063
0.99894372
0.99889022
0.99884002
0.99879295
0.99874885
0.99870761
0.99866911
0.99863319
0.99859969
0.99856848
0.99853942
0.99851237
0.9984872
0.99846378
0.99844201
0.99842174
0.99840297
0.99838559
1.0001356
1.0001506
1.0001674
1.0001858
1.0002058
1.0002276
1.0002514
1.0002772
1.000305
1.000335
1.0003673
1.0004018
1.0004385
1.0004773
1.0005182
1.0005609
1.0006052
1.0006506
1.0006967
1.0007428
1.0007881
1.0008318
1.0008729
1.0009101
1.0009424
1.0009684
1.0009869
1.000997
1.0009975
1.0009876
1.0009669
1.0009353
1.0008927
1.0008397
1.0007769
1.0007055
1.0006265
1.000541
1.0004503
1.0003559
1.0002588
1.0001604
1.0000615
0.99996316
0.99986628
0.99977136
0.9996788
0.99958908
0.99950264
0.99941972
0.99934046
0.99926495
0.99919319
0.99912526
0.99906115
0.99900071
0.9989438
0.9988903
0.9988401
0.99879305
0.99874897
0.99870775
0.99866925
0.99863333
0.99859984
0.99856863
0.99853957
0.99851252
0.99848735
0.99846395
0.99844219
0.99842196
0.99840318
0.99838572
1.0001356
1.0001506
1.0001674
1.0001858
1.0002058
1.0002276
1.0002514
1.0002772
1.000305
1.000335
1.0003673
1.0004018
1.0004385
1.0004773
1.0005182
1.0005609
1.0006052
1.0006506
1.0006967
1.0007428
1.0007881
1.0008318
1.0008729
1.0009102
1.0009424
1.0009685
1.000987
1.000997
1.0009976
1.0009877
1.0009671
1.0009354
1.0008929
1.0008399
1.0007771
1.0007057
1.0006267
1.0005412
1.0004506
1.0003561
1.0002591
1.0001606
1.0000617
0.9999634
0.9998665
0.99977156
0.999679
0.99958929
0.99950285
0.99941993
0.99934067
0.99926515
0.9991934
0.99912547
0.99906135
0.9990009
0.99894398
0.99889047
0.99884025
0.99879318
0.9987491
0.99870788
0.99866939
0.99863347
0.99859998
0.99856877
0.99853971
0.99851266
0.9984875
0.99846409
0.99844233
0.9984221
0.9984033
0.99838584
1.0001356
1.0001506
1.0001674
1.0001857
1.0002058
1.0002276
1.0002514
1.0002771
1.000305
1.000335
1.0003673
1.0004017
1.0004384
1.0004773
1.0005182
1.0005609
1.0006052
1.0006506
1.0006967
1.0007428
1.0007881
1.0008318
1.0008729
1.0009102
1.0009425
1.0009685
1.0009871
1.0009971
1.0009977
1.0009878
1.0009672
1.0009356
1.0008931
1.0008401
1.0007774
1.000706
1.000627
1.0005416
1.0004509
1.0003565
1.0002594
1.000161
1.0000621
0.99996376
0.99986684
0.99977188
0.99967932
0.99958961
0.99950317
0.99942024
0.99934097
0.99926545
0.99919371
0.99912578
0.99906164
0.99900116
0.99894423
0.99889071
0.99884049
0.99879343
0.99874936
0.99870815
0.99866967
0.99863376
0.99860027
0.99856907
0.99854001
0.99851297
0.99848781
0.9984644
0.99844264
0.99842242
0.99840362
0.99838614
1.0001356
1.0001506
1.0001674
1.0001857
1.0002058
1.0002276
1.0002514
1.0002771
1.000305
1.000335
1.0003672
1.0004017
1.0004384
1.0004773
1.0005182
1.0005609
1.0006052
1.0006506
1.0006967
1.0007428
1.0007881
1.0008318
1.0008729
1.0009102
1.0009425
1.0009686
1.0009871
1.0009973
1.0009979
1.000988
1.0009675
1.0009359
1.0008934
1.0008405
1.0007778
1.0007064
1.0006275
1.000542
1.0004514
1.000357
1.0002599
1.0001615
1.0000626
0.99996428
0.99986734
0.99977236
0.99967979
0.99959008
0.99950364
0.99942071
0.99934143
0.99926591
0.99919417
0.99912623
0.99906207
0.99900158
0.99894463
0.99889111
0.99884088
0.9987938
0.99874973
0.99870852
0.99867003
0.99863412
0.99860063
0.99856943
0.99854037
0.99851332
0.99848815
0.99846475
0.99844298
0.99842275
0.99840395
0.99838646
1.0001356
1.0001506
1.0001674
1.0001857
1.0002058
1.0002276
1.0002514
1.0002771
1.000305
1.000335
1.0003672
1.0004017
1.0004384
1.0004773
1.0005181
1.0005609
1.0006051
1.0006506
1.0006966
1.0007427
1.0007881
1.0008318
1.0008729
1.0009102
1.0009425
1.0009687
1.0009873
1.0009974
1.0009981
1.0009883
1.0009678
1.0009363
1.0008939
1.000841
1.0007784
1.000707
1.0006281
1.0005427
1.0004521
1.0003577
1.0002607
1.0001622
1.0000633
0.99996502
0.99986806
0.99977306
0.99968048
0.99959077
0.99950432
0.99942138
0.99934209
0.99926656
0.99919481
0.99912687
0.99906269
0.99900218
0.99894521
0.99889167
0.99884143
0.99879435
0.99875028
0.99870907
0.99867059
0.99863468
0.9986012
0.99857
0.99854094
0.99851389
0.99848873
0.99846532
0.99844356
0.99842333
0.99840452
0.99838703
1.0001356
1.0001506
1.0001674
1.0001857
1.0002057
1.0002276
1.0002513
1.0002771
1.000305
1.000335
1.0003672
1.0004017
1.0004384
1.0004772
1.0005181
1.0005608
1.0006051
1.0006505
1.0006966
1.0007427
1.0007881
1.0008318
1.0008729
1.0009102
1.0009426
1.0009688
1.0009874
1.0009976
1.0009984
1.0009887
1.0009683
1.0009368
1.0008945
1.0008417
1.0007792
1.0007079
1.000629
1.0005436
1.0004531
1.0003587
1.0002617
1.0001632
1.0000644
0.99996604
0.99986906
0.99977404
0.99968145
0.99959173
0.99950527
0.99942232
0.99934302
0.99926747
0.99919572
0.99912776
0.99906356
0.99900303
0.99894604
0.99889249
0.99884224
0.99879515
0.99875107
0.99870986
0.99867137
0.99863545
0.99860196
0.99857075
0.99854169
0.99851463
0.99848946
0.99846605
0.99844427
0.99842403
0.99840522
0.99838772
1.0001356
1.0001506
1.0001673
1.0001857
1.0002057
1.0002276
1.0002513
1.0002771
1.0003049
1.0003349
1.0003672
1.0004016
1.0004383
1.0004772
1.0005181
1.0005608
1.0006051
1.0006505
1.0006966
1.0007427
1.000788
1.0008318
1.0008729
1.0009103
1.0009427
1.0009689
1.0009876
1.0009979
1.0009987
1.0009892
1.0009688
1.0009375
1.0008953
1.0008426
1.0007802
1.000709
1.0006302
1.0005449
1.0004544
1.00036
1.000263
1.0001646
1.0000658
0.99996745
0.99987045
0.9997754
0.99968279
0.99959307
0.99950659
0.99942362
0.9993443
0.99926874
0.99919697
0.99912899
0.99906477
0.9990042
0.9989472
0.99889362
0.99884336
0.99879625
0.99875216
0.99871094
0.99867245
0.99863653
0.99860303
0.99857182
0.99854276
0.9985157
0.99849052
0.9984671
0.99844533
0.99842508
0.99840625
0.99838875
1.0001356
1.0001506
1.0001673
1.0001857
1.0002057
1.0002276
1.0002513
1.0002771
1.0003049
1.0003349
1.0003671
1.0004016
1.0004383
1.0004771
1.000518
1.0005607
1.000605
1.0006504
1.0006965
1.0007426
1.000788
1.0008318
1.0008729
1.0009103
1.0009428
1.0009691
1.0009879
1.0009983
1.0009992
1.0009898
1.0009696
1.0009384
1.0008964
1.0008438
1.0007815
1.0007105
1.0006317
1.0005465
1.0004561
1.0003618
1.0002649
1.0001665
1.0000677
0.99996935
0.99987233
0.99977726
0.99968463
0.99959489
0.99950839
0.9994254
0.99934606
0.99927047
0.99919868
0.99913067
0.99906642
0.99900582
0.99894879
0.99889519
0.9988449
0.99879778
0.99875368
0.99871244
0.99867394
0.998638
0.99860449
0.99857327
0.99854419
0.99851712
0.99849193
0.99846849
0.9984467
0.99842644
0.99840761
0.99839009
1.0001356
1.0001506
1.0001673
1.0001857
1.0002057
1.0002275
1.0002513
1.000277
1.0003049
1.0003349
1.0003671
1.0004016
1.0004382
1.0004771
1.000518
1.0005607
1.0006049
1.0006504
1.0006964
1.0007426
1.000788
1.0008318
1.000873
1.0009104
1.0009429
1.0009693
1.0009882
1.0009988
1.0009999
1.0009906
1.0009706
1.0009396
1.0008978
1.0008454
1.0007833
1.0007124
1.0006338
1.0005488
1.0004585
1.0003642
1.0002674
1.000169
1.0000702
0.9999719
0.99987486
0.99977976
0.99968711
0.99959735
0.99951083
0.9994278
0.99934843
0.9992728
0.99920098
0.99913294
0.99906864
0.99900801
0.99895094
0.99889732
0.998847
0.99879985
0.99875572
0.99871447
0.99867594
0.99863999
0.99860646
0.99857522
0.99854613
0.99851904
0.99849384
0.99847039
0.99844859
0.99842831
0.99840946
0.99839193
1.0001355
1.0001505
1.0001673
1.0001857
1.0002057
1.0002275
1.0002513
1.000277
1.0003048
1.0003348
1.0003671
1.0004015
1.0004382
1.000477
1.0005179
1.0005606
1.0006048
1.0006503
1.0006964
1.0007425
1.0007879
1.0008317
1.000873
1.0009105
1.0009431
1.0009696
1.0009887
1.0009994
1.0010007
1.0009916
1.0009719
1.0009412
1.0008996
1.0008475
1.0007857
1.000715
1.0006366
1.0005517
1.0004615
1.0003674
1.0002707
1.0001724
1.0000736
0.99997528
0.99987823
0.99978311
0.99969043
0.99960063
0.99951408
0.99943101
0.99935159
0.99927592
0.99920405
0.99913597
0.99907163
0.99901095
0.99895384
0.99890017
0.99884981
0.99880263
0.99875847
0.99871719
0.99867863
0.99864265
0.99860911
0.99857784
0.99854872
0.99852162
0.99849639
0.99847292
0.9984511
0.99843081
0.99841194
0.99839439
1.0001355
1.0001505
1.0001673
1.0001856
1.0002057
1.0002275
1.0002512
1.000277
1.0003048
1.0003348
1.000367
1.0004014
1.0004381
1.0004769
1.0005178
1.0005605
1.0006047
1.0006502
1.0006962
1.0007424
1.0007878
1.0008317
1.000873
1.0009106
1.0009433
1.00097
1.0009892
1.0010001
1.0010017
1.000993
1.0009735
1.0009432
1.0009019
1.0008502
1.0007887
1.0007183
1.0006402
1.0005555
1.0004656
1.0003716
1.000275
1.0001768
1.000078
0.99997973
0.99988268
0.99978752
0.99969481
0.99960498
0.99951837
0.99943525
0.99935578
0.99928005
0.99920812
0.99913998
0.99907558
0.99901484
0.99895767
0.99890395
0.99885354
0.99880631
0.99876211
0.99872079
0.99868219
0.99864618
0.99861259
0.9985813
0.99855215
0.99852501
0.99849975
0.99847626
0.99845441
0.99843409
0.99841519
0.99839762
1.0001355
1.0001505
1.0001673
1.0001856
1.0002056
1.0002275
1.0002512
1.0002769
1.0003048
1.0003347
1.0003669
1.0004014
1.000438
1.0004768
1.0005177
1.0005604
1.0006046
1.00065
1.0006961
1.0007423
1.0007877
1.0008316
1.000873
1.0009107
1.0009436
1.0009704
1.0009899
1.0010011
1.001003
1.0009946
1.0009756
1.0009457
1.0009049
1.0008537
1.0007926
1.0007226
1.0006449
1.0005605
1.0004708
1.0003771
1.0002806
1.0001825
1.0000838
0.99998554
0.99988849
0.99979331
0.99970055
0.99961067
0.99952401
0.99944082
0.99936127
0.99928547
0.99921346
0.99914524
0.99908076
0.99901995
0.99896271
0.99890892
0.99885845
0.99881116
0.9987669
0.99872552
0.99868688
0.99865082
0.99861719
0.99858585
0.99855666
0.99852949
0.9985042
0.99848067
0.99845879
0.99843844
0.99841952
0.99840192
1.0001355
1.0001505
1.0001673
1.0001856
1.0002056
1.0002274
1.0002511
1.0002769
1.0003047
1.0003347
1.0003669
1.0004013
1.0004379
1.0004767
1.0005176
1.0005602
1.0006045
1.0006499
1.000696
1.0007421
1.0007876
1.0008316
1.000873
1.0009109
1.0009439
1.000971
1.0009907
1.0010023
1.0010046
1.0009968
1.0009783
1.000949
1.0009088
1.0008581
1.0007976
1.0007281
1.0006509
1.0005669
1.0004775
1.0003841
1.0002878
1.0001898
1.0000913
0.99999307
0.99989602
0.99980081
0.99970801
0.99961807
0.99953133
0.99944805
0.99936841
0.99929252
0.99922041
0.99915209