/*--------------------------------*- C++ -*----------------------------------*\
| =========                 |                                                 |
| \\      /  F ield         | OpenFOAM: The Open Source CFD Toolbox           |
|  \\    /   O peration     | Version:  v2006                                 |
|   \\  /    A nd           | Website:  www.openfoam.com                      |
|    \\/     M anipulation  |                                                 |
\*---------------------------------------------------------------------------*/
FoamFile
{
    version     2.0;
    format      ascii;
    class       volScalarField;
    location    "8000";
    object      rho;
}
// * * * * * * * * * * * * * * * * * * * * * * * * * * * * * * * * * * * * * //

dimensions      [1 -3 0 0 0 0 0];


internalField   nonuniform List<scalar> 
55713
(
1.0000226
1.0000214
1.0000206
1.0000203
1.0000202
1.0000202
1.0000202
1.0000203
1.0000203
1.0000203
1.0000203
1.0000203
1.0000203
1.0000203
1.0000203
1.0000203
1.0000203
1.0000203
1.0000203
1.0000203
1.0000203
1.0000203
1.0000203
1.0000203
1.0000203
1.0000203
1.0000203
1.0000203
1.0000203
1.0000203
1.0000203
1.0000203
1.0000203
1.0000203
1.0000203
1.0000203
1.0000203
1.0000203
1.0000203
1.0000203
1.0000203
1.0000203
1.0000203
1.0000203
1.0000203
1.0000203
1.0000203
1.0000203
1.0000203
1.0000203
1.0000203
1.0000203
1.0000203
1.0000202
1.0000202
1.0000202
1.0000202
1.0000202
1.0000202
1.0000209
1.0000198
1.0000191
1.0000189
1.0000189
1.0000189
1.0000189
1.0000189
1.0000189
1.0000189
1.0000189
1.0000189
1.0000189
1.0000189
1.0000189
1.0000189
1.0000189
1.0000189
1.000019
1.000019
1.000019
1.000019
1.000019
1.000019
1.000019
1.000019
1.000019
1.000019
1.000019
1.000019
1.000019
1.000019
1.000019
1.000019
1.000019
1.000019
1.000019
1.000019
1.0000189
1.0000189
1.0000189
1.0000189
1.0000189
1.0000189
1.0000189
1.0000189
1.0000189
1.0000189
1.0000189
1.0000189
1.0000189
1.0000189
1.0000189
1.0000189
1.0000189
1.0000189
1.0000189
1.0000189
1.0000189
1.0000195
1.0000185
1.0000179
1.0000177
1.0000177
1.0000177
1.0000177
1.0000177
1.0000177
1.0000177
1.0000177
1.0000177
1.0000177
1.0000177
1.0000177
1.0000177
1.0000178
1.0000178
1.0000178
1.0000178
1.0000178
1.0000178
1.0000178
1.0000178
1.0000178
1.0000178
1.0000178
1.0000178
1.0000178
1.0000178
1.0000178
1.0000178
1.0000178
1.0000178
1.0000178
1.0000178
1.0000178
1.0000178
1.0000178
1.0000178
1.0000177
1.0000177
1.0000178
1.0000178
1.0000178
1.0000177
1.0000177
1.0000177
1.0000177
1.0000177
1.0000177
1.0000177
1.0000177
1.0000177
1.0000177
1.0000177
1.0000177
1.0000177
1.0000177
1.0000183
1.0000173
1.0000168
1.0000166
1.0000166
1.0000166
1.0000167
1.0000167
1.0000167
1.0000167
1.0000167
1.0000167
1.0000167
1.0000167
1.0000167
1.0000167
1.0000167
1.0000167
1.0000168
1.0000168
1.0000168
1.0000167
1.0000167
1.0000167
1.0000167
1.0000168
1.0000168
1.0000168
1.0000168
1.0000168
1.0000168
1.0000168
1.0000167
1.0000167
1.0000167
1.0000167
1.0000167
1.0000167
1.0000167
1.0000167
1.0000167
1.0000167
1.0000167
1.0000167
1.0000167
1.0000167
1.0000167
1.0000167
1.0000167
1.0000167
1.0000167
1.0000167
1.0000167
1.0000167
1.0000167
1.0000167
1.0000167
1.0000167
1.0000167
1.0000172
1.0000162
1.0000158
1.0000157
1.0000157
1.0000157
1.0000158
1.0000158
1.0000158
1.0000158
1.0000158
1.0000158
1.0000158
1.0000158
1.0000158
1.0000158
1.0000158
1.0000158
1.0000159
1.0000159
1.0000159
1.0000158
1.0000158
1.0000158
1.0000159
1.0000159
1.0000159
1.0000159
1.0000159
1.0000159
1.0000159
1.0000159
1.0000159
1.0000158
1.0000158
1.0000158
1.0000159
1.0000159
1.0000158
1.0000158
1.0000158
1.0000158
1.0000158
1.0000158
1.0000158
1.0000158
1.0000158
1.0000158
1.0000158
1.0000158
1.0000158
1.0000158
1.0000158
1.0000158
1.0000158
1.0000158
1.0000158
1.0000158
1.0000158
1.0000163
1.0000154
1.000015
1.000015
1.000015
1.000015
1.000015
1.000015
1.000015
1.000015
1.000015
1.000015
1.000015
1.000015
1.000015
1.0000151
1.0000151
1.0000151
1.0000151
1.0000151
1.0000151
1.0000151
1.0000151
1.0000151
1.0000151
1.0000151
1.0000151
1.0000151
1.0000151
1.0000151
1.0000151
1.0000151
1.0000151
1.0000151
1.0000151
1.0000151
1.0000151
1.0000151
1.0000151
1.0000151
1.0000151
1.0000151
1.0000151
1.0000151
1.0000151
1.0000151
1.0000151
1.000015
1.000015
1.0000151
1.0000151
1.0000151
1.0000151
1.000015
1.000015
1.000015
1.000015
1.000015
1.000015
1.0000154
1.0000146
1.0000143
1.0000143
1.0000143
1.0000143
1.0000143
1.0000143
1.0000143
1.0000143
1.0000143
1.0000143
1.0000143
1.0000143
1.0000144
1.0000144
1.0000144
1.0000144
1.0000144
1.0000144
1.0000144
1.0000144
1.0000144
1.0000144
1.0000144
1.0000144
1.0000144
1.0000144
1.0000144
1.0000144
1.0000144
1.0000144
1.0000144
1.0000144
1.0000144
1.0000144
1.0000144
1.0000144
1.0000144
1.0000144
1.0000144
1.0000144
1.0000144
1.0000144
1.0000144
1.0000144
1.0000144
1.0000144
1.0000144
1.0000144
1.0000144
1.0000144
1.0000144
1.0000144
1.0000143
1.0000143
1.0000143
1.0000143
1.0000143
1.0000146
1.0000139
1.0000136
1.0000136
1.0000137
1.0000137
1.0000137
1.0000137
1.0000137
1.0000137
1.0000137
1.0000137
1.0000137
1.0000137
1.0000137
1.0000137
1.0000138
1.0000138
1.0000138
1.0000138
1.0000137
1.0000137
1.0000138
1.0000138
1.0000138
1.0000138
1.0000138
1.0000138
1.0000138
1.0000138
1.0000138
1.0000138
1.0000138
1.0000138
1.0000138
1.0000137
1.0000137
1.0000138
1.0000138
1.0000137
1.0000137
1.0000137
1.0000137
1.0000137
1.0000138
1.0000138
1.0000137
1.0000137
1.0000137
1.0000137
1.0000137
1.0000137
1.0000137
1.0000137
1.0000137
1.0000137
1.0000137
1.0000137
1.0000137
1.0000142
1.0000135
1.0000133
1.0000134
1.0000134
1.0000134
1.0000134
1.0000134
1.0000134
1.0000134
1.0000134
1.0000134
1.0000134
1.0000134
1.0000135
1.0000135
1.0000135
1.0000135
1.0000135
1.0000135
1.0000135
1.0000135
1.0000135
1.0000135
1.0000135
1.0000135
1.0000135
1.0000135
1.0000135
1.0000135
1.0000135
1.0000135
1.0000135
1.0000135
1.0000135
1.0000135
1.0000135
1.0000135
1.0000135
1.0000135
1.0000134
1.0000134
1.0000134
1.0000135
1.0000135
1.0000135
1.0000134
1.0000134
1.0000134
1.0000134
1.0000134
1.0000134
1.0000134
1.0000134
1.0000134
1.0000134
1.0000134
1.0000134
1.0000134
1.0000139
1.0000132
1.0000131
1.0000131
1.0000132
1.0000132
1.0000132
1.0000132
1.0000132
1.0000132
1.0000132
1.0000132
1.0000132
1.0000132
1.0000133
1.0000133
1.0000133
1.0000133
1.0000133
1.0000132
1.0000132
1.0000133
1.0000133
1.0000133
1.0000133
1.0000133
1.0000133
1.0000133
1.0000133
1.0000133
1.0000133
1.0000133
1.0000133
1.0000133
1.0000133
1.0000133
1.0000133
1.0000133
1.0000133
1.0000133
1.0000133
1.0000132
1.0000132
1.0000133
1.0000133
1.0000133
1.0000133
1.0000132
1.0000132
1.0000132
1.0000133
1.0000133
1.0000133
1.0000132
1.0000133
1.0000132
1.0000132
1.0000132
1.0000132
1.0000122
1.0000116
1.0000116
1.0000116
1.0000117
1.0000117
1.0000117
1.0000116
1.0000117
1.0000117
1.0000117
1.0000117
1.0000117
1.0000117
1.0000118
1.0000118
1.0000118
1.0000118
1.0000118
1.0000118
1.0000118
1.0000118
1.0000118
1.0000118
1.0000118
1.0000118
1.0000118
1.0000118
1.0000118
1.0000118
1.0000118
1.0000118
1.0000118
1.0000118
1.0000118
1.0000118
1.0000118
1.0000118
1.0000118
1.0000118
1.0000118
1.0000118
1.0000117
1.0000118
1.0000118
1.0000118
1.0000118
1.0000117
1.0000117
1.0000117
1.0000117
1.0000117
1.0000117
1.0000117
1.0000117
1.0000117
1.0000116
1.0000117
1.0000117
1.0000122
1.0000114
1.0000117
1.0000115
1.0000116
1.0000117
1.0000115
1.0000115
1.0000117
1.0000117
1.0000117
1.0000116
1.0000117
1.0000117
1.0000118
1.0000118
1.0000117
1.0000117
1.0000117
1.0000117
1.0000117
1.0000117
1.0000117
1.0000117
1.0000117
1.0000117
1.0000117
1.0000117
1.0000117
1.0000117
1.0000117
1.0000117
1.0000117
1.0000117
1.0000117
1.0000117
1.0000116
1.0000117
1.0000117
1.0000117
1.0000117
1.0000116
1.0000116
1.0000116
1.0000117
1.0000117
1.0000116
1.0000116
1.0000116
1.0000116
1.0000116
1.0000115
1.0000116
1.0000114
1.0000114
1.0000115
1.0000112
1.0000115
1.0000115
1.0000199
1.0000194
1.0000198
1.0000195
1.0000198
1.0000198
1.0000195
1.0000197
1.0000197
1.0000197
1.0000197
1.0000196
1.0000197
1.0000198
1.0000198
1.0000197
1.0000197
1.0000196
1.0000196
1.0000196
1.0000196
1.0000196
1.0000196
1.0000196
1.0000196
1.0000196
1.0000196
1.0000196
1.0000196
1.0000196
1.0000196
1.0000196
1.0000196
1.0000196
1.0000196
1.0000196
1.0000196
1.0000196
1.0000196
1.0000196
1.0000196
1.0000196
1.0000196
1.0000196
1.0000196
1.0000197
1.0000197
1.0000196
1.0000196
1.0000196
1.0000196
1.0000196
1.0000197
1.0000197
1.0000196
1.0000198
1.0000194
1.0000197
1.0000197
1.0000112
1.0000123
1.0000118
1.0000123
1.0000118
1.0000117
1.0000121
1.000012
1.0000118
1.0000118
1.0000119
1.000012
1.000012
1.0000119
1.0000118
1.0000119
1.000012
1.0000121
1.0000123
1.0000124
1.0000124
1.0000125
1.0000125
1.0000125
1.0000125
1.0000125
1.0000125
1.0000125
1.0000125
1.0000125
1.0000125
1.0000125
1.0000125
1.0000125
1.0000125
1.0000125
1.0000124
1.0000124
1.0000123
1.0000123
1.0000122
1.0000121
1.000012
1.0000118
1.0000116
1.0000115
1.0000117
1.0000118
1.0000118
1.0000117
1.0000116
1.0000116
1.0000115
1.0000118
1.0000119
1.0000118
1.0000123
1.0000115
1.0000115
1.0000784
1.0000784
1.0000784
1.0000784
1.0000784
1.0000785
1.0000785
1.0000785
1.0000785
1.0000786
1.0000786
1.0000786
1.0000786
1.0000787
1.0000787
1.0000787
1.0000787
1.0000788
1.0000788
1.0000788
1.0000788
1.0000788
1.0000789
1.0000789
1.0000789
1.0000789
1.0000789
1.000079
1.000079
1.000079
1.000079
1.000079
1.000079
1.000079
1.000079
1.0000791
1.0000791
1.000079
1.000079
1.000079
1.000079
1.0000791
1.0000791
1.0000791
1.0000791
1.0000791
1.0000791
1.0000791
1.0000791
1.0000791
1.0000791
1.0000791
1.0000793
1.0000795
1.00008
1.0000809
1.0000826
1.0000854
1.0000892
1.0000718
1.0000718
1.0000718
1.0000718
1.0000719
1.0000719
1.0000719
1.0000719
1.0000719
1.000072
1.000072
1.000072
1.000072
1.000072
1.0000721
1.0000721
1.0000721
1.0000721
1.0000721
1.0000721
1.0000722
1.0000722
1.0000722
1.0000722
1.0000722
1.0000722
1.0000723
1.0000723
1.0000723
1.0000723
1.0000723
1.0000723
1.0000723
1.0000723
1.0000724
1.0000724
1.0000724
1.0000724
1.0000724
1.0000724
1.0000724
1.0000724
1.0000724
1.0000724
1.0000724
1.0000724
1.0000724
1.0000724
1.0000724
1.0000724
1.0000724
1.0000724
1.0000725
1.0000728
1.0000732
1.0000741
1.0000756
1.0000782
1.0000817
1.0000657
1.0000657
1.0000657
1.0000657
1.0000657
1.0000657
1.0000658
1.0000658
1.0000658
1.0000658
1.0000658
1.0000658
1.0000659
1.0000659
1.0000659
1.0000659
1.0000659
1.0000659
1.000066
1.000066
1.000066
1.000066
1.000066
1.000066
1.000066
1.0000661
1.0000661
1.0000661
1.0000661
1.0000661
1.0000661
1.0000661
1.0000661
1.0000661
1.0000661
1.0000661
1.0000661
1.0000661
1.0000661
1.0000661
1.0000661
1.0000661
1.0000661
1.0000662
1.0000662
1.0000662
1.0000662
1.0000662
1.0000662
1.0000662
1.0000662
1.0000662
1.0000663
1.0000665
1.0000669
1.0000676
1.0000691
1.0000715
1.0000746
1.0000599
1.0000599
1.0000599
1.00006
1.00006
1.00006
1.00006
1.00006
1.00006
1.00006
1.0000601
1.0000601
1.0000601
1.0000601
1.0000601
1.0000601
1.0000601
1.0000602
1.0000602
1.0000602
1.0000602
1.0000602
1.0000602
1.0000602
1.0000602
1.0000603
1.0000603
1.0000603
1.0000603
1.0000603
1.0000603
1.0000603
1.0000603
1.0000603
1.0000603
1.0000603
1.0000603
1.0000603
1.0000603
1.0000603
1.0000603
1.0000603
1.0000603
1.0000603
1.0000603
1.0000603
1.0000603
1.0000603
1.0000603
1.0000603
1.0000603
1.0000603
1.0000604
1.0000606
1.0000609
1.0000616
1.0000629
1.0000652
1.0000681
1.0000546
1.0000546
1.0000546
1.0000546
1.0000546
1.0000546
1.0000546
1.0000547
1.0000547
1.0000547
1.0000547
1.0000547
1.0000547
1.0000547
1.0000547
1.0000548
1.0000548
1.0000548
1.0000548
1.0000548
1.0000548
1.0000548
1.0000548
1.0000548
1.0000549
1.0000549
1.0000549
1.0000549
1.0000549
1.0000549
1.0000549
1.0000549
1.0000549
1.0000549
1.0000549
1.0000549
1.0000549
1.0000549
1.0000549
1.0000549
1.0000549
1.0000549
1.0000549
1.0000549
1.0000549
1.0000549
1.0000549
1.0000549
1.0000549
1.0000549
1.0000549
1.0000549
1.000055
1.0000551
1.0000554
1.0000561
1.0000572
1.0000593
1.0000619
1.0000496
1.0000496
1.0000496
1.0000496
1.0000497
1.0000497
1.0000497
1.0000497
1.0000497
1.0000497
1.0000497
1.0000497
1.0000497
1.0000497
1.0000498
1.0000498
1.0000498
1.0000498
1.0000498
1.0000498
1.0000498
1.0000498
1.0000498
1.0000498
1.0000499
1.0000499
1.0000499
1.0000499
1.0000499
1.0000499
1.0000499
1.0000499
1.0000499
1.0000499
1.0000499
1.0000499
1.0000499
1.0000499
1.0000499
1.0000499
1.0000499
1.0000499
1.0000499
1.0000499
1.0000499
1.0000499
1.0000499
1.0000499
1.0000499
1.0000499
1.0000499
1.0000499
1.0000499
1.0000501
1.0000503
1.0000509
1.000052
1.0000539
1.0000563
1.000045
1.000045
1.000045
1.000045
1.0000451
1.0000451
1.0000451
1.0000451
1.0000451
1.0000451
1.0000451
1.0000451
1.0000451
1.0000451
1.0000451
1.0000452
1.0000452
1.0000452
1.0000452
1.0000452
1.0000452
1.0000452
1.0000452
1.0000452
1.0000452
1.0000452
1.0000452
1.0000452
1.0000452
1.0000453
1.0000453
1.0000453
1.0000453
1.0000453
1.0000453
1.0000453
1.0000453
1.0000453
1.0000453
1.0000453
1.0000452
1.0000452
1.0000452
1.0000452
1.0000453
1.0000453
1.0000453
1.0000453
1.0000452
1.0000452
1.0000452
1.0000452
1.0000453
1.0000454
1.0000456
1.0000461
1.0000471
1.0000488
1.000051
1.0000408
1.0000408
1.0000408
1.0000408
1.0000408
1.0000408
1.0000408
1.0000408
1.0000408
1.0000408
1.0000409
1.0000409
1.0000409
1.0000409
1.0000409
1.0000409
1.0000409
1.0000409
1.0000409
1.0000409
1.0000409
1.0000409
1.0000409
1.000041
1.000041
1.000041
1.000041
1.000041
1.000041
1.000041
1.000041
1.000041
1.000041
1.000041
1.000041
1.000041
1.000041
1.000041
1.000041
1.000041
1.000041
1.000041
1.000041
1.000041
1.000041
1.000041
1.000041
1.000041
1.000041
1.000041
1.0000409
1.0000409
1.000041
1.000041
1.0000412
1.0000417
1.0000425
1.0000442
1.0000462
1.0000369
1.0000369
1.0000369
1.0000369
1.0000369
1.0000369
1.0000369
1.0000369
1.0000369
1.0000369
1.0000369
1.0000369
1.000037
1.000037
1.000037
1.000037
1.000037
1.000037
1.000037
1.000037
1.000037
1.000037
1.000037
1.000037
1.000037
1.000037
1.000037
1.000037
1.0000371
1.0000371
1.0000371
1.0000371
1.0000371
1.0000371
1.0000371
1.0000371
1.0000371
1.0000371
1.0000371
1.0000371
1.000037
1.000037
1.000037
1.000037
1.000037
1.000037
1.000037
1.000037
1.000037
1.000037
1.000037
1.000037
1.000037
1.0000371
1.0000372
1.0000376
1.0000384
1.0000399
1.0000417
1.0000333
1.0000333
1.0000333
1.0000333
1.0000333
1.0000333
1.0000333
1.0000333
1.0000333
1.0000334
1.0000334
1.0000334
1.0000334
1.0000334
1.0000334
1.0000334
1.0000334
1.0000334
1.0000334
1.0000334
1.0000334
1.0000334
1.0000334
1.0000334
1.0000334
1.0000334
1.0000334
1.0000335
1.0000335
1.0000335
1.0000335
1.0000335
1.0000335
1.0000335
1.0000335
1.0000335
1.0000335
1.0000335
1.0000335
1.0000335
1.0000334
1.0000334
1.0000334
1.0000334
1.0000334
1.0000334
1.0000334
1.0000334
1.0000334
1.0000334
1.0000334
1.0000334
1.0000334
1.0000334
1.0000336
1.0000339
1.0000346
1.0000359
1.0000376
1.00003
1.00003
1.00003
1.00003
1.0000301
1.0000301
1.0000301
1.0000301
1.0000301
1.0000301
1.0000301
1.0000301
1.0000301
1.0000301
1.0000301
1.0000301
1.0000301
1.0000301
1.0000301
1.0000301
1.0000301
1.0000301
1.0000302
1.0000302
1.0000302
1.0000302
1.0000302
1.0000302
1.0000302
1.0000302
1.0000302
1.0000302
1.0000302
1.0000302
1.0000302
1.0000302
1.0000302
1.0000302
1.0000302
1.0000302
1.0000302
1.0000302
1.0000302
1.0000302
1.0000302
1.0000301
1.0000301
1.0000302
1.0000301
1.0000301
1.0000301
1.0000301
1.0000301
1.0000301
1.0000302
1.0000305
1.0000311
1.0000323
1.0000339
1.000027
1.0000271
1.0000271
1.0000271
1.0000271
1.0000271
1.0000271
1.0000271
1.0000271
1.0000271
1.0000271
1.0000271
1.0000271
1.0000271
1.0000271
1.0000271
1.0000271
1.0000271
1.0000271
1.0000271
1.0000271
1.0000272
1.0000272
1.0000272
1.0000272
1.0000272
1.0000272
1.0000272
1.0000272
1.0000272
1.0000272
1.0000272
1.0000272
1.0000272
1.0000272
1.0000272
1.0000272
1.0000272
1.0000272
1.0000272
1.0000272
1.0000272
1.0000272
1.0000272
1.0000272
1.0000272
1.0000272
1.0000272
1.0000272
1.0000271
1.0000271
1.0000271
1.0000271
1.0000271
1.0000272
1.0000274
1.0000279
1.000029
1.0000305
1.0000243
1.0000244
1.0000244
1.0000244
1.0000244
1.0000244
1.0000244
1.0000244
1.0000244
1.0000244
1.0000244
1.0000244
1.0000244
1.0000244
1.0000244
1.0000244
1.0000244
1.0000244
1.0000244
1.0000244
1.0000244
1.0000244
1.0000245
1.0000245
1.0000245
1.0000245
1.0000245
1.0000245
1.0000245
1.0000245
1.0000245
1.0000245
1.0000245
1.0000245
1.0000245
1.0000245
1.0000245
1.0000245
1.0000245
1.0000245
1.0000245
1.0000245
1.0000245
1.0000244
1.0000244
1.0000244
1.0000244
1.0000244
1.0000244
1.0000244
1.0000244
1.0000244
1.0000244
1.0000244
1.0000245
1.0000246
1.0000251
1.000026
1.0000274
1.000022
1.000022
1.000022
1.000022
1.000022
1.000022
1.000022
1.000022
1.000022
1.0000221
1.0000221
1.0000221
1.0000221
1.0000221
1.0000221
1.0000221
1.0000221
1.0000221
1.0000221
1.0000221
1.0000221
1.0000221
1.0000221
1.0000221
1.0000221
1.0000221
1.0000221
1.0000221
1.0000221
1.0000221
1.0000221
1.0000221
1.0000221
1.0000221
1.0000221
1.0000221
1.0000221
1.0000221
1.0000221
1.0000221
1.0000221
1.0000221
1.0000221
1.0000221
1.0000221
1.0000221
1.0000221
1.0000221
1.0000221
1.0000221
1.0000221
1.0000221
1.000022
1.000022
1.0000221
1.0000222
1.0000225
1.0000234
1.0000247
1.0000982
1.0001091
1.0001214
1.0001348
1.0001494
1.0001653
1.0001826
1.0002014
1.0002218
1.0002437
1.0002671
1.0002922
1.0003188
1.0003468
1.0003761
1.0004066
1.0004379
1.0004697
1.0005016
1.0005329
1.000563
1.0005912
1.0006165
1.000638
1.0006547
1.0006654
1.0006692
1.0006656
1.0006531
1.0006313
1.0006003
1.0005582
1.0005083
1.0004493
1.0003805
1.0003055
1.0002241
1.0001359
1.0000438
0.99994921
0.99985307
0.99975609
0.99965948
0.99956414
0.99947081
0.9993791
0.9992892
0.99920246
0.99911919
0.99903948
0.99896368
0.99889168
0.99882333
0.99875899
0.99869855
0.99864143
0.99858764
0.99853721
0.99848996
0.99844558
0.99840403
0.99836534
0.9983293
0.99829572
0.99826447
0.99823541
0.9982084
0.99818332
0.99816004
0.99813844
0.99811842
0.99809988
0.99808278
0.99806686
1.0000941
1.0001047
1.0001167
1.0001297
1.000144
1.0001596
1.0001765
1.0001949
1.0002148
1.0002361
1.0002591
1.0002836
1.0003096
1.0003371
1.0003659
1.0003958
1.0004267
1.0004581
1.0004896
1.0005207
1.0005507
1.000579
1.0006046
1.0006265
1.0006441
1.0006558
1.000661
1.0006591
1.0006487
1.0006293
1.0006011
1.0005629
1.0005156
1.0004598
1.0003957
1.0003245
1.0002474
1.0001644
1.0000769
0.99998646
0.99989412
0.99980076
0.9997075
0.99961508
0.99952475
0.99943444
0.99934658
0.99926264
0.99918219
0.99910511
0.99903149
0.99896142
0.99889478
0.99883224
0.99877352
0.99871795
0.99866552
0.99861631
0.99857014
0.99852667
0.99848594
0.99844799
0.99841261
0.99837964
0.99834895
0.99832041
0.99829388
0.99826923
0.99824635
0.99822513
0.99820546
0.99818721
0.99817042
0.99815477
1.000091
1.0001013
1.0001129
1.0001256
1.0001395
1.0001546
1.0001711
1.000189
1.0002083
1.0002291
1.0002514
1.0002753
1.0003006
1.0003273
1.0003554
1.0003846
1.0004147
1.0004454
1.0004762
1.0005067
1.0005362
1.000564
1.0005893
1.0006112
1.0006289
1.000641
1.0006468
1.000646
1.0006369
1.0006192
1.000593
1.0005577
1.0005133
1.0004608
1.0004003
1.0003329
1.0002597
1.000181
1.0000983
1.0000127
0.99992523
0.99983669
0.99974814
0.99966042
0.99957447
0.99949004
0.99940728
0.99932735
0.99925051
0.99917683
0.99910643
0.99903938
0.99897571
0.9989168
0.99886093
0.99880722
0.99875648
0.99870895
0.99866426
0.99862195
0.99858238
0.99854567
0.99851155
0.99847982
0.99845034
0.99842295
0.99839752
0.99837401
0.9983522
0.99833197
0.99831319
0.99829583
0.99827987
0.99826493
1.0000891
1.0000992
1.0001105
1.0001229
1.0001365
1.0001512
1.0001673
1.0001848
1.0002036
1.0002239
1.0002457
1.000269
1.0002937
1.0003198
1.0003471
1.0003756
1.0004049
1.0004348
1.0004649
1.0004945
1.0005233
1.0005504
1.0005751
1.0005964
1.0006137
1.0006254
1.0006312
1.0006304
1.0006217
1.0006046
1.0005793
1.0005451
1.0005023
1.0004515
1.0003931
1.0003281
1.0002574
1.0001816
1.0001019
1.0000195
0.99993549
0.99985048
0.9997655
0.99968132
0.99959875
0.99951781
0.99943866
0.99936224
0.99928882
0.99921843
0.99915118
0.99908717
0.99902634
0.99896905
0.99891521
0.99886428
0.99881629
0.99877123
0.99872897
0.99868924
0.99865205
0.99861741
0.99858513
0.99855505
0.99852705
0.99850101
0.99847681
0.99845434
0.99843345
0.99841409
0.99839598
0.99837939
0.99836462
0.99835078
1.0000881
1.000098
1.0001091
1.0001213
1.0001346
1.0001491
1.0001649
1.000182
1.0002005
1.0002204
1.0002417
1.0002645
1.0002887
1.0003143
1.0003411
1.0003689
1.0003976
1.0004268
1.0004561
1.000485
1.000513
1.0005394
1.0005633
1.0005839
1.0006005
1.0006116
1.0006169
1.0006157
1.0006067
1.0005895
1.0005641
1.00053
1.0004876
1.0004374
1.0003797
1.0003156
1.0002459
1.0001714
1.000093
1.0000122
0.99992978
0.99984653
0.99976338
0.9996811
0.99960042
0.99952141
0.99944426
0.99936981
0.99929834
0.99922989
0.99916455
0.99910239
0.9990434
0.99898776
0.99893542
0.99888606
0.99883955
0.99879591
0.99875503
0.99871665
0.99868074
0.99864727
0.99861608
0.99858704
0.99855997
0.99853497
0.99851186
0.99849039
0.99847041
0.99845184
0.99843459
0.99841862
0.99840388
0.99839008
1.0000875
1.0000973
1.0001083
1.0001203
1.0001334
1.0001478
1.0001633
1.0001802
1.0001984
1.000218
1.0002391
1.0002615
1.0002853
1.0003105
1.0003368
1.0003642
1.0003923
1.0004209
1.0004496
1.000478
1.0005053
1.000531
1.0005542
1.0005741
1.00059
1.0006005
1.0006051
1.0006033
1.0005937
1.000576
1.0005502
1.0005158
1.0004731
1.0004227
1.000365
1.0003009
1.0002314
1.000157
1.000079
0.99999856
0.99991659
0.99983387
0.99975131
0.99966965
0.9995896
0.99951128
0.99943489
0.99936121
0.99929049
0.99922279
0.99915821
0.99909681
0.99903857
0.99898366
0.99893199
0.99888328
0.99883742
0.99879438
0.99875406
0.99871628
0.99868093
0.99864798
0.99861729
0.99858871
0.99856212
0.9985374
0.99851443
0.9984931
0.9984733
0.99845494
0.99843791
0.99842212
0.99840756
0.99839409
1.0000872
1.0000969
1.0001078
1.0001197
1.0001327
1.0001469
1.0001623
1.000179
1.0001971
1.0002165
1.0002373
1.0002595
1.000283
1.0003078
1.0003338
1.0003608
1.0003885
1.0004167
1.000445
1.0004728
1.0004996
1.0005247
1.0005474
1.0005667
1.000582
1.0005919
1.0005959
1.0005935
1.0005833
1.0005651
1.0005388
1.000504
1.0004608
1.00041
1.000352
1.0002875
1.0002178
1.0001432
1.000065
0.99998443
0.99990236
0.99981959
0.999737
0.99965534
0.99957528
0.999497
0.99942073
0.99934714
0.99927653
0.99920896
0.9991445
0.99908325
0.99902518
0.99897039
0.99891882
0.99887023
0.99882452
0.99878163
0.99874145
0.99870383
0.99866865
0.99863584
0.99860528
0.99857683
0.99855035
0.99852573
0.99850286
0.99848163
0.99846193
0.99844366
0.99842674
0.99841106
0.99839656
0.99838311
1.0000871
1.0000967
1.0001075
1.0001194
1.0001323
1.0001464
1.0001617
1.0001783
1.0001962
1.0002155
1.0002361
1.0002581
1.0002814
1.000306
1.0003317
1.0003584
1.0003859
1.0004137
1.0004416
1.0004691
1.0004954
1.0005202
1.0005424
1.0005612
1.0005761
1.0005855
1.000589
1.0005861
1.0005755
1.0005568
1.00053
1.0004948
1.0004512
1.0004001
1.0003416
1.0002769
1.0002067
1.0001319
1.0000534
0.9999726
0.99989029
0.99980731
0.99972453
0.99964268
0.99956242
0.99948398
0.99940761
0.99933391
0.99926319
0.99919552
0.99913099
0.99906966
0.99901154
0.99895668
0.99890503
0.99885638
0.99881063
0.99876769
0.99872747
0.99868982
0.99865463
0.99862181
0.99859123
0.99856275
0.99853626
0.99851164
0.99848876
0.99846752
0.99844782
0.99842954
0.9984126
0.9983969
0.99838237
0.99836891
1.000087
1.0000966
1.0001074
1.0001192
1.0001321
1.0001461
1.0001613
1.0001778
1.0001956
1.0002148
1.0002353
1.0002571
1.0002803
1.0003047
1.0003303
1.0003568
1.000384
1.0004116
1.0004392
1.0004664
1.0004925
1.0005169
1.0005387
1.0005573
1.0005717
1.0005808
1.0005839
1.0005808
1.0005698
1.0005507
1.0005236
1.0004881
1.0004442
1.0003928
1.000334
1.000269
1.0001986
1.0001235
1.0000449
0.99996382
0.99988131
0.99979814
0.99971518
0.99963315
0.99955269
0.99947409
0.99939761
0.9993238
0.99925296
0.99918517
0.99912054
0.99905912
0.99900093
0.99894597
0.99889421
0.99884547
0.99879964
0.99875664
0.99871637
0.99867868
0.99864346
0.99861061
0.99858
0.9985515
0.99852498
0.99850033
0.99847743
0.99845617
0.99843644
0.99841814
0.99840119
0.99838548
0.99837093
0.99835744
1.000087
1.0000966
1.0001073
1.0001191
1.0001319
1.0001459
1.0001611
1.0001775
1.0001953
1.0002143
1.0002347
1.0002565
1.0002796
1.0003038
1.0003292
1.0003556
1.0003826
1.0004101
1.0004375
1.0004645
1.0004903
1.0005145
1.0005361
1.0005544
1.0005687
1.0005774
1.0005803
1.0005769
1.0005657
1.0005465
1.0005191
1.0004834
1.0004394
1.0003877
1.0003288
1.0002636
1.0001931
1.0001178
1.000039
0.99995786
0.99987522
0.99979193
0.99970885
0.99962671
0.99954611
0.99946739
0.99939084
0.99931696
0.99924603
0.99917817
0.99911347
0.99905198
0.99899373
0.99893871
0.99888686
0.99883805
0.99879217
0.99874913
0.99870881
0.99867109
0.99863585
0.99860296
0.99857232
0.99854379
0.99851724
0.99849257
0.99846964
0.99844836
0.99842861
0.9984103
0.99839332
0.99837759
0.99836302
0.99834953
1.000087
1.0000965
1.0001073
1.000119
1.0001318
1.0001458
1.0001609
1.0001773
1.000195
1.000214
1.0002344
1.000256
1.000279
1.0003032
1.0003285
1.0003548
1.0003817
1.000409
1.0004363
1.0004631
1.0004888
1.0005128
1.0005343
1.0005524
1.0005665
1.000575
1.0005778
1.0005744
1.000563
1.0005437
1.0005162
1.0004803
1.0004362
1.0003845
1.0003255
1.0002603
1.0001896
1.0001143
1.0000355
0.99995422
0.9998715
0.99978816
0.99970501
0.99962279
0.9995421
0.99946331
0.99938672
0.9993128
0.99924182
0.99917391
0.99910916
0.99904764
0.99898935
0.99893428
0.99888237
0.99883351
0.99878759
0.99874451
0.99870417
0.99866643
0.99863117
0.99859827
0.99856762
0.99853908
0.99851252
0.99848784
0.9984649
0.99844361
0.99842385
0.99840553
0.99838854
0.9983728
0.99835822
0.99834471
1.000087
1.0000965
1.0001073
1.000119
1.0001318
1.0001457
1.0001608
1.0001772
1.0001948
1.0002138
1.0002341
1.0002557
1.0002786
1.0003028
1.000328
1.0003542
1.000381
1.0004082
1.0004354
1.0004621
1.0004877
1.0005116
1.000533
1.000551
1.000565
1.0005737
1.0005762
1.0005726
1.0005612
1.0005418
1.0005144
1.0004785
1.0004344
1.0003827
1.0003238
1.0002585
1.0001878
1.0001125
1.0000337
0.99995242
0.99986969
0.99978632
0.99970315
0.99962089
0.99954014
0.99946129
0.99938469
0.99931074
0.99923973
0.99917178
0.999107
0.99904545
0.99898713
0.99893202
0.99888006
0.99883116
0.99878521
0.99874211
0.99870174
0.99866398
0.99862871
0.9985958
0.99856513
0.99853658
0.99851001
0.9984853
0.99846236
0.99844105
0.99842128
0.99840295
0.99838595
0.9983702
0.99835562
0.9983421
1.000087
1.0000965
1.0001073
1.000119
1.0001318
1.0001457
1.0001608
1.0001771
1.0001947
1.0002136
1.0002339
1.0002555
1.0002784
1.0003025
1.0003276
1.0003537
1.0003805
1.0004077
1.0004348
1.0004614
1.0004869
1.0005108
1.0005321
1.0005501
1.000564
1.0005726
1.0005751
1.0005716
1.0005603
1.0005409
1.0005135
1.0004777
1.0004337
1.000382
1.0003232
1.000258
1.0001874
1.0001121
1.0000334
0.99995212
0.9998694
0.99978604
0.99970286
0.99962057
0.99953977
0.99946089
0.99938428
0.99931031
0.99923926
0.99917129
0.99910648
0.99904489
0.99898654
0.99893139
0.99887939
0.99883045
0.99878447
0.99874134
0.99870094
0.99866317
0.99862788
0.99859496
0.99856427
0.9985357
0.99850912
0.99848441
0.99846145
0.99844014
0.99842036
0.99840201
0.99838501
0.99836924
0.99835464
0.99834112
1.000087
1.0000965
1.0001073
1.000119
1.0001317
1.0001456
1.0001607
1.000177
1.0001946
1.0002135
1.0002338
1.0002553
1.0002782
1.0003022
1.0003274
1.0003534
1.0003801
1.0004072
1.0004343
1.0004609
1.0004864
1.0005102
1.0005315
1.0005495
1.0005634
1.0005719
1.0005746
1.0005711
1.0005599
1.0005407
1.0005134
1.0004778
1.0004339
1.0003824
1.0003237
1.0002586
1.0001881
1.000113
1.0000343
0.99995313
0.99987044
0.99978711
0.99970394
0.99962164
0.99954081
0.99946189
0.99938526
0.99931127
0.99924019
0.99917218
0.99910733
0.99904571
0.99898731
0.99893212
0.99888008
0.99883109
0.99878507
0.99874191
0.99870148
0.99866368
0.99862837
0.99859542
0.99856472
0.99853613
0.99850953
0.9984848
0.99846182
0.99844049
0.9984207
0.99840234
0.99838532
0.99836955
0.99835494
0.99834141
1.000087
1.0000965
1.0001073
1.000119
1.0001317
1.0001456
1.0001607
1.000177
1.0001946
1.0002135
1.0002337
1.0002552
1.000278
1.0003021
1.0003272
1.0003532
1.0003799
1.0004069
1.000434
1.0004605
1.000486
1.0005098
1.0005311
1.0005491
1.0005631
1.0005717
1.0005745
1.0005711
1.0005601
1.000541
1.0005139
1.0004785
1.000435
1.0003837
1.0003252
1.0002603
1.00019
1.000115
1.0000364
0.99995538
0.99987276
0.99978947
0.99970632
0.99962402
0.99954315
0.9994642
0.99938755
0.99931353
0.99924241
0.99917436
0.99910946
0.99904778
0.99898934
0.99893409
0.99888199
0.99883295
0.99878689
0.99874368
0.99870321
0.99866537
0.99863003
0.99859705
0.99856632
0.9985377
0.99851107
0.99848632
0.99846332
0.99844197
0.99842215
0.99840377
0.99838673
0.99837094
0.99835631
0.99834276
1.0000869
1.0000965
1.0001072
1.000119
1.0001317
1.0001456
1.0001607
1.000177
1.0001945
1.0002134
1.0002336
1.0002551
1.0002779
1.0003019
1.000327
1.000353
1.0003797
1.0004067
1.0004337
1.0004603
1.0004858
1.0005095
1.0005309
1.0005489
1.000563
1.0005717
1.0005748
1.0005715
1.0005607
1.0005419
1.0005151
1.0004801
1.0004368
1.0003858
1.0003277
1.0002631
1.000193
1.0001182
1.0000398
0.9999589
0.99987639
0.99979316
0.99971004
0.99962774
0.99954685
0.99946787
0.99939118
0.99931712
0.99924595
0.99917783
0.99911287
0.99905113
0.99899261
0.9989373
0.99888513
0.99883603
0.9987899
0.99874664
0.99870612
0.99866823
0.99863284
0.99859982
0.99856905
0.9985404
0.99851374
0.99848895
0.99846592
0.99844454
0.9984247
0.9984063
0.99838924
0.99837343
0.99835879
0.99834522
1.0000869
1.0000965
1.0001072
1.0001189
1.0001317
1.0001456
1.0001606
1.0001769
1.0001945
1.0002134
1.0002336
1.0002551
1.0002778
1.0003018
1.0003269
1.0003528
1.0003795
1.0004065
1.0004335
1.0004601
1.0004856
1.0005094
1.0005308
1.0005489
1.0005631
1.0005721
1.0005753
1.0005723
1.0005618
1.0005434
1.000517
1.0004823
1.0004395
1.0003889
1.0003312
1.000267
1.0001972
1.0001227
1.0000446
0.99996384
0.99988146
0.99979833
0.99971525
0.99963296
0.99955206
0.99947303
0.9993963
0.99932218
0.99925094
0.99918274
0.99911771
0.99905588