/*--------------------------------*- C++ -*----------------------------------*\
| =========                 |                                                 |
| \\      /  F ield         | OpenFOAM: The Open Source CFD Toolbox           |
|  \\    /   O peration     | Version:  v2006                                 |
|   \\  /    A nd           | Website:  www.openfoam.com                      |
|    \\/     M anipulation  |                                                 |
\*---------------------------------------------------------------------------*/
FoamFile
{
    version     2.0;
    format      ascii;
    class       volScalarField;
    location    "8000";
    object      T;
}
// * * * * * * * * * * * * * * * * * * * * * * * * * * * * * * * * * * * * * //

dimensions      [0 0 0 1 0 0 0];


internalField   nonuniform List<scalar> 
55713
(
1.0000063
1.0000075
1.0000082
1.0000085
1.0000086
1.0000086
1.0000086
1.0000086
1.0000086
1.0000085
1.0000085
1.0000085
1.0000085
1.0000085
1.0000085
1.0000085
1.0000085
1.0000085
1.0000085
1.0000084
1.0000085
1.0000085
1.0000085
1.0000085
1.0000085
1.0000085
1.0000085
1.0000085
1.0000085
1.0000085
1.0000085
1.0000085
1.0000085
1.0000085
1.0000085
1.0000085
1.0000085
1.0000085
1.0000085
1.0000085
1.0000085
1.0000085
1.0000085
1.0000085
1.0000085
1.0000085
1.0000085
1.0000085
1.0000085
1.0000085
1.0000085
1.0000085
1.0000085
1.0000086
1.0000086
1.0000086
1.0000086
1.0000086
1.0000086
1.0000059
1.0000071
1.0000077
1.000008
1.000008
1.000008
1.000008
1.000008
1.000008
1.000008
1.000008
1.000008
1.000008
1.000008
1.000008
1.000008
1.0000079
1.0000079
1.0000079
1.0000079
1.0000079
1.0000079
1.0000079
1.000008
1.000008
1.0000079
1.0000079
1.0000079
1.0000079
1.0000079
1.0000079
1.0000079
1.0000079
1.0000079
1.0000079
1.0000079
1.0000079
1.000008
1.000008
1.000008
1.000008
1.000008
1.000008
1.000008
1.000008
1.000008
1.000008
1.000008
1.000008
1.000008
1.000008
1.000008
1.000008
1.000008
1.000008
1.000008
1.000008
1.000008
1.000008
1.0000057
1.0000068
1.0000073
1.0000075
1.0000076
1.0000075
1.0000075
1.0000075
1.0000075
1.0000075
1.0000075
1.0000075
1.0000075
1.0000075
1.0000075
1.0000075
1.0000075
1.0000074
1.0000074
1.0000074
1.0000075
1.0000075
1.0000075
1.0000075
1.0000075
1.0000075
1.0000075
1.0000075
1.0000074
1.0000074
1.0000075
1.0000075
1.0000075
1.0000075
1.0000075
1.0000075
1.0000075
1.0000075
1.0000075
1.0000075
1.0000075
1.0000075
1.0000075
1.0000075
1.0000075
1.0000075
1.0000075
1.0000075
1.0000075
1.0000075
1.0000075
1.0000075
1.0000075
1.0000075
1.0000076
1.0000076
1.0000076
1.0000076
1.0000076
1.0000055
1.0000065
1.000007
1.0000071
1.0000071
1.0000071
1.0000071
1.0000071
1.0000071
1.0000071
1.0000071
1.0000071
1.0000071
1.0000071
1.0000071
1.0000071
1.000007
1.000007
1.000007
1.000007
1.000007
1.0000071
1.0000071
1.0000071
1.0000071
1.0000071
1.000007
1.000007
1.000007
1.000007
1.000007
1.000007
1.000007
1.000007
1.0000071
1.0000071
1.0000071
1.0000071
1.0000071
1.0000071
1.0000071
1.0000071
1.0000071
1.0000071
1.0000071
1.0000071
1.0000071
1.0000071
1.0000071
1.0000071
1.0000071
1.0000071
1.0000071
1.0000071
1.0000071
1.0000072
1.0000071
1.0000071
1.0000071
1.0000053
1.0000062
1.0000067
1.0000068
1.0000068
1.0000068
1.0000068
1.0000068
1.0000068
1.0000068
1.0000068
1.0000068
1.0000067
1.0000067
1.0000067
1.0000067
1.0000067
1.0000067
1.0000067
1.0000067
1.0000067
1.0000067
1.0000067
1.0000067
1.0000067
1.0000067
1.0000067
1.0000067
1.0000067
1.0000067
1.0000067
1.0000067
1.0000067
1.0000067
1.0000067
1.0000067
1.0000067
1.0000067
1.0000067
1.0000067
1.0000068
1.0000068
1.0000067
1.0000067
1.0000067
1.0000067
1.0000067
1.0000067
1.0000067
1.0000067
1.0000067
1.0000067
1.0000067
1.0000068
1.0000068
1.0000068
1.0000068
1.0000068
1.0000068
1.0000052
1.000006
1.0000064
1.0000065
1.0000065
1.0000064
1.0000064
1.0000065
1.0000065
1.0000065
1.0000065
1.0000064
1.0000064
1.0000064
1.0000064
1.0000064
1.0000064
1.0000063
1.0000064
1.0000064
1.0000064
1.0000064
1.0000064
1.0000064
1.0000064
1.0000064
1.0000064
1.0000064
1.0000064
1.0000064
1.0000064
1.0000064
1.0000064
1.0000064
1.0000064
1.0000064
1.0000064
1.0000064
1.0000064
1.0000064
1.0000064
1.0000064
1.0000064
1.0000064
1.0000064
1.0000064
1.0000064
1.0000064
1.0000064
1.0000064
1.0000064
1.0000064
1.0000064
1.0000064
1.0000065
1.0000065
1.0000065
1.0000065
1.0000065
1.000005
1.0000059
1.0000062
1.0000062
1.0000062
1.0000062
1.0000062
1.0000062
1.0000062
1.0000062
1.0000062
1.0000062
1.0000062
1.0000061
1.0000061
1.0000061
1.0000061
1.0000061
1.0000061
1.0000061
1.0000061
1.0000062
1.0000061
1.0000061
1.0000061
1.0000061
1.0000061
1.0000061
1.0000061
1.0000061
1.0000061
1.0000061
1.0000061
1.0000061
1.0000061
1.0000061
1.0000061
1.0000061
1.0000061
1.0000061
1.0000062
1.0000062
1.0000061
1.0000061
1.0000061
1.0000061
1.0000061
1.0000061
1.0000061
1.0000062
1.0000061
1.0000061
1.0000062
1.0000062
1.0000062
1.0000062
1.0000062
1.0000062
1.0000062
1.000005
1.0000057
1.000006
1.000006
1.0000059
1.0000059
1.0000059
1.000006
1.000006
1.000006
1.000006
1.0000059
1.0000059
1.0000059
1.0000059
1.0000058
1.0000058
1.0000058
1.0000059
1.0000059
1.0000059
1.0000059
1.0000059
1.0000059
1.0000059
1.0000059
1.0000058
1.0000058
1.0000058
1.0000058
1.0000058
1.0000058
1.0000058
1.0000059
1.0000059
1.0000059
1.0000059
1.0000059
1.0000059
1.0000059
1.0000059
1.0000059
1.0000059
1.0000059
1.0000058
1.0000059
1.0000059
1.0000059
1.0000059
1.0000059
1.0000059
1.0000059
1.0000059
1.0000059
1.0000059
1.000006
1.000006
1.0000059
1.000006
1.0000049
1.0000056
1.0000058
1.0000058
1.0000058
1.0000058
1.0000057
1.0000058
1.0000059
1.0000059
1.0000058
1.0000058
1.0000057
1.0000057
1.0000057
1.0000057
1.0000057
1.0000057
1.0000057
1.0000058
1.0000058
1.0000058
1.0000057
1.0000057
1.0000057
1.0000057
1.0000057
1.0000057
1.0000057
1.0000057
1.0000057
1.0000057
1.0000057
1.0000057
1.0000057
1.0000057
1.0000057
1.0000057
1.0000057
1.0000057
1.0000057
1.0000057
1.0000057
1.0000057
1.0000057
1.0000057
1.0000057
1.0000057
1.0000058
1.0000058
1.0000057
1.0000057
1.0000057
1.0000058
1.0000058
1.0000058
1.0000058
1.0000058
1.0000058
1.0000049
1.0000056
1.0000057
1.0000056
1.0000056
1.0000056
1.0000056
1.0000057
1.0000057
1.0000057
1.0000056
1.0000056
1.0000056
1.0000056
1.0000055
1.0000055
1.0000055
1.0000055
1.0000056
1.0000056
1.0000056
1.0000056
1.0000056
1.0000056
1.0000055
1.0000055
1.0000055
1.0000055
1.0000055
1.0000055
1.0000055
1.0000055
1.0000055
1.0000055
1.0000055
1.0000055
1.0000056
1.0000056
1.0000056
1.0000056
1.0000056
1.0000056
1.0000056
1.0000056
1.0000056
1.0000055
1.0000056
1.0000056
1.0000056
1.0000056
1.0000056
1.0000056
1.0000056
1.0000056
1.0000056
1.0000057
1.0000057
1.0000056
1.0000056
1.0000048
1.0000054
1.0000054
1.0000054
1.0000053
1.0000053
1.0000053
1.0000054
1.0000054
1.0000053
1.0000053
1.0000053
1.0000053
1.0000053
1.0000052
1.0000052
1.0000052
1.0000053
1.0000053
1.0000053
1.0000053
1.0000053
1.0000053
1.0000052
1.0000052
1.0000052
1.0000052
1.0000052
1.0000052
1.0000052
1.0000052
1.0000052
1.0000052
1.0000052
1.0000052
1.0000052
1.0000052
1.0000052
1.0000052
1.0000053
1.0000053
1.0000053
1.0000053
1.0000053
1.0000053
1.0000052
1.0000053
1.0000053
1.0000053
1.0000053
1.0000053
1.0000053
1.0000053
1.0000053
1.0000053
1.0000054
1.0000054
1.0000053
1.0000053
1.0000047
1.0000055
1.0000052
1.0000053
1.0000053
1.0000051
1.0000054
1.0000052
1.0000052
1.0000051
1.0000051
1.0000051
1.0000051
1.0000051
1.0000051
1.000005
1.0000051
1.0000051
1.0000052
1.0000052
1.0000052
1.0000052
1.0000051
1.0000051
1.0000051
1.000005
1.000005
1.000005
1.000005
1.000005
1.000005
1.000005
1.000005
1.000005
1.000005
1.0000051
1.0000051
1.0000051
1.0000051
1.0000051
1.0000051
1.0000051
1.0000052
1.0000052
1.0000051
1.0000051
1.0000051
1.0000051
1.0000051
1.0000052
1.0000051
1.0000052
1.000005
1.0000053
1.0000053
1.0000051
1.0000055
1.0000051
1.0000051
1.0000061
1.0000066
1.0000062
1.0000065
1.0000062
1.0000062
1.0000065
1.0000062
1.0000063
1.0000062
1.0000064
1.0000063
1.0000064
1.0000063
1.0000063
1.0000063
1.0000063
1.0000064
1.0000064
1.0000065
1.0000064
1.0000063
1.0000063
1.0000063
1.0000063
1.0000063
1.0000063
1.0000063
1.0000063
1.0000063
1.0000063
1.0000063
1.0000063
1.0000063
1.0000063
1.0000063
1.0000063
1.0000064
1.0000063
1.0000063
1.0000063
1.0000063
1.0000063
1.0000063
1.0000064
1.0000063
1.0000064
1.0000063
1.0000063
1.0000064
1.0000064
1.0000063
1.0000063
1.0000062
1.0000065
1.0000062
1.0000065
1.0000063
1.0000063
1.0000048
1.0000039
1.0000044
1.0000039
1.0000044
1.0000046
1.000004
1.0000041
1.0000037
1.0000041
1.0000042
1.0000045
1.0000046
1.0000047
1.0000049
1.0000049
1.0000049
1.0000046
1.0000043
1.000004
1.0000038
1.0000038
1.0000038
1.0000038
1.0000038
1.0000038
1.0000038
1.0000038
1.0000038
1.0000038
1.0000038
1.0000038
1.0000038
1.0000038
1.0000038
1.0000038
1.0000038
1.0000038
1.0000038
1.0000037
1.0000038
1.000004
1.0000042
1.0000044
1.0000046
1.0000048
1.0000047
1.0000048
1.0000047
1.0000046
1.0000047
1.0000049
1.0000049
1.0000046
1.0000041
1.0000044
1.0000039
1.0000048
1.0000048
1.0000319
1.0000319
1.0000319
1.0000319
1.0000319
1.0000319
1.0000319
1.0000319
1.0000319
1.000032
1.000032
1.000032
1.000032
1.000032
1.000032
1.000032
1.000032
1.000032
1.000032
1.000032
1.000032
1.000032
1.000032
1.000032
1.000032
1.000032
1.000032
1.000032
1.000032
1.0000321
1.0000321
1.0000321
1.0000321
1.000032
1.000032
1.000032
1.000032
1.0000321
1.0000321
1.0000321
1.0000321
1.0000321
1.0000321
1.0000321
1.0000321
1.0000322
1.0000322
1.0000322
1.0000322
1.0000322
1.0000322
1.0000321
1.000032
1.0000318
1.0000313
1.0000304
1.0000287
1.0000259
1.0000221
1.0000293
1.0000293
1.0000293
1.0000293
1.0000293
1.0000293
1.0000293
1.0000293
1.0000293
1.0000293
1.0000293
1.0000293
1.0000293
1.0000294
1.0000294
1.0000294
1.0000294
1.0000294
1.0000294
1.0000294
1.0000294
1.0000294
1.0000294
1.0000294
1.0000294
1.0000294
1.0000294
1.0000294
1.0000294
1.0000294
1.0000294
1.0000294
1.0000294
1.0000294
1.0000294
1.0000294
1.0000294
1.0000294
1.0000294
1.0000294
1.0000295
1.0000295
1.0000295
1.0000295
1.0000295
1.0000295
1.0000295
1.0000295
1.0000295
1.0000295
1.0000295
1.0000295
1.0000294
1.0000292
1.0000287
1.0000279
1.0000263
1.0000237
1.0000203
1.0000268
1.0000268
1.0000268
1.0000268
1.0000268
1.0000268
1.0000268
1.0000268
1.0000268
1.0000268
1.0000269
1.0000269
1.0000269
1.0000269
1.0000269
1.0000269
1.0000269
1.0000269
1.0000269
1.0000269
1.0000269
1.0000269
1.0000269
1.0000269
1.0000269
1.0000269
1.0000269
1.0000269
1.0000269
1.0000269
1.0000269
1.0000269
1.0000269
1.0000269
1.0000269
1.0000269
1.0000269
1.0000269
1.0000269
1.0000269
1.0000269
1.0000269
1.000027
1.000027
1.000027
1.000027
1.000027
1.000027
1.000027
1.000027
1.000027
1.000027
1.0000269
1.0000267
1.0000263
1.0000256
1.0000241
1.0000217
1.0000186
1.0000245
1.0000245
1.0000245
1.0000245
1.0000245
1.0000245
1.0000245
1.0000245
1.0000245
1.0000245
1.0000245
1.0000246
1.0000246
1.0000246
1.0000246
1.0000246
1.0000246
1.0000246
1.0000246
1.0000246
1.0000246
1.0000246
1.0000246
1.0000246
1.0000246
1.0000246
1.0000246
1.0000246
1.0000246
1.0000246
1.0000246
1.0000246
1.0000246
1.0000246
1.0000246
1.0000245
1.0000245
1.0000245
1.0000246
1.0000246
1.0000246
1.0000246
1.0000246
1.0000246
1.0000246
1.0000246
1.0000246
1.0000247
1.0000247
1.0000247
1.0000247
1.0000247
1.0000246
1.0000244
1.0000241
1.0000234
1.0000221
1.0000198
1.000017
1.0000224
1.0000224
1.0000224
1.0000224
1.0000224
1.0000224
1.0000224
1.0000224
1.0000224
1.0000224
1.0000224
1.0000224
1.0000224
1.0000224
1.0000224
1.0000224
1.0000224
1.0000224
1.0000224
1.0000224
1.0000224
1.0000224
1.0000224
1.0000224
1.0000224
1.0000224
1.0000224
1.0000224
1.0000224
1.0000224
1.0000224
1.0000224
1.0000224
1.0000224
1.0000224
1.0000224
1.0000224
1.0000224
1.0000224
1.0000224
1.0000224
1.0000224
1.0000224
1.0000225
1.0000225
1.0000225
1.0000225
1.0000225
1.0000225
1.0000225
1.0000225
1.0000225
1.0000224
1.0000223
1.000022
1.0000214
1.0000202
1.0000181
1.0000155
1.0000204
1.0000204
1.0000204
1.0000204
1.0000204
1.0000204
1.0000204
1.0000204
1.0000204
1.0000204
1.0000204
1.0000204
1.0000204
1.0000204
1.0000204
1.0000204
1.0000204
1.0000204
1.0000204
1.0000204
1.0000204
1.0000204
1.0000204
1.0000204
1.0000204
1.0000204
1.0000204
1.0000204
1.0000204
1.0000204
1.0000204
1.0000204
1.0000204
1.0000204
1.0000204
1.0000204
1.0000203
1.0000203
1.0000204
1.0000204
1.0000204
1.0000204
1.0000204
1.0000204
1.0000204
1.0000204
1.0000205
1.0000205
1.0000205
1.0000205
1.0000205
1.0000205
1.0000204
1.0000203
1.0000201
1.0000195
1.0000184
1.0000165
1.0000141
1.0000185
1.0000185
1.0000185
1.0000185
1.0000185
1.0000185
1.0000186
1.0000185
1.0000185
1.0000185
1.0000185
1.0000186
1.0000186
1.0000186
1.0000186
1.0000186
1.0000186
1.0000186
1.0000186
1.0000186
1.0000186
1.0000186
1.0000185
1.0000185
1.0000185
1.0000185
1.0000185
1.0000185
1.0000185
1.0000185
1.0000185
1.0000185
1.0000185
1.0000185
1.0000185
1.0000185
1.0000185
1.0000185
1.0000185
1.0000185
1.0000185
1.0000185
1.0000186
1.0000186
1.0000186
1.0000186
1.0000186
1.0000186
1.0000186
1.0000186
1.0000186
1.0000186
1.0000186
1.0000185
1.0000183
1.0000178
1.0000168
1.0000151
1.0000129
1.0000168
1.0000168
1.0000168
1.0000168
1.0000168
1.0000168
1.0000168
1.0000168
1.0000168
1.0000168
1.0000168
1.0000168
1.0000169
1.0000169
1.0000169
1.0000169
1.0000168
1.0000168
1.0000169
1.0000169
1.0000169
1.0000168
1.0000168
1.0000168
1.0000168
1.0000168
1.0000168
1.0000168
1.0000168
1.0000168
1.0000168
1.0000168
1.0000168
1.0000168
1.0000168
1.0000168
1.0000168
1.0000168
1.0000168
1.0000168
1.0000168
1.0000168
1.0000168
1.0000169
1.0000169
1.0000169
1.0000169
1.0000169
1.0000169
1.0000169
1.0000169
1.0000169
1.0000169
1.0000168
1.0000166
1.0000162
1.0000153
1.0000137
1.0000117
1.0000153
1.0000153
1.0000153
1.0000153
1.0000153
1.0000153
1.0000153
1.0000153
1.0000153
1.0000153
1.0000153
1.0000153
1.0000153
1.0000153
1.0000153
1.0000153
1.0000153
1.0000153
1.0000153
1.0000153
1.0000153
1.0000153
1.0000153
1.0000152
1.0000152
1.0000152
1.0000152
1.0000152
1.0000152
1.0000152
1.0000152
1.0000152
1.0000152
1.0000152
1.0000152
1.0000152
1.0000152
1.0000152
1.0000152
1.0000152
1.0000152
1.0000152
1.0000153
1.0000153
1.0000153
1.0000153
1.0000153
1.0000153
1.0000153
1.0000153
1.0000153
1.0000153
1.0000153
1.0000153
1.0000151
1.0000147
1.000014
1.0000125
1.0000107
1.0000138
1.0000138
1.0000138
1.0000138
1.0000138
1.0000138
1.0000138
1.0000138
1.0000138
1.0000138
1.0000138
1.0000138
1.0000138
1.0000138
1.0000138
1.0000138
1.0000138
1.0000138
1.0000138
1.0000138
1.0000138
1.0000138
1.0000138
1.0000138
1.0000138
1.0000138
1.0000138
1.0000138
1.0000138
1.0000138
1.0000138
1.0000138
1.0000138
1.0000138
1.0000138
1.0000138
1.0000138
1.0000137
1.0000137
1.0000138
1.0000138
1.0000138
1.0000138
1.0000138
1.0000138
1.0000138
1.0000138
1.0000138
1.0000138
1.0000139
1.0000139
1.0000139
1.0000139
1.0000138
1.0000137
1.0000134
1.0000127
1.0000114
1.0000097
1.0000125
1.0000125
1.0000125
1.0000125
1.0000125
1.0000125
1.0000125
1.0000125
1.0000125
1.0000125
1.0000125
1.0000125
1.0000125
1.0000125
1.0000125
1.0000125
1.0000125
1.0000125
1.0000125
1.0000125
1.0000125
1.0000125
1.0000125
1.0000125
1.0000125
1.0000125
1.0000125
1.0000125
1.0000125
1.0000125
1.0000125
1.0000125
1.0000125
1.0000125
1.0000125
1.0000125
1.0000124
1.0000124
1.0000124
1.0000124
1.0000125
1.0000125
1.0000125
1.0000125
1.0000125
1.0000125
1.0000125
1.0000125
1.0000125
1.0000125
1.0000126
1.0000126
1.0000126
1.0000125
1.0000124
1.0000122
1.0000116
1.0000104
1.0000088
1.0000113
1.0000113
1.0000113
1.0000113
1.0000113
1.0000113
1.0000113
1.0000113
1.0000113
1.0000113
1.0000113
1.0000113
1.0000113
1.0000113
1.0000113
1.0000113
1.0000113
1.0000113
1.0000113
1.0000113
1.0000113
1.0000113
1.0000113
1.0000113
1.0000113
1.0000113
1.0000113
1.0000113
1.0000113
1.0000113
1.0000113
1.0000113
1.0000113
1.0000113
1.0000113
1.0000113
1.0000112
1.0000112
1.0000112
1.0000112
1.0000113
1.0000113
1.0000113
1.0000113
1.0000113
1.0000113
1.0000113
1.0000113
1.0000113
1.0000113
1.0000113
1.0000114
1.0000114
1.0000114
1.0000113
1.0000111
1.0000106
1.0000095
1.000008
1.0000103
1.0000103
1.0000103
1.0000103
1.0000103
1.0000103
1.0000102
1.0000102
1.0000102
1.0000102
1.0000102
1.0000102
1.0000103
1.0000103
1.0000103
1.0000102
1.0000102
1.0000102
1.0000102
1.0000102
1.0000102
1.0000102
1.0000102
1.0000102
1.0000102
1.0000102
1.0000102
1.0000102
1.0000102
1.0000102
1.0000102
1.0000102
1.0000102
1.0000102
1.0000102
1.0000102
1.0000102
1.0000102
1.0000101
1.0000102
1.0000102
1.0000102
1.0000102
1.0000102
1.0000102
1.0000102
1.0000102
1.0000102
1.0000102
1.0000102
1.0000103
1.0000103
1.0000103
1.0000103
1.0000102
1.0000101
1.0000096
1.0000087
1.0000073
1.0000093
1.0000093
1.0000093
1.0000093
1.0000093
1.0000093
1.0000093
1.0000093
1.0000093
1.0000093
1.0000093
1.0000093
1.0000093
1.0000093
1.0000093
1.0000093
1.0000093
1.0000093
1.0000093
1.0000093
1.0000093
1.0000092
1.0000092
1.0000092
1.0000092
1.0000092
1.0000092
1.0000092
1.0000092
1.0000092
1.0000092
1.0000092
1.0000092
1.0000092
1.0000092
1.0000092
1.0000092
1.0000092
1.0000092
1.0000092
1.0000092
1.0000092
1.0000092
1.0000093
1.0000093
1.0000093
1.0000093
1.0000093
1.0000093
1.0000093
1.0000093
1.0000093
1.0000093
1.0000093
1.0000093
1.0000092
1.0000088
1.000008
1.0000067
1.0000242
1.0000267
1.0000295
1.0000326
1.0000359
1.0000394
1.0000432
1.0000473
1.0000516
1.0000562
1.0000611
1.0000662
1.0000715
1.0000771
1.0000828
1.0000887
1.0000946
1.0001006
1.0001064
1.000112
1.0001172
1.0001219
1.0001258
1.0001288
1.0001308
1.0001313
1.0001304
1.0001279
1.0001235
1.0001171
1.0001088
1.0000998
1.0000871
1.0000731
1.0000588
1.000042
1.0000244
1.0000068
0.99998832
0.99996909
0.99994946
0.99992977
0.99991007
0.99989059
0.99987155
0.99985322
0.99983571
0.99981903
0.99980313
0.99978795
0.99977325
0.99975923
0.99974599
0.99973357
0.99972191
0.99971092
0.9997006
0.99969093
0.99968188
0.9996734
0.9996655
0.99965816
0.99965136
0.99964504
0.99963918
0.99963375
0.99962871
0.99962404
0.99961971
0.9996157
0.999612
0.99960858
0.99960543
0.99960252
1.0000283
1.0000311
1.0000342
1.0000376
1.0000412
1.0000451
1.0000493
1.0000538
1.0000586
1.0000637
1.0000691
1.0000748
1.0000807
1.0000868
1.0000931
1.0000995
1.0001059
1.0001122
1.0001184
1.0001242
1.0001295
1.0001341
1.0001377
1.0001403
1.0001414
1.0001409
1.0001386
1.0001343
1.0001278
1.0001191
1.000108
1.0000951
1.0000799
1.0000625
1.0000436
1.0000229
1.000001
0.9999783
0.99995516
0.9999318
0.99990836
0.99988503
0.99986196
0.99983953
0.9998175
0.99979782
0.99977824
0.99975873
0.99973999
0.99972217
0.9997053
0.99968934
0.99967436
0.99966014
0.99964677
0.99963423
0.99962253
0.99961164
0.99960149
0.99959207
0.99958334
0.99957527
0.9995678
0.99956087
0.99955445
0.9995485
0.99954299
0.99953788
0.99953315
0.99952876
0.9995247
0.99952096
0.9995175
0.99951433
1.0000314
1.0000346
1.000038
1.0000418
1.0000458
1.0000501
1.0000548
1.0000598
1.0000651
1.0000708
1.0000767
1.0000831
1.0000896
1.0000965
1.0001035
1.0001106
1.0001178
1.0001249
1.0001317
1.0001381
1.000144
1.000149
1.0001529
1.0001556
1.0001566
1.0001557
1.0001527
1.0001475
1.0001396
1.0001292
1.0001161
1.0001003
1.0000821
1.0000616
1.000039
1.0000146
0.9999887
0.99996161
0.99993376
0.99990554
0.99987722
0.99984907
0.99982129
0.99979415
0.99976767
0.99974204
0.99971742
0.99969393
0.99967159
0.99965036
0.99963025
0.99961125
0.99959324
0.99957536
0.99955919
0.9995448
0.99953143
0.99951887
0.99950732
0.99949674
0.9994868
0.99947746
0.99946872
0.99946053
0.99945289
0.99944577
0.99943913
0.99943288
0.99942707
0.9994217
0.99941673
0.99941217
0.99940795
0.99940406
1.0000333
1.0000367
1.0000404
1.0000444
1.0000488
1.0000535
1.0000585
1.000064
1.0000698
1.0000759
1.0000825
1.0000893
1.0000966
1.0001041
1.0001118
1.0001197
1.0001276
1.0001354
1.0001431
1.0001503
1.0001569
1.0001626
1.0001672
1.0001704
1.0001718
1.0001712
1.0001684
1.000163
1.0001548
1.0001438
1.0001299
1.0001129
1.0000932
1.0000708
1.0000461
1.0000194
0.99999095
0.99996107
0.99993019
0.99989872
0.999867
0.99983532
0.99980399
0.99977327
0.99974334
0.99971422
0.99968605
0.99965904
0.99963326
0.99960873
0.99958546
0.99956343
0.99954267
0.99952315
0.99950481
0.99948758
0.99947145
0.99945637
0.99944229
0.99942913
0.99941689
0.99940551
0.99939494
0.99938512
0.99937601
0.99936755
0.99935969
0.99935241
0.99934566
0.99933938
0.99933359
0.99932806
0.99932287
0.99931824
1.0000343
1.0000379
1.0000418
1.0000461
1.0000507
1.0000556
1.000061
1.0000667
1.0000729
1.0000794
1.0000864
1.0000938
1.0001015
1.0001095
1.0001178
1.0001263
1.0001349
1.0001435
1.0001518
1.0001598
1.0001671
1.0001736
1.000179
1.0001829
1.000185
1.000185
1.0001827
1.0001778
1.0001699
1.0001591
1.0001451
1.000128
1.000108
1.0000851
1.0000597
1.0000321
1.0000026
0.99997144
0.99993918
0.9999062
0.99987283
0.9998394
0.99980623
0.99977361
0.99974174
0.99971066
0.99968053
0.99965155
0.99962381
0.99959734
0.99957216
0.99954828
0.99952572
0.99950449
0.99948454
0.99946578
0.99944817
0.99943167
0.99941622
0.99940177
0.99938828
0.99937573
0.99936405
0.99935318
0.99934313
0.9993336
0.99932465
0.99931636
0.99930872
0.99930169
0.99929522
0.99928929
0.9992838
0.99927879
1.0000349
1.0000386
1.0000426
1.000047
1.0000518
1.000057
1.0000625
1.0000685
1.0000749
1.0000818
1.0000891
1.0000968
1.0001049
1.0001133
1.0001221
1.0001311
1.0001402
1.0001493
1.0001582
1.0001668
1.0001749
1.000182
1.0001881
1.0001927
1.0001955
1.0001962
1.0001946
1.0001903
1.000183
1.0001726
1.0001591
1.0001424
1.0001226
1.0000999
1.0000746
1.0000469
1.0000173
0.99998598
0.99995343
0.99992006
0.99988624
0.99985229
0.99981854
0.99978529
0.99975272
0.99972094
0.99969008
0.99966036
0.99963186
0.99960462
0.99957869
0.99955406
0.99953075
0.99950879
0.99948812
0.99946867
0.99945039
0.99943325
0.9994172
0.99940218
0.99938815
0.99937507
0.9993629
0.99935157
0.99934105
0.99933126
0.99932218
0.99931375
0.99930594
0.99929869
0.99929197
0.99928576
0.99928003
0.99927473
1.0000352
1.0000389
1.0000431
1.0000476
1.0000525
1.0000578
1.0000635
1.0000697
1.0000763
1.0000833
1.0000908
1.0000988
1.0001072
1.0001159
1.0001251
1.0001344
1.0001439
1.0001535
1.0001629
1.000172
1.0001806
1.0001883
1.0001949
1.0002001
1.0002036
1.0002049
1.0002038
1.0002001
1.0001935
1.0001837
1.0001707
1.0001545
1.0001352
1.0001129
1.0000879
1.0000606
1.0000312
1.0000002
0.99996778
0.99993456
0.99990084
0.99986695
0.99983322
0.99979995
0.99976734
0.9997355
0.99970457
0.99967475
0.99964613
0.99961877
0.9995927
0.99956793
0.99954448
0.99952236
0.99950153
0.99948192
0.99946348
0.9994462
0.99943
0.99941485
0.99940069
0.99938748
0.99937519
0.99936374
0.99935309
0.9993432
0.99933402
0.99932549
0.99931759
0.99931026
0.99930348
0.9992972
0.99929139
0.99928601
1.0000353
1.0000391
1.0000434
1.0000479
1.0000529
1.0000583
1.0000641
1.0000704
1.0000771
1.0000843
1.000092
1.0001002
1.0001088
1.0001178
1.0001271
1.0001368
1.0001466
1.0001565
1.0001662
1.0001757
1.0001847
1.0001929
1.0001999
1.0002056
1.0002096
1.0002114
1.0002108
1.0002076
1.0002015
1.0001922
1.0001797
1.000164
1.0001451
1.0001233
1.0000987
1.0000717
1.0000427
1.000012
0.99997988
0.99994693
0.99991345
0.99987978
0.99984625
0.99981314
0.99978068
0.99974897
0.99971818
0.99968847
0.99965995
0.99963268
0.99960668
0.99958199
0.9995586
0.99953652
0.99951572
0.99949614
0.99947774
0.99946048
0.9994443
0.99942917
0.99941503
0.99940185
0.99938956
0.99937813
0.9993675
0.99935762
0.99934844
0.99933992
0.99933202
0.9993247
0.99931792
0.99931164
0.99930582
0.99930044
1.0000354
1.0000392
1.0000435
1.0000481
1.0000531
1.0000586
1.0000645
1.0000709
1.0000777
1.000085
1.0000928
1.0001011
1.0001098
1.000119
1.0001286
1.0001384
1.0001485
1.0001586
1.0001686
1.0001784
1.0001877
1.0001962
1.0002036
1.0002096
1.0002139
1.0002161
1.000216
1.0002132
1.0002075
1.0001986
1.0001865
1.0001711
1.0001526
1.0001311
1.0001069
1.0000802
1.0000515
1.000021
0.99998919
0.99995647
0.9999232
0.99988973
0.99985638
0.99982343
0.99979111
0.99975954
0.99972888
0.9996993
0.99967089
0.99964371
0.99961781
0.9995932
0.99956988
0.99954787
0.99952713
0.9995076
0.99948925
0.99947204
0.99945591
0.99944083
0.99942674
0.99941359
0.99940135
0.99938995
0.99937934
0.99936949
0.99936034
0.99935185
0.99934397
0.99933667
0.9993299
0.99932364
0.99931784
0.99931247
1.0000354
1.0000393
1.0000436
1.0000482
1.0000533
1.0000588
1.0000647
1.0000711
1.0000781
1.0000854
1.0000933
1.0001017
1.0001106
1.0001199
1.0001296
1.0001396
1.0001498
1.0001601
1.0001703
1.0001803
1.0001898
1.0001985
1.0002062
1.0002125
1.0002171
1.0002196
1.0002198
1.0002173
1.0002118
1.0002033
1.0001915
1.0001764
1.0001582
1.0001369
1.0001129
1.0000865
1.000058
1.0000277
0.99999604
0.99996348
0.99993036
0.99989702
0.99986379
0.99983094
0.99979871
0.99976722
0.99973665
0.99970714
0.9996788
0.99965169
0.99962584
0.99960128
0.99957801
0.99955604
0.99953532
0.99951583
0.99949751
0.99948032
0.99946423
0.99944917
0.9994351
0.99942198
0.99940976
0.99939838
0.99938779
0.99937795
0.99936882
0.99936034
0.99935247
0.99934518
0.99933843
0.99933217
0.99932638
0.99932102
1.0000354
1.0000393
1.0000436
1.0000483
1.0000534
1.0000589
1.0000649
1.0000713
1.0000783
1.0000857
1.0000937
1.0001021
1.0001111
1.0001205
1.0001302
1.0001404
1.0001507
1.0001611
1.0001715
1.0001817
1.0001913
1.0002002
1.0002081
1.0002146
1.0002194
1.0002223
1.0002227
1.0002203
1.000215
1.0002066
1.0001951
1.0001802
1.0001622
1.0001412
1.0001174
1.0000911
1.0000627
1.0000325
1.000001
0.99996856
0.99993553
0.99990227
0.9998691
0.99983631
0.99980412
0.99977268
0.99974215
0.99971268
0.99968437
0.99965728
0.99963146
0.99960692
0.99958367
0.99956171
0.999541
0.99952151
0.9995032
0.99948602
0.99946994
0.99945489
0.99944083
0.99942772
0.99941551
0.99940414
0.99939356
0.99938373
0.9993746
0.99936612
0.99935826
0.99935098
0.99934422
0.99933797
0.99933218
0.99932682
1.0000354
1.0000393
1.0000436
1.0000483
1.0000534
1.0000589
1.000065
1.0000714
1.0000784
1.0000859
1.0000939
1.0001024
1.0001114
1.0001209
1.0001307
1.0001409
1.0001513
1.0001619
1.0001724
1.0001826
1.0001924
1.0002014
1.0002095
1.0002161
1.0002211
1.0002238
1.0002246
1.0002225
1.0002174
1.0002092
1.0001978
1.0001831
1.0001652
1.0001443
1.0001206
1.0000945
1.0000662
1.0000361
1.0000047
0.99997229
0.99993931
0.9999061
0.99987297
0.9998402
0.99980802
0.99977659
0.99974608
0.99971662
0.99968831
0.99966123
0.99963541
0.99961088
0.99958763
0.99956566
0.99954495
0.99952545
0.99950713
0.99948995
0.99947386
0.99945881
0.99944476
0.99943165
0.99941943
0.99940805
0.99939747
0.99938764
0.99937851
0.99937003
0.99936217
0.99935488
0.99934813
0.99934187
0.99933608
0.99933072
1.0000354
1.0000393
1.0000436
1.0000483
1.0000534
1.000059
1.000065
1.0000715
1.0000785
1.000086
1.0000941
1.0001026
1.0001116
1.0001211
1.000131
1.0001413
1.0001518
1.0001624
1.000173
1.0001833
1.0001932
1.0002023
1.0002104
1.0002172
1.0002223
1.0002253
1.0002261
1.000224
1.0002191
1.0002111
1.0001998
1.0001852
1.0001675
1.0001467
1.0001232
1.0000971
1.0000689
1.0000389
1.0000075
0.99997518
0.99994224
0.99990905
0.99987593
0.99984317
0.99981099
0.99977956
0.99974904
0.99971958
0.99969127
0.99966418
0.99963835
0.99961381
0.99959054
0.99956856
0.99954783
0.99952832
0.99950999
0.9994928
0.9994767
0.99946164
0.99944758
0.99943446
0.99942224
0.99941086
0.99940027
0.99939043
0.9993813
0.99937282
0.99936495
0.99935765
0.9993509
0.99934463
0.99933884
0.99933347
1.0000354
1.0000393
1.0000436
1.0000483
1.0000534
1.000059
1.000065
1.0000715
1.0000786
1.0000861
1.0000942
1.0001027
1.0001118
1.0001213
1.0001313
1.0001415
1.0001521
1.0001627
1.0001734
1.0001837
1.0001937
1.0002029
1.0002111
1.000218
1.0002232
1.0002263
1.0002272
1.0002253
1.0002204
1.0002125
1.0002014
1.000187
1.0001693
1.0001487
1.0001252
1.0000993
1.0000711
1.0000412
1.0000099
0.99997758
0.99994466
0.9999115
0.99987839
0.99984562
0.99981343
0.99978199
0.99975147
0.99972199
0.99969367
0.99966656
0.99964071
0.99961615
0.99959286
0.99957086
0.99955011
0.99953058
0.99951223
0.99949502
0.9994789
0.99946383
0.99944976
0.99943663
0.9994244
0.999413
0.99940241
0.99939256
0.99938342
0.99937493
0.99936705
0.99935975
0.99935299
0.99934672
0.99934092
0.99933555
1.0000354
1.0000393
1.0000436
1.0000483
1.0000534
1.000059
1.000065
1.0000715
1.0000786
1.0000861
1.0000942
1.0001028
1.0001119
1.0001214
1.0001314
1.0001417
1.0001523
1.000163
1.0001736
1.0001841
1.0001941
1.0002033
1.0002116
1.0002186
1.0002238
1.000227
1.000228
1.0002262
1.0002215
1.0002137
1.0002027
1.0001884
1.000171
1.0001504
1.0001271
1.0001012
1.0000732
1.0000433
1.000012
0.99997978
0.9999469
0.99991375
0.99988065
0.99984788
0.99981567
0.99978422
0.99975368
0.99972418
0.99969584
0.99966871
0.99964283
0.99961824
0.99959493
0.9995729
0.99955212
0.99953257
0.9995142
0.99949696
0.99948083
0.99946574
0.99945165
0.9994385
0.99942625
0.99941485
0.99940424
0.99939438
0.99938522
0.99937672
0.99936884
0.99936153
0.99935475
0.99934848
0.99934267
0.99933729
1.0000354
1.0000393
1.0000436
1.0000483
1.0000534
1.000059
1.000065
1.0000715
1.0000786
1.0000861
1.0000942
1.0001028
1.0001119
1.0001215
1.0001315
1.0001418
1.0001524
1.0001631
1.0001738
1.0001843
1.0001943
1.0002036
1.000212
1.000219
1.0002243
1.0002277
1.0002286
1.000227
1.0002225
1.0002148
1.000204
1.0001898
1.0001725
1.0001521
1.0001289
1.0001031
1.0000752
1.0000454
1.0000142
0.99998204
0.99994919
0.99991606
0.99988297
0.9998502
0.99981798
0.99978651
0.99975595
0.99972643
0.99969806
0.9996709
0.99964499
0.99962037
0.99959703
0.99957497
0.99955416
0.99953457
0.99951617
0.99949891
0.99948275
0.99946764
0.99945353
0.99944036
0.99942809
0.99941667
0.99940605
0.99939617
0.999387
0.99937849
0.99937059
0.99936327
0.99935648
0.9993502
0.99934438
0.999339
1.0000354
1.0000393
1.0000436
1.0000483
1.0000534
1.000059
1.000065
1.0000715
1.0000786
1.0000861
1.0000942
1.0001028
1.0001119
1.0001215
1.0001315
1.0001418
1.0001525
1.0001632
1.0001739
1.0001844
1.0001945
1.0002038
1.0002122
1.0002193
1.0002247
1.0002281
1.0002292
1.0002278
1.0002234
1.0002159
1.0002052
1.0001912
1.0001741
1.0001539
1.0001308
1.0001052
1.0000774
1.0000478
1.0000167
0.99998455
0.99995176
0.99991866
0.99988558
0.9998528