/*--------------------------------*- C++ -*----------------------------------*\
| =========                 |                                                 |
| \\      /  F ield         | OpenFOAM: The Open Source CFD Toolbox           |
|  \\    /   O peration     | Version:  v2006                                 |
|   \\  /    A nd           | Website:  www.openfoam.com                      |
|    \\/     M anipulation  |                                                 |
\*---------------------------------------------------------------------------*/
FoamFile
{
    version     2.0;
    format      ascii;
    class       volScalarField;
    location    "8000";
    object      TMean;
}
// * * * * * * * * * * * * * * * * * * * * * * * * * * * * * * * * * * * * * //

dimensions      [0 0 0 1 0 0 0];


internalField   nonuniform List<scalar> 
55713
(
1.0000069
1.0000082
1.000009
1.0000093
1.0000094
1.0000094
1.0000094
1.0000094
1.0000094
1.0000094
1.0000094
1.0000094
1.0000094
1.0000094
1.0000094
1.0000094
1.0000094
1.0000094
1.0000094
1.0000094
1.0000094
1.0000094
1.0000094
1.0000094
1.0000094
1.0000094
1.0000094
1.0000094
1.0000093
1.0000094
1.0000094
1.0000094
1.0000094
1.0000094
1.0000094
1.0000094
1.0000094
1.0000094
1.0000094
1.0000094
1.0000094
1.0000094
1.0000094
1.0000094
1.0000094
1.0000094
1.0000094
1.0000094
1.0000094
1.0000094
1.0000094
1.0000094
1.0000094
1.0000094
1.0000094
1.0000094
1.0000094
1.0000094
1.0000094
1.0000065
1.0000078
1.0000085
1.0000088
1.0000088
1.0000088
1.0000088
1.0000088
1.0000088
1.0000088
1.0000088
1.0000088
1.0000088
1.0000088
1.0000088
1.0000088
1.0000088
1.0000088
1.0000088
1.0000088
1.0000088
1.0000088
1.0000088
1.0000088
1.0000088
1.0000088
1.0000087
1.0000087
1.0000087
1.0000087
1.0000087
1.0000088
1.0000088
1.0000088
1.0000088
1.0000088
1.0000088
1.0000088
1.0000088
1.0000088
1.0000088
1.0000088
1.0000088
1.0000088
1.0000088
1.0000088
1.0000088
1.0000088
1.0000088
1.0000088
1.0000088
1.0000088
1.0000088
1.0000088
1.0000088
1.0000088
1.0000088
1.0000088
1.0000088
1.0000063
1.0000074
1.000008
1.0000083
1.0000083
1.0000083
1.0000083
1.0000083
1.0000083
1.0000083
1.0000083
1.0000083
1.0000083
1.0000083
1.0000083
1.0000083
1.0000083
1.0000082
1.0000082
1.0000082
1.0000082
1.0000082
1.0000082
1.0000082
1.0000082
1.0000082
1.0000082
1.0000082
1.0000082
1.0000082
1.0000082
1.0000082
1.0000082
1.0000082
1.0000082
1.0000082
1.0000082
1.0000082
1.0000082
1.0000083
1.0000083
1.0000083
1.0000083
1.0000082
1.0000082
1.0000083
1.0000083
1.0000083
1.0000083
1.0000083
1.0000083
1.0000083
1.0000083
1.0000083
1.0000083
1.0000083
1.0000083
1.0000083
1.0000083
1.000006
1.0000071
1.0000077
1.0000078
1.0000078
1.0000078
1.0000078
1.0000078
1.0000078
1.0000078
1.0000078
1.0000078
1.0000078
1.0000078
1.0000078
1.0000078
1.0000078
1.0000078
1.0000078
1.0000078
1.0000078
1.0000078
1.0000078
1.0000078
1.0000078
1.0000078
1.0000077
1.0000077
1.0000077
1.0000077
1.0000077
1.0000078
1.0000078
1.0000078
1.0000078
1.0000078
1.0000078
1.0000078
1.0000078
1.0000078
1.0000078
1.0000078
1.0000078
1.0000078
1.0000078
1.0000078
1.0000078
1.0000078
1.0000078
1.0000078
1.0000078
1.0000078
1.0000078
1.0000078
1.0000078
1.0000078
1.0000078
1.0000078
1.0000078
1.0000058
1.0000069
1.0000073
1.0000074
1.0000074
1.0000074
1.0000074
1.0000074
1.0000074
1.0000074
1.0000074
1.0000074
1.0000074
1.0000074
1.0000074
1.0000074
1.0000074
1.0000074
1.0000074
1.0000074
1.0000074
1.0000074
1.0000074
1.0000074
1.0000074
1.0000073
1.0000073
1.0000073
1.0000073
1.0000073
1.0000073
1.0000073
1.0000074
1.0000074
1.0000074
1.0000074
1.0000074
1.0000074
1.0000074
1.0000074
1.0000074
1.0000074
1.0000074
1.0000074
1.0000074
1.0000074
1.0000074
1.0000074
1.0000074
1.0000074
1.0000074
1.0000074
1.0000074
1.0000074
1.0000074
1.0000074
1.0000074
1.0000074
1.0000074
1.0000057
1.0000066
1.000007
1.0000071
1.0000071
1.0000071
1.000007
1.000007
1.000007
1.0000071
1.0000071
1.000007
1.000007
1.000007
1.000007
1.000007
1.000007
1.000007
1.000007
1.000007
1.000007
1.000007
1.000007
1.000007
1.000007
1.000007
1.000007
1.000007
1.000007
1.000007
1.000007
1.000007
1.000007
1.000007
1.000007
1.000007
1.000007
1.000007
1.000007
1.000007
1.000007
1.0000071
1.000007
1.000007
1.000007
1.000007
1.0000071
1.0000071
1.0000071
1.0000071
1.0000071
1.0000071
1.0000071
1.0000071
1.0000071
1.0000071
1.0000071
1.0000071
1.0000071
1.0000055
1.0000064
1.0000068
1.0000068
1.0000068
1.0000068
1.0000067
1.0000067
1.0000067
1.0000068
1.0000068
1.0000067
1.0000067
1.0000067
1.0000067
1.0000067
1.0000067
1.0000067
1.0000067
1.0000067
1.0000067
1.0000067
1.0000067
1.0000067
1.0000067
1.0000067
1.0000067
1.0000067
1.0000067
1.0000067
1.0000067
1.0000067
1.0000067
1.0000067
1.0000067
1.0000067
1.0000067
1.0000067
1.0000067
1.0000067
1.0000067
1.0000067
1.0000067
1.0000067
1.0000067
1.0000067
1.0000067
1.0000068
1.0000068
1.0000068
1.0000068
1.0000068
1.0000068
1.0000068
1.0000068
1.0000068
1.0000068
1.0000068
1.0000068
1.0000054
1.0000063
1.0000065
1.0000065
1.0000065
1.0000065
1.0000065
1.0000065
1.0000065
1.0000065
1.0000065
1.0000065
1.0000065
1.0000065
1.0000065
1.0000065
1.0000064
1.0000064
1.0000064
1.0000065
1.0000065
1.0000064
1.0000064
1.0000064
1.0000064
1.0000064
1.0000064
1.0000064
1.0000064
1.0000064
1.0000064
1.0000064
1.0000064
1.0000064
1.0000065
1.0000065
1.0000065
1.0000065
1.0000064
1.0000065
1.0000065
1.0000065
1.0000065
1.0000065
1.0000065
1.0000065
1.0000065
1.0000065
1.0000065
1.0000065
1.0000065
1.0000065
1.0000065
1.0000065
1.0000065
1.0000065
1.0000065
1.0000065
1.0000065
1.0000054
1.0000062
1.0000064
1.0000063
1.0000063
1.0000063
1.0000063
1.0000063
1.0000063
1.0000063
1.0000063
1.0000063
1.0000063
1.0000063
1.0000063
1.0000063
1.0000063
1.0000063
1.0000063
1.0000063
1.0000063
1.0000063
1.0000062
1.0000062
1.0000062
1.0000062
1.0000062
1.0000062
1.0000062
1.0000062
1.0000062
1.0000062
1.0000062
1.0000062
1.0000063
1.0000063
1.0000063
1.0000063
1.0000063
1.0000063
1.0000063
1.0000063
1.0000063
1.0000063
1.0000063
1.0000063
1.0000063
1.0000063
1.0000063
1.0000063
1.0000063
1.0000063
1.0000063
1.0000063
1.0000063
1.0000064
1.0000063
1.0000063
1.0000063
1.0000054
1.0000061
1.0000062
1.0000062
1.0000061
1.0000061
1.0000061
1.0000062
1.0000062
1.0000061
1.0000061
1.0000061
1.0000061
1.0000061
1.0000061
1.0000061
1.0000061
1.0000061
1.0000061
1.0000061
1.0000061
1.0000061
1.0000061
1.0000061
1.0000061
1.0000061
1.0000061
1.0000061
1.0000061
1.0000061
1.0000061
1.0000061
1.0000061
1.0000061
1.0000061
1.0000061
1.0000061
1.0000061
1.0000061
1.0000061
1.0000061
1.0000061
1.0000061
1.0000061
1.0000061
1.0000061
1.0000061
1.0000061
1.0000061
1.0000061
1.0000061
1.0000061
1.0000061
1.0000061
1.0000061
1.0000062
1.0000062
1.0000062
1.0000062
1.0000052
1.0000059
1.0000059
1.0000059
1.0000058
1.0000058
1.0000058
1.0000059
1.0000058
1.0000058
1.0000058
1.0000058
1.0000058
1.0000058
1.0000058
1.0000057
1.0000057
1.0000058
1.0000058
1.0000058
1.0000058
1.0000057
1.0000057
1.0000057
1.0000057
1.0000057
1.0000057
1.0000057
1.0000057
1.0000057
1.0000057
1.0000057
1.0000057
1.0000057
1.0000057
1.0000058
1.0000058
1.0000058
1.0000058
1.0000057
1.0000057
1.0000058
1.0000058
1.0000058
1.0000058
1.0000057
1.0000058
1.0000058
1.0000058
1.0000058
1.0000058
1.0000058
1.0000058
1.0000058
1.0000058
1.0000058
1.0000059
1.0000058
1.0000058
1.0000052
1.000006
1.0000057
1.0000059
1.0000058
1.0000056
1.0000058
1.0000058
1.0000057
1.0000056
1.0000056
1.0000057
1.0000057
1.0000056
1.0000056
1.0000056
1.0000056
1.0000056
1.0000056
1.0000056
1.0000056
1.0000056
1.0000055
1.0000055
1.0000055
1.0000055
1.0000055
1.0000055
1.0000055
1.0000055
1.0000055
1.0000055
1.0000055
1.0000055
1.0000055
1.0000056
1.0000056
1.0000056
1.0000056
1.0000056
1.0000056
1.0000055
1.0000056
1.0000056
1.0000056
1.0000056
1.0000056
1.0000056
1.0000056
1.0000056
1.0000056
1.0000057
1.0000055
1.0000057
1.0000057
1.0000057
1.000006
1.0000056
1.0000056
1.0000067
1.0000072
1.0000068
1.0000071
1.0000068
1.0000068
1.0000071
1.0000069
1.0000068
1.0000069
1.0000069
1.000007
1.0000069
1.0000069
1.0000069
1.0000069
1.0000069
1.0000069
1.000007
1.000007
1.0000069
1.0000069
1.0000069
1.0000069
1.0000069
1.0000069
1.0000069
1.0000069
1.0000069
1.0000069
1.0000069
1.0000069
1.0000069
1.0000069
1.0000069
1.0000069
1.000007
1.000007
1.0000069
1.0000069
1.0000069
1.0000069
1.0000069
1.0000069
1.0000069
1.0000069
1.0000069
1.0000069
1.0000069
1.0000069
1.0000069
1.0000069
1.0000069
1.0000069
1.000007
1.0000068
1.0000072
1.0000069
1.0000069
1.0000054
1.0000042
1.0000048
1.0000043
1.0000049
1.000005
1.0000046
1.0000047
1.0000049
1.0000048
1.0000048
1.0000045
1.0000045
1.0000045
1.0000045
1.0000045
1.0000044
1.0000043
1.0000042
1.0000042
1.0000042
1.0000041
1.0000041
1.0000041
1.0000041
1.0000041
1.0000041
1.0000041
1.0000041
1.0000041
1.0000041
1.0000041
1.0000041
1.0000041
1.0000041
1.0000041
1.0000042
1.0000042
1.0000044
1.0000045
1.0000046
1.0000047
1.0000048
1.0000049
1.000005
1.0000051
1.000005
1.0000049
1.0000049
1.0000049
1.000005
1.000005
1.0000052
1.0000049
1.0000049
1.0000049
1.0000043
1.0000052
1.0000052
1.0000354
1.0000354
1.0000354
1.0000355
1.0000355
1.0000355
1.0000355
1.0000355
1.0000355
1.0000355
1.0000356
1.0000356
1.0000356
1.0000356
1.0000356
1.0000356
1.0000356
1.0000356
1.0000356
1.0000357
1.0000357
1.0000357
1.0000357
1.0000357
1.0000357
1.0000357
1.0000357
1.0000357
1.0000357
1.0000357
1.0000357
1.0000357
1.0000357
1.0000357
1.0000357
1.0000357
1.0000358
1.0000358
1.0000358
1.0000358
1.0000358
1.0000358
1.0000358
1.0000358
1.0000358
1.0000358
1.0000358
1.0000358
1.0000358
1.0000358
1.0000358
1.0000358
1.0000356
1.0000354
1.0000348
1.0000338
1.000032
1.0000289
1.0000247
1.0000325
1.0000325
1.0000325
1.0000325
1.0000325
1.0000326
1.0000326
1.0000326
1.0000326
1.0000326
1.0000326
1.0000326
1.0000326
1.0000327
1.0000327
1.0000327
1.0000327
1.0000327
1.0000327
1.0000327
1.0000327
1.0000327
1.0000327
1.0000327
1.0000327
1.0000327
1.0000327
1.0000327
1.0000327
1.0000327
1.0000327
1.0000327
1.0000327
1.0000328
1.0000328
1.0000328
1.0000328
1.0000328
1.0000328
1.0000328
1.0000328
1.0000328
1.0000328
1.0000328
1.0000328
1.0000328
1.0000328
1.0000328
1.0000328
1.0000328
1.0000328
1.0000328
1.0000327
1.0000324
1.0000319
1.000031
1.0000293
1.0000264
1.0000226
1.0000297
1.0000297
1.0000298
1.0000298
1.0000298
1.0000298
1.0000298
1.0000298
1.0000298
1.0000298
1.0000298
1.0000298
1.0000299
1.0000299
1.0000299
1.0000299
1.0000299
1.0000299
1.0000299
1.0000299
1.0000299
1.0000299
1.0000299
1.0000299
1.0000299
1.0000299
1.0000299
1.0000299
1.0000299
1.0000299
1.0000299
1.0000299
1.0000299
1.0000299
1.00003
1.00003
1.00003
1.00003
1.00003
1.00003
1.00003
1.00003
1.00003
1.00003
1.00003
1.00003
1.00003
1.00003
1.00003
1.00003
1.00003
1.00003
1.0000299
1.0000297
1.0000292
1.0000284
1.0000268
1.0000242
1.0000207
1.0000272
1.0000272
1.0000272
1.0000272
1.0000272
1.0000272
1.0000272
1.0000272
1.0000272
1.0000272
1.0000273
1.0000273
1.0000273
1.0000273
1.0000273
1.0000273
1.0000273
1.0000273
1.0000273
1.0000273
1.0000273
1.0000273
1.0000273
1.0000273
1.0000273
1.0000273
1.0000273
1.0000273
1.0000273
1.0000273
1.0000273
1.0000273
1.0000273
1.0000273
1.0000273
1.0000273
1.0000274
1.0000274
1.0000274
1.0000274
1.0000274
1.0000274
1.0000274
1.0000274
1.0000274
1.0000274
1.0000274
1.0000274
1.0000274
1.0000274
1.0000274
1.0000274
1.0000273
1.0000271
1.0000267
1.000026
1.0000245
1.0000221
1.0000189
1.0000248
1.0000248
1.0000248
1.0000248
1.0000248
1.0000248
1.0000248
1.0000248
1.0000248
1.0000248
1.0000248
1.0000249
1.0000249
1.0000249
1.0000249
1.0000249
1.0000249
1.0000249
1.0000249
1.0000249
1.0000249
1.0000249
1.0000249
1.0000249
1.0000249
1.0000249
1.0000249
1.0000249
1.0000249
1.0000249
1.0000249
1.0000249
1.0000249
1.0000249
1.0000249
1.0000249
1.0000249
1.0000249
1.0000249
1.000025
1.000025
1.000025
1.000025
1.000025
1.000025
1.000025
1.000025
1.000025
1.000025
1.000025
1.000025
1.000025
1.0000249
1.0000247
1.0000244
1.0000237
1.0000224
1.0000201
1.0000172
1.0000226
1.0000226
1.0000226
1.0000226
1.0000226
1.0000226
1.0000226
1.0000226
1.0000226
1.0000226
1.0000226
1.0000226
1.0000226
1.0000226
1.0000226
1.0000226
1.0000226
1.0000226
1.0000226
1.0000227
1.0000227
1.0000227
1.0000226
1.0000226
1.0000226
1.0000226
1.0000226
1.0000226
1.0000226
1.0000226
1.0000226
1.0000226
1.0000227
1.0000227
1.0000227
1.0000227
1.0000227
1.0000227
1.0000227
1.0000227
1.0000227
1.0000227
1.0000227
1.0000227
1.0000227
1.0000227
1.0000227
1.0000227
1.0000227
1.0000227
1.0000227
1.0000227
1.0000227
1.0000225
1.0000222
1.0000216
1.0000204
1.0000184
1.0000157
1.0000205
1.0000205
1.0000205
1.0000205
1.0000205
1.0000205
1.0000205
1.0000205
1.0000205
1.0000205
1.0000205
1.0000206
1.0000206
1.0000206
1.0000206
1.0000206
1.0000206
1.0000206
1.0000206
1.0000206
1.0000206
1.0000206
1.0000206
1.0000206
1.0000206
1.0000206
1.0000206
1.0000206
1.0000206
1.0000206
1.0000206
1.0000206
1.0000206
1.0000206
1.0000206
1.0000206
1.0000206
1.0000206
1.0000206
1.0000206
1.0000206
1.0000206
1.0000206
1.0000206
1.0000206
1.0000206
1.0000206
1.0000206
1.0000206
1.0000206
1.0000206
1.0000206
1.0000206
1.0000205
1.0000202
1.0000197
1.0000186
1.0000167
1.0000143
1.0000186
1.0000186
1.0000186
1.0000186
1.0000186
1.0000186
1.0000186
1.0000186
1.0000186
1.0000186
1.0000186
1.0000186
1.0000187
1.0000187
1.0000187
1.0000187
1.0000187
1.0000187
1.0000187
1.0000187
1.0000187
1.0000187
1.0000187
1.0000187
1.0000187
1.0000187
1.0000187
1.0000187
1.0000186
1.0000186
1.0000186
1.0000187
1.0000187
1.0000187
1.0000187
1.0000187
1.0000187
1.0000187
1.0000187
1.0000187
1.0000187
1.0000187
1.0000187
1.0000187
1.0000187
1.0000187
1.0000187
1.0000187
1.0000187
1.0000187
1.0000187
1.0000187
1.0000187
1.0000186
1.0000184
1.0000179
1.000017
1.0000152
1.000013
1.0000169
1.0000169
1.0000169
1.0000169
1.0000169
1.0000169
1.0000169
1.0000169
1.0000169
1.0000169
1.0000169
1.0000169
1.0000169
1.0000169
1.0000169
1.0000169
1.0000169
1.0000169
1.0000169
1.0000169
1.0000169
1.0000169
1.0000169
1.0000169
1.0000169
1.0000169
1.0000169
1.0000169
1.0000169
1.0000169
1.0000169
1.0000169
1.0000169
1.0000169
1.0000169
1.0000169
1.0000169
1.0000169
1.0000169
1.0000169
1.0000169
1.0000169
1.0000169
1.0000169
1.0000169
1.0000169
1.0000169
1.0000169
1.0000169
1.0000169
1.000017
1.000017
1.0000169
1.0000169
1.0000167
1.0000163
1.0000154
1.0000138
1.0000118
1.0000153
1.0000153
1.0000153
1.0000153
1.0000153
1.0000153
1.0000153
1.0000153
1.0000153
1.0000153
1.0000153
1.0000153
1.0000153
1.0000153
1.0000153
1.0000153
1.0000153
1.0000153
1.0000153
1.0000153
1.0000153
1.0000153
1.0000153
1.0000153
1.0000153
1.0000153
1.0000153
1.0000153
1.0000153
1.0000153
1.0000153
1.0000153
1.0000153
1.0000153
1.0000153
1.0000153
1.0000153
1.0000153
1.0000153
1.0000153
1.0000153
1.0000153
1.0000153
1.0000153
1.0000153
1.0000153
1.0000153
1.0000153
1.0000153
1.0000153
1.0000153
1.0000153
1.0000153
1.0000153
1.0000151
1.0000148
1.0000141
1.0000126
1.0000107
1.0000138
1.0000138
1.0000138
1.0000138
1.0000138
1.0000138
1.0000138
1.0000138
1.0000138
1.0000138
1.0000138
1.0000138
1.0000138
1.0000138
1.0000138
1.0000138
1.0000138
1.0000138
1.0000138
1.0000138
1.0000138
1.0000138
1.0000138
1.0000138
1.0000138
1.0000138
1.0000138
1.0000138
1.0000138
1.0000138
1.0000138
1.0000138
1.0000138
1.0000138
1.0000138
1.0000138
1.0000138
1.0000138
1.0000138
1.0000138
1.0000138
1.0000139
1.0000139
1.0000139
1.0000139
1.0000139
1.0000139
1.0000139
1.0000139
1.0000139
1.0000139
1.0000139
1.0000139
1.0000138
1.0000137
1.0000134
1.0000128
1.0000115
1.0000097
1.0000125
1.0000125
1.0000125
1.0000125
1.0000125
1.0000125
1.0000125
1.0000125
1.0000125
1.0000125
1.0000125
1.0000125
1.0000125
1.0000125
1.0000125
1.0000125
1.0000125
1.0000125
1.0000125
1.0000125
1.0000125
1.0000125
1.0000125
1.0000125
1.0000125
1.0000125
1.0000125
1.0000125
1.0000125
1.0000125
1.0000125
1.0000125
1.0000125
1.0000125
1.0000125
1.0000125
1.0000125
1.0000125
1.0000125
1.0000125
1.0000125
1.0000125
1.0000125
1.0000125
1.0000125
1.0000125
1.0000125
1.0000125
1.0000125
1.0000125
1.0000125
1.0000125
1.0000125
1.0000125
1.0000124
1.0000122
1.0000116
1.0000105
1.0000089
1.0000113
1.0000113
1.0000113
1.0000113
1.0000113
1.0000113
1.0000113
1.0000113
1.0000113
1.0000113
1.0000113
1.0000113
1.0000113
1.0000113
1.0000113
1.0000113
1.0000113
1.0000113
1.0000113
1.0000113
1.0000113
1.0000113
1.0000113
1.0000113
1.0000113
1.0000113
1.0000113
1.0000113
1.0000113
1.0000113
1.0000113
1.0000113
1.0000113
1.0000113
1.0000113
1.0000113
1.0000113
1.0000113
1.0000113
1.0000113
1.0000113
1.0000113
1.0000113
1.0000113
1.0000113
1.0000113
1.0000113
1.0000113
1.0000113
1.0000113
1.0000113
1.0000113
1.0000113
1.0000113
1.0000113
1.0000111
1.0000106
1.0000096
1.0000081
1.0000102
1.0000102
1.0000102
1.0000102
1.0000102
1.0000102
1.0000102
1.0000102
1.0000102
1.0000102
1.0000102
1.0000102
1.0000102
1.0000102
1.0000102
1.0000102
1.0000102
1.0000102
1.0000102
1.0000102
1.0000102
1.0000102
1.0000102
1.0000102
1.0000102
1.0000102
1.0000102
1.0000102
1.0000102
1.0000102
1.0000102
1.0000102
1.0000102
1.0000102
1.0000102
1.0000102
1.0000102
1.0000102
1.0000102
1.0000102
1.0000102
1.0000102
1.0000102
1.0000102
1.0000102
1.0000102
1.0000102
1.0000102
1.0000102
1.0000102
1.0000102
1.0000102
1.0000103
1.0000103
1.0000102
1.0000101
1.0000097
1.0000088
1.0000074
1.000027
1.0000299
1.000033
1.0000365
1.0000402
1.0000443
1.0000486
1.0000533
1.0000583
1.0000635
1.0000692
1.0000751
1.0000814
1.000088
1.0000949
1.000102
1.0001093
1.0001167
1.0001241
1.0001314
1.0001385
1.0001453
1.0001514
1.0001568
1.0001613
1.0001647
1.0001666
1.0001671
1.0001659
1.0001629
1.0001581
1.0001519
1.0001435
1.0001334
1.000122
1.0001093
1.0000954
1.0000808
1.0000656
1.0000499
1.0000338
1.0000175
1.0000013
0.99998507
0.99996914
0.99995359
0.99993857
0.99992414
0.99991034
0.99989719
0.99988455
0.99987245
0.99986097
0.99985017
0.99984003
0.99983051
0.99982159
0.99981323
0.99980542
0.99979812
0.99979129
0.99978493
0.999779
0.99977349
0.99976837
0.99976361
0.99975919
0.99975509
0.99975128
0.99974775
0.99974447
0.99974143
0.99973861
0.99973602
1.0000315
1.0000348
1.0000383
1.0000421
1.0000462
1.0000507
1.0000554
1.0000606
1.0000661
1.000072
1.0000782
1.0000848
1.0000918
1.000099
1.0001066
1.0001143
1.0001222
1.0001302
1.0001381
1.0001459
1.0001533
1.0001602
1.0001663
1.0001715
1.0001754
1.000178
1.0001789
1.000178
1.0001751
1.00017
1.0001629
1.0001537
1.0001424
1.0001293
1.0001144
1.000098
1.0000803
1.0000617
1.0000424
1.0000227
1.0000029
0.99998311
0.9999635
0.99994422
0.99992545
0.99990752
0.99989051
0.99987398
0.99985803
0.99984276
0.99982825
0.9998145
0.9998015
0.99978924
0.99977771
0.99976689
0.99975674
0.99974724
0.99973836
0.99973008
0.99972237
0.99971521
0.99970857
0.9997024
0.99969668
0.99969138
0.99968646
0.99968191
0.99967769
0.99967379
0.99967017
0.99966683
0.99966373
0.99966089
1.000035
1.0000386
1.0000425
1.0000467
1.0000512
1.0000562
1.0000615
1.0000672
1.0000733
1.0000799
1.0000868
1.0000942
1.0001019
1.00011
1.0001184
1.000127
1.0001359
1.0001447
1.0001535
1.0001621
1.0001703
1.0001778
1.0001845
1.00019
1.0001942
1.0001967
1.0001973
1.0001958
1.000192
1.0001857
1.0001769
1.0001656
1.0001519
1.0001359
1.000118
1.0000982
1.000077
1.0000546
1.0000313
1.0000075
0.99998349
0.99995945
0.99993565
0.99991227
0.99988945
0.99986732
0.99984597
0.99982552
0.999806
0.99978745
0.99976987
0.99975323
0.99973756
0.99972256
0.99970835
0.99969525
0.99968314
0.99967188
0.99966142
0.99965174
0.99964276
0.99963441
0.99962663
0.99961939
0.99961266
0.99960639
0.99960058
0.99959517
0.99959015
0.9995855
0.99958119
0.99957721
0.99957352
0.99957013
1.000037
1.0000409
1.0000451
1.0000496
1.0000546
1.0000599
1.0000657
1.0000719
1.0000785
1.0000856
1.0000932
1.0001012
1.0001097
1.0001185
1.0001277
1.0001372
1.0001469
1.0001568
1.0001665
1.000176
1.0001851
1.0001936
1.0002012
1.0002075
1.0002124
1.0002155
1.0002165
1.0002152
1.0002114
1.0002049
1.0001956
1.0001836
1.0001688
1.0001516
1.000132
1.0001104
1.0000871
1.0000623
1.0000365
1.00001
0.9999831
0.99995609
0.99992923
0.99990277
0.9998769
0.99985173
0.99982737
0.99980391
0.99978146
0.99976005
0.99973971
0.99972044
0.99970224
0.99968509
0.99966896
0.9996538
0.9996396
0.9996263
0.99961389
0.99960231
0.99959151
0.99958147
0.99957215
0.9995635
0.99955548
0.99954805
0.99954116
0.99953478
0.99952887
0.99952341
0.99951834
0.99951366
0.9995093
0.99950528
1.0000382
1.0000422
1.0000466
1.0000514
1.0000567
1.0000623
1.0000684
1.000075
1.000082
1.0000896
1.0000976
1.0001061
1.0001152
1.0001246
1.0001345
1.0001447
1.0001552
1.0001658
1.0001764
1.0001868
1.0001969
1.0002063
1.0002147
1.000222
1.0002278
1.0002317
1.0002335
1.0002329
1.0002296
1.0002236
1.0002146
1.0002028
1.000188
1.0001706
1.0001507
1.0001285
1.0001045
1.0000789
1.0000521
1.0000244
0.99999626
0.99996786
0.99993954
0.99991154
0.99988407
0.99985728
0.99983128
0.99980619
0.9997821
0.99975907
0.99973713
0.99971631
0.99969658
0.99967797
0.99966046
0.999644
0.99962855
0.99961407
0.99960053
0.99958787
0.99957605
0.99956504
0.99955479
0.99954525
0.9995364
0.99952816
0.99952046
0.99951329
0.99950664
0.9995005
0.99949482
0.9994896
0.99948477
0.99948036
1.0000388
1.000043
1.0000475
1.0000525
1.0000579
1.0000638
1.0000701
1.0000769
1.0000843
1.0000922
1.0001006
1.0001095
1.0001189
1.0001289
1.0001393
1.0001501
1.0001612
1.0001724
1.0001837
1.0001949
1.0002057
1.0002159
1.0002252
1.0002333
1.0002399
1.0002447
1.0002473
1.0002475
1.0002451
1.0002397
1.0002314
1.0002201
1.0002059
1.0001889
1.0001693
1.0001473
1.0001235
1.0000979
1.000071
1.0000432
1.0000149
0.99998618
0.9999575
0.9999291
0.99990118
0.9998739
0.99984738
0.99982174
0.99979709
0.99977349
0.99975097
0.99972957
0.99970927
0.9996901
0.99967203
0.99965503
0.99963905
0.99962407
0.99961004
0.99959692
0.99958466
0.99957323
0.99956258
0.99955267
0.99954346
0.9995349
0.99952696
0.99951959
0.99951277
0.99950644
0.99950059
0.99949517
0.99949016
0.99948554
1.0000391
1.0000434
1.0000481
1.0000532
1.0000587
1.0000647
1.0000712
1.0000782
1.0000858
1.0000939
1.0001025
1.0001118
1.0001215
1.0001318
1.0001426
1.0001538
1.0001654
1.0001771
1.000189
1.0002007
1.0002121
1.000223
1.000233
1.0002418
1.0002491
1.0002547
1.000258
1.000259
1.0002573
1.0002526
1.0002451
1.0002344
1.0002208
1.0002044
1.0001853
1.0001639
1.0001404
1.0001153
1.0000888
1.0000613
1.0000331
1.0000047
0.99997616
0.99994789
0.99992007
0.99989285
0.99986638
0.99984076
0.99981611
0.99979249
0.99976995
0.9997485
0.99972816
0.99970892
0.99969078
0.9996737
0.99965765
0.99964258
0.99962848
0.99961528
0.99960294
0.99959144
0.99958071
0.99957073
0.99956145
0.99955283
0.99954482
0.99953739
0.99953051
0.99952413
0.99951822
0.99951276
0.9995077
0.99950304
1.0000393
1.0000436
1.0000484
1.0000535
1.0000591
1.0000653
1.0000719
1.000079
1.0000867
1.000095
1.0001039
1.0001133
1.0001233
1.0001339
1.0001449
1.0001565
1.0001684
1.0001805
1.0001927
1.0002049
1.0002168
1.0002282
1.0002387
1.0002481
1.000256
1.0002621
1.0002661
1.0002677
1.0002666
1.0002626
1.0002556
1.0002455
1.0002325
1.0002166
1.000198
1.0001771
1.0001541
1.0001294
1.0001033
1.0000762
1.0000484
1.0000202
0.99999202
0.99996401
0.99993643
0.99990944
0.99988316
0.99985773
0.99983325
0.99980979
0.99978738
0.99976606
0.99974582
0.99972669
0.99970863
0.99969164
0.99967566
0.99966066
0.99964661
0.99963346
0.99962118
0.99960972
0.99959903
0.99958909
0.99957984
0.99957125
0.99956327
0.99955586
0.999549
0.99954264
0.99953675
0.99953131
0.99952626
0.99952162
1.0000394
1.0000437
1.0000485
1.0000537
1.0000594
1.0000656
1.0000723
1.0000795
1.0000874
1.0000958
1.0001047
1.0001143
1.0001245
1.0001353
1.0001466
1.0001583
1.0001705
1.0001829
1.0001954
1.0002079
1.0002202
1.0002319
1.0002428
1.0002526
1.000261
1.0002676
1.000272
1.0002741
1.0002735
1.0002699
1.0002634
1.0002539
1.0002413
1.0002258
1.0002077
1.0001872
1.0001645
1.0001402
1.0001144
1.0000875
1.00006
1.0000322
1.0000042
0.99997641
0.99994904
0.99992223
0.99989613
0.99987086
0.99984653
0.9998232
0.99980092
0.99977972
0.99975959
0.99974056
0.99972259
0.99970567
0.99968977
0.99967484
0.99966086
0.99964777
0.99963555
0.99962414
0.99961351
0.99960361
0.99959441
0.99958585
0.99957791
0.99957055
0.99956371
0.99955739
0.99955153
0.99954611
0.99954109
0.99953646
1.0000394
1.0000438
1.0000486
1.0000539
1.0000596
1.0000658
1.0000726
1.0000799
1.0000878
1.0000963
1.0001053
1.000115
1.0001254
1.0001362
1.0001477
1.0001596
1.000172
1.0001846
1.0001974
1.0002101
1.0002226
1.0002346
1.0002458
1.000256
1.0002646
1.0002716
1.0002764
1.0002788
1.0002785
1.0002754
1.0002692
1.00026
1.0002477
1.0002326
1.0002148
1.0001945
1.0001722
1.0001481
1.0001225
1.0000959
1.0000686
1.0000409
1.0000131
0.99998542
0.99995817
0.99993148
0.99990549
0.99988032
0.99985608
0.99983284
0.99981063
0.9997895
0.99976944
0.99975046
0.99973254
0.99971567
0.99969981
0.99968493
0.99967098
0.99965793
0.99964574
0.99963437
0.99962377
0.9996139
0.99960472
0.99959619
0.99958827
0.99958093
0.99957412
0.99956781
0.99956197
0.99955656
0.99955156
0.99954695
1.0000394
1.0000438
1.0000486
1.0000539
1.0000597
1.0000659
1.0000727
1.0000801
1.000088
1.0000966
1.0001057
1.0001155
1.0001259
1.0001369
1.0001485
1.0001605
1.000173
1.0001858
1.0001987
1.0002116
1.0002243
1.0002365
1.000248
1.0002583
1.0002673
1.0002745
1.0002795
1.0002822
1.0002822
1.0002793
1.0002735
1.0002645
1.0002525
1.0002376
1.00022
1.0001999
1.0001778
1.0001538
1.0001284
1.0001019
1.0000747
1.0000471
1.0000194
0.99999184
0.99996465
0.99993802
0.99991208
0.99988696
0.99986277
0.99983956
0.99981739
0.99979629
0.99977625
0.9997573
0.99973941
0.99972256
0.99970671
0.99969184
0.99967791
0.99966488
0.99965271
0.99964135
0.99963076
0.99962091
0.99961174
0.99960323
0.99959532
0.99958799
0.99958119
0.99957489
0.99956906
0.99956367
0.99955868
0.99955407
1.0000394
1.0000438
1.0000487
1.0000539
1.0000597
1.000066
1.0000728
1.0000802
1.0000882
1.0000968
1.000106
1.0001158
1.0001263
1.0001374
1.000149
1.0001612
1.0001737
1.0001866
1.0001997
1.0002127
1.0002256
1.0002379
1.0002495
1.0002601
1.0002692
1.0002765
1.0002818
1.0002847
1.0002849
1.0002822
1.0002766
1.0002678
1.000256
1.0002412
1.0002238
1.0002039
1.0001818
1.000158
1.0001327
1.0001063
1.0000792
1.0000516
1.000024
0.99999644
0.99996928
0.99994267
0.99991676
0.99989166
0.99986748
0.99984428
0.99982212
0.99980102
0.999781
0.99976205
0.99974416
0.99972731
0.99971147
0.9996966
0.99968267
0.99966965
0.99965747
0.99964612
0.99963554
0.99962569
0.99961652
0.99960801
0.99960011
0.99959278
0.99958599
0.99957969
0.99957386
0.99956847
0.99956349
0.99955889
1.0000394
1.0000438
1.0000487
1.000054
1.0000597
1.000066
1.0000729
1.0000803
1.0000883
1.0000969
1.0001062
1.0001161
1.0001266
1.0001377
1.0001494
1.0001616
1.0001742
1.0001872
1.0002004
1.0002135
1.0002264
1.0002389
1.0002506
1.0002613
1.0002705
1.0002781
1.0002835
1.0002865
1.0002869
1.0002844
1.0002788
1.0002702
1.0002586
1.000244
1.0002267
1.0002069
1.0001849
1.0001612
1.0001359
1.0001096
1.0000825
1.000055
1.0000274
0.99999987
0.99997272
0.99994612
0.9999202
0.9998951
0.99987092
0.99984772
0.99982556
0.99980445
0.99978442
0.99976546
0.99974757
0.99973071
0.99971486
0.99969999
0.99968605
0.99967302
0.99966085
0.99964949
0.9996389
0.99962905
0.99961989
0.99961138
0.99960348
0.99959615
0.99958935
0.99958306
0.99957723
0.99957184
0.99956685
0.99956225
1.0000394
1.0000438
1.0000486
1.000054
1.0000597
1.0000661
1.0000729
1.0000803
1.0000884
1.000097
1.0001063
1.0001162
1.0001267
1.0001379
1.0001496
1.0001619
1.0001746
1.0001876
1.0002008
1.000214
1.000227
1.0002396
1.0002514
1.0002622
1.0002715
1.0002792
1.0002847
1.0002879
1.0002884
1.000286
1.0002806
1.0002721
1.0002606
1.0002461
1.0002289
1.0002093
1.0001874
1.0001637
1.0001385
1.0001122
1.0000852
1.0000577
1.0000301
1.0000026
0.99997545
0.99994884
0.99992292
0.99989781
0.99987362
0.99985041
0.99982823
0.99980711
0.99978707
0.9997681
0.99975019
0.99973331
0.99971745
0.99970257
0.99968863
0.99967558
0.9996634
0.99965204
0.99964145
0.99963159
0.99962242
0.99961391
0.999606
0.99959867
0.99959187
0.99958557
0.99957974
0.99957435
0.99956936
0.99956476
1.0000394
1.0000438
1.0000486
1.000054
1.0000597
1.0000661
1.0000729
1.0000804
1.0000884
1.0000971
1.0001063
1.0001163
1.0001268
1.000138
1.0001498
1.0001621
1.0001748
1.0001879
1.0002011
1.0002144
1.0002275
1.0002401
1.0002519
1.0002628
1.0002722
1.00028
1.0002856
1.0002889
1.0002895
1.0002873
1.000282
1.0002737
1.0002623
1.000248
1.0002309
1.0002113
1.0001895
1.0001659
1.0001408
1.0001146
1.0000876
1.0000601
1.0000325
1.000005
0.99997785
0.99995123
0.9999253
0.99990018
0.99987597
0.99985274
0.99983054
0.99980941
0.99978934
0.99977035
0.99975242
0.99973553
0.99971966
0.99970476
0.9996908
0.99967775
0.99966555
0.99965418
0.99964358
0.99963371
0.99962453
0.99961601
0.9996081
0.99960076
0.99959395
0.99958765
0.99958182
0.99957642
0.99957143
0.99956682
1.0000394
1.0000438
1.0000486
1.0000539
1.0000597
1.0000661
1.0000729
1.0000804
1.0000884
1.0000971
1.0001064
1.0001163
1.0001269
1.0001381
1.0001499
1.0001622
1.0001749
1.000188
1.0002013
1.0002146
1.0002277
1.0002404
1.0002523
1.0002632
1.0002728
1.0002805
1.0002864
1.0002897
1.0002905
1.0002884
1.0002833
1.0002751
1.0002638
1.0002496
1.0002327
1.0002132
1.0001916
1.000168
1.000143
1.0001168
1.0000899
1.0000624
1.0000349
1.0000074
0.99998022
0.99995359
0.99992764
0.9999025
0.99987827
0.99985502
0.9998328
0.99981164
0.99979155
0.99977254
0.99975459
0.99973768
0.99972178
0.99970686
0.99969288
0.99967981
0.9996676
0.99965621
0.9996456
0.99963572
0.99962654
0.999618
0.99961008
0.99960273
0.99959592
0.99958961
0.99958378
0.99957837
0.99957338
0.99956877
1.0000394
1.0000438
1.0000486
1.0000539
1.0000597
1.0000661
1.0000729
1.0000804
1.0000884
1.0000971
1.0001064
1.0001163
1.0001269
1.0001381
1.0001499
1.0001622
1.000175
1.0001881
1.0002014
1.0002147
1.0002279
1.0002406
1.0002526
1.0002635
1.0002731
1.000281
1.0002869
1.0002904
1.0002913
1.0002894
1.0002844
1.0002764
1.0002654
1.0002513
1.0002346
1.0002153
1.0001937
1.0001703
1.0001454
1.0001193
1.0000924
1.000065
1.0000374
1.0000099
0.99998279
0.99995615
0.99993019
0.99990503
0.99988077
0.9998575
0.99983525