/*--------------------------------*- C++ -*----------------------------------*\
| =========                 |                                                 |
| \\      /  F ield         | OpenFOAM: The Open Source CFD Toolbox           |
|  \\    /   O peration     | Version:  v2006                                 |
|   \\  /    A nd           | Website:  www.openfoam.com                      |
|    \\/     M anipulation  |                                                 |
\*---------------------------------------------------------------------------*/
FoamFile
{
    version     2.0;
    format      ascii;
    class       volVectorField;
    location    "8000";
    object      U;
}
// * * * * * * * * * * * * * * * * * * * * * * * * * * * * * * * * * * * * * //

dimensions      [0 1 -1 0 0 0 0];


internalField   nonuniform List<vector> 
55713
(
(0.10323384 6.0423107e-07 0)
(0.10314014 -3.0638168e-07 0)
(0.10312298 8.1034514e-07 2.5656176e-18)
(0.10312067 6.3306877e-07 -2.5522597e-18)
(0.10312184 1.280886e-06 2.5704096e-18)
(0.10312307 1.299697e-06 -2.8260768e-29)
(0.10312368 1.775945e-06 -2.6460033e-18)
(0.10312372 1.8944067e-06 0)
(0.10312349 2.1740697e-06 1.0710517e-20)
(0.10312332 2.3897135e-06 0)
(0.10312338 2.6292149e-06 -1.1107657e-20)
(0.10312363 2.8633539e-06 -1.131219e-20)
(0.10312397 3.0893239e-06 0)
(0.10312438 3.3181414e-06 3.0031668e-18)
(0.10312491 3.5168317e-06 -3.0578355e-18)
(0.10312544 3.7018801e-06 -6.0802351e-21)
(0.10312579 3.8834968e-06 3.1750421e-18)
(0.10312578 4.0588833e-06 -3.2250995e-18)
(0.10312547 4.2355406e-06 6.4097238e-21)
(0.10312508 4.4181068e-06 -3.3388614e-18)
(0.1031249 4.5892154e-06 3.389667e-18)
(0.10312501 4.7472829e-06 0)
(0.10312532 4.9004063e-06 0)
(0.10312568 5.0501287e-06 -1.7921855e-18)
(0.10312597 5.2185569e-06 1.8144581e-18)
(0.10312617 5.40118e-06 0)
(0.1031263 5.5898167e-06 0)
(0.10312638 5.766936e-06 0)
(0.10312641 5.9399353e-06 2.4143828e-19)
(0.10312641 6.1071227e-06 -3.6518817e-29)
(0.10312635 6.2695021e-06 -2.4385717e-19)
(0.10312622 6.4294397e-06 0)
(0.103126 6.5822226e-06 0)
(0.10312565 6.7324713e-06 0)
(0.10312523 6.886039e-06 0)
(0.10312483 7.0545274e-06 1.803485e-18)
(0.10312461 7.2293344e-06 -1.7671337e-18)
(0.10312465 7.407792e-06 -3.4894987e-18)
(0.10312488 7.5968188e-06 2.0846189e-27)
(0.10312511 7.7875621e-06 3.3664851e-18)
(0.10312512 7.9672763e-06 0)
(0.10312485 8.1527187e-06 6.3633245e-21)
(0.10312443 8.3465059e-06 -3.2011029e-18)
(0.10312411 8.5384366e-06 3.1446283e-18)
(0.10312406 8.7409725e-06 3.0886492e-18)
(0.10312424 8.9447127e-06 -3.0391557e-18)
(0.10312444 9.1504254e-06 0)
(0.10312449 9.3571335e-06 0)
(0.10312438 9.5889687e-06 -2.8601356e-18)
(0.10312415 9.8092856e-06 2.8193316e-18)
(0.10312389 1.0063553e-05 0)
(0.10312366 1.0289471e-05 0)
(0.10312347 1.0578171e-05 0)
(0.10312324 1.0810396e-05 0)
(0.10312295 1.1141616e-05 2.5865348e-18)
(0.10312277 1.1390564e-05 -3.4231091e-27)
(0.10312295 1.1753444e-05 -3.7763191e-18)
(0.10312317 1.211484e-05 1.2270094e-18)
(0.10312299 1.2218225e-05 -1.9264305e-20)
(0.10323914 9.927812e-07 0)
(0.10315392 -2.4300965e-07 2.4224177e-18)
(0.1031407 9.4246004e-07 -2.5049582e-18)
(0.10313945 5.9584412e-07 3.9160451e-20)
(0.10314084 1.1580403e-06 -2.5374352e-18)
(0.10314197 1.0843655e-06 5.1417862e-18)
(0.10314242 1.4575124e-06 4.0001309e-27)
(0.10314232 1.5327584e-06 -2.6837132e-18)
(0.10314202 1.8128993e-06 -1.0692917e-20)
(0.10314187 2.0200323e-06 2.1809655e-20)
(0.10314201 2.2870522e-06 -2.8353049e-18)
(0.10314233 2.5658941e-06 2.913082e-18)
(0.10314271 2.8207037e-06 2.9575568e-18)
(0.10314318 3.0316898e-06 3.4109965e-28)
(0.10314373 3.2284683e-06 9.327751e-28)
(0.10314423 3.3963147e-06 -3.1212681e-18)
(0.10314447 3.5428736e-06 -6.2200565e-21)
(0.10314431 3.6789437e-06 0)
(0.10314386 3.7724172e-06 3.2937357e-18)
(0.10314343 3.8654915e-06 -6.7167623e-18)
(0.10314328 3.9556192e-06 3.4235321e-18)
(0.10314347 4.065281e-06 1.357656e-20)
(0.10314383 4.1927193e-06 0)
(0.10314421 4.3540519e-06 7.0191676e-21)
(0.10314451 4.6001251e-06 0)
(0.1031447 4.824975e-06 9.1367895e-19)
(0.10314482 5.001843e-06 -1.8861431e-18)
(0.10314489 5.1805883e-06 9.4297626e-19)
(0.10314491 5.3597367e-06 2.4319105e-19)
(0.1031449 5.5112967e-06 -2.6150234e-19)
(0.10314485 5.6205619e-06 0)
(0.10314473 5.7067315e-06 9.5129173e-19)
(0.10314451 5.7881822e-06 -1.9028514e-18)
(0.10314417 5.8783965e-06 9.3643515e-19)
(0.10314373 5.9812488e-06 0)
(0.10314329 6.1028621e-06 1.8129629e-18)
(0.10314301 6.2500311e-06 -1.7900718e-18)
(0.10314301 6.4366778e-06 1.3698011e-20)
(0.10314325 6.6756995e-06 0)
(0.10314355 6.9183814e-06 6.6178793e-21)
(0.10314363 7.1002622e-06 3.3295702e-18)
(0.1031434 7.2621924e-06 -6.548523e-18)
(0.10314297 7.4314126e-06 -9.3065367e-28)
(0.10314261 7.5742834e-06 3.1549114e-18)
(0.10314256 7.7396724e-06 -3.0972744e-18)
(0.10314279 7.9038777e-06 6.0858562e-18)
(0.10314305 8.0523554e-06 -5.9660211e-18)
(0.10314309 8.1834574e-06 2.9264806e-18)
(0.10314291 8.3859434e-06 -1.1212657e-20)
(0.1031426 8.567737e-06 0)
(0.10314228 8.8253223e-06 0)
(0.103142 9.0092462e-06 0)
(0.10314179 9.3174236e-06 -2.6743362e-18)
(0.10314158 9.4994105e-06 2.6225503e-18)
(0.10314125 9.8535342e-06 0)
(0.10314098 1.0048403e-05 3.9143598e-20)
(0.10314113 1.0436148e-05 0)
(0.10314139 1.064077e-05 1.8904876e-20)
(0.10314118 1.0985735e-05 1.8546709e-20)
(0.1032437 1.1380201e-06 0)
(0.1031675 -2.4769862e-07 3.7321457e-20)
(0.10315625 8.918466e-07 -3.7934771e-20)
(0.10315593 5.3437006e-07 -3.8471663e-20)
(0.10315746 1.0344021e-06 -2.5448971e-18)
(0.10315847 1.0190082e-06 2.5789444e-18)
(0.10315876 1.36815e-06 0)
(0.10315853 1.4252894e-06 2.0894449e-20)
(0.10315816 1.646531e-06 -5.465577e-18)
(0.10315805 1.7583962e-06 5.5383759e-18)
(0.10315829 1.9215595e-06 0)
(0.10315868 2.0728899e-06 -2.2714534e-20)
(0.10315913 2.2454287e-06 0)
(0.10315967 2.4450607e-06 3.0006278e-18)
(0.10316025 2.6819357e-06 -6.1655578e-18)
(0.1031607 2.9221023e-06 3.1414022e-18)
(0.10316081 3.160711e-06 -3.1876499e-18)
(0.10316049 3.3582074e-06 -4.386341e-28)
(0.10315991 3.5166403e-06 3.3181077e-18)
(0.10315946 3.6324388e-06 -3.3773469e-18)
(0.10315938 3.6935072e-06 -4.5721966e-27)
(0.10315965 3.7359626e-06 3.4964118e-18)
(0.10316008 3.7592987e-06 0)
(0.10316047 3.7983615e-06 1.7940224e-18)
(0.10316076 3.8876306e-06 2.2150749e-27)
(0.10316095 4.0174848e-06 -1.8392387e-18)
(0.10316106 4.2083976e-06 -1.4833095e-20)
(0.10316111 4.4574803e-06 4.9727472e-19)
(0.10316114 4.6837342e-06 -4.8973058e-19)
(0.10316113 4.854368e-06 2.4769522e-19)
(0.10316108 4.9951995e-06 -2.4673892e-19)
(0.10316096 5.1090968e-06 3.0369404e-20)
(0.10316076 5.1749196e-06 0)
(0.10316042 5.220463e-06 1.4709938e-20)
(0.10315997 5.2541938e-06 -1.4472584e-20)
(0.10315949 5.2675008e-06 -1.4235637e-20)
(0.10315914 5.3534055e-06 -1.3999268e-20)
(0.10315908 5.5347201e-06 -1.3763603e-20)
(0.10315933 5.7680834e-06 3.4498008e-18)
(0.10315971 5.9938893e-06 -3.4033692e-18)
(0.10315991 6.1828183e-06 0)
(0.10315975 6.3364388e-06 3.2839903e-18)
(0.10315932 6.4848022e-06 -3.2119392e-18)
(0.10315892 6.6142043e-06 3.1899277e-18)
(0.10315884 6.7509933e-06 -3.1059573e-18)
(0.10315912 6.8171793e-06 -3.022987e-18)
(0.10315944 6.9412951e-06 -2.9257578e-27)
(0.10315948 7.0332315e-06 2.9057929e-18)
(0.10315923 7.1953209e-06 2.2419709e-20)
(0.10315883 7.3491829e-06 0)
(0.10315844 7.6396624e-06 0)
(0.10315812 7.7673172e-06 0)
(0.10315789 8.0905663e-06 2.058765e-20)
(0.10315769 8.1989792e-06 -2.0134249e-20)
(0.10315736 8.5561695e-06 0)
(0.10315699 8.6725882e-06 2.4624758e-18)
(0.10315711 9.065417e-06 -2.4060468e-18)
(0.10315743 9.1962638e-06 0)
(0.10315721 9.6397825e-06 0)
(0.10324726 1.1618007e-06 6.8433406e-20)
(0.1031785 -2.4609016e-07 -7.2490665e-20)
(0.10316991 7.9268103e-07 -2.3352832e-18)
(0.10317033 5.0305605e-07 2.4197312e-18)
(0.10317191 9.4553913e-07 3.8672957e-20)
(0.10317276 9.9453699e-07 0)
(0.10317291 1.3579131e-06 -2.6014729e-18)
(0.10317254 1.4763935e-06 7.9748399e-18)
(0.10317211 1.6980642e-06 -1.0912398e-17)
(0.10317208 1.7944544e-06 5.6022816e-18)
(0.10317243 1.8911656e-06 -2.8518391e-18)
(0.1031729 1.9478325e-06 2.2758112e-20)
(0.10317343 2.009437e-06 5.9478071e-18)
(0.10317405 2.1003273e-06 -3.010788e-18)
(0.10317464 2.2085995e-06 0)
(0.10317501 2.3385899e-06 0)
(0.10317497 2.4882154e-06 -1.2559509e-20)
(0.10317446 2.6668271e-06 0)
(0.10317377 2.8664698e-06 0)
(0.10317333 3.0763465e-06 2.6528494e-20)
(0.10317335 3.2616356e-06 -1.3499738e-20)
(0.10317372 3.410868e-06 -2.7471562e-20)
(0.1031742 3.5178399e-06 -1.7884753e-18)
(0.10317461 3.5533028e-06 1.8330706e-18)
(0.10317489 3.5370369e-06 1.4447903e-20)
(0.10317506 3.5287353e-06 -1.4686546e-20)
(0.10317516 3.5733295e-06 9.7015749e-19)
(0.10317521 3.66475e-06 -9.705259e-19)
(0.10317523 3.8046429e-06 1.5402937e-20)
(0.10317522 3.9954457e-06 -2.3361491e-19)
(0.10317517 4.206941e-06 -2.4808718e-19)
(0.10317507 4.4170729e-06 4.7323249e-19)
(0.10317488 4.5940329e-06 0)
(0.10317456 4.7136991e-06 -1.907217e-18)
(0.1031741 4.7888215e-06 1.4544417e-20)
(0.10317358 4.7819638e-06 3.6906061e-18)
(0.10317315 4.8097342e-06 -1.7863223e-18)
(0.10317302 4.929865e-06 0)
(0.10317327 5.0148311e-06 1.3589061e-20)
(0.10317374 5.0375619e-06 0)
(0.10317408 5.1283467e-06 0)
(0.10317404 5.2747402e-06 2.5755437e-20)
(0.10317363 5.4247989e-06 -1.2640953e-20)
(0.10317318 5.5336633e-06 -3.2002203e-18)
(0.10317304 5.7295379e-06 3.1146245e-18)
(0.10317332 5.8778621e-06 -3.2194852e-26)
(0.10317368 6.0925582e-06 2.3378575e-20)
(0.10317374 6.2180381e-06 3.0903815e-26)
(0.10317344 6.4195121e-06 -2.2415318e-20)
(0.10317297 6.5206355e-06 -5.5919523e-18)
(0.10317252 6.7330411e-06 5.4885049e-18)
(0.10317216 6.820818e-06 4.1891152e-20)
(0.1031719 7.0507799e-06 -2.658108e-18)
(0.10317174 7.1439573e-06 5.1054014e-18)
(0.10317143 7.4182702e-06 -5.0136309e-18)
(0.10317096 7.5312116e-06 2.4210979e-18)
(0.10317104 7.8974051e-06 -7.3549701e-20)
(0.10317143 7.943646e-06 0)
(0.1031712 8.5164931e-06 0)
(0.10324995 1.0630099e-06 -6.6138456e-20)
(0.10318857 -1.8799856e-07 7.0439993e-20)
(0.10318185 6.8190743e-07 -2.3190934e-18)
(0.10318288 4.7327298e-07 2.3045534e-18)
(0.10318445 8.3656504e-07 -2.4453271e-18)
(0.10318514 8.945507e-07 2.5554299e-18)
(0.10318516 1.1581561e-06 2.5463648e-18)
(0.10318463 1.2518972e-06 -2.6558751e-18)
(0.10318414 1.4626936e-06 5.4040554e-18)
(0.10318421 1.6122072e-06 -1.1113908e-17)
(0.10318471 1.7824777e-06 5.7087096e-18)
(0.10318527 1.9114153e-06 -2.2800397e-20)
(0.10318591 2.0088583e-06 -2.9817907e-18)
(0.1031866 2.062223e-06 6.0889738e-18)
(0.10318718 2.091255e-06 -3.1066569e-18)
(0.10318744 2.122501e-06 -3.1684103e-18)
(0.10318722 2.1760291e-06 2.5233209e-20)
(0.10318651 2.253096e-06 3.2653694e-18)
(0.10318573 2.3508569e-06 -2.6188819e-20)
(0.10318534 2.4617175e-06 -5.333119e-20)
(0.10318549 2.6055166e-06 1.3571206e-20)
(0.10318597 2.7755766e-06 1.3809889e-20)
(0.1031865 2.96056e-06 0)
(0.10318691 3.1310821e-06 -1.8289713e-18)
(0.10318718 3.2487377e-06 -1.4529316e-20)
(0.10318733 3.2944428e-06 1.9053821e-18)
(0.10318742 3.2731921e-06 0)
(0.10318747 3.2570186e-06 0)
(0.10318748 3.2864631e-06 -3.0990512e-20)
(0.10318747 3.3442151e-06 2.3492656e-19)
(0.10318743 3.4381784e-06 -2.4935449e-19)
(0.10318734 3.5677472e-06 0)
(0.10318716 3.737465e-06 0)
(0.10318686 3.929908e-06 -1.901445e-18)
(0.10318641 4.12371e-06 3.7407476e-18)
(0.10318585 4.2926834e-06 -1.8537489e-18)
(0.10318534 4.4044604e-06 -1.7802057e-18)
(0.10318512 4.4137681e-06 1.7776193e-18)
(0.10318535 4.4020441e-06 0)
(0.10318592 4.3807456e-06 0)
(0.10318644 4.4032754e-06 -3.396981e-18)
(0.10318654 4.4764612e-06 3.28324e-18)
(0.10318619 4.604908e-06 2.5370301e-20)
(0.10318567 4.7197635e-06 -3.1854749e-18)
(0.10318541 4.914658e-06 6.2220228e-18)
(0.10318563 5.0337639e-06 -3.0844132e-18)
(0.10318601 5.2285333e-06 -3.0206695e-18)
(0.10318609 5.3383538e-06 5.8667161e-18)
(0.10318577 5.5117864e-06 -2.8686976e-18)
(0.10318528 5.6013272e-06 -6.5698741e-20)
(0.1031848 5.775962e-06 0)
(0.10318442 5.8624189e-06 -4.1699215e-20)
(0.10318412 6.0637818e-06 2.5995516e-18)
(0.10318398 6.1718288e-06 -5.0574571e-18)
(0.10318374 6.4079933e-06 2.5327443e-18)
(0.10318316 6.5137023e-06 3.7202715e-20)
(0.10318319 6.8429168e-06 1.4394727e-19)
(0.10318366 6.8648984e-06 6.9432767e-20)
(0.10318343 7.4731175e-06 6.6601616e-20)
(0.10325178 8.7929888e-07 -1.0235405e-18)
(0.10319696 -1.1026041e-07 -1.0957567e-18)
(0.10319228 5.4945862e-07 2.3389451e-18)
(0.10319376 4.4757668e-07 -2.2666229e-18)
(0.10319526 7.0685136e-07 -5.9659088e-27)
(0.10319576 7.5183028e-07 2.456183e-18)
(0.10319568 9.2625073e-07 4.0189475e-20)
(0.10319496 9.78197e-07 5.2929267e-18)
(0.10319439 1.123845e-06 4.247527e-20)
(0.1031946 1.2314174e-06 -5.6203658e-18)
(0.10319525 1.3863092e-06 5.6688543e-18)
(0.1031959 1.5414297e-06 -5.8245823e-18)
(0.10319666 1.7045244e-06 -2.9894812e-18)
(0.10319742 1.8609597e-06 3.0542297e-18)
(0.10319795 1.9807749e-06 2.4360369e-20)
(0.1031981 2.0605137e-06 0)
(0.10319767 2.1024732e-06 -2.5343702e-20)
(0.10319676 2.1161009e-06 3.3320668e-18)
(0.10319594 2.1237625e-06 -6.7100431e-18)
(0.10319567 2.1407264e-06 2.131491e-26)
(0.10319598 2.1902483e-06 2.7277903e-20)
(0.10319656 2.266768e-06 3.5532278e-18)
(0.10319711 2.368617e-06 -1.8074821e-18)
(0.10319751 2.5168982e-06 1.8384209e-18)
(0.10319776 2.6906019e-06 1.8694482e-18)
(0.1031979 2.8524054e-06 -1.9154162e-18)
(0.10319798 2.9638385e-06 9.6588511e-19)
(0.10319802 3.0183771e-06 -9.8151282e-19)
(0.10319804 3.0253198e-06 -2.3370526e-19)
(0.10319803 3.0026723e-06 1.5742301e-20)
(0.10319799 3.0019136e-06 2.5052068e-19)
(0.10319791 3.0382074e-06 0)
(0.10319775 3.0978841e-06 -1.5165606e-20)
(0.10319747 3.191761e-06 0)
(0.10319704 3.330362e-06 -1.4675217e-20)
(0.10319645 3.4743857e-06 -1.8471791e-18)
(0.10319586 3.6073722e-06 -2.8375261e-20)
(0.10319553 3.6872371e-06 5.3547569e-18)
(0.10319571 3.7860833e-06 -7.0154371e-18)
(0.10319637 3.8594257e-06 -2.6918736e-20)
(0.1031971 3.9464471e-06 6.8196627e-18)
(0.10319739 3.9971757e-06 -3.3210216e-18)
(0.10319711 4.0754269e-06 3.207443e-18)
(0.10319653 4.1211104e-06 -3.220228e-18)
(0.10319612 4.2398183e-06 2.44657e-20)
(0.1031962 4.3118371e-06 0)
(0.10319656 4.4373652e-06 0)
(0.10319663 4.5145979e-06 4.5870678e-20)
(0.10319634 4.6510498e-06 5.7365268e-18)
(0.10319588 4.7394198e-06 -5.5550914e-18)
(0.10319539 4.8972486e-06 -4.2639869e-20)
(0.10319502 4.9963403e-06 2.6566296e-18)
(0.10319467 5.1701135e-06 -5.1239703e-18)
(0.10319453 5.2746738e-06 -3.7105206e-27)
(0.10319441 5.4772603e-06 2.3874215e-18)
(0.1031937 5.5892258e-06 -7.4771215e-26)
(0.10319366 5.8717731e-06 -2.2545969e-18)
(0.10319423 5.9083076e-06 2.0946195e-18)
(0.103194 6.4518412e-06 -6.4371952e-20)
(0.10325309 6.5653455e-07 0)
(0.10320463 -4.0547893e-08 6.6619856e-20)
(0.10320157 4.1144008e-07 -6.3523806e-26)
(0.10320335 3.8615935e-07 0)
(0.10320475 5.6322619e-07 -2.4630704e-18)
(0.10320507 6.4750466e-07 2.5131497e-18)
(0.10320492 7.7600144e-07 0)
(0.10320402 8.5327313e-07 4.1202777e-20)
(0.10320336 9.5709446e-07 0)
(0.10320369 1.0234211e-06 5.6181572e-18)
(0.10320449 1.1097968e-06 -5.6733009e-18)
(0.1032052 1.1994501e-06 2.9287852e-18)
(0.10320612 1.3014954e-06 4.0125752e-27)
(0.10320689 1.4289886e-06 -3.0636783e-18)
(0.10320734 1.5560559e-06 -3.1536791e-18)
(0.10320739 1.68492e-06 3.1937979e-18)
(0.10320673 1.7886636e-06 0)
(0.10320564 1.8710268e-06 2.5943085e-20)
(0.10320485 1.9375413e-06 -2.643265e-20)
(0.10320478 1.9767066e-06 2.4761846e-26)
(0.10320526 1.9907556e-06 -2.7404979e-20)
(0.10320591 2.0046191e-06 0)
(0.10320647 2.0278985e-06 0)
(0.10320684 2.0723564e-06 0)
(0.10320707 2.1549047e-06 0)
(0.10320719 2.2827738e-06 0)
(0.10320727 2.4271014e-06 -9.5535989e-19)
(0.10320731 2.5549147e-06 5.085502e-19)
(0.10320733 2.6566355e-06 5.010287e-19)
(0.10320732 2.7232982e-06 2.3722232e-19)
(0.10320729 2.7414326e-06 -7.5470733e-19)
(0.10320722 2.7309926e-06 5.106588e-19)
(0.10320708 2.7214577e-06 1.5226361e-20)
(0.10320683 2.7257796e-06 0)
(0.10320642 2.7707143e-06 1.4732428e-20)
(0.10320583 2.833992e-06 0)
(0.10320516 2.9236426e-06 0)
(0.10320469 3.0172259e-06 3.611363e-18)
(0.10320478 3.1514033e-06 -7.0141808e-18)
(0.10320553 3.2455012e-06 6.9435218e-18)
(0.10320648 3.3480168e-06 -6.8440161e-18)
(0.10320698 3.3996242e-06 6.6648102e-18)
(0.10320677 3.4737944e-06 -3.243339e-18)
(0.10320615 3.5294256e-06 2.5036932e-20)
(0.10320555 3.6198515e-06 3.1642959e-18)
(0.10320544 3.6810037e-06 -3.0737995e-18)
(0.10320576 3.7763416e-06 2.3489274e-20)
(0.1032058 3.8448785e-06 -2.2953544e-20)
(0.10320557 3.9556631e-06 5.7356759e-18)
(0.10320519 4.0376132e-06 -1.1139256e-17)
(0.10320473 4.1614473e-06 5.4854254e-18)
(0.10320439 4.2465316e-06 4.1322927e-20)
(0.10320399 4.3835802e-06 0)
(0.10320378 4.4782273e-06 -2.5208609e-18)
(0.10320384 4.6457408e-06 2.3953276e-18)
(0.10320301 4.7624537e-06 -7.2005472e-20)
(0.10320286 4.9929509e-06 2.1388315e-18)
(0.10320355 5.0627141e-06 -2.0395512e-18)
(0.10320333 5.509242e-06 1.2454459e-19)
(0.10325392 3.7017201e-07 0)
(0.10321112 2.8635475e-08 -2.2044923e-18)
(0.10320974 2.8544199e-07 -6.7875873e-20)
(0.10321163 3.7789499e-07 4.6016335e-18)
(0.10321291 4.9071499e-07 7.3777458e-20)
(0.10321308 5.9255243e-07 -4.9846731e-18)
(0.10321289 7.0330647e-07 2.5428226e-18)
(0.10321188 8.0971596e-07 5.1727178e-18)
(0.10321115 9.0563876e-07 -5.3743254e-18)
(0.10321156 9.8547609e-07 -2.8568183e-26)
(0.10321248 1.0436913e-06 4.4703839e-20)
(0.1032132 1.0906632e-06 -2.2919013e-20)
(0.10321431 1.1167438e-06 0)
(0.10321503 1.1733976e-06 2.4006076e-20)
(0.1032154 1.2283725e-06 3.1644317e-18)
(0.10321535 1.3127167e-06 -3.2057275e-18)
(0.10321441 1.3927787e-06 3.2449476e-18)
(0.10321322 1.4866843e-06 -3.3344127e-18)
(0.10321254 1.5869876e-06 1.7467393e-26)
(0.10321271 1.6870493e-06 -3.4333769e-18)
(0.10321336 1.7679428e-06 7.0181982e-18)
(0.10321407 1.8183871e-06 -3.585165e-18)
(0.10321462 1.8332155e-06 0)
(0.10321496 1.8363178e-06 1.4491697e-20)
(0.10321516 1.8298112e-06 -1.9009779e-18)
(0.10321527 1.8605353e-06 1.9026915e-18)
(0.10321534 1.9267157e-06 -1.522848e-20)
(0.10321538 2.0231403e-06 4.797605e-19)
(0.1032154 2.1272895e-06 -5.0318664e-19)
(0.10321539 2.2303165e-06 1.5878151e-20)
(0.10321537 2.3217695e-06 5.0495744e-19)
(0.10321531 2.3829631e-06 -5.1246185e-19)
(0.1032152 2.4159886e-06 -1.5279219e-20)
(0.10321498 2.4239226e-06 0)
(0.10321462 2.4373205e-06 0)
(0.10321404 2.4529417e-06 -1.8751754e-18)
(0.10321332 2.5054436e-06 1.8291901e-18)
(0.10321271 2.5594021e-06 -2.8090676e-20)
(0.10321263 2.6345502e-06 -2.7600268e-20)
(0.10321344 2.6964478e-06 0)
(0.10321462 2.7669571e-06 2.661507e-20)
(0.10321534 2.8274362e-06 -3.3169741e-18)
(0.10321519 2.9067953e-06 3.253216e-18)
(0.10321454 2.9676071e-06 -3.2137354e-18)
(0.10321376 3.0469837e-06 3.1229872e-18)
(0.10321336 3.1030621e-06 2.4063371e-20)
(0.10321373 3.1872991e-06 -2.3524128e-20)
(0.10321373 3.2534853e-06 0)
(0.10321356 3.3472479e-06 0)
(0.1032133 3.414424e-06 -4.3625526e-20)
(0.10321287 3.5167539e-06 0)
(0.10321259 3.5946659e-06 -4.1137556e-20)
(0.10321216 3.7087517e-06 0)
(0.1032118 3.8078345e-06 2.5361816e-18)
(0.1032121 3.9324708e-06 -2.2920287e-18)
(0.10321117 4.0639442e-06 7.0855352e-20)
(0.10321086 4.2111096e-06 -2.1627331e-18)
(0.1032117 4.3089039e-06 3.0766817e-18)
(0.10321149 4.6103962e-06 -1.0852667e-18)
(0.1032528 1.3464903e-07 1.1629355e-19)
(0.10321512 7.8534714e-08 -2.0203628e-18)
(0.10321568 1.521051e-07 -2.3997519e-27)
(0.10321742 3.0893712e-07 2.1604706e-18)
(0.10321863 3.3906588e-07 0)
(0.10321871 4.9910958e-07 3.8026162e-20)
(0.10321839 5.3526112e-07 -3.9502972e-20)
(0.10321745 6.6097776e-07 5.2765314e-18)
(0.10321682 7.1504724e-07 -1.0812593e-17)
(0.10321726 8.2144493e-07 -4.3511229e-20)
(0.10321819 8.6894347e-07 5.6811989e-18)
(0.10321881 9.4776184e-07 2.961254e-18)
(0.10322013 9.8110362e-07 -3.0110426e-18)
(0.10322072 1.0337131e-06 -2.4074682e-20)
(0.10322102 1.0565813e-06 -2.4610589e-20)
(0.10322086 1.1044591e-06 0)
(0.10321957 1.1385316e-06 2.5646607e-20)
(0.10321841 1.2002034e-06 -2.6150765e-20)
(0.10321789 1.2589653e-06 2.664811e-20)
(0.10321836 1.3237557e-06 0)
(0.10321916 1.3810659e-06 3.5641942e-18)
(0.1032199 1.4430477e-06 -5.3984009e-18)
(0.10322042 1.4799869e-06 1.8163247e-18)
(0.10322072 1.520088e-06 1.847289e-18)
(0.10322089 1.5388485e-06 -1.86357e-18)
(0.10322099 1.5624224e-06 -9.472729e-19)
(0.10322105 1.5731645e-06 9.7813117e-19)
(0.10322109 1.6023007e-06 0)
(0.10322111 1.6497096e-06 -2.5250883e-19)
(0.1032211 1.718107e-06 2.5489503e-19)
(0.10322108 1.8041135e-06 4.9061708e-19)
(0.10322104 1.8835482e-06 -1.5106594e-18)
(0.10322095 1.9462819e-06 9.959709e-19)
(0.10322077 1.9942945e-06 1.5072992e-20)
(0.10322046 2.0223736e-06 -1.91241e-18)
(0.10321993 2.0524745e-06 1.8805743e-18)
(0.10321919 2.0869033e-06 0)
(0.10321843 2.1227116e-06 -3.6062552e-18)
(0.10321811 2.1696984e-06 3.5434176e-18)
(0.10321893 2.2053704e-06 0)
(0.10322035 2.2587661e-06 0)
(0.10322125 2.3072887e-06 -2.6194445e-20)
(0.10322115 2.3609548e-06 2.5687871e-20)
(0.1032205 2.4167535e-06 0)
(0.10321954 2.463049e-06 0)
(0.10321871 2.5265188e-06 -2.4109751e-20)
(0.1032193 2.5726261e-06 0)
(0.1032193 2.640932e-06 0)
(0.10321918 2.7030578e-06 5.7333812e-18)
(0.10321905 2.7702952e-06 -5.5764426e-18)
(0.10321865 2.8471764e-06 0)
(0.10321844 2.9252339e-06 4.095237e-20)
(0.10321804 3.0189785e-06 -3.9550978e-20)
(0.10321743 3.1190476e-06 -2.474939e-18)
(0.10321793 3.2154556e-06 2.2641127e-18)
(0.10321702 3.3062281e-06 -6.9734712e-20)
(0.1032164 3.4383538e-06 2.0529561e-18)
(0.10321749 3.5289581e-06 -2.1242595e-18)
(0.10321732 3.7427988e-06 0)
(0.10325073 -1.0142665e-07 -1.1280862e-19)
(0.1032186 2.0118122e-07 2.0297833e-18)
(0.1032213 -1.663606e-08 -2.0835708e-18)
(0.10322237 4.6932134e-07 -6.8626773e-20)
(0.10322361 2.680478e-07 3.6054481e-20)
(0.10322391 4.3605704e-07 0)
(0.10322299 4.3615597e-07 3.9275202e-20)
(0.10322235 5.2709188e-07 0)
(0.10322243 5.6904853e-07 5.3536579e-18)
(0.10322285 6.6959121e-07 7.0472816e-27)
(0.10322353 7.0888754e-07 -5.7518157e-18)
(0.10322391 7.8555257e-07 2.2990041e-20)
(0.10322534 8.1813321e-07 0)
(0.1032258 8.8307713e-07 0)
(0.10322605 9.1704421e-07 3.1598608e-18)
(0.10322569 9.7431692e-07 -3.2530492e-18)
(0.10322403 1.0052754e-06 0)
(0.10322309 1.0461541e-06 -1.3121538e-20)
(0.1032227 1.0644075e-06 0)
(0.10322344 1.1059252e-06 0)
(0.1032244 1.1354996e-06 0)
(0.10322516 1.1735084e-06 -1.805374e-18)
(0.10322563 1.2014448e-06 1.8507708e-18)
(0.10322588 1.2452521e-06 0)
(0.10322602 1.2828581e-06 -1.4833813e-20)
(0.10322611 1.3339936e-06 0)
(0.10322616 1.3518765e-06 -1.5326004e-20)
(0.10322619 1.3853971e-06 -5.1396972e-19)
(0.10322621 1.4090305e-06 5.064145e-19)
(0.1032262 1.4392373e-06 -1.5971702e-20)
(0.10322618 1.4746651e-06 5.3933954e-19)
(0.10322614 1.518523e-06 -1.4984778e-18)
(0.10322606 1.5667175e-06 9.6751179e-19)
(0.10322591 1.6097839e-06 -3.0215103e-20)
(0.10322565 1.6538427e-06 1.6038152e-26)
(0.10322517 1.6967882e-06 0)
(0.10322444 1.7345751e-06 0)
(0.10322354 1.7834595e-06 0)
(0.10322291 1.8193529e-06 1.3878702e-20)
(0.10322368 1.8676641e-06 -3.4899641e-18)
(0.10322529 1.9109224e-06 6.8663108e-18)
(0.10322634 1.9587727e-06 4.8288795e-27)
(0.1032263 2.0098855e-06 -6.5939192e-18)
(0.10322566 2.05092e-06 3.2556331e-18)
(0.10322453 2.107475e-06 0)
(0.1032231 2.1486013e-06 0)
(0.10322403 2.1893571e-06 0)
(0.1032242 2.2522465e-06 5.8889494e-18)
(0.1032241 2.3078401e-06 -5.7550496e-18)
(0.10322401 2.3590141e-06 2.1755802e-20)
(0.10322367 2.431201e-06 -4.2176471e-20)
(0.10322355 2.4815312e-06 -4.4057785e-26)
(0.10322323 2.5663678e-06 4.2470227e-26)
(0.10322232 2.6316947e-06 -3.7734899e-20)
(0.10322266 2.6967633e-06 3.6081172e-20)
(0.10322223 2.7879423e-06 0)
(0.10322086 2.8024621e-06 7.0237608e-26)
(0.10322255 3.0454539e-06 6.0936087e-20)
(0.1032224 3.0039394e-06 0)
(0.10325496 -7.0166781e-07 9.3073025e-19)
(0.10322783 7.8562492e-07 -9.592125e-19)
(0.10323247 -3.4717569e-07 0)
(0.10323112 1.9659958e-07 6.7594982e-20)
(0.10323269 -8.4484279e-09 -3.5648295e-20)
(0.10323457 1.6957124e-07 2.4308867e-18)
(0.10323128 1.5436758e-07 -2.5381159e-18)
(0.10323148 1.7530334e-07 5.1971387e-18)
(0.10323403 2.3163192e-07 1.4139713e-26)
(0.10323409 3.08689e-07 -5.5632639e-18)
(0.10323402 3.5817658e-07 -5.6877539e-18)
(0.10323445 4.1836955e-07 5.8707525e-18)
(0.10323534 4.6495605e-07 0)
(0.10323633 5.0924382e-07 0)
(0.1032364 5.6685984e-07 3.1689921e-18)
(0.10323546 6.1071219e-07 -3.1998821e-18)
(0.10323375 6.5674478e-07 -1.2908861e-20)
(0.10323322 7.1289558e-07 1.3064086e-26)
(0.1032329 7.6957888e-07 0)
(0.10323363 8.0805833e-07 1.3658643e-20)
(0.10323497 8.4543006e-07 -3.558806e-18)
(0.1032358 9.1556977e-07 3.6064527e-18)
(0.10323623 9.8320831e-07 1.8411187e-18)
(0.10323646 1.0551651e-06 -1.8719769e-18)
(0.10323659 1.1220434e-06 0)
(0.10323667 1.2188994e-06 0)
(0.10323673 1.2985016e-06 -9.5211115e-19)
(0.10323676 1.3458136e-06 1.014319e-18)
(0.10323679 1.3997934e-06 0)
(0.10323679 1.4269445e-06 1.5998716e-20)
(0.10323677 1.4592522e-06 -1.5886033e-20)
(0.10323674 1.4990856e-06 1.5631648e-20)
(0.10323666 1.5538659e-06 9.8431368e-19)
(0.10323654 1.6194385e-06 9.8350081e-19)
(0.10323631 1.6804797e-06 1.4884035e-20)
(0.10323589 1.7489603e-06 -1.8884525e-18)
(0.10323512 1.792588e-06 -1.8282413e-18)
(0.10323393 1.8068888e-06 -1.8115258e-18)
(0.10323328 1.8711211e-06 3.5468087e-18)
(0.10323386 1.8639964e-06 1.3664197e-20)
(0.10323544 1.9260707e-06 -2.6833673e-20)
(0.1032367 1.9498217e-06 1.3165835e-20)
(0.1032369 1.9936287e-06 -1.2910077e-20)
(0.10323629 2.0442368e-06 -2.5296464e-20)
(0.10323443 2.0404655e-06 -1.2378841e-20)
(0.10323291 2.1551574e-06 -2.4200603e-20)
(0.10323391 2.1128279e-06 0)
(0.10323465 2.1873383e-06 0)
(0.10323469 2.2406679e-06 -5.7093027e-18)
(0.1032343 2.2708371e-06 -4.3456747e-20)
(0.10323419 2.3554215e-06 5.4263976e-18)
(0.1032343 2.3708535e-06 -4.0596968e-20)
(0.10323397 2.503092e-06 3.9044687e-20)
(0.10323305 2.5307246e-06 2.4310063e-18)
(0.10323153 2.5831106e-06 -2.3175799e-18)
(0.10323333 2.722263e-06 -2.1631798e-18)
(0.10322967 2.4496265e-06 4.1378363e-18)
(0.10323336 3.2928096e-06 -8.9196239e-19)
(0.10323329 2.3202354e-06 -8.2476859e-19)
(0.10325165 -1.744508e-06 -1.0634702e-19)
(0.10322454 8.3680716e-07 5.8456079e-20)
(0.1032382 1.2513576e-07 3.1277778e-20)
(0.10322923 7.2300744e-07 0)
(0.10323352 5.891381e-07 0)
(0.10324017 8.4206243e-07 2.3358693e-18)
(0.10322811 8.0256035e-07 -2.4644431e-18)
(0.10323218 7.5768658e-07 5.1961954e-18)
(0.1032409 8.7694908e-07 -5.3512394e-18)
(0.10323883 8.2686594e-07 5.5578933e-18)
(0.10323793 8.3153482e-07 -5.7781925e-18)
(0.10324007 8.2998775e-07 -5.8998447e-18)
(0.1032384 8.0455512e-07 3.0290587e-18)
(0.1032421 8.146781e-07 6.2211768e-18)
(0.10324137 8.0641177e-07 -3.1768725e-18)
(0.10323871 8.0689081e-07 5.6699521e-26)
(0.10323875 7.5701689e-07 1.2944576e-20)
(0.10323829 7.4700291e-07 -3.3527702e-18)
(0.10323833 6.7252574e-07 6.8859753e-18)
(0.1032373 6.8174946e-07 -3.5330008e-18)
(0.10323997 6.1364263e-07 0)
(0.10324128 5.9341198e-07 1.4174681e-20)
(0.10324181 5.3774614e-07 0)
(0.10324213 5.1297048e-07 7.326357e-21)
(0.1032423 4.6330929e-07 -7.4465522e-21)
(0.10324243 3.9884735e-07 0)
(0.10324251 3.3980411e-07 -2.3070734e-20)
(0.10324258 3.2171088e-07 0)
(0.10324262 2.9474237e-07 0)
(0.10324266 2.7688524e-07 0)
(0.10324267 2.4979554e-07 0)
(0.10324262 2.1525219e-07 0)
(0.10324254 1.8319566e-07 2.3065975e-20)
(0.1032424 1.4942543e-07 7.5646274e-21)
(0.10324211 1.074861e-07 0)
(0.10324163 8.8400279e-08 2.1961692e-20)
(0.10324053 3.9082294e-08 -1.4399777e-20)
(0.10323824 1.4004644e-08 7.0795826e-21)
(0.10323913 -1.2555596e-08 -6.9589704e-21)
(0.1032392 -6.48721e-08 -1.3674934e-20)
(0.10323983 -7.3097416e-08 3.4512789e-18)
(0.10324173 -9.3488759e-08 -6.7608151e-18)
(0.10324293 -1.0473052e-07 1.2923098e-20)
(0.10324207 -1.1780092e-07 3.2536446e-18)
(0.10323735 -1.1928432e-07 1.2388557e-20)
(0.10323848 -1.0068445e-07 2.4212693e-20)
(0.10323784 -1.685012e-07 0)
(0.10324011 -1.579966e-07 -5.8780662e-18)
(0.10324087 -1.44034e-07 2.2357818e-20)
(0.10323874 -1.4547193e-07 5.5919499e-18)
(0.1032396 -1.0664794e-07 2.095199e-20)
(0.10324051 -8.9017093e-08 0)
(0.10323936 -1.8045327e-08 -2.4800731e-18)
(0.10323957 2.9674577e-08 2.3883216e-18)
(0.10323021 1.0802153e-07 0)
(0.10324005 1.9806003e-07 3.3255053e-20)
(0.10322849 3.5302613e-07 -2.0276295e-18)
(0.10323963 6.2156753e-07 1.798309e-18)
(0.10323969 1.8239754e-07 -1.0679442e-19)
(0.10320733 -1.8572259e-06 5.1689054e-20)
(0.10318999 -1.1075559e-06 1.7682069e-18)
(0.10320296 -8.5579349e-07 -1.9946773e-18)
(0.10319302 -1.0043871e-06 2.1001751e-18)
(0.10320413 -4.5140745e-07 -4.4614318e-18)
(0.10320188 -8.5310473e-07 4.7081954e-18)
(0.1031909 -6.9932985e-07 -2.4604134e-18)
(0.103205 -4.6188982e-07 5.1375881e-18)
(0.10320687 -4.8822264e-07 -1.0473993e-20)
(0.10319652 -4.4931661e-07 -5.5448101e-18)
(0.1032031 -3.7240801e-07 -5.7147605e-18)
(0.10319807 -3.1450671e-07 5.9143449e-18)
(0.10320242 -2.9573766e-07 0)
(0.10320219 -3.1280268e-07 -1.2157526e-20)
(0.10320068 -3.4997432e-07 6.2220824e-21)
(0.10319652 -3.8334035e-07 -1.2718195e-20)
(0.10319688 -3.5885026e-07 -3.3166894e-18)
(0.10319531 -3.2547102e-07 3.3749157e-18)
(0.10319538 -2.3556977e-07 -6.7405998e-21)
(0.10319979 -1.5602786e-07 3.5265273e-18)
(0.10319923 -4.2726002e-08 -7.1468888e-18)
(0.10319907 2.4728308e-08 5.4502298e-18)
(0.10319917 1.2077593e-07 -1.8466385e-18)
(0.10319925 1.9478565e-07 -3.665153e-21)
(0.10319932 2.5636476e-07 -1.8992216e-18)
(0.10319938 3.4546278e-07 1.9408527e-18)
(0.10319943 3.8472964e-07 7.6869415e-21)
(0.10319946 4.7617315e-07 0)
(0.10319949 5.2180432e-07 0)
(0.1031995 6.0239111e-07 0)
(0.10319951 6.5637316e-07 0)
(0.10319951 7.3830486e-07 -1.0006519e-18)
(0.10319951 7.986444e-07 9.7702749e-19)
(0.10319949 8.9081854e-07 -1.9418764e-18)
(0.10319948 9.5384259e-07 1.9034587e-18)
(0.10319941 1.027779e-06 -3.665257e-21)
(0.10319943 1.1050156e-06 0)
(0.10319981 1.1880863e-06 3.6320385e-18)
(0.10319649 1.2717266e-06 -3.5643921e-18)
(0.10319851 1.3311691e-06 0)
(0.10320093 1.3362071e-06 -3.454566e-18)
(0.10319966 1.3021183e-06 3.3907712e-18)
(0.10320154 1.2464547e-06 -3.3121866e-18)
(0.10320375 1.1860639e-06 3.2319414e-18)
(0.10320287 1.1556021e-06 -3.1807761e-18)