/*--------------------------------*- C++ -*----------------------------------*\
| =========                 |                                                 |
| \\      /  F ield         | OpenFOAM: The Open Source CFD Toolbox           |
|  \\    /   O peration     | Version:  v2006                                 |
|   \\  /    A nd           | Website:  www.openfoam.com                      |
|    \\/     M anipulation  |                                                 |
\*---------------------------------------------------------------------------*/
FoamFile
{
    version     2.0;
    format      ascii;
    class       volVectorField;
    location    "8000";
    object      UMean;
}
// * * * * * * * * * * * * * * * * * * * * * * * * * * * * * * * * * * * * * //

dimensions      [0 1 -1 0 0 0 0];


internalField   nonuniform List<vector> 
55713
(
(0.10321845 6.5771341e-07 0)
(0.10311676 -3.2965472e-07 0)
(0.10309786 8.8731478e-07 2.5660884e-18)
(0.10309531 6.9684372e-07 -2.5527044e-18)
(0.10309652 1.4427891e-06 2.5708203e-18)
(0.10309781 1.4516359e-06 1.5445199e-27)
(0.10309841 1.9260752e-06 -2.6463252e-18)
(0.10309844 2.0725095e-06 0)
(0.10309819 2.3912224e-06 1.0711411e-20)
(0.10309801 2.6202587e-06 0)
(0.10309805 2.8748091e-06 -1.1108179e-20)
(0.10309819 3.1163613e-06 -1.1312525e-20)
(0.10309827 3.355771e-06 0)
(0.10309832 3.5878281e-06 3.0031608e-18)
(0.10309846 3.812876e-06 -3.0577826e-18)
(0.10309871 4.0320451e-06 -6.0800296e-21)
(0.10309893 4.2467123e-06 3.1748776e-18)
(0.10309903 4.4560185e-06 -3.2248665e-18)
(0.10309899 4.6607277e-06 6.4091213e-21)
(0.10309896 4.8604221e-06 -3.3384736e-18)
(0.10309906 5.0543509e-06 3.3891994e-18)
(0.10309931 5.2433185e-06 0)
(0.10309963 5.4295345e-06 0)
(0.10309995 5.6140491e-06 -1.7918225e-18)
(0.10310022 5.7969811e-06 1.814052e-18)
(0.10310042 5.9790202e-06 0)
(0.10310057 6.1604575e-06 0)
(0.10310067 6.3420458e-06 0)
(0.10310073 6.5235276e-06 2.4136317e-19)
(0.10310074 6.705335e-06 -8.6186686e-29)
(0.10310068 6.8868484e-06 -2.4402878e-19)
(0.10310054 7.0684655e-06 0)
(0.10310029 7.2516697e-06 0)
(0.10309992 7.4359671e-06 0)
(0.10309948 7.6219913e-06 0)
(0.10309907 7.8092168e-06 1.8048177e-18)
(0.10309885 7.9982803e-06 -1.7684496e-18)
(0.1030989 8.1903218e-06 -3.4921146e-18)
(0.10309918 8.3859482e-06 1.9874935e-27)
(0.10309948 8.5849477e-06 3.3690388e-18)
(0.10309956 8.7872172e-06 0)
(0.10309937 8.9927089e-06 6.3682003e-21)
(0.10309903 9.2024384e-06 -3.2035676e-18)
(0.10309877 9.4153522e-06 3.14706e-18)
(0.10309872 9.6344962e-06 3.0910487e-18)
(0.10309883 9.8569685e-06 -3.0415273e-18)
(0.10309895 1.0089063e-05 0)
(0.10309898 1.0322644e-05 0)
(0.10309889 1.0572046e-05 -2.8623949e-18)
(0.10309871 1.0815862e-05 2.8215679e-18)
(0.10309851 1.1090994e-05 0)
(0.10309832 1.1341922e-05 0)
(0.10309818 1.1655604e-05 0)
(0.10309799 1.1910119e-05 0)
(0.10309772 1.2277628e-05 2.5886475e-18)
(0.10309759 1.2538266e-05 -3.7926927e-27)
(0.10309785 1.294864e-05 -3.7794594e-18)
(0.10309816 1.3334678e-05 1.2280418e-18)
(0.10309801 1.346047e-05 -1.9268461e-20)
(0.1032244 1.0775986e-06 0)
(0.1031321 -2.5939429e-07 2.4228305e-18)
(0.10311738 1.0277481e-06 -2.5053896e-18)
(0.10311598 6.7676016e-07 3.916693e-20)
(0.10311744 1.3252015e-06 -2.5378264e-18)
(0.10311861 1.3040946e-06 5.1424964e-18)
(0.10311906 1.774492e-06 3.7720812e-27)
(0.10311895 1.8707087e-06 -2.6839904e-18)
(0.10311863 2.1870191e-06 -1.0693847e-20)
(0.10311849 2.3735892e-06 2.1811192e-20)
(0.1031186 2.5950927e-06 -2.83546e-18)
(0.10311875 2.7982455e-06 2.9131985e-18)
(0.10311879 3.0007639e-06 2.9576357e-18)
(0.10311882 3.195767e-06 2.6704303e-27)
(0.10311899 3.3858279e-06 2.5223006e-27)
(0.10311926 3.5718656e-06 -3.1212277e-18)
(0.10311948 3.7544149e-06 -6.219875e-21)
(0.10311952 3.9332541e-06 0)
(0.10311944 4.1090377e-06 3.293514e-18)
(0.1031194 4.2812531e-06 -6.7161788e-18)
(0.10311952 4.4509893e-06 3.4231691e-18)
(0.10311979 4.6187125e-06 1.3574864e-20)
(0.10312012 4.7846756e-06 0)
(0.10312043 4.9492212e-06 7.0180321e-21)
(0.10312068 5.1125626e-06 0)
(0.10312086 5.2752088e-06 9.1349716e-19)
(0.10312099 5.4364908e-06 -1.8857325e-18)
(0.10312107 5.5974549e-06 9.4275314e-19)
(0.10312112 5.7577041e-06 2.4312887e-19)
(0.10312113 5.9181264e-06 -2.6154712e-19)
(0.10312107 6.0775311e-06 0)
(0.10312093 6.2360201e-06 9.5188332e-19)
(0.10312068 6.3964713e-06 -1.904046e-18)
(0.10312032 6.557402e-06 9.3702826e-19)
(0.10311986 6.7184104e-06 0)
(0.10311941 6.8786851e-06 1.8141306e-18)
(0.10311913 7.0418637e-06 -1.7912342e-18)
(0.10311915 7.2109563e-06 1.370697e-20)
(0.10311944 7.3844261e-06 0)
(0.10311978 7.5584473e-06 6.6222633e-21)
(0.10311992 7.7328684e-06 3.3317878e-18)
(0.10311975 7.9080831e-06 -6.5529061e-18)
(0.10311938 8.0898159e-06 -4.8117334e-28)
(0.10311904 8.2746987e-06 3.1570425e-18)
(0.10311894 8.469824e-06 -3.0993766e-18)
(0.10311904 8.6630645e-06 6.0900066e-18)
(0.10311918 8.8708873e-06 -5.9701074e-18)
(0.10311922 9.0689778e-06 2.9284913e-18)
(0.10311914 9.2952984e-06 -1.1220384e-20)
(0.10311896 9.4965891e-06 0)
(0.10311873 9.7605984e-06 0)
(0.10311851 9.9589752e-06 0)
(0.10311835 1.0281097e-05 -2.676211e-18)
(0.10311817 1.0469126e-05 2.6243991e-18)
(0.10311786 1.0858401e-05 0)
(0.10311762 1.1040433e-05 3.9171549e-20)
(0.10311785 1.1482793e-05 0)
(0.1031182 1.1688914e-05 1.8918585e-20)
(0.10311801 1.2092997e-05 1.8550462e-20)
(0.10322951 1.2360344e-06 0)
(0.10314687 -2.6326164e-07 3.7327433e-20)
(0.10313448 9.8418418e-07 -3.794088e-20)
(0.10313409 6.1243067e-07 -3.8477696e-20)
(0.10313571 1.1805797e-06 -2.5452714e-18)
(0.10313675 1.1765076e-06 2.5792846e-18)
(0.10313704 1.5713292e-06 0)
(0.10313682 1.6752386e-06 2.0896537e-20)
(0.10313647 1.9477915e-06 -5.4660407e-18)
(0.10313639 2.1164011e-06 5.5387623e-18)
(0.10313658 2.3202164e-06 0)
(0.10313673 2.4972175e-06 -2.2715498e-20)
(0.10313671 2.6760891e-06 0)
(0.10313675 2.8437561e-06 3.0006908e-18)
(0.10313697 3.0065687e-06 -6.1656175e-18)
(0.10313728 3.1645369e-06 3.1413917e-18)
(0.10313747 3.320662e-06 -3.1875908e-18)
(0.10313745 3.4743228e-06 -3.65702e-27)
(0.10313733 3.6253434e-06 3.3179299e-18)
(0.10313729 3.7723444e-06 -3.3771069e-18)
(0.10313744 3.9168658e-06 -3.420962e-27)
(0.10313774 4.0597692e-06 3.4960472e-18)
(0.10313809 4.2009001e-06 0)
(0.10313839 4.3408628e-06 1.7937777e-18)
(0.10313861 4.4803002e-06 1.6089917e-27)
(0.10313877 4.618531e-06 -1.8389279e-18)
(0.10313889 4.7552932e-06 -1.4830345e-20)
(0.10313896 4.8926584e-06 4.9717431e-19)
(0.103139 5.0289721e-06 -4.8962357e-19)
(0.103139 5.165044e-06 2.4773409e-19)
(0.10313895 5.3006877e-06 -2.4687389e-19)
(0.10313881 5.4341566e-06 3.0386167e-20)
(0.10313858 5.5685768e-06 0)
(0.10313823 5.7039728e-06 1.4718197e-20)
(0.10313776 5.8408921e-06 -1.4480776e-20)
(0.10313727 5.9772879e-06 -1.4243763e-20)
(0.10313693 6.1161536e-06 -1.4007327e-20)
(0.1031369 6.258927e-06 -1.377159e-20)
(0.10313718 6.4051987e-06 3.4518161e-18)
(0.10313758 6.5518203e-06 -3.4053694e-18)
(0.1031378 6.7024781e-06 0)
(0.10313767 6.8518378e-06 3.2859396e-18)
(0.10313727 7.0096633e-06 -3.2138536e-18)
(0.10313686 7.1648349e-06 3.1918363e-18)
(0.10313668 7.3359993e-06 -3.1078239e-18)
(0.10313677 7.4962473e-06 -3.0248125e-18)
(0.10313693 7.6860193e-06 -2.1912576e-27)
(0.10313699 7.8471509e-06 2.9075593e-18)
(0.10313693 8.0611234e-06 2.2433354e-20)
(0.10313675 8.2170105e-06 0)
(0.1031365 8.4805378e-06 0)
(0.10313624 8.6131936e-06 0)
(0.10313606 8.949079e-06 2.0600346e-20)
(0.1031359 9.0474104e-06 -2.014672e-20)
(0.10313558 9.453829e-06 0)
(0.10313523 9.5440343e-06 2.4640155e-18)
(0.10313542 9.998756e-06 -2.4075577e-18)
(0.10313583 1.0109454e-05 0)
(0.10313562 1.0612847e-05 0)
(0.10323352 1.2654021e-06 6.8441049e-20)
(0.10315895 -2.5260843e-07 -7.2501623e-20)
(0.10314949 8.7997242e-07 -2.3356387e-18)
(0.10314991 5.5894728e-07 2.4200923e-18)
(0.10315158 1.0323439e-06 3.8678373e-20)
(0.10315246 1.0497473e-06 0)
(0.10315261 1.3800802e-06 -2.6017615e-18)
(0.10315228 1.4792098e-06 7.9756128e-18)
(0.10315192 1.7126216e-06 -1.0913305e-17)
(0.10315194 1.8603797e-06 5.6026703e-18)
(0.10315221 2.0384523e-06 -2.8520008e-18)
(0.10315231 2.1926041e-06 2.275917e-20)
(0.10315224 2.3480719e-06 5.9480318e-18)
(0.1031523 2.4932509e-06 -3.0108757e-18)
(0.10315259 2.6347217e-06 0)
(0.10315293 2.7723837e-06 0)
(0.10315308 2.9075161e-06 -1.2559404e-20)
(0.10315299 3.039231e-06 0)
(0.10315283 3.1684484e-06 0)
(0.10315282 3.2951088e-06 2.6526976e-20)
(0.10315302 3.4203133e-06 -1.3498766e-20)
(0.10315335 3.5443366e-06 -2.7469199e-20)
(0.1031537 3.6667813e-06 -1.7882969e-18)
(0.10315398 3.7878178e-06 1.8328623e-18)
(0.10315419 3.9077085e-06 1.4446057e-20)
(0.10315434 4.0268337e-06 -1.468446e-20)
(0.10315444 4.146421e-06 9.7000555e-19)
(0.1031545 4.2663039e-06 -9.7035954e-19)
(0.10315454 4.3856507e-06 1.5400069e-20)
(0.10315454 4.5031146e-06 -2.3364865e-19)
(0.10315448 4.6183149e-06 -2.4820813e-19)
(0.10315436 4.7315061e-06 4.734652e-19)
(0.10315415 4.8455608e-06 0)
(0.10315381 4.960206e-06 -1.9081698e-18)
(0.10315334 5.0762023e-06 1.4551738e-20)
(0.10315282 5.1909926e-06 3.6924778e-18)
(0.10315241 5.3087847e-06 -1.7872357e-18)
(0.10315231 5.4275426e-06 0)
(0.10315258 5.5512257e-06 1.3596116e-20)
(0.10315304 5.6731739e-06 0)
(0.10315336 5.8046158e-06 0)
(0.10315329 5.9311684e-06 2.576904e-20)
(0.10315288 6.0722581e-06 -1.2647659e-20)
(0.10315238 6.1996156e-06 -3.2019244e-18)
(0.10315212 6.3534828e-06 3.1162909e-18)
(0.10315218 6.4788764e-06 -3.5083916e-26)
(0.10315237 6.6540636e-06 2.3391213e-20)
(0.10315246 6.7781133e-06 3.3665905e-26)
(0.10315241 6.9819135e-06 -2.242747e-20)
(0.10315224 7.0956713e-06 -5.5949839e-18)
(0.10315199 7.3423608e-06 5.4914855e-18)
(0.1031517 7.4405648e-06 4.1913969e-20)
(0.10315149 7.7352414e-06 -2.6595607e-18)
(0.10315135 7.8286852e-06 5.1082003e-18)
(0.10315105 8.1709537e-06 -5.0163888e-18)
(0.10315058 8.2691204e-06 2.4224335e-18)
(0.10315071 8.6927758e-06 -7.3590342e-20)
(0.1031512 8.7370747e-06 0)
(0.10315097 9.3619049e-06 0)
(0.10323657 1.1537479e-06 -6.614568e-20)
(0.10316998 -1.9579177e-07 7.045018e-20)
(0.1031626 7.4660452e-07 -2.3194328e-18)
(0.1031637 5.1246057e-07 2.3048852e-18)
(0.10316536 8.8777997e-07 -2.4456571e-18)
(0.10316606 9.3856817e-07 2.5557408e-18)
(0.10316608 1.2078557e-06 2.5466418e-18)
(0.10316565 1.302477e-06 -2.6561302e-18)
(0.1031653 1.5027874e-06 5.4045049e-18)
(0.10316547 1.6303806e-06 -1.1114689e-17)
(0.10316581 1.7865287e-06 5.7090495e-18)
(0.10316582 1.9192435e-06 -2.2801577e-20)
(0.10316569 2.0534471e-06 -2.9819283e-18)
(0.10316582 2.1777351e-06 6.0892127e-18)
(0.10316619 2.2988881e-06 -3.1067494e-18)
(0.10316655 2.4166192e-06 -3.1684665e-18)
(0.10316664 2.5320086e-06 2.5233304e-20)
(0.10316647 2.6443035e-06 3.2653303e-18)
(0.10316628 2.7543031e-06 -2.61881e-20)
(0.10316631 2.862309e-06 -5.3328965e-20)
(0.10316657 2.9690623e-06 1.3570466e-20)
(0.10316693 3.0747377e-06 1.3808969e-20)
(0.10316728 3.1790083e-06 0)
(0.10316755 3.2819304e-06 -1.8288064e-18)
(0.10316774 3.3837484e-06 -1.4527832e-20)
(0.10316787 3.4850757e-06 1.9051639e-18)
(0.10316796 3.5873548e-06 0)
(0.10316802 3.6897406e-06 0)
(0.10316805 3.7919266e-06 -3.0985782e-20)
(0.10316805 3.8925158e-06 2.3495782e-19)
(0.103168 3.9908422e-06 -2.4946164e-19)
(0.10316789 4.087146e-06 0)
(0.10316769 4.1850344e-06 0)
(0.10316738 4.2827015e-06 -1.9022829e-18)
(0.10316692 4.3840988e-06 3.7424077e-18)
(0.10316636 4.4824644e-06 -1.8545771e-18)
(0.10316588 4.5839923e-06 -1.7810071e-18)
(0.1031657 4.6798049e-06 1.7784255e-18)
(0.10316595 4.7830251e-06 0)
(0.10316646 4.8805668e-06 0)
(0.10316689 4.9971562e-06 -3.3985545e-18)
(0.10316691 5.1024184e-06 3.2847697e-18)
(0.10316651 5.230777e-06 2.5382176e-20)
(0.10316594 5.3319863e-06 -3.1869725e-18)
(0.10316556 5.4705887e-06 6.2249625e-18)
(0.10316557 5.5688455e-06 -3.0858794e-18)
(0.1031658 5.7273443e-06 -3.0221136e-18)
(0.10316593 5.8267082e-06 5.8695295e-18)
(0.10316591 6.0085001e-06 -2.8700735e-18)
(0.10316575 6.1054103e-06 -6.5730223e-20)
(0.1031655 6.3163427e-06 0)
(0.10316519 6.4122415e-06 -4.1719262e-20)
(0.10316493 6.6551668e-06 2.6008044e-18)
(0.10316481 6.7562894e-06 -5.0598996e-18)
(0.10316456 7.036749e-06 2.5339702e-18)
(0.10316396 7.145891e-06 3.7220744e-20)
(0.10316402 7.5223448e-06 1.4401703e-19)
(0.10316461 7.5473564e-06 6.9466322e-20)
(0.10316436 8.2058257e-06 6.6612984e-20)
(0.10323867 9.4993512e-07 -1.0236504e-18)
(0.10317915 -1.1916392e-07 -1.0959095e-18)
(0.10317402 5.9332821e-07 2.339278e-18)
(0.10317561 4.800246e-07 -2.2669422e-18)
(0.10317719 7.6412278e-07 -6.6683936e-27)
(0.10317771 8.332306e-07 2.4564792e-18)
(0.10317763 1.0470659e-06 4.0193873e-20)
(0.10317709 1.13783e-06 5.2934447e-18)
(0.10317679 1.3057957e-06 4.247889e-20)
(0.10317716 1.4147331e-06 -5.6207747e-18)
(0.10317752 1.5500146e-06 5.6692144e-18)
(0.10317738 1.6641558e-06 -5.824923e-18)
(0.10317723 1.7780675e-06 -2.9896452e-18)
(0.10317747 1.884953e-06 3.0543788e-18)
(0.10317794 1.9875764e-06 2.4361328e-20)
(0.10317829 2.0885738e-06 0)
(0.10317828 2.1864184e-06 -2.5344066e-20)
(0.10317802 2.281707e-06 3.3320654e-18)
(0.10317783 2.3743951e-06 -6.7099454e-18)
(0.10317792 2.4657013e-06 2.5213935e-26)
(0.10317825 2.5557431e-06 2.7276868e-20)
(0.10317864 2.6448588e-06 3.5530567e-18)
(0.10317898 2.7327173e-06 -1.8073767e-18)
(0.10317923 2.8194585e-06 1.8382948e-18)
(0.1031794 2.905626e-06 1.8693002e-18)
(0.10317952 2.9922347e-06 -1.9152444e-18)
(0.1031796 3.0787841e-06 9.6578799e-19)
(0.10317965 3.16564e-06 -9.8140354e-19)
(0.10317968 3.2521378e-06 -2.3367664e-19)
(0.10317968 3.3362917e-06 1.574424e-20)
(0.10317963 3.4188326e-06 2.5061523e-19)
(0.10317954 3.4993687e-06 0)
(0.10317936 3.5823238e-06 -1.5171438e-20)
(0.10317907 3.6630752e-06 0)
(0.10317863 3.7495756e-06 -1.4680955e-20)
(0.10317806 3.8301788e-06 -1.8479066e-18)
(0.10317751 3.9186275e-06 -2.8386524e-20)
(0.10317723 3.9941999e-06 5.3568991e-18)
(0.10317742 4.0853486e-06 -7.0182644e-18)
(0.10317798 4.1640459e-06 -2.6929666e-20)
(0.10317853 4.2686631e-06 6.8224526e-18)
(0.10317868 4.3520617e-06 -3.3223887e-18)
(0.10317831 4.4673786e-06 3.2087696e-18)
(0.10317767 4.5492333e-06 -3.2215658e-18)
(0.10317715 4.6743373e-06 2.4475915e-20)
(0.10317709 4.7552164e-06 0)
(0.10317736 4.8937805e-06 0)
(0.10317754 4.9799917e-06 4.5890146e-20)
(0.10317754 5.1348477e-06 5.7389649e-18)
(0.1031774 5.2249891e-06 -5.5574511e-18)
(0.10317716 5.3992534e-06 -4.2657982e-20)
(0.10317684 5.4960301e-06 2.6577609e-18)
(0.10317652 5.6931821e-06 -5.1261567e-18)
(0.1031764 5.7989445e-06 -4.1184744e-27)
(0.10317626 6.0286054e-06 2.3884426e-18)
(0.10317551 6.1450242e-06 -8.0871163e-26)
(0.10317548 6.4532652e-06 -2.2555598e-18)
(0.10317618 6.4921003e-06 2.0955089e-18)
(0.10317593 7.0857354e-06 -6.4382435e-20)
(0.10324017 7.0415119e-07 0)
(0.10318752 -4.3589753e-08 6.6628851e-20)
(0.10318417 4.4243746e-07 -6.8430497e-26)
(0.1031861 4.2043961e-07 0)
(0.10318756 6.2187975e-07 -2.4633893e-18)
(0.10318789 7.3002892e-07 2.5134484e-18)
(0.10318773 8.8191743e-07 0)
(0.10318706 9.8204556e-07 4.1206847e-20)
(0.10318688 1.110856e-06 0)
(0.10318749 1.2130486e-06 5.6185713e-18)
(0.10318781 1.3257077e-06 -5.6736784e-18)
(0.10318745 1.4268811e-06 2.9289728e-18)
(0.10318735 1.5202991e-06 4.8284202e-27)
(0.10318774 1.6138587e-06 -3.0638478e-18)
(0.10318829 1.6993077e-06 -3.153822e-18)
(0.1031886 1.7864681e-06 3.1939056e-18)
(0.10318847 1.8682579e-06 0)
(0.10318811 1.9497797e-06 2.594324e-20)
(0.10318795 2.0274872e-06 -2.6432475e-20)
(0.10318813 2.1058236e-06 2.6721388e-26)
(0.10318853 2.181856e-06 -2.740427e-20)
(0.10318894 2.2579927e-06 0)
(0.10318927 2.3318644e-06 0)
(0.10318949 2.4058212e-06 0)
(0.10318965 2.4785795e-06 0)
(0.10318975 2.5518859e-06 0)
(0.10318982 2.6249873e-06 -9.5528366e-19)
(0.10318987 2.697941e-06 5.0850484e-19)
(0.1031899 2.7698923e-06 5.0097927e-19)
(0.1031899 2.8403272e-06 2.3724942e-19)
(0.10318986 2.9093875e-06 -7.5495961e-19)
(0.10318977 2.9767876e-06 5.1083093e-19)
(0.10318962 3.0471901e-06 1.5231538e-20)
(0.10318936 3.1140928e-06 0)
(0.10318895 3.1871676e-06 1.4737522e-20)
(0.10318837 3.2515568e-06 0)
(0.10318774 3.32755e-06 0)
(0.10318734 3.3869573e-06 3.6126422e-18)
(0.10318744 3.4718515e-06 -7.0166846e-18)
(0.10318805 3.5344488e-06 6.9460216e-18)
(0.10318874 3.6263798e-06 -6.8465012e-18)
(0.10318904 3.6943326e-06 6.6672466e-18)
(0.10318873 3.7922012e-06 -3.2445305e-18)
(0.10318805 3.8630347e-06 2.5046176e-20)
(0.10318737 3.9664461e-06 3.1654704e-18)
(0.10318716 4.039807e-06 -3.0749478e-18)
(0.1031875 4.1508713e-06 2.3498099e-20)
(0.10318775 4.2313654e-06 -2.2962202e-20)
(0.10318776 4.3547552e-06 5.7378454e-18)
(0.10318765 4.4419472e-06 -1.1143472e-17)
(0.10318741 4.57883e-06 5.4875004e-18)
(0.10318711 4.6744328e-06 4.1338591e-20)
(0.10318672 4.8312749e-06 0)
(0.10318654 4.936636e-06 -2.5218179e-18)
(0.10318659 5.1174012e-06 2.3962369e-18)
(0.10318569 5.2379706e-06 -7.2032803e-20)
(0.10318553 5.4900941e-06 2.1396406e-18)
(0.10318636 5.5590503e-06 -2.0403158e-18)
(0.10318612 6.0529871e-06 1.2456403e-19)
(0.10324113 3.9070337e-07 0)
(0.10319457 3.1682843e-08 -2.2047837e-18)
(0.10319309 3.088453e-07 -6.7885154e-20)
(0.10319514 4.1704783e-07 4.6022559e-18)
(0.10319647 5.3796352e-07 7.3786801e-20)
(0.10319663 6.5233886e-07 -4.9852566e-18)
(0.10319641 7.6206399e-07 2.5430998e-18)
(0.10319558 8.6606264e-07 5.1732377e-18)
(0.10319563 9.5808797e-07 -5.3747964e-18)
(0.10319651 1.0551397e-06 -3.0712056e-26)
(0.10319666 1.1389101e-06 4.4707048e-20)
(0.10319603 1.2296802e-06 -2.2920674e-20)
(0.10319612 1.2998607e-06 0)
(0.1031967 1.384237e-06 2.4007606e-20)
(0.10319728 1.4512496e-06 3.1646005e-18)
(0.10319754 1.5286603e-06 -3.2058614e-18)
(0.10319724 1.5936877e-06 3.245038e-18)
(0.1031968 1.6633984e-06 -3.3344617e-18)
(0.10319671 1.7243356e-06 1.882342e-26)
(0.10319702 1.791527e-06 -3.433361e-18)
(0.10319748 1.8519195e-06 7.0181156e-18)
(0.10319789 1.9162574e-06 -3.5850986e-18)
(0.1031982 1.9752674e-06 0)
(0.1031984 2.0378075e-06 1.4491219e-20)
(0.10319854 2.0975686e-06 -1.9009003e-18)
(0.10319863 2.1599187e-06 1.9025987e-18)
(0.1031987 2.2203863e-06 -1.5227614e-20)
(0.10319875 2.281517e-06 4.797293e-19)
(0.10319878 2.3409652e-06 -5.0314982e-19)
(0.10319877 2.3983912e-06 1.5879845e-20)
(0.10319874 2.454274e-06 5.0510507e-19)
(0.10319867 2.5088732e-06 -5.1261281e-19)
(0.10319854 2.5651638e-06 -1.5283754e-20)
(0.10319832 2.6185141e-06 0)
(0.10319794 2.6804582e-06 0)
(0.10319737 2.7332348e-06 -1.8757448e-18)
(0.10319668 2.8000642e-06 1.82975e-18)
(0.10319614 2.8548563e-06 -2.8099348e-20)
(0.10319612 2.922811e-06 -2.7608855e-20)
(0.10319673 2.9800066e-06 0)
(0.10319757 3.053502e-06 2.6623527e-20)
(0.10319807 3.1144836e-06 -3.3180363e-18)
(0.10319785 3.1958553e-06 3.2542643e-18)
(0.10319717 3.2584669e-06 -3.2147777e-18)
(0.10319633 3.3457145e-06 3.1240074e-18)
(0.10319587 3.4099929e-06 2.4071296e-20)
(0.1031963 3.5014844e-06 -2.3531929e-20)
(0.10319665 3.5775696e-06 0)
(0.10319666 3.6775944e-06 0)
(0.10319659 3.7600742e-06 -4.3640114e-20)
(0.10319636 3.8719567e-06 0)
(0.10319609 3.9644897e-06 -4.1151345e-20)
(0.10319566 4.0880515e-06 0)
(0.10319533 4.195804e-06 2.5370326e-18)
(0.10319563 4.3348791e-06 -2.2927973e-18)
(0.10319461 4.4642892e-06 7.0879108e-20)
(0.10319425 4.6323201e-06 -2.1634559e-18)
(0.10319526 4.7267887e-06 3.0776988e-18)
(0.10319503 5.0683971e-06 -1.0854298e-18)
(0.10323999 1.3053136e-07 1.1630584e-19)
(0.10319899 9.7543517e-08 -2.0206252e-18)
(0.1031996 1.6565028e-07 -2.5099141e-27)
(0.10320149 3.4260801e-07 2.1607561e-18)
(0.10320273 3.7689917e-07 0)
(0.1032028 5.440254e-07 3.8030558e-20)
(0.10320242 5.8700275e-07 -3.9507274e-20)
(0.10320145 7.0731554e-07 5.2770756e-18)
(0.10320193 7.4894364e-07 -1.0813565e-17)
(0.10320303 8.5858746e-07 -4.3514672e-20)
(0.10320284 9.0949379e-07 5.6816534e-18)
(0.10320193 9.958328e-07 2.9615019e-18)
(0.10320242 1.0413259e-06 -3.0112906e-18)
(0.10320316 1.1202943e-06 -2.4076456e-20)
(0.10320372 1.1667758e-06 -2.4612152e-20)
(0.10320389 1.238216e-06 0)
(0.10320337 1.2836545e-06 2.5647592e-20)
(0.10320288 1.3491914e-06 -2.6151473e-20)
(0.10320293 1.3941351e-06 2.6648581e-20)
(0.10320337 1.4559239e-06 0)
(0.10320388 1.5012683e-06 3.5642135e-18)
(0.10320428 1.5598427e-06 -5.3984005e-18)
(0.10320456 1.6044463e-06 1.8163139e-18)
(0.10320474 1.6601729e-06 1.8472663e-18)
(0.10320486 1.7042133e-06 -1.8635348e-18)
(0.10320495 1.7546139e-06 -9.4724857e-19)
(0.10320502 1.7987925e-06 9.780993e-19)
(0.10320506 1.8459447e-06 0)
(0.10320509 1.8935878e-06 -2.5249709e-19)
(0.10320509 1.94116e-06 2.5492051e-19)
(0.10320506 1.991062e-06 4.9074043e-19)
(0.103205 2.0393306e-06 -1.5110425e-18)
(0.10320489 2.0895479e-06 9.9622557e-19)
(0.1032047 2.1406379e-06 1.5076879e-20)
(0.10320437 2.1856177e-06 -1.9129071e-18)
(0.10320383 2.2351543e-06 1.881067e-18)
(0.1032031 2.2820963e-06 0)
(0.1032024 2.3286072e-06 -3.6072163e-18)
(0.10320219 2.3789031e-06 3.5443688e-18)
(0.1032028 2.4240723e-06 0)
(0.10320376 2.4777152e-06 0)
(0.10320453 2.5303827e-06 -2.6201729e-20)
(0.1032044 2.5861862e-06 2.5695073e-20)
(0.10320378 2.6451595e-06 0)
(0.10320282 2.7008513e-06 0)
(0.10320196 2.7679949e-06 -2.4116724e-20)
(0.10320249 2.8208065e-06 0)
(0.10320299 2.8952733e-06 0)
(0.103203 2.9630714e-06 5.7350652e-18)
(0.10320297 3.0449972e-06 -5.5780883e-18)
(0.10320272 3.1217541e-06 0)
(0.10320252 3.2110435e-06 4.0964504e-20)
(0.1032021 3.3136669e-06 -3.9562719e-20)
(0.10320151 3.4087261e-06 -2.4756736e-18)
(0.10320204 3.523488e-06 2.2647837e-18)
(0.10320104 3.6326858e-06 -6.9755388e-20)
(0.10320031 3.7793377e-06 2.0535636e-18)
(0.10320161 3.8667049e-06 -2.1248798e-18)
(0.1032014 4.1243621e-06 0)
(0.10323778 -1.2978867e-07 -1.1282077e-19)
(0.10320281 2.2840519e-07 2.0300495e-18)
(0.10320575 -2.4217237e-08 -2.083852e-18)
(0.10320687 5.075933e-07 -6.8635992e-20)
(0.10320816 2.9839159e-07 3.6059079e-20)
(0.10320847 4.7447071e-07 0)
(0.10320744 4.8633255e-07 3.9279753e-20)
(0.1032065 5.8152242e-07 0)
(0.10320782 6.330565e-07 5.3541888e-18)
(0.10320888 7.2353897e-07 7.824672e-27)
(0.10320816 7.5551545e-07 -5.7523865e-18)
(0.1032071 8.3236885e-07 2.2992448e-20)
(0.10320815 8.5990761e-07 0)
(0.10320902 9.357436e-07 0)
(0.10320952 9.6594698e-07 3.1601212e-18)
(0.10320953 1.036927e-06 -3.2532816e-18)
(0.10320875 1.06654e-06 0)
(0.1032083 1.1249701e-06 -1.3122179e-20)
(0.10320852 1.1466911e-06 0)
(0.1032091 1.203541e-06 0)
(0.10320963 1.2266587e-06 0)
(0.10321 1.277501e-06 -1.805419e-18)
(0.10321024 1.3016053e-06 1.850807e-18)
(0.1032104 1.3518505e-06 0)
(0.10321051 1.3845818e-06 -1.4833929e-20)
(0.10321059 1.4352199e-06 0)
(0.10321064 1.4749001e-06 -1.5325937e-20)
(0.10321068 1.5197249e-06 -5.1396441e-19)
(0.10321071 1.5606823e-06 5.0640612e-19)
(0.1032107 1.6012992e-06 -1.5973201e-20)
(0.10321067 1.6405215e-06 5.3945209e-19)
(0.10321062 1.6787786e-06 -1.4987945e-18)
(0.10321053 1.7183715e-06 9.6771874e-19)
(0.10321036 1.7571351e-06 -3.0221648e-20)
(0.10321007 1.8013712e-06 1.7126756e-26)
(0.10320957 1.8455429e-06 0)
(0.1032088 1.8902158e-06 0)
(0.10320791 1.9404315e-06 0)
(0.10320748 1.9816826e-06 1.3881885e-20)
(0.10320805 2.033874e-06 -3.4907775e-18)
(0.10320905 2.0803253e-06 6.8679463e-18)
(0.10321016 2.1317913e-06 5.1003803e-27)
(0.10321016 2.1876014e-06 -6.5955237e-18)
(0.10320963 2.2406497e-06 3.2564363e-18)
(0.10320857 2.2952837e-06 0)
(0.10320717 2.3527962e-06 0)
(0.10320778 2.3986189e-06 0)
(0.10320849 2.4707574e-06 5.8904837e-18)
(0.10320852 2.5266673e-06 -5.7565574e-18)
(0.10320848 2.597902e-06 2.1761547e-20)
(0.10320822 2.6635585e-06 -4.218765e-20)
(0.10320811 2.7309464e-06 -4.7057851e-26)
(0.10320774 2.8153692e-06 4.5363181e-26)
(0.10320683 2.895091e-06 -3.7744979e-20)
(0.10320721 2.9672975e-06 3.6090792e-20)
(0.10320672 3.0632829e-06 0)
(0.10320513 3.0901048e-06 7.5042344e-26)
(0.10320711 3.3228263e-06 6.0951999e-20)
(0.1032069 3.3152437e-06 0)
(0.10324237 -7.8685066e-07 9.3083377e-19)
(0.10321271 8.6891514e-07 -9.5934166e-19)
(0.10321788 -3.8964554e-07 0)
(0.10321628 2.139949e-07 6.7604368e-20)
(0.10321802 -2.3737725e-08 -3.5653054e-20)
(0.10322009 1.7535418e-07 2.4311939e-18)
(0.10321649 1.7541643e-07 -2.538434e-18)
(0.10321649 1.6822904e-07 5.1977844e-18)
(0.10321979 2.4388967e-07 1.5131544e-26)
(0.10321989 3.0568149e-07 -5.5639035e-18)
(0.10321866 3.6184894e-07 -5.6884569e-18)
(0.10321809 4.1556978e-07 5.87151e-18)
(0.10321928 4.6509384e-07 0)
(0.10322062 5.1464068e-07 0)
(0.10322102 5.7462465e-07 3.169333e-18)
(0.10322061 6.2833159e-07 -3.2001867e-18)
(0.10321978 6.7982834e-07 -1.2909951e-20)
(0.10321956 7.4758983e-07 1.4147721e-26)
(0.1032199 8.0161823e-07 0)
(0.10322059 8.6293566e-07 1.365949e-20)
(0.10322119 9.200405e-07 -3.5590112e-18)
(0.10322156 9.9999008e-07 3.6066457e-18)
(0.10322178 1.0630056e-06 1.8412081e-18)
(0.10322194 1.1432503e-06 -1.872058e-18)
(0.10322205 1.2069898e-06 0)
(0.10322212 1.2829903e-06 0)
(0.10322218 1.341514e-06 -9.5213681e-19)
(0.10322222 1.406877e-06 1.0143409e-18)
(0.10322225 1.4621549e-06 0)
(0.10322225 1.5267468e-06 1.6000121e-20)
(0.10322223 1.5760678e-06 -1.5888636e-20)
(0.10322219 1.6394129e-06 1.563426e-20)
(0.1032221 1.6894619e-06 9.8448122e-19)
(0.10322196 1.7570742e-06 9.8367157e-19)
(0.1032217 1.8088405e-06 1.4886669e-20)
(0.10322122 1.8761378e-06 -1.888793e-18)
(0.10322036 1.9146585e-06 -1.8285768e-18)
(0.10321925 1.9468934e-06 -1.8118638e-18)
(0.10321876 2.0027845e-06 3.5474871e-18)
(0.10321921 2.0032849e-06 1.3666865e-20)
(0.10322015 2.0744569e-06 -2.6839066e-20)
(0.10322153 2.0879711e-06 1.3168543e-20)
(0.10322194 2.1412301e-06 -1.291275e-20)
(0.10322147 2.1907499e-06 -2.5301799e-20)
(0.10321989 2.2103673e-06 -1.2381491e-20)
(0.10321841 2.3067481e-06 -2.4205915e-20)
(0.10321898 2.2871151e-06 0)
(0.10321993 2.3741821e-06 0)
(0.10322019 2.4033604e-06 -5.7106247e-18)
(0.10321985 2.4839686e-06 -4.3466917e-20)
(0.1032197 2.5293342e-06 5.4276852e-18)
(0.1032198 2.5698752e-06 -4.0606677e-20)
(0.10321945 2.7115236e-06 3.9054073e-20)
(0.10321857 2.7337354e-06 2.4315923e-18)
(0.10321693 2.79495e-06 -2.3181408e-18)
(0.10321883 2.9642211e-06 -2.163702e-18)
(0.10321475 2.6564179e-06 4.1388447e-18)
(0.10321886 3.5507145e-06 -8.9217327e-19)
(0.10321875 2.5321505e-06 -8.2488255e-19)
(0.10323888 -1.9255771e-06 -1.0635883e-19)
(0.10320926 9.4039425e-07 5.8463569e-20)
(0.10322421 1.4090365e-07 3.1281539e-20)
(0.10321392 8.1062535e-07 0)
(0.10321898 6.4301714e-07 0)
(0.10322627 9.6245452e-07 2.3361037e-18)
(0.1032132 8.4954513e-07 -2.4646925e-18)
(0.1032172 8.7767643e-07 5.1966948e-18)
(0.1032261 9.1661074e-07 -5.3518084e-18)
(0.1032242 9.0467954e-07 5.5584198e-18)
(0.10322238 9.2259502e-07 -5.7788432e-18)
(0.10322356 8.6841786e-07 -5.9005157e-18)
(0.10322291 8.6847116e-07 3.0293752e-18)
(0.10322643 8.4545527e-07 6.2217993e-18)
(0.10322673 8.4211936e-07 -3.1771682e-18)
(0.10322532 8.1344742e-07 6.1489572e-26)
(0.10322509 7.8427711e-07 1.2945532e-20)
(0.10322544 7.5320079e-07 -3.3530006e-18)
(0.10322551 7.0180339e-07 6.8864117e-18)
(0.10322627 6.8306613e-07 -3.5332245e-18)
(0.10322722 6.2294059e-07 0)
(0.10322774 5.8948217e-07 1.4175716e-20)
(0.10322804 5.3557003e-07 0)
(0.10322823 4.9636097e-07 7.3268965e-21)
(0.10322839 4.3897354e-07 -7.4470961e-21)
(0.1032285 4.0008322e-07 0)
(0.10322859 3.5258773e-07 -2.307239e-20)
(0.10322866 3.2798703e-07 0)
(0.10322871 2.9169303e-07 0)
(0.10322876 2.6654075e-07 0)
(0.10322876 2.3266192e-07 0)
(0.10322869 2.027214e-07 0)
(0.10322861 1.6401616e-07 2.3068124e-20)
(0.10322843 1.3247585e-07 7.5653377e-21)
(0.10322812 8.9049258e-08 0)
(0.10322748 6.3333926e-08 2.1963781e-20)
(0.1032262 1.5087877e-08 -1.4401163e-20)
(0.10322475 -1.3114383e-08 7.0802609e-21)
(0.10322515 -4.944342e-08 -6.9596358e-21)
(0.10322497 -9.8724695e-08 -1.3676262e-20)
(0.10322583 -1.1636674e-07 3.4516109e-18)
(0.1032266 -1.485982e-07 -6.7614636e-18)
(0.10322865 -1.5807937e-07 1.2924352e-20)
(0.10322797 -1.6714447e-07 3.2539666e-18)
(0.10322385 -1.7543374e-07 1.2389773e-20)
(0.10322476 -1.5479567e-07 2.4215139e-20)
(0.10322449 -2.2063638e-07 0)
(0.1032256 -2.0477945e-07 -5.8787318e-18)
(0.10322692 -2.1123516e-07 2.2360323e-20)
(0.10322513 -1.8152751e-07 5.5926031e-18)
(0.10322566 -1.6129726e-07 2.0954531e-20)
(0.10322651 -1.4237855e-07 0)
(0.10322537 -6.0553623e-08 -2.4803912e-18)
(0.10322568 -1.0678037e-08 2.388636e-18)
(0.10321614 8.0573031e-08 0)
(0.10322617 1.7953106e-07 3.3259763e-20)
(0.10321352 3.2707262e-07 -2.0279411e-18)
(0.1032256 6.2680447e-07 1.7985844e-18)
(0.1032256 1.8841289e-07 -1.0680844e-19)
(0.10319075 -2.0614117e-06 5.1697e-20)
(0.1031718 -1.2480076e-06 1.7685066e-18)
(0.10318583 -9.8080608e-07 -1.995023e-18)
(0.10317509 -1.1495928e-06 2.1005442e-18)
(0.10318712 -5.4549152e-07 -4.4622063e-18)
(0.10318455 -1.0089695e-06 4.7090499e-18)
(0.10317289 -8.3523198e-07 -2.4608721e-18)
(0.10318767 -5.8494283e-07 5.1385618e-18)
(0.10318362 -6.2445156e-07 -1.0476225e-20)
(0.10318223 -6.1694734e-07 -5.5460545e-18)
(0.10318008 -5.7636387e-07 -5.7161729e-18)
(0.10317937 -4.963507e-07 5.9155806e-18)
(0.1031843 -4.108438e-07 0)
(0.10318436 -3.7067286e-07 -1.2158975e-20)
(0.10318278 -3.3662438e-07 6.2225005e-21)
(0.10318122 -3.1370067e-07 -1.2718404e-20)
(0.10318083 -2.2937051e-07 -3.3166283e-18)
(0.1031798 -1.6954453e-07 3.3747587e-18)
(0.10318086 -5.0519206e-08 -6.7402006e-21)
(0.10318157 2.6227355e-08 3.5263274e-18)
(0.10318156 1.3619246e-07 -7.1464544e-18)
(0.10318162 2.1437852e-07 5.4498607e-18)
(0.10318172 3.0034089e-07 -1.8464978e-18)
(0.10318183 3.8933964e-07 -3.66484e-21)
(0.10318191 4.5162688e-07 -1.8990426e-18)
(0.10318197 5.4460353e-07 1.940652e-18)
(0.10318202 5.979735e-07 7.6860714e-21)
(0.10318207 6.868147e-07 0)
(0.10318209 7.3856305e-07 0)
(0.10318211 8.2182129e-07 0)
(0.10318211 8.8071338e-07 0)
(0.10318211 9.7005851e-07 -1.0009537e-18)
(0.1031821 1.0369716e-06 9.7732453e-19)
(0.10318208 1.1316663e-06 -1.9424725e-18)
(0.10318205 1.199641e-06 1.9040483e-18)
(0.103182 1.2817196e-06 -3.666403e-21)
(0.103182 1.3621965e-06 0)
(0.10318128 1.4511368e-06 3.6332054e-18)
(0.10317892 1.534118e-06 -3.5655371e-18)
(0.10318016 1.5926253e-06 0)
(0.10318131 1.6090958e-06 -3.4556929e-18)
(0.10318258 1.5918126e-06 3.3918891e-18)
(0.10318395 1.5449316e-06 -3.3132992e-18)
(0.103186 1.4881146e-06 3.2330357e-18)
(0.10318557 1.458302e-06 -3.1818431e-18)