/*--------------------------------*- C++ -*----------------------------------*\
| =========                 |                                                 |
| \\      /  F ield         | OpenFOAM: The Open Source CFD Toolbox           |
|  \\    /   O peration     | Version:  v2006                                 |
|   \\  /    A nd           | Website:  www.openfoam.com                      |
|    \\/     M anipulation  |                                                 |
\*---------------------------------------------------------------------------*/
FoamFile
{
    version     2.0;
    format      ascii;
    class       volVectorField;
    location    "8000";
    object      wallShearStress;
}
// * * * * * * * * * * * * * * * * * * * * * * * * * * * * * * * * * * * * * //

dimensions      [1 -1 -2 0 0 0 0];


internalField   uniform (0 0 0);

boundaryField
{
    Side
    {
        type            empty;
    }
    Ground
    {
        type            calculated;
        value           uniform (0 0 0);
    }
    Inlet
    {
        type            calculated;
        value           uniform (0 0 0);
    }
    Airfoil
    {
        type            calculated;
        value           nonuniform List<vector> 
527
(
(4.4434161e-06 1.903455e-06 -2.4997042e-20)
(4.9867017e-06 1.739967e-06 3.4719426e-20)
(5.0989048e-06 1.2622741e-06 1.8310141e-20)
(4.1036654e-06 1.1287905e-06 -1.9235246e-20)
(4.1388014e-06 1.1635711e-06 -1.9747792e-20)
(3.7800308e-06 1.0448868e-06 2.0287816e-20)
(3.569135e-06 9.5498113e-07 1.0104146e-23)
(3.4388032e-06 9.0599168e-07 -1.031559e-23)
(3.4315509e-06 8.946021e-07 -8.5546909e-28)
(3.4556639e-06 8.9320311e-07 2.9818986e-37)
(3.4841321e-06 8.7906189e-07 0)
(3.495472e-06 8.6666375e-07 1.1148898e-20)
(3.5164097e-06 8.5651041e-07 -1.1281176e-20)
(3.523856e-06 8.4383051e-07 -1.1438344e-20)
(3.5352366e-06 8.3853548e-07 1.1568533e-20)
(3.5464858e-06 8.2662541e-07 0)
(3.5515161e-06 8.1914279e-07 0)
(3.5639125e-06 8.0545521e-07 -1.1904828e-20)
(3.5706715e-06 7.9670637e-07 -2.3534115e-23)
(3.5811956e-06 7.7941921e-07 1.2169906e-20)
(3.5898761e-06 7.7170837e-07 1.2263775e-20)
(3.5925279e-06 7.4739487e-07 -1.2377823e-20)
(3.5994445e-06 7.4177515e-07 -1.249929e-20)
(3.598471e-06 7.1626319e-07 -2.4718839e-23)
(3.6020406e-06 7.0699481e-07 2.3858128e-27)
(3.5981768e-06 6.8830006e-07 -2.5149366e-23)
(3.5966598e-06 6.7081086e-07 2.5358999e-23)
(3.5929163e-06 6.5898299e-07 1.3078468e-20)
(3.5821434e-06 6.3367259e-07 5.1698446e-23)
(3.5780326e-06 6.2074011e-07 1.3312026e-20)
(3.5619147e-06 5.9732318e-07 -1.3441795e-20)
(3.5467886e-06 5.7063095e-07 -1.355531e-20)
(3.5361413e-06 5.5231372e-07 -1.3688967e-20)
(3.5001114e-06 5.1754551e-07 -1.3788784e-20)
(3.4849416e-06 4.8996178e-07 -1.3885552e-20)
(3.4586571e-06 4.6672301e-07 5.4746399e-23)
(3.3945837e-06 4.2199652e-07 -2.1711545e-27)
(3.3865657e-06 3.8987727e-07 1.4169937e-20)
(3.3345262e-06 3.5905934e-07 -5.8774718e-39)
(3.2455901e-06 3.0581254e-07 -7.1803228e-21)
(3.2259951e-06 2.682016e-07 -5.6891454e-23)
(3.1529434e-06 2.3236278e-07 7.3277026e-21)
(3.0335011e-06 1.7776808e-07 7.3480185e-21)
(2.9756047e-06 1.2986886e-07 1.1643138e-22)
(2.8841392e-06 8.3811196e-08 7.4380321e-21)
(2.7440757e-06 2.510148e-08 8.5076404e-37)
(2.5974619e-06 -3.809065e-08 5.9545348e-23)
(2.5432635e-06 -9.0201531e-08 -7.6664495e-21)
(2.335228e-06 -1.468893e-07 -7.863262e-21)
(2.0717318e-06 -2.4500933e-07 -7.734671e-21)
(2.025804e-06 -2.9273348e-07 0)
(1.7720794e-06 -3.7495762e-07 -2.0024443e-39)
(1.42384e-06 -4.7106469e-07 5.6364036e-39)
(1.1385397e-06 -5.4623457e-07 -6.2617451e-23)
(1.0871636e-06 -6.3435657e-07 8.2268753e-21)
(5.993511e-07 -7.3457718e-07 -8.1411867e-21)
(2.5800117e-08 -8.7601385e-07 -6.4112085e-23)
(-6.9950469e-08 -9.7334286e-07 -3.5873241e-43)
(-3.6489123e-07 -1.0921808e-06 -6.5025683e-23)
(-9.4404882e-07 -1.2023504e-06 8.4360646e-21)
(-1.5006685e-06 -1.3202613e-06 -6.5820137e-23)
(-1.6768081e-06 -1.4257813e-06 6.6040228e-23)
(-2.0788612e-06 -1.5475504e-06 2.4672754e-37)
(-2.7331014e-06 -1.6596616e-06 6.0841016e-40)
(-3.2917993e-06 -1.7749854e-06 6.6901476e-23)
(-3.5642246e-06 -1.8998895e-06 -6.7497593e-23)
(-4.0330091e-06 -2.0392397e-06 -6.7661087e-23)
(-4.8595138e-06 -2.1554795e-06 8.7551402e-21)
(-5.5425558e-06 -2.2754936e-06 1.5722237e-37)
(-5.8574028e-06 -2.4138147e-06 -1.1754944e-38)
(-6.3141245e-06 -2.5875107e-06 -4.3450558e-21)
(-7.4455113e-06 -2.6921201e-06 -9.1252315e-27)
(-8.4691434e-06 -2.7952246e-06 -8.9357938e-27)
(-8.7394667e-06 -2.9321388e-06 -9.0200992e-21)
(-9.0130135e-06 -3.1554673e-06 -7.0178637e-23)
(-1.0378811e-05 -3.23589e-06 1.4040893e-22)
(-1.1926669e-05 -3.2830196e-06 -4.6620817e-21)
(-1.2083977e-05 -3.4279871e-06 -4.3944192e-21)
(-1.2457278e-05 -3.6193825e-06 -1.0810798e-26)
(-1.3357559e-05 -3.7597719e-06 -1.4321047e-22)
(-1.4927668e-05 -3.7921693e-06 7.1643469e-23)
(-1.5736788e-05 -3.8797936e-06 7.2252889e-23)
(-1.6033869e-05 -4.0332686e-06 4.5693169e-21)
(-1.6349981e-05 -4.2749699e-06 9.3353075e-21)
(-1.7844853e-05 -4.3030415e-06 -4.6806355e-21)
(-1.9420575e-05 -4.2981324e-06 9.6452565e-27)
(-1.9552891e-05 -4.4647052e-06 3.6934922e-23)
(-1.9990421e-05 -4.6496591e-06 -3.7139118e-23)
(-2.0743632e-05 -4.8240663e-06 4.7647506e-21)
(-2.2417043e-05 -4.8116716e-06 -4.7899979e-21)
(-2.3591255e-05 -4.8448882e-06 -3.751723e-23)
(-2.3831407e-05 -5.0203656e-06 -4.7953432e-21)
(-2.4178917e-05 -5.2719579e-06 4.8679872e-21)
(-2.5404576e-05 -5.377964e-06 -2.2040519e-38)
(-2.7469552e-05 -5.286136e-06 -4.8542644e-21)
(-2.8397575e-05 -5.3408416e-06 9.7478404e-21)
(-2.8632098e-05 -5.5266741e-06 -4.896802e-21)
(-2.888901e-05 -5.8288449e-06 3.8909132e-23)
(-3.0464456e-05 -5.8617949e-06 -5.01642e-21)
(-3.2915141e-05 -5.6640566e-06 -1.8220162e-37)
(-3.3691509e-05 -5.7196115e-06 2.5100318e-21)
(-3.3873162e-05 -5.9094e-06 2.5595077e-21)
(-3.4080052e-05 -6.2176915e-06 2.5433341e-21)
(-3.5610366e-05 -6.2484917e-06 2.5057048e-21)
(-3.8189701e-05 -5.9952779e-06 -2.5062941e-21)
(-3.9111392e-05 -6.0167288e-06 -1.2001832e-26)
(-3.9236287e-05 -6.2097046e-06 2.5361789e-21)
(-3.945049e-05 -6.4907906e-06 -3.6734198e-40)
(-4.0591493e-05 -6.611222e-06 -2.5205974e-38)
(-4.3201473e-05 -6.3254787e-06 -1.2893704e-37)
(-4.4686732e-05 -6.2287753e-06 -2.6197904e-21)
(-4.4725202e-05 -6.417513e-06 2.6343761e-21)
(-4.4980304e-05 -6.6332946e-06 -2.6466934e-21)
(-4.5398414e-05 -6.9372686e-06 4.1733464e-23)
(-4.7899359e-05 -6.6513469e-06 -6.7111117e-27)
(-5.0294728e-05 -6.3639398e-06 -2.7150118e-21)
(-5.0130679e-05 -6.5919303e-06 5.3901145e-21)
(-5.0477711e-05 -6.754469e-06 2.6656462e-21)
(-5.0713253e-05 -7.0548362e-06 4.2612556e-23)
(-5.2341286e-05 -6.9981253e-06 4.2745838e-23)
(-5.4814316e-05 -6.7027721e-06 -8.5547464e-23)
(-5.558193e-05 -6.7527329e-06 -2.7122827e-21)
(-5.5879175e-05 -6.9057954e-06 -5.9509402e-38)
(-5.6217095e-05 -7.1091536e-06 -5.5713434e-21)
(-5.6695398e-05 -7.3846576e-06 2.7641407e-21)
(-5.8946527e-05 -7.1389639e-06 8.7772447e-23)
(-6.1197567e-05 -6.8945878e-06 -4.3987186e-23)
(-6.1210404e-05 -7.1146016e-06 2.8388693e-21)
(-6.1655429e-05 -7.2674065e-06 -4.4589537e-23)
(-6.1875742e-05 -7.5776053e-06 8.9628232e-23)
(-6.312959e-05 -7.6827203e-06 -2.9316636e-21)
(-6.6298537e-05 -7.225322e-06 1.4408735e-21)
(-6.8272527e-05 -7.0277587e-06 1.3995802e-21)
(-6.817405e-05 -7.25554e-06 1.5031431e-21)
(-6.836283e-05 -7.4606074e-06 1.5109797e-21)
(-6.8244989e-05 -7.9166581e-06 1.4278054e-21)
(-7.0418303e-05 -7.7845832e-06 1.4789021e-21)
(-7.5004334e-05 -6.9708397e-06 -4.6047179e-23)
(-7.6697114e-05 -6.7793979e-06 4.616738e-23)
(-7.6244791e-05 -7.0283565e-06 -4.6586407e-23)
(-7.6131937e-05 -7.2548213e-06 1.49992e-21)
(-7.5703849e-05 -7.7550918e-06 9.4361109e-23)
(-7.8099992e-05 -7.5170391e-06 1.5128601e-21)
(-8.3348635e-05 -6.4916427e-06 -1.553812e-21)
(-8.5025352e-05 -6.2474007e-06 1.5103281e-21)
(-8.4256468e-05 -6.5199631e-06 5.7397185e-42)
(-8.4149644e-05 -6.6751818e-06 1.5343009e-21)
(-8.3885958e-05 -6.9950028e-06 -7.1264345e-38)
(-8.5096074e-05 -6.9812983e-06 -1.5017359e-21)
(-8.8625419e-05 -6.3307951e-06 -4.8453779e-23)
(-9.0473698e-05 -6.0682207e-06 4.8587573e-23)
(-8.9952091e-05 -6.3078947e-06 -5.1174313e-27)
(-9.0141208e-05 -6.4001942e-06 -4.9312194e-23)
(-9.0314932e-05 -6.5487409e-06 1.7431525e-38)
(-9.0727718e-05 -6.6933067e-06 2.4907169e-23)
(-9.2203989e-05 -6.5530234e-06 -2.5032564e-23)
(-9.3607862e-05 -6.4627136e-06 -7.7947819e-22)
(-9.3711595e-05 -6.6388927e-06 -2.5270534e-23)
(-9.4147209e-05 -6.737837e-06 8.1344908e-22)
(-9.4192475e-05 -6.9681647e-06 -7.3468397e-40)
(-9.399459e-05 -7.3859419e-06 -8.5079346e-22)
(-9.6814903e-05 -7.0096575e-06 8.4872296e-22)
(-0.00010115865 -6.3313192e-06 -1.6220216e-21)
(-0.00010133016 -6.4999843e-06 -5.1734331e-23)
(-0.00010083315 -6.7531414e-06 -8.0686119e-22)
(-0.00010015927 -7.0620182e-06 -8.1244607e-22)
(-9.7922829e-05 -7.9336739e-06 8.4856698e-22)
(-9.8371989e-05 -8.671304e-06 8.2416782e-22)
(-0.00011346638 -6.0071166e-06 -2.577273e-23)
(-0.00012527602 -2.7872616e-06 -3.8330579e-22)
(-0.00011798254 -4.2722948e-06 2.5776914e-23)
(-0.00011570968 -4.5273891e-06 -2.6117419e-23)
(-0.00011192659 -5.3337834e-06 2.6422531e-23)
(-0.00010681767 -6.8752867e-06 -2.6860499e-23)
(-0.000114548 -5.8803188e-06 4.2150582e-22)
(-0.00014115227 4.5536545e-07 6.8876622e-41)
(-0.0001505639 3.411566e-06 -2.2297606e-22)
(-0.00013803285 1.3051337e-06 -7.5389616e-23)
(-0.00013349437 9.212338e-07 -3.8025635e-40)
(-0.00012646997 -3.0168284e-07 0)
(-0.00011801555 -2.5835148e-06 -7.1159688e-46)
(-0.00013191334 -2.4030693e-07 3.5705762e-28)
(-0.00016343925 8.981388e-06 1.8860637e-40)
(-0.00016569596 1.1025228e-05 1.0010069e-38)
(-0.00015358202 8.7527763e-06 -7.8720955e-22)
(-0.00014732521 8.0411492e-06 -6.2448137e-39)
(-0.00013948005 6.6807117e-06 8.2044401e-22)
(-0.00013107434 4.660212e-06 -1.102026e-39)
(-0.00014104414 6.40591e-06 2.5475382e-23)
(-0.00016700235 1.4910318e-05 -2.4312957e-23)
(-0.00016937608 1.7059908e-05 -7.9613405e-22)
(-0.00015683589 1.448996e-05 4.9130888e-23)
(-0.00015006769 1.3557262e-05 -2.5153285e-23)
(-0.00014185646 1.2042241e-05 8.4910081e-22)
(-0.00013145724 9.8945438e-06 8.4790524e-22)
(-0.00013516359 1.0759248e-05 -2.5944692e-23)
(-0.00017114426 2.1079855e-05 -7.3811638e-22)
(-0.00018747626 2.8511756e-05 1.8191497e-26)
(-0.00016642547 2.338073e-05 -2.3824436e-23)
(-0.00015861015 2.2272514e-05 -1.4693679e-39)
(-0.0001502874 2.0668846e-05 1.6403799e-21)
(-0.00014053969 1.8594204e-05 -2.5912044e-23)
(-0.00013375655 1.7207296e-05 -1.6857182e-21)
(-0.00015730636 2.3944507e-05 -1.2204697e-23)
(-0.0001815389 3.3428922e-05 1.1872099e-23)
(-0.00016838349 3.0878378e-05 3.2044848e-38)
(-0.00015832277 2.8777467e-05 0)
(-0.00015056679 2.7189636e-05 0)
(-0.00014363525 2.5654806e-05 -1.6493625e-21)
(-0.00013571483 2.3829826e-05 7.117251e-39)
(-0.00013363223 2.3602875e-05 -1.6765127e-21)
(-0.00015446338 3.0344672e-05 1.5804843e-21)
(-0.00016695013 3.6318125e-05 1.5516146e-21)
(-0.00015049541 3.175603e-05 7.3468397e-40)
(-0.00014440777 3.0594953e-05 5.4756613e-27)
(-0.00013747737 2.8925969e-05 1.6930282e-21)
(-0.00013129588 2.7363657e-05 1.7199793e-21)
(-0.00012403913 2.563467e-05 -1.3778954e-23)
(-0.00012410901 2.625592e-05 -1.7531801e-21)
(-0.00014828723 3.4181635e-05 1.6137142e-21)
(-0.00016150104 4.0681143e-05 0)
(-0.00014404186 3.5517741e-05 1.6103611e-21)
(-0.00013821833 3.4303265e-05 1.309504e-23)
(-0.00013141495 3.2522593e-05 4.758057e-27)
(-0.00012590076 3.101341e-05 1.3719275e-23)
(-0.00011987999 2.9487235e-05 1.7829421e-21)
(-0.00011818953 2.9719506e-05 1.4693679e-39)
(-0.00013334728 3.4934156e-05 -1.3123084e-23)
(-0.00014683731 4.080947e-05 1.2988907e-23)
(-0.00013767502 3.857273e-05 -1.6576685e-21)
(-0.00013024426 3.6573552e-05 -1.3442481e-23)
(-0.00012444165 3.4990884e-05 1.3781514e-23)
(-0.00011941816 3.3524458e-05 1.7888516e-21)
(-0.00011474958 3.2085024e-05 2.9387359e-39)
(-0.00011060178 3.1194973e-05 7.2062868e-45)
(-0.00011245312 3.2617716e-05 5.2226954e-40)
(-0.00012638703 3.7626136e-05 1.4693679e-39)
(-0.00013226672 4.0897531e-05 -1.7461097e-21)
(-0.00012089306 3.7184869e-05 -3.2213819e-27)
(-0.00011656061 3.603185e-05 -3.0351315e-27)
(-0.00011140388 3.4456036e-05 2.9193457e-23)
(-0.00010723336 3.3148318e-05 -2.9836196e-23)
(-0.00010332602 3.1868171e-05 1.5230206e-23)
(-0.0001001531 3.1195302e-05 -3.9577515e-21)
(-0.0001032768 3.3349308e-05 1.9181696e-21)
(-0.0001191929 3.9036912e-05 2.0203809e-38)
(-0.00012643134 4.3102938e-05 1.7755092e-21)
(-0.00011459026 3.9011119e-05 2.9387359e-39)
(-0.00011081586 3.7968837e-05 3.7632489e-21)
(-0.00010614019 3.6449912e-05 -2.9387359e-38)
(-0.00010262142 3.5293065e-05 -2.9387359e-39)
(-9.9412224e-05 3.4222514e-05 -9.9838866e-22)
(-9.6921143e-05 3.351449e-05 1.0136727e-21)
(-9.6809377e-05 3.4020544e-05 -2.9387359e-39)
(-0.00010272245 3.6479761e-05 7.559545e-24)
(-0.00010915566 3.9474338e-05 9.5118204e-22)
(-0.00010634141 3.8893838e-05 9.6287502e-22)
(-0.00010122783 3.7140187e-05 2.9387359e-39)
(-9.7995362e-05 3.6059244e-05 -1.0075614e-21)
(-9.4866881e-05 3.4977795e-05 -3.3795463e-38)
(-9.2205553e-05 3.4054783e-05 -5.8774718e-39)
(-8.9968385e-05 3.3282211e-05 1.0592927e-21)
(-8.8423693e-05 3.2878945e-05 -8.3590683e-24)
(-8.8832663e-05 3.3533296e-05 1.0741383e-21)
(-9.3417572e-05 3.565758e-05 -1.5983663e-23)
(-9.8316177e-05 3.7833841e-05 7.9342727e-24)
(-9.6198539e-05 3.7312333e-05 -3.9872545e-24)
(-9.1902509e-05 3.5768354e-05 1.0535031e-21)
(-8.9133495e-05 3.4783555e-05 2.2551896e-28)
(-8.6363155e-05 3.3771742e-05 -4.24404e-24)
(-8.3978873e-05 3.2906537e-05 -1.1050062e-21)
(-8.2078578e-05 3.220522e-05 2.2448482e-21)
(-8.0893748e-05 3.182057e-05 -1.1754944e-38)
(-8.0713855e-05 3.2157552e-05 -5.8774718e-39)
(-8.3871538e-05 3.4377102e-05 2.1692747e-21)
(-9.261173e-05 3.7983684e-05 3.9896102e-24)
(-9.7483418e-05 4.0456869e-05 1.0196663e-21)
(-9.1334666e-05 3.8140454e-05 4.0998823e-24)
(-8.8785164e-05 3.7245304e-05 -1.7632415e-38)
(-8.59237e-05 3.6170367e-05 -1.0946998e-21)
(-8.3746824e-05 3.5341886e-05 2.0865583e-28)
(-8.1743329e-05 3.4587547e-05 -2.2102852e-24)
(-8.0104103e-05 3.3989727e-05 -6.8876622e-41)
(-7.8865753e-05 3.3573565e-05 4.6778706e-39)
(-7.8176001e-05 3.3452407e-05 -5.6051939e-45)
(-7.8538773e-05 3.3952415e-05 1.8115625e-27)
(-8.0773636e-05 3.5195247e-05 -9.9548243e-42)
(-8.3303266e-05 3.6358529e-05 2.9387359e-39)
(-8.2353454e-05 3.5995181e-05 -5.6452981e-22)
(-7.9541053e-05 3.4887159e-05 5.7452296e-22)
(-7.7823252e-05 3.4212654e-05 1.1421609e-24)
(-7.6040084e-05 3.3499987e-05 5.946012e-22)
(-7.4520577e-05 3.2895297e-05 -1.1744356e-24)
(-7.3151834e-05 3.2367423e-05 -6.0912558e-22)
(-7.2072376e-05 3.1978345e-05 -2.9155515e-29)
(-7.1416848e-05 3.1762576e-05 -1.2382892e-21)
(-7.1233506e-05 3.1834504e-05 6.1794072e-22)
(-7.170194e-05 3.2413563e-05 0)
(-7.3743024e-05 3.3790043e-05 -1.4164698e-25)
(-7.7406264e-05 3.5415458e-05 1.4148015e-25)
(-7.8850242e-05 3.5979574e-05 -2.9387359e-39)
(-7.5134874e-05 3.4509467e-05 5.9716809e-22)
(-7.3747413e-05 3.3955009e-05 -6.0819408e-22)
(-7.185647e-05 3.3177626e-05 3.0165432e-25)
(-7.041494e-05 3.2578447e-05 0)
(-6.9034991e-05 3.2010709e-05 6.2025329e-25)
(-6.7871656e-05 3.1543551e-05 2.4838855e-29)
(-6.6929464e-05 3.11792e-05 -6.3392842e-25)
(-6.6300595e-05 3.0971683e-05 6.5399572e-22)
(-6.6047602e-05 3.0981843e-05 -6.5431186e-22)
(-6.6206713e-05 3.1282568e-05 1.3013945e-21)
(-6.7015344e-05 3.2047271e-05 -1.2515113e-24)
(-6.8990042e-05 3.3287973e-05 1.2248032e-24)
(-7.1427564e-05 3.4345372e-05 -3.1056099e-22)
(-7.1529554e-05 3.4243321e-05 5.8774718e-39)
(-6.8558417e-05 3.3036588e-05 6.3727033e-22)
(-6.7045159e-05 3.239079e-05 1.2715896e-24)
(-6.5231259e-05 3.1602527e-05 -3.3286874e-22)
(-6.3745983e-05 3.0941477e-05 1.3171126e-24)
(-6.2303756e-05 3.0298021e-05 3.4254923e-22)
(-6.100591e-05 2.971584e-05 -3.491436e-22)
(-5.9830679e-05 2.9175414e-05 1.3776065e-24)
(-5.8791951e-05 2.8706261e-05 1.3949526e-24)
(-5.7916711e-05 2.8335641e-05 -1.4104373e-24)
(-5.7246272e-05 2.8090589e-05 -4.3621861e-40)
(-5.6802831e-05 2.7986944e-05 5.6051939e-45)
(-5.660202e-05 2.8067873e-05 -8.7316439e-29)
(-5.6782208e-05 2.8406138e-05 -3.6579886e-22)
(-5.7540887e-05 2.8911107e-05 1.408256e-24)
(-5.8396642e-05 2.916555e-05 3.6080204e-22)
(-5.7944431e-05 2.8803926e-05 0)
(-5.6343824e-05 2.8155733e-05 -1.4430855e-24)
(-5.5499732e-05 2.7832483e-05 -3.7298123e-22)
(-5.4707218e-05 2.7566949e-05 1.8771231e-22)
(-5.4294236e-05 2.7500616e-05 2.9757433e-24)
(-5.4167846e-05 2.7593547e-05 -2.9718353e-24)
(-5.4377847e-05 2.7872424e-05 1.4758892e-24)
(-5.4942563e-05 2.8365682e-05 -8.8162076e-39)
(-5.5899992e-05 2.9101482e-05 3.6743853e-22)
(-5.7280154e-05 3.0110003e-05 -3.5885317e-22)
(-5.9117437e-05 3.1429566e-05 1.7385026e-22)
(-6.1473459e-05 3.3095675e-05 -1.6840678e-22)
(-6.4391179e-05 3.5096679e-05 6.2880782e-25)
(-6.7749964e-05 3.7398609e-05 1.5374039e-22)
(-7.1525129e-05 4.0126225e-05 2.9212219e-22)
(-7.6523819e-05 4.3211942e-05 2.7099003e-25)
(-8.2592195e-05 4.5251589e-05 -1.0339185e-26)
(-8.421734e-05 4.645592e-05 -1.2571268e-22)
(-8.4866489e-05 5.2576252e-05 5.7957227e-26)
(-3.8668655e-05 -3.9885472e-06 3.6734198e-40)
(-3.5654211e-05 -3.3260464e-06 -3.0703599e-24)
(-3.659366e-05 -3.1852182e-06 3.0741971e-24)
(-3.5070867e-05 -2.4971177e-06 -6.3041259e-21)
(-3.3390598e-05 -2.0489655e-06 3.596278e-37)
(-3.2418729e-05 -1.686651e-06 -3.0886313e-24)
(-3.0667717e-05 -1.2774408e-06 -6.3317039e-21)
(-2.9554234e-05 -1.1312345e-06 3.1688219e-21)
(-2.942237e-05 -1.0989971e-06 3.1772831e-21)
(-2.9070663e-05 -1.0451212e-06 -3.1758278e-21)
(-2.8744539e-05 -1.0064396e-06 -3.1029698e-24)
(-2.8534444e-05 -9.8953183e-07 -3.178604e-21)
(-2.8539213e-05 -1.0031414e-06 1.5523636e-24)
(-2.8657024e-05 -1.0037451e-06 3.1812674e-21)
(-2.86449e-05 -9.7242529e-07 3.1800341e-21)
(-2.8686542e-05 -9.2819637e-07 -6.3608003e-21)
(-2.8403482e-05 -8.0765654e-07 -6.8326349e-30)
(-2.7915051e-05 -6.9840033e-07 -3.1821233e-21)
(-2.7707538e-05 -6.230971e-07 3.1830525e-21)
(-2.7497682e-05 -5.4014285e-07 -3.1837694e-21)
(-2.7075739e-05 -4.4002188e-07 -1.5923425e-21)
(-2.6783546e-05 -3.8734183e-07 -1.5928341e-21)
(-2.674742e-05 -3.3876756e-07 3.1869741e-21)
(-2.6470657e-05 -2.6188474e-07 -1.5560308e-24)
(-2.6223436e-05 -2.177334e-07 -7.9570255e-22)
(-2.6315826e-05 -1.7900942e-07 -7.973352e-22)
(-2.6001878e-05 -8.022993e-08 3.9851769e-22)
(-2.5560462e-05 -1.6114944e-08 -9.9659194e-23)
(-2.5511828e-05 3.8562372e-08 4.6635213e-42)
(-2.5093361e-05 1.2665602e-07 7.9755221e-22)
(-2.4722338e-05 1.6488161e-07 -1.5955822e-21)
(-2.4765284e-05 2.0131303e-07 -7.9788247e-22)
(-2.4532172e-05 2.6528958e-07 -1.5959167e-21)
(-2.4193881e-05 3.1217019e-07 -4.7352678e-39)
(-2.4158846e-05 3.6016948e-07 0)
(-2.3707824e-05 4.477282e-07 1.5959209e-21)
(-2.3179541e-05 4.8660124e-07 -3.1944998e-21)
(-2.306019e-05 5.292184e-07 3.19589e-21)
(-2.2715752e-05 5.7774835e-07 -3.1956426e-21)
(-2.2369546e-05 6.0677802e-07 -3.1964075e-21)
(-2.2237711e-05 6.4177918e-07 -1.7606452e-37)
(-2.1912501e-05 6.9618537e-07 -3.1958362e-21)
(-2.1352874e-05 7.4324126e-07 -3.1983182e-21)
(-2.0867126e-05 7.8127234e-07 -3.2009299e-21)
(-2.0387812e-05 8.3176908e-07 1.562764e-24)
(-1.9445875e-05 8.7593343e-07 -3.1267629e-24)
(-1.8461588e-05 8.7587351e-07 -1.2813765e-20)
(-1.7632632e-05 8.7191702e-07 -6.4114202e-21)
(-1.6633108e-05 8.2367499e-07 -4.5200283e-41)
(-1.5940674e-05 7.4712327e-07 -6.4227202e-21)
(-1.5451226e-05 6.6071809e-07 -2.7080031e-28)
(-1.5032656e-05 5.5473689e-07 3.215872e-21)
(-1.459014e-05 4.2017618e-07 -3.2139857e-21)
(-1.476696e-05 2.4570022e-07 -3.2144293e-21)
(-1.5291095e-05 8.2076133e-08 3.1391544e-24)
(-1.558953e-05 -1.2674293e-07 -6.2780294e-24)
(-1.6205964e-05 -3.6606298e-07 3.1384213e-24)
(-1.7135233e-05 -6.3837873e-07 3.209662e-21)
(-1.8234098e-05 -9.6358826e-07 3.1363589e-24)
(-1.951375e-05 -1.3294757e-06 -6.423438e-21)
(-2.0910554e-05 -1.7363354e-06 3.1333849e-24)
(-2.2642344e-05 -2.1965497e-06 -1.282921e-20)
(-2.4340305e-05 -2.7136114e-06 3.1291138e-24)
(-2.7288093e-05 -3.3731384e-06 1.2796703e-20)
(-2.962364e-05 -4.1498562e-06 -1.2780696e-20)
(-3.7229798e-05 -5.1343696e-06 6.234428e-24)
(-3.137883e-05 -5.3227597e-06 1.27185e-20)
(-6.8655222e-05 -1.1110735e-05 -1.7360582e-36)
(-5.6128307e-05 6.4231201e-06 6.0567752e-21)
(-0.00011836277 -8.6339387e-05 -9.3606623e-22)
(-8.8549922e-05 -5.6386215e-05 3.4226187e-23)
(-8.971403e-05 -5.4240079e-05 -7.1503981e-27)
(-0.00010330038 -6.0629832e-05 -3.6724274e-21)
(-0.00015866845 -9.976149e-05 1.5496005e-21)
(-0.00013413569 -6.3515502e-05 -1.5109476e-21)
(-1.8916398e-05 1.8515455e-06 -1.1754944e-38)
(-1.7447345e-05 -1.609239e-07 4.500911e-21)
(-2.2566584e-05 -4.1968228e-06 1.1975349e-37)
(5.9091682e-06 5.0480113e-06 3.7696301e-21)
(-1.9039487e-07 3.4985037e-06 1.7659728e-26)
(-1.3444424e-05 -4.761046e-08 1.1225156e-26)
(-2.1250784e-05 -1.7468559e-06 -2.0235988e-23)
(-3.0940474e-05 -4.1932089e-06 -4.6364963e-21)
(-3.6755323e-05 -5.4074015e-06 -4.2233442e-21)
(-3.7006526e-05 -5.1071483e-06 -3.8756967e-21)
(-3.7245597e-05 -5.1694393e-06 -1.4012512e-23)
(-4.207025e-05 -6.2314436e-06 -6.4655906e-24)
(-3.980152e-05 -4.9038356e-06 -6.0202538e-21)
(-3.6401242e-05 -4.3398568e-06 5.5392002e-24)
(-4.0370155e-05 -5.1339338e-06 5.3808781e-21)
(-1.9632862e-06 -1.252022e-05 5.5399166e-22)
(-2.8225699e-06 -1.8526516e-05 7.3468397e-40)
(-4.0783379e-06 -2.6534142e-05 1.0298522e-21)
(-6.3095806e-06 -3.6848867e-05 -9.7502142e-22)
(-9.1841429e-06 -4.066978e-05 -9.2895194e-22)
(-1.0154926e-05 -4.3563757e-05 8.9172272e-22)
(-1.2739333e-05 -5.2859244e-05 -2.9387359e-39)
(-1.5578282e-05 -6.2122343e-05 2.4316828e-23)
(-2.1967439e-05 -8.728858e-05 -7.1717061e-22)
(-3.2309111e-05 -9.0941515e-05 -4.3118454e-23)
(-3.1753501e-05 -7.1209863e-05 4.7090803e-27)
(-3.240286e-05 -6.7739118e-05 -1.4446238e-21)
(-3.8281397e-05 -7.8643255e-05 1.3818975e-21)
(-4.7353561e-05 -9.4867685e-05 1.2641527e-21)
(-5.0201559e-05 -9.0790948e-05 0)
(-4.9590846e-05 -8.5470045e-05 2.4594657e-21)
(-5.8221065e-05 -9.8042345e-05 -9.7412314e-27)
(-6.7446435e-05 -0.00010957816 3.1470302e-23)
(-9.7168477e-05 -0.00016207259 -3.5179176e-21)
(-9.8558094e-05 -0.00012652178 -2.7727075e-23)
(-6.4256906e-05 -6.6766875e-05 4.6539152e-21)
(-6.8595852e-05 -6.8428517e-05 -2.3509887e-38)
(-8.435886e-05 -8.443285e-05 0)
(-0.00011077732 -0.00011325465 -9.1835496e-41)
(-9.9638604e-05 -8.9830571e-05 -2.9623448e-23)
(-7.1989882e-05 -5.5824097e-05 3.6343303e-23)
(-7.8848969e-05 -5.9574327e-05 2.2245449e-21)
(-9.1944728e-05 -6.8707312e-05 -1.9328036e-21)
(-0.00012479672 -9.8011758e-05 -2.9387359e-39)
(-5.7947266e-07 -3.6041046e-06 3.5804881e-23)
(-5.8046121e-07 6.4219993e-06 -6.1658083e-22)
(-1.3380014e-06 1.3122179e-05 1.102026e-39)
(-2.3721292e-06 2.1043425e-05 -7.3468397e-40)
(-4.3159985e-06 2.6026287e-05 -9.7229911e-22)
(-5.5993208e-06 3.0394518e-05 -8.9186864e-22)
(-6.8348123e-06 3.6103669e-05 -8.031726e-22)
(-8.3327639e-06 4.3428166e-05 -1.102026e-39)
(-1.1150394e-05 5.0524596e-05 -5.8066097e-22)
(-1.2624989e-05 6.9583399e-05 4.6970984e-27)
(-1.9570097e-05 7.1935405e-05 1.0569786e-21)
(-2.2558749e-05 6.1184956e-05 3.5264831e-38)
(-2.4497984e-05 5.9957974e-05 1.741732e-23)
(-2.7269787e-05 6.5206334e-05 -1.5815498e-23)
(-3.0832793e-05 7.1163085e-05 4.5885668e-22)
(-3.4567036e-05 8.4096137e-05 -4.2193305e-22)
(-3.8565956e-05 8.8138823e-05 -8.0702238e-22)
(-4.0238668e-05 8.1234029e-05 -4.2599289e-22)
(-4.1815075e-05 7.9046951e-05 -4.0916898e-22)
(-4.4768901e-05 8.2313014e-05 -3.6765985e-22)
(-4.8869254e-05 8.8092132e-05 3.3439491e-22)
(-5.4100003e-05 9.6849517e-05 -9.6980342e-24)
(-6.1108131e-05 0.00010526498 -5.2909293e-22)
(-6.9716104e-05 0.00013355757 2.4917679e-22)
(-7.5568251e-05 0.0001367153 -8.9966457e-24)
(-6.7143549e-05 8.8310895e-05 1.2170324e-23)
(-5.981292e-05 6.841284e-05 -4.6608287e-22)
(-5.8878376e-05 6.482818e-05 -7.9011993e-24)
(-6.2842614e-05 6.5920375e-05 4.8897979e-22)
(-6.8869148e-05 7.0978981e-05 -2.9387359e-39)
(-7.5892217e-05 7.8413927e-05 0)
(-8.4365523e-05 9.1318556e-05 0)
(-9.0182316e-05 0.00010602761 3.6831485e-22)
(-8.2244442e-05 9.139819e-05 6.860336e-24)
(-6.7801515e-05 5.9970405e-05 -5.7490911e-22)
(-6.0104718e-05 4.7972884e-05 6.8208567e-22)
(-5.7644642e-05 4.3939123e-05 7.4140562e-22)
(-5.9496661e-05 4.3086545e-05 7.2657243e-22)
(-6.3703789e-05 4.5964847e-05 2.1631987e-23)
(-6.8513196e-05 5.0694722e-05 3.1007215e-22)
(-7.3575382e-05 5.636073e-05 5.8977871e-22)
(-7.9306534e-05 6.2183757e-05 -5.8774718e-39)
(-8.6523071e-05 7.023653e-05 -7.7595082e-24)
(-9.2218373e-05 8.4016632e-05 -2.5196714e-22)
(-8.3358712e-05 7.6082988e-05 6.1693272e-22)
(-6.3846647e-05 4.6028663e-05 -1.2790495e-23)
(-5.282298e-05 3.2303254e-05 -5.0852103e-22)
(-4.7559563e-05 2.5779476e-05 6.2480957e-22)
(-4.5602105e-05 2.1851015e-05 -6.6328393e-22)
(-4.5097372e-05 2.0511749e-05 2.0883317e-23)
(-4.5605564e-05 2.0943057e-05 1.2922634e-21)
(-4.6337193e-05 2.218458e-05 6.3702736e-22)
(-4.766319e-05 2.3800443e-05 1.2264972e-21)
(-4.9691882e-05 2.5796028e-05 -1.8352314e-23)
(-5.23905e-05 2.7966815e-05 1.752611e-23)
(-5.5664872e-05 3.0352386e-05 2.6648253e-22)
(-6.0006075e-05 3.3539858e-05 1.5608043e-23)
(-6.208571e-05 3.8769062e-05 -1.514657e-23)
(-6.9702035e-05 2.361544e-05 2.1277088e-22)
)
;
    }
    Outlet
    {
        type            calculated;
        value           uniform (0 0 0);
    }
}


// ************************************************************************* //
