/*--------------------------------*- C++ -*----------------------------------*\
| =========                 |                                                 |
| \\      /  F ield         | OpenFOAM: The Open Source CFD Toolbox           |
|  \\    /   O peration     | Version:  v2006                                 |
|   \\  /    A nd           | Website:  www.openfoam.com                      |
|    \\/     M anipulation  |                                                 |
\*---------------------------------------------------------------------------*/
FoamFile
{
    version     2.0;
    format      ascii;
    class       volScalarField;
    location    "8000";
    object      yPlus;
}
// * * * * * * * * * * * * * * * * * * * * * * * * * * * * * * * * * * * * * //

dimensions      [0 0 0 0 0 0 0];


internalField   uniform 0;

boundaryField
{
    Side
    {
        type            empty;
    }
    Ground
    {
        type            calculated;
        value           nonuniform List<scalar> 
519
(
1.1945257
1.2040479
1.2145813
1.2273848
1.2423903
1.2598177
1.2785908
1.2987457
1.3265143
1.3580701
1.3626374
1.3991716
1.6046283
1.5777537
1.6444122
1.5946116
1.5492946
1.5051102
1.4628751
1.4225622
1.3842765
1.3482282
1.3145976
1.2837017
1.2559242
1.2316676
1.2116975
1.1976622
1.6712305
1.6742474
1.6769034
1.679067
1.6806821
1.6817972
1.6822497
1.6818747
1.6805463
1.6781517
1.6745599
1.6696177
1.663133
1.6548674
1.6445275
1.6317562
1.61613
1.5971474
1.5742295
1.5466856
1.513827
1.4747702
1.4283093
1.3736594
1.3089853
1.2323469
1.1431097
1.0377127
0.91043151
0.74940289
0.51135928
0.14220534
0.51217662
0.74370442
0.91067618
1.0736666
1.2008775
1.2911674
1.3720229
1.4461843
1.5135527
1.5738083
1.6283069
1.6770788
1.7208761
1.7598824
1.7940701
1.823578
1.8492099
1.8717146
1.8915749
1.9092273
1.9247759
1.9382411
1.9501447
1.9609647
1.9707385
1.9794878
1.9874365
1.9947302
2.0012867
2.0070978
2.0122809
2.0169322
2.0211136
2.0248797
2.0282805
2.0313569
2.0341443
2.0366664
2.0389523
2.0409635
2.0428059
2.0443853
1.7824652
1.7445706
1.7170858
1.7029205
1.6866286
1.6732264
1.6614115
1.651783
1.6434802
1.6364076
1.6303187
1.6252975
1.6211259
1.6176112
1.6146535
1.612011
1.6096734
1.607534
1.605589
1.6037198
1.6019171
1.6000312
1.5981537
1.5960262
1.5937347
1.5911978
1.5884523
1.5854311
1.5818964
1.5780717
1.5737578
1.5689179
1.5635741
1.5575774
1.5511227
1.5440601
1.5361507
1.5276244
1.5181007
1.5073317
1.4959537
1.48386
1.4708487
1.4570094
1.4419803
1.4254418
1.4074957
1.3882734
1.3680738
1.3476471
1.3266697
1.3054608
1.2838734
1.2614119
1.2371674
1.2104219
1.1804765
1.1495826
1.1187582
1.0891322
1.0594353
1.0303374
1.0009493
0.97041964
0.93734994
0.90068908
0.8571531
0.80214963
0.74830619
0.69138794
0.64129778
0.58787187
0.53899533
0.49489017
0.45701479
0.4258211
0.40658307
0.41096725
0.44612069
0.50114088
0.56032253
0.61493445
0.66096289
0.69825978
0.72908907
0.7571388
0.78473251
0.8132277
0.84395909
0.8765255
0.90970607
0.94135995
0.97021121
0.99575543
1.0184504
1.0391343
1.0578693
1.0751145
1.0912768
1.1070106
1.1226474
1.1379977
1.1534118
1.1689954
1.1849757
1.2011419
1.2164563
1.2301734
1.2418228
1.2514578
1.2598922
1.2680039
1.2766525
1.2866765
1.2980997
1.3103584
1.322182
1.3319991
1.3396223
1.3457297
1.3520213
1.3599865
1.3698348
1.3809783
1.3923656
1.4031095
1.4132171
1.4233345
1.4340806
1.4461262
1.459306
1.4732377
1.4875962
1.5020549
1.5165395
1.5313392
1.5465579
1.5623917
1.5788093
1.5952702
1.611573
1.6277737
1.6437725
1.6597596
1.6758846
1.6916702
1.7067234
1.7208896
1.734399
1.7480682
1.7621507
1.7759559
1.7891386
1.8017948
1.8137993
1.8251758
1.8359241
1.8459282
1.8551078
1.8636319
1.8715921
1.878949
1.8857818
1.8921489
1.8977281
1.9025913
1.9068755
1.9105807
1.9137348
1.9172132
1.9209619
1.923765
1.9261999
1.9281373
1.9294825
1.930912
1.9335535
1.9364571
1.9386652
1.9406522
1.9421268
1.9429543
1.9443208
1.9473029
1.9502701
1.9527244
1.9552038
1.957235
1.9585632
1.9601726
1.9630109
1.9661028
1.9688086
1.9712854
1.9733613
1.9749655
1.976604
1.9798331
1.9841651
1.987787
1.9912576
1.9943762
1.9971754
1.9996305
2.0029386
2.0075166
2.0117295
2.0156924
2.0193445
2.0227889
2.0260053
2.0289349
2.0324024
2.0366067
2.0405935
2.0446507
2.0480245
2.0510376
2.0541959
2.0571705
2.060647
2.0649708
2.0688011
2.0725173
2.0759676
2.079249
2.0823043
2.0851136
2.0882989
2.0921449
2.0957761
2.0992135
2.1024451
2.1054863
2.1083467
2.1109978
2.1134835
2.1163538
2.1196056
2.1225013
2.1252766
2.1278382
2.130231
2.1324559
2.1344859
2.1363252
2.1385605
2.1412823
2.1437045
2.1460342
2.1481652
2.1501444
2.1519631
2.1536256
2.1551219
2.1566491
2.1584024
2.1601234
2.1616814
2.1631167
2.1644021
2.1655369
2.1665477
2.1674297
2.1681505
2.1688537
2.1697
2.1705063
2.171168
2.1717183
2.1721478
2.1724576
2.1726514
2.1727462
2.1727309
2.1725998
2.1726061
2.1728343
2.1729116
2.1729008
2.1727706
2.1725463
2.172222
2.1717975
2.1712806
2.1706776
2.1699761
2.1692383
2.1685462
2.1678181
2.1669886
2.1660781
2.1650799
2.1640033
2.1628425
2.1616054
2.1602939
2.1589067
2.1574538
2.1559597
2.1545357
2.1531755
2.1517074
2.150187
2.1485996
2.1469564
2.1452523
2.1434933
2.1416802
2.1398177
2.1379054
2.1359446
2.1339305
2.1318906
2.1298945
2.127924
2.1258937
2.1238221
2.1217025
2.1195447
2.1173444
2.1151046
2.1128301
2.1105213
2.1081769
2.1058024
2.103401
2.1009691
2.0985097
2.0960417
2.0935915
2.091141
2.0886563
2.0861473
2.0836127
2.0810555
2.0784763
2.0758769
2.0732587
2.0706234
2.0679711
2.0653048
2.0626269
2.059939
2.0572415
2.0545427
2.0518587
2.0491655
2.0464537
0.91680135
0.9364205
0.95334718
0.9666724
0.97509101
0.97658131
0.96770789
0.94337287
0.89931015
0.84096304
0.79256192
0.78182393
0.80494623
0.83894792
0.875559
0.91464223
0.95580762
0.99893141
1.0440258
1.0913713
1.1412151
1.1936571
1.2487548
1.3069196
1.3691749
1.4353497
1.5047473
1.5761378
1.6476065
1.7163027
1.7792621
1.8340947
1.8782021
1.9094346
1.9263097
1.9291771
1.9202512
1.9029092
1.8812764
1.8584994
1.8372061
1.8233931
1.8125508
1.7929989
0.89545946
0.87465171
0.855921
0.83916582
0.82416585
0.81064318
0.79835948
0.78710751
0.77672095
0.76708039
0.75810282
0.7497302
0.74192439
0.73463018
0.72784397
0.72146306
0.71560418
0.70992451
0.70505495
0.69965214
0.69621575
0.68978931
0.68953143
0.68156392
)
;
    }
    Inlet
    {
        type            calculated;
        value           uniform 0;
    }
    Airfoil
    {
        type            calculated;
        value           nonuniform List<scalar> 
527
(
1.5345517
1.812865
1.848485
1.6287034
1.6038829
1.511386
1.4484997
1.4002809
1.3770168
1.3601937
1.3464584
1.3290943
1.3139058
1.2964596
1.2791529
1.2628491
1.2450383
1.2296458
1.2128533
1.198147
1.1820718
1.167425
1.15133
1.1367447
1.1210115
1.1053968
1.0902827
1.0740286
1.0589194
1.0430372
1.0267116
1.0111249
0.9950451
0.97818026
0.96312725
0.94580373
0.92754627
0.91408001
0.89430045
0.87388987
0.85985765
0.83837212
0.8139317
0.79614551
0.77313415
0.74547668
0.71710401
0.70011514
0.66244622
0.61873553
0.60430034
0.55870189
0.49929499
0.44742845
0.43683062
0.35643857
0.32884442
0.34526962
0.38193647
0.45762482
0.53173864
0.55284615
0.59730062
0.66291537
0.71421899
0.73451087
0.76980354
0.83023329
0.87666259
0.89202039
0.91634167
0.98045572
1.0378549
1.0444482
1.0521075
1.1129723
1.1882664
1.1865425
1.1944529
1.224301
1.2855481
1.3128801
1.3142101
1.3168769
1.3614032
1.4168278
1.4106944
1.4151868
1.4297966
1.4762281
1.5088908
1.5053419
1.5054848
1.5304712
1.5854846
1.6060359
1.6015362
1.5982609
1.6283412
1.6899058
1.7040453
1.6978042
1.6927511
1.7181491
1.7767601
1.7937981
1.7862375
1.7810695
1.7956716
1.8472819
1.8776055
1.8684376
1.8639053
1.8630112
1.9035889
1.9537122
1.9411379
1.938328
1.9337787
1.9542705
1.9982797
2.0072067
2.0034843
2.0006124
2.0004167
2.0306625
2.0699843
2.0616813
2.0605645
2.0560441
2.0680759
2.1156056
2.1481575
2.1387007
2.1337926
2.1246685
2.1496989
2.2214851
2.2496589
2.2359696
2.2273317
2.214633
2.241733
2.3212281
2.3494553
2.332712
2.3251124
2.3156093
2.326015
2.3732494
2.4008875
2.3884852
2.3854851
2.3823449
2.3823974
2.3966713
2.4132764
2.4094338
2.4098306
2.4053612
2.3981089
2.4282045
2.4871209
2.4885816
2.4780281
2.4653472
2.4339287
2.4359569
2.6177318
2.7943866
2.7091887
2.6805539
2.6340187
2.5717241
2.6602825
2.991582
3.1440455
3.0106729
2.9616267
2.8830852
2.7860652
2.9461806
3.3413832
3.4123471
3.2887598
3.2255933
3.1422513
3.0495281
3.1687875
3.4961743
3.5647241
3.4361434
3.3683673
3.2810454
3.1639298
3.2161003
3.6554713
3.9026873
3.6843843
3.6081935
3.5219744
3.4146617
3.3405415
3.6390358
3.972793
3.8484081
3.7445518
3.6642411
3.5906759
3.5012898
3.4867391
3.7693941
3.9643172
3.7746853
3.7120403
3.6346372
3.5641321
3.4760714
3.4914432
3.8385458
4.04372
3.8305819
3.7681415
3.6881253
3.6232146
3.548754
3.5391791
3.7780515
3.9875885
3.8761188
3.7853113
3.7148014
3.6529148
3.5939853
3.5430187
3.5896984
3.8229937
3.9223252
3.7629217
3.710148
3.6410638
3.585581
3.5323731
3.492208
3.5648992
3.8452989
3.9607043
3.7838452
3.7365457
3.6710338
3.6233052
3.579401
3.5479428
3.5616049
3.6840547
3.8029916
3.7588902
3.6809349
3.6352262
3.5897186
3.5516107
3.5205862
3.5031987
3.5262851
3.6307325
3.7261769
3.6881517
3.6173505
3.5748228
3.5307762
3.4933227
3.4647887
3.4511384
3.4613049
3.5459423
3.73817
3.8130996
3.6993445
3.6598249
3.6124864
3.5779927
3.5463143
3.5217756
3.5055982
3.5018423
3.5228623
3.5850964
3.6409839
3.6179118
3.5663128
3.5380617
3.5075607
3.482344
3.4601557
3.4443893
3.4383489
3.4443849
3.4680509
3.5297968
3.6240883
3.6361365
3.5597696
3.5361557
3.5001409
3.4739479
3.4487637
3.4284455
3.4133138
3.4060372
3.4087624
3.4231194
3.4555961
3.5167676
3.5772967
3.560369
3.494914
3.4643953
3.4256742
3.3943471
3.363514
3.3358137
3.3107413
3.2890705
3.2718266
3.260386
3.2556143
3.2584675
3.2727836
3.3021834
3.3227855
3.2999844
3.2615592
3.2441737
3.2286201
3.224044
3.2280918
3.2423034
3.2674724
3.3046811
3.3547342
3.4184146
3.4968273
3.590037
3.6943388
3.8086764
3.9457742
4.0932778
4.1507599
4.2071878
1.8211941
1.7406159
1.7550113
1.7074078
1.6585226
1.6274609
1.5767367
1.5449928
1.5394109
1.5282473
1.5179959
1.5110392
1.5100278
1.5118237
1.5099825
1.509492
1.5000119
1.4854215
1.4785378
1.4716557
1.4591449
1.4504502
1.4487706
1.4405584
1.4333613
1.4355144
1.4265324
1.4142193
1.4128404
1.4012846
1.3911049
1.3925988
1.3864623
1.3773905
1.3770079
1.3650283
1.3506229
1.348086
1.3391169
1.329981
1.3272304
1.3190138
1.303762
1.2905588
1.277652
1.2502305
1.2202608
1.1945568
1.1618031
1.1380444
1.1205329
1.104635
1.0867184
1.0894917
1.1043551
1.1096216
1.1244745
1.1477675
1.1739756
1.203243
1.2332482
1.2698043
1.3016959
1.3612739
1.398306
1.5530096
1.4095637
2.0098124
2.1725204
4.1497114
3.487984
3.4567102
3.6664566
4.5621997
3.831164
1.3023699
1.2600666
1.4165995
0.78703563
0.46889617
1.0590683
1.3413154
1.6290101
1.7787229
1.7815542
1.7923109
1.9113959
1.8492593
1.7731341
1.8741903
1.062687
1.289034
1.5402067
1.8267241
1.9582804
2.0252622
2.231074
2.4193503
2.8711982
3.053708
2.7646371
2.7166382
2.9404627
3.2537398
3.2405083
3.1744343
3.4249755
3.6537449
4.458342
4.1132057
3.147504
3.2402559
3.6297109
4.2199737
3.8526494
3.2114789
3.381525
3.6878771
4.3969294
0.54992855
0.7812463
1.1871659
1.5716222
1.7895971
2.0246977
2.3000543
2.6213313
2.9333567
3.5538612
3.4589763
3.275213
3.3494071
3.5886021
3.8481779
4.2676698
4.2402516
4.1534918
4.1999335
4.3742503
4.6119504
4.9184385
5.2253846
5.8786016
4.9712179
4.2813292
3.9079051
3.8775032
3.9987907
4.2084433
4.4610209
4.8077965
4.7764783
4.0578453
3.5216065
3.2611867
3.188381
3.231618
3.3616814
3.5229983
3.6967549
3.8774519
4.0985444
4.0934806
3.369992
2.8437537
2.5260571
2.3706868
2.2997918
2.2827231
2.3050489
2.3409528
2.393026
2.4623411
2.5451171
2.6381565
2.7513983
2.867236
2.8764531
)
;
    }
    Outlet
    {
        type            calculated;
        value           uniform 0;
    }
}


// ************************************************************************* //
