/*--------------------------------*- C++ -*----------------------------------*\
| =========                 |                                                 |
| \\      /  F ield         | OpenFOAM: The Open Source CFD Toolbox           |
|  \\    /   O peration     | Version:  v2006                                 |
|   \\  /    A nd           | Website:  www.openfoam.com                      |
|    \\/     M anipulation  |                                                 |
\*---------------------------------------------------------------------------*/
FoamFile
{
    version     2.0;
    format      ascii;
    class       volScalarField;
    location    "3000";
    object      alphat;
}
// * * * * * * * * * * * * * * * * * * * * * * * * * * * * * * * * * * * * * //

dimensions      [1 -1 -1 0 0 0 0];


internalField   nonuniform List<scalar> 
55713
(
2.8865102e-10
2.8853208e-09
2.8902585e-08
6.9324982e-08
8.9614457e-08
9.5669152e-08
9.5901782e-08
9.5050403e-08
9.4488954e-08
9.4284614e-08
9.4252048e-08
9.426335e-08
9.4273287e-08
9.4275307e-08
9.4273716e-08
9.4272889e-08
9.4273119e-08
9.427355e-08
9.4274624e-08
9.42766e-08
9.4278234e-08
9.4278765e-08
9.4278229e-08
9.4277572e-08
9.4277185e-08
9.4277107e-08
9.4277081e-08
9.4277e-08
9.4276849e-08
9.4276658e-08
9.4276445e-08
9.4276207e-08
9.4275973e-08
9.4275785e-08
9.4275759e-08
9.4275963e-08
9.4276088e-08
9.4275811e-08
9.4275201e-08
9.4274326e-08
9.4273339e-08
9.4272344e-08
9.4271315e-08
9.4270237e-08
9.4269181e-08
9.4268215e-08
9.4267353e-08
9.4266538e-08
9.4265716e-08
9.4264847e-08
9.4263904e-08
9.4262858e-08
9.4261731e-08
9.4260582e-08
9.4259464e-08
9.4258369e-08
9.4257281e-08
9.4256127e-08
9.4254879e-08
3.4717119e-10
4.1846642e-09
3.5940721e-08
7.6176627e-08
9.3054382e-08
9.6974554e-08
9.6595716e-08
9.576587e-08
9.5335679e-08
9.5211911e-08
9.5206093e-08
9.5219011e-08
9.5225262e-08
9.5224269e-08
9.5221843e-08
9.5221039e-08
9.5221181e-08
9.5221305e-08
9.5222173e-08
9.5223856e-08
9.5224918e-08
9.522463e-08
9.5223747e-08
9.5222818e-08
9.5222164e-08
9.5221777e-08
9.5221398e-08
9.5220977e-08
9.5220481e-08
9.5219954e-08
9.5219403e-08
9.5218826e-08
9.5218239e-08
9.5217681e-08
9.5217272e-08
9.5217193e-08
9.5217119e-08
9.5216529e-08
9.5215589e-08
9.5214355e-08
9.5212979e-08
9.5211607e-08
9.5210207e-08
9.5208729e-08
9.5207232e-08
9.5205824e-08
9.5204523e-08
9.5203269e-08
9.5201996e-08
9.5200667e-08
9.519924e-08
9.5197673e-08
9.5195967e-08
9.5194186e-08
9.5192387e-08
9.5190561e-08
9.5188675e-08
9.5186647e-08
9.5184436e-08
4.3102952e-10
5.8803783e-09
4.3432472e-08
8.2292521e-08
9.5730655e-08
9.8040335e-08
9.7316399e-08
9.6573377e-08
9.6264542e-08
9.6200659e-08
9.6209198e-08
9.6220467e-08
9.6222431e-08
9.6219506e-08
9.6216901e-08
9.6216156e-08
9.6216141e-08
9.6216074e-08
9.6216677e-08
9.6217769e-08
9.6218044e-08
9.6217256e-08
9.6216077e-08
9.6214891e-08
9.6213983e-08
9.6213298e-08
9.6212579e-08
9.6211835e-08
9.6211017e-08
9.621018e-08
9.6209317e-08
9.6208417e-08
9.6207499e-08
9.6206597e-08
9.6205813e-08
9.620541e-08
9.6205219e-08
9.6204354e-08
9.6203108e-08
9.6201535e-08
9.6199783e-08
9.6198052e-08
9.6196317e-08
9.6194477e-08
9.6192575e-08
9.6190755e-08
9.618905e-08
9.6187393e-08
9.618571e-08
9.6183961e-08
9.6182096e-08
9.6180061e-08
9.6177837e-08
9.617548e-08
9.6173066e-08
9.6170581e-08
9.616798e-08
9.6165165e-08
9.6162075e-08
5.525423e-10
8.1990971e-09
5.1576596e-08
8.7803825e-08
9.7965109e-08
9.8988758e-08
9.8090741e-08
9.7478472e-08
9.7278696e-08
9.7256377e-08
9.7270197e-08
9.7276884e-08
9.7275499e-08
9.7271785e-08
9.726925e-08
9.7268474e-08
9.7268232e-08
9.7267978e-08
9.7268324e-08
9.7268802e-08
9.7268359e-08
9.7267095e-08
9.726566e-08
9.7264238e-08
9.7263099e-08
9.7262118e-08
9.7261088e-08
9.7260044e-08
9.7258935e-08
9.7257812e-08
9.7256661e-08
9.7255473e-08
9.7254268e-08
9.7253055e-08
9.7251922e-08
9.725116e-08
9.7250899e-08
9.7249826e-08
9.7248316e-08
9.7246423e-08
9.7244324e-08
9.7242253e-08
9.7240223e-08
9.7238059e-08
9.7235797e-08
9.7233599e-08
9.7231535e-08
9.7229512e-08
9.722746e-08
9.7225321e-08
9.7223063e-08
9.7220606e-08
9.7217923e-08
9.7215039e-08
9.7212065e-08
9.7208979e-08
9.7205732e-08
9.7202199e-08
9.7198308e-08
7.2914446e-10
1.1288023e-08
6.0074955e-08
9.2555668e-08
9.9794286e-08
9.9876222e-08
9.8952243e-08
9.8490035e-08
9.8377255e-08
9.8379373e-08
9.8391501e-08
9.8393348e-08
9.8390099e-08
9.8386188e-08
9.8383777e-08
9.8382877e-08
9.8382363e-08
9.8381971e-08
9.8382041e-08
9.8381856e-08
9.8380752e-08
9.837911e-08
9.837745e-08
9.837583e-08
9.8374475e-08
9.8373211e-08
9.8371899e-08
9.837058e-08
9.8369207e-08
9.8367834e-08
9.8366421e-08
9.8364977e-08
9.8363512e-08
9.8362024e-08
9.836059e-08
9.8359467e-08
9.8359116e-08
9.8357977e-08
9.8356241e-08
9.8354065e-08
9.8351644e-08
9.834925e-08
9.8346964e-08
9.8344533e-08
9.8341957e-08
9.8339425e-08
9.8337048e-08
9.833471e-08
9.8332339e-08
9.8329861e-08
9.8327261e-08
9.832445e-08
9.8321382e-08
9.8318046e-08
9.8314582e-08
9.831098e-08
9.8307174e-08
9.8303028e-08
9.8298437e-08
9.8786198e-10
1.5341923e-08
6.8652856e-08
9.6139451e-08
1.0132054e-07
1.0076569e-07
9.9925473e-08
9.9610692e-08
9.9560019e-08
9.957245e-08
9.9579215e-08
9.9577847e-08
9.9573755e-08
9.9569883e-08
9.9567594e-08
9.9566478e-08
9.9565668e-08
9.9565194e-08
9.9564949e-08
9.9564115e-08
9.9562451e-08
9.9560518e-08
9.9558643e-08
9.9556871e-08
9.9555312e-08
9.9553801e-08
9.955224e-08
9.9550689e-08
9.9549084e-08
9.9547495e-08
9.9545853e-08
9.9544195e-08
9.9542509e-08
9.9540797e-08
9.9539103e-08
9.9537648e-08
9.9537109e-08
9.9536118e-08
9.9534203e-08
9.9531802e-08
9.952908e-08
9.9526385e-08
9.9523879e-08
9.9521257e-08
9.9518421e-08
9.951561e-08
9.951297e-08
9.951038e-08
9.9507748e-08
9.9504999e-08
9.9502116e-08
9.9499028e-08
9.9495659e-08
9.9491965e-08
9.948809e-08
9.9484074e-08
9.9479808e-08
9.9475173e-08
9.9469997e-08
1.371103e-09
2.0573466e-08
7.6911089e-08
9.9021933e-08
1.0256222e-07
1.016973e-07
1.010287e-07
1.0084075e-07
1.0082826e-07
1.0084033e-07
1.0084211e-07
1.0083889e-07
1.0083458e-07
1.0083087e-07
1.0082867e-07
1.0082729e-07
1.0082619e-07
1.0082565e-07
1.0082503e-07
1.0082361e-07
1.0082154e-07
1.0081939e-07
1.0081732e-07
1.0081543e-07
1.0081369e-07
1.0081198e-07
1.0081021e-07
1.0080848e-07
1.0080669e-07
1.0080493e-07
1.0080311e-07
1.0080128e-07
1.0079942e-07
1.0079754e-07
1.0079565e-07
1.0079392e-07
1.0079309e-07
1.0079243e-07
1.0079044e-07
1.0078788e-07
1.007849e-07
1.0078191e-07
1.0077923e-07
1.0077651e-07
1.007735e-07
1.0077047e-07
1.0076764e-07
1.0076487e-07
1.0076206e-07
1.0075911e-07
1.0075603e-07
1.0075275e-07
1.0074919e-07
1.0074525e-07
1.0074107e-07
1.0073675e-07
1.0073216e-07
1.0072718e-07
1.0072157e-07
1.9514137e-09
2.720785e-08
8.5011469e-08
1.0204472e-07
1.0365852e-07
1.0274161e-07
1.0227416e-07
1.021788e-07
1.0218556e-07
1.0219224e-07
1.0219038e-07
1.0218639e-07
1.0218221e-07
1.0217871e-07
1.0217659e-07
1.0217494e-07
1.0217357e-07
1.0217288e-07
1.0217184e-07
1.0216996e-07
1.0216766e-07
1.0216534e-07
1.0216314e-07
1.0216117e-07
1.0215928e-07
1.0215741e-07
1.0215551e-07
1.0215364e-07
1.0215172e-07
1.0214984e-07
1.021479e-07
1.0214597e-07
1.02144e-07
1.02142e-07
1.0213999e-07
1.0213805e-07
1.0213695e-07
1.0213658e-07
1.021348e-07
1.0213213e-07
1.0212895e-07
1.0212568e-07
1.0212288e-07
1.0212016e-07
1.0211709e-07
1.0211391e-07
1.0211099e-07
1.0210812e-07
1.0210523e-07
1.0210219e-07
1.0209901e-07
1.0209563e-07
1.0209201e-07
1.0208797e-07
1.0208361e-07
1.0207915e-07
1.0207439e-07
1.0206923e-07
1.0206337e-07
2.8749927e-09
3.5457489e-08
9.2217634e-08
1.043384e-07
1.0476772e-07
1.0396102e-07
1.0366427e-07
1.0362784e-07
1.0363808e-07
1.0363955e-07
1.0363587e-07
1.0363192e-07
1.0362802e-07
1.0362479e-07
1.0362272e-07
1.0362087e-07
1.0361922e-07
1.0361821e-07
1.0361675e-07
1.0361462e-07
1.0361222e-07
1.0360983e-07
1.0360759e-07
1.0360556e-07
1.0360359e-07
1.0360163e-07
1.0359966e-07
1.0359772e-07
1.0359575e-07
1.0359382e-07
1.0359182e-07
1.0358986e-07
1.0358785e-07
1.0358583e-07
1.0358376e-07
1.0358172e-07
1.0358036e-07
1.0358015e-07
1.03579e-07
1.0357632e-07
1.0357297e-07
1.0356945e-07
1.0356655e-07
1.0356397e-07
1.0356097e-07
1.0355776e-07
1.0355485e-07
1.0355199e-07
1.0354916e-07
1.0354615e-07
1.0354299e-07
1.0353965e-07
1.0353612e-07
1.0353215e-07
1.0352778e-07
1.0352334e-07
1.0351862e-07
1.0351351e-07
1.0350762e-07
4.4764876e-09
4.5475094e-08
9.8584173e-08
1.0633339e-07
1.0599374e-07
1.0535986e-07
1.0519655e-07
1.051926e-07
1.0519906e-07
1.0519674e-07
1.0519238e-07
1.0518901e-07
1.0518542e-07
1.0518255e-07
1.0518053e-07
1.0517862e-07
1.0517662e-07
1.0517515e-07
1.0517336e-07
1.0517116e-07
1.0516877e-07
1.0516642e-07
1.0516425e-07
1.0516223e-07
1.0516025e-07
1.0515829e-07
1.0515634e-07
1.0515441e-07
1.0515247e-07
1.0515056e-07
1.0514861e-07
1.051467e-07
1.0514475e-07
1.051428e-07
1.051408e-07
1.0513876e-07
1.0513721e-07
1.0513699e-07
1.051369e-07
1.0513438e-07
1.0513091e-07
1.0512716e-07
1.0512418e-07
1.0512195e-07
1.0511915e-07
1.0511603e-07
1.0511329e-07
1.0511059e-07
1.05108e-07
1.0510518e-07
1.0510219e-07
1.0509905e-07
1.0509578e-07
1.0509213e-07
1.0508794e-07
1.0508375e-07
1.0507932e-07
1.050745e-07
1.0506888e-07
7.1840249e-09
5.72839e-08
1.0383359e-07
1.081034e-07
1.0738203e-07
1.0694844e-07
1.0687572e-07
1.0688339e-07
1.0688402e-07
1.0687986e-07
1.0687593e-07
1.0687329e-07
1.0687003e-07
1.0686765e-07
1.0686569e-07
1.0686386e-07
1.0686157e-07
1.0685968e-07
1.0685762e-07
1.0685544e-07
1.068532e-07
1.0685105e-07
1.0684905e-07
1.0684714e-07
1.0684526e-07
1.0684341e-07
1.0684158e-07
1.0683977e-07
1.0683797e-07
1.0683619e-07
1.068344e-07
1.0683264e-07
1.0683086e-07
1.068291e-07
1.068273e-07
1.0682543e-07
1.0682385e-07
1.0682358e-07
1.0682448e-07
1.0682265e-07
1.0681909e-07
1.0681518e-07
1.0681223e-07
1.0681051e-07
1.0680815e-07
1.0680525e-07
1.0680289e-07
1.0680052e-07
1.067984e-07
1.0679591e-07
1.0679331e-07
1.0679056e-07
1.0678778e-07
1.0678469e-07
1.0678097e-07
1.0677729e-07
1.0677348e-07
1.0676926e-07
1.0676425e-07
1.1047809e-08
7.0813502e-08
1.0728842e-07
1.0970579e-07
1.0897484e-07
1.0873105e-07
1.0870835e-07
1.0871506e-07
1.0871184e-07
1.0870757e-07
1.0870464e-07
1.087025e-07
1.0869973e-07
1.0869792e-07
1.08696e-07
1.086944e-07
1.0869239e-07
1.0869028e-07
1.0868792e-07
1.0868581e-07
1.0868391e-07
1.0868212e-07
1.086804e-07
1.0867872e-07
1.0867709e-07
1.0867548e-07
1.0867391e-07
1.0867235e-07
1.0867083e-07
1.0866931e-07
1.0866783e-07
1.0866635e-07
1.0866489e-07
1.0866343e-07
1.0866199e-07
1.0866049e-07
1.0865911e-07
1.0865887e-07
1.0866041e-07
1.0865996e-07
1.0865645e-07
1.0865241e-07
1.0864979e-07
1.0864872e-07
1.0864716e-07
1.0864463e-07
1.0864285e-07
1.0864105e-07
1.0863957e-07
1.0863756e-07
1.086356e-07
1.0863349e-07
1.0863145e-07
1.0862919e-07
1.0862635e-07
1.0862344e-07
1.0862064e-07
1.0861736e-07
1.0861341e-07
1.6817252e-08
8.6000589e-08
1.09599e-07
1.1121126e-07
1.1079359e-07
1.1070449e-07
1.1070178e-07
1.1070356e-07
1.1069966e-07
1.1069649e-07
1.1069448e-07
1.1069273e-07
1.106906e-07
1.1068939e-07
1.1068752e-07
1.1068634e-07
1.1068572e-07
1.1068364e-07
1.1068106e-07
1.1067928e-07
1.1067787e-07
1.1067654e-07
1.1067523e-07
1.1067397e-07
1.1067274e-07
1.1067155e-07
1.1067041e-07
1.1066928e-07
1.106682e-07
1.1066712e-07
1.1066611e-07
1.1066508e-07
1.1066412e-07
1.1066313e-07
1.1066222e-07
1.1066127e-07
1.1066044e-07
1.1066036e-07
1.1066209e-07
1.1066359e-07
1.1066041e-07
1.1065641e-07
1.1065455e-07
1.1065431e-07
1.1065386e-07
1.1065187e-07
1.1065092e-07
1.1064983e-07
1.1064898e-07
1.1064777e-07
1.1064672e-07
1.1064553e-07
1.1064448e-07
1.1064336e-07
1.1064175e-07
1.1063995e-07
1.1063854e-07
1.106366e-07
1.1063417e-07
2.4875805e-08
1.0252783e-07
1.1277076e-07
1.1294247e-07
1.1284878e-07
1.128434e-07
1.1284403e-07
1.1284335e-07
1.1284073e-07
1.1283959e-07
1.1283842e-07
1.128374e-07
1.128361e-07
1.1283534e-07
1.1283398e-07
1.128334e-07
1.1283408e-07
1.1283306e-07
1.1283104e-07
1.1282992e-07
1.1282914e-07
1.1282844e-07
1.1282778e-07
1.1282716e-07
1.1282657e-07
1.1282602e-07
1.128255e-07
1.1282502e-07
1.1282456e-07
1.1282415e-07
1.1282377e-07
1.128234e-07
1.1282309e-07
1.1282278e-07
1.1282252e-07
1.1282228e-07
1.1282213e-07
1.1282237e-07
1.128241e-07
1.1282591e-07
1.1282379e-07
1.1282148e-07
1.1282095e-07
1.1282128e-07
1.1282166e-07
1.1282096e-07
1.1282115e-07
1.1282083e-07
1.1282074e-07
1.1282074e-07
1.1282075e-07
1.1282071e-07
1.1282077e-07
1.1282091e-07
1.1282086e-07
1.1282054e-07
1.1282074e-07
1.1282041e-07
1.1282001e-07
8.5589587e-08
8.5587833e-08
8.5586623e-08
8.5587896e-08
8.5588621e-08
8.5589573e-08
8.5590486e-08
8.5591436e-08
8.5592408e-08
8.5593393e-08
8.559437e-08
8.5595328e-08
8.5596252e-08
8.559715e-08
8.5598021e-08
8.5598886e-08
8.5599767e-08
8.5600695e-08
8.5601654e-08
8.56026e-08
8.560348e-08
8.5604252e-08
8.5604851e-08
8.5605224e-08
8.5605364e-08
8.5605354e-08
8.5605294e-08
8.5605261e-08
8.5605263e-08
8.5605273e-08
8.5605263e-08
8.5605258e-08
8.5605325e-08
8.5605471e-08
8.5605509e-08
8.5605146e-08
8.5604249e-08
8.5603004e-08
8.5601815e-08
8.5600996e-08
8.5600162e-08
8.5597671e-08
8.5591573e-08
8.5584675e-08
8.5595094e-08
8.5667613e-08
8.5868772e-08
8.6236244e-08
8.6652177e-08
8.6636184e-08
8.5108507e-08
8.0248297e-08
6.9392342e-08
5.0671293e-08
2.703484e-08
8.6362831e-09
1.6481288e-09
4.7374707e-10
6.4014677e-10
8.5879594e-08
8.5878082e-08
8.5877849e-08
8.5878906e-08
8.5879757e-08
8.588068e-08
8.5881609e-08
8.5882564e-08
8.5883538e-08
8.5884521e-08
8.5885492e-08
8.5886441e-08
8.5887355e-08
8.5888242e-08
8.5889105e-08
8.5889966e-08
8.5890848e-08
8.5891779e-08
8.5892738e-08
8.5893679e-08
8.589455e-08
8.589531e-08
8.5895894e-08
8.5896249e-08
8.5896378e-08
8.5896361e-08
8.5896301e-08
8.5896269e-08
8.589627e-08
8.5896276e-08
8.5896261e-08
8.5896251e-08
8.5896308e-08
8.5896437e-08
8.5896464e-08
8.5896107e-08
8.5895227e-08
8.5894002e-08
8.5892805e-08
8.5891883e-08
8.5890829e-08
8.5888208e-08
8.5882562e-08
8.5876897e-08
8.5888004e-08
8.5956879e-08
8.6145777e-08
8.6495325e-08
8.6910696e-08
8.6964485e-08
8.5649967e-08
8.1176609e-08
7.101567e-08
5.289306e-08
2.9081482e-08
9.6348623e-09
1.7928502e-09
4.4047308e-10
5.7336249e-10
8.619873e-08
8.6197418e-08
8.6197556e-08
8.6198546e-08
8.6199445e-08
8.620037e-08
8.6201312e-08
8.6202277e-08
8.6203258e-08
8.6204246e-08
8.6205219e-08
8.6206167e-08
8.6207078e-08
8.620796e-08
8.6208818e-08
8.6209675e-08
8.6210556e-08
8.6211485e-08
8.6212442e-08
8.6213378e-08
8.6214242e-08
8.6214994e-08
8.6215567e-08
8.6215913e-08
8.6216038e-08
8.6216022e-08
8.6215963e-08
8.6215932e-08
8.6215933e-08
8.6215938e-08
8.6215919e-08
8.6215896e-08
8.6215936e-08
8.6216069e-08
8.6216142e-08
8.6215857e-08
8.6215024e-08
8.6213782e-08
8.621252e-08
8.6211593e-08
8.6210808e-08
8.6208883e-08
8.6203876e-08
8.6196678e-08
8.619964e-08
8.6248506e-08
8.640559e-08
8.6728708e-08
8.7171123e-08
8.7389559e-08
8.6482078e-08
8.2743505e-08
7.3611136e-08
5.6346437e-08
3.2232659e-08
1.1164114e-08
2.0300097e-09
4.2076736e-10
5.0760882e-10
8.6550433e-08
8.6549384e-08
8.6549887e-08
8.6550827e-08
8.6551761e-08
8.6552689e-08
8.655364e-08
8.6554612e-08
8.6555597e-08
8.6556587e-08
8.6557558e-08
8.6558499e-08
8.6559401e-08
8.6560274e-08
8.6561125e-08
8.6561977e-08
8.6562854e-08
8.6563782e-08
8.6564735e-08
8.6565664e-08
8.6566519e-08
8.6567259e-08
8.6567819e-08
8.656815e-08
8.6568267e-08
8.6568247e-08
8.6568189e-08
8.6568159e-08
8.6568161e-08
8.6568165e-08
8.6568143e-08
8.6568109e-08
8.6568132e-08
8.6568258e-08
8.6568362e-08
8.6568139e-08
8.6567361e-08
8.656612e-08
8.6564799e-08
8.6563804e-08
8.6563094e-08
8.6561626e-08
8.655745e-08
8.6550292e-08
8.6548997e-08
8.6583536e-08
8.6712405e-08
8.7002348e-08
8.7444491e-08
8.7774062e-08
8.7197995e-08
8.4110663e-08
7.5978078e-08
5.9696799e-08
3.5539889e-08
1.2903078e-08
2.3452808e-09
4.1172505e-10
4.5294355e-10
8.6938676e-08
8.6937967e-08
8.6938703e-08
8.6939627e-08
8.6940576e-08
8.6941512e-08
8.6942468e-08
8.6943447e-08
8.6944434e-08
8.6945421e-08
8.6946386e-08
8.6947318e-08
8.6948208e-08
8.6949068e-08
8.694991e-08
8.6950755e-08
8.6951628e-08
8.695255e-08
8.6953497e-08
8.6954416e-08
8.695526e-08
8.6955986e-08
8.6956529e-08
8.6956844e-08
8.6956949e-08
8.6956923e-08
8.6956864e-08
8.6956836e-08
8.6956839e-08
8.6956843e-08
8.6956819e-08
8.6956775e-08
8.695678e-08
8.6956897e-08
8.6957031e-08
8.6956879e-08
8.6956166e-08
8.6954934e-08
8.6953555e-08
8.6952485e-08
8.6951835e-08
8.6950801e-08
8.6947481e-08
8.6940596e-08
8.6935639e-08
8.6956606e-08
8.7056822e-08
8.7309013e-08
8.7738762e-08
8.816047e-08
8.7901135e-08
8.5473871e-08
7.8394878e-08
6.3256747e-08
3.9274224e-08
1.4997473e-08
2.770411e-09
4.1366759e-10
4.02522e-10
8.7368135e-08
8.7367848e-08
8.736872e-08
8.7369644e-08
8.7370598e-08
8.7371541e-08
8.73725e-08
8.7373479e-08
8.7374464e-08
8.7375445e-08
8.7376399e-08
8.7377315e-08
8.7378189e-08
8.7379034e-08
8.7379864e-08
8.73807e-08
8.7381565e-08
8.7382481e-08
8.7383419e-08
8.7384324e-08
8.7385154e-08
8.7385864e-08
8.7386386e-08
8.7386681e-08
8.738677e-08
8.7386734e-08
8.7386673e-08
8.7386646e-08
8.7386651e-08
8.7386656e-08
8.7386631e-08
8.7386579e-08
8.7386565e-08
8.7386668e-08
8.7386828e-08
8.7386752e-08
8.7386118e-08
8.7384909e-08
8.7383473e-08
8.7382307e-08
8.7381654e-08
8.7380961e-08
8.7378522e-08
8.7372439e-08
8.7365334e-08
8.7375176e-08
8.7448344e-08
8.765896e-08
8.8060384e-08
8.8542181e-08
8.8559332e-08
8.6765956e-08
8.075396e-08
6.6925452e-08
4.3386257e-08
1.7488427e-08
3.3205524e-09
4.3008057e-10
3.6037136e-10
8.784441e-08
8.7844465e-08
8.7845425e-08
8.7846362e-08
8.7847316e-08
8.7848262e-08
8.784922e-08
8.7850195e-08
8.7851172e-08
8.785214e-08
8.7853077e-08
8.7853972e-08
8.7854824e-08
8.7855648e-08
8.7856464e-08
8.7857287e-08
8.7858143e-08
8.7859049e-08
8.7859974e-08
8.7860862e-08
8.7861675e-08
8.7862363e-08
8.786286e-08
8.7863129e-08
8.7863197e-08
8.7863147e-08
8.7863081e-08
8.7863056e-08
8.7863063e-08
8.786307e-08
8.7863044e-08
8.7862986e-08
8.7862954e-08
8.7863039e-08
8.786322e-08
8.7863223e-08
8.7862685e-08
8.7861517e-08
8.7860031e-08
8.7858757e-08
8.7858051e-08
8.7857602e-08
8.785598e-08
8.7851009e-08
8.784298e-08
8.7844138e-08
8.7892714e-08
8.8060044e-08
8.841995e-08
8.8930476e-08
8.9179021e-08
8.7986475e-08
8.2988387e-08
7.0681691e-08
4.7898829e-08
2.0485979e-08
4.044333e-09
4.6250535e-10
3.2370598e-10
8.8373999e-08
8.8374331e-08
8.8375328e-08
8.8376274e-08
8.8377221e-08
8.8378163e-08
8.8379114e-08
8.8380078e-08
8.8381041e-08
8.8381989e-08
8.8382903e-08
8.838377e-08
8.8384593e-08
8.8385393e-08
8.838619e-08
8.8386998e-08
8.8387841e-08
8.8388733e-08
8.8389642e-08
8.839051e-08
8.8391301e-08
8.8391963e-08
8.8392428e-08
8.8392666e-08
8.8392706e-08
8.8392635e-08
8.8392563e-08
8.839254e-08
8.8392549e-08
8.8392558e-08
8.8392534e-08
8.8392471e-08
8.8392421e-08
8.8392485e-08
8.8392678e-08
8.8392765e-08
8.8392341e-08
8.8391236e-08
8.8389712e-08
8.8388319e-08
8.8387516e-08
8.8387203e-08
8.8386293e-08
8.83826e-08
8.8374826e-08
8.8369974e-08
8.8397454e-08
8.8521853e-08
8.8829268e-08
8.933645e-08
8.9759932e-08
8.9112542e-08
8.5208157e-08
7.4461925e-08
5.2790599e-08
2.4071425e-08
5.0004297e-09
5.1830154e-10
2.9253661e-10
8.896467e-08
8.8965194e-08
8.8966192e-08
8.8967135e-08
8.8968069e-08
8.8968995e-08
8.8969932e-08
8.8970876e-08
8.8971817e-08
8.8972737e-08
8.8973619e-08
8.897445e-08
8.8975237e-08
8.8976005e-08
8.8976778e-08
8.8977566e-08
8.8978392e-08
8.8979267e-08
8.8980153e-08
8.8980995e-08
8.8981759e-08
8.8982387e-08
8.8982814e-08
8.8983013e-08
8.8983015e-08
8.8982917e-08
8.8982837e-08
8.8982817e-08
8.8982829e-08
8.898284e-08
8.898282e-08
8.8982754e-08
8.8982688e-08
8.8982727e-08
8.8982926e-08
8.8983099e-08
8.8982808e-08
8.8981796e-08
8.8980255e-08
8.897874e-08
8.8977803e-08
8.897752e-08
8.8977144e-08
8.8974775e-08
8.8968159e-08
8.8959949e-08
8.8970675e-08
8.905489e-08
8.9302394e-08
8.9776713e-08
9.0317725e-08
9.0141899e-08
8.7279573e-08
7.8214222e-08
5.8025489e-08
2.8338353e-08
6.2616787e-09
6.0045059e-10
2.6659162e-10
8.9625712e-08
8.9626353e-08
8.9627344e-08
8.9628274e-08
8.9629184e-08
8.9630089e-08
8.9631003e-08
8.963192e-08
8.963283e-08
8.9633712e-08
8.9634551e-08
8.9635333e-08
8.9636073e-08
8.9636799e-08
8.9637539e-08
8.9638301e-08
8.9639105e-08
8.9639957e-08
8.9640812e-08
8.964162e-08
8.9642348e-08
8.9642933e-08
8.9643313e-08
8.9643463e-08
8.9643415e-08
8.9643281e-08
8.9643194e-08
8.9643177e-08
8.9643193e-08
8.9643207e-08
8.964319e-08
8.9643126e-08
8.9643048e-08
8.9643059e-08
8.9643251e-08
8.9643513e-08
8.9643378e-08
8.9642497e-08
8.964097e-08
8.9639334e-08
8.9638238e-08
8.9637898e-08
8.9637857e-08
8.9636666e-08
8.9631827e-08
8.9622678e-08
8.9621541e-08
8.9670694e-08
8.9855293e-08
9.027074e-08
9.0867948e-08
9.1079395e-08
8.9195921e-08
8.1832797e-08
6.3538041e-08
3.3375544e-08
7.9419905e-09
7.2036305e-10
2.4604204e-10
9.0368481e-08
9.0369174e-08
9.0370138e-08
9.0371042e-08
9.037192e-08
9.0372791e-08
9.0373669e-08
9.0374547e-08
9.0375409e-08
9.0376235e-08
9.037701e-08
9.0377726e-08
9.0378401e-08
9.0379071e-08
9.0379767e-08
9.0380494e-08
9.0381268e-08
9.0382085e-08
9.0382897e-08
9.0383658e-08
9.038434e-08
9.038487e-08
9.0385191e-08
9.0385279e-08
9.0385165e-08
9.0384983e-08
9.0384892e-08
9.038488e-08
9.0384897e-08
9.0384913e-08
9.0384903e-08
9.0384843e-08
9.0384759e-08
9.038474e-08
9.0384905e-08
9.0385263e-08
9.0385304e-08
9.0384603e-08
9.0383138e-08
9.0381381e-08
9.0380114e-08
9.0379657e-08
9.0379756e-08
9.0379456e-08
9.0376633e-08
9.0368512e-08
9.0360504e-08
9.038174e-08
9.0505612e-08
9.0843085e-08
9.1435568e-08
9.1931073e-08
9.0931739e-08
8.5105035e-08
6.9234016e-08
3.9251804e-08
1.0191522e-08
8.8961239e-10
2.3164211e-10
9.1206634e-08
9.1207375e-08
9.12083e-08
9.1209167e-08
9.1209997e-08
9.1210822e-08
9.1211649e-08
9.1212471e-08
9.1213265e-08
9.1214011e-08
9.1214697e-08
9.1215325e-08
9.1215916e-08
9.1216514e-08
9.1217151e-08
9.121783e-08
9.1218561e-08
9.1219328e-08
9.1220079e-08
9.122078e-08
9.1221402e-08
9.1221863e-08
9.1222112e-08
9.1222123e-08
9.122192e-08
9.1221671e-08
9.1221584e-08
9.1221581e-08
9.1221598e-08
9.1221617e-08
9.1221613e-08
9.1221563e-08
9.1221479e-08
9.122143e-08
9.1221536e-08
9.1222014e-08
9.122224e-08
9.1221788e-08
9.1220452e-08
9.1218555e-08
9.1217124e-08
9.1216532e-08
9.121661e-08
9.1216865e-08
9.1215832e-08
9.1210094e-08
9.119978e-08
9.1201561e-08
9.1271929e-08
9.1521437e-08
9.2055447e-08
9.2714487e-08
9.2455737e-08
8.8348468e-08
7.4972709e-08
4.5995999e-08
1.3219363e-08
1.1251953e-09
2.2556235e-10
9.2156318e-08
9.2157097e-08
9.2157992e-08
9.2158805e-08
9.2159575e-08
9.2160335e-08
9.2161098e-08
9.2161847e-08
9.2162552e-08
9.2163192e-08
9.2163767e-08
9.2164286e-08
9.2164778e-08
9.216529e-08
9.2165858e-08
9.2166477e-08
9.2167152e-08
9.216785e-08
9.2168521e-08
9.2169153e-08
9.2169707e-08
9.2170083e-08
9.217025e-08
9.2170165e-08
9.216981e-08
9.2169521e-08
9.2169438e-08
9.2169445e-08
9.2169464e-08
9.2169481e-08
9.2169488e-08
9.2169451e-08
9.2169378e-08
9.21693e-08
9.2169357e-08
9.2169863e-08
9.2170357e-08
9.2170206e-08
9.2169059e-08
9.2167101e-08
9.2165442e-08
9.2164746e-08
9.2164675e-08
9.2165137e-08
9.2165421e-08
9.2162594e-08
9.2153572e-08
9.2144645e-08
9.2173014e-08
9.2334598e-08
9.2770555e-08
9.3485621e-08
9.3790405e-08
9.123365e-08
8.0622269e-08
5.3569018e-08
1.7300033e-08
1.4795056e-09
2.3341169e-10
9.3233946e-08
9.3234876e-08
9.3235751e-08
9.3236511e-08
9.3237228e-08
9.3237936e-08
9.3238645e-08
9.323933e-08
9.3239947e-08
9.3240477e-08
9.3240934e-08
9.3241338e-08
9.3241725e-08
9.324215e-08
9.3242656e-08
9.3243242e-08
9.3243872e-08
9.3244494e-08
9.3245092e-08
9.3245674e-08
9.3246173e-08
9.3246476e-08
9.3246543e-08
9.3246251e-08
9.3245793e-08
9.3245525e-08
9.3245436e-08
9.3245443e-08
9.3245464e-08
9.3245485e-08
9.3245505e-08
9.3245492e-08
9.3245439e-08
9.3245353e-08
9.3245391e-08
9.3245834e-08
9.3246496e-08
9.3246753e-08
9.3245851e-08
9.3244023e-08
9.3242138e-08
9.3241262e-08
9.3241021e-08
9.324131e-08
9.3242316e-08
9.3242147e-08
9.3236618e-08
9.322472e-08
9.3225306e-08
9.3309038e-08
9.3622093e-08
9.429203e-08
9.4980452e-08
9.3784272e-08
8.5931333e-08
6.1851898e-08
2.2748745e-08
2.0521494e-09
2.5059414e-10
7.0470229e-10
7.3980792e-10
7.6236965e-10
7.7861569e-10
7.9233028e-10
8.0478124e-10
8.1596932e-10
8.2555639e-10
8.3323073e-10
8.387824e-10
8.4201523e-10
8.4273141e-10
8.406859e-10
8.3558083e-10
8.2704756e-10
8.1466476e-10
7.9794806e-10
7.763814e-10
7.4944939e-10
7.1668565e-10
6.7774988e-10
6.3244724e-10
5.8111235e-10
5.2465606e-10
4.6380917e-10
3.9976383e-10
3.3391314e-10
2.6811106e-10
2.0503231e-10
1.4533285e-10
9.3869334e-11
5.1998625e-11
2.1393802e-11
3.6118753e-12
1.7782254e-12
7.8115178e-12
2.5473082e-11
5.6456099e-11
9.8459631e-11
1.4748234e-10
1.9501943e-10
2.4309814e-10
2.9284276e-10
3.4486457e-10
3.9779272e-10
4.482076e-10
4.9715216e-10
5.4452127e-10
5.9000759e-10
6.3314192e-10
6.7341711e-10
7.1040275e-10
7.4408759e-10
7.7476057e-10
8.0275113e-10
8.2832875e-10
8.517706e-10
8.7318661e-10
8.9254533e-10
9.1007293e-10
9.2612881e-10
9.4091552e-10
9.545362e-10
9.6708822e-10
9.7866695e-10
9.8935234e-10
9.992158e-10
1.0083232e-09
1.0167382e-09
1.0245182e-09
1.031728e-09
1.0384122e-09
1.0446312e-09
1.0503468e-09
5.215867e-10
5.5554599e-10
5.8811275e-10
6.1757015e-10
6.428817e-10
6.6425951e-10
6.8217868e-10
6.9702707e-10
7.090385e-10
7.1837917e-10
7.2516434e-10
7.2945401e-10
7.3123059e-10
7.3038578e-10
7.2671715e-10
7.1993807e-10
7.0968415e-10
6.9553012e-10
6.7701558e-10
6.5368195e-10
6.2513902e-10
5.9107775e-10
5.5103046e-10
5.0440699e-10
4.5196205e-10
3.9571193e-10
3.3734779e-10
2.7849006e-10
2.2154486e-10
1.6835905e-10
1.2064154e-10
7.9782377e-11
5.1032884e-11
2.569142e-11
1.0691096e-11
8.434608e-12
1.4653401e-11
2.9965055e-11
5.3628468e-11
8.4585166e-11
1.1856982e-10
1.5411596e-10
1.9093667e-10
2.2936738e-10
2.6924853e-10
3.0895611e-10
3.4784321e-10
3.8569841e-10
4.2228086e-10
4.57476e-10
4.9107996e-10
5.2278201e-10
5.5238282e-10
5.7983924e-10
6.0521485e-10
6.2861987e-10
6.5019708e-10
6.7009619e-10
6.8843141e-10
7.0526842e-10
7.2072434e-10
7.3493036e-10
7.479339e-10
7.5985098e-10
7.7078885e-10
7.8084008e-10
7.900839e-10
7.9859128e-10
8.0642432e-10
8.1363904e-10
8.202857e-10
8.2641223e-10
8.3207189e-10
8.3728005e-10
1.4127991e-09
1.1832387e-09
9.9760387e-10
8.5554849e-10
7.5166455e-10
6.7975438e-10
6.3296377e-10
6.0737953e-10
5.9840372e-10
6.0063839e-10
6.0925523e-10
6.207429e-10
6.3257896e-10
6.4300893e-10
6.508923e-10
6.5553192e-10
6.5652384e-10
6.5361256e-10
6.4659318e-10
6.3525343e-10
6.1935753e-10
5.987011e-10
5.7304076e-10
5.4200931e-10
5.0551468e-10
4.641081e-10
4.18765e-10
3.7063194e-10
3.2125103e-10
2.7204584e-10
2.2419328e-10
1.7931417e-10
1.391831e-10
1.0551805e-10
7.7220063e-11
5.7381452e-11
4.2488725e-11
4.0616809e-11
4.3988294e-11
5.2870836e-11
6.6108588e-11
8.2279437e-11
1.0124292e-10
1.2243555e-10
1.4541244e-10
1.6955424e-10
1.9430077e-10
2.1923622e-10
2.4402333e-10
2.6841579e-10
2.9221479e-10
3.152402e-10
3.3734163e-10
3.5840864e-10
3.7837277e-10
3.9720177e-10
4.1489463e-10
4.3145187e-10
4.468662e-10
4.6118937e-10
4.7448042e-10
4.8680024e-10
4.9820478e-10
5.0875136e-10
5.1849712e-10
5.2749776e-10
5.3580653e-10
5.4347392e-10
5.5054757e-10
5.5707133e-10
5.630896e-10
5.6864291e-10
5.7376967e-10
5.7849272e-10
6.5335077e-09
4.679988e-09
3.4001301e-09
2.548334e-09
1.9978982e-09
1.6292521e-09
1.3639635e-09
1.1593382e-09
9.829152e-10
8.5226381e-10
7.5508898e-10
6.8574351e-10
6.4013778e-10
6.134938e-10
6.0105026e-10
5.980367e-10
6.0066989e-10
6.0588438e-10
6.1137654e-10
6.1498371e-10
6.1419475e-10
6.0862462e-10
5.9845367e-10
5.8372112e-10
5.6437481e-10
5.4048067e-10
5.1234851e-10
4.8048806e-10
4.4559657e-10
4.0878231e-10
3.7112866e-10
3.3341458e-10
2.9595559e-10
2.6045585e-10
2.2714833e-10
1.9737061e-10
1.6895288e-10
1.4757334e-10
1.315047e-10
1.1878836e-10
1.1279077e-10
1.1060495e-10
1.1077798e-10
1.1313594e-10
1.1738171e-10
1.2317896e-10
1.2998246e-10
1.3792398e-10
1.4672746e-10
1.5615015e-10
1.6598411e-10
1.7605032e-10
1.8619549e-10
1.9629168e-10
2.0623414e-10
2.1593971e-10
2.2534373e-10
2.3439807e-10
2.4306893e-10
2.5133174e-10
2.5917221e-10
2.6658467e-10
2.7357047e-10
2.8013649e-10
2.8629361e-10
2.9205558e-10
2.9743813e-10
3.0245836e-10
3.071341e-10
3.1148354e-10
3.1552527e-10
3.1927617e-10
3.2275859e-10
3.2597223e-10
2.1807992e-08
1.6349593e-08
1.2010941e-08
8.7205273e-09
6.3295954e-09
4.6437862e-09
3.4994329e-09
2.7109847e-09
2.1575837e-09
1.7699657e-09
1.4874759e-09
1.2716634e-09
1.1012839e-09
9.5348758e-10
8.4145185e-10
7.5524796e-10
6.917559e-10
6.4763297e-10
6.1871343e-10
6.0481457e-10
6.011678e-10
6.0310351e-10
6.0597821e-10
6.0617191e-10
6.0302967e-10
5.9648968e-10
5.8651705e-10
5.7315342e-10
5.5652841e-10
5.3700114e-10
5.1511478e-10
4.9146773e-10
4.6636864e-10
4.4063422e-10
4.137413e-10
3.8679384e-10
3.627119e-10
3.3883462e-10
3.1669893e-10
2.9577925e-10
2.7731226e-10
2.6208614e-10
2.4976411e-10
2.4026092e-10
2.3257777e-10
2.2619834e-10
2.2114511e-10
2.1771022e-10
2.1515735e-10
2.1334007e-10
2.1216329e-10
2.1153363e-10
2.1134573e-10
2.1153634e-10
2.1204901e-10
2.1281985e-10
2.1379354e-10
2.149218e-10
2.1616251e-10
2.1747994e-10
2.1884395e-10
2.202296e-10
2.2161677e-10
2.2298933e-10
2.2433451e-10
2.256424e-10
2.2690546e-10
2.2811821e-10
2.2927683e-10
2.3037886e-10
2.314232e-10
2.3240901e-10
2.3333867e-10
2.3420331e-10
4.3869446e-08
3.5751869e-08
2.8289581e-08
2.186035e-08
1.6577082e-08
1.2405042e-08
9.2385692e-09
6.8951985e-09
5.1896587e-09
3.9669126e-09
3.0951036e-09
2.4794877e-09
2.030194e-09
1.7005094e-09
1.4537414e-09
1.263623e-09
1.1101464e-09
9.7951796e-10
8.7194336e-10
7.8724922e-10
7.2124901e-10
6.7432638e-10
6.4582201e-10
6.3077823e-10
6.2444496e-10
6.2383136e-10
6.2337194e-10
6.2158397e-10
6.1800853e-10
6.1250781e-10
6.051019e-10
5.9592726e-10
5.8518966e-10
5.7305677e-10
5.6020237e-10
5.4633697e-10
5.31857e-10
5.171342e-10
5.0248998e-10
4.8789197e-10
4.7270372e-10
4.5801538e-10
4.451718e-10
4.3364484e-10
4.2323115e-10
4.1382328e-10
4.0544355e-10
3.9799938e-10
3.9138776e-10
3.8551287e-10
3.8030248e-10
3.7570019e-10
3.7177557e-10
3.6826042e-10
3.6509082e-10
3.621967e-10
3.5959917e-10
3.5727789e-10
3.5520378e-10
3.5334777e-10
3.5168388e-10
3.5019026e-10
3.4884772e-10
3.4763915e-10
3.4654959e-10
3.4556568e-10
3.4467557e-10
3.4386872e-10
3.4313583e-10
3.424687e-10
3.4186e-10
3.4130348e-10
3.407932e-10
3.4032478e-10
6.3576147e-08
5.5722232e-08