/*--------------------------------*- C++ -*----------------------------------*\
| =========                 |                                                 |
| \\      /  F ield         | OpenFOAM: The Open Source CFD Toolbox           |
|  \\    /   O peration     | Version:  v2006                                 |
|   \\  /    A nd           | Website:  www.openfoam.com                      |
|    \\/     M anipulation  |                                                 |
\*---------------------------------------------------------------------------*/
FoamFile
{
    version     2.0;
    format      ascii;
    class       volScalarField;
    location    "3000";
    object      Cp;
}
// * * * * * * * * * * * * * * * * * * * * * * * * * * * * * * * * * * * * * //

dimensions      [0 0 0 0 0 0 0];


internalField   nonuniform List<scalar> 
55713
(
0.0057509791
0.0057516116
0.0057515279
0.0057519439
0.0057519106
0.005751996
0.0057519771
0.0057519485
0.0057519181
0.0057518904
0.0057518585
0.00575186
0.0057518922
0.0057519305
0.0057519887
0.0057520494
0.0057521013
0.0057521447
0.0057521664
0.0057521517
0.0057520945
0.0057520278
0.0057519506
0.0057518674
0.0057517822
0.0057516966
0.0057516083
0.0057515172
0.0057514329
0.0057513648
0.0057513172
0.0057512799
0.0057512316
0.0057511778
0.0057511169
0.0057510395
0.0057509432
0.0057508195
0.0057506724
0.0057505154
0.005750364
0.0057502303
0.0057501128
0.005749994
0.0057498667
0.0057497346
0.0057495953
0.0057494427
0.0057492731
0.0057490788
0.0057488645
0.0057486273
0.0057483845
0.0057481298
0.0057478766
0.0057476111
0.0057473339
0.0057470683
0.0057466434
0.0053558836
0.0053570761
0.0053570676
0.005357845
0.0053579183
0.0053583675
0.0053585324
0.0053587858
0.0053588927
0.0053589556
0.0053589165
0.0053588509
0.0053588483
0.0053589126
0.0053589813
0.0053591304
0.005359297
0.005359546
0.0053598231
0.0053601402
0.0053604083
0.005360617
0.0053607615
0.005360853
0.0053609038
0.0053609285
0.0053609137
0.0053608616
0.0053607618
0.0053606941
0.0053606994
0.0053607179
0.0053607617
0.005360861
0.0053610081
0.005361188
0.0053613556
0.0053615051
0.0053616313
0.0053617463
0.0053618771
0.0053620143
0.005362085
0.0053620972
0.005362085
0.0053620525
0.0053620141
0.0053619754
0.0053619419
0.0053618845
0.0053617964
0.0053617075
0.0053616226
0.0053615628
0.0053615287
0.0053615239
0.0053615313
0.0053615607
0.0053615576
0.0050142494
0.0050156552
0.0050157844
0.0050166982
0.0050169962
0.0050176477
0.0050180928
0.0050186781
0.0050191829
0.005019645
0.0050200167
0.0050203114
0.005020496
0.0050206026
0.0050206359
0.0050206357
0.0050206321
0.0050206734
0.0050207841
0.0050210165
0.0050213455
0.0050217496
0.0050221639
0.0050225433
0.0050228907
0.0050232036
0.0050234765
0.0050237009
0.0050238733
0.0050239689
0.0050239916
0.0050239517
0.0050239248
0.0050239813
0.0050241128
0.0050242899
0.0050245567
0.0050248523
0.0050251983
0.0050255659
0.0050259011
0.0050261187
0.00502621
0.0050262302
0.0050261988
0.0050260971
0.0050259779
0.0050258999
0.0050259348
0.0050260285
0.0050262034
0.0050263479
0.0050265961
0.0050267038
0.005027001
0.0050270076
0.0050273772
0.0050273854
0.0050278387
0.0047161036
0.0047175888
0.0047178373
0.0047187969
0.0047192045
0.0047199416
0.0047204259
0.0047210563
0.0047215809
0.0047221834
0.0047227914
0.0047233605
0.004723867
0.0047242941
0.0047246475
0.0047249361
0.004725145
0.0047252831
0.004725345
0.0047253799
0.0047254418
0.0047255663
0.0047257731
0.0047260528
0.0047263772
0.0047267315
0.0047271169
0.0047275193
0.0047278914
0.004728214
0.0047284678
0.0047286527
0.0047287371
0.0047287423
0.004728718
0.0047287267
0.0047287972
0.0047289049
0.004729104
0.0047293358
0.004729487
0.0047295319
0.0047296253
0.0047297935
0.0047300089
0.0047302368
0.0047304841
0.0047307706
0.0047311283
0.0047315063
0.0047319411
0.0047322561
0.0047327097
0.0047329053
0.0047334018
0.0047334963
0.0047340686
0.0047340771
0.0047348026
0.0044615759
0.0044630425
0.0044633542
0.0044642863
0.004464736
0.0044654199
0.004465826
0.0044662729
0.0044666
0.0044669316
0.0044672633
0.0044676492
0.0044680901
0.0044685947
0.0044691247
0.0044696114
0.0044700349
0.0044703858
0.0044706614
0.004470845
0.0044709565
0.0044710071
0.0044710495
0.0044710999
0.00447118
0.0044712976
0.0044714533
0.0044716716
0.0044719481
0.0044722955
0.0044726767
0.0044730202
0.0044732992
0.0044735128
0.0044736603
0.004473745
0.0044737836
0.0044737946
0.0044737881
0.0044737673
0.0044737803
0.0044738778
0.0044740851
0.0044743571
0.0044746962
0.004475068
0.0044754789
0.004475856
0.0044762391
0.0044765265
0.0044768911
0.0044771114
0.0044775235
0.004477695
0.004478203
0.0044783304
0.0044789464
0.0044790092
0.0044798142
0.0042439392
0.004245301
0.0042456478
0.0042465012
0.0042469157
0.0042475264
0.0042478979
0.0042483316
0.0042486436
0.0042489459
0.0042491761
0.004249379
0.0042495704
0.0042497731
0.004250005
0.0042502812
0.0042506052
0.0042509831
0.0042513836
0.0042517391
0.0042520277
0.004252259
0.0042524287
0.0042525587
0.0042526621
0.0042527447
0.0042528259
0.0042529065
0.0042530204
0.0042531754
0.0042533991
0.0042536909
0.0042540441
0.0042543951
0.0042547089
0.0042549738
0.0042551968
0.004255385
0.00425554
0.004255697
0.0042559026
0.0042561537
0.0042564113
0.0042566396
0.0042568806
0.004257087
0.00425733
0.004257511
0.0042577685
0.0042579248
0.0042582299
0.0042583756
0.0042587541
0.0042588883
0.0042593612
0.0042594839
0.0042600941
0.0042601788
0.0042609863
0.00404786
0.0040490532
0.0040494199
0.0040501728
0.0040506244
0.0040511525
0.0040515529
0.0040520023
0.0040523841
0.0040527791
0.0040531201
0.0040534111
0.0040536445
0.0040538265
0.0040539852
0.0040541445
0.0040543181
0.0040545202
0.0040547738
0.0040550937
0.0040554609
0.0040558042
0.0040561092
0.0040563735
0.0040566036
0.0040568048
0.0040569623
0.0040570856
0.0040571737
0.0040572543
0.0040573384
0.0040574595
0.0040576322
0.0040578563
0.0040581298
0.0040584216
0.0040587256
0.0040590074
0.0040592796
0.0040595395
0.0040598019
0.0040600122
0.0040602378
0.0040604079
0.004060635
0.0040607953
0.004061035
0.004061192
0.0040614582
0.0040616216
0.0040619363
0.0040621027
0.0040624703
0.0040626348
0.0040630874
0.0040632375
0.0040637994
0.0040638839
0.0040646307
0.0038738559
0.0038746762
0.0038749647
0.0038754797
0.0038757333
0.0038761398
0.0038763976
0.0038767318
0.0038769991
0.0038772958
0.0038775751
0.0038778579
0.0038781182
0.0038783455
0.0038785511
0.003878733
0.0038788853
0.0038790038
0.0038791064
0.0038792127
0.0038793536
0.0038795301
0.0038797445
0.0038799792
0.0038802256
0.0038804484
0.0038806426
0.0038808028
0.003880932
0.0038810181
0.0038810742
0.0038811075
0.0038811368
0.0038811895
0.0038812707
0.0038813782
0.0038815159
0.0038816481
0.0038818013
0.0038819161
0.0038820562
0.0038821478
0.0038822966
0.0038823864
0.0038825533
0.0038826354
0.0038828205
0.0038828883
0.0038830962
0.0038831556
0.0038833869
0.0038834299
0.0038837041
0.0038837368
0.0038840452
0.0038840527
0.0038844235
0.0038844017
0.0038848352
0.0037820061
0.0037825264
0.0037826454
0.0037829782
0.0037832795
0.0037834413
0.003783685
0.003783831
0.0037840362
0.00378418
0.0037843499
0.0037844965
0.0037846677
0.0037848332
0.0037850045
0.0037851527
0.0037852797
0.0037853749
0.003785436
0.0037854746
0.0037854959
0.0037855132
0.0037855377
0.0037855804
0.0037856512
0.0037857439
0.0037858629
0.0037859851
0.0037861037
0.003786205
0.0037862788
0.0037863231
0.0037863329
0.0037863358
0.0037863317
0.0037863552
0.0037863712
0.0037864091
0.0037864359
0.0037864684
0.0037865044
0.0037865344
0.0037865773
0.0037866079
0.0037866535
0.0037866878
0.0037867265
0.0037867758
0.0037868097
0.0037868649
0.0037868956
0.0037869506
0.0037869712
0.0037870083
0.0037870451
0.0037870438
0.0037870409
0.003787022
0.0037870046
0.0037022145
0.0037033122
0.0037041894
0.0037042651
0.0037050078
0.0037051342
0.0037056887
0.0037058503
0.0037062667
0.0037063993
0.0037067558
0.0037068948
0.0037072111
0.0037073751
0.0037076636
0.0037078402
0.0037081025
0.0037082765
0.0037085316
0.0037087291
0.0037089582
0.0037091513
0.0037093571
0.0037095472
0.0037097414
0.0037099386
0.0037101592
0.0037103958
0.0037106507
0.0037109268
0.0037112035
0.0037114698
0.003711721
0.0037119624
0.0037122033
0.0037124511
0.0037127032
0.0037129609
0.0037132222
0.0037134868
0.0037137551
0.0037140267
0.003714305
0.003714591
0.0037148814
0.0037151841
0.003715493
0.003715811
0.0037161447
0.0037164856
0.0037168485
0.0037172255
0.0037176273
0.0037180647
0.0037184872
0.0037189996
0.0037194969
0.0037202013
0.0037209173
0.0033577273
0.0033577147
0.0033587918
0.0033593652
0.0033600871
0.003360751
0.0033613599
0.0033619118
0.003362435
0.003362907
0.0033633514
0.0033637592
0.0033641331
0.0033644726
0.0033647791
0.0033650658
0.0033653334
0.0033655901
0.0033658126
0.0033660609
0.0033662837
0.0033664844
0.003366665
0.0033668148
0.0033669332
0.0033670221
0.0033670648
0.003367117
0.0033671484
0.0033672028
0.0033672629
0.0033673479
0.0033674196
0.003367487
0.0033675196
0.0033675312
0.0033675316
0.0033675195
0.0033675065
0.00336748
0.0033674404
0.0033673915
0.0033673285
0.0033672549
0.0033671639
0.0033670715
0.0033669571
0.0033668204
0.0033666661
0.0033664791
0.0033662769
0.0033660496
0.0033657997
0.0033655253
0.003365201
0.0033648933
0.0033644387
0.0033641453
0.0033636742
0.0033410634
0.0033376728
0.0033364465
0.0033343217
0.0033329005
0.0033313865
0.0033299605
0.0033287151
0.0033275562
0.003326427
0.0033253847
0.0033243785
0.0033234435
0.0033225239
0.0033216948
0.0033208052
0.0033200422
0.0033191997
0.0033185045
0.0033177325
0.00331704
0.0033163776
0.003315708
0.0033150906
0.0033144599
0.0033139096
0.0033133338
0.003312798
0.0033122138
0.0033116937
0.0033111202
0.0033106094
0.0033100497
0.0033095459
0.0033089923
0.0033085016
0.0033079391
0.0033074628
0.0033069037
0.0033064167
0.0033058803
0.0033053669
0.0033048183
0.0033042559
0.0033036559
0.0033030594
0.0033023786
0.0033017927
0.0033010051
0.0033003829
0.0032994925
0.0032987611
0.0032977606
0.0032968539
0.0032956873
0.0032946421
0.0032932467
0.0032919622
0.003289925
0.0050381414
0.0050369286
0.0050357678
0.0050348326
0.0050338816
0.0050330403
0.0050321865
0.0050313692
0.0050306747
0.0050300579
0.0050294463
0.0050288828
0.0050283455
0.0050278516
0.0050274177
0.005027026
0.0050266626
0.0050263242
0.0050260127
0.0050257229
0.0050254623
0.0050252314
0.0050250214
0.0050248424
0.0050246746
0.0050245193
0.0050243819
0.0050242664
0.005024173
0.0050240964
0.0050240341
0.0050239859
0.0050239525
0.0050239362
0.0050239305
0.0050239448
0.0050239728
0.0050240118
0.0050240594
0.0050241159
0.0050241762
0.00502424
0.0050243121
0.005024403
0.0050245203
0.005024662
0.0050248193
0.0050249881
0.0050251839
0.0050254029
0.00502566
0.0050259309
0.0050262593
0.0050265941
0.0050270565
0.0050273949
0.0050279795
0.0050283134
0.0050289438
0.0031959491
0.0031997102
0.0031995744
0.0032025001
0.0032024772
0.0032045214
0.0032049449
0.0032065373
0.003206788
0.0032081536
0.0032083928
0.0032095668
0.0032097968
0.0032107903
0.0032109637
0.0032118053
0.0032119689
0.0032126852
0.0032128369
0.0032133741
0.0032135452
0.0032139202
0.0032140947
0.0032143771
0.0032145257
0.0032147559
0.0032148767
0.0032150612
0.0032151555
0.0032152983
0.0032153665
0.0032154731
0.0032155137
0.0032155791
0.0032155917
0.0032156085
0.0032156
0.0032155833
0.0032155501
0.003215499
0.0032154349
0.0032153648
0.0032152909
0.0032152104
0.0032151175
0.0032150047
0.0032148641
0.0032147101
0.0032145373
0.0032143367
0.0032141195
0.0032138598
0.0032135873
0.0032132435
0.0032128978
0.0032124023
0.0032119642
0.0032112097
0.0032106514
0.022525008
0.022531251
0.022539108
0.022546045
0.02255328
0.022560286
0.022567252
0.022574122
0.022580904
0.022587597
0.022594197
0.022600702
0.02260711
0.022613418
0.022619624
0.022625724
0.022631716
0.022637596
0.022643358
0.022649
0.022654515
0.022659898
0.022665143
0.022670246
0.0226752
0.022680002
0.022684646
0.022689131
0.022693454
0.022697613
0.022701607
0.022705436
0.0227091
0.022712602
0.02271594
0.022719119
0.022722141
0.022725007
0.022727721
0.022730283
0.022732697
0.022734962
0.022737082
0.022739057
0.02274089
0.022742583
0.022744138
0.022745555
0.022746838
0.022747986
0.022749
0.022749882
0.022750632
0.022751248
0.022751748
0.022752106
0.022752354
0.022752484
0.022752502
0.020620709
0.02062614
0.020632702
0.020638656
0.02064471
0.020650608
0.020656425
0.020662146
0.020667772
0.020673303
0.020678737
0.020684075
0.020689316
0.020694457
0.020699499
0.02070444
0.02070928
0.020714016
0.020718648
0.020723175
0.020727595
0.020731909
0.020736113
0.020740208
0.020744193
0.020748066
0.020751826
0.020755473
0.020759006
0.020762423
0.020765725
0.02076891
0.020771978
0.020774928
0.02077776
0.020780474
0.020783069
0.020785544
0.020787901
0.020790138
0.020792256
0.020794255
0.020796135
0.020797896
0.02079954
0.020801065
0.020802473
0.020803765
0.020804941
0.020806002
0.020806947
0.020807779
0.020808493
0.020809096
0.020809591
0.020809946
0.020810207
0.020810371
0.020810414
0.018845598
0.018850205
0.018855616
0.018860582
0.018865567
0.018870432
0.018875209
0.018879898
0.018884497
0.01888901
0.018893436
0.018897777
0.018902031
0.018906199
0.018910281
0.018914277
0.018918186
0.018922009
0.018925744
0.018929391
0.018932951
0.018936421
0.018939802
0.018943094
0.018946295
0.018949405
0.018952424
0.018955351
0.018958186
0.018960928
0.018963578
0.018966134
0.018968596
0.018970965
0.01897324
0.01897542
0.018977506
0.018979499
0.018981397
0.018983201
0.018984911
0.018986527
0.018988049
0.018989478
0.018990814
0.018992057
0.018993207
0.018994265
0.018995231
0.018996105
0.018996888
0.018997579
0.018998174
0.018998686
0.018999094
0.018999399
0.018999618
0.018999756
0.018999791
0.017183708
0.017187673
0.017192122
0.017196288
0.017200397
0.017204418
0.017208346
0.017212193
0.017215957
0.017219641
0.017223246
0.017226775
0.017230227
0.017233604
0.017236907
0.017240136
0.017243292
0.017246374
0.017249384
0.017252321
0.017255185
0.017257976
0.017260694
0.01726334
0.017265912
0.017268412
0.017270838
0.017273191
0.01727547
0.017277676
0.017279807
0.017281865
0.017283849
0.017285759
0.017287595
0.017289356
0.017291043
0.017292656
0.017294194
0.017295659
0.017297049
0.017298365
0.017299607
0.017300775
0.017301869
0.017302889
0.017303835
0.017304708
0.017305507
0.017306232
0.017306883
0.017307458
0.017307959
0.017308391
0.017308716
0.017308975
0.017309161
0.017309279
0.01730931
0.015639313
0.015642724
0.015646348
0.015649817
0.015653185
0.015656482
0.01565969
0.015662823
0.01566588
0.015668865
0.01567178
0.015674627
0.015677407
0.015680123
0.015682775
0.015685364
0.015687891
0.015690358
0.015692764
0.015695109
0.015697395
0.015699622
0.01570179
0.0157039
0.01570595
0.015707943
0.015709877
0.015711753
0.01571357
0.01571533
0.015717032
0.015718675
0.015720261
0.015721789
0.015723259
0.01572467
0.015726024
0.01572732
0.015728558
0.015729738
0.015730861
0.015731925
0.015732932
0.01573388
0.015734771
0.015735603
0.015736378
0.015737094
0.015737751
0.01573835
0.015738889
0.015739367
0.015739791
0.015740142
0.015740418
0.015740636
0.015740794
0.015740894
0.01574092
0.014204782
0.014207743
0.014210691
0.014213581
0.014216347
0.01421905
0.014221672
0.014224224
0.014226707
0.014229125
0.014231481
0.014233777
0.014236014
0.014238196
0.014240322
0.014242396
0.014244417
0.014246387
0.014248306
0.014250176
0.014251998
0.014253771
0.014255496
0.014257174
0.014258805
0.01426039
0.014261928
0.01426342
0.014264866
0.014266267
0.014267622
0.014268932
0.014270196
0.014271416
0.01427259
0.014273719
0.014274803
0.014275842
0.014276836
0.014277785
0.014278689
0.014279548
0.014280362
0.014281131
0.014281854
0.014282532
0.014283164
0.01428375
0.014284289
0.014284782
0.014285226
0.014285626
0.014285978
0.014286259
0.014286492
0.014286675
0.014286807
0.014286894
0.014286916
0.012878449
0.012881017
0.01288342
0.012885812
0.012888084
0.012890294
0.012892432
0.012894505
0.012896516
0.012898469
0.012900367
0.012902212
0.012904006
0.012905752
0.012907452
0.012909105
0.012910715
0.012912282
0.012913808
0.012915292
0.012916737
0.012918143
0.012919509
0.012920838
0.01292213
0.012923384
0.012924602
0.012925784
0.012926929
0.012928039
0.012929114
0.012930153
0.012931158
0.012932127
0.012933062
0.012933962
0.012934827
0.012935658
0.012936454
0.012937215
0.012937942
0.012938635
0.012939292
0.012939915
0.012940502
0.012941055
0.012941571
0.012942052
0.012942496
0.012942903
0.012943274
0.012943611
0.012943891
0.012944129
0.012944326
0.012944483
0.012944595
0.01294467
0.012944688
0.01165547
0.011657646
0.011659612
0.011661579
0.011663439
0.011665239
0.011666974
0.01166865
0.011670271
0.011671841
0.011673361
0.011674836
0.011676267
0.011677656
0.011679005
0.011680315
0.011681589
0.011682827
0.01168403
0.0116852
0.011686338
0.011687444
0.011688519
0.011689563
0.011690578
0.011691563
0.01169252
0.011693448
0.011694348
0.011695221
0.011696066
0.011696884
0.011697675
0.011698439
0.011699177
0.011699888
0.011700573
0.011701231
0.011701863
0.011702468
0.011703047
0.011703599
0.011704125
0.011704624
0.011705096
0.011705541
0.011705958
0.011706347
0.011706707
0.01170704
0.011707346
0.011707611
0.011707839
0.011708037
0.0117082
0.011708331
0.011708423
0.011708488
0.011708503
0.010531537
0.010533372
0.010534987
0.010536601
0.010538123
0.01053959
0.010540999
0.010542356
0.010543663
0.010544925
0.010546144
0.010547323
0.010548464
0.01054957
0.010550641
0.01055168
0.010552688
0.010553667
0.010554617
0.010555539
0.010556435
0.010557306
0.010558151
0.010558973
0.01055977
0.010560545
0.010561297
0.010562027
0.010562736
0.010563423
0.010564089
0.010564734
0.010565359
0.010565964
0.010566548
0.010567113
0.010567657
0.010568182
0.010568686
0.010569171
0.010569636
0.01057008
0.010570505
0.010570909
0.010571293
0.010571656
0.010571997
0.010572317
0.010572617
0.010572896
0.010573141
0.010573358
0.01057355
0.010573717
0.010573856
0.010573968
0.010574045
0.010574104
0.010574115
0.0095025368
0.0095040778
0.0095054042
0.0095067219
0.0095079625
0.0095091505
0.0095102874
0.009511377
0.0095124234
0.0095134296
0.0095143983
0.0095153322
0.0095162334
0.0095171038
0.0095179454
0.0095187595
0.0095195478
0.0095203114
0.0095210515
0.0095217692
0.0095224654
0.0095231409
0.0095237964
0.0095244325
0.00952505
0.0095256494
0.0095262313
0.0095267962
0.0095273444
0.0095278763
0.0095283922
0.0095288923
0.0095293768
0.009529846
0.0095303
0.0095307388
0.0095311627
0.0095315716
0.0095319656
0.0095323446
0.0095327086
0.0095330576
0.0095333914
0.0095337098
0.0095340126
0.0095342996
0.0095345709
0.0095348272
0.0095350673
0.0095352795
0.0095354741
0.0095356498
0.0095358061
0.0095359418
0.0095360543
0.0095361467
0.0095362061
0.0095362588
0.0095362661
0.0085644089
0.0085657033
0.008566808
0.0085678917
0.0085689125
0.008569884
0.0085708102
0.0085716945
0.0085725406
0.0085733513
0.0085741293
0.0085748771
0.0085755967
0.00857629
0.0085769587
0.0085776042
0.0085782278
0.0085788309
0.0085794145
0.0085799797
0.0085805273
0.0085810581
0.0085815729
0.0085820723
0.0085825571
0.0085830278
0.0085834852
0.0085839296
0.0085843614
0.0085847807
0.0085851878
0.008585583
0.0085859666
0.0085863387
0.0085866994
0.008587049
0.0085873875
0.0085877149
0.0085880313
0.0085883367
0.008588631
0.0085889144
0.0085891867
0.0085894478
0.0085896975
0.0085899364
0.0085901635
0.0085903744
0.0085905646
0.0085907428
0.0085909069
0.0085910566
0.0085911909
0.0085913092
0.0085914073
0.0085914925
0.0085915433
0.0085915948
0.0085915945
0.0077095135
0.0077105883
0.0077115115
0.0077123983
0.0077132345
0.0077140259
0.0077147772
0.0077154911
0.0077161717
0.0077168213
0.0077174428
0.0077180384
0.00771861
0.0077191593
0.0077196875
0.0077201958
0.0077206855
0.0077211577
0.0077216134
0.0077220535
0.0077224788
0.0077228905
0.0077232895
0.0077236766
0.0077240527
0.0077244183
0.0077247737
0.007725119
0.0077254543
0.0077257797
0.0077260958
0.0077264028
0.007726701
0.0077269907
0.0077272721
0.0077275452
0.0077278101
0.0077280671
0.0077283162
0.0077285576
0.0077287916
0.0077290181
0.0077292372
0.0077294492
0.0077296528
0.007729845
0.0077300199
0.0077301861
0.0077303421
0.0077304878
0.0077306229
0.0077307463
0.0077308567
0.0077309557
0.0077310361
0.0077311117
0.0077311505
0.0077312021
0.0077311983
0.0069356916
0.0069365566
0.0069373376
0.006938068
0.0069387504
0.0069393914
0.0069399963
0.0069405663
0.0069411069
0.0069416199
0.006942109
0.0069425761
0.0069430233
0.0069434518
0.0069438626
0.0069442569
0.0069446361
0.006945001
0.0069453523
0.0069456904
0.0069460166
0.0069463322
0.0069466389
0.0069469379
0.0069472298
0.0069475143
0.0069477909
0.006948059
0.0069483185
0.0069485703
0.0069488154
0.0069490547
0.0069492887
0.0069495177
0.0069497416
0.0069499605
0.0069501746
0.0069503845
0.0069505906
0.0069507928
0.0069509893
0.0069511775
0.0069513569
0.0069515277
0.006951686
0.006951838
0.006951982
0.0069521185
0.0069522478
0.0069523697
0.0069524833
0.0069525881
0.0069526803
0.006952767
0.0069528342
0.006952906
0.0069529346
0.0069529896
0.0069529919
0.0062588265
0.0062595042
0.0062601436
0.006260764
0.0062613433
0.0062618881
0.0062624059
0.0062628925
0.0062633546
0.0062637908
0.0062642053
0.0062645981
0.0062649714
0.006265327
0.006265668
0.0062659976
0.0062663171
0.0062666269
0.0062669278
0.0062672195
0.0062675016
0.0062677737
0.0062680357
0.0062682873
0.0062685282
0.0062687576
0.0062689748
0.0062691799
0.0062693744
0.0062695606
0.0062697408
0.0062699158
0.0062700849
0.0062702469
0.0062704022
0.0062705512
0.0062706937
0.0062708298
0.0062709599
0.0062710837
0.0062711999
0.0062713113
0.0062714162
0.0062715142
0.0062716062
0.0062716926
0.0062717719
0.0062718452
0.006271917
0.0062719886
0.0062720533
0.0062721136
0.0062721595
0.0062722106
0.0062722478
0.006272303
0.0062723237
0.0062723975
0.0062724136
0.025053715
0.027853615
0.030987786
0.034417648
0.038158453
0.042239634
0.046679589
0.051495537
0.056703758
0.062317816
0.06834825
0.074798203
0.081666534
0.088939713
0.096596109
0.10459675
0.1128898
0.12139972
0.13003435
0.13867261
0.14717291
0.15536472
0.16305777
0.17005594
0.1761097
0.18098708
0.18451516
0.18635212
0.18645356
0.18474982
0.18095299
0.17510123
0.16727074
0.1575147
0.14590739
0.13269069
0.11808768
0.10232109
0.085635769
0.068223779
0.050275675
0.032049238
0.013790533
-0.004369355
-0.022296539
-0.039874953
-0.0569077
-0.073372042
-0.089278625
-0.10458291
-0.11927142
-0.13324557
-0.14649105
-0.15903253
-0.17088697
-0.18206711
-0.19259454
-0.20249105
-0.21172607
-0.22034915
-0.22845165
-0.23604437
-0.24313436
-0.24975151
-0.25592653
-0.26168323
-0.2670454
-0.27203757
-0.27668334
-0.28100579
-0.28502684
-0.28877196
-0.29224918
-0.29548755
0.025053688
0.027853596
0.030987752
0.034417606
0.038158412
0.042239595
0.046679553
0.051495506
0.056703733
0.062317799
0.068348243
0.074798221
0.081666582
0.088939795
0.096596229
0.10459692
0.11289003
0.12140004
0.13003475
0.13867313
0.14717354
0.1553654
0.16305853
0.17005672
0.1761106
0.18098807
0.18451618
0.18635301
0.18645442
0.18475076
0.1809543
0.17510304
0.1672713
0.15751148
0.14590698
0.13269141
0.11808798
0.10231729
0.085626761
0.06821349
0.050270682
0.032049265
0.013790087
-0.0043697273
-0.022297789
-0.039880831
-0.056916872
-0.073380355
-0.089282867
-0.1045812
-0.11926952
-0.1332464
-0.14649442
-0.1590373
-0.17089226
-0.18207276
-0.1926004
-0.20249654
-0.21172688
-0.22034569
-0.22845236
-0.23604879
-0.24314256
-0.24976062
-0.25593568
-0.26169227
-0.26705428
-0.27204621
-0.27669159
-0.28101356
-0.28503587
-0.28878416
-0.2922625
-0.29549885
0.025053474
0.027853404
0.030987516
0.034417341
0.038158124
0.042239284
0.046679217
0.051495145
0.056703348
0.062317394
0.068347818
0.074797781
0.081666123
0.088939328
0.096595757
0.10459646
0.1128896
0.12139966
0.13003444
0.13867293
0.14717349
0.15536571
0.16305909
0.17005782
0.17611192
0.18098979
0.18451852
0.18635573
0.18645777
0.18475496
0.18095905
0.17510812
0.16727569
0.15751626
0.14591397
0.13269891
0.11809532
0.10232478
0.085632986
0.068218747
0.050276984
0.032055923
0.013794831
-0.0043660933
-0.022293441
-0.039871196
-0.056912068
-0.073385612
-0.089294489
-0.10459612
-0.11927581
-0.13324724
-0.1464907
-0.15903294
-0.17088745
-0.18206751
-0.19259977
-0.20250562
-0.21173997
-0.22034799
-0.22844443
-0.23603642
-0.24312792
-0.2497463
-0.25592145
-0.26167779
-0.26703942
-0.27203059
-0.27667461
-0.28099062
-0.28500356
-0.28875227
-0.29224206
-0.29549876
0.02505302
0.027853077
0.0309871
0.034416877
0.038157625
0.042238745
0.046678635
0.051494519
0.05670267
0.062316657
0.068347024
0.074796936
0.081665229
0.0889384
0.096594803
0.10459551
0.11288867
0.12139881
0.1300337
0.13867239
0.14717326
0.15536615
0.16306004
0.1700592
0.17611398
0.18099286
0.18452286
0.18636089
0.18646422
0.18476314
0.18096853
0.17511906
0.1672873
0.15752799
0.1459279
0.13271431
0.11811149
0.10234067
0.08564605
0.068229803
0.050289907
0.032071754
0.013810651
-0.0043502589
-0.022276161
-0.039850418
-0.056897738
-0.073378453
-0.089291036
-0.10458944
-0.11926186
-0.13323107
-0.14647751
-0.15902206
-0.17087754
-0.18205805
-0.19258501
-0.20247564
-0.21171157
-0.22034013
-0.22845159
-0.23604855
-0.24314327
-0.24976336
-0.25593881
-0.26169496
-0.26705624
-0.2720472
-0.27669149
-0.28101169
-0.28503103
-0.28877335
-0.29224878
-0.29547378
0.02505238
0.027852601
0.030986498
0.034416198
0.038156876
0.042237918
0.046677721
0.051493513
0.05670157
0.062315466
0.068345735
0.074795565
0.081663767
0.088936877
0.096593225
0.10459393
0.11288712
0.12139738
0.13003244
0.13867139
0.1471726
0.15536601
0.16306096
0.17006096
0.17611701
0.18099745
0.18452946
0.18636891
0.18647444
0.18477627
0.18098385
0.17513675
0.16730634
0.15754803
0.14595143
0.13274022
0.11813856
0.10236788
0.085671338
0.068254196
0.050316786
0.03210109
0.013838908
-0.0043229643
-0.022248432
-0.039819487
-0.056871738
-0.073359416
-0.089275304
-0.10457623
-0.11924365
-0.13321058
-0.1464571
-0.15900075
-0.17085518
-0.18203427
-0.1925576
-0.20244539
-0.21169401
-0.22034117
-0.2284419
-0.2360304
-0.2431217
-0.24973832
-0.25591086
-0.26166501
-0.26702473
-0.27201435
-0.27665739
-0.28097634
-0.28499284
-0.28873009
-0.29220461
-0.29543439
0.025051591
0.02785196
0.030985707
0.034415305
0.038155888
0.042236823
0.046676508
0.051492175
0.056700097
0.06231385
0.068343964
0.074793649
0.081661696
0.088934682
0.096590913
0.10459157
0.11288474
0.12139509
0.13003035
0.13866971
0.14717153
0.15536575
0.1630619
0.1700634
0.17612123
0.18100395
0.18453897
0.18638066
0.18648955
0.1847958
0.18100675
0.17516335
0.16733569
0.15757973
0.14598774
0.13277982
0.11818015
0.10241034
0.085712282
0.068294194
0.050359048
0.032145885
0.013883108
-0.0042791523
-0.022203728
-0.039771512
-0.056829137
-0.073324669
-0.089244993
-0.1045471
-0.1192079
-0.1331713
-0.1464182
-0.15896277
-0.170818
-0.18199732
-0.19251899
-0.20240248
-0.21165332
-0.22030451
-0.22841039
-0.23600324
-0.24309805
-0.24971904
-0.25589391
-0.26164899
-0.26700948
-0.27199976
-0.27664347
-0.28096329
-0.28498062
-0.28871629
-0.2921874
-0.29541352
0.02505066
0.027851139
0.030984714
0.034414182
0.03815464
0.042235432
0.046674959
0.051490454
0.05669819
0.062311746
0.068341645
0.074791127
0.081658956
0.08893176
0.096587819
0.10458838
0.11288151
0.12139198
0.13002748
0.13866734
0.14716988
0.15536527
0.16306287
0.17006656
0.17612687
0.18101282
0.18455215
0.1863971
0.18651087
0.18482355
0.18103945
0.17520154
0.1673784
0.15762642
0.14604062
0.13283751
0.11824106
0.10247306
0.085774188
0.068355784
0.050423527
0.032213417
0.013950234
-0.0042126348
-0.022136902
-0.039702384
-0.056765658
-0.0732692
-0.089193734
-0.10449723
-0.11915341
-0.13311488
-0.14636303
-0.15890849
-0.17076374
-0.18194231
-0.19246186
-0.20234265
-0.21159849
-0.22026098
-0.22837294
-0.23596407
-0.24305556
-0.24967308
-0.25584458
-0.26159675
-0.26695469
-0.2719427
-0.2765843
-0.28090219
-0.28491765
-0.28865192
-0.29212266
-0.29535161
0.025049573
0.027850129
0.030983509
0.034412816
0.038153114
0.042233723
0.046673046
0.051488318
0.05669581
0.062309104
0.068338718
0.074787921
0.08165545
0.088927991
0.0965838
0.1045842
0.11287725
0.12138782
0.1300236
0.13866407
0.14716757
0.15536441
0.16306401
0.17007065
0.1761343
0.18102469
0.18456996
0.18641949
0.18654012
0.18486186
0.1810848
0.17525478
0.16743858
0.15769288
0.14611551
0.13291922
0.11832763
0.10256276
0.085864194
0.06844628
0.050517379
0.032310566
0.014047127
-0.004116316
-0.022040378
-0.039603945
-0.056672747
-0.073184488
-0.089113788
-0.10441921
-0.11907163
-0.1330308
-0.14627946
-0.15882563
-0.17068129
-0.18186003
-0.19237923
-0.2022595
-0.21151929
-0.22018761
-0.22830178
-0.2358929
-0.24298559
-0.24960554
-0.25577967
-0.26153418
-0.26689415
-0.27188401
-0.27652731
-0.28084673
-0.28486341
-0.28859841
-0.29206904
-0.29529774
0.025048331
0.027848925
0.030982082
0.034411191
0.03815129
0.042231671
0.046670738
0.051485728
0.056692909
0.062305866
0.068335109
0.074783941
0.081651072
0.08892325
0.096578711
0.10457887
0.11287177
0.12138242
0.13001851
0.13865974
0.14716444
0.15536314
0.16306533
0.17007584
0.17614397
0.18104031
0.1845936
0.18644945
0.18657954
0.18491375
0.18114644
0.17532747
0.16752144
0.15778514
0.14621915
0.1330324
0.11844799
0.10268818
0.085991478
0.068575247
0.050650538
0.032447674
0.014184503
-0.0039793302
-0.021903423
-0.03946589
-0.0565405
-0.073060826
-0.088995371
-0.10430304
-0.11895289
-0.13291071
-0.14616078
-0.15870869
-0.17056559
-0.18174506
-0.19226457
-0.20214519
-0.21140859
-0.22008318
-0.22820239
-0.23579598
-0.24288961
-0.24950939
-0.25568241
-0.26143517
-0.26679319
-0.27178111
-0.27642257
-0.28074036
-0.28475575
-0.28848998
-0.29196062
-0.29519012
0.025046933
0.02784752
0.030980423
0.034409292
0.038149146
0.042229246
0.046667996
0.051482635
0.056689424
0.062301954
0.068330726
0.074779077
0.081645692
0.088917386
0.096572378
0.10457219
0.11286486
0.12137554
0.13001199
0.13865411
0.14716031
0.15536137
0.16306693
0.17008233
0.17615641
0.18106061
0.1846246
0.18648892
0.18663179
0.18498298
0.18122907
0.17542534
0.16763372
0.15791097
0.14636031
0.13318678
0.11861269
0.10286058
0.086167976
0.06875515
0.05083581
0.032637704
0.014375365
-0.003788731
-0.021713152
-0.039275346
-0.056355898
-0.072884967
-0.088825252
-0.10413579
-0.11878456
-0.13274188
-0.14599358
-0.15854338