/*--------------------------------*- C++ -*----------------------------------*\
| =========                 |                                                 |
| \\      /  F ield         | OpenFOAM: The Open Source CFD Toolbox           |
|  \\    /   O peration     | Version:  v2006                                 |
|   \\  /    A nd           | Website:  www.openfoam.com                      |
|    \\/     M anipulation  |                                                 |
\*---------------------------------------------------------------------------*/
FoamFile
{
    version     2.0;
    format      ascii;
    class       volScalarField;
    location    "3000";
    object      k;
}
// * * * * * * * * * * * * * * * * * * * * * * * * * * * * * * * * * * * * * //

dimensions      [0 2 -2 0 0 0 0];


internalField   nonuniform List<scalar> 
55713
(
1.6305299e-09
4.0073781e-09
1.3281905e-08
2.0753623e-08
2.4163623e-08
2.5101067e-08
2.5114221e-08
2.4963572e-08
2.4868858e-08
2.48362e-08
2.4832019e-08
2.48343e-08
2.4835872e-08
2.4836059e-08
2.4835771e-08
2.483563e-08
2.4835638e-08
2.4835719e-08
2.4835954e-08
2.4836317e-08
2.4836555e-08
2.4836564e-08
2.4836328e-08
2.4836054e-08
2.4835839e-08
2.4835699e-08
2.4835563e-08
2.4835398e-08
2.4835195e-08
2.4834954e-08
2.4834693e-08
2.4834412e-08
2.4834121e-08
2.4833836e-08
2.4833585e-08
2.4833374e-08
2.4833106e-08
2.4832699e-08
2.4832178e-08
2.4831568e-08
2.483092e-08
2.4830253e-08
2.4829534e-08
2.4828765e-08
2.4828005e-08
2.4827284e-08
2.4826593e-08
2.4825907e-08
2.4825208e-08
2.482448e-08
2.4823712e-08
2.4822893e-08
2.4822036e-08
2.4821163e-08
2.4820286e-08
2.4819412e-08
2.4818576e-08
2.4817795e-08
2.4817036e-08
1.7891851e-09
5.3470303e-09
1.5764926e-08
2.3001454e-08
2.585204e-08
2.6445745e-08
2.6351353e-08
2.6201774e-08
2.612864e-08
2.6108868e-08
2.6108353e-08
2.6110086e-08
2.6110356e-08
2.6109484e-08
2.6108573e-08
2.6107918e-08
2.6107364e-08
2.6106893e-08
2.6106651e-08
2.6106554e-08
2.6106262e-08
2.6105645e-08
2.6104887e-08
2.6104119e-08
2.6103433e-08
2.6102822e-08
2.6102207e-08
2.6101568e-08
2.6100894e-08
2.6100183e-08
2.6099455e-08
2.6098702e-08
2.6097935e-08
2.6097169e-08
2.6096438e-08
2.6095779e-08
2.6095077e-08
2.6094184e-08
2.6093158e-08
2.6092024e-08
2.609084e-08
2.608964e-08
2.6088379e-08
2.6087035e-08
2.6085668e-08
2.6084328e-08
2.6083007e-08
2.6081672e-08
2.6080301e-08
2.6078876e-08
2.6077374e-08
2.6075774e-08
2.6074076e-08
2.6072303e-08
2.607046e-08
2.6068535e-08
2.6066546e-08
2.6064499e-08
2.6062386e-08
2.0343993e-09
6.9731211e-09
1.8387248e-08
2.5247946e-08
2.7541562e-08
2.7857552e-08
2.770112e-08
2.7566928e-08
2.7514447e-08
2.7504071e-08
2.7505031e-08
2.7505671e-08
2.7504474e-08
2.7502742e-08
2.750128e-08
2.7500064e-08
2.7498923e-08
2.7497917e-08
2.7497176e-08
2.7496525e-08
2.749562e-08
2.7494429e-08
2.7493134e-08
2.7491858e-08
2.7490685e-08
2.7489586e-08
2.7488474e-08
2.7487347e-08
2.7486188e-08
2.7484998e-08
2.7483789e-08
2.7482553e-08
2.7481298e-08
2.7480041e-08
2.7478814e-08
2.7477685e-08
2.7476567e-08
2.7475185e-08
2.7473642e-08
2.747197e-08
2.7470232e-08
2.7468489e-08
2.7466686e-08
2.7464765e-08
2.7462782e-08
2.7460814e-08
2.7458857e-08
2.7456869e-08
2.7454823e-08
2.7452696e-08
2.745046e-08
2.7448083e-08
2.7445547e-08
2.7442873e-08
2.7440068e-08
2.74371e-08
2.7433966e-08
2.7430663e-08
2.7427192e-08
2.3968512e-09
9.0364329e-09
2.126054e-08
2.7545969e-08
2.928192e-08
2.9375773e-08
2.9192336e-08
2.9082526e-08
2.9048436e-08
2.9044247e-08
2.9045092e-08
2.904404e-08
2.9041611e-08
2.9039233e-08
2.9037217e-08
2.9035401e-08
2.9033654e-08
2.9032108e-08
2.9030869e-08
2.902965e-08
2.9028128e-08
2.9026341e-08
2.9024507e-08
2.9022718e-08
2.9021056e-08
2.901946e-08
2.9017846e-08
2.9016227e-08
2.9014576e-08
2.9012902e-08
2.9011204e-08
2.9009483e-08
2.9007741e-08
2.9005988e-08
2.9004262e-08
2.9002645e-08
2.9001132e-08
2.8999273e-08
2.8997213e-08
2.8994991e-08
2.8992693e-08
2.8990398e-08
2.8988061e-08
2.8985567e-08
2.8982966e-08
2.8980362e-08
2.8977768e-08
2.8975125e-08
2.89724e-08
2.8969567e-08
2.8966598e-08
2.8963444e-08
2.8960071e-08
2.8956488e-08
2.8952717e-08
2.8948701e-08
2.8944415e-08
2.8939847e-08
2.8935004e-08
2.9164098e-09
1.1587839e-08
2.4339435e-08
2.9880562e-08
3.1097747e-08
3.1033225e-08
3.0852315e-08
3.0770353e-08
3.075056e-08
3.0749557e-08
3.0748995e-08
3.0746219e-08
3.0742918e-08
3.0739963e-08
3.0737361e-08
3.0734915e-08
3.0732552e-08
3.0730485e-08
3.0728738e-08
3.0726921e-08
3.0724761e-08
3.0722386e-08
3.0720013e-08
3.0717719e-08
3.0715568e-08
3.0713469e-08
3.0711355e-08
3.0709243e-08
3.0707103e-08
3.0704949e-08
3.0702766e-08
3.0700562e-08
3.0698334e-08
3.0696089e-08
3.0693865e-08
3.0691753e-08
3.0689859e-08
3.0687572e-08
3.0684999e-08
3.068223e-08
3.0679364e-08
3.0676517e-08
3.067366e-08
3.0670619e-08
3.0667411e-08
3.0664178e-08
3.0660959e-08
3.0657673e-08
3.0654285e-08
3.065076e-08
3.0647075e-08
3.0643169e-08
3.0638986e-08
3.0634515e-08
3.0629796e-08
3.0624762e-08
3.0619348e-08
3.0613547e-08
3.0607354e-08
3.6542985e-09
1.4697012e-08
2.7598333e-08
3.2270144e-08
3.303212e-08
3.286972e-08
3.2712006e-08
3.2656583e-08
3.264665e-08
3.2646086e-08
3.2643489e-08
3.2639465e-08
3.2635487e-08
3.2631968e-08
3.262876e-08
3.2625673e-08
3.2622707e-08
3.2620153e-08
3.2617896e-08
3.2615458e-08
3.2612653e-08
3.2609705e-08
3.26068e-08
3.2604022e-08
3.2601387e-08
3.2598794e-08
3.2596192e-08
3.2593598e-08
3.2590983e-08
3.2588363e-08
3.2585711e-08
3.2583038e-08
3.2580342e-08
3.2577622e-08
3.2574913e-08
3.257231e-08
3.2570034e-08
3.2567412e-08
3.2564343e-08
3.2561041e-08
3.255761e-08
3.2554214e-08
3.2550867e-08
3.2547328e-08
3.2543541e-08
3.2539701e-08
3.2535883e-08
3.2531986e-08
3.2527967e-08
3.2523784e-08
3.2519417e-08
3.2514804e-08
3.2509859e-08
3.2504544e-08
3.2498918e-08
3.2492923e-08
3.2486432e-08
3.2479457e-08
3.2471967e-08
4.7041334e-09
1.8424363e-08
3.0972721e-08
3.4754018e-08
3.5134211e-08
3.4928647e-08
3.4806035e-08
3.4772403e-08
3.4768002e-08
3.476597e-08
3.4761557e-08
3.4756616e-08
3.4752066e-08
3.4747993e-08
3.4744178e-08
3.4740458e-08
3.4736933e-08
3.4733948e-08
3.4731178e-08
3.47281e-08
3.4724667e-08
3.4721177e-08
3.471777e-08
3.4714541e-08
3.4711441e-08
3.4708379e-08
3.4705313e-08
3.4702266e-08
3.4699203e-08
3.4696147e-08
3.4693055e-08
3.4689948e-08
3.4686816e-08
3.4683656e-08
3.4680495e-08
3.4677425e-08
3.4674772e-08
3.467194e-08
3.466843e-08
3.4664623e-08
3.4660646e-08
3.4656714e-08
3.4652925e-08
3.4648968e-08
3.4644666e-08
3.4640258e-08
3.4635896e-08
3.4631442e-08
3.4626855e-08
3.4622077e-08
3.4617093e-08
3.4611847e-08
3.4606232e-08
3.4600157e-08
3.4593699e-08
3.4586845e-08
3.4579376e-08
3.4571337e-08
3.4562656e-08
6.2261924e-09
2.2817137e-08
3.4623206e-08
3.7392326e-08
3.7461679e-08
3.725982e-08
3.7174836e-08
3.7156508e-08
3.7153916e-08
3.7149689e-08
3.7143923e-08
3.713832e-08
3.7133279e-08
3.7128676e-08
3.7124275e-08
3.7119958e-08
3.711596e-08
3.7112622e-08
3.7109334e-08
3.7105609e-08
3.7101601e-08
3.7097618e-08
3.7093771e-08
3.709014e-08
3.7086618e-08
3.708313e-08
3.707965e-08
3.7076198e-08
3.7072738e-08
3.7069295e-08
3.7065817e-08
3.7062333e-08
3.7058825e-08
3.7055285e-08
3.7051733e-08
3.704825e-08
3.7045248e-08
3.7042312e-08
3.7038513e-08
3.7034252e-08
3.7029771e-08
3.7025331e-08
3.7021167e-08
3.7016922e-08
3.7012207e-08
3.7007305e-08
3.7002489e-08
3.6997568e-08
3.6992519e-08
3.6987253e-08
3.698176e-08
3.6976e-08
3.6969857e-08
3.6963169e-08
3.6956003e-08
3.6948456e-08
3.6940174e-08
3.6931251e-08
3.6921559e-08
8.5525258e-09
2.7894351e-08
3.8327786e-08
4.0183769e-08
4.0085114e-08
3.9920039e-08
3.9866954e-08
3.9857725e-08
3.9854244e-08
3.9848026e-08
3.984142e-08
3.9835364e-08
3.9829911e-08
3.9824832e-08
3.9819903e-08
3.9815072e-08
3.9810751e-08
3.9807165e-08
3.9803342e-08
3.9799004e-08
3.9794507e-08
3.9790122e-08
3.9785939e-08
3.9781979e-08
3.9778108e-08
3.9774274e-08
3.9770462e-08
3.9766686e-08
3.9762913e-08
3.9759166e-08
3.9755391e-08
3.9751622e-08
3.974783e-08
3.974401e-08
3.9740165e-08
3.9736366e-08
3.9733065e-08
3.9730136e-08
3.9726329e-08
3.9721704e-08
3.9716778e-08
3.9711888e-08
3.9707436e-08
3.9703105e-08
3.969814e-08
3.9692872e-08
3.9687745e-08
3.96825e-08
3.9677153e-08
3.9671571e-08
3.9665741e-08
3.9659653e-08
3.9653191e-08
3.9646133e-08
3.9638457e-08
3.9630469e-08
3.9621643e-08
3.9612113e-08
3.9601703e-08
1.2448374e-08
3.3623011e-08
4.218895e-08
4.3262458e-08
4.3090064e-08
4.2973118e-08
4.294324e-08
4.2938406e-08
4.2932854e-08
4.2925269e-08
4.291821e-08
4.291194e-08
4.2906176e-08
4.2900734e-08
4.289539e-08
4.28902e-08
4.2885796e-08
4.2882081e-08
4.2877717e-08
4.2872872e-08
4.2868013e-08
4.2863383e-08
4.2859014e-08
4.285484e-08
4.2850741e-08
4.2846688e-08
4.2842675e-08
4.2838705e-08
4.2834754e-08
4.2830836e-08
4.2826903e-08
4.2822994e-08
4.2819061e-08
4.2815116e-08
4.2811135e-08
4.2807175e-08
4.2803681e-08
4.2800853e-08
4.279747e-08
4.2792669e-08
4.2787384e-08
4.2782146e-08
4.2777532e-08
4.2773407e-08
4.2768447e-08
4.2763016e-08
4.2757804e-08
4.2752451e-08
4.2747059e-08
4.2741429e-08
4.2735528e-08
4.2729394e-08
4.2722919e-08
4.2715867e-08
4.2708001e-08
4.269994e-08
4.2690998e-08
4.2681269e-08
4.2670597e-08
1.8725612e-08
3.9889681e-08
4.6239207e-08
4.6733268e-08
4.656806e-08
4.6498434e-08
4.6482636e-08
4.6478885e-08
4.6471328e-08
4.6463153e-08
4.6456089e-08
4.6449852e-08
4.6443945e-08
4.6438352e-08
4.6432789e-08
4.6427505e-08
4.6423356e-08
4.6419653e-08
4.6414816e-08
4.6409634e-08
4.6404651e-08
4.6400019e-08
4.6395667e-08
4.639146e-08
4.638733e-08
4.6383259e-08
4.6379248e-08
4.6375288e-08
4.6371368e-08
4.6367485e-08
4.6363615e-08
4.6359773e-08
4.6355928e-08
4.6352089e-08
4.6348214e-08
4.6344338e-08
4.6340856e-08
4.6338285e-08
4.6335744e-08
4.6331233e-08
4.6325722e-08
4.6320288e-08
4.6315747e-08
4.6312138e-08
4.6307644e-08
4.6302341e-08
4.6297407e-08
4.6292261e-08
4.6287201e-08
4.628193e-08
4.6276366e-08
4.6270606e-08
4.6264566e-08
4.625806e-08
4.625055e-08
4.6242914e-08
4.6234543e-08
4.6225194e-08
4.6214958e-08
2.7062387e-08
4.6561036e-08
5.059954e-08
5.0740648e-08
5.0628784e-08
5.0595107e-08
5.0586067e-08
5.0582112e-08
5.0573462e-08
5.05656e-08
5.055908e-08
5.0553156e-08
5.0547441e-08
5.0542061e-08
5.0536611e-08
5.053165e-08
5.0528212e-08
5.0524719e-08
5.0519634e-08
5.0514396e-08
5.0509691e-08
5.050541e-08
5.050136e-08
5.0497419e-08
5.0493567e-08
5.0489788e-08
5.0486093e-08
5.0482454e-08
5.0478886e-08
5.0475356e-08
5.0471876e-08
5.0468423e-08
5.046501e-08
5.0461609e-08
5.0458211e-08
5.0454789e-08
5.0451659e-08
5.0449591e-08
5.0448288e-08
5.0444909e-08
5.0439431e-08
5.0434002e-08
5.0429924e-08
5.0427156e-08
5.0423885e-08
5.0419094e-08
5.0415011e-08
5.0410516e-08
5.0406329e-08
5.0402007e-08
5.0397391e-08
5.0392603e-08
5.0387652e-08
5.0382391e-08
5.0376165e-08
5.0369591e-08
5.0362841e-08
5.0354662e-08
5.03459e-08
3.8825744e-08
5.3556805e-08
5.545804e-08
5.5445648e-08
5.539602e-08
5.5383593e-08
5.5377378e-08
5.5372993e-08
5.536528e-08
5.5358982e-08
5.5353644e-08
5.5348665e-08
5.5343765e-08
5.5339242e-08
5.5334437e-08
5.5330484e-08
5.5328267e-08
5.5325359e-08
5.5320448e-08
5.5315862e-08
5.531202e-08
5.5308554e-08
5.5305255e-08
5.5302063e-08
5.529897e-08
5.5295966e-08
5.5293059e-08
5.5290224e-08
5.5287477e-08
5.5284786e-08
5.5282177e-08
5.5279612e-08
5.527712e-08
5.5274659e-08
5.5272252e-08
5.5269847e-08
5.5267647e-08
5.5266433e-08
5.5266533e-08
5.5265435e-08
5.5260647e-08
5.5255699e-08
5.525262e-08
5.5251192e-08
5.5249802e-08
5.5246205e-08
5.5243794e-08
5.5240622e-08
5.5238026e-08
5.52354e-08
5.5232598e-08
5.5229572e-08
5.5226631e-08
5.5223467e-08
5.5219752e-08
5.5215164e-08
5.5211346e-08
5.5205617e-08
5.5199749e-08
5.4291891e-08
6.0642993e-08
6.1025287e-08
6.0994523e-08
6.0985314e-08
6.0981009e-08
6.0977854e-08
6.0974723e-08
6.0969515e-08
6.0966411e-08
6.0963168e-08
6.0960202e-08
6.0957154e-08
6.095454e-08
6.0951447e-08
6.0949358e-08
6.0948522e-08
6.0946758e-08
6.0943169e-08
6.0940501e-08
6.0938425e-08
6.0936543e-08
6.0934761e-08
6.0933081e-08
6.0931492e-08
6.0929997e-08
6.0928593e-08
6.0927275e-08
6.0926045e-08
6.0924895e-08
6.0923837e-08
6.0922853e-08
6.0921956e-08
6.0921122e-08
6.0920371e-08
6.091967e-08
6.0919093e-08
6.0919129e-08
6.0920549e-08
6.0921997e-08
6.0919418e-08
6.0916688e-08
6.0915765e-08
6.0916062e-08
6.0916501e-08
6.0915657e-08
6.0915743e-08
6.0915075e-08
6.0914979e-08
6.0914924e-08
6.091491e-08
6.0914721e-08
6.0914782e-08
6.0914722e-08
6.0914639e-08
6.0913772e-08
6.0913896e-08
6.0912703e-08
6.0911672e-08
1.5318621e-08
1.5318131e-08
1.5317752e-08
1.5318279e-08
1.5318614e-08
1.5319045e-08
1.5319468e-08
1.5319906e-08
1.5320351e-08
1.5320797e-08
1.5321238e-08
1.5321672e-08
1.5322093e-08
1.5322502e-08
1.5322898e-08
1.5323286e-08
1.5323672e-08
1.5324063e-08
1.5324457e-08
1.5324841e-08
1.5325198e-08
1.5325517e-08
1.5325781e-08
1.5325984e-08
1.5326128e-08
1.5326232e-08
1.5326306e-08
1.5326361e-08
1.5326398e-08
1.5326412e-08
1.5326397e-08
1.532636e-08
1.5326308e-08
1.5326242e-08
1.5326128e-08
1.5325925e-08
1.5325624e-08
1.5325257e-08
1.5324882e-08
1.5324548e-08
1.5324208e-08
1.5323634e-08
1.5322537e-08
1.5321262e-08
1.5322257e-08
1.5331694e-08
1.5358795e-08
1.5408502e-08
1.5463109e-08
1.5452909e-08
1.5225426e-08
1.4534985e-08
1.308466e-08
1.0659484e-08
7.3659334e-09
3.8913665e-09
1.6339086e-09
1.5039585e-09
9.8923352e-09
1.5581416e-08
1.5580994e-08
1.5580967e-08
1.5581419e-08
1.5581809e-08
1.5582237e-08
1.5582672e-08
1.5583118e-08
1.5583569e-08
1.5584019e-08
1.5584464e-08
1.55849e-08
1.5585323e-08
1.5585733e-08
1.5586131e-08
1.5586523e-08
1.5586913e-08
1.558731e-08
1.5587709e-08
1.5588097e-08
1.5588455e-08
1.5588774e-08
1.5589037e-08
1.5589238e-08
1.5589382e-08
1.5589484e-08
1.5589557e-08
1.558961e-08
1.5589645e-08
1.5589656e-08
1.5589639e-08
1.5589598e-08
1.5589542e-08
1.5589472e-08
1.5589355e-08
1.5589152e-08
1.5588851e-08
1.5588485e-08
1.5588106e-08
1.5587754e-08
1.5587377e-08
1.5586775e-08
1.5585728e-08
1.5584621e-08
1.5585747e-08
1.5594803e-08
1.5620464e-08
1.5668094e-08
1.5723053e-08
1.5722479e-08
1.552302e-08
1.4884433e-08
1.3501643e-08
1.1126948e-08
7.8156302e-09
4.2203369e-09
1.7151508e-09
1.3508691e-09
8.4005669e-09
1.5874309e-08
1.5873948e-08
1.5874051e-08
1.5874485e-08
1.58749e-08
1.5875335e-08
1.5875783e-08
1.5876238e-08
1.5876698e-08
1.5877157e-08
1.5877608e-08
1.587805e-08
1.5878477e-08
1.5878891e-08
1.5879292e-08
1.5879687e-08
1.5880083e-08
1.5880485e-08
1.588089e-08
1.588128e-08
1.5881641e-08
1.5881961e-08
1.5882225e-08
1.5882426e-08
1.5882571e-08
1.5882674e-08
1.5882748e-08
1.5882802e-08
1.5882838e-08
1.588285e-08
1.5882833e-08
1.588279e-08
1.5882734e-08
1.5882666e-08
1.5882559e-08
1.5882369e-08
1.5882076e-08
1.5881707e-08
1.5881319e-08
1.5880963e-08
1.5880621e-08
1.5880112e-08
1.5879154e-08
1.5877837e-08
1.5877842e-08
1.5884164e-08
1.5905599e-08
1.5950169e-08
1.6010307e-08
1.6034937e-08
1.589351e-08
1.5350388e-08
1.4083186e-08
1.1793184e-08
8.4590557e-09
4.6821039e-09
1.8449162e-09
1.2239912e-09
7.0321911e-09
1.6201884e-08
1.6201602e-08
1.620184e-08
1.6202261e-08
1.6202696e-08
1.620314e-08
1.6203598e-08
1.6204063e-08
1.6204531e-08
1.6204996e-08
1.6205452e-08
1.6205897e-08
1.6206326e-08
1.6206742e-08
1.6207146e-08
1.6207544e-08
1.6207944e-08
1.6208352e-08
1.6208761e-08
1.6209155e-08
1.6209517e-08
1.6209837e-08
1.62101e-08
1.62103e-08
1.6210445e-08
1.6210548e-08
1.6210621e-08
1.6210675e-08
1.6210711e-08
1.6210723e-08
1.6210706e-08
1.6210662e-08
1.6210603e-08
1.6210535e-08
1.6210435e-08
1.6210257e-08
1.6209972e-08
1.6209604e-08
1.6209207e-08
1.6208839e-08
1.6208502e-08
1.6208053e-08
1.6207208e-08
1.6205899e-08
1.6205326e-08
1.6209696e-08
1.6227342e-08
1.6267725e-08
1.6328878e-08
1.6370859e-08
1.6277514e-08
1.5822415e-08
1.4672456e-08
1.2481657e-08
9.1450124e-09
5.1960903e-09
2.0257087e-09
1.1352401e-09
5.9168068e-09
1.6569453e-08
1.6569279e-08
1.6569606e-08
1.6570027e-08
1.6570476e-08
1.657093e-08
1.6571397e-08
1.6571871e-08
1.6572345e-08
1.6572815e-08
1.6573275e-08
1.6573722e-08
1.6574152e-08
1.6574569e-08
1.6574974e-08
1.6575374e-08
1.6575777e-08
1.657619e-08
1.6576603e-08
1.6576998e-08
1.6577361e-08
1.657768e-08
1.6577941e-08
1.6578139e-08
1.6578282e-08
1.6578383e-08
1.6578456e-08
1.6578509e-08
1.6578546e-08
1.6578558e-08
1.6578541e-08
1.6578496e-08
1.6578435e-08
1.6578368e-08
1.6578276e-08
1.6578111e-08
1.6577837e-08
1.6577471e-08
1.6577066e-08
1.6576686e-08
1.6576355e-08
1.6575964e-08
1.6575238e-08
1.6573969e-08
1.657289e-08
1.657538e-08
1.6589105e-08
1.6624567e-08
1.6685033e-08
1.6741982e-08
1.669544e-08
1.6331714e-08
1.5310941e-08
1.3240558e-08
9.9206155e-09
5.7930211e-09
2.268299e-09
1.0782488e-09
4.9441377e-09
1.6983499e-08
1.6983463e-08
1.698385e-08
1.6984278e-08
1.6984737e-08
1.6985201e-08
1.6985677e-08
1.6986157e-08
1.6986635e-08
1.6987108e-08
1.6987569e-08
1.6988015e-08
1.6988445e-08
1.698886e-08
1.6989264e-08
1.6989665e-08
1.6990071e-08
1.6990487e-08
1.6990902e-08
1.6991297e-08
1.6991658e-08
1.6991975e-08
1.6992233e-08
1.6992427e-08
1.6992567e-08
1.6992665e-08
1.6992735e-08
1.6992788e-08
1.6992825e-08
1.6992838e-08
1.6992821e-08
1.6992775e-08
1.6992712e-08
1.6992645e-08
1.6992561e-08
1.6992412e-08
1.6992153e-08
1.6991791e-08
1.6991379e-08
1.6990986e-08
1.6990652e-08
1.6990307e-08
1.6989705e-08
1.6988553e-08
1.6987182e-08
1.6988117e-08
1.6998077e-08
1.7027929e-08
1.7085275e-08
1.7152695e-08
1.7147911e-08
1.6874227e-08
1.5991082e-08
1.4063389e-08
1.0787661e-08
6.4824826e-09
2.5722385e-09
1.057173e-09
4.1501772e-09
1.7451963e-08
1.7452048e-08
1.7452475e-08
1.7452914e-08
1.7453381e-08
1.7453854e-08
1.7454335e-08
1.7454819e-08
1.7455299e-08
1.7455772e-08
1.7456231e-08
1.7456673e-08
1.7457098e-08
1.7457508e-08
1.745791e-08
1.7458309e-08
1.7458715e-08
1.7459132e-08
1.7459547e-08
1.745994e-08
1.7460298e-08
1.746061e-08
1.7460862e-08
1.746105e-08
1.7461185e-08
1.7461277e-08
1.7461344e-08
1.7461395e-08
1.7461432e-08
1.7461446e-08
1.746143e-08
1.7461383e-08
1.7461318e-08
1.7461252e-08
1.7461176e-08
1.7461045e-08
1.7460804e-08
1.7460451e-08
1.7460036e-08
1.7459629e-08
1.7459287e-08
1.7458975e-08
1.7458491e-08
1.7457502e-08
1.7456013e-08
1.7455726e-08
1.746221e-08
1.7486058e-08
1.7538195e-08
1.7611598e-08
1.7642774e-08
1.7456322e-08
1.6718028e-08
1.4956388e-08
1.1759248e-08
7.2931612e-09
2.9586855e-09
1.069492e-09
3.4851706e-09
1.7984595e-08
1.7984784e-08
1.798523e-08
1.7985681e-08
1.7986152e-08
1.798663e-08
1.7987114e-08
1.7987598e-08
1.7988076e-08
1.7988543e-08
1.7988996e-08
1.7989429e-08
1.7989844e-08
1.7990246e-08
1.7990641e-08
1.7991035e-08
1.7991439e-08
1.7991854e-08
1.7992266e-08
1.7992653e-08
1.7993004e-08
1.7993308e-08
1.7993551e-08
1.7993731e-08
1.7993856e-08
1.7993941e-08
1.7994002e-08
1.7994051e-08
1.7994087e-08
1.7994102e-08
1.7994087e-08
1.7994041e-08
1.7993975e-08
1.7993908e-08
1.7993842e-08
1.7993731e-08
1.7993514e-08
1.7993176e-08
1.799276e-08
1.7992341e-08
1.7991987e-08
1.7991696e-08
1.7991317e-08
1.7990523e-08
1.7989085e-08
1.7987955e-08
1.7991416e-08
1.8009164e-08
1.8054234e-08
1.8128816e-08
1.8188659e-08
1.8083843e-08
1.7495051e-08
1.5922616e-08
1.2844832e-08
8.2440944e-09
3.4494346e-09
1.1248135e-09
2.93589e-09
1.8593552e-08
1.8593811e-08
1.8594265e-08
1.8594722e-08
1.8595195e-08
1.8595673e-08
1.8596154e-08
1.8596632e-08
1.8597101e-08
1.8597558e-08
1.8597997e-08
1.8598415e-08
1.8598814e-08
1.8599201e-08
1.8599584e-08
1.8599969e-08
1.8600366e-08
1.8600775e-08
1.8601178e-08
1.8601554e-08
1.8601894e-08
1.8602185e-08
1.8602415e-08
1.8602582e-08
1.8602693e-08
1.8602765e-08
1.8602819e-08
1.8602865e-08
1.86029e-08
1.8602915e-08
1.8602902e-08
1.8602858e-08
1.8602792e-08
1.8602726e-08
1.8602669e-08
1.8602583e-08
1.8602397e-08
1.8602081e-08
1.8601671e-08
1.8601244e-08
1.8600877e-08
1.8600595e-08
1.86003e-08
1.859971e-08
1.8598462e-08
1.8596876e-08
1.8597913e-08
1.8609833e-08
1.8646464e-08
1.8717521e-08
1.8797618e-08
1.8765906e-08
1.8327136e-08
1.6965993e-08
1.4054951e-08
9.360355e-09
4.0684368e-09
1.2202963e-09
2.4866406e-09
1.9294149e-08
1.9294449e-08
1.9294905e-08
1.9295363e-08
1.9295831e-08
1.9296303e-08
1.9296774e-08
1.9297237e-08
1.929769e-08
1.9298127e-08
1.9298543e-08
1.9298936e-08
1.9299309e-08
1.9299672e-08
1.9300035e-08
1.9300403e-08
1.9300787e-08
1.9301182e-08
1.9301569e-08
1.9301927e-08
1.9302248e-08
1.9302521e-08
1.9302732e-08
1.9302879e-08
1.930297e-08
1.9303023e-08
1.9303067e-08
1.9303108e-08
1.9303141e-08
1.9303157e-08
1.9303147e-08
1.9303105e-08
1.9303041e-08
1.9302978e-08
1.9302931e-08
1.9302876e-08
1.930273e-08
1.9302447e-08
1.9302052e-08
1.9301623e-08
1.9301246e-08
1.9300966e-08
1.9300733e-08
1.9300334e-08
1.9299372e-08
1.9297697e-08
1.9297018e-08
1.9303761e-08
1.9331223e-08
1.9394472e-08
1.9485566e-08
1.9515383e-08
1.9222441e-08
1.8091007e-08
1.5399243e-08
1.0670026e-08
4.8573212e-09
1.368509e-09
2.1266632e-09
2.0105973e-08
2.0106288e-08
2.0106739e-08
2.010719e-08
2.0107645e-08
2.01081e-08
2.0108549e-08
2.0108987e-08
2.010941e-08
2.0109812e-08
2.0110191e-08
2.0110544e-08
2.0110878e-08
2.0111204e-08
2.0111535e-08
2.0111875e-08
2.0112235e-08
2.0112607e-08
2.0112965e-08
2.0113293e-08
2.0113587e-08
2.0113831e-08
2.0114013e-08
2.0114132e-08
2.0114192e-08
2.0114219e-08
2.011425e-08
2.0114284e-08
2.0114313e-08
2.0114329e-08
2.0114323e-08
2.0114287e-08
2.0114228e-08
2.0114169e-08
2.0114132e-08
2.0114117e-08
2.0114024e-08
2.0113789e-08
2.0113423e-08
2.0113001e-08
2.0112622e-08
2.0112345e-08
2.0112152e-08
2.0111913e-08
2.0111284e-08
2.0109828e-08
2.0108188e-08
2.011076e-08
2.0129115e-08
2.0181143e-08
2.0273715e-08
2.0350486e-08
2.0193332e-08
1.9304559e-08
1.6886807e-08
1.2202967e-08
5.867453e-09
1.5781313e-09
1.8498858e-09
2.105428e-08
2.1054612e-08
2.1055051e-08
2.1055483e-08
2.1055914e-08
2.1056339e-08
2.1056752e-08
2.1057148e-08
2.1057524e-08
2.1057873e-08
2.1058193e-08
2.1058486e-08
2.1058761e-08
2.1059033e-08
2.1059314e-08
2.1059613e-08
2.1059934e-08
2.1060265e-08
2.1060578e-08
2.1060862e-08
2.1061114e-08
2.1061316e-08
2.1061458e-08
2.1061536e-08
2.1061551e-08
2.1061539e-08
2.1061553e-08
2.1061578e-08
2.1061602e-08
2.1061616e-08
2.1061617e-08
2.106159e-08
2.1061541e-08
2.106149e-08
2.1061462e-08
2.1061503e-08
2.1061475e-08
2.106131e-08
2.1060994e-08
2.1060596e-08
2.1060224e-08
2.1059959e-08
2.1059797e-08
2.1059676e-08
2.1059371e-08
2.105835e-08
2.1056469e-08
2.1056144e-08
2.1066304e-08
2.1105006e-08
2.1190112e-08
2.1296836e-08
2.1258736e-08
2.0618311e-08
1.8526693e-08
1.3989719e-08
7.169405e-09
1.8644182e-09
1.6593976e-09
2.217172e-08
2.2172081e-08
2.21725e-08
2.2172902e-08
2.2173297e-08
2.2173677e-08
2.2174037e-08
2.2174373e-08
2.2174681e-08
2.2174953e-08
2.2175191e-08
2.2175401e-08
2.2175595e-08
2.2175791e-08
2.2176005e-08
2.2176244e-08
2.217651e-08
2.217678e-08
2.2177026e-08
2.2177248e-08
2.2177444e-08
2.2177589e-08
2.2177677e-08
2.2177696e-08
2.2177639e-08
2.2177583e-08
2.2177574e-08
2.2177588e-08
2.2177605e-08
2.2177617e-08
2.2177628e-08
2.2177614e-08
2.2177582e-08
2.2177545e-08
2.2177537e-08
2.2177626e-08
2.2177698e-08
2.2177628e-08
2.217739e-08
2.2177038e-08
2.2176686e-08
2.2176448e-08
2.2176316e-08
2.2176286e-08
2.2176249e-08
2.2175757e-08
2.2174224e-08
2.2172383e-08
2.2176048e-08
2.2200975e-08
2.2271241e-08
2.2389704e-08
2.2446813e-08
2.2047875e-08
2.0329805e-08
1.6059032e-08
8.850445e-09
2.2956852e-09
1.5772089e-09
2.3498887e-08
2.3499307e-08
2.3499703e-08
2.3500076e-08
2.3500437e-08
2.3500771e-08
2.3501075e-08
2.3501348e-08
2.350158e-08
2.3501766e-08
2.350191e-08
2.3502024e-08
2.3502126e-08
2.3502236e-08
2.3502375e-08
2.3502554e-08
2.350276e-08
2.3502955e-08
2.3503122e-08
2.3503276e-08
2.3503412e-08
2.3503496e-08
2.3503516e-08
2.350344e-08
2.3503309e-08
2.3503219e-08
2.3503181e-08
2.3503183e-08
2.3503194e-08
2.3503209e-08
2.3503232e-08
2.350324e-08
2.3503232e-08
2.3503222e-08
2.3503249e-08
2.3503378e-08
2.3503552e-08
2.3503632e-08
2.3503499e-08
2.3503219e-08
2.3502892e-08
2.3502686e-08
2.3502602e-08
2.3502632e-08
2.3502801e-08
2.350279e-08
2.3501977e-08
2.3499886e-08
2.3499295e-08
2.3511755e-08
2.3562347e-08
2.367473e-08
2.379743e-08
2.3621099e-08
2.2312877e-08
1.8440522e-08
1.0991971e-08
2.9975723e-09
1.5507998e-09
1.2002219e-08
1.4579255e-08
1.7360946e-08
2.0460596e-08
2.3990937e-08
2.8033908e-08
3.264543e-08
3.7868111e-08
4.3738377e-08
5.0288086e-08
5.7538325e-08
6.5494633e-08
7.4138175e-08
8.3417139e-08
9.3234868e-08
1.0343947e-07
1.1380918e-07
1.2404177e-07
1.3374615e-07
1.4244045e-07
1.4956353e-07
1.5448562e-07
1.5662486e-07
1.5553167e-07
1.5073556e-07
1.4196691e-07
1.2914874e-07
1.1256566e-07
9.3134372e-08
7.1189218e-08
4.9421303e-08
2.9330088e-08
1.288693e-08
2.3161489e-09
1.2101798e-09
5.6248653e-09
1.9350393e-08
4.5113383e-08
8.2533164e-08
1.2933488e-07
1.7845488e-07
2.3153607e-07
2.8960996e-07
3.5332128e-07
4.2127463e-07
4.8962568e-07
5.5909299e-07
6.292117e-07
6.9927556e-07
7.6835959e-07
8.3545914e-07
8.9963798e-07
9.6048849e-07
1.0180314e-06
1.0723994e-06
1.123701e-06
1.1721045e-06
1.2175886e-06
1.2599605e-06
1.299413e-06
1.3363636e-06
1.3710359e-06
1.403529e-06
1.4339493e-06
1.4624125e-06
1.4890222e-06
1.5138771e-06
1.5370751e-06
1.5587164e-06
1.5788963e-06
1.5977257e-06
1.6152863e-06
1.6316886e-06
1.6468893e-06
1.9282303e-09
2.4195225e-09
2.9713114e-09
3.5843335e-09
4.2628116e-09
5.01614e-09
5.8547236e-09
6.7880165e-09
7.8237163e-09
8.9681188e-09
1.0225935e-08
1.1599619e-08
1.3088278e-08
1.4686026e-08
1.6380335e-08
1.8149984e-08
1.9963166e-08
2.1775081e-08
2.3526735e-08
2.5143594e-08
2.6537597e-08
2.7607368e-08
2.8228164e-08
2.8248335e-08
2.7578566e-08
2.6220541e-08
2.4189492e-08
2.1536754e-08
1.8416266e-08
1.4992443e-08
1.1470773e-08
8.0733358e-09
5.4804109e-09
2.9211081e-09
1.2829466e-09
1.0649779e-09
1.9413736e-09
4.1554698e-09
7.7707451e-09
1.2787869e-08
1.8664493e-08
2.5191932e-08
3.2334736e-08
4.016057e-08
4.865306e-08
5.7502767e-08
6.6531379e-08
7.567504e-08
8.4847939e-08
9.4014332e-08
1.031067e-07
1.1200849e-07
1.2062492e-07
1.2889883e-07
1.3680111e-07
1.4431885e-07
1.5145273e-07
1.5822052e-07
1.646328e-07
1.7066933e-07
1.7633748e-07
1.8165604e-07
1.8660957e-07
1.9122199e-07
1.9551756e-07
1.9951847e-07
2.0324321e-07
2.0671026e-07
2.0993477e-07
2.1293222e-07
2.1571516e-07
2.1829952e-07
2.2069582e-07
2.2297931e-07
1.558866e-09
1.5037144e-09
1.4662638e-09
1.4535659e-09
1.4729531e-09
1.5320265e-09
1.6359425e-09
1.7951292e-09
2.0170906e-09
2.3033677e-09
2.6518443e-09
3.0596289e-09
3.5228714e-09
4.036691e-09
4.5953061e-09
5.1918315e-09
5.8179575e-09
6.4631373e-09
7.113819e-09
7.7525247e-09
8.3573586e-09
8.9023313e-09
9.356565e-09
9.68216e-09
9.8417839e-09
9.8091899e-09
9.5696169e-09
9.1204662e-09
8.4785395e-09
7.6693366e-09
6.7243101e-09
5.6999286e-09
4.6721319e-09
3.7287902e-09
2.8633662e-09
2.2255586e-09
1.7186251e-09
1.7088567e-09
1.9207717e-09
2.3917771e-09
3.0930595e-09
3.9741619e-09
5.0392196e-09
6.2693912e-09
7.6484574e-09
9.146829e-09
1.0734679e-08
1.238776e-08
1.4084088e-08
1.5805934e-08
1.7536634e-08
1.925964e-08
2.0959873e-08
2.2624425e-08
2.4242903e-08
2.5807341e-08
2.7312143e-08
2.8750972e-08
3.0115573e-08
3.140618e-08
3.2624319e-08
3.3771738e-08
3.4849978e-08
3.5861162e-08
3.6807821e-08
3.7692748e-08
3.8518865e-08
3.9289179e-08
4.0006706e-08
4.0674397e-08
4.1295478e-08
4.1873284e-08
4.2409912e-08
4.2911205e-08
3.2278149e-09
2.6181719e-09
2.1703219e-09
1.8628573e-09
1.6755131e-09
1.5680143e-09
1.5053172e-09
1.4650697e-09
1.4195387e-09
1.4035776e-09
1.4147653e-09
1.4582731e-09
1.5413326e-09
1.6684795e-09
1.841759e-09
2.0594671e-09
2.3185861e-09
2.614218e-09
2.9401671e-09
3.2863682e-09
3.6354113e-09
3.9766414e-09
4.3009595e-09
4.596909e-09
4.8509867e-09
5.0496163e-09
5.1806022e-09
5.2350929e-09
5.2082515e-09
5.1026177e-09
4.9252724e-09
4.6836057e-09
4.3819872e-09
4.0489626e-09
3.6937956e-09
3.3453731e-09
2.9748428e-09
2.6908723e-09
2.4763936e-09
2.3047358e-09
2.249987e-09
2.2640479e-09
2.3226376e-09
2.4256377e-09
2.5696594e-09
2.7494332e-09
2.9543096e-09
3.1884739e-09
3.4464517e-09
3.7231409e-09
4.0136935e-09
4.3136206e-09
4.6189045e-09
4.9260215e-09
5.2319162e-09
5.5339928e-09
5.8300893e-09
6.1183631e-09
6.3974775e-09
6.6663659e-09
6.9242471e-09
7.170547e-09
7.4049145e-09
7.6272134e-09
7.8374682e-09
8.0358323e-09
8.2225576e-09
8.3979759e-09
8.5624724e-09
8.7164799e-09
8.860459e-09
8.9948873e-09
9.1202194e-09
9.2371352e-09
6.3232166e-09
5.1927564e-09
4.231926e-09
3.4408771e-09
2.8172458e-09
2.3439482e-09
2.0099959e-09
1.7750635e-09
1.6110481e-09
1.5061363e-09
1.4404104e-09
1.3986403e-09
1.3726389e-09
1.3435002e-09
1.3369328e-09
1.3495258e-09
1.3863603e-09
1.4516574e-09
1.5465759e-09
1.6808429e-09
1.8515467e-09
2.0516248e-09
2.268751e-09
2.4883436e-09
2.7033818e-09
2.9081957e-09
3.0962875e-09
3.2614647e-09
3.3980537e-09
3.5017405e-09
3.5706216e-09
3.6045743e-09
3.6028754e-09
3.5704459e-09
3.5022987e-09
3.4074434e-09
3.31352e-09
3.199364e-09
3.0816196e-09
2.958094e-09
2.8437833e-09
2.7498495e-09
2.6759392e-09
2.6238541e-09
2.5849165e-09
2.5547886e-09
2.5348488e-09
2.5297638e-09
2.531971e-09
2.5403622e-09
2.5542204e-09
2.5727358e-09
2.594903e-09
2.6201806e-09
2.648069e-09
2.6779329e-09
2.7092123e-09
2.7413852e-09
2.7739931e-09
2.8066754e-09
2.8391316e-09
2.8710938e-09
2.9023395e-09
2.9326929e-09
2.9620191e-09
2.990218e-09
3.0172187e-09
3.0429763e-09
3.0674671e-09
3.0906854e-09
3.1126412e-09
3.1333548e-09
3.1528573e-09
3.17115e-09
9.5266855e-09
8.1893315e-09
6.9321772e-09
5.8039804e-09
4.8237919e-09
3.9959102e-09
3.3212853e-09
2.783748e-09
2.3629414e-09
2.0420664e-09
1.8030571e-09
1.6342031e-09
1.5121592e-09
1.4288496e-09
1.3749563e-09
1.3419465e-09
1.3202362e-09
1.3007987e-09
1.2892306e-09
1.291994e-09
1.309606e-09
1.3500867e-09
1.4206926e-09
1.5188918e-09
1.639395e-09
1.7782873e-09
1.9209534e-09
2.0613194e-09
2.1955111e-09
2.3200853e-09
2.4323493e-09
2.5303115e-09
2.6127221e-09
2.6789094e-09
2.7309106e-09
2.7666751e-09
2.7879197e-09
2.7967663e-09
2.7955873e-09
2.7850675e-09
2.7622122e-09
2.7338609e-09
2.7090293e-09
2.6856956e-09
2.6635851e-09
2.6427458e-09
2.6240172e-09
2.6075314e-09
2.5932252e-09
2.5809711e-09
2.5706405e-09
2.5621309e-09
2.5561863e-09
2.5512129e-09
2.5469686e-09
2.543136e-09
2.5400164e-09
2.537594e-09
2.5357807e-09
2.5344927e-09
2.5336551e-09
2.5332017e-09
2.5330701e-09
2.5332048e-09
2.5335585e-09
2.534089e-09
2.5347594e-09
2.5355383e-09
2.5363984e-09
2.5373172e-09
2.5382757e-09
2.5392587e-09
2.5402542e-09
2.5412444e-09
1.2090686e-08