/*--------------------------------*- C++ -*----------------------------------*\
| =========                 |                                                 |
| \\      /  F ield         | OpenFOAM: The Open Source CFD Toolbox           |
|  \\    /   O peration     | Version:  v2006                                 |
|   \\  /    A nd           | Website:  www.openfoam.com                      |
|    \\/     M anipulation  |                                                 |
\*---------------------------------------------------------------------------*/
FoamFile
{
    version     2.0;
    format      ascii;
    class       volScalarField;
    location    "3000";
    object      nut;
}
// * * * * * * * * * * * * * * * * * * * * * * * * * * * * * * * * * * * * * //

dimensions      [0 2 -1 0 0 0 0];


internalField   nonuniform List<scalar> 
55713
(
2.8864427e-10
2.885257e-09
2.8901967e-08
6.9323521e-08
8.9612576e-08
9.5667145e-08
9.5899769e-08
9.5048407e-08
9.4486968e-08
9.4282632e-08
9.4250067e-08
9.4261369e-08
9.4271305e-08
9.4273325e-08
9.4271733e-08
9.4270906e-08
9.4271135e-08
9.4271565e-08
9.4272638e-08
9.4274613e-08
9.4276247e-08
9.4276779e-08
9.4276243e-08
9.4275587e-08
9.42752e-08
9.427512e-08
9.4275094e-08
9.4275012e-08
9.4274861e-08
9.4274671e-08
9.4274458e-08
9.427422e-08
9.4273987e-08
9.42738e-08
9.4273774e-08
9.4273977e-08
9.4274102e-08
9.4273826e-08
9.4273217e-08
9.4272342e-08
9.4271356e-08
9.4270361e-08
9.4269332e-08
9.4268253e-08
9.4267198e-08
9.4266234e-08
9.4265373e-08
9.4264558e-08
9.4263736e-08
9.4262866e-08
9.4261923e-08
9.4260877e-08
9.4259752e-08
9.4258604e-08
9.4257487e-08
9.4256392e-08
9.4255304e-08
9.4254151e-08
9.4252903e-08
3.4716369e-10
4.1845787e-09
3.594001e-08
7.617514e-08
9.305257e-08
9.6972666e-08
9.6593834e-08
9.5764002e-08
9.5333819e-08
9.5210053e-08
9.5204235e-08
9.5217154e-08
9.5223404e-08
9.522241e-08
9.5219983e-08
9.5219179e-08
9.521932e-08
9.5219442e-08
9.5220309e-08
9.5221992e-08
9.5223054e-08
9.5222768e-08
9.5221885e-08
9.5220955e-08
9.5220301e-08
9.5219914e-08
9.5219534e-08
9.5219112e-08
9.5218615e-08
9.5218088e-08
9.5217538e-08
9.5216962e-08
9.5216375e-08
9.5215818e-08
9.5215409e-08
9.521533e-08
9.5215255e-08
9.5214666e-08
9.5213726e-08
9.5212494e-08
9.5211118e-08
9.5209746e-08
9.5208346e-08
9.5206867e-08
9.5205371e-08
9.5203965e-08
9.5202664e-08
9.520141e-08
9.5200137e-08
9.5198808e-08
9.519738e-08
9.5195814e-08
9.5194109e-08
9.5192329e-08
9.5190531e-08
9.5188705e-08
9.5186819e-08
9.5184791e-08
9.5182581e-08
4.3102087e-10
5.8802668e-09
4.3431673e-08
8.2291023e-08
9.5728915e-08
9.8038553e-08
9.7314628e-08
9.6571619e-08
9.6262788e-08
9.6198907e-08
9.6207446e-08
9.6218715e-08
9.6220678e-08
9.6217751e-08
9.6215146e-08
9.62144e-08
9.6214384e-08
9.6214316e-08
9.6214917e-08
9.6216009e-08
9.6216286e-08
9.6215499e-08
9.621432e-08
9.6213134e-08
9.6212224e-08
9.6211538e-08
9.6210818e-08
9.6210074e-08
9.6209256e-08
9.6208419e-08
9.6207557e-08
9.6206657e-08
9.620574e-08
9.6204838e-08
9.6204055e-08
9.6203651e-08
9.620346e-08
9.6202595e-08
9.620135e-08
9.6199778e-08
9.6198026e-08
9.6196296e-08
9.619456e-08
9.6192719e-08
9.6190818e-08
9.6188999e-08
9.6187295e-08
9.6185639e-08
9.6183955e-08
9.6182206e-08
9.618034e-08
9.6178305e-08
9.6176082e-08
9.6173727e-08
9.6171314e-08
9.6168829e-08
9.6166228e-08
9.6163413e-08
9.6160323e-08
5.5253196e-10
8.1989522e-09
5.157571e-08
8.7802328e-08
9.7963441e-08
9.898707e-08
9.8089067e-08
9.7476807e-08
9.7277034e-08
9.7254717e-08
9.7268537e-08
9.7275223e-08
9.7273836e-08
9.7270122e-08
9.7267586e-08
9.726681e-08
9.7266566e-08
9.726631e-08
9.7266655e-08
9.7267134e-08
9.7266692e-08
9.7265429e-08
9.7263994e-08
9.7262572e-08
9.7261432e-08
9.7260449e-08
9.7259418e-08
9.7258374e-08
9.7257265e-08
9.7256142e-08
9.7254991e-08
9.7253804e-08
9.72526e-08
9.7251387e-08
9.7250255e-08
9.7249493e-08
9.7249231e-08
9.7248158e-08
9.7246648e-08
9.7244757e-08
9.7242659e-08
9.7240588e-08
9.7238557e-08
9.7236392e-08
9.723413e-08
9.7231933e-08
9.7229871e-08
9.7227849e-08
9.7225797e-08
9.7223657e-08
9.7221398e-08
9.7218941e-08
9.7216259e-08
9.7213376e-08
9.7210404e-08
9.7207318e-08
9.720407e-08
9.7200537e-08
9.7196646e-08
7.2913167e-10
1.1287836e-08
6.0073985e-08
9.2554182e-08
9.9792684e-08
9.9874616e-08
9.8950651e-08
9.8488449e-08
9.8375671e-08
9.837779e-08
9.8389918e-08
9.8391764e-08
9.8388514e-08
9.8384602e-08
9.838219e-08
9.8381289e-08
9.8380773e-08
9.8380379e-08
9.8380449e-08
9.8380266e-08
9.8379163e-08
9.8377521e-08
9.8375862e-08
9.8374241e-08
9.8372884e-08
9.8371619e-08
9.8370306e-08
9.8368988e-08
9.8367614e-08
9.8366241e-08
9.8364828e-08
9.8363385e-08
9.8361921e-08
9.8360434e-08
9.8359e-08
9.8357877e-08
9.8357525e-08
9.8356385e-08
9.835465e-08
9.8352475e-08
9.8350055e-08
9.8347661e-08
9.8345374e-08
9.8342943e-08
9.8340367e-08
9.8337836e-08
9.8335461e-08
9.8333124e-08
9.8330752e-08
9.8328274e-08
9.8325673e-08
9.8322862e-08
9.8319794e-08
9.831646e-08
9.8312998e-08
9.8309397e-08
9.8305589e-08
9.8301443e-08
9.8296852e-08
9.8784565e-10
1.5341683e-08
6.8651807e-08
9.6137988e-08
1.01319e-07
1.0076415e-07
9.9923948e-08
9.9609171e-08
9.9558499e-08
9.957093e-08
9.9577695e-08
9.9576326e-08
9.9572233e-08
9.956836e-08
9.956607e-08
9.9564953e-08
9.9564141e-08
9.9563666e-08
9.9563421e-08
9.9562588e-08
9.9560926e-08
9.9558993e-08
9.9557118e-08
9.9555345e-08
9.9553785e-08
9.9552273e-08
9.9550711e-08
9.954916e-08
9.9547555e-08
9.9545965e-08
9.9544324e-08
9.9542666e-08
9.9540981e-08
9.953927e-08
9.9537577e-08
9.9536122e-08
9.9535583e-08
9.9534591e-08
9.9532675e-08
9.9530276e-08
9.9527555e-08
9.952486e-08
9.9522353e-08
9.951973e-08
9.9516894e-08
9.9514084e-08
9.9511446e-08
9.9508858e-08
9.9506225e-08
9.9503476e-08
9.9500592e-08
9.9497504e-08
9.9494135e-08
9.9490442e-08
9.948657e-08
9.9482555e-08
9.9478287e-08
9.9473652e-08
9.9468476e-08
1.3710816e-09
2.0573162e-08
7.6909975e-08
9.9020501e-08
1.0256074e-07
1.0169582e-07
1.0102724e-07
1.0083929e-07
1.008268e-07
1.0083887e-07
1.0084065e-07
1.0083743e-07
1.0083311e-07
1.008294e-07
1.0082721e-07
1.0082582e-07
1.0082472e-07
1.0082418e-07
1.0082356e-07
1.0082214e-07
1.0082008e-07
1.0081792e-07
1.0081585e-07
1.0081396e-07
1.0081222e-07
1.0081051e-07
1.0080874e-07
1.0080701e-07
1.0080522e-07
1.0080346e-07
1.0080164e-07
1.0079981e-07
1.0079795e-07
1.0079607e-07
1.0079418e-07
1.0079245e-07
1.0079162e-07
1.0079096e-07
1.0078897e-07
1.007864e-07
1.0078343e-07
1.0078044e-07
1.0077777e-07
1.0077504e-07
1.0077203e-07
1.00769e-07
1.0076617e-07
1.007634e-07
1.0076059e-07
1.0075765e-07
1.0075456e-07
1.0075128e-07
1.0074772e-07
1.0074378e-07
1.007396e-07
1.0073529e-07
1.007307e-07
1.0072571e-07
1.0072011e-07
1.9513849e-09
2.7207469e-08
8.5010297e-08
1.0204331e-07
1.0365709e-07
1.0274019e-07
1.0227275e-07
1.0217738e-07
1.0218415e-07
1.0219083e-07
1.0218897e-07
1.0218497e-07
1.021808e-07
1.0217729e-07
1.0217517e-07
1.0217352e-07
1.0217215e-07
1.0217145e-07
1.0217042e-07
1.0216855e-07
1.0216625e-07
1.0216392e-07
1.0216172e-07
1.0215975e-07
1.0215786e-07
1.0215599e-07
1.0215409e-07
1.0215222e-07
1.021503e-07
1.0214842e-07
1.0214648e-07
1.0214455e-07
1.0214258e-07
1.0214058e-07
1.0213857e-07
1.0213663e-07
1.0213553e-07
1.0213516e-07
1.0213338e-07
1.0213071e-07
1.0212753e-07
1.0212427e-07
1.0212146e-07
1.0211874e-07
1.0211567e-07
1.0211249e-07
1.0210957e-07
1.021067e-07
1.0210382e-07
1.0210078e-07
1.0209759e-07
1.0209422e-07
1.020906e-07
1.0208655e-07
1.020822e-07
1.0207774e-07
1.0207297e-07
1.0206782e-07
1.0206196e-07
2.8749515e-09
3.5457007e-08
9.2216394e-08
1.04337e-07
1.047663e-07
1.0395961e-07
1.0366287e-07
1.0362644e-07
1.0363668e-07
1.0363815e-07
1.0363447e-07
1.0363052e-07
1.0362662e-07
1.0362338e-07
1.0362131e-07
1.0361946e-07
1.0361781e-07
1.036168e-07
1.0361535e-07
1.0361322e-07
1.0361082e-07
1.0360842e-07
1.0360618e-07
1.0360416e-07
1.0360218e-07
1.0360022e-07
1.0359825e-07
1.0359631e-07
1.0359434e-07
1.0359241e-07
1.0359041e-07
1.0358845e-07
1.0358645e-07
1.0358442e-07
1.0358236e-07
1.0358032e-07
1.0357896e-07
1.0357875e-07
1.0357759e-07
1.0357491e-07
1.0357157e-07
1.0356805e-07
1.0356515e-07
1.0356257e-07
1.0355956e-07
1.0355635e-07
1.0355344e-07
1.0355059e-07
1.0354776e-07
1.0354475e-07
1.0354159e-07
1.0353825e-07
1.0353472e-07
1.0353075e-07
1.0352638e-07
1.0352195e-07
1.0351722e-07
1.0351211e-07
1.0350622e-07
4.4764253e-09
4.5474492e-08
9.8582873e-08
1.0633198e-07
1.0599233e-07
1.0535846e-07
1.0519516e-07
1.0519121e-07
1.0519767e-07
1.0519535e-07
1.0519098e-07
1.0518762e-07
1.0518402e-07
1.0518115e-07
1.0517913e-07
1.0517721e-07
1.0517521e-07
1.0517374e-07
1.0517196e-07
1.0516976e-07
1.0516737e-07
1.0516502e-07
1.0516285e-07
1.0516083e-07
1.0515884e-07
1.0515688e-07
1.0515493e-07
1.05153e-07
1.0515107e-07
1.0514916e-07
1.0514721e-07
1.051453e-07
1.0514334e-07
1.0514139e-07
1.051394e-07
1.0513736e-07
1.0513581e-07
1.0513559e-07
1.0513549e-07
1.0513298e-07
1.051295e-07
1.0512576e-07
1.0512278e-07
1.0512055e-07
1.0511775e-07
1.0511463e-07
1.0511189e-07
1.0510919e-07
1.051066e-07
1.0510378e-07
1.0510079e-07
1.0509765e-07
1.0509438e-07
1.0509073e-07
1.0508654e-07
1.0508236e-07
1.0507792e-07
1.0507311e-07
1.0506748e-07
7.1839369e-09
5.7283233e-08
1.0383238e-07
1.0810215e-07
1.0738078e-07
1.0694719e-07
1.0687447e-07
1.0688214e-07
1.0688276e-07
1.068786e-07
1.0687468e-07
1.0687204e-07
1.0686877e-07
1.068664e-07
1.0686443e-07
1.0686259e-07
1.0686031e-07
1.0685842e-07
1.0685636e-07
1.0685419e-07
1.0685195e-07
1.0684979e-07
1.0684779e-07
1.0684587e-07
1.0684399e-07
1.0684214e-07
1.0684031e-07
1.068385e-07
1.0683671e-07
1.0683493e-07
1.0683314e-07
1.0683138e-07
1.068296e-07
1.0682784e-07
1.0682604e-07
1.0682417e-07
1.0682259e-07
1.0682232e-07
1.0682322e-07
1.0682139e-07
1.0681782e-07
1.0681391e-07
1.0681097e-07
1.0680926e-07
1.0680689e-07
1.0680399e-07
1.0680163e-07
1.0679927e-07
1.0679715e-07
1.0679466e-07
1.0679205e-07
1.067893e-07
1.0678652e-07
1.0678344e-07
1.0677972e-07
1.0677604e-07
1.0677223e-07
1.0676801e-07
1.06763e-07
1.1047674e-08
7.0812692e-08
1.0728716e-07
1.0970452e-07
1.0897358e-07
1.0872977e-07
1.087071e-07
1.0871381e-07
1.0871057e-07
1.0870629e-07
1.0870337e-07
1.0870123e-07
1.0869846e-07
1.0869664e-07
1.0869472e-07
1.0869312e-07
1.0869112e-07
1.0868901e-07
1.0868665e-07
1.0868455e-07
1.0868265e-07
1.0868084e-07
1.0867913e-07
1.0867745e-07
1.0867581e-07
1.086742e-07
1.0867263e-07
1.0867107e-07
1.0866956e-07
1.0866804e-07
1.0866656e-07
1.0866507e-07
1.0866362e-07
1.0866216e-07
1.0866072e-07
1.0865922e-07
1.0865785e-07
1.086576e-07
1.0865915e-07
1.0865869e-07
1.0865518e-07
1.0865114e-07
1.0864853e-07
1.0864746e-07
1.0864589e-07
1.0864336e-07
1.0864159e-07
1.0863979e-07
1.0863831e-07
1.086363e-07
1.0863434e-07
1.0863224e-07
1.0863018e-07
1.0862795e-07
1.0862511e-07
1.0862219e-07
1.0861942e-07
1.086161e-07
1.0861216e-07
1.6816917e-08
8.5998916e-08
1.0959683e-07
1.1120909e-07
1.1079139e-07
1.107023e-07
1.1069962e-07
1.1070137e-07
1.1069748e-07
1.1069431e-07
1.1069231e-07
1.1069056e-07
1.1068842e-07
1.106872e-07
1.1068533e-07
1.1068415e-07
1.1068355e-07
1.1068146e-07
1.106789e-07
1.1067711e-07
1.106757e-07
1.1067437e-07
1.1067306e-07
1.106718e-07
1.1067057e-07
1.1066938e-07
1.1066824e-07
1.106671e-07
1.1066603e-07
1.1066495e-07
1.1066394e-07
1.1066291e-07
1.1066194e-07
1.1066096e-07
1.1066005e-07
1.106591e-07
1.1065827e-07
1.106582e-07
1.1065992e-07
1.1066142e-07
1.1065823e-07
1.1065423e-07
1.1065238e-07
1.1065214e-07
1.1065169e-07
1.1064969e-07
1.1064875e-07
1.1064766e-07
1.1064681e-07
1.106456e-07
1.1064455e-07
1.1064336e-07
1.106423e-07
1.1064118e-07
1.1063959e-07
1.1063776e-07
1.106364e-07
1.1063442e-07
1.1063199e-07
2.4875524e-08
1.0252657e-07
1.1276943e-07
1.1294108e-07
1.1284746e-07
1.1284209e-07
1.1284266e-07
1.1284201e-07
1.1283939e-07
1.1283826e-07
1.1283707e-07
1.1283604e-07
1.1283474e-07
1.1283401e-07
1.1283267e-07
1.1283209e-07
1.1283275e-07
1.1283171e-07
1.1282966e-07
1.1282852e-07
1.1282774e-07
1.1282704e-07
1.1282637e-07
1.1282575e-07
1.1282516e-07
1.1282461e-07
1.1282409e-07
1.1282361e-07
1.1282316e-07
1.1282274e-07
1.1282236e-07
1.12822e-07
1.1282168e-07
1.1282138e-07
1.1282112e-07
1.1282087e-07
1.1282073e-07
1.1282098e-07
1.1282273e-07
1.1282456e-07
1.1282245e-07
1.1282015e-07
1.1281963e-07
1.1281995e-07
1.1282034e-07
1.1281966e-07
1.1281983e-07
1.1281949e-07
1.1281941e-07
1.1281941e-07
1.1281943e-07
1.128194e-07
1.1281948e-07
1.1281959e-07
1.128195e-07
1.1281921e-07
1.1281935e-07
1.1281912e-07
1.1281872e-07
8.5582295e-08
8.558054e-08
8.5579328e-08
8.5580599e-08
8.5581321e-08
8.5582271e-08
8.5583181e-08
8.5584129e-08
8.5585099e-08
8.5586081e-08
8.5587056e-08
8.5588012e-08
8.5588934e-08
8.5589829e-08
8.5590698e-08
8.5591561e-08
8.559244e-08
8.5593365e-08
8.5594322e-08
8.5595266e-08
8.5596144e-08
8.5596914e-08
8.5597511e-08
8.5597881e-08
8.559802e-08
8.5598008e-08
8.5597946e-08
8.5597912e-08
8.5597912e-08
8.5597921e-08
8.5597909e-08
8.5597903e-08
8.5597969e-08
8.5598114e-08
8.5598151e-08
8.5597787e-08
8.5596889e-08
8.5595644e-08
8.5594455e-08
8.5593637e-08
8.5592803e-08
8.5590311e-08
8.5584214e-08
8.5577315e-08
8.5587732e-08
8.5660245e-08
8.5861386e-08
8.6228826e-08
8.6644724e-08
8.6628733e-08
8.5101185e-08
8.0241389e-08
6.9386361e-08
5.0666913e-08
2.703249e-08
8.635524e-09
1.647981e-09
4.7370311e-10
6.4008468e-10
8.5872906e-08
8.5871392e-08
8.5871157e-08
8.5872212e-08
8.5873061e-08
8.5873983e-08
8.587491e-08
8.5875863e-08
8.5876834e-08
8.5877816e-08
8.5878785e-08
8.5879732e-08
8.5880644e-08
8.588153e-08
8.588239e-08
8.588325e-08
8.5884129e-08
8.5885058e-08
8.5886016e-08
8.5886956e-08
8.5887825e-08
8.5888583e-08
8.5889165e-08
8.5889518e-08
8.5889646e-08
8.5889628e-08
8.5889566e-08
8.5889533e-08
8.5889532e-08
8.5889537e-08
8.5889521e-08
8.588951e-08
8.5889566e-08
8.5889694e-08
8.588972e-08
8.5889362e-08
8.5888481e-08
8.5887256e-08
8.588606e-08
8.5885138e-08
8.5884084e-08
8.5881463e-08
8.5875817e-08
8.5870152e-08
8.5881257e-08
8.5950126e-08
8.6139009e-08
8.6488529e-08
8.6903868e-08
8.6957653e-08
8.5643237e-08
8.1170227e-08
7.101008e-08
5.2888883e-08
2.9079173e-08
9.6340886e-09
1.7927033e-09
4.4043572e-10
5.7331168e-10
8.6192602e-08
8.6191289e-08
8.6191425e-08
8.6192414e-08
8.6193311e-08
8.6194235e-08
8.6195175e-08
8.6196138e-08
8.6197117e-08
8.6198104e-08
8.6199075e-08
8.6200022e-08
8.6200931e-08
8.6201811e-08
8.6202668e-08
8.6203524e-08
8.6204402e-08
8.620533e-08
8.6206286e-08
8.620722e-08
8.6208083e-08
8.6208833e-08
8.6209405e-08
8.6209749e-08
8.6209873e-08
8.6209855e-08
8.6209796e-08
8.6209764e-08
8.6209763e-08
8.6209767e-08
8.6209747e-08
8.6209724e-08
8.6209764e-08
8.6209895e-08
8.6209968e-08
8.6209682e-08
8.6208849e-08
8.6207606e-08
8.6206345e-08
8.6205419e-08
8.6204634e-08
8.6202709e-08
8.6197701e-08
8.6190503e-08
8.6193465e-08
8.6242327e-08
8.6399399e-08
8.6722494e-08
8.7164878e-08
8.7383299e-08
8.6475881e-08
8.2737574e-08
7.3605853e-08
5.6342382e-08
3.2230326e-08
1.1163297e-08
2.0298581e-09
4.2073483e-10
5.0756781e-10
8.6544831e-08
8.6543782e-08
8.6544283e-08
8.6545222e-08
8.6546154e-08
8.6547081e-08
8.654803e-08
8.6549001e-08
8.6549984e-08
8.6550973e-08
8.6551942e-08
8.6552882e-08
8.6553783e-08
8.6554655e-08
8.6555505e-08
8.6556355e-08
8.6557231e-08
8.6558157e-08
8.6559109e-08
8.6560037e-08
8.6560891e-08
8.656163e-08
8.6562188e-08
8.6562518e-08
8.6562634e-08
8.6562612e-08
8.6562554e-08
8.6562523e-08
8.6562524e-08
8.6562527e-08
8.6562504e-08
8.656247e-08
8.6562493e-08
8.6562618e-08
8.6562721e-08
8.6562498e-08
8.6561719e-08
8.6560478e-08
8.6559158e-08
8.6558164e-08
8.6557454e-08
8.6555986e-08
8.655181e-08
8.6544652e-08
8.6543357e-08
8.6577893e-08
8.6706753e-08
8.6996677e-08
8.7438792e-08
8.7768342e-08
8.7192312e-08
8.4105179e-08
7.5973119e-08
5.9692892e-08
3.553755e-08
1.2902219e-08
2.3451215e-09
4.116961e-10
4.5291027e-10
8.6933563e-08
8.6932853e-08
8.6933588e-08
8.693451e-08
8.6935459e-08
8.6936394e-08
8.6937349e-08
8.6938326e-08
8.6939311e-08
8.6940298e-08
8.6941261e-08
8.6942192e-08
8.6943081e-08
8.6943941e-08
8.6944782e-08
8.6945625e-08
8.6946496e-08
8.6947418e-08
8.6948364e-08
8.6949281e-08
8.6950124e-08
8.695085e-08
8.6951391e-08
8.6951705e-08
8.6951809e-08
8.6951782e-08
8.6951723e-08
8.6951694e-08
8.6951696e-08
8.6951699e-08
8.6951674e-08
8.6951631e-08
8.6951636e-08
8.6951752e-08
8.6951885e-08
8.6951733e-08
8.6951019e-08
8.6949787e-08
8.6948408e-08
8.6947339e-08
8.694669e-08
8.6945656e-08
8.6942336e-08
8.6935451e-08
8.6930494e-08
8.6951459e-08
8.7051669e-08
8.7303845e-08
8.773357e-08
8.8155253e-08
8.7895934e-08
8.5468812e-08
7.8390233e-08
6.325299e-08
3.9271879e-08
1.4996567e-08
2.7702403e-09
4.1364119e-10
4.0249515e-10
8.7363477e-08
8.7363189e-08
8.736406e-08
8.7364983e-08
8.7365936e-08
8.7366878e-08
8.7367836e-08
8.7368814e-08
8.7369797e-08
8.7370777e-08
8.737173e-08
8.7372646e-08
8.7373519e-08
8.7374363e-08
8.7375192e-08
8.7376027e-08
8.7376891e-08
8.7377806e-08
8.7378743e-08
8.7379648e-08
8.7380477e-08
8.7381186e-08
8.7381707e-08
8.7382e-08
8.7382089e-08
8.7382052e-08
8.738199e-08
8.7381963e-08
8.7381967e-08
8.7381971e-08
8.7381946e-08
8.7381894e-08
8.738188e-08
8.7381983e-08
8.7382142e-08
8.7382065e-08
8.7381431e-08
8.7380222e-08
8.7378787e-08
8.7377622e-08
8.7376969e-08
8.7376276e-08
8.7373837e-08
8.7367755e-08
8.736065e-08
8.737049e-08
8.7443654e-08
8.7654259e-08
8.8055662e-08
8.8537434e-08
8.8554584e-08
8.6761303e-08
8.0749626e-08
6.6921852e-08
4.3383911e-08
1.7487472e-08
3.3203672e-09
4.3005571e-10
3.6034958e-10
8.7840172e-08
8.7840227e-08
8.7841186e-08
8.7842122e-08
8.7843075e-08
8.784402e-08
8.7844977e-08
8.7845951e-08
8.7846927e-08
8.7847894e-08
8.7848831e-08
8.7849725e-08
8.7850576e-08
8.78514e-08
8.7852214e-08
8.7853037e-08
8.7853891e-08
8.7854796e-08
8.7855721e-08
8.7856609e-08
8.7857421e-08
8.7858108e-08
8.7858604e-08
8.7858872e-08
8.7858939e-08
8.7858888e-08
8.7858822e-08
8.7858797e-08
8.7858803e-08
8.7858809e-08
8.7858784e-08
8.7858725e-08
8.7858693e-08
8.7858778e-08
8.7858958e-08
8.7858961e-08
8.7858423e-08
8.7857254e-08
8.7855769e-08
8.7854496e-08
8.7853791e-08
8.7853342e-08
8.7851721e-08
8.7846749e-08
8.7838721e-08
8.7839878e-08
8.7888452e-08
8.8055773e-08
8.8415662e-08
8.8926164e-08
8.9174698e-08
8.7982209e-08
8.2984361e-08
7.0678255e-08
4.7896489e-08
2.0484968e-08
4.0441293e-09
4.624812e-10
3.236883e-10
8.837015e-08
8.8370481e-08
8.8371477e-08
8.8372422e-08
8.8373368e-08
8.8374309e-08
8.8375261e-08
8.8376223e-08
8.8377185e-08
8.8378132e-08
8.8379045e-08
8.8379912e-08
8.8380735e-08
8.8381535e-08
8.838233e-08
8.8383137e-08
8.8383979e-08
8.8384871e-08
8.8385779e-08
8.8386647e-08
8.8387437e-08
8.8388098e-08
8.8388562e-08
8.8388799e-08
8.8388838e-08
8.8388767e-08
8.8388695e-08
8.8388672e-08
8.8388681e-08
8.8388688e-08
8.8388664e-08
8.8388601e-08
8.8388551e-08
8.8388615e-08
8.8388809e-08
8.8388895e-08
8.838847e-08
8.8387365e-08
8.8385842e-08
8.838445e-08
8.8383647e-08
8.8383335e-08
8.8382425e-08
8.8378733e-08
8.8370958e-08
8.8366106e-08
8.8393585e-08
8.8517979e-08
8.882538e-08
8.9332541e-08
8.9756005e-08
8.9108644e-08
8.5204427e-08
7.4458659e-08
5.2788274e-08
2.4070354e-08
5.0002027e-09
5.1827713e-10
2.9252219e-10
8.8961177e-08
8.8961701e-08
8.8962698e-08
8.896364e-08
8.8964574e-08
8.8965499e-08
8.8966436e-08
8.8967378e-08
8.8968319e-08
8.8969238e-08
8.897012e-08
8.897095e-08
8.8971737e-08
8.8972505e-08
8.8973276e-08
8.8974064e-08
8.8974889e-08
8.8975763e-08
8.8976649e-08
8.8977491e-08
8.8978254e-08
8.8978881e-08
8.8979307e-08
8.8979505e-08
8.8979507e-08
8.8979408e-08
8.8979329e-08
8.8979308e-08
8.897932e-08
8.897933e-08
8.8979309e-08
8.8979243e-08
8.8979178e-08
8.8979217e-08
8.8979416e-08
8.8979588e-08
8.8979297e-08
8.8978285e-08
8.8976744e-08
8.897523e-08
8.8974294e-08
8.8974012e-08
8.8973636e-08
8.8971267e-08
8.8964651e-08
8.8956441e-08
8.8967167e-08
8.9051379e-08
8.9298872e-08
8.9773174e-08
9.0314165e-08
9.0138347e-08
8.7276132e-08
7.8211134e-08
5.8023189e-08
2.8337218e-08
6.2614231e-09
6.0042515e-10
2.6657979e-10
8.9622547e-08
8.9623187e-08
8.9624177e-08
8.9625107e-08
8.9626017e-08
8.9626921e-08
8.9627834e-08
8.962875e-08
8.9629659e-08
8.9630541e-08
8.9631379e-08
8.9632161e-08
8.9632901e-08
8.9633626e-08
8.9634366e-08
8.9635127e-08
8.963593e-08
8.9636781e-08
8.9637637e-08
8.9638444e-08
8.9639171e-08
8.9639756e-08
8.9640134e-08
8.9640284e-08
8.9640236e-08
8.9640101e-08
8.9640014e-08
8.9639997e-08
8.9640012e-08
8.9640025e-08
8.9640009e-08
8.9639944e-08
8.9639867e-08
8.9639878e-08
8.964007e-08
8.9640332e-08
8.9640196e-08
8.9639315e-08
8.9637788e-08
8.9636153e-08
8.9635059e-08
8.9634719e-08
8.9634678e-08
8.9633488e-08
8.9628648e-08
8.96195e-08
8.9618363e-08
8.9667514e-08
8.9852107e-08
9.026754e-08
9.0864728e-08
9.1076167e-08
8.919276e-08
8.1829894e-08
6.3535778e-08
3.3374345e-08
7.9416995e-09
7.2033566e-10
2.4603223e-10
9.0365614e-08
9.0366307e-08
9.036727e-08
9.0368174e-08
9.0369051e-08
9.0369921e-08
9.0370799e-08
9.0371676e-08
9.0372537e-08
9.0373362e-08
9.0374137e-08
9.0374853e-08
9.0375528e-08
9.0376198e-08
9.0376893e-08
9.0377619e-08
9.0378392e-08
9.0379208e-08
9.038002e-08
9.0380781e-08
9.0381462e-08
9.0381991e-08
9.0382312e-08
9.0382399e-08
9.0382285e-08
9.0382103e-08
9.0382012e-08
9.0381999e-08
9.0382016e-08
9.0382032e-08
9.0382021e-08
9.0381961e-08
9.0381877e-08
9.0381859e-08
9.0382024e-08
9.0382382e-08
9.0382422e-08
9.0381721e-08
9.0380256e-08
9.0378499e-08
9.0377234e-08
9.0376778e-08
9.0376878e-08
9.0376578e-08
9.0373755e-08
9.0365634e-08
9.0357626e-08
9.0378861e-08
9.0502729e-08
9.0840192e-08
9.1432657e-08
9.1928148e-08
9.0928846e-08
8.5102325e-08
6.9231804e-08
3.9250539e-08
1.0191187e-08
8.8958209e-10
2.3163382e-10
9.1204039e-08
9.120478e-08
9.1205704e-08
9.120657e-08
9.12074e-08
9.1208225e-08
9.1209051e-08
9.1209872e-08
9.1210664e-08
9.121141e-08
9.1212096e-08
9.1212724e-08
9.1213316e-08
9.1213914e-08
9.1214549e-08
9.1215227e-08
9.1215958e-08
9.1216725e-08
9.1217475e-08
9.1218176e-08
9.1218798e-08
9.1219257e-08
9.1219505e-08
9.1219516e-08
9.1219313e-08
9.1219064e-08
9.1218977e-08
9.1218974e-08
9.121899e-08
9.1219008e-08
9.1219004e-08
9.1218954e-08
9.121887e-08
9.1218822e-08
9.1218928e-08
9.1219406e-08
9.1219632e-08
9.1219179e-08
9.1217843e-08
9.1215947e-08
9.1214517e-08
9.1213926e-08
9.1214005e-08
9.121426e-08
9.1213227e-08
9.1207489e-08
9.1197176e-08
9.1198957e-08
9.1269323e-08
9.1518823e-08
9.2052819e-08
9.2711841e-08
9.24531e-08
8.8345947e-08
7.4970563e-08
4.5994672e-08
1.3218975e-08
1.1251611e-09
2.2555512e-10
9.215397e-08
9.2154748e-08
9.2155642e-08
9.2156455e-08
9.2157225e-08
9.2157985e-08
9.2158746e-08
9.2159494e-08
9.2160198e-08
9.2160838e-08
9.2161413e-08
9.2161932e-08
9.2162424e-08
9.2162936e-08
9.2163503e-08
9.2164121e-08
9.2164795e-08
9.2165493e-08
9.2166164e-08
9.2166796e-08
9.2167349e-08
9.2167723e-08
9.216789e-08
9.2167805e-08
9.2167451e-08
9.2167161e-08
9.2167078e-08
9.2167084e-08
9.2167102e-08
9.2167119e-08
9.2167126e-08
9.2167089e-08
9.2167016e-08
9.2166939e-08
9.2166997e-08
9.2167503e-08
9.2167996e-08
9.2167844e-08
9.2166697e-08
9.216474e-08
9.2163081e-08
9.2162386e-08
9.2162317e-08
9.2162779e-08
9.2163063e-08
9.2160236e-08
9.2151215e-08
9.2142288e-08
9.2170656e-08
9.2332237e-08
9.2768183e-08
9.3483232e-08
9.3788008e-08
9.1231319e-08
8.0620205e-08
5.3567638e-08
1.729958e-08
1.4794654e-09
2.33405e-10
9.323181e-08
9.3232739e-08
9.3233613e-08
9.3234374e-08
9.323509e-08
9.3235798e-08
9.3236506e-08
9.323719e-08
9.3237805e-08
9.3238336e-08
9.3238792e-08
9.3239197e-08
9.3239584e-08
9.3240008e-08
9.3240513e-08
9.3241098e-08
9.3241728e-08
9.324235e-08
9.3242948e-08
9.324353e-08
9.3244028e-08
9.3244329e-08
9.3244396e-08
9.3244104e-08
9.3243646e-08
9.3243378e-08
9.3243289e-08
9.3243295e-08
9.3243315e-08
9.3243336e-08
9.3243355e-08
9.3243343e-08
9.324329e-08
9.3243205e-08
9.3243243e-08
9.3243687e-08
9.3244348e-08
9.3244605e-08
9.3243702e-08
9.3241874e-08
9.323999e-08
9.3239116e-08
9.3238876e-08
9.3239165e-08
9.3240171e-08
9.3240003e-08
9.3234474e-08
9.3222577e-08
9.3223162e-08
9.3306892e-08
9.3619941e-08
9.4289863e-08
9.4978271e-08
9.3782119e-08
8.5929358e-08
6.1850469e-08
2.2748211e-08
2.0520995e-09
2.5058771e-10
7.046269e-10
7.3971975e-10
7.6226834e-10
7.7850055e-10
7.9220015e-10
8.0463466e-10
8.1580477e-10
8.2537238e-10
8.3302582e-10
8.3855525e-10
8.4176464e-10
8.4245639e-10
8.4038578e-10
8.3525534e-10
8.26697e-10
8.1429016e-10
7.9755135e-10
7.7596558e-10
7.4901869e-10
7.1624564e-10
6.773075e-10
6.3201068e-10
5.8069061e-10
5.2425821e-10
4.6344424e-10
3.9943992e-10
3.3363675e-10
2.6788638e-10
2.0485998e-10
1.4521148e-10
9.3792317e-11
5.1957199e-11
2.1377454e-11
3.6092668e-12
1.7770297e-12
7.8067061e-12
2.5458992e-11
5.6428779e-11
9.8419145e-11
1.4743295e-10
1.9496966e-10
2.4305575e-10
2.9281537e-10
3.4486003e-10
3.9781905e-10
4.4827222e-10
4.9726136e-10
5.4468052e-10
5.9022174e-10
6.3341475e-10
6.7375136e-10
7.1079966e-10
7.445473e-10
7.7528264e-10
8.0333463e-10
8.2897232e-10
8.5247256e-10
8.7394503e-10
8.9335767e-10
9.1093649e-10
9.2704132e-10
9.4187473e-10
9.5553976e-10
9.6813379e-10
9.7975225e-10
9.9047515e-10
1.0003739e-09
1.0095146e-09
1.0179608e-09
1.0257702e-09
1.0330076e-09
1.0397176e-09
1.0459608e-09
1.0516991e-09
5.2153325e-10
5.5548248e-10
5.880377e-10
6.174823e-10
6.4277998e-10
6.6414278e-10
6.8204579e-10
6.9687683e-10
7.0886972e-10
7.1819071e-10
7.2495512e-10
7.2922308e-10
7.3097717e-10
7.3010937e-10
7.2641768e-10
7.1961598e-10
7.0934059e-10
6.9516709e-10
6.7663609e-10
6.5329016e-10
6.2474029e-10
5.9067864e-10
5.5063883e-10
5.0403195e-10
4.5161291e-10
3.9539669e-10
3.3707276e-10
2.7825978e-10
2.2136074e-10
1.682197e-10
1.2054317e-10
7.9719015e-11
5.0993869e-11
2.5672761e-11
1.0683828e-11
8.4293251e-12
1.4645096e-11
2.9950017e-11
5.360526e-11
8.4554687e-11
1.1853601e-10
1.5408388e-10
1.9091171e-10
2.2935513e-10
2.6925478e-10
3.0898649e-10
3.4790283e-10
3.8579191e-10
4.2241227e-10
4.5764883e-10
4.912972e-10
5.2304526e-10
5.5269278e-10
5.801962e-10
6.0561864e-10
6.2906989e-10
6.5069239e-10
6.7063566e-10
6.8901349e-10
7.0589133e-10
7.2138645e-10
7.3562999e-10
7.4866918e-10
7.6062006e-10
7.7158993e-10
7.8167139e-10
7.9094371e-10
7.9947795e-10
8.0733623e-10
8.1457466e-10
8.2124356e-10
8.2739095e-10
8.3307013e-10
8.3829661e-10
1.4126592e-09
1.1831079e-09
9.9748072e-10
8.5543072e-10
7.515494e-10
6.7963869e-10
6.328443e-10
6.0725263e-10
5.9826561e-10
6.0048557e-10
6.090847e-10
6.205522e-10
6.3236615e-10
6.4277267e-10
6.5063182e-10
6.5524703e-10
6.5621502e-10
6.5328096e-10
6.4624077e-10
6.3488307e-10
6.1897309e-10
5.9830751e-10
5.7264401e-10
5.416165e-10
5.0513377e-10
4.6374717e-10
4.1843141e-10
3.7033219e-10
3.2098957e-10
2.7182501e-10
2.240137e-10
1.7917398e-10
1.3907809e-10
1.0544218e-10
7.7167874e-11
5.734555e-11
4.2464525e-11
4.0596164e-11
4.396881e-11
5.2851044e-11
6.6088545e-11
8.2260475e-11
1.01227e-10
1.2242527e-10
1.4541078e-10
1.6956442e-10
1.9432593e-10
2.1927936e-10
2.4408726e-10
2.6850298e-10
2.9232739e-10
3.1537992e-10
3.3750968e-10
3.5860586e-10
3.7859966e-10
3.9745848e-10
4.1518102e-10
4.3176761e-10
4.4721026e-10
4.6156084e-10
4.7487853e-10
4.8722435e-10
4.986539e-10
5.0922437e-10
5.1899285e-10
5.2801505e-10
5.3634421e-10
5.4403088e-10
5.5112269e-10
5.5766354e-10
5.6369787e-10
5.692663e-10
5.7440726e-10
5.7914369e-10
6.5328736e-09
4.6794813e-09
3.3997191e-09
2.5479906e-09
1.9975987e-09
1.6289809e-09
1.3637117e-09
1.1591014e-09
9.8269347e-10
8.5205189e-10
7.5488246e-10
6.8553768e-10
6.3992742e-10
6.1327363e-10
6.0081535e-10
5.9778292e-10
6.0039402e-10
6.0558431e-10
6.1105128e-10
6.1463377e-10
6.1382271e-10
6.0823417e-10
5.9804936e-10
5.8330834e-10
5.6395987e-10
5.4007055e-10
5.1195027e-10
4.8010887e-10
4.4524265e-10
4.0845842e-10
3.7083841e-10
3.3315999e-10
2.9573742e-10
2.6027274e-10
2.2699808e-10
1.9724959e-10
1.6885841e-10
1.4749952e-10
1.3144719e-10
1.1874425e-10
1.127566e-10
1.1057917e-10
1.1075994e-10
1.1312546e-10
1.1737899e-10
1.2318454e-10
1.29997e-10
1.379483e-10
1.4676249e-10
1.5619681e-10
1.660433e-10
1.7612283e-10
1.8628194e-10
1.9639259e-10
2.0634988e-10
2.160705e-10
2.2548969e-10
2.3455904e-10
2.4324479e-10
2.515223e-10
2.593772e-10
2.668037e-10
2.7380307e-10
2.8038217e-10
2.8655185e-10
2.9232583e-10
2.9771983e-10
3.0275095e-10
3.0743701e-10
3.1179622e-10
3.1584717e-10
3.1960678e-10
3.2309738e-10
3.2631869e-10
2.18059e-08
1.6347844e-08
1.2009507e-08
8.7193677e-09
6.3286595e-09
4.6430241e-09
3.4987964e-09
2.7104393e-09
2.1571045e-09
1.7695325e-09
1.4870757e-09
1.271288e-09
1.100928e-09
9.5315124e-10
8.411287e-10
7.5493314e-10
6.9144394e-10
6.4731812e-10
6.1839043e-10
6.0447698e-10
6.0081071e-10
6.0272426e-10
6.0557709e-10
6.0575207e-10
6.0259563e-10
5.9604678e-10
5.8607116e-10
5.7271127e-10
5.5609658e-10
5.3658575e-10
5.1472177e-10
4.9110192e-10
4.6603383e-10
4.4033285e-10
4.1347541e-10
3.8656375e-10
3.6251547e-10
3.3867081e-10
3.1656542e-10
2.9567375e-10
2.7723197e-10
2.6202819e-10
2.4972608e-10
2.4024084e-10
2.3257413e-10
2.262099e-10
2.2117078e-10
2.1774918e-10
2.1520895e-10
2.1340372e-10
2.1223852e-10
2.1161999e-10
2.1144278e-10
2.116437e-10
2.1216633e-10
2.1294678e-10
2.1392976e-10
2.1506697e-10
2.1631629e-10
2.1764195e-10
2.1901386e-10
2.2040709e-10
2.2180152e-10
2.2318098e-10
2.2453273e-10
2.2584685e-10
2.2711583e-10
2.2833418e-10
2.2949807e-10
2.3060509e-10
2.3165412e-10
2.3264435e-10
2.3357812e-10
2.3444663e-10
4.3865263e-08
3.5748071e-08
2.8286229e-08
2.1857466e-08
1.6574651e-08
1.2403024e-08
9.2369044e-09
6.8938247e-09
5.1885177e-09
3.965952e-09
3.0942798e-09
2.478764e-09
2.0295456e-09
1.6999168e-09
1.4531901e-09
1.263103e-09
1.1096524e-09
9.7904823e-10
8.7149453e-10
7.8681613e-10
7.2082696e-10
6.7390883e-10
6.4540126e-10
6.3034848e-10
6.2400309e-10
6.2337627e-10
6.2290665e-10
6.2111355e-10
6.1753851e-10
6.1204386e-10
6.0465036e-10
5.95494e-10
5.8477995e-10
5.7267525e-10
5.5985272e-10
5.4602218e-10
5.3157899e-10
5.1689394e-10
5.0228761e-10
4.8772707e-10
4.7257559e-10
4.5792245e-10
4.4511197e-10
4.3361617e-10
4.2323172e-10
4.1385127e-10
4.0549711e-10
3.9807678e-10
3.9148746e-10
3.8563344e-10
3.8044257e-10
3.7585852e-10
3.7195099e-10
3.6845177e-10
3.6529702e-10
3.6241671e-10
3.5983205e-10
3.5752277e-10
3.5545982e-10
3.5361418e-10
3.5195997e-10
3.5047538e-10
3.4914126e-10
3.4794053e-10
3.4685827e-10
3.4588116e-10
3.4499737e-10
3.4419641e-10
3.43469e-10
3.4280695e-10
3.42203e-10
3.4165086e-10
3.4114465e-10
3.4068004e-10
6.3570104e-08