/*--------------------------------*- C++ -*----------------------------------*\
| =========                 |                                                 |
| \\      /  F ield         | OpenFOAM: The Open Source CFD Toolbox           |
|  \\    /   O peration     | Version:  v2006                                 |
|   \\  /    A nd           | Website:  www.openfoam.com                      |
|    \\/     M anipulation  |                                                 |
\*---------------------------------------------------------------------------*/
FoamFile
{
    version     2.0;
    format      ascii;
    class       volScalarField;
    location    "3000";
    object      nutMean;
}
// * * * * * * * * * * * * * * * * * * * * * * * * * * * * * * * * * * * * * //

dimensions      [0 2 -1 0 0 0 0];


internalField   nonuniform List<scalar> 
55713
(
3.8305407e-10
3.0291402e-09
2.8992769e-08
6.9335639e-08
8.9573036e-08
9.5626655e-08
9.5877167e-08
9.5038872e-08
9.4481859e-08
9.4277131e-08
9.424328e-08
9.4254517e-08
9.4265652e-08
9.4270119e-08
9.4271088e-08
9.4271237e-08
9.4271211e-08
9.4271336e-08
9.4271612e-08
9.4271698e-08
9.4271446e-08
9.4271022e-08
9.4270566e-08
9.4270143e-08
9.4269838e-08
9.4269687e-08
9.4269603e-08
9.4269507e-08
9.4269359e-08
9.426917e-08
9.4268959e-08
9.4268729e-08
9.4268517e-08
9.4268431e-08
9.4268633e-08
9.4269249e-08
9.4269494e-08
9.4269149e-08
9.4268427e-08
9.4267487e-08
9.4266551e-08
9.4265678e-08
9.4264716e-08
9.4263593e-08
9.426242e-08
9.4261279e-08
9.4260191e-08
9.4259172e-08
9.4258215e-08
9.4257279e-08
9.4256318e-08
9.4255313e-08
9.4254262e-08
9.4253205e-08
9.425216e-08
9.4251145e-08
9.4250154e-08
9.4249048e-08
9.4247767e-08
4.5483964e-10
4.3325899e-09
3.604951e-08
7.618249e-08
9.3007314e-08
9.6935221e-08
9.6575992e-08
9.575704e-08
9.5329311e-08
9.520429e-08
9.5197264e-08
9.5210542e-08
9.5218326e-08
9.5220361e-08
9.52204e-08
9.5220073e-08
9.521959e-08
9.5219356e-08
9.5219277e-08
9.5218927e-08
9.521823e-08
9.5217397e-08
9.5216568e-08
9.5215796e-08
9.5215165e-08
9.5214689e-08
9.5214268e-08
9.521383e-08
9.5213348e-08
9.5212824e-08
9.5212278e-08
9.5211708e-08
9.5211136e-08
9.521067e-08
9.5210481e-08
9.5210843e-08
9.5210897e-08
9.5210238e-08
9.5209181e-08
9.5207866e-08
9.520654e-08
9.5205311e-08
9.5204016e-08
9.5202516e-08
9.5200921e-08
9.5199346e-08
9.5197811e-08
9.5196329e-08
9.5194898e-08
9.5193475e-08
9.5192009e-08
9.5190467e-08
9.5188837e-08
9.5187152e-08
9.5185434e-08
9.5183681e-08
9.5181896e-08
9.517993e-08
9.5177682e-08
5.5467778e-10
6.0628701e-09
4.3572349e-08
8.2285892e-08
9.5679977e-08
9.8005996e-08
9.7301332e-08
9.656658e-08
9.6258549e-08
9.6192758e-08
9.6200513e-08
9.621244e-08
9.6216698e-08
9.6216858e-08
9.6216412e-08
9.6215632e-08
9.6214731e-08
9.6214146e-08
9.6213689e-08
9.6212883e-08
9.621177e-08
9.6210559e-08
9.6209377e-08
9.6208274e-08
9.620734e-08
9.6206556e-08
9.6205811e-08
9.6205047e-08
9.6204246e-08
9.6203406e-08
9.6202543e-08
9.6201654e-08
9.6200754e-08
9.6199916e-08
9.6199358e-08
9.6199426e-08
9.6199354e-08
9.619843e-08
9.6197063e-08
9.6195398e-08
9.6193698e-08
9.6192131e-08
9.6190543e-08
9.6188706e-08
9.618672e-08
9.6184739e-08
9.618279e-08
9.618088e-08
9.6179012e-08
9.6177145e-08
9.6175218e-08
9.6173192e-08
9.6171038e-08
9.6168784e-08
9.6166459e-08
9.6164043e-08
9.6161541e-08
9.6158805e-08
9.6155668e-08
6.9588891e-10
8.4178892e-09
5.1709897e-08
8.7779631e-08
9.7914738e-08
9.8960546e-08
9.8079737e-08
9.7473069e-08
9.7272802e-08
9.724829e-08
9.7261706e-08
9.7269801e-08
9.7270901e-08
9.7270265e-08
9.726949e-08
9.7268237e-08
9.7266945e-08
9.7266062e-08
9.726523e-08
9.7264002e-08
9.72625e-08
9.7260935e-08
9.7259425e-08
9.7258027e-08
9.7256822e-08
9.7255752e-08
9.7254706e-08
9.7253642e-08
9.7252548e-08
9.725142e-08
9.7250266e-08
9.7249085e-08
9.7247886e-08
9.7246723e-08
9.7245801e-08
9.7245564e-08
9.724541e-08
9.7244283e-08
9.7242639e-08
9.7240655e-08
9.7238601e-08
9.7236714e-08
9.7234871e-08
9.7232754e-08
9.7230413e-08
9.7228057e-08
9.722573e-08
9.7223426e-08
9.722116e-08
9.7218886e-08
9.7216545e-08
9.7214082e-08
9.7211457e-08
9.7208684e-08
9.7205806e-08
9.7202788e-08
9.7199626e-08
9.7196198e-08
9.7192245e-08
8.9672344e-10
1.1534796e-08
6.0185099e-08
9.2517878e-08
9.9747444e-08
9.9854277e-08
9.8944453e-08
9.8485461e-08
9.8371224e-08
9.8371138e-08
9.8383655e-08
9.838723e-08
9.8386628e-08
9.8385682e-08
9.8384503e-08
9.8382772e-08
9.8381143e-08
9.838001e-08
9.8378816e-08
9.837719e-08
9.8375325e-08
9.8373432e-08
9.837163e-08
9.8369978e-08
9.8368532e-08
9.8367202e-08
9.8365882e-08
9.8364548e-08
9.836319e-08
9.8361805e-08
9.8360392e-08
9.8358952e-08
9.835749e-08
9.8356042e-08
9.8354788e-08
9.8354232e-08
9.835402e-08
9.8352786e-08
9.8350907e-08
9.834864e-08
9.8346258e-08
9.834407e-08
9.8342015e-08
9.8339691e-08
9.8337044e-08
9.8334354e-08
9.8331694e-08
9.8329046e-08
9.832643e-08
9.8323804e-08
9.8321105e-08
9.8318273e-08
9.8315247e-08
9.8312026e-08
9.8308668e-08
9.8305137e-08
9.83014e-08
9.8297383e-08
9.8292716e-08
1.1858415e-09
1.5616048e-08
6.8737189e-08
9.6093709e-08
1.0127942e-07
1.0074962e-07
9.992e-08
9.9606503e-08
9.9553609e-08
9.9564425e-08
9.9572287e-08
9.9572753e-08
9.957135e-08
9.9570209e-08
9.9568562e-08
9.9566378e-08
9.9564502e-08
9.9563161e-08
9.9561625e-08
9.9559631e-08
9.9557433e-08
9.9555248e-08
9.9553201e-08
9.9551344e-08
9.9549693e-08
9.9548132e-08
9.9546573e-08
9.9545007e-08
9.9543421e-08
9.9541816e-08
9.9540183e-08
9.9538524e-08
9.9536838e-08
9.9535152e-08
9.9533617e-08
9.9532743e-08
9.9532457e-08
9.9531253e-08
9.9529191e-08
9.9526683e-08
9.9524007e-08
9.952154e-08
9.9519318e-08
9.9516871e-08
9.9513986e-08
9.9511007e-08
9.9508073e-08
9.9505136e-08
9.9502231e-08
9.9499316e-08
9.9496326e-08
9.9493202e-08
9.948986e-08
9.9486275e-08
9.9482522e-08
9.9478581e-08
9.9474367e-08
9.9469885e-08
9.9464624e-08
1.6083077e-09
2.0869466e-08
7.697934e-08
9.8969666e-08
1.0252856e-07
1.0168641e-07
1.0102477e-07
1.008367e-07
1.0082165e-07
1.008329e-07
1.0083628e-07
1.0083485e-07
1.0083321e-07
1.0083185e-07
1.0082971e-07
1.0082712e-07
1.0082511e-07
1.008236e-07
1.0082175e-07
1.0081942e-07
1.0081692e-07
1.008145e-07
1.0081226e-07
1.0081026e-07
1.0080844e-07
1.0080669e-07
1.0080493e-07
1.0080318e-07
1.0080141e-07
1.0079963e-07
1.0079782e-07
1.0079599e-07
1.0079413e-07
1.0079226e-07
1.007905e-07
1.0078934e-07
1.0078894e-07
1.0078792e-07
1.0078575e-07
1.0078306e-07
1.0078013e-07
1.0077741e-07
1.0077507e-07
1.007726e-07
1.0076957e-07
1.0076636e-07
1.0076322e-07
1.0076006e-07
1.0075695e-07
1.0075382e-07
1.0075062e-07
1.007473e-07
1.0074375e-07
1.007399e-07
1.0073586e-07
1.0073164e-07
1.0072707e-07
1.0072227e-07
1.0071656e-07
2.2430207e-09
2.7514502e-08
8.5025225e-08
1.0198665e-07
1.0363344e-07
1.0273465e-07
1.0227109e-07
1.0217461e-07
1.0217913e-07
1.0218572e-07
1.0218572e-07
1.0218336e-07
1.0218177e-07
1.021801e-07
1.0217747e-07
1.0217459e-07
1.0217255e-07
1.0217092e-07
1.0216879e-07
1.0216617e-07
1.0216341e-07
1.0216081e-07
1.0215847e-07
1.0215638e-07
1.0215443e-07
1.0215254e-07
1.0215064e-07
1.0214876e-07
1.0214686e-07
1.0214496e-07
1.0214304e-07
1.0214109e-07
1.0213912e-07
1.0213713e-07
1.0213522e-07
1.0213381e-07
1.0213329e-07
1.0213256e-07
1.0213043e-07
1.0212761e-07
1.0212449e-07
1.0212155e-07
1.0211913e-07
1.0211675e-07
1.0211369e-07
1.0211033e-07
1.0210707e-07
1.0210378e-07
1.0210054e-07
1.0209731e-07
1.02094e-07
1.0209059e-07
1.0208696e-07
1.02083e-07
1.0207877e-07
1.0207443e-07
1.0206966e-07
1.0206473e-07
1.0205875e-07
3.2406871e-09
3.575517e-08
9.2204802e-08
1.0429047e-07
1.0475107e-07
1.0395645e-07
1.0366166e-07
1.0362347e-07
1.0363217e-07
1.036341e-07
1.0363239e-07
1.0362974e-07
1.0362831e-07
1.0362625e-07
1.036232e-07
1.0362015e-07
1.0361819e-07
1.0361652e-07
1.0361415e-07
1.0361125e-07
1.036083e-07
1.0360563e-07
1.0360328e-07
1.0360116e-07
1.0359915e-07
1.0359717e-07
1.0359521e-07
1.0359325e-07
1.035913e-07
1.0358934e-07
1.0358737e-07
1.0358539e-07
1.0358339e-07
1.0358136e-07
1.0357937e-07
1.0357779e-07
1.0357715e-07
1.0357675e-07
1.0357489e-07
1.0357204e-07
1.0356878e-07
1.0356569e-07
1.0356322e-07
1.0356107e-07
1.0355812e-07
1.0355471e-07
1.0355145e-07
1.0354814e-07
1.035449e-07
1.0354168e-07
1.0353839e-07
1.0353503e-07
1.0353146e-07
1.0352756e-07
1.0352331e-07
1.0351904e-07
1.0351427e-07
1.0350941e-07
1.035034e-07
4.9099539e-09
4.5738036e-08
9.8552368e-08
1.062967e-07
1.059834e-07
1.0535671e-07
1.0519428e-07
1.0518826e-07
1.05194e-07
1.0519238e-07
1.0519011e-07
1.0518747e-07
1.0518624e-07
1.0518375e-07
1.0518037e-07
1.0517734e-07
1.0517558e-07
1.0517396e-07
1.0517136e-07
1.0516823e-07
1.0516521e-07
1.0516262e-07
1.0516035e-07
1.0515827e-07
1.0515626e-07
1.0515429e-07
1.0515233e-07
1.051504e-07
1.0514847e-07
1.0514655e-07
1.0514462e-07
1.0514268e-07
1.0514073e-07
1.0513876e-07
1.0513681e-07
1.0513516e-07
1.0513443e-07
1.0513435e-07
1.0513309e-07
1.0513033e-07
1.0512698e-07
1.0512383e-07
1.0512139e-07
1.0511956e-07
1.0511693e-07
1.051136e-07
1.0511047e-07
1.0510728e-07
1.0510418e-07
1.0510115e-07
1.0509803e-07
1.0509488e-07
1.0509156e-07
1.0508796e-07
1.0508388e-07
1.0507988e-07
1.0507539e-07
1.0507085e-07
1.050651e-07
7.6243313e-09
5.7494733e-08
1.0379734e-07
1.0807908e-07
1.0737631e-07
1.0694621e-07
1.0687378e-07
1.068797e-07
1.0688018e-07
1.0687684e-07
1.0687491e-07
1.0687233e-07
1.0687134e-07
1.0686846e-07
1.0686491e-07
1.068621e-07
1.0686074e-07
1.0685926e-07
1.0685641e-07
1.0685313e-07
1.0685023e-07
1.0684786e-07
1.0684577e-07
1.0684382e-07
1.0684192e-07
1.0684006e-07
1.0683822e-07
1.0683641e-07
1.0683461e-07
1.0683283e-07
1.0683105e-07
1.0682928e-07
1.068275e-07
1.0682571e-07
1.0682391e-07
1.0682233e-07
1.0682155e-07
1.0682179e-07
1.0682143e-07
1.06819e-07
1.0681563e-07
1.0681251e-07
1.0681022e-07
1.068088e-07
1.0680675e-07
1.0680365e-07
1.0680087e-07
1.0679796e-07
1.0679516e-07
1.0679254e-07
1.0678978e-07
1.0678707e-07
1.067842e-07
1.0678116e-07
1.0677754e-07
1.0677406e-07
1.0677018e-07
1.0676623e-07
1.0676111e-07
1.1509306e-08
7.0980479e-08
1.0725656e-07
1.0969138e-07
1.0897178e-07
1.0872926e-07
1.0870666e-07
1.0871207e-07
1.0870892e-07
1.0870564e-07
1.0870455e-07
1.0870193e-07
1.0870138e-07
1.086981e-07
1.0869469e-07
1.0869238e-07
1.0869165e-07
1.0869035e-07
1.0868721e-07
1.0868397e-07
1.0868147e-07
1.0867949e-07
1.0867769e-07
1.0867598e-07
1.0867431e-07
1.086727e-07
1.0867112e-07
1.0866957e-07
1.0866804e-07
1.0866653e-07
1.0866504e-07
1.0866356e-07
1.0866209e-07
1.0866064e-07
1.0865916e-07
1.0865781e-07
1.086571e-07
1.0865764e-07
1.0865836e-07
1.086567e-07
1.0865338e-07
1.0865042e-07
1.0864845e-07
1.0864746e-07
1.0864635e-07
1.0864364e-07
1.0864148e-07
1.0863905e-07
1.0863674e-07
1.086348e-07
1.0863264e-07
1.0863061e-07
1.0862846e-07
1.0862625e-07
1.0862348e-07
1.0862076e-07
1.0861793e-07
1.0861486e-07
1.0861081e-07
1.7219195e-08
8.6110782e-08
1.0958155e-07
1.1120331e-07
1.107909e-07
1.1070214e-07
1.1069933e-07
1.1069999e-07
1.1069658e-07
1.1069435e-07
1.1069429e-07
1.1069161e-07
1.1069169e-07
1.1068832e-07
1.1068547e-07
1.1068401e-07
1.1068408e-07
1.1068294e-07
1.1067969e-07
1.1067694e-07
1.106751e-07
1.1067366e-07
1.1067229e-07
1.1067099e-07
1.1066974e-07
1.1066855e-07
1.1066739e-07
1.1066627e-07
1.1066518e-07
1.1066412e-07
1.1066309e-07
1.1066208e-07
1.1066109e-07
1.1066013e-07
1.1065917e-07
1.1065829e-07
1.1065785e-07
1.1065857e-07
1.106603e-07
1.1065988e-07
1.1065691e-07
1.1065434e-07
1.1065286e-07
1.106524e-07
1.106524e-07
1.1065032e-07
1.1064913e-07
1.1064742e-07
1.1064583e-07
1.1064479e-07
1.1064354e-07
1.1064242e-07
1.1064128e-07
1.1064015e-07
1.1063862e-07
1.1063699e-07
1.1063556e-07
1.1063379e-07
1.1063129e-07
2.5053101e-08
1.0256771e-07
1.1276621e-07
1.1294034e-07
1.1284772e-07
1.1284196e-07
1.1284269e-07
1.1284148e-07
1.1283925e-07
1.1283833e-07
1.1283894e-07
1.1283678e-07
1.1283703e-07
1.1283473e-07
1.1283299e-07
1.1283268e-07
1.1283328e-07
1.128325e-07
1.1282999e-07
1.1282847e-07
1.1282761e-07
1.128269e-07
1.128262e-07
1.1282556e-07
1.1282496e-07
1.1282441e-07
1.1282389e-07
1.1282341e-07
1.1282295e-07
1.1282254e-07
1.1282215e-07
1.128218e-07
1.1282147e-07
1.1282118e-07
1.1282091e-07
1.1282068e-07
1.1282067e-07
1.1282125e-07
1.1282337e-07
1.1282406e-07
1.1282223e-07
1.1282075e-07
1.1282012e-07
1.1282028e-07
1.1282082e-07
1.1282021e-07
1.1282021e-07
1.1281961e-07
1.1281917e-07
1.1281915e-07
1.1281912e-07
1.1281912e-07
1.1281917e-07
1.1281926e-07
1.1281921e-07
1.1281904e-07
1.1281915e-07
1.1281901e-07
1.1281859e-07
8.5575561e-08
8.5572961e-08
8.5571224e-08
8.5572612e-08
8.5573184e-08
8.5574036e-08
8.557482e-08
8.5575659e-08
8.5576536e-08
8.5577435e-08
8.5578338e-08
8.557924e-08
8.558015e-08
8.558109e-08
8.5582071e-08
8.5583083e-08
8.5584101e-08
8.5585101e-08
8.558607e-08
8.5587e-08
8.5587876e-08
8.5588653e-08
8.5589245e-08
8.5589568e-08
8.5589611e-08
8.5589462e-08
8.5589258e-08
8.5589113e-08
8.5589059e-08
8.5589065e-08
8.5589077e-08
8.5589065e-08
8.558905e-08
8.5589063e-08
8.5589093e-08
8.5589096e-08
8.5589019e-08
8.5588827e-08
8.5588526e-08
8.5588064e-08
8.5586887e-08
8.558348e-08
8.5576316e-08
8.5568772e-08
8.5579441e-08
8.5653081e-08
8.585528e-08
8.6221489e-08
8.6630633e-08
8.6599424e-08
8.5048423e-08
8.0162769e-08
6.9290207e-08
5.0579704e-08
2.69887e-08
8.6740545e-09
1.7854525e-09
5.936447e-10
8.2468796e-10
8.5865921e-08
8.5863656e-08
8.5863116e-08
8.5864194e-08
8.5864929e-08
8.586574e-08
8.5866553e-08
8.5867404e-08
8.586829e-08
8.5869195e-08
8.5870099e-08
8.5871001e-08
8.5871911e-08
8.5872851e-08
8.5873831e-08
8.5874841e-08
8.5875857e-08
8.5876856e-08
8.5877826e-08
8.5878756e-08
8.587963e-08
8.5880402e-08
8.5880986e-08
8.5881296e-08
8.5881326e-08
8.5881162e-08
8.5880954e-08
8.588081e-08
8.5880755e-08
8.5880756e-08
8.5880757e-08
8.5880736e-08
8.5880715e-08
8.5880723e-08
8.5880751e-08
8.5880755e-08
8.5880684e-08
8.5880505e-08
8.5880196e-08
8.5879641e-08
8.5878271e-08
8.5874775e-08
8.5868088e-08
8.5861752e-08
8.587299e-08
8.5942752e-08
8.6132424e-08
8.6480671e-08
8.6889893e-08
8.693017e-08
8.5594803e-08
8.1101774e-08
7.0922883e-08
5.2811771e-08
2.9045083e-08
9.6651908e-09
1.9228685e-09
5.4786187e-10
7.3858448e-10
8.618563e-08
8.6183586e-08
8.6183512e-08
8.6184486e-08
8.6185281e-08
8.6186093e-08
8.6186924e-08
8.6187788e-08
8.6188685e-08
8.6189596e-08
8.6190505e-08
8.6191409e-08
8.619232e-08
8.6193259e-08
8.6194239e-08
8.6195249e-08
8.6196265e-08
8.6197264e-08
8.6198235e-08
8.6199163e-08
8.6200034e-08
8.6200804e-08
8.6201385e-08
8.6201691e-08
8.6201712e-08
8.6201539e-08
8.6201325e-08
8.620118e-08
8.6201122e-08
8.6201119e-08
8.6201116e-08
8.620109e-08
8.6201063e-08
8.6201068e-08
8.6201101e-08
8.6201117e-08
8.620106e-08
8.620089e-08
8.62006e-08
8.620015e-08
8.6199147e-08
8.6196385e-08
8.6190275e-08
8.6182236e-08
8.6185093e-08
8.6234657e-08
8.6392577e-08
8.6714973e-08
8.7152563e-08
8.7359665e-08
8.6433786e-08
8.2673273e-08
7.3527386e-08
5.6273792e-08
3.2204211e-08
1.1194261e-08
2.1484736e-09
5.1830776e-10
6.5523113e-10
8.6537866e-08
8.6536142e-08
8.6536513e-08
8.6537412e-08
8.6538254e-08
8.6539069e-08
8.6539915e-08
8.654079e-08
8.6541693e-08
8.6542608e-08
8.6543517e-08
8.6544419e-08
8.6545328e-08
8.6546266e-08
8.6547245e-08
8.6548253e-08
8.6549267e-08
8.6550266e-08
8.6551235e-08
8.6552159e-08
8.6553025e-08
8.6553789e-08
8.6554361e-08
8.6554655e-08
8.655466e-08
8.6554473e-08
8.6554253e-08
8.6554109e-08
8.6554053e-08
8.6554047e-08
8.6554039e-08
8.6554007e-08
8.6553973e-08
8.6553975e-08
8.6554012e-08
8.6554039e-08
8.6553998e-08
8.6553843e-08
8.6553559e-08
8.6553137e-08
8.6552303e-08
8.6550055e-08
8.6544759e-08
8.6536641e-08
8.6535033e-08
8.6570065e-08
8.6699709e-08
8.6989254e-08
8.742751e-08
8.7747383e-08
8.7155184e-08
8.4048474e-08
7.5901848e-08
5.9630595e-08
3.5519309e-08
1.2941354e-08
2.4520346e-09
5.0088902e-10
5.8560174e-10
8.6926625e-08
8.6925318e-08
8.6925982e-08
8.6926851e-08
8.6927712e-08
8.6928538e-08
8.6929393e-08
8.6930277e-08
8.6931184e-08
8.6932098e-08
8.6933003e-08
8.69339e-08
8.6934805e-08
8.693574e-08
8.6936717e-08
8.6937722e-08
8.6938734e-08
8.6939731e-08
8.6940695e-08
8.6941613e-08
8.6942471e-08
8.6943226e-08
8.6943786e-08
8.6944064e-08
8.6944049e-08
8.6943844e-08
8.6943617e-08
8.6943476e-08
8.6943422e-08
8.6943416e-08
8.6943405e-08
8.6943367e-08
8.6943327e-08
8.6943325e-08
8.6943366e-08
8.6943407e-08
8.6943385e-08
8.6943248e-08
8.6942977e-08
8.6942588e-08
8.6941922e-08
8.6940179e-08
8.6935727e-08
8.6927761e-08
8.6922289e-08
8.6943543e-08
8.7044478e-08
8.7296581e-08
8.7723326e-08
8.8136841e-08
8.7863213e-08
8.5418035e-08
7.8325209e-08
6.319506e-08
3.9258552e-08
1.5047158e-08
2.8689575e-09
4.9590641e-10
5.2246036e-10
8.7356561e-08
8.7355785e-08
8.7356629e-08
8.7357491e-08
8.7358359e-08
8.7359193e-08
8.7360056e-08
8.7360944e-08
8.736185e-08
8.7362759e-08
8.7363657e-08
8.7364545e-08
8.7365443e-08
8.7366373e-08
8.7367345e-08
8.7368346e-08
8.7369354e-08
8.7370346e-08
8.7371304e-08
8.7372211e-08
8.7373058e-08
8.7373801e-08
8.7374345e-08
8.73746e-08
8.7374559e-08
8.7374331e-08
8.7374098e-08
8.7373961e-08
8.7373912e-08
8.7373906e-08
8.7373893e-08
8.737385e-08
8.7373803e-08
8.7373797e-08
8.7373842e-08
8.7373897e-08
8.7373898e-08
8.7373784e-08
8.7373529e-08
8.737316e-08
8.7372609e-08
8.7371295e-08
8.7367735e-08
8.7360465e-08
8.7352646e-08
8.7362558e-08
8.7436355e-08
8.7647127e-08
8.8046311e-08
8.8521248e-08
8.8525803e-08
8.6716018e-08
8.0690304e-08
6.6867268e-08
4.3371697e-08
1.7548171e-08
3.4194987e-09
5.0688053e-10
4.6913172e-10
8.783327e-08
8.7833002e-08
8.7833937e-08
8.7834807e-08
8.7835673e-08
8.7836514e-08
8.783738e-08
8.7838268e-08
8.783917e-08
8.7840068e-08
8.7840953e-08
8.7841829e-08
8.7842715e-08
8.7843637e-08
8.7844602e-08
8.7845596e-08
8.7846596e-08
8.784758e-08
8.7848526e-08
8.7849418e-08
8.7850251e-08
8.7850978e-08
8.78515e-08
8.7851726e-08
8.7851652e-08
8.7851397e-08
8.7851156e-08
8.7851025e-08
8.7850982e-08
8.7850978e-08
8.7850964e-08
8.7850917e-08
8.7850864e-08
8.7850852e-08
8.7850901e-08
8.7850973e-08
8.7850999e-08
8.7850914e-08
8.7850682e-08
8.7850329e-08
8.784986e-08
8.7848895e-08
8.7846188e-08
8.7839938e-08
8.7831001e-08
8.7831996e-08
8.7881081e-08
8.8048762e-08
8.840712e-08
8.8911993e-08
8.9149427e-08
8.7941767e-08
8.2930873e-08
7.0626414e-08
4.7882413e-08
2.0543227e-08
4.1426004e-09
5.3551943e-10
4.229773e-10
8.8363344e-08
8.8363448e-08
8.8364423e-08
8.8365302e-08
8.836616e-08
8.8367003e-08
8.8367868e-08
8.8368749e-08
8.8369638e-08
8.8370521e-08
8.8371387e-08
8.8372243e-08
8.8373114e-08
8.8374022e-08
8.8374976e-08
8.8375958e-08
8.8376946e-08
8.8377918e-08
8.8378846e-08
8.8379717e-08
8.838053e-08
8.8381236e-08
8.8381729e-08
8.8381919e-08
8.8381804e-08
8.8381515e-08
8.8381266e-08
8.8381144e-08
8.8381109e-08
8.8381107e-08
8.8381093e-08
8.8381044e-08
8.8380984e-08
8.8380967e-08
8.8381018e-08
8.8381108e-08
8.8381164e-08
8.8381116e-08
8.8380914e-08
8.8380578e-08
8.8380159e-08
8.8379458e-08
8.8377519e-08
8.8372504e-08
8.836361e-08
8.835835e-08
8.8386177e-08
8.8511062e-08
8.8817553e-08
8.9320211e-08
8.9733949e-08
8.9072521e-08
8.5155233e-08
7.4409075e-08
5.2771882e-08
2.4125799e-08
5.0985735e-09
5.8909321e-10
3.8411052e-10
8.8954511e-08
8.8954872e-08
8.8955859e-08
8.8956737e-08
8.8957582e-08
8.8958419e-08
8.8959274e-08
8.8960141e-08
8.8961011e-08
8.8961868e-08
8.8962706e-08
8.8963536e-08
8.8964383e-08
8.8965272e-08
8.8966207e-08
8.8967171e-08
8.8968141e-08
8.8969092e-08
8.8969993e-08
8.8970836e-08
8.8971624e-08
8.8972303e-08
8.8972759e-08
8.8972903e-08
8.8972735e-08
8.8972405e-08
8.897215e-08
8.8972039e-08
8.8972013e-08
8.8972015e-08
8.8972001e-08
8.8971951e-08
8.8971886e-08
8.8971863e-08
8.8971917e-08
8.8972028e-08
8.8972118e-08
8.8972114e-08
8.8971952e-08
8.8971641e-08
8.8971252e-08
8.8970732e-08
8.8969432e-08
8.8965707e-08
8.895778e-08
8.8948892e-08
8.8959754e-08
8.904452e-08
8.9291657e-08
8.9762533e-08
9.0295095e-08
9.0106196e-08
8.723097e-08
7.8163315e-08
5.8003459e-08
2.8388408e-08
6.3648193e-09
6.7274274e-10
3.5208378e-10
8.961608e-08
8.9616617e-08
8.9617592e-08
8.9618456e-08
8.9619281e-08
8.9620103e-08
8.9620938e-08
8.9621781e-08
8.9622619e-08
8.9623439e-08
8.9624238e-08
8.9625031e-08
8.9625844e-08
8.9626705e-08
8.9627612e-08
8.9628548e-08
8.9629492e-08
8.9630411e-08
8.9631274e-08
8.9632078e-08
8.9632834e-08
8.9633478e-08
8.9633887e-08
8.9633973e-08
8.9633739e-08
8.9633358e-08
8.96331e-08
8.9633003e-08
8.9632986e-08
8.9632991e-08
8.9632979e-08
8.963293e-08
8.9632863e-08
8.9632834e-08
8.9632891e-08
8.9633024e-08
8.9633156e-08
8.9633205e-08
8.9633098e-08
8.9632823e-08
8.9632457e-08
8.9632048e-08
8.9631231e-08
8.9628712e-08
8.9622374e-08
8.961226e-08
8.9610987e-08
8.9660664e-08
8.9845373e-08
9.0258435e-08
9.0848494e-08
9.1047723e-08
8.9151193e-08
8.1783764e-08
6.3512489e-08
3.3418258e-08
8.0501141e-09
7.9779957e-10
3.2707627e-10
9.0359369e-08
9.0360011e-08
9.0360956e-08
9.0361793e-08
9.0362587e-08
9.036338e-08
9.0364182e-08
9.0364985e-08
9.0365777e-08
9.0366545e-08
9.0367289e-08
9.0368029e-08
9.0368796e-08
9.0369615e-08
9.0370482e-08
9.0371378e-08
9.0372283e-08
9.0373156e-08
9.0373964e-08
9.0374718e-08
9.0375432e-08
9.037603e-08
9.0376378e-08
9.0376393e-08
9.0376072e-08
9.0375629e-08
9.0375373e-08
9.0375293e-08
9.0375285e-08
9.0375295e-08
9.0375286e-08
9.037524e-08
9.0375173e-08
9.0375141e-08
9.0375199e-08
9.037536e-08
9.0375541e-08
9.0375654e-08
9.037562e-08
9.03754e-08
9.037506e-08
9.0374716e-08
9.0374226e-08
9.0372711e-08
9.0368227e-08
9.0358837e-08
9.0350352e-08
9.0371976e-08
9.049632e-08
9.083244e-08
9.1419165e-08
9.190333e-08
9.0890577e-08
8.5058483e-08
6.9205339e-08
3.9284543e-08
1.0301246e-08
9.751339e-10
3.0989851e-10
9.1198059e-08
9.1198773e-08
9.1199675e-08
9.1200469e-08
9.1201217e-08
9.1201966e-08
9.1202717e-08
9.1203464e-08
9.1204191e-08
9.1204888e-08
9.1205559e-08
9.1206228e-08
9.1206933e-08
9.1207695e-08
9.1208506e-08
9.1209348e-08
9.1210197e-08
9.1211002e-08
9.1211735e-08
9.1212425e-08
9.1213088e-08
9.1213625e-08
9.1213896e-08
9.1213823e-08
9.1213382e-08
9.1212874e-08
9.1212622e-08
9.1212566e-08
9.1212565e-08
9.1212579e-08
9.1212575e-08
9.1212537e-08
9.1212474e-08
9.1212441e-08
9.1212502e-08
9.1212693e-08
9.1212935e-08
9.1213128e-08
9.1213187e-08
9.1213049e-08
9.1212749e-08
9.1212448e-08
9.121216e-08
9.121138e-08
9.1208655e-08
9.1201306e-08
9.1190099e-08
9.1192006e-08
9.1263053e-08
9.1512175e-08
9.204196e-08
9.2690767e-08
9.2417956e-08
8.8302935e-08
7.4941615e-08
4.6017767e-08
1.3322541e-08
1.2259499e-09
3.0282273e-10
9.2148248e-08
9.2149028e-08
9.2149894e-08
9.2150629e-08
9.2151319e-08
9.2152007e-08
9.2152693e-08
9.2153368e-08
9.2154012e-08
9.215462e-08
9.2155201e-08
9.2155785e-08
9.2156414e-08
9.2157108e-08
9.2157852e-08
9.2158627e-08
9.2159401e-08
9.2160113e-08
9.2160746e-08
9.2161364e-08
9.2161968e-08
9.2162428e-08
9.2162612e-08
9.2162421e-08
9.2161808e-08
9.2161263e-08
9.2161021e-08
9.2160984e-08
9.2160991e-08
9.2161006e-08
9.2161015e-08
9.2160987e-08
9.2160937e-08
9.2160908e-08
9.2160976e-08
9.2161198e-08
9.2161504e-08
9.2161791e-08
9.2161972e-08
9.2161949e-08
9.2161709e-08
9.2161443e-08
9.2161283e-08
9.2160968e-08
9.215963e-08
9.2154878e-08
9.2144473e-08
9.2135295e-08
9.2164337e-08
9.2326362e-08
9.2759744e-08
9.3466119e-08
9.3756409e-08
9.1188885e-08
8.0588843e-08
5.3583312e-08
1.7388368e-08
1.5959305e-09
3.1166229e-10
9.3226389e-08
9.3227335e-08
9.3228174e-08
9.3228847e-08
9.3229484e-08
9.323012e-08
9.3230749e-08
9.3231358e-08
9.3231924e-08
9.3232443e-08
9.3232934e-08
9.3233436e-08
9.3233993e-08
9.3234621e-08
9.3235305e-08
9.3236027e-08
9.3236732e-08
9.3237337e-08
9.3237863e-08
9.3238416e-08
9.3238972e-08
9.3239364e-08
9.3239459e-08
9.3239074e-08
9.3238284e-08
9.3237753e-08
9.3237543e-08
9.3237515e-08
9.3237529e-08
9.3237551e-08
9.3237575e-08
9.3237568e-08
9.3237536e-08
9.323752e-08
9.3237603e-08
9.3237852e-08
9.3238208e-08
9.3238595e-08
9.3238918e-08
9.3239048e-08
9.32389e-08
9.3238658e-08
9.323857e-08
9.3238515e-08
9.3238069e-08
9.3235711e-08
9.322825e-08
9.3215609e-08
9.3216636e-08
9.3301402e-08
9.3613545e-08
9.4276879e-08
9.4951023e-08
9.3740194e-08
8.5894007e-08
6.1863983e-08
2.283267e-08
2.1814193e-09
3.3538571e-10
9.0682254e-10
9.5129852e-10
9.8036097e-10
1.0018048e-09
1.0203635e-09
1.0376802e-09
1.0538062e-09
1.0683598e-09
1.0809987e-09
1.0915098e-09
1.0997165e-09
1.1054539e-09
1.108505e-09
1.1085869e-09
1.1053089e-09
1.098188e-09
1.0866397e-09
1.0700259e-09
1.0476743e-09
1.0189401e-09
9.8324663e-10
9.4014582e-10
8.8945218e-10
8.3141198e-10
7.6668629e-10
6.9615046e-10
6.2094234e-10
5.4263478e-10
4.6331787e-10
3.8493223e-10
3.0985448e-10
2.4072266e-10
1.8000608e-10
1.2938309e-10
9.0272423e-11
6.2965564e-11
4.6682396e-11
4.0815663e-11
4.5073711e-11
5.8414225e-11
7.8713573e-11
1.0339247e-10
1.3086356e-10
1.6015966e-10
1.9106289e-10
2.2273841e-10
2.541751e-10
2.8510176e-10
3.1532579e-10
3.4466888e-10
3.72937e-10
3.9989401e-10
4.2532518e-10
4.4913299e-10
4.7131503e-10
4.9189901e-10
5.1095625e-10
5.2858081e-10
5.4485353e-10
5.598632e-10
5.7371656e-10
5.8652007e-10
5.9836788e-10
6.0934161e-10
6.1951526e-10
6.2895631e-10
6.3772763e-10
6.4588607e-10
6.5348431e-10
6.6056746e-10
6.671805e-10
6.7335465e-10
6.7913646e-10
6.8450048e-10
6.6167687e-10
7.1259106e-10
7.5882887e-10
7.9864979e-10
8.3195897e-10
8.5983789e-10
8.8340939e-10
9.0344102e-10
9.2038548e-10
9.3454312e-10
9.4611052e-10
9.5520797e-10
9.6186016e-10
9.6599414e-10
9.6741543e-10
9.6581419e-10
9.6076015e-10
9.5173312e-10
9.3814486e-10
9.1938621e-10
8.9486998e-10
8.640719e-10
8.2660291e-10
7.8192002e-10
7.2964651e-10
6.7047354e-10
6.0588699e-10
5.3756207e-10
4.6736193e-10
3.9735113e-10
3.2965983e-10
2.662016e-10
2.0935925e-10
1.6021281e-10
1.193654e-10
8.6878757e-11
6.3838363e-11
4.9803118e-11
4.4500425e-11
4.6777578e-11
5.5471089e-11
6.8945321e-11
8.5823368e-11
1.0501113e-10
1.2618212e-10
1.4880803e-10
1.7214515e-10
1.9568119e-10
2.1898878e-10
2.4183469e-10
2.6405739e-10
2.8550728e-10
3.0604243e-10
3.2555054e-10
3.4397609e-10
3.6129633e-10
3.7751017e-10
3.9264037e-10
4.0672686e-10
4.1981612e-10
4.3196135e-10
4.432204e-10
4.5365111e-10
4.6330979e-10
4.7225097e-10
4.805272e-10
4.8818744e-10
4.9527867e-10
5.0184343e-10
5.0792222e-10
5.1355171e-10
5.1876513e-10
5.2360031e-10
5.280661e-10
1.5469718e-09
1.3108915e-09
1.1213908e-09
9.7944298e-10
8.7944763e-10
8.1362699e-10
7.7604563e-10
7.6143251e-10
7.634615e-10
7.7606491e-10
7.9431311e-10
8.146578e-10
8.3461202e-10
8.5255062e-10
8.6750619e-10
8.7895999e-10
8.8664198e-10
8.9037476e-10
8.8996035e-10
8.8513852e-10
8.7558097e-10
8.6091339e-10
8.4075481e-10
8.146785e-10
7.8223746e-10
7.4328649e-10
6.9817133e-10
6.4765942e-10
5.9284703e-10
5.351219e-10
4.7591615e-10
4.1682745e-10
3.5941571e-10
3.0526454e-10
2.5599916e-10
2.1253547e-10
1.7553887e-10
1.4550094e-10
1.2307988e-10
1.069094e-10
9.7009819e-11
9.2235949e-11
9.172147e-11
9.4670787e-11
1.0040982e-10
1.0838272e-10
1.1810555e-10
1.2916309e-10
1.4114301e-10
1.5369904e-10
1.6655249e-10
1.7950734e-10
1.9241368e-10
2.0506727e-10
2.1732882e-10
2.2911074e-10
2.4039507e-10
2.5114875e-10
2.613276e-10
2.7092748e-10
2.799535e-10
2.8841745e-10
2.9633675e-10
3.0373229e-10
3.1062757e-10
3.1704764e-10
3.2301802e-10
3.285647e-10
3.3371321e-10
3.3848845e-10
3.4291469e-10
3.4701442e-10
3.5081261e-10
3.5431947e-10
6.6156943e-09
4.792325e-09
3.5407819e-09
2.7147345e-09
2.1781322e-09
1.807064e-09
1.5241216e-09
1.2985338e-09
1.1181277e-09
9.8588502e-10
8.9153716e-10
8.2956007e-10
7.9422083e-10
7.7939236e-10
7.7919676e-10
7.8850242e-10
8.0321604e-10
8.2006775e-10
8.3606186e-10
8.487103e-10
8.5652007e-10
8.5956102e-10
8.5793821e-10
8.5159097e-10
8.4032983e-10
8.2394913e-10
8.0236328e-10
7.7569302e-10
7.4428898e-10
7.0873556e-10
6.69872e-10
6.2863101e-10
5.8586803e-10
5.4250239e-10
4.9949438e-10
4.5779962e-10
4.1803459e-10
3.8071773e-10
3.4688755e-10
3.1762095e-10
2.9225601e-10
2.7096169e-10
2.5378857e-10
2.4019543e-10
2.2964602e-10
2.2166353e-10
2.1574272e-10
2.1159604e-10
2.0897847e-10
2.0765239e-10
2.073807e-10
2.0795692e-10
2.0923604e-10
2.1108661e-10
2.1337672e-10
2.1599097e-10
2.1883263e-10
2.2182653e-10
2.2490772e-10
2.2802215e-10
2.3112598e-10
2.3418431e-10
2.3716985e-10
2.4006193e-10
2.4284572e-10
2.4551108e-10
2.480516e-10
2.5046406e-10
2.527476e-10
2.5490328e-10
2.5693371e-10
2.5884153e-10
2.6063573e-10
2.6230229e-10
2.1773801e-08
1.635068e-08
1.2035811e-08
8.7746033e-09
6.421101e-09
4.7890259e-09
3.6718848e-09
2.8911729e-09
2.3483138e-09
1.9587826e-09
1.6657764e-09
1.4329118e-09
1.2435098e-09
1.0928463e-09
9.8001228e-10
8.9820391e-10
8.4317733e-10
8.1130106e-10
7.9890757e-10
8.0248548e-10
8.1505409e-10
8.3085005e-10
8.4517113e-10
8.5649455e-10
8.645543e-10
8.6921742e-10
8.7029945e-10
8.6763018e-10
8.6112442e-10
8.5081697e-10
8.3691348e-10
8.1976444e-10
7.9980243e-10
7.7748514e-10
7.5343316e-10
7.2751523e-10
7.0074166e-10
6.7422984e-10
6.4846801e-10
6.2334078e-10
5.9910099e-10
5.7597699e-10
5.5463263e-10
5.3549707e-10
5.1870481e-10
5.0410696e-10
4.9141293e-10
4.803702e-10
4.7075168e-10
4.6229132e-10
4.5484789e-10
4.4833985e-10
4.4267613e-10
4.3776163e-10
4.335011e-10
4.298233e-10
4.2665319e-10
4.2392191e-10
4.215758e-10
4.1956659e-10
4.1785022e-10
4.1638828e-10
4.1514765e-10
4.1409935e-10
4.1321821e-10
4.1248212e-10
4.1187207e-10
4.1137171e-10
4.1096716e-10
4.1064639e-10
4.103995e-10
4.1021697e-10
4.1009491e-10
4.1001465e-10
4.3766225e-08
3.5649892e-08
2.8197043e-08
2.1785277e-08
1.6529358e-08
1.2407027e-08
9.2922679e-09
6.9856127e-09
5.3140496e-09
4.1196095e-09
3.2712328e-09
2.6636065e-09
2.2150779e-09
1.8831841e-09
1.6274327e-09
1.4222301e-09
1.2542318e-09
1.1151733e-09
1.0072784e-09
9.2744253e-10
8.7407634e-10
8.4619645e-10
8.3793784e-10
8.421304e-10
8.5336753e-10
8.6684215e-10
8.7976527e-10
8.9125118e-10
9.0088379e-10
9.0838944e-10
9.1358084e-10
9.163778e-10
9.1681802e-10
9.1502064e-10
9.1119806e-10
9.0569273e-10
8.9877e-10
8.9055852e-10
8.8130928e-10
8.7138246e-10
8.6091066e-10
8.4992304e-10
8.3864362e-10
8.2738547e-10
8.1649271e-10
8.0624324e-10
7.9671459e-10
7.879312e-10
7.7987983e-10
7.7251778e-10
7.6580307e-10
7.597102e-10
7.541899e-10
7.4919303e-10
7.4467417e-10
7.4059328e-10
7.3691497e-10
7.3360934e-10
7.3064316e-10
7.2798506e-10
7.2560761e-10
7.2348585e-10
7.2159671e-10
7.1991893e-10
7.1843347e-10
7.1712249e-10
7.159693e-10
7.1496095e-10
7.1408556e-10
7.1333249e-10
7.1269214e-10
7.1215659e-10
7.1171778e-10
7.1137354e-10
6.3457806e-08