/*--------------------------------*- C++ -*----------------------------------*\
| =========                 |                                                 |
| \\      /  F ield         | OpenFOAM: The Open Source CFD Toolbox           |
|  \\    /   O peration     | Version:  v2006                                 |
|   \\  /    A nd           | Website:  www.openfoam.com                      |
|    \\/     M anipulation  |                                                 |
\*---------------------------------------------------------------------------*/
FoamFile
{
    version     2.0;
    format      ascii;
    class       volScalarField;
    location    "3000";
    object      omega;
}
// * * * * * * * * * * * * * * * * * * * * * * * * * * * * * * * * * * * * * //

dimensions      [0 0 -1 0 0 0 0];


internalField   nonuniform List<scalar> 
55713
(
5.6489251
1.3889155
0.45955021
0.29937347
0.26964545
0.26237918
0.26187989
0.26264061
0.26319882
0.26342285
0.26346951
0.26346211
0.26345102
0.26344736
0.26344876
0.26344957
0.26344902
0.26344867
0.26344817
0.2634465
0.26344446
0.26344306
0.26344206
0.26344099
0.2634398
0.26343853
0.26343716
0.26343564
0.2634339
0.26343188
0.26342971
0.2634274
0.26342496
0.26342246
0.26341987
0.26341706
0.26341387
0.26341033
0.2634065
0.26340247
0.26339835
0.26339406
0.26338931
0.26338417
0.26337905
0.2633741
0.26336917
0.26336417
0.26335905
0.26335376
0.26334824
0.26334248
0.26333653
0.26333048
0.2633243
0.26331808
0.26331224
0.26330718
0.26330262
5.1537219
1.2777942
0.43864557
0.30195487
0.27782188
0.27271339
0.27280575
0.27360776
0.27407524
0.27422386
0.2742352
0.27421619
0.27420104
0.27419474
0.27419216
0.2741876
0.27418137
0.27417607
0.27417104
0.27416518
0.27415905
0.27415339
0.27414797
0.27414259
0.27413727
0.27413196
0.2741266
0.2741211
0.27411545
0.2741095
0.27410344
0.2740972
0.27409083
0.27408438
0.27407789
0.27407119
0.27406403
0.27405636
0.27404828
0.27403992
0.27403144
0.27402279
0.27401357
0.27400372
0.27399366
0.27398364
0.27397349
0.27396309
0.27395235
0.2739412
0.27392953
0.27391724
0.27390431
0.2738908
0.27387661
0.27386164
0.27384617
0.2738305
0.27381466
4.7199555
1.1858512
0.42336034
0.30681288
0.28770369
0.28414896
0.28465525
0.28545579
0.28582641
0.28590835
0.28589296
0.28586613
0.28584785
0.28583855
0.28583109
0.28582067
0.28580886
0.2857986
0.28578911
0.28577911
0.28576888
0.28575884
0.28574888
0.28573914
0.28572965
0.28572026
0.28571085
0.28570134
0.28569172
0.28568183
0.28567183
0.28566165
0.28565134
0.28564094
0.28563052
0.28561998
0.28560893
0.28559713
0.28558478
0.28557207
0.28555921
0.28554622
0.28553264
0.28551813
0.28550315
0.28548809
0.2854728
0.28545706
0.28544077
0.28542385
0.28540615
0.28538747
0.2853677
0.28534688
0.28532488
0.28530138
0.28527651
0.28525052
0.28522359
4.3379412
1.1021448
0.41222001
0.31372709
0.29890661
0.29676374
0.2976105
0.29835329
0.29861556
0.29864101
0.29860726
0.29857593
0.29855522
0.29854217
0.29852923
0.29851294
0.29849572
0.29848062
0.29846681
0.29845281
0.29843852
0.29842403
0.29840957
0.29839555
0.29838196
0.29836855
0.29835513
0.29834168
0.29832811
0.29831434
0.29830041
0.29828636
0.29827214
0.29825784
0.29824355
0.29822927
0.29821452
0.29819869
0.29818213
0.29816509
0.29814788
0.29813064
0.29811282
0.29809382
0.298074
0.29805396
0.2980336
0.29801261
0.29799088
0.29796829
0.29794468
0.29791976
0.29789329
0.29786527
0.29783558
0.29780372
0.29776958
0.29773341
0.2976955
3.9998397
1.0265775
0.40515766
0.322844
0.31162352
0.31072185
0.31179497
0.31242601
0.31258298
0.31256604
0.31252181
0.31248773
0.3124645
0.31244689
0.3124281
0.3124061
0.31238372
0.31236396
0.31234599
0.31232809
0.31230964
0.31229071
0.31227185
0.31225369
0.31223612
0.3122188
0.31220148
0.31218419
0.31216679
0.31214926
0.31213155
0.31211372
0.31209571
0.31207761
0.31205955
0.31204164
0.31202349
0.31200386
0.3119832
0.31196195
0.31194049
0.31191913
0.31189733
0.31187413
0.31184967
0.31182482
0.31179962
0.31177361
0.31174668
0.31171869
0.31168945
0.31165864
0.31162581
0.3115909
0.31155388
0.31151408
0.31147108
0.3114252
0.31137675
3.6992606
0.95797908
0.40200446
0.33566485
0.32602099
0.3262045
0.32736903
0.32784715
0.32791425
0.32786764
0.32781928
0.32778338
0.3277569
0.32773431
0.32770963
0.3276823
0.32765519
0.3276311
0.32760923
0.32758748
0.32756478
0.32754153
0.32751852
0.32749645
0.32747512
0.32745405
0.32743304
0.32741209
0.3273911
0.32737001
0.32734876
0.32732736
0.32730581
0.32728412
0.32726246
0.3272411
0.32722001
0.32719693
0.32717239
0.3271471
0.32712157
0.32709631
0.32707091
0.32704397
0.32701524
0.32698588
0.32695619
0.32692553
0.32689378
0.32686079
0.32682636
0.32679015
0.32675152
0.32671022
0.32666638
0.3266193
0.32656807
0.32651317
0.32645485
3.4309652
0.8955533
0.40271397
0.35097801
0.34256979
0.34346196
0.34452129
0.34482992
0.34482899
0.34476756
0.34471771
0.34467972
0.34464933
0.34462164
0.3445913
0.34455914
0.34452793
0.34450019
0.34447481
0.34444913
0.34442214
0.3443949
0.34436816
0.34434258
0.34431778
0.34429327
0.34426888
0.34424458
0.34422031
0.344196
0.34417154
0.34414696
0.34412223
0.34409732
0.3440724
0.34404785
0.34402434
0.3439985
0.34397047
0.34394145
0.34391215
0.34388333
0.34385486
0.3438249
0.34379248
0.34375907
0.34372542
0.34369067
0.34365473
0.34361736
0.34357841
0.34353754
0.34349394
0.34344708
0.34339721
0.34334387
0.34328538
0.34322256
0.34315547
3.1906532
0.83863504
0.4072825
0.36643584
0.36140007
0.3626606
0.36348723
0.36364709
0.36359765
0.36353252
0.36348271
0.3634421
0.36340761
0.36337501
0.3633395
0.36330312
0.36326885
0.36323867
0.36321015
0.36318036
0.36314929
0.36311858
0.36308874
0.36306021
0.36303243
0.36300495
0.36297764
0.36295049
0.36292343
0.3628964
0.36286925
0.36284202
0.36281465
0.36278709
0.36275948
0.36273225
0.36270677
0.36267934
0.36264848
0.36261623
0.36258363
0.36255174
0.36252092
0.36248902
0.36245376
0.36241701
0.36238022
0.36234221
0.36230298
0.3622622
0.36221971
0.36217527
0.36212793
0.36207678
0.36202203
0.3619639
0.36189965
0.36183051
0.36175632
2.9748417
0.78670914
0.41562876
0.38513442
0.38261457
0.38399565
0.38458278
0.38462893
0.38455732
0.38449186
0.38444178
0.38439799
0.38435984
0.38432283
0.38428294
0.38424318
0.38420763
0.38417676
0.38414523
0.38411125
0.38407674
0.38404332
0.38401124
0.38398053
0.38395049
0.38392075
0.38389125
0.38386198
0.38383287
0.38380387
0.3837748
0.38374571
0.38371652
0.38368714
0.38365766
0.38362855
0.3836017
0.38357422
0.38354173
0.38350701
0.38347182
0.38343763
0.3834054
0.38337312
0.38333631
0.38329732
0.38325857
0.38321849
0.3831773
0.38313453
0.38308994
0.3830435
0.38299414
0.38294065
0.38288269
0.38282189
0.38275413
0.38268096
0.38260214
2.7808739
0.73938177
0.42795416
0.40686213
0.40653944
0.40787532
0.40822449
0.40819386
0.40811603
0.40805293
0.40800275
0.40795619
0.40791535
0.40787473
0.40783176
0.40778985
0.40775573
0.4077261
0.40769152
0.40765397
0.40761705
0.40758213
0.407549
0.40751714
0.40748585
0.40745491
0.40742431
0.40739402
0.40736396
0.40733408
0.40730424
0.40727445
0.40724462
0.40721465
0.40718451
0.40715474
0.40712751
0.40710146
0.40706966
0.40703372
0.40699691
0.40696157
0.40692923
0.40689863
0.40686227
0.40682268
0.4067837
0.40674322
0.40670194
0.40665929
0.40661471
0.40656851
0.40651953
0.40646656
0.40640793
0.40634736
0.40627943
0.40620546
0.40612562
2.6065948
0.69635877
0.44532552
0.43230657
0.43367222
0.4347794
0.43492742
0.43486109
0.43478786
0.4347283
0.43467817
0.43463054
0.43458854
0.43454588
0.43450181
0.43445983
0.4344303
0.43440332
0.43436643
0.43432677
0.43428924
0.43425465
0.43422205
0.43419048
0.43415945
0.43412888
0.43409877
0.43406905
0.43403967
0.43401055
0.43398158
0.43395277
0.43392402
0.43389524
0.43386626
0.43383755
0.4338114
0.4337884
0.43376096
0.43372618
0.43368906
0.43365407
0.43362349
0.43359667
0.43356421
0.43352631
0.4334897
0.43345111
0.43341234
0.43337308
0.43333156
0.43328877
0.43324351
0.43319507
0.43313982
0.43308324
0.43302028
0.43294987
0.43287428
2.4496004
0.65752388
0.47162716
0.46252102
0.46459687
0.46532892
0.46534282
0.4652777
0.46521201
0.46515798
0.46511052
0.46506517
0.46502444
0.46498272
0.46494081
0.46490203
0.46487894
0.46485583
0.46481913
0.46477993
0.46474476
0.46471308
0.46468315
0.46465407
0.46462562
0.46459775
0.46457044
0.46454363
0.46451727
0.46449128
0.46446558
0.46444015
0.46441496
0.46438988
0.46436476
0.46433968
0.46431675
0.46429878
0.46428016
0.46425101
0.46421561
0.4641829
0.46415654
0.4641356
0.4641122
0.46407892
0.46404891
0.46401522
0.46398298
0.46395178
0.46391769
0.46388258
0.4638458
0.46380689
0.46376171
0.46371363
0.46366332
0.46360219
0.46353836
2.3087314
0.6227614
0.50601866
0.49857118
0.50000292
0.50029308
0.50024901
0.5002015
0.50014944
0.50010687
0.50006766
0.50003059
0.49999597
0.49996063
0.49992566
0.49989526
0.49987796
0.49986111
0.4998283
0.49979495
0.4997666
0.49974132
0.4997174
0.49969426
0.49967185
0.4996501
0.499629
0.49960849
0.49958852
0.49956906
0.49955006
0.49953152
0.49951336
0.49949555
0.49947795
0.49946047
0.49944433
0.49943369
0.49942685
0.49941015
0.49938125
0.49935459
0.49933514
0.49932332
0.49931279
0.49928929
0.49927174
0.49924799
0.49922835
0.49921007
0.49918951
0.49916751
0.49914574
0.4991222
0.49909578
0.49906256
0.49903421
0.49899135
0.49894925
2.1825426
0.59148566
0.54115098
0.54005612
0.54042257
0.54041013
0.54037945
0.54035482
0.54032118
0.54029909
0.54027606
0.54025473
0.54023392
0.54021427
0.54019326
0.54017753
0.54016696
0.54015631
0.5401343
0.54011612
0.54010145
0.54008812
0.54007553
0.54006361
0.54005234
0.54004173
0.54003176
0.54002239
0.54001365
0.54000546
0.5399979
0.53999091
0.53998447
0.53997854
0.53997313
0.53996807
0.53996365
0.53996277
0.53996699
0.53997107
0.5399583
0.53994513
0.53993943
0.53994051
0.53994252
0.53993832
0.53993829
0.53993396
0.53993351
0.53993299
0.53993277
0.53993124
0.53993142
0.53993036
0.53993004
0.53992375
0.53992419
0.53991472
0.53990751
0.17899287
0.17899081
0.17898892
0.17899243
0.17899483
0.17899788
0.17900092
0.17900406
0.17900722
0.17901038
0.1790135
0.17901656
0.17901955
0.17902246
0.17902527
0.179028
0.17903067
0.17903331
0.1790359
0.17903841
0.17904075
0.17904287
0.17904471
0.1790463
0.1790477
0.17904893
0.17904992
0.17905064
0.17905107
0.17905121
0.17905107
0.17905064
0.17904991
0.17904882
0.17904741
0.17904581
0.17904417
0.17904249
0.1790406
0.1790384
0.17903618
0.17903468
0.17903462
0.17903416
0.17902399
0.17898261
0.17887896
0.17869316
0.17846568
0.17838087
0.17890969
0.18114075
0.18857682
0.21038354
0.27248446
0.45062309
0.9914608
3.1748969
15.454729
0.18144741
0.18144569
0.18144587
0.18144891
0.18145165
0.18145468
0.1814578
0.18146097
0.18146417
0.18146735
0.18147048
0.18147355
0.18147655
0.18147946
0.18148227
0.18148501
0.1814877
0.18149036
0.18149298
0.18149551
0.18149785
0.18149996
0.18150179
0.18150338
0.18150479
0.18150601
0.18150699
0.18150768
0.18150809
0.18150821
0.18150804
0.18150759
0.18150682
0.18150573
0.18150431
0.18150271
0.18150107
0.18149939
0.18149751
0.18149536
0.1814932
0.18149172
0.18149146
0.18149055
0.18148019
0.18144014
0.18134019
0.18115806
0.18092466
0.18080616
0.18125214
0.18337306
0.190137
0.21038349
0.26877072
0.43806292
0.9567399
3.0671198
14.652705
0.18417253
0.18417114
0.18417204
0.18417497
0.18417786
0.18418094
0.18418412
0.18418735
0.18419059
0.18419381
0.18419697
0.18420007
0.18420308
0.184206
0.18420883
0.18421158
0.18421429
0.18421698
0.18421963
0.18422216
0.18422451
0.18422661
0.18422845
0.18423005
0.18423147
0.1842327
0.18423368
0.18423438
0.18423479
0.18423492
0.18423477
0.18423433
0.18423359
0.18423252
0.18423112
0.18422953
0.18422791
0.18422629
0.18422448
0.18422233
0.18422003
0.18421825
0.18421783
0.18421793
0.18421167
0.1841806
0.18409387
0.18392193
0.18367842
0.18350117
0.18379125
0.18553104
0.19133242
0.20931285
0.26245641
0.41941946
0.90888924
2.9091748
13.854683
0.18720799
0.187207
0.18720867
0.1872115
0.18721452
0.18721764
0.18722088
0.18722415
0.18722742
0.18723066
0.18723384
0.18723694
0.18723995
0.18724287
0.1872457
0.18724846
0.18725118
0.18725389
0.18725656
0.1872591
0.18726144
0.18726354
0.18726537
0.18726697
0.18726839
0.18726962
0.18727059
0.18727128
0.1872717
0.18727183
0.18727168
0.18727124
0.18727052
0.18726947
0.18726809
0.18726651
0.18726491
0.18726334
0.1872616
0.18725951
0.18725715
0.18725514
0.18725441
0.18725477
0.18725095
0.18722673
0.187152
0.18699248
0.18674638
0.18652351
0.1866852
0.18812653
0.19312695
0.20909787
0.25733379
0.40272842
0.8637969
2.7574712
13.063972
0.19059903
0.19059858
0.19060074
0.19060355
0.19060665
0.19060982
0.1906131
0.1906164
0.1906197
0.19062294
0.19062612
0.19062921
0.19063222
0.19063512
0.19063794
0.19064069
0.19064342
0.19064614
0.19064882
0.19065135
0.19065367
0.19065575
0.19065757
0.19065916
0.19066058
0.1906618
0.19066276
0.19066344
0.19066386
0.190664
0.19066385
0.19066343
0.19066271
0.19066169
0.19066034
0.19065877
0.1906572
0.19065568
0.19065405
0.19065203
0.19064964
0.19064741
0.19064634
0.19064684
0.1906453
0.19062797
0.1905662
0.19042193
0.19017843
0.18991474
0.18994553
0.1910839
0.19531695
0.20932699
0.25261372
0.38628981
0.81880947
2.606725
12.28372
0.19440045
0.19440067
0.19440317
0.19440601
0.19440915
0.19441236
0.19441567
0.19441899
0.19442228
0.19442551
0.19442867
0.19443174
0.19443471
0.19443758
0.19444036
0.19444309
0.19444582
0.19444854
0.1944512
0.19445371
0.194456
0.19445805
0.19445984
0.19446142
0.19446282
0.19446402
0.19446496
0.19446563
0.19446604
0.19446618
0.19446605
0.19446563
0.19446494
0.19446395
0.19446263
0.19446109
0.19445954
0.19445809
0.19445657
0.19445467
0.19445229
0.19444988
0.19444842
0.19444877
0.19444889
0.1944377
0.19438892
0.19426242
0.19402813
0.19373381
0.19364227
0.19449025
0.19803289
0.21014644
0.24865579
0.37069296
0.77468493
2.4582234
11.517086
0.1986786
0.19867945
0.19868214
0.19868503
0.19868818
0.19869143
0.19869474
0.19869805
0.19870131
0.1987045
0.19870761
0.19871062
0.19871353
0.19871633
0.19871906
0.19872175
0.19872444
0.19872714
0.19872977
0.19873223
0.19873447
0.19873646
0.19873821
0.19873975
0.19874113
0.1987423
0.1987432
0.19874385
0.19874425
0.19874439
0.19874427
0.19874387
0.19874321
0.19874226
0.19874099
0.19873949
0.19873796
0.19873659
0.19873522
0.19873347
0.19873117
0.19872864
0.1987268
0.19872678
0.198728
0.19872211
0.19868606
0.19857935
0.19836073
0.19804742
0.19784507
0.19840741
0.20145998
0.21161229
0.24551377
0.35602502
0.73160014
2.3125091
10.767057
0.20351437
0.20351574
0.2035185
0.20352142
0.20352457
0.20352782
0.2035311
0.20353436
0.20353755
0.20354066
0.20354368
0.20354659
0.20354939
0.20355209
0.20355472
0.20355733
0.20355996
0.2035626
0.20356517
0.20356755
0.2035697
0.20357162
0.2035733
0.20357479
0.20357611
0.20357723
0.20357809
0.2035787
0.20357909
0.20357924
0.20357913
0.20357875
0.20357812
0.20357722
0.20357602
0.20357457
0.2035731
0.20357181
0.20357061
0.20356908
0.20356693
0.20356435
0.20356215
0.20356167
0.20356331
0.2035617
0.20353757
0.20345205
0.20325536
0.20293631
0.2026456
0.20294152
0.2053303
0.21384506
0.24332738
0.34249992
0.68985896
2.1702936
10.03647
0.20900749
0.20900917
0.20901193
0.20901485
0.20901798
0.20902117
0.20902438
0.20902753
0.2090306
0.20903358
0.20903644
0.20903919
0.20904182
0.20904437
0.20904686
0.20904933
0.20905186
0.2090544
0.20905685
0.2090591
0.20906112
0.20906293
0.20906451
0.20906592
0.20906717
0.2090682
0.209069
0.20906956
0.20906992
0.20907007
0.20906998
0.20906963
0.20906904
0.20906821
0.2090671
0.20906574
0.20906433
0.20906315
0.20906217
0.20906092
0.209059
0.20905649
0.20905406
0.209053
0.20905451
0.20905598
0.20904243
0.2089786
0.20880963
0.20849793
0.20813588
0.20819004
0.20999024
0.21692554
0.24222989
0.33032018
0.64976233
2.032387
9.3279412
0.21528231
0.21528412
0.21528683
0.21528971
0.21529275
0.21529583
0.21529889
0.21530186
0.21530473
0.21530749
0.21531012
0.21531262
0.21531501
0.21531732
0.21531959
0.21532187
0.21532422
0.21532659
0.21532885
0.2153309
0.21533274
0.21533438
0.21533582
0.2153371
0.21533823
0.21533915
0.21533985
0.21534035
0.21534068
0.21534082
0.21534075
0.21534044
0.21533991
0.21533918
0.21533819
0.21533696
0.21533565
0.21533461
0.21533387
0.21533301
0.21533144
0.21532914
0.21532663
0.21532504
0.21532593
0.21532922
0.21532438
0.21528154
0.21514491
0.21485544
0.21444588
0.21427541
0.21551571
0.22108066
0.2423712
0.31970743
0.61162239
1.8998213
8.6438402
0.22249584
0.22249762
0.22250024
0.222503
0.22250588
0.22250876
0.22251158
0.22251426
0.22251682
0.22251925
0.22252153
0.22252367
0.2225257
0.22252766
0.22252961
0.22253159
0.22253367
0.22253577
0.22253774
0.22253949
0.22254107
0.22254246
0.22254369
0.22254479
0.22254574
0.22254648
0.22254704
0.22254745
0.22254774
0.22254787
0.22254784
0.22254758
0.22254714
0.22254653
0.22254572
0.22254467
0.22254353
0.22254267
0.22254223
0.22254188
0.2225408
0.22253886
0.22253648
0.22253457
0.22253456
0.22253845
0.22254002
0.22251619
0.22241445
0.22216094
0.22173385
0.22137383
0.2220784
0.22683938
0.2439169
0.31089934
0.57573791
1.7740142
7.9862508
0.23084811
0.23084988
0.23085235
0.2308549
0.23085752
0.23086009
0.23086253
0.23086479
0.2308669
0.23086884
0.23087062
0.23087224
0.23087376
0.23087522
0.2308767
0.23087826
0.23087993
0.23088162
0.23088315
0.23088448
0.23088568
0.23088674
0.23088766
0.23088848
0.23088916
0.23088966
0.23089003
0.23089032
0.23089054
0.23089065
0.23089067
0.2308905
0.23089017
0.23088974
0.23088917
0.2308884
0.23088752
0.23088687
0.23088678
0.23088721
0.23088676
0.23088535
0.23088337
0.2308814
0.23088067
0.23088401
0.23088948
0.23088141
0.23081473
0.23060836
0.23019514
0.22970999
0.22994076
0.23338152
0.24711956
0.30415955
0.54235711
1.6570234
7.3569493
0.2405943
0.24059619
0.24059839
0.24060063
0.24060291
0.24060506
0.24060697
0.24060867
0.24061017
0.24061145
0.24061254
0.24061345
0.24061427
0.24061506
0.24061591
0.24061689
0.24061802
0.24061912
0.24062004
0.2406208
0.24062148
0.24062208
0.24062259
0.24062303
0.24062333
0.24062349
0.2406236
0.24062374
0.24062388
0.24062396
0.24062406
0.240624
0.24062384
0.24062365
0.24062341
0.24062305
0.24062255
0.24062219
0.2406226
0.24062389
0.2406244
0.24062363
0.24062238
0.24062085
0.2406197
0.24062174
0.24062867
0.240632
0.24059771
0.24044663
0.24007413
0.23950502
0.23933564
0.24167002
0.25216761
0.2997898
0.51159884
1.5516991
6.7573914
0.25204795
0.25204995
0.25205183
0.25205378
0.25205571
0.25205738
0.25205873
0.25205981
0.25206063
0.25206119
0.2520615
0.25206163
0.25206168
0.25206171
0.25206183
0.25206217
0.25206268
0.2520631
0.25206326
0.25206335
0.25206345
0.25206354
0.25206358
0.25206355
0.25206338
0.25206314
0.25206298
0.25206298
0.25206305
0.25206315
0.25206335
0.25206346
0.25206352
0.25206364
0.25206383
0.25206401
0.25206409
0.25206426
0.25206527
0.25206721
0.2520688
0.25206895
0.2520687
0.25206824
0.25206733
0.25206766
0.25207389
0.25208364
0.25207571
0.25198304
0.25168086
0.25108457
0.25055657
0.2518721
0.25966536
0.29814684
0.48320157
1.4607344
6.1886508
17.033439
19.70916
22.775373
26.282057
30.283934
34.840542
40.016229
45.880032
52.505428
59.969914
68.354409
77.74246
88.219217
99.870225
112.77998
127.03024
142.69825
159.85473
178.56184
198.87094
220.82072
244.43514
269.7217
296.66997
325.2507
355.41493
387.09388
420.19925
454.62453
490.2451
526.92272
564.50478
602.82807
641.72283
681.01271
720.51711
760.06126
799.47473
838.5885
877.24538
915.29566
952.60479
989.05312
1024.5353
1058.9604
1092.2508
1124.3443
1155.1941
1184.7676
1213.0434
1240.0111
1265.6702
1290.0302
1313.11
1334.9349
1355.535
1374.9469
1393.2096
1410.3651
1426.4584
1441.5362
1455.6456
1468.8337
1481.1479
1492.635
1503.3414
1513.3112
1522.5882
1531.2145
1539.23
1546.6738
1553.5818
1559.9902
1565.9321
3.6972336
4.3557135
5.0529267
5.8047551
6.6318362
7.5528037
8.5840624
9.740626
11.036889
12.487099
14.105611
15.906818
17.90518
20.11483
22.549472
25.221763
28.143274
31.323521
34.770145
38.487636
42.477807
46.73839
51.26439
56.04473
61.066825
66.314518
71.763416
77.398011
83.195721
89.124179
95.159039
101.2724
107.47196
113.78239
120.08305
126.34202
132.56135
138.74682
144.96236
151.23785
157.45842
163.49492
169.37011
175.10212
180.69526
186.10124
191.23552
196.15507
200.86523
205.42898
209.86626
214.14685
218.2495
222.16421
225.88656
229.41624
232.75627
235.9262
238.93988
241.77847
244.44246
246.93942
249.25504
251.40277
253.39569
255.24597
256.96293
258.55654
260.03387
261.40295
262.66892
263.84084
264.91865
265.99094
1.1034976
1.2709867
1.4699671
1.6992211
1.9598886
2.2541779
2.5850632
2.9561488
3.3715637
3.835842
4.3538187
4.930494
5.5709361
6.2801222
7.0628365
7.923472
8.8659317
9.8933502
11.008001
12.210949
13.501974
14.87919
16.339235
17.876413
19.48352
21.152021
22.870217
24.627798
26.413754
28.214242
30.017406
31.812257
33.593586
35.363364
37.105677
38.809612
40.47202
42.094045
43.684868
45.255059
46.801749
48.311925
49.781377
51.209943
52.598973
53.943092
55.240586
56.493049
57.701038
58.866884
59.989704
61.06806
62.101545
63.089948
64.033083
64.93091
65.783697
66.588997
67.34097
68.043424
68.700345
69.314553
69.888107
70.423106
70.921633
71.385746
71.817435
72.218655
72.591288
72.937163
73.258177
73.556584
73.832479
74.094229
0.49408807
0.55950044
0.63838272
0.7311084
0.8387636
0.96257382
1.1038383
1.2639703
1.4445387
1.6472912
1.8741531
2.1271961
2.4086054
2.7206118
3.0654326
3.4451756
3.8617742
4.3168523
4.8116536
5.3468721
5.9225754
6.5380106
7.1916463
7.8807531
8.6016522
9.3499197
10.119347
10.90397
11.697558
12.49238
13.281452
14.058128
14.817155
15.556615
16.272365
16.960102
17.61738
18.243261
18.839456
19.409241
19.95437
20.474451
20.970014
21.442013
21.891988
22.319629
22.725983
23.113543
23.483192
23.836215
24.172571
24.492115
24.795235
25.082523
25.354589
25.611977
25.855237
26.084534
26.300573
26.504075
26.695666
26.875741
27.044673
27.202919
27.35096
27.489299
27.618441
27.738892
27.851144
27.955695
28.052995
28.143606
28.227463
28.307099
0.28997733
0.31764165
0.35238132
0.39462461
0.44515679
0.50483223
0.57448211
0.6548988
0.74685678
0.85114928
0.96861945
1.1001758
1.2468016
1.4095352
1.5894509
1.7876097
2.005022
2.2425719
2.5009699
2.7806566
3.0817472
3.4039194
3.746428
4.1078581
4.4862288
4.87914
5.2831256
5.6947801
6.110546
6.5259663
6.9369935
7.3397684
7.730931
8.1085158
8.4703919
8.8146998
9.1403547
9.4468256
9.7345429
10.004588
10.257776
10.49448
10.715498
10.921765
11.114377
11.293885
11.461047
11.617788
11.765175
11.90402
12.03467
12.157338
12.272365
12.380149
12.481099
12.575597
12.664027
12.746658
12.823783
12.895838
12.963251
13.026322
13.0853
13.140425
13.191926
13.240025
13.284933
13.326854
13.365982
13.402503
13.436589
13.468433
13.498085
13.526106
0.21718063
0.22908457
0.24507251
0.26553766
0.29103429
0.32217226
0.35956693
0.40380314
0.45541743
0.51489942
0.58270654
0.65928143
0.74507276
0.84054092
0.9461641
1.0624205
1.1897746
1.328636
1.479333
1.6420533
1.8168106
2.0033669
2.2012548
2.4096065
2.6272225
2.8526709
3.0838544
3.318748
3.5552619
3.7907174
4.022737
4.2490964
4.4678722
4.6778857
4.8779089
5.0669646
5.244601
5.410716
5.5657102
5.7102993
5.8450166
5.9701395
6.0861749
6.1937165
6.2934439
6.3857379
6.4711119
6.5503228
6.6240312
6.6928095
6.756974
6.8167427
6.8723738
6.9241435
6.9723226
7.0171598
7.0588942
7.097713
7.1338039
7.1673954
7.1987026
7.2279019
7.2551439
7.2805685
7.3043045
7.326473
7.3471848
7.3665448
7.3846503
7.4015919
7.4174562
7.4323205
7.4462672
7.4593287
0.19019453
0.19452695
0.2014353
0.21120266
0.22419626
0.24083146
0.26155131
0.28680224
0.31700898
0.35255522
0.39377489
0.4409522
0.49433108
0.55412388
0.62052302
0.69370106
0.77381204
0.86097369
0.9552567
1.0566519
1.1650502
1.280195
1.401696
1.5289234
1.6610483
1.7971198
1.9357627
2.0756884
2.2156027
2.3538332
2.4889463
2.6196431
2.7448355
2.8638882
2.9761929
3.0813055
3.1790969
3.2696589
3.3533663
3.4307664
3.5023104
3.5682936
3.6290997
3.6851404
3.7368538
3.7845167
3.8284573
3.8691043
3.9068309
3.9419531
3.9746563
4.0050716
4.0333458
4.0596336
4.0840835
4.1068301
4.1279994
4.147693
4.1660096
4.1830632
4.1989687
4.2138218
4.2277006
4.2406754
4.2528096
4.264164
4.2747931
4.2847498
4.2940827
4.3028369
4.3110585
4.3187724
4.326077
4.3327558
0.1803123
0.18081551
0.1829653
0.18700296
0.19318651
0.20179613
0.21313573
0.22752625
0.24529158
0.2667403
0.29214901
0.32174968
0.3557249
0.39420741
0.43728583
0.48500773
0.53738582
0.59439274
0.65596084
0.72196591
0.79221907
0.86643906
0.94426457
1.0251858
1.1085755
1.1937465
1.2797432
1.3656993
1.4507738
1.5338951
1.6141848
1.6908847
1.7633929
1.8313926
1.894632
1.9529771
2.0064805
2.0553257
2.0998436
2.1404506
2.1775087
2.21129
2.2420917
2.2702107
2.2959397
2.3194835
2.3410553
2.3609053
2.3792505
2.396269
2.4120732
2.4267434
2.4403613
2.4530098
2.4647659
2.4756987
2.4858716
2.4953372
2.5041468
2.5123571
2.5200228
2.5271887
2.5338916
2.5401648
2.5460389
2.5515436
2.5567049
2.5615482
2.5660969
2.5703716
2.574397
2.5781728
2.5817945
2.5849631
0.17695879
0.1755917
0.17525739
0.17614428
0.17846038
0.18241459
0.18822183
0.19610658
0.20630105
0.21903731
0.23453556
0.25299077
0.27456202
0.29936424
0.32746576
0.3588869
0.39360344
0.43154522
0.47259888
0.51660198
0.56334103
0.61253826
0.66386257
0.71688882
0.77112002
0.82603498
0.8809412
0.93523407
0.98834934
1.0395853
1.0884019
1.1343634
1.177155
1.2166481
1.2527822
1.2855809
1.315179
1.3417846
1.3656783
1.387175
1.4065506
1.424022
1.439804
1.4540989
1.4670942
1.4789266
1.4897271
1.4996387
1.5087828
1.517259
1.5251456
1.5324862
1.5393196
1.5456843
1.5516157
1.557146
1.5623041
1.5671148
1.5716028
1.5757936
1.5797125
1.5833804
1.5868157
1.5900348
1.5930528
1.5958839
1.5985412
1.6010369
1.6033826
1.6055881
1.6076675
1.6096137
1.6115023
1.6130728
0.17600346
0.17384484
0.17216022
0.17144338
0.17160518
0.1728421
0.17532872
0.17923275
0.18472106
0.19196039
0.20111385
0.21233357
0.22575215
0.24147349
0.25956618
0.28005801
0.30293452
0.32813644
0.35556122
0.38506014
0.41643939
0.44945372
0.48381789
0.51918178
0.55514935
0.59131617
0.62716994
0.6622759
0.6962436
0.72860697
0.75903396
0.78727942
0.81319316
0.83675256
0.85799303
0.87700716
0.89395169
0.90902142
0.92244164
0.93444502
0.94523091
0.95495498
0.9637592
0.97177215
0.97909857
0.98584516
0.99208965
0.99790153
1.0033367
1.0084343
1.0132043
1.0176628
1.021829
1.0257231
1.0293638
1.0327682
1.0359513
1.0389268
1.0417082
1.0443098
1.0467455
1.049027
1.0511648
1.053168
1.0550454
1.0568051
1.0584549
1.060002
1.0614536
1.0628154
1.064097
1.0652907
1.0664563
1.0673807
0.17591723
0.17341658
0.17131341
0.16967439
0.1686394
0.16832339
0.16883989
0.17031295
0.17286601
0.17661991
0.18169188
0.18819305
0.19622454
0.20587145
0.21719713
0.23023692
0.24499417
0.26143591
0.27949149
0.29905001
0.31996042
0.34202847
0.36502583
0.38867666
0.41266912
0.43669682
0.46037164
0.48336749
0.50542468
0.5262358
0.54558721
0.56333779
0.57942835
0.59389179
0.60680634
0.61828654
0.62848171
0.63755678
0.64568462
0.65303113
0.6597327
0.66588917
0.67159172
0.67692976
0.68196457
0.68670281
0.69116374
0.69537838
0.69937325
0.70316647
0.70676638
0.71017682
0.71340246
0.71644935
0.71932388
0.72203243
0.72458138
0.7269773
0.72922723
0.73133903
0.73332052
0.73517894
0.73692094
0.73855286
0.74008091
0.74151112
0.7428493
0.74410109
0.74527202
0.74636675
0.74739271
0.74834427
0.74926807
0.74999793
0.17610191
0.17347771
0.17117428
0.16918073
0.16757142
0.16636753
0.16578486
0.1658178
0.16657072
0.16813643
0.17060106
0.17404466
0.17854025
0.18415136
0.19092883
0.1989065
0.20809736
0.21848908
0.23004122
0.24268176
0.25630597
0.27077389
0.28591623
0.30152623
0.31736913
0.33322009
0.34875682
0.36385899
0.37820892
0.39161849
0.40397551
0.41522131
0.42534781
0.43440928
0.4424948
0.44971639
0.45620297
0.46208594
0.4674916
0.47253379
0.47729538
0.48185716
0.4862563
0.49049959
0.49460122
0.49856644
0.50239786
0.50610027
0.50967621
0.5131244
0.51643958
0.51961557
0.52264821
0.52553571
0.52827783
0.53087555
0.53333084
0.53564675
0.53782729
0.53987739
0.54180259
0.54360837
0.54530027
0.54688383
0.54836461
0.54974808
0.55103966
0.55224459
0.55336804
0.55441462
0.55539079
0.55629385
0.55715881
0.55786244
0.17631053
0.17367697
0.17130557
0.16918595
0.16733324
0.16577327
0.16455977
0.16376555
0.1634523
0.16368249
0.16451716
0.16601401
0.16822544
0.17119705
0.17496624
0.17955995
0.18499228
0.19126125
0.19834588
0.20620313
0.21476548
0.22393916
0.23360618
0.24361901
0.25381223
0.26401066
0.27402288
0.28364812
0.29279222
0.30132029
0.30914
0.31622586
0.32260098
0.32833261
0.33351086
0.33823737
0.34261855
0.34675515
0.35073457
0.35463494
0.35851716
0.36238398
0.36624027
0.37008443
0.37390791
0.37769507
0.38142896
0.38509559
0.38868169
0.39217347
0.39555667
0.39881843
0.40194892
0.40494151
0.40779212
0.4104988
0.4130614
0.41548137
0.41776152
0.41990578
0.42191885
0.42380583
0.42557209
0.42722318
0.42876475
0.43020244
0.43154187
0.43278857
0.43394798
0.4350251
0.43602627
0.43695103
0.43782672
0.43856319
0.17645664
0.17386436
0.17150095
0.16935566
0.16742235
0.16570968
0.16422657
0.16301178
0.16211007
0.16156407
0.1614234
0.16172182
0.1624978
0.16378514
0.1656112
0.167996
0.17095116
0.174478
0.1785657
0.1831887
0.18830465
0.1938524
0.19975328
0.20590605
0.21219755
0.21850358
0.22469706
0.23063572
0.23626755
0.24149484
0.24627985
0.25062565
0.25457286
0.25819377
0.26157522
0.26480688
0.26797551
0.27115336
0.27440885
0.27778312
0.2812839
0.28490589
0.28863284
0.2924411
0.29630225
0.30018443
0.30405681
0.3078925
0.31166735
0.31535912
0.31894766
0.3224159
0.32575079
0.32894313
0.33198702
0.33487925
0.33761883
0.34020669
0.34264522
0.34493806
0.34708966
0.34910513
0.35098997
0.35274995
0.35439104
0.3559193
0.35734077
0.35866146
0.35988728
0.36102385
0.36207755
0.36305006
0.3639624
0.36475245
0.17653256
0.17399003
0.1716675
0.16954472
0.16760746
0.1658513
0.16427291
0.16288129
0.16169385
0.16075515
0.159985
0.15963062
0.15956754
0.15983178
0.16045063
0.1614421
0.16281661
0.164577
0.16671761
0.16922292
0.17206592
0.17520659
0.17859289
0.18215634
0.18582228
0.1895031
0.19311967
0.19660237
0.19985738
0.20288024
0.20566243
0.20822628
0.21062278
0.21292636
0.2152198
0.21758318
0.22008477
0.22278613
0.22572199
0.2289012
0.23231729
0.23594689
0.23975576
0.24370376
0.247748
0.25184492
0.25595357
0.26003788
0.26406631