/*--------------------------------*- C++ -*----------------------------------*\
| =========                 |                                                 |
| \\      /  F ield         | OpenFOAM: The Open Source CFD Toolbox           |
|  \\    /   O peration     | Version:  v2006                                 |
|   \\  /    A nd           | Website:  www.openfoam.com                      |
|    \\/     M anipulation  |                                                 |
\*---------------------------------------------------------------------------*/
FoamFile
{
    version     2.0;
    format      ascii;
    class       volScalarField;
    location    "3000";
    object      p;
}
// * * * * * * * * * * * * * * * * * * * * * * * * * * * * * * * * * * * * * //

dimensions      [1 -1 -2 0 0 0 0];


internalField   nonuniform List<scalar> 
55713
(
1.0000308
1.0000308
1.0000308
1.0000308
1.0000308
1.0000308
1.0000308
1.0000308
1.0000308
1.0000308
1.0000308
1.0000308
1.0000308
1.0000308
1.0000308
1.0000308
1.0000308
1.0000308
1.0000308
1.0000308
1.0000308
1.0000308
1.0000308
1.0000308
1.0000308
1.0000308
1.0000308
1.0000308
1.0000308
1.0000308
1.0000308
1.0000308
1.0000308
1.0000308
1.0000308
1.0000308
1.0000308
1.0000308
1.0000307
1.0000307
1.0000307
1.0000307
1.0000307
1.0000307
1.0000307
1.0000307
1.0000307
1.0000307
1.0000307
1.0000307
1.0000307
1.0000307
1.0000307
1.0000307
1.0000307
1.0000307
1.0000307
1.0000307
1.0000307
1.0000286
1.0000286
1.0000286
1.0000286
1.0000286
1.0000287
1.0000287
1.0000287
1.0000287
1.0000287
1.0000287
1.0000287
1.0000287
1.0000287
1.0000287
1.0000287
1.0000287
1.0000287
1.0000287
1.0000287
1.0000287
1.0000287
1.0000287
1.0000287
1.0000287
1.0000287
1.0000287
1.0000287
1.0000287
1.0000287
1.0000287
1.0000287
1.0000287
1.0000287
1.0000287
1.0000287
1.0000287
1.0000287
1.0000287
1.0000287
1.0000287
1.0000287
1.0000287
1.0000287
1.0000287
1.0000287
1.0000287
1.0000287
1.0000287
1.0000287
1.0000287
1.0000287
1.0000287
1.0000287
1.0000287
1.0000287
1.0000287
1.0000287
1.0000287
1.0000268
1.0000268
1.0000268
1.0000268
1.0000268
1.0000268
1.0000268
1.0000268
1.0000268
1.0000268
1.0000268
1.0000268
1.0000268
1.0000268
1.0000268
1.0000268
1.0000268
1.0000268
1.0000268
1.0000268
1.0000268
1.0000269
1.0000269
1.0000269
1.0000269
1.0000269
1.0000269
1.0000269
1.0000269
1.0000269
1.0000269
1.0000269
1.0000269
1.0000269
1.0000269
1.0000269
1.0000269
1.0000269
1.0000269
1.0000269
1.0000269
1.0000269
1.0000269
1.0000269
1.0000269
1.0000269
1.0000269
1.0000269
1.0000269
1.0000269
1.0000269
1.0000269
1.0000269
1.0000269
1.0000269
1.0000269
1.0000269
1.0000269
1.0000269
1.0000252
1.0000252
1.0000252
1.0000252
1.0000252
1.0000252
1.0000252
1.0000252
1.0000252
1.0000253
1.0000253
1.0000253
1.0000253
1.0000253
1.0000253
1.0000253
1.0000253
1.0000253
1.0000253
1.0000253
1.0000253
1.0000253
1.0000253
1.0000253
1.0000253
1.0000253
1.0000253
1.0000253
1.0000253
1.0000253
1.0000253
1.0000253
1.0000253
1.0000253
1.0000253
1.0000253
1.0000253
1.0000253
1.0000253
1.0000253
1.0000253
1.0000253
1.0000253
1.0000253
1.0000253
1.0000253
1.0000253
1.0000253
1.0000253
1.0000253
1.0000253
1.0000253
1.0000253
1.0000253
1.0000253
1.0000253
1.0000253
1.0000253
1.0000253
1.0000239
1.0000239
1.0000239
1.0000239
1.0000239
1.0000239
1.0000239
1.0000239
1.0000239
1.0000239
1.0000239
1.0000239
1.0000239
1.0000239
1.0000239
1.0000239
1.0000239
1.0000239
1.0000239
1.0000239
1.0000239
1.0000239
1.0000239
1.0000239
1.0000239
1.0000239
1.0000239
1.0000239
1.0000239
1.0000239
1.0000239
1.0000239
1.0000239
1.0000239
1.0000239
1.0000239
1.0000239
1.0000239
1.0000239
1.0000239
1.0000239
1.0000239
1.0000239
1.0000239
1.0000239
1.0000239
1.0000239
1.0000239
1.0000239
1.0000239
1.0000239
1.0000239
1.0000239
1.0000239
1.0000239
1.0000239
1.0000239
1.0000239
1.000024
1.0000227
1.0000227
1.0000227
1.0000227
1.0000227
1.0000227
1.0000227
1.0000227
1.0000227
1.0000227
1.0000227
1.0000227
1.0000227
1.0000227
1.0000227
1.0000227
1.0000227
1.0000227
1.0000227
1.0000227
1.0000227
1.0000227
1.0000227
1.0000227
1.0000227
1.0000227
1.0000227
1.0000227
1.0000227
1.0000227
1.0000227
1.0000227
1.0000227
1.0000227
1.0000228
1.0000228
1.0000228
1.0000228
1.0000228
1.0000228
1.0000228
1.0000228
1.0000228
1.0000228
1.0000228
1.0000228
1.0000228
1.0000228
1.0000228
1.0000228
1.0000228
1.0000228
1.0000228
1.0000228
1.0000228
1.0000228
1.0000228
1.0000228
1.0000228
1.0000216
1.0000217
1.0000217
1.0000217
1.0000217
1.0000217
1.0000217
1.0000217
1.0000217
1.0000217
1.0000217
1.0000217
1.0000217
1.0000217
1.0000217
1.0000217
1.0000217
1.0000217
1.0000217
1.0000217
1.0000217
1.0000217
1.0000217
1.0000217
1.0000217
1.0000217
1.0000217
1.0000217
1.0000217
1.0000217
1.0000217
1.0000217
1.0000217
1.0000217
1.0000217
1.0000217
1.0000217
1.0000217
1.0000217
1.0000217
1.0000217
1.0000217
1.0000217
1.0000217
1.0000217
1.0000217
1.0000217
1.0000217
1.0000217
1.0000217
1.0000217
1.0000217
1.0000217
1.0000217
1.0000217
1.0000217
1.0000217
1.0000217
1.0000217
1.0000207
1.0000207
1.0000207
1.0000207
1.0000207
1.0000207
1.0000207
1.0000207
1.0000207
1.0000207
1.0000207
1.0000207
1.0000207
1.0000207
1.0000207
1.0000207
1.0000207
1.0000207
1.0000207
1.0000207
1.0000207
1.0000207
1.0000207
1.0000207
1.0000207
1.0000207
1.0000208
1.0000208
1.0000208
1.0000208
1.0000208
1.0000208
1.0000208
1.0000208
1.0000208
1.0000208
1.0000208
1.0000208
1.0000208
1.0000208
1.0000208
1.0000208
1.0000208
1.0000208
1.0000208
1.0000208
1.0000208
1.0000208
1.0000208
1.0000208
1.0000208
1.0000208
1.0000208
1.0000208
1.0000208
1.0000208
1.0000208
1.0000208
1.0000208
1.0000202
1.0000202
1.0000202
1.0000202
1.0000202
1.0000202
1.0000202
1.0000202
1.0000202
1.0000202
1.0000202
1.0000202
1.0000202
1.0000202
1.0000202
1.0000202
1.0000202
1.0000202
1.0000202
1.0000202
1.0000202
1.0000202
1.0000202
1.0000202
1.0000202
1.0000202
1.0000202
1.0000202
1.0000202
1.0000202
1.0000202
1.0000202
1.0000202
1.0000202
1.0000202
1.0000202
1.0000202
1.0000202
1.0000202
1.0000202
1.0000202
1.0000202
1.0000202
1.0000202
1.0000202
1.0000202
1.0000202
1.0000202
1.0000202
1.0000202
1.0000202
1.0000202
1.0000202
1.0000202
1.0000202
1.0000202
1.0000202
1.0000202
1.0000202
1.0000198
1.0000198
1.0000198
1.0000198
1.0000198
1.0000198
1.0000198
1.0000198
1.0000198
1.0000198
1.0000198
1.0000198
1.0000198
1.0000198
1.0000198
1.0000198
1.0000198
1.0000198
1.0000198
1.0000198
1.0000198
1.0000198
1.0000198
1.0000198
1.0000198
1.0000198
1.0000198
1.0000198
1.0000198
1.0000198
1.0000198
1.0000198
1.0000198
1.0000198
1.0000198
1.0000199
1.0000199
1.0000199
1.0000199
1.0000199
1.0000199
1.0000199
1.0000199
1.0000199
1.0000199
1.0000199
1.0000199
1.0000199
1.0000199
1.0000199
1.0000199
1.0000199
1.0000199
1.0000199
1.0000199
1.0000199
1.0000199
1.0000199
1.0000199
1.000018
1.000018
1.000018
1.000018
1.000018
1.000018
1.000018
1.000018
1.000018
1.000018
1.000018
1.000018
1.000018
1.000018
1.000018
1.000018
1.000018
1.000018
1.000018
1.000018
1.000018
1.000018
1.000018
1.000018
1.000018
1.000018
1.000018
1.000018
1.000018
1.000018
1.000018
1.000018
1.000018
1.000018
1.000018
1.000018
1.000018
1.000018
1.000018
1.000018
1.000018
1.000018
1.000018
1.000018
1.000018
1.000018
1.000018
1.000018
1.000018
1.000018
1.000018
1.000018
1.000018
1.000018
1.000018
1.000018
1.000018
1.000018
1.000018
1.0000179
1.0000178
1.0000178
1.0000178
1.0000178
1.0000178
1.0000178
1.0000178
1.0000178
1.0000178
1.0000178
1.0000178
1.0000178
1.0000178
1.0000178
1.0000178
1.0000178
1.0000177
1.0000177
1.0000177
1.0000177
1.0000177
1.0000177
1.0000177
1.0000177
1.0000177
1.0000177
1.0000177
1.0000177
1.0000177
1.0000177
1.0000177
1.0000177
1.0000177
1.0000177
1.0000177
1.0000177
1.0000177
1.0000177
1.0000177
1.0000177
1.0000177
1.0000177
1.0000177
1.0000177
1.0000177
1.0000177
1.0000177
1.0000177
1.0000176
1.0000176
1.0000176
1.0000176
1.0000176
1.0000176
1.0000176
1.0000176
1.0000176
1.0000176
1.0000269
1.0000269
1.0000269
1.0000269
1.0000269
1.0000269
1.0000269
1.0000269
1.0000269
1.0000269
1.0000269
1.0000269
1.0000269
1.0000269
1.0000269
1.0000269
1.0000269
1.0000269
1.0000269
1.0000269
1.0000269
1.0000269
1.0000269
1.0000269
1.0000269
1.0000269
1.0000269
1.0000269
1.0000269
1.0000269
1.0000269
1.0000269
1.0000269
1.0000269
1.0000269
1.0000269
1.0000269
1.0000269
1.0000269
1.0000269
1.0000269
1.0000269
1.0000269
1.0000269
1.0000269
1.0000269
1.0000269
1.0000269
1.0000269
1.0000269
1.0000269
1.0000269
1.0000269
1.0000269
1.0000269
1.0000269
1.0000269
1.0000269
1.0000269
1.0000171
1.0000171
1.0000171
1.0000171
1.0000171
1.0000171
1.0000171
1.0000171
1.0000171
1.0000172
1.0000172
1.0000172
1.0000172
1.0000172
1.0000172
1.0000172
1.0000172
1.0000172
1.0000172
1.0000172
1.0000172
1.0000172
1.0000172
1.0000172
1.0000172
1.0000172
1.0000172
1.0000172
1.0000172
1.0000172
1.0000172
1.0000172
1.0000172
1.0000172
1.0000172
1.0000172
1.0000172
1.0000172
1.0000172
1.0000172
1.0000172
1.0000172
1.0000172
1.0000172
1.0000172
1.0000172
1.0000172
1.0000172
1.0000172
1.0000172
1.0000172
1.0000172
1.0000172
1.0000172
1.0000172
1.0000172
1.0000172
1.0000172
1.0000172
1.0001204
1.0001205
1.0001205
1.0001206
1.0001206
1.0001206
1.0001207
1.0001207
1.0001207
1.0001208
1.0001208
1.0001208
1.0001209
1.0001209
1.000121
1.000121
1.000121
1.000121
1.0001211
1.0001211
1.0001211
1.0001212
1.0001212
1.0001212
1.0001212
1.0001213
1.0001213
1.0001213
1.0001213
1.0001214
1.0001214
1.0001214
1.0001214
1.0001214
1.0001215
1.0001215
1.0001215
1.0001215
1.0001215
1.0001215
1.0001216
1.0001216
1.0001216
1.0001216
1.0001216
1.0001216
1.0001216
1.0001216
1.0001216
1.0001216
1.0001216
1.0001216
1.0001217
1.0001217
1.0001217
1.0001217
1.0001217
1.0001217
1.0001217
1.0001103
1.0001103
1.0001103
1.0001104
1.0001104
1.0001104
1.0001105
1.0001105
1.0001105
1.0001105
1.0001106
1.0001106
1.0001106
1.0001107
1.0001107
1.0001107
1.0001107
1.0001108
1.0001108
1.0001108
1.0001108
1.0001109
1.0001109
1.0001109
1.0001109
1.0001109
1.000111
1.000111
1.000111
1.000111
1.000111
1.0001111
1.0001111
1.0001111
1.0001111
1.0001111
1.0001111
1.0001111
1.0001112
1.0001112
1.0001112
1.0001112
1.0001112
1.0001112
1.0001112
1.0001112
1.0001112
1.0001112
1.0001112
1.0001113
1.0001113
1.0001113
1.0001113
1.0001113
1.0001113
1.0001113
1.0001113
1.0001113
1.0001113
1.0001008
1.0001008
1.0001008
1.0001009
1.0001009
1.0001009
1.0001009
1.000101
1.000101
1.000101
1.000101
1.000101
1.0001011
1.0001011
1.0001011
1.0001011
1.0001012
1.0001012
1.0001012
1.0001012
1.0001012
1.0001013
1.0001013
1.0001013
1.0001013
1.0001013
1.0001013
1.0001014
1.0001014
1.0001014
1.0001014
1.0001014
1.0001014
1.0001014
1.0001015
1.0001015
1.0001015
1.0001015
1.0001015
1.0001015
1.0001015
1.0001015
1.0001015
1.0001015
1.0001015
1.0001016
1.0001016
1.0001016
1.0001016
1.0001016
1.0001016
1.0001016
1.0001016
1.0001016
1.0001016
1.0001016
1.0001016
1.0001016
1.0001016
1.0000919
1.0000919
1.0000919
1.000092
1.000092
1.000092
1.000092
1.000092
1.0000921
1.0000921
1.0000921
1.0000921
1.0000921
1.0000922
1.0000922
1.0000922
1.0000922
1.0000922
1.0000922
1.0000923
1.0000923
1.0000923
1.0000923
1.0000923
1.0000923
1.0000923
1.0000923
1.0000924
1.0000924
1.0000924
1.0000924
1.0000924
1.0000924
1.0000924
1.0000924
1.0000924
1.0000925
1.0000925
1.0000925
1.0000925
1.0000925
1.0000925
1.0000925
1.0000925
1.0000925
1.0000925
1.0000925
1.0000925
1.0000925
1.0000925
1.0000925
1.0000925
1.0000925
1.0000926
1.0000926
1.0000926
1.0000926
1.0000926
1.0000926
1.0000836
1.0000836
1.0000837
1.0000837
1.0000837
1.0000837
1.0000837
1.0000838
1.0000838
1.0000838
1.0000838
1.0000838
1.0000838
1.0000838
1.0000839
1.0000839
1.0000839
1.0000839
1.0000839
1.0000839
1.0000839
1.0000839
1.000084
1.000084
1.000084
1.000084
1.000084
1.000084
1.000084
1.000084
1.000084
1.000084
1.0000841
1.0000841
1.0000841
1.0000841
1.0000841
1.0000841
1.0000841
1.0000841
1.0000841
1.0000841
1.0000841
1.0000841
1.0000841
1.0000841
1.0000841
1.0000841
1.0000842
1.0000842
1.0000842
1.0000842
1.0000842
1.0000842
1.0000842
1.0000842
1.0000842
1.0000842
1.0000842
1.000076
1.000076
1.000076
1.000076
1.000076
1.000076
1.000076
1.0000761
1.0000761
1.0000761
1.0000761
1.0000761
1.0000761
1.0000761
1.0000761
1.0000762
1.0000762
1.0000762
1.0000762
1.0000762
1.0000762
1.0000762
1.0000762
1.0000762
1.0000762
1.0000763
1.0000763
1.0000763
1.0000763
1.0000763
1.0000763
1.0000763
1.0000763
1.0000763
1.0000763
1.0000763
1.0000763
1.0000763
1.0000763
1.0000763
1.0000764
1.0000764
1.0000764
1.0000764
1.0000764
1.0000764
1.0000764
1.0000764
1.0000764
1.0000764
1.0000764
1.0000764
1.0000764
1.0000764
1.0000764
1.0000764
1.0000764
1.0000764
1.0000764
1.0000689
1.0000689
1.0000689
1.0000689
1.0000689
1.0000689
1.0000689
1.0000689
1.000069
1.000069
1.000069
1.000069
1.000069
1.000069
1.000069
1.000069
1.000069
1.000069
1.0000691
1.0000691
1.0000691
1.0000691
1.0000691
1.0000691
1.0000691
1.0000691
1.0000691
1.0000691
1.0000691
1.0000691
1.0000691
1.0000691
1.0000691
1.0000691
1.0000692
1.0000692
1.0000692
1.0000692
1.0000692
1.0000692
1.0000692
1.0000692
1.0000692
1.0000692
1.0000692
1.0000692
1.0000692
1.0000692
1.0000692
1.0000692
1.0000692
1.0000692
1.0000692
1.0000692
1.0000692
1.0000692
1.0000692
1.0000692
1.0000692
1.0000623
1.0000623
1.0000623
1.0000624
1.0000624
1.0000624
1.0000624
1.0000624
1.0000624
1.0000624
1.0000624
1.0000624
1.0000624
1.0000624
1.0000624
1.0000625
1.0000625
1.0000625
1.0000625
1.0000625
1.0000625
1.0000625
1.0000625
1.0000625
1.0000625
1.0000625
1.0000625
1.0000625
1.0000625
1.0000625
1.0000625
1.0000625
1.0000625
1.0000626
1.0000626
1.0000626
1.0000626
1.0000626
1.0000626
1.0000626
1.0000626
1.0000626
1.0000626
1.0000626
1.0000626
1.0000626
1.0000626
1.0000626
1.0000626
1.0000626
1.0000626
1.0000626
1.0000626
1.0000626
1.0000626
1.0000626
1.0000626
1.0000626
1.0000626
1.0000563
1.0000563
1.0000563
1.0000563
1.0000563
1.0000564
1.0000564
1.0000564
1.0000564
1.0000564
1.0000564
1.0000564
1.0000564
1.0000564
1.0000564
1.0000564
1.0000564
1.0000564
1.0000564
1.0000564
1.0000564
1.0000565
1.0000565
1.0000565
1.0000565
1.0000565
1.0000565
1.0000565
1.0000565
1.0000565
1.0000565
1.0000565
1.0000565
1.0000565
1.0000565
1.0000565
1.0000565
1.0000565
1.0000565
1.0000565
1.0000565
1.0000565
1.0000565
1.0000565
1.0000565
1.0000565
1.0000565
1.0000565
1.0000565
1.0000565
1.0000565
1.0000565
1.0000565
1.0000565
1.0000565
1.0000565
1.0000565
1.0000565
1.0000565
1.0000508
1.0000508
1.0000508
1.0000508
1.0000508
1.0000508
1.0000509
1.0000509
1.0000509
1.0000509
1.0000509
1.0000509
1.0000509
1.0000509
1.0000509
1.0000509
1.0000509
1.0000509
1.0000509
1.0000509
1.0000509
1.0000509
1.0000509
1.0000509
1.0000509
1.0000509
1.0000509
1.0000509
1.0000509
1.0000509
1.0000509
1.000051
1.000051
1.000051
1.000051
1.000051
1.000051
1.000051
1.000051
1.000051
1.000051
1.000051
1.000051
1.000051
1.000051
1.000051
1.000051
1.000051
1.000051
1.000051
1.000051
1.000051
1.000051
1.000051
1.000051
1.000051
1.000051
1.000051
1.000051
1.0000458
1.0000458
1.0000458
1.0000458
1.0000458
1.0000458
1.0000458
1.0000458
1.0000458
1.0000458
1.0000458
1.0000459
1.0000459
1.0000459
1.0000459
1.0000459
1.0000459
1.0000459
1.0000459
1.0000459
1.0000459
1.0000459
1.0000459
1.0000459
1.0000459
1.0000459
1.0000459
1.0000459
1.0000459
1.0000459
1.0000459
1.0000459
1.0000459
1.0000459
1.0000459
1.0000459
1.0000459
1.0000459
1.0000459
1.0000459
1.0000459
1.0000459
1.0000459
1.0000459
1.0000459
1.0000459
1.0000459
1.0000459
1.0000459
1.0000459
1.0000459
1.0000459
1.0000459
1.0000459
1.0000459
1.0000459
1.0000459
1.0000459
1.0000459
1.0000412
1.0000412
1.0000412
1.0000412
1.0000412
1.0000412
1.0000413
1.0000413
1.0000413
1.0000413
1.0000413
1.0000413
1.0000413
1.0000413
1.0000413
1.0000413
1.0000413
1.0000413
1.0000413
1.0000413
1.0000413
1.0000413
1.0000413
1.0000413
1.0000413
1.0000413
1.0000413
1.0000413
1.0000413
1.0000413
1.0000413
1.0000413
1.0000413
1.0000413
1.0000413
1.0000413
1.0000413
1.0000413
1.0000413
1.0000413
1.0000413
1.0000413
1.0000413
1.0000413
1.0000413
1.0000413
1.0000413
1.0000413
1.0000413
1.0000413
1.0000413
1.0000413
1.0000413
1.0000413
1.0000413
1.0000413
1.0000413
1.0000413
1.0000413
1.0000371
1.0000371
1.0000371
1.0000371
1.0000371
1.0000371
1.0000371
1.0000371
1.0000371
1.0000371
1.0000371
1.0000371
1.0000371
1.0000371
1.0000371
1.0000371
1.0000371
1.0000371
1.0000371
1.0000371
1.0000371
1.0000371
1.0000371
1.0000371
1.0000371
1.0000371
1.0000372
1.0000372
1.0000372
1.0000372
1.0000372
1.0000372
1.0000372
1.0000372
1.0000372
1.0000372
1.0000372
1.0000372
1.0000372
1.0000372
1.0000372
1.0000372
1.0000372
1.0000372
1.0000372
1.0000372
1.0000372
1.0000372
1.0000372
1.0000372
1.0000372
1.0000372
1.0000372
1.0000372
1.0000372
1.0000372
1.0000372
1.0000372
1.0000372
1.0000335
1.0000335
1.0000335
1.0000335
1.0000335
1.0000335
1.0000335
1.0000335
1.0000335
1.0000335
1.0000335
1.0000335
1.0000335
1.0000335
1.0000335
1.0000335
1.0000335
1.0000335
1.0000335
1.0000335
1.0000335
1.0000335
1.0000335
1.0000335
1.0000335
1.0000335
1.0000335
1.0000335
1.0000335
1.0000335
1.0000335
1.0000335
1.0000335
1.0000335
1.0000335
1.0000335
1.0000335
1.0000335
1.0000335
1.0000335
1.0000335
1.0000335
1.0000335
1.0000335
1.0000335
1.0000335
1.0000335
1.0000335
1.0000335
1.0000335
1.0000335
1.0000335
1.0000335
1.0000335
1.0000335
1.0000335
1.0000335
1.0000335
1.0000335
1.000134
1.0001489
1.0001657
1.000184
1.000204
1.0002259
1.0002496
1.0002754
1.0003032
1.0003332
1.0003655
1.0004
1.0004367
1.0004756
1.0005165
1.0005593
1.0006036
1.0006491
1.0006953
1.0007415
1.000787
1.0008308
1.0008719
1.0009093
1.0009417
1.0009678
1.0009866
1.0009964
1.000997
1.0009879
1.0009676
1.0009363
1.0008944
1.0008423
1.0007802
1.0007095
1.0006314
1.0005471
1.0004579
1.0003648
1.0002688
1.0001714
1.0000737
0.99997664
0.99988078
0.99978678
0.99969571
0.99960767
0.99952262
0.99944078
0.99936224
0.99928752
0.99921669
0.99914963
0.99908624
0.99902646
0.99897017
0.99891725
0.99886787
0.99882176
0.99877844
0.99873784
0.99869993
0.99866455
0.99863153
0.99860075
0.99857207
0.99854538
0.99852054
0.99849742
0.99847592
0.9984559
0.99843731
0.99841999
1.000134
1.0001489
1.0001657
1.000184
1.000204
1.0002259
1.0002496
1.0002754
1.0003032
1.0003332
1.0003655
1.0004
1.0004367
1.0004756
1.0005165
1.0005593
1.0006036
1.0006491
1.0006953
1.0007415
1.000787
1.0008308
1.0008719
1.0009093
1.0009417
1.0009678
1.0009866
1.0009965
1.000997
1.0009879
1.0009676
1.0009363
1.0008944
1.0008422
1.0007802
1.0007095
1.0006314
1.0005471
1.0004579
1.0003647
1.0002688
1.0001714
1.0000737
0.99997663
0.99988077
0.99978675
0.99969566
0.99960763
0.99952259
0.99944079
0.99936225
0.99928751
0.99921667
0.99914961
0.99908622
0.99902643
0.99897014
0.99891722
0.99886787
0.99882178
0.99877844
0.99873782
0.99869988
0.9986645
0.99863148
0.9986007
0.99857203
0.99854533
0.99852049
0.99849738
0.99847588
0.99845583
0.99843723
0.99841993
1.000134
1.0001489
1.0001657
1.000184
1.000204
1.0002259
1.0002496
1.0002754
1.0003032
1.0003332
1.0003655
1.0004
1.0004367
1.0004756
1.0005165
1.0005593
1.0006036
1.0006491
1.0006953
1.0007415
1.000787
1.0008308
1.0008719
1.0009093
1.0009417
1.0009678
1.0009866
1.0009965
1.000997
1.0009879
1.0009676
1.0009363
1.0008944
1.0008423
1.0007802
1.0007096
1.0006315
1.0005471
1.0004579
1.0003648
1.0002688
1.0001714
1.0000738
0.99997665
0.99988079
0.9997868
0.99969568
0.9996076
0.99952253
0.99944071
0.99936222
0.99928751
0.99921669
0.99914963
0.99908624
0.99902646
0.99897014
0.99891718
0.9988678
0.99882177
0.99877848
0.99873788
0.99869996
0.99866457
0.99863155
0.99860077
0.9985721
0.99854542
0.99852058
0.99849751
0.99847605
0.998456
0.99843734
0.99841993
1.000134
1.0001489
1.0001657
1.000184
1.000204
1.0002259
1.0002496
1.0002753
1.0003032
1.0003332
1.0003655
1.0003999
1.0004367
1.0004756
1.0005165
1.0005593
1.0006036
1.0006491
1.0006953
1.0007415
1.000787
1.0008308
1.0008719
1.0009093
1.0009417
1.0009678
1.0009867
1.0009965
1.000997
1.000988
1.0009677
1.0009364
1.0008945
1.0008423
1.0007803
1.0007096
1.0006316
1.0005472
1.000458
1.0003648
1.0002689
1.0001715
1.0000738
0.99997674
0.99988089
0.99978691
0.99969576
0.99960764
0.99952255
0.99944075
0.99936229
0.9992876
0.99921677
0.99914969
0.9990863
0.99902651
0.99897022
0.99891734
0.99886795
0.99882181
0.99877844
0.99873782
0.99869988
0.99866448
0.99863146
0.99860068
0.99857202
0.99854533
0.99852049
0.99849739
0.9984759
0.99845589
0.99843731
0.99842006
1.000134
1.0001489
1.0001657
1.000184
1.000204
1.0002259
1.0002496
1.0002753
1.0003032
1.0003332
1.0003655
1.0003999
1.0004367
1.0004756
1.0005165
1.0005593
1.0006036
1.0006491
1.0006953
1.0007415
1.000787
1.0008308
1.0008719
1.0009093
1.0009417
1.0009678
1.0009867
1.0009965
1.0009971
1.000988
1.0009677
1.0009365
1.0008946
1.0008424
1.0007804
1.0007098
1.0006317
1.0005474
1.0004581
1.000365
1.0002691
1.0001716
1.000074
0.99997688
0.99988103
0.99978708
0.9996959
0.99960774
0.99952263
0.99944082
0.99936239
0.99928771
0.99921687
0.9991498
0.99908641
0.99902664
0.99897037
0.9989175
0.99886804
0.99882181
0.99877849
0.99873791
0.9987
0.99866462
0.99863161
0.99860084
0.99857218
0.9985455
0.99852068
0.99849758
0.99847611
0.99845612
0.99843754
0.99842027
1.000134
1.0001489
1.0001657
1.000184
1.000204
1.0002258
1.0002496
1.0002753
1.0003032
1.0003332
1.0003654
1.0003999
1.0004367
1.0004755
1.0005165
1.0005593
1.0006036
1.0006491
1.0006953
1.0007415
1.0007869
1.0008308
1.0008719
1.0009094
1.0009417
1.0009679
1.0009868
1.0009966
1.0009972
1.0009881
1.0009679
1.0009366
1.0008948
1.0008426
1.0007806
1.00071
1.0006319
1.0005476
1.0004583
1.0003652
1.0002693
1.0001719
1.0000742
0.99997712
0.99988127
0.99978734
0.99969613
0.99960792
0.9995228
0.99944097
0.99936258
0.99928792
0.99921708
0.99915001
0.99908661
0.99902684
0.99897058
0.99891773
0.99886826
0.998822
0.99877866
0.99873806
0.99870012
0.99866472
0.9986317
0.99860093
0.99857227
0.99854558
0.99852075
0.99849765
0.99847617
0.9984562
0.99843764
0.99842038
1.0001339
1.0001489
1.0001657
1.000184
1.000204
1.0002258
1.0002496
1.0002753
1.0003032
1.0003332
1.0003654
1.0003999
1.0004366
1.0004755
1.0005165
1.0005592
1.0006036
1.0006491
1.0006953
1.0007415
1.0007869
1.0008308
1.0008719
1.0009094
1.0009418
1.0009679
1.0009868
1.0009967
1.0009973
1.0009883
1.000968
1.0009368
1.000895
1.0008428
1.0007809
1.0007103
1.0006323
1.0005479
1.0004586
1.0003655
1.0002696
1.0001722
1.0000746
0.99997747
0.99988163
0.99978771
0.99969647
0.99960822
0.99952307
0.99944124
0.99936287
0.99928822
0.99921738
0.9991503
0.9990869
0.99902713
0.99897088
0.99891805
0.99886855
0.99882224
0.99877886
0.99873827
0.99870035
0.99866497
0.99863197
0.99860121
0.99857256
0.99854589
0.99852107
0.99849798
0.99847651
0.99845654
0.99843798
0.99842072
1.0001339
1.0001489
1.0001657
1.000184
1.000204
1.0002258
1.0002496
1.0002753
1.0003032
1.0003332
1.0003654
1.0003999
1.0004366
1.0004755
1.0005164
1.0005592
1.0006036
1.0006491
1.0006953
1.0007415
1.0007869
1.0008308
1.0008719
1.0009094
1.0009418
1.000968
1.0009869
1.0009968
1.0009975
1.0009885
1.0009683
1.0009371
1.0008953
1.0008432
1.0007813
1.0007107
1.0006327
1.0005484
1.0004591
1.000366
1.0002701
1.0001728
1.0000751
0.99997799
0.99988215
0.99978823
0.99969696
0.99960867
0.9995235
0.99944166
0.99936331
0.99928867
0.99921782
0.99915074
0.99908734
0.99902757
0.99897132
0.99891849
0.99886898
0.99882263
0.99877924
0.99873865
0.99870072
0.99866533
0.99863231
0.99860154
0.99857288
0.9985462
0.99852137
0.99849828
0.9984768
0.99845683
0.99843827
0.998421
1.0001339
1.0001489
1.0001657
1.000184
1.000204
1.0002258
1.0002496
1.0002753
1.0003031
1.0003332
1.0003654
1.0003999
1.0004366
1.0004755
1.0005164
1.0005592
1.0006035
1.000649
1.0006952
1.0007414
1.0007869
1.0008307
1.0008719
1.0009094
1.0009419
1.000968
1.000987
1.000997
1.0009977
1.0009888
1.0009686
1.0009375
1.0008958
1.0008437
1.0007819
1.0007113
1.0006334
1.0005491
1.0004598
1.0003667
1.0002708
1.0001735
1.0000758
0.99997872
0.99988288
0.99978897
0.99969767
0.99960933
0.99952413
0.99944228
0.99936394
0.99928931
0.99921846
0.99915136
0.99908796
0.99902819
0.99897194
0.9989191
0.99886957
0.99882319
0.99877977
0.99873917
0.99870124
0.99866584
0.99863283
0.99860207
0.99857342
0.99854675
0.99852193
0.99849884
0.99847737
0.99845741
0.99843885
0.99842158
1.0001339
1.0001489
1.0001657
1.000184
1.000204
1.0002258
1.0002495
1.0002753
1.0003031
1.0003331
1.0003654
1.0003999
1.0004366
1.0004755
1.0005164
1.0005592
1.0006035
1.000649
1.0006952
1.0007414
1.0007869
1.0008307
1.0008719
1.0009095
1.0009419
1.0009682
1.0009872
1.0009972
1.0009979
1.0009891
1.0009691
1.000938
1.0008964
1.0008444
1.0007826
1.0007122
1.0006342
1.00055
1.0004608
1.0003676
1.0002718
1.0001745
1.0000769
0.99997974
0.9998839
0.99978999
0.99969866
0.99961027
0.99952504
0.99944317
0.99936484
0.99929021
0.99921935
0.99915225
0.99908884
0.99902905
0.9989728
0.99891996
0.9988704
0.99882399
0.99878056
0.99873994
0.99870201
0.9986666
0.99863358
0.99860281
0.99857415
0.99854747
0.99852263
0.99849953
0.99847805
0.99845808
0.99843951
0.99842224
1.0001339
1.0001489
1.0001656
1.000184
1.000204
1.0002258
1.0002495
1.0002753
1.0003031
1.0003331
1.0003653
1.0003998
1.0004365
1.0004754
1.0005163
1.0005591
1.0006035
1.000649
1.0006951
1.0007414
1.0007869
1.0008307
1.000872
1.0009095
1.000942
1.0009683
1.0009874
1.0009975
1.0009983
1.0009896
1.0009696
1.0009387
1.0008972
1.0008453
1.0007836
1.0007133
1.0006354
1.0005513
1.000462
1.000369
1.0002732
1.0001759
1.0000783
0.99998114
0.99988529
0.99979138
0.99970002
0.99961159
0.99952632
0.99944443
0.9993661
0.99929146
0.99922059
0.99915347
0.99909005
0.99903025
0.99897398
0.99892112
0.99887154
0.9988251
0.99878164
0.99874101
0.99870306
0.99866764
0.99863462
0.99860384
0.99857518
0.99854849
0.99852366
0.99850056
0.99847908
0.9984591
0.99844053
0.99842325
1.0001339
1.0001489
1.0001656
1.000184
1.000204
1.0002258
1.0002495
1.0002752
1.0003031
1.0003331
1.0003653
1.0003998
1.0004365
1.0004754
1.0005163
1.0005591
1.0006034
1.0006489
1.0006951
1.0007413
1.0007868
1.0008307
1.000872
1.0009095
1.0009421
1.0009685
1.0009877
1.0009978
1.0009988
1.0009903
1.0009704
1.0009396
1.0008982
1.0008465
1.000785
1.0007148
1.000637
1.0005529
1.0004638
1.0003707
1.000275
1.0001778
1.0000802
0.99998303
0.99988718
0.99979327
0.99970187
0.99961339
0.99952808
0.99944616
0.99936782
0.99929317
0.99922228
0.99915514
0.99909169
0.99903187
0.99897558
0.9989227
0.99887309
0.99882663
0.99878314
0.99874249
0.99870453
0.99866909
0.99863605
0.99860526
0.99857659
0.99854989
0.99852504
0.99850193
0.99848043
0.99846044
0.99844185
0.99842457
1.0001339
1.0001489
1.0001656
1.000184
1.0002039
1.0002258
1.0002495
1.0002752
1.000303
1.000333
1.0003653
1.0003997
1.0004364
1.0004753
1.0005162
1.000559
1.0006033
1.0006488
1.000695
1.0007413
1.0007868
1.0008307
1.000872
1.0009096
1.0009423
1.0009687
1.0009881
1.0009983
1.0009994
1.0009911
1.0009714
1.0009408
1.0008996
1.0008481
1.0007868
1.0007167
1.0006391
1.0005552
1.0004661
1.0003731
1.0002775
1.0001803
1.0000827
0.99998557
0.99988972
0.99979579
0.99970436
0.99961582
0.99953047
0.99944853
0.99937016
0.99929549
0.99922457
0.99915739
0.99909392
0.99903407
0.99897774
0.99892483
0.99887519
0.99882869
0.99878517
0.99874449
0.9987065
0.99867105
0.99863798
0.99860718
0.99857848
0.99855177
0.99852691
0.99850378
0.99848227
0.99846226
0.99844367
0.99842637
1.0001339
1.0001489
1.0001656
1.0001839
1.0002039
1.0002257
1.0002495
1.0002752
1.000303
1.000333
1.0003652
1.0003997
1.0004364
1.0004752
1.0005162
1.0005589
1.0006032
1.0006487
1.0006949
1.0007412
1.0007867
1.0008307
1.000872
1.0009097
1.0009424
1.000969
1.0009885
1.0009989
1.0010002
1.0009921
1.0009727
1.0009424
1.0009014
1.0008501
1.0007891
1.0007193
1.0006419
1.0005581
1.0004692
1.0003763
1.0002807
1.0001836
1.000086
0.99998895
0.99989309
0.99979914
0.99970767
0.99961908
0.99953368
0.99945169
0.99937328
0.99929857
0.99922762
0.9991604
0.99909688
0.99903699
0.99898063
0.99892767
0.998878
0.99883145
0.9987879
0.99874719
0.99870916
0.99867368
0.99864059
0.99860975
0.99858104
0.9985543
0.99852942
0.99850627
0.99848474
0.99846472
0.99844611
0.9984288
1.0001339
1.0001488
1.0001656
1.0001839
1.0002039
1.0002257
1.0002494
1.0002751
1.000303
1.000333
1.0003652
1.0003996
1.0004363
1.0004752
1.0005161
1.0005588
1.0006031
1.0006486
1.0006948
1.0007411
1.0007866
1.0008306
1.000872
1.0009098
1.0009426
1.0009693
1.000989
1.0009996
1.0010012
1.0009935
1.0009743
1.0009444
1.0009038
1.0008528
1.0007921
1.0007226
1.0006455
1.0005619
1.0004732
1.0003805
1.000285
1.000188
1.0000905
0.99999338
0.99989753
0.99980356
0.99971205
0.9996234
0.99953794
0.99945589
0.99937743
0.99930267
0.99923166
0.99916439
0.99910082
0.99904087
0.99898445
0.99893144
0.99888171
0.99883512
0.99879151
0.99875075
0.99871268
0.99867716
0.99864403
0.99861316
0.9985844
0.99855764
0.99853273
0.99850955
0.998488
0.99846795
0.99844932
0.99843198
1.0001339
1.0001488
1.0001656
1.0001839
1.0002039
1.0002257
1.0002494
1.0002751
1.0003029
1.0003329
1.0003651
1.0003995
1.0004362
1.0004751
1.000516
1.0005587
1.000603
1.0006485
1.0006947
1.000741
1.0007865
1.0008306
1.000872
1.0009099
1.0009429
1.0009698
1.0009897
1.0010006
1.0010025
1.0009952
1.0009764
1.0009469
1.0009068
1.0008563
1.000796
1.0007269
1.0006501
1.0005669
1.0004784
1.0003859
1.0002906
1.0001937
1.0000962
0.99999917
0.99990332
0.99980933
0.99971777
0.99962906
0.99954353
0.99946141
0.99938288
0.99930805
0.99923696
0.99916962
0.99910597
0.99904595
0.99898946
0.99893638
0.99888658
0.99883993
0.99879626
0.99875545
0.99871733
0.99868175
0.99864858
0.99861767
0.99858888
0.99856207
0.99853713
0.99851392
0.99849234
0.99847226
0.9984536
0.99843624
1.0001339
1.0001488
1.0001656
1.0001839
1.0002038
1.0002256
1.0002493
1.0002751
1.0003029
1.0003328
1.000365
1.0003995
1.0004361
1.000475
1.0005158
1.0005586
1.0006029
1.0006484
1.0006945
1.0007408
1.0007864
1.0008305
1.0008721
1.0009101
1.0009432
1.0009704
1.0009906
1.0010018
1.0010042
1.0009973
1.0009791
1.0009501
1.0009106
1.0008606
1.0008009
1.0007324
1.0006561
1.0005732
1.0004851
1.0003928
1.0002977
1.000201
1.0001037
1.0000067
0.99991082
0.99981682
0.9997252
0.99963642
0.9995508
0.9994686
0.99938998
0.99931505
0.99924387
0.99917643
0.99911269
0.99905258