/*--------------------------------*- C++ -*----------------------------------*\
| =========                 |                                                 |
| \\      /  F ield         | OpenFOAM: The Open Source CFD Toolbox           |
|  \\    /   O peration     | Version:  v2006                                 |
|   \\  /    A nd           | Website:  www.openfoam.com                      |
|    \\/     M anipulation  |                                                 |
\*---------------------------------------------------------------------------*/
FoamFile
{
    version     2.0;
    format      ascii;
    class       surfaceScalarField;
    location    "3000";
    object      phi;
}
// * * * * * * * * * * * * * * * * * * * * * * * * * * * * * * * * * * * * * //

dimensions      [1 0 -1 0 0 0 0];
oriented        oriented;


internalField   nonuniform List<scalar> 
110670
(
1.7252052e-05
-0.00037604181
0.00035878992
3.0317969e-05
-0.00035385598
0.00034079022
4.0142878e-05
-0.00033461847
0.0003247937
4.742019e-05
-0.00031765431
0.00031037712
5.2675551e-05
-0.00030257855
0.0002973233
5.631164e-05
-0.0002891087
0.00028547269
5.8640293e-05
-0.00027702566
0.00027469708
5.990592e-05
-0.00026615269
0.00026488712
6.0301709e-05
-0.00025634483
0.0002559491
5.9981863e-05
-0.0002474809
0.00024780079
5.9070286e-05
-0.00023946065
0.00024037228
5.7667306e-05
-0.00023219592
0.00023359893
5.5854694e-05
-0.00022561414
0.00022742679
5.3699502e-05
-0.00021965165
0.00022180687
5.1257178e-05
-0.00021425347
0.00021669583
4.857363e-05
-0.00020937281
0.00021205639
4.5687187e-05
-0.00020496867
0.00020785514
4.2629981e-05
-0.00020100599
0.00020406322
3.9429157e-05
-0.00019745458
0.00020065543
3.610777e-05
-0.00019428863
0.00019761004
3.2685404e-05
-0.00019148577
0.00019490815
2.9178793e-05
-0.00018902627
0.0001925329
2.5602312e-05
-0.00018689305
0.00019046954
2.1968503e-05
-0.00018507145
0.00018870527
1.8288433e-05
-0.00018354935
0.00018722943
1.4572005e-05
-0.00018231685
0.00018603329
1.0828213e-05
-0.00018136614
0.00018510994
7.0653381e-06
-0.00018069122
0.0001844541
3.2912003e-06
-0.00018028793
0.00018406208
-4.8669781e-07
-0.00018015373
0.00018393163
-4.2608901e-06
-0.00018028778
0.00018406199
-8.0238607e-06
-0.00018069087
0.00018445385
-1.1767785e-05
-0.00018136548
0.00018510941
-1.5484397e-05
-0.00018231575
0.00018603237
-1.9164738e-05
-0.00018354778
0.00018722814
-2.2798971e-05
-0.00018506962
0.00018870386
-2.6376035e-05
-0.00018689145
0.00019046852
-2.9883313e-05
-0.00018902548
0.00019253276
-3.3306254e-05
-0.00019148599
0.00019490894
-3.6628016e-05
-0.00019428937
0.00019761114
-3.9829045e-05
-0.00019745488
0.00020065591
-4.2886477e-05
-0.00020100512
0.00020406256
-4.5773383e-05
-0.00020496671
0.00020785362
-4.8457752e-05
-0.00020937063
0.000212055
-5.0901271e-05
-0.00021425217
0.00021669569
-5.3057908e-05
-0.00021965189
0.00022180854
-5.4872171e-05
-0.00022561586
0.00022743012
-5.6276874e-05
-0.0002321985
0.00023360321
-5.7190238e-05
-0.00023946321
0.00024037657
-5.7511875e-05
-0.00024748247
0.00024780411
-5.7118089e-05
-0.00025634466
0.00025595087
-5.5854872e-05
-0.00026615077
0.00026488755
-5.3529201e-05
-0.0002770229
0.00027469722
-4.9896781e-05
-0.00028910659
0.00028547417
-4.4645655e-05
-0.00030257907
0.00029732794
-3.7372456e-05
-0.00031765823
0.00031038503
-2.7548784e-05
-0.00033461729
0.00032479361
-1.447232e-05
-0.00035379992
0.00034072346
-0.00037565205
0.00035837397
2.8057512e-06
1.7289692e-05
-0.00039333165
3.0386265e-05
-0.0003669527
4.0229803e-05
-0.00034446214
4.7518947e-05
-0.00032494355
5.2780694e-05
-0.0003078404
5.6418806e-05
-0.00029274687
5.8746098e-05
-0.00027935304
6.0007755e-05
-0.00026741439
6.0397511e-05
-0.00025673466
6.007013e-05
-0.00024715356
5.9149665e-05
-0.00023854024
5.7736613e-05
-0.00023078291
5.5912786e-05
-0.00022379034
5.374545e-05
-0.00021748436
5.1290245e-05
-0.00021179828
4.8593197e-05
-0.0002066758
4.5692805e-05
-0.00020206829
4.2621245e-05
-0.00019793446
3.9405812e-05
-0.00019423915
3.6069585e-05
-0.00019095242
3.2632218e-05
-0.00018804841
2.9110463e-05
-0.00018550452
2.5518721e-05
-0.00018330132
2.1869571e-05
-0.00018142231
1.817409e-05
-0.00017985389
1.4442222e-05
-0.00017858499
1.0682964e-05
-0.00017760689
6.9046222e-06
-0.00017691289
3.115023e-06
-0.00017649834
-6.7831357e-07
-0.0001763604
-4.4679428e-06
-0.00017649816
-8.2463365e-06
-0.00017691249
-1.2005664e-05
-0.00017760615
-1.5737614e-05
-0.00017858381
-1.9433219e-05
-0.00017985219
-2.30826e-05
-0.00018142024
-2.6674691e-05
-0.00018329936
-3.0196852e-05
-0.00018550332
-3.3634506e-05
-0.00018804834
-3.6970768e-05
-0.00019095312
-4.0186014e-05
-0.00019423964
-4.3257323e-05
-0.00019793382
-4.6157663e-05
-0.00020206637
-4.8854999e-05
-0.0002066733
-5.1310942e-05
-0.00021179623
-5.3479363e-05
-0.00021748348
-5.5304569e-05
-0.00022379065
-5.6719176e-05
-0.0002307839
-5.7641138e-05
-0.00023854125
-5.7969808e-05
-0.0002471538
-5.7581162e-05
-0.00025673331
-5.6320816e-05
-0.00026741111
-5.3995238e-05
-0.00027934848
-5.0359401e-05
-0.00029274243
-4.5100479e-05
-0.000307838
-3.7814065e-05
-0.00032494465
-2.7970276e-05
-0.00034446108
-1.4864682e-05
-0.00036690551
-0.00039297075
2.4540198e-06
1.7330404e-05
-0.00041066208
3.0456702e-05
-0.00038007905
4.0320125e-05
-0.00035432557
4.7621998e-05
-0.00033224546
5.2890962e-05
-0.00031310938
5.6531939e-05
-0.00029638786
5.8858757e-05
-0.00028167988
6.0117273e-05
-0.00026867291
6.0501877e-05
-0.0002571193
6.0167858e-05
-0.00024681954
5.9239457e-05
-0.00023761189
5.7817214e-05
-0.00022936068
5.5983055e-05
-0.00022195624
5.3804523e-05
-0.00021530586
5.1337363e-05
-0.00020933117
4.8627789e-05
-0.00020396629
4.5714381e-05
-0.00019915491
4.2629386e-05
-0.00019484953
3.9400232e-05
-0.00019101001
3.6049988e-05
-0.00018760224
3.2598461e-05
-0.00018459688
2.9062311e-05
-0.00018196842
2.545608e-05
-0.00017969509
2.1792286e-05
-0.00017775854
1.8082105e-05
-0.00017614372
1.4335472e-05
-0.00017483837
1.0561401e-05
-0.00017383284
6.768257e-06
-0.00017311975
2.9638255e-06
-0.00017269394
-8.44283e-07
-0.00017255231
-4.6486853e-06
-0.0001726938
-8.4417829e-06
-0.00017311941
-1.2215783e-05
-0.00017383219
-1.5962346e-05
-0.00017483728
-1.9672492e-05
-0.00017614207
-2.3336344e-05
-0.00017775643
-2.6942781e-05
-0.00017969295
-3.0479204e-05
-0.00018196695
-3.3930942e-05
-0.00018459662
-3.728111e-05
-0.00018760299
-4.050994e-05
-0.00019101082
-4.3594478e-05
-0.00019484932
-4.6507599e-05
-0.00019915326
-4.9217248e-05
-0.00020396368
-5.1684935e-05
-0.00020932855
-5.3864411e-05
-0.00021530403
-5.569981e-05
-0.00022195526
-5.7123583e-05
-0.00022936014
-5.8053465e-05
-0.00023761138
-5.8388548e-05
-0.00024681873
-5.8004484e-05
-0.00025711738
-5.6746499e-05
-0.00026866912
-5.4420561e-05
-0.00028167443
-5.0780953e-05
-0.00029638206
-4.5513927e-05
-0.00031310504
-3.8214089e-05
-0.0003322445
-2.8350131e-05
-0.00035432505
-1.5215592e-05
-0.00038004007
-0.00041032971
2.1433561e-06
1.7371015e-05
-0.0004280331
3.0526187e-05
-0.00039323423
4.0410172e-05
-0.00036420955
4.7725433e-05
-0.00033956074
5.300233e-05
-0.00031838626
5.6646973e-05
-0.00030003252
5.8974235e-05
-0.00028400712
6.0230465e-05
-0.00026992914
6.0610845e-05
-0.00025749965
6.0271044e-05
-0.00024647972
5.9335431e-05
-0.00023667626
5.7904585e-05
-0.0002279298
5.6060684e-05
-0.00022011234
5.3871581e-05
-0.00021311673
5.1393167e-05
-0.00020685276
4.8671825e-05
-0.00020124493
4.574612e-05
-0.00019622921
4.2648499e-05
-0.00019175192
3.9406407e-05
-0.00018776792
3.604308e-05
-0.00018423893
3.2578271e-05
-0.00018113206
2.9028692e-05
-0.00017841885
2.5408843e-05
-0.00017607522
2.1731301e-05
-0.000174081
1.8007257e-05
-0.00017241966
1.4246678e-05
-0.00017107777
1.0458591e-05
-0.00017004475
6.6513726e-06
-0.00016931251
2.8328348e-06
-0.00016887541
-9.8939122e-07
-0.00016873006
-4.8078667e-06
-0.00016887533
-8.6149744e-06
-0.0001693123
-1.2402889e-05
-0.00017004428
-1.6163277e-05
-0.00017107689
-1.988714e-05
-0.00017241821
-2.356458e-05
-0.000174079
-2.7184503e-05
-0.00017607302
-3.0734277e-05
-0.00017841717
-3.4199265e-05
-0.00018113162
-3.7562439e-05
-0.00018423981
-4.0804014e-05
-0.00018776924
-4.390093e-05
-0.00019175239
-4.6826109e-05
-0.00019622808
-4.954735e-05
-0.00020124243
-5.2026124e-05
-0.00020684978
-5.4215982e-05
-0.00021311416
-5.6060945e-05
-0.0002201103
-5.7493285e-05
-0.0002279278
-5.8430549e-05
-0.00023667412
-5.8771508e-05
-0.00024647777
-5.8391494e-05
-0.0002574974
-5.7135317e-05
-0.00026992529
-5.4808484e-05
-0.00028400127
-5.1164624e-05
-0.00030002591
-4.5889023e-05
-0.00031838064
-3.8575363e-05
-0.00033955816
-2.8690914e-05
-0.0003642095
-1.552722e-05
-0.00039320376
-0.00042772898
1.8720468e-06
1.7411587e-05
-0.00044544448
3.0596436e-05
-0.00040641888
4.0501176e-05
-0.00037411412
4.7830171e-05
-0.00034688958
5.3115414e-05
-0.00032367136
5.6764242e-05
-0.00030368124
5.9092458e-05
-0.00028633522
6.0347019e-05
-0.00027118364
6.072377e-05
-0.00025787631
6.0378769e-05
-0.00024613468
5.9436394e-05
-0.0002357338
5.7997241e-05
-0.0002264906
5.6144038e-05
-0.00021825906
5.3944807e-05
-0.00021091745
5.1455625e-05
-0.00020436353
4.8722897e-05
-0.00019851214
4.5785285e-05
-0.00019329156
4.2675411e-05
-0.00018864198
3.9420787e-05
-0.00018451328
3.6044835e-05
-0.00018086292
3.2567197e-05
-0.00017765441
2.9004705e-05
-0.00017485632
2.5371752e-05
-0.00017244226
2.1681025e-05
-0.00017039025
1.7943677e-05
-0.0001686823
1.4169717e-05
-0.0001673038
1.0368199e-05
-0.00016624322
6.5474647e-06
-0.00016549177
2.7153907e-06
-0.00016504331
-1.12045e-06
-0.00016489421
-4.9525314e-06
-0.00016504323
-8.7732598e-06
-0.00016549155
-1.2574743e-05
-0.00016624278
-1.6348598e-05
-0.00016730301
-2.008582e-05
-0.00016868097
-2.3776444e-05
-0.00017038834
-2.7409437e-05
-0.00017244002
-3.0972104e-05
-0.00017485447
-3.4449886e-05
-0.00017765385
-3.7825631e-05
-0.00018086404
-4.1079566e-05
-0.00018451532
-4.4188527e-05
-0.0001886434
-4.7125418e-05
-0.0001932912
-4.9857885e-05
-0.00019850994
-5.2347368e-05
-0.00020436031
-5.4547237e-05
-0.00021091427
-5.6401326e-05
-0.00021825622
-5.7841727e-05
-0.00022648738
-5.8785839e-05
-0.00023573002
-5.9132126e-05
-0.00024613146
-5.8755614e-05
-0.00025787392
-5.7500692e-05
-0.00027118019
-5.5172462e-05
-0.00028632951
-5.1523916e-05
-0.00030367444
-4.6239352e-05
-0.00032366522
-3.8911514e-05
-0.00034688597
-2.9006325e-05
-0.00037411471
-1.5813325e-05
-0.00040639674
-0.0004451687
1.6263748e-06
1.7451668e-05
-0.00046289634
3.0665654e-05
-0.00041963303
4.0591107e-05
-0.00038403975
4.7933856e-05
-0.00035423246
5.322759e-05
-0.00032896524
5.6880875e-05
-0.00030733463
5.921031e-05
-0.00028866477
6.0463448e-05
-0.00027243686
6.0836763e-05
-0.0002582497
6.0486721e-05
-0.00024578471
5.9537488e-05
-0.00023478462
5.8090137e-05
-0.00022504332
5.6227943e-05
-0.0002163969
5.4019078e-05
-0.00020870863
5.1519669e-05
-0.00020186414
4.8776085e-05
-0.00019576858
4.5827135e-05
-0.00019034264
4.2705522e-05
-0.00018552037
3.9438894e-05
-0.00018124668
3.6050724e-05
-0.00017747475
3.2560685e-05
-0.0001741644
2.898561e-05
-0.00017128125
2.533992e-05
-0.0001687966
2.1636347e-05
-0.00016668669
1.7886071e-05
-0.00016493205
1.4099135e-05
-0.00016351689
1.0284613e-05
-0.00016242871
6.4508596e-06
-0.00016165804
2.6057626e-06
-0.00016119823
-1.2431215e-06
-0.00016104535
-5.0882692e-06
-0.00016119809
-8.9220939e-06
-0.00016165774
-1.273668e-05
-0.00016242821
-1.6523622e-05
-0.00016351607
-2.0273852e-05
-0.00016493076
-2.397738e-05
-0.00016668481
-2.7623113e-05
-0.0001687943
-3.1198401e-05
-0.00017127918
-3.4688662e-05
-0.0001741636
-3.8076756e-05
-0.00017747594
-4.1342753e-05
-0.00018124933
-4.4463391e-05
-0.00018552277
-4.7411472e-05
-0.00019034313
-5.0154614e-05
-0.0001957668
-5.2654177e-05
-0.00020186075
-5.4863502e-05
-0.00020870495
-5.6726083e-05
-0.00021639365
-5.8173956e-05
-0.0002250395
-5.9124344e-05
-0.00023477964
-5.9475487e-05
-0.00024578032
-5.9102022e-05
-0.0002582474
-5.784796e-05
-0.00027243425
-5.5517903e-05
-0.00028865957
-5.1864366e-05
-0.00030732797
-4.6570501e-05
-0.00032895909
-3.9228243e-05
-0.00035422823
-2.9302147e-05
-0.00038404081
-1.6079789e-05
-0.00041961909
-0.0004626488
1.4003082e-06
1.7492688e-05
-0.00048038904
3.07367e-05
-0.00043287706
4.0683683e-05
-0.00039398675
4.8040858e-05
-0.00036158965
5.3343831e-05
-0.00033426824
5.7002265e-05
-0.00031099307
5.9333572e-05
-0.0002909961
6.0585865e-05
-0.00027368916
6.0956317e-05
-0.00025862019
6.0601534e-05
-0.00024542994
5.9645451e-05
-0.00023382857
5.8190075e-05
-0.00022358796
5.6319214e-05
-0.00021452607
5.410108e-05
-0.00020649053
5.1591793e-05
-0.00019935488
4.8837766e-05
-0.00019301459
4.5878011e-05
-0.0001873829
4.2745267e-05
-0.00018238766
3.9467287e-05
-0.00017796871
3.6067488e-05
-0.00017407498
3.2565573e-05
-0.00017066251
2.8978325e-05
-0.00016769402
2.5320279e-05
-0.00016513858
2.1604204e-05
-0.00016297063
1.7841341e-05
-0.00016116921
1.404177e-05
-0.00015971733
1.0214564e-05
-0.00015860154
6.3681284e-06
-0.00015781162
2.510334e-06
-0.00015734047
-1.3512005e-06
-0.00015718383
-5.2089859e-06
-0.00015734033
-9.0554032e-06
-0.00015781134
-1.2882564e-05
-0.00015860107
-1.6682056e-05
-0.0001597166
-2.044478e-05
-0.00016116806
-2.416072e-05
-0.00016296889
-2.7818743e-05
-0.0001651363
-3.1406208e-05
-0.00016769173
-3.490855e-05
-0.00017066128
-3.8308567e-05
-0.00017407594
-4.1586156e-05
-0.00017797176
-4.4717896e-05
-0.00018239104
-4.7676617e-05
-0.00018738443
-5.0429872e-05
-0.00019301355
-5.2938974e-05
-0.00019935167
-5.5157332e-05
-0.0002064866
-5.7028052e-05
-0.00021452295
-5.8483064e-05
-0.0002235845
-5.9439457e-05
-0.00023382327
-5.9795184e-05
-0.0002454246
-5.9424536e-05
-0.00025861806
-5.817108e-05
-0.00027368771
-5.5838931e-05
-0.00029099174
-5.2180238e-05
-0.00031098667
-4.6876975e-05
-0.00033426237
-3.9520164e-05
-0.00036158504
-2.9573219e-05
-0.00039398777
-1.6321582e-05
-0.00043287073
-0.00048016901
1.1986127e-06
1.7534206e-05
-0.00049792326
3.0807844e-05
-0.00044615072
4.0777087e-05
-0.000403956
4.8149067e-05
-0.00036896165
5.3461706e-05
-0.00033958088
5.7125783e-05
-0.00031465716
5.9459306e-05
-0.00029332963
6.0711085e-05
-0.00027494094
6.1079138e-05
-0.00025898825
6.0719779e-05
-0.00024507058
5.9756949e-05
-0.00023286576
5.8293869e-05
-0.00022212488
5.6414657e-05
-0.00021264688
5.4187413e-05
-0.00020426329
5.1668325e-05
-0.00019683581
4.8903962e-05
-0.00019025024
4.5933597e-05
-0.00018441255
4.2790012e-05
-0.0001792441
3.9500979e-05
-0.0001746797
3.6089933e-05
-0.00017066395
3.257648e-05
-0.00016714907
2.8977387e-05
-0.00016409494
2.5307284e-05
-0.00016146849
2.1578984e-05
-0.00015924234
1.7803789e-05
-0.00015739404
1.3991796e-05
-0.00015590535
1.0152111e-05
-0.00015476187
6.2931717e-06
-0.00015395269
2.4228663e-06
-0.00015347018
-1.4511525e-06
-0.00015330982
-5.321396e-06
-0.00015347011
-9.1802168e-06
-0.00015395253
-1.3019733e-05
-0.00015476158
-1.6831505e-05
-0.00015590484
-2.0606433e-05
-0.00015739315
-2.4334467e-05
-0.00015924087
-2.8004459e-05
-0.00016146633
-3.1603743e-05
-0.00016409246
-3.5117822e-05
-0.00016714722
-3.8529402e-05
-0.00017066437
-4.1818326e-05
-0.00017468286
-4.4960871e-05
-0.0001792485
-4.7929976e-05
-0.00018441534
-5.0693042e-05
-0.00019025049
-5.3211311e-05
-0.00019683342
-5.5438419e-05
-0.0002042595
-5.7316987e-05
-0.0002126444
-5.877882e-05
-0.00022212267
-5.9740873e-05
-0.00023286123
-6.0100795e-05
-0.00024506468
-5.9732549e-05
-0.00025898632
-5.8479225e-05
-0.00027494104
-5.6144378e-05
-0.0002933266
-5.2479886e-05
-0.00031465116
-4.7166658e-05
-0.00033957561
-3.9794362e-05
-0.00036895734
-2.9825766e-05
-0.00040395638
-1.6543648e-05
-0.00044615284
-0.00049773072
1.0180455e-06
1.7572304e-05
-0.00051549553
3.0875572e-05
-0.00045945396
4.0867119e-05
-0.00041394752
4.8253226e-05
-0.00037634774
5.3575241e-05
-0.00034490287
5.7245299e-05
-0.00031832721
5.9580688e-05
-0.000295665
6.0831959e-05
-0.00027619221
6.1198075e-05
-0.00025935436
6.0834015e-05
-0.00024470652
5.9864711e-05
-0.00023189645
5.8394633e-05
-0.0002206548
5.6507645e-05
-0.0002107599
5.427168e-05
-0.00020202732
5.1743169e-05
-0.00019430731
4.8968873e-05
-0.00018747594
4.5988331e-05
-0.00018143202
4.2834193e-05
-0.00017608997
3.9534334e-05
-0.00017137985
3.6112253e-05
-0.00016724188
3.2587459e-05
-0.00016362429
2.8976781e-05
-0.00016048427
2.5294909e-05
-0.00015778663
2.1554704e-05
-0.00015550214
1.7767492e-05
-0.00015360684
1.3943387e-05
-0.00015208125
1.0091518e-05
-0.00015091002
6.2203334e-06
-0.00015008151
2.3377488e-06
-0.00014958762
-1.5485725e-06
-0.0001494235
-5.4311165e-06
-0.00014958758
-9.3022103e-06
-0.00015008144
-1.3153959e-05
-0.00015090985
-1.6977885e-05
-0.00015208091
-2.0764885e-05
-0.00015360617
-2.4504847e-05
-0.00015550091
-2.8186628e-05
-0.00015778457
-3.1797516e-05
-0.00016048157
-3.532309e-05
-0.00016362167
-3.8745966e-05
-0.00016724149
-4.2046085e-05
-0.00017138276
-4.5199271e-05
-0.00017609532
-4.8178551e-05
-0.00018143609
-5.0951206e-05
-0.00018747783
-5.3478434e-05
-0.00019430622
-5.5714018e-05
-0.00020202391
-5.7600202e-05
-0.00021075824
-5.9068634e-05
-0.00022065423
-6.0036134e-05
-0.00023189376
-6.0400112e-05
-0.0002447007
-6.0034164e-05
-0.0002593523
-5.8780866e-05
-0.00027619433
-5.6443196e-05
-0.0002956643
-5.2772716e-05
-0.00031832163
-4.7450079e-05
-0.00034489828
-4.0062116e-05
-0.00037634529
-3.0072493e-05
-0.00041394603
-1.6759938e-05
-0.00045946538
-0.00051533395
8.4326719e-07
1.7608765e-05
-0.00053310435
3.0939365e-05
-0.0004727846
4.0952066e-05
-0.00042396028
4.8349185e-05
-0.0003837449
5.3678682e-05
-0.00035023242
5.7355614e-05
-0.00032200418
5.9691653e-05
-0.00029800108
6.0942745e-05
-0.00027744334
6.1308712e-05
-0.00025972036
6.09399e-05
-0.00024433773
5.9966019e-05
-0.0002309226
5.8491372e-05
-0.00021918018
5.6598693e-05
-0.00020886725
5.4356208e-05
-0.00019978485
5.1820448e-05
-0.00019177158
4.9038611e-05
-0.00018469412
4.6050022e-05
-0.00017844346
4.2887421e-05
-0.00017292738
3.9578721e-05
-0.00016807118
3.6147437e-05
-0.00016381061
3.261315e-05
-0.00016009003
2.8992759e-05
-0.0001568639
2.5300991e-05
-0.00015409489
2.155078e-05
-0.00015175195
1.7753446e-05
-0.00014980953
1.391912e-05
-0.00014824694
1.0056918e-05
-0.00014704785
6.1753085e-06
-0.00014619991
2.2821931e-06
-0.00014569453
-1.6147134e-06
-0.00014552661
-5.5078435e-06
-0.00014569448
-9.3894642e-06
-0.00014619983
-1.325167e-05
-0.00014704767
-1.7085968e-05
-0.00014824662
-2.0883241e-05
-0.00014980893
-2.463335e-05
-0.0001517508
-2.8325138e-05
-0.00015409281
-3.1945981e-05
-0.00015686073
-3.5481106e-05
-0.00016008657
-3.891326e-05
-0.00016380934
-4.2222643e-05
-0.00016807341
-4.5384828e-05
-0.00017293313
-4.8372333e-05
-0.00017844861
-5.1152766e-05
-0.0001846974
-5.3687846e-05
-0.00019177117
-5.593007e-05
-0.00019978168
-5.7822315e-05
-0.00020886602
-5.929577e-05
-0.00021918077
-6.026716e-05
-0.0002309224
-6.063406e-05
-0.00024433379
-6.0269485e-05
-0.0002597169
-5.9015416e-05
-0.00027744839
-5.6674725e-05
-0.00029800502
-5.2997952e-05
-0.00032199839
-4.7669014e-05
-0.00035022724
-4.0266535e-05
-0.00038374775
-3.0260921e-05
-0.00042395168
-1.6921824e-05
-0.00047280446
-0.00053297328
7.1746799e-07
1.7651171e-05
-0.00055075553
3.1001131e-05
-0.00048613457
4.1040681e-05
-0.00043399984
4.8443996e-05
-0.00039114822
5.3780148e-05
-0.00035556859
5.7467238e-05
-0.00032569128
5.9797974e-05
-0.00030033184
6.1046293e-05
-0.00027869167
6.1413871e-05
-0.00026008797
6.103958e-05
-0.00024396346
6.0062088e-05
-0.00022994513
5.8584147e-05
-0.00021770226
5.6686259e-05
-0.00020696938
5.443809e-05
-0.00019753671
5.1895565e-05
-0.00018922908
4.9106981e-05
-0.00018190556
4.6109929e-05
-0.00017544644
4.2939328e-05
-0.00016975679
3.9621739e-05
-0.00016475362
3.6180723e-05
-0.00016036961
3.2636892e-05
-0.00015654623
2.9006981e-05
-0.000153234
2.5305612e-05
-0.00015039355
2.1545752e-05
-0.00014799211
1.7738707e-05
-0.00014600252
1.389463e-05
-0.00014440288
1.0022656e-05
-0.0001431759
6.1312595e-06
-0.00014230854
2.2283758e-06
-0.00014179168
-1.678272e-06
-0.00014161998
-5.5810987e-06
-0.00014179169
-9.47242e-06
-0.00014230853
-1.3344283e-05
-0.00014317584
-1.7188219e-05
-0.0001444027
-2.0995075e-05
-0.0001460021
-2.4754795e-05
-0.0001479911
-2.8456138e-05
-0.0001503915
-3.208723e-05
-0.00015322965
-3.5630836e-05
-0.000156543
-3.9071359e-05
-0.00016036883
-4.2389021e-05
-0.00016475577
-4.5560583e-05
-0.00016976158
-4.8555111e-05
-0.00017545411
-5.1342392e-05
-0.00018191013
-5.388635e-05
-0.00018922723
-5.6133414e-05
-0.00019753463
-5.8030974e-05
-0.00020696849
-5.9507574e-05
-0.00021770418
-6.0480378e-05
-0.00022994961
-6.0848313e-05
-0.00024396586
-6.0482763e-05
-0.00026008247
-5.9224261e-05
-0.00027870689
-5.6877491e-05
-0.00030035181
-5.3188974e-05
-0.00032568691
-4.7856918e-05
-0.00035555932
-4.0432786e-05
-0.00039117188
-3.0413785e-05
-0.0004339707
-1.7037701e-05
-0.00048618053
-0.00055066096
6.499577e-07
1.7714189e-05
-0.00056846972
3.1123643e-05
-0.00049954403
4.1200859e-05
-0.00044407706
4.8632658e-05
-0.00039858002
5.3999214e-05
-0.00036093515
5.7691413e-05
-0.00032938348
6.0026387e-05
-0.00030266682
6.1286914e-05
-0.0002799522
6.1646116e-05
-0.00026044717
6.1260665e-05
-0.00024357801
6.0273155e-05
-0.00022895763
5.8775756e-05
-0.00021620486
5.6856935e-05
-0.00020505057
5.458653e-05
-0.0001952663
5.2024363e-05
-0.00018666691
4.9212711e-05
-0.0001790939
4.6193712e-05
-0.00017242744
4.2999054e-05
-0.00016656213
3.9659538e-05
-0.00016141411
3.6196526e-05
-0.00015690659
3.2628869e-05
-0.00015297858
2.8974481e-05
-0.00014957961
2.524851e-05
-0.00014666759
2.146399e-05
-0.00014420758
1.7632339e-05
-0.00014217088
1.3763781e-05
-0.00014053432
9.8674924e-06
-0.00013927963
5.9520266e-06
-0.00013839306
2.0253374e-06
-0.000137865
-1.9049488e-06
-0.00013768968
-5.8315845e-06
-0.00013786507
-9.7469561e-06
-0.00013839314
-1.3643098e-05
-0.00013927972
-1.7511406e-05
-0.00014053438
-2.1342679e-05
-0.00014217085
-2.5126481e-05
-0.00014420728
-2.8851275e-05
-0.00014666673
-3.2503382e-05
-0.00014957753
-3.6071441e-05
-0.00015297496
-3.9535941e-05
-0.00015690431
-4.2875201e-05
-0.00016141654
-4.6067213e-05
-0.00016656955
-4.908431e-05
-0.00017243704
-5.1891584e-05
-0.00017910283
-5.4449743e-05
-0.0001866691
-5.6717894e-05
-0.00019526645
-5.863296e-05
-0.00020505345
-6.0127043e-05
-0.00021621008
-6.1117389e-05
-0.0002289593
-6.1494636e-05
-0.00024358859
-6.1141213e-05
-0.00026043593
-5.9886543e-05
-0.00027996154
-5.7544171e-05
-0.00030269421
-5.3844043e-05
-0.00032938701
-4.8491087e-05
-0.00036091232
-4.1039199e-05
-0.00039862373
-3.0974854e-05
-0.00044403509
-1.7549846e-05
-0.00049960551
-0.00056841735
2.0650163e-07
1.7574551e-05
-0.00058604428
3.1062376e-05
-0.00051303186
4.1117013e-05
-0.0004541317
4.8607624e-05
-0.00040607064
5.3960536e-05
-0.00036628807
5.7625857e-05
-0.0003330488
6.0008002e-05
-0.00030504897
6.1268488e-05
-0.00028121268
6.1604816e-05
-0.0002607835
6.1225446e-05
-0.00024319864
6.0238071e-05
-0.00022797026
5.8750591e-05
-0.00021471738
5.6842332e-05
-0.00020314231
5.4578169e-05
-0.00019300213
5.2014703e-05
-0.00018410346
4.9206829e-05
-0.00017628602
4.6197216e-05
-0.00016941784
4.3019294e-05
-0.0001633842
3.9696807e-05
-0.00015809163
3.6250005e-05
-0.00015345978
3.2697886e-05
-0.00014942647
2.9058296e-05
-0.00014594001
2.5346399e-05
-0.00014295571
2.15753e-05
-0.00014043647
1.7756443e-05
-0.00013835204
1.3900094e-05
-0.00013667796
1.0015434e-05
-0.00013539498
6.1110385e-06
-0.00013448865
2.1948533e-06
-0.00013394884
-1.7252499e-06
-0.00013376956
-5.6415039e-06
-0.00013394883
-9.545989e-06
-0.00013448864
-1.3430766e-05
-0.00013539496
-1.7287202e-05
-0.00013667793
-2.1106082e-05
-0.00013835199
-2.4876925e-05
-0.00014043642
-2.8588143e-05
-0.00014295553
-3.222592e-05
-0.00014593973
-3.5779165e-05
-0.00014942174
-3.9235338e-05
-0.00015344812
-4.2577279e-05
-0.00015807462
-4.5780303e-05
-0.00016336651
-4.8813921e-05
-0.00016940344
-5.1636638e-05
-0.0001762801
-5.4200106e-05
-0.00018410565
-5.6462894e-05
-0.00019300365
-5.8380074e-05
-0.00020313629
-5.9883541e-05
-0.00021470659
-6.0881707e-05
-0.00022796115
-6.1271986e-05
-0.00024319829
-6.0920686e-05
-0.00026078725
-5.96835e-05
-0.0002811987
-5.7341768e-05
-0.00030503597
-5.3662139e-05
-0.00033306662
-4.8268028e-05
-0.00036630646
-4.0849348e-05
-0.00040604239
-3.0728383e-05
-0.00045415609
-1.736004e-05
-0.00051297382
-0.00058610681
3.2937265e-07
1.7601549e-05
3.1099689e-05
4.1160263e-05
4.8659076e-05
5.4004526e-05
5.7676733e-05
6.0064348e-05
6.1314791e-05
6.1654717e-05
6.128099e-05
6.0294557e-05
5.881377e-05
5.6911563e-05
5.4653121e-05
5.2091776e-05
4.9287934e-05
4.6280097e-05
4.3104738e-05
3.9781803e-05
3.6333872e-05
3.2781887e-05
2.9142739e-05
2.5431197e-05
2.1660327e-05
1.784152e-05
1.3985029e-05
1.0100041e-05
6.1951285e-06
2.2782458e-06
-1.6426521e-06
-5.5596004e-06
-9.4645559e-06
-1.33496e-05
-1.720613e-05
-2.1024996e-05
-2.4795937e-05
-2.8507621e-05
-3.2147569e-05
-3.5699261e-05
-3.9153338e-05
-4.2494271e-05
-4.5696507e-05
-4.8726874e-05
-5.1547892e-05
-5.4113749e-05
-5.6371012e-05
-5.8284371e-05
-5.9781972e-05
-6.0771749e-05
-6.1158307e-05
-6.079664e-05
-5.9553035e-05
-5.7198158e-05
-5.3514672e-05
-4.8112492e-05
-4.0686822e-05
-3.0554324e-05
-1.7167626e-05
5.4405282e-07
-7.8352467e-06
-0.00022297863
0.00021705026
1.3763901e-05
-2.689428e-06
-0.00022367525
0.00021852959
1.7457537e-06
-0.00022440465
0.00021996963
5.5342179e-06
-0.00022515763
0.00022136933
8.73293e-06
-0.00022592589
0.00022272734
1.1392909e-05
-0.00022670253
0.0002240427
1.356007e-05
-0.00022748124
0.00022531423
1.527587e-05
-0.00022825636
0.00022654071
1.6577942e-05
-0.00022902305
0.00022772112
1.7500545e-05
-0.00022977674
0.00022885427
1.8075094e-05
-0.00023051354
0.00022993913
1.8330374e-05
-0.0002312298
0.00023097466
1.829302e-05
-0.00023192236
0.00023195986
1.7987696e-05
-0.00023258838
0.00023289384
1.7437364e-05
-0.00023322517
0.00023377564
1.6663492e-05
-0.00023383052
0.00023460452
1.5686244e-05
-0.00023440242
0.0002353798
1.4524622e-05
-0.00023493907
0.00023610082
1.3196627e-05
-0.00023543877
0.00023676689
1.1719353e-05
-0.0002358999
0.00023737729
1.010914e-05
-0.00023632094
0.00023793126
8.3816315e-06
-0.00023670054
0.00023842815
6.5519205e-06
-0.00023703771
0.0002388675
4.63459e-06
-0.00023733166
0.00023924906
2.64383e-06
-0.00023758185
0.00023957268
5.9348135e-07
-0.00023778765
0.00023983806
-1.5028847e-06
-0.00023794842
0.00024004484
-3.6319125e-06
-0.00023806356
0.00024019264
-5.7803674e-06
-0.00023813263
0.00024028113
-7.9351216e-06
-0.0002381554
0.00024031019
-1.008307e-05
-0.00023813178
0.00024027977
-1.2211086e-05
-0.00023806183
0.00024018988
-1.4305971e-05
-0.00023794571
0.00024004062
-1.6354437e-05
-0.00023778377
0.00023983226
-1.8343018e-05
-0.0002375766
0.0002395652
-2.0257973e-05
-0.00023732503
0.00023924
-2.208514e-05
-0.00023702998
0.00023885717
-2.3809869e-05
-0.00023669219
0.00023841694
-2.5416973e-05
-0.00023631235
0.00023791947
-2.6890746e-05
-0.00023589112
0.00023736492
-2.8214887e-05
-0.00023542949
0.00023675365
-2.9372387e-05
-0.00023492883
0.00023608635
-3.034536e-05
-0.00023439086
0.00023536385
-3.111489e-05
-0.00023381755
0.00023458709
-3.1660858e-05
-0.00023321092
0.00023375691
-3.1961838e-05
-0.00023257316
0.00023287416
-3.1994824e-05
-0.0002319065
0.00023193951
-3.1735116e-05
-0.0002312135
0.00023095382
-3.115602e-05
-0.00023049675
0.00022991768
-3.0228698e-05
-0.00022975912
0.00022883183
-2.8921794e-05
-0.00022900402
0.00022769715
-2.7201181e-05
-0.00022823534
0.00022651474
-2.5029511e-05
-0.00022745818
0.00022528654
-2.2365893e-05
-0.00022667921
0.00022401563
-1.9165732e-05
-0.00022590941
0.00022270925
-1.5380273e-05
-0.00022517
0.0002213847
-1.0957708e-05
-0.00022450883
0.0002200864
-5.8453643e-06
-0.00022405008
0.00021893787
-0.00022415257
0.00021830721
-6.5024037e-06
-0.00022936054
1.2884415e-05
-9.6754067e-07
-0.00022921005
3.7982308e-06
-0.00022917035
7.8640832e-06
-0.00022922341
1.129175e-05
-0.00022935348
1.413644e-05
-0.00022954714
1.6447837e-05
-0.00022979256
1.8270791e-05
-0.00023007924
1.964602e-05
-0.0002303982
2.0610588e-05
-0.00023074124
2.1198491e-05
-0.00023110137
2.1440874e-05
-0.00023147213
2.1366564e-05
-0.00023184799
2.1002247e-05
-0.00023222401
2.0372778e-05
-0.00023259565
1.9501405e-05
-0.0002329591
1.8409961e-05
-0.00023331093
1.7119005e-05
-0.00023364808
1.5648005e-05
-0.00023396774
1.4015435e-05
-0.00023426732
1.2238946e-05
-0.00023454443
1.0335453e-05
-0.00023479704
8.3212848e-06
-0.00023502353
6.2122356e-06
-0.0002352226
4.0236621e-06
-0.00023539327
1.7705296e-06
-0.00023553451
-5.3248576e-07
-0.0002356454
-2.8709588e-06
-0.00023572508
-5.2306097e-06
-0.00023577297
-7.5972558e-06
-0.00023578874
-9.9567274e-06
-0.0002357723
-1.2294839e-05
-0.00023572371
-1.4597297e-05
-0.00023564324
-1.684967e-05
-0.00023553138
-1.9037302e-05
-0.00023538895
-2.1145261e-05
-0.00023521706
-2.3158227e-05
-0.000235017
-2.5060405e-05
-0.00023479
-2.6835445e-05
-0.00023453729
-2.8466373e-05
-0.00023426018
-2.9935509e-05
-0.00023396034
-3.1224368e-05
-0.00023363995
-3.231352e-05
-0.00023330169
-3.3182443e-05
-0.00023294861
-3.3809349e-05
-0.00023258399
-3.4171022e-05
-0.00023221147
-3.4242621e-05
-0.00023183489
-3.399742e-05
-0.00023145869
-3.3406547e-05
-0.0002310876
-3.2438838e-05
-0.00023072682
-3.1060293e-05
-0.00023038256
-2.9233859e-05
-0.00023006175
-2.6919018e-05
-0.00022977301
-2.4071298e-05
-0.00022952693
-2.0641776e-05
-0.0002293389
-1.657727e-05
-0.00022923463
-1.1820004e-05
-0.0002292662
-6.3108178e-06
-0.00022955936
-0.00023046339
-5.1412051e-06
-0.00023623385
1.2014637e-05
8.1558724e-07
-0.00023516678
5.9402263e-06
-0.00023429494
1.030755e-05
-0.00023359069
1.3984328e-05
-0.00023303022
1.7030289e-05
-0.00023259307
1.9499179e-05
-0.00023226141
2.1439525e-05
-0.00023201956
2.2895366e-05
-0.00023185402
2.3906815e-05
-0.00023175266
2.4510648e-05
-0.00023170518
2.4740556e-05
-0.00023170202
2.4627724e-05
-0.00023173515
2.4201037e-05
-0.00023179732
2.3487389e-05
-0.00023188199
2.2511922e-05
-0.00023198365
2.1298263e-05
-0.00023209728
1.9868668e-05
-0.00023221851
1.8244201e-05
-0.00023234329
1.6444855e-05
-0.00023246799
1.4489727e-05
-0.00023258932
1.2397125e-05
-0.00023270445
1.0184718e-05
-0.00023281113
7.8695977e-06
-0.00023290749
5.468386e-06
-0.00023299206