/*--------------------------------*- C++ -*----------------------------------*\
| =========                 |                                                 |
| \\      /  F ield         | OpenFOAM: The Open Source CFD Toolbox           |
|  \\    /   O peration     | Version:  v2006                                 |
|   \\  /    A nd           | Website:  www.openfoam.com                      |
|    \\/     M anipulation  |                                                 |
\*---------------------------------------------------------------------------*/
FoamFile
{
    version     2.0;
    format      ascii;
    class       volScalarField;
    location    "3000";
    object      pMean;
}
// * * * * * * * * * * * * * * * * * * * * * * * * * * * * * * * * * * * * * //

dimensions      [1 -1 -2 0 0 0 0];


internalField   nonuniform List<scalar> 
55713
(
1.0000358
1.0000358
1.0000358
1.0000358
1.0000358
1.0000358
1.0000358
1.0000358
1.0000358
1.0000358
1.0000358
1.0000358
1.0000358
1.0000358
1.0000358
1.0000358
1.0000358
1.0000358
1.0000358
1.0000358
1.0000358
1.0000358
1.0000358
1.0000358
1.0000358
1.0000358
1.0000358
1.0000358
1.0000358
1.0000358
1.0000358
1.0000358
1.0000358
1.0000358
1.0000358
1.0000358
1.0000358
1.0000358
1.0000358
1.0000358
1.0000358
1.0000358
1.0000358
1.0000358
1.0000358
1.0000358
1.0000358
1.0000358
1.0000358
1.0000358
1.0000358
1.0000358
1.0000358
1.0000358
1.0000358
1.0000358
1.0000358
1.0000358
1.0000358
1.0000335
1.0000335
1.0000335
1.0000335
1.0000335
1.0000335
1.0000335
1.0000335
1.0000335
1.0000335
1.0000335
1.0000335
1.0000335
1.0000335
1.0000335
1.0000335
1.0000335
1.0000335
1.0000335
1.0000335
1.0000335
1.0000335
1.0000335
1.0000335
1.0000335
1.0000335
1.0000335
1.0000335
1.0000335
1.0000335
1.0000335
1.0000335
1.0000335
1.0000335
1.0000335
1.0000335
1.0000335
1.0000335
1.0000335
1.0000335
1.0000335
1.0000335
1.0000335
1.0000335
1.0000335
1.0000335
1.0000335
1.0000335
1.0000335
1.0000335
1.0000335
1.0000335
1.0000335
1.0000335
1.0000335
1.0000335
1.0000335
1.0000335
1.0000335
1.0000315
1.0000315
1.0000315
1.0000315
1.0000315
1.0000315
1.0000315
1.0000315
1.0000315
1.0000315
1.0000315
1.0000315
1.0000315
1.0000315
1.0000315
1.0000315
1.0000315
1.0000315
1.0000315
1.0000315
1.0000315
1.0000315
1.0000315
1.0000315
1.0000315
1.0000315
1.0000315
1.0000316
1.0000316
1.0000316
1.0000316
1.0000316
1.0000316
1.0000316
1.0000316
1.0000316
1.0000316
1.0000316
1.0000316
1.0000316
1.0000316
1.0000316
1.0000316
1.0000316
1.0000316
1.0000316
1.0000316
1.0000316
1.0000316
1.0000316
1.0000316
1.0000316
1.0000316
1.0000316
1.0000316
1.0000316
1.0000316
1.0000316
1.0000316
1.0000298
1.0000298
1.0000298
1.0000298
1.0000298
1.0000298
1.0000298
1.0000298
1.0000298
1.0000298
1.0000298
1.0000298
1.0000298
1.0000298
1.0000298
1.0000298
1.0000298
1.0000298
1.0000298
1.0000298
1.0000298
1.0000298
1.0000298
1.0000298
1.0000298
1.0000298
1.0000298
1.0000298
1.0000298
1.0000298
1.0000298
1.0000298
1.0000298
1.0000298
1.0000298
1.0000298
1.0000298
1.0000298
1.0000298
1.0000298
1.0000298
1.0000298
1.0000298
1.0000298
1.0000298
1.0000298
1.0000298
1.0000298
1.0000298
1.0000298
1.0000298
1.0000298
1.0000298
1.0000298
1.0000298
1.0000298
1.0000299
1.0000299
1.0000299
1.0000283
1.0000283
1.0000283
1.0000283
1.0000283
1.0000283
1.0000283
1.0000283
1.0000283
1.0000283
1.0000283
1.0000283
1.0000283
1.0000283
1.0000283
1.0000283
1.0000283
1.0000283
1.0000283
1.0000283
1.0000283
1.0000283
1.0000283
1.0000283
1.0000283
1.0000283
1.0000283
1.0000283
1.0000283
1.0000283
1.0000283
1.0000283
1.0000283
1.0000283
1.0000283
1.0000283
1.0000283
1.0000283
1.0000283
1.0000283
1.0000283
1.0000283
1.0000283
1.0000283
1.0000283
1.0000283
1.0000283
1.0000283
1.0000283
1.0000283
1.0000283
1.0000283
1.0000284
1.0000284
1.0000284
1.0000284
1.0000284
1.0000284
1.0000284
1.000027
1.000027
1.000027
1.000027
1.000027
1.000027
1.000027
1.000027
1.000027
1.000027
1.000027
1.000027
1.000027
1.000027
1.000027
1.000027
1.000027
1.000027
1.000027
1.000027
1.000027
1.000027
1.000027
1.000027
1.000027
1.000027
1.0000271
1.0000271
1.0000271
1.0000271
1.0000271
1.0000271
1.0000271
1.0000271
1.0000271
1.0000271
1.0000271
1.0000271
1.0000271
1.0000271
1.0000271
1.0000271
1.0000271
1.0000271
1.0000271
1.0000271
1.0000271
1.0000271
1.0000271
1.0000271
1.0000271
1.0000271
1.0000271
1.0000271
1.0000271
1.0000271
1.0000271
1.0000271
1.0000271
1.0000259
1.0000259
1.0000259
1.0000259
1.0000259
1.0000259
1.0000259
1.0000259
1.0000259
1.0000259
1.0000259
1.0000259
1.0000259
1.0000259
1.0000259
1.0000259
1.0000259
1.0000259
1.0000259
1.0000259
1.0000259
1.0000259
1.0000259
1.0000259
1.0000259
1.0000259
1.0000259
1.0000259
1.0000259
1.0000259
1.0000259
1.0000259
1.0000259
1.0000259
1.0000259
1.0000259
1.0000259
1.0000259
1.0000259
1.0000259
1.0000259
1.0000259
1.0000259
1.0000259
1.0000259
1.0000259
1.0000259
1.0000259
1.0000259
1.0000259
1.0000259
1.0000259
1.0000259
1.0000259
1.0000259
1.0000259
1.000026
1.000026
1.000026
1.0000249
1.0000249
1.0000249
1.0000249
1.0000249
1.0000249
1.0000249
1.0000249
1.0000249
1.0000249
1.0000249
1.0000249
1.0000249
1.0000249
1.0000249
1.0000249
1.0000249
1.0000249
1.0000249
1.0000249
1.0000249
1.0000249
1.0000249
1.0000249
1.0000249
1.0000249
1.0000249
1.0000249
1.0000249
1.0000249
1.0000249
1.0000249
1.0000249
1.0000249
1.0000249
1.0000249
1.0000249
1.0000249
1.0000249
1.0000249
1.0000249
1.0000249
1.0000249
1.0000249
1.0000249
1.0000249
1.0000249
1.0000249
1.0000249
1.0000249
1.0000249
1.0000249
1.0000249
1.0000249
1.0000249
1.0000249
1.0000249
1.0000249
1.0000249
1.0000244
1.0000244
1.0000244
1.0000244
1.0000244
1.0000244
1.0000244
1.0000244
1.0000244
1.0000244
1.0000244
1.0000244
1.0000244
1.0000244
1.0000244
1.0000244
1.0000244
1.0000244
1.0000244
1.0000244
1.0000244
1.0000244
1.0000244
1.0000244
1.0000244
1.0000244
1.0000244
1.0000244
1.0000244
1.0000244
1.0000244
1.0000244
1.0000244
1.0000244
1.0000244
1.0000244
1.0000244
1.0000244
1.0000244
1.0000244
1.0000244
1.0000244
1.0000244
1.0000244
1.0000244
1.0000244
1.0000244
1.0000244
1.0000244
1.0000244
1.0000244
1.0000244
1.0000244
1.0000244
1.0000244
1.0000244
1.0000244
1.0000244
1.0000244
1.0000239
1.0000239
1.000024
1.000024
1.000024
1.000024
1.000024
1.000024
1.000024
1.000024
1.000024
1.000024
1.000024
1.000024
1.000024
1.000024
1.000024
1.000024
1.000024
1.000024
1.000024
1.000024
1.000024
1.000024
1.000024
1.000024
1.000024
1.000024
1.000024
1.000024
1.000024
1.000024
1.000024
1.000024
1.000024
1.000024
1.000024
1.000024
1.000024
1.000024
1.000024
1.000024
1.000024
1.000024
1.000024
1.000024
1.000024
1.000024
1.000024
1.000024
1.000024
1.000024
1.000024
1.000024
1.000024
1.000024
1.000024
1.000024
1.0000241
1.0000218
1.0000218
1.0000218
1.0000218
1.0000218
1.0000218
1.0000218
1.0000218
1.0000218
1.0000218
1.0000218
1.0000218
1.0000218
1.0000218
1.0000218
1.0000218
1.0000218
1.0000218
1.0000218
1.0000218
1.0000218
1.0000218
1.0000218
1.0000219
1.0000219
1.0000219
1.0000219
1.0000219
1.0000219
1.0000219
1.0000219
1.0000219
1.0000219
1.0000219
1.0000219
1.0000219
1.0000219
1.0000219
1.0000219
1.0000219
1.0000219
1.0000219
1.0000219
1.0000219
1.0000219
1.0000219
1.0000219
1.0000219
1.0000218
1.0000218
1.0000218
1.0000218
1.0000218
1.0000218
1.0000218
1.0000218
1.0000218
1.0000218
1.0000218
1.0000218
1.0000217
1.0000217
1.0000217
1.0000217
1.0000217
1.0000217
1.0000217
1.0000217
1.0000217
1.0000216
1.0000216
1.0000216
1.0000216
1.0000216
1.0000216
1.0000216
1.0000216
1.0000216
1.0000216
1.0000216
1.0000216
1.0000216
1.0000216
1.0000216
1.0000216
1.0000216
1.0000216
1.0000216
1.0000216
1.0000216
1.0000215
1.0000215
1.0000215
1.0000215
1.0000215
1.0000215
1.0000215
1.0000215
1.0000215
1.0000215
1.0000215
1.0000215
1.0000215
1.0000215
1.0000215
1.0000215
1.0000215
1.0000215
1.0000215
1.0000215
1.0000215
1.0000215
1.0000215
1.0000214
1.0000214
1.0000214
1.0000214
1.0000214
1.0000329
1.0000329
1.0000329
1.0000329
1.0000329
1.0000329
1.0000329
1.0000329
1.0000329
1.0000329
1.0000329
1.0000329
1.0000329
1.0000329
1.0000329
1.0000329
1.0000329
1.0000329
1.0000329
1.0000329
1.0000329
1.0000329
1.0000329
1.0000329
1.0000329
1.0000329
1.0000329
1.0000329
1.0000329
1.0000329
1.0000329
1.0000329
1.0000329
1.0000329
1.0000329
1.0000329
1.0000329
1.0000329
1.0000329
1.0000329
1.0000329
1.0000329
1.0000329
1.0000329
1.0000329
1.0000329
1.0000329
1.0000329
1.0000329
1.0000329
1.0000329
1.0000329
1.0000329
1.0000329
1.0000329
1.0000329
1.0000329
1.0000329
1.0000329
1.0000209
1.0000209
1.0000209
1.000021
1.000021
1.000021
1.000021
1.000021
1.000021
1.000021
1.000021
1.000021
1.000021
1.000021
1.000021
1.000021
1.000021
1.000021
1.000021
1.000021
1.000021
1.000021
1.000021
1.000021
1.000021
1.000021
1.000021
1.000021
1.000021
1.0000211
1.0000211
1.0000211
1.0000211
1.0000211
1.0000211
1.0000211
1.0000211
1.0000211
1.0000211
1.0000211
1.0000211
1.0000211
1.0000211
1.0000211
1.0000211
1.000021
1.000021
1.000021
1.000021
1.000021
1.000021
1.000021
1.000021
1.000021
1.000021
1.000021
1.000021
1.000021
1.000021
1.0001361
1.0001361
1.0001362
1.0001362
1.0001362
1.0001363
1.0001363
1.0001364
1.0001364
1.0001364
1.0001365
1.0001365
1.0001366
1.0001366
1.0001366
1.0001367
1.0001367
1.0001368
1.0001368
1.0001368
1.0001369
1.0001369
1.0001369
1.0001369
1.000137
1.000137
1.000137
1.0001371
1.0001371
1.0001371
1.0001371
1.0001372
1.0001372
1.0001372
1.0001372
1.0001372
1.0001373
1.0001373
1.0001373
1.0001373
1.0001373
1.0001373
1.0001374
1.0001374
1.0001374
1.0001374
1.0001374
1.0001374
1.0001374
1.0001374
1.0001374
1.0001374
1.0001374
1.0001374
1.0001374
1.0001374
1.0001374
1.0001374
1.0001374
1.0001246
1.0001247
1.0001247
1.0001247
1.0001248
1.0001248
1.0001249
1.0001249
1.0001249
1.000125
1.000125
1.000125
1.0001251
1.0001251
1.0001251
1.0001251
1.0001252
1.0001252
1.0001252
1.0001253
1.0001253
1.0001253
1.0001253
1.0001254
1.0001254
1.0001254
1.0001254
1.0001255
1.0001255
1.0001255
1.0001255
1.0001255
1.0001256
1.0001256
1.0001256
1.0001256
1.0001256
1.0001256
1.0001257
1.0001257
1.0001257
1.0001257
1.0001257
1.0001257
1.0001257
1.0001257
1.0001257
1.0001257
1.0001258
1.0001258
1.0001258
1.0001258
1.0001258
1.0001258
1.0001258
1.0001258
1.0001258
1.0001258
1.0001258
1.000114
1.000114
1.0001141
1.0001141
1.0001141
1.0001141
1.0001142
1.0001142
1.0001142
1.0001143
1.0001143
1.0001143
1.0001143
1.0001144
1.0001144
1.0001144
1.0001144
1.0001145
1.0001145
1.0001145
1.0001145
1.0001145
1.0001146
1.0001146
1.0001146
1.0001146
1.0001146
1.0001147
1.0001147
1.0001147
1.0001147
1.0001147
1.0001147
1.0001148
1.0001148
1.0001148
1.0001148
1.0001148
1.0001148
1.0001148
1.0001148
1.0001148
1.0001149
1.0001149
1.0001149
1.0001149
1.0001149
1.0001149
1.0001149
1.0001149
1.0001149
1.0001149
1.0001149
1.0001149
1.0001149
1.0001149
1.0001149
1.0001149
1.0001149
1.000104
1.0001041
1.0001041
1.0001041
1.0001041
1.0001042
1.0001042
1.0001042
1.0001042
1.0001043
1.0001043
1.0001043
1.0001043
1.0001043
1.0001044
1.0001044
1.0001044
1.0001044
1.0001044
1.0001045
1.0001045
1.0001045
1.0001045
1.0001045
1.0001045
1.0001046
1.0001046
1.0001046
1.0001046
1.0001046
1.0001046
1.0001046
1.0001046
1.0001047
1.0001047
1.0001047
1.0001047
1.0001047
1.0001047
1.0001047
1.0001047
1.0001047
1.0001047
1.0001047
1.0001048
1.0001048
1.0001048
1.0001048
1.0001048
1.0001048
1.0001048
1.0001048
1.0001048
1.0001048
1.0001048
1.0001048
1.0001048
1.0001048
1.0001048
1.0000948
1.0000948
1.0000948
1.0000949
1.0000949
1.0000949
1.0000949
1.0000949
1.000095
1.000095
1.000095
1.000095
1.000095
1.000095
1.0000951
1.0000951
1.0000951
1.0000951
1.0000951
1.0000951
1.0000951
1.0000952
1.0000952
1.0000952
1.0000952
1.0000952
1.0000952
1.0000952
1.0000952
1.0000953
1.0000953
1.0000953
1.0000953
1.0000953
1.0000953
1.0000953
1.0000953
1.0000953
1.0000953
1.0000953
1.0000953
1.0000954
1.0000954
1.0000954
1.0000954
1.0000954
1.0000954
1.0000954
1.0000954
1.0000954
1.0000954
1.0000954
1.0000954
1.0000954
1.0000954
1.0000954
1.0000954
1.0000954
1.0000954
1.0000862
1.0000862
1.0000862
1.0000863
1.0000863
1.0000863
1.0000863
1.0000863
1.0000863
1.0000864
1.0000864
1.0000864
1.0000864
1.0000864
1.0000864
1.0000864
1.0000865
1.0000865
1.0000865
1.0000865
1.0000865
1.0000865
1.0000865
1.0000865
1.0000865
1.0000865
1.0000866
1.0000866
1.0000866
1.0000866
1.0000866
1.0000866
1.0000866
1.0000866
1.0000866
1.0000866
1.0000866
1.0000866
1.0000866
1.0000867
1.0000867
1.0000867
1.0000867
1.0000867
1.0000867
1.0000867
1.0000867
1.0000867
1.0000867
1.0000867
1.0000867
1.0000867
1.0000867
1.0000867
1.0000867
1.0000867
1.0000867
1.0000867
1.0000867
1.0000783
1.0000783
1.0000783
1.0000783
1.0000783
1.0000784
1.0000784
1.0000784
1.0000784
1.0000784
1.0000784
1.0000784
1.0000784
1.0000785
1.0000785
1.0000785
1.0000785
1.0000785
1.0000785
1.0000785
1.0000785
1.0000785
1.0000785
1.0000785
1.0000785
1.0000786
1.0000786
1.0000786
1.0000786
1.0000786
1.0000786
1.0000786
1.0000786
1.0000786
1.0000786
1.0000786
1.0000786
1.0000786
1.0000786
1.0000786
1.0000786
1.0000786
1.0000787
1.0000787
1.0000787
1.0000787
1.0000787
1.0000787
1.0000787
1.0000787
1.0000787
1.0000787
1.0000787
1.0000787
1.0000787
1.0000787
1.0000787
1.0000787
1.0000787
1.000071
1.000071
1.000071
1.000071
1.000071
1.000071
1.0000711
1.0000711
1.0000711
1.0000711
1.0000711
1.0000711
1.0000711
1.0000711
1.0000711
1.0000711
1.0000711
1.0000711
1.0000712
1.0000712
1.0000712
1.0000712
1.0000712
1.0000712
1.0000712
1.0000712
1.0000712
1.0000712
1.0000712
1.0000712
1.0000712
1.0000712
1.0000712
1.0000712
1.0000712
1.0000712
1.0000713
1.0000713
1.0000713
1.0000713
1.0000713
1.0000713
1.0000713
1.0000713
1.0000713
1.0000713
1.0000713
1.0000713
1.0000713
1.0000713
1.0000713
1.0000713
1.0000713
1.0000713
1.0000713
1.0000713
1.0000713
1.0000713
1.0000713
1.0000643
1.0000643
1.0000643
1.0000643
1.0000643
1.0000643
1.0000643
1.0000643
1.0000643
1.0000644
1.0000644
1.0000644
1.0000644
1.0000644
1.0000644
1.0000644
1.0000644
1.0000644
1.0000644
1.0000644
1.0000644
1.0000644
1.0000644
1.0000644
1.0000644
1.0000644
1.0000645
1.0000645
1.0000645
1.0000645
1.0000645
1.0000645
1.0000645
1.0000645
1.0000645
1.0000645
1.0000645
1.0000645
1.0000645
1.0000645
1.0000645
1.0000645
1.0000645
1.0000645
1.0000645
1.0000645
1.0000645
1.0000645
1.0000645
1.0000645
1.0000645
1.0000645
1.0000645
1.0000645
1.0000645
1.0000645
1.0000645
1.0000645
1.0000645
1.0000581
1.0000581
1.0000582
1.0000582
1.0000582
1.0000582
1.0000582
1.0000582
1.0000582
1.0000582
1.0000582
1.0000582
1.0000582
1.0000582
1.0000582
1.0000582
1.0000582
1.0000582
1.0000582
1.0000583
1.0000583
1.0000583
1.0000583
1.0000583
1.0000583
1.0000583
1.0000583
1.0000583
1.0000583
1.0000583
1.0000583
1.0000583
1.0000583
1.0000583
1.0000583
1.0000583
1.0000583
1.0000583
1.0000583
1.0000583
1.0000583
1.0000583
1.0000583
1.0000583
1.0000583
1.0000583
1.0000583
1.0000583
1.0000583
1.0000583
1.0000583
1.0000583
1.0000583
1.0000583
1.0000583
1.0000583
1.0000583
1.0000583
1.0000583
1.0000525
1.0000526
1.0000526
1.0000526
1.0000526
1.0000526
1.0000526
1.0000526
1.0000526
1.0000526
1.0000526
1.0000526
1.0000526
1.0000526
1.0000526
1.0000526
1.0000526
1.0000526
1.0000526
1.0000526
1.0000526
1.0000526
1.0000526
1.0000527
1.0000527
1.0000527
1.0000527
1.0000527
1.0000527
1.0000527
1.0000527
1.0000527
1.0000527
1.0000527
1.0000527
1.0000527
1.0000527
1.0000527
1.0000527
1.0000527
1.0000527
1.0000527
1.0000527
1.0000527
1.0000527
1.0000527
1.0000527
1.0000527
1.0000527
1.0000527
1.0000527
1.0000527
1.0000527
1.0000527
1.0000527
1.0000527
1.0000527
1.0000527
1.0000527
1.0000475
1.0000475
1.0000475
1.0000475
1.0000475
1.0000475
1.0000475
1.0000475
1.0000475
1.0000475
1.0000475
1.0000475
1.0000475
1.0000475
1.0000475
1.0000475
1.0000475
1.0000475
1.0000475
1.0000475
1.0000475
1.0000475
1.0000475
1.0000475
1.0000475
1.0000475
1.0000475
1.0000476
1.0000476
1.0000476
1.0000476
1.0000476
1.0000476
1.0000476
1.0000476
1.0000476
1.0000476
1.0000476
1.0000476
1.0000476
1.0000476
1.0000476
1.0000476
1.0000476
1.0000476
1.0000476
1.0000476
1.0000476
1.0000476
1.0000476
1.0000476
1.0000476
1.0000476
1.0000476
1.0000476
1.0000476
1.0000476
1.0000476
1.0000476
1.0000429
1.0000429
1.0000429
1.0000429
1.0000429
1.0000429
1.0000429
1.0000429
1.0000429
1.0000429
1.0000429
1.0000429
1.0000429
1.0000429
1.0000429
1.0000429
1.0000429
1.0000429
1.0000429
1.0000429
1.0000429
1.0000429
1.0000429
1.0000429
1.0000429
1.0000429
1.0000429
1.0000429
1.0000429
1.0000429
1.0000429
1.0000429
1.0000429
1.0000429
1.0000429
1.0000429
1.0000429
1.0000429
1.0000429
1.0000429
1.0000429
1.0000429
1.0000429
1.000043
1.000043
1.000043
1.000043
1.000043
1.000043
1.000043
1.000043
1.000043
1.000043
1.000043
1.000043
1.000043
1.000043
1.000043
1.000043
1.0000388
1.0000388
1.0000388
1.0000388
1.0000388
1.0000389
1.0000389
1.0000389
1.0000389
1.0000389
1.0000389
1.0000389
1.0000389
1.0000389
1.0000389
1.0000389
1.0000389
1.0000389
1.0000389
1.0000389
1.0000389
1.0000389
1.0000389
1.0000389
1.0000389
1.0000389
1.0000389
1.0000389
1.0000389
1.0000389
1.0000389
1.0000389
1.0000389
1.0000389
1.0000389
1.0000389
1.0000389
1.0000389
1.0000389
1.0000389
1.0000389
1.0000389
1.0000389
1.0000389
1.0000389
1.0000389
1.0000389
1.0000389
1.0000389
1.0000389
1.0000389
1.0000389
1.0000389
1.0000389
1.0000389
1.0000389
1.0000389
1.0000389
1.0000389
1.0001513
1.0001681
1.000187
1.0002076
1.0002302
1.0002549
1.0002818
1.000311
1.0003426
1.0003769
1.0004138
1.0004533
1.0004957
1.0005407
1.0005885
1.0006387
1.0006912
1.0007456
1.0008016
1.0008584
1.0009155
1.0009719
1.0010268
1.0010789
1.0011272
1.0011703
1.0012072
1.0012364
1.0012571
1.0012683
1.0012696
1.0012604
1.0012408
1.0012111
1.0011719
1.0011239
1.001068
1.0010055
1.0009375
1.0008652
1.0007897
1.0007119
1.0006329
1.0005535
1.0004744
1.0003965
1.0003201
1.0002458
1.0001738
1.0001045
1.0000379
0.99997421
0.9999134
0.9998556
0.99980078
0.99974888
0.99969985
0.99965362
0.99961013
0.99956927
0.99953094
0.99949499
0.9994613
0.99942977
0.99940027
0.99937268
0.9993469
0.99932281
0.9993003
0.99927927
0.99925964
0.99924129
0.99922419
0.99920818
1.0001513
1.0001681
1.000187
1.0002076
1.0002302
1.0002549
1.0002818
1.000311
1.0003426
1.0003769
1.0004138
1.0004533
1.0004957
1.0005407
1.0005885
1.0006387
1.0006912
1.0007456
1.0008016
1.0008584
1.0009155
1.0009719
1.0010268
1.0010789
1.0011272
1.0011704
1.0012072
1.0012364
1.0012571
1.0012684
1.0012696
1.0012604
1.0012408
1.0012111
1.0011719
1.0011239
1.001068
1.0010055
1.0009375
1.0008652
1.0007897
1.0007119
1.0006328
1.0005534
1.0004744
1.0003964
1.00032
1.0002457
1.0001738
1.0001045
1.0000379
0.99997419
0.99991338
0.99985558
0.99980076
0.99974886
0.99969983
0.9996536
0.99961011
0.99956926
0.99953093
0.99949498
0.9994613
0.99942976
0.99940026
0.99937267
0.99934689
0.9993228
0.99930029
0.99927926
0.99925963
0.99924129
0.99922419
0.99920816
1.0001513
1.0001681
1.000187
1.0002076
1.0002302
1.0002549
1.0002818
1.000311
1.0003426
1.0003769
1.0004138
1.0004533
1.0004957
1.0005407
1.0005885
1.0006387
1.0006912
1.0007456
1.0008016
1.0008584
1.0009155
1.0009719
1.0010268
1.0010789
1.0011272
1.0011704
1.0012072
1.0012365
1.0012571
1.0012684
1.0012696
1.0012605
1.0012408
1.0012112
1.0011719
1.0011239
1.0010681
1.0010055
1.0009375
1.0008652
1.0007897
1.0007119
1.0006329
1.0005535
1.0004744
1.0003965
1.0003201
1.0002458
1.0001738
1.0001045
1.0000379
0.99997417
0.99991336
0.99985556
0.99980074
0.99974885
0.99969982
0.9996536
0.9996101
0.99956925
0.99953093
0.99949499
0.99946131
0.99942978
0.99940029
0.99937272
0.99934694
0.99932286
0.99930037
0.99927936
0.99925974
0.9992414
0.9992243
0.99920824
1.0001513
1.0001681
1.000187
1.0002076
1.0002302
1.0002549
1.0002818
1.000311
1.0003426
1.0003769
1.0004137
1.0004533
1.0004957
1.0005407
1.0005885
1.0006387
1.0006912
1.0007456
1.0008016
1.0008584
1.0009155
1.0009719
1.0010268
1.0010789
1.0011272
1.0011704
1.0012072
1.0012365
1.0012571
1.0012684
1.0012697
1.0012605
1.0012409
1.0012112
1.001172
1.001124
1.0010681
1.0010056
1.0009376
1.0008653
1.0007898
1.000712
1.0006329
1.0005535
1.0004745
1.0003965
1.0003202
1.0002458
1.0001739
1.0001045
1.000038
0.99997422
0.99991342
0.99985562
0.9998008
0.99974891
0.99969989
0.99965367
0.99961019
0.99956934
0.99953101
0.99949506
0.99946138
0.99942984
0.99940034
0.99937276
0.99934698
0.99932289
0.99930039
0.99927937
0.99925975
0.99924142
0.99922432
0.99920833
1.0001513
1.0001681
1.000187
1.0002076
1.0002302
1.0002549
1.0002817
1.000311
1.0003426
1.0003769
1.0004137
1.0004533
1.0004957
1.0005407
1.0005884
1.0006387
1.0006912
1.0007456
1.0008016
1.0008584
1.0009155
1.0009719
1.0010268
1.0010789
1.0011272
1.0011704
1.0012072
1.0012365
1.0012572
1.0012685
1.0012697
1.0012606
1.001241
1.0012113
1.0011721
1.0011241
1.0010683
1.0010058
1.0009378
1.0008654
1.0007899
1.0007121
1.0006331
1.0005537
1.0004747
1.0003967
1.0003203
1.000246
1.000174
1.0001046
1.0000381
0.99997432
0.99991352
0.99985572
0.99980089
0.99974901
0.99969999
0.99965379
0.99961031
0.99956946
0.99953112
0.99949518
0.9994615
0.99942997
0.99940048
0.99937291
0.99934714
0.99932306
0.99930056
0.99927955
0.99925993
0.9992416
0.99922449
0.99920848
1.0001513
1.0001681
1.0001869
1.0002076
1.0002302
1.0002549
1.0002817
1.000311
1.0003426
1.0003769
1.0004137
1.0004533
1.0004957
1.0005407
1.0005884
1.0006387
1.0006912
1.0007456
1.0008015
1.0008584
1.0009155
1.0009719
1.0010268
1.0010789
1.0011272
1.0011704
1.0012072
1.0012366
1.0012572
1.0012685
1.0012699
1.0012607
1.0012411
1.0012115
1.0011723
1.0011243
1.0010685
1.001006
1.000938
1.0008657
1.0007901
1.0007123
1.0006333
1.0005539
1.0004749
1.0003969
1.0003205
1.0002462
1.0001742
1.0001048
1.0000382
0.9999745
0.99991371
0.9998559
0.99980108
0.99974919
0.99970019
0.99965399
0.99961051
0.99956967
0.99953134
0.99949539
0.99946171
0.99943018
0.99940068
0.9993731
0.99934732
0.99932324
0.99930074
0.99927972
0.99926009
0.99924176
0.99922464
0.99920862
1.0001513
1.0001681
1.0001869
1.0002076
1.0002302
1.0002549
1.0002817
1.0003109
1.0003426
1.0003768
1.0004137
1.0004533
1.0004956
1.0005407
1.0005884
1.0006386
1.0006911
1.0007456
1.0008015
1.0008584
1.0009155
1.0009719
1.0010268
1.0010789
1.0011273
1.0011704
1.0012073
1.0012366
1.0012573
1.0012687
1.00127
1.0012609
1.0012413
1.0012117
1.0011725
1.0011245
1.0010688
1.0010063
1.0009383
1.000866
1.0007904
1.0007126
1.0006336
1.0005542
1.0004752
1.0003972
1.0003208
1.0002465
1.0001745
1.0001051
1.0000385
0.99997479
0.99991399
0.99985618
0.99980136
0.99974947
0.99970047
0.99965427
0.99961081
0.99956996
0.99953162
0.99949568
0.999462
0.99943047
0.99940098
0.9993734
0.99934763
0.99932355
0.99930105
0.99928004
0.99926041
0.99924207
0.99922495
0.99920892
1.0001513
1.0001681
1.0001869
1.0002076
1.0002302
1.0002548
1.0002817
1.0003109
1.0003426
1.0003768
1.0004137
1.0004533
1.0004956
1.0005407
1.0005884
1.0006386
1.0006911
1.0007455
1.0008015
1.0008584
1.0009154
1.0009719
1.0010267
1.0010789
1.0011273
1.0011705
1.0012074
1.0012367
1.0012574
1.0012688
1.0012702
1.0012611
1.0012416
1.001212
1.0011729
1.0011249
1.0010692
1.0010067
1.0009387
1.0008664
1.0007909
1.0007131
1.0006341
1.0005547
1.0004757
1.0003977
1.0003213
1.000247
1.000175
1.0001056
1.000039
0.99997522
0.99991442
0.99985661
0.99980178
0.99974989
0.9997009
0.99965471
0.99961124
0.9995704
0.99953206
0.99949611
0.99946244
0.99943091
0.99940141
0.99937383
0.99934805
0.99932396
0.99930145
0.99928043
0.99926079
0.99924245
0.99922532
0.99920928
1.0001512
1.0001681
1.0001869
1.0002076
1.0002302
1.0002548
1.0002817
1.0003109
1.0003426
1.0003768
1.0004137
1.0004533
1.0004956
1.0005406
1.0005883
1.0006386
1.0006911
1.0007455
1.0008014
1.0008583
1.0009154
1.0009719
1.0010267
1.0010789
1.0011273
1.0011705
1.0012074
1.0012368
1.0012576
1.001269
1.0012705
1.0012615
1.001242
1.0012125
1.0011734
1.0011255
1.0010697
1.0010073
1.0009394
1.0008671
1.0007916
1.0007138
1.0006348
1.0005554
1.0004764
1.0003984
1.000322
1.0002477
1.0001756
1.0001062
1.0000396
0.99997584
0.99991504
0.99985722
0.99980239
0.9997505
0.9997015
0.99965531
0.99961185
0.999571
0.99953266
0.99949671
0.99946303
0.9994315
0.999402
0.99937442
0.99934864
0.99932455
0.99930204
0.99928102
0.99926138
0.99924303
0.9992259
0.99920986
1.0001512
1.0001681
1.0001869
1.0002076
1.0002302
1.0002548
1.0002817
1.0003109
1.0003426
1.0003768
1.0004136
1.0004532
1.0004955
1.0005406
1.0005883
1.0006385
1.000691
1.0007455
1.0008014
1.0008583
1.0009154
1.0009718
1.0010267
1.0010789
1.0011273
1.0011706
1.0012075
1.001237
1.0012578
1.0012693
1.0012708
1.0012619
1.0012425
1.0012131
1.001174
1.0011262
1.0010705
1.0010082
1.0009403
1.000868
1.0007925
1.0007147
1.0006357
1.0005563
1.0004773
1.0003994
1.000323
1.0002486
1.0001766
1.0001072
1.0000405
0.99997673
0.99991591
0.99985809
0.99980325
0.99975136
0.99970236
0.99965617
0.9996127
0.99957186
0.99953352
0.99949756
0.99946388
0.99943235
0.99940284
0.99937526
0.99934947
0.99932537
0.99930285
0.99928182
0.99926217
0.99924381
0.99922667
0.99921062
1.0001512
1.0001681
1.0001869
1.0002076
1.0002301
1.0002548
1.0002817
1.0003109
1.0003425
1.0003767
1.0004136
1.0004532
1.0004955
1.0005405
1.0005883
1.0006385
1.000691
1.0007454
1.0008013
1.0008582
1.0009153
1.0009718
1.0010267
1.0010789
1.0011273
1.0011706
1.0012077
1.0012372
1.0012581
1.0012697
1.0012713
1.0012625
1.0012432
1.0012139
1.0011749
1.0011272
1.0010716
1.0010093
1.0009415
1.0008693
1.0007938
1.000716
1.000637
1.0005577
1.0004787
1.0004007
1.0003243
1.0002499
1.0001779
1.0001084
1.0000418
0.99997797
0.99991714
0.9998593
0.99980445
0.99975256
0.99970355
0.99965735
0.99961388
0.99957303
0.99953468
0.99949872
0.99946503
0.99943349
0.99940398
0.99937639
0.99935059
0.99932649
0.99930396
0.99928292
0.99926327
0.9992449
0.99922774
0.99921168
1.0001512
1.000168
1.0001869
1.0002076
1.0002301
1.0002548
1.0002816
1.0003108
1.0003425
1.0003767
1.0004136
1.0004531
1.0004955
1.0005405
1.0005882
1.0006384
1.0006909
1.0007453
1.0008012
1.0008581
1.0009152
1.0009717
1.0010266
1.0010789
1.0011274
1.0011707
1.0012078
1.0012374
1.0012585
1.0012702
1.0012719
1.0012633
1.0012441
1.0012149
1.0011761
1.0011285
1.001073
1.0010108
1.0009431
1.0008709
1.0007955
1.0007178
1.0006388
1.0005594
1.0004805
1.0004025
1.0003261
1.0002517
1.0001796
1.0001102
1.0000435
0.99997966
0.99991882
0.99986096
0.9998061
0.99975419
0.99970518
0.99965897
0.99961549
0.99957463
0.99953627
0.9995003
0.99946661
0.99943506
0.99940554
0.99937793
0.99935213
0.99932801
0.99930548
0.99928442
0.99926475
0.99924637
0.9992292
0.99921312
1.0001512
1.000168
1.0001869
1.0002075
1.0002301
1.0002548
1.0002816
1.0003108
1.0003425
1.0003767
1.0004135
1.0004531
1.0004954
1.0005404
1.0005881
1.0006383
1.0006908
1.0007452
1.0008011
1.000858
1.0009151
1.0009716
1.0010266
1.0010789
1.0011274
1.0011708
1.001208
1.0012378
1.0012589
1.0012708
1.0012728
1.0012643
1.0012453
1.0012163
1.0011777
1.0011302
1.001075
1.0010129
1.0009452
1.0008732
1.0007978
1.0007201
1.0006412
1.0005619
1.0004829
1.0004049
1.0003285
1.0002541
1.000182
1.0001125
1.0000458
0.99998196
0.99992109
0.99986322
0.99980834
0.99975641
0.99970738
0.99966116
0.99961766
0.99957678
0.99953841
0.99950243
0.99946871
0.99943715
0.99940761
0.99937999
0.99935417
0.99933004
0.99930749
0.99928642
0.99926673
0.99924833
0.99923114
0.99921505
1.0001512
1.000168
1.0001869
1.0002075
1.0002301
1.0002547
1.0002816
1.0003108
1.0003424
1.0003766
1.0004135
1.000453
1.0004953
1.0005403
1.000588
1.0006382
1.0006907
1.0007451
1.000801
1.0008579
1.000915
1.0009715
1.0010265
1.0010789
1.0011274
1.001171
1.0012083
1.0012382
1.0012596
1.0012716
1.0012738
1.0012656
1.0012469
1.0012181
1.0011798
1.0011325
1.0010775
1.0010156
1.0009481
1.0008761
1.0008008
1.0007233
1.0006444
1.0005651
1.0004861
1.0004082
1.0003317
1.0002573
1.0001852
1.0001157
1.0000489
0.99998504
0.99992414
0.99986624
0.99981133
0.99975938
0.99971032
0.99966408
0.99962056
0.99957966
0.99954126
0.99950526
0.99947153
0.99943994
0.99941039
0.99938275
0.99935691
0.99933276
0.99931019
0.9992891
0.99926939
0.99925097
0.99923376
0.99921765
1.0001512
1.000168
1.0001868
1.0002075
1.0002301
1.0002547
1.0002816
1.0003107
1.0003424
1.0003766
1.0004134
1.0004529
1.0004952
1.0005402
1.0005879
1.0006381
1.0006905
1.0007449
1.0008009
1.0008577
1.0009148
1.0009714
1.0010264
1.0010788
1.0011275
1.0011712
1.0012086
1.0012387
1.0012603
1.0012727
1.0012752
1.0012672
1.0012489
1.0012205
1.0011824
1.0011355
1.0010807
1.0010191
1.0009518
1.00088
1.0008049
1.0007274
1.0006486
1.0005693
1.0004904
1.0004124
1.000336
1.0002615
1.0001894
1.0001198
1.000053
0.99998913
0.99992819
0.99987025
0.9998153
0.99976331
0.99971422
0.99966794
0.99962439
0.99958345
0.99954503
0.99950899
0.99947523
0.99944361
0.99941403
0.99938636
0.99936049
0.99933631
0.99931371
0.99929259
0.99927286
0.99925441
0.99923717
0.99922104
1.0001512
1.000168
1.0001868
1.0002075
1.00023
1.0002547
1.0002815
1.0003107
1.0003423
1.0003765
1.0004133
1.0004529
1.0004951
1.0005401
1.0005878
1.0006379
1.0006904
1.0007448
1.0008007
1.0008575
1.0009147
1.0009712
1.0010263
1.0010788
1.0011276
1.0011714
1.0012091
1.0012394
1.0012613
1.001274
1.0012769
1.0012694
1.0012515
1.0012235
1.0011859
1.0011394
1.001085
1.0010236
1.0009566
1.0008851
1.0008101
1.0007327
1.000654
1.0005748
1.000496
1.000418
1.0003416
1.0002671
1.0001949
1.0001253
1.0000585
0.9999945
0.99993351
0.99987551
0.99982051
0.99976847
0.99971933
0.999673
0.99962941
0.99958843
0.99954996
0.99951388
0.99948008
0.99944843
0.9994188
0.9993911
0.9993652
0.99934098
0.99931835
0.9992972
0.99927743
0.99925896
0.99924169
0.99922552
1.0001511
1.000168
1.0001868
1.0002074
1.00023
1.0002546
1.0002815
1.0003106
1.0003423
1.0003764
1.0004132
1.0004528
1.000495
1.00054
1.0005876
1.0006377
1.0006902
1.0007445
1.0008004
1.0008573
1.0009144
1.000971
1.0010261
1.0010787
1.0011276
1.0011717
1.0012096
1.0012402
1.0012625
1.0012757
1.0012791
1.0012721
1.0012548
1.0012274
1.0011903
1.0011443
1.0010904
1.0010295
1.0009629
1.0008916
1.0008168
1.0007397
1.0006611
1.000582
1.0005032
1.0004253
1.0003488
1.0002743
1.0002021
1.0001324
1.0000655
1.0000015
0.99994042
0.99988236
0.99982729
0.99977518
0.99972597
0.99967959
0.99963592
0.99959489
0.99955636
0.99952022
0.99948636
0.99945465
0.99942498
0.99939722
0.99937127