/*--------------------------------*- C++ -*----------------------------------*\
| =========                 |                                                 |
| \\      /  F ield         | OpenFOAM: The Open Source CFD Toolbox           |
|  \\    /   O peration     | Version:  v2006                                 |
|   \\  /    A nd           | Website:  www.openfoam.com                      |
|    \\/     M anipulation  |                                                 |
\*---------------------------------------------------------------------------*/
FoamFile
{
    version     2.0;
    format      ascii;
    class       volScalarField;
    location    "3000";
    object      rho;
}
// * * * * * * * * * * * * * * * * * * * * * * * * * * * * * * * * * * * * * //

dimensions      [1 -3 0 0 0 0 0];


internalField   nonuniform List<scalar> 
55713
(
1.0000234
1.0000221
1.0000214
1.0000211
1.000021
1.000021
1.000021
1.000021
1.000021
1.000021
1.000021
1.000021
1.000021
1.000021
1.000021
1.000021
1.000021
1.0000211
1.0000211
1.0000211
1.0000211
1.0000211
1.0000211
1.0000211
1.0000211
1.0000211
1.0000211
1.0000211
1.0000211
1.0000211
1.0000211
1.0000211
1.0000211
1.0000211
1.0000211
1.0000211
1.0000211
1.0000211
1.0000211
1.000021
1.000021
1.000021
1.000021
1.000021
1.000021
1.000021
1.000021
1.000021
1.000021
1.000021
1.000021
1.000021
1.000021
1.000021
1.000021
1.000021
1.000021
1.000021
1.000021
1.0000216
1.0000204
1.0000198
1.0000195
1.0000195
1.0000195
1.0000195
1.0000195
1.0000195
1.0000195
1.0000195
1.0000195
1.0000195
1.0000195
1.0000195
1.0000195
1.0000195
1.0000196
1.0000196
1.0000196
1.0000196
1.0000196
1.0000196
1.0000196
1.0000196
1.0000196
1.0000196
1.0000196
1.0000196
1.0000196
1.0000196
1.0000196
1.0000196
1.0000196
1.0000196
1.0000196
1.0000196
1.0000196
1.0000196
1.0000195
1.0000195
1.0000195
1.0000196
1.0000196
1.0000195
1.0000195
1.0000195
1.0000195
1.0000195
1.0000195
1.0000195
1.0000195
1.0000195
1.0000195
1.0000195
1.0000195
1.0000195
1.0000195
1.0000195
1.0000201
1.000019
1.0000184
1.0000182
1.0000182
1.0000182
1.0000182
1.0000182
1.0000182
1.0000182
1.0000182
1.0000182
1.0000182
1.0000182
1.0000182
1.0000182
1.0000183
1.0000183
1.0000183
1.0000183
1.0000183
1.0000183
1.0000183
1.0000183
1.0000183
1.0000183
1.0000183
1.0000183
1.0000183
1.0000183
1.0000183
1.0000183
1.0000183
1.0000183
1.0000183
1.0000183
1.0000183
1.0000183
1.0000183
1.0000183
1.0000183
1.0000183
1.0000183
1.0000183
1.0000183
1.0000183
1.0000182
1.0000182
1.0000182
1.0000182
1.0000183
1.0000183
1.0000182
1.0000182
1.0000182
1.0000182
1.0000182
1.0000182
1.0000182
1.0000187
1.0000177
1.0000172
1.000017
1.000017
1.0000171
1.0000171
1.0000171
1.0000171
1.0000171
1.0000171
1.0000171
1.0000171
1.0000171
1.0000171
1.0000171
1.0000171
1.0000171
1.0000172
1.0000172
1.0000171
1.0000171
1.0000171
1.0000171
1.0000171
1.0000172
1.0000172
1.0000172
1.0000172
1.0000172
1.0000172
1.0000172
1.0000172
1.0000171
1.0000171
1.0000171
1.0000172
1.0000172
1.0000171
1.0000171
1.0000171
1.0000171
1.0000171
1.0000171
1.0000171
1.0000171
1.0000171
1.0000171
1.0000171
1.0000171
1.0000171
1.0000171
1.0000171
1.0000171
1.0000171
1.0000171
1.0000171
1.0000171
1.0000171
1.0000175
1.0000166
1.0000162
1.0000161
1.0000161
1.0000161
1.0000161
1.0000161
1.0000161
1.0000161
1.0000161
1.0000161
1.0000161
1.0000161
1.0000161
1.0000161
1.0000162
1.0000162
1.0000162
1.0000162
1.0000162
1.0000161
1.0000161
1.0000162
1.0000162
1.0000162
1.0000162
1.0000162
1.0000162
1.0000162
1.0000162
1.0000162
1.0000162
1.0000162
1.0000162
1.0000162
1.0000162
1.0000162
1.0000162
1.0000162
1.0000162
1.0000162
1.0000162
1.0000162
1.0000162
1.0000162
1.0000161
1.0000161
1.0000161
1.0000161
1.0000162
1.0000162
1.0000161
1.0000161
1.0000161
1.0000161
1.0000161
1.0000161
1.0000161
1.0000165
1.0000156
1.0000153
1.0000152
1.0000152
1.0000153
1.0000153
1.0000153
1.0000153
1.0000153
1.0000153
1.0000153
1.0000153
1.0000153
1.0000153
1.0000153
1.0000153
1.0000154
1.0000153
1.0000153
1.0000153
1.0000153
1.0000153
1.0000153
1.0000153
1.0000154
1.0000154
1.0000154
1.0000154
1.0000154
1.0000154
1.0000154
1.0000153
1.0000153
1.0000153
1.0000153
1.0000153
1.0000153
1.0000153
1.0000153
1.0000153
1.0000153
1.0000153
1.0000153
1.0000153
1.0000153
1.0000153
1.0000153
1.0000153
1.0000153
1.0000153
1.0000153
1.0000153
1.0000153
1.0000153
1.0000153
1.0000153
1.0000153
1.0000153
1.0000156
1.0000148
1.0000145
1.0000145
1.0000145
1.0000145
1.0000145
1.0000145
1.0000145
1.0000145
1.0000145
1.0000145
1.0000145
1.0000145
1.0000146
1.0000146
1.0000146
1.0000146
1.0000146
1.0000146
1.0000146
1.0000146
1.0000146
1.0000146
1.0000146
1.0000146
1.0000146
1.0000146
1.0000146
1.0000146
1.0000146
1.0000146
1.0000146
1.0000146
1.0000146
1.0000146
1.0000146
1.0000146
1.0000146
1.0000146
1.0000146
1.0000146
1.0000146
1.0000146
1.0000146
1.0000146
1.0000146
1.0000145
1.0000145
1.0000145
1.0000146
1.0000146
1.0000146
1.0000146
1.0000145
1.0000145
1.0000145
1.0000145
1.0000145
1.0000148
1.000014
1.0000138
1.0000138
1.0000138
1.0000138
1.0000138
1.0000138
1.0000138
1.0000138
1.0000138
1.0000138
1.0000139
1.0000139
1.0000139
1.0000139
1.0000139
1.0000139
1.0000139
1.0000139
1.0000139
1.0000139
1.0000139
1.0000139
1.0000139
1.0000139
1.0000139
1.0000139
1.0000139
1.0000139
1.0000139
1.0000139
1.0000139
1.0000139
1.0000139
1.0000139
1.0000139
1.0000139
1.0000139
1.0000139
1.0000139
1.0000139
1.0000139
1.0000139
1.0000139
1.0000139
1.0000139
1.0000138
1.0000138
1.0000138
1.0000139
1.0000139
1.0000139
1.0000139
1.0000138
1.0000138
1.0000138
1.0000138
1.0000138
1.0000143
1.0000136
1.0000135
1.0000135
1.0000135
1.0000135
1.0000135
1.0000135
1.0000135
1.0000135
1.0000135
1.0000135
1.0000135
1.0000135
1.0000136
1.0000136
1.0000136
1.0000136
1.0000136
1.0000135
1.0000135
1.0000135
1.0000136
1.0000136
1.0000136
1.0000136
1.0000136
1.0000136
1.0000136
1.0000136
1.0000136
1.0000136
1.0000136
1.0000136
1.0000136
1.0000136
1.0000136
1.0000136
1.0000136
1.0000136
1.0000136
1.0000135
1.0000136
1.0000136
1.0000136
1.0000136
1.0000135
1.0000135
1.0000135
1.0000135
1.0000135
1.0000136
1.0000135
1.0000135
1.0000135
1.0000135
1.0000135
1.0000135
1.0000135
1.0000139
1.0000132
1.0000132
1.0000132
1.0000132
1.0000132
1.0000133
1.0000132
1.0000133
1.0000133
1.0000133
1.0000133
1.0000133
1.0000133
1.0000133
1.0000133
1.0000134
1.0000133
1.0000133
1.0000133
1.0000133
1.0000133
1.0000133
1.0000133
1.0000133
1.0000134
1.0000134
1.0000134
1.0000134
1.0000134
1.0000134
1.0000134
1.0000134
1.0000133
1.0000133
1.0000133
1.0000133
1.0000133
1.0000133
1.0000133
1.0000133
1.0000133
1.0000133
1.0000133
1.0000133
1.0000134
1.0000133
1.0000133
1.0000133
1.0000133
1.0000133
1.0000133
1.0000133
1.0000133
1.0000133
1.0000133
1.0000133
1.0000133
1.0000133
1.0000122
1.0000116
1.0000117
1.0000116
1.0000117
1.0000117
1.0000117
1.0000117
1.0000117
1.0000118
1.0000118
1.0000117
1.0000117
1.0000118
1.0000118
1.0000118
1.0000118
1.0000118
1.0000118
1.0000117
1.0000118
1.0000118
1.0000118
1.0000118
1.0000118
1.0000118
1.0000118
1.0000118
1.0000118
1.0000118
1.0000118
1.0000118
1.0000118
1.0000118
1.0000118
1.0000118
1.0000118
1.0000118
1.0000118
1.0000118
1.0000118
1.0000118
1.0000118
1.0000118
1.0000118
1.0000118
1.0000118
1.0000118
1.0000117
1.0000117
1.0000117
1.0000118
1.0000118
1.0000117
1.0000117
1.0000117
1.0000116
1.0000117
1.0000117
1.0000122
1.0000114
1.0000117
1.0000115
1.0000116
1.0000118
1.0000115
1.0000115
1.0000117
1.0000117
1.0000117
1.0000116
1.0000117
1.0000117
1.0000118
1.0000118
1.0000117
1.0000117
1.0000117
1.0000117
1.0000117
1.0000117
1.0000117
1.0000117
1.0000117
1.0000117
1.0000117
1.0000117
1.0000117
1.0000117
1.0000117
1.0000117
1.0000117
1.0000117
1.0000117
1.0000117
1.0000116
1.0000116
1.0000116
1.0000117
1.0000117
1.0000117
1.0000116
1.0000116
1.0000116
1.0000117
1.0000116
1.0000116
1.0000116
1.0000115
1.0000116
1.0000115
1.0000117
1.0000114
1.0000114
1.0000115
1.0000112
1.0000116
1.0000115
1.0000199
1.0000194
1.0000198
1.0000195
1.0000198
1.0000198
1.0000195
1.0000198
1.0000197
1.0000197
1.0000196
1.0000196
1.0000196
1.0000198
1.0000197
1.0000197
1.0000196
1.0000196
1.0000195
1.0000196
1.0000196
1.0000196
1.0000196
1.0000196
1.0000196
1.0000196
1.0000196
1.0000196
1.0000196
1.0000196
1.0000196
1.0000196
1.0000196
1.0000196
1.0000196
1.0000196
1.0000196
1.0000195
1.0000196
1.0000196
1.0000197
1.0000197
1.0000197
1.0000196
1.0000196
1.0000197
1.0000196
1.0000196
1.0000196
1.0000196
1.0000196
1.0000196
1.0000197
1.0000198
1.0000195
1.0000198
1.0000194
1.0000197
1.0000197
1.0000113
1.0000123
1.0000118
1.0000123
1.0000117
1.0000116
1.0000121
1.0000119
1.0000118
1.0000118
1.0000119
1.0000121
1.000012
1.0000118
1.0000117
1.0000117
1.0000118
1.000012
1.0000123
1.0000124
1.0000124
1.0000125
1.0000125
1.0000125
1.0000125
1.0000125
1.0000125
1.0000125
1.0000125
1.0000125
1.0000125
1.0000125
1.0000125
1.0000125
1.0000125
1.0000125
1.0000124
1.0000123
1.0000121
1.000012
1.0000119
1.0000118
1.0000118
1.0000117
1.0000116
1.0000115
1.0000118
1.0000119
1.0000118
1.0000118
1.0000116
1.0000116
1.0000114
1.0000117
1.000012
1.0000118
1.0000123
1.0000115
1.0000115
1.0000852
1.0000852
1.0000852
1.0000853
1.0000853
1.0000853
1.0000853
1.0000854
1.0000854
1.0000854
1.0000855
1.0000855
1.0000855
1.0000855
1.0000856
1.0000856
1.0000856
1.0000856
1.0000857
1.0000857
1.0000857
1.0000857
1.0000858
1.0000858
1.0000858
1.0000858
1.0000858
1.0000859
1.0000859
1.0000859
1.0000859
1.0000859
1.0000859
1.0000859
1.000086
1.000086
1.000086
1.000086
1.000086
1.000086
1.000086
1.000086
1.000086
1.000086
1.000086
1.000086
1.000086
1.000086
1.000086
1.000086
1.000086
1.0000861
1.0000862
1.0000864
1.0000869
1.0000879
1.0000897
1.0000928
1.000097
1.0000779
1.0000779
1.0000779
1.0000779
1.000078
1.000078
1.000078
1.000078
1.0000781
1.0000781
1.0000781
1.0000781
1.0000781
1.0000782
1.0000782
1.0000782
1.0000782
1.0000782
1.0000783
1.0000783
1.0000783
1.0000783
1.0000783
1.0000784
1.0000784
1.0000784
1.0000784
1.0000784
1.0000784
1.0000785
1.0000785
1.0000785
1.0000785
1.0000785
1.0000785
1.0000785
1.0000785
1.0000785
1.0000785
1.0000785
1.0000785
1.0000785
1.0000785
1.0000786
1.0000786
1.0000786
1.0000786
1.0000786
1.0000786
1.0000786
1.0000786
1.0000786
1.0000787
1.000079
1.0000794
1.0000803
1.0000819
1.0000848
1.0000886
1.0000711
1.0000711
1.0000711
1.0000711
1.0000712
1.0000712
1.0000712
1.0000712
1.0000712
1.0000713
1.0000713
1.0000713
1.0000713
1.0000713
1.0000713
1.0000714
1.0000714
1.0000714
1.0000714
1.0000714
1.0000714
1.0000715
1.0000715
1.0000715
1.0000715
1.0000715
1.0000715
1.0000716
1.0000716
1.0000716
1.0000716
1.0000716
1.0000716
1.0000716
1.0000716
1.0000716
1.0000716
1.0000716
1.0000716
1.0000716
1.0000716
1.0000716
1.0000716
1.0000716
1.0000716
1.0000717
1.0000717
1.0000717
1.0000716
1.0000716
1.0000717
1.0000717
1.0000718
1.000072
1.0000724
1.0000732
1.0000747
1.0000773
1.0000808
1.0000647
1.0000647
1.0000648
1.0000648
1.0000648
1.0000648
1.0000648
1.0000648
1.0000648
1.0000649
1.0000649
1.0000649
1.0000649
1.0000649
1.0000649
1.0000649
1.000065
1.000065
1.000065
1.000065
1.000065
1.000065
1.0000651
1.0000651
1.0000651
1.0000651
1.0000651
1.0000651
1.0000651
1.0000651
1.0000651
1.0000651
1.0000651
1.0000652
1.0000652
1.0000652
1.0000652
1.0000652
1.0000652
1.0000652
1.0000652
1.0000652
1.0000652
1.0000652
1.0000652
1.0000652
1.0000652
1.0000652
1.0000652
1.0000652
1.0000652
1.0000652
1.0000653
1.0000655
1.0000658
1.0000665
1.0000679
1.0000703
1.0000735
1.0000588
1.0000588
1.0000588
1.0000589
1.0000589
1.0000589
1.0000589
1.0000589
1.0000589
1.0000589
1.0000589
1.000059
1.000059
1.000059
1.000059
1.000059
1.000059
1.000059
1.000059
1.000059
1.0000591
1.0000591
1.0000591
1.0000591
1.0000591
1.0000591
1.0000591
1.0000591
1.0000591
1.0000592
1.0000592
1.0000592
1.0000592
1.0000592
1.0000592
1.0000592
1.0000592
1.0000592
1.0000592
1.0000592
1.0000592
1.0000592
1.0000592
1.0000592
1.0000592
1.0000592
1.0000592
1.0000592
1.0000592
1.0000592
1.0000592
1.0000592
1.0000593
1.0000594
1.0000597
1.0000604
1.0000616
1.0000638
1.0000667
1.0000533
1.0000533
1.0000533
1.0000534
1.0000534
1.0000534
1.0000534
1.0000534
1.0000534
1.0000534
1.0000534
1.0000534
1.0000534
1.0000535
1.0000535
1.0000535
1.0000535
1.0000535
1.0000535
1.0000535
1.0000535
1.0000535
1.0000536
1.0000536
1.0000536
1.0000536
1.0000536
1.0000536
1.0000536
1.0000536
1.0000536
1.0000536
1.0000536
1.0000536
1.0000536
1.0000536
1.0000536
1.0000536
1.0000536
1.0000536
1.0000536
1.0000536
1.0000536
1.0000536
1.0000536
1.0000536
1.0000536
1.0000536
1.0000536
1.0000536
1.0000536
1.0000536
1.0000537
1.0000538
1.0000541
1.0000546
1.0000558
1.0000578
1.0000604
1.0000482
1.0000483
1.0000483
1.0000483
1.0000483
1.0000483
1.0000483
1.0000483
1.0000483
1.0000483
1.0000483
1.0000483
1.0000484
1.0000484
1.0000484
1.0000484
1.0000484
1.0000484
1.0000484
1.0000484
1.0000484
1.0000484
1.0000484
1.0000485
1.0000485
1.0000485
1.0000485
1.0000485
1.0000485
1.0000485
1.0000485
1.0000485
1.0000485
1.0000485
1.0000485
1.0000485
1.0000485
1.0000485
1.0000485
1.0000485
1.0000485
1.0000485
1.0000485
1.0000485
1.0000485
1.0000485
1.0000485
1.0000485
1.0000485
1.0000485
1.0000485
1.0000485
1.0000485
1.0000486
1.0000489
1.0000494
1.0000504
1.0000522
1.0000546
1.0000436
1.0000436
1.0000436
1.0000436
1.0000436
1.0000436
1.0000436
1.0000436
1.0000436
1.0000436
1.0000436
1.0000437
1.0000437
1.0000437
1.0000437
1.0000437
1.0000437
1.0000437
1.0000437
1.0000437
1.0000437
1.0000437
1.0000437
1.0000437
1.0000438
1.0000438
1.0000438
1.0000438
1.0000438
1.0000438
1.0000438
1.0000438
1.0000438
1.0000438
1.0000438
1.0000438
1.0000438
1.0000438
1.0000438
1.0000438
1.0000438
1.0000438
1.0000438
1.0000438
1.0000438
1.0000438
1.0000438
1.0000438
1.0000438
1.0000438
1.0000438
1.0000437
1.0000438
1.0000439
1.0000441
1.0000445
1.0000454
1.0000471
1.0000493
1.0000393
1.0000393
1.0000393
1.0000393
1.0000393
1.0000393
1.0000393
1.0000393
1.0000393
1.0000393
1.0000393
1.0000393
1.0000393
1.0000393
1.0000394
1.0000394
1.0000394
1.0000394
1.0000394
1.0000394
1.0000394
1.0000394
1.0000394
1.0000394
1.0000394
1.0000394
1.0000394
1.0000394
1.0000394
1.0000394
1.0000395
1.0000395
1.0000394
1.0000394
1.0000394
1.0000395
1.0000395
1.0000395
1.0000395
1.0000394
1.0000394
1.0000394
1.0000394
1.0000394
1.0000394
1.0000394
1.0000394
1.0000394
1.0000394
1.0000394
1.0000394
1.0000394
1.0000394
1.0000395
1.0000396
1.00004
1.0000408
1.0000424
1.0000444
1.0000353
1.0000353
1.0000353
1.0000353
1.0000353
1.0000353
1.0000354
1.0000354
1.0000354
1.0000354
1.0000354
1.0000354
1.0000354
1.0000354
1.0000354
1.0000354
1.0000354
1.0000354
1.0000354
1.0000354
1.0000354
1.0000354
1.0000355
1.0000355
1.0000355
1.0000355
1.0000355
1.0000355
1.0000355
1.0000355
1.0000355
1.0000355
1.0000355
1.0000355
1.0000355
1.0000355
1.0000355
1.0000355
1.0000355
1.0000355
1.0000355
1.0000355
1.0000355
1.0000355
1.0000355
1.0000355
1.0000355
1.0000355
1.0000355
1.0000355
1.0000354
1.0000354
1.0000354
1.0000355
1.0000356
1.0000359
1.0000366
1.000038
1.0000399
1.0000317
1.0000317
1.0000317
1.0000317
1.0000317
1.0000318
1.0000318
1.0000318
1.0000318
1.0000318
1.0000318
1.0000318
1.0000318
1.0000318
1.0000318
1.0000318
1.0000318
1.0000318
1.0000318
1.0000318
1.0000318
1.0000318
1.0000319
1.0000319
1.0000319
1.0000319
1.0000319
1.0000319
1.0000319
1.0000319
1.0000319
1.0000319
1.0000319
1.0000319
1.0000319
1.0000319
1.0000319
1.0000319
1.0000319
1.0000319
1.0000319
1.0000319
1.0000319
1.0000318
1.0000318
1.0000318
1.0000318
1.0000319
1.0000319
1.0000318
1.0000318
1.0000318
1.0000318
1.0000318
1.000032
1.0000322
1.0000328
1.0000341
1.0000358
1.0000285
1.0000285
1.0000285
1.0000285
1.0000285
1.0000285
1.0000285
1.0000285
1.0000285
1.0000285
1.0000285
1.0000285
1.0000285
1.0000285
1.0000285
1.0000285
1.0000285
1.0000285
1.0000285
1.0000285
1.0000286
1.0000286
1.0000286
1.0000286
1.0000286
1.0000286
1.0000286
1.0000286
1.0000286
1.0000286
1.0000286
1.0000286
1.0000286
1.0000286
1.0000286
1.0000286
1.0000286
1.0000286
1.0000286
1.0000286
1.0000286
1.0000286
1.0000286
1.0000286
1.0000286
1.0000286
1.0000286
1.0000286
1.0000286
1.0000286
1.0000285
1.0000285
1.0000285
1.0000285
1.0000286
1.0000288
1.0000294
1.0000305
1.000032
1.0000255
1.0000255
1.0000255
1.0000255
1.0000255
1.0000255
1.0000255
1.0000255
1.0000255
1.0000255
1.0000255
1.0000255
1.0000255
1.0000255
1.0000256
1.0000256
1.0000256
1.0000256
1.0000256
1.0000256
1.0000256
1.0000256
1.0000256
1.0000256
1.0000256
1.0000256
1.0000256
1.0000256
1.0000256
1.0000256
1.0000256
1.0000256
1.0000256
1.0000256
1.0000256
1.0000256
1.0000256
1.0000256
1.0000256
1.0000256
1.0000256
1.0000256
1.0000256
1.0000256
1.0000256
1.0000256
1.0000256
1.0000256
1.0000256
1.0000256
1.0000256
1.0000256
1.0000255
1.0000256
1.0000256
1.0000258
1.0000262
1.0000272
1.0000286
1.0000229
1.0000229
1.0000229
1.0000229
1.0000229
1.0000229
1.0000229
1.000023
1.000023
1.000023
1.000023
1.000023
1.000023
1.000023
1.000023
1.000023
1.000023
1.000023
1.000023
1.000023
1.000023
1.000023
1.000023
1.000023
1.000023
1.000023
1.000023
1.000023
1.000023
1.000023
1.0000231
1.000023
1.000023
1.000023
1.000023
1.000023
1.000023
1.000023
1.000023
1.000023
1.000023
1.000023
1.000023
1.000023
1.000023
1.000023
1.000023
1.000023
1.000023
1.000023
1.000023
1.000023
1.000023
1.000023
1.000023
1.0000231
1.0000235
1.0000243
1.0000257
1.000107
1.0001192
1.0001329
1.0001479
1.0001643
1.0001822
1.0002017
1.0002229
1.000246
1.0002709
1.0002977
1.0003264
1.0003571
1.0003897
1.000424
1.00046
1.0004974
1.0005359
1.000575
1.0006143
1.0006531
1.0006907
1.0007263
1.0007589
1.0007874
1.0008109
1.0008284
1.0008387
1.0008412
1.0008358
1.0008211
1.0007973
1.0007647
1.0007227
1.0006729
1.0006163
1.0005535
1.0004842
1.0004114
1.000335
1.0002553
1.0001744
1.0000935
1.0000131
0.99993379
0.99985584
0.9997804
0.99970764
0.99963718
0.99956927
0.9995039
0.99944161
0.99938256
0.9993266
0.99927365
0.99922365
0.99917656
0.99913219
0.9990907
0.99905201
0.99901568
0.99898159
0.99894975
0.99892002
0.99889227
0.99886639
0.99884228
0.99881982
0.99879892
0.99877946
0.99876136
0.9987445
0.99872885
0.99871423
1.0001025
1.0001143
1.0001276
1.0001423
1.0001582
1.0001758
1.0001948
1.0002156
1.0002381
1.0002624
1.0002886
1.0003167
1.0003467
1.0003786
1.0004123
1.0004476
1.0004843
1.0005222
1.0005608
1.0005997
1.0006382
1.0006757
1.0007112
1.0007441
1.0007731
1.0007973
1.000816
1.0008276
1.0008318
1.0008284
1.000816
1.0007948
1.0007651
1.0007268
1.0006803
1.0006267
1.0005671
1.0005021
1.000433
1.0003605
1.0002852
1.0002082
1.0001307
1.0000534
0.9999768
0.99990169
0.99982862
0.99975765
0.99968892
0.99962235
0.99955782
0.9994967
0.99943918
0.99938476
0.99933327
0.99928463
0.99923879
0.99919559
0.9991552
0.99911755
0.99908217
0.99904894
0.99901788
0.99898888
0.99896179
0.99893651
0.99891292
0.99889094
0.99887047
0.9988514
0.99883365
0.9988171
0.99880173
0.99878736
1.0000991
1.0001105
1.0001235
1.0001377
1.0001532
1.0001702
1.0001888
1.000209
1.0002308
1.0002545
1.00028
1.0003073
1.0003365
1.0003676
1.0004004
1.0004348
1.0004706
1.0005076
1.0005453
1.0005834
1.0006211
1.0006578
1.0006928
1.0007253
1.0007541
1.0007783
1.0007972
1.0008094
1.0008145
1.0008124
1.0008017
1.0007824
1.000755
1.0007196
1.0006763
1.0006261
1.0005699
1.0005085
1.0004431
1.0003745
1.0003033
1.0002305
1.0001572
1.000084
1.0000114
0.99993996
0.99987048
0.99980324
0.99973808
0.99967526
0.9996148
0.999557
0.99950211
0.99945003
0.99940072
0.99935412
0.99931021
0.99926873
0.99923064
0.99919517
0.99916165
0.99912954
0.99909933
0.99907112
0.99904482
0.99902032
0.9989975
0.99897625
0.99895646
0.99893805
0.99892093
0.99890493
0.99889
0.99887598
1.0000971
1.0001083
1.0001209
1.0001348
1.0001499
1.0001665
1.0001846
1.0002043
1.0002256
1.0002487
1.0002736
1.0003002
1.0003287
1.000359
1.000391
1.0004245
1.0004595
1.0004955
1.0005323
1.0005693
1.0006061
1.0006419
1.000676
1.0007077
1.0007358
1.0007594
1.0007779
1.0007898
1.0007949
1.000793
1.0007827
1.0007642
1.0007377
1.0007036
1.0006619
1.0006135
1.0005595
1.0005004
1.0004375
1.0003714
1.000303
1.0002331
1.0001628
1.0000926
1.0000231
0.99995473
0.99988816
0.99982374
0.99976135
0.99970125
0.9996435
0.99958833
0.99953592
0.99948621
0.99943913
0.99939467
0.99935269
0.99931372
0.99927702
0.99924236
0.99920969
0.99917908
0.99915047
0.99912375
0.99909879
0.9990755
0.9990538
0.99903357
0.99901473
0.99899717
0.99898084
0.9989656
0.99895146
0.99893828
1.000096
1.000107
1.0001194
1.000133
1.0001479
1.0001642
1.0001819
1.0002012
1.0002222
1.0002448
1.0002692
1.0002953
1.0003232
1.0003529
1.0003842
1.000417
1.0004512
1.0004864
1.0005223
1.0005585
1.0005943
1.0006292
1.0006624
1.0006931
1.0007203
1.0007431
1.0007608
1.000772
1.0007765
1.0007741
1.0007635
1.0007449
1.0007184
1.0006844
1.0006431
1.0005952
1.0005419
1.0004837
1.0004217
1.0003568
1.0002896
1.0002211
1.0001523
1.0000836
1.0000157
0.99994887
0.99988391
0.99982107
0.99976027
0.99970175
0.99964556
0.99959193
0.999541
0.99949273
0.99944705
0.99940391
0.99936326
0.99932499
0.99928914
0.99925561
0.99922418
0.99919469
0.99916708
0.99914129
0.9991172
0.99909471
0.99907374
0.99905418
0.99903595
0.99901897
0.99900316
0.99898841
0.99897483
0.99896214
1.0000954
1.0001062
1.0001185
1.000132
1.0001467
1.0001627
1.0001802
1.0001993
1.0002199
1.0002422
1.0002662
1.000292
1.0003194
1.0003486
1.0003794
1.0004117
1.0004452
1.0004798
1.000515
1.0005504
1.0005855
1.0006196
1.0006519
1.0006818
1.0007081
1.00073
1.000747
1.0007574
1.0007611
1.000758
1.0007468
1.0007276
1.0007006
1.0006662
1.0006245
1.0005765
1.000523
1.0004648
1.0004029
1.0003381
1.0002711
1.0002029
1.0001344
1.0000661
0.99999864
0.99993236
0.9998679
0.99980557
0.99974532
0.99968736
0.99963177
0.99957873
0.99952838
0.99948067
0.99943554
0.99939293
0.99935281
0.99931506
0.99927967
0.99924659
0.99921557
0.99918647
0.99915925
0.99913381
0.99911006
0.9990879
0.99906723
0.99904796
0.99903
0.99901327
0.99899768
0.99898322
0.99896978
0.9989572
1.000095
1.0001058
1.000118
1.0001313
1.0001459
1.0001618
1.0001792
1.000198
1.0002185
1.0002405
1.0002643
1.0002897
1.0003169
1.0003457
1.0003761
1.0004079
1.000441
1.0004751
1.0005097
1.0005446
1.000579
1.0006125
1.0006441
1.0006733
1.0006989
1.0007201
1.0007363
1.000746
1.000749
1.0007452
1.0007333
1.0007135
1.0006859
1.0006509
1.0006088
1.0005603
1.0005063
1.0004478
1.0003855
1.0003204
1.0002532
1.0001848
1.0001161
1.0000477
0.99998013
0.9999138
0.99984929
0.9997869
0.99972664
0.99966869
0.99961315
0.99956018
0.99950988
0.99946222
0.99941716
0.99937463
0.99933459
0.99929693
0.99926162
0.99922857
0.9991976
0.99916858
0.99914145
0.9991161
0.99909243
0.99907035
0.99904975
0.99903055
0.99901266
0.99899599
0.99898046
0.99896599
0.99895253
0.99893996
1.0000949
1.0001056
1.0001177
1.000131
1.0001455
1.0001613
1.0001785
1.0001973
1.0002175
1.0002394
1.000263
1.0002882
1.0003151
1.0003437
1.0003738
1.0004053
1.000438
1.0004717
1.000506
1.0005404
1.0005744
1.0006073
1.0006384
1.000667
1.0006921
1.0007127
1.0007283
1.0007374
1.0007399
1.0007355
1.0007231
1.0007027
1.0006746
1.0006391
1.0005964
1.0005475
1.0004931
1.0004342
1.0003715
1.0003061
1.0002385
1.0001698
1.0001009
1.0000322
0.99996437
0.99989783
0.99983311
0.9997705
0.99971006
0.99965195
0.99959629
0.99954321
0.9994928
0.99944504
0.99939988
0.99935727
0.99931715
0.99927944
0.99924406
0.99921092
0.99917989
0.99915083
0.99912364
0.99909825
0.99907454
0.99905241
0.99903178
0.99901254
0.99899461
0.99897791
0.99896236
0.99894787
0.99893438
0.99892179
1.0000948
1.0001055
1.0001176
1.0001308
1.0001452
1.000161
1.0001781
1.0001967
1.0002169
1.0002387
1.0002621
1.0002872
1.0003139
1.0003423
1.0003722
1.0004034
1.0004359
1.0004693
1.0005033
1.0005374
1.000571
1.0006036
1.0006343
1.0006625
1.0006872
1.0007074
1.0007226
1.0007312
1.0007332
1.0007285
1.0007156
1.0006948
1.0006663
1.0006304
1.0005874
1.0005381
1.0004834
1.0004241
1.0003612
1.0002955
1.0002277
1.0001588
1.0000895
1.0000206
0.99995261
0.99988589
0.99982097
0.99975817
0.99969755
0.99963929
0.99958351
0.99953032
0.99947979
0.99943192
0.99938667
0.99934397
0.99930377
0.99926597
0.99923052
0.99919729
0.99916618
0.99913705
0.99910981
0.99908437
0.99906061
0.99903845
0.99901779
0.99899853
0.99898058
0.99896385
0.99894828
0.99893376
0.99892025
0.99890763
1.0000948
1.0001055
1.0001175
1.0001307
1.0001451
1.0001608
1.0001779
1.0001964
1.0002165
1.0002382
1.0002615
1.0002865
1.0003131
1.0003413
1.000371
1.0004021
1.0004344
1.0004676
1.0005014
1.0005352
1.0005686
1.0006009
1.0006314
1.0006593
1.0006836
1.0007035
1.0007184
1.0007268
1.0007285
1.0007235
1.0007103
1.0006892
1.0006605
1.0006244
1.0005812
1.0005317
1.0004767
1.0004173
1.0003541
1.0002882
1.0002202
1.0001512
1.0000818
1.0000128
0.99994459
0.99987775
0.99981271
0.99974976
0.99968903
0.99963067
0.99957481
0.99952154
0.99947095
0.99942301
0.99937768
0.99933493
0.99929467
0.99925682
0.99922131
0.99918802
0.99915685
0.99912768
0.99910041
0.99907493
0.99905114
0.99902895
0.99900825
0.99898896
0.99897098
0.99895422
0.99893862
0.99892408
0.99891055
0.99889792
1.0000948
1.0001055
1.0001175
1.0001306
1.000145
1.0001606
1.0001777
1.0001962
1.0002163
1.0002379
1.0002611
1.000286
1.0003125
1.0003406
1.0003702
1.0004012
1.0004334
1.0004664
1.0005
1.0005337
1.0005669
1.000599
1.0006293
1.000657
1.0006811
1.0007008
1.0007155
1.0007238
1.0007252
1.00072
1.0007067
1.0006855
1.0006566
1.0006204
1.0005771
1.0005275
1.0004724
1.0004129
1.0003496
1.0002836
1.0002156
1.0001464
1.0000769
1.0000078
0.99993959
0.99987269
0.99980757
0.99974453
0.99968372
0.9996253
0.99956939
0.99951609
0.99946544
0.99941746
0.9993721
0.9993293
0.99928901
0.99925113
0.99921558
0.99918225
0.99915105
0.99912185
0.99909455
0.99906904
0.99904524
0.99902303
0.99900232
0.99898301
0.99896502
0.99894826
0.99893265
0.9989181
0.99890455
0.99889191
1.0000948
1.0001054
1.0001174
1.0001306
1.0001449
1.0001606
1.0001776
1.0001961
1.0002161
1.0002376
1.0002608
1.0002857
1.0003121
1.0003402
1.0003697
1.0004006
1.0004326
1.0004656
1.000499
1.0005326
1.0005657
1.0005977
1.0006278
1.0006554
1.0006794
1.000699
1.0007136
1.0007216
1.000723
1.0007178
1.0007044
1.0006832
1.0006543
1.000618
1.0005747
1.0005251
1.00047
1.0004104
1.0003471
1.0002811
1.000213
1.0001438
1.0000744
1.0000052
0.99993693
0.99986999
0.99980482
0.99974172
0.99968086
0.9996224
0.99956646
0.99951313
0.99946246
0.99941445
0.99936906
0.99932624
0.99928592
0.99924802
0.99921244
0.99917909
0.99914785
0.99911863
0.99909131
0.99906579
0.99904197
0.99901975
0.99899902
0.9989797
0.99896169
0.99894492
0.99892929
0.99891473
0.99890117
0.99888852
1.0000948
1.0001054
1.0001174
1.0001306
1.0001449
1.0001605
1.0001775
1.000196
1.0002159
1.0002375
1.0002606
1.0002854
1.0003118
1.0003398
1.0003693
1.0004001
1.0004321
1.000465
1.0004983
1.0005318
1.0005648
1.0005967
1.0006267
1.0006543
1.0006782
1.0006977
1.0007123
1.0007203
1.0007217
1.0007166
1.0007032
1.000682
1.0006531
1.0006169
1.0005736
1.0005241
1.0004691
1.0004095
1.0003463
1.0002802
1.0002122
1.000143
1.0000735
1.0000044
0.99993607
0.99986911
0.9998039
0.99974076
0.99967986
0.99962136
0.9995654
0.99951205
0.99946136
0.99941333
0.99936791
0.99932507
0.99928473
0.9992468
0.9992112
0.99917783
0.99914657
0.99911733
0.99908999
0.99906445
0.99904062
0.99901838
0.99899764
0.99897831
0.99896029
0.99894351
0.99892787
0.9989133
0.99889974
0.99888708
1.0000948
1.0001054
1.0001174
1.0001305
1.0001449
1.0001605
1.0001775
1.0001959
1.0002159
1.0002374
1.0002605
1.0002853
1.0003116
1.0003396
1.000369
1.0003998
1.0004317
1.0004645
1.0004978
1.0005312
1.0005642
1.000596
1.000626
1.0006535
1.0006775
1.000697
1.0007116
1.0007195
1.000721
1.000716
1.0007028
1.0006817
1.000653
1.0006169
1.0005738
1.0005243
1.0004695
1.00041
1.0003468
1.0002808
1.0002128
1.0001437
1.0000742
1.0000051
0.99993674
0.99986977
0.99980454
0.99974135
0.99968041
0.99962188
0.9995659
0.99951252
0.9994618
0.99941374
0.9993683
0.99932543
0.99928505
0.9992471
0.99921147
0.99917807
0.99914679
0.99911752
0.99909016
0.99906461
0.99904075
0.9990185
0.99899774
0.99897839
0.99896036
0.99894356
0.99892791
0.99891333
0.99889975
0.99888708
1.0000948
1.0001054
1.0001174
1.0001305
1.0001448
1.0001604
1.0001774
1.0001959
1.0002158
1.0002373
1.0002604
1.0002851
1.0003115
1.0003394
1.0003688
1.0003995
1.0004314
1.0004642
1.0004974
1.0005308
1.0005637
1.0005955
1.0006255
1.000653
1.000677
1.0006965
1.0007114
1.000719
1.0007209
1.0007161
1.000703
1.0006822
1.0006537
1.0006178
1.0005749
1.0005257
1.000471
1.0004116
1.0003486
1.0002827
1.0002147
1.0001457
1.0000762
1.0000071
0.99993878
0.9998718
0.99980654
0.99974331
0.99968233
0.99962376
0.99956774
0.99951433
0.99946358
0.99941547
0.99936999
0.99932708
0.99928668
0.99924869
0.99921302
0.99917958
0.99914827
0.99911897
0.99909159
0.999066
0.99904212
0.99901985
0.99899907
0.9989797
0.99896165
0.99894483
0.99892917
0.99891457
0.99890097
0.99888829
1.0000948
1.0001054
1.0001174
1.0001305
1.0001448
1.0001604
1.0001774
1.0001958
1.0002158
1.0002372
1.0002603
1.000285
1.0003113
1.0003392
1.0003686
1.0003993
1.0004311
1.0004639
1.0004971
1.0005305
1.0005634
1.0005952
1.0006252
1.0006527
1.0006768
1.0006964
1.0007113
1.0007193
1.0007214
1.0007167
1.0007039
1.0006833
1.0006551
1.0006195
1.0005769
1.000528
1.0004736
1.0004144
1.0003515
1.0002858
1.000218
1.000149
1.0000796
1.0000105
0.9999422
0.99987521
0.99980992
0.99974665
0.99968563
0.99962701
0.99957094
0.99951749
0.99946669
0.99941854
0.99937301
0.99933005
0.99928959
0.99925156
0.99921585
0.99918237
0.99915101
0.99912168
0.99909425
0.99906864
0.99904472
0.99902242
0.99900161
0.99898222
0.99896414
0.9989473
0.99893161
0.99891699
0.99890338
0.99889068
1.0000947
1.0001054
1.0001174
1.0001305
1.0001448
1.0001604
1.0001774
1.0001958
1.0002157
1.0002372
1.0002602
1.0002849
1.0003112
1.0003391
1.0003684
1.0003991
1.0004309
1.0004636
1.0004969
1.0005302
1.0005631
1.000595
1.000625
1.0006526
1.0006767
1.0006965
1.0007116
1.0007198
1.0007222
1.0007178
1.0007054
1.0006852
1.0006574
1.0006222
1.00058
1.0005315
1.0004774
1.0004185
1.0003559
1.0002903
1.0002227
1.0001538
1.0000845
1.0000154
0.99994714
0.99988013
0.99981481
0.99975148
0.9996904
0.99963173
0.99957559
0.99952208
0.99947121
0.99942299
0.9993774
0.99933438
0.99929386