/*--------------------------------*- C++ -*----------------------------------*\
| =========                 |                                                 |
| \\      /  F ield         | OpenFOAM: The Open Source CFD Toolbox           |
|  \\    /   O peration     | Version:  v2006                                 |
|   \\  /    A nd           | Website:  www.openfoam.com                      |
|    \\/     M anipulation  |                                                 |
\*---------------------------------------------------------------------------*/
FoamFile
{
    version     2.0;
    format      ascii;
    class       volScalarField;
    location    "3000";
    object      T;
}
// * * * * * * * * * * * * * * * * * * * * * * * * * * * * * * * * * * * * * //

dimensions      [0 0 0 1 0 0 0];


internalField   nonuniform List<scalar> 
55713
(
1.0000065
1.0000077
1.0000085
1.0000088
1.0000089
1.0000089
1.0000089
1.0000089
1.0000089
1.0000089
1.0000089
1.0000089
1.0000089
1.0000088
1.0000088
1.0000088
1.0000087
1.0000087
1.0000087
1.0000088
1.0000088
1.0000088
1.0000088
1.0000088
1.0000088
1.0000088
1.0000088
1.0000088
1.0000088
1.0000088
1.0000088
1.0000088
1.0000088
1.0000088
1.0000088
1.0000088
1.0000088
1.0000088
1.0000088
1.0000088
1.0000088
1.0000088
1.0000088
1.0000088
1.0000088
1.0000088
1.0000088
1.0000088
1.0000088
1.0000088
1.0000088
1.0000088
1.0000089
1.0000089
1.0000089
1.0000089
1.0000089
1.0000089
1.0000089
1.0000061
1.0000073
1.000008
1.0000082
1.0000083
1.0000083
1.0000083
1.0000082
1.0000083
1.0000083
1.0000083
1.0000083
1.0000083
1.0000082
1.0000082
1.0000081
1.0000081
1.0000081
1.0000081
1.0000082
1.0000082
1.0000082
1.0000082
1.0000082
1.0000082
1.0000082
1.0000082
1.0000082
1.0000082
1.0000082
1.0000082
1.0000082
1.0000082
1.0000082
1.0000082
1.0000082
1.0000082
1.0000082
1.0000082
1.0000082
1.0000082
1.0000082
1.0000082
1.0000082
1.0000082
1.0000082
1.0000083
1.0000083
1.0000083
1.0000083
1.0000082
1.0000082
1.0000083
1.0000083
1.0000083
1.0000083
1.0000083
1.0000083
1.0000083
1.0000059
1.000007
1.0000075
1.0000077
1.0000078
1.0000077
1.0000077
1.0000077
1.0000077
1.0000077
1.0000078
1.0000078
1.0000077
1.0000077
1.0000076
1.0000076
1.0000076
1.0000076
1.0000076
1.0000076
1.0000077
1.0000077
1.0000077
1.0000077
1.0000077
1.0000077
1.0000077
1.0000077
1.0000077
1.0000077
1.0000077
1.0000077
1.0000077
1.0000077
1.0000077
1.0000077
1.0000077
1.0000077
1.0000077
1.0000077
1.0000077
1.0000077
1.0000077
1.0000077
1.0000077
1.0000077
1.0000077
1.0000077
1.0000077
1.0000077
1.0000077
1.0000077
1.0000077
1.0000077
1.0000078
1.0000078
1.0000078
1.0000078
1.0000078
1.0000056
1.0000066
1.0000071
1.0000073
1.0000073
1.0000073
1.0000073
1.0000073
1.0000073
1.0000073
1.0000073
1.0000073
1.0000072
1.0000072
1.0000072
1.0000072
1.0000072
1.0000072
1.0000072
1.0000072
1.0000072
1.0000072
1.0000072
1.0000072
1.0000072
1.0000072
1.0000072
1.0000072
1.0000072
1.0000072
1.0000072
1.0000072
1.0000072
1.0000072
1.0000072
1.0000072
1.0000072
1.0000072
1.0000072
1.0000072
1.0000073
1.0000073
1.0000073
1.0000072
1.0000073
1.0000073
1.0000073
1.0000073
1.0000073
1.0000073
1.0000073
1.0000073
1.0000073
1.0000073
1.0000073
1.0000073
1.0000073
1.0000073
1.0000073
1.0000054
1.0000064
1.0000068
1.0000069
1.0000069
1.0000069
1.0000069
1.0000069
1.0000069
1.0000069
1.0000069
1.0000068
1.0000068
1.0000068
1.0000068
1.0000068
1.0000068
1.0000068
1.0000068
1.0000068
1.0000068
1.0000068
1.0000068
1.0000068
1.0000068
1.0000068
1.0000068
1.0000068
1.0000068
1.0000068
1.0000068
1.0000068
1.0000068
1.0000068
1.0000068
1.0000068
1.0000068
1.0000068
1.0000068
1.0000068
1.0000069
1.0000069
1.0000069
1.0000069
1.0000069
1.0000069
1.0000069
1.0000069
1.0000069
1.0000069
1.0000069
1.0000069
1.0000069
1.0000069
1.0000069
1.0000069
1.0000069
1.0000069
1.0000069
1.0000052
1.0000061
1.0000065
1.0000066
1.0000066
1.0000065
1.0000065
1.0000065
1.0000065
1.0000065
1.0000065
1.0000065
1.0000064
1.0000064
1.0000064
1.0000064
1.0000064
1.0000065
1.0000065
1.0000065
1.0000065
1.0000065
1.0000065
1.0000065
1.0000065
1.0000065
1.0000065
1.0000065
1.0000065
1.0000065
1.0000065
1.0000065
1.0000065
1.0000065
1.0000065
1.0000065
1.0000065
1.0000065
1.0000065
1.0000065
1.0000065
1.0000065
1.0000065
1.0000065
1.0000065
1.0000065
1.0000066
1.0000066
1.0000066
1.0000066
1.0000065
1.0000065
1.0000065
1.0000066
1.0000066
1.0000066
1.0000066
1.0000066
1.0000066
1.0000051
1.0000059
1.0000062
1.0000063
1.0000063
1.0000062
1.0000062
1.0000062
1.0000062
1.0000062
1.0000062
1.0000061
1.0000061
1.0000061
1.0000061
1.0000061
1.0000062
1.0000062
1.0000062
1.0000062
1.0000062
1.0000062
1.0000062
1.0000062
1.0000062
1.0000062
1.0000062
1.0000062
1.0000062
1.0000062
1.0000062
1.0000062
1.0000062
1.0000062
1.0000062
1.0000062
1.0000062
1.0000062
1.0000062
1.0000062
1.0000062
1.0000062
1.0000062
1.0000062
1.0000062
1.0000063
1.0000063
1.0000063
1.0000063
1.0000063
1.0000062
1.0000062
1.0000062
1.0000062
1.0000063
1.0000063
1.0000063
1.0000063
1.0000063
1.000005
1.0000058
1.000006
1.000006
1.000006
1.000006
1.000006
1.000006
1.000006
1.0000059
1.0000059
1.0000059
1.0000059
1.0000059
1.0000059
1.0000059
1.0000059
1.0000059
1.000006
1.000006
1.000006
1.000006
1.000006
1.0000059
1.0000059
1.0000059
1.0000059
1.0000059
1.0000059
1.0000059
1.0000059
1.0000059
1.0000059
1.0000059
1.0000059
1.000006
1.000006
1.0000059
1.0000059
1.0000059
1.000006
1.000006
1.000006
1.000006
1.000006
1.000006
1.000006
1.000006
1.000006
1.000006
1.000006
1.000006
1.000006
1.000006
1.000006
1.000006
1.000006
1.000006
1.000006
1.000005
1.0000057
1.0000059
1.0000058
1.0000058
1.0000058
1.0000058
1.0000058
1.0000058
1.0000058
1.0000057
1.0000057
1.0000057
1.0000057
1.0000057
1.0000057
1.0000058
1.0000058
1.0000058
1.0000058
1.0000058
1.0000058
1.0000058
1.0000057
1.0000057
1.0000057
1.0000057
1.0000057
1.0000057
1.0000057
1.0000057
1.0000057
1.0000057
1.0000057
1.0000058
1.0000058
1.0000058
1.0000058
1.0000058
1.0000058
1.0000058
1.0000058
1.0000058
1.0000058
1.0000058
1.0000058
1.0000058
1.0000058
1.0000059
1.0000059
1.0000058
1.0000058
1.0000058
1.0000058
1.0000058
1.0000059
1.0000058
1.0000058
1.0000058
1.0000049
1.0000056
1.0000057
1.0000057
1.0000056
1.0000056
1.0000056
1.0000057
1.0000056
1.0000056
1.0000056
1.0000055
1.0000056
1.0000056
1.0000056
1.0000056
1.0000056
1.0000056
1.0000057
1.0000057
1.0000057
1.0000056
1.0000056
1.0000056
1.0000056
1.0000056
1.0000056
1.0000056
1.0000056
1.0000056
1.0000056
1.0000056
1.0000056
1.0000056
1.0000056
1.0000056
1.0000056
1.0000056
1.0000056
1.0000056
1.0000056
1.0000056
1.0000056
1.0000056
1.0000056
1.0000056
1.0000057
1.0000057
1.0000057
1.0000057
1.0000057
1.0000056
1.0000056
1.0000056
1.0000056
1.0000057
1.0000057
1.0000057
1.0000057
1.0000048
1.0000054
1.0000054
1.0000054
1.0000053
1.0000053
1.0000053
1.0000054
1.0000053
1.0000053
1.0000052
1.0000052
1.0000052
1.0000053
1.0000053
1.0000053
1.0000053
1.0000053
1.0000054
1.0000054
1.0000053
1.0000053
1.0000053
1.0000052
1.0000052
1.0000052
1.0000052
1.0000052
1.0000052
1.0000052
1.0000052
1.0000052
1.0000052
1.0000052
1.0000053
1.0000053
1.0000053
1.0000053
1.0000053
1.0000053
1.0000053
1.0000053
1.0000053
1.0000053
1.0000053
1.0000053
1.0000053
1.0000053
1.0000054
1.0000054
1.0000054
1.0000053
1.0000053
1.0000053
1.0000054
1.0000054
1.0000054
1.0000053
1.0000053
1.0000047
1.0000055
1.0000052
1.0000054
1.0000053
1.0000051
1.0000053
1.0000052
1.0000053
1.0000051
1.0000051
1.0000051
1.0000051
1.0000051
1.0000051
1.0000052
1.0000052
1.0000052
1.0000052
1.0000052
1.0000052
1.0000051
1.0000051
1.0000051
1.0000051
1.0000051
1.0000051
1.000005
1.000005
1.000005
1.000005
1.000005
1.0000051
1.0000051
1.0000051
1.0000051
1.0000052
1.0000051
1.0000052
1.0000051
1.0000051
1.0000051
1.0000051
1.0000051
1.0000051
1.0000051
1.0000051
1.0000052
1.0000052
1.0000052
1.0000052
1.0000053
1.000005
1.0000053
1.0000053
1.0000052
1.0000055
1.0000051
1.0000051
1.0000061
1.0000066
1.0000062
1.0000065
1.0000062
1.0000062
1.0000065
1.0000062
1.0000063
1.0000062
1.0000064
1.0000064
1.0000064
1.0000064
1.0000065
1.0000064
1.0000064
1.0000064
1.0000065
1.0000064
1.0000063
1.0000063
1.0000063
1.0000063
1.0000063
1.0000063
1.0000063
1.0000063
1.0000063
1.0000063
1.0000063
1.0000063
1.0000063
1.0000063
1.0000063
1.0000063
1.0000063
1.0000064
1.0000063
1.0000063
1.0000064
1.0000063
1.0000063
1.0000063
1.0000062
1.0000062
1.0000064
1.0000063
1.0000064
1.0000064
1.0000064
1.0000064
1.0000062
1.0000062
1.0000064
1.0000061
1.0000065
1.0000063
1.0000063
1.0000048
1.0000039
1.0000044
1.0000039
1.0000044
1.0000046
1.0000041
1.0000043
1.0000041
1.0000044
1.0000042
1.0000043
1.0000044
1.0000045
1.0000045
1.0000045
1.0000044
1.0000042
1.0000039
1.0000038
1.0000038
1.0000038
1.0000038
1.0000038
1.0000038
1.0000038
1.0000038
1.0000038
1.0000038
1.0000038
1.0000038
1.0000038
1.0000038
1.0000038
1.0000038
1.0000038
1.0000038
1.0000038
1.000004
1.0000041
1.000004
1.0000039
1.000004
1.0000041
1.0000042
1.0000042
1.0000039
1.000004
1.000004
1.000004
1.0000043
1.0000045
1.0000049
1.0000045
1.0000041
1.0000044
1.0000039
1.0000048
1.0000048
1.0000347
1.0000347
1.0000347
1.0000347
1.0000347
1.0000347
1.0000347
1.0000347
1.0000348
1.0000348
1.0000348
1.0000348
1.0000348
1.0000348
1.0000348
1.0000348
1.0000348
1.0000348
1.0000348
1.0000348
1.0000348
1.0000348
1.0000348
1.0000348
1.0000348
1.0000349
1.0000349
1.0000349
1.0000349
1.0000349
1.0000349
1.0000349
1.0000349
1.0000349
1.0000349
1.0000349
1.0000349
1.000035
1.000035
1.000035
1.000035
1.000035
1.000035
1.000035
1.000035
1.000035
1.000035
1.000035
1.000035
1.000035
1.000035
1.000035
1.0000349
1.0000346
1.0000341
1.0000332
1.0000314
1.0000283
1.0000241
1.0000317
1.0000318
1.0000318
1.0000318
1.0000318
1.0000318
1.0000318
1.0000318
1.0000318
1.0000318
1.0000318
1.0000319
1.0000319
1.0000319
1.0000319
1.0000319
1.0000319
1.0000319
1.0000319
1.0000319
1.0000319
1.0000319
1.0000319
1.0000319
1.0000319
1.0000319
1.0000319
1.0000319
1.0000319
1.0000319
1.0000319
1.000032
1.000032
1.000032
1.000032
1.000032
1.000032
1.000032
1.000032
1.000032
1.000032
1.000032
1.000032
1.0000321
1.0000321
1.0000321
1.0000321
1.0000321
1.0000321
1.0000321
1.0000321
1.000032
1.0000319
1.0000317
1.0000312
1.0000303
1.0000287
1.0000259
1.0000221
1.000029
1.000029
1.000029
1.000029
1.0000291
1.0000291
1.0000291
1.0000291
1.0000291
1.0000291
1.0000291
1.0000291
1.0000291
1.0000291
1.0000291
1.0000291
1.0000291
1.0000291
1.0000291
1.0000291
1.0000291
1.0000291
1.0000291
1.0000291
1.0000291
1.0000291
1.0000291
1.0000291
1.0000291
1.0000292
1.0000292
1.0000292
1.0000292
1.0000292
1.0000292
1.0000292
1.0000292
1.0000292
1.0000292
1.0000292
1.0000292
1.0000292
1.0000293
1.0000293
1.0000293
1.0000293
1.0000293
1.0000293
1.0000293
1.0000293
1.0000293
1.0000292
1.0000292
1.000029
1.0000285
1.0000277
1.0000263
1.0000236
1.0000202
1.0000265
1.0000265
1.0000265
1.0000265
1.0000265
1.0000265
1.0000265
1.0000265
1.0000265
1.0000265
1.0000265
1.0000265
1.0000265
1.0000266
1.0000266
1.0000266
1.0000266
1.0000266
1.0000266
1.0000266
1.0000266
1.0000266
1.0000265
1.0000265
1.0000265
1.0000265
1.0000266
1.0000266
1.0000266
1.0000266
1.0000266
1.0000266
1.0000266
1.0000266
1.0000266
1.0000266
1.0000266
1.0000266
1.0000266
1.0000266
1.0000266
1.0000266
1.0000267
1.0000267
1.0000267
1.0000267
1.0000267
1.0000267
1.0000267
1.0000267
1.0000267
1.0000267
1.0000266
1.0000264
1.000026
1.0000253
1.000024
1.0000216
1.0000184
1.0000241
1.0000241
1.0000241
1.0000241
1.0000241
1.0000241
1.0000241
1.0000241
1.0000241
1.0000241
1.0000241
1.0000241
1.0000242
1.0000242
1.0000242
1.0000242
1.0000242
1.0000242
1.0000242
1.0000242
1.0000242
1.0000241
1.0000241
1.0000241
1.0000241
1.0000241
1.0000241
1.0000242
1.0000242
1.0000242
1.0000242
1.0000242
1.0000242
1.0000242
1.0000242
1.0000242
1.0000242
1.0000242
1.0000242
1.0000242
1.0000242
1.0000242
1.0000242
1.0000242
1.0000242
1.0000242
1.0000242
1.0000243
1.0000243
1.0000243
1.0000243
1.0000242
1.0000242
1.000024
1.0000237
1.0000231
1.0000218
1.0000196
1.0000168
1.0000219
1.0000219
1.0000219
1.0000219
1.0000219
1.0000219
1.0000219
1.0000219
1.0000219
1.0000219
1.0000219
1.0000219
1.0000219
1.0000219
1.000022
1.000022
1.000022
1.0000219
1.0000219
1.0000219
1.0000219
1.0000219
1.0000219
1.0000219
1.0000219
1.0000219
1.0000219
1.0000219
1.0000219
1.0000219
1.0000219
1.0000219
1.0000219
1.000022
1.000022
1.000022
1.0000219
1.0000219
1.000022
1.000022
1.000022
1.000022
1.000022
1.000022
1.000022
1.000022
1.000022
1.000022
1.000022
1.000022
1.000022
1.000022
1.000022
1.0000218
1.0000216
1.000021
1.0000199
1.0000179
1.0000152
1.0000199
1.0000199
1.0000199
1.0000199
1.0000199
1.0000199
1.0000199
1.0000199
1.0000199
1.0000199
1.0000199
1.0000199
1.0000199
1.0000199
1.0000199
1.0000199
1.0000199
1.0000199
1.0000199
1.0000199
1.0000199
1.0000199
1.0000199
1.0000199
1.0000199
1.0000199
1.0000199
1.0000199
1.0000199
1.0000199
1.0000199
1.0000199
1.0000199
1.0000199
1.0000199
1.0000199
1.0000199
1.0000199
1.0000199
1.0000199
1.0000199
1.0000199
1.0000199
1.0000199
1.0000199
1.0000199
1.0000199
1.0000199
1.00002
1.00002
1.00002
1.00002
1.0000199
1.0000198
1.0000196
1.0000191
1.0000181
1.0000162
1.0000138
1.000018
1.000018
1.000018
1.000018
1.000018
1.000018
1.000018
1.000018
1.000018
1.000018
1.000018
1.000018
1.000018
1.000018
1.000018
1.000018
1.000018
1.000018
1.000018
1.000018
1.000018
1.000018
1.000018
1.000018
1.000018
1.000018
1.000018
1.000018
1.000018
1.000018
1.000018
1.000018
1.000018
1.000018
1.000018
1.000018
1.000018
1.000018
1.000018
1.000018
1.000018
1.000018
1.000018
1.000018
1.000018
1.000018
1.000018
1.000018
1.0000181
1.0000181
1.0000181
1.0000181
1.000018
1.000018
1.0000178
1.0000173
1.0000164
1.0000147
1.0000126
1.0000162
1.0000163
1.0000163
1.0000163
1.0000163
1.0000163
1.0000163
1.0000163
1.0000162
1.0000162
1.0000162
1.0000163
1.0000163
1.0000163
1.0000163
1.0000163
1.0000163
1.0000163
1.0000163
1.0000163
1.0000163
1.0000162
1.0000162
1.0000162
1.0000162
1.0000162
1.0000162
1.0000162
1.0000162
1.0000162
1.0000162
1.0000162
1.0000162
1.0000162
1.0000162
1.0000162
1.0000162
1.0000162
1.0000162
1.0000162
1.0000162
1.0000163
1.0000163
1.0000163
1.0000163
1.0000163
1.0000163
1.0000163
1.0000163
1.0000163
1.0000163
1.0000163
1.0000163
1.0000162
1.0000161
1.0000157
1.0000149
1.0000134
1.0000114
1.0000147
1.0000147
1.0000147
1.0000147
1.0000147
1.0000147
1.0000147
1.0000147
1.0000147
1.0000147
1.0000147
1.0000147
1.0000147
1.0000147
1.0000147
1.0000147
1.0000147
1.0000147
1.0000147
1.0000147
1.0000147
1.0000147
1.0000146
1.0000146
1.0000146
1.0000146
1.0000146
1.0000146
1.0000146
1.0000146
1.0000146
1.0000146
1.0000146
1.0000146
1.0000147
1.0000147
1.0000146
1.0000146
1.0000146
1.0000146
1.0000146
1.0000146
1.0000147
1.0000147
1.0000147
1.0000147
1.0000147
1.0000147
1.0000147
1.0000147
1.0000147
1.0000147
1.0000147
1.0000147
1.0000145
1.0000142
1.0000135
1.0000121
1.0000103
1.0000132
1.0000132
1.0000132
1.0000132
1.0000132
1.0000132
1.0000132
1.0000132
1.0000132
1.0000132
1.0000132
1.0000132
1.0000132
1.0000132
1.0000132
1.0000132
1.0000132
1.0000132
1.0000132
1.0000132
1.0000132
1.0000132
1.0000132
1.0000132
1.0000132
1.0000132
1.0000132
1.0000132
1.0000132
1.0000132
1.0000132
1.0000132
1.0000132
1.0000132
1.0000132
1.0000132
1.0000132
1.0000132
1.0000132
1.0000132
1.0000132
1.0000132
1.0000132
1.0000132
1.0000132
1.0000132
1.0000133
1.0000133
1.0000133
1.0000133
1.0000133
1.0000133
1.0000133
1.0000132
1.0000131
1.0000129
1.0000123
1.000011
1.0000093
1.0000119
1.0000119
1.0000119
1.0000119
1.0000119
1.0000119
1.0000119
1.0000119
1.0000119
1.0000119
1.0000119
1.0000119
1.0000119
1.0000119
1.0000119
1.0000119
1.0000119
1.0000119
1.0000119
1.0000119
1.0000119
1.0000119
1.0000119
1.0000119
1.0000119
1.0000119
1.0000119
1.0000119
1.0000119
1.0000119
1.0000119
1.0000119
1.0000119
1.0000119
1.0000119
1.0000119
1.0000119
1.0000119
1.0000118
1.0000118
1.0000118
1.0000118
1.0000119
1.0000119
1.0000119
1.0000119
1.0000119
1.0000119
1.0000119
1.0000119
1.0000119
1.000012
1.000012
1.0000119
1.0000119
1.0000117
1.0000111
1.00001
1.0000084
1.0000107
1.0000107
1.0000107
1.0000107
1.0000107
1.0000107
1.0000107
1.0000107
1.0000107
1.0000107
1.0000107
1.0000107
1.0000107
1.0000107
1.0000107
1.0000107
1.0000107
1.0000107
1.0000107
1.0000107
1.0000107
1.0000107
1.0000107
1.0000107
1.0000107
1.0000107
1.0000107
1.0000107
1.0000107
1.0000107
1.0000107
1.0000107
1.0000107
1.0000107
1.0000107
1.0000107
1.0000107
1.0000107
1.0000106
1.0000106
1.0000106
1.0000106
1.0000106
1.0000107
1.0000107
1.0000107
1.0000107
1.0000108
1.0000108
1.0000108
1.0000107
1.0000108
1.0000108
1.0000108
1.0000107
1.0000105
1.0000101
1.0000091
1.0000077
1.0000097
1.0000097
1.0000097
1.0000097
1.0000097
1.0000097
1.0000097
1.0000096
1.0000096
1.0000096
1.0000096
1.0000096
1.0000096
1.0000096
1.0000096
1.0000096
1.0000096
1.0000096
1.0000096
1.0000096
1.0000096
1.0000096
1.0000096
1.0000096
1.0000096
1.0000096
1.0000096
1.0000096
1.0000096
1.0000096
1.0000096
1.0000096
1.0000096
1.0000096
1.0000096
1.0000096
1.0000096
1.0000096
1.0000096
1.0000096
1.0000096
1.0000096
1.0000096
1.0000096
1.0000096
1.0000096
1.0000097
1.0000097
1.0000097
1.0000097
1.0000097
1.0000097
1.0000097
1.0000097
1.0000097
1.0000095
1.0000092
1.0000083
1.000007
1.0000265
1.0000293
1.0000324
1.0000359
1.0000396
1.0000436
1.000048
1.0000526
1.0000575
1.0000628
1.0000684
1.0000743
1.0000806
1.0000872
1.000094
1.0001011
1.0001084
1.0001158
1.0001232
1.0001305
1.0001375
1.0001442
1.0001504
1.0001558
1.0001602
1.0001634
1.0001655
1.0001658
1.0001646
1.0001617
1.0001569
1.0001504
1.000142
1.000133
1.0001213
1.0001083
1.0000942
1.00008
1.0000646
1.0000489
1.0000336
1.0000179
1.0000019
0.99998595
0.99997022
0.99995486
0.99993973
0.99992517
0.99991119
0.99989793
0.99988544
0.99987346
0.99986213
0.99985146
0.99984143
0.99983202
0.99982319
0.99981493
0.99980724
0.99980008
0.99979338
0.9997871
0.99978123
0.99977575
0.99977065
0.9997659
0.99976148
0.99975737
0.99975355
0.99975
0.9997467
0.99974364
0.99974079
0.99973816
1.000031
1.0000342
1.0000377
1.0000415
1.0000456
1.00005
1.0000548
1.0000599
1.0000654
1.0000712
1.0000775
1.000084
1.000091
1.0000982
1.0001057
1.0001135
1.0001214
1.0001293
1.0001372
1.0001449
1.0001523
1.0001591
1.0001652
1.0001704
1.0001743
1.0001768
1.0001777
1.0001767
1.0001738
1.0001689
1.0001618
1.0001526
1.0001413
1.0001284
1.0001137
1.0000975
1.0000801
1.0000616
1.0000424
1.0000227
1.000003
0.99998341
0.99996408
0.99994509
0.99992665
0.99990817
0.99989096
0.99987463
0.99985886
0.99984451
0.99983115
0.99981768
0.99980473
0.99979249
0.99978099
0.9997702
0.9997601
0.99975067
0.99974188
0.9997337
0.99972603
0.99971888
0.99971218
0.99970597
0.99970021
0.99969487
0.99968992
0.99968533
0.99968108
0.99967715
0.99967349
0.99967012
0.99966698
0.9996641
1.0000344
1.000038
1.0000418
1.0000461
1.0000506
1.0000555
1.0000608
1.0000665
1.0000726
1.0000791
1.000086
1.0000934
1.0001011
1.0001092
1.0001175
1.0001262
1.000135
1.0001438
1.0001526
1.0001612
1.0001693
1.0001768
1.0001835
1.000189
1.0001931
1.0001956
1.0001962
1.0001946
1.0001908
1.0001845
1.0001758
1.0001646
1.000151
1.0001352
1.0001173
1.0000978
1.0000768
1.0000547
1.0000317
1.0000082
0.99998431
0.99996047
0.99993689
0.99991375
0.99989121
0.99986934
0.99984824
0.99982806
0.99980871
0.9997903
0.99977286
0.99975638
0.99974087
0.99972629
0.9997126
0.99969974
0.99968774
0.99967629
0.99966507
0.99965479
0.9996455
0.99963742
0.99962992
0.99962288
0.99961629
0.99961013
0.99960439
0.99959906
0.99959411
0.99958951
0.99958528
0.99958142
0.99957781
0.99957446
1.0000364
1.0000402
1.0000444
1.000049
1.0000539
1.0000592
1.000065
1.0000711
1.0000778
1.0000848
1.0000924
1.0001004
1.0001088
1.0001177
1.0001268
1.0001363
1.000146
1.0001558
1.0001656
1.0001751
1.0001842
1.0001926
1.0002001
1.0002065
1.0002113
1.0002144
1.0002154
1.000214
1.0002102
1.0002038
1.0001946
1.0001826
1.000168
1.0001509
1.0001315
1.00011
1.0000869
1.0000624
1.000037
1.0000108
0.99998412
0.99995736
0.99993077
0.99990457
0.99987893
0.99985401
0.99982996
0.99980688
0.99978473
0.99976356
0.99974341
0.99972429
0.99970626
0.99968928
0.99967332
0.99965832
0.99964432
0.9996305
0.99961821
0.99960701
0.99959654
0.99958671
0.99957755
0.99956902
0.9995611
0.99955373
0.99954687
0.99954051
0.99953462
0.99952916
0.99952412
0.99951944
0.99951514
0.99951116
1.0000375
1.0000415
1.0000459
1.0000507
1.0000559
1.0000615
1.0000676
1.0000742
1.0000812
1.0000887
1.0000968
1.0001053
1.0001143
1.0001237
1.0001336
1.0001438
1.0001543
1.0001649
1.0001755
1.0001859
1.0001959
1.0002052
1.0002137
1.0002209
1.0002266
1.0002306
1.0002323
1.0002317
1.0002284
1.0002225
1.0002136
1.0002018
1.0001872
1.0001699
1.0001501
1.0001281
1.0001043
1.000079
1.0000525
1.0000252
0.99999723
0.9999691
0.99994105
0.99991332
0.99988609
0.99985954
0.99983386
0.99980913
0.99978536
0.99976258
0.99974086
0.99972021
0.99970068
0.99968224
0.99966488
0.99964855
0.99963323
0.99961887
0.99960546
0.99959297
0.99958131
0.99957042
0.99956028
0.99955083
0.99954206
0.9995339
0.99952633
0.9995193
0.99951279
0.99950676
0.99950118
0.99949599
0.999491
0.99948647
1.0000381
1.0000422
1.0000468
1.0000517
1.0000571
1.000063
1.0000693
1.0000761
1.0000834
1.0000913
1.0000997
1.0001086
1.000118
1.000128
1.0001383
1.0001491
1.0001602
1.0001714
1.0001827
1.0001938
1.0002046
1.0002148
1.0002241
1.0002322
1.0002388
1.0002435
1.0002461
1.0002463
1.0002438
1.0002385
1.0002303
1.0002191
1.000205
1.0001881
1.0001686
1.0001469
1.0001232
1.0000979
1.0000713
1.0000438
1.0000157
0.99998726
0.99995885
0.9999307
0.99990301
0.99987597
0.99984975
0.99982446
0.99980011
0.99977675
0.99975445
0.99973322
0.99971311
0.9996941
0.99967618
0.9996593
0.99964345
0.9996286
0.99961471
0.99960175
0.99958964
0.99957832
0.99956777
0.99955795
0.99954881
0.99954032
0.99953243
0.99952511
0.99951832
0.99951203
0.9995062
0.99950083
0.99949565
0.99949098
1.0000384
1.0000426
1.0000473
1.0000523
1.0000578
1.0000638
1.0000703
1.0000773
1.0000849
1.000093
1.0001016
1.0001108
1.0001206
1.0001309
1.0001416
1.0001528
1.0001644
1.0001761
1.0001879
1.0001996
1.000211
1.0002218
1.0002318
1.0002406
1.0002479
1.0002534
1.0002568
1.0002577
1.0002559
1.0002514
1.0002438
1.0002333
1.0002198
1.0002035
1.0001845
1.0001633
1.00014
1.0001151
1.0000889
1.0000616
1.0000337
1.0000055
0.99997728
0.99994925
0.99992165
0.99989467
0.99986848
0.99984319
0.99981882
0.99979544
0.99977309
0.99975182
0.99973164
0.99971257
0.99969457
0.99967762
0.99966169
0.99964676
0.99963278
0.99961972
0.99960752
0.99959613
0.99958551
0.99957561
0.99956641
0.99955785
0.9995499
0.99954253
0.99953568
0.99952934
0.99952346
0.99951802
0.99951298
0.99950833
1.0000385
1.0000428
1.0000475
1.0000527
1.0000583
1.0000644
1.000071
1.0000781
1.0000858
1.000094
1.0001029
1.0001123
1.0001223
1.0001329
1.0001439
1.0001554
1.0001673
1.0001794
1.0001916
1.0002038
1.0002157
1.000227
1.0002375
1.0002468
1.0002547
1.0002608
1.0002648
1.0002662
1.0002651
1.0002612
1.0002542
1.0002443
1.0002313
1.0002156
1.0001971
1.0001763
1.0001535
1.000129
1.0001032
1.0000763
1.0000488
1.0000209
0.9999929
0.99996514
0.99993777
0.999911
0.999885
0.99985987
0.99983566
0.99981242
0.99979021
0.99976906
0.99974899
0.99973002
0.9997121
0.99969523
0.99967938
0.99966451
0.99965059
0.99963758
0.99962542
0.99961407
0.99960349
0.99959363
0.99958446
0.99957593
0.99956801
0.99956065
0.99955383
0.99954751
0.99954165
0.99953623
0.9995312
0.99952657
1.0000386
1.0000429
1.0000477
1.0000529
1.0000585
1.0000647
1.0000714
1.0000786
1.0000864
1.0000948
1.0001037
1.0001133
1.0001235
1.0001342
1.0001455
1.0001572
1.0001694
1.0001818
1.0001943
1.0002068
1.000219
1.0002307
1.0002416
1.0002513
1.0002597
1.0002662
1.0002706
1.0002726
1.0002719
1.0002685
1.000262
1.0002525
1.00024
1.0002247
1.0002066
1.0001862
1.0001638
1.0001396
1.0001141
1.0000875
1.0000603
1.0000326
1.0000049
0.99997731
0.99995015
0.99992357
0.99989773
0.99987275
0.99984868
0.99982558
0.99980349
0.99978246
0.99976251
0.99974363
0.99972581
0.99970902
0.99969325
0.99967845
0.9996646
0.99965164
0.99963954
0.99962824
0.9996177
0.99960789
0.99959876
0.99959028
0.9995824
0.99957508
0.99956829
0.999562
0.99955617
0.99955078
0.99954578
0.99954116
1.0000386
1.000043
1.0000477
1.000053
1.0000587
1.0000649
1.0000716
1.0000789
1.0000868
1.0000952
1.0001043
1.000114
1.0001243
1.0001351
1.0001466
1.0001585
1.0001708
1.0001834
1.0001962
1.0002089
1.0002213
1.0002333
1.0002445
1.0002546
1.0002632
1.0002701
1.0002749
1.0002772
1.0002769
1.0002738
1.0002677
1.0002585
1.0002463
1.0002313
1.0002136
1.0001935
1.0001713
1.0001474
1.0001221
1.0000957
1.0000686
1.0000411
1.0000135
0.99998614
0.99995911
0.99993264
0.99990691
0.99988202
0.99985803
0.99983501
0.999813
0.99979205
0.99977216
0.99975334
0.99973558
0.99971885
0.99970312
0.99968837
0.99967455
0.99966163
0.99964956
0.99963829
0.99962778
0.999618
0.9996089
0.99960043
0.99959257
0.99958527
0.9995785
0.99957223
0.99956641
0.99956103
0.99955605
0.99955144
1.0000386
1.000043
1.0000478
1.000053
1.0000588
1.000065
1.0000718
1.0000791
1.000087
1.0000955
1.0001047
1.0001144
1.0001248
1.0001358
1.0001473
1.0001593
1.0001718
1.0001845
1.0001975
1.0002104
1.000223
1.0002352
1.0002466
1.0002569
1.0002658
1.0002729
1.000278
1.0002802
1.0002805
1.0002777
1.0002718
1.0002629
1.000251
1.0002362
1.0002187
1.0001987
1.0001767
1.000153
1.0001278
1.0001016
1.0000746
1.0000472
1.0000197
0.99999241
0.99996545
0.99993905
0.99991337
0.99988852
0.99986457
0.99984159
0.99981962
0.9997987
0.99977884
0.99976005
0.99974231
0.9997256
0.99970989
0.99969516
0.99968135
0.99966844
0.99965638
0.99964512
0.99963463
0.99962485
0.99961576
0.99960731
0.99959946
0.99959218
0.99958542
0.99957915
0.99957335
0.99956798
0.999563
0.9995584
1.0000386
1.000043
1.0000478
1.0000531
1.0000588
1.0000651
1.0000719
1.0000792
1.0000872
1.0000957
1.0001049
1.0001147
1.0001252
1.0001362
1.0001478
1.0001599
1.0001725
1.0001853
1.0001984
1.0002114
1.0002242
1.0002365
1.0002481
1.0002586
1.0002676
1.000275
1.0002802
1.0002829
1.0002832
1.0002805
1.0002748
1.000266
1.0002543
1.0002397
1.0002223
1.0002026
1.0001807
1.000157
1.000132
1.0001058
1.0000789
1.0000516
1.0000242
0.99999693
0.99997002
0.99994365
0.99991798
0.99989313
0.99986919
0.9998462
0.99982424
0.99980332
0.99978347
0.99976468
0.99974694
0.99973023
0.99971452
0.99969978
0.99968598
0.99967306
0.99966099
0.99964974
0.99963924
0.99962948
0.99962039
0.99961194
0.9996041
0.99959682
0.99959006
0.9995838
0.999578
0.99957263
0.99956765
0.99956305
1.0000386
1.000043
1.0000478
1.0000531
1.0000588
1.0000651
1.0000719
1.0000793
1.0000873
1.0000959
1.0001051
1.0001149
1.0001254
1.0001365
1.0001482
1.0001603
1.000173
1.0001859
1.000199
1.0002121
1.000225
1.0002375
1.0002491
1.0002598
1.0002689
1.0002764
1.0002818
1.0002848
1.000285
1.0002826
1.000277
1.0002684
1.0002569
1.0002424
1.0002252
1.0002055
1.0001837
1.0001601
1.0001351
1.000109
1.0000822
1.0000549
1.0000275
1.0000003
0.99997335
0.99994699
0.99992133
0.99989649
0.99987255
0.99984959
0.99982763
0.99980672
0.99978687
0.99976808
0.99975034
0.99973362
0.99971791
0.99970316
0.99968934
0.99967641
0.99966433
0.99965307
0.99964257
0.99963279
0.9996237
0.99961525
0.9996074
0.99960011
0.99959335
0.99958708
0.99958127
0.99957589
0.9995709
0.9995663
1.0000386
1.000043
1.0000478
1.0000531
1.0000588
1.0000651
1.0000719
1.0000793
1.0000873
1.0000959
1.0001052
1.000115
1.0001256
1.0001367
1.0001484
1.0001606
1.0001733
1.0001863
1.0001994
1.0002126
1.0002256
1.0002381
1.0002499
1.0002606
1.0002699
1.0002774
1.000283
1.0002859
1.0002862
1.000284
1.0002788
1.0002703
1.0002589
1.0002445
1.0002274
1.0002078
1.0001861
1.0001626
1.0001377
1.0001116
1.0000848
1.0000576
1.0000302
1.0000029
0.99997599
0.99994963
0.99992397
0.99989912
0.99987518
0.99985219
0.99983022
0.99980929
0.99978943
0.99977062
0.99975286
0.99973613
0.9997204
0.99970565
0.99969182
0.99967889
0.99966681
0.99965554
0.99964503
0.99963524
0.99962614
0.99961767
0.99960981
0.99960251
0.99959573
0.99958946
0.99958364
0.99957825
0.99957327
0.99956866
1.0000386
1.000043
1.0000478
1.0000531
1.0000588
1.0000651
1.0000719
1.0000793
1.0000873
1.000096
1.0001052
1.0001151
1.0001256
1.0001368
1.0001485
1.0001608
1.0001735
1.0001865
1.0001997
1.0002129
1.000226
1.0002385
1.0002504
1.0002612
1.0002705
1.0002783
1.0002838
1.0002868
1.0002876
1.0002856
1.0002803
1.0002719
1.0002605
1.0002462
1.0002292
1.0002097
1.0001881
1.0001647
1.0001398
1.0001138
1.0000871
1.0000599
1.0000325
1.0000053
0.99997836
0.999952
0.99992632
0.99990145
0.99987747
0.99985447
0.99983247
0.99981153
0.99979164
0.99977283
0.99975506
0.99973833
0.9997226
0.99970784
0.99969401
0.99968107
0.99966898
0.9996577
0.99964717
0.99963737
0.99962826
0.99961978
0.9996119
0.99960459
0.9995978
0.99959152
0.99958569
0.99958029
0.9995753
0.99957068
1.0000386
1.000043
1.0000478
1.0000531
1.0000588
1.0000651
1.0000719
1.0000793
1.0000873
1.000096
1.0001052
1.0001151
1.0001257
1.0001368
1.0001486
1.0001609
1.0001736
1.0001866
1.0001999
1.0002131
1.0002262
1.0002388
1.0002507
1.0002616
1.000271
1.0002789
1.0002842
1.0002888
1.0002887
1.0002864
1.0002812
1.000273
1.0002618
1.0002477
1.0002309
1.0002116
1.0001901
1.0001668
1.0001421
1.0001161
1.0000894
1.0000623
1.0000349
1.0000077
0.99998081
0.99995443
0.99992873
0.99990383
0.99987982
0.99985679
0.99983477
0.99981379
0.99979389
0.99977504
0.99975725
0.99974048
0.99972472
0.99970992
0.99969606
0.99968309
0.99967098
0.99965967
0.99964913
0.99963931
0.99963018
0.99962169
0.9996138
0.99960648
0.99959969
0.99959339
0.99958756
0.99958216
0.99957716
0.99957253
1.0000386
1.000043
1.0000478
1.0000531
1.0000588
1.0000651
1.0000719
1.0000793
1.0000873
1.000096
1.0001052
1.0001152
1.0001257
1.0001369
1.0001486
1.0001609
1.0001736
1.0001867
1.0002
1.0002133
1.0002264
1.000239
1.0002509
1.0002619
1.0002714
1.0002793
1.000285
1.0002885
1.0002894
1.0002875
1.0002825
1.0002745
1.0002635
1.0002495
1.0002328
1.0002137
1.0001923
1.0001691
1.0001444
1.0001185
1.0000918
1.0000647
1.0000374
1.0000102
0.99998325
0.99995686
0.99993115
0.99990624
0.99988222
0.99985917
0.99983713
0.99981614
0.99979621
0.99977734
0.99975953
0.99974274
0.99972695
0.99971213