/*--------------------------------*- C++ -*----------------------------------*\
| =========                 |                                                 |
| \\      /  F ield         | OpenFOAM: The Open Source CFD Toolbox           |
|  \\    /   O peration     | Version:  v2006                                 |
|   \\  /    A nd           | Website:  www.openfoam.com                      |
|    \\/     M anipulation  |                                                 |
\*---------------------------------------------------------------------------*/
FoamFile
{
    version     2.0;
    format      ascii;
    class       volScalarField;
    location    "3000";
    object      TMean;
}
// * * * * * * * * * * * * * * * * * * * * * * * * * * * * * * * * * * * * * //

dimensions      [0 0 0 1 0 0 0];


internalField   nonuniform List<scalar> 
55713
(
1.0000079
1.0000094
1.0000103
1.0000107
1.0000108
1.0000108
1.0000108
1.0000108
1.0000108
1.0000108
1.0000108
1.0000108
1.0000108
1.0000108
1.0000108
1.0000108
1.0000108
1.0000108
1.0000108
1.0000108
1.0000108
1.0000108
1.0000108
1.0000108
1.0000108
1.0000108
1.0000108
1.0000107
1.0000107
1.0000107
1.0000107
1.0000108
1.0000108
1.0000108
1.0000108
1.0000108
1.0000108
1.0000108
1.0000108
1.0000108
1.0000108
1.0000108
1.0000108
1.0000108
1.0000108
1.0000108
1.0000108
1.0000108
1.0000108
1.0000108
1.0000108
1.0000108
1.0000108
1.0000108
1.0000108
1.0000108
1.0000107
1.0000107
1.0000107
1.0000075
1.0000089
1.0000097
1.00001
1.0000101
1.0000101
1.0000101
1.0000101
1.0000101
1.0000101
1.0000101
1.0000101
1.0000101
1.0000101
1.0000101
1.0000101
1.0000101
1.0000101
1.0000101
1.0000101
1.0000101
1.0000101
1.0000101
1.0000101
1.0000101
1.0000101
1.0000101
1.0000101
1.0000101
1.0000101
1.0000101
1.0000101
1.0000101
1.0000101
1.0000101
1.0000101
1.0000101
1.0000101
1.0000101
1.0000101
1.0000101
1.0000101
1.0000101
1.0000101
1.0000101
1.0000101
1.0000101
1.0000101
1.0000101
1.0000101
1.0000101
1.0000101
1.0000101
1.0000101
1.0000101
1.0000101
1.0000101
1.0000101
1.0000101
1.0000072
1.0000085
1.0000092
1.0000095
1.0000095
1.0000095
1.0000095
1.0000095
1.0000095
1.0000095
1.0000095
1.0000095
1.0000095
1.0000095
1.0000095
1.0000095
1.0000095
1.0000095
1.0000095
1.0000095
1.0000095
1.0000095
1.0000095
1.0000095
1.0000095
1.0000095
1.0000095
1.0000094
1.0000094
1.0000094
1.0000095
1.0000095
1.0000095
1.0000095
1.0000095
1.0000095
1.0000095
1.0000095
1.0000095
1.0000095
1.0000095
1.0000095
1.0000095
1.0000095
1.0000095
1.0000095
1.0000095
1.0000095
1.0000095
1.0000095
1.0000095
1.0000095
1.0000095
1.0000095
1.0000095
1.0000095
1.0000095
1.0000095
1.0000095
1.0000069
1.0000082
1.0000088
1.000009
1.000009
1.000009
1.000009
1.0000089
1.0000089
1.000009
1.000009
1.000009
1.000009
1.000009
1.000009
1.000009
1.000009
1.000009
1.0000089
1.0000089
1.0000089
1.000009
1.000009
1.0000089
1.0000089
1.0000089
1.0000089
1.0000089
1.0000089
1.0000089
1.0000089
1.0000089
1.0000089
1.000009
1.000009
1.000009
1.000009
1.000009
1.000009
1.000009
1.000009
1.000009
1.000009
1.000009
1.000009
1.000009
1.000009
1.000009
1.000009
1.000009
1.000009
1.000009
1.000009
1.000009
1.000009
1.000009
1.000009
1.000009
1.000009
1.0000067
1.0000079
1.0000084
1.0000085
1.0000085
1.0000085
1.0000085
1.0000085
1.0000085
1.0000085
1.0000085
1.0000085
1.0000085
1.0000085
1.0000085
1.0000085
1.0000085
1.0000085
1.0000085
1.0000085
1.0000085
1.0000085
1.0000085
1.0000085
1.0000085
1.0000085
1.0000085
1.0000085
1.0000085
1.0000085
1.0000085
1.0000085
1.0000085
1.0000085
1.0000085
1.0000085
1.0000085
1.0000085
1.0000085
1.0000085
1.0000085
1.0000085
1.0000085
1.0000085
1.0000085
1.0000085
1.0000085
1.0000085
1.0000085
1.0000085
1.0000085
1.0000085
1.0000085
1.0000085
1.0000085
1.0000085
1.0000085
1.0000085
1.0000085
1.0000065
1.0000076
1.0000081
1.0000081
1.0000081
1.0000081
1.0000081
1.0000081
1.0000081
1.0000081
1.0000081
1.0000081
1.0000081
1.0000081
1.0000081
1.0000081
1.0000081
1.0000081
1.0000081
1.0000081
1.0000081
1.0000081
1.0000081
1.0000081
1.0000081
1.0000081
1.0000081
1.0000081
1.0000081
1.0000081
1.0000081
1.0000081
1.0000081
1.0000081
1.0000081
1.0000081
1.0000081
1.0000081
1.0000081
1.0000081
1.0000081
1.0000081
1.0000081
1.0000081
1.0000081
1.0000081
1.0000081
1.0000081
1.0000081
1.0000081
1.0000081
1.0000081
1.0000081
1.0000081
1.0000081
1.0000082
1.0000081
1.0000081
1.0000081
1.0000064
1.0000074
1.0000078
1.0000078
1.0000078
1.0000078
1.0000077
1.0000077
1.0000078
1.0000078
1.0000078
1.0000078
1.0000078
1.0000078
1.0000078
1.0000078
1.0000077
1.0000077
1.0000077
1.0000077
1.0000077
1.0000077
1.0000077
1.0000077
1.0000077
1.0000077
1.0000077
1.0000077
1.0000077
1.0000077
1.0000077
1.0000077
1.0000077
1.0000077
1.0000078
1.0000078
1.0000078
1.0000077
1.0000077
1.0000078
1.0000078
1.0000078
1.0000078
1.0000078
1.0000078
1.0000078
1.0000078
1.0000078
1.0000078
1.0000078
1.0000078
1.0000078
1.0000078
1.0000078
1.0000078
1.0000078
1.0000078
1.0000078
1.0000078
1.0000063
1.0000072
1.0000075
1.0000075
1.0000075
1.0000075
1.0000074
1.0000075
1.0000075
1.0000075
1.0000075
1.0000075
1.0000075
1.0000075
1.0000075
1.0000075
1.0000074
1.0000074
1.0000074
1.0000074
1.0000074
1.0000074
1.0000074
1.0000074
1.0000074
1.0000074
1.0000074
1.0000074
1.0000074
1.0000074
1.0000074
1.0000074
1.0000074
1.0000074
1.0000074
1.0000075
1.0000075
1.0000074
1.0000074
1.0000074
1.0000075
1.0000075
1.0000075
1.0000075
1.0000075
1.0000075
1.0000075
1.0000075
1.0000075
1.0000075
1.0000075
1.0000075
1.0000075
1.0000075
1.0000075
1.0000075
1.0000075
1.0000075
1.0000075
1.0000062
1.0000071
1.0000073
1.0000073
1.0000073
1.0000073
1.0000072
1.0000072
1.0000073
1.0000073
1.0000073
1.0000072
1.0000073
1.0000073
1.0000072
1.0000072
1.0000072
1.0000072
1.0000072
1.0000072
1.0000072
1.0000072
1.0000072
1.0000072
1.0000072
1.0000072
1.0000072
1.0000072
1.0000072
1.0000072
1.0000072
1.0000072
1.0000072
1.0000072
1.0000072
1.0000072
1.0000072
1.0000072
1.0000072
1.0000072
1.0000072
1.0000073
1.0000073
1.0000072
1.0000072
1.0000072
1.0000073
1.0000073
1.0000073
1.0000073
1.0000073
1.0000072
1.0000073
1.0000072
1.0000073
1.0000073
1.0000073
1.0000073
1.0000073
1.0000062
1.0000071
1.0000071
1.0000071
1.0000071
1.0000071
1.000007
1.0000071
1.0000071
1.0000071
1.0000071
1.0000071
1.0000071
1.0000071
1.000007
1.000007
1.000007
1.000007
1.000007
1.000007
1.000007
1.000007
1.000007
1.000007
1.000007
1.000007
1.000007
1.000007
1.000007
1.000007
1.000007
1.000007
1.000007
1.000007
1.000007
1.000007
1.000007
1.000007
1.000007
1.000007
1.000007
1.0000071
1.0000071
1.0000071
1.0000071
1.000007
1.0000071
1.0000071
1.0000071
1.0000071
1.0000071
1.0000071
1.0000071
1.0000071
1.0000071
1.0000071
1.0000071
1.0000071
1.0000071
1.000006
1.0000067
1.0000067
1.0000068
1.0000067
1.0000067
1.0000067
1.0000067
1.0000067
1.0000067
1.0000067
1.0000067
1.0000067
1.0000067
1.0000066
1.0000066
1.0000066
1.0000066
1.0000066
1.0000066
1.0000066
1.0000066
1.0000066
1.0000066
1.0000066
1.0000066
1.0000066
1.0000066
1.0000066
1.0000066
1.0000066
1.0000066
1.0000066
1.0000066
1.0000066
1.0000066
1.0000066
1.0000066
1.0000066
1.0000066
1.0000066
1.0000066
1.0000067
1.0000067
1.0000066
1.0000066
1.0000067
1.0000067
1.0000067
1.0000067
1.0000067
1.0000067
1.0000067
1.0000067
1.0000067
1.0000067
1.0000068
1.0000067
1.0000067
1.000006
1.0000069
1.0000065
1.0000067
1.0000066
1.0000065
1.0000067
1.0000067
1.0000065
1.0000065
1.0000065
1.0000065
1.0000066
1.0000065
1.0000064
1.0000064
1.0000064
1.0000065
1.0000064
1.0000064
1.0000064
1.0000064
1.0000064
1.0000064
1.0000064
1.0000064
1.0000064
1.0000064
1.0000064
1.0000064
1.0000064
1.0000064
1.0000064
1.0000064
1.0000064
1.0000064
1.0000064
1.0000064
1.0000064
1.0000064
1.0000064
1.0000064
1.0000065
1.0000065
1.0000064
1.0000064
1.0000064
1.0000065
1.0000065
1.0000065
1.0000065
1.0000065
1.0000064
1.0000066
1.0000065
1.0000065
1.0000068
1.0000064
1.0000064
1.0000078
1.0000083
1.0000079
1.0000082
1.0000078
1.0000079
1.0000082
1.0000079
1.0000079
1.000008
1.000008
1.0000081
1.000008
1.000008
1.0000079
1.000008
1.000008
1.000008
1.0000081
1.0000081
1.000008
1.000008
1.000008
1.000008
1.000008
1.000008
1.000008
1.000008
1.000008
1.000008
1.000008
1.000008
1.000008
1.000008
1.000008
1.000008
1.000008
1.0000081
1.000008
1.000008
1.000008
1.000008
1.000008
1.000008
1.000008
1.000008
1.000008
1.000008
1.000008
1.000008
1.000008
1.000008
1.000008
1.000008
1.0000081
1.0000078
1.0000083
1.000008
1.000008
1.0000063
1.0000049
1.0000055
1.000005
1.0000056
1.0000058
1.0000053
1.0000054
1.0000056
1.0000056
1.0000055
1.0000052
1.0000052
1.0000052
1.0000052
1.0000052
1.0000051
1.000005
1.0000049
1.0000048
1.0000048
1.0000048
1.0000048
1.0000048
1.0000048
1.0000048
1.0000048
1.0000048
1.0000048
1.0000048
1.0000048
1.0000048
1.0000048
1.0000048
1.0000048
1.0000048
1.0000048
1.0000049
1.000005
1.0000051
1.0000052
1.0000054
1.0000054
1.0000055
1.0000057
1.0000058
1.0000057
1.0000056
1.0000057
1.0000057
1.0000058
1.0000058
1.000006
1.0000057
1.0000056
1.0000057
1.000005
1.000006
1.000006
1.0000401
1.0000401
1.0000401
1.0000401
1.0000402
1.0000402
1.0000402
1.0000402
1.0000403
1.0000403
1.0000403
1.0000403
1.0000404
1.0000404
1.0000404
1.0000404
1.0000404
1.0000404
1.0000405
1.0000405
1.0000405
1.0000405
1.0000405
1.0000405
1.0000405
1.0000405
1.0000405
1.0000405
1.0000405
1.0000405
1.0000405
1.0000405
1.0000405
1.0000406
1.0000406
1.0000406
1.0000406
1.0000406
1.0000406
1.0000406
1.0000406
1.0000406
1.0000406
1.0000406
1.0000406
1.0000406
1.0000406
1.0000406
1.0000406
1.0000406
1.0000406
1.0000405
1.0000404
1.0000401
1.0000394
1.0000383
1.0000362
1.0000327
1.000028
1.0000368
1.0000368
1.0000368
1.0000368
1.0000369
1.0000369
1.0000369
1.0000369
1.0000369
1.000037
1.000037
1.000037
1.000037
1.000037
1.0000371
1.0000371
1.0000371
1.0000371
1.0000371
1.0000371
1.0000371
1.0000371
1.0000371
1.0000371
1.0000371
1.0000371
1.0000371
1.0000371
1.0000371
1.0000371
1.0000371
1.0000372
1.0000372
1.0000372
1.0000372
1.0000372
1.0000372
1.0000372
1.0000372
1.0000372
1.0000372
1.0000372
1.0000372
1.0000372
1.0000372
1.0000372
1.0000372
1.0000372
1.0000372
1.0000372
1.0000372
1.0000371
1.000037
1.0000367
1.0000362
1.0000351
1.0000332
1.0000299
1.0000257
1.0000337
1.0000337
1.0000337
1.0000337
1.0000337
1.0000338
1.0000338
1.0000338
1.0000338
1.0000338
1.0000338
1.0000339
1.0000339
1.0000339
1.0000339
1.0000339
1.0000339
1.0000339
1.000034
1.000034
1.000034
1.000034
1.000034
1.000034
1.000034
1.000034
1.000034
1.000034
1.000034
1.000034
1.000034
1.000034
1.000034
1.000034
1.000034
1.000034
1.000034
1.000034
1.0000341
1.0000341
1.0000341
1.0000341
1.0000341
1.0000341
1.0000341
1.000034
1.000034
1.000034
1.000034
1.000034
1.000034
1.000034
1.0000339
1.0000336
1.0000331
1.0000322
1.0000304
1.0000274
1.0000235
1.0000308
1.0000308
1.0000308
1.0000308
1.0000308
1.0000308
1.0000309
1.0000309
1.0000309
1.0000309
1.0000309
1.0000309
1.000031
1.000031
1.000031
1.000031
1.000031
1.000031
1.000031
1.000031
1.000031
1.000031
1.000031
1.000031
1.000031
1.000031
1.000031
1.000031
1.000031
1.000031
1.000031
1.000031
1.0000311
1.0000311
1.0000311
1.0000311
1.0000311
1.0000311
1.0000311
1.0000311
1.0000311
1.0000311
1.0000311
1.0000311
1.0000311
1.0000311
1.0000311
1.0000311
1.0000311
1.0000311
1.0000311
1.000031
1.0000309
1.0000307
1.0000303
1.0000294
1.0000278
1.000025
1.0000215
1.0000281
1.0000281
1.0000281
1.0000281
1.0000281
1.0000281
1.0000281
1.0000282
1.0000282
1.0000282
1.0000282
1.0000282
1.0000282
1.0000282
1.0000283
1.0000283
1.0000283
1.0000283
1.0000283
1.0000283
1.0000283
1.0000283
1.0000283
1.0000283
1.0000283
1.0000283
1.0000283
1.0000283
1.0000283
1.0000283
1.0000283
1.0000283
1.0000283
1.0000283
1.0000283
1.0000283
1.0000283
1.0000283
1.0000284
1.0000284
1.0000284
1.0000284
1.0000284
1.0000284
1.0000284
1.0000283
1.0000283
1.0000283
1.0000283
1.0000283
1.0000283
1.0000283
1.0000282
1.000028
1.0000276
1.0000269
1.0000254
1.0000229
1.0000196
1.0000255
1.0000256
1.0000256
1.0000256
1.0000256
1.0000256
1.0000256
1.0000256
1.0000257
1.0000257
1.0000257
1.0000257
1.0000257
1.0000257
1.0000257
1.0000257
1.0000257
1.0000257
1.0000258
1.0000258
1.0000258
1.0000258
1.0000258
1.0000258
1.0000258
1.0000258
1.0000258
1.0000258
1.0000258
1.0000258
1.0000258
1.0000258
1.0000258
1.0000258
1.0000258
1.0000258
1.0000258
1.0000258
1.0000258
1.0000258
1.0000258
1.0000258
1.0000258
1.0000258
1.0000258
1.0000258
1.0000258
1.0000258
1.0000258
1.0000258
1.0000258
1.0000258
1.0000257
1.0000255
1.0000252
1.0000245
1.0000232
1.0000208
1.0000179
1.0000232
1.0000232
1.0000233
1.0000233
1.0000233
1.0000233
1.0000233
1.0000233
1.0000233
1.0000233
1.0000233
1.0000234
1.0000234
1.0000234
1.0000234
1.0000234
1.0000234
1.0000234
1.0000234
1.0000234
1.0000234
1.0000234
1.0000234
1.0000234
1.0000234
1.0000234
1.0000234
1.0000234
1.0000234
1.0000234
1.0000234
1.0000234
1.0000234
1.0000234
1.0000234
1.0000234
1.0000234
1.0000234
1.0000235
1.0000235
1.0000235
1.0000235
1.0000235
1.0000235
1.0000235
1.0000234
1.0000234
1.0000234
1.0000234
1.0000234
1.0000234
1.0000234
1.0000234
1.0000232
1.0000229
1.0000223
1.0000211
1.000019
1.0000163
1.0000211
1.0000211
1.0000211
1.0000211
1.0000211
1.0000211
1.0000212
1.0000212
1.0000212
1.0000212
1.0000212
1.0000212
1.0000212
1.0000212
1.0000212
1.0000212
1.0000212
1.0000212
1.0000213
1.0000213
1.0000213
1.0000213
1.0000213
1.0000213
1.0000213
1.0000213
1.0000212
1.0000212
1.0000212
1.0000212
1.0000212
1.0000212
1.0000213
1.0000213
1.0000213
1.0000213
1.0000213
1.0000213
1.0000213
1.0000213
1.0000213
1.0000213
1.0000213
1.0000213
1.0000213
1.0000213
1.0000213
1.0000213
1.0000213
1.0000213
1.0000213
1.0000213
1.0000212
1.0000211
1.0000209
1.0000203
1.0000192
1.0000173
1.0000148
1.0000191
1.0000191
1.0000192
1.0000192
1.0000192
1.0000192
1.0000192
1.0000192
1.0000192
1.0000192
1.0000192
1.0000192
1.0000192
1.0000193
1.0000193
1.0000193
1.0000193
1.0000193
1.0000193
1.0000193
1.0000193
1.0000193
1.0000193
1.0000193
1.0000193
1.0000193
1.0000193
1.0000193
1.0000193
1.0000193
1.0000193
1.0000193
1.0000193
1.0000193
1.0000193
1.0000193
1.0000193
1.0000193
1.0000193
1.0000193
1.0000193
1.0000193
1.0000193
1.0000193
1.0000193
1.0000193
1.0000193
1.0000193
1.0000193
1.0000193
1.0000193
1.0000193
1.0000193
1.0000192
1.000019
1.0000185
1.0000175
1.0000157
1.0000135
1.0000173
1.0000173
1.0000174
1.0000174
1.0000174
1.0000174
1.0000174
1.0000174
1.0000174
1.0000174
1.0000174
1.0000174
1.0000174
1.0000174
1.0000174
1.0000174
1.0000174
1.0000175
1.0000175
1.0000175
1.0000175
1.0000175
1.0000175
1.0000175
1.0000174
1.0000174
1.0000174
1.0000174
1.0000174
1.0000174
1.0000174
1.0000174
1.0000174
1.0000175
1.0000175
1.0000175
1.0000175
1.0000175
1.0000175
1.0000175
1.0000175
1.0000175
1.0000175
1.0000175
1.0000175
1.0000175
1.0000175
1.0000175
1.0000174
1.0000174
1.0000175
1.0000175
1.0000174
1.0000174
1.0000172
1.0000168
1.000016
1.0000143
1.0000122
1.0000157
1.0000157
1.0000157
1.0000157
1.0000157
1.0000157
1.0000157
1.0000157
1.0000157
1.0000157
1.0000158
1.0000158
1.0000158
1.0000158
1.0000158
1.0000158
1.0000158
1.0000158
1.0000158
1.0000158
1.0000158
1.0000158
1.0000158
1.0000158
1.0000158
1.0000158
1.0000158
1.0000158
1.0000158
1.0000158
1.0000158
1.0000158
1.0000158
1.0000158
1.0000158
1.0000158
1.0000158
1.0000158
1.0000158
1.0000158
1.0000158
1.0000158
1.0000158
1.0000158
1.0000158
1.0000158
1.0000158
1.0000158
1.0000158
1.0000158
1.0000158
1.0000158
1.0000158
1.0000158
1.0000156
1.0000153
1.0000146
1.0000131
1.0000111
1.0000142
1.0000142
1.0000142
1.0000142
1.0000142
1.0000142
1.0000142
1.0000142
1.0000142
1.0000142
1.0000143
1.0000143
1.0000143
1.0000143
1.0000143
1.0000143
1.0000143
1.0000143
1.0000143
1.0000143
1.0000143
1.0000143
1.0000143
1.0000143
1.0000143
1.0000143
1.0000143
1.0000143
1.0000143
1.0000143
1.0000143
1.0000143
1.0000143
1.0000143
1.0000143
1.0000143
1.0000143
1.0000143
1.0000143
1.0000143
1.0000143
1.0000143
1.0000143
1.0000143
1.0000143
1.0000143
1.0000143
1.0000143
1.0000143
1.0000143
1.0000143
1.0000143
1.0000143
1.0000143
1.0000142
1.0000139
1.0000133
1.0000119
1.0000101
1.0000129
1.0000129
1.0000129
1.0000129
1.0000129
1.0000129
1.0000129
1.0000129
1.0000129
1.0000129
1.0000129
1.0000129
1.0000129
1.0000129
1.0000129
1.0000129
1.0000129
1.0000129
1.0000129
1.0000129
1.0000129
1.0000129
1.0000129
1.0000129
1.0000129
1.0000129
1.0000129
1.0000129
1.0000129
1.0000129
1.0000129
1.0000129
1.0000129
1.0000129
1.0000129
1.0000129
1.0000129
1.0000129
1.0000129
1.0000129
1.0000129
1.0000129
1.0000129
1.0000129
1.0000129
1.0000129
1.0000129
1.0000129
1.0000129
1.0000129
1.0000129
1.0000129
1.0000129
1.0000129
1.0000129
1.0000127
1.0000121
1.0000109
1.0000092
1.0000117
1.0000117
1.0000117
1.0000117
1.0000117
1.0000117
1.0000117
1.0000117
1.0000117
1.0000117
1.0000117
1.0000117
1.0000117
1.0000117
1.0000117
1.0000117
1.0000117
1.0000117
1.0000117
1.0000117
1.0000117
1.0000117
1.0000117
1.0000117
1.0000117
1.0000117
1.0000117
1.0000117
1.0000117
1.0000117
1.0000117
1.0000117
1.0000117
1.0000117
1.0000117
1.0000117
1.0000117
1.0000117
1.0000117
1.0000117
1.0000117
1.0000117
1.0000117
1.0000117
1.0000117
1.0000117
1.0000117
1.0000117
1.0000117
1.0000117
1.0000117
1.0000117
1.0000117
1.0000117
1.0000117
1.0000115
1.0000111
1.00001
1.0000085
1.0000307
1.000034
1.0000376
1.0000415
1.0000458
1.0000504
1.0000554
1.0000608
1.0000665
1.0000727
1.0000792
1.0000862
1.0000936
1.0001014
1.0001096
1.0001182
1.0001271
1.0001362
1.0001455
1.0001549
1.0001643
1.0001735
1.0001822
1.0001905
1.000198
1.0002045
1.0002099
1.000214
1.0002165
1.0002174
1.0002167
1.0002142
1.0002101
1.0002044
1.0001974
1.0001889
1.0001792
1.0001685
1.000157
1.000145
1.0001327
1.0001202
1.0001078
1.0000953
1.000083
1.0000708
1.0000589
1.0000472
1.0000359
1.0000251
1.0000147
1.0000047
0.99999522
0.99998627
0.99997785
0.99996994
0.99996255
0.99995564
0.99994919
0.99994316
0.99993755
0.99993231
0.99992742
0.99992286
0.99991862
0.99991467
0.999911
0.99990758
0.99990439
0.99990143
0.99989868
0.99989611
0.99989373
0.99989153
1.0000358
1.0000394
1.0000434
1.0000478
1.0000525
1.0000576
1.0000631
1.000069
1.0000754
1.0000822
1.0000895
1.0000972
1.0001054
1.000114
1.000123
1.0001324
1.0001421
1.000152
1.000162
1.000172
1.0001819
1.0001915
1.0002005
1.0002088
1.0002161
1.0002222
1.0002269
1.00023
1.0002312
1.0002306
1.0002279
1.0002232
1.0002165
1.000208
1.0001979
1.0001863
1.0001735
1.0001596
1.0001449
1.0001295
1.0001138
1.000098
1.0000822
1.0000667
1.0000515
1.0000367
1.0000223
1.0000084
0.99999518
0.99998255
0.99997069
0.99995951
0.99994887
0.99993881
0.99992934
0.99992046
0.99991212
0.99990426
0.99989688
0.99988997
0.9998835
0.99987747
0.99987185
0.99986662
0.99986175
0.99985723
0.99985304
0.99984915
0.99984555
0.99984221
0.99983911
0.99983626
0.99983361
0.99983118
1.0000396
1.0000437
1.0000481
1.0000529
1.0000581
1.0000638
1.0000699
1.0000764
1.0000835
1.0000911
1.0000991
1.0001077
1.0001168
1.0001264
1.0001365
1.0001469
1.0001577
1.0001687
1.0001798
1.0001909
1.0002018
1.0002123
1.0002222
1.0002312
1.0002391
1.0002456
1.0002504
1.0002533
1.0002541
1.0002527
1.0002489
1.0002428
1.0002343
1.0002237
1.000211
1.0001966
1.0001807
1.0001636
1.0001456
1.0001269
1.0001077
1.0000884
1.0000691
1.00005
1.0000313
1.000013
0.99999541
0.99997844
0.99996219
0.99994668
0.99993193
0.99991796
0.99990475
0.99989233
0.99988063
0.99986964
0.99985934
0.99984972
0.99984068
0.99983221
0.99982428
0.99981693
0.99981013
0.99980383
0.999798
0.9997926
0.99978761
0.999783
0.99977875
0.99977483
0.99977122
0.9997679
0.99976484
0.99976204
1.0000419
1.0000463
1.0000511
1.0000563
1.0000619
1.000068
1.0000746
1.0000817
1.0000894
1.0000976
1.0001063
1.0001157
1.0001256
1.0001361
1.0001471
1.0001585
1.0001703
1.0001824
1.0001947
1.000207
1.000219
1.0002307
1.0002417
1.0002518
1.0002607
1.0002681
1.0002737
1.0002772
1.0002785
1.0002772
1.0002735
1.0002671
1.0002581
1.0002467
1.0002331
1.0002174
1.0001999
1.000181
1.000161
1.0001401
1.0001187
1.000097
1.0000753
1.0000537
1.0000324
1.0000116
0.99999147
0.99997203
0.99995336
0.99993551
0.99991851
0.99990235
0.99988705
0.99987261
0.999859
0.99984621
0.99983422
0.99982293
0.99981231
0.99980242
0.99979321
0.99978466
0.99977673
0.99976937
0.99976256
0.99975626
0.99975044
0.99974506
0.99974008
0.99973549
0.99973125
0.99972736
0.99972376
0.99972049
1.0000432
1.0000478
1.0000528
1.0000583
1.0000642
1.0000707
1.0000776
1.0000852
1.0000933
1.000102
1.0001113
1.0001213
1.0001318
1.000143
1.0001547
1.000167
1.0001797
1.0001928
1.000206
1.0002193
1.0002325
1.0002453
1.0002575
1.0002687
1.0002787
1.0002872
1.0002938
1.0002984
1.0003005
1.0003001
1.0002969
1.0002911
1.0002825
1.0002713
1.0002577
1.0002419
1.0002242
1.0002049
1.0001843
1.0001627
1.0001405
1.0001178
1.000095
1.0000723
1.0000499
1.0000279
1.0000065
0.99998575
0.99996581
0.9999467
0.99992845
0.99991107
0.99989458
0.99987898
0.99986426
0.9998504
0.99983738
0.99982517
0.99981374
0.99980307
0.99979311
0.99978384
0.99977521
0.99976718
0.99975973
0.99975282
0.99974641
0.99974048
0.999735
0.99972993
0.99972525
0.99972094
0.99971694
0.99971328
1.000044
1.0000487
1.0000539
1.0000595
1.0000657
1.0000723
1.0000796
1.0000874
1.0000959
1.0001049
1.0001147
1.0001251
1.0001361
1.0001478
1.0001602
1.0001731
1.0001865
1.0002003
1.0002143
1.0002285
1.0002426
1.0002563
1.0002695
1.0002817
1.0002928
1.0003023
1.00031
1.0003156
1.0003187
1.0003192
1.000317
1.000312
1.0003042
1.0002937
1.0002808
1.0002655
1.0002482
1.0002292
1.0002088
1.0001874
1.0001652
1.0001426
1.0001197
1.0000969
1.0000743
1.0000521
1.0000304
1.0000094
0.9999891
0.99996964
0.99995103
0.99993328
0.99991641
0.99990044
0.99988535
0.99987112
0.99985775
0.99984519
0.99983343
0.99982244
0.99981217
0.9998026
0.99979369
0.99978539
0.99977769
0.99977054
0.99976391
0.99975776
0.99975208
0.99974682
0.99974195
0.99973746
0.99973332
0.99972951
1.0000443
1.0000492
1.0000545
1.0000603
1.0000665
1.0000734
1.0000808
1.0000889
1.0000975
1.0001069
1.0001169
1.0001276
1.0001391
1.0001512
1.000164
1.0001773
1.0001913
1.0002056
1.0002203
1.0002352
1.00025
1.0002645
1.0002784
1.0002915
1.0003035
1.0003139
1.0003225
1.0003289
1.000333
1.0003344
1.0003331
1.000329
1.000322
1.0003123
1.0003
1.0002855
1.0002688
1.0002504
1.0002306
1.0002097
1.000188
1.0001657
1.0001432
1.0001207
1.0000983
1.0000763
1.0000549
1.000034
1.0000139
0.99999456
0.99997604
0.99995837
0.99994157
0.99992565
0.99991059
0.99989639
0.99988303
0.99987049
0.99985873
0.99984773
0.99983746
0.99982788
0.99981895
0.99981064
0.99980292
0.99979575
0.99978909
0.99978293
0.99977722
0.99977193
0.99976705
0.99976254
0.99975837
0.99975454
1.0000445
1.0000494
1.0000548
1.0000607
1.0000671
1.000074
1.0000816
1.0000898
1.0000987
1.0001082
1.0001184
1.0001294
1.0001411
1.0001535
1.0001666
1.0001803
1.0001947
1.0002095
1.0002246
1.00024
1.0002553
1.0002704
1.000285
1.0002987
1.0003114
1.0003225
1.0003318
1.000339
1.0003438
1.000346
1.0003455
1.0003421
1.0003358
1.0003268
1.0003152
1.0003013
1.0002852
1.0002674
1.0002481
1.0002277
1.0002065
1.0001846
1.0001625
1.0001404
1.0001184
1.0000967
1.0000756
1.000055
1.0000351
1.000016
0.99999772
0.99998024
0.99996362
0.99994786
0.99993296
0.9999189
0.99990566
0.99989323
0.99988158
0.99987068
0.99986049
0.99985099
0.99984213
0.99983389
0.99982623
0.99981911
0.9998125
0.99980638
0.99980071
0.99979547
0.99979061
0.99978614
0.999782
0.9997782
1.0000446
1.0000496
1.000055
1.0000609
1.0000674
1.0000745
1.0000821
1.0000904
1.0000994
1.0001091
1.0001195
1.0001306
1.0001425
1.0001551
1.0001685
1.0001825
1.0001971
1.0002122
1.0002277
1.0002435
1.0002592
1.0002747
1.0002898
1.000304
1.0003172
1.0003288
1.0003387
1.0003465
1.0003519
1.0003547
1.0003547
1.0003519
1.0003462
1.0003377
1.0003267
1.0003132
1.0002976
1.0002803
1.0002614
1.0002414
1.0002205
1.000199
1.0001773
1.0001554
1.0001337
1.0001123
1.0000914
1.000071
1.0000513
1.0000324
1.0000143
0.99999696
0.99998048
0.99996485
0.99995007
0.99993613
0.999923
0.99991067
0.99989911
0.99988829
0.99987818
0.99986875
0.99985996
0.99985178
0.99984418
0.99983711
0.99983056
0.99982449
0.99981886
0.99981366
0.99980885
0.99980441
0.99980031
0.99979654
1.0000447
1.0000496
1.0000551
1.0000611
1.0000676
1.0000747
1.0000824
1.0000908
1.0000999
1.0001096
1.0001202
1.0001314
1.0001435
1.0001562
1.0001698
1.000184
1.0001988
1.0002142
1.00023
1.000246
1.000262
1.0002779
1.0002933
1.0003079
1.0003214
1.0003335
1.0003438
1.000352
1.0003578
1.0003611
1.0003615
1.0003591
1.0003538
1.0003458
1.0003351
1.000322
1.0003068
1.0002897
1.0002712
1.0002514
1.0002308
1.0002095
1.000188
1.0001663
1.0001448
1.0001235
1.0001027
1.0000825
1.000063
1.0000441
1.0000261
1.0000089
0.99999248
0.99997693
0.99996222
0.99994834
0.99993527
0.999923
0.99991149
0.99990073
0.99989066
0.99988128
0.99987253
0.99986439
0.99985682
0.9998498
0.99984328
0.99983724
0.99983164
0.99982647
0.99982169
0.99981728
0.9998132
0.99980946
1.0000447
1.0000497
1.0000552
1.0000612
1.0000677
1.0000749
1.0000826
1.0000911
1.0001002
1.00011
1.0001206
1.000132
1.0001441
1.000157
1.0001707
1.000185
1.0002
1.0002156
1.0002315
1.0002478
1.000264
1.0002801
1.0002958
1.0003107
1.0003245
1.0003369
1.0003475
1.000356
1.0003622
1.0003657
1.0003665
1.0003644
1.0003594
1.0003517
1.0003413
1.0003284
1.0003134
1.0002966
1.0002782
1.0002586
1.0002382
1.0002171
1.0001956
1.0001741
1.0001526
1.0001314
1.0001107
1.0000906
1.0000711
1.0000523
1.0000343
1.0000171
1.0000008
0.99998524
0.99997057
0.99995672
0.99994368
0.99993144
0.99991996
0.99990922
0.99989918
0.99988982
0.99988109
0.99987298
0.99986543
0.99985842
0.99985193
0.99984591
0.99984033
0.99983518
0.99983042
0.99982602
0.99982197
0.99981824
1.0000447
1.0000497
1.0000552
1.0000612
1.0000678
1.000075
1.0000828
1.0000912
1.0001004
1.0001103
1.000121
1.0001324
1.0001446
1.0001576
1.0001713
1.0001858
1.0002009
1.0002166
1.0002327
1.000249
1.0002655
1.0002817
1.0002976
1.0003127
1.0003267
1.0003393
1.0003502
1.0003589
1.0003653
1.0003691
1.0003702
1.0003683
1.0003635
1.000356
1.0003458
1.0003331
1.0003183
1.0003016
1.0002833
1.0002639
1.0002435
1.0002224
1.0002011
1.0001796
1.0001582
1.000137
1.0001164
1.0000962
1.0000767
1.000058
1.00004
1.0000228
1.0000065
0.99999099
0.99997632
0.99996249
0.99994946
0.99993723
0.99992576
0.99991503
0.99990501
0.99989565
0.99988694
0.99987883
0.9998713
0.99986431
0.99985782
0.99985181
0.99984625
0.99984111
0.99983636
0.99983198
0.99982793
0.99982422
1.0000447
1.0000497
1.0000552
1.0000612
1.0000678
1.000075
1.0000828
1.0000913
1.0001005
1.0001105
1.0001212
1.0001326
1.0001449
1.000158
1.0001718
1.0001863
1.0002015
1.0002173
1.0002335
1.0002499
1.0002665
1.0002829
1.0002989
1.0003141
1.0003283
1.0003411
1.0003521
1.0003611
1.0003676
1.0003716
1.0003728
1.0003711
1.0003666
1.0003592
1.0003491
1.0003366
1.0003219
1.0003053
1.0002871
1.0002677
1.0002474
1.0002264
1.0002051
1.0001836
1.0001622
1.0001411
1.0001204
1.0001003
1.0000808
1.0000621
1.0000441
1.0000269
1.0000106
0.99999506
0.9999804
0.99996656
0.99995354
0.99994131
0.99992985
0.99991912
0.9999091
0.99989975
0.99989104
0.99988294
0.99987541
0.99986842
0.99986195
0.99985594
0.99985039
0.99984526
0.99984052
0.99983614
0.9998321
0.9998284
1.0000447
1.0000497
1.0000552
1.0000612
1.0000678
1.000075
1.0000829
1.0000914
1.0001006
1.0001106
1.0001213
1.0001328
1.0001451
1.0001582
1.0001721
1.0001867
1.0002019
1.0002177
1.000234
1.0002506
1.0002672
1.0002837
1.0002998
1.0003151
1.0003294
1.0003423
1.0003535
1.0003626
1.0003694
1.0003735
1.0003748
1.0003733
1.0003689
1.0003616
1.0003517
1.0003393
1.0003247
1.0003082
1.0002901
1.0002707
1.0002504
1.0002295
1.0002081
1.0001867
1.0001653
1.0001442
1.0001235
1.0001034
1.0000839
1.0000652
1.0000472
1.00003
1.0000136
0.99999812
0.99998345
0.99996961
0.99995659
0.99994436
0.99993289
0.99992216
0.99991214
0.9999028
0.99989409
0.99988599
0.99987847
0.99987148
0.99986501
0.99985901
0.99985346
0.99984833
0.9998436
0.99983923
0.9998352
0.9998315
1.0000447
1.0000497
1.0000552
1.0000612
1.0000678
1.000075
1.0000829
1.0000914
1.0001007
1.0001106
1.0001214
1.0001329
1.0001452
1.0001584
1.0001723
1.0001869
1.0002022
1.0002181
1.0002344
1.000251
1.0002677
1.0002842
1.0003004
1.0003158
1.0003302
1.0003432
1.0003545
1.0003638
1.0003706
1.0003749
1.0003764
1.000375
1.0003707
1.0003636
1.0003538
1.0003415
1.000327
1.0003105
1.0002925
1.0002732
1.000253
1.000232
1.0002107
1.0001893
1.0001679
1.0001468
1.0001261
1.000106
1.0000865
1.0000677
1.0000497
1.0000325
1.0000162
1.0000007
0.99998598
0.99997213
0.9999591
0.99994686
0.99993539
0.99992466
0.99991463
0.99990528
0.99989658
0.99988848
0.99988095
0.99987397
0.99986749
0.9998615
0.99985595
0.99985082
0.99984609
0.99984172
0.99983769
0.999834
1.0000447
1.0000497
1.0000552
1.0000612
1.0000678
1.0000751
1.0000829
1.0000914
1.0001007
1.0001107
1.0001214
1.000133
1.0001453
1.0001585
1.0001724
1.000187
1.0002023
1.0002182
1.0002346
1.0002513
1.000268
1.0002846
1.0003008
1.0003163
1.0003308
1.0003439
1.0003553
1.0003646
1.0003716
1.000376
1.0003777
1.0003764
1.0003723
1.0003653
1.0003556
1.0003435
1.0003291
1.0003127
1.0002948
1.0002755
1.0002553
1.0002344
1.0002132
1.0001917
1.0001704
1.0001493
1.0001286
1.0001084
1.0000889
1.0000701
1.0000521
1.0000349
1.0000185
1.000003
0.99998832
0.99997446
0.99996142
0.99994917
0.99993769
0.99992695
0.99991692
0.99990757
0.99989886
0.99989076
0.99988323
0.99987624
0.99986977
0.99986377
0.99985822
0.9998531
0.99984836
0.999844
0.99983997
0.99983627
1.0000447
1.0000497
1.0000552
1.0000612
1.0000678
1.000075
1.0000829
1.0000914
1.0001007
1.0001107
1.0001214
1.000133
1.0001453
1.0001585
1.0001724
1.0001871
1.0002024
1.0002183
1.0002347
1.0002514
1.0002682
1.0002848
1.0003011
1.0003166
1.0003312
1.0003444
1.0003558
1.0003653
1.0003724
1.000377
1.0003788
1.0003777
1.0003737
1.0003669
1.0003574
1.0003454
1.0003311
1.0003149
1.0002971
1.0002779
1.0002578
1.0002369
1.0002157
1.0001943
1.0001729
1.0001518
1.0001312
1.000111
1.0000915
1.0000727
1.0000546
1.0000374
1.000021
1.0000055
0.99999076
0.99997689
0.99996383
0.99995157
0.99994008
0.99992933
0.99991929
0.99990993
0.99990121
0.99989309
0.99988556
0.99987857
0.99987209
0.99986609
0.99986054
0.99985541
0.99985067
0.9998463