/*--------------------------------*- C++ -*----------------------------------*\
| =========                 |                                                 |
| \\      /  F ield         | OpenFOAM: The Open Source CFD Toolbox           |
|  \\    /   O peration     | Version:  v2006                                 |
|   \\  /    A nd           | Website:  www.openfoam.com                      |
|    \\/     M anipulation  |                                                 |
\*---------------------------------------------------------------------------*/
FoamFile
{
    version     2.0;
    format      ascii;
    class       volVectorField;
    location    "3000";
    object      U;
}
// * * * * * * * * * * * * * * * * * * * * * * * * * * * * * * * * * * * * * //

dimensions      [0 1 -1 0 0 0 0];


internalField   nonuniform List<vector> 
55713
(
(0.10322578 6.7054541e-07 0)
(0.10313087 -3.2755121e-07 0)
(0.10311293 8.9626459e-07 2.5657691e-18)
(0.10311062 7.0190628e-07 -2.5523701e-18)
(0.10311185 1.4506401e-06 2.570473e-18)
(0.10311312 1.4633412e-06 4.4736968e-28)
(0.10311371 1.9594156e-06 -2.6459768e-18)
(0.10311371 2.095931e-06 0)
(0.10311336 2.4167141e-06 1.0710072e-20)
(0.10311297 2.6684804e-06 0)
(0.10311287 2.9311922e-06 -1.1106854e-20)
(0.10311314 3.1817537e-06 -1.131119e-20)
(0.10311369 3.4295033e-06 0)
(0.10311439 3.6492936e-06 3.0028026e-18)
(0.10311507 3.8510813e-06 -3.0574179e-18)
(0.10311557 4.0572386e-06 -6.0793148e-21)
(0.10311573 4.2522142e-06 3.1745159e-18)
(0.10311551 4.4471752e-06 -3.2245159e-18)
(0.10311504 4.6489692e-06 6.4084601e-21)
(0.10311462 4.8369645e-06 -3.3381446e-18)
(0.10311449 5.021637e-06 3.3888763e-18)
(0.10311469 5.1947603e-06 0)
(0.10311509 5.3657614e-06 0)
(0.10311551 5.5450629e-06 -1.7916629e-18)
(0.10311585 5.7241503e-06 1.8138939e-18)
(0.10311609 5.9073321e-06 0)
(0.10311623 6.0866674e-06 0)
(0.10311632 6.2743425e-06 0)
(0.10311636 6.4688893e-06 2.4134442e-19)
(0.10311636 6.6694712e-06 -7.5551592e-29)
(0.1031163 6.8609818e-06 -2.4399402e-19)
(0.10311617 7.0398387e-06 0)
(0.10311592 7.2286558e-06 0)
(0.10311555 7.4092062e-06 0)
(0.10311509 7.5816256e-06 0)
(0.10311465 7.7544856e-06 1.8045422e-18)
(0.10311441 7.934073e-06 -1.7681773e-18)
(0.10311449 8.1191505e-06 -3.4915715e-18)
(0.10311482 8.3109748e-06 2.7896691e-27)
(0.10311517 8.5117291e-06 3.3685029e-18)
(0.10311531 8.7198687e-06 0)
(0.10311518 8.9397128e-06 6.3671702e-21)
(0.10311493 9.1581498e-06 -3.2030453e-18)
(0.10311477 9.3679044e-06 3.1465423e-18)
(0.10311482 9.5895643e-06 3.0905351e-18)
(0.10311496 9.8131257e-06 -3.0410174e-18)
(0.103115 1.0043794e-05 0)
(0.10311484 1.0279951e-05 0)
(0.10311454 1.0526889e-05 -2.8619111e-18)
(0.10311419 1.0764597e-05 2.8210905e-18)
(0.10311387 1.1035145e-05 0)
(0.10311361 1.1280379e-05 0)
(0.10311343 1.1595193e-05 0)
(0.10311325 1.1843726e-05 0)
(0.10311302 1.2213212e-05 2.5881969e-18)
(0.1031129 1.2469847e-05 -3.6969382e-27)
(0.10311312 1.2876942e-05 -3.7787925e-18)
(0.10311336 1.325761e-05 1.2278241e-18)
(0.10311319 1.3384012e-05 -1.9265856e-20)
(0.10323226 1.0934376e-06 0)
(0.10314651 -2.6005152e-07 2.42254e-18)
(0.10313241 1.0421049e-06 -2.5050739e-18)
(0.10313118 6.7723944e-07 3.9161753e-20)
(0.10313263 1.3031009e-06 -2.5374812e-18)
(0.10313379 1.2302635e-06 5.1418027e-18)
(0.10313423 1.6406125e-06 2.9536222e-27)
(0.10313413 1.740699e-06 -2.6836471e-18)
(0.10313374 2.0686837e-06 -1.0692505e-20)
(0.1031334 2.3445548e-06 2.180851e-20)
(0.10313336 2.6659019e-06 -2.8351163e-18)
(0.10313365 2.9308723e-06 2.9128465e-18)
(0.10313417 3.1525543e-06 2.9572746e-18)
(0.10313482 3.3693391e-06 1.0718618e-27)
(0.10313545 3.5449523e-06 1.7943961e-27)
(0.10313589 3.7099895e-06 -3.12085e-18)
(0.10313598 3.8521554e-06 -6.2191468e-21)
(0.10313569 3.9760848e-06 0)
(0.10313519 4.085489e-06 3.2931633e-18)
(0.1031348 4.1617809e-06 -6.715492e-18)
(0.10313473 4.2845856e-06 3.4228294e-18)
(0.10313499 4.4275575e-06 1.3573546e-20)
(0.10313541 4.5775625e-06 0)
(0.10313583 4.7485019e-06 7.0173764e-21)
(0.10313614 4.9336955e-06 0)
(0.10313635 5.120787e-06 9.1341542e-19)
(0.10313648 5.3111701e-06 -1.8855677e-18)
(0.10313655 5.5425063e-06 9.4267285e-19)
(0.10313658 5.7604663e-06 2.4310867e-19)
(0.10313658 5.9317412e-06 -2.6151894e-19)
(0.10313652 6.117309e-06 0)
(0.10313639 6.3112348e-06 9.5175364e-19)
(0.10313616 6.4902879e-06 -1.903784e-18)
(0.1031358 6.6227265e-06 9.3689818e-19)
(0.10313533 6.7134878e-06 0)
(0.10313486 6.8067976e-06 1.8138747e-18)
(0.10313457 6.9212617e-06 -1.7909791e-18)
(0.1031346 7.0398369e-06 1.3704995e-20)
(0.10313494 7.1784746e-06 0)
(0.10313537 7.3643572e-06 6.6212835e-21)
(0.1031356 7.598542e-06 3.331289e-18)
(0.10313552 7.87558e-06 -6.551915e-18)
(0.10313525 8.1156873e-06 -7.1756966e-28)
(0.10313501 8.2784182e-06 3.1565557e-18)
(0.10313496 8.4517611e-06 -3.0988941e-18)
(0.10313503 8.6434681e-06 6.0890502e-18)
(0.10313505 8.8327146e-06 -5.9691636e-18)
(0.10313491 9.0141143e-06 2.9280265e-18)
(0.10313463 9.2277281e-06 -1.1218598e-20)
(0.1031343 9.4302498e-06 0)
(0.10313398 9.6925237e-06 0)
(0.1031337 9.894717e-06 0)
(0.10313349 1.0239145e-05 -2.6757782e-18)
(0.1031333 1.0415514e-05 2.6239715e-18)
(0.10313304 1.0812751e-05 0)
(0.10313282 1.0992868e-05 3.9165045e-20)
(0.103133 1.1434642e-05 0)
(0.10313327 1.1636765e-05 1.8915411e-20)
(0.10313307 1.2044062e-05 1.8547957e-20)
(0.10323792 1.2546851e-06 0)
(0.10316135 -2.5798853e-07 3.7322957e-20)
(0.1031495 9.9307484e-07 -3.7936139e-20)
(0.10314921 5.9626965e-07 -3.8472579e-20)
(0.1031508 1.1289949e-06 -2.544922e-18)
(0.10315183 1.0943659e-06 2.5789352e-18)
(0.10315213 1.4548378e-06 0)
(0.10315196 1.5074558e-06 2.0893842e-20)
(0.10315161 1.7600836e-06 -5.4653446e-18)
(0.10315141 1.9122745e-06 5.5380635e-18)
(0.1031515 2.1085484e-06 0)
(0.10315179 2.3160486e-06 -2.2712629e-20)
(0.10315222 2.5440427e-06 0)
(0.10315277 2.791774e-06 3.0003023e-18)
(0.10315332 3.0465869e-06 -6.1648216e-18)
(0.10315367 3.290595e-06 3.1409936e-18)
(0.10315368 3.5168907e-06 -3.1871993e-18)
(0.10315331 3.7168129e-06 -1.3300158e-27)
(0.10315278 3.8538765e-06 3.3175555e-18)
(0.10315243 3.9201165e-06 -3.3767385e-18)
(0.10315246 3.9640753e-06 -6.7365959e-27)
(0.10315279 4.0099344e-06 3.4956812e-18)
(0.10315325 4.0757241e-06 0)
(0.10315365 4.1730271e-06 1.7935955e-18)
(0.10315394 4.3032274e-06 3.2425628e-27)
(0.10315413 4.4225159e-06 -1.8387477e-18)
(0.10315424 4.5395641e-06 -1.4828921e-20)
(0.1031543 4.6705331e-06 4.9712762e-19)
(0.10315433 4.8139908e-06 -4.895785e-19)
(0.10315432 4.9975965e-06 2.4770801e-19)
(0.10315427 5.2435365e-06 -2.4684405e-19)
(0.10315415 5.5032523e-06 3.0382454e-20)
(0.10315394 5.7130916e-06 0)
(0.1031536 5.8598608e-06 1.4716362e-20)
(0.10315314 5.992531e-06 -1.4478955e-20)
(0.10315263 6.0724619e-06 -1.4241957e-20)
(0.10315228 6.138257e-06 -1.4005534e-20)
(0.10315226 6.2155609e-06 -1.3769803e-20)
(0.1031526 6.286658e-06 3.4513612e-18)
(0.10315309 6.4562377e-06 -3.4049129e-18)
(0.10315342 6.7168671e-06 0)
(0.10315341 6.9429449e-06 3.2854857e-18)
(0.10315312 7.0704911e-06 -3.2134038e-18)
(0.10315279 7.1674941e-06 3.1913842e-18)
(0.10315262 7.3299621e-06 -3.107379e-18)
(0.10315262 7.5139664e-06 -3.0243758e-18)
(0.10315262 7.6490603e-06 1.5805311e-27)
(0.10315251 7.7278759e-06 2.907134e-18)
(0.10315228 7.8753672e-06 2.2430053e-20)
(0.10315199 8.0027599e-06 0)
(0.10315167 8.2689017e-06 0)
(0.10315136 8.4203463e-06 0)
(0.10315112 8.8117872e-06 2.0597234e-20)
(0.10315093 8.9241961e-06 -2.014365e-20)
(0.10315064 9.376972e-06 0)
(0.10315033 9.5025572e-06 2.4636311e-18)
(0.10315047 9.961253e-06 -2.4071796e-18)
(0.10315079 1.007891e-05 0)
(0.10315057 1.0587381e-05 0)
(0.10324248 1.2815109e-06 6.8435984e-20)
(0.10317363 -2.6140732e-07 -7.2492886e-20)
(0.10316448 8.7919729e-07 -2.3353445e-18)
(0.10316494 5.4825079e-07 2.4197674e-18)
(0.10316658 1.0101722e-06 3.8673064e-20)
(0.10316745 1.0442981e-06 0)
(0.10316762 1.4090747e-06 -2.6014219e-18)
(0.10316739 1.5163973e-06 7.9745878e-18)
(0.10316714 1.7408738e-06 -1.0911907e-17)
(0.10316722 1.8244398e-06 5.6019494e-18)
(0.10316751 1.9463467e-06 -2.8516316e-18)
(0.10316775 2.0575903e-06 2.2756188e-20)
(0.103168 2.1801537e-06 5.9472435e-18)
(0.1031684 2.3140233e-06 -3.0104754e-18)
(0.10316883 2.45324e-06 0)
(0.10316908 2.6141698e-06 0)
(0.10316896 2.7927304e-06 -1.2557851e-20)
(0.10316849 3.0086248e-06 0)
(0.10316795 3.2537887e-06 0)
(0.10316768 3.4839651e-06 2.6524061e-20)
(0.10316782 3.6807989e-06 -1.3497313e-20)
(0.10316825 3.8233218e-06 -2.746628e-20)
(0.10316874 3.9083416e-06 -1.7881088e-18)
(0.10316914 3.972482e-06 1.8326717e-18)
(0.10316941 4.0276723e-06 1.4444574e-20)
(0.10316958 4.0707936e-06 -1.4682976e-20)
(0.10316968 4.1091469e-06 9.6990921e-19)
(0.10316973 4.1547253e-06 -9.7026497e-19)
(0.10316975 4.2049644e-06 1.5398596e-20)
(0.10316974 4.2793163e-06 -2.3362462e-19)
(0.10316969 4.3819507e-06 -2.4818027e-19)
(0.10316959 4.5316183e-06 4.7341123e-19)
(0.1031694 4.7543756e-06 0)
(0.10316908 4.9995641e-06 -1.9079469e-18)
(0.10316863 5.2230863e-06 1.4550026e-20)
(0.10316811 5.3953753e-06 3.6920399e-18)
(0.10316769 5.5445279e-06 -1.787022e-18)
(0.1031676 5.6467496e-06 0)
(0.10316792 5.7238569e-06 1.3594449e-20)
(0.10316848 5.8570059e-06 0)
(0.10316891 5.9992323e-06 0)
(0.10316897 6.024494e-06 2.576572e-20)
(0.10316868 6.0097622e-06 -1.2646003e-20)
(0.10316825 6.045415e-06 -3.2014985e-18)
(0.10316796 6.138772e-06 3.1158704e-18)
(0.10316789 6.2579798e-06 -3.5159483e-26)
(0.10316789 6.4089781e-06 2.3387987e-20)
(0.1031678 6.5554931e-06 3.3688295e-26)
(0.10316764 6.7794851e-06 -2.242431e-20)
(0.10316739 6.9151011e-06 -5.594187e-18)
(0.10316709 7.2158603e-06 5.4906954e-18)
(0.10316675 7.3273632e-06 4.1907884e-20)
(0.10316646 7.6575936e-06 -2.6591717e-18)
(0.10316627 7.7470087e-06 5.1074465e-18)
(0.103166 8.0997667e-06 -5.0156387e-18)
(0.10316558 8.2130431e-06 2.4220662e-18)
(0.10316566 8.6524672e-06 -7.3579103e-20)
(0.10316605 8.6921123e-06 0)
(0.10316581 9.3238542e-06 0)
(0.10324603 1.1732961e-06 -6.6140514e-20)
(0.10318468 -2.0483385e-07 7.0441672e-20)
(0.10317753 7.5264041e-07 -2.3191394e-18)
(0.10317861 5.1296774e-07 2.3045759e-18)
(0.10318023 9.0321127e-07 -2.4453253e-18)
(0.10318092 9.8467795e-07 2.5554033e-18)
(0.10318099 1.2947894e-06 2.5463144e-18)
(0.10318071 1.4085875e-06 -2.6557923e-18)
(0.10318064 1.6398491e-06 5.4038119e-18)
(0.10318112 1.7853431e-06 -1.1113235e-17)
(0.1031816 1.9499176e-06 5.7082915e-18)
(0.10318169 2.0620468e-06 -2.2798518e-20)
(0.10318173 2.1376933e-06 -2.9815263e-18)
(0.10318197 2.1980684e-06 6.088397e-18)
(0.10318229 2.254989e-06 -3.1063421e-18)
(0.10318241 2.3122877e-06 -3.1680643e-18)
(0.10318214 2.3937687e-06 2.5230231e-20)
(0.10318155 2.4880141e-06 3.2649517e-18)
(0.103181 2.6060963e-06 -2.6185197e-20)
(0.10318085 2.7638226e-06 -5.3323257e-20)
(0.10318114 2.9611038e-06 1.3569041e-20)
(0.10318168 3.1601944e-06 1.3807536e-20)
(0.10318221 3.3350501e-06 0)
(0.1031826 3.4814522e-06 -1.8286201e-18)
(0.10318285 3.5920374e-06 -1.4526369e-20)
(0.103183 3.6966024e-06 1.9049751e-18)
(0.10318309 3.7831327e-06 0)
(0.10318314 3.8491369e-06 0)
(0.10318316 3.8766909e-06 -3.098287e-20)
(0.10318315 3.8654354e-06 2.3493427e-19)
(0.1031831 3.8698971e-06 -2.4943459e-19)
(0.10318301 3.9039073e-06 0)
(0.10318284 3.9681137e-06 0)
(0.10318255 4.0787808e-06 -1.9020654e-18)
(0.10318211 4.2292379e-06 3.7419736e-18)
(0.10318158 4.4079888e-06 -1.8543596e-18)
(0.10318109 4.6010581e-06 -1.7807958e-18)
(0.10318091 4.7783908e-06 1.778212e-18)
(0.10318119 4.9332248e-06 0)
(0.10318179 5.0021731e-06 0)
(0.10318234 5.0068746e-06 -3.398124e-18)
(0.10318248 5.0228336e-06 3.2843454e-18)
(0.10318218 5.1321989e-06 2.5378829e-20)
(0.10318166 5.2400095e-06 -3.1865439e-18)
(0.10318123 5.3638027e-06 6.2241107e-18)
(0.1031811 5.4836342e-06 -3.0854515e-18)
(0.10318112 5.658007e-06 -3.0216897e-18)
(0.10318109 5.8013026e-06 5.8686973e-18)
(0.10318098 6.0148674e-06 -2.8696613e-18)
(0.10318079 6.1199072e-06 -6.5720666e-20)
(0.10318051 6.3426623e-06 0)
(0.10318016 6.4155074e-06 -4.1713082e-20)
(0.10317981 6.6527336e-06 2.6004168e-18)
(0.10317962 6.7310017e-06 -5.0591405e-18)
(0.10317939 7.0046991e-06 2.5335855e-18)
(0.10317886 7.096257e-06 3.7215014e-20)
(0.10317888 7.4715341e-06 1.4399471e-19)
(0.10317935 7.4903854e-06 6.9455528e-20)
(0.10317911 8.1622286e-06 6.660403e-20)
(0.10324863 9.7567015e-07 -1.023566e-18)
(0.1031939 -1.2381504e-07 -1.0957767e-18)
(0.10318889 6.0584331e-07 2.3389802e-18)
(0.10319042 4.8892147e-07 -2.2666382e-18)
(0.10319195 7.8899719e-07 -6.6580204e-27)
(0.10319246 8.6111073e-07 2.4561602e-18)
(0.10319243 1.0631876e-06 4.0188792e-20)
(0.10319209 1.1408649e-06 5.2927811e-18)
(0.10319226 1.3090557e-06 4.2473474e-20)
(0.10319321 1.4277192e-06 -5.6200369e-18)
(0.10319377 1.6205129e-06 5.6684622e-18)
(0.1031936 1.7853921e-06 -5.8241533e-18)
(0.10319342 1.9456609e-06 -2.9892546e-18)
(0.10319358 2.0743501e-06 3.0539888e-18)
(0.10319382 2.1555411e-06 2.4358322e-20)
(0.1031938 2.2094333e-06 0)
(0.10319336 2.2426864e-06 -2.5341224e-20)
(0.10319266 2.2513936e-06 3.331712e-18)
(0.10319214 2.2614669e-06 -6.7092696e-18)
(0.10319214 2.3076504e-06 2.3881371e-26)
(0.10319261 2.3830457e-06 2.7274273e-20)
(0.10319325 2.4877994e-06 3.552723e-18)
(0.1031938 2.6156814e-06 -1.8072088e-18)
(0.10319418 2.7462904e-06 1.8381266e-18)
(0.10319441 2.8853759e-06 1.8691321e-18)
(0.10319454 3.0188849e-06 -1.9150755e-18)
(0.10319462 3.1614234e-06 9.6570465e-19)
(0.10319466 3.2990918e-06 -9.8132064e-19)
(0.10319468 3.4165611e-06 -2.3365732e-19)
(0.10319467 3.49972e-06 1.5742704e-20)
(0.10319464 3.5243957e-06 2.505866e-19)
(0.10319455 3.5112544e-06 0)
(0.1031944 3.4946925e-06 -1.5169658e-20)
(0.10319414 3.5129943e-06 0)
(0.10319373 3.5638492e-06 -1.4679178e-20)
(0.10319318 3.6344972e-06 -1.8476798e-18)
(0.10319263 3.7294588e-06 -2.8382991e-20)
(0.10319233 3.8316387e-06 5.356222e-18)
(0.10319251 3.9408648e-06 -7.0173617e-18)
(0.10319314 4.0147429e-06 -2.6926129e-20)
(0.10319381 4.1170488e-06 6.8215361e-18)
(0.10319406 4.2485357e-06 -3.3219331e-18)
(0.10319376 4.42983e-06 3.208321e-18)
(0.10319315 4.5522422e-06 -3.2211068e-18)
(0.10319257 4.696736e-06 2.4472371e-20)
(0.10319237 4.7979335e-06 0)
(0.10319248 4.9398916e-06 0)
(0.1031925 5.0205105e-06 4.5883304e-20)
(0.10319245 5.1620865e-06 5.7380995e-18)
(0.10319232 5.2325538e-06 -5.5566032e-18)
(0.10319208 5.3952646e-06 -4.2651408e-20)
(0.10319173 5.4781045e-06 2.6573485e-18)
(0.10319133 5.6681869e-06 -5.1253582e-18)
(0.10319111 5.7622502e-06 -3.9903957e-27)
(0.10319098 5.9861214e-06 2.3880663e-18)
(0.10319033 6.0829639e-06 -8.1270069e-26)
(0.10319027 6.3955813e-06 -2.2551983e-18)
(0.10319084 6.4311408e-06 2.0951735e-18)
(0.10319061 7.0224749e-06 -6.4373782e-20)
(0.10325062 7.3985191e-07 0)
(0.10320231 -4.4487475e-08 6.6620709e-20)
(0.10319898 4.6708046e-07 -6.874797e-26)
(0.10320081 4.3213842e-07 0)
(0.10320223 6.4284424e-07 -2.4630562e-18)
(0.10320255 7.3694456e-07 2.5131183e-18)
(0.10320244 8.7265308e-07 0)
(0.10320201 9.4980603e-07 4.1201564e-20)
(0.10320247 1.0549746e-06 0)
(0.10320387 1.1308404e-06 5.6178054e-18)
(0.10320428 1.2500522e-06 -5.6729091e-18)
(0.10320374 1.3640675e-06 2.9285853e-18)
(0.10320347 1.4881071e-06 3.3174566e-27)
(0.10320363 1.6176093e-06 -3.0634715e-18)
(0.10320382 1.7263673e-06 -3.1534537e-18)
(0.10320365 1.8347879e-06 3.1935544e-18)
(0.10320304 1.9462869e-06 0)
(0.10320227 2.0432244e-06 2.5940725e-20)
(0.10320184 2.0936552e-06 -2.6430047e-20)
(0.10320205 2.0950632e-06 2.6805312e-26)
(0.1032027 2.0977975e-06 -2.7401872e-20)
(0.10320342 2.129857e-06 0)
(0.10320397 2.1826769e-06 0)
(0.10320433 2.2503196e-06 0)
(0.10320453 2.3195334e-06 0)
(0.10320465 2.4071971e-06 0)
(0.10320472 2.5111638e-06 -9.5520998e-19)
(0.10320476 2.6369468e-06 5.0846675e-19)
(0.10320477 2.772594e-06 5.0094276e-19)
(0.10320477 2.9096165e-06 2.3722682e-19)
(0.10320474 3.0288732e-06 -7.5486934e-19)
(0.10320467 3.1099815e-06 5.1076928e-19)
(0.10320454 3.1640119e-06 1.522968e-20)
(0.10320431 3.1788727e-06 0)
(0.10320393 3.1811542e-06 1.4735679e-20)
(0.10320337 3.178765e-06 0)
(0.10320275 3.2090876e-06 0)
(0.10320231 3.2540214e-06 3.6121716e-18)
(0.10320235 3.3392542e-06 -7.0157554e-18)
(0.10320297 3.4290378e-06 6.9450823e-18)
(0.10320378 3.5677132e-06 -6.8455528e-18)
(0.10320419 3.6597347e-06 6.6663032e-18)
(0.10320391 3.7639339e-06 -3.2440637e-18)
(0.10320322 3.8253861e-06 2.5042509e-20)
(0.10320249 3.9262517e-06 3.1649994e-18)
(0.10320216 3.9977867e-06 -3.0744842e-18)
(0.1032024 4.1055736e-06 2.3494514e-20)
(0.10320251 4.1841941e-06 -2.295867e-20)
(0.10320249 4.2974152e-06 5.736952e-18)
(0.10320243 4.3813013e-06 -1.1141713e-17)
(0.10320224 4.5155397e-06 5.4866245e-18)
(0.10320192 4.6113538e-06 4.1331945e-20)
(0.10320146 4.7648322e-06 0)
(0.10320116 4.867193e-06 -2.5214109e-18)
(0.10320119 5.0534264e-06 2.3958481e-18)
(0.10320043 5.1700166e-06 -7.202097e-20)
(0.10320026 5.428532e-06 2.139288e-18)
(0.10320096 5.4964629e-06 -2.0399813e-18)
(0.10320073 5.9785419e-06 1.2454727e-19)
(0.10325207 4.3881849e-07 0)
(0.10320939 2.2273694e-08 -2.2045111e-18)
(0.10320785 3.3301724e-07 -6.7876201e-20)
(0.10320979 4.2019722e-07 4.6016238e-18)
(0.10321108 5.5138919e-07 7.3776831e-20)
(0.10321123 6.4913635e-07 -4.9846019e-18)
(0.10321103 7.6109723e-07 2.5427721e-18)
(0.10321049 8.5470813e-07 5.1725693e-18)
(0.10321131 9.4438372e-07 -5.3740794e-18)
(0.10321308 1.0286824e-06 -3.1261847e-26)
(0.103213 1.0888145e-06 4.470108e-20)
(0.10321213 1.1464058e-06 -2.291774e-20)
(0.10321194 1.1945015e-06 0)
(0.10321216 1.2708601e-06 2.4004868e-20)
(0.1032123 1.3433122e-06 3.1642638e-18)
(0.10321196 1.4431514e-06 -3.2055479e-18)
(0.10321125 1.5558436e-06 3.2447436e-18)
(0.10321048 1.6772477e-06 -3.334179e-18)
(0.10321019 1.7873811e-06 1.9100248e-26)
(0.10321067 1.8772455e-06 -3.4330925e-18)
(0.1032115 1.9331736e-06 7.0175694e-18)
(0.10321227 1.962113e-06 -3.5848208e-18)
(0.10321279 1.9717683e-06 0)
(0.10321311 1.9809994e-06 1.4490135e-20)
(0.10321329 1.995612e-06 -1.9007624e-18)
(0.10321339 2.0242873e-06 1.9024653e-18)
(0.10321345 2.0618944e-06 -1.5226584e-20)
(0.10321349 2.1180956e-06 4.7969803e-19)
(0.10321351 2.1922556e-06 -5.031182e-19)
(0.1032135 2.2938462e-06 1.5878371e-20)
(0.10321348 2.4046902e-06 5.0504204e-19)
(0.10321342 2.5220989e-06 -5.1254824e-19)
(0.10321332 2.6200041e-06 -1.528181e-20)
(0.10321312 2.6939373e-06 0)
(0.10321277 2.7454371e-06 0)
(0.10321223 2.7711515e-06 -1.8754991e-18)
(0.10321155 2.8097851e-06 1.8295079e-18)
(0.10321096 2.835838e-06 -2.8095584e-20)
(0.10321078 2.8959955e-06 -2.7605114e-20)
(0.10321135 2.948035e-06 0)
(0.10321231 3.0184738e-06 2.6619767e-20)
(0.10321299 3.0679106e-06 -3.3175566e-18)
(0.10321276 3.1391325e-06 3.2537876e-18)
(0.10321205 3.1962407e-06 -3.2143002e-18)
(0.10321116 3.2797664e-06 3.1235365e-18)
(0.1032106 3.3408073e-06 2.4067624e-20)
(0.103211 3.4302204e-06 -2.3528289e-20)
(0.10321122 3.5026132e-06 0)
(0.10321122 3.5989571e-06 0)
(0.10321122 3.6849254e-06 -4.3633145e-20)
(0.10321109 3.7918996e-06 0)
(0.10321082 3.8825259e-06 -4.1144639e-20)
(0.10321034 4.0042978e-06 0)
(0.10320988 4.118368e-06 2.5366186e-18)
(0.10321012 4.2585456e-06 -2.2924226e-18)
(0.10320928 4.3795544e-06 7.0867376e-20)
(0.10320893 4.5482795e-06 -2.1630968e-18)
(0.10320981 4.6417751e-06 3.0771917e-18)
(0.10320961 4.9896845e-06 -1.0852835e-18)
(0.10325149 1.8894672e-07 1.1629473e-19)
(0.10321392 8.1292589e-08 -2.0203709e-18)
(0.1032144 2.0363434e-07 -2.6228983e-27)
(0.10321617 3.3620666e-07 2.1604568e-18)
(0.10321738 3.9051527e-07 0)
(0.10321744 5.4650724e-07 3.8025522e-20)
(0.10321707 6.0047307e-07 -3.9502123e-20)
(0.10321641 7.1808801e-07 5.276383e-18)
(0.10321774 7.6576544e-07 -1.0812095e-17)
(0.10321967 8.7764458e-07 -4.3508638e-20)
(0.1032188 9.2337777e-07 5.6809155e-18)
(0.10321778 1.0036928e-06 2.9611337e-18)
(0.10321784 1.0376642e-06 -3.0109401e-18)
(0.10321809 1.0939665e-06 -2.4073868e-20)
(0.10321818 1.1365054e-06 -2.4609713e-20)
(0.10321767 1.1979513e-06 0)
(0.10321698 1.2473842e-06 2.5645438e-20)
(0.10321625 1.3172691e-06 -2.6149411e-20)
(0.10321616 1.3738216e-06 2.6646587e-20)
(0.10321695 1.4535561e-06 0)
(0.10321791 1.5295286e-06 3.563947e-18)
(0.10321867 1.6111189e-06 -5.3979973e-18)
(0.10321914 1.6726817e-06 1.81618e-18)
(0.10321941 1.7263878e-06 1.8471332e-18)
(0.10321956 1.7557784e-06 -1.8634044e-18)
(0.10321966 1.7650708e-06 -9.4718443e-19)
(0.10321971 1.7637273e-06 9.7803529e-19)
(0.10321975 1.7795904e-06 0)
(0.10321977 1.7892955e-06 -2.524817e-19)
(0.10321977 1.8177064e-06 2.5489756e-19)
(0.10321975 1.8645262e-06 4.9068103e-19)
(0.1032197 1.9362177e-06 -1.5108576e-18)
(0.10321961 2.0296437e-06 9.9610222e-19)
(0.10321945 2.117903e-06 1.5074991e-20)
(0.10321914 2.1788054e-06 -1.9126649e-18)
(0.10321863 2.2278728e-06 1.8808265e-18)
(0.1032179 2.2640105e-06 0)
(0.10321716 2.306026e-06 -3.6067447e-18)
(0.10321671 2.3487152e-06 3.5439013e-18)
(0.10321718 2.3928164e-06 0)
(0.10321825 2.438459e-06 0)
(0.10321936 2.4934624e-06 -2.6198029e-20)
(0.1032192 2.5488136e-06 2.5691406e-20)
(0.10321852 2.606139e-06 0)
(0.10321754 2.6623013e-06 0)
(0.10321657 2.7268563e-06 -2.4113168e-20)
(0.10321718 2.7778056e-06 0)
(0.1032175 2.8542548e-06 0)
(0.1032175 2.920124e-06 5.7341949e-18)
(0.10321754 2.9998835e-06 -5.5772302e-18)
(0.10321746 3.0759831e-06 0)
(0.10321727 3.1711534e-06 4.0958048e-20)
(0.10321684 3.2716482e-06 -3.9556454e-20)
(0.10321612 3.3674802e-06 -2.4752826e-18)
(0.10321652 3.4814876e-06 2.2644268e-18)
(0.10321574 3.607458e-06 -6.9744237e-20)
(0.10321507 3.7470067e-06 2.0532336e-18)
(0.10321622 3.8255404e-06 -2.1245414e-18)
(0.10321605 4.0911653e-06 0)
(0.10324987 -5.3903018e-08 -1.1280933e-19)
(0.10321806 1.9853006e-07 2.0297854e-18)
(0.10322055 1.1325454e-08 -2.0835657e-18)
(0.1032216 5.0200312e-07 -6.8626312e-20)
(0.10322284 3.1518903e-07 3.6054088e-20)
(0.10322315 4.786991e-07 0)
(0.10322213 5.0468086e-07 3.9274472e-20)
(0.10322153 5.8911721e-07 0)
(0.10322375 6.5046439e-07 5.3534352e-18)
(0.10322523 7.3245368e-07 7.3657388e-27)
(0.10322355 7.6772102e-07 -5.7516627e-18)
(0.10322279 8.405921e-07 2.2989631e-20)
(0.10322312 8.7485065e-07 0)
(0.10322333 9.3713107e-07 0)
(0.10322335 9.7059989e-07 3.1598184e-18)
(0.10322271 1.0212239e-06 -3.2529972e-18)
(0.10322217 1.0497211e-06 0)
(0.10322145 1.0828571e-06 -1.312114e-20)
(0.10322158 1.0887572e-06 0)
(0.10322269 1.1347824e-06 0)
(0.10322373 1.1669005e-06 0)
(0.10322442 1.2290609e-06 -1.8052819e-18)
(0.10322482 1.2760825e-06 1.8506695e-18)
(0.10322504 1.3570697e-06 0)
(0.10322517 1.4128735e-06 -1.4832897e-20)
(0.10322525 1.4699097e-06 0)
(0.1032253 1.4971142e-06 -1.5324948e-20)
(0.10322533 1.5276073e-06 -5.1393247e-19)
(0.10322534 1.5423863e-06 5.0637585e-19)
(0.10322534 1.5589413e-06 -1.597181e-20)
(0.10322532 1.583111e-06 5.3938919e-19)
(0.10322528 1.6118042e-06 -1.4986173e-18)
(0.1032252 1.6561163e-06 9.6760255e-19)
(0.10322506 1.7026401e-06 -3.0217966e-20)
(0.10322479 1.7578264e-06 1.6670842e-26)
(0.10322432 1.8069461e-06 0)
(0.10322354 1.8496962e-06 0)
(0.10322265 1.9006695e-06 0)
(0.10322188 1.9371739e-06 1.3880081e-20)
(0.10322226 1.9901332e-06 -3.4903168e-18)
(0.10322331 2.0309927e-06 6.867021e-18)
(0.10322496 2.0840092e-06 4.9391772e-27)
(0.10322495 2.1367551e-06 -6.5945903e-18)
(0.10322434 2.1932997e-06 3.2559722e-18)
(0.10322326 2.2393927e-06 0)
(0.1032218 2.3036436e-06 0)
(0.10322263 2.341628e-06 0)
(0.10322305 2.4215751e-06 5.8896077e-18)
(0.10322301 2.4724645e-06 -5.7556955e-18)
(0.10322303 2.5388437e-06 2.1758243e-20)
(0.10322301 2.6140714e-06 -4.2181126e-20)
(0.10322291 2.667384e-06 -4.5802436e-26)
(0.10322258 2.763451e-06 4.415254e-26)
(0.10322158 2.8461715e-06 -3.7739056e-20)
(0.10322174 2.9175387e-06 3.6085163e-20)
(0.10322148 3.0135345e-06 0)
(0.10322003 3.0466574e-06 7.3043371e-26)
(0.10322181 3.2650573e-06 6.0942465e-20)
(0.10322166 3.2685549e-06 0)
(0.10325456 -6.5813949e-07 9.3073247e-19)
(0.10322746 8.0799862e-07 -9.5921119e-19)
(0.10323217 -3.3317353e-07 0)
(0.10323068 2.1421559e-07 6.759455e-20)
(0.10323229 1.6385956e-08 -3.564796e-20)
(0.10323427 1.9544783e-07 2.430855e-18)
(0.10323084 1.9965211e-07 -2.5380768e-18)
(0.1032311 1.9802274e-07 5.1970485e-18)
(0.10323534 2.7164215e-07 1.4286581e-26)
(0.10323446 3.2521878e-07 -5.5631772e-18)
(0.10323322 3.6321896e-07 -5.6877539e-18)
(0.10323329 4.1681652e-07 5.8707824e-18)
(0.1032337 4.8035022e-07 0)
(0.10323387 5.2327137e-07 0)
(0.10323376 5.8118003e-07 3.1690111e-18)
(0.10323322 6.3170852e-07 -3.1998683e-18)
(0.1032327 6.8215323e-07 -1.2908707e-20)
(0.10323202 7.4216958e-07 1.3669984e-26)
(0.10323235 7.9375297e-07 0)
(0.10323371 8.3544131e-07 1.3658307e-20)
(0.10323485 8.8900821e-07 -3.5587039e-18)
(0.10323549 9.5987131e-07 3.6063399e-18)
(0.10323584 1.0192208e-06 1.8410567e-18)
(0.10323603 1.0962046e-06 -1.8719097e-18)
(0.10323615 1.1473295e-06 0)
(0.10323623 1.2522238e-06 0)
(0.10323629 1.3275128e-06 -9.5207039e-19)
(0.10323632 1.4182007e-06 1.0142732e-18)
(0.10323635 1.5009865e-06 0)
(0.10323635 1.564353e-06 1.5998777e-20)
(0.10323633 1.5908674e-06 -1.5886937e-20)
(0.1032363 1.6090484e-06 1.5632551e-20)
(0.10323623 1.6227536e-06 9.8437126e-19)
(0.1032361 1.6768658e-06 9.8355915e-19)
(0.10323586 1.7281266e-06 1.4884928e-20)
(0.10323542 1.8182089e-06 -1.8885677e-18)
(0.10323459 1.8674365e-06 -1.8283547e-18)
(0.10323337 1.8920747e-06 -1.8116405e-18)
(0.10323256 1.9592477e-06 3.5470353e-18)
(0.10323287 1.9456624e-06 1.3665087e-20)
(0.10323372 2.0266646e-06 -2.6835531e-20)
(0.10323576 2.0297465e-06 1.3166734e-20)
(0.1032363 2.0894592e-06 -1.2910917e-20)
(0.1032357 2.1328181e-06 -2.5298183e-20)
(0.10323387 2.1575589e-06 -1.2379705e-20)
(0.1032326 2.2405896e-06 -2.4202306e-20)
(0.10323347 2.2267435e-06 0)
(0.10323413 2.3243763e-06 0)
(0.10323414 2.3478862e-06 -5.7097512e-18)
(0.10323391 2.4029574e-06 -4.3460146e-20)
(0.10323395 2.486011e-06 5.4268278e-18)
(0.10323412 2.5145426e-06 -4.0600144e-20)
(0.10323378 2.6412712e-06 3.9047723e-20)
(0.10323281 2.6666685e-06 2.4311956e-18)
(0.10323106 2.7433943e-06 -2.3177628e-18)
(0.10323303 2.864262e-06 -2.1633459e-18)
(0.10322927 2.6076938e-06 4.1381508e-18)
(0.10323307 3.4625549e-06 -8.9202818e-19)
(0.103233 2.4934813e-06 -8.2477026e-19)
(0.10325175 -1.7371537e-06 -1.0634689e-19)
(0.10322457 8.5938068e-07 5.8455852e-20)
(0.10323821 1.4246783e-07 3.1277551e-20)
(0.10322894 7.4960155e-07 0)
(0.10323335 6.1854093e-07 0)
(0.10324019 9.0741736e-07 2.3358294e-18)
(0.10322801 8.1764866e-07 -2.4643969e-18)
(0.10323173 8.266585e-07 5.1960972e-18)
(0.10324188 8.8492945e-07 -5.3511328e-18)
(0.10323623 8.8980025e-07 5.5578851e-18)
(0.10323705 8.563913e-07 -5.7782008e-18)
(0.10323891 8.7954004e-07 -5.8998727e-18)
(0.10323879 8.0882419e-07 3.0291044e-18)
(0.10323939 8.0610216e-07 6.2214068e-18)
(0.10323885 7.5960483e-07 -3.1769793e-18)
(0.10323895 7.8094103e-07 5.6456073e-26)
(0.10323722 7.2718384e-07 1.2944826e-20)
(0.10323765 7.2499007e-07 -3.3528314e-18)
(0.10323758 6.6103663e-07 6.8860456e-18)
(0.10323863 6.8252037e-07 -3.5330142e-18)
(0.10324042 5.8969275e-07 0)
(0.10324132 5.7329095e-07 1.4174753e-20)
(0.10324172 5.1938207e-07 0)
(0.103242 4.798219e-07 7.3263789e-21)
(0.10324216 4.3421574e-07 -7.4465646e-21)
(0.10324228 3.6816012e-07 0)
(0.10324236 3.3169571e-07 -2.3070712e-20)
(0.10324243 3.2604996e-07 0)
(0.10324247 2.9038994e-07 0)
(0.10324251 2.7101477e-07 0)
(0.10324252 2.4056737e-07 0)
(0.10324247 2.1038503e-07 0)
(0.1032424 1.7741974e-07 2.3066228e-20)
(0.10324224 1.5027795e-07 7.5647206e-21)
(0.10324196 1.0840611e-07 0)
(0.10324134 8.8865547e-08 2.1962025e-20)
(0.1032403 4.372519e-08 -1.4400019e-20)
(0.10323774 1.838178e-08 7.0797204e-21)
(0.10323863 -4.8714258e-09 -6.9591159e-21)
(0.10323862 -6.0670526e-08 -1.3675229e-20)
(0.10323911 -7.2976659e-08 3.4513463e-18)
(0.10323995 -9.8781318e-08 -6.7609571e-18)
(0.10324292 -9.3485599e-08 1.2923393e-20)
(0.10324196 -9.9428362e-08 3.2537329e-18)
(0.10323706 -1.061006e-07 1.2388914e-20)
(0.10323883 -8.195772e-08 2.4213392e-20)
(0.10323849 -1.3824064e-07 0)
(0.10324031 -1.0107252e-07 -5.8783015e-18)
(0.10324063 -1.1891358e-07 2.2358703e-20)
(0.10323932 -1.0874751e-07 5.5921533e-18)
(0.10323948 -6.7766501e-08 2.0952802e-20)
(0.10324063 -4.8476471e-08 0)
(0.10323949 2.7770108e-08 -2.480168e-18)
(0.10323967 7.9114744e-08 2.3884152e-18)
(0.1032301 1.6058674e-07 0)
(0.10324004 2.5491561e-07 3.32564e-20)
(0.10322842 4.0448662e-07 -2.0277119e-18)
(0.10323959 6.8577673e-07 1.7983804e-18)
(0.10323966 2.7523828e-07 -1.0679439e-19)
(0.10320754 -1.8548218e-06 5.1688831e-20)
(0.10319004 -1.0952161e-06 1.7682024e-18)
(0.10320302 -8.5925692e-07 -1.9946756e-18)
(0.103193 -9.8183036e-07 2.1001741e-18)
(0.10320425 -4.8299509e-07 -4.4614324e-18)
(0.10320198 -8.4323058e-07 4.7082049e-18)
(0.10319082 -7.0399828e-07 -2.4604231e-18)
(0.10320469 -4.7226709e-07 5.1376577e-18)
(0.10320419 -5.2739551e-07 -1.0474561e-20)
(0.10319621 -5.5963765e-07 -5.545324e-18)
(0.10320056 -5.1511755e-07 -5.7153728e-18)
(0.10319618 -4.6507011e-07 5.9149477e-18)
(0.10319591 -4.1457596e-07 0)
(0.10319613 -3.5785859e-07 -1.2158103e-20)
(0.10319916 -3.3291869e-07 6.2220781e-21)
(0.10319625 -3.284627e-07 -1.2717794e-20)
(0.10319638 -2.7532508e-07 -3.3165249e-18)
(0.10319474 -2.1550112e-07 3.3746822e-18)
(0.10319791 -1.0055909e-07 -6.7400386e-21)
(0.10319937 -3.2086784e-08 3.5262425e-18)
(0.10319905 9.2807046e-08 -7.1463116e-18)
(0.10319907 1.5005419e-07 5.4497851e-18)
(0.10319922 2.4276943e-07 -1.8464855e-18)
(0.10319929 3.2369066e-07 -3.6648455e-21)
(0.10319936 3.7791366e-07 -1.8990597e-18)
(0.10319942 4.6270135e-07 1.9406849e-18)
(0.10319946 5.1852615e-07 7.6862654e-21)
(0.1031995 5.9907498e-07 0)
(0.10319952 6.5071229e-07 0)
(0.10319954 7.2310833e-07 0)
(0.10319954 7.8089062e-07 0)
(0.10319954 8.6271234e-07 -1.0007416e-18)
(0.10319954 9.2355003e-07 9.7711349e-19)
(0.10319953 1.0130266e-06 -1.942045e-18)
(0.10319949 1.0780494e-06 1.903621e-18)
(0.10319949 1.1519638e-06 -3.6655658e-21)
(0.1031994 1.2273827e-06 0)
(0.10319975 1.3121809e-06 3.6323444e-18)
(0.10319594 1.3964473e-06 -3.5646972e-18)
(0.10319633 1.4653818e-06 0)
(0.10319943 1.4921188e-06 -3.4549055e-18)
(0.10320157 1.4773333e-06 3.3911237e-18)
(0.10320212 1.4227543e-06 -3.312546e-18)
(0.10320347 1.3591469e-06 3.2322932e-18)
(0.10320329 1.3308038e-06 -3.1811127e-18)