/*--------------------------------*- C++ -*----------------------------------*\
| =========                 |                                                 |
| \\      /  F ield         | OpenFOAM: The Open Source CFD Toolbox           |
|  \\    /   O peration     | Version:  v2006                                 |
|   \\  /    A nd           | Website:  www.openfoam.com                      |
|    \\/     M anipulation  |                                                 |
\*---------------------------------------------------------------------------*/
FoamFile
{
    version     2.0;
    format      ascii;
    class       volVectorField;
    location    "3000";
    object      UMean;
}
// * * * * * * * * * * * * * * * * * * * * * * * * * * * * * * * * * * * * * //

dimensions      [0 1 -1 0 0 0 0];


internalField   nonuniform List<vector> 
55713
(
(0.10319546 7.1742896e-07 0)
(0.10308046 -3.5923738e-07 0)
(0.10305889 9.8084088e-07 2.5668436e-18)
(0.10305589 7.7851773e-07 -2.5534378e-18)
(0.10305715 1.6004905e-06 2.5715197e-18)
(0.10305849 1.6184719e-06 1.678288e-27)
(0.10305909 2.1424331e-06 -2.6469186e-18)
(0.10305904 2.3085337e-06 0)
(0.10305866 2.6643233e-06 1.0713295e-20)
(0.10305835 2.9183583e-06 0)
(0.10305828 3.2028767e-06 -1.1109643e-20)
(0.10305834 3.4709649e-06 -1.1313761e-20)
(0.10305837 3.7394182e-06 0)
(0.1030584 4.0008286e-06 3.0033491e-18)
(0.10305855 4.2533587e-06 -3.0579002e-18)
(0.10305883 4.4987091e-06 -6.0801134e-21)
(0.10305906 4.7381528e-06 3.1748437e-18)
(0.10305909 4.9710852e-06 -3.2247535e-18)
(0.10305894 5.1986392e-06 6.4087408e-21)
(0.10305879 5.4201353e-06 -3.3381943e-18)
(0.10305881 5.635618e-06 3.3888314e-18)
(0.10305903 5.846164e-06 0)
(0.10305938 6.0542939e-06 0)
(0.10305974 6.2604612e-06 -1.7914875e-18)
(0.10306005 6.4648756e-06 1.8136638e-18)
(0.1030603 6.6686734e-06 0)
(0.1030605 6.8718328e-06 0)
(0.10306064 7.0749305e-06 0)
(0.10306075 7.2778143e-06 2.4128479e-19)
(0.10306078 7.4807779e-06 -9.7554224e-29)
(0.10306072 7.6834876e-06 -2.4425396e-19)
(0.10306055 7.8864571e-06 0)
(0.10306026 8.0911464e-06 0)
(0.10305986 8.2972654e-06 0)
(0.10305938 8.5054526e-06 0)
(0.10305893 8.7152302e-06 1.8065737e-18)
(0.10305866 8.9268787e-06 -1.7701841e-18)
(0.10305867 9.1416232e-06 -3.4955666e-18)
(0.10305891 9.3602222e-06 2.2384987e-27)
(0.10305919 9.5826871e-06 3.3724178e-18)
(0.10305928 9.8087242e-06 0)
(0.10305913 1.0038238e-05 6.3746699e-21)
(0.10305885 1.0272434e-05 -3.2068419e-18)
(0.10305866 1.0510356e-05 3.1502947e-18)
(0.1030587 1.0754961e-05 3.0942428e-18)
(0.10305892 1.1003807e-05 -3.044686e-18)
(0.10305915 1.1262379e-05 0)
(0.10305927 1.1524003e-05 0)
(0.10305925 1.1801032e-05 -2.8654124e-18)
(0.10305913 1.2075026e-05 2.8245578e-18)
(0.10305899 1.2379572e-05 0)
(0.1030589 1.2661755e-05 0)
(0.10305883 1.3009166e-05 0)
(0.1030587 1.3294238e-05 0)
(0.10305848 1.3704264e-05 2.5914743e-18)
(0.10305842 1.3991196e-05 -4.3049772e-27)
(0.10305881 1.4454868e-05 -3.7836592e-18)
(0.10305926 1.4876436e-05 1.229422e-18)
(0.10305915 1.5020151e-05 -1.9274962e-20)
(0.10320188 1.1768855e-06 0)
(0.10309751 -2.8141452e-07 2.423495e-18)
(0.1030806 1.1304951e-06 -2.5060909e-18)
(0.10307891 7.5351036e-07 3.9177695e-20)
(0.10308045 1.4681762e-06 -2.5384931e-18)
(0.10308168 1.4515894e-06 5.1437414e-18)
(0.1030821 1.9696976e-06 4.1353321e-27)
(0.1030819 2.0806285e-06 -2.6845167e-18)
(0.10308146 2.4319265e-06 -1.0695727e-20)
(0.10308118 2.638538e-06 2.1814598e-20)
(0.10308119 2.8868126e-06 -2.8358472e-18)
(0.10308128 3.1122837e-06 2.9135376e-18)
(0.10308128 3.3398011e-06 2.9579189e-18)
(0.1030813 3.5590293e-06 2.9055925e-27)
(0.1030815 3.772512e-06 2.7346016e-27)
(0.10308181 3.9814918e-06 -3.1213244e-18)
(0.10308202 4.1857429e-06 -6.219933e-21)
(0.10308199 4.3849023e-06 0)
(0.10308178 4.5807953e-06 3.2934038e-18)
(0.10308162 4.7726387e-06 -6.7158103e-18)
(0.10308167 4.9621146e-06 3.4229061e-18)
(0.10308193 5.1486594e-06 1.3573512e-20)
(0.10308229 5.3335711e-06 0)
(0.10308264 5.5168182e-06 7.0170076e-21)
(0.10308293 5.699075e-06 0)
(0.10308315 5.8811756e-06 9.1332009e-19)
(0.10308332 6.0618141e-06 -1.8853212e-18)
(0.10308345 6.2420654e-06 9.4252449e-19)
(0.10308354 6.4216382e-06 2.4306392e-19)
(0.10308356 6.6011169e-06 -2.6161714e-19)
(0.1030835 6.7795446e-06 0)
(0.10308333 6.9569051e-06 9.5267644e-19)
(0.10308305 7.1362771e-06 -1.9056475e-18)
(0.10308265 7.3166036e-06 9.3782354e-19)
(0.10308216 7.4965148e-06 0)
(0.10308168 7.6754369e-06 1.8156966e-18)
(0.10308136 7.8571994e-06 -1.792793e-18)
(0.10308132 8.0461741e-06 1.3718991e-20)
(0.10308156 8.2408816e-06 0)
(0.10308188 8.4369119e-06 6.6281588e-21)
(0.10308203 8.6332991e-06 3.3347737e-18)
(0.10308189 8.8289471e-06 -6.5588165e-18)
(0.10308157 9.0301939e-06 -4.711359e-28)
(0.1030813 9.2351148e-06 3.1599238e-18)
(0.10308127 9.4508713e-06 -3.1022206e-18)
(0.10308147 9.666871e-06 6.095623e-18)
(0.10308172 9.8965069e-06 -5.9756399e-18)
(0.10308185 1.0119943e-05 2.9312182e-18)
(0.10308184 1.0369708e-05 -1.1230884e-20)
(0.10308171 1.059893e-05 0)
(0.10308153 1.088704e-05 0)
(0.10308139 1.1111816e-05 0)
(0.10308132 1.1464825e-05 -2.6787642e-18)
(0.10308119 1.1675688e-05 2.6269161e-18)
(0.10308092 1.2111598e-05 0)
(0.10308074 1.2309333e-05 3.9209579e-20)
(0.10308108 1.281391e-05 0)
(0.10308157 1.3029412e-05 1.8937216e-20)
(0.10308142 1.3490499e-05 1.8556424e-20)
(0.10320736 1.3488862e-06 0)
(0.10311369 -2.860577e-07 3.7337194e-20)
(0.10309963 1.078962e-06 -3.7950948e-20)
(0.10309907 6.8083955e-07 -3.848787e-20)
(0.10310079 1.3055522e-06 -2.5459192e-18)
(0.10310188 1.3083401e-06 2.5798902e-18)
(0.10310214 1.7413539e-06 0)
(0.10310182 1.8608771e-06 2.0900576e-20)
(0.10310133 2.1632957e-06 -5.4669997e-18)
(0.10310113 2.3515543e-06 5.5396377e-18)
(0.10310124 2.5809505e-06 0)
(0.10310133 2.7783862e-06 -2.2718272e-20)
(0.10310128 2.9767117e-06 0)
(0.10310131 3.159649e-06 3.0009443e-18)
(0.10310158 3.3383259e-06 -6.1660179e-18)
(0.10310194 3.5153526e-06 3.1415341e-18)
(0.10310212 3.6910731e-06 -3.1876738e-18)
(0.10310201 3.8649066e-06 -3.9836895e-27)
(0.10310175 4.0358128e-06 3.3178917e-18)
(0.10310159 4.200773e-06 -3.3770041e-18)
(0.1031017 4.3628825e-06 -3.7281245e-27)
(0.103102 4.5228145e-06 3.4958024e-18)
(0.10310238 4.6805573e-06 0)
(0.10310271 4.8363627e-06 1.7935781e-18)
(0.10310298 4.9926155e-06 1.7571459e-27)
(0.10310318 5.1472573e-06 -1.8386457e-18)
(0.10310333 5.3000242e-06 -1.4827752e-20)
(0.10310344 5.4535209e-06 4.9707674e-19)
(0.10310351 5.6060195e-06 -4.895169e-19)
(0.10310353 5.758217e-06 2.4779573e-19)
(0.10310347 5.9100342e-06 -2.4705522e-19)
(0.1031033 6.0595316e-06 3.0408702e-20)
(0.10310304 6.2097895e-06 0)
(0.10310266 6.3619012e-06 1.4729313e-20)
(0.10310217 6.5149616e-06 -1.4491807e-20)
(0.10310165 6.6676079e-06 -1.4254703e-20)
(0.10310126 6.8216365e-06 -1.4018174e-20)
(0.10310118 6.9810169e-06 -1.3782342e-20)
(0.10310141 7.1453842e-06 3.4545319e-18)
(0.10310178 7.3092406e-06 -3.4080686e-18)
(0.10310201 7.4784503e-06 0)
(0.1031019 7.6455469e-06 3.2885797e-18)
(0.10310154 7.8200104e-06 -3.2164519e-18)
(0.10310118 7.9928267e-06 3.1944321e-18)
(0.10310107 8.1808086e-06 -3.1103655e-18)
(0.10310125 8.3615831e-06 -3.0272989e-18)
(0.10310151 8.5682079e-06 -2.3810065e-27)
(0.10310167 8.7537131e-06 2.909972e-18)
(0.10310167 8.9875222e-06 2.2452057e-20)
(0.10310153 9.1690098e-06 0)
(0.10310133 9.4537989e-06 0)
(0.10310114 9.6115386e-06 0)
(0.10310105 9.9813322e-06 2.0617828e-20)
(0.10310094 1.0091487e-05 -2.0163889e-20)
(0.10310065 1.0552735e-05 0)
(0.10310033 1.0644712e-05 2.4661346e-18)
(0.10310063 1.1163426e-05 -2.4096368e-18)
(0.10310118 1.1274774e-05 0)
(0.10310099 1.1844584e-05 0)
(0.10321161 1.3776754e-06 6.8453299e-20)
(0.10312703 -2.7292941e-07 -7.2519839e-20)
(0.10311629 9.6323432e-07 -2.3362365e-18)
(0.10311667 6.2035207e-07 2.420714e-18)
(0.10311845 1.1415407e-06 3.8687936e-20)
(0.10311937 1.1674248e-06 0)
(0.10311948 1.5281848e-06 -2.6023039e-18)
(0.10311904 1.6430928e-06 7.9771368e-18)
(0.10311854 1.9009389e-06 -1.0915218e-17)
(0.10311845 2.0661688e-06 5.6035649e-18)
(0.10311866 2.2663003e-06 -2.8524104e-18)
(0.10311871 2.4383309e-06 2.2762065e-20)
(0.10311861 2.6110336e-06 5.9486884e-18)
(0.10311869 2.7703139e-06 -3.0111559e-18)
(0.10311905 2.9253534e-06 0)
(0.10311944 3.0778341e-06 0)
(0.10311958 3.2288448e-06 -1.2559915e-20)
(0.10311937 3.3767814e-06 0)
(0.10311906 3.5223459e-06 0)
(0.10311893 3.6654493e-06 2.6526731e-20)
(0.1031191 3.8069359e-06 -1.3498406e-20)
(0.10311946 3.9467412e-06 -2.7467977e-20)
(0.10311984 4.0849464e-06 -1.7881847e-18)
(0.10312016 4.220994e-06 1.8327137e-18)
(0.10312041 4.3555903e-06 1.4444617e-20)
(0.10312058 4.4885069e-06 -1.4682724e-20)
(0.10312072 4.6216333e-06 9.6987259e-19)
(0.10312082 4.7550182e-06 -9.7020816e-19)
(0.10312088 4.8877094e-06 1.5397373e-20)
(0.10312089 5.0190396e-06 -2.3370285e-19)
(0.10312083 5.1475961e-06 -2.4837075e-19)
(0.10312068 5.2734505e-06 4.7377837e-19)
(0.10312043 5.4010936e-06 0)
(0.10312007 5.5294785e-06 -1.9094552e-18)
(0.10311958 5.6588289e-06 1.4561626e-20)
(0.10311904 5.7858513e-06 3.6950075e-18)
(0.10311859 5.9175391e-06 -1.7884702e-18)
(0.10311843 6.0527914e-06 0)
(0.10311865 6.1922487e-06 1.3605662e-20)
(0.10311907 6.3283853e-06 0)
(0.10311938 6.4748195e-06 0)
(0.10311934 6.6169511e-06 2.5787528e-20)
(0.10311896 6.7735569e-06 -1.2656794e-20)
(0.10311851 6.9178737e-06 -3.2042512e-18)
(0.1031183 7.0861637e-06 3.1185686e-18)
(0.10311844 7.2338006e-06 -3.8503508e-26)
(0.10311873 7.4227736e-06 2.3408481e-20)
(0.10311892 7.5685868e-06 3.69478e-26)
(0.10311893 7.7891178e-06 -2.2444185e-20)
(0.1031188 7.9219603e-06 -5.5991726e-18)
(0.10311858 8.1938227e-06 5.4956148e-18)
(0.10311836 8.3013306e-06 4.1945605e-20)
(0.10311822 8.6367638e-06 -2.661575e-18)
(0.10311815 8.7298683e-06 5.1120817e-18)
(0.10311786 9.1239384e-06 -5.0202141e-18)
(0.1031174 9.2198637e-06 2.4242866e-18)
(0.10311763 9.6940808e-06 -7.3646743e-20)
(0.10311827 9.7464648e-06 0)
(0.10311805 1.0434807e-05 0)
(0.1032148 1.2474993e-06 -6.6157501e-20)
(0.10313919 -2.0847538e-07 7.0467358e-20)
(0.10313085 8.1359827e-07 -2.3200119e-18)
(0.10313199 5.6790364e-07 2.3054642e-18)
(0.10313377 9.8106058e-07 -2.446246e-18)
(0.10313449 1.0431523e-06 2.55631e-18)
(0.10313448 1.3359097e-06 2.5471642e-18)
(0.10313393 1.446178e-06 -2.6566346e-18)
(0.10313344 1.666187e-06 5.4054556e-18)
(0.10313352 1.8093212e-06 -1.1116488e-17)
(0.10313381 1.9842161e-06 5.7098895e-18)
(0.10313378 2.1325229e-06 -2.2804592e-20)
(0.10313363 2.2819228e-06 -2.9822774e-18)
(0.1031338 2.4188296e-06 6.0898297e-18)
(0.10313426 2.551601e-06 -3.1070143e-18)
(0.10313468 2.6817816e-06 -3.1686864e-18)
(0.10313473 2.8106921e-06 2.523467e-20)
(0.10313441 2.9367177e-06 3.2654597e-18)
(0.10313406 3.0608569e-06 -2.6188759e-20)
(0.103134 3.1830424e-06 -5.3329514e-20)
(0.10313425 3.3032254e-06 1.3570395e-20)
(0.10313466 3.4225166e-06 1.3808675e-20)
(0.10313504 3.540112e-06 0)
(0.10313535 3.6560987e-06 -1.828708e-18)
(0.10313556 3.7704667e-06 -1.4526814e-20)
(0.10313572 3.8835522e-06 1.9049989e-18)
(0.10313584 3.9972061e-06 0)
(0.10313593 4.1108359e-06 0)
(0.10313599 4.2245434e-06 -3.0981552e-20)
(0.103136 4.3367755e-06 2.3500881e-19)
(0.10313594 4.4467338e-06 -2.496074e-19)
(0.1031358 4.553902e-06 0)
(0.10313558 4.663758e-06 0)
(0.10313524 4.7730272e-06 -1.9034257e-18)
(0.10313476 4.8874494e-06 3.7446755e-18)
(0.10313419 4.9968687e-06 -1.8557105e-18)
(0.10313368 5.1107062e-06 -1.7821047e-18)
(0.10313345 5.2204253e-06 1.7795308e-18)
(0.10313363 5.3352464e-06 0)
(0.1031341 5.4435283e-06 0)
(0.10313451 5.5723202e-06 -3.4007184e-18)
(0.10313455 5.6923344e-06 3.2868764e-18)
(0.10313418 5.836027e-06 2.5398565e-20)
(0.10313364 5.9558349e-06 -3.1890441e-18)
(0.10313331 6.106243e-06 6.2290338e-18)
(0.10313339 6.222191e-06 -3.087909e-18)
(0.10313371 6.3918001e-06 -3.0241113e-18)
(0.10313394 6.5070653e-06 5.8734278e-18)
(0.10313397 6.7056981e-06 -2.8719886e-18)
(0.10313386 6.8142277e-06 -6.5774283e-20)
(0.10313363 7.0506286e-06 0)
(0.10313337 7.1531144e-06 -4.1747456e-20)
(0.10313318 7.4299162e-06 2.6025669e-18)
(0.10313313 7.5344992e-06 -5.0633368e-18)
(0.1031329 7.8550271e-06 2.535696e-18)
(0.10313228 7.9681198e-06 3.7246142e-20)
(0.10313242 8.3871927e-06 1.4411535e-19)
(0.10313317 8.422149e-06 6.9513654e-20)
(0.10313293 9.1332183e-06 6.6631806e-20)
(0.10321692 1.0233329e-06 -1.0238335e-18)
(0.10314931 -1.2557787e-07 -1.0961697e-18)
(0.10314351 6.4512276e-07 2.3398504e-18)
(0.10314523 5.3041325e-07 -2.2675008e-18)
(0.10314693 8.4301333e-07 -7.260595e-27)
(0.10314745 9.2517872e-07 2.4570167e-18)
(0.10314733 1.1563219e-06 4.0202045e-20)
(0.10314666 1.2627998e-06 5.2944505e-18)
(0.10314623 1.4461536e-06 4.2486439e-20)
(0.10314652 1.5688684e-06 -5.621701e-18)
(0.10314687 1.7194081e-06 5.6700723e-18)
(0.10314668 1.8475198e-06 -5.8257267e-18)
(0.10314652 1.9737349e-06 -2.9900164e-18)
(0.10314683 2.0920878e-06 3.0547141e-18)
(0.1031474 2.2044078e-06 2.4363645e-20)
(0.10314781 2.3166848e-06 0)
(0.10314774 2.4260488e-06 -2.5345778e-20)
(0.10314729 2.5330396e-06 3.3322482e-18)
(0.10314694 2.6380077e-06 -6.7102284e-18)
(0.10314698 2.7413127e-06 2.7518007e-26)
(0.10314733 2.8426148e-06 2.727727e-20)
(0.10314777 2.9432499e-06 3.5530585e-18)
(0.10314815 3.0420716e-06 -1.8073516e-18)
(0.10314843 3.1396955e-06 1.8382429e-18)
(0.10314862 3.2359743e-06 1.8692204e-18)
(0.10314876 3.3323175e-06 -1.9151348e-18)
(0.10314887 3.4284313e-06 9.6571868e-19)
(0.10314895 3.5246191e-06 -9.8131877e-19)
(0.103149 3.6212343e-06 -2.3365304e-19)
(0.10314901 3.7154818e-06 1.5747446e-20)
(0.10314895 3.8082413e-06 2.5074553e-19)
(0.10314883 3.8983543e-06 0)
(0.10314863 3.9919241e-06 -1.5179476e-20)
(0.10314832 4.0824575e-06 0)
(0.10314786 4.1805961e-06 -1.4688875e-20)
(0.10314728 4.270958e-06 -1.8489124e-18)
(0.1031467 4.3707849e-06 -2.8402111e-20)
(0.10314637 4.4568627e-06 5.3598663e-18)
(0.10314649 4.5563794e-06 -7.0221867e-18)
(0.103147 4.6457573e-06 -2.6944847e-20)
(0.10314754 4.7600251e-06 6.8263304e-18)
(0.10314769 4.8574983e-06 -3.3242918e-18)
(0.10314735 4.9835221e-06 3.2106212e-18)
(0.10314674 5.0814167e-06 -3.223438e-18)
(0.10314625 5.2153597e-06 2.4490236e-20)
(0.10314624 5.3102576e-06 0)
(0.10314661 5.4611536e-06 0)
(0.10314688 5.5586882e-06 4.591744e-20)
(0.10314694 5.7314046e-06 5.7423947e-18)
(0.10314684 5.8306017e-06 -5.5607881e-18)
(0.10314662 6.0275864e-06 -4.2683709e-20)
(0.10314633 6.131934e-06 2.6593699e-18)
(0.10314607 6.3561978e-06 -5.129268e-18)
(0.10314602 6.4691468e-06 -4.414057e-27)
(0.1031459 6.7304435e-06 2.3898975e-18)
(0.10314511 6.854744e-06 -8.8237343e-26)
(0.10314515 7.1938038e-06 -2.2569341e-18)
(0.10314602 7.2399413e-06 2.0967803e-18)
(0.10314576 7.8854471e-06 -6.4400002e-20)
(0.10321837 7.4719358e-07 0)
(0.10315856 -4.1632188e-08 6.6644292e-20)
(0.10315476 4.7750917e-07 -7.45059e-26)
(0.10315688 4.6492815e-07 0)
(0.10315844 6.8460662e-07 -2.4639588e-18)
(0.10315876 8.089039e-07 2.5139908e-18)
(0.10315856 9.7365914e-07 0)
(0.10315776 1.0901844e-06 4.1214706e-20)
(0.10315745 1.2286762e-06 0)
(0.10315802 1.3448618e-06 5.6195146e-18)
(0.10315834 1.4684895e-06 -5.6745605e-18)
(0.10315791 1.5828663e-06 2.9293934e-18)
(0.10315782 1.685889e-06 5.2337145e-27)
(0.10315832 1.7900454e-06 -3.0642083e-18)
(0.10315898 1.8834363e-06 -3.1541511e-18)
(0.10315936 1.9809504e-06 3.1941977e-18)
(0.10315912 2.0726965e-06 0)
(0.10315854 2.1646175e-06 2.5945025e-20)
(0.10315823 2.2527049e-06 -2.6433995e-20)
(0.1031584 2.3412859e-06 2.9091418e-26)
(0.10315884 2.4267658e-06 -2.740517e-20)
(0.10315931 2.5123918e-06 0)
(0.10315967 2.5949032e-06 0)
(0.10315993 2.677577e-06 0)
(0.1031601 2.7588126e-06 0)
(0.10316023 2.8402858e-06 0)
(0.10316032 2.9216226e-06 -9.552417e-19)
(0.1031604 3.0028232e-06 5.0847598e-19)
(0.10316044 3.0831024e-06 5.0094442e-19)
(0.10316045 3.1623983e-06 2.3729486e-19)
(0.1031604 3.2398363e-06 -7.5530893e-19)
(0.10316029 3.3157685e-06 5.110696e-19)
(0.10316011 3.3944063e-06 1.5238724e-20)
(0.10315983 3.4706689e-06 0)
(0.10315941 3.5532732e-06 1.4744606e-20)
(0.10315882 3.6275809e-06 0)
(0.10315818 3.7118765e-06 0)
(0.10315773 3.7803438e-06 3.6144272e-18)
(0.10315776 3.8712205e-06 -7.020185e-18)
(0.10315829 3.9452491e-06 6.9495197e-18)
(0.10315896 4.0440399e-06 -6.8499801e-18)
(0.10315926 4.1238223e-06 6.6706631e-18)
(0.10315898 4.2296415e-06 -3.2462065e-18)
(0.10315832 4.3120126e-06 2.5059216e-20)
(0.10315766 4.4253162e-06 3.1671307e-18)
(0.1031575 4.5091175e-06 -3.0765716e-18)
(0.10315791 4.6318238e-06 2.3510582e-20)
(0.10315826 4.7222504e-06 -2.2974465e-20)
(0.10315833 4.8595738e-06 5.7409251e-18)
(0.10315826 4.9566711e-06 -1.1149482e-17)
(0.10315804 5.1094172e-06 5.4904741e-18)
(0.10315774 5.2151914e-06 4.1361079e-20)
(0.10315741 5.3906668e-06 0)
(0.10315731 5.5052108e-06 -2.523195e-18)
(0.10315738 5.7092662e-06 2.3975468e-18)
(0.10315641 5.8392034e-06 -7.207222e-20)
(0.10315628 6.1214709e-06 2.1408089e-18)
(0.10315731 6.1969556e-06 -2.0414228e-18)
(0.10315705 6.7378151e-06 1.2459696e-19)
(0.10321925 3.9395151e-07 0)
(0.10316633 4.102194e-08 -2.2052882e-18)
(0.10316465 3.2895558e-07 -6.7901398e-20)
(0.10316692 4.6460516e-07 4.6033599e-18)
(0.10316833 5.8965802e-07 7.3803592e-20)
(0.10316848 7.2347749e-07 -4.9863208e-18)
(0.10316821 8.3827726e-07 2.5436128e-18)
(0.10316724 9.5945528e-07 5.1742305e-18)
(0.10316718 1.0574011e-06 -5.3757742e-18)
(0.10316806 1.1684509e-06 -3.3175954e-26)
(0.10316824 1.2600828e-06 4.471418e-20)
(0.10316748 1.3618432e-06 -2.2924096e-20)
(0.10316765 1.4391318e-06 0)
(0.10316836 1.5338573e-06 2.4010613e-20)
(0.10316907 1.6075185e-06 3.1649588e-18)
(0.10316939 1.6956409e-06 -3.2061872e-18)
(0.10316891 1.7678818e-06 3.2453357e-18)
(0.10316821 1.8463812e-06 -3.3347367e-18)
(0.10316801 1.9148914e-06 2.0336026e-26)
(0.10316835 1.9911438e-06 -3.4335716e-18)
(0.10316888 2.0595489e-06 7.0184661e-18)
(0.10316936 2.1318356e-06 -3.5852371e-18)
(0.1031697 2.1979261e-06 0)
(0.10316992 2.2673778e-06 1.4491453e-20)
(0.10317008 2.3337791e-06 -1.9009097e-18)
(0.10317019 2.4031885e-06 1.9025868e-18)
(0.10317028 2.4706926e-06 -1.5227349e-20)
(0.10317035 2.5395122e-06 4.7971559e-19)
(0.10317039 2.606249e-06 -5.0312985e-19)
(0.1031704 2.6717378e-06 1.5882714e-20)
(0.10317035 2.7353282e-06 5.0531194e-19)
(0.10317026 2.7978836e-06 -5.1282484e-19)
(0.10317011 2.8610477e-06 -1.5290139e-20)
(0.10316987 2.9236619e-06 0)
(0.10316948 2.9901536e-06 0)
(0.10316891 3.0505266e-06 -1.8765516e-18)
(0.10316822 3.1226057e-06 1.8305446e-18)
(0.10316764 3.1852763e-06 -2.8111674e-20)
(0.10316753 3.2610056e-06 -2.7621094e-20)
(0.10316806 3.3261247e-06 0)
(0.10316886 3.4076653e-06 2.663557e-20)
(0.10316936 3.477472e-06 -3.319551e-18)
(0.10316917 3.5664814e-06 3.255763e-18)
(0.1031685 3.6396758e-06 -3.2162711e-18)
(0.10316768 3.7341817e-06 3.1254708e-18)
(0.10316725 3.8090201e-06 2.4082661e-20)
(0.10316773 3.9096808e-06 -2.3543117e-20)
(0.10316818 3.9961199e-06 0)
(0.10316826 4.1069217e-06 0)
(0.10316823 4.200017e-06 -4.3661208e-20)
(0.10316801 4.3247731e-06 0)
(0.10316774 4.428495e-06 -4.1171429e-20)
(0.10316734 4.5659628e-06 0)
(0.10316709 4.6875691e-06 2.5382759e-18)
(0.10316742 4.843398e-06 -2.2939217e-18)
(0.10316632 4.9859823e-06 7.0913909e-20)
(0.10316595 5.1715949e-06 -2.1645163e-18)
(0.10316718 5.2745114e-06 3.0791953e-18)
(0.10316692 5.6511048e-06 -1.085709e-18)
(0.10321778 9.8162597e-08 1.1632725e-19)
(0.10317123 1.2639666e-07 -2.0210843e-18)
(0.10317186 1.6241782e-07 -2.5967098e-27)
(0.10317396 3.8634392e-07 2.1612682e-18)
(0.10317527 4.1455985e-07 0)
(0.10317534 6.0010881e-07 3.8038656e-20)
(0.1031749 6.505413e-07 -3.9515293e-20)
(0.10317375 7.814929e-07 5.2781033e-18)
(0.10317416 8.3112479e-07 -1.0815571e-17)
(0.10317532 9.5001643e-07 -4.3522293e-20)
(0.10317515 1.008993e-06 5.6825903e-18)
(0.10317402 1.1045398e-06 2.9619655e-18)
(0.10317473 1.1541616e-06 -3.0117275e-18)
(0.1031756 1.2437901e-06 -2.4079682e-20)
(0.10317631 1.2945015e-06 -2.461518e-20)
(0.10317654 1.3766641e-06 0)
(0.10317573 1.4260516e-06 2.5650275e-20)
(0.10317496 1.5004862e-06 -2.6154e-20)
(0.10317497 1.5496819e-06 2.6650909e-20)
(0.1031755 1.6197981e-06 0)
(0.10317609 1.6705472e-06 3.5644525e-18)
(0.10317655 1.7347365e-06 -5.3987082e-18)
(0.10317685 1.7843197e-06 1.8163994e-18)
(0.10317706 1.8452359e-06 1.847335e-18)
(0.1031772 1.8955335e-06 -1.8635858e-18)
(0.10317731 1.952672e-06 -9.4726528e-19)
(0.10317739 2.002342e-06 9.7810704e-19)
(0.10317745 2.0545864e-06 0)
(0.10317749 2.1075586e-06 -2.5249421e-19)
(0.10317749 2.1596161e-06 2.5496405e-19)
(0.10317746 2.2135647e-06 4.9091727e-19)
(0.10317738 2.2652226e-06 -1.5115927e-18)
(0.10317725 2.3211562e-06 9.9659217e-19)
(0.10317705 2.3773978e-06 1.5082486e-20)
(0.10317671 2.4323437e-06 -1.913626e-18)
(0.10317617 2.488837e-06 1.8817812e-18)
(0.10317544 2.5413758e-06 0)
(0.10317472 2.5955041e-06 -3.6086152e-18)
(0.10317442 2.6496602e-06 3.5457594e-18)
(0.10317493 2.7024275e-06 0)
(0.10317583 2.7597089e-06 0)
(0.10317659 2.8190923e-06 -2.6212357e-20)
(0.1031765 2.880776e-06 2.5705596e-20)
(0.10317589 2.9444095e-06 0)
(0.10317494 3.0093678e-06 0)
(0.10317409 3.0824219e-06 -2.4126885e-20)
(0.10317463 3.1423184e-06 0)
(0.10317524 3.2234949e-06 0)
(0.10317532 3.2993215e-06 5.7375313e-18)
(0.10317534 3.3897797e-06 -5.5805011e-18)
(0.1031751 3.4735974e-06 0)
(0.10317488 3.573946e-06 4.0982423e-20)
(0.10317446 3.6858083e-06 -3.9580096e-20)
(0.10317395 3.7834462e-06 -2.4767623e-18)
(0.10317453 3.9165111e-06 2.2657799e-18)
(0.10317344 4.0396122e-06 -6.9786123e-20)
(0.10317264 4.1925189e-06 2.0544681e-18)
(0.10317421 4.2946612e-06 -2.1258064e-18)
(0.10317395 4.5821346e-06 0)
(0.10321509 -1.9872135e-07 -1.1284219e-19)
(0.10317532 2.7177301e-07 2.0305186e-18)
(0.10317864 -5.1592019e-08 -2.084354e-18)
(0.10317987 5.4915398e-07 -6.8652563e-20)
(0.10318125 3.224433e-07 3.6067428e-20)
(0.10318158 5.1623491e-07 0)
(0.10318044 5.3130143e-07 3.9288188e-20)
(0.10317927 6.3710847e-07 0)
(0.10318066 6.9153709e-07 5.3552575e-18)
(0.10318182 7.926071e-07 8.43118e-27)
(0.10318106 8.2834457e-07 -5.7534297e-18)
(0.10317965 9.1426398e-07 2.2996454e-20)
(0.10318113 9.4390832e-07 0)
(0.10318215 1.0299015e-06 0)
(0.1031828 1.0636873e-06 3.1605712e-18)
(0.10318285 1.1435686e-06 -3.2537159e-18)
(0.10318164 1.176045e-06 0)
(0.10318094 1.2410497e-06 -1.3123748e-20)
(0.10318122 1.2662757e-06 0)
(0.10318192 1.330835e-06 0)
(0.10318254 1.3570273e-06 0)
(0.10318296 1.4131198e-06 -1.8055677e-18)
(0.10318323 1.441096e-06 1.8509426e-18)
(0.10318341 1.4945052e-06 0)
(0.10318353 1.5299361e-06 -1.4834748e-20)
(0.10318362 1.5865725e-06 0)
(0.10318369 1.6307882e-06 -1.532651e-20)
(0.10318374 1.6810232e-06 -5.1397918e-19)
(0.10318378 1.7266856e-06 5.0641629e-19)
(0.10318377 1.7722345e-06 -1.5975785e-20)
(0.10318374 1.8168165e-06 5.3961956e-19)
(0.10318367 1.8606045e-06 -1.4992659e-18)
(0.10318355 1.9058697e-06 9.6802716e-19)
(0.10318338 1.9500601e-06 -3.0231408e-20)
(0.10318308 1.9989548e-06 1.8751901e-26)
(0.10318259 2.0460473e-06 0)
(0.10318183 2.0975493e-06 0)
(0.10318093 2.1503027e-06 0)
(0.1031804 2.2010212e-06 1.388668e-20)
(0.10318084 2.2549639e-06 -3.492002e-18)
(0.10318177 2.3117557e-06 6.8703895e-18)
(0.10318285 2.3668605e-06 5.5469772e-27)
(0.10318289 2.4289441e-06 -6.597931e-18)
(0.10318237 2.4910241e-06 3.2576395e-18)
(0.10318132 2.5484445e-06 0)
(0.10317992 2.615172e-06 0)
(0.10318046 2.6673983e-06 0)
(0.10318128 2.7463806e-06 5.8927564e-18)
(0.1031814 2.809831e-06 -5.7587954e-18)
(0.10318142 2.8893366e-06 2.1770067e-20)
(0.10318117 2.9612777e-06 -4.2204282e-20)
(0.10318105 3.0417158e-06 -5.1520364e-26)
(0.1031806 3.1264793e-06 4.966456e-26)
(0.10317974 3.2228225e-06 -3.7760062e-20)
(0.10318023 3.3024551e-06 3.6105213e-20)
(0.10317968 3.4112646e-06 0)
(0.10317784 3.4419878e-06 8.2163821e-26)
(0.10318021 3.687166e-06 6.0975991e-20)
(0.10317989 3.682937e-06 0)
(0.10322005 -9.4820523e-07 9.3101852e-19)
(0.10318626 9.8500535e-07 -9.5957099e-19)
(0.10319218 -4.6066321e-07 0)
(0.10319026 2.2894215e-07 6.7621085e-20)
(0.10319228 -4.5047119e-08 -3.5661566e-20)
(0.1031946 1.775635e-07 2.4317489e-18)
(0.10319053 1.7809768e-07 -2.5390115e-18)
(0.10319046 1.6635813e-07 5.1989442e-18)
(0.10319409 2.5161741e-07 1.6977722e-26)
(0.10319425 3.1963109e-07 -5.5650376e-18)
(0.10319281 3.8386788e-07 -5.6895816e-18)
(0.10319203 4.430148e-07 5.8726265e-18)
(0.10319356 4.9585381e-07 0)
(0.10319528 5.5001954e-07 0)
(0.10319577 6.1942019e-07 3.1698418e-18)
(0.10319517 6.7864797e-07 -3.2006809e-18)
(0.10319391 7.3540819e-07 -1.2911868e-20)
(0.10319357 8.0836177e-07 1.5587008e-26)
(0.10319398 8.679371e-07 0)
(0.10319485 9.3287214e-07 1.366117e-20)
(0.10319554 9.9631075e-07 -3.5594168e-18)
(0.10319596 1.0838873e-06 3.6070249e-18)
(0.10319621 1.1529514e-06 1.8413856e-18)
(0.10319638 1.2435702e-06 -1.8722223e-18)
(0.10319651 1.3150367e-06 0)
(0.1031966 1.4055624e-06 0)
(0.10319667 1.4713993e-06 -9.52196e-19)
(0.10319672 1.5446851e-06 1.0143954e-18)
(0.10319677 1.6064567e-06 0)
(0.10319677 1.6786448e-06 1.6002572e-20)
(0.10319674 1.7345353e-06 -1.5892886e-20)
(0.10319668 1.8057284e-06 1.5638517e-20)
(0.10319658 1.8604674e-06 9.847541e-19)
(0.10319642 1.9368286e-06 9.8394921e-19)
(0.10319615 1.992373e-06 1.4890949e-20)
(0.10319568 2.0677939e-06 -1.8893456e-18)
(0.10319485 2.1072749e-06 -1.8291214e-18)
(0.10319374 2.152832e-06 -1.8124133e-18)
(0.10319315 2.2027666e-06 3.5485828e-18)
(0.10319347 2.219197e-06 1.3671166e-20)
(0.10319432 2.2812264e-06 -2.6847676e-20)
(0.10319566 2.3090595e-06 1.3172843e-20)
(0.1031961 2.3619853e-06 -1.2917035e-20)
(0.10319565 2.414251e-06 -2.5310329e-20)
(0.1031941 2.447979e-06 -1.2385728e-20)
(0.10319261 2.5391392e-06 -2.4214334e-20)
(0.10319311 2.5295229e-06 0)
(0.10319415 2.6233405e-06 0)
(0.1031945 2.6511021e-06 -5.7126843e-18)
(0.10319422 2.7479305e-06 -4.3482755e-20)
(0.10319409 2.789713e-06 5.4296819e-18)
(0.10319414 2.8448903e-06 -4.062176e-20)
(0.10319375 2.9902626e-06 3.9068688e-20)
(0.10319297 3.0235381e-06 2.4325049e-18)
(0.10319122 3.089103e-06 -2.3190152e-18)
(0.10319327 3.2839272e-06 -2.1645153e-18)
(0.10318861 2.9446769e-06 4.1404167e-18)
(0.10319335 3.93789e-06 -8.9250259e-19)
(0.10319317 2.7883923e-06 -8.2508339e-19)
(0.10321588 -2.2133368e-06 -1.0638017e-19)
(0.10318223 1.0814504e-06 5.8477015e-20)
(0.10319929 1.5230984e-07 3.1288383e-20)
(0.10318749 9.2097788e-07 0)
(0.10319344 7.3005697e-07 0)
(0.10320154 1.0904556e-06 2.3365461e-18)
(0.10318673 9.6435637e-07 -2.4651667e-18)
(0.10319121 9.9091764e-07 5.19763e-18)
(0.10320119 1.0377036e-06 -5.3527098e-18)
(0.10319921 1.0179198e-06 5.5593183e-18)
(0.10319677 1.0467031e-06 -5.779767e-18)
(0.10319834 9.7089056e-07 -5.9014344e-18)
(0.10319705 9.7777369e-07 3.029825e-18)
(0.10320217 9.4941077e-07 6.2226537e-18)
(0.10320226 9.5092471e-07 -3.1775974e-18)
(0.10320002 9.1571841e-07 7.0123881e-26)
(0.10319989 8.8405239e-07 1.2947253e-20)
(0.10320034 8.4603576e-07 -3.3534403e-18)
(0.10320015 7.9041333e-07 6.887298e-18)
(0.10320125 7.6872484e-07 -3.5336676e-18)
(0.10320238 6.9876928e-07 0)
(0.10320296 6.6445322e-07 1.4177446e-20)
(0.10320329 6.0359813e-07 0)
(0.10320351 5.6114357e-07 7.3277808e-21)
(0.10320369 4.9719435e-07 -7.4479904e-21)
(0.10320382 4.4919544e-07 0)
(0.10320392 3.9206998e-07 -2.3075136e-20)
(0.10320401 3.6683541e-07 0)
(0.10320406 3.2505109e-07 0)
(0.10320413 2.9794822e-07 0)
(0.10320412 2.5921955e-07 0)
(0.10320404 2.2553294e-07 0)
(0.10320395 1.8175402e-07 2.3071986e-20)
(0.10320376 1.471263e-07 7.5666039e-21)
(0.10320345 9.7226536e-08 0)
(0.10320284 6.668144e-08 2.1967433e-20)
(0.10320162 1.3343319e-08 -1.440355e-20)
(0.10320003 -1.9261928e-08 7.0814424e-21)
(0.10320034 -6.2678689e-08 -6.9608049e-21)
(0.10320014 -1.143569e-07 -1.3678568e-20)
(0.10320082 -1.4158222e-07 3.4521992e-18)
(0.10320158 -1.7396985e-07 -6.762631e-18)
(0.10320353 -1.9399891e-07 1.2926613e-20)
(0.10320296 -2.017277e-07 3.2545426e-18)
(0.10319894 -2.1795039e-07 1.2391995e-20)
(0.1031996 -1.9630166e-07 2.421958e-20)
(0.10319944 -2.6675749e-07 0)
(0.10320044 -2.4776742e-07 -5.8798571e-18)
(0.10320198 -2.604863e-07 2.236469e-20)
(0.10320023 -2.2281652e-07 5.5937129e-18)
(0.10320081 -2.0402008e-07 2.0958815e-20)
(0.10320152 -1.7888811e-07 0)
(0.10320029 -9.1033536e-08 -2.4809302e-18)
(0.10320087 -3.5050209e-08 2.3891653e-18)
(0.1031909 7.3135557e-08 0)
(0.10320148 1.858086e-07 3.3267655e-20)
(0.10318708 3.409863e-07 -2.0284631e-18)
(0.10320074 6.8569372e-07 1.7990458e-18)
(0.10320061 1.7629592e-07 -1.0683324e-19)
(0.10316115 -2.3697482e-06 5.1710324e-20)
(0.10313967 -1.4421797e-06 1.7689994e-18)
(0.10315557 -1.1459274e-06 -1.9955789e-18)
(0.10314342 -1.3260603e-06 2.1011304e-18)
(0.10315697 -6.7110689e-07 -4.4634161e-18)
(0.10315403 -1.1735765e-06 4.7103575e-18)
(0.10314096 -9.8777791e-07 -2.4615551e-18)
(0.10315756 -7.1249992e-07 5.1399207e-18)
(0.10315279 -7.52372e-07 -1.0478955e-20)
(0.10315166 -7.4302444e-07 -5.5474806e-18)
(0.10314867 -6.9365189e-07 -5.7176002e-18)
(0.10314762 -5.915237e-07 5.9169573e-18)
(0.10315455 -4.8598627e-07 0)
(0.10315429 -4.4318958e-07 -1.2161558e-20)
(0.10315204 -4.1473749e-07 6.2238338e-21)
(0.10315033 -3.9132994e-07 -1.27211e-20)
(0.10314973 -3.0285295e-07 -3.3173066e-18)
(0.10314824 -2.368024e-07 3.3754102e-18)
(0.10315002 -9.8648192e-08 -6.7413961e-21)
(0.10315063 -1.4700259e-08 3.5269065e-18)
(0.10315056 1.1447441e-07 -7.1475317e-18)
(0.10315064 1.9669268e-07 5.4506086e-18)
(0.10315076 3.002857e-07 -1.8467263e-18)
(0.10315089 3.9644407e-07 -3.665242e-21)
(0.10315098 4.7051663e-07 -1.899227e-18)
(0.10315106 5.7569606e-07 1.940815e-18)
(0.10315112 6.3313535e-07 7.6866109e-21)
(0.10315117 7.376418e-07 0)
(0.10315121 7.9359836e-07 0)
(0.10315123 8.8988853e-07 0)
(0.10315123 9.5510928e-07 0)
(0.10315122 1.0576259e-06 -1.0012169e-18)
(0.1031512 1.1305429e-06 9.7759105e-19)
(0.10315117 1.2367224e-06 -1.9430213e-18)
(0.10315113 1.3165956e-06 1.904605e-18)
(0.10315107 1.4129158e-06 -3.6675086e-21)
(0.10315106 1.4994664e-06 0)
(0.10315054 1.6002746e-06 3.6343734e-18)
(0.10314811 1.6954383e-06 -3.566721e-18)
(0.10314914 1.768393e-06 0)
(0.10315037 1.8007926e-06 -3.4569272e-18)
(0.10315145 1.7981614e-06 3.3931458e-18)
(0.10315294 1.7649349e-06 -3.3145648e-18)
(0.10315499 1.7173185e-06 3.2342993e-18)
(0.10315466 1.693525e-06 -3.1831038e-18)