/*--------------------------------*- C++ -*----------------------------------*\
| =========                 |                                                 |
| \\      /  F ield         | OpenFOAM: The Open Source CFD Toolbox           |
|  \\    /   O peration     | Version:  v2006                                 |
|   \\  /    A nd           | Website:  www.openfoam.com                      |
|    \\/     M anipulation  |                                                 |
\*---------------------------------------------------------------------------*/
FoamFile
{
    version     2.0;
    format      ascii;
    class       volVectorField;
    location    "3000";
    object      wallShearStress;
}
// * * * * * * * * * * * * * * * * * * * * * * * * * * * * * * * * * * * * * //

dimensions      [1 -1 -2 0 0 0 0];


internalField   uniform (0 0 0);

boundaryField
{
    Side
    {
        type            empty;
    }
    Ground
    {
        type            calculated;
        value           uniform (0 0 0);
    }
    Inlet
    {
        type            calculated;
        value           uniform (0 0 0);
    }
    Airfoil
    {
        type            calculated;
        value           nonuniform List<vector> 
527
(
(4.0485515e-06 1.6373022e-06 -2.5507478e-20)
(4.2158871e-06 1.4698066e-06 3.5538527e-20)
(4.5035828e-06 1.1063529e-06 1.8633633e-20)
(3.6081002e-06 9.9092937e-07 -1.94841e-20)
(3.6922688e-06 1.0357442e-06 -1.9952913e-20)
(3.3730907e-06 9.3140768e-07 2.0466148e-20)
(3.198523e-06 8.5465866e-07 1.0181621e-23)
(3.0818384e-06 8.1127471e-07 -1.0386883e-23)
(3.0785058e-06 8.0209513e-07 -7.6831116e-28)
(3.099761e-06 8.0093816e-07 1.0101905e-38)
(3.1268769e-06 7.8882319e-07 0)
(3.1377405e-06 7.7797031e-07 1.1214629e-20)
(3.1584286e-06 7.6941376e-07 -1.1345897e-20)
(3.165155e-06 7.5820681e-07 -1.150215e-20)
(3.1756347e-06 7.5371942e-07 1.1631332e-20)
(3.1866466e-06 7.4336465e-07 5.8774718e-39)
(3.1928962e-06 7.3717915e-07 0)
(3.2045514e-06 7.2527233e-07 -1.1963738e-20)
(3.2113172e-06 7.1783705e-07 -2.3647418e-23)
(3.2214405e-06 7.0266588e-07 1.222666e-20)
(3.2313774e-06 6.9636533e-07 1.2319231e-20)
(3.2361871e-06 6.756614e-07 -1.2431943e-20)
(3.2442316e-06 6.7061989e-07 -1.2552148e-20)
(3.2441362e-06 6.4863629e-07 -2.4820138e-23)
(3.2476423e-06 6.4081128e-07 2.0864817e-27)
(3.2453583e-06 6.2469526e-07 -2.5246921e-23)
(3.2444427e-06 6.0964798e-07 2.5454289e-23)
(3.2426157e-06 5.9978487e-07 1.3126154e-20)
(3.2346143e-06 5.7763401e-07 5.1880623e-23)
(3.2314829e-06 5.670089e-07 1.3357551e-20)
(3.2200511e-06 5.4850185e-07 -1.3486192e-20)
(3.2079394e-06 5.2679671e-07 -1.3598682e-20)
(3.2016394e-06 5.1090125e-07 -1.373134e-20)
(3.1736188e-06 4.7953072e-07 -1.3829909e-20)
(3.1617166e-06 4.5648754e-07 -1.3925531e-20)
(3.1429746e-06 4.3755389e-07 5.4899093e-23)
(3.0926203e-06 3.955916e-07 -1.8731177e-27)
(3.0849302e-06 3.705686e-07 1.4206642e-20)
(3.0444122e-06 3.4736736e-07 -1.7632415e-38)
(2.974727e-06 3.0234941e-07 -7.1975603e-21)
(2.9572603e-06 2.7077681e-07 -5.7023685e-23)
(2.9015873e-06 2.4023887e-07 7.3440656e-21)
(2.813459e-06 1.9441507e-07 7.3633334e-21)
(2.7692624e-06 1.5583914e-07 1.1666101e-22)
(2.6978671e-06 1.2001e-07 7.4519947e-21)
(2.5866397e-06 6.8955419e-08 6.6121557e-37)
(2.4655735e-06 1.6852739e-08 5.9645208e-23)
(2.4205285e-06 -2.8390291e-08 -7.6785887e-21)
(2.2537287e-06 -7.4781053e-08 -7.8750768e-21)
(2.0413733e-06 -1.5261989e-07 -7.7448022e-21)
(2.0074861e-06 -1.9512369e-07 -4.4081038e-39)
(1.800097e-06 -2.5949293e-07 1.6254165e-39)
(1.5235588e-06 -3.4888148e-07 4.9017196e-39)
(1.2878864e-06 -4.1429462e-07 -6.2665771e-23)
(1.2515512e-06 -4.8112582e-07 8.2323362e-21)
(8.4655549e-07 -5.5613318e-07 -8.1462982e-21)
(3.7284949e-07 -6.7262973e-07 -6.4131241e-23)
(2.9689134e-07 -7.5094639e-07 -1.0761972e-42)
(5.2389723e-08 -8.5218789e-07 -6.5038334e-23)
(-4.3049412e-07 -9.5721487e-07 8.4505537e-21)
(-8.9829411e-07 -1.0633442e-06 -6.603246e-23)
(-1.0459599e-06 -1.15243e-06 6.6260293e-23)
(-1.3874674e-06 -1.2588766e-06 -9.2926043e-38)
(-1.9426215e-06 -1.3616254e-06 4.2014739e-39)
(-2.4182075e-06 -1.4632455e-06 6.7178151e-23)
(-2.6536875e-06 -1.5698674e-06 -6.7783311e-23)
(-3.0582322e-06 -1.6902465e-06 -6.7963296e-23)
(-3.7702207e-06 -1.7953517e-06 8.7975254e-21)
(-4.357912e-06 -1.9030514e-06 2.1452772e-37)
(-4.6381805e-06 -2.0228208e-06 -2.0571151e-38)
(-5.0397489e-06 -2.1736518e-06 -4.3679828e-21)
(-6.0278358e-06 -2.2718666e-06 -7.9217224e-27)
(-6.9136872e-06 -2.3677825e-06 -7.7903293e-27)
(-7.1599746e-06 -2.4867963e-06 -9.0751341e-21)
(-7.4050253e-06 -2.6804013e-06 -7.0608163e-23)
(-8.6120034e-06 -2.761964e-06 1.4136019e-22)
(-9.9607413e-06 -2.8144931e-06 -4.6953155e-21)
(-1.0107462e-05 -2.9414088e-06 -4.4258147e-21)
(-1.0453927e-05 -3.1059418e-06 -9.4512531e-27)
(-1.1265251e-05 -3.2322524e-06 -1.4427393e-22)
(-1.2654821e-05 -3.2674016e-06 7.2206757e-23)
(-1.3367284e-05 -3.3437549e-06 7.2835469e-23)
(-1.3642173e-05 -3.4752051e-06 4.6059973e-21)
(-1.3929212e-05 -3.6848576e-06 9.4101628e-21)
(-1.52636e-05 -3.720849e-06 -4.7209075e-21)
(-1.6643237e-05 -3.7249148e-06 8.3701499e-27)
(-1.6763975e-05 -3.8732339e-06 3.7265384e-23)
(-1.7164916e-05 -4.0373943e-06 -3.7469072e-23)
(-1.7848373e-05 -4.1975383e-06 4.8079874e-21)
(-1.9341727e-05 -4.2006773e-06 -4.8358788e-21)
(-2.0380156e-05 -4.2345857e-06 -3.7883861e-23)
(-2.0607778e-05 -4.3875014e-06 -4.8424044e-21)
(-2.0935177e-05 -4.6035953e-06 4.9151684e-21)
(-2.2051768e-05 -4.6997846e-06 -3.2326095e-38)
(-2.3889057e-05 -4.6250344e-06 -4.9053589e-21)
(-2.4706039e-05 -4.6714541e-06 9.8521699e-21)
(-2.4922221e-05 -4.8322753e-06 -4.9493877e-21)
(-2.5163031e-05 -5.0958473e-06 3.9325326e-23)
(-2.6595361e-05 -5.1350514e-06 -5.071868e-21)
(-2.8769988e-05 -4.9748449e-06 -2.2334393e-37)
(-2.9447761e-05 -5.0295082e-06 2.5398478e-21)
(-2.9621501e-05 -5.1962387e-06 2.589907e-21)
(-2.9826938e-05 -5.4681232e-06 2.5733042e-21)
(-3.1231487e-05 -5.5033938e-06 2.5359228e-21)
(-3.3538216e-05 -5.2875674e-06 -2.5380182e-21)
(-3.434931e-05 -5.3042942e-06 -1.0528368e-26)
(-3.4470975e-05 -5.4685471e-06 2.5689127e-21)
(-3.4678883e-05 -5.710685e-06 -1.102026e-39)
(-3.5726392e-05 -5.8204641e-06 -8.6586524e-38)
(-3.8064902e-05 -5.5778725e-06 -1.6309984e-37)
(-3.9361735e-05 -5.4937709e-06 -2.6564401e-21)
(-3.9391304e-05 -5.6613486e-06 2.6713888e-21)
(-3.9630229e-05 -5.8512879e-06 -2.683758e-21)
(-4.0026889e-05 -6.125573e-06 4.231499e-23)
(-4.2301035e-05 -5.8887998e-06 -5.9484914e-27)
(-4.4412169e-05 -5.636199e-06 -2.7558864e-21)
(-4.4265736e-05 -5.8342017e-06 5.4717891e-21)
(-4.4591978e-05 -5.9731914e-06 2.7058644e-21)
(-4.4819353e-05 -6.2357753e-06 4.325166e-23)
(-4.6310663e-05 -6.1919388e-06 4.3401505e-23)
(-4.8510606e-05 -5.9335199e-06 -8.6904665e-23)
(-4.9176328e-05 -5.9760694e-06 -2.7559393e-21)
(-4.9441622e-05 -6.1112727e-06 -8.0815237e-39)
(-4.9752597e-05 -6.2892176e-06 -5.6613447e-21)
(-5.0199414e-05 -6.5371449e-06 2.8086977e-21)
(-5.2245163e-05 -6.3310732e-06 8.923604e-23)
(-5.4224494e-05 -6.1140438e-06 -4.474036e-23)
(-5.4225653e-05 -6.308319e-06 2.8878655e-21)
(-5.4630826e-05 -6.440788e-06 -4.5360659e-23)
(-5.4844609e-05 -6.7135181e-06 9.1172788e-23)
(-5.6004835e-05 -6.8138765e-06 -2.9827517e-21)
(-5.8854952e-05 -6.4193371e-06 1.4670646e-21)
(-6.0574044e-05 -6.2359182e-06 1.425677e-21)
(-6.0473857e-05 -6.4327243e-06 1.531372e-21)
(-6.0655675e-05 -6.6123949e-06 1.5393384e-21)
(-6.0580261e-05 -7.0182394e-06 1.4543856e-21)
(-6.2593333e-05 -6.9191045e-06 1.5070527e-21)
(-6.6690216e-05 -6.1984995e-06 -4.6972822e-23)
(-6.8142177e-05 -6.0183896e-06 4.7118322e-23)
(-6.7724231e-05 -6.2359114e-06 -4.7552621e-23)
(-6.7639054e-05 -6.4271006e-06 1.5309128e-21)
(-6.7292953e-05 -6.8762082e-06 9.6289739e-23)
(-6.951728e-05 -6.6853105e-06 1.5444704e-21)
(-7.4201075e-05 -5.7734103e-06 -1.5881706e-21)
(-7.5630406e-05 -5.5450162e-06 1.5445755e-21)
(-7.4929725e-05 -5.7845368e-06 2.0089015e-41)
(-7.4845633e-05 -5.9189643e-06 1.5691484e-21)
(-7.4633309e-05 -6.2031877e-06 -4.4081038e-38)
(-7.5762105e-05 -6.2006922e-06 -1.5359243e-21)
(-7.8927474e-05 -5.6259897e-06 -4.9597997e-23)
(-8.052562e-05 -5.3852681e-06 4.9759994e-23)
(-8.0042212e-05 -5.5972728e-06 -4.479022e-27)
(-8.0208478e-05 -5.678695e-06 -5.0511351e-23)
(-8.0362558e-05 -5.8101756e-06 4.4368024e-39)
(-8.0733608e-05 -5.9415038e-06 2.5517218e-23)
(-8.2057804e-05 -5.8200175e-06 -2.565617e-23)
(-8.3276802e-05 -5.7373571e-06 -7.9922735e-22)
(-8.3344481e-05 -5.8941632e-06 -2.5914805e-23)
(-8.3721706e-05 -5.9808403e-06 8.3434198e-22)
(-8.376674e-05 -6.1819433e-06 -3.6734198e-40)
(-8.3602404e-05 -6.5596903e-06 -8.7270993e-22)
(-8.616189e-05 -6.2369766e-06 8.7124992e-22)
(-8.9971953e-05 -5.6270314e-06 -1.666964e-21)
(-9.003224e-05 -5.7742524e-06 -5.319203e-23)
(-8.9528775e-05 -5.9977851e-06 -8.2978498e-22)
(-8.8927373e-05 -6.2578739e-06 -8.3559442e-22)
(-8.7029503e-05 -7.019358e-06 8.7244452e-22)
(-8.7539995e-05 -7.7263224e-06 8.4725556e-22)
(-0.00010111921 -5.3625083e-06 -2.6584126e-23)
(-0.00011136506 -2.457041e-06 -3.9636045e-22)
(-0.00010465563 -3.7839032e-06 2.667014e-23)
(-0.00010257672 -4.0024559e-06 -2.7016131e-23)
(-9.9253222e-05 -4.698457e-06 2.7321206e-23)
(-9.4773626e-05 -6.1223473e-06 -2.7742561e-23)
(-0.00010181854 -5.3052718e-06 4.3610913e-22)
(-0.000125585 3.9356567e-07 8.0356059e-40)
(-0.00013372796 3.0905527e-06 -2.3252505e-22)
(-0.0001222937 1.1941649e-06 -7.8615941e-23)
(-0.00011818518 8.7159688e-07 -2.1954423e-40)
(-0.00011200006 -2.3314443e-07 0)
(-0.00010444721 -2.3273115e-06 -4.8169635e-46)
(-0.00011705049 -2.5176327e-07 3.2540751e-28)
(-0.00014524481 8.0084038e-06 5.2802888e-40)
(-0.00014705588 9.8806419e-06 1.019374e-38)
(-0.00013601087 7.8210795e-06 -8.2664375e-22)
(-0.00013039819 7.1878827e-06 1.6530389e-38)
(-0.00012348273 5.9696826e-06 8.6018772e-22)
(-0.00011587154 4.0950652e-06 -1.1938615e-39)
(-0.00012480972 5.5917927e-06 2.6724721e-23)
(-0.00014813855 1.3267153e-05 -2.5611371e-23)
(-0.00015016396 1.5222976e-05 -8.4019703e-22)
(-0.00013871438 1.2888715e-05 5.1847523e-23)
(-0.00013263738 1.2058327e-05 -2.652857e-23)
(-0.00012542456 1.0708976e-05 8.9453563e-22)
(-0.00011613795 8.7320117e-06 8.9163351e-22)
(-0.00011921167 9.3641676e-06 -2.7320586e-23)
(-0.00015170202 1.8685451e-05 -7.8079629e-22)
(-0.00016662771 2.546485e-05 1.7013641e-26)
(-0.00014741575 2.0795844e-05 -2.527623e-23)
(-0.00014036929 1.9797712e-05 -2.2040519e-39)
(-0.00013302901 1.8377813e-05 1.737396e-21)
(-0.00012439281 1.6486615e-05 -2.7401167e-23)
(-0.00011788209 1.5096922e-05 -1.7827805e-21)
(-0.00013912639 2.1148321e-05 -1.2942375e-23)
(-0.00016133498 2.9786833e-05 1.262832e-23)
(-0.00014944306 2.7484216e-05 -3.1166672e-38)
(-0.00014030207 2.5569932e-05 0)
(-0.00013334067 2.4147657e-05 2.2040519e-39)
(-0.00012722612 2.2781712e-05 -1.7515148e-21)
(-0.00012009668 2.1093048e-05 2.0066056e-38)
(-0.00011785882 2.0761269e-05 -1.7799637e-21)
(-0.00013682796 2.6878561e-05 1.6814435e-21)
(-0.00014840902 3.2337701e-05 1.6540627e-21)
(-0.00013335251 2.8181833e-05 7.3468397e-40)
(-0.00012789021 2.714225e-05 4.9261737e-27)
(-0.00012172421 2.5664572e-05 1.8027535e-21)
(-0.00011632344 2.4281867e-05 1.8292454e-21)
(-0.00010977029 2.2668572e-05 -1.4636074e-23)
(-0.00010942404 2.3100174e-05 -1.8654267e-21)
(-0.00013148057 3.0283583e-05 1.7207679e-21)
(-0.00014379474 3.6237608e-05 0)
(-0.00012780088 3.1532855e-05 1.7204287e-21)
(-0.00012258877 3.0449037e-05 1.3982785e-23)
(-0.0001165066 2.8863935e-05 4.1485293e-27)
(-0.00011164914 2.752304e-05 1.4627823e-23)
(-0.0001061949 2.6096983e-05 1.8992205e-21)
(-0.00010434358 2.618883e-05 0)
(-0.000118084 3.089637e-05 -1.402362e-23)
(-0.00013059151 3.6278282e-05 1.3899554e-23)
(-0.00012234099 3.4276615e-05 -1.7741606e-21)
(-0.00011560996 3.2463729e-05 -1.4380749e-23)
(-0.00011041232 3.1054153e-05 1.4736665e-23)
(-0.00010595762 2.97607e-05 1.911603e-21)
(-0.00010180871 2.8476799e-05 -1.9101783e-38)
(-9.7977874e-05 2.7580461e-05 9.3137083e-45)
(-9.9424382e-05 2.8790569e-05 6.5973132e-40)
(-0.00011219702 3.3355524e-05 5.8774718e-39)
(-0.00011774718 3.6368541e-05 -1.8714282e-21)
(-0.00010734035 3.3001291e-05 -3.078163e-27)
(-0.00010351174 3.1988528e-05 -2.914019e-27)
(-9.8936034e-05 3.0597008e-05 3.1247143e-23)
(-9.5289309e-05 2.9453455e-05 -3.1903777e-23)
(-9.1827469e-05 2.8300381e-05 1.6269786e-23)
(-8.8849962e-05 2.7591079e-05 -4.2316962e-21)
(-9.1408736e-05 2.944524e-05 2.0542241e-21)
(-0.00010600935 3.4577177e-05 6.2448137e-39)
(-0.00011278126 3.838391e-05 1.9059934e-21)
(-0.00010191863 3.4660545e-05 0)
(-9.8575962e-05 3.37391e-05 4.0380043e-21)
(-9.4381772e-05 3.2380926e-05 -1.1754944e-38)
(-9.1258813e-05 3.135285e-05 1.4693679e-39)
(-8.838526e-05 3.0383255e-05 -1.0698968e-21)
(-8.6086155e-05 2.9707869e-05 1.0862355e-21)
(-8.5862058e-05 3.0104093e-05 -2.9387359e-39)
(-9.1175624e-05 3.2346314e-05 8.1223246e-24)
(-9.7133003e-05 3.5063025e-05 1.0225412e-21)
(-9.4669848e-05 3.4570117e-05 1.0354294e-21)
(-9.004348e-05 3.2989142e-05 -2.9387359e-39)
(-8.7171355e-05 3.2030851e-05 -1.0827979e-21)
(-8.4385748e-05 3.1070049e-05 -3.6734198e-38)
(-8.2016584e-05 3.0246546e-05 -5.8774718e-39)
(-7.9995519e-05 2.9540881e-05 1.1374314e-21)
(-7.8543537e-05 2.9134369e-05 -8.9832643e-24)
(-7.8823829e-05 2.9674508e-05 1.1555009e-21)
(-8.2962313e-05 3.1592289e-05 -1.7210176e-23)
(-8.7499813e-05 3.3610636e-05 8.5450291e-24)
(-8.5685384e-05 3.3175935e-05 -4.2952832e-24)
(-8.1821661e-05 3.1794965e-05 1.1344243e-21)
(-7.9396602e-05 3.0936972e-05 5.8782537e-28)
(-7.6964176e-05 3.0050868e-05 -4.5643626e-24)
(-7.48663e-05 2.9288772e-05 -1.1877606e-21)
(-7.3155701e-05 2.8658096e-05 2.412179e-21)
(-7.2055894e-05 2.8270177e-05 5.8774718e-39)
(-7.1792433e-05 2.8506343e-05 -1.1754944e-38)
(-7.451779e-05 3.0447828e-05 2.3396861e-21)
(-8.24745e-05 3.3783182e-05 4.3071201e-24)
(-8.7013539e-05 3.6012437e-05 1.1016016e-21)
(-8.1427204e-05 3.3933928e-05 4.4288558e-24)
(-7.9176558e-05 3.3137062e-05 -1.1754944e-38)
(-7.6611409e-05 3.2175729e-05 -1.1818669e-21)
(-7.467508e-05 3.1438688e-05 2.0652224e-28)
(-7.2883579e-05 3.0762162e-05 -2.3855303e-24)
(-7.1404717e-05 3.0217669e-05 -4.5917748e-41)
(-7.0264876e-05 2.9824918e-05 1.8263784e-38)
(-6.959318e-05 2.9689142e-05 0)
(-6.9874292e-05 3.0113353e-05 1.7038993e-27)
(-7.1902972e-05 3.1256044e-05 -2.9460899e-41)
(-7.4282138e-05 3.2346464e-05 2.9387359e-39)
(-7.348787e-05 3.2039923e-05 -6.1094617e-22)
(-7.0964304e-05 3.1051217e-05 6.216318e-22)
(-6.946113e-05 3.046178e-05 1.2354337e-24)
(-6.7887165e-05 2.9834347e-05 6.4299583e-22)
(-6.6550106e-05 2.9301842e-05 -1.2696911e-24)
(-6.5334114e-05 2.8831099e-05 -6.5842418e-22)
(-6.435986e-05 2.8477097e-05 -3.0012928e-29)
(-6.3744188e-05 2.8272346e-05 -1.3389549e-21)
(-6.3550833e-05 2.829716e-05 6.6895731e-22)
(-6.3916941e-05 2.8775604e-05 -2.9387359e-39)
(-6.5731066e-05 3.0028315e-05 -1.5419445e-25)
(-6.9123981e-05 3.1556625e-05 1.5340296e-25)
(-7.0521019e-05 3.209166e-05 0)
(-6.7161554e-05 3.0778079e-05 6.4760191e-22)
(-6.5978687e-05 3.0302458e-05 -6.5922487e-22)
(-6.4307802e-05 2.961853e-05 3.2683869e-25)
(-6.3052362e-05 2.9097866e-05 -1.4349296e-42)
(-6.1841129e-05 2.8601148e-05 6.7152345e-25)
(-6.081666e-05 2.8192246e-05 2.6048391e-29)
(-5.9976841e-05 2.7876712e-05 -6.8607768e-25)
(-5.9425084e-05 2.7686146e-05 7.077856e-22)
(-5.920228e-05 2.7681377e-05 -7.0827926e-22)
(-5.9343691e-05 2.7934377e-05 1.4093433e-21)
(-6.0076778e-05 2.8622529e-05 -1.3557441e-24)
(-6.1905837e-05 2.9794199e-05 1.3264717e-24)
(-6.422841e-05 3.0830506e-05 -3.3606816e-22)
(-6.4439202e-05 3.0791852e-05 0)
(-6.180994e-05 2.973882e-05 6.890366e-22)
(-6.0545554e-05 2.9201132e-05 1.3732609e-24)
(-5.8996835e-05 2.8533923e-05 -3.5903661e-22)
(-5.775101e-05 2.7984848e-05 1.4187923e-24)
(-5.6542159e-05 2.7451791e-05 3.6849247e-22)
(-5.5460323e-05 2.697534e-05 -3.7506692e-22)
(-5.4483148e-05 2.6543986e-05 1.4779557e-24)
(-5.3642156e-05 2.6163696e-05 1.4944422e-24)
(-5.293947e-05 2.586329e-05 -1.5089482e-24)
(-5.2418426e-05 2.5671441e-05 1.6645184e-40)
(-5.2104717e-05 2.5609127e-05 5.6051939e-45)
(-5.2015079e-05 2.5715311e-05 -3.6617488e-28)
(-5.2266637e-05 2.605102e-05 -3.8916029e-22)
(-5.3023336e-05 2.6554761e-05 1.4974345e-24)
(-5.3871423e-05 2.685092e-05 3.832836e-22)
(-5.3542581e-05 2.6567825e-05 2.9387359e-39)
(-5.2146948e-05 2.6002331e-05 -1.5309594e-24)
(-5.143206e-05 2.5718862e-05 -3.952521e-22)
(-5.0744473e-05 2.5468892e-05 1.9875877e-22)
(-5.0374279e-05 2.5386308e-05 3.1497549e-24)
(-5.0236453e-05 2.544251e-05 -3.14802e-24)
(-5.0386239e-05 2.5664022e-05 1.5650283e-24)
(-5.0846161e-05 2.6075459e-05 0)
(-5.1657235e-05 2.6707215e-05 3.9077014e-22)
(-5.2852702e-05 2.7591589e-05 -3.822527e-22)
(-5.4471422e-05 2.8768637e-05 1.8547159e-22)
(-5.657783e-05 3.0277091e-05 -1.799063e-22)
(-5.9214703e-05 3.2113232e-05 6.724351e-25)
(-6.2271902e-05 3.425966e-05 1.6449225e-22)
(-6.5770059e-05 3.6843789e-05 3.1257614e-22)
(-7.0489785e-05 3.9799172e-05 2.8992498e-25)
(-7.6116019e-05 4.1930457e-05 -1.0115383e-26)
(-7.7911636e-05 4.3294137e-05 -1.3398289e-22)
(-7.8854552e-05 4.9138411e-05 6.164775e-26)
(-3.8917274e-05 -3.9839686e-06 -1.4693679e-39)
(-3.5873087e-05 -3.3351223e-06 -3.0683119e-24)
(-3.6857278e-05 -3.2013816e-06 3.072327e-24)
(-3.5283798e-05 -2.5119759e-06 -6.3007748e-21)
(-3.3564352e-05 -2.0539317e-06 1.0212107e-37)
(-3.2598021e-05 -1.6921335e-06 -3.087407e-24)
(-3.0820494e-05 -1.2787529e-06 -6.3294504e-21)
(-2.969152e-05 -1.1323749e-06 3.1678216e-21)
(-2.9557271e-05 -1.1008065e-06 3.1763618e-21)
(-2.9199999e-05 -1.0469955e-06 -3.174972e-21)
(-2.8871064e-05 -1.008597e-06 -3.1021911e-24)
(-2.8659373e-05 -9.9190157e-07 -3.177841e-21)
(-2.8664341e-05 -1.0058458e-06 1.5519977e-24)
(-2.8784321e-05 -1.0075427e-06 3.180558e-21)
(-2.8773711e-05 -9.7575716e-07 3.1793433e-21)
(-2.8812015e-05 -9.3129953e-07 -6.359461e-21)
(-2.8526176e-05 -8.1027596e-07 -4.155044e-30)
(-2.8036529e-05 -7.01443e-07 -3.1814985e-21)
(-2.7826445e-05 -6.2530479e-07 3.1824476e-21)
(-2.7614237e-05 -5.4112252e-07 -3.1831841e-21)
(-2.7187989e-05 -4.4184817e-07 -1.59206e-21)
(-2.6893088e-05 -3.885735e-07 -1.5925614e-21)
(-2.6856432e-05 -3.3939804e-07 3.1864431e-21)
(-2.657701e-05 -2.6231295e-07 -1.5557787e-24)
(-2.6326986e-05 -2.1859101e-07 -7.9557742e-22)
(-2.6418832e-05 -1.7955127e-07 -7.9721289e-22)
(-2.6101755e-05 -8.0417272e-08 3.9845809e-22)
(-2.5657104e-05 -1.6005315e-08 -9.9644762e-23)
(-2.5608473e-05 3.8745854e-08 -8.6095778e-42)
(-2.5186476e-05 1.2713496e-07 7.9744212e-22)
(-2.4812423e-05 1.6546086e-07 -1.595369e-21)
(-2.4855038e-05 2.0197798e-07 -7.9777814e-22)
(-2.4618896e-05 2.6614461e-07 -1.595713e-21)
(-2.4276864e-05 3.1311899e-07 2.3532846e-39)
(-2.4241244e-05 3.6127332e-07 -1.1479437e-41)
(-2.3787488e-05 4.4907986e-07 1.5957328e-21)
(-2.3255383e-05 4.8800416e-07 -3.1941359e-21)
(-2.3134174e-05 5.3070669e-07 3.1955362e-21)
(-2.2786328e-05 5.7930454e-07 -3.1952995e-21)
(-2.2436964e-05 6.0834361e-07 -3.1960759e-21)
(-2.2302857e-05 6.4337728e-07 -2.4675162e-37)
(-2.1974094e-05 6.9783046e-07 -3.1955254e-21)
(-2.1410122e-05 7.448936e-07 -3.1980201e-21)
(-2.0920213e-05 7.8289097e-07 -3.2006448e-21)
(-2.0436714e-05 8.3337343e-07 1.5626335e-24)
(-1.9488957e-05 8.7744447e-07 -3.1265127e-24)
(-1.8498813e-05 8.7717487e-07 -1.281281e-20)
(-1.7664937e-05 8.7302809e-07 -6.4109754e-21)
(-1.6659446e-05 8.2444059e-07 3.5873241e-42)
(-1.596276e-05 7.4760056e-07 -6.4223418e-21)
(-1.5469653e-05 6.6091991e-07 -2.7387073e-28)
(-1.5047971e-05 5.5469636e-07 3.2157087e-21)
(-1.46026e-05 4.1989108e-07 -3.213833e-21)
(-1.4777905e-05 2.4524481e-07 -3.2142879e-21)
(-1.5301613e-05 8.1493436e-08 3.1390211e-24)
(-1.5600911e-05 -1.2745559e-07 -6.2777725e-24)
(-1.6213472e-05 -3.6613803e-07 3.1382992e-24)
(-1.7142276e-05 -6.3942334e-07 3.2095402e-21)
(-1.824448e-05 -9.6480447e-07 3.1362391e-24)
(-1.95236e-05 -1.3309484e-06 -6.4232038e-21)
(-2.0918106e-05 -1.737919e-06 3.1332738e-24)
(-2.2650226e-05 -2.198255e-06 -1.2828787e-20)
(-2.4340527e-05 -2.7150432e-06 3.1290195e-24)
(-2.7287723e-05 -3.3743872e-06 1.2796377e-20)
(-2.9603328e-05 -4.1495137e-06 -1.2780447e-20)
(-3.7213223e-05 -5.1337176e-06 6.2343906e-24)
(-3.1269789e-05 -5.3133271e-06 1.2718869e-20)
(-6.8502803e-05 -1.1092664e-05 -5.6791071e-37)
(-5.5886472e-05 6.3654372e-06 6.0614404e-21)
(-0.00012164917 -8.8917541e-05 -9.1712504e-22)
(-9.0038717e-05 -5.7297112e-05 3.3731482e-23)
(-9.0940752e-05 -5.4818003e-05 -6.6526799e-27)
(-0.00010505021 -6.1453846e-05 -3.6267748e-21)
(-0.00016253476 -0.00010208698 1.5270781e-21)
(-0.00013645339 -6.4892887e-05 -1.4914201e-21)
(-1.5661427e-05 3.2165324e-06 0)
(-1.3652887e-05 1.2423798e-06 4.5499528e-21)
(-1.9168344e-05 -3.3593583e-06 3.0048574e-37)
(1.0133476e-05 6.101705e-06 3.7632722e-21)
(2.3880311e-06 4.3127257e-06 1.9174189e-26)
(-1.1654704e-05 5.0576057e-07 1.2399635e-26)
(-1.9990444e-05 -1.3897103e-06 -2.0216679e-23)
(-3.0116007e-05 -3.9651235e-06 -4.6308202e-21)
(-3.6260781e-05 -5.2597548e-06 -4.2178125e-21)
(-3.6738678e-05 -5.0134842e-06 -3.8717747e-21)
(-3.7160622e-05 -5.1151434e-06 -1.3992867e-23)
(-4.2202844e-05 -6.2247264e-06 -6.4566142e-24)
(-3.9960155e-05 -4.8919172e-06 -6.0133349e-21)
(-3.6568552e-05 -4.3375038e-06 5.532933e-24)
(-4.0650523e-05 -5.1570134e-06 5.3751741e-21)
(-3.3202713e-06 -2.5033719e-05 5.1854454e-22)
(-3.9156071e-06 -2.8071229e-05 5.5101298e-40)
(-5.4533511e-06 -3.6644537e-05 9.6780526e-22)
(-7.9200986e-06 -4.8132892e-05 -9.1794749e-22)
(-1.1407248e-05 -5.0103698e-05 -8.8366351e-22)
(-1.2010355e-05 -5.1812011e-05 8.4966107e-22)
(-1.4821538e-05 -6.1767999e-05 -7.3468397e-40)
(-1.7901046e-05 -7.1872497e-05 2.3016082e-23)
(-2.5141506e-05 -0.00010051633 -6.7667523e-22)
(-3.6025572e-05 -0.00010270208 -4.0626051e-23)
(-3.4470618e-05 -7.8036753e-05 3.4153222e-27)
(-3.4738623e-05 -7.2452865e-05 -1.4024849e-21)
(-4.1276563e-05 -8.4248014e-05 1.3366685e-21)
(-5.0941927e-05 -0.00010201043 1.2206957e-21)
(-5.3752396e-05 -9.7262936e-05 0)
(-5.2716297e-05 -9.0939143e-05 2.386046e-21)
(-6.1891406e-05 -0.00010391578 -1.316465e-26)
(-7.1743413e-05 -0.00011626646 3.036459e-23)
(-0.00010334285 -0.00017235843 -3.390089e-21)
(-0.00010386984 -0.00013404242 -2.6702034e-23)
(-6.5715564e-05 -6.8280822e-05 4.5514838e-21)
(-7.0040123e-05 -6.9432078e-05 -1.1754944e-38)
(-8.6989967e-05 -8.6642858e-05 0)
(-0.00011506691 -0.00011739399 0)
(-0.00010282751 -9.2958458e-05 -2.8967219e-23)
(-7.2960748e-05 -5.6602724e-05 3.5875384e-23)
(-8.0080807e-05 -6.0300633e-05 2.2018707e-21)
(-9.3692222e-05 -6.9742554e-05 -1.9052957e-21)
(-0.00012837986 -0.00010056512 0)
(-2.2211608e-07 -1.822482e-05 3.3159898e-23)
(-2.1186059e-07 -5.0981481e-06 -6.1768948e-22)
(-5.2107467e-07 8.4945637e-07 3.6734198e-40)
(-9.4797371e-07 8.3573635e-06 -7.3468397e-40)
(-2.5225159e-06 1.4108462e-05 -1.0940747e-21)
(-3.5978005e-06 1.9349051e-05 -1.0100742e-21)
(-4.7277674e-06 2.4709106e-05 -9.1680658e-22)
(-6.0955979e-06 3.1230821e-05 -7.3468397e-40)
(-8.4516254e-06 3.7673452e-05 -6.7351872e-22)
(-9.7014535e-06 5.3502666e-05 3.8414516e-27)
(-1.5487362e-05 5.6412916e-05 1.2301479e-21)
(-1.8365934e-05 4.9686342e-05 3.2326095e-38)
(-2.0275032e-05 4.9915785e-05 1.9401677e-23)
(-2.2784644e-05 5.4905401e-05 -1.764822e-23)
(-2.5709615e-05 6.0071371e-05 5.1457434e-22)
(-2.8965331e-05 7.1195496e-05 -4.7488652e-22)
(-3.2590013e-05 7.4796536e-05 -9.0876905e-22)
(-3.4215142e-05 6.947565e-05 -4.7722916e-22)
(-3.5878329e-05 6.8176449e-05 -4.5461131e-22)
(-3.866886e-05 7.1421401e-05 -4.0796601e-22)
(-4.2360959e-05 7.6702099e-05 3.7098145e-22)
(-4.7050032e-05 8.4582429e-05 -1.0761892e-23)
(-5.3200304e-05 9.1996621e-05 -5.8732145e-22)
(-6.069974e-05 0.00011698148 2.7630661e-22)
(-6.5940835e-05 0.00011975872 -9.9993286e-24)
(-5.8828837e-05 7.7437745e-05 1.3445043e-23)
(-5.3251715e-05 6.0761603e-05 -5.1073483e-22)
(-5.286666e-05 5.8390678e-05 -8.5620131e-24)
(-5.6664546e-05 5.976042e-05 5.2550539e-22)
(-6.185266e-05 6.4478213e-05 -5.8774718e-39)
(-6.8014982e-05 7.1096988e-05 0)
(-7.5563358e-05 8.2635923e-05 -2.9387359e-39)
(-8.0776105e-05 9.5798116e-05 3.9878433e-22)
(-7.3985752e-05 8.2723331e-05 7.414977e-24)
(-6.1315389e-05 5.472375e-05 -6.1588449e-22)
(-5.4977462e-05 4.4079621e-05 7.2543365e-22)
(-5.3345083e-05 4.0924576e-05 7.8198709e-22)
(-5.5251568e-05 4.0574017e-05 7.5902554e-22)
(-5.902849e-05 4.3249361e-05 2.2613166e-23)
(-6.3179895e-05 4.7652759e-05 3.2538046e-22)
(-6.747739e-05 5.2717685e-05 6.2242027e-22)
(-7.257529e-05 5.7789547e-05 0)
(-7.8986509e-05 6.4999449e-05 -8.2644933e-24)
(-8.3926426e-05 7.7381358e-05 -2.6823212e-22)
(-7.6221323e-05 6.9731033e-05 6.5645177e-22)
(-5.8675279e-05 4.2428122e-05 -1.3469303e-23)
(-4.9224565e-05 3.0181066e-05 -5.3065802e-22)
(-4.4735378e-05 2.4382081e-05 6.4520336e-22)
(-4.3244416e-05 2.1020226e-05 -6.7910249e-22)
(-4.3028681e-05 2.0133535e-05 2.1132891e-23)
(-4.3551089e-05 2.0749906e-05 1.302982e-21)
(-4.4177599e-05 2.2049346e-05 6.4260167e-22)
(-4.5378819e-05 2.3588766e-05 1.2399076e-21)
(-4.7216224e-05 2.5417264e-05 -1.8617173e-23)
(-4.9584434e-05 2.7519201e-05 1.7828656e-23)
(-5.2417063e-05 2.9598952e-05 2.7253993e-22)
(-5.5929739e-05 3.2410357e-05 1.6100006e-23)
(-5.780248e-05 3.6697006e-05 -1.5675395e-23)
(-6.5169514e-05 2.3110642e-05 2.2121255e-22)
)
;
    }
    Outlet
    {
        type            calculated;
        value           uniform (0 0 0);
    }
}


// ************************************************************************* //
