/*--------------------------------*- C++ -*----------------------------------*\
| =========                 |                                                 |
| \\      /  F ield         | OpenFOAM: The Open Source CFD Toolbox           |
|  \\    /   O peration     | Version:  v2006                                 |
|   \\  /    A nd           | Website:  www.openfoam.com                      |
|    \\/     M anipulation  |                                                 |
\*---------------------------------------------------------------------------*/
FoamFile
{
    version     2.0;
    format      ascii;
    class       volScalarField;
    location    "3000";
    object      yPlus;
}
// * * * * * * * * * * * * * * * * * * * * * * * * * * * * * * * * * * * * * //

dimensions      [0 0 0 0 0 0 0];


internalField   uniform 0;

boundaryField
{
    Side
    {
        type            empty;
    }
    Ground
    {
        type            calculated;
        value           nonuniform List<scalar> 
519
(
1.2211003
1.2276286
1.2351292
1.2449896
1.2572217
1.2720739
1.2884174
1.3062733
1.3319318
1.3616399
1.3643718
1.3987535
1.6037699
1.5751172
1.7231196
1.6695877
1.6206007
1.5728019
1.526967
1.4831326
1.4413464
1.4017851
1.3645788
1.330025
1.2985682
1.2705627
1.2463671
1.2281213
1.7529656
1.7581803
1.7623863
1.7662638
1.769675
1.772666
1.775079
1.776764
1.7776083
1.7775242
1.776402
1.7741251
1.7705374
1.7654454
1.7586028
1.7497152
1.7384199
1.7242927
1.7068388
1.6854936
1.6596345
1.628536
1.5915645
1.5478923
1.49634
1.4364103
1.3665972
1.2853442
1.192681
1.085917
0.9604736
0.80747913
0.60724003
0.31555389
0.36976022
0.63204666
0.8076424
0.9608281
1.0849116
1.1843259
1.2565127
1.3218169
1.3811969
1.4346703
1.4826025
1.5247458
1.5630473
1.5974243
1.6282889
1.6557677
1.6799483
1.7009948
1.7193824
1.7356153
1.750052
1.7629449
1.7745383
1.7848563
1.7938766
1.8019507
1.8093925
1.8162224
1.8224467
1.8281336
1.8333466
1.8381257
1.8425098
1.8465372
1.8502471
1.8536697
1.8568583
1.8598123
1.8625961
1.8650502
1.8083478
1.7688524
1.7434443
1.7288021
1.7127143
1.6989922
1.6869249
1.6768159
1.6679274
1.6601315
1.6532483
1.6473691
1.6422781
1.6378091
1.6338601
1.6302346
1.6269257
1.623811
1.6208737
1.6180266
1.6153228
1.6126532
1.6100853
1.6073982
1.6047005
1.6017643
1.598543
1.5950472
1.5911428
1.5869556
1.5822933
1.5772049
1.5717977
1.5659981
1.5599349
1.5533434
1.5460789
1.5384569
1.5302604
1.5214687
1.512408
1.5027518
1.4922688
1.4811773
1.4693095
1.456322
1.442189
1.4273164
1.411597
1.3953101
1.3783678
1.3598988
1.3393724
1.3171272
1.2940446
1.2713222
1.2493338
1.2280706
1.2075947
1.1863161
1.1631632
1.1370854
1.1072032
1.0749998
1.0419684
1.0102977
0.98046729
0.95274493
0.92660781
0.90109726
0.87441467
0.84445626
0.80875582
0.76012528
0.70970989
0.65614576
0.60636582
0.55806273
0.5140986
0.4761731
0.44391608
0.4154943
0.39171144
0.37728636
0.3810072
0.4071857
0.44875744
0.49415154
0.53644558
0.57282118
0.6031486
0.62846795
0.65047108
0.67146997
0.69336357
0.71732791
0.74307984
0.76956024
0.79559177
0.82010684
0.84233938
0.8613003
0.87708389
0.89071142
0.90371642
0.9176312
0.93293623
0.94979886
0.96795823
0.98675193
1.0055487
1.0232778
1.0391822
1.0533611
1.0664181
1.0797515
1.0943797
1.1104621
1.1279794
1.1460458
1.1638079
1.1804744
1.1957116
1.2103228
1.2255179
1.2421438
1.2602376
1.2788669
1.2967311
1.3135443
1.3298134
1.346575
1.3644231
1.3829093
1.4011739
1.4188636
1.436102
1.4535178
1.4714227
1.4893254
1.5068589
1.5239578
1.5405818
1.5570337
1.5734807
1.5894058
1.6043938
1.6184992
1.6322161
1.6461828
1.6602522
1.6738301
1.686701
1.6989548
1.7105939
1.7216072
1.7319097
1.741459
1.7503075
1.7586141
1.7663739
1.7734507
1.7798546
1.7857108
1.7909046
1.7956243
1.7998425
1.8033025
1.8060945
1.8091724
1.8125859
1.8152953
1.8177237
1.8195208
1.8205859
1.8216671
1.8239184
1.8265332
1.8286138
1.8304697
1.8317583
1.8324023
1.8335114
1.8361677
1.839037
1.8413973
1.8434117
1.8449272
1.8459531
1.8473485
1.8499965
1.852856
1.8551938
1.8572307
1.8589206
1.8603098
1.8618477
1.8648005
1.8686286
1.8717239
1.8747245
1.8775199
1.8800568
1.8821671
1.8849188
1.8887952
1.8924438
1.8960453
1.8993941
1.9024369
1.9051961
1.90776
1.9110408
1.9150185
1.9184009
1.9216208
1.9245909
1.9274169
1.9299954
1.9323482
1.9354055
1.939245
1.942589
1.9458211
1.948783
1.9515775
1.9541653
1.9565187
1.9592033
1.9624989
1.9656107
1.9685393
1.971264
1.9737954
1.976137
1.9782473
1.9801909
1.9825563
1.9853287
1.9877574
1.9900655
1.9921762
1.9941283
1.9959329
1.9975704
1.9990559
2.0009188
2.0032125
2.0052142
2.0071241
2.008807
2.0102973
2.0116309
2.0128253
2.0138697
2.0149397
2.0162123
2.0174521
2.0185326
2.0194866
2.0203005
2.0209814
2.021541
2.0219788
2.0222895
2.0226015
2.0230445
2.0234473
2.0237122
2.0238681
2.0239074
2.0238298
2.023638
2.023347
2.0229458
2.0224167
2.0219989
2.0218239
2.0215521
2.021192
2.0207157
2.0201483
2.0194823
2.0187205
2.0178703
2.0169397
2.0159173
2.0148597
2.0138426
2.0127886
2.0116334
2.0103984
2.0090807
2.0076894
2.0062199
2.0046804
2.0030748
2.0014063
1.9996769
1.9978918
1.9961476
1.9944563
1.9926651
1.9908246
1.9889228
1.9869703
1.9849636
1.9829097
1.9808081
1.9786481
1.9764136
1.9741166
1.9717655
1.9693837
1.9670351
1.9647045
1.9623141
1.9598797
1.957395
1.9548683
1.9522955
1.9496789
1.9470225
1.9443266
1.9415897
1.9388163
1.9360092
1.9331654
1.9302874
1.9273913
1.9245004
1.9215986
1.9186555
1.9156791
1.912668
1.9096251
1.9065509
1.9034469
1.900314
1.8971538
1.8939668
1.8907556
1.8875227
1.8842707
1.8810003
1.877719
1.8744411
1.8711515
1.8678381
1.0052394
1.0383593
1.068589
1.0947129
1.1156259
1.1299623
1.1352014
1.1262332
1.0966114
1.045023
0.98654307
0.95370474
0.96001619
0.98589682
1.017294
1.053926
1.0961118
1.142026
1.1887051
1.2345265
1.2793762
1.3249039
1.3737159
1.425603
1.4781356
1.530868
1.5864278
1.6452872
1.7053626
1.7641033
1.8183989
1.8653605
1.9021995
1.9272545
1.9398905
1.9406102
1.9312608
1.9145901
1.8944856
1.8739349
1.8552898
1.8434826
1.8350666
1.8206495
0.9707116
0.93825748
0.91044313
0.88712623
0.86813153
0.85280834
0.840406
0.83006275
0.82106199
0.81288
0.80517504
0.79782165
0.7906525
0.78361922
0.77674878
0.76994197
0.76340564
0.75674495
0.75077415
0.74383089
0.73914678
0.73065442
0.72986973
0.72035023
)
;
    }
    Inlet
    {
        type            calculated;
        value           uniform 0;
    }
    Airfoil
    {
        type            calculated;
        value           nonuniform List<scalar> 
527
(
1.4576796
1.6665424
1.7365408
1.5268778
1.5145457
1.4274492
1.3709676
1.3253777
1.3040396
1.2880394
1.275363
1.2590579
1.2450464
1.2285286
1.2121861
1.1969107
1.1803541
1.1658641
1.1500758
1.136254
1.1213834
1.1079264
1.0929429
1.0792534
1.0643781
1.0497604
1.0354973
1.0203188
1.0062403
0.99126194
0.97627719
0.96174838
0.94695021
0.93155251
0.91752158
0.90178801
0.88544074
0.87261469
0.85478895
0.83693808
0.82360884
0.80461844
0.78423693
0.76847887
0.74825328
0.72426618
0.69917235
0.68348693
0.65117403
0.61437927
0.6016005
0.56258236
0.5142768
0.47017848
0.45980426
0.38460311
0.31286651
0.31288065
0.316533
0.36620389
0.43577658
0.4577932
0.50263066
0.56773094
0.61853346
0.6395941
0.67513301
0.73462204
0.78003806
0.79629296
0.82097586
0.88381228
0.93901522
0.9466209
0.95495865
1.0147857
1.0866782
1.0859517
1.0949121
1.1249222
1.1840701
1.2103744
1.2125641
1.2158131
1.2593712
1.311864
1.306509
1.3116555
1.3265684
1.3715274
1.4027258
1.4001043
1.4011039
1.4261019
1.478716
1.4981692
1.4943293
1.4917778
1.5215708
1.5800846
1.5933122
1.5878814
1.5838088
1.609246
1.6652418
1.6812487
1.6744405
1.6700537
1.6847948
1.7341781
1.7623939
1.7537082
1.7497718
1.7495671
1.7891625
1.8361909
1.8243456
1.8221023
1.8182146
1.8385356
1.8801806
1.8883282
1.8848799
1.8824079
1.8826784
1.9121317
1.9488842
1.9408976
1.940044
1.9361193
1.9483167
1.993779
2.0239025
2.014785
2.0104042
2.0022976
2.0272802
2.0953165
2.1210633
2.1079156
2.1000016
2.0885721
2.1156071
2.1908222
2.2165347
2.200501
2.1934973
2.1848659
2.1954643
2.240397
2.2658182
2.2538548
2.2510058
2.2480465
2.248164
2.2617979
2.2770636
2.2731176
2.2733671
2.2692251
2.2625612
2.2916696
2.3465554
2.3467459
2.3360056
2.3240182
2.2955544
2.2990046
2.472424
2.6359157
2.5528214
2.5250751
2.4816155
2.4236215
2.5095091
2.8233631
2.9646165
2.835329
2.7881055
2.7145641
2.6224306
2.7768533
3.1517425
3.2165169
3.0966409
3.0363141
2.9581782
2.8687579
2.9824863
3.2947369
3.3584038
3.2333536
3.16848
3.0868634
2.9754217
3.021884
3.4436446
3.6814458
3.4695469
3.3962647
3.315407
3.2141715
3.1375296
3.424164
3.7472669
3.6274691
3.5268454
3.4500444
3.3810548
3.2951852
3.2758943
3.5494616
3.739518
3.5548956
3.4949391
3.4216725
3.3562878
3.2713428
3.2796412
3.6160735
3.8172298
3.609705
3.5501812
3.4740841
3.4133608
3.3412302
3.3264963
3.5565527
3.7618887
3.6552278
3.5675808
3.5003961
3.4421355
3.3864518
3.3355687
3.3762857
3.6030674
3.7018196
3.5468167
3.4973668
3.4323289
3.3810256
3.330922
3.2897983
3.3544549
3.6268811
3.7415946
3.5693629
3.5249555
3.4625207
3.4175835
3.3757154
3.3442939
3.354692
3.4715928
3.5880308
3.5472198
3.4722356
3.4291679
3.3861817
3.3501669
3.3201909
3.3019988
3.3219493
3.4218851
3.5156956
3.4812264
3.4136524
3.3743729
3.3335553
3.2987657
3.2714384
3.2573251
3.2644
3.342438
3.5281851
3.60259
3.4932143
3.4562674
3.4112678
3.3787726
3.3487072
3.3250796
3.3088912
3.3039495
3.3227748
3.3826206
3.4382937
3.4176664
3.3686171
3.3426113
3.3142174
3.2908463
3.2700059
3.2548253
3.2483304
3.253001
3.2739331
3.3324227
3.4248236
3.438653
3.3656515
3.3446833
3.3111662
3.287271
3.2640801
3.2453363
3.2312038
3.2244964
3.2270101
3.2404164
3.2714413
3.3313341
3.3924808
3.3794877
3.3187165
3.2923899
3.2580747
3.2310202
3.2044701
3.180911
3.1598119
3.142116
3.1283563
3.1199901
3.118034
3.1234286
3.1395791
3.169761
3.1916916
3.1724117
3.1378335
3.1228684
3.1089667
3.1046279
3.1076744
3.1198098
3.141937
3.1753356
3.2209979
3.2799348
3.3534901
3.441897
3.5416955
3.6528603
3.788641
3.9337081
3.9970938
4.060518
1.8268941
1.7458668
1.7612568
1.7125387
1.6627879
1.6319182
1.5806261
1.5485491
1.5429114
1.5316212
1.5213137
1.5143258
1.5133186
1.5151641
1.5133603
1.5127776
1.503237
1.4886406
1.4816981
1.4747627
1.4621591
1.4534066
1.4517135
1.4434435
1.4361835
1.4383163
1.4292651
1.4168864
1.4155104
1.4038789
1.3936344
1.3951176
1.3889086
1.3797487
1.3793526
1.3673183
1.3528295
1.3502458
1.3411948
1.3319831
1.3291728
1.3208661
1.3055085
1.2921996
1.2791837
1.251615
1.2214909
1.1956512
1.1627233
1.1388334
1.121202
1.1051989
1.0871839
1.0898974
1.1047373
1.1100296
1.1247377
1.1480075
1.1743141
1.2035519
1.233477
1.270032
1.3017103
1.3612739
1.3978399
1.5526771
1.4071521
2.0076151
2.1677867
4.2072899
3.5162633
3.4781596
3.6949678
4.6157948
3.8645244
1.1842762
1.1088713
1.3038084
0.98584461
0.59547499
0.9842683
1.2998869
1.6065516
1.7662887
1.7747645
1.7899952
1.9142017
1.8527459
1.7770522
1.8805687
1.5020119
1.5854081
1.809225
2.0866019
2.1739522
2.2080499
2.411193
2.6014685
3.0799475
3.2422238
2.8916189
2.8098879
3.0447264
3.373467
3.353156
3.2735068
3.5267979
3.7640304
4.5965226
4.2280217
3.1826832
3.2682767
3.6803999
4.2974844
3.9150588
3.2327885
3.4050158
3.7192877
4.4563657
1.2345534
0.69636027
0.30647365
0.98875412
1.318744
1.6155304
1.903308
2.223845
2.5338182
3.116897
3.064797
2.951816
3.0549916
3.2914139
3.5328345
3.9246206
3.9056928
3.8394909
3.899032
4.0733325
4.3021421
4.595124
4.8840273
5.4998601
4.6530037
4.0100229
3.6858253
3.6782131
3.803334
4.0010561
4.2373472
4.5643425
4.5331998
3.8562432
3.3565491
3.1229795
3.071583
3.1226359
3.2455602
3.3957058
3.5546694
3.7217294
3.9280165
3.9171378
3.225672
2.7285452
2.4404262
2.3015256
2.243326
2.2361445
2.2608953
2.2959228
2.3457361
2.4106793
2.4880778
2.5715601
2.6695955
2.7739255
2.7910146
)
;
    }
    Outlet
    {
        type            calculated;
        value           uniform 0;
    }
}


// ************************************************************************* //
