# Force coefficients
# dragDir       : (1.00000000e+00 0.00000000e+00 0.00000000e+00)
# sideDir       : (0.00000000e+00 0.00000000e+00 -1.00000000e+00)
# liftDir       : (0.00000000e+00 1.00000000e+00 0.00000000e+00)
# rollAxis      : (1.00000000e+00 0.00000000e+00 0.00000000e+00)
# pitchAxis     : (0.00000000e+00 0.00000000e+00 -1.00000000e+00)
# yawAxis       : (0.00000000e+00 1.00000000e+00 0.00000000e+00)
# magUInf       : 1.03413075e-01
# lRef          : 1.00000000e+00
# Aref          : 1.00000000e+00
# CofR          : (0.00000000e+00 0.00000000e+00 0.00000000e+00)
#
# Time          	Cd              	Cs              	Cl              	CmRoll          	CmPitch         	CmYaw           	Cd(f)           	Cd(r)           	Cs(f)           	Cs(r)           	Cl(f)           	Cl(r)           
1               	3.17262545e+01	5.72221940e-19	-7.57490743e+01	3.78745372e+01	4.96989819e+01	1.58631273e+01	5.37376644e+01	-2.20114099e+01	1.58631273e+01	-1.58631273e+01	1.18244447e+01	-8.75735191e+01
2               	4.51912218e+00	5.45958060e-19	-4.05194692e+00	2.02597346e+00	5.07838018e+00	2.25956109e+00	4.28553455e+00	2.33587630e-01	2.25956109e+00	-2.25956109e+00	3.05240671e+00	-7.10435364e+00
3               	-4.28807237e+00	5.42599350e-19	7.05775631e+00	-3.52887815e+00	-2.25085237e+00	-2.14403618e+00	-5.67291434e+00	1.38484197e+00	-2.14403618e+00	2.14403618e+00	1.27802578e+00	5.77973053e+00
4               	-1.33438489e+00	5.34778738e-19	9.45419045e+00	-4.72709522e+00	-3.26990027e+00	-6.67192447e-01	-5.39428767e+00	4.05990278e+00	-6.67192447e-01	6.67192447e-01	1.45719495e+00	7.99699549e+00
5               	2.11855190e-01	5.36678896e-19	1.79142435e+00	-8.95712176e-01	-8.96247641e-01	1.05927595e-01	-7.89784581e-01	1.00163977e+00	1.05927595e-01	-1.05927595e-01	-5.35465284e-04	1.79195982e+00
6               	3.39112378e-01	5.35850834e-19	-2.10822267e+00	1.05411134e+00	4.27456815e-01	1.69556189e-01	1.22366752e+00	-8.84555147e-01	1.69556189e-01	-1.69556189e-01	-6.26654521e-01	-1.48156815e+00
7               	-1.99966042e-01	5.38088346e-19	-3.25062129e+00	1.62531064e+00	5.34555694e-01	-9.99830210e-02	1.52532762e+00	-1.72529366e+00	-9.99830210e-02	9.99830210e-02	-1.09075495e+00	-2.15986634e+00
8               	-4.51878050e-01	5.37074542e-19	-3.02068483e+00	1.51034242e+00	3.31004647e-01	-2.25939025e-01	1.28440339e+00	-1.73628144e+00	-2.25939025e-01	2.25939025e-01	-1.17933777e+00	-1.84134706e+00
9               	-3.79164937e-01	5.33182460e-19	-1.33061832e+00	6.65309159e-01	-1.20400491e-01	-1.89582469e-01	4.75726690e-01	-8.54891628e-01	-1.89582469e-01	1.89582469e-01	-7.85709650e-01	-5.44908668e-01
10              	-1.17456744e-01	5.30824746e-19	-5.34136603e-01	2.67068302e-01	-8.87549795e-02	-5.87283721e-02	2.08339929e-01	-3.25796674e-01	-5.87283721e-02	5.87283721e-02	-3.55823281e-01	-1.78313322e-01
11              	7.00353164e-02	5.30186198e-19	3.77969783e-01	-1.88984892e-01	-1.50213995e-01	3.50176582e-02	-1.53967233e-01	2.24002550e-01	3.50176582e-02	-3.50176582e-02	3.87708969e-02	3.39198886e-01
12              	2.09757566e-01	5.30634210e-19	4.84370078e-01	-2.42185039e-01	-8.44226611e-03	1.04878783e-01	-1.37306256e-01	3.47063822e-01	1.04878783e-01	-1.04878783e-01	2.33742773e-01	2.50627305e-01
13              	2.26751274e-01	5.30271691e-19	5.60702254e-01	-2.80351127e-01	1.17408543e-02	1.13375637e-01	-1.66975490e-01	3.93726764e-01	1.13375637e-01	-1.13375637e-01	2.92091981e-01	2.68610272e-01
14              	2.17132582e-01	5.29933014e-19	1.46125118e-01	-7.30625592e-02	1.43160341e-01	1.08566291e-01	3.55037319e-02	1.81628850e-01	1.08566291e-01	-1.08566291e-01	2.16222901e-01	-7.00977822e-02
15              	1.51901458e-01	5.29013568e-19	-1.47355859e-01	7.36779293e-02	1.67160113e-01	7.59507292e-02	1.49628658e-01	2.27279996e-03	7.59507292e-02	-7.59507292e-02	9.34821840e-02	-2.40838043e-01
16              	1.00703828e-01	5.28068449e-19	-5.44156556e-01	2.72078278e-01	2.27013101e-01	5.03519140e-02	3.22430192e-01	-2.21726364e-01	5.03519140e-02	-5.03519140e-02	-4.50651767e-02	-4.99091379e-01
17              	3.90814022e-02	5.26790499e-19	-6.62149205e-01	3.31074602e-01	1.86841005e-01	1.95407011e-02	3.50615303e-01	-3.11533901e-01	1.95407011e-02	-1.95407011e-02	-1.44233598e-01	-5.17915607e-01
18              	1.75856586e-02	5.25772681e-19	-8.16884900e-01	4.08442450e-01	2.03897254e-01	8.79282929e-03	4.17235279e-01	-3.99649621e-01	8.79282929e-03	-8.79282929e-03	-2.04545196e-01	-6.12339704e-01
19              	4.87911412e-05	5.24662042e-19	-7.09786120e-01	3.54893060e-01	1.51243416e-01	2.43955706e-05	3.54917455e-01	-3.54868664e-01	2.43955706e-05	-2.43955706e-05	-2.03649644e-01	-5.06136476e-01
20              	1.71094174e-02	5.23818196e-19	-7.17741315e-01	3.58870657e-01	1.74477675e-01	8.55470872e-03	3.67425366e-01	-3.50315949e-01	8.55470872e-03	-8.55470872e-03	-1.84392982e-01	-5.33348333e-01
21              	2.71152978e-02	5.22766066e-19	-5.16932355e-01	2.58466178e-01	1.31131957e-01	1.35576489e-02	2.72023827e-01	-2.44908529e-01	1.35576489e-02	-1.35576489e-02	-1.27334220e-01	-3.89598135e-01
22              	5.04699196e-02	5.21788095e-19	-5.13566175e-01	2.56783087e-01	1.63058708e-01	2.52349598e-02	2.82018047e-01	-2.31548128e-01	2.52349598e-02	-2.52349598e-02	-9.37243792e-02	-4.19841796e-01
23              	5.92428530e-02	5.20258552e-19	-3.86955364e-01	1.93477682e-01	1.41023502e-01	2.96214265e-02	2.23099108e-01	-1.63856255e-01	2.96214265e-02	-2.96214265e-02	-5.24541797e-02	-3.34501184e-01
24              	7.56276735e-02	5.19531243e-19	-3.96478896e-01	1.98239448e-01	1.66371327e-01	3.78138368e-02	2.36053285e-01	-1.60425611e-01	3.78138368e-02	-3.78138368e-02	-3.18681212e-02	-3.64610775e-01
25              	7.46345895e-02	5.18348096e-19	-3.80476925e-01	1.90238462e-01	1.64877659e-01	3.73172947e-02	2.27555757e-01	-1.52921168e-01	3.73172947e-02	-3.73172947e-02	-2.53608036e-02	-3.55116121e-01
26              	8.05968797e-02	5.17227020e-19	-4.33376635e-01	2.16688317e-01	1.91212053e-01	4.02984398e-02	2.56986757e-01	-1.76389878e-01	4.02984398e-02	-4.02984398e-02	-2.54762645e-02	-4.07900370e-01
27              	7.50765611e-02	5.16183974e-19	-4.78827887e-01	2.39413943e-01	2.00094928e-01	3.75382805e-02	2.76952224e-01	-2.01875663e-01	3.75382805e-02	-3.75382805e-02	-3.93190151e-02	-4.39508872e-01
28              	7.26151405e-02	5.15200172e-19	-5.37763180e-01	2.68881590e-01	2.15517190e-01	3.63075702e-02	3.05189160e-01	-2.32574020e-01	3.63075702e-02	-3.63075702e-02	-5.33643997e-02	-4.84398780e-01
29              	6.76662119e-02	5.14219869e-19	-5.72838382e-01	2.86419191e-01	2.20632734e-01	3.38331060e-02	3.20252297e-01	-2.52586085e-01	3.38331060e-02	-3.38331060e-02	-6.57864575e-02	-5.07051925e-01
30              	6.54706278e-02	5.13326913e-19	-6.04257464e-01	3.02128732e-01	2.28337195e-01	3.27353139e-02	3.34864046e-01	-2.69393418e-01	3.27353139e-02	-3.27353139e-02	-7.37915367e-02	-5.30465928e-01
31              	6.38205797e-02	5.12466379e-19	-6.18342651e-01	3.09171325e-01	2.32221193e-01	3.19102898e-02	3.41081615e-01	-2.77261035e-01	3.19102898e-02	-3.19102898e-02	-7.69501324e-02	-5.41392518e-01
32              	6.50585074e-02	5.11647439e-19	-6.24952205e-01	3.12476103e-01	2.37857335e-01	3.25292537e-02	3.45005356e-01	-2.79946849e-01	3.25292537e-02	-3.25292537e-02	-7.46187677e-02	-5.50333438e-01
33              	6.64357000e-02	5.10843057e-19	-6.15348963e-01	3.07674481e-01	2.38667992e-01	3.32178500e-02	3.40892331e-01	-2.74456631e-01	3.32178500e-02	-3.32178500e-02	-6.90064892e-02	-5.46342473e-01
34              	6.74661533e-02	5.10490906e-19	-6.03321193e-01	3.01660597e-01	2.36675333e-01	3.37330766e-02	3.35393673e-01	-2.67927520e-01	3.37330766e-02	-3.37330766e-02	-6.49852632e-02	-5.38335930e-01
35              	6.74565480e-02	5.10235196e-19	-5.77077437e-01	2.88538719e-01	2.28078242e-01	3.37282740e-02	3.22266993e-01	-2.54810445e-01	3.37282740e-02	-3.37282740e-02	-6.04604771e-02	-5.16616960e-01
36              	6.89917999e-02	5.10039445e-19	-5.66995705e-01	2.83497852e-01	2.28106638e-01	3.44958999e-02	3.17993752e-01	-2.49001952e-01	3.44958999e-02	-3.44958999e-02	-5.53912147e-02	-5.11604490e-01
37              	7.16802320e-02	5.09839205e-19	-5.71321308e-01	2.85660654e-01	2.35114679e-01	3.58401160e-02	3.21500770e-01	-2.49820538e-01	3.58401160e-02	-3.58401160e-02	-5.05459754e-02	-5.20775333e-01
38              	7.54092693e-02	5.09623410e-19	-5.81570800e-01	2.90785400e-01	2.44931248e-01	3.77046346e-02	3.28490034e-01	-2.53080765e-01	3.77046346e-02	-3.77046346e-02	-4.58541516e-02	-5.35716648e-01
39              	7.74128971e-02	5.09408511e-19	-5.94638064e-01	2.97319032e-01	2.52876203e-01	3.87064486e-02	3.36025481e-01	-2.58612584e-01	3.87064486e-02	-3.87064486e-02	-4.44428288e-02	-5.50195235e-01
40              	7.93074681e-02	5.09186071e-19	-6.05550663e-01	3.02775331e-01	2.59490115e-01	3.96537341e-02	3.42429066e-01	-2.63121597e-01	3.96537341e-02	-3.96537341e-02	-4.32852164e-02	-5.62265447e-01
41              	7.97146292e-02	5.08977670e-19	-6.17819481e-01	3.08909741e-01	2.64303253e-01	3.98573146e-02	3.48767055e-01	-2.69052426e-01	3.98573146e-02	-3.98573146e-02	-4.46064875e-02	-5.73212994e-01
42              	7.83522638e-02	5.08807236e-19	-6.26032118e-01	3.13016059e-01	2.64131312e-01	3.91761319e-02	3.52192191e-01	-2.73839927e-01	3.91761319e-02	-3.91761319e-02	-4.88847469e-02	-5.77147371e-01
43              	7.62355720e-02	5.08666998e-19	-6.29187686e-01	3.14593843e-01	2.61138052e-01	3.81177860e-02	3.52711629e-01	-2.76476057e-01	3.81177860e-02	-3.81177860e-02	-5.34557910e-02	-5.75731895e-01
44              	7.47627500e-02	5.08560752e-19	-6.34766291e-01	3.17383145e-01	2.60904097e-01	3.73813750e-02	3.54764520e-01	-2.80001771e-01	3.73813750e-02	-3.73813750e-02	-5.64790484e-02	-5.78287243e-01
45              	7.45179010e-02	5.08479082e-19	-6.43024289e-01	3.21512144e-01	2.63936269e-01	3.72589505e-02	3.58771095e-01	-2.84253194e-01	3.72589505e-02	-3.72589505e-02	-5.75758755e-02	-5.85448413e-01
46              	7.52341931e-02	5.08407332e-19	-6.48781911e-01	3.24390956e-01	2.67654923e-01	3.76170966e-02	3.62008052e-01	-2.86773859e-01	3.76170966e-02	-3.76170966e-02	-5.67360328e-02	-5.92045879e-01
47              	7.63373121e-02	5.08355455e-19	-6.48519475e-01	3.24259737e-01	2.69767930e-01	3.81686560e-02	3.62428393e-01	-2.86091081e-01	3.81686560e-02	-3.81686560e-02	-5.44918073e-02	-5.94027668e-01
48              	7.75930346e-02	5.08329137e-19	-6.43221022e-01	3.21610511e-01	2.70172554e-01	3.87965173e-02	3.60407029e-01	-2.82813994e-01	3.87965173e-02	-3.87965173e-02	-5.14379577e-02	-5.91783065e-01
49              	7.88094223e-02	5.08323224e-19	-6.36865436e-01	3.18432718e-01	2.69908594e-01	3.94047112e-02	3.57837429e-01	-2.79028007e-01	3.94047112e-02	-3.94047112e-02	-4.85241243e-02	-5.88341312e-01
50              	7.98260179e-02	5.08333710e-19	-6.31680059e-01	3.15840029e-01	2.69610149e-01	3.99130090e-02	3.55753038e-01	-2.75927021e-01	3.99130090e-02	-3.99130090e-02	-4.62298802e-02	-5.85450179e-01
51              	8.06189898e-02	5.08349948e-19	-6.29652405e-01	3.14826202e-01	2.70045250e-01	4.03094949e-02	3.55135697e-01	-2.74516708e-01	4.03094949e-02	-4.03094949e-02	-4.47809527e-02	-5.84871452e-01
52              	8.12604763e-02	5.08372162e-19	-6.32537177e-01	3.16268589e-01	2.72019387e-01	4.06302381e-02	3.56898827e-01	-2.75638350e-01	4.06302381e-02	-4.06302381e-02	-4.42492012e-02	-5.88287976e-01
53              	8.16326657e-02	5.08365273e-19	-6.39581807e-01	3.19790904e-01	2.74994285e-01	4.08163328e-02	3.60607236e-01	-2.78974571e-01	4.08163328e-02	-4.08163328e-02	-4.47966185e-02	-5.94785189e-01
54              	8.16848912e-02	5.08298588e-19	-6.47063109e-01	3.23531554e-01	2.77544393e-01	4.08424456e-02	3.64374000e-01	-2.82689109e-01	4.08424456e-02	-4.08424456e-02	-4.59871615e-02	-6.01075947e-01
55              	8.15768198e-02	5.08267227e-19	-6.53747931e-01	3.26873966e-01	2.79463051e-01	4.07884099e-02	3.67662376e-01	-2.86085556e-01	4.07884099e-02	-4.07884099e-02	-4.74109150e-02	-6.06337016e-01
56              	8.15235898e-02	5.08262733e-19	-6.58967456e-01	3.29483728e-01	2.80929563e-01	4.07617949e-02	3.70245523e-01	-2.88721933e-01	4.07617949e-02	-4.07617949e-02	-4.85541655e-02	-6.10413291e-01
57              	8.17059101e-02	5.08273878e-19	-6.62873577e-01	3.31436788e-01	2.82346924e-01	4.08529550e-02	3.72289743e-01	-2.90583833e-01	4.08529550e-02	-4.08529550e-02	-4.90898643e-02	-6.13783712e-01
58              	8.22141237e-02	5.08290519e-19	-6.65994760e-01	3.32997380e-01	2.84027061e-01	4.11070618e-02	3.74104442e-01	-2.91890318e-01	4.11070618e-02	-4.11070618e-02	-4.89703191e-02	-6.17024441e-01
59              	8.29652568e-02	5.08299969e-19	-6.68318969e-01	3.34159485e-01	2.85854798e-01	4.14826284e-02	3.75642113e-01	-2.92676856e-01	4.14826284e-02	-4.14826284e-02	-4.83046867e-02	-6.20014283e-01
60              	8.38389157e-02	5.08290526e-19	-6.69889182e-01	3.34944591e-01	2.87679889e-01	4.19194578e-02	3.76864049e-01	-2.93025133e-01	4.19194578e-02	-4.19194578e-02	-4.72647018e-02	-6.22624480e-01
61              	8.47427188e-02	5.08258767e-19	-6.71217925e-01	3.35608962e-01	2.89529397e-01	4.23713594e-02	3.77980322e-01	-2.93237603e-01	4.23713594e-02	-4.23713594e-02	-4.60795652e-02	-6.25138360e-01
62              	8.55961899e-02	5.08207192e-19	-6.73042722e-01	3.36521361e-01	2.91544381e-01	4.27980949e-02	3.79319456e-01	-2.93723266e-01	4.27980949e-02	-4.27980949e-02	-4.49769804e-02	-6.28065742e-01
63              	8.64112357e-02	5.08145137e-19	-6.76008913e-01	3.38004456e-01	2.93902443e-01	4.32056178e-02	3.81210074e-01	-2.94798838e-01	4.32056178e-02	-4.32056178e-02	-4.41020131e-02	-6.31906900e-01
64              	8.71549110e-02	5.08082367e-19	-6.79962579e-01	3.39981289e-01	2.96465987e-01	4.35774555e-02	3.83558745e-01	-2.96403834e-01	4.35774555e-02	-4.35774555e-02	-4.35153019e-02	-6.36447277e-01
65              	8.78130736e-02	5.08029028e-19	-6.84592059e-01	3.42296029e-01	2.99104675e-01	4.39065368e-02	3.86202566e-01	-2.98389493e-01	4.39065368e-02	-4.39065368e-02	-4.31913548e-02	-6.41400704e-01
66              	8.83621817e-02	5.07991534e-19	-6.89068753e-01	3.44534377e-01	3.01494168e-01	4.41810909e-02	3.88715467e-01	-3.00353286e-01	4.41810909e-02	-4.41810909e-02	-4.30402089e-02	-6.46028544e-01
67              	8.88213950e-02	5.07967780e-19	-6.93097623e-01	3.46548812e-01	3.03591882e-01	4.44106975e-02	3.90959509e-01	-3.02138114e-01	4.44106975e-02	-4.44106975e-02	-4.29569297e-02	-6.50140694e-01
68              	8.92256468e-02	5.07950039e-19	-6.96654048e-01	3.48327024e-01	3.05435883e-01	4.46128234e-02	3.92939847e-01	-3.03714200e-01	4.46128234e-02	-4.46128234e-02	-4.28911403e-02	-6.53762907e-01
69              	8.96380274e-02	5.07925449e-19	-7.00207790e-01	3.50103895e-01	3.07283306e-01	4.48190137e-02	3.94922909e-01	-3.05284881e-01	4.48190137e-02	-4.48190137e-02	-4.28205892e-02	-6.57387201e-01
70              	9.00595405e-02	5.07885589e-19	-7.03705762e-01	3.51852881e-01	3.09104832e-01	4.50297703e-02	3.96882651e-01	-3.06823111e-01	4.50297703e-02	-4.50297703e-02	-4.27480490e-02	-6.60957713e-01
71              	9.04731454e-02	5.07822740e-19	-7.06847786e-01	3.53423893e-01	3.10801892e-01	4.52365727e-02	3.98660466e-01	-3.08187320e-01	4.52365727e-02	-4.52365727e-02	-4.26220012e-02	-6.64225785e-01
72              	9.08839601e-02	5.07740866e-19	-7.09539688e-01	3.54769844e-01	3.12371897e-01	4.54419800e-02	4.00211824e-01	-3.09327864e-01	4.54419800e-02	-4.54419800e-02	-4.23979466e-02	-6.67141741e-01
73              	9.12595662e-02	5.07647342e-19	-7.11638461e-01	3.55819230e-01	3.13735547e-01	4.56297831e-02	4.01449014e-01	-3.10189447e-01	4.56297831e-02	-4.56297831e-02	-4.20836834e-02	-6.69554777e-01
74              	9.16026155e-02	5.07551052e-19	-7.13327337e-01	3.56663669e-01	3.14974324e-01	4.58013078e-02	4.02464976e-01	-3.10862361e-01	4.58013078e-02	-4.58013078e-02	-4.16893447e-02	-6.71637992e-01
75              	9.19070043e-02	5.07460082e-19	-7.14721862e-01	3.57360931e-01	3.16102873e-01	4.59535021e-02	4.03314433e-01	-3.11407429e-01	4.59535021e-02	-4.59535021e-02	-4.12580582e-02	-6.73463803e-01
76              	9.21381169e-02	5.07383977e-19	-7.15875982e-01	3.57937991e-01	3.17076991e-01	4.60690584e-02	4.04007049e-01	-3.11868932e-01	4.60690584e-02	-4.60690584e-02	-4.08610003e-02	-6.75014982e-01
77              	9.23104119e-02	5.07321913e-19	-7.16883448e-01	3.58441724e-01	3.17926284e-01	4.61552060e-02	4.04596930e-01	-3.12286518e-01	4.61552060e-02	-4.61552060e-02	-4.05154397e-02	-6.76368008e-01
78              	9.24292226e-02	5.07266182e-19	-7.17825554e-01	3.58912777e-01	3.18688392e-01	4.62146113e-02	4.05127388e-01	-3.12698166e-01	4.62146113e-02	-4.62146113e-02	-4.02243854e-02	-6.77601169e-01
79              	9.25123696e-02	5.07213177e-19	-7.18752706e-01	3.59376353e-01	3.19384376e-01	4.62561848e-02	4.05632538e-01	-3.13120168e-01	4.62561848e-02	-4.62561848e-02	-3.99919773e-02	-6.78760729e-01
80              	9.26008319e-02	5.07152876e-19	-7.19778788e-01	3.59889394e-01	3.20075161e-01	4.63004160e-02	4.06189810e-01	-3.13588978e-01	4.63004160e-02	-4.63004160e-02	-3.98142334e-02	-6.79964555e-01
81              	9.27369923e-02	5.07081419e-19	-7.21218914e-01	3.60609457e-01	3.20926132e-01	4.63684962e-02	4.06977953e-01	-3.14240961e-01	4.63684962e-02	-4.63684962e-02	-3.96833248e-02	-6.81535589e-01
82              	9.29034466e-02	5.07000071e-19	-7.22911367e-01	3.61455684e-01	3.21866023e-01	4.64517233e-02	4.07907407e-01	-3.15003960e-01	4.64517233e-02	-4.64517233e-02	-3.95896604e-02	-6.83321707e-01
83              	9.30658014e-02	5.06913463e-19	-7.24536768e-01	3.62268384e-01	3.22756848e-01	4.65329007e-02	4.08801285e-01	-3.15735483e-01	4.65329007e-02	-4.65329007e-02	-3.95115358e-02	-6.85025232e-01
84              	9.31707613e-02	5.06821535e-19	-7.25666136e-01	3.62833068e-01	3.23429578e-01	4.65853807e-02	4.09418448e-01	-3.16247687e-01	4.65853807e-02	-4.65853807e-02	-3.94034894e-02	-6.86262646e-01
85              	9.32670911e-02	5.06731187e-19	-7.26805783e-01	3.63402892e-01	3.24110640e-01	4.66335455e-02	4.10036437e-01	-3.16769346e-01	4.66335455e-02	-4.66335455e-02	-3.92922516e-02	-6.87513531e-01
86              	9.33293080e-02	5.06652441e-19	-7.27776960e-01	3.63888480e-01	3.24718796e-01	4.66646540e-02	4.10553134e-01	-3.17223826e-01	4.66646540e-02	-4.66646540e-02	-3.91696844e-02	-6.88607276e-01
87              	9.33623020e-02	5.06577789e-19	-7.28646806e-01	3.64323403e-01	3.25272255e-01	4.66811510e-02	4.11004554e-01	-3.17642252e-01	4.66811510e-02	-4.66811510e-02	-3.90511475e-02	-6.89595658e-01
88              	9.33795508e-02	5.06512203e-19	-7.29452717e-01	3.64726359e-01	3.25792688e-01	4.66897754e-02	4.11416134e-01	-3.18036583e-01	4.66897754e-02	-4.66897754e-02	-3.89336703e-02	-6.90519047e-01
89              	9.33926948e-02	5.06446696e-19	-7.30253081e-01	3.65126540e-01	3.26319931e-01	4.66963474e-02	4.11822888e-01	-3.18430193e-01	4.66963474e-02	-4.66963474e-02	-3.88066099e-02	-6.91446471e-01
90              	9.33775699e-02	5.06376872e-19	-7.30767798e-01	3.65383899e-01	3.26733181e-01	4.66887850e-02	4.12072684e-01	-3.18695114e-01	4.66887850e-02	-4.66887850e-02	-3.86507183e-02	-6.92117080e-01
91              	9.33584409e-02	5.06300229e-19	-7.31134771e-01	3.65567386e-01	3.27099308e-01	4.66792204e-02	4.12246606e-01	-3.18888165e-01	4.66792204e-02	-4.66792204e-02	-3.84680777e-02	-6.92666694e-01
92              	9.33132922e-02	5.06207783e-19	-7.31218418e-01	3.65609209e-01	3.27327742e-01	4.66566461e-02	4.12265855e-01	-3.18952563e-01	4.66566461e-02	-4.66566461e-02	-3.82814673e-02	-6.92936951e-01
93              	9.32604947e-02	5.06110158e-19	-7.31143893e-01	3.65571947e-01	3.27486177e-01	4.66302473e-02	4.12202194e-01	-3.18941699e-01	4.66302473e-02	-4.66302473e-02	-3.80857695e-02	-6.93058124e-01
94              	9.32235337e-02	5.06015002e-19	-7.31077987e-01	3.65538993e-01	3.27657849e-01	4.66117668e-02	4.12150760e-01	-3.18927226e-01	4.66117668e-02	-4.66117668e-02	-3.78811447e-02	-6.93196842e-01
95              	9.31950278e-02	5.05926498e-19	-7.31119426e-01	3.65559713e-01	3.27856995e-01	4.65975139e-02	4.12157227e-01	-3.18962199e-01	4.65975139e-02	-4.65975139e-02	-3.77027179e-02	-6.93416709e-01
96              	9.31668546e-02	5.05845418e-19	-7.31304068e-01	3.65652034e-01	3.28090444e-01	4.65834273e-02	4.12235461e-01	-3.19068607e-01	4.65834273e-02	-4.65834273e-02	-3.75615905e-02	-6.93742478e-01
97              	9.31237173e-02	5.05765481e-19	-7.31595776e-01	3.65797888e-01	3.28330481e-01	4.65618586e-02	4.12359747e-01	-3.19236030e-01	4.65618586e-02	-4.65618586e-02	-3.74674068e-02	-6.94128369e-01
98              	9.30361565e-02	5.05688313e-19	-7.31915031e-01	3.65957515e-01	3.28519833e-01	4.65180782e-02	4.12475594e-01	-3.19439437e-01	4.65180782e-02	-4.65180782e-02	-3.74376826e-02	-6.94477348e-01
99              	9.29185083e-02	5.05611136e-19	-7.32223865e-01	3.66111933e-01	3.28655425e-01	4.64592542e-02	4.12571187e-01	-3.19652678e-01	4.64592542e-02	-4.64592542e-02	-3.74565075e-02	-6.94767358e-01
100             	9.27685384e-02	5.05534006e-19	-7.32464067e-01	3.66232033e-01	3.28746565e-01	4.63842692e-02	4.12616302e-01	-3.19847764e-01	4.63842692e-02	-4.63842692e-02	-3.74854687e-02	-6.94978598e-01
101             	9.26056119e-02	5.05451216e-19	-7.32582200e-01	3.66291100e-01	3.28805472e-01	4.63028060e-02	4.12593906e-01	-3.19988294e-01	4.63028060e-02	-4.63028060e-02	-3.74856276e-02	-6.95096572e-01
102             	9.24536962e-02	5.05368001e-19	-7.32752486e-01	3.66376243e-01	3.28911706e-01	4.62268481e-02	4.12603091e-01	-3.20149395e-01	4.62268481e-02	-4.62268481e-02	-3.74645370e-02	-6.95287949e-01
103             	9.23164522e-02	5.05282032e-19	-7.32819840e-01	3.66409920e-01	3.29011282e-01	4.61582261e-02	4.12568146e-01	-3.20251694e-01	4.61582261e-02	-4.61582261e-02	-3.73986374e-02	-6.95421202e-01
104             	9.21838688e-02	5.05195839e-19	-7.32727337e-01	3.66363669e-01	3.29065761e-01	4.60919344e-02	4.12455603e-01	-3.20271734e-01	4.60919344e-02	-4.60919344e-02	-3.72979073e-02	-6.95429430e-01
105             	9.20560747e-02	5.05115353e-19	-7.32414765e-01	3.66207382e-01	3.29050303e-01	4.60280373e-02	4.12235420e-01	-3.20179345e-01	4.60280373e-02	-4.60280373e-02	-3.71570793e-02	-6.95257685e-01
106             	9.19105324e-02	5.05035889e-19	-7.31819757e-01	3.65909878e-01	3.28927100e-01	4.59552662e-02	4.11865145e-01	-3.19954612e-01	4.59552662e-02	-4.59552662e-02	-3.69827787e-02	-6.94836978e-01
107             	9.17713928e-02	5.04962499e-19	-7.31039578e-01	3.65519789e-01	3.28742327e-01	4.58856964e-02	4.11405486e-01	-3.19634093e-01	4.58856964e-02	-4.58856964e-02	-3.67774627e-02	-6.94262116e-01
108             	9.16339793e-02	5.04893833e-19	-7.30350799e-01	3.65175400e-01	3.28585960e-01	4.58169897e-02	4.10992389e-01	-3.19358410e-01	4.58169897e-02	-4.58169897e-02	-3.65894392e-02	-6.93761360e-01
109             	9.14986637e-02	5.04828888e-19	-7.29669876e-01	3.64834938e-01	3.28436125e-01	4.57493318e-02	4.10584270e-01	-3.19085606e-01	4.57493318e-02	-4.57493318e-02	-3.63988133e-02	-6.93271063e-01
110             	9.13576007e-02	5.04775099e-19	-7.29173663e-01	3.64586832e-01	3.28331112e-01	4.56788003e-02	4.10265632e-01	-3.18908031e-01	4.56788003e-02	-4.56788003e-02	-3.62557196e-02	-6.92917944e-01
111             	9.12205083e-02	5.04727560e-19	-7.28935011e-01	3.64467506e-01	3.28307253e-01	4.56102542e-02	4.10077760e-01	-3.18857251e-01	4.56102542e-02	-4.56102542e-02	-3.61602524e-02	-6.92774759e-01
112             	9.10816632e-02	5.04678513e-19	-7.29090022e-01	3.64545011e-01	3.28383582e-01	4.55408316e-02	4.10085843e-01	-3.19004179e-01	4.55408316e-02	-4.55408316e-02	-3.61614294e-02	-6.92928593e-01
113             	9.09521591e-02	5.04628304e-19	-7.29361701e-01	3.64680850e-01	3.28512103e-01	4.54760796e-02	4.10156930e-01	-3.19204771e-01	4.54760796e-02	-4.54760796e-02	-3.61687472e-02	-6.93192954e-01
114             	9.08360650e-02	5.04581788e-19	-7.29839292e-01	3.64919646e-01	3.28725360e-01	4.54180325e-02	4.10337679e-01	-3.19501614e-01	4.54180325e-02	-4.54180325e-02	-3.61942865e-02	-6.93645006e-01
115             	9.07283092e-02	5.04529391e-19	-7.30294847e-01	3.65147424e-01	3.28956213e-01	4.53641546e-02	4.10511578e-01	-3.19783269e-01	4.53641546e-02	-4.53641546e-02	-3.61912111e-02	-6.94103636e-01
116             	9.06409206e-02	5.04482792e-19	-7.30584722e-01	3.65292361e-01	3.29150767e-01	4.53204603e-02	4.10612821e-01	-3.19971901e-01	4.53204603e-02	-4.53204603e-02	-3.61415942e-02	-6.94443127e-01
117             	9.05593207e-02	5.04430866e-19	-7.30571817e-01	3.65285908e-01	3.29259460e-01	4.52796603e-02	4.10565569e-01	-3.20006248e-01	4.52796603e-02	-4.52796603e-02	-3.60264482e-02	-6.94545368e-01
118             	9.04761219e-02	5.04381208e-19	-7.30296401e-01	3.65148201e-01	3.29293303e-01	4.52380609e-02	4.10386262e-01	-3.19910140e-01	4.52380609e-02	-4.52380609e-02	-3.58548980e-02	-6.94441503e-01
119             	9.03978073e-02	5.04324436e-19	-7.29857011e-01	3.64928505e-01	3.29281333e-01	4.51989037e-02	4.10127409e-01	-3.19729602e-01	4.51989037e-02	-4.51989037e-02	-3.56471721e-02	-6.94209838e-01
120             	9.03202770e-02	5.04268371e-19	-7.29288128e-01	3.64644064e-01	3.29227299e-01	4.51601385e-02	4.09804203e-01	-3.19483926e-01	4.51601385e-02	-4.51601385e-02	-3.54167655e-02	-6.93871363e-01
121             	9.02394144e-02	5.04210836e-19	-7.28645306e-01	3.64322653e-01	3.29140212e-01	4.51197072e-02	4.09442360e-01	-3.19202946e-01	4.51197072e-02	-4.51197072e-02	-3.51824416e-02	-6.93462865e-01
122             	9.01468173e-02	5.04154333e-19	-7.28012281e-01	3.64006141e-01	3.29031255e-01	4.50734086e-02	4.09079549e-01	-3.18932732e-01	4.50734086e-02	-4.50734086e-02	-3.49748852e-02	-6.93037396e-01
123             	9.00417344e-02	5.04098403e-19	-7.27513672e-01	3.63756836e-01	3.28930405e-01	4.50208672e-02	4.08777703e-01	-3.18735969e-01	4.50208672e-02	-4.50208672e-02	-3.48264312e-02	-6.92687241e-01
124             	8.99420818e-02	5.04039481e-19	-7.27272472e-01	3.63636236e-01	3.28905141e-01	4.49710409e-02	4.08607277e-01	-3.18665195e-01	4.49710409e-02	-4.49710409e-02	-3.47310946e-02	-6.92541378e-01
125             	8.98580482e-02	5.03990834e-19	-7.27468862e-01	3.63734431e-01	3.29039666e-01	4.49290241e-02	4.08663455e-01	-3.18805407e-01	4.49290241e-02	-4.49290241e-02	-3.46947647e-02	-6.92774098e-01
126             	8.98022093e-02	5.03943087e-19	-7.27889170e-01	3.63944585e-01	3.29272710e-01	4.49011047e-02	4.08845690e-01	-3.19043481e-01	4.49011047e-02	-4.49011047e-02	-3.46718753e-02	-6.93217295e-01
127             	8.97487452e-02	5.03899222e-19	-7.28401098e-01	3.64200549e-01	3.29554881e-01	4.48743726e-02	4.09074922e-01	-3.19326177e-01	4.48743726e-02	-4.48743726e-02	-3.46456677e-02	-6.93755431e-01
128             	8.96958335e-02	5.03855096e-19	-7.28713101e-01	3.64356550e-01	3.29759621e-01	4.48479168e-02	4.09204467e-01	-3.19508634e-01	4.48479168e-02	-4.48479168e-02	-3.45969295e-02	-6.94116171e-01
129             	8.96507521e-02	5.03806065e-19	-7.28858334e-01	3.64429167e-01	3.29923922e-01	4.48253761e-02	4.09254543e-01	-3.19603791e-01	4.48253761e-02	-4.48253761e-02	-3.45052448e-02	-6.94353089e-01
130             	8.96123345e-02	5.03766588e-19	-7.28823017e-01	3.64411509e-01	3.30045102e-01	4.48061672e-02	4.09217676e-01	-3.19605341e-01	4.48061672e-02	-4.48061672e-02	-3.43664069e-02	-6.94456610e-01
131             	8.95774171e-02	5.03724107e-19	-7.28582700e-01	3.64291350e-01	3.30103285e-01	4.47887086e-02	4.09080059e-01	-3.19502642e-01	4.47887086e-02	-4.47887086e-02	-3.41880655e-02	-6.94394635e-01
132             	8.95336691e-02	5.03681599e-19	-7.28152595e-01	3.64076298e-01	3.30086865e-01	4.47668345e-02	4.08843132e-01	-3.19309463e-01	4.47668345e-02	-4.47668345e-02	-3.39894324e-02	-6.94163163e-01
133             	8.94709868e-02	5.03641714e-19	-7.27560514e-01	3.63780257e-01	3.29986926e-01	4.47354934e-02	4.08515751e-01	-3.19044764e-01	4.47354934e-02	-4.47354934e-02	-3.37933312e-02	-6.93767183e-01
134             	8.93920534e-02	5.03602980e-19	-7.26945327e-01	3.63472663e-01	3.29847718e-01	4.46960267e-02	4.08168690e-01	-3.18776637e-01	4.46960267e-02	-4.46960267e-02	-3.36249450e-02	-6.93320382e-01
135             	8.93021132e-02	5.03583328e-19	-7.26448910e-01	3.63224455e-01	3.29726948e-01	4.46510566e-02	4.07875512e-01	-3.18573399e-01	4.46510566e-02	-4.46510566e-02	-3.34975073e-02	-6.92951403e-01
136             	8.92263752e-02	5.03670207e-19	-7.26257290e-01	3.63128645e-01	3.29720624e-01	4.46131876e-02	4.07741832e-01	-3.18515457e-01	4.46131876e-02	-4.46131876e-02	-3.34080207e-02	-6.92849269e-01
137             	8.91875523e-02	5.03751808e-19	-7.26309786e-01	3.63154893e-01	3.29814792e-01	4.45937762e-02	4.07748669e-01	-3.18561117e-01	4.45937762e-02	-4.45937762e-02	-3.33401006e-02	-6.92969685e-01
138             	8.91578066e-02	5.03843864e-19	-7.26529404e-01	3.63264702e-01	3.29982692e-01	4.45789033e-02	4.07843605e-01	-3.18685799e-01	4.45789033e-02	-4.45789033e-02	-3.32820099e-02	-6.93247394e-01
139             	8.91274341e-02	5.03928690e-19	-7.26742279e-01	3.63371140e-01	3.30142282e-01	4.45637171e-02	4.07934857e-01	-3.18807423e-01	4.45637171e-02	-4.45637171e-02	-3.32288577e-02	-6.93513421e-01
140             	8.90865355e-02	5.04011149e-19	-7.26804851e-01	3.63402426e-01	3.30232253e-01	4.45432677e-02	4.07945693e-01	-3.18859158e-01	4.45432677e-02	-4.45432677e-02	-3.31701732e-02	-6.93634678e-01
141             	8.90489722e-02	5.04092801e-19	-7.26682437e-01	3.63341218e-01	3.30254379e-01	4.45244861e-02	4.07865704e-01	-3.18816732e-01	4.45244861e-02	-4.45244861e-02	-3.30868397e-02	-6.93595597e-01
142             	8.90074877e-02	5.04183505e-19	-7.26458034e-01	3.63229017e-01	3.30244051e-01	4.45037438e-02	4.07732761e-01	-3.18725273e-01	4.45037438e-02	-4.45037438e-02	-3.29849661e-02	-6.93473067e-01
143             	8.89668683e-02	5.04270837e-19	-7.26212208e-01	3.63106104e-01	3.30235022e-01	4.44834342e-02	4.07589538e-01	-3.18622670e-01	4.44834342e-02	-4.44834342e-02	-3.28710822e-02	-6.93341126e-01
144             	8.89381146e-02	5.04355202e-19	-7.25970987e-01	3.62985494e-01	3.30239840e-01	4.44690573e-02	4.07454551e-01	-3.18516436e-01	4.44690573e-02	-4.44690573e-02	-3.27456534e-02	-6.93225334e-01