/*--------------------------------*- C++ -*----------------------------------*\
| =========                 |                                                 |
| \\      /  F ield         | OpenFOAM: The Open Source CFD Toolbox           |
|  \\    /   O peration     | Version:  v2006                                 |
|   \\  /    A nd           | Website:  www.openfoam.com                      |
|    \\/     M anipulation  |                                                 |
\*---------------------------------------------------------------------------*/
FoamFile
{
    version     2.0;
    format      ascii;
    class       volScalarField;
    location    "2500";
    object      alphat;
}
// * * * * * * * * * * * * * * * * * * * * * * * * * * * * * * * * * * * * * //

dimensions      [1 -1 -1 0 0 0 0];


internalField   nonuniform List<scalar> 
19765
(
9.7818309e-06
9.7787355e-06
9.4914829e-06
9.5480971e-06
9.5493123e-06
9.7081634e-06
9.6264113e-06
9.8027509e-06
9.7749298e-06
9.5869076e-06
9.6927662e-06
1.0074423e-05
1.0298042e-05
1.0491241e-05
1.0896451e-05
1.1068097e-05
1.1020788e-05
1.1176616e-05
1.1594775e-05
1.1960632e-05
1.2207213e-05
1.2331038e-05
1.255043e-05
1.2686931e-05
1.277716e-05
1.2831501e-05
1.2858445e-05
1.2796502e-05
1.281506e-05
1.2697201e-05
1.246726e-05
1.2173573e-05
1.2205204e-05
1.2349188e-05
1.2205138e-05
1.1866632e-05
1.1850641e-05
1.1785049e-05
1.1507647e-05
1.1597128e-05
1.196724e-05
1.2116084e-05
1.2076934e-05
1.2384372e-05
1.2278592e-05
1.2512247e-05
1.2523088e-05
1.2499283e-05
1.2374792e-05
5.4262223e-05
5.6902493e-05
5.9127417e-05
6.0925443e-05
6.3097066e-05
6.53192e-05
6.7560208e-05
6.9798011e-05
7.210608e-05
7.4135207e-05
7.6526124e-05
7.9126224e-05
8.1361439e-05
8.3359354e-05
8.5410321e-05
8.6667205e-05
8.6979419e-05
8.758222e-05
8.8832821e-05
9.0335766e-05
9.1768571e-05
9.273177e-05
9.3554623e-05
9.4607322e-05
9.5635666e-05
9.6140277e-05
9.6362072e-05
9.6664729e-05
9.6886224e-05
9.6907774e-05
9.6814232e-05
9.6653047e-05
9.6641249e-05
9.6475598e-05
9.5814235e-05
9.4862004e-05
9.402008e-05
9.2884801e-05
9.1466474e-05
9.0418576e-05
8.9497928e-05
8.7459204e-05
8.5287024e-05
8.163205e-05
7.9028929e-05
7.2884117e-05
6.6041746e-05
5.9219251e-05
5.4122056e-05
1.6008011e-05
1.5338323e-05
1.486357e-05
1.5108431e-05
1.5230973e-05
1.5348616e-05
1.5285656e-05
1.5450781e-05
1.5354825e-05
1.5503545e-05
1.5747096e-05
1.5786734e-05
1.5620595e-05
1.5453588e-05
1.5165847e-05
1.4721909e-05
1.4366799e-05
1.4127412e-05
1.3945306e-05
1.379742e-05
1.3739871e-05
1.3793001e-05
1.3816464e-05
1.3874758e-05
1.4170908e-05
1.4719496e-05
1.5225847e-05
1.5741047e-05
1.6480071e-05
1.7271237e-05
1.803837e-05
1.8750445e-05
1.9388797e-05
2.0383312e-05
2.1624535e-05
2.2659532e-05
2.3465442e-05
2.4525963e-05
2.5341523e-05
2.5759863e-05
2.6475116e-05
2.7718296e-05
2.8355581e-05
2.9529648e-05
3.0310991e-05
3.2517773e-05
3.5386679e-05
3.8762944e-05
4.1104785e-05
6.2573717e-07
5.6012097e-07
5.2218391e-07
5.1679221e-07
5.0935784e-07
5.0263132e-07
4.9118212e-07
4.8726988e-07
4.762518e-07
4.7131579e-07
4.6866933e-07
4.6066525e-07
4.4766338e-07
4.3578082e-07
4.2264141e-07
4.0732418e-07
3.9575614e-07
3.8818706e-07
3.8184427e-07
3.7567943e-07
3.7305587e-07
3.7520929e-07
3.7613982e-07
3.7815116e-07
3.8632687e-07
4.0169407e-07
4.177957e-07
4.358277e-07
4.610704e-07
4.9009285e-07
5.2140372e-07
5.5408116e-07
5.8778193e-07
6.3552837e-07
6.9632076e-07
7.5709726e-07
8.1709858e-07
8.9295079e-07
9.6523048e-07
1.0279991e-06
1.112857e-06
1.2337553e-06
1.3413108e-06
1.5081367e-06
1.6703027e-06
1.9040204e-06
2.188799e-06
2.5512098e-06
2.9799071e-06
1.6361064e-07
1.6311209e-07
1.6340244e-07
1.6533671e-07
1.6704251e-07
1.6866715e-07
1.697525e-07
1.7134671e-07
1.7218217e-07
1.7350616e-07
1.7512992e-07
1.7625996e-07
1.768816e-07
1.776143e-07
1.7811645e-07
1.7820958e-07
1.7863207e-07
1.7948961e-07
1.8023014e-07
1.8084805e-07
1.8183645e-07
1.8319922e-07
1.8445806e-07
1.8590055e-07
1.8800951e-07
1.9099542e-07
1.9410442e-07
1.9735212e-07
2.0130042e-07
2.0549537e-07
2.0970233e-07
2.1379762e-07
2.1762877e-07
2.2239689e-07
2.2783039e-07
2.3264305e-07
2.3676578e-07
2.4149459e-07
2.4538451e-07
2.4816845e-07
2.5188363e-07
2.5675483e-07
2.6025502e-07
2.6570309e-07
2.7022855e-07
2.7633513e-07
2.8228433e-07
2.8677401e-07
2.9108339e-07
1.4152358e-07
1.4168069e-07
1.4217872e-07
1.4335289e-07
1.442671e-07
1.4518613e-07
1.4589771e-07
1.4681634e-07
1.4739362e-07
1.4827438e-07
1.4912248e-07
1.4969247e-07
1.5009634e-07
1.5054631e-07
1.5087065e-07
1.511216e-07
1.516104e-07
1.5228226e-07
1.5290223e-07
1.535173e-07
1.5426811e-07
1.5513492e-07
1.5617343e-07
1.5740984e-07
1.5897301e-07
1.610241e-07
1.6324426e-07
1.6554883e-07
1.6820775e-07
1.7108756e-07
1.7405313e-07
1.7706109e-07
1.7991548e-07
1.8306778e-07
1.8661632e-07
1.9013145e-07
1.9325049e-07
1.9652018e-07
1.9962849e-07
2.0215186e-07
2.0460724e-07
2.0784381e-07
2.1043394e-07
2.1386456e-07
2.1701033e-07
2.2079829e-07
2.2489393e-07
2.2932841e-07
2.3322115e-07
1.2440959e-07
1.2434979e-07
1.2448898e-07
1.2503064e-07
1.2544586e-07
1.258774e-07
1.2621133e-07
1.2667863e-07
1.2697353e-07
1.2745219e-07
1.279367e-07
1.282771e-07
1.285332e-07
1.2882557e-07
1.2905525e-07
1.2924724e-07
1.2958847e-07
1.3005961e-07
1.305248e-07
1.3100778e-07
1.3157346e-07
1.3220766e-07
1.329467e-07
1.3383146e-07
1.3493329e-07
1.3633066e-07
1.37834e-07
1.3941573e-07
1.4123439e-07
1.4320286e-07
1.4524569e-07
1.4733096e-07
1.4935333e-07
1.5157736e-07
1.5404717e-07
1.5650082e-07
1.5874386e-07
1.6108718e-07
1.6334156e-07
1.6526596e-07
1.6717828e-07
1.695156e-07
1.7149157e-07
1.7391181e-07
1.761535e-07
1.7870621e-07
1.8136576e-07
1.8415129e-07
1.8666905e-07
1.1540518e-07
1.1536079e-07
1.1543577e-07
1.1575467e-07
1.1599599e-07
1.1624622e-07
1.1643797e-07
1.1670695e-07
1.1687666e-07
1.1715477e-07
1.1743748e-07
1.1764245e-07
1.1780628e-07
1.1799794e-07
1.181633e-07
1.1832018e-07
1.1857425e-07
1.1891362e-07
1.192648e-07
1.196461e-07
1.2009323e-07
1.2059546e-07
1.2119046e-07
1.2189681e-07
1.2274877e-07
1.2379494e-07
1.2492689e-07
1.2612958e-07
1.2749851e-07
1.289829e-07
1.3053682e-07
1.3214017e-07
1.3372707e-07
1.3545566e-07
1.3735714e-07
1.3927374e-07
1.4107933e-07
1.4296015e-07
1.4480432e-07
1.4645673e-07
1.4810398e-07
1.500362e-07
1.5176047e-07
1.5378872e-07
1.5573743e-07
1.5792461e-07
1.6023604e-07
1.6269667e-07
1.6503635e-07
1.0897279e-07
1.0891099e-07
1.0892537e-07
1.0909714e-07
1.0922418e-07
1.0936038e-07
1.0946418e-07
1.0961899e-07
1.0971677e-07
1.0988476e-07
1.1005957e-07
1.1019187e-07
1.1030468e-07
1.1043983e-07
1.1056501e-07
1.1069234e-07
1.108866e-07
1.1114086e-07
1.1141141e-07
1.1171024e-07
1.1205699e-07
1.1244307e-07
1.1289351e-07
1.1342733e-07
1.1406617e-07
1.1483755e-07
1.1567455e-07
1.1657015e-07
1.1758426e-07
1.186849e-07
1.1984419e-07
1.2104896e-07
1.2225819e-07
1.2356973e-07
1.2500168e-07
1.264532e-07
1.2784532e-07
1.2929316e-07
1.307245e-07
1.3203907e-07
1.3335587e-07
1.3485178e-07
1.3621617e-07
1.3776777e-07
1.3926275e-07
1.4089824e-07
1.4259721e-07
1.4437036e-07
1.4604202e-07
1.0475447e-07
1.0470774e-07
1.0470849e-07
1.0481166e-07
1.0488545e-07
1.049655e-07
1.0502546e-07
1.051188e-07
1.0517756e-07
1.0528281e-07
1.0539432e-07
1.0548214e-07
1.0556156e-07
1.056589e-07
1.0575452e-07
1.0585722e-07
1.060078e-07
1.0620196e-07
1.0641332e-07
1.0665041e-07
1.0692606e-07
1.0723492e-07
1.0759268e-07
1.0801342e-07
1.0851214e-07
1.0910561e-07
1.0975141e-07
1.1044623e-07
1.1123002e-07
1.120826e-07
1.1298603e-07
1.1393158e-07
1.1489202e-07
1.1593125e-07
1.1706226e-07
1.1821869e-07
1.1934638e-07
1.2052047e-07
1.2169332e-07
1.2279545e-07
1.2390345e-07
1.2514046e-07
1.2629552e-07
1.2758602e-07
1.2884821e-07
1.3021909e-07
1.3164995e-07
1.3315623e-07
1.3460448e-07
1.0174532e-07
1.0170817e-07
1.0170226e-07
1.0176581e-07
1.0181034e-07
1.0185977e-07
1.0189689e-07
1.0195698e-07
1.0199581e-07
1.0206674e-07
1.0214349e-07
1.0220711e-07
1.0226801e-07
1.0234336e-07
1.024207e-07
1.025064e-07
1.026271e-07
1.0278009e-07
1.0294879e-07
1.0313904e-07
1.0335933e-07
1.0360626e-07
1.0388956e-07
1.0422004e-07
1.0460939e-07
1.0506799e-07
1.055679e-07
1.0610793e-07
1.0671524e-07
1.073766e-07
1.0808021e-07
1.0882018e-07
1.0957836e-07
1.1039741e-07
1.1128614e-07
1.121994e-07
1.131002e-07
1.140382e-07
1.1498049e-07
1.1587834e-07
1.1678321e-07
1.1777678e-07
1.1871557e-07
1.1974517e-07
1.2075392e-07
1.218333e-07
1.2294899e-07
1.2411019e-07
1.2522162e-07
9.9589589e-08
9.9565253e-08
9.9561016e-08
9.9604327e-08
9.9634589e-08
9.9668476e-08
9.9694525e-08
9.9736615e-08
9.9765382e-08
9.981684e-08
9.9873401e-08
9.9922912e-08
9.9972654e-08
1.0003407e-07
1.0009913e-07
1.0017252e-07
1.0027202e-07
1.0039585e-07
1.005334e-07
1.0068876e-07
1.0086776e-07
1.0106859e-07
1.0129729e-07
1.015615e-07
1.0187072e-07
1.0223167e-07
1.0262553e-07
1.0305224e-07
1.0353096e-07
1.0405278e-07
1.0460972e-07
1.0519806e-07
1.0580567e-07
1.0646221e-07
1.071742e-07
1.0791026e-07
1.0864389e-07
1.0940902e-07
1.1018251e-07
1.1092896e-07
1.1168321e-07
1.1250379e-07
1.1328853e-07
1.1414071e-07
1.1498136e-07
1.1587628e-07
1.1680187e-07
1.177679e-07
1.1869928e-07
9.8002556e-08
9.7988326e-08
9.7987387e-08
9.8019834e-08
9.8043335e-08
9.8069682e-08
9.8091099e-08
9.812408e-08
9.8148727e-08
9.8189855e-08
9.8235473e-08
9.8277606e-08
9.8321421e-08
9.8374705e-08
9.8432142e-08
9.8497183e-08
9.858191e-08
9.8685135e-08
9.8799867e-08
9.8928993e-08
9.9076534e-08
9.9241577e-08
9.9427912e-08
9.9640903e-08
9.9888342e-08
1.0017467e-07
1.0048703e-07
1.0082604e-07
1.0120521e-07
1.0161818e-07
1.0205977e-07
1.0252812e-07
1.0301532e-07
1.0354218e-07
1.0411322e-07
1.0470598e-07
1.0530126e-07
1.0592239e-07
1.0655269e-07
1.0716615e-07
1.0778695e-07
1.0845608e-07
1.0910044e-07
1.0979261e-07
1.1047607e-07
1.1119695e-07
1.1193793e-07
1.127059e-07
1.1344375e-07
9.6816355e-08
9.6811442e-08
9.6815171e-08
9.6842582e-08
9.6863738e-08
9.6887173e-08
9.690755e-08
9.6936458e-08
9.6960233e-08
9.6996241e-08
9.7036197e-08
9.7074807e-08
9.7115777e-08
9.7164472e-08
9.7217303e-08
9.7276803e-08
9.7351272e-08
9.7439867e-08
9.7537898e-08
9.7647383e-08
9.7771121e-08
9.7908689e-08
9.8062476e-08
9.8236251e-08
9.8436351e-08
9.8665776e-08
9.8915683e-08
9.9187088e-08
9.9489249e-08
9.9817671e-08
1.0016977e-07
1.0054533e-07
1.0093896e-07
1.0136511e-07
1.0182675e-07
1.0230754e-07
1.0279335e-07
1.033007e-07
1.0381754e-07
1.043245e-07
1.0483851e-07
1.0538958e-07
1.0592396e-07
1.0649449e-07
1.0705973e-07
1.0765352e-07
1.0826317e-07
1.0889506e-07
1.0950302e-07
9.5917681e-08
9.5920338e-08
9.5928678e-08
9.5954133e-08
9.597526e-08
9.599832e-08
9.6019616e-08
9.6047405e-08
9.6072189e-08
9.6106278e-08
9.6143884e-08
9.6181449e-08
9.6221637e-08
9.6268168e-08
9.6318564e-08
9.6374654e-08
9.6442164e-08
9.6520455e-08
9.6606299e-08
9.6701071e-08
9.6806704e-08
9.6922995e-08
9.7051433e-08
9.7194665e-08
9.7357812e-08
9.7542922e-08
9.7743927e-08
9.7961949e-08
9.8202743e-08
9.8463897e-08
9.874549e-08
9.9047947e-08
9.9366655e-08
9.9711232e-08
1.0008368e-07
1.0047225e-07
1.0086668e-07
1.0127895e-07
1.0170027e-07
1.0211606e-07
1.0253838e-07
1.0298892e-07
1.0342791e-07
1.0389362e-07
1.0435538e-07
1.048376e-07
1.0533063e-07
1.0583932e-07
1.0632704e-07
9.5228368e-08
9.5237585e-08
9.5250493e-08
9.5275923e-08
9.5298404e-08
9.5322605e-08
9.534595e-08
9.5374394e-08
9.5401283e-08
9.5435421e-08
9.547274e-08
9.5510826e-08
9.5551589e-08
9.5597601e-08
9.5647112e-08
9.57014e-08
9.5764393e-08
9.5835566e-08
9.5912628e-08
9.5996464e-08
9.6088371e-08
9.6188225e-08
9.6296915e-08
9.641629e-08
9.6550453e-08
9.6700818e-08
9.6863265e-08
9.7038717e-08
9.7230006e-08
9.7438106e-08
9.7664931e-08
9.7909584e-08
9.8167243e-08
9.8444705e-08
9.8743984e-08
9.9056948e-08
9.9376244e-08
9.9710711e-08
1.0005386e-07
1.0039462e-07
1.0074156e-07
1.0111069e-07
1.0147211e-07
1.0185407e-07
1.0223355e-07
1.0262859e-07
1.0303181e-07
1.0344744e-07
1.0384541e-07
9.4695185e-08
9.4709894e-08
9.4727028e-08
9.4753491e-08
9.477805e-08
9.4804225e-08
9.4830224e-08
9.4860382e-08
9.489001e-08
9.492544e-08
9.4963805e-08
9.5003454e-08
9.5045732e-08
9.5092397e-08
9.5142174e-08
9.5195904e-08
9.5256229e-08
9.5322677e-08
9.5393559e-08
9.5469372e-08
9.5550928e-08
9.5638101e-08
9.5731356e-08
9.5831971e-08
9.5943197e-08
9.6066018e-08
9.6197678e-08
9.6338568e-08
9.6489395e-08
9.6656431e-08
9.6840309e-08
9.703706e-08
9.7242812e-08
9.7463742e-08
9.7702202e-08
9.7952567e-08
9.8209472e-08
9.8479392e-08
9.8757443e-08
9.9035121e-08
9.9318491e-08
9.9619294e-08
9.9914943e-08
1.0022623e-07
1.0053574e-07
1.0085669e-07
1.0118331e-07
1.0151896e-07
1.0183916e-07
9.4279355e-08
9.4298852e-08
9.4319961e-08
9.4348143e-08
9.4375226e-08
9.4403899e-08
9.443292e-08
9.4465468e-08
9.4498237e-08
9.4535786e-08
9.4576098e-08
9.4618035e-08
9.4662513e-08
9.47107e-08
9.4761629e-08
9.4815788e-08
9.4874879e-08
9.4938442e-08
9.5005169e-08
9.5075242e-08
9.5149093e-08
9.5226543e-08
9.5307747e-08
9.5393581e-08
9.5486563e-08
9.5587393e-08
9.5694236e-08
9.5806698e-08
9.5924699e-08
9.6060993e-08
9.6209385e-08
9.6364181e-08
9.6525675e-08
9.6699748e-08
9.6888329e-08
9.7087375e-08
9.7292927e-08
9.7509714e-08
9.7734008e-08
9.7959229e-08
9.818966e-08
9.8433992e-08
9.867505e-08
9.8928293e-08
9.9180456e-08
9.9441366e-08
9.9706464e-08
9.9978627e-08
1.0023756e-07
9.39535e-08
9.3977174e-08
9.4001979e-08
9.4032277e-08
9.4062125e-08
9.4093599e-08
9.412585e-08
9.4161224e-08
9.4197392e-08
9.4237626e-08
9.4280518e-08
9.4325272e-08
9.4372477e-08
9.4422857e-08
9.4475643e-08
9.4531034e-08
9.4590028e-08
9.4652149e-08
9.4716322e-08
9.4782468e-08
9.4850712e-08
9.4920783e-08
9.499261e-08
9.5066779e-08
9.5145179e-08
9.5228314e-08
9.5314934e-08
9.5403916e-08
9.5496395e-08
9.5608817e-08
9.5724639e-08
9.584251e-08
9.5968035e-08
9.6103689e-08
9.6251161e-08
9.6407847e-08
9.6570782e-08
9.6743306e-08
9.6922523e-08
9.7103349e-08
9.7288834e-08
9.7485431e-08
9.7680057e-08
9.788422e-08
9.8087756e-08
9.8297932e-08
9.8511103e-08
9.8729614e-08
9.8936669e-08
9.3697157e-08
9.3724592e-08
9.3752901e-08
9.3785593e-08
9.3818375e-08
9.3852864e-08
9.3888498e-08
9.3927011e-08
9.3966775e-08
9.4010118e-08
9.4056066e-08
9.4104056e-08
9.4154416e-08
9.4207535e-08
9.4262766e-08
9.4320061e-08
9.4379884e-08
9.4441719e-08
9.4504628e-08
9.4568307e-08
9.4632624e-08
9.46972e-08
9.4761784e-08
9.4826752e-08
9.4893462e-08
9.496227e-08
9.5032265e-08
9.5102614e-08
9.5178407e-08
9.5264716e-08
9.5349847e-08
9.5439439e-08
9.5536646e-08
9.563983e-08
9.5753364e-08
9.5875093e-08
9.6002362e-08
9.6137512e-08
9.6278439e-08
9.6421343e-08
9.656847e-08
9.672467e-08
9.6879943e-08
9.7042907e-08
9.7205726e-08
9.7373805e-08
9.7544197e-08
9.7718879e-08
9.7883804e-08
9.3495386e-08
9.3526261e-08
9.3557914e-08
9.3593188e-08
9.3629018e-08
9.3666677e-08
9.3705809e-08
9.3747699e-08
9.3791225e-08
9.383801e-08
9.3887396e-08
9.3938972e-08
9.3992857e-08
9.4049179e-08
9.4107359e-08
9.4167138e-08
9.4228562e-08
9.4291059e-08
9.4353757e-08
9.4416159e-08
9.4477915e-08
9.453852e-08
9.4597586e-08
9.4655313e-08
9.4712634e-08
9.4769772e-08
9.4826079e-08
9.4884884e-08
9.4960426e-08
9.5020376e-08
9.5068613e-08
9.5133372e-08
9.5203434e-08
9.5280906e-08
9.5367106e-08
9.5459188e-08
9.5555521e-08
9.5658273e-08
9.5766139e-08
9.5876341e-08
9.5990522e-08
9.6112283e-08
9.6233959e-08
9.6361971e-08
9.6490244e-08
9.6622767e-08
9.675713e-08
9.6894957e-08
9.7024511e-08
9.3336845e-08
9.3370952e-08
9.3405854e-08
9.3443867e-08
9.348285e-08
9.3523818e-08
9.3566563e-08
9.3612038e-08
9.3659486e-08
9.371e-08
9.3763153e-08
9.3818629e-08
9.3876376e-08
9.3936314e-08
9.3997892e-08
9.4060668e-08
9.4124351e-08
9.4188304e-08
9.4251672e-08
9.4313782e-08
9.4374097e-08
9.4431983e-08
9.4486928e-08
9.4538993e-08
9.4588768e-08
9.4636355e-08
9.4681586e-08
9.472474e-08
9.4766548e-08
9.4808885e-08
9.4859703e-08
9.4905225e-08
9.4955283e-08
9.5010258e-08
9.5070612e-08
9.5135711e-08
9.5204821e-08
9.5279649e-08
9.5359243e-08
9.5441485e-08
9.5527519e-08
9.5619999e-08
9.5713055e-08
9.5811468e-08
9.5910524e-08
9.6013167e-08
9.6117413e-08
9.6224619e-08
9.6324932e-08
9.3213043e-08
9.3250242e-08
9.3288341e-08
9.3329228e-08
9.3371469e-08
9.3415875e-08
9.3462354e-08
9.3511606e-08
9.356314e-08
9.3617649e-08
9.3674867e-08
9.3734539e-08
9.3796467e-08
9.3860399e-08
9.3925787e-08
9.3992026e-08
9.4058544e-08
9.4124633e-08
9.4189417e-08
9.4252064e-08
9.4311868e-08
9.4368069e-08
9.4420041e-08
9.4467722e-08
9.4511436e-08
9.4551181e-08
9.4586916e-08
9.461939e-08
9.4651852e-08
9.4663447e-08
9.4703147e-08
9.473774e-08
9.477031e-08
9.4804808e-08
9.4843321e-08
9.488588e-08
9.4932058e-08
9.498315e-08
9.5038528e-08
9.5096661e-08
9.5158382e-08
9.5225663e-08
9.5294045e-08
9.5367077e-08
9.5441102e-08
9.5518272e-08
9.5596943e-08
9.5678231e-08
9.5753867e-08
9.3117467e-08
9.3157691e-08
9.3198981e-08
9.3242878e-08
9.328849e-08
9.3336476e-08
9.3386824e-08
9.3440046e-08
9.3495846e-08
9.3554605e-08
9.3616174e-08
9.368033e-08
9.374675e-08
9.3815038e-08
9.3884624e-08
9.3954755e-08
9.4024625e-08
9.4093442e-08
9.4160288e-08
9.4224179e-08
9.4284257e-08
9.4339636e-08
9.4389582e-08
9.4433928e-08
9.4472782e-08
9.4506042e-08
9.4533836e-08
9.4556985e-08
9.4575946e-08
9.4595839e-08
9.4610721e-08
9.4624298e-08
9.4638629e-08
9.4655268e-08
9.4675114e-08
9.4698164e-08
9.4724276e-08
9.475456e-08
9.4788718e-08
9.4825715e-08
9.4866178e-08
9.4911567e-08
9.4958519e-08
9.5009656e-08
9.506214e-08
9.5117526e-08
9.5174443e-08
9.5233811e-08
9.5288674e-08
9.304517e-08
9.3088398e-08
9.3132909e-08
9.3179957e-08
9.3229069e-08
9.3280785e-08
9.3335156e-08
9.3392549e-08
9.3452809e-08
9.3516074e-08
9.3582278e-08
9.3651208e-08
9.3722431e-08
9.3795423e-08
9.386958e-08
9.394401e-08
9.4017702e-08
9.4089777e-08
9.4159252e-08
9.4225001e-08
9.4286022e-08
9.4341305e-08
9.4390015e-08
9.4431888e-08
9.446686e-08
9.4494738e-08
9.4515769e-08
9.4530708e-08
9.4540783e-08
9.4546205e-08
9.4549045e-08
9.4550456e-08
9.4551226e-08
9.4552686e-08
9.4556001e-08
9.4561668e-08
9.4569937e-08
9.4581812e-08
9.4597254e-08
9.4615618e-08
9.4637379e-08
9.4663614e-08
9.4691819e-08
9.472391e-08
9.475769e-08
9.4794263e-08
9.4832477e-08
9.4873074e-08
9.4910216e-08
9.2992345e-08
9.3038603e-08
9.3086402e-08
9.313675e-08
9.3189509e-08
9.3245123e-08
9.3303692e-08
9.3365468e-08
9.34304e-08
9.3498435e-08
9.3569561e-08
9.3643561e-08
9.37199e-08
9.3797942e-08
9.3877035e-08
9.3956154e-08
9.4034108e-08
9.4109922e-08
9.4182534e-08
9.425068e-08
9.4313222e-08
9.436903e-08
9.4417168e-08
9.4457284e-08
9.4489172e-08
9.4512557e-08
9.4527778e-08
9.453563e-08
9.4537041e-08
9.4533236e-08
9.4525335e-08
9.4514576e-08
9.4502178e-08
9.4489548e-08
9.4477919e-08
9.4468033e-08
9.4460376e-08
9.4455861e-08
9.4454656e-08
9.4456438e-08
9.4461588e-08
9.4470898e-08
9.448255e-08
9.4497922e-08
9.4515326e-08
9.4535524e-08
9.4557542e-08
9.4581976e-08
9.4603925e-08
9.2956092e-08
9.3005443e-08
9.3056624e-08
9.3110437e-08
9.3167007e-08
9.3226703e-08
9.3289664e-08
9.335605e-08
9.3425887e-08
9.3498967e-08
9.3575311e-08
9.3654684e-08
9.3736461e-08
9.3819899e-08
9.3904289e-08
9.3988477e-08
9.4071108e-08
9.4151105e-08
9.4227316e-08
9.4298343e-08
9.4362914e-08
9.4419781e-08
9.4467911e-08
9.4506867e-08
9.4536326e-08
9.4555939e-08
9.4566121e-08
9.4567675e-08
9.4561542e-08
9.4548874e-08
9.4531017e-08
9.4509355e-08
9.448522e-08
9.4459971e-08
9.4434895e-08
9.4410969e-08
9.4388911e-08
9.4369598e-08
9.4353389e-08
9.4340232e-08
9.4330453e-08
9.4324638e-08
9.4321511e-08
9.4322047e-08
9.4324955e-08
9.4330742e-08
9.4338577e-08
9.4348923e-08
9.4357685e-08
9.2934203e-08
9.2986741e-08
9.3041427e-08
9.3098884e-08
9.3159448e-08
9.3223431e-08
9.3290998e-08
9.336224e-08
9.3437234e-08
9.3515645e-08
9.3597513e-08
9.3682576e-08
9.3770121e-08
9.3859306e-08
9.3949353e-08
9.4038986e-08
9.4126694e-08
9.4211292e-08
9.4291529e-08
9.4365874e-08
9.4432926e-08
9.4491318e-08
9.4539922e-08
9.4578221e-08
9.460579e-08
9.4622216e-08
9.4627976e-08
9.4623897e-08
9.4610891e-08
9.459022e-08
9.4563317e-08
9.4531644e-08
9.4496668e-08
9.4459767e-08
9.442231e-08
9.4385487e-08
9.4350217e-08
9.4317371e-08
9.4287472e-08
9.4260699e-08
9.4237348e-08
9.4217861e-08
9.4201394e-08
9.4188617e-08
9.4178559e-08
9.4171527e-08
9.4166815e-08
9.4164767e-08
9.4161976e-08
9.2925029e-08
9.2980872e-08
9.3039213e-08
9.3100507e-08
9.3165269e-08
9.323376e-08
9.3306169e-08
9.3382528e-08
9.3462951e-08
9.3546998e-08
9.3634709e-08
9.3725792e-08
9.3819446e-08
9.3914735e-08
9.4010804e-08
9.4106255e-08
9.4199427e-08
9.4289026e-08
9.437369e-08
9.4451757e-08
9.4521696e-08
9.4582025e-08
9.4631519e-08
9.4669586e-08
9.4695712e-08
9.4709426e-08
9.4711259e-08
9.4702062e-08
9.4682752e-08
9.4654668e-08
9.4619341e-08
9.4578331e-08
9.4533236e-08
9.448547e-08
9.4436493e-08
9.4387683e-08
9.4340142e-08
9.429476e-08
9.4252211e-08
9.4212869e-08
9.4177028e-08
9.4145026e-08
9.4116371e-08
9.40915e-08
9.4069699e-08
9.4051126e-08
9.4035174e-08
9.4022083e-08
9.4009041e-08
9.2927359e-08
9.2986655e-08
9.304882e-08
9.3114162e-08
9.3183344e-08
9.3256586e-08
9.3334094e-08
9.3415851e-08
9.3501996e-08
9.3591996e-08
9.3685887e-08
9.3783333e-08
9.3883452e-08
9.398521e-08
9.4087671e-08
9.4189314e-08
9.4288334e-08
9.4383318e-08
9.4472791e-08
9.4554955e-08
9.4628153e-08
9.4690785e-08
9.4741535e-08
9.4779731e-08
9.4804784e-08
9.4816171e-08
9.481447e-08
9.4800563e-08
9.477538e-08
9.4740345e-08
9.4697083e-08
9.4647253e-08
9.459258e-08
9.4534538e-08
9.4474685e-08
9.4414575e-08
9.435548e-08
9.4298329e-08
9.4243934e-08
9.419284e-08
9.4145355e-08
9.4101749e-08
9.4061816e-08
9.4025817e-08
9.3993249e-08
9.3964151e-08
9.3938004e-08
9.3914951e-08
9.3892699e-08
9.2940352e-08
9.3003267e-08
9.3069451e-08
9.313907e-08
9.3212913e-08
9.3291167e-08
9.3374051e-08
9.3461507e-08
9.3553687e-08
9.3649979e-08
9.3750401e-08
9.3854571e-08
9.3961522e-08
9.4070127e-08
9.4179357e-08
9.428757e-08
9.4392819e-08
9.4493565e-08
9.4588212e-08
9.4674828e-08
9.4751627e-08
9.4816896e-08
9.4869221e-08
9.4907856e-08
9.4932145e-08
9.4941516e-08
9.4936592e-08
9.4918288e-08
9.4887562e-08
9.4845917e-08
9.4795076e-08
9.47368e-08
9.4672942e-08
9.4605052e-08
9.4534796e-08
9.4463894e-08
9.4393778e-08
9.4325432e-08
9.4259799e-08
9.4197576e-08
9.4139095e-08
9.4084589e-08
9.4034084e-08
9.3987711e-08
9.3945137e-08
9.3906314e-08
9.3870792e-08
9.3838631e-08
9.380799e-08
9.2963472e-08
9.3030194e-08
9.310061e-08
9.3174752e-08
9.3253518e-08
9.3337066e-08
9.3425625e-08
9.3519101e-08
9.3617651e-08
9.372059e-08
9.3827913e-08
9.3939185e-08
9.4053354e-08
9.4169194e-08
9.4285582e-08
9.4400749e-08
9.4512604e-08
9.4619483e-08
9.471966e-08
9.4811067e-08
9.4891789e-08
9.4959996e-08
9.5014181e-08
9.5053524e-08
9.5077304e-08
9.5084911e-08
9.5077007e-08
9.5054545e-08
9.5018515e-08
9.4970505e-08
9.4912334e-08
9.484587e-08
9.4773095e-08
9.4695651e-08
9.4615319e-08
9.4533982e-08
9.4453223e-08
9.4374095e-08
9.4297665e-08
9.4224767e-08
9.4155771e-08
9.409089e-08
9.4030344e-08
9.397417e-08
9.3922173e-08
9.3874238e-08
9.3829977e-08
9.378937e-08
9.3750979e-08
9.2996445e-08
9.3067181e-08
9.3142064e-08
9.3220994e-08
9.3304965e-08
9.339411e-08
9.3488665e-08
9.3588504e-08
9.369378e-08
9.3803745e-08
9.3918358e-08
9.4037127e-08
9.4158915e-08
9.4282394e-08
9.4406338e-08
9.4528849e-08
9.4647694e-08
9.4761073e-08
9.4867127e-08
9.496365e-08
9.5048596e-08
9.5120021e-08
9.5176323e-08
9.5216606e-08
9.5240092e-08
9.5246137e-08
9.523544e-08
9.5208994e-08
9.516783e-08
9.5113616e-08
9.5048273e-08
9.497378e-08
9.4892253e-08
9.4805435e-08
9.4715235e-08
9.4623692e-08
9.4532536e-08
9.4442902e-08
9.4355974e-08
9.4272716e-08
9.4193539e-08
9.4118657e-08
9.4048453e-08
9.3982895e-08
9.3921904e-08
9.3865316e-08
9.3812794e-08
9.3764243e-08
9.3718588e-08
9.3039229e-08
9.3114207e-08
9.3193814e-08
9.3277816e-08
9.3367294e-08
9.3462362e-08
9.3563257e-08
9.3669823e-08
9.3782207e-08
9.3899595e-08
9.4021909e-08
9.4148592e-08
9.4278418e-08
9.4409954e-08
9.4541864e-08
9.4672119e-08
9.4798339e-08
9.4918584e-08
9.5030858e-08
9.5132811e-08
9.5222269e-08
9.529717e-08
9.5355819e-08
9.5397246e-08
9.5420618e-08
9.5425261e-08
9.5411913e-08
9.5381605e-08
9.5335415e-08
9.5275093e-08
9.5202663e-08
9.5120219e-08
9.5030014e-08
9.493391e-08
9.4833948e-08
9.473232e-08
9.4630905e-08
9.4530924e-08
9.4433678e-08
9.4340249e-08
9.4251102e-08
9.4166462e-08
9.4086852e-08
9.4012193e-08
9.3942504e-08
9.3877583e-08
9.3817139e-08
9.3761007e-08
9.3708444e-08
9.3091998e-08
9.3171465e-08
9.3256074e-08
9.3345452e-08
9.3440764e-08
9.3542102e-08
9.3649705e-08
9.3763388e-08
9.3883284e-08
9.4008518e-08
9.4138965e-08
9.4274e-08
9.4412302e-08
9.455233e-08
9.4692631e-08
9.4831037e-08
9.4965022e-08
9.50925e-08
9.5211329e-08
9.5319019e-08
9.5413263e-08
9.5491882e-08
9.5553088e-08
9.5595838e-08
9.5619246e-08
9.5622615e-08
9.5606718e-08
9.5572629e-08
9.5521472e-08
9.5455081e-08
9.5375584e-08
9.5285199e-08
9.518632e-08
9.508094e-08
9.4971238e-08
9.485956e-08
9.4747928e-08
9.463766e-08
9.4530171e-08
9.4426658e-08
9.4327641e-08
9.4233372e-08
9.4144497e-08
9.4060903e-08
9.3982697e-08
9.3909648e-08
9.3841508e-08
9.3778043e-08
9.3718816e-08
9.315513e-08
9.3239351e-08
9.3329263e-08
9.3424345e-08
9.3525841e-08
9.3633821e-08
9.3748527e-08
9.3869741e-08
9.3997581e-08
9.4131107e-08
9.4270144e-08
9.4413991e-08
9.4561227e-08
9.4710198e-08
9.4859328e-08
9.5006304e-08
9.5148449e-08
9.5283526e-08
9.5409244e-08
9.5522968e-08
9.5622259e-08
9.5704822e-08
9.5768775e-08
9.5813005e-08
9.5836575e-08
9.583877e-08
9.5820397e-08
9.5782571e-08
9.5726467e-08
9.5654e-08
9.5567408e-08
9.5469036e-08
9.5361429e-08
9.5246718e-08
9.5127228e-08
9.5005459e-08
9.4883575e-08
9.4762996e-08
9.4645252e-08
9.4531648e-08
9.4422768e-08
9.43189e-08
9.4220798e-08
9.4128332e-08
9.4041686e-08
9.3960608e-08
9.3884888e-08
9.3814229e-08
9.3748483e-08
9.3229203e-08
9.3318469e-08
9.3414008e-08
9.3515146e-08
9.3623201e-08
9.3738223e-08
9.3860452e-08
9.398964e-08
9.4125881e-08
9.4268174e-08
9.4416282e-08
9.4569423e-08
9.4726074e-08
9.4884458e-08
9.5042867e-08
9.5198841e-08
9.5349545e-08
9.5492587e-08
9.5625522e-08
9.5745569e-08
9.5850157e-08
9.5936875e-08
9.600375e-08
9.6049598e-08
9.6073435e-08
9.6074533e-08
9.605373e-08
9.6012185e-08
9.5951122e-08
9.5872537e-08
9.5778779e-08
9.5672333e-08
9.5555896e-08
9.5431748e-08
9.5302367e-08
9.5170405e-08
9.5038167e-08
9.4907181e-08
9.477909e-08
9.4655306e-08
9.4536487e-08
9.442296e-08
9.4315581e-08
9.4214218e-08
9.4119121e-08
9.4030025e-08
9.394676e-08
9.3868961e-08
9.3796762e-08
9.3315009e-08
9.340963e-08
9.3511148e-08
9.3618719e-08
9.3733736e-08
9.3856228e-08
9.3986431e-08
9.4124065e-08
9.4269195e-08
9.4420755e-08
9.4578443e-08
9.4741387e-08
9.4907952e-08
9.5076236e-08
9.524439e-08
9.5409799e-08
9.5569466e-08
9.5720837e-08
9.5861311e-08
9.598796e-08
9.609808e-08
9.6189149e-08
9.6259103e-08
9.630669e-08
9.6330882e-08
9.633094e-08
9.6307735e-08
9.6262467e-08
9.6196408e-08
9.6111634e-08
9.6010612e-08
9.589597e-08
9.5770566e-08
9.5636838e-08
9.5497417e-08
9.5355109e-08
9.5212358e-08
9.5070803e-08
9.4932205e-08
9.4798082e-08
9.4669168e-08
9.4545844e-08
9.442906e-08
9.4318689e-08
9.4215046e-08
9.4117859e-08
9.4026993e-08
9.394202e-08
9.3863351e-08
9.3413563e-08
9.3513875e-08
9.3621753e-08
9.3736163e-08
9.3858577e-08
9.3988998e-08
9.4127658e-08
9.427424e-08
9.4428778e-08
9.4590136e-08
9.4757938e-08
9.4931216e-08
9.5108219e-08
9.5286908e-08
9.5465283e-08
9.5640571e-08
9.5809606e-08
9.5969667e-08
9.6117993e-08
9.625151e-08
9.6367385e-08
9.6462983e-08
9.6536156e-08
9.6585586e-08
9.6610204e-08
9.6609265e-08
9.6583671e-08
9.6534661e-08
9.6463553e-08
9.6372501e-08
9.6264094e-08
9.6141114e-08
9.6006584e-08
9.5863102e-08
9.5713457e-08
9.5560607e-08
9.5407134e-08
9.5254794e-08
9.5105464e-08
9.4960775e-08
9.4821541e-08
9.4688209e-08
9.4561818e-08
9.4442258e-08
9.4329904e-08
9.4224484e-08
9.41259e-08
9.403366e-08
9.394845e-08
9.3526126e-08
9.3632495e-08
9.3747145e-08
9.3868834e-08
9.3999113e-08
9.4137958e-08
9.4285591e-08
9.4441659e-08
9.4606156e-08
9.4777874e-08
9.4956354e-08
9.5140523e-08
9.5328505e-08
9.5518117e-08
9.5707201e-08
9.5892816e-08
9.6071622e-08
9.6240725e-08
9.6397205e-08
9.6537841e-08
9.6659672e-08
9.675996e-08
9.6836474e-08
9.6887834e-08
9.6912935e-08
9.6911029e-08
9.6883048e-08
9.6830268e-08
9.6754048e-08
9.6656619e-08
9.6540699e-08
9.6409227e-08
9.6265397e-08
9.611197e-08
9.5951892e-08
9.5788269e-08
9.5623822e-08
9.5460426e-08
9.5300082e-08
9.5144534e-08
9.499469e-08
9.4851066e-08
9.4714795e-08
9.4585789e-08
9.4464486e-08
9.4350615e-08
9.4244116e-08
9.4144429e-08
9.405253e-08
9.3654239e-08
9.3767063e-08
9.3888934e-08
9.401838e-08
9.415703e-08
9.4304832e-08
9.4461996e-08
9.4628124e-08
9.4803167e-08
9.4985838e-08
9.5175587e-08
9.5371227e-08
9.5570748e-08
9.5771814e-08
9.5972101e-08
9.616849e-08
9.6357462e-08
9.6535949e-08
9.6700866e-08
9.6848849e-08
9.6976816e-08
9.708193e-08
9.7161885e-08
9.7215244e-08
9.7240873e-08
9.7238021e-08
9.7207649e-08
9.7151068e-08
9.7069671e-08
9.6965766e-08
9.6842205e-08
9.670209e-08
9.6548786e-08
9.6385216e-08
9.6214478e-08
9.6039823e-08
9.5864109e-08
9.5689338e-08
9.551764e-08
9.5350878e-08
9.5190064e-08
9.5035798e-08
9.4889304e-08
9.4750529e-08
9.4619973e-08
9.4497373e-08
9.438271e-08
9.4275354e-08
9.4176581e-08
9.3799758e-08
9.3919472e-08
9.4049058e-08
9.4186782e-08
9.4334355e-08
9.4491692e-08
9.4658986e-08
9.4835792e-08
9.5022007e-08
9.5216259e-08
9.5417897e-08
9.5625609e-08
9.5837244e-08
9.6050304e-08
9.6262286e-08
9.6469888e-08
9.6669408e-08
9.6857598e-08
9.7031208e-08
9.7186738e-08
9.732099e-08
9.7431039e-08
9.751451e-08
9.7569919e-08
9.7596105e-08
9.7592321e-08
9.7559554e-08
9.7499144e-08
9.7412513e-08
9.7302043e-08
9.7170726e-08
9.7021833e-08
9.6858893e-08
9.6684983e-08
9.650335e-08
9.6317381e-08
9.6130072e-08
9.5943559e-08
9.5760108e-08
9.5581716e-08
9.5409506e-08
9.5244175e-08
9.5087042e-08
9.49381e-08
9.4797909e-08
9.4666221e-08
9.4543058e-08
9.4427718e-08
9.4321796e-08
9.3964902e-08
9.4091987e-08
9.4229833e-08
9.4376408e-08
9.453351e-08
9.4701013e-08
9.4879089e-08
9.5067237e-08
9.5265294e-08
9.5471793e-08
9.5685968e-08
9.5906377e-08
9.6130711e-08
9.6356301e-08
9.6580461e-08
9.6799697e-08
9.7010121e-08
9.7208302e-08
9.7390827e-08
9.7554063e-08
9.769471e-08
9.7809766e-08
9.7896799e-08
9.7954285e-08
9.7981044e-08
9.7976338e-08
9.7941175e-08
9.7876921e-08
9.7785014e-08
9.7667914e-08
9.7528755e-08
9.7370978e-08
9.7198265e-08
9.7013836e-08
9.6821069e-08
9.6623486e-08
9.6424219e-08
9.622555e-08
9.6029895e-08