/*--------------------------------*- C++ -*----------------------------------*\
| =========                 |                                                 |
| \\      /  F ield         | OpenFOAM: The Open Source CFD Toolbox           |
|  \\    /   O peration     | Version:  v2006                                 |
|   \\  /    A nd           | Website:  www.openfoam.com                      |
|    \\/     M anipulation  |                                                 |
\*---------------------------------------------------------------------------*/
FoamFile
{
    version     2.0;
    format      ascii;
    class       volScalarField;
    location    "2500";
    object      Cp;
}
// * * * * * * * * * * * * * * * * * * * * * * * * * * * * * * * * * * * * * //

dimensions      [0 0 0 0 0 0 0];


internalField   nonuniform List<scalar> 
19765
(
0.14912333
0.20522914
0.35596654
0.46120247
0.56542316
0.64373484
0.73592149
0.78942726
0.85771721
0.91319821
0.95172707
0.98111472
1.0041833
1.0159347
1.018842
1.0150847
1.0050981
0.98875048
0.96585138
0.93616434
0.89874753
0.8540257
0.80600344
0.74976152
0.68158404
0.61073092
0.54993856
0.4808222
0.39425448
0.31622733
0.23481491
0.13651736
0.025645704
-0.12040837
-0.23811347
-0.32125541
-0.42782962
-0.58895175
-0.70069594
-0.82487732
-1.0286837
-1.2038884
-1.2316612
-1.3867515
-1.3801915
-1.4292513
-1.3851415
-1.3171488
-1.2305558
0.33721415
0.36590063
0.40264888
0.4467045
0.4934293
0.53840126
0.58547487
0.62502851
0.6664175
0.70738327
0.74202522
0.77075104
0.79722162
0.81576627
0.82616836
0.83328154
0.83547725
0.83017949
0.81909756
0.80120054
0.77669465
0.74707812
0.71057862
0.66759994
0.61967911
0.56721002
0.50811923
0.44355679
0.37455123
0.30045872
0.22193406
0.13986045
0.054814433
-0.030625493
-0.11518154
-0.2004663
-0.28776584
-0.3739533
-0.4536331
-0.52838183
-0.59432914
-0.64860118
-0.70066759
-0.74509547
-0.77669349
-0.80366473
-0.82419251
-0.84294524
-0.86178006
0.3295667
0.36564758
0.4064033
0.44686775
0.48695712
0.5245407
0.56143651
0.59300312
0.62421107
0.65324949
0.67895271
0.70132303
0.72126442
0.73632804
0.74596548
0.75203126
0.75416271
0.75074286
0.74150124
0.72622691
0.70486179
0.67785786
0.64490685
0.6059074
0.56185777
0.51325432
0.45907141
0.39971215
0.33621508
0.2682428
0.19662885
0.12263852
0.047481086
-0.027731671
-0.10435672
-0.18183488
-0.25780953
-0.33181476
-0.40421927
-0.47244929
-0.53581531
-0.59774557
-0.65668314
-0.71070009
-0.75987554
-0.79947666
-0.83451308
-0.8643686
-0.89195091
0.36296016
0.38650747
0.41107101
0.43713521
0.46382359
0.49037818
0.51706798
0.54142581
0.56590518
0.58970704
0.61100422
0.62976112
0.64669642
0.65980318
0.66834729
0.67408252
0.67682095
0.67481283
0.66766711
0.65512181
0.63740927
0.61543238
0.5885371
0.55619899
0.51934782
0.47866526
0.43326264
0.38319325
0.32958354
0.27239429
0.21231724
0.15055486
0.087953305
0.025595328
-0.037677897
-0.10126784
-0.16295738
-0.22199478
-0.27953615
-0.33303533
-0.38166197
-0.4290726
-0.47601877
-0.51811361
-0.55977338
-0.59813536
-0.63728731
-0.67566635
-0.71310182
0.34734115
0.36863025
0.39034108
0.4117995
0.43286086
0.45319505
0.47335956
0.49162663
0.50989516
0.52775214
0.54386229
0.55806964
0.57092785
0.5809719
0.58741185
0.59152254
0.59328963
0.59120909
0.58474186
0.5735782
0.55751239
0.53719095
0.51217976
0.48200007
0.44755689
0.4096442
0.36764321
0.32138518
0.2719339
0.21957343
0.16478082
0.10850487
0.051421941
-0.0054804831
-0.06260909
-0.11958176
-0.17513649
-0.22871129
-0.28089937
-0.3303528
-0.37694155
-0.42276087
-0.46823723
-0.51102418
-0.55399132
-0.59518134
-0.63597489
-0.67547166
-0.71380468
0.34246586
0.35784591
0.37385077
0.38978112
0.40563295
0.42104675
0.43658335
0.45071719
0.46501558
0.47906057
0.4917284
0.50286687
0.51289843
0.52064048
0.52541223
0.52816578
0.52884179
0.52620169
0.51977113
0.50926648
0.49449603
0.47609571
0.45371526
0.42682273
0.39614865
0.36234566
0.32495707
0.28390666
0.24011216
0.19386099
0.14560529
0.096174072
0.046172264
-0.0035612175
-0.053296073
-0.10270026
-0.15077897
-0.19708456
-0.24200856
-0.28460301
-0.3247772
-0.3641269
-0.40286185
-0.43984096
-0.47685003
-0.51301094
-0.54958829
-0.58647224
-0.62305758
0.32571787
0.33873701
0.35218307
0.36520319
0.3779291
0.3901142
0.40234148
0.41337823
0.42454022
0.43549455
0.44533566
0.45391982
0.46158146
0.46736038
0.47066466
0.47222094
0.4719471
0.46878932
0.46231395
0.45223307
0.43835305
0.42110059
0.40017656
0.3751572
0.34661524
0.31515693
0.28044589
0.24242567
0.2019023
0.15917676
0.11464791
0.069024243
0.022806305
-0.023253977
-0.069265773
-0.11494783
-0.15958174
-0.20278672
-0.24484595
-0.28511008
-0.3235926
-0.36136592
-0.39874502
-0.43492937
-0.47125904
-0.50713271
-0.5434684
-0.58003536
-0.61679876
0.31257762
0.3226959
0.33332249
0.34360065
0.35367851
0.36330366
0.3730072
0.38171432
0.3905426
0.39917775
0.40686182
0.41346141
0.41924249
0.42340524
0.42544285
0.42591705
0.42472628
0.42098191
0.41430584
0.40442685
0.39118296
0.37488739
0.35531024
0.33211753
0.30573659
0.27669277
0.24473178
0.20984784
0.17275064
0.13372236
0.093138826
0.051630398
0.0096472175
-0.032144192
-0.073803576
-0.11508144
-0.155379
-0.19436928
-0.23227058
-0.26855836
-0.30321865
-0.33714586
-0.37056903
-0.40294956
-0.43533967
-0.46735417
-0.4997895
-0.5325492
-0.56559751
0.29639927
0.30479866
0.31364112
0.32209065
0.3303107
0.33808657
0.34590501
0.35284913
0.35987315
0.36670005
0.37269089
0.37772345
0.38201301
0.38488468
0.38589972
0.38549969
0.38357134
0.37935128
0.37250451
0.36277614
0.35002343
0.33445907
0.31588185
0.29403579
0.26924869
0.24198301
0.21204573
0.17945381
0.14483028
0.10843716
0.070616475
0.031921996
-0.0072589639
-0.046333297
-0.0853116
-0.12396862
-0.16181924
-0.19856838
-0.23438537
-0.2688569
-0.30198638
-0.33443142
-0.3664549
-0.39760786
-0.42876885
-0.45964369
-0.49088609
-0.52244478
-0.55436638
0.28201236
0.28875097
0.29593423
0.30277383
0.30942575
0.31568329
0.32197611
0.32750294
0.33308001
0.33845146
0.34307124
0.34682489
0.34988595
0.35167704
0.35181707
0.35065613
0.34807536
0.3434169
0.33638575
0.32674778
0.31437622
0.29941884
0.28170558
0.26104391
0.23768466
0.21203265
0.18394396
0.15345936
0.12113184
0.087205143
0.052001687
0.016021356
-0.020384054
-0.056677332
-0.092844192
-0.12867266
-0.16373629
-0.19776503
-0.23089632
-0.26276975
-0.29336553
-0.32324547
-0.35263542
-0.38115708
-0.40957673
-0.4376513
-0.46597274
-0.49451451
-0.52330507
0.2671743
0.27273907
0.27870971
0.2843527
0.28981419
0.29490729
0.30001182
0.30442996
0.30886234
0.31307676
0.3166018
0.31933055
0.32140328
0.32232077
0.32174902
0.31996783
0.31685594
0.31184069
0.30466085
0.29510232
0.28304548
0.26860034
0.25161078
0.23192985
0.20975959
0.18544647
0.15888871
0.13013985
0.09969005
0.067763567
0.034659563
0.00082604766
-0.033424307
-0.067608089
-0.10169512
-0.13548736
-0.16861437
-0.20082747
-0.23224069
-0.26254229
-0.29171056
-0.32018974
-0.34820922
-0.37541141
-0.4024802
-0.42919609
-0.45607781
-0.48311166
-0.51038485
0.25352571
0.25804332
0.26294337
0.2675514
0.27200085
0.27611606
0.28022844
0.28372445
0.28720596
0.29045912
0.29307363
0.29494818
0.29619513
0.29637867
0.29520413
0.29289571
0.28933238
0.28401297
0.2767055
0.26721444
0.25542639
0.24142877
0.22507479
0.20625363
0.18513563
0.16201498
0.13682407
0.10962819
0.080865915
0.050745971
0.019551122
-0.012309931
-0.044549977
-0.076726023
-0.10879518
-0.14056536
-0.17169851
-0.2019605
-0.23144571
-0.25986894
-0.28719342
-0.3138023
-0.3399038
-0.365161
-0.39020108
-0.4148141
-0.43947883
-0.46418066
-0.48899182
0.24023148
0.24394248
0.24800201
0.25179262
0.2554343
0.2587655
0.26207549
0.2648242
0.26752991
0.26999644
0.27186396
0.27303647
0.27360336
0.2731812
0.27150821
0.26876431
0.26483023
0.25926461
0.25186051
0.24243923
0.23089376
0.21729526
0.20150464
0.1834374
0.16324159
0.14116793
0.11717491
0.091335553
0.064043201
0.035491594
0.0059466496
-0.024219345
-0.054744493
-0.085224723
-0.1156112
-0.14572054
-0.17524683
-0.20397228
-0.2319783
-0.2590057
-0.28501346
-0.31032019
-0.33512669
-0.35910143
-0.38282255
-0.40608323
-0.42931696
-0.45250624
-0.47575343
0.2278562
0.23086599
0.2341951
0.23728092
0.2402309
0.24289446
0.24552278
0.24763802
0.24968682
0.25148812
0.25272445
0.25330418
0.25329729
0.25236402
0.25027029
0.24716009
0.24291692
0.23715021
0.22967445
0.22032612
0.20900487
0.19576917
0.18048875
0.16309957
0.14373255
0.12260312
0.099690442
0.075073845
0.04910864
0.021976281
-0.0060709229
-0.034690255
-0.063638428
-0.092542393
-0.12134693
-0.14987276
-0.17783497
-0.20502687
-0.23151637
-0.25706049
-0.28160934
-0.30543953
-0.32873563
-0.35117555
-0.37329895
-0.39490021
-0.41638209
-0.43772043
-0.45900999
0.21605852
0.21850168
0.22123292
0.22374015
0.22611866
0.22822916
0.23028969
0.23187655
0.23337523
0.2346187
0.23532525
0.23540746
0.23491915
0.23355749
0.23111202
0.22769748
0.22320081
0.2172748
0.20975246
0.20048401
0.18937575
0.17647594
0.16166357
0.14489034
0.12627344
0.10599955
0.084064127
0.060550903
0.035782127
0.0099281622
-0.01677167
-0.044001337
-0.071534827
-0.099028153
-0.12642323
-0.15354689
-0.18013538
-0.20599514
-0.23118523
-0.25547981
-0.27882632
-0.3014621
-0.32356081
-0.34480627
-0.36570188
-0.38604251
-0.40619858
-0.42613921
-0.44597422
0.20501886
0.20697261
0.20918581
0.211193
0.2130787
0.21471334
0.21628579
0.21741894
0.21844577
0.21921167
0.21946541
0.21912337
0.21822563
0.21650084
0.21375877
0.21009003
0.2053854
0.19933493
0.19178767
0.18260624
0.1717034
0.15911914
0.14474187
0.12853596
0.11060741
0.091119321
0.070080377
0.04757764
0.023904998
-0.00077651663
-0.026238907
-0.052188876
-0.078414283
-0.1045957
-0.13067174
-0.15647324
-0.18175222
-0.20632505
-0.23024092
-0.25328633
-0.27540432
-0.2968023
-0.31763978
-0.33761016
-0.35718486
-0.3761611
-0.39488365
-0.41331549
-0.43156367
0.19457873
0.1961251
0.19790287
0.19948883
0.20095751
0.20218868
0.20334581
0.20409248
0.20471658
0.2050749
0.2049424
0.20423911
0.20299366
0.2009618
0.19797083
0.19409144
0.18921853
0.18307441
0.1755221
0.16643545
0.15573347
0.14344938
0.12948068
0.11380235
0.096511101
0.077750289
0.057539421
0.035967943
0.013305005
-0.010296542
-0.034619251
-0.059390175
-0.084409672
-0.1093809
-0.13424078
-0.15882525
-0.182902
-0.20629848
-0.22905694
-0.25097724
-0.27200177
-0.29231187
-0.31205557
-0.33093616
-0.34939424
-0.36723035
-0.38476373
-0.4019517
-0.41890923
0.18477927
0.18597344
0.18737309
0.18859334
0.18969994
0.19058103
0.19137789
0.19178953
0.19206491
0.19207111
0.19160574
0.19059222
0.18904951
0.18675682
0.1835567
0.17950332
0.17449575
0.16828441
0.16074457
0.15176023
0.14125646
0.12926077
0.11567935
0.10049619
0.083800345
0.065718431
0.046279007
0.025573371
0.0038490248
-0.018748183
-0.042010375
-0.065682468
-0.089575463
-0.11341238
-0.13712832
-0.16056354
-0.18349883
-0.20577089
-0.2274145
-0.24824048
-0.26818994
-0.28742247
-0.30607352
-0.32385869
-0.34118969
-0.35787262
-0.37420461
-0.39013903
-0.40579047
0.17553332
0.17642855
0.17750477
0.17841152
0.17920667
0.17978613
0.18027191
0.18039406
0.180368
0.18007022
0.17931805
0.17803819
0.17624152
0.17372776
0.17035289
0.16615728
0.16104429
0.15478892
0.14727726
0.13840252
0.12809567
0.11637921
0.10316801
0.08845314
0.07231719
0.054873287
0.036157033
0.016261336
-0.0045854841
-0.026243712
-0.048514369
-0.071158415
-0.093996413
-0.11676955
-0.13941187
-0.16176849
-0.18363298
-0.20485173
-0.22545386
-0.24526176
-0.26421755
-0.28246236
-0.30012088
-0.3169221
-0.33324998
-0.34891733
-0.36420007
-0.37904817
-0.39358068
0.16683247
0.16746833
0.16826263
0.16889586
0.169419
0.16973502
0.16994913
0.16981863
0.16952989
0.16896796
0.16796742
0.16645809
0.16444405
0.16174305
0.15822287
0.15391243
0.14871933
0.14244018
0.13497064
0.12621233
0.11610184
0.10465689
0.091801718
0.077532629
0.061926687
0.045086586
0.02705248
0.0079189959
-0.012102479
-0.032877598
-0.054215617
-0.075891838
-0.097735291
-0.11950352
-0.14112957
-0.16246323
-0.18330949
-0.20352343
-0.22312843
-0.2419572
-0.25995271
-0.27724001
-0.29393286
-0.30977487
-0.32512351
-0.33979993
-0.35406082
-0.36785441
-0.3813002
0.15861958
0.15903249
0.15958284
0.15997893
0.16026558
0.16035229
0.16032966
0.159979
0.15946154
0.15867019
0.15745469
0.15574789
0.15354824
0.1506894
0.14704966
0.14264839
0.13739736
0.1311123
0.12369741
0.11506198
0.10514782
0.093968648
0.081457898
0.06761552
0.052513761
0.036247504
0.018860034
0.00044723535
-0.018794439
-0.03873542
-0.05919268
-0.079954498
-0.10085759
-0.12167451
-0.1423377
-0.16270186
-0.18258306
-0.20184507
-0.22050666
-0.23841113
-0.2555036
-0.27189556
-0.2876912
-0.30264959
-0.31710298
-0.33088167
-0.34422424
-0.35707773
-0.36956412
0.15086999
0.15108881
0.15142585
0.15161428
0.15169357
0.15157919
0.15134903
0.15080557
0.15008825
0.14909716
0.14769543
0.14581882
0.14346106
0.14046996
0.1367332
0.13226217
0.12697276
0.12069762
0.11334859
0.10484204
0.095124574
0.084206645
0.072030224
0.058598183
0.043978574
0.028259998
0.01148815
-0.0062403576
-0.024742258
-0.043892262
-0.063514591
-0.083409279
-0.10342003
-0.1233331
-0.14308046
-0.16252173
-0.18148323
-0.19983681
-0.21759682
-0.23461643
-0.25084286
-0.26637559
-0.28130955
-0.2954196
-0.30901394
-0.32193287
-0.33439828
-0.34635718
-0.35793199
0.14354085
0.1435916
0.14374286
0.14375013
0.14364814
0.14335784
0.14294609
0.14223413
0.14134245
0.14017779
0.13861513
0.13659305
0.13410143
0.13100066
0.12718687
0.1226648
0.11735434
0.11110325
0.10383024
0.09545813
0.085937973
0.075277647
0.063426846
0.050390928
0.03623428
0.021040282
0.0048565926
-0.01221993
-0.030017725
-0.048415378
-0.067243963
-0.086314232
-0.10547634
-0.12452914
-0.14340443
-0.16196682
-0.18005254
-0.19754127
-0.21444372
-0.23062291
-0.24602893
-0.26075098
-0.2748759
-0.28819463
-0.30099265
-0.31312071
-0.32478507
-0.33593316
-0.34668859
0.13660361
0.13650792
0.13649659
0.13634507
0.13608402
0.13563941
0.13506848
0.13420916
0.13316543
0.13185014
0.13014884
0.12800283
0.12539878
0.1222084
0.1183354
0.11377901
0.10846303
0.10224865
0.095060835
0.086828329
0.077506276
0.067100541
0.055567766
0.042915493
0.029204896
0.014514913
-0.0011051719
-0.017558673
-0.034684455
-0.052364653
-0.07043683
-0.088721551
-0.10707493
-0.12530746
-0.14335087
-0.16107477
-0.17832473
-0.19498781
-0.21107138
-0.22644775
-0.24106986
-0.25501781
-0.26837074
-0.28093551
-0.29297602
-0.30435373
-0.31526042
-0.3256447
-0.33563016
0.13002341
0.12980072
0.12964762
0.12935748
0.12895735
0.12837785
0.12766788
0.12668017
0.12550439
0.124059
0.12223902
0.11998836
0.1172911
0.11402909
0.11011294
0.10553732
0.10022976
0.094063555
0.086969285
0.078881169
0.069758119
0.059604444
0.048383022
0.036103318
0.022823686
0.0086192228
-0.0064594515
-0.022316169
-0.038799133
-0.055793763
-0.073143791
-0.090678803
-0.10826049
-0.12571007
-0.14295941
-0.15988318
-0.17633582
-0.1922115
-0.20751479
-0.22212712
-0.2360046
-0.24921953
-0.26184428
-0.27370145
-0.28503476
-0.29571639
-0.30592468
-0.31560969
-0.32489522
0.12377248
0.12343956
0.1231628
0.12275164
0.12222999
0.12153279
0.12070164
0.11960253
0.1183126
0.11675554
0.11483483
0.1124969
0.10972374
0.10640637
0.10246164
0.097880448
0.092593974
0.086486339
0.079493257
0.071553976
0.062630882
0.052727103
0.041811102
0.02989404
0.017031774
0.0032960401
-0.011261468
-0.026545397
-0.042412349
-0.058750819
-0.075410415
-0.092229045
-0.10907362
-0.1257753
-0.14226622
-0.158426
-0.17411757
-0.18924175
-0.2038006
-0.21768422
-0.23085184
-0.24336879
-0.25530118
-0.26648679
-0.27715034
-0.28717461
-0.29672543
-0.30575479
-0.31438589
0.11782144
0.1173935
0.11700949
0.1164933
0.11586614
0.11506689
0.11413084
0.11293582
0.11154806
0.10989608
0.10789098
0.10548161
0.10264832
0.099290404
0.095330402
0.090756146
0.085502292
0.07946273
0.072577855
0.064791544
0.056069383
0.046413619
0.035797714
0.02423431
0.011777036
-0.0015053503
-0.015560325
-0.0302936
-0.045569373
-0.061279051
-0.07727785
-0.093411379
-0.10955146
-0.12553848
-0.14130497
-0.15673545
-0.17170087
-0.18610842
-0.19995803
-0.21314814
-0.22564125
-0.23749663
-0.24877489
-0.25932851
-0.26936454
-0.27877615
-0.28771755
-0.29614287
-0.30417468
0.11214506
0.1116356
0.11115901
0.11055215
0.10983392
0.10894682
0.10792067
0.10664391
0.10517324
0.10344165
0.10136713
0.098900844
0.096021853
0.092636988
0.088673971
0.084118138
0.078907486
0.072944728
0.066174532
0.058545045
0.050024794
0.040615386
0.030294747
0.019076802
0.0070131677
-0.0058300736
-0.019399794
-0.033602994
-0.048310772
-0.063417323
-0.078783225
-0.094261234
-0.10972782
-0.1250319
-0.1401065
-0.15484095
-0.16911378
-0.18283812
-0.19601205
-0.2085419
-0.2203933
-0.23162013
-0.24227796
-0.25223326
-0.2616765
-0.2705109
-0.27887992
-0.28674001
-0.29421263
0.10671849
0.10613992
0.10558421
0.10489991
0.10410391
0.10314211
0.10203953
0.10069417
0.099154372
0.097357308
0.095227194
0.092717418
0.089806056
0.086406792
0.082452101
0.077925311
0.072767618
0.066889721
0.060240198
0.052771132
0.044453756
0.035289219
0.025259429
0.014379405
0.0026989198
-0.0097183814
-0.022818983
-0.036511369
-0.050672946
-0.065200603
-0.079960055
-0.094810706
-0.10963342
-0.12428504
-0.13869917
-0.1527698
-0.1663826
-0.17945631
-0.19198743
-0.20388978
-0.2151321
-0.2257636
-0.23583537
-0.24522723
-0.25411435
-0.26240959
-0.27024645
-0.27758385
-0.284542
0.1015198
0.10088344
0.10026088
0.099511283
0.098649776
0.097625419
0.096459067
0.095057316
0.093461209
0.091611788
0.089438917
0.086898117
0.083966746
0.080564731
0.076628915
0.07214103
0.067045333
0.06125976
0.054736479
0.047431201
0.039317638
0.030396632
0.020653621
0.010104544
-0.001202544
-0.013206252
-0.025852886
-0.039052585
-0.052688564
-0.066660339
-0.080838553
-0.095088812
-0.10929616
-0.12332475
-0.13710883
-0.1505469
-0.16353133
-0.17598605
-0.18790617
-0.19921255
-0.2098769
-0.21994418
-0.22946147
-0.23832108
-0.24668396
-0.25447214
-0.26180989
-0.26865871
-0.27513717
0.096528402
0.095844726
0.095166698
0.094363106
0.09344754
0.092371997
0.0911537
0.089707018
0.088066577
0.086177038
0.083973398
0.081413218
0.078473354
0.075079447
0.071172354
0.066732565
0.061707261
0.056020951
0.049629101
0.042490765
0.034581926
0.025903228
0.016443227
0.0062186151
-0.0047241841
-0.016325895
-0.028532845
-0.041256999
-0.054386946
-0.067824792
-0.081445916
-0.09512173
-0.10874122
-0.12217536
-0.13535904
-0.14819507
-0.16058209
-0.17244884
-0.18378922
-0.1945307
-0.20464782
-0.21418184
-0.22317629
-0.23153527
-0.2394066
-0.24672107
-0.25359443
-0.25999079
-0.26602699
0.091726111
0.091004827
0.090281863
0.089434773
0.088475819
0.08735973
0.086100555
0.084619703
0.082946158
0.081027955
0.078804768
0.076236109
0.073298517
0.069922866
0.066053714
0.06167061
0.056723522
0.051142941
0.044887368
0.037918937
0.030215701
0.021778192
0.012597697
0.002691505
-0.0078955374
-0.019106172
-0.030886952
-0.043151818
-0.055794379
-0.06871931
-0.081806564
-0.094932984
-0.10799132
-0.12085882
-0.13347109
-0.14573497
-0.15755494
-0.16886413
-0.17965538
-0.18986224
-0.19946192
-0.20849229
-0.21699366
-0.22488109
-0.23229026
-0.23916014
-0.24559863
-0.25157249
-0.25719652
0.087096472
0.086346633
0.085588548
0.084707793
0.08371546
0.082568833
0.081279178
0.079774296
0.0780782
0.07614208
0.073909878
0.071342965
0.068417722
0.065069826
0.061247257
0.056928874
0.052067303
0.04659849
0.040483726
0.033687984
0.026191201
0.017993853
0.0090896043
-0.00050381167
-0.010743104
-0.021572967
-0.032940376
-0.044761405
-0.056934383
-0.069366569
-0.081942327
-0.094543621
-0.10706677
-0.11939484
-0.13146411
-0.14318525
-0.15446809
-0.16524977
-0.17552213
-0.18522437
-0.19433615
-0.20289236
-0.21093046
-0.21837576
-0.22535279
-0.23180829
-0.23784291
-0.24342607
-0.24867046
0.08262527
0.08185528
0.081071186
0.080165938
0.079149589
0.077981814
0.076671435
0.075152066
0.073443332
0.071499373
0.069268033
0.066712458
0.063809
0.060497755
0.056729869
0.05248373
0.047714496
0.042363091
0.036393381
0.029772949
0.022483442
0.014525319
0.0058942821
-0.0033916285
-0.013290682
-0.023749492
-0.034715658
-0.046107539
-0.05782795
-0.069786762
-0.081872624
-0.093972334
-0.10598562
-0.11780091
-0.12935515
-0.14056256
-0.15133785
-0.16162175
-0.17140512
-0.18063229
-0.18928514
-0.19739579
-0.20499906
-0.21202969
-0.21860188
-0.2246696
-0.23032675
-0.23554552
-0.24043609
0.078300125
0.077517797
0.076716168
0.075794989
0.074763385
0.073583268
0.072261309
0.070736419
0.069024345
0.067081985
0.064860761
0.062325508
0.05945266
0.056186388
0.052480772
0.048313914
0.043643386
0.03841466
0.032593978
0.026151327
0.019069896
0.011350149
0.0029895112
-0.0059938121
-0.01555966
-0.025656559
-0.036232949
-0.047209636
-0.05849373
-0.069997771
-0.08161459
-0.093235576
-0.10476372
-0.11609241
-0.1271592
-0.1378816
-0.1481787
-0.15799441
-0.16731858
-0.17610021
-0.18432313
-0.192017
-0.19921427
-0.20585847
-0.21205439
-0.21776286
-0.22307156
-0.22795544
-0.23252211
0.074110752
0.073323283
0.072511935
0.071582759
0.070544041
0.069359791
0.068034779
0.066512751
0.064806021
0.062874067
0.060671597
0.058165056
0.055331053
0.052117518
0.048481262
0.044400258
0.039834375
0.03473325
0.029065321
0.022802782
0.01593021
0.0084480892
0.00035526592
-0.0083300313
-0.017569235
-0.027312792
-0.037510229
-0.04808494
-0.058948201
-0.070015305
-0.081183189
-0.092347633
-0.10341478
-0.11428258
-0.1248892
-0.13515509
-0.14500325
-0.15438029
-0.16327501
-0.17164048
-0.1794622
-0.18676741
-0.19358629
-0.19987035
-0.20571554
-0.211089
-0.21607258
-0.2206441
-0.22490815
0.070048601
0.069262594
0.068448717
0.067518867
0.066480568
0.065299796
0.06397964
0.062468265
0.060774945
0.058861576
0.056685888
0.054215858
0.051428351
0.048274774
0.044714482
0.040725453
0.036269743
0.031300809
0.025789119
0.019708895
0.013045955
0.0058008157
-0.002026549
-0.01041798
-0.019336621
-0.028734865
-0.038563497
-0.048748701
-0.059205819
-0.069853018
-0.080591296
-0.091320686
-0.10195039
-0.11238261
-0.12255605
-0.13239379
-0.14182223
-0.15079025
-0.15928544
-0.16726444
-0.17471414
-0.18165958
-0.18812891
-0.19408109
-0.19960413
-0.20467122
-0.20935891
-0.21364787
-0.21763961
0.066107057
0.065328461
0.064518575
0.063594715
0.06256372
0.061393402
0.060085367
0.058591821
0.056919346
0.055032101
0.052890603
0.050464291
0.047730352
0.044643417
0.041165213
0.037273841
0.032933437
0.028100964
0.022748773
0.016852945
0.010400408
0.0033917045
-0.0041723693
-0.012273737
-0.020877405
-0.029937743
-0.039406963
-0.049214317
-0.059279141
-0.069522601
-0.079849771
-0.09016484
-0.10038003
-0.11040153
-0.12016851
-0.12960638
-0.13864441
-0.14723321
-0.15535902
-0.16298139
-0.17008816
-0.17670207
-0.18284909
-0.1884947
-0.19371929
-0.1985014
-0.20291247
-0.20693623
-0.21067051
0.062280895
0.061515048
0.060715039
0.059803198
0.058785753
0.05763223
0.056342929
0.054873753
0.05322891
0.05137468
0.049274155
0.046898171
0.044224297
0.041210154
0.037819689
0.034031223
0.029810873
0.025118827
0.019929178
0.014219718
0.0079783647
0.0012056641
-0.006097003
-0.013911697
-0.022205462
-0.030934689
-0.040053171
-0.049493475
-0.059178933
-0.069033879
-0.078967503
-0.088888148
-0.098711072
-0.10834622
-0.11773322
-0.12679944
-0.1354765
-0.14371627
-0.15150338
-0.15879974
-0.16559383
-0.17190627
-0.17776116
-0.18313019
-0.18808716
-0.19261593
-0.19678351
-0.20057646
-0.20408924
0.058566688
0.0578182
0.057033235
0.056138722
0.055140371
0.054009292
0.052744646
0.051305715
0.049694624
0.047879635
0.045826228
0.04350658
0.040898692
0.037962963
0.034665421
0.030984689
0.026888771
0.022340819
0.017316551
0.01179533
0.0057659537
-0.00077105174
-0.0078139254
-0.015344954
-0.023333339
-0.031737543
-0.040513158
-0.049596273
-0.058914288
-0.068394872
-0.077951463
-0.087496618
-0.096948723
-0.10622133
-0.11525448
-0.12397721
-0.13232296
-0.14024428
-0.14772386
-0.15472521
-0.16123684
-0.16727676
-0.17286671
-0.17798328
-0.18269346
-0.18698541
-0.19092158
-0.1944917
-0.19778612
0.054961727
0.05423462
0.053469247
0.052596733
0.051622363
0.050518714
0.049283963
0.047880481
0.046308585
0.044538392
0.04253761
0.040279701
0.037743147
0.034890934
0.031691042
0.028122462
0.024154991
0.019754518
0.014898272
0.0095670638
0.0037504807
-0.0025510013
-0.0093354154
-0.016585366
-0.024272322
-0.032356853
-0.040796595
-0.049531357
-0.058492707
-0.067611879
-0.076806722
-0.085994199
-0.095095986
-0.10402917
-0.11273422
-0.12114152
-0.12918585
-0.13681993
-0.14402416
-0.15076307
-0.15702484
-0.16282513
-0.16818386
-0.17308263
-0.17758324
-0.18167846
-0.18542735
-0.18882208
-0.19195021
0.051465151
0.050762625
0.050020583
0.049173946
0.048227672
0.047155689
0.045955332
0.044591799
0.043063842
0.041343319
0.039400022
0.037208653
0.034748219
0.031984115
0.028886152
0.025433747
0.021598396
0.01734851
0.012662735
0.0075232246
0.0019202723
-0.0041457179
-0.010672724
-0.017643749
-0.025032626
-0.032802052
-0.040911958
-0.04930607
-0.057920258
-0.066689555
-0.075536516
-0.084382785
-0.093153587
-0.10176956
-0.11017166
-0.1182914
-0.12606442
-0.13344302
-0.14040485
-0.14691444
-0.15295863
-0.15854966
-0.16370434
-0.16840701
-0.17271302
-0.17661793
-0.18017664
-0.1833844
-0.18632485
0.048075586
0.047400401
0.04668489
0.045867446
0.044952767
0.043916047
0.042753907
0.04143415
0.039954195
0.038287548
0.036405959
0.034285339
0.03190526
0.029233365
0.026241187
0.022908603
0.019208716
0.015112262
0.010599221
0.005653004
0.00026454986
-0.0055658267
-0.011836173
-0.01852995
-0.025623461
-0.033081526
-0.040866621
-0.04892657
-0.057201669
-0.065631059
-0.074142329
-0.082662253
-0.091119936
-0.099439685
-0.10756312
-0.11542276
-0.12295476
-0.13011053
-0.13686461
-0.14318085
-0.1490445
-0.15446481
-0.15945672
-0.16400839
-0.16817156
-0.17194589
-0.17538432
-0.17848352
-0.18132611
0.044794161
0.044148124
0.043461359
0.042675519
0.041795066
0.040796395
0.039675518
0.038402641
0.036974049
0.035364815
0.033548533
0.031502295
0.029206278
0.026630226
0.023747285
0.020537817
0.016976432
0.013036013
0.0086977953
0.003946392
-0.0012266556
-0.0068211303
-0.012835246
-0.019252962
-0.026053146
-0.033202701
-0.040666901
-0.048397826
-0.056340339
-0.064437989
-0.072623878
-0.080830427
-0.088991037
-0.097033928
-0.10490169
-0.11252792
-0.1198491
-0.12681526
-0.13339711
-0.13955649
-0.14527521
-0.1505573
-0.15541282
-0.15982948
-0.16385179
-0.16747989
-0.1707623
-0.17369902
-0.17636873
0.041619256
0.041004111
0.040347988
0.03959582
0.038751751
0.037793382
0.036716206
0.035492697
0.034118193
0.032569288
0.030821325
0.028852561
0.026643818
0.024166806
0.021396186
0.018312813
0.0148927
0.011110689
0.0069492108
0.002394045
-0.0025626836
-0.0079208586
-0.013678928
-0.019821355
-0.026329622
-0.033172574
-0.040318545
-0.047724034
-0.055338564
-0.063110519
-0.070979025
-0.078882845
-0.086760108
-0.094543342
-0.10217664
-0.10959505
-0.11673542
-0.12354613
-0.12999385
-0.13603778
-0.14165632
-0.14684948
-0.15162509
-0.15597383
-0.15993849
-0.16352343
-0.16677695
-0.16969898
-0.17236944
0.038554029
0.037970207
0.037345281
0.036627679
0.035821075
0.034904329
0.033872451
0.032700072
0.031381711
0.029895443
0.028218257
0.026329558
0.024210846
0.021835679
0.019180132
0.016225547
0.012949207
0.0093277271
0.0053446746
0.00098700647
-0.0037525559
-0.008873988
-0.014376001
-0.020243534
-0.026460714
-0.032998127
-0.039827395
-0.046909467
-0.054198595
-0.061648405
-0.069204723
-0.076813386
-0.084417756
-0.091955345
-0.099372653
-0.10660695
-0.11359572
-0.12028538
-0.12663765
-0.13260712
-0.13816562
-0.14330463
-0.14802323
-0.15230648
-0.15618641
-0.15966413
-0.16278137
-0.16554295
-0.16802251
0.035594745
0.035043254
0.034450273
0.033768192
0.032999963
0.03212583
0.031140388
0.030020392
0.028759692
0.027337852
0.02573343
0.023926964
0.021900655
0.019629791
0.017091753
0.01426835
0.01113801
0.007678942
0.0038758131
-0.00028316852
-0.0048046247
-0.0096885861
-0.014933997
-0.020526259
-0.026452342
-0.032684435
-0.039197632
-0.045957126
-0.052921787
-0.060050947
-0.067297573
-0.074615349
-0.081953312
-0.089254995
-0.096470747
-0.10354142
-0.11040596
-0.11700922
-0.1233081
-0.12925254
-0.13480874
-0.13996275
-0.14471092
-0.1490413
-0.15298683
-0.15655422
-0.1597873
-0.16268833
-0.16533426
0.032748277
0.032227715
0.03166531
0.031017809
0.030287286
0.029455455
0.028516545
0.027449368
0.026247214
0.024891107
0.023361066
0.02163869
0.019706854
0.017542446
0.015124078
0.012434047
0.0094518319
0.0061570401
0.0025353668
-0.0014236033
-0.0057257375
-0.010371086
-0.015358761
-0.020674651
-0.026308648
-0.032234203
-0.038430281
-0.044866035
-0.05150493
-0.058312493
-0.065249268
-0.072277231
-0.079351481
-0.086422981
-0.093447615
-0.10037148
-0.10713606
-0.11368508
-0.11997021
-0.12593428
-0.13153275
-0.13673728
-0.14152741
-0.1458759
-0.14979581
-0.153283
-0.15636894
-0.15906475
-0.161435
0.030006037
0.029516641
0.028984717
0.028371643
0.027678528
0.026888712
0.02599625
0.02498206
0.023839062
0.022549724
0.021095435
0.01945878
0.017623294
0.015567365
0.01327077
0.010716294
0.0078842888
0.0047554164
0.0013162644
-0.0024419759
-0.0065243107
-0.010930867
-0.015660894
-0.020700646
-0.026042189
-0.031658994
-0.037534542
-0.043641826
-0.049948805
-0.056428239
-0.063048885
-0.069781428
-0.076587652
-0.083428264
-0.090266898
-0.09705691
-0.10374367
-0.11027114
-0.11658716
-0.12262953
-0.12834722
-0.13370601
-0.13868339
-0.14325675
-0.1474447
-0.1512517
-0.15471543
-0.15783809
-0.16069318
0.027382455
0.026919526
0.026414086
0.025831812
0.025173203
0.024423158
0.02357567
0.022613589
0.021529579
0.020307511
0.018930093
0.017380825
0.015643753
0.01369846
0.011525584
0.0091082396
0.0064274606
0.0034647397
0.00020762265
-0.003350672
-0.0072141917
-0.011383185
-0.015856854
-0.020621621
-0.02567144
-0.030979211
-0.036532999
-0.042308039
-0.048276311
-0.054418551
-0.060710657
-0.067132947
-0.07365474
-0.080249973
-0.086893052
-0.093548015
-0.10016678
-0.10669605
-0.1130803
-0.11924894
-0.12513463
-0.13067861
-0.13582646
-0.14052103
-0.14474076
-0.14846178
-0.15169478
-0.15445613
-0.15679441
0.024856989
0.024420168
0.023940872
0.023388423
0.022762969
0.022051017
0.021247011
0.020336014
0.019310963
0.018157185
0.016858538
0.015399027
0.013762717
0.011929863
0.0098817151
0.0076019292
0.0050727156
0.0022767148
-0.0007974754
-0.0041541792
-0.0077962362
-0.011723719