/*--------------------------------*- C++ -*----------------------------------*\
| =========                 |                                                 |
| \\      /  F ield         | OpenFOAM: The Open Source CFD Toolbox           |
|  \\    /   O peration     | Version:  v2006                                 |
|   \\  /    A nd           | Website:  www.openfoam.com                      |
|    \\/     M anipulation  |                                                 |
\*---------------------------------------------------------------------------*/
FoamFile
{
    version     2.0;
    format      ascii;
    class       volScalarField;
    location    "2500";
    object      Cx;
}
// * * * * * * * * * * * * * * * * * * * * * * * * * * * * * * * * * * * * * //

dimensions      [0 1 0 0 0 0 0];


internalField   nonuniform List<scalar> 
19765
(
0.022634151
0.019098432
0.016108949
0.013552558
0.011308621
0.0093238533
0.0075973869
0.0060793816
0.0047602056
0.0036818308
0.0027164715
0.001796293
0.00096221383
0.00020858445
-0.00051836094
-0.0011543808
-0.0016366197
-0.0020387859
-0.0024230407
-0.0027864873
-0.0031115733
-0.0033581369
-0.0035364402
-0.003684979
-0.0037577932
-0.0036927024
-0.0035388487
-0.0033549868
-0.0031003829
-0.0027692659
-0.0024032053
-0.0020161723
-0.0016110352
-0.0011134567
-0.00047321149
0.00024023824
0.00097908022
0.0018107742
0.0027418447
0.0037206481
0.0048240422
0.0061665506
0.0076981795
0.0094545409
0.011479587
0.013782867
0.016425581
0.019414062
0.022768215
0.021428455
0.017726041
0.01455307
0.011795887
0.0093334889
0.0071122708
0.0051313039
0.0033408192
0.0017324334
0.00034854595
-0.00093727662
-0.0021898562
-0.0033645074
-0.0044649181
-0.0055393784
-0.0065157814
-0.0073291724
-0.00804827
-0.008725724
-0.009351696
-0.0099014316
-0.010328832
-0.01064075
-0.010870651
-0.01097018
-0.010878307
-0.010643162
-0.010325814
-0.0098905273
-0.0093346719
-0.0087061264
-0.0080259317
-0.0073038969
-0.0064756656
-0.0054942852
-0.0044332311
-0.0033475306
-0.002175493
-0.00091206426
0.00038717793
0.001795999
0.0034277655
0.0052318537
0.0072426535
0.0095040773
0.012025698
0.014869023
0.018040988
0.021562218
0.020151742
0.016272817
0.01290555
0.0099357439
0.0072419918
0.0047703362
0.0025197246
0.00044048194
-0.0014747402
-0.003182979
-0.0048090243
-0.0064147966
-0.0079521089
-0.0094216769
-0.010866399
-0.012207419
-0.013375411
-0.014432616
-0.015423078
-0.016329558
-0.017119969
-0.017741819
-0.018197107
-0.018514568
-0.018643281
-0.018522186
-0.018199516
-0.017738859
-0.017109199
-0.016312641
-0.015403609
-0.014410429
-0.013350307
-0.012167733
-0.01082139
-0.0093900107
-0.0079350924
-0.006400516
-0.0047839334
-0.0031444992
-0.0014114094
0.000527204
0.002620025
0.0049004022
0.0074121824
0.010165027
0.013220785
0.01658704
0.020285187
0.018799828
0.014733998
0.011160993
0.0079660332
0.0050272797
0.0022903876
-0.00024586672
-0.0026310379
-0.0048715551
-0.0069237596
-0.0089105774
-0.010891012
-0.012813388
-0.014674822
-0.016512699
-0.018241649
-0.019786783
-0.021203082
-0.02252605
-0.023730593
-0.024776957
-0.025605832
-0.026213651
-0.02662435
-0.026784283
-0.026631939
-0.026216057
-0.025602904
-0.024766267
-0.023713752
-0.022506673
-0.021181001
-0.019761801
-0.018202244
-0.016467788
-0.014643203
-0.012796366
-0.010876797
-0.0088855889
-0.0068854162
-0.0048084411
-0.0025445452
-0.00014582479
0.002420123
0.005197051
0.0081947588
0.011475466
0.015047454
0.018932936
0.017368284
0.013104542
0.0093136815
0.0058803023
0.0026820989
-0.00033569141
-0.0031745019
-0.0058837402
-0.0084689774
-0.010885738
-0.013254898
-0.015632466
-0.017963187
-0.020240111
-0.022494894
-0.024635578
-0.026580909
-0.028378006
-0.030053609
-0.031574291
-0.032892224
-0.033940856
-0.034710537
-0.035220211
-0.035413348
-0.035227775
-0.034712937
-0.03393795
-0.032881594
-0.031557514
-0.030034308
-0.028356013
-0.026556028
-0.024596388
-0.022450093
-0.020208555
-0.017946178
-0.015618309
-0.013230002
-0.010847523
-0.008406072
-0.0057974848
-0.0030747295
-0.00020630246
0.0028514277
0.006108438
0.0096273488
0.013417188
0.017501037
0.015852419
0.011379111
0.0073575645
0.0036717182
0.00019876765
-0.0031164983
-0.0062757556
-0.0093282388
-0.012278689
-0.015081703
-0.017855939
-0.020654294
-0.023417787
-0.026135011
-0.028831618
-0.031408842
-0.033778423
-0.035979072
-0.038028395
-0.039884135
-0.041489938
-0.042771567
-0.043712836
-0.04432745
-0.044555823
-0.04433499
-0.04371523
-0.042768679
-0.041479358
-0.039867417
-0.038009163
-0.035957159
-0.033753634
-0.031369833
-0.028786935
-0.026103528
-0.023400804
-0.02064019
-0.017831131
-0.015043615
-0.01221599
-0.0092422305
-0.0061762655
-0.0029874732
0.00036762916
0.0038992297
0.0076703782
0.011690898
0.015984797
0.014247268
0.0095520511
0.0052862329
0.0013330448
-0.0024308489
-0.0060611391
-0.0095597734
-0.012975788
-0.016313103
-0.019525281
-0.022728601
-0.025972708
-0.029194713
-0.032378393
-0.035543083
-0.03858291
-0.04140203
-0.044030207
-0.046475461
-0.048686184
-0.050597
-0.052125531
-0.053248613
-0.05397443
-0.054240159
-0.053981946
-0.053251
-0.052122658
-0.050586465
-0.048669523
-0.046456296
-0.044008372
-0.041377328
-0.038544065
-0.035498527
-0.032346993
-0.029177765
-0.025958656
-0.022703881
-0.01948732
-0.016250613
-0.012890039
-0.0094605797
-0.0059324967
-0.0022624811
0.001559896
0.0055981426
0.0098629309
0.014379249
0.012547571
0.0076173776
0.0030929005
-0.0011433796
-0.005215365
-0.0091792573
-0.013037303
-0.016838317
-0.020585388
-0.024230949
-0.027888735
-0.031604977
-0.035312676
-0.038990441
-0.042650946
-0.046180856
-0.049476194
-0.052557221
-0.055421863
-0.058008602
-0.060242523
-0.062032617
-0.063348298
-0.064191922
-0.064497236
-0.064199412
-0.063350678
-0.062029757
-0.06023203
-0.057991999
-0.055402765
-0.052535464
-0.049451581
-0.046142168
-0.042606525
-0.038959131
-0.035295769
-0.031590976
-0.027864103
-0.024193118
-0.020523112
-0.016752839
-0.012938422
-0.0090510182
-0.0050475189
-0.00091722712
0.0034038529
0.0079272963
0.012679133
0.01074776
0.0055687516
0.0007703814
-0.0037656683
-0.0081639024
-0.012481066
-0.01671973
-0.020928464
-0.025109508
-0.029214067
-0.03335317
-0.03756945
-0.041791577
-0.04599264
-0.050178282
-0.054227306
-0.058027052
-0.061587702
-0.064896527
-0.06788152
-0.070457664
-0.072524809
-0.074044487
-0.075012893
-0.075360144
-0.075020358
-0.07404686
-0.072521961
-0.070447212
-0.067864976
-0.064877497
-0.061566022
-0.058002528
-0.054188772
-0.050134005
-0.045961428
-0.041774717
-0.037555501
-0.033328627
-0.02917637
-0.025047452
-0.020843271
-0.016621177
-0.012353252
-0.0079966079
-0.0035402553
0.0010803201
0.0058776528
0.010878878
0.0088419372
0.0033994614
-0.0016889334
-0.0065424124
-0.01128612
-0.015977379
-0.020619112
-0.025259616
-0.029900259
-0.034490921
-0.039139753
-0.043885597
-0.048652547
-0.053407814
-0.058149609
-0.062748443
-0.067082409
-0.071151005
-0.074930247
-0.078337016
-0.081275603
-0.083636176
-0.085371907
-0.086472472
-0.086864143
-0.08647991
-0.085374272
-0.083633341
-0.081265193
-0.078320533
-0.074911288
-0.071129406
-0.067057977
-0.062710065
-0.058105485
-0.053376707
-0.048635739
-0.043871701
-0.039115302
-0.034453363
-0.029838432
-0.025174724
-0.020520906
-0.015850014
-0.011119409
-0.0063177821
-0.0013800682
0.0037072855
0.0089725875
0.0068238599
0.0011023999
-0.0042931013
-0.009482709
-0.014592248
-0.01967965
-0.024748218
-0.029845954
-0.034973319
-0.04007877
-0.045267403
-0.050574059
-0.055917996
-0.061260174
-0.066590946
-0.071772064
-0.076671793
-0.081278308
-0.085555728
-0.089409166
-0.092731592
-0.09540292
-0.097367458
-0.098607985
-0.099046704
-0.098615395
-0.097369814
-0.095400097
-0.092721224
-0.089392746
-0.085536843
-0.081256794
-0.076647456
-0.071733844
-0.066546984
-0.061229179
-0.055901245
-0.050560218
-0.045243049
-0.040041357
-0.034911732
-0.029761379
-0.024650378
-0.01955276
-0.014426154
-0.0092589071
-0.0039853727
0.0014090838
0.0069540147
0.0046869156
-0.0013299588
-0.0070506542
-0.012596191
-0.018093115
-0.023600008
-0.029120574
-0.034702497
-0.040345295
-0.0459959
-0.051756169
-0.057656713
-0.063611679
-0.069575388
-0.075529879
-0.081327648
-0.086826522
-0.092002684
-0.096807666
-0.10113412
-0.10486303
-0.10786345
-0.11007029
-0.11145904
-0.11194759
-0.11146642
-0.11007264
-0.10786064
-0.10485271
-0.10111777
-0.096788857
-0.091981258
-0.086802285
-0.08128959
-0.075486089
-0.069544511
-0.06359499
-0.05764293
-0.051731915
-0.04595864
-0.040283958
-0.034618257
-0.029023121
-0.023473618
-0.017927674
-0.012373266
-0.0067441292
-0.001024482
0.0048165465
0.0024241031
-0.0039055838
-0.0099706267
-0.01589306
-0.021800193
-0.027751294
-0.0337505
-0.03984515
-0.046033776
-0.052261681
-0.058627287
-0.065156736
-0.071758766
-0.078380655
-0.084995645
-0.091446439
-0.097579795
-0.10335919
-0.10872284
-0.1135502
-0.11770957
-0.12105849
-0.12352193
-0.12506764
-0.12560895
-0.12507499
-0.12352427
-0.12105569
-0.11769929
-0.11353392
-0.10870411
-0.10333786
-0.097555662
-0.091408551
-0.084952037
-0.078349905
-0.071742143
-0.065143013
-0.058603138
-0.05222458
-0.045972702
-0.039761265
-0.033653456
-0.027625435
-0.021635443
-0.015671063
-0.0096653762
-0.0036013847
0.00255318
2.8009112e-05
-0.0066329131
-0.013062585
-0.019384116
-0.025725625
-0.032147109
-0.038653163
-0.045290757
-0.05205739
-0.058896628
-0.065903253
-0.073098679
-0.080385923
-0.08770479
-0.095019216
-0.10216154
-0.10896679
-0.11538498
-0.12134023
-0.12669803
-0.13131322
-0.1350312
-0.13776636
-0.13947829
-0.14007548
-0.13948561
-0.13776869
-0.13502841
-0.13130299
-0.12668182
-0.12132159
-0.11536374
-0.10894277
-0.10212383
-0.094975801
-0.087674176
-0.080369371
-0.073085018
-0.065879213
-0.058859695
-0.051996593
-0.045207246
-0.038556551
-0.03202181
-0.025561606
-0.019163102
-0.012758684
-0.0063300668
0.00015649997
-0.0025092168
-0.0095208823
-0.016336659
-0.023080797
-0.029882272
-0.036801853
-0.043844623
-0.051057156
-0.058435865
-0.065922469
-0.07360789
-0.081508545
-0.089521392
-0.097578318
-0.1056334
-0.11350803
-0.12102477
-0.1281194
-0.13470112
-0.14062062
-0.14571851
-0.14982729
-0.1528502
-0.15473815
-0.15539451
-0.15474543
-0.15285251
-0.14982452
-0.14570833
-0.14060448
-0.13468257
-0.12809827
-0.12100087
-0.1134705
-0.10559019
-0.097547847
-0.089504916
-0.08149495
-0.073583966
-0.065885713
-0.05837536
-0.050974041
-0.043748468
-0.036677146
-0.029719027
-0.022860823
-0.016034188
-0.0092194682
-0.0023813458
-0.0051958873
-0.012578953
-0.019803576
-0.026995214
-0.034283752
-0.041730775
-0.049341886
-0.057163237
-0.065190094
-0.073362215
-0.081766433
-0.090413875
-0.09919509
-0.10803357
-0.11687296
-0.12552305
-0.13379322
-0.14160416
-0.14884926
-0.15536355
-0.1609726
-0.16549521
-0.16882282
-0.17089715
-0.17161618
-0.1709044
-0.16882512
-0.16549246
-0.16096247
-0.1553475
-0.1488308
-0.14158313
-0.13376944
-0.12548572
-0.11682997
-0.10800325
-0.099178695
-0.09040035
-0.081742631
-0.073325646
-0.065129896
-0.05708054
-0.049246216
-0.041606696
-0.034121326
-0.026776342
-0.019502618
-0.012279055
-0.005068672
-0.0080408046
-0.015817145
-0.023474694
-0.031140192
-0.038944485
-0.046950024
-0.055162962
-0.063629001
-0.0723422
-0.081240233
-0.090405601
-0.099843834
-0.1094387
-0.11910478
-0.1287747
-0.13824595
-0.14731395
-0.15588339
-0.16383097
-0.17097511
-0.17712542
-0.18208626
-0.18573652
-0.18800823
-0.18879361
-0.18801543
-0.18573881
-0.18208352
-0.17711534
-0.17095914
-0.16381261
-0.15586247
-0.14729029
-0.13820882
-0.12873193
-0.11907462
-0.10942239
-0.099830383
-0.090381928
-0.081203862
-0.072282328
-0.063546746
-0.055067804
-0.046826608
-0.038782926
-0.030922486
-0.023175338
-0.015518852
-0.0079142829
-0.011053289
-0.019246066
-0.027362041
-0.03552931
-0.043879741
-0.052476699
-0.061326921
-0.070475629
-0.079915613
-0.08958233
-0.099553694
-0.10982931
-0.12028576
-0.13082821
-0.14137759
-0.15171839
-0.16163122
-0.17100387
-0.17969531
-0.1875064
-0.19422987
-0.19965476
-0.20364668
-0.20612739
-0.20698304
-0.20613456
-0.20364896
-0.19965204
-0.19421986
-0.18749053
-0.17967705
-0.17098307
-0.1616077
-0.15168148
-0.14133507
-0.13079823
-0.12026954
-0.10981594
-0.099530157
-0.089546167
-0.079856084
-0.070393844
-0.061232304
-0.052353984
-0.0437191
-0.035312839
-0.027064382
-0.018949473
-0.010927501
-0.014243211
-0.02287695
-0.031478351
-0.040176948
-0.049105688
-0.058328905
-0.067853956
-0.077725553
-0.087935143
-0.098415832
-0.10924068
-0.12040301
-0.13177181
-0.14324227
-0.15472292
-0.1659845
-0.17679195
-0.18701511
-0.19649424
-0.20501159
-0.21234198
-0.21825826
-0.22261197
-0.225314
-0.22624406
-0.22532112
-0.22261423
-0.21825555
-0.21233203
-0.20499581
-0.1964761
-0.18699444
-0.17676857
-0.16594781
-0.15468065
-0.14321246
-0.13175569
-0.12038972
-0.10921728
-0.098379889
-0.087875976
-0.077644263
-0.067759913
-0.058206933
-0.048946019
-0.039961784
-0.031182489
-0.022582157
-0.0141182
-0.017621021
-0.026721694
-0.035837113
-0.045098334
-0.054639447
-0.064525815
-0.074765451
-0.085402522
-0.096427059
-0.10776968
-0.11949828
-0.13159958
-0.14393448
-0.15638761
-0.16885439
-0.18109101
-0.19284577
-0.20396956
-0.21428279
-0.22354799
-0.23152107
-0.23795768
-0.2426945
-0.24563089
-0.24663974
-0.24563797
-0.24269675
-0.23795499
-0.23151118
-0.22353232
-0.21426476
-0.20394903
-0.19282255
-0.18105456
-0.1688124
-0.15635799
-0.14391846
-0.13158637
-0.11947504
-0.10773397
-0.096368275
-0.085321757
-0.074672014
-0.064404629
-0.054480807
-0.044884554
-0.035543153
-0.026428806
-0.017496831
-0.021197785
-0.030792893
-0.040452605
-0.05030959
-0.06049915
-0.071087732
-0.082084048
-0.093531687
-0.10541918
-0.11767451
-0.13036011
-0.14345568
-0.1568136
-0.17030729
-0.18381831
-0.1970874
-0.20984529
-0.22192276
-0.23311922
-0.24317634
-0.25182996
-0.25881756
-0.26396006
-0.26714461
-0.26823689
-0.26715164
-0.2639623
-0.25881489
-0.25182014
-0.24316077
-0.23310131
-0.22190237
-0.20982223
-0.19705121
-0.18377661
-0.17027788
-0.1567977
-0.14344256
-0.13033703
-0.11763904
-0.1053608
-0.093451477
-0.081991254
-0.070967378
-0.060341599
-0.050097276
-0.04016066
-0.030502023
-0.021074465
-0.024985222
-0.035103887
-0.045339949
-0.055827791
-0.066703993
-0.078036154
-0.089833725
-0.10213968
-0.11494097
-0.12816277
-0.14186175
-0.15601017
-0.17045137
-0.18504692
-0.19966369
-0.21402608
-0.22784619
-0.24093353
-0.25306524
-0.26396092
-0.27333518
-0.28090623
-0.28647831
-0.28992564
-0.29110627
-0.28993262
-0.28648053
-0.28090358
-0.27332543
-0.26394547
-0.25304746
-0.24091328
-0.22782329
-0.21399015
-0.19962229
-0.18501773
-0.17043558
-0.15599715
-0.14183884
-0.12812756
-0.11488302
-0.10206006
-0.089741611
-0.077916681
-0.066547594
-0.055617028
-0.045050138
-0.034815152
-0.024862822
-0.028995742
-0.039668798
-0.050515158
-0.061671014
-0.073274304
-0.085393845
-0.098039872
-0.1112547
-0.12502362
-0.13926883
-0.15404088
-0.16930416
-0.18489247
-0.20065479
-0.21644243
-0.23196253
-0.24690744
-0.26106412
-0.27418619
-0.28596983
-0.29610718
-0.30429605
-0.31032301
-0.31404861
-0.31532278
-0.31405553
-0.31032521
-0.30429342
-0.29609751
-0.2859545
-0.27416855
-0.26104404
-0.24688472
-0.23192689
-0.21640136
-0.20062582
-0.1848768
-0.16929124
-0.15401815
-0.1392339
-0.12496613
-0.1111757
-0.097948477
-0.085275305
-0.073119127
-0.061461894
-0.050227606
-0.039382325
-0.028874315
-0.033242482
-0.044502582
-0.055995186
-0.067858404
-0.080231611
-0.093184912
-0.10672937
-0.12090662
-0.13570017
-0.15102906
-0.1669374
-0.18338122
-0.2001842
-0.21718201
-0.23420951
-0.25095552
-0.26709148
-0.2823805
-0.29655126
-0.30927517
-0.32022056
-0.32906364
-0.33557228
-0.33959253
-0.34096577
-0.33959939
-0.33557446
-0.32906103
-0.32021097
-0.30925997
-0.29653377
-0.28236059
-0.26706895
-0.25092017
-0.23416878
-0.21715329
-0.20016866
-0.18336841
-0.16691486
-0.15099442
-0.13564315
-0.12082828
-0.10663874
-0.093067359
-0.080077726
-0.067651024
-0.055710027
-0.044218504
-0.033122086
-0.037739356
-0.049621076
-0.061797988
-0.074410232
-0.087598705
-0.10143488
-0.11593069
-0.13112705
-0.14700558
-0.163482
-0.18059356
-0.19828745
-0.21637666
-0.23468275
-0.25302314
-0.27106726
-0.28846443
-0.3049525
-0.32023372
-0.33395329
-0.34575431
-0.35529014
-0.36230883
-0.36664109
-0.36811923
-0.36664789
-0.36231099
-0.35528756
-0.3457448
-0.33393822
-0.32021639
-0.30493276
-0.28844211
-0.27103223
-0.25298277
-0.23465428
-0.21636126
-0.19827476
-0.18057122
-0.16344767
-0.14694907
-0.1310494
-0.11584087
-0.10131837
-0.087446189
-0.074204694
-0.061515361
-0.049339533
-0.037620051
-0.042501098
-0.055041049
-0.067942574
-0.081347964
-0.095399724
-0.11017077
-0.12567398
-0.14194947
-0.1589769
-0.17666845
-0.1950541
-0.2140717
-0.23352289
-0.25321433
-0.27294494
-0.29236365
-0.31109633
-0.32885406
-0.34531115
-0.36008503
-0.37279208
-0.38306148
-0.39062026
-0.39528291
-0.39687213
-0.39528965
-0.3906224
-0.38305891
-0.37278266
-0.3600701
-0.34529398
-0.32883451
-0.31107421
-0.29232895
-0.27290496
-0.25318613
-0.23350764
-0.21405912
-0.19503197
-0.17663445
-0.15892093
-0.14187257
-0.12558501
-0.11005537
-0.095248657
-0.081144376
-0.06766263
-0.054762192
-0.042382947
-0.047543307
-0.06078026
-0.074449077
-0.088694329
-0.10366023
-0.11942122
-0.13599116
-0.15340935
-0.17165336
-0.1906316
-0.21036639
-0.23078567
-0.25167908
-0.27283746
-0.29404019
-0.31491445
-0.3350613
-0.35416349
-0.37186571
-0.387756
-0.40142246
-0.41246862
-0.42059931
-0.42561181
-0.42731865
-0.42561848
-0.42060143
-0.41246608
-0.40141314
-0.38774122
-0.37184872
-0.35414413
-0.3350394
-0.3148801
-0.29400061
-0.27280954
-0.25166399
-0.23077323
-0.21034448
-0.19059794
-0.17159795
-0.15333323
-0.13590309
-0.11930699
-0.10351069
-0.088492806
-0.074171973
-0.060504244
-0.047426378
-0.052882504
-0.066857509
-0.081338812
-0.096473395
-0.11240727
-0.12921652
-0.14691603
-0.16554423
-0.18507647
-0.2054172
-0.2265806
-0.24848413
-0.27090471
-0.29361643
-0.31637799
-0.33879354
-0.36043786
-0.3809637
-0.39998441
-0.41705686
-0.43173923
-0.44360792
-0.4523442
-0.45772717
-0.45955856
-0.45773376
-0.4523463
-0.44360541
-0.43173001
-0.41704224
-0.3999676
-0.38094456
-0.36041621
-0.33875956
-0.31633884
-0.29358882
-0.27088978
-0.24847182
-0.22655893
-0.20538391
-0.18502167
-0.16546893
-0.14682892
-0.12910353
-0.11225936
-0.096274058
-0.081064716
-0.066584504
-0.052766869
-0.058536181
-0.073292709
-0.088634352
-0.10471065
-0.12166952
-0.13958876
-0.15848438
-0.17839386
-0.19929022
-0.2210737
-0.24374985
-0.26722505
-0.29126276
-0.31561932
-0.34003152
-0.36407916
-0.38730915
-0.4093425
-0.42975935
-0.4480836
-0.46384173
-0.47658138
-0.48595894
-0.49173418
-0.49369746
-0.4917407
-0.48596101
-0.4765789
-0.46383262
-0.44806915
-0.42974274
-0.40932358
-0.38728775
-0.36404557
-0.33999283
-0.31559204
-0.291248
-0.26721289
-0.24372843
-0.22104079
-0.19923605
-0.17831944
-0.15839828
-0.13947709
-0.12152334
-0.10451363
-0.088363441
-0.073022891
-0.058421915
-0.06452286
-0.080106942
-0.0963596
-0.11343308
-0.13147732
-0.15057194
-0.17073411
-0.19200035
-0.21434117
-0.23765237
-0.26193039
-0.28706984
-0.31281992
-0.33891822
-0.36507829
-0.39085414
-0.41576321
-0.43939286
-0.46128808
-0.48093787
-0.49783512
-0.51149705
-0.52155364
-0.52774427
-0.5298472
-0.52775071
-0.52155569
-0.5114946
-0.49782612
-0.4809236
-0.46127168
-0.43937418
-0.41574208
-0.39082097
-0.36504008
-0.33889127
-0.31280535
-0.28705783
-0.26190924
-0.23761988
-0.21428768
-0.19192685
-0.17064909
-0.15046165
-0.13133296
-0.11323851
-0.096092061
-0.079840499
-0.064410044
-0.070862156
-0.087322533
-0.10453986
-0.12266926
-0.1418628
-0.16220203
-0.18370536
-0.20640826
-0.23027863
-0.25520755
-0.28118178
-0.30808351
-0.33564683
-0.36358945
-0.39160035
-0.4192062
-0.44589325
-0.47121323
-0.49467391
-0.5157273
-0.53383078
-0.5484693
-0.55924493
-0.56587542
-0.56812623
-0.56588177
-0.55924695
-0.54846689
-0.5338219
-0.51571323
-0.49465773
-0.4711948
-0.4458724
-0.41917348
-0.39156265
-0.36356287
-0.33563245
-0.30807166
-0.28116092
-0.25517549
-0.23022586
-0.20633575
-0.18362148
-0.16209322
-0.14172037
-0.12247728
-0.1042759
-0.087059664
-0.070750874
-0.077574838
-0.094963123
-0.11320195
-0.13244945
-0.15285999
-0.17451714
-0.19744063
-0.22166482
-0.24715483
-0.27379675
-0.3015671
-0.33033491
-0.35981827
-0.38971385
-0.41968459
-0.44922824
-0.477798
-0.50490787
-0.53002621
-0.55256589
-0.57194663
-0.58761927
-0.59915629
-0.60625254
-0.60865994
-0.60625879
-0.59915828
-0.58761689
-0.57193787
-0.55255202
-0.53001026
-0.5048897
-0.47777745
-0.44919599
-0.41964743
-0.38968764
-0.3598041
-0.33032322
-0.30154653
-0.27376515
-0.24710281
-0.22159334
-0.19735794
-0.17440988
-0.15271959
-0.13226022
-0.11294176
-0.094704037
-0.07746518
-0.084682897
-0.10305374
-0.12237422
-0.14280569
-0.16450492
-0.18755761
-0.2119849
-0.23781999
-0.26502504
-0.29348086
-0.32315313
-0.35389694
-0.38541343
-0.41737699
-0.44942301
-0.48101861
-0.51158197
-0.54058715
-0.5674608
-0.5915743
-0.61230754
-0.62907522
-0.64141847
-0.64900791
-0.65158114
-0.64901408
-0.64142043
-0.62907287
-0.61229892
-0.59156065
-0.56744509
-0.54056926
-0.51156173
-0.48098685
-0.44938643
-0.4173512
-0.38539948
-0.35388543
-0.32313288
-0.29344975
-0.26497382
-0.23774962
-0.21190349
-0.187452
-0.16436668
-0.14261938
-0.12211804
-0.10279866
-0.084574959
-0.092209622
-0.1116209
-0.13208675
-0.15377192
-0.17683573
-0.20136616
-0.22738584
-0.2549267
-0.28394782
-0.31432438
-0.3460106
-0.37884678
-0.41251616
-0.44666952
-0.48091306
-0.51468146
-0.54735584
-0.57836798
-0.60710032
-0.63288035
-0.65504576
-0.67297296
-0.68616994
-0.69428163
-0.69703043
-0.69428769
-0.68617187
-0.67297066
-0.65503728
-0.63286692
-0.60708487
-0.57835039
-0.54733594
-0.51465023
-0.48087709
-0.44664416
-0.41250244
-0.37883546
-0.34599068
-0.31429378
-0.28389745
-0.2548575
-0.22730578
-0.2012623
-0.17669978
-0.15358869
-0.13183481
-0.11137007
-0.092103505
-0.10017967
-0.12069267
-0.14237134
-0.16538406
-0.18989282
-0.21598804
-0.2436939
-0.27304101
-0.30398516
-0.3363956
-0.37021438
-0.40526619
-0.44121527
-0.47768741
-0.5142579
-0.55032708
-0.58523683
-0.61837413
-0.64907464
-0.67661937
-0.70030129
-0.71945632
-0.73355732
-0.74222201
-0.74515674
-0.74222796
-0.73355921
-0.71945406
-0.70029296
-0.67660617
-0.64905947
-0.61835685
-0.58521728
-0.5502964
-0.51422257
-0.47766249
-0.4412018
-0.40525507
-0.37019482
-0.33636554
-0.30393568
-0.27297304
-0.24361526
-0.21588604
-0.1897593
-0.1652041
-0.14212389
-0.12044632
-0.10007548
-0.10861916
-0.13029876
-0.1532617
-0.17768016
-0.20371899
-0.23147116
-0.2609625
-0.29222226
-0.32520271
-0.35976682
-0.39584378
-0.43324171
-0.47160477
-0.51053226
-0.54956677
-0.58807225
-0.62534903
-0.66073668
-0.69352129
-0.72293464
-0.74822241
-0.76867759
-0.78373584
-0.79298611
-0.79611772
-0.79299195
-0.78373769
-0.76867537
-0.74821424
-0.7229217
-0.69350641
-0.66071973
-0.62532986
-0.58804216
-0.54953212
-0.51050783
-0.47159156
-0.43323081
-0.39582459
-0.35973734
-0.32515418
-0.2921556
-0.26088538
-0.23137111
-0.20358803
-0.17750365
-0.153019
-0.13005717
-0.10851701
-0.11755573
-0.14047065
-0.1647935
-0.19070049
-0.21835951
-0.24786623
-0.27924823
-0.31253329
-0.34766998
-0.38451461
-0.42298276
-0.46286501
-0.50378423
-0.5453117
-0.58695535
-0.62804064
-0.66782387
-0.7055944
-0.74058586
-0.77197791
-0.79896611
-0.82079802
-0.83686991
-0.84674025
-0.85008033
-0.84674597
-0.83687173
-0.82079585
-0.79895811
-0.77196524
-0.74057129
-0.70557781
-0.6678051
-0.62801117
-0.58692142
-0.54528777
-0.50377129
-0.46285433
-0.42296397
-0.38448575
-0.34762246
-0.31246801
-0.27917271
-0.24776826
-0.21823127
-0.19052764
-0.16455583
-0.1402341
-0.11745574
-0.12701867
-0.15124166
-0.17700452
-0.20448773
-0.23386236
-0.26522697
-0.298611
-0.33404065
-0.37146058
-0.41072006
-0.45172024
-0.49423313
-0.53785907
-0.58213966
-0.62654614
-0.67036318
-0.7128005
-0.75309427
-0.79042257
-0.82390986
-0.85269865
-0.87598838
-0.89313361
-0.90366055
-0.90722137
-0.90366613
-0.89313539
-0.87598625
-0.85269083
-0.82389748
-0.79040833
-0.75307805
-0.71278215
-0.67033437
-0.62651297
-0.58211627
-0.53784643
-0.49422269
-0.45170187
-0.41069184
-0.37141412
-0.33397683
-0.29853718
-0.2651312
-0.233737
-0.20431875
-0.17677218
-0.15101044
-0.12692097
-0.13703898
-0.16264709
-0.18993477
-0.21908703
-0.25027833
-0.28361027
-0.31911423
-0.35681479
-0.39665245
-0.43846902
-0.48215036
-0.52744885
-0.57394094
-0.62113681
-0.66846884
-0.71517854
-0.76042627
-0.80339191
-0.84319469
-0.87890063
-0.90959606
-0.93442947
-0.95271127
-0.96393347
-0.96772806
-0.96393893
-0.952713
-0.9344274
-0.90958843
-0.87888855
-0.84318079
-0.80337608
-0.76040837
-0.71515043
-0.66843648
-0.62111399
-0.5739286
-0.52743866
-0.48213244
-0.43844149
-0.39660712
-0.35675253
-0.31904221
-0.28351682
-0.25015602
-0.21892216
-0.18970808
-0.16242152
-0.1369437
-0.14764948
-0.1747243
-0.20362661
-0.23454623
-0.2676612
-0.30307634
-0.34082511
-0.38093033
-0.42332814
-0.4678524
-0.51437283
-0.56262099
-0.61214804
-0.6624309
-0.71286081
-0.76263355
-0.81085722
-0.8566521
-0.8990751
-0.93713038
-0.96984475
-0.99631278
-1.0157981
-1.0277565
-1.0317986
-1.0277618
-1.0157998
-0.99631075
-0.96983732
-0.93711861
-0.89906157
-0.85663668
-0.81083979
-0.76260618
-0.71282931
-0.66240869
-0.61213603
-0.56261107
-0.51435538
-0.46782559
-0.42328399
-0.38086972
-0.34075499
-0.30298535
-0.26754212
-0.2343857
-0.20340589
-0.1745047
-0.14755677
-0.15888494
-0.18751285
-0.2181249
-0.25091598
-0.28606793
-0.32368897
-0.36381477
-0.40646629
-0.45157502
-0.49896647
-0.54849322
-0.59986477
-0.65260555
-0.70615723
-0.75986748
-0.81288367
-0.86425858
-0.91304933
-0.9582469
-0.99878988
-1.0336421
-1.061841
-1.0826007
-1.0953387
-1.0996429
-1.0953439
-1.0826024
-1.0618391
-1.0336349
-0.99877845
-0.95823375
-0.91303436
-0.86424165
-0.81285708
-0.75983688
-0.70613565
-0.65259389
-0.59985513
-0.54847626
-0.49894043
-0.45153214
-0.40640741
-0.36374665
-0.32360059
-0.28595226
-0.25076005
-0.21791051
-0.18729959
-0.15879495
-0.17078217
-0.20105465
-0.23347714
-0.26824991
-0.30555881
-0.34551568
-0.38815852
-0.43350632
-0.48148565
-0.53191317
-0.5846233
-0.63930222
-0.69544602
-0.75245905
-0.80964285
-0.86609354
-0.92080529
-0.97276838
-1.0209039
-1.0640811
-1.1011972
-1.1312289
-1.1533381
-1.1669016
-1.1714833
-1.1669066
-1.1533397
-1.131227
-1.1011902
-1.0640701
-1.0208912
-0.97275387
-0.92078889
-0.86606778
-0.80961322
-0.75243815
-0.69543473
-0.63929289
-0.58460687
-0.53188794
-0.48144411
-0.43344928
-0.38809253
-0.34543006
-0.30544676
-0.26809885
-0.23326945
-0.2008481
-0.17069505
-0.18338015
-0.21539406
-0.24973362
-0.28660481
-0.32619771
-0.36862798
-0.41393611
-0.462139
-0.51315802
-0.56680043
-0.62288145
-0.68106255
-0.74080981
-0.80148806
-0.86235001
-0.92243749
-0.98068262
-1.0360049
-1.0872515
-1.1332181
-1.1727312
-1.2047038
-1.2282419
-1.2426795
-1.2475551
-1.2426843
-1.2282434
-1.2047019
-1.1727245
-1.1332074
-1.0872392
-1.0359909
-0.98066678
-0.92241261
-0.86232139
-0.80146788
-0.7407989
-0.68105353
-0.62286559
-0.56677606
-0.5131179
-0.46208392
-0.41387239
-0.36854529
-0.32608949
-0.28645891
-0.24953304
-0.21519461
-0.18329608
-0.19672016
-0.23057807
-0.26694762
-0.3060408
-0.34805223
-0.39310161
-0.44123201
-0.49245816
-0.5466959
-0.60374256
-0.66339301
-0.72528257
-0.78884553
-0.85340489
-0.91816164
-0.98210011
-1.0440867
-1.1029661
-1.1575069
-1.2064272
-1.2484787
-1.2825063
-1.3075575
-1.3229208
-1.3281076
-1.3229254
-1.307559
-1.2825045
-1.2484722
-1.2064169
-1.1574951
-1.1029526
-1.0440715
-0.98207615
-0.91813409
-0.85338547
-0.78883504
-0.72527389
-0.66337774
-0.60371911
-0.54665728
-0.49240514
-0.44117068
-0.39302201
-0.34794807
-0.30590037
-0.26675455
-0.23038613
-0.1966393
-0.21084588
-0.24665641
-0.28517551
-0.32662158
-0.37119399
-0.41901673
-0.47013564
-0.52456312
-0.58220917
-0.64286058
-0.70629071
-0.77210716
-0.83971056
-0.90837963
-0.97726057
-1.0452769
-1.1112254
-1.1738712
-1.2319004
-1.2839484
-1.3286876
-1.3648915
-1.3915449
-1.4078883
-1.4134046
-1.4078927
-1.3915463
-1.3648898
-1.3286814
-1.2839385
-1.2318891
-1.1738583
-1.1112108
-1.0452539
-0.97723417
-0.90836102
-0.83970051
-0.77209883
-0.70627607
-0.6428381
-0.58217214
-0.52451229
-0.47007684
-0.41894041
-0.37109413
-0.32648693
-0.2849904
-0.24647243
-0.21076844
-0.22580362
-0.26368176
-0.30447703
-0.34841457
-0.3956988
-0.44645825
-0.5007417
-0.55855906
-0.61981417
-0.68428267
-0.7517151
-0.82168972
-0.89357156
-0.96659239
-1.0398405
-1.1121747
-1.1823185
-1.2489528
-1.3106757
-1.3660355
-1.4136209
-1.4521291
-1.4804791
-1.4978604
-1.5037256
-1.4978646
-1.4804805
-1.4521275
-1.413615
-1.3660261
-1.3106649
-1.2489404
-1.1823045
-1.1121528
-1.0398153
-0.96657463
-0.89356196
-0.82168177
-0.75170112
-0.6842612
-0.61977882
-0.55851055
-0.50068558
-0.4463854
-0.39560349
-0.34828604
-0.30430035
-0.26350622
-0.22572979
-0.24164236
-0.28170991
-0.32491541
-0.37149117
-0.42164695
-0.47551608
-0.53315045
-0.59455737
-0.65963411
-0.72814451
-0.79981498
-0.8741927
-0.95060497
-1.0282339
-1.1061063
-1.1830129
-1.257599
-1.3284566
-1.3940909
-1.4529577
-1.5035568
-1.544505
-1.5746516
-1.5931318
-1.5993666
-1.5931359
-1.5746529
-1.5445035
-1.5035512
-1.4529487
-1.3940806
-1.3284449
-1.2575857
-1.1829921
-1.1060824
-1.028217
-0.95059587
-0.87418515
-0.79980171
-0.72812413
-0.65960054
-0.59451131
-0.53309717
-0.47544691
-0.42155645
-0.37136913
-0.32474765
-0.28154329
-0.24157236
-0.25841401
-0.30079992
-0.34655761
-0.39592698
-0.44912344
-0.50628541
-0.56746809
-0.63267598
-0.70179945
-0.77458983
-0.85074796
-0.92978811
-1.0109977
-1.0935061
-1.1762752
-1.2580235
-1.3373135
-1.4126432
-1.4824192
-1.5449995
-1.59879
-1.6423219
-1.6743709
-1.6940148
-1.7006408
-1.6940186
-1.6743721
-1.6423205
-1.5987846
-1.5449911
-1.4824095
-1.4126322
-1.337301
-1.2580038
-1.1762526
-1.0934902
-1.0109891
-0.92978099
-0.85073543
-0.7745706
-0.70176776
-0.63263252
-0.56741781
-0.50622014
-0.44903804
-0.3958118
-0.3463993
-0.30064275
-0.25834806
-0.27617351
-0.32101433
-0.36947454
-0.42180205
-0.4782183
-0.53886707
-0.60380703
-0.67303978
-0.74644833
-0.82377078
-0.90468089
-0.9886581
-1.0749475
-1.1626228
-1.2505771
-1.3374522
-1.4217233
-1.5017885
-1.5759501
-1.6424626
-1.6996323
-1.7459003
-1.7799636
-1.8008398
-1.8078801
-1.8008433
-1.7799647
-1.7458989
-1.6996273