/*--------------------------------*- C++ -*----------------------------------*\
| =========                 |                                                 |
| \\      /  F ield         | OpenFOAM: The Open Source CFD Toolbox           |
|  \\    /   O peration     | Version:  v2006                                 |
|   \\  /    A nd           | Website:  www.openfoam.com                      |
|    \\/     M anipulation  |                                                 |
\*---------------------------------------------------------------------------*/
FoamFile
{
    version     2.0;
    format      ascii;
    class       volScalarField;
    location    "2500";
    object      Cy;
}
// * * * * * * * * * * * * * * * * * * * * * * * * * * * * * * * * * * * * * //

dimensions      [0 1 0 0 0 0 0];


internalField   nonuniform List<scalar> 
19765
(
0.034246898
0.033067018
0.031596963
0.029964556
0.028362475
0.026807993
0.025268391
0.023753229
0.022269948
0.020747037
0.019249202
0.01781178
0.016405337
0.01502128
0.013678195
0.012346636
0.010987326
0.0096152123
0.0082495462
0.0068874538
0.0055251129
0.0041581298
0.0027904902
0.0014265216
6.3664761e-05
-0.0012988986
-0.0026619566
-0.0040291417
-0.0053959554
-0.0067588128
-0.0081223105
-0.0094899429
-0.010864697
-0.012223598
-0.013561333
-0.01491548
-0.016309784
-0.017718229
-0.019151756
-0.020646371
-0.022159674
-0.023637108
-0.025155388
-0.026682897
-0.028218018
-0.029776467
-0.031334175
-0.032953144
-0.034682859
0.041375651
0.04016821
0.038663393
0.036987059
0.035329592
0.033706108
0.032081256
0.030462531
0.02885298
0.027179691
0.025505024
0.023859854
0.022210632
0.020548539
0.018888408
0.017196533
0.015436562
0.013624015
0.011776853
0.0098945375
0.0079767743
0.0060244313
0.00404825
0.0020594606
6.3529427e-05
-0.0019321049
-0.0039199917
-0.0058957516
-0.0078479869
-0.0097662443
-0.011649998
-0.013499165
-0.015314393
-0.01707441
-0.018771754
-0.020442845
-0.022115087
-0.023766636
-0.02540797
-0.027079439
-0.028743235
-0.030346747
-0.031968569
-0.033581358
-0.035185484
-0.036799393
-0.038401167
-0.040054602
-0.041810736
0.048924302
0.047687663
0.046146031
0.044423208
0.042707179
0.041010802
0.039296073
0.037568172
0.035826069
0.033994914
0.032134098
0.030270239
0.028365958
0.026410799
0.024416155
0.022345161
0.020162235
0.017882881
0.015525038
0.01309063
0.010583222
0.0080091501
0.0053860412
0.0027327634
6.3385449e-05
-0.002605695
-0.0052580745
-0.0078807762
-0.010454766
-0.01296266
-0.015398518
-0.01775838
-0.020040432
-0.022223621
-0.024299746
-0.026305285
-0.028270525
-0.030177309
-0.032037374
-0.033895014
-0.035716771
-0.037452716
-0.039183699
-0.040886398
-0.042563432
-0.044235987
-0.045884399
-0.047574336
-0.049358453
0.056917583
0.055650014
0.054069394
0.052297365
0.050519396
0.048745973
0.046936368
0.045093199
0.04321148
0.041213963
0.039156637
0.037061877
0.034888486
0.032623589
0.030275211
0.027803695
0.025173292
0.022399319
0.019500227
0.01648055
0.013347984
0.010114624
0.0068053047
0.0034471013
6.323269e-05
-0.0033203387
-0.0066776472
-0.0099865672
-0.013219858
-0.016352904
-0.019374038
-0.022275154
-0.025051831
-0.027682618
-0.030159073
-0.032518295
-0.034793221
-0.036969219
-0.039060219
-0.041114389
-0.043102585
-0.04497807
-0.04682431
-0.048621922
-0.050376025
-0.052110612
-0.053808391
-0.055536981
-0.057350742
0.065381682
0.064081348
0.062459438
0.060635327
0.058791832
0.056936938
0.055027092
0.053062111
0.051033054
0.048859885
0.046594834
0.044255954
0.041798129
0.039205546
0.036482821
0.033587613
0.030483505
0.027185563
0.023713038
0.020073224
0.01627822
0.012346205
0.0083096088
0.0042042547
6.3070774e-05
-0.0040778167
-0.0081822788
-0.01221848
-0.016150435
-0.019945916
-0.023587186
-0.027061738
-0.030362385
-0.033466949
-0.036366974
-0.0391005
-0.041703067
-0.044163566
-0.046498712
-0.048760625
-0.050924541
-0.052947315
-0.054915357
-0.056813248
-0.058648852
-0.060449067
-0.062199103
-0.063968625
-0.065813785
0.074344329
0.073009289
0.071343652
0.069464411
0.067551582
0.065610513
0.063594697
0.061500912
0.059316192
0.056957361
0.054472579
0.051875435
0.049116734
0.046177327
0.043058317
0.039714674
0.036109002
0.032256077
0.028176139
0.023879409
0.019382656
0.014710499
0.0099033921
0.0050064521
6.2899223e-05
-0.0048803582
-0.0097764091
-0.014583124
-0.019255227
-0.023752453
-0.02805064
-0.032132603
-0.03598823
-0.039594407
-0.042942781
-0.046072552
-0.049021903
-0.051783321
-0.054376755
-0.056858415
-0.059208052
-0.061386459
-0.063483295
-0.065487195
-0.067409013
-0.06927867
-0.071084023
-0.072896892
-0.07477531
0.083834891
0.082463087
0.080751144
0.078813541
0.076827341
0.074795099
0.07266721
0.070437175
0.06808788
0.065532686
0.062815385
0.059944917
0.056867814
0.053561251
0.050022675
0.046204301
0.042067528
0.037626823
0.032903553
0.02791104
0.022671007
0.017214886
0.011591623
0.0058561918
6.2717505e-05
-0.0057304624
-0.011465008
-0.017087882
-0.022543951
-0.027784456
-0.032778423
-0.037503716
-0.041947118
-0.046084429
-0.049907471
-0.053456769
-0.056773238
-0.059853086
-0.062719865
-0.065434059
-0.067980113
-0.070323077
-0.072556154
-0.074672169
-0.076685203
-0.078628348
-0.080492263
-0.082351033
-0.084264679
0.09388446
0.092473716
0.090712734
0.088713348
0.086649496
0.084520776
0.082274325
0.079900124
0.077376753
0.074613798
0.071650391
0.068490603
0.065076473
0.061381188
0.057398368
0.053077366
0.048378205
0.043315019
0.037910421
0.032181018
0.026153783
0.019867363
0.01337969
0.006756184
6.2525041e-05
-0.006630841
-0.013253464
-0.01974075
-0.026027122
-0.032054825
-0.03778568
-0.043192296
-0.048258175
-0.052957897
-0.057283516
-0.061277019
-0.064982172
-0.068399067
-0.071555184
-0.0745155
-0.077269364
-0.079786396
-0.08216363
-0.08439825
-0.08650781
-0.088528734
-0.090454645
-0.092362022
-0.09431298
0.10452596
0.10307397
0.10126106
0.099196266
0.097050223
0.094819399
0.092447494
0.089920721
0.087213168
0.084230341
0.081006408
0.077540333
0.073769415
0.069662551
0.065209339
0.060356146
0.05506146
0.049339066
0.043212931
0.036703142
0.029842235
0.022676494
0.015273363
0.0077093329
6.2321207e-05
-0.007584399
-0.015147548
-0.022550295
-0.02971599
-0.036577363
-0.043088601
-0.049216749
-0.054941829
-0.060237092
-0.06509486
-0.069558716
-0.073675411
-0.077449106
-0.080911528
-0.084132384
-0.087106168
-0.08980738
-0.092337177
-0.094697295
-0.096909014
-0.099012262
-0.10100381
-0.10296266
-0.10495314
0.11579426
0.11429858
0.11243068
0.11029664
0.10806359
0.1057247
0.10322003
0.10053177
0.097629298
0.094413742
0.090913998
0.087123648
0.08297499
0.07843233
0.073481032
0.068064325
0.062139026
0.055718548
0.048828319
0.041492107
0.033748344
0.0256514
0.01727879
0.0087187326
6.2105346e-05
-0.0085942319
-0.017153412
-0.02552564
-0.033622539
-0.041366766
-0.048704422
-0.055596659
-0.062019815
-0.067945704
-0.073366949
-0.07832885
-0.082881302
-0.087032744
-0.090819459
-0.094316141
-0.097522701
-0.10041883
-0.10311011
-0.10560304
-0.10792289
-0.11011328
-0.11217432
-0.11418767
-0.11622
0.12772627
0.12618432
0.12425818
0.12205083
0.11972569
0.1172724
0.1146272
0.111768
0.10865923
0.10519731
0.10140555
0.097271866
0.092723266
0.08771916
0.082240445
0.076227049
0.069633982
0.062474263
0.054774886
0.046563519
0.037884838
0.028801773
0.019402504
0.0097876709
6.1876753e-05
-0.0096636291
-0.019277588
-0.028676477
-0.037759498
-0.046438642
-0.054651448
-0.062352827
-0.069515214
-0.07610888
-0.082126781
-0.087616058
-0.092629917
-0.097181304
-0.10131137
-0.10510008
-0.10855305
-0.11165549
-0.1145177
-0.1171512
-0.11958551
-0.12186815
-0.12400276
-0.12607384
-0.1281505
0.1403611
0.13877014
0.13678233
0.13449735
0.13207472
0.12950033
0.12670639
0.12366622
0.12033907
0.11661633
0.11251539
0.10801818
0.10304612
0.097553397
0.091516204
0.084870983
0.077570805
0.069628273
0.061072051
0.051933938
0.04226522
0.032137898
0.021651437
0.010919637
6.1634676e-05
-0.010796081
-0.021527011
-0.032013093
-0.042140373
-0.05180955
-0.060949098
-0.069507315
-0.077452505
-0.08475329
-0.091402985
-0.097450696
-0.10295313
-0.10792798
-0.11242159
-0.1165195
-0.12023333
-0.12355416
-0.12659732
-0.12937962
-0.1319351
-0.1343154
-0.13652791
-0.13866009
-0.14078371
0.15374012
0.15209726
0.15004414
0.14767699
0.14515113
0.14244855
0.13949714
0.13626539
0.13270705
0.12870819
0.12427989
0.11939776
0.11397732
0.10796721
0.10133865
0.094024392
0.085975443
0.077203965
0.067740398
0.057620916
0.046903809
0.035670677
0.024032939
0.01211833
6.1378336e-05
-0.011995289
-0.023909031
-0.035546392
-0.046779483
-0.057497048
-0.067617959
-0.077083512
-0.085857639
-0.0939072
-0.1012259
-0.10786494
-0.11388471
-0.11930794
-0.12418648
-0.12861176
-0.13260177
-0.13615381
-0.13938854
-0.14232836
-0.1450121
-0.14749579
-0.14979078
-0.15198768
-0.15416102
0.16790719
0.16620934
0.16408707
0.16163291
0.15899778
0.15615947
0.15304137
0.14960678
0.14580369
0.14151247
0.13673755
0.13144785
0.12555264
0.11899468
0.11173991
0.10371722
0.094875391
0.08522612
0.074801739
0.063643056
0.051815776
0.039411664
0.026554799
0.01338767
6.1106885e-05
-0.013265174
-0.02643144
-0.039287931
-0.051692001
-0.063519737
-0.074679843
-0.085106202
-0.094758111
-0.10360056
-0.11162766
-0.11889286
-0.12546044
-0.13135843
-0.13664456
-0.14141648
-0.14569889
-0.1494957
-0.15293326
-0.15603982
-0.15885937
-0.16145252
-0.16383483
-0.16610027
-0.16832627
0.1829087
0.18115263
0.17895713
0.17641084
0.17366001
0.17067801
0.16738343
0.16373409
0.15967188
0.15507111
0.14992916
0.14420791
0.13780998
0.13067191
0.12275405
0.1139812
0.10429978
0.093720993
0.082279184
0.070020066
0.057017195
0.043373103
0.029225269
0.014731811
6.0819435e-05
-0.014609892
-0.029102491
-0.043249952
-0.056894004
-0.069897328
-0.082157863
-0.093601641
-0.10418305
-0.11386509
-0.12264233
-0.13057056
-0.13771821
-0.14411891
-0.14983662
-0.15497558
-0.15956758
-0.16362354
-0.16727583
-0.17055894
-0.17352226
-0.1762313
-0.17870607
-0.18104408
-0.18332586
0.19879381
0.19697608
0.19470304
0.19205919
0.18918588
0.18605174
0.18257031
0.17869359
0.17435703
0.16942851
0.16389794
0.15771972
0.15078948
0.14303712
0.13441713
0.12484993
0.11427945
0.10271639
0.090197212
0.076772821
0.062525093
0.047567959
0.03205309
0.016155153
6.0515043e-05
-0.016033845
-0.031930928
-0.047445426
-0.06240252
-0.076650698
-0.090076499
-0.10259764
-0.11416332
-0.12473441
-0.13430596
-0.14293628
-0.15069816
-0.15763117
-0.16380587
-0.16933347
-0.17425327
-0.1785836
-0.18246326
-0.18593327
-0.18904882
-0.19188056
-0.19445323
-0.19686809
-0.19920892
0.21561457
0.21373154
0.21137638
0.20862924
0.20562623
0.20233103
0.19865177
0.1945343
0.18990726
0.1846317
0.17868963
0.17202753
0.16453364
0.15613083
0.14676733
0.136359
0.1248471
0.11224177
0.098581748
0.083923431
0.068357505
0.052009969
0.035047522
0.017662356
6.0192736e-05
-0.017541695
-0.034926011
-0.051888089
-0.068235586
-0.08380196
-0.09846168
-0.11212366
-0.12473158
-0.1362441
-0.14665676
-0.15603052
-0.16444281
-0.17193946
-0.17859805
-0.18453717
-0.18980406
-0.1944249
-0.1985453
-0.2022132
-0.20548992
-0.20845157
-0.2111279
-0.21362413
-0.21602751
0.23342608
0.23147389
0.22903177
0.22617528
0.22303495
0.2195692
0.21568049
0.2113081
0.2063735
0.20073048
0.19435268
0.18717822
0.17908748
0.1699959
0.15984511
0.14854611
0.13603733
0.12232833
0.10746025
0.091495314
0.07453353
0.056713678
0.03821837
0.019258355
5.9851425e-05
-0.01913838
-0.038097549
-0.05659249
-0.074412304
-0.091374533
-0.10734086
-0.12221089
-0.13592246
-0.14843186
-0.15973516
-0.16989616
-0.17899716
-0.18709065
-0.19426162
-0.20063649
-0.2062709
-0.21119933
-0.21557462
-0.21945204
-0.22289941
-0.22599861
-0.2287847
-0.2313671
-0.23383673
0.2522867
0.25026126
0.24772707
0.24475478
0.24146905
0.23782273
0.23371224
0.22906995
0.22380969
0.21777759
0.2109384
0.20322141
0.19449867
0.18467775
0.17369329
0.16145116
0.14788678
0.1330091
0.1168618
0.099513269
0.081073395
0.061694492
0.041576019
0.020948379
5.9490006e-05
-0.020829129
-0.041455929
-0.061574037
-0.080952903
-0.099393219
-0.11674314
-0.13289237
-0.14777261
-0.16133761
-0.17358402
-0.18457862
-0.1944089
-0.20313436
-0.2108479
-0.21768417
-0.22370772
-0.22896184
-0.23360702
-0.23770629
-0.24133434
-0.24457918
-0.24748148
-0.25015513
-0.25269491
0.27225822
0.27015521
0.26752352
0.26442861
0.26098894
0.25715142
0.25280612
0.24787803
0.24227296
0.23582887
0.22850112
0.22020964
0.21081769
0.20022448
0.18835726
0.17511644
0.16043427
0.14431907
0.12681719
0.10800356
0.087998522
0.066968724
0.045131467
0.022737961
5.9107299e-05
-0.022619479
-0.045012151
-0.066849046
-0.087878807
-0.10788428
-0.12669929
-0.14420308
-0.16032084
-0.17500362
-0.18824868
-0.20012599
-0.2107285
-0.22012316
-0.2284112
-0.23573605
-0.24217164
-0.24777062
-0.25270158
-0.25703573
-0.2608551
-0.26425414
-0.26727951
-0.27004977
-0.27266384
0.29340608
0.29122092
0.28848598
0.28526124
0.28165857
0.2776186
0.27302467
0.26779397
0.26182378
0.25494345
0.24709838
0.23819858
0.22809801
0.21668702
0.20388502
0.18958669
0.17372091
0.15629528
0.13735902
0.11699399
0.095331595
0.072553652
0.048896361
0.024632965
5.8702056e-05
-0.024515297
-0.048777864
-0.072434796
-0.095212702
-0.11687553
-0.13724194
-0.15618009
-0.17360825
-0.18947466
-0.20377719
-0.2165892
-0.22800943
-0.2381127
-0.24700908
-0.25485127
-0.26172317
-0.26768729
-0.27292085
-0.27750371
-0.28152564
-0.28508797
-0.28824363
-0.29111621
-0.29380895
0.31579955
0.3135274
0.31068312
0.30732092
0.30354565
0.29929132
0.29443413
0.288883
0.28252621
0.27518395
0.2667911
0.25724715
0.24639623
0.23411929
0.22032747
0.20490934
0.18779021
0.16897697
0.14852185
0.12651402
0.10309663
0.07846757
0.052883032
0.026639597
5.827292e-05
-0.026522791
-0.052765402
-0.078349584
-0.10297861
-0.12639643
-0.14840561
-0.16886262
-0.18767838
-0.20479813
-0.22022042
-0.23402218
-0.24630829
-0.2571619
-0.26670245
-0.27509245
-0.28242634
-0.28877711
-0.29433107
-0.29917728
-0.3034137
-0.30714891
-0.31044255
-0.31342346
-0.31619951
0.339512
0.33714773
0.33418768
0.33067991
0.32672189
0.32224059
0.31710464
0.31121423
0.30444808
0.29661669
0.28764379
0.27741777
0.26577229
0.2525784
0.23773845
0.22113457
0.20268827
0.18240567
0.16034222
0.13659484
0.11131908
0.084729852
0.057104541
0.028764432
5.7818531e-05
-0.028648538
-0.05698783
-0.084612788
-0.11120198
-0.13647816
-0.1602269
-0.18229222
-0.20257731
-0.22102423
-0.23763224
-0.25248205
-0.26568504
-0.27733318
-0.28755584
-0.29652591
-0.30434899
-0.31110916
-0.31700239
-0.32212744
-0.32659097
-0.33050925
-0.33394898
-0.33704461
-0.33990888
0.36462113
0.3621593
0.35907665
0.35541475
0.35126323
0.34654159
0.34111048
0.3348608
0.32766119
0.31931188
0.30972476
0.29877649
0.28628967
0.27212482
0.25617501
0.23831553
0.21846389
0.19662539
0.17285887
0.14726946
0.12002586
0.091361012
0.061574717
0.03101443
5.7337352e-05
-0.030899501
-0.061458979
-0.091244923
-0.11990974
-0.14715376
-0.1727445
-0.19651288
-0.21835386
-0.23820611
-0.25606968
-0.27202927
-0.28620314
-0.29869261
-0.30963755
-0.31922186
-0.32756294
-0.33475661
-0.34100908
-0.34642939
-0.3511334
-0.35524551
-0.35883994
-0.36205705
-0.36501474
0.39120919
0.38864405
0.38543159
0.38160648
0.37725005
0.37227394
0.36653029
0.35990019
0.35224161
0.34334387
0.33310637
0.32139331
0.30801559
0.29282259
0.27569754
0.25650851
0.23516875
0.2116827
0.18611279
0.15857285
0.12924551
0.098382774
0.066308205
0.033396962
5.6827845e-05
-0.033283056
-0.066193497
-0.098267718
-0.12913042
-0.15845818
-0.18599945
-0.2115712
-0.2350597
-0.25640007
-0.27559316
-0.29272789
-0.30792983
-0.32131017
-0.33301993
-0.34325465
-0.35214423
-0.35979693
-0.3664298
-0.37216274
-0.37712138
-0.38143874
-0.38519697
-0.38854271
-0.39159934
0.4193633
0.41668875
0.41333882
0.40934091
0.40476752
0.39952194
0.39344736
0.38641444
0.37826985
0.3687914
0.35786521
0.34534231
0.33102123
0.31473952
0.29637001
0.27577312
0.25285758
0.22762694
0.20014742
0.17054206
0.13900823
0.10581814
0.071320511
0.035919833
5.628833e-05
-0.03580701
-0.071206894
-0.10570418
-0.13889424
-0.17042848
-0.20003515
-0.2275165
-0.25274957
-0.27566571
-0.29626662
-0.31464572
-0.33093628
-0.34525997
-0.35777959
-0.36870302
-0.3781734
-0.38631216
-0.39334782
-0.3994118
-0.40464007
-0.40917476
-0.41310643
-0.41658838
-0.41974978
0.44917569
0.44638528
0.4428898
0.43870889
0.43390577
0.42837487
0.42194986
0.41449041
0.4058312
0.39573782
0.38408239
0.37070196
0.35538195
0.33794741
0.31826014
0.29617246
0.27158834
0.24451034
0.21500872
0.18321628
0.149346
0.11369147
0.076628057
0.038591308
5.5717025e-05
-0.038479633
-0.076515595
-0.11357867
-0.14923316
-0.18310386
-0.21489759
-0.24440102
-0.27148142
-0.29606615
-0.3181578
-0.33785456
-0.35529786
-0.37062046
-0.38399764
-0.39565035
-0.40573573
-0.41438917
-0.42185134
-0.42826584
-0.43377962
-0.43854443
-0.44265976
-0.44628594
-0.44955828
0.48074404
0.47783094
0.47418132
0.46980665
0.46476027
0.45892725
0.45213119
0.44422008
0.43501595
0.42427144
0.4118438
0.39755534
0.38117756
0.36252229
0.34143965
0.31777338
0.29142238
0.26238821
0.23074539
0.19663705
0.16029269
0.12202856
0.08224823
0.04142014
5.5112077e-05
-0.04130968
-0.082136992
-0.12191699
-0.16018108
-0.19652585
-0.23063547
-0.26228008
-0.29131662
-0.31766821
-0.34133841
-0.36243045
-0.38109439
-0.39747472
-0.41175998
-0.42418492
-0.43492152
-0.44411995
-0.45203374
-0.45881941
-0.46463549
-0.46964397
-0.47395377
-0.47773269
-0.48112251
0.51417178
0.51112875
0.50731592
0.50273607
0.49743211
0.49127917
0.48409022
0.47570086
0.46591972
0.45448572
0.4412404
0.42599043
0.40849258
0.38854467
0.36598447
0.34064662
0.31242468
0.28131912
0.24740898
0.21084833
0.17188416
0.13085673
0.088199444
0.044415597
5.4471483e-05
-0.044306422
-0.0880895
-0.13074645
-0.17177385
-0.21073842
-0.24730035
-0.28121225
-0.31232016
-0.34054268
-0.36588441
-0.3884539
-0.40841038
-0.42591075
-0.44115756
-0.45440021
-0.46582639
-0.47560189
-0.4839939
-0.49117259
-0.49730878
-0.50257528
-0.50709101
-0.51103165
-0.51454588
0.54956841
0.54638781
0.54240214
0.53760504
0.53202833
0.52553664
0.51793165
0.50903588
0.49864374
0.48647966
0.4723685
0.45610038
0.43741649
0.41609981
0.39197502
0.36486714
0.33466405
0.3013651
0.26505409
0.22589667
0.18415839
0.14020489
0.094501195
0.047587491
5.3793174e-05
-0.047479679
-0.094392623
-0.14009598
-0.18404946
-0.22578814
-0.26494681
-0.30125955
-0.33456084
-0.3647645
-0.39187621
-0.41601017
-0.43733531
-0.45602169
-0.47228669
-0.48639521
-0.49855158
-0.50893814
-0.51783653
-0.52543138
-0.53190653
-0.53744625
-0.54218002
-0.54629192
-0.54993789
0.58704991
0.58372362
0.57955494
0.57452779
0.56866227
0.56181189
0.55376637
0.54433435
0.53329524
0.52035807
0.50533008
0.48798384
0.46804406
0.44527799
0.41949645
0.39051428
0.35821336
0.32259181
0.28373852
0.24183139
0.19715559
0.15010367
0.10117413
0.050946215
5.3074894e-05
-0.050839845
-0.10106701
-0.14999622
-0.19704812
-0.24172431
-0.28363267
-0.32248768
-0.35811152
-0.39041301
-0.41939896
-0.44518955
-0.46796396
-0.4879062
-0.50524936
-0.52027475
-0.53320431
-0.54423792
-0.55367252
-0.56170803
-0.5685421
-0.57437112
-0.57933578
-0.58362902
-0.58741449
0.62673908
0.62325851
0.61889604
0.61362529
0.60745396
0.60022376
0.59171176
0.58171193
0.56998774
0.55623195
0.54023313
0.52174527
0.50047562
0.47617479
0.44863892
0.41767207
0.38314975
0.34506881
0.30352349
0.25870469
0.21091835
0.1605855
0.10824011
0.054502773
5.2314329e-05
-0.054397929
-0.10813453
-0.16047959
-0.21081242
-0.25859914
-0.30341916
-0.34496617
-0.38304938
-0.41757226
-0.44854283
-0.47608762
-0.50039668
-0.52166875
-0.54015357
-0.55614983
-0.56989812
-0.58161688
-0.59161926
-0.60012139
-0.60733551
-0.61347086
-0.61868002
-0.62316527
-0.62709846
0.66876594
0.66512201
0.66055433
0.65502564
0.64853048
0.64089809
0.63189215
0.62129106
0.60884145
0.59421883
0.57719199
0.55749528
0.53481744
0.50889145
0.47949791
0.44642948
0.40955493
0.36886972
0.32447382
0.27657184
0.22549175
0.17168472
0.11572228
0.058268816
5.150894e-05
-0.058165589
-0.11561833
-0.17158045
-0.22538745
-0.27646792
-0.3243711
-0.36876867
-0.4094561
-0.44633121
-0.4794033
-0.50880562
-0.53473971
-0.55741993
-0.57711366
-0.59413797
-0.60875321
-0.62119748
-0.63180108
-0.64079731
-0.64841386
-0.65487358
-0.66034162
-0.66503021
-0.66911983
0.71326819
0.70945126
0.70466629
0.69886447
0.69202642
0.68396816
0.67443919
0.66320142
0.64998367
0.63444316
0.61632776
0.59535099
0.57118201
0.54353514
0.51217453
0.47688073
0.43751539
0.39407253
0.34665814
0.29549138
0.24092353
0.1834377
0.12364516
0.062256682
5.0656135e-05
-0.062155168
-0.12354293
-0.18333516
-0.24082096
-0.29538918
-0.34655712
-0.39397315
-0.4374182
-0.47678409
-0.51208149
-0.54345073
-0.57110557
-0.59527689
-0.61625072
-0.63436365
-0.64989689
-0.66310939
-0.67434962
-0.68386904
-0.69191173
-0.69871493
-0.7044571
-0.70936099
-0.71361626
0.76039163
0.75639151
0.75137645
0.74528541
0.73808427
0.72957506
0.71949225
0.70758032
0.69354919
0.67703673
0.65776865
0.63543642
0.60968848
0.58021937
0.54677582
0.50912559
0.46712274
0.42075981
0.37014914
0.3155253
0.25726426
0.19588294
0.13203471
0.066479438
4.9753082e-05
-0.066379737
-0.13193431
-0.19578223
-0.25716353
-0.31542493
-0.37004992
-0.42066221
-0.46702729
-0.50903067
-0.54668444
-0.58013647
-0.60961341
-0.63536365
-0.65769298
-0.67695863
-0.69346395
-0.70748993
-0.71940428
-0.72947771
-0.73797162
-0.74513853
-0.75117098
-0.75630286
-0.76073353
0.81029065
0.80609655
0.80083783
0.79444054
0.78685493
0.77786822
0.76719896
0.75457315
0.73968073
0.72213908
0.70165043
0.67788291
0.65046301
0.61906433
0.58341516
0.54326968
0.498474
0.44901899
0.39502377
0.33673924
0.27456747
0.20906121
0.14091841
0.070950917
4.8796836e-05
-0.070853136
-0.14081994
-0.20896244
-0.27446868
-0.3366408
-0.39492646
-0.44892327
-0.49838038
-0.5431766
-0.58332553
-0.61898302
-0.65038938
-0.67781154
-0.70157622
-0.72206248
-0.73959713
-0.7544845
-0.76711268
-0.77777273
-0.78674445
-0.79429648
-0.8006363
-0.8060096
-0.81062601
0.86312872
0.8587292
0.85321249
0.84649092
0.8384982
0.82900585
0.8177156
0.80433387
0.78852943
0.76989798
0.74811686
0.72282952
0.69363918
0.66019728
0.62221257
0.57942489
0.53167186
0.47894265
0.42136353
0.35920269
0.29288986
0.2230157
0.15032536
0.075685769
4.7784298e-05
-0.075590021
-0.15022894
-0.22291898
-0.29279312
-0.35910629
-0.42126825
-0.47884892
-0.53158018
-0.57933374
-0.6221248
-0.66011766
-0.69356708
-0.72275963
-0.7480442
-0.76982297
-0.78844757
-0.80424706
-0.81763111
-0.82891235
-0.83839
-0.84634983
-0.85301513
-0.85864407
-0.86345716
0.91907897
0.91446193
0.90867201
0.90160706
0.89318325
0.88315549
0.87120768
0.85702551
0.84025534
0.82046989
0.79732019
0.77042351
0.73935845
0.70375298
0.66329517
0.61770966
0.56682509
0.51062884
0.44925473
0.38298925
0.31229144
0.23779211
0.16028639
0.080699507
4.6712084e-05
-0.080605911
-0.16019213
-0.23769756
-0.31219687
-0.38289501
-0.44916158
-0.51053721
-0.56673547
-0.61762056
-0.66320937
-0.70367515
-0.73928797
-0.77035519
-0.79724916
-0.82039657
-0.84017532
-0.85694065
-0.87112509
-0.88306409
-0.89307748
-0.90146913
-0.90847907
-0.91437871
-0.91940007
0.97832468
0.97347731
0.96739811
0.95996954
0.95108926
0.94049456
0.92785045
0.91282071
0.89502793
0.87402051
0.84942161
0.8208208
0.7877706
0.74987413
0.70679755
0.65824942
0.60404886
0.54418135
0.47878873
0.40817685
0.33283578
0.25343885
0.17083412
0.086008557
4.557673e-05
-0.08591724
-0.17074216
-0.25334661
-0.33274352
-0.40808491
-0.47869785
-0.54409195
-0.60396143
-0.65816249
-0.70671384
-0.74979819
-0.78770183
-0.82075414
-0.84935231
-0.87394897
-0.89494985
-0.91273791
-0.92776987
-0.94040537
-0.95098606
-0.95983496
-0.96720984
-0.97339611
-0.97863802
1.04106
1.0359687
1.0295832
1.0217696
1.0124059
1.0012109
0.9878295
0.97190225
0.95302663
0.93072527
0.90459182
0.87418651
0.83903425
0.79871183
0.75286224
0.70117698
0.64346513
0.57971013
0.51006229
0.434848
0.3545902
0.2700072
0.18200313
0.091630312
4.4374557e-05
-0.091541409
-0.1819136
-0.2699174
-0.35450037
-0.4347585
-0.50997381
-0.57962309
-0.64338001
-0.70109235
-0.75278074
-0.79863789
-0.83896729
-0.87412161
-0.90452435
-0.93065563
-0.95295062
-0.97182164
-0.98775104
-1.0011241
-1.0123055
-1.0216385
-1.0293999
-1.0358896
-1.0413651
1.1074904
1.1021408
1.0954309
1.0872096
1.0773342
1.0655034
1.0513413
1.0344637
1.0144415
0.99076996
0.96301158
0.93069547
0.89331734
0.85042609
0.80164016
0.746633
0.68520304
0.61733156
0.54317788
0.46309011
0.37762596
0.28755143
0.19382999
0.097583191
4.3101472e-05
-0.097496844
-0.19374303
-0.28746421
-0.37753872
-0.46300317
-0.54309194
-0.61724702
-0.68512036
-0.7465508
-0.801561
-0.85035428
-0.89325231
-0.93063244
-0.96294604
-0.99070232
-1.0143676
-1.0343854
-1.0512651
-1.0654191
-1.0772366
-1.0870823
-1.0952529
-1.1020641
-1.1077868
1.1778335
1.1722105
1.1651571
1.1565041
1.1460867
1.1335828
1.118594
1.10071
1.0794737
1.0543513
1.0248723
0.99053282
0.95079772
0.90518633
0.85329111
0.79476639
0.72939932
0.6571689
0.57824398
0.49299568
0.40201853
0.30612902
0.20635346
0.1038867
4.1753411e-05
-0.10380306
-0.20626923
-0.30604454
-0.40193402
-0.49291146
-0.57816074
-0.65708701
-0.72931923
-0.79468677
-0.85321443
-0.90511677
-0.95073472
-0.99047177
-1.0248088
-1.0542858
-1.0794021
-1.1006342
-1.1185202
-1.1335011
-1.1459921
-1.1563808
-1.1649846
-1.1721361
-1.1781207
1.2523199
1.2464073
1.2389902
1.22988
1.2188887
1.2056721
1.1898079
1.1708583
1.1483362
1.1216776
1.0903766
1.0538946
1.0116637
0.96317197
0.90798431
0.84573485
0.77619877
0.69935268
0.61537549
0.52466269
0.42784783
0.32580084
0.21961456
0.11056148
4.0325983e-05
-0.1104807
-0.21953322
-0.32571925
-0.42776622
-0.52458136
-0.6152951
-0.69927359
-0.77612142
-0.84565795
-0.90791025
-0.96310478
-1.0116029
-1.0538356
-1.0903153
-1.1216143
-1.1482672
-1.170785
-1.1897366
-1.2055932
-1.2187974
-1.2297609
-1.2388235
-1.2463354
-1.2525973
1.3311935
1.3249742
1.317172
1.3075778
1.2959788
1.2820074
1.2652162
1.2451383
1.2212549
1.1929694
1.1597391
1.1209884
1.0761147
1.024573
0.96589896
0.89970536
0.82575472
0.74402109
0.65469406
0.55819491
0.45519849
0.34663133
0.23365675
0.11762941
3.8814507e-05
-0.11755167
-0.23357846
-0.34655281
-0.45511994
-0.55811663
-0.65461669
-0.74394497
-0.82568028
-0.89963136
-0.96582768
-1.0245083
-1.0760562
-1.1209317
-1.1596801
-1.1929085
-1.2211884
-1.2450678
-1.2651476
-1.2819314
-1.2958909
-1.3074631
-1.3170116
-1.3249051
-1.3314606
1.4147128
1.4081688
1.3999587
1.389852
1.3776095
1.3628389
1.3450661
1.3237934
1.2984684
1.2684603
1.2331871
1.1920341
1.1443619
1.0895905
1.0272248
0.95685475
0.87822953
0.79132048
0.6963285
0.59370217
0.4841601
0.36868875
0.24852603
0.12511364
3.7214025e-05
-0.12503912
-0.24845097
-0.36861347
-0.48408481
-0.59362713
-0.69625432
-0.79124751
-0.87815816
-0.9567838
-1.0271565
-1.0895285
-1.1443058
-1.1919797
-1.2331305
-1.2684019
-1.2984046
-1.3237258
-1.3450003
-1.362766
-1.3775252
-1.389742
-1.3998049
-1.4081025
-1.4149689
1.5031514
1.4962635
1.4876216
1.4769721
1.4640482
1.4484313
1.4296192
1.4070813
1.3802298
1.3483977
1.3109611
1.2672643
1.2166288
1.1584376
1.0921627
1.0173703
0.93379511
0.84140581
0.74041521
0.63130083
0.51482756
0.39204535
0.2642711
0.1330387
3.5519169e-05
-0.13296757
-0.26419948
-0.3919735
-0.5147557
-0.63122921
-0.74034442
-0.84133617
-0.933727
-1.0173025
-1.0920975
-1.1583784
-1.2165753
-1.2672124
-1.3109071
-1.3483419
-1.3801689
-1.4070167
-1.4295564
-1.4483618
-1.4639677
-1.4768671
-1.4874748
-1.4962003
-1.5033959
1.596799
1.589547
1.5804478
1.5692236
1.5555782
1.5390652
1.5191525
1.4952748
1.466807
1.4330433
1.3933161
1.3469256
1.2931523
1.2313398
1.1609255
1.0814501
0.99263352
0.89444118
0.78709864
0.67111405
0.54730134
0.41677766
0.28094357
0.14143054
3.372462e-05
-0.14136302
-0.28087557
-0.41670945
-0.54723312
-0.67104606
-0.78703143
-0.89437506
-0.99256886
-1.0813858
-1.1608636
-1.2312836
-1.2931015
-1.3468763
-1.3932648
-1.4329904
-1.4667492
-1.4952136
-1.5190929
-1.5389992
-1.5555018
-1.5691239
-1.5803084
-1.589487
-1.5970312
1.6959625
1.6883249
1.6787415
1.6669087
1.6524993
1.6350374
1.6139593
1.588663
1.5584835
1.5226746
1.4805218
1.431279
1.3741831
1.3085359
1.2337384
1.1493043
1.0549375
0.95060034
0.83653173
0.71327227
0.58168783
0.4429667
0.29859805
0.15031667
3.1824368e-05
-0.15025296
-0.29853389
-0.44290235
-0.58162347
-0.71320812
-0.83646832
-0.95053796
-1.0548765
-1.1492437
-1.23368
-1.3084829
-1.3741351
-1.4312325
-1.4804734
-1.5226247
-1.558429
-1.5886052
-1.613903
-1.6349751
-1.6524272
-1.6668146
-1.6786099
-1.6882682
-1.6961817
1.8009666
1.7929208
1.7828247
1.7703474
1.755129
1.7366623
1.7143502
1.6875517
1.6555599
1.6175852
1.5728639
1.5206008
1.4599865
1.3902789
1.3108401
1.2211551
1.1209112
1.0100673
0.88887644
0.75791362
0.61809969
0.47069828
0.31729238
0.15972618
2.9812063e-05
-0.15966652
-0.31723229
-0.47063801
-0.61803941
-0.75785354
-0.88881704
-1.0100089
-1.1208541
-1.2210983
-1.3107853
-1.3902292
-1.4599416
-1.5205573
-1.5728186
-1.6175384
-1.6555088
-1.6874975
-1.7142975
-1.736604
-1.7550615
-1.7702593
-1.7827014
-1.7928677
-1.8011721
1.9121556
1.9036774
1.8930384
1.8798787
1.8638037
1.844273
1.8206542
1.792265
1.758354
1.7180861
1.670645
1.6151837
1.5508438
1.4768365
1.392483
1.2972379
1.1907708
1.0730368
0.94430425
0.80518435
0.65665621
0.50006326
0.3370878
0.16968992
2.7681228e-05
-0.16963453
-0.33703202
-0.50000731
-0.65660025
-0.80512857
-0.94424912
-1.0729826
-1.1907177
-1.2971852
-1.3924321
-1.4767904
-1.5508021
-1.6151433
-1.6706029
-1.7180426
-1.7583066
-1.7922147
-1.8206052
-1.8442188
-1.8637409
-1.8797969
-1.8929239
-1.9036282
-1.9123464
2.0298936
2.0209576
2.0097437
1.9958614
1.9788792
1.9582219
1.9332194
1.9031459
1.8672027
1.8245064
1.7741854
1.7153375
1.6470526
1.5684925
1.4789347
1.3778021
1.2647451
1.1397153
1.0029968
0.85523933
0.69748372
0.53115784
0.35804918
0.18024053
2.5425112e-05
-0.18018967
-0.35799797
-0.53110646
-0.69743234
-0.85518811
-1.0029461
-1.1396655
-1.2646964
-1.3777536
-1.478888
-1.5684501
-1.6470143
-1.7153004
-1.7741468
-1.8244665
-1.8671591
-1.9030997
-1.9331745
-1.9581721
-1.9788216
-1.9957862
-2.0096384
-2.0209124
-2.0300689
2.1545663
2.1451455
2.1333229
2.1186755
2.1007328
2.0788825
2.0524148
2.0205576
1.9824626
1.9371949
1.8838243
1.8213904
1.7489281
1.6655469