/*--------------------------------*- C++ -*----------------------------------*\
| =========                 |                                                 |
| \\      /  F ield         | OpenFOAM: The Open Source CFD Toolbox           |
|  \\    /   O peration     | Version:  v2006                                 |
|   \\  /    A nd           | Website:  www.openfoam.com                      |
|    \\/     M anipulation  |                                                 |
\*---------------------------------------------------------------------------*/
FoamFile
{
    version     2.0;
    format      ascii;
    class       volScalarField;
    location    "2500";
    object      k;
}
// * * * * * * * * * * * * * * * * * * * * * * * * * * * * * * * * * * * * * //

dimensions      [0 2 -2 0 0 0 0];


internalField   nonuniform List<scalar> 
19765
(
0.00015499991
0.00015793881
0.00016090948
0.00016391508
0.00016725626
0.00017051142
0.00017432343
0.00017746237
0.00018170105
0.00018429641
0.00018660677
0.00018937178
0.00019213467
0.0001940364
0.00019629207
0.00019897943
0.00020130243
0.00020332336
0.00020586089
0.00020869639
0.00021159076
0.00021415745
0.00021691586
0.0002200496
0.00022301589
0.00022533699
0.00022793151
0.00023092498
0.00023345487
0.00023603077
0.00023895392
0.00024228745
0.00024641449
0.00024925556
0.00025094214
0.0002535186
0.00025734005
0.00025997286
0.00026349535
0.00026866973
0.00027257143
0.00027383681
0.00027681776
0.00027699401
0.00027747694
0.00027727422
0.00027654221
0.0002750338
0.00027271813
0.0001563216
0.00015902418
0.00016263772
0.0001708588
0.00017864549
0.00018663689
0.00019360243
0.00020282823
0.00021038368
0.00022040392
0.00023148579
0.00024053657
0.00024712348
0.00025287406
0.00025675375
0.00025809341
0.0002591527
0.00026102257
0.00026333025
0.00026580029
0.00026885295
0.00027258913
0.00027610346
0.00027997429
0.00028601474
0.00029414385
0.00030163206
0.00030911651
0.000318795
0.00032878153
0.00033816278
0.00034656434
0.00035355138
0.00036342079
0.0003749249
0.00038352958
0.00038903149
0.00039585864
0.00039917925
0.00039892153
0.00040166121
0.00040466576
0.00039981055
0.00039861997
0.00039475801
0.00039024132
0.0003826835
0.00037294218
0.00036186124
1.6564834e-05
1.5924866e-05
1.5578363e-05
1.6335154e-05
1.6774747e-05
1.7187649e-05
1.7274628e-05
1.7764242e-05
1.7769744e-05
1.8268818e-05
1.8873541e-05
1.905475e-05
1.8877147e-05
1.871296e-05
1.8310376e-05
1.7676072e-05
1.7251734e-05
1.7000133e-05
1.676447e-05
1.6549521e-05
1.651872e-05
1.6721479e-05
1.6873821e-05
1.7033115e-05
1.7582268e-05
1.866197e-05
1.9776822e-05
2.0939416e-05
2.2586252e-05
2.4449327e-05
2.6359352e-05
2.8233776e-05
2.9919238e-05
3.2412654e-05
3.5672696e-05
3.866672e-05
4.1078964e-05
4.4196885e-05
4.6817492e-05
4.8235127e-05
5.02547e-05
5.3970474e-05
5.5895215e-05
5.9305529e-05
6.1599402e-05
6.7481108e-05
7.5382267e-05
8.5212816e-05
9.3122776e-05
3.7233943e-07
3.3362992e-07
3.1377077e-07
3.1766714e-07
3.1856163e-07
3.1990777e-07
3.167256e-07
3.1965564e-07
3.1555693e-07
3.1736294e-07
3.2056662e-07
3.1817501e-07
3.1103546e-07
3.04787e-07
2.9660502e-07
2.8598221e-07
2.7893213e-07
2.7545308e-07
2.7216654e-07
2.6848677e-07
2.6844711e-07
2.7271362e-07
2.7556762e-07
2.7915427e-07
2.887675e-07
3.0637893e-07
3.2568418e-07
3.4704799e-07
3.7642196e-07
4.1090684e-07
4.4878984e-07
4.8913417e-07
5.3037244e-07
5.8815769e-07
6.6403482e-07
7.4291521e-07
8.203654e-07
9.1906655e-07
1.0160161e-06
1.0982647e-06
1.2065474e-06
1.3704961e-06
1.515088e-06
1.7485178e-06
1.978498e-06
2.3094066e-06
2.7088657e-06
3.2103424e-06
3.8013602e-06
7.4601566e-08
7.4577623e-08
7.5156645e-08
7.7070817e-08
7.862586e-08
8.0142707e-08
8.1219824e-08
8.2766782e-08
8.3638377e-08
8.5073236e-08
8.6665476e-08
8.7739749e-08
8.8383117e-08
8.9128267e-08
8.9611576e-08
8.9768751e-08
9.0313894e-08
9.1275374e-08
9.2115197e-08
9.2850541e-08
9.3896899e-08
9.5251818e-08
9.6594835e-08
9.8194935e-08
1.0052209e-07
1.0384308e-07
1.0741155e-07
1.1116289e-07
1.1572823e-07
1.2073059e-07
1.2589776e-07
1.310932e-07
1.3600738e-07
1.4195372e-07
1.4892243e-07
1.5554451e-07
1.6131021e-07
1.6778583e-07
1.7353568e-07
1.7775505e-07
1.8263832e-07
1.8942297e-07
1.9435327e-07
2.0187195e-07
2.0827474e-07
2.1670397e-07
2.2536967e-07
2.3236887e-07
2.3806349e-07
5.2996682e-08
5.3142518e-08
5.3559558e-08
5.4517428e-08
5.5274886e-08
5.6038244e-08
5.6635901e-08
5.7408149e-08
5.790311e-08
5.865409e-08
5.9391105e-08
5.9897515e-08
6.0262704e-08
6.0668546e-08
6.0966727e-08
6.1194212e-08
6.1622198e-08
6.2213558e-08
6.2763663e-08
6.331209e-08
6.3995316e-08
6.4797915e-08
6.573279e-08
6.6840118e-08
6.8250998e-08
7.011736e-08
7.2158987e-08
7.431133e-08
7.6836194e-08
7.961792e-08
8.2533528e-08
8.5537187e-08
8.8437794e-08
9.1703336e-08
9.5453557e-08
9.9238507e-08
1.0266171e-07
1.0630779e-07
1.0982658e-07
1.1271816e-07
1.1557839e-07
1.1938221e-07
1.2249021e-07
1.2663782e-07
1.305134e-07
1.3523486e-07
1.4042602e-07
1.4613044e-07
1.5121632e-07
4.1240071e-08
4.1232094e-08
4.1357305e-08
4.1757402e-08
4.2069969e-08
4.2393994e-08
4.2649929e-08
4.2999299e-08
4.322837e-08
4.358646e-08
4.3949988e-08
4.421349e-08
4.4418272e-08
4.4650112e-08
4.4839497e-08
4.5003313e-08
4.5274334e-08
4.5640048e-08
4.6003421e-08
4.6381204e-08
4.6820496e-08
4.731034e-08
4.7884175e-08
4.857252e-08
4.9428828e-08
5.0516528e-08
5.1699608e-08
5.2959269e-08
5.4420176e-08
5.6021616e-08
5.7707822e-08
5.9454018e-08
6.1174845e-08
6.308988e-08
6.524622e-08
6.7425803e-08
6.9454364e-08
7.1599631e-08
7.3694425e-08
7.5510103e-08
7.733293e-08
7.95764e-08
8.1507559e-08
8.3887806e-08
8.6128291e-08
8.8704958e-08
9.1427455e-08
9.4314134e-08
9.6961351e-08
3.5112931e-08
3.5109945e-08
3.5180133e-08
3.5403202e-08
3.5577109e-08
3.5756852e-08
3.58993e-08
3.6091669e-08
3.6220674e-08
3.6419342e-08
3.6622095e-08
3.6775802e-08
3.6903425e-08
3.7049754e-08
3.7179991e-08
3.7304917e-08
3.7493184e-08
3.77381e-08
3.7991762e-08
3.8266046e-08
3.8584933e-08
3.8941019e-08
3.9358833e-08
3.9853292e-08
4.0448894e-08
4.1180293e-08
4.1976348e-08
4.2828729e-08
4.3805784e-08
4.4875483e-08
4.6007735e-08
4.7189112e-08
4.8372764e-08
4.9676589e-08
5.1128871e-08
5.2613158e-08
5.4031281e-08
5.5526419e-08
5.701113e-08
5.8357248e-08
5.9714174e-08
6.1322605e-08
6.2777499e-08
6.4507548e-08
6.6192484e-08
6.8107951e-08
7.0161984e-08
7.2379469e-08
7.45173e-08
3.1250055e-08
3.1236678e-08
3.1266697e-08
3.1388958e-08
3.1484347e-08
3.1585072e-08
3.1666336e-08
3.1778333e-08
3.1856403e-08
3.1976493e-08
3.2101476e-08
3.2201837e-08
3.2290975e-08
3.2394205e-08
3.24923e-08
3.2591952e-08
3.2732096e-08
3.2909181e-08
3.3096804e-08
3.3302104e-08
3.3537225e-08
3.3796547e-08
3.4095894e-08
3.4448046e-08
3.486677e-08
3.5370129e-08
3.5917669e-08
3.6506175e-08
3.7174942e-08
3.7905345e-08
3.8680752e-08
3.9493315e-08
4.0316725e-08
4.1217443e-08
4.2210573e-08
4.3228859e-08
4.4217156e-08
4.5255384e-08
4.6293086e-08
4.7256482e-08
4.8230852e-08
4.9347224e-08
5.0378153e-08
5.1560563e-08
5.2713609e-08
5.3987735e-08
5.532701e-08
5.6740201e-08
5.8088407e-08
2.8799475e-08
2.8795008e-08
2.8816069e-08
2.8894436e-08
2.8955901e-08
2.9020889e-08
2.9074388e-08
2.914724e-08
2.9200555e-08
2.9280499e-08
2.9364763e-08
2.9436302e-08
2.9503519e-08
2.9581586e-08
2.9659408e-08
2.9741489e-08
2.9851022e-08
2.9985963e-08
3.0131122e-08
3.0291219e-08
3.0473687e-08
3.0674995e-08
3.0904337e-08
3.1170799e-08
3.1483278e-08
3.185202e-08
3.2252726e-08
3.2684259e-08
3.3171279e-08
3.3702712e-08
3.4268647e-08
3.4864418e-08
3.5473887e-08
3.6137849e-08
3.6866238e-08
3.761783e-08
3.835776e-08
3.9134857e-08
3.9918353e-08
4.0661199e-08
4.1414514e-08
4.22628e-08
4.3062951e-08
4.3964913e-08
4.4856217e-08
4.583395e-08
4.6865681e-08
4.7963268e-08
4.9029607e-08
2.7132547e-08
2.7133717e-08
2.7150857e-08
2.7205488e-08
2.7249545e-08
2.7296356e-08
2.7336457e-08
2.7389576e-08
2.7431284e-08
2.7490856e-08
2.7554377e-08
2.7611496e-08
2.7667654e-08
2.7732356e-08
2.7798852e-08
2.7870157e-08
2.7960709e-08
2.8069286e-08
2.8186657e-08
2.8315819e-08
2.8461398e-08
2.8621056e-08
2.8800185e-08
2.9005419e-08
2.9243246e-08
2.9519586e-08
2.981914e-08
3.0141775e-08
3.0503479e-08
3.0897376e-08
3.1317433e-08
3.1760784e-08
3.2217317e-08
3.2712875e-08
3.3253791e-08
3.3813579e-08
3.4369884e-08
3.4953278e-08
3.5543857e-08
3.6110792e-08
3.6686426e-08
3.7323308e-08
3.7930242e-08
3.8601106e-08
3.9264129e-08
3.9979604e-08
4.0725908e-08
4.1509387e-08
4.2265672e-08
2.5970646e-08
2.5979167e-08
2.5997464e-08
2.6040719e-08
2.6076971e-08
2.6115328e-08
2.6149663e-08
2.6193052e-08
2.622971e-08
2.6278811e-08
2.6331432e-08
2.6381148e-08
2.6431579e-08
2.6488856e-08
2.6548751e-08
2.6613298e-08
2.6691698e-08
2.678317e-08
2.688191e-08
2.6989841e-08
2.7109923e-08
2.7240697e-08
2.7385302e-08
2.7548302e-08
2.7734668e-08
2.7948e-08
2.8178332e-08
2.8426019e-08
2.8701931e-08
2.9001783e-08
2.9321849e-08
2.9660459e-08
3.0011101e-08
3.0390967e-08
3.0804528e-08
3.123424e-08
3.1664945e-08
3.2116786e-08
3.2576512e-08
3.3022901e-08
3.3476927e-08
3.3974506e-08
3.4453738e-08
3.4978102e-08
3.5499258e-08
3.6058447e-08
3.6641531e-08
3.7254885e-08
3.7850382e-08
2.5136903e-08
2.5151248e-08
2.5171754e-08
2.5209413e-08
2.5242479e-08
2.5277311e-08
2.530986e-08
2.5349023e-08
2.5384344e-08
2.5428693e-08
2.5476243e-08
2.5522902e-08
2.5571101e-08
2.5624868e-08
2.5681464e-08
2.574222e-08
2.5813076e-08
2.5893493e-08
2.5979679e-08
2.6072805e-08
2.6174742e-08
2.6284511e-08
2.6403894e-08
2.6536026e-08
2.6684783e-08
2.6852361e-08
2.7032155e-08
2.7224753e-08
2.7437717e-08
2.7668361e-08
2.7914431e-08
2.8175044e-08
2.8445989e-08
2.8738957e-08
2.9057111e-08
2.9388523e-08
2.9722767e-08
3.007334e-08
3.0431125e-08
3.0781196e-08
3.1137584e-08
3.1524428e-08
3.1899201e-08
3.2304651e-08
3.2707564e-08
3.3135542e-08
3.3578531e-08
3.4040723e-08
3.4487156e-08
2.4526517e-08
2.45463e-08
2.4569886e-08
2.4605449e-08
2.4638005e-08
2.4672122e-08
2.4705096e-08
2.4743109e-08
2.4779136e-08
2.4821953e-08
2.4867725e-08
2.4913815e-08
2.4961848e-08
2.5014485e-08
2.5069899e-08
2.5128904e-08
2.5195317e-08
2.526872e-08
2.5346536e-08
2.5429412e-08
2.5518479e-08
2.5612997e-08
2.5713918e-08
2.5823394e-08
2.594442e-08
2.607833e-08
2.6220713e-08
2.637227e-08
2.6538394e-08
2.6717471e-08
2.6908271e-08
2.7110472e-08
2.7321352e-08
2.7549065e-08
2.7795983e-08
2.8053908e-08
2.8315527e-08
2.859018e-08
2.8871525e-08
2.9148827e-08
2.9431605e-08
2.9736932e-08
3.003457e-08
3.035457e-08
3.0673407e-08
3.1010584e-08
3.1358961e-08
3.1722255e-08
3.2073191e-08
2.4073141e-08
2.4097495e-08
2.4124233e-08
2.4159551e-08
2.4193016e-08
2.4227969e-08
2.4262593e-08
2.4301262e-08
2.4339198e-08
2.4382451e-08
2.4428497e-08
2.4475618e-08
2.452487e-08
2.4577994e-08
2.4633728e-08
2.4692488e-08
2.4756662e-08
2.4825877e-08
2.48983e-08
2.4974181e-08
2.5054127e-08
2.5137482e-08
2.5224662e-08
2.5317137e-08
2.5417189e-08
2.5525598e-08
2.5639417e-08
2.5759396e-08
2.5889432e-08
2.6028682e-08
2.617666e-08
2.6333371e-08
2.6497033e-08
2.6673432e-08
2.6864434e-08
2.7064413e-08
2.7268248e-08
2.7482505e-08
2.7702706e-08
2.7921026e-08
2.8144024e-08
2.8383685e-08
2.8618292e-08
2.8868945e-08
2.9118731e-08
2.9381259e-08
2.9651206e-08
2.9931272e-08
3.0200468e-08
2.373214e-08
2.3760621e-08
2.3790596e-08
2.3826849e-08
2.3862102e-08
2.3898848e-08
2.3935875e-08
2.3976316e-08
2.4016913e-08
2.4061847e-08
2.4109479e-08
2.4158683e-08
2.4210104e-08
2.4264843e-08
2.4321988e-08
2.4381642e-08
2.4445196e-08
2.4512275e-08
2.45815e-08
2.4652808e-08
2.4726415e-08
2.4801669e-08
2.4878622e-08
2.4958256e-08
2.5042274e-08
2.513109e-08
2.5222755e-08
2.5318035e-08
2.5419783e-08
2.5527806e-08
2.5642112e-08
2.5762808e-08
2.5888759e-08
2.6024257e-08
2.6170924e-08
2.6324977e-08
2.6482838e-08
2.6649208e-08
2.6820916e-08
2.6992206e-08
2.7167621e-08
2.7355794e-08
2.7540855e-08
2.7737956e-08
2.7934735e-08
2.8140972e-08
2.8352668e-08
2.85721e-08
2.8782459e-08
2.3474008e-08
2.3506151e-08
2.3539284e-08
2.3577158e-08
2.3614706e-08
2.3653821e-08
2.3693705e-08
2.3736631e-08
2.3780377e-08
2.3827823e-08
2.3877932e-08
2.3929964e-08
2.3984255e-08
2.4041447e-08
2.4100841e-08
2.4162287e-08
2.4226456e-08
2.4292943e-08
2.4360633e-08
2.442921e-08
2.4498581e-08
2.4568053e-08
2.4637409e-08
2.4707279e-08
2.4778889e-08
2.48524e-08
2.492656e-08
2.5002125e-08
2.508123e-08
2.5164278e-08
2.5251428e-08
2.5342754e-08
2.5437766e-08
2.5539869e-08
2.5650545e-08
2.5767286e-08
2.5887598e-08
2.6014868e-08
2.6146858e-08
2.627932e-08
2.6415426e-08
2.6561376e-08
2.6705506e-08
2.6858689e-08
2.7011797e-08
2.7171797e-08
2.7335602e-08
2.7504952e-08
2.766645e-08
2.3277688e-08
2.3313225e-08
2.3349493e-08
2.3389465e-08
2.3429665e-08
2.3471552e-08
2.3514622e-08
2.3560536e-08
2.3607796e-08
2.3658352e-08
2.3711588e-08
2.3767013e-08
2.3824728e-08
2.3885034e-08
2.3947356e-08
2.4011332e-08
2.4077097e-08
2.4144194e-08
2.4211654e-08
2.4278942e-08
2.4345712e-08
2.4411201e-08
2.4474988e-08
2.4537438e-08
2.459938e-08
2.4660795e-08
2.4720927e-08
2.478051e-08
2.4841221e-08
2.4904005e-08
2.496869e-08
2.5035559e-08
2.5104919e-08
2.5179555e-08
2.5260744e-08
2.5346844e-08
2.5436159e-08
2.5531187e-08
2.5630397e-08
2.5730686e-08
2.5834283e-08
2.5945699e-08
2.60563e-08
2.6173974e-08
2.6291919e-08
2.6415168e-08
2.6541312e-08
2.6671783e-08
2.6795667e-08
2.3128605e-08
2.316732e-08
2.3206681e-08
2.3249074e-08
2.3292171e-08
2.3337118e-08
2.3383619e-08
2.3432893e-08
2.3483955e-08
2.3538082e-08
2.359495e-08
2.365423e-08
2.3715835e-08
2.3779805e-08
2.3845632e-08
2.3912767e-08
2.3980936e-08
2.4049612e-08
2.4117893e-08
2.4185049e-08
2.4250519e-08
2.4313448e-08
2.4373249e-08
2.4430091e-08
2.4484459e-08
2.4536206e-08
2.4584934e-08
2.4631357e-08
2.4676902e-08
2.4722924e-08
2.4768391e-08
2.4814671e-08
2.4862653e-08
2.4914377e-08
2.4970881e-08
2.5031211e-08
2.5094333e-08
2.5162164e-08
2.5233722e-08
2.5306775e-08
2.5382895e-08
2.5465355e-08
2.5547757e-08
2.5635804e-08
2.5724397e-08
2.5817135e-08
2.5912104e-08
2.6010423e-08
2.6103206e-08
2.3016035e-08
2.3057817e-08
2.3100279e-08
2.3145351e-08
2.3191556e-08
2.3239805e-08
2.3289954e-08
2.3342902e-08
2.3398027e-08
2.3456113e-08
2.3517039e-08
2.3580578e-08
2.3646492e-08
2.3714613e-08
2.3784456e-08
2.385531e-08
2.3926574e-08
2.3997639e-08
2.4067613e-08
2.4135591e-08
2.4200819e-08
2.4262335e-08
2.4319414e-08
2.4372067e-08
2.4420491e-08
2.4464437e-08
2.4503776e-08
2.4539205e-08
2.4572071e-08
2.4603856e-08
2.4632486e-08
2.4661627e-08
2.469158e-08
2.4723692e-08
2.4759019e-08
2.4797256e-08
2.4837924e-08
2.4882535e-08
2.4930529e-08
2.4980337e-08
2.5033072e-08
2.5091109e-08
2.514972e-08
2.5213027e-08
2.5277197e-08
2.5344806e-08
2.5414315e-08
2.5486628e-08
2.5554431e-08
2.2932282e-08
2.2977066e-08
2.3022657e-08
2.3070622e-08
2.312012e-08
2.3171885e-08
2.3225886e-08
2.3282787e-08
2.3342224e-08
2.3404615e-08
2.3469982e-08
2.3538156e-08
2.360877e-08
2.3681491e-08
2.3755825e-08
2.3830911e-08
2.3905881e-08
2.3980033e-08
2.4052445e-08
2.4122049e-08
2.4187915e-08
2.4248964e-08
2.4304346e-08
2.435394e-08
2.4397702e-08
2.4435301e-08
2.4466803e-08
2.4492912e-08
2.4514988e-08
2.4534172e-08
2.4548448e-08
2.4563225e-08
2.4577243e-08
2.4592038e-08
2.4608871e-08
2.4627908e-08
2.4649067e-08
2.4673569e-08
2.4701177e-08
2.4730845e-08
2.4763362e-08
2.4800444e-08
2.4838625e-08
2.4880857e-08
2.4924257e-08
2.4970636e-08
2.5018743e-08
2.5069279e-08
2.5116227e-08
2.2871587e-08
2.2919373e-08
2.2968158e-08
2.3019217e-08
2.3072192e-08
2.3127685e-08
2.318575e-08
2.3246871e-08
2.3310877e-08
2.3377904e-08
2.3448074e-08
2.3521248e-08
2.3596948e-08
2.3674697e-08
2.3753974e-08
2.3833779e-08
2.3913013e-08
2.3990875e-08
2.4066381e-08
2.4138308e-08
2.420556e-08
2.4266935e-08
2.4321466e-08
2.4368911e-08
2.4409035e-08
2.4441425e-08
2.4466299e-08
2.4484383e-08
2.4497037e-08
2.4504179e-08
2.4508939e-08
2.450923e-08
2.4508622e-08
2.450809e-08
2.4508655e-08
2.4510792e-08
2.4514757e-08
2.4521587e-08
2.4531311e-08
2.45433e-08
2.4558124e-08
2.4577015e-08
2.4597474e-08
2.462159e-08
2.4647199e-08
2.4675558e-08
2.4705634e-08
2.4737976e-08
2.476761e-08
2.2829724e-08
2.2880549e-08
2.2932618e-08
2.2986967e-08
2.304361e-08
2.3103045e-08
2.3165393e-08
2.3231004e-08
2.3299845e-08
2.3371837e-08
2.3447168e-08
2.3525707e-08
2.3606878e-08
2.369008e-08
2.3774744e-08
2.3859739e-08
2.3943762e-08
2.4025903e-08
2.4105098e-08
2.4179966e-08
2.4249256e-08
2.4311635e-08
2.4366023e-08
2.4412067e-08
2.4449373e-08
2.4477453e-08
2.4496642e-08
2.4507718e-08
2.4511911e-08
2.4504896e-08
2.4500421e-08
2.4490838e-08
2.4477976e-08
2.4463744e-08
2.4449667e-08
2.4436632e-08
2.442518e-08
2.4416221e-08
2.441e-08
2.4406227e-08
2.4405322e-08
2.4408167e-08
2.4413004e-08
2.4421282e-08
2.4431387e-08
2.4444156e-08
2.4458731e-08
2.4475519e-08
2.4490416e-08
2.2803519e-08
2.2857461e-08
2.2912934e-08
2.2970776e-08
2.3031287e-08
2.3094893e-08
2.3161762e-08
2.3232142e-08
2.3306103e-08
2.3383396e-08
2.346425e-08
2.3548529e-08
2.3635568e-08
2.3724648e-08
2.3815145e-08
2.3905796e-08
2.3995114e-08
2.408207e-08
2.4165503e-08
2.4243876e-08
2.4315783e-08
2.4379759e-08
2.4434608e-08
2.4479873e-08
2.4515026e-08
2.453951e-08
2.4553752e-08
2.4558582e-08
2.4554668e-08
2.4544271e-08
2.4526958e-08
2.4504828e-08
2.4479621e-08
2.445267e-08
2.4425266e-08
2.439844e-08
2.4372953e-08
2.4349653e-08
2.4328982e-08
2.4310933e-08
2.4295836e-08
2.4284315e-08
2.4275193e-08
2.4269439e-08
2.4265866e-08
2.4264995e-08
2.4266107e-08
2.4269493e-08
2.4271766e-08
2.2790629e-08
2.2847798e-08
2.290682e-08
2.2968365e-08
2.3032964e-08
2.3100983e-08
2.317263e-08
2.3248074e-08
2.3327459e-08
2.3410402e-08
2.3497155e-08
2.3587566e-08
2.3680882e-08
2.3776278e-08
2.3873059e-08
2.3969835e-08
2.4064944e-08
2.4157234e-08
2.4245426e-08
2.4327829e-08
2.440288e-08
2.446898e-08
2.4524815e-08
2.4569825e-08
2.460337e-08
2.4624825e-08
2.4634695e-08
2.4633824e-08
2.4623071e-08
2.4603541e-08
2.4577003e-08
2.454499e-08
2.4509024e-08
2.447043e-08
2.4430648e-08
2.4390991e-08
2.4352461e-08
2.4315894e-08
2.4281905e-08
2.425072e-08
2.4222616e-08
2.4198029e-08
2.4176238e-08
2.4157852e-08
2.4142011e-08
2.4129004e-08
2.4118216e-08
2.4109834e-08
2.4101079e-08
2.2789326e-08
2.2849857e-08
2.2912601e-08
2.2978074e-08
2.3046999e-08
2.3119693e-08
2.3196396e-08
2.3277219e-08
2.3362356e-08
2.3451318e-08
2.3544364e-08
2.3641316e-08
2.3741338e-08
2.3843502e-08
2.3947034e-08
2.4050413e-08
2.4151811e-08
2.4249941e-08
2.4343397e-08
2.4430329e-08
2.4509017e-08
2.4577719e-08
2.4635003e-08
2.4680207e-08
2.4712593e-08
2.4731471e-08
2.4737411e-08
2.4731301e-08
2.4713962e-08
2.4686848e-08
2.4651582e-08
2.4609827e-08
2.4563348e-08
2.4513561e-08
2.4462017e-08
2.4410237e-08
2.4359415e-08
2.4310396e-08
2.4263945e-08
2.4220489e-08
2.418028e-08
2.4143621e-08
2.4110155e-08
2.4080218e-08
2.405321e-08
2.402924e-08
2.4007781e-08
2.3988925e-08
2.3970409e-08
2.2798365e-08
2.2862424e-08
2.2929084e-08
2.2998729e-08
2.3072236e-08
2.3149887e-08
2.3231951e-08
2.3318488e-08
2.3409733e-08
2.3505103e-08
2.3604859e-08
2.3708785e-08
2.3815966e-08
2.3925371e-08
2.4036137e-08
2.4146613e-08
2.4254804e-08
2.4359281e-08
2.44585e-08
2.4550444e-08
2.4633234e-08
2.4704983e-08
2.4764133e-08
2.4809923e-08
2.4841522e-08
2.4858183e-08
2.4860533e-08
2.4849498e-08
2.4825947e-08
2.479141e-08
2.4747677e-08
2.4696568e-08
2.4640004e-08
2.4579477e-08
2.4516654e-08
2.4453256e-08
2.4390665e-08
2.4329762e-08
2.4271455e-08
2.421635e-08
2.4164693e-08
2.4116698e-08
2.4072296e-08
2.4031621e-08
2.3994278e-08
2.3960236e-08
2.3929038e-08
2.3900693e-08
2.3873376e-08
2.2816887e-08
2.2884662e-08
2.2955458e-08
2.3029536e-08
2.3107905e-08
2.3190821e-08
2.3278575e-08
2.3371187e-08
2.3468922e-08
2.3571119e-08
2.3678025e-08
2.3789387e-08
2.3904206e-08
2.4021348e-08
2.4139857e-08
2.4257942e-08
2.4373443e-08
2.4484781e-08
2.4590261e-08
2.4687695e-08
2.4775038e-08
2.4850251e-08
2.491165e-08
2.4958371e-08
2.4989497e-08
2.5004227e-08
2.5003238e-08
2.4987506e-08
2.4957943e-08
2.4916208e-08
2.4864229e-08
2.4803966e-08
2.4737512e-08
2.4666465e-08
2.4592624e-08
2.4517904e-08
2.4443865e-08
2.4371445e-08
2.4301687e-08
2.4235353e-08
2.4172704e-08
2.4113895e-08
2.4059091e-08
2.4008273e-08
2.396121e-08
2.3917763e-08
2.3877533e-08
2.3840448e-08
2.3805067e-08
2.2844346e-08
2.2916049e-08
2.2991225e-08
2.3070018e-08
2.3153554e-08
2.3242067e-08
2.3335868e-08
2.3434945e-08
2.3539583e-08
2.3649051e-08
2.3763581e-08
2.388287e-08
2.4005836e-08
2.4131243e-08
2.4258027e-08
2.4384257e-08
2.4507604e-08
2.4626329e-08
2.4738576e-08
2.4841977e-08
2.4934316e-08
2.5013397e-08
2.5077402e-08
2.5125364e-08
2.5156283e-08
2.5169308e-08
2.5165162e-08
2.5144873e-08
2.5109418e-08
2.5060577e-08
2.5000426e-08
2.493108e-08
2.4854806e-08
2.4773325e-08
2.4688582e-08
2.4602681e-08
2.4517352e-08
2.4433613e-08
2.4352633e-08
2.4275321e-08
2.4201962e-08
2.4132679e-08
2.4067828e-08
2.4007279e-08
2.3950927e-08
2.3898553e-08
2.3849802e-08
2.3804528e-08
2.3761625e-08
2.2880455e-08
2.2956323e-08
2.3036149e-08
2.3119963e-08
2.3208997e-08
2.3303466e-08
2.3403702e-08
2.3509664e-08
2.362165e-08
2.373887e-08
2.3861527e-08
2.3989269e-08
2.4120927e-08
2.4255157e-08
2.439078e-08
2.452572e-08
2.4657474e-08
2.4784131e-08
2.4903662e-08
2.5013514e-08
2.5111291e-08
2.5194633e-08
2.5261585e-08
2.5311069e-08
2.5342009e-08
2.5353506e-08
2.5346325e-08
2.5321553e-08
2.528024e-08
2.5224298e-08
2.5155954e-08
2.5077486e-08
2.4991343e-08
2.4899387e-08
2.4803719e-08
2.4706631e-08
2.4610028e-08
2.4515015e-08
2.4422893e-08
2.4334701e-08
2.4250766e-08
2.4171193e-08
2.40965e-08
2.4026472e-08
2.3961108e-08
2.3900126e-08
2.3843204e-08
2.3790129e-08
2.3740091e-08
2.2925156e-08
2.300545e-08
2.3090222e-08
2.3179389e-08
2.3274279e-08
2.3375094e-08
2.3482185e-08
2.3595486e-08
2.3715304e-08
2.384079e-08
2.3972118e-08
2.4108877e-08
2.4249809e-08
2.4393457e-08
2.453852e-08
2.4682767e-08
2.4823515e-08
2.4958672e-08
2.5086023e-08
2.5202821e-08
2.5306482e-08
2.5394476e-08
2.5464701e-08
2.5515971e-08
2.5547129e-08
2.5557233e-08
2.5547089e-08
2.5517848e-08
2.5470643e-08
2.5407524e-08
2.5330876e-08
2.524315e-08
2.5146983e-08
2.5044396e-08
2.493766e-08
2.4829257e-08
2.4721265e-08
2.4614895e-08
2.4511575e-08
2.4412472e-08
2.4317961e-08
2.4228147e-08
2.4143684e-08
2.4064293e-08
2.399006e-08
2.3920652e-08
2.3855776e-08
2.3795149e-08
2.3738231e-08
2.2978595e-08
2.30636e-08
2.3153643e-08
2.3248523e-08
2.3349658e-08
2.3457244e-08
2.3571646e-08
2.3692777e-08
2.3820949e-08
2.3955258e-08
2.409584e-08
2.4242222e-08
2.4393053e-08
2.4546756e-08
2.4701899e-08
2.4856088e-08
2.5006449e-08
2.5150702e-08
2.5286432e-08
2.5410687e-08
2.5520687e-08
2.5613723e-08
2.5687545e-08
2.5740847e-08
2.5772396e-08
2.5781209e-08
2.5768133e-08
2.5734384e-08
2.5681192e-08
2.5610748e-08
2.5525605e-08
2.5428396e-08
2.5321956e-08
2.5208482e-08
2.5090426e-08
2.4970465e-08
2.4850857e-08
2.4732927e-08
2.4618235e-08
2.4508072e-08
2.4402866e-08
2.4302737e-08
2.4208457e-08
2.41197e-08
2.4036625e-08
2.3958854e-08
2.3886119e-08
2.381807e-08
2.3754412e-08
2.3041104e-08
2.3131136e-08
2.3226804e-08
2.3327787e-08
2.3435593e-08
2.355041e-08
2.3672618e-08
2.3802112e-08
2.3939205e-08
2.4082937e-08
2.4233404e-08
2.4390063e-08
2.4551465e-08
2.4715907e-08
2.4881814e-08
2.504662e-08
2.5207254e-08
2.5361229e-08
2.5505923e-08
2.5638167e-08
2.5754974e-08
2.585345e-08
2.5931187e-08
2.5986759e-08
2.6018852e-08
2.6026447e-08
2.601043e-08
2.597209e-08
2.591276e-08
2.583478e-08
2.574088e-08
2.5633883e-08
2.5516834e-08
2.5392122e-08
2.5262395e-08
2.5130532e-08
2.4998974e-08
2.4869175e-08
2.4742827e-08
2.4621345e-08
2.450522e-08
2.4394595e-08
2.4290343e-08
2.4192109e-08
2.4100111e-08
2.4013936e-08
2.3933335e-08
2.385789e-08
2.378754e-08
2.3113204e-08
2.3208605e-08
2.3310288e-08
2.3417799e-08
2.3532739e-08
2.3655287e-08
2.3785842e-08
2.3924278e-08
2.4070906e-08
2.4224713e-08
2.4385747e-08
2.4553392e-08
2.4726089e-08
2.4902004e-08
2.507941e-08
2.5255556e-08
2.5427162e-08
2.5591524e-08
2.5745797e-08
2.5886585e-08
2.6010685e-08
2.6115007e-08
2.6196979e-08
2.625505e-08
2.6287826e-08
2.6294253e-08
2.6275255e-08
2.62322e-08
2.6166531e-08
2.6080745e-08
2.5977756e-08
2.5860591e-08
2.5732517e-08
2.5596131e-08
2.5454289e-08
2.5310084e-08
2.5166145e-08
2.5024067e-08
2.4885679e-08
2.4752521e-08
2.462515e-08
2.4503743e-08
2.4389267e-08
2.4281346e-08
2.4180247e-08
2.4085528e-08
2.3996958e-08
2.3914047e-08
2.383696e-08
2.3195601e-08
2.3296748e-08
2.3404871e-08
2.3519376e-08
2.3641954e-08
2.3772781e-08
2.391227e-08
2.406028e-08
2.4217114e-08
2.4381704e-08
2.4554045e-08
2.4733439e-08
2.4918216e-08
2.5106397e-08
2.5296092e-08
2.5484352e-08
2.5667677e-08
2.5843131e-08
2.6007633e-08
2.6157548e-08
2.6289446e-08
2.6400031e-08
2.6486563e-08
2.654736e-08
2.6580945e-08
2.6586231e-08
2.6564183e-08
2.6516252e-08
2.6443999e-08
2.6350082e-08
2.623761e-08
2.6109828e-08
2.5970235e-08
2.5821656e-08
2.566717e-08
2.5510093e-08
2.535325e-08
2.5198389e-08
2.5047482e-08
2.4902193e-08
2.4763155e-08
2.4630587e-08
2.450554e-08
2.4387626e-08
2.4277158e-08
2.4173669e-08
2.4076941e-08
2.3986412e-08
2.3902469e-08
2.3289202e-08
2.3396507e-08
2.3511536e-08
2.3633543e-08
2.3764314e-08
2.3904018e-08
2.4053086e-08
2.4211358e-08
2.4379128e-08
2.4555272e-08
2.4739726e-08
2.4931702e-08
2.5129409e-08
2.5330712e-08
2.5533546e-08
2.5734753e-08
2.5930595e-08
2.6117893e-08
2.6293312e-08
2.6452967e-08
2.659319e-08
2.6710472e-08
2.6801893e-08
2.6865641e-08
2.6900149e-08
2.6904306e-08
2.6879115e-08
2.6826112e-08
2.6746985e-08
2.6644561e-08
2.6522153e-08
2.6383236e-08
2.6231559e-08
2.607019e-08
2.5902449e-08
2.5731883e-08
2.5561526e-08
2.5393286e-08
2.5229288e-08
2.5071322e-08
2.4920102e-08
2.4775898e-08
2.4639842e-08
2.451154e-08
2.4391347e-08
2.4278773e-08
2.417361e-08
2.4075226e-08
2.3984227e-08
2.3395127e-08
2.3509044e-08
2.3631496e-08
2.3761564e-08
2.3901135e-08
2.4050372e-08
2.4209725e-08
2.4379013e-08
2.455852e-08
2.4747061e-08
2.4944505e-08
2.5149969e-08
2.5361527e-08
2.5576881e-08
2.5793774e-08
2.6008822e-08
2.6218038e-08
2.641798e-08
2.6605047e-08
2.6775088e-08
2.6924188e-08
2.7048614e-08
2.7145265e-08
2.7212187e-08
2.7247728e-08
2.7250751e-08
2.7222298e-08
2.7163997e-08
2.7077668e-08
2.6966312e-08
2.6833456e-08
2.6682823e-08
2.6518427e-08
2.6343597e-08
2.6161909e-08
2.5977155e-08
2.5792586e-08
2.5610284e-08
2.5432529e-08
2.5261247e-08
2.5097239e-08
2.4940831e-08
2.4793237e-08
2.4654063e-08
2.4523703e-08
2.4401646e-08
2.4287698e-08
2.4181145e-08
2.4082827e-08
2.3514746e-08
2.3635775e-08
2.3766217e-08
2.3904962e-08
2.4054002e-08
2.4213497e-08
2.4383911e-08
2.4565044e-08
2.4757167e-08
2.4959027e-08
2.5170422e-08
2.539036e-08
2.5616775e-08
2.5847187e-08
2.6079132e-08
2.6308988e-08
2.6532495e-08
2.6745935e-08
2.6945425e-08
2.7126535e-08
2.728509e-08
2.7417128e-08
2.7519355e-08
2.7589678e-08
2.7626354e-08
2.7628224e-08
2.7596369e-08
2.7532517e-08
2.7438619e-08
2.7317859e-08
2.717399e-08
2.7010996e-08
2.6833178e-08
2.6644143e-08
2.644774e-08
2.6248017e-08
2.6048452e-08
2.5851311e-08
2.5659042e-08
2.5473708e-08
2.5296208e-08
2.5126933e-08
2.4967176e-08
2.4816551e-08
2.467549e-08
2.4543463e-08
2.4420288e-08
2.4305168e-08
2.4199186e-08
2.3649708e-08
2.3778404e-08
2.3917467e-08
2.4065571e-08
2.4224821e-08
2.4395373e-08
2.4577705e-08
2.4771598e-08
2.4977301e-08
2.5193494e-08
2.5419892e-08
2.5655386e-08
2.5897752e-08
2.6144318e-08
2.6392393e-08
2.6638096e-08
2.6876881e-08
2.7104732e-08
2.7317467e-08
2.7510366e-08
2.7678981e-08
2.7819114e-08
2.7927276e-08
2.8001227e-08
2.8039135e-08
2.8039821e-08
2.8004407e-08
2.7934721e-08
2.7832853e-08
2.7702172e-08
2.7546672e-08
2.7370616e-08
2.7178609e-08
2.6974556e-08
2.6762593e-08
2.6547036e-08
2.6331601e-08
2.6118751e-08
2.5911108e-08
2.5710884e-08
2.5519084e-08
2.5336174e-08
2.516353e-08
2.5000778e-08
2.4848391e-08
2.4705822e-08
2.4572902e-08
2.4448743e-08
2.4334692e-08
2.3801998e-08
2.3938978e-08
2.4087364e-08
2.4245585e-08
2.441587e-08
2.4598365e-08
2.4793566e-08
2.500123e-08
2.5221581e-08
2.5453223e-08
2.5695781e-08
2.5948014e-08
2.6207527e-08
2.6471439e-08
2.6736812e-08
2.6999485e-08
2.7254607e-08
2.7497842e-08
2.7724695e-08
2.793014e-08
2.8109449e-08
2.8258179e-08
2.8372641e-08
2.845045e-08
2.8489683e-08
2.8489143e-08
2.8449994e-08
2.8374169e-08
2.8263896e-08
2.8122737e-08
2.7954938e-08
2.7765063e-08
2.7558039e-08
2.7338086e-08
2.7109641e-08
2.68773e-08
2.6645026e-08
2.6415489e-08
2.6191503e-08
2.5975436e-08
2.5768413e-08
2.5570984e-08
2.5384614e-08
2.5208949e-08
2.5044501e-08
2.4890709e-08
2.474742e-08
2.4613647e-08
2.4491024e-08
2.3973992e-08
2.4119947e-08
2.4278446e-08
2.4447633e-08
2.4629873e-08
2.4825302e-08
2.5034431e-08
2.5256989e-08
2.5493173e-08
2.5741499e-08
2.600149e-08
2.6271762e-08
2.6549732e-08
2.6832286e-08
2.7116224e-08
2.7397079e-08
2.7669672e-08
2.7929331e-08
2.8171224e-08
2.8390009e-08
2.858067e-08
2.8738514e-08
2.8859652e-08
2.8941548e-08
2.8982195e-08
2.8980377e-08
2.8937302e-08
2.8855012e-08
2.8735871e-08
2.8583637e-08
2.8402826e-08
2.8198325e-08
2.79754e-08
2.77386e-08
2.7492674e-08
2.7242504e-08
2.6992314e-08
2.6744998e-08
2.6503571e-08
2.6270579e-08
2.6047276e-08
2.5834316e-08
2.5633255e-08
2.544377e-08
2.5266418e-08
2.5100623e-08
2.4946254e-08
2.4802212e-08
2.4670453e-08
2.4168542e-08
2.4324251e-08
2.4493754e-08
2.4674865e-08
2.4870097e-08
2.5079572e-08
2.5303817e-08
2.5542526e-08
2.579586e-08
2.6062242e-08
2.6341074e-08
2.6630816e-08
2.6928677e-08
2.7231289e-08
2.7535162e-08
2.7835506e-08
2.8126785e-08
2.8403968e-08
2.8661874e-08
2.8894829e-08
2.9097522e-08
2.926501e-08
2.9393201e-08
2.9479415e-08
2.9521558e-08
2.9518402e-08
2.94712e-08
2.9382101e-08
2.9253603e-08
2.9089665e-08
2.8895092e-08
2.8675114e-08
2.8435352e-08
2.8180693e-08
2.7916201e-08
2.7647055e-08
2.7377749e-08
2.7111422e-08
2.6851314e-08
2.6600162e-08
2.6359375e-08
2.6129719e-08
2.5912857e-08
2.5708501e-08
2.5517258e-08
2.5338542e-08
2.517224e-08
2.5017137e-08
2.4875545e-08
2.4389072e-08
2.4555422e-08
2.4736941e-08
2.4931063e-08
2.5140463e-08
2.5365245e-08
2.5605946e-08
2.5862221e-08
2.6134185e-08
2.6420152e-08
2.6719393e-08
2.7030185e-08
2.7349509e-08
2.767372e-08
2.7999013e-08
2.8320247e-08
2.8631506e-08
2.892738e-08
2.9202316e-08
2.94503e-08
2.9665721e-08
2.9843387e-08
2.997901e-08
3.0069766e-08
3.0113482e-08
3.0108922e-08
3.005738e-08
2.9961116e-08
2.9822753e-08
2.9646459e-08
2.9437347e-08
2.9201008e-08
2.8943429e-08
2.8669831e-08
2.8385595e-08
2.8096204e-08
2.7806444e-08
2.7519718e-08
2.7239521e-08
2.6968808e-08