/*--------------------------------*- C++ -*----------------------------------*\
| =========                 |                                                 |
| \\      /  F ield         | OpenFOAM: The Open Source CFD Toolbox           |
|  \\    /   O peration     | Version:  v2006                                 |
|   \\  /    A nd           | Website:  www.openfoam.com                      |
|    \\/     M anipulation  |                                                 |
\*---------------------------------------------------------------------------*/
FoamFile
{
    version     2.0;
    format      ascii;
    class       volScalarField;
    location    "2500";
    object      nut;
}
// * * * * * * * * * * * * * * * * * * * * * * * * * * * * * * * * * * * * * //

dimensions      [0 2 -1 0 0 0 0];


internalField   nonuniform List<scalar> 
19765
(
9.7771097e-06
9.7717715e-06
9.4783761e-06
9.5309636e-06
9.5280669e-06
9.6835939e-06
9.5983516e-06
9.7722723e-06
9.7417503e-06
9.5522225e-06
9.6562858e-06
1.0035357e-05
1.0257142e-05
1.0449115e-05
1.085262e-05
1.1023773e-05
1.0977089e-05
1.1133029e-05
1.15506e-05
1.1916455e-05
1.2163962e-05
1.2289581e-05
1.2510607e-05
1.2649462e-05
1.2742922e-05
1.2800822e-05
1.2830724e-05
1.2772312e-05
1.2795332e-05
1.2681551e-05
1.245582e-05
1.2167141e-05
1.2203997e-05
1.2355477e-05
1.2217341e-05
1.1882331e-05
1.1871174e-05
1.1813599e-05
1.1540708e-05
1.1635973e-05
1.2017662e-05
1.2176797e-05
1.2138106e-05
1.2456455e-05
1.2349845e-05
1.2588719e-05
1.2597996e-05
1.2571412e-05
1.2442275e-05
5.4195663e-05
5.6827273e-05
5.9041545e-05
6.0827122e-05
6.29843e-05
6.5191541e-05
6.7415882e-05
6.9638564e-05
7.192958e-05
7.3941494e-05
7.6315657e-05
7.8899603e-05
8.1119508e-05
8.3105191e-05
8.5146355e-05
8.6396537e-05
8.6706574e-05
8.7308966e-05
8.8558991e-05
9.006304e-05
9.1499677e-05
9.2469969e-05
9.3303058e-05
9.436801e-05
9.5410741e-05
9.5932852e-05
9.6175558e-05
9.6501166e-05
9.6747452e-05
9.6796118e-05
9.673152e-05
9.6600635e-05
9.662038e-05
9.6486477e-05
9.5855964e-05
9.493414e-05
9.4123305e-05
9.3017958e-05
9.1625519e-05
9.0601844e-05
8.9702665e-05
8.7677333e-05
8.5516759e-05
8.1865794e-05
7.9263712e-05
7.3107556e-05
6.6248879e-05
5.9408957e-05
5.429918e-05
1.5988255e-05
1.5317232e-05
1.4840789e-05
1.508298e-05
1.520302e-05
1.5318308e-05
1.5253354e-05
1.5416369e-05
1.5318839e-05
1.5465558e-05
1.5707039e-05
1.5745277e-05
1.5578399e-05
1.5410976e-05
1.5123482e-05
1.4680429e-05
1.4326186e-05
1.4087648e-05
1.3906527e-05
1.3759834e-05
1.3703541e-05
1.3757935e-05
1.3783052e-05
1.3843242e-05
1.414108e-05
1.4691226e-05
1.5199734e-05
1.5717593e-05
1.6459475e-05
1.7254094e-05
1.8025349e-05
1.8742145e-05
1.9385705e-05
2.0385815e-05
2.163341e-05
2.2675436e-05
2.3488614e-05
2.455698e-05
2.5380461e-05
2.5806065e-05
2.6528889e-05
2.7781068e-05
2.8426223e-05
2.9609493e-05
3.0398811e-05
3.2616904e-05
3.5499394e-05
3.8890992e-05
4.1245154e-05
6.2486981e-07
5.5929569e-07
5.2136668e-07
5.1593275e-07
5.0845926e-07
5.016939e-07
4.9021563e-07
4.862661e-07
4.7522568e-07
4.702569e-07
4.6757816e-07
4.5955954e-07
4.465593e-07
4.3468399e-07
4.2156381e-07
4.0627619e-07
3.9473321e-07
3.8718637e-07
3.8087e-07
3.747386e-07
3.7214657e-07
3.7432561e-07
3.7529177e-07
3.773446e-07
3.8555666e-07
4.0095486e-07
4.1709842e-07
4.3518292e-07
4.6048179e-07
4.8957329e-07
5.2096972e-07
5.5374958e-07
5.8756972e-07
6.3544885e-07
6.9640038e-07
7.5736627e-07
8.1757983e-07
8.9367513e-07
9.6622277e-07
1.0292628e-06
1.1144264e-06
1.2357116e-06
1.3436735e-06
1.5110255e-06
1.6737601e-06
1.9082289e-06
2.1939536e-06
2.5575782e-06
2.9877503e-06
1.6339514e-07
1.6288396e-07
1.6316029e-07
1.6507816e-07
1.6676791e-07
1.6837688e-07
1.6944729e-07
1.710269e-07
1.7184879e-07
1.7315836e-07
1.7476816e-07
1.7588637e-07
1.7649793e-07
1.7722224e-07
1.7771899e-07
1.7780906e-07
1.7822928e-07
1.7908625e-07
1.7982948e-07
1.8045365e-07
1.8145104e-07
1.828251e-07
1.8409895e-07
1.8556012e-07
1.8769005e-07
1.9069856e-07
1.9383388e-07
1.9711204e-07
2.0109367e-07
2.0532551e-07
2.0957306e-07
2.1371198e-07
2.1758934e-07
2.224052e-07
2.2788887e-07
2.3275371e-07
2.369291e-07
2.4171091e-07
2.4565367e-07
2.4848809e-07
2.5225331e-07
2.5717688e-07
2.6072885e-07
2.6623049e-07
2.7080998e-07
2.7697353e-07
2.8298093e-07
2.8752553e-07
2.9188983e-07
1.4133894e-07
1.4148764e-07
1.4197631e-07
1.4314015e-07
1.4404429e-07
1.449534e-07
1.4565513e-07
1.4656441e-07
1.4713261e-07
1.4800379e-07
1.4884315e-07
1.4940572e-07
1.4980299e-07
1.5024762e-07
1.505686e-07
1.5081742e-07
1.5130477e-07
1.5197678e-07
1.5259921e-07
1.5321917e-07
1.5397718e-07
1.5485315e-07
1.5590298e-07
1.5715331e-07
1.5873245e-07
1.6080105e-07
1.6304126e-07
1.6536881e-07
1.6805282e-07
1.7096005e-07
1.7395536e-07
1.7699492e-07
1.7988252e-07
1.8306888e-07
1.8665276e-07
1.9020436e-07
1.9336002e-07
1.9666618e-07
1.9981095e-07
2.0236943e-07
2.0485868e-07
2.0813029e-07
2.1075508e-07
2.1422095e-07
2.1740259e-07
2.2122777e-07
2.2536276e-07
2.2983885e-07
2.337729e-07
1.2425549e-07
1.2418962e-07
1.2432219e-07
1.2485693e-07
1.2526548e-07
1.2569058e-07
1.260181e-07
1.2647942e-07
1.2676843e-07
1.2724095e-07
1.2771986e-07
1.280555e-07
1.2830735e-07
1.2859636e-07
1.2882403e-07
1.2901487e-07
1.2935557e-07
1.2982739e-07
1.3029494e-07
1.3078208e-07
1.3135373e-07
1.3199554e-07
1.3274397e-07
1.3364016e-07
1.3475513e-07
1.36167e-07
1.3768677e-07
1.3928707e-07
1.4112592e-07
1.4311626e-07
1.4518262e-07
1.472927e-07
1.4934101e-07
1.515916e-07
1.540888e-07
1.5657053e-07
1.588418e-07
1.6121326e-07
1.6349581e-07
1.6544763e-07
1.6738679e-07
1.6975161e-07
1.7175509e-07
1.7420321e-07
1.7647335e-07
1.7905535e-07
1.8174549e-07
1.8456279e-07
1.8711266e-07
1.1526775e-07
1.1521901e-07
1.1528918e-07
1.1560316e-07
1.1583971e-07
1.1608535e-07
1.1627249e-07
1.1653727e-07
1.1670278e-07
1.1697659e-07
1.1725543e-07
1.1745713e-07
1.1761806e-07
1.1780754e-07
1.1797174e-07
1.1812813e-07
1.1838228e-07
1.1872279e-07
1.1907642e-07
1.194616e-07
1.1991409e-07
1.2042304e-07
1.210262e-07
1.2174234e-07
1.2260556e-07
1.2366419e-07
1.2481012e-07
1.2602845e-07
1.274143e-07
1.2891689e-07
1.3049021e-07
1.321139e-07
1.3372192e-07
1.3547203e-07
1.3739556e-07
1.3933464e-07
1.4116274e-07
1.4306594e-07
1.4493242e-07
1.4660659e-07
1.482751e-07
1.5022895e-07
1.5197484e-07
1.5402493e-07
1.5599592e-07
1.5820603e-07
1.6054146e-07
1.6302717e-07
1.6539249e-07
1.0884981e-07
1.0878463e-07
1.0879527e-07
1.0896333e-07
1.0908678e-07
1.0921959e-07
1.0931995e-07
1.094717e-07
1.0956638e-07
1.0973126e-07
1.0990331e-07
1.1003331e-07
1.1014413e-07
1.1027786e-07
1.1040244e-07
1.1052973e-07
1.1072449e-07
1.1098015e-07
1.112532e-07
1.1155574e-07
1.1190744e-07
1.1229966e-07
1.1275751e-07
1.1330012e-07
1.1394904e-07
1.1473156e-07
1.1558097e-07
1.1649036e-07
1.1751932e-07
1.1863584e-07
1.1981198e-07
1.2103433e-07
1.2226175e-07
1.235918e-07
1.2504265e-07
1.2651337e-07
1.2792472e-07
1.2939166e-07
1.3084205e-07
1.3217528e-07
1.335104e-07
1.3502481e-07
1.3640775e-07
1.3797799e-07
1.3949196e-07
1.4114685e-07
1.4286595e-07
1.4465997e-07
1.4635295e-07
1.046419e-07
1.0459256e-07
1.0459041e-07
1.0469074e-07
1.0476178e-07
1.0483924e-07
1.0489659e-07
1.0498764e-07
1.0504406e-07
1.05147e-07
1.0525652e-07
1.0534272e-07
1.0542078e-07
1.0551725e-07
1.056127e-07
1.0571572e-07
1.0586711e-07
1.0606289e-07
1.0627682e-07
1.0651751e-07
1.0679785e-07
1.0711243e-07
1.0747704e-07
1.0790584e-07
1.0841372e-07
1.0901731e-07
1.0967432e-07
1.1038151e-07
1.1117855e-07
1.1204524e-07
1.1296356e-07
1.1392457e-07
1.1490094e-07
1.1595632e-07
1.1710374e-07
1.1827676e-07
1.1942102e-07
1.206115e-07
1.2180066e-07
1.2291874e-07
1.2404233e-07
1.2529501e-07
1.2646572e-07
1.2777185e-07
1.290499e-07
1.3043691e-07
1.3188444e-07
1.3340795e-07
1.3487379e-07
1.0164177e-07
1.0160252e-07
1.0159426e-07
1.0165556e-07
1.0169791e-07
1.0174532e-07
1.0178039e-07
1.0183872e-07
1.0187576e-07
1.0194495e-07
1.0202023e-07
1.0208271e-07
1.0214272e-07
1.0221761e-07
1.0229508e-07
1.0238136e-07
1.0250311e-07
1.0265787e-07
1.0282917e-07
1.0302295e-07
1.0324774e-07
1.035001e-07
1.0378983e-07
1.041278e-07
1.0452566e-07
1.0499362e-07
1.0550387e-07
1.0605522e-07
1.0667463e-07
1.0734882e-07
1.0806593e-07
1.0881987e-07
1.0959241e-07
1.1042599e-07
1.1132946e-07
1.1225759e-07
1.1317322e-07
1.1412588e-07
1.1508274e-07
1.1599486e-07
1.169137e-07
1.1792123e-07
1.1887396e-07
1.1991741e-07
1.2094017e-07
1.2203371e-07
1.2316393e-07
1.2434005e-07
1.2546669e-07
9.9493369e-08
9.9467362e-08
9.9461239e-08
9.9502765e-08
9.9531298e-08
9.9563595e-08
9.9588033e-08
9.9628772e-08
9.9656167e-08
9.9706318e-08
9.9761821e-08
9.9810563e-08
9.9859756e-08
9.9921027e-08
9.9986468e-08
1.0006065e-07
1.0016138e-07
1.002871e-07
1.0042729e-07
1.0058612e-07
1.0076948e-07
1.0097549e-07
1.0121029e-07
1.0148156e-07
1.0179874e-07
1.0216844e-07
1.0257191e-07
1.030091e-07
1.0349899e-07
1.0403261e-07
1.0460191e-07
1.0520301e-07
1.0582369e-07
1.0649343e-07
1.0721877e-07
1.0796824e-07
1.0871522e-07
1.0949351e-07
1.1028002e-07
1.110392e-07
1.1180588e-07
1.1263881e-07
1.1343582e-07
1.1430013e-07
1.1515299e-07
1.1606016e-07
1.1699826e-07
1.1797706e-07
1.189214e-07
9.7912839e-08
9.7897252e-08
9.789477e-08
9.7925775e-08
9.7947883e-08
9.7972966e-08
9.7993105e-08
9.8025044e-08
9.8048638e-08
9.8088789e-08
9.813366e-08
9.8175309e-08
9.821885e-08
9.8272233e-08
9.8330242e-08
9.8396235e-08
9.8482339e-08
9.8587546e-08
9.8704945e-08
9.8837494e-08
9.8989257e-08
9.9159291e-08
9.9351453e-08
9.9571143e-08
9.9826106e-08
1.0012069e-07
1.0044207e-07
1.0079088e-07
1.0118046e-07
1.0160441e-07
1.0205746e-07
1.0253762e-07
1.0303689e-07
1.0357593e-07
1.0415925e-07
1.0476434e-07
1.0537186e-07
1.0600505e-07
1.0664728e-07
1.0727238e-07
1.0790455e-07
1.0858491e-07
1.0924043e-07
1.0994357e-07
1.1063803e-07
1.1136989e-07
1.1212201e-07
1.1290127e-07
1.1365054e-07
9.6732276e-08
9.6726271e-08
9.6728743e-08
9.6754997e-08
9.6775037e-08
9.6797473e-08
9.6816844e-08
9.684496e-08
9.686794e-08
9.6903239e-08
9.6942698e-08
9.6981055e-08
9.7021975e-08
9.7070965e-08
9.7124525e-08
9.7185112e-08
9.7261072e-08
9.7351722e-08
9.7452437e-08
9.75653e-08
9.7693153e-08
9.7835544e-08
9.7994927e-08
9.8175095e-08
9.8382345e-08
9.8619593e-08
9.8878026e-08
9.9158652e-08
9.947059e-08
9.9809292e-08
1.001721e-07
1.0055866e-07
1.0096353e-07
1.0140098e-07
1.0187399e-07
1.0236617e-07
1.0286326e-07
1.033817e-07
1.0390948e-07
1.0442709e-07
1.0495147e-07
1.0551273e-07
1.060572e-07
1.0663758e-07
1.0721267e-07
1.0781621e-07
1.084357e-07
1.090775e-07
1.0969543e-07
9.5838696e-08
9.5840471e-08
9.5847781e-08
9.5872302e-08
9.5892534e-08
9.5914807e-08
9.5935315e-08
9.5962513e-08
9.5986712e-08
9.6020307e-08
9.605762e-08
9.609512e-08
9.6135438e-08
9.6182423e-08
9.6233676e-08
9.6290963e-08
9.6360055e-08
9.6440455e-08
9.6528993e-08
9.6627102e-08
9.6736752e-08
9.6857719e-08
9.6991551e-08
9.7140911e-08
9.7310884e-08
9.7503446e-08
9.7712548e-08
9.7939298e-08
9.8189324e-08
9.8460165e-08
9.8751825e-08
9.9064608e-08
9.9393837e-08
9.974899e-08
1.0013207e-07
1.0053125e-07
1.0093618e-07
1.0135876e-07
1.0179022e-07
1.0221589e-07
1.0264779e-07
1.0310774e-07
1.03556e-07
1.0403074e-07
1.0450148e-07
1.0499255e-07
1.0549445e-07
1.0601203e-07
1.0650865e-07
9.5153952e-08
9.5162464e-08
9.5174538e-08
9.5199223e-08
9.5220995e-08
9.5244586e-08
9.5267327e-08
9.5295348e-08
9.532183e-08
9.5355653e-08
9.5392847e-08
9.5431026e-08
9.547207e-08
9.5518669e-08
9.5569141e-08
9.5624717e-08
9.5689367e-08
9.576269e-08
9.5842447e-08
9.5929579e-08
9.6025415e-08
9.6129814e-08
9.6243716e-08
9.6368985e-08
9.6509688e-08
9.6667177e-08
9.6837341e-08
9.7021087e-08
9.7221131e-08
9.7438399e-08
9.7674729e-08
9.7929117e-08
9.8196676e-08
9.8484076e-08
9.8793322e-08
9.9116221e-08
9.9445327e-08
9.97894e-08
1.0014198e-07
1.0049191e-07
1.0084772e-07
1.0122551e-07
1.0159545e-07
1.0198566e-07
1.023733e-07
1.0277634e-07
1.0318754e-07
1.0361111e-07
1.0401698e-07
9.4624953e-08
9.4639105e-08
9.4655565e-08
9.4681439e-08
9.4705443e-08
9.4731156e-08
9.4756706e-08
9.478658e-08
9.4815949e-08
9.4851215e-08
9.4889596e-08
9.4929468e-08
9.4972154e-08
9.5019517e-08
9.5070342e-08
9.5125433e-08
9.5187474e-08
9.5256103e-08
9.5329677e-08
9.5408744e-08
9.5494147e-08
9.5585743e-08
9.5684045e-08
9.5790342e-08
9.590785e-08
9.6037502e-08
9.6176541e-08
9.6325338e-08
9.6484496e-08
9.6660238e-08
9.6853127e-08
9.7059091e-08
9.7274197e-08
9.7504506e-08
9.7752355e-08
9.8012063e-08
9.8278179e-08
9.8557105e-08
9.8843982e-08
9.913022e-08
9.9421863e-08
9.9730719e-08
1.0003427e-07
1.0035317e-07
1.0067019e-07
1.0099847e-07
1.0133235e-07
1.0167518e-07
1.0200252e-07
9.4212952e-08
9.4232017e-08
9.4252591e-08
9.4280317e-08
9.4306977e-08
9.4335315e-08
9.4364018e-08
9.4396403e-08
9.4429039e-08
9.4466553e-08
9.4507002e-08
9.4549272e-08
9.4594267e-08
9.4643244e-08
9.4695293e-08
9.4750874e-08
9.4811728e-08
9.4877493e-08
9.4946903e-08
9.5020188e-08
9.5097807e-08
9.5179567e-08
9.5265667e-08
9.5356988e-08
9.5456019e-08
9.5563411e-08
9.5677326e-08
9.5797346e-08
9.5923295e-08
9.606788e-08
9.6224838e-08
9.6388377e-08
9.6558735e-08
9.6741682e-08
9.6939134e-08
9.714699e-08
9.7361213e-08
9.7586462e-08
9.7819031e-08
9.8052263e-08
9.8290416e-08
9.854224e-08
9.8790626e-08
9.9050895e-08
9.9309965e-08
9.9577567e-08
9.9849273e-08
1.0012793e-07
1.0039327e-07
9.3890638e-08
9.3913986e-08
9.3938373e-08
9.3968329e-08
9.3997867e-08
9.4029114e-08
9.4061159e-08
9.4096472e-08
9.4132616e-08
9.4172925e-08
9.4216056e-08
9.4261238e-08
9.430905e-08
9.4360298e-08
9.4414266e-08
9.4471127e-08
9.4531921e-08
9.4596257e-08
9.4663101e-08
9.4732416e-08
9.480435e-08
9.4878625e-08
9.4955206e-08
9.5034683e-08
9.5118916e-08
9.5208366e-08
9.5301777e-08
9.5397998e-08
9.5498075e-08
9.5618411e-08
9.5742394e-08
9.5868582e-08
9.6002527e-08
9.6146598e-08
9.6302472e-08
9.646749e-08
9.6638611e-08
9.6819111e-08
9.7006115e-08
9.7194465e-08
9.7387188e-08
9.7590788e-08
9.7792246e-08
9.8002934e-08
9.8212862e-08
9.8429204e-08
9.8648434e-08
9.8872866e-08
9.908575e-08
9.3637575e-08
9.3664775e-08
9.3692767e-08
9.3725215e-08
9.3757785e-08
9.3792141e-08
9.3827667e-08
9.3866208e-08
9.3906042e-08
9.3949554e-08
9.399583e-08
9.4044329e-08
9.4095373e-08
9.4149426e-08
9.4205889e-08
9.4264695e-08
9.4326345e-08
9.4390403e-08
9.4455965e-08
9.4522768e-08
9.4590703e-08
9.4659379e-08
9.4728584e-08
9.4798692e-08
9.4871034e-08
9.4945928e-08
9.5022453e-08
9.5099746e-08
9.5182817e-08
9.5276691e-08
9.536961e-08
9.5467129e-08
9.5572349e-08
9.5683532e-08
9.580504e-08
9.5934661e-08
9.6069672e-08
9.6212353e-08
9.6360617e-08
9.6510597e-08
9.6664516e-08
9.6827267e-08
9.6988912e-08
9.7157938e-08
9.7326674e-08
9.7500432e-08
9.7676381e-08
9.785646e-08
9.8026678e-08
9.3438861e-08
9.346958e-08
9.3501004e-08
9.3536118e-08
9.3571819e-08
9.3609427e-08
9.3648535e-08
9.3690531e-08
9.3734208e-08
9.3781243e-08
9.3831033e-08
9.3883189e-08
9.3937823e-08
9.3995135e-08
9.4054587e-08
9.4115909e-08
9.417918e-08
9.4243901e-08
9.4309233e-08
9.4374712e-08
9.4440013e-08
9.4504622e-08
9.456818e-08
9.4630889e-08
9.4693654e-08
9.4756664e-08
9.4819257e-08
9.4884732e-08
9.4967254e-08
9.5034449e-08
9.5090128e-08
9.5162452e-08
9.5240149e-08
9.5325235e-08
9.5419014e-08
9.5518585e-08
9.5622252e-08
9.5732126e-08
9.5846918e-08
9.5963789e-08
9.6084358e-08
9.6212265e-08
9.6339901e-08
9.6473566e-08
9.6607338e-08
9.6745119e-08
9.6884604e-08
9.7027382e-08
9.7161773e-08
9.3283175e-08
9.3317193e-08
9.3351943e-08
9.338987e-08
9.3428799e-08
9.3469785e-08
9.351258e-08
9.3558228e-08
9.3605899e-08
9.3656735e-08
9.3710356e-08
9.3766472e-08
9.3825025e-08
9.3885999e-08
9.3948883e-08
9.4013226e-08
9.4078769e-08
9.4144943e-08
9.421092e-08
9.4276061e-08
9.4339848e-08
9.4401643e-08
9.4460959e-08
9.4517855e-08
9.4572898e-08
9.4626153e-08
9.4677442e-08
9.472701e-08
9.4775517e-08
9.4824796e-08
9.4882739e-08
9.493549e-08
9.4992832e-08
9.5055065e-08
9.5122628e-08
9.5194841e-08
9.5270906e-08
9.5352477e-08
9.5438616e-08
9.5527148e-08
9.5619196e-08
9.5717445e-08
9.5816081e-08
9.591977e-08
9.602394e-08
9.6131451e-08
9.624042e-08
9.6352168e-08
9.6456903e-08
9.316205e-08
9.319922e-08
9.3237233e-08
9.3278098e-08
9.3320348e-08
9.3364835e-08
9.3411429e-08
9.3460912e-08
9.3512731e-08
9.3567623e-08
9.3625366e-08
9.3685728e-08
9.374851e-08
9.3813517e-08
9.3880238e-08
9.3948061e-08
9.4016448e-08
9.4084749e-08
9.4152115e-08
9.4217744e-08
9.4280951e-08
9.4340968e-08
9.4397194e-08
9.4449563e-08
9.4498375e-08
9.4543598e-08
9.4585174e-08
9.462382e-08
9.4662719e-08
9.468097e-08
9.4727495e-08
9.4769003e-08
9.4808531e-08
9.4849951e-08
9.4895331e-08
9.4944653e-08
9.4997433e-08
9.5054915e-08
9.5116486e-08
9.5180559e-08
9.524795e-08
9.5320657e-08
9.5394271e-08
9.5472237e-08
9.555103e-08
9.5632722e-08
9.5715764e-08
9.5801234e-08
9.588093e-08
9.3068992e-08
9.3109237e-08
9.3150499e-08
9.319443e-08
9.3240108e-08
9.3288228e-08
9.3338748e-08
9.3392253e-08
9.3448391e-08
9.3507586e-08
9.356973e-08
9.363462e-08
9.3701934e-08
9.3771328e-08
9.3842268e-08
9.3913996e-08
9.3985737e-08
9.4056753e-08
9.4126151e-08
9.4192976e-08
9.4256385e-08
9.431549e-08
9.4369576e-08
9.4418471e-08
9.4462263e-08
9.4500819e-08
9.4534249e-08
9.4563342e-08
9.4588491e-08
9.4614778e-08
9.46362e-08
9.4656395e-08
9.4677376e-08
9.4700622e-08
9.4727012e-08
9.4756497e-08
9.4788881e-08
9.4825226e-08
9.4865246e-08
9.4907858e-08
9.4953667e-08
9.5004162e-08
9.5056025e-08
9.5111779e-08
9.5168709e-08
9.5228298e-08
9.5289263e-08
9.5352485e-08
9.5411078e-08
9.2999069e-08
9.3042363e-08
9.3086897e-08
9.3134027e-08
9.3183254e-08
9.3235151e-08
9.3289744e-08
9.3347464e-08
9.3408109e-08
9.3471856e-08
9.3538677e-08
9.3608377e-08
9.3680527e-08
9.3754651e-08
9.3830178e-08
9.3906212e-08
9.3981773e-08
9.4056031e-08
9.4128026e-08
9.4196658e-08
9.426094e-08
9.4319861e-08
9.43726e-08
9.441889e-08
9.4458645e-08
9.4491644e-08
9.4518116e-08
9.4538782e-08
9.4554811e-08
9.4566374e-08
9.4575486e-08
9.4583236e-08
9.4590366e-08
9.4598136e-08
9.4607691e-08
9.4619485e-08
9.4633716e-08
9.4651344e-08
9.4672339e-08
9.4696012e-08
9.4722821e-08
9.4753864e-08
9.4786682e-08
9.48231e-08
9.4861034e-08
9.4901521e-08
9.4943491e-08
9.498765e-08
9.502823e-08
9.2948489e-08
9.2994852e-08
9.3042717e-08
9.309319e-08
9.3146107e-08
9.3201943e-08
9.3260777e-08
9.3322918e-08
9.3388276e-08
9.3456833e-08
9.3528612e-08
9.3603412e-08
9.3680706e-08
9.37599e-08
9.3840372e-08
9.3921099e-08
9.4000915e-08
9.4078892e-08
9.4153989e-08
9.4224967e-08
9.4290701e-08
9.4350059e-08
9.4402119e-08
9.4446524e-08
9.4483047e-08
9.4511385e-08
9.4531861e-08
9.4545232e-08
9.4552374e-08
9.4554471e-08
9.4552589e-08
9.4547904e-08
9.454159e-08
9.4534991e-08
9.4529315e-08
9.4525265e-08
9.4523278e-08
9.4524225e-08
9.4528284e-08
9.4535089e-08
9.4545005e-08
9.4558847e-08
9.4574833e-08
9.4594262e-08
9.4615549e-08
9.4639394e-08
9.46649e-08
9.4692626e-08
9.4717745e-08
9.2914366e-08
9.2963853e-08
9.301514e-08
9.3069114e-08
9.3125879e-08
9.3185834e-08
9.3249096e-08
9.3315881e-08
9.3386179e-08
9.3459814e-08
9.353684e-08
9.361704e-08
9.3699793e-08
9.3784398e-08
9.3870173e-08
9.3955967e-08
9.4040451e-08
9.4122588e-08
9.4201247e-08
9.4275053e-08
9.4342747e-08
9.4403078e-08
9.4455025e-08
9.4498146e-08
9.4532096e-08
9.4556502e-08
9.4571759e-08
9.4578636e-08
9.4578021e-08
9.4571027e-08
9.4558947e-08
9.4543108e-08
9.4524798e-08
9.4505313e-08
9.448592e-08
9.4467555e-08
9.4450891e-08
9.4436767e-08
9.4425549e-08
9.4417147e-08
9.4411871e-08
9.4410328e-08
9.4411278e-08
9.441562e-08
9.4422161e-08
9.443135e-08
9.4442428e-08
9.4455825e-08
9.4467515e-08
9.2894501e-08
9.2947204e-08
9.3002029e-08
9.3059678e-08
9.312047e-08
9.3184742e-08
9.3252642e-08
9.3324311e-08
9.3399796e-08
9.3478791e-08
9.3561365e-08
9.3647276e-08
9.3735813e-08
9.3826175e-08
9.3917609e-08
9.4008843e-08
9.409839e-08
9.4185102e-08
9.426775e-08
9.434482e-08
9.4414925e-08
9.4476696e-08
9.4529014e-08
9.4571357e-08
9.460328e-08
9.4624344e-08
9.4635007e-08
9.4636061e-08
9.4628369e-08
9.4613156e-08
9.45918e-08
9.4565711e-08
9.4536313e-08
9.4504925e-08
9.4472895e-08
9.4441373e-08
9.4411236e-08
9.438332e-08
9.4358156e-08
9.4335884e-08
9.431679e-08
9.4301332e-08
9.42887e-08
9.4279496e-08
9.4272838e-08
9.4268982e-08
9.4267287e-08
9.4268065e-08
9.4267982e-08
9.2887256e-08
9.2943289e-08
9.3001796e-08
9.306331e-08
9.3128327e-08
9.3197134e-08
9.3269904e-08
9.3346714e-08
9.3427652e-08
9.3512305e-08
9.3600744e-08
9.3692689e-08
9.3787349e-08
9.388382e-08
9.3981274e-08
9.4078317e-08
9.4173312e-08
9.4264997e-08
9.4352031e-08
9.4432768e-08
9.450569e-08
9.4569314e-08
9.4622422e-08
9.4664415e-08
9.4694761e-08
9.4712964e-08
9.4719534e-08
9.4715289e-08
9.4701099e-08
9.4678265e-08
9.4648268e-08
9.4612614e-08
9.4572862e-08
9.453037e-08
9.4486576e-08
9.4442821e-08
9.4400167e-08
9.4359472e-08
9.4321415e-08
9.4286337e-08
9.425452e-08
9.422632e-08
9.4201275e-08
9.4179759e-08
9.4161143e-08
9.4145536e-08
9.4132394e-08
9.4121925e-08
9.4111389e-08
9.2891431e-08
9.2950936e-08
9.3013292e-08
9.3078877e-08
9.3148337e-08
9.3221916e-08
9.3299807e-08
9.3382036e-08
9.3468715e-08
9.3559342e-08
9.3653975e-08
9.3752295e-08
9.3853428e-08
9.395637e-08
9.4060211e-08
9.4163433e-08
9.4264256e-08
9.4361296e-08
9.4453096e-08
9.4537876e-08
9.4613987e-08
9.4679831e-08
9.4734095e-08
9.4776103e-08
9.4805246e-08
9.4820977e-08
9.4823854e-08
9.4814725e-08
9.4794475e-08
9.4764492e-08
9.4726351e-08
9.4681661e-08
9.4632108e-08
9.4579113e-08
9.4524212e-08
9.4468924e-08
9.4414484e-08
9.4361789e-08
9.4311657e-08
9.4264603e-08
9.4220925e-08
9.4180907e-08
9.4144373e-08
9.4111527e-08
9.4081942e-08
9.4055616e-08
9.4032086e-08
9.4011467e-08
9.3991536e-08
9.2906192e-08
9.2969332e-08
9.3035726e-08
9.3105607e-08
9.3179747e-08
9.3258357e-08
9.3341643e-08
9.3429585e-08
9.3522316e-08
9.3619249e-08
9.3720424e-08
9.3825476e-08
9.3933446e-08
9.4043233e-08
9.4153835e-08
9.4263612e-08
9.437064e-08
9.4473409e-08
9.457034e-08
9.4659515e-08
9.4739159e-08
9.4807556e-08
9.4863298e-08
9.4905633e-08
9.4933885e-08
9.494746e-08
9.494696e-08
9.4933268e-08
9.4907296e-08
9.4870512e-08
9.4824594e-08
9.4771252e-08
9.4712302e-08
9.4649243e-08
9.458372e-08
9.451742e-08
9.4451739e-08
9.4387632e-08
9.4326047e-08
9.4267653e-08
9.4212774e-08
9.4161656e-08
9.4114351e-08
9.4070943e-08
9.4031165e-08
9.3994933e-08
9.3961852e-08
9.3931952e-08
9.3903463e-08
9.2931009e-08
9.299797e-08
9.3068612e-08
9.3143031e-08
9.3222109e-08
9.3306028e-08
9.3395003e-08
9.3488978e-08
9.3588091e-08
9.3691682e-08
9.3799766e-08
9.3911923e-08
9.402711e-08
9.4144128e-08
9.4261875e-08
9.4378588e-08
9.4492198e-08
9.4601065e-08
9.4703481e-08
9.4797389e-08
9.4880886e-08
9.4952139e-08
9.5009647e-08
9.505258e-08
9.50802e-08
9.5091875e-08
9.5088247e-08
9.5070235e-08
9.5038788e-08
9.4995457e-08
9.4942018e-08
9.4880292e-08
9.4812223e-08
9.4739405e-08
9.46636e-08
9.4586656e-08
9.4510124e-08
9.4435031e-08
9.4362446e-08
9.429318e-08
9.4227593e-08
9.4165912e-08
9.4108382e-08
9.4054995e-08
9.4005619e-08
9.3960108e-08
9.3918123e-08
9.3879617e-08
9.3843222e-08
9.2965616e-08
9.3036601e-08
9.3111724e-08
9.3190942e-08
9.3275237e-08
9.3364763e-08
9.3459745e-08
9.3560091e-08
9.366594e-08
9.3776562e-08
9.3891941e-08
9.4011596e-08
9.4134399e-08
9.4259047e-08
9.4384335e-08
9.4508372e-08
9.4628943e-08
9.4744274e-08
9.485252e-08
9.4951486e-08
9.5039138e-08
9.5113528e-08
9.5173057e-08
9.5216823e-08
9.524403e-08
9.5254011e-08
9.5247446e-08
9.5225295e-08
9.5188548e-08
9.513884e-08
9.5078048e-08
9.5008106e-08
9.4931092e-08
9.4848708e-08
9.4762838e-08
9.4675491e-08
9.4588367e-08
9.4502575e-08
9.4419302e-08
9.4339488e-08
9.426354e-08
9.4191683e-08
9.4124322e-08
9.4061386e-08
9.4002856e-08
9.3948536e-08
9.3898138e-08
9.3851541e-08
9.380774e-08
9.3009977e-08
9.308521e-08
9.3165066e-08
9.3249365e-08
9.3339177e-08
9.3434632e-08
9.3535962e-08
9.3643041e-08
9.3756002e-08
9.3874052e-08
9.3997131e-08
9.4124698e-08
9.4255532e-08
9.4388226e-08
9.4521463e-08
9.465322e-08
9.4781136e-08
9.4903295e-08
9.5017712e-08
9.512205e-08
9.5214144e-08
9.5291929e-08
9.5353712e-08
9.5398517e-08
9.5425493e-08
9.5433944e-08
9.5424589e-08
9.5398426e-08
9.5356495e-08
9.5300513e-08
9.523246e-08
9.5154389e-08
9.5068515e-08
9.4976661e-08
9.4880844e-08
9.4783227e-08
9.468566e-08
9.4589339e-08
9.4495569e-08
9.4405411e-08
9.4319324e-08
9.4237544e-08
9.4160616e-08
9.4088425e-08
9.4021046e-08
9.3958248e-08
9.3899788e-08
9.3845474e-08
9.3794631e-08
9.3064269e-08
9.3143995e-08
9.322886e-08
9.3318541e-08
9.3414192e-08
9.3515922e-08
9.3623965e-08
9.3738163e-08
9.3858638e-08
9.3984533e-08
9.4115744e-08
9.4251656e-08
9.4390957e-08
9.4532128e-08
9.4673736e-08
9.4813619e-08
9.4949268e-08
9.5078619e-08
9.5199542e-08
9.5309558e-08
9.5406368e-08
9.548779e-08
9.5552039e-08
9.5598062e-08
9.562496e-08
9.5632013e-08
9.5619974e-08
9.5589886e-08
9.5542836e-08
9.5480625e-08
9.540534e-08
9.5319158e-08
9.5224439e-08
9.5123134e-08
9.5017403e-08
9.4909561e-08
9.4801604e-08
9.4694827e-08
9.4590648e-08
9.4490242e-08
9.4394128e-08
9.4302566e-08
9.4216222e-08
9.4134954e-08
9.4058918e-08
9.3987859e-08
9.3921573e-08
9.3859801e-08
9.3802174e-08
9.3128875e-08
9.3213358e-08
9.3303529e-08
9.3398917e-08
9.3500755e-08
9.3609128e-08
9.3724276e-08
9.3846004e-08
9.3974421e-08
9.4108607e-08
9.4248401e-08
9.4393115e-08
9.4541339e-08
9.4691438e-08
9.4841851e-08
9.4990276e-08
9.5134051e-08
9.5270959e-08
9.539872e-08
9.551471e-08
9.5616497e-08
9.5701783e-08
9.5768689e-08
9.5816091e-08
9.5843039e-08
9.5848796e-08
9.583415e-08
9.5800186e-08
9.5748043e-08
9.5679603e-08
9.5597064e-08
9.5502735e-08
9.5399125e-08
9.5288325e-08
9.5172642e-08
9.5054546e-08
9.4936176e-08
9.481893e-08
9.4704339e-08
9.459369e-08
9.4487567e-08
9.4386262e-08
9.4290552e-08
9.420028e-08
9.4115673e-08
9.4036461e-08
9.3962475e-08
9.3893393e-08
9.3829134e-08
9.3204376e-08
9.3293903e-08
9.3389703e-08
9.3491147e-08
9.3599544e-08
9.3714959e-08
9.3837628e-08
9.3967327e-08
9.4104141e-08
9.4247088e-08
9.4395945e-08
9.4549943e-08
9.4707565e-08
9.4867058e-08
9.5026726e-08
9.518412e-08
9.5336418e-08
9.5481247e-08
9.5616173e-08
9.5738426e-08
9.5845439e-08
9.5934801e-08
9.6004538e-08
9.6053459e-08
9.6080564e-08
9.6085106e-08
9.6067903e-08
9.6030085e-08
9.5972842e-08
9.5898137e-08
9.5808283e-08
9.5705726e-08
9.5593131e-08
9.5472742e-08
9.5347014e-08
9.5218572e-08
9.5089698e-08
9.4961897e-08
9.4836814e-08
9.4715846e-08
9.4599646e-08
9.4488551e-08
9.4383436e-08
9.4284143e-08
9.4190966e-08
9.4103624e-08
9.4021982e-08
9.3945657e-08
9.3874844e-08
9.3291567e-08
9.3386447e-08
9.3488225e-08
9.35961e-08
9.3711457e-08
9.3834338e-08
9.3964978e-08
9.4103117e-08
9.4248814e-08
9.4401019e-08
9.4559445e-08
9.4723231e-08
9.4890752e-08
9.5060123e-08
9.5229509e-08
9.5396306e-08
9.5557529e-08
9.5710642e-08
9.5853055e-08
9.5981848e-08
9.6094324e-08
9.6187957e-08
9.6260684e-08
9.6311245e-08
9.6338598e-08
9.6341984e-08
9.6322256e-08
9.6280585e-08
9.621821e-08
9.6137176e-08
9.6039914e-08
9.5929016e-08
9.580731e-08
9.5677195e-08
9.5541283e-08
9.5402354e-08
9.5262826e-08
9.5124321e-08
9.4988596e-08
9.4857159e-08
9.4730739e-08
9.4609726e-08
9.4495086e-08
9.4386673e-08
9.4284839e-08
9.41893e-08
9.4099954e-08
9.4016356e-08
9.3938977e-08
9.3391464e-08
9.3492031e-08
9.3600165e-08
9.3714876e-08
9.3837625e-08
9.3968431e-08
9.4107521e-08
9.4254601e-08
9.4409696e-08
9.457169e-08
9.4740217e-08
9.4914321e-08
9.5092259e-08
9.5272011e-08
9.545159e-08
9.5628232e-08
9.5798784e-08
9.5960541e-08
9.6110752e-08
9.6246352e-08
9.6364511e-08
9.6462595e-08
9.6538453e-08
9.6590759e-08
9.6618433e-08
9.6620709e-08
9.6598472e-08
9.6552933e-08
9.6485377e-08
9.639793e-08
9.6293147e-08
9.6173774e-08
9.6042804e-08
9.5902801e-08
9.5756532e-08
9.5606928e-08
9.5456549e-08
9.5307133e-08
9.5160554e-08
9.5018431e-08
9.4881576e-08
9.4750444e-08
9.4626089e-08
9.4508384e-08
9.4397741e-08
9.4293876e-08
9.4196722e-08
9.4105771e-08
9.4021769e-08
9.3505329e-08
9.3611948e-08
9.3726849e-08
9.3848834e-08
9.3979441e-08
9.4118664e-08
9.426672e-08
9.4423275e-08
9.4588319e-08
9.476066e-08
9.4939849e-08
9.5124826e-08
9.5313722e-08
9.5504372e-08
9.569463e-08
9.5881564e-08
9.6061845e-08
9.6232598e-08
9.6390908e-08
9.6533564e-08
9.6657609e-08
9.6760303e-08
9.6839414e-08
9.6893555e-08
9.6921608e-08
9.6922807e-08
9.6898065e-08
9.6848633e-08
9.6775839e-08
9.6681886e-08
9.6569459e-08
9.6441465e-08
9.6301067e-08
9.6150993e-08
9.5994166e-08
9.5833668e-08
9.5672195e-08
9.5511607e-08
9.5353902e-08
9.5200813e-08
9.5053243e-08
9.4911718e-08
9.4777384e-08
9.465014e-08
9.4530456e-08
9.4418051e-08
9.4312895e-08
9.4214415e-08
9.4123642e-08
9.3634705e-08
9.374777e-08
9.3869887e-08
9.3999621e-08
9.4138593e-08
9.4286763e-08
9.444434e-08
9.4610944e-08
9.4786522e-08
9.4969801e-08
9.5160243e-08
9.5356671e-08
9.5557083e-08
9.575916e-08
9.5960589e-08
9.615826e-08
9.6348666e-08
9.6528754e-08
9.6695445e-08
9.6845385e-08
9.6975495e-08
9.7082936e-08
9.7165401e-08
9.7221447e-08
9.7249925e-08
9.7250068e-08
9.7222822e-08
9.716947e-08
9.7091376e-08
9.6990823e-08
9.687063e-08
9.6733871e-08
9.6583878e-08
9.6423542e-08
9.6255941e-08
9.6084298e-08
9.591145e-08
9.5739382e-08
9.5570221e-08
9.5405822e-08
9.524719e-08
9.5094934e-08
9.4950291e-08
9.4813198e-08
9.4684183e-08
9.4562976e-08
9.4449587e-08
9.4343374e-08
9.4245665e-08
9.3781445e-08
9.3901392e-08
9.4031217e-08
9.4169221e-08
9.4317106e-08
9.4474802e-08
9.4642498e-08
9.4819767e-08
9.5006503e-08
9.5201348e-08
9.540366e-08
9.561214e-08
9.5824642e-08
9.6038683e-08
9.6251774e-08
9.646062e-08
9.6661531e-08
9.6851271e-08
9.70266e-08
9.7184023e-08
9.7320347e-08
9.7432644e-08
9.7518539e-08
9.757654e-08
9.7605474e-08
9.7604578e-08
9.7574824e-08
9.7517527e-08
9.743408e-08
9.7326842e-08
9.7198776e-08
9.7053122e-08
9.6893379e-08
9.6722594e-08
9.6543989e-08
9.636093e-08
9.6176388e-08
9.5992485e-08
9.5811483e-08
9.5635368e-08
9.546526e-08
9.5301862e-08
9.5146505e-08
9.4999172e-08
9.486045e-08
9.4730084e-08
9.4608124e-08
9.4493856e-08
9.4388927e-08
9.3947769e-08
9.4075078e-08
9.4213154e-08
9.436e-08
9.4517404e-08
9.4685255e-08
9.4863721e-08
9.5052319e-08
9.5250883e-08
9.5457957e-08
9.5672788e-08
9.5893941e-08
9.6119117e-08
9.634566e-08
9.6570894e-08
9.6791335e-08
9.7003105e-08
9.7202786e-08
9.7386972e-08
9.7552038e-08
9.7694685e-08
9.781191e-08
9.7901281e-08
9.7961265e-08
9.7990672e-08
9.7988748e-08
9.7956488e-08
9.7895233e-08
9.7806394e-08
9.769241e-08
9.7556389e-08
9.7401741e-08
9.7232118e-08
9.7050709e-08
9.6860872e-08
9.6666104e-08
9.6469516e-08
9.6273376e-08
9.6080095e-08
9.5891801e-08