/*--------------------------------*- C++ -*----------------------------------*\
| =========                 |                                                 |
| \\      /  F ield         | OpenFOAM: The Open Source CFD Toolbox           |
|  \\    /   O peration     | Version:  v2006                                 |
|   \\  /    A nd           | Website:  www.openfoam.com                      |
|    \\/     M anipulation  |                                                 |
\*---------------------------------------------------------------------------*/
FoamFile
{
    version     2.0;
    format      ascii;
    class       volScalarField;
    location    "2500";
    object      nutMean;
}
// * * * * * * * * * * * * * * * * * * * * * * * * * * * * * * * * * * * * * //

dimensions      [0 2 -1 0 0 0 0];


internalField   nonuniform List<scalar> 
19765
(
9.9687799e-06
9.9495956e-06
9.6330175e-06
9.6609608e-06
9.6353567e-06
9.7712707e-06
9.6655699e-06
9.8204163e-06
9.7678975e-06
9.5599712e-06
9.6441949e-06
1.0003588e-05
1.0207984e-05
1.0385151e-05
1.0774122e-05
1.0932631e-05
1.0871298e-05
1.1013741e-05
1.1414763e-05
1.1762007e-05
1.1990531e-05
1.2098081e-05
1.229812e-05
1.2416566e-05
1.2492153e-05
1.2535797e-05
1.2553395e-05
1.2485528e-05
1.2499224e-05
1.2379884e-05
1.2151067e-05
1.1860547e-05
1.1887047e-05
1.202752e-05
1.1887793e-05
1.1555311e-05
1.1536399e-05
1.1474082e-05
1.1201707e-05
1.1284392e-05
1.1646335e-05
1.1796797e-05
1.1752878e-05
1.2057445e-05
1.195216e-05
1.2180121e-05
1.2186751e-05
1.2159924e-05
1.2035315e-05
5.6115774e-05
5.8955603e-05
6.1090838e-05
6.2701519e-05
6.4705007e-05
6.6755379e-05
6.8813938e-05
7.0854351e-05
7.2977196e-05
7.4781029e-05
7.6924819e-05
7.9278379e-05
8.1281507e-05
8.3051822e-05
8.4890565e-05
8.60256e-05
8.6317062e-05
8.6898098e-05
8.8053433e-05
8.9388024e-05
9.060669e-05
9.1349825e-05
9.1974306e-05
9.2855841e-05
9.3712127e-05
9.4040813e-05
9.4118166e-05
9.4313206e-05
9.4444936e-05
9.4386822e-05
9.4221457e-05
9.3991548e-05
9.3917202e-05
9.3699189e-05
9.2993296e-05
9.2008781e-05
9.1140899e-05
8.9985066e-05
8.8546967e-05
8.7466134e-05
8.6505148e-05
8.4480803e-05
8.2346544e-05
7.898951e-05
7.6427233e-05
7.0742876e-05
6.4318969e-05
5.7827341e-05
5.2987357e-05
1.7421165e-05
1.6595041e-05
1.5991126e-05
1.6156259e-05
1.6184851e-05
1.6207276e-05
1.604045e-05
1.6114893e-05
1.5913504e-05
1.5975537e-05
1.6138958e-05
1.6091322e-05
1.5841e-05
1.5606509e-05
1.5255946e-05
1.47572e-05
1.4379093e-05
1.4140356e-05
1.3941002e-05
1.3751166e-05
1.3622349e-05
1.3595524e-05
1.3555172e-05
1.3557117e-05
1.378722e-05
1.4256092e-05
1.4688649e-05
1.5138884e-05
1.5806155e-05
1.6523782e-05
1.7219561e-05
1.7863275e-05
1.8438701e-05
1.9352804e-05
2.0497046e-05
2.1445821e-05
2.2180318e-05
2.3152264e-05
2.3889324e-05
2.425369e-05
2.4896146e-05
2.6032276e-05
2.6605705e-05
2.7690251e-05
2.8408775e-05
3.0310208e-05
3.2828848e-05
3.5859889e-05
3.7954717e-05
7.1844342e-07
6.3074223e-07
5.7750313e-07
5.6391533e-07
5.4883388e-07
5.3544071e-07
5.1754276e-07
5.0868729e-07
4.9261088e-07
4.8388049e-07
4.7800621e-07
4.6677185e-07
4.5086637e-07
4.3675033e-07
4.2167853e-07
4.0480586e-07
3.924417e-07
3.8448578e-07
3.7746913e-07
3.7046144e-07
3.661775e-07
3.6618147e-07
3.655801e-07
3.6643621e-07
3.7322728e-07
3.8669213e-07
4.0079095e-07
4.168046e-07
4.3951951e-07
4.6562355e-07
4.9374862e-07
5.2300513e-07
5.5309332e-07
5.9591354e-07
6.5037231e-07
7.0454208e-07
7.5781356e-07
8.2515773e-07
8.8890801e-07
9.4384392e-07
1.0183468e-06
1.1246671e-06
1.21871e-06
1.3654776e-06
1.508442e-06
1.7149295e-06
1.9657854e-06
2.2832439e-06
2.6558657e-06
1.6379002e-07
1.6294979e-07
1.629447e-07
1.646491e-07
1.6613979e-07
1.6754931e-07
1.6841437e-07
1.6979804e-07
1.7041e-07
1.7153011e-07
1.7295725e-07
1.7388168e-07
1.7430196e-07
1.7484219e-07
1.7514391e-07
1.7504414e-07
1.753022e-07
1.7600687e-07
1.7660831e-07
1.7711591e-07
1.7791476e-07
1.7898832e-07
1.8004891e-07
1.8137412e-07
1.8334534e-07
1.8611199e-07
1.889726e-07
1.919857e-07
1.9566669e-07
1.9957118e-07
2.0348892e-07
2.0730073e-07
2.1086087e-07
2.1530279e-07
2.2036414e-07
2.2483601e-07
2.286515e-07
2.3302914e-07
2.3660859e-07
2.3913624e-07
2.4252358e-07
2.4699037e-07
2.5015258e-07
2.5513046e-07
2.5922738e-07
2.6479638e-07
2.7029665e-07
2.7460256e-07
2.7844422e-07
1.4083132e-07
1.4083198e-07
1.4119593e-07
1.4224734e-07
1.4303415e-07
1.438294e-07
1.4442e-07
1.4521649e-07
1.4567461e-07
1.4643952e-07
1.4716732e-07
1.4761855e-07
1.4790937e-07
1.4824632e-07
1.484557e-07
1.4859637e-07
1.4897794e-07
1.4953945e-07
1.5005419e-07
1.5057924e-07
1.5122992e-07
1.5196332e-07
1.5287765e-07
1.5401547e-07
1.5547678e-07
1.5738497e-07
1.5944003e-07
1.6158941e-07
1.6408239e-07
1.6678093e-07
1.6956259e-07
1.723837e-07
1.7506032e-07
1.7802057e-07
1.8134959e-07
1.8463955e-07
1.8755593e-07
1.9061294e-07
1.9350998e-07
1.9585321e-07
1.9813505e-07
2.0114217e-07
2.0353924e-07
2.0672077e-07
2.0963183e-07
2.131388e-07
2.1693189e-07
2.2103378e-07
2.2471287e-07
1.2356699e-07
1.2344986e-07
1.2352987e-07
1.2401103e-07
1.2436138e-07
1.247261e-07
1.2499257e-07
1.2538899e-07
1.2561368e-07
1.260215e-07
1.2643198e-07
1.2669924e-07
1.2688551e-07
1.2710822e-07
1.2726866e-07
1.273953e-07
1.2767263e-07
1.2807753e-07
1.2847842e-07
1.2890369e-07
1.2940953e-07
1.2997135e-07
1.3063598e-07
1.3145448e-07
1.3248965e-07
1.337985e-07
1.3520194e-07
1.3668846e-07
1.384035e-07
1.4025809e-07
1.42184e-07
1.4414958e-07
1.4605587e-07
1.4815464e-07
1.5048402e-07
1.5279533e-07
1.5490818e-07
1.5711625e-07
1.5923683e-07
1.6104423e-07
1.6284227e-07
1.6503946e-07
1.6689438e-07
1.6917042e-07
1.7127737e-07
1.7367926e-07
1.7618286e-07
1.788031e-07
1.811757e-07
1.1455945e-07
1.1447135e-07
1.1450417e-07
1.1477957e-07
1.1497758e-07
1.1518473e-07
1.1533449e-07
1.1555968e-07
1.1568723e-07
1.1592189e-07
1.1615987e-07
1.1632129e-07
1.1644334e-07
1.1659292e-07
1.1671635e-07
1.1683249e-07
1.170451e-07
1.1734103e-07
1.1764917e-07
1.1798936e-07
1.1839341e-07
1.1884624e-07
1.1938712e-07
1.2004101e-07
1.2084073e-07
1.2182149e-07
1.228806e-07
1.2401233e-07
1.2530342e-07
1.2670208e-07
1.2816712e-07
1.2967859e-07
1.3117496e-07
1.3280579e-07
1.3459788e-07
1.3640186e-07
1.3810153e-07
1.3987185e-07
1.4160486e-07
1.4315611e-07
1.447037e-07
1.465165e-07
1.481324e-07
1.5003367e-07
1.5185856e-07
1.5390682e-07
1.5607051e-07
1.5837299e-07
1.6056341e-07
1.0820696e-07
1.0812134e-07
1.0811063e-07
1.0825471e-07
1.0835415e-07
1.0846249e-07
1.0853904e-07
1.0866514e-07
1.0873545e-07
1.0887453e-07
1.0901979e-07
1.0912368e-07
1.0920927e-07
1.0931705e-07
1.0941536e-07
1.0951651e-07
1.0968361e-07
1.0990927e-07
1.101514e-07
1.1042261e-07
1.10741e-07
1.110962e-07
1.1151182e-07
1.1200895e-07
1.1261088e-07
1.1333754e-07
1.1412511e-07
1.1497192e-07
1.1593219e-07
1.1697351e-07
1.1807091e-07
1.1921133e-07
1.2035644e-07
1.2159877e-07
1.2295392e-07
1.2432659e-07
1.2564382e-07
1.2701377e-07
1.2836681e-07
1.2960929e-07
1.3085475e-07
1.3226783e-07
1.335566e-07
1.3502251e-07
1.3643491e-07
1.3798058e-07
1.395868e-07
1.4126367e-07
1.4284649e-07
1.040657e-07
1.04003e-07
1.0398701e-07
1.040713e-07
1.0412682e-07
1.041886e-07
1.0423094e-07
1.0430571e-07
1.0434692e-07
1.0443335e-07
1.0452579e-07
1.0459546e-07
1.0465743e-07
1.0473714e-07
1.0481553e-07
1.0490119e-07
1.0503362e-07
1.052085e-07
1.0540048e-07
1.0561818e-07
1.0587348e-07
1.0616032e-07
1.0649307e-07
1.0688612e-07
1.0735653e-07
1.0791668e-07
1.085258e-07
1.091838e-07
1.0992666e-07
1.1073393e-07
1.1158964e-07
1.1248515e-07
1.1339508e-07
1.1437959e-07
1.1544984e-07
1.1654319e-07
1.1760976e-07
1.1871985e-07
1.1982758e-07
1.2086822e-07
1.2191478e-07
1.2308127e-07
1.2417015e-07
1.2538617e-07
1.2657489e-07
1.2786556e-07
1.2921218e-07
1.3062909e-07
1.3199202e-07
1.0114112e-07
1.0109369e-07
1.010766e-07
1.0112707e-07
1.011591e-07
1.0119606e-07
1.0122122e-07
1.0126872e-07
1.0129577e-07
1.013539e-07
1.0141779e-07
1.0146934e-07
1.0151867e-07
1.0158231e-07
1.0164833e-07
1.0172275e-07
1.018312e-07
1.0197107e-07
1.0212653e-07
1.0230337e-07
1.0250946e-07
1.0274112e-07
1.0300697e-07
1.033173e-07
1.0368566e-07
1.0411994e-07
1.0459317e-07
1.0510609e-07
1.0568309e-07
1.0631086e-07
1.0697897e-07
1.0768156e-07
1.0840171e-07
1.0917945e-07
1.1002234e-07
1.1088783e-07
1.1174183e-07
1.1263073e-07
1.1352295e-07
1.1437304e-07
1.1523002e-07
1.1616967e-07
1.1705758e-07
1.1803109e-07
1.1898482e-07
1.2000536e-07
1.2106034e-07
1.2215845e-07
1.2321055e-07
9.9058645e-08
9.9027466e-08
9.9015687e-08
9.9049924e-08
9.907169e-08
9.9097135e-08
9.9115161e-08
9.9148814e-08
9.9169786e-08
9.9212626e-08
9.9260611e-08
9.9302177e-08
9.934429e-08
9.9397993e-08
9.9455651e-08
9.9521594e-08
9.96128e-08
9.9727683e-08
9.985612e-08
1.0000213e-07
1.0017109e-07
1.0036098e-07
1.0057706e-07
1.0082635e-07
1.0111966e-07
1.0146233e-07
1.0183614e-07
1.0224226e-07
1.0269781e-07
1.0319394e-07
1.0372363e-07
1.0428309e-07
1.0486092e-07
1.0548476e-07
1.0616022e-07
1.068578e-07
1.0755312e-07
1.0827782e-07
1.0900974e-07
1.0971591e-07
1.104295e-07
1.1120463e-07
1.119458e-07
1.1275016e-07
1.1354335e-07
1.1438738e-07
1.1526004e-07
1.1617038e-07
1.1704847e-07
9.7537567e-08
9.751873e-08
9.7512611e-08
9.7538646e-08
9.7556245e-08
9.7576764e-08
9.7592693e-08
9.7619932e-08
9.7639344e-08
9.7674601e-08
9.7714444e-08
9.7751322e-08
9.779011e-08
9.7838323e-08
9.7890958e-08
9.7951126e-08
9.8030297e-08
9.8127465e-08
9.8236008e-08
9.835871e-08
9.8499266e-08
9.8656577e-08
9.8833872e-08
9.9035951e-08
9.9271458e-08
9.9544133e-08
9.984152e-08
1.0016501e-07
1.005267e-07
1.009204e-07
1.0134152e-07
1.0178788e-07
1.0225195e-07
1.0275308e-07
1.0329523e-07
1.0385739e-07
1.0442194e-07
1.0501062e-07
1.056075e-07
1.0618837e-07
1.0677621e-07
1.0740893e-07
1.0801827e-07
1.0867246e-07
1.0931833e-07
1.099994e-07
1.1069941e-07
1.1142479e-07
1.1212225e-07
9.640763e-08
9.6399646e-08
9.6399864e-08
9.6422794e-08
9.6439906e-08
9.6459378e-08
9.6476063e-08
9.6501129e-08
9.6521455e-08
9.6553526e-08
9.6589659e-08
9.6624871e-08
9.6662609e-08
9.6708054e-08
9.6757867e-08
9.6814277e-08
9.6885108e-08
9.6969693e-08
9.7063607e-08
9.7168769e-08
9.7287733e-08
9.7419894e-08
9.7567247e-08
9.7733082e-08
9.7924235e-08
9.8143423e-08
9.8382101e-08
9.8641787e-08
9.8930846e-08
9.9244954e-08
9.9581571e-08
9.9939973e-08
1.0031506e-07
1.0072034e-07
1.0115853e-07
1.0161442e-07
1.0207505e-07
1.0255578e-07
1.030451e-07
1.0352498e-07
1.0401149e-07
1.0453228e-07
1.050373e-07
1.0557601e-07
1.0610959e-07
1.0666979e-07
1.0724476e-07
1.0784036e-07
1.084137e-07
9.555757e-08
9.5558179e-08
9.5564135e-08
9.5586445e-08
9.5604801e-08
9.5625176e-08
9.5644008e-08
9.5669257e-08
9.5691813e-08
9.5723303e-08
9.5758437e-08
9.5793881e-08
9.5832078e-08
9.5876624e-08
9.5925241e-08
9.5979493e-08
9.6044737e-08
9.6120493e-08
9.6203727e-08
9.6295725e-08
9.639823e-08
9.6510869e-08
9.663485e-08
9.6772425e-08
9.6928954e-08
9.710647e-08
9.7299139e-08
9.7508484e-08
9.7739811e-08
9.7990599e-08
9.8260343e-08
9.8549071e-08
9.8852724e-08
9.9180444e-08
9.9534106e-08
9.9902776e-08
1.0027703e-07
1.0066795e-07
1.0106715e-07
1.0146107e-07
1.0186108e-07
1.0228717e-07
1.0270236e-07
1.031424e-07
1.0357862e-07
1.0403392e-07
1.044993e-07
1.0497925e-07
1.0543972e-07
9.4909676e-08
9.4917577e-08
9.4928921e-08
9.4952191e-08
9.4972825e-08
9.4995265e-08
9.5017029e-08
9.5043865e-08
9.5069394e-08
9.5101891e-08
9.5137694e-08
9.5174561e-08
9.5214209e-08
9.5259132e-08
9.5307739e-08
9.5361081e-08
9.5422801e-08
9.5492513e-08
9.5568073e-08
9.5650287e-08
9.5740301e-08
9.5837835e-08
9.5943573e-08
9.6059043e-08
9.6188404e-08
9.6333222e-08
9.6489573e-08
9.6658813e-08
9.6843675e-08
9.7044207e-08
9.7261461e-08
9.7494824e-08
9.7740332e-08
9.8004407e-08
9.8288866e-08
9.8586133e-08
9.888944e-08
9.9206886e-08
9.9532297e-08
9.9855344e-08
1.0018407e-07
1.0053318e-07
1.0087498e-07
1.0123574e-07
1.0159403e-07
1.0196671e-07
1.0234693e-07
1.0273857e-07
1.0311377e-07
9.4412034e-08
9.4425933e-08
9.4442075e-08
9.4467082e-08
9.4490449e-08
9.4515519e-08
9.4540561e-08
9.4569769e-08
9.4598648e-08
9.4633121e-08
9.4670652e-08
9.4709718e-08
9.4751505e-08
9.4797719e-08
9.4847215e-08
9.4900643e-08
9.4960422e-08
9.5026202e-08
9.5096405e-08
9.5171462e-08
9.5252066e-08
9.5337942e-08
9.5429408e-08
9.552748e-08
9.5635343e-08
9.5754229e-08
9.5881575e-08
9.6018314e-08
9.6165251e-08
9.6326204e-08
9.6501998e-08
9.6689745e-08
9.6886179e-08
9.7096887e-08
9.732403e-08
9.7562382e-08
9.7806949e-08
9.8063568e-08
9.8327583e-08
9.8591054e-08
9.8859672e-08
9.9144231e-08
9.9423858e-08
9.9717853e-08
1.0001007e-07
1.0031283e-07
1.006208e-07
1.0093707e-07
1.0123898e-07
9.4026627e-08
9.4045681e-08
9.4066218e-08
9.4093467e-08
9.4119839e-08
9.4147885e-08
9.4176402e-08
9.4208477e-08
9.4240935e-08
9.4278022e-08
9.431799e-08
9.4359799e-08
9.4404234e-08
9.445243e-08
9.4503526e-08
9.455785e-08
9.4616931e-08
9.4680415e-08
9.4747079e-08
9.4817052e-08
9.4890671e-08
9.4967615e-08
9.5047936e-08
9.5132286e-08
9.5223052e-08
9.5321225e-08
9.542519e-08
9.5535551e-08
9.5651249e-08
9.5781412e-08
9.592343e-08
9.6071869e-08
9.6226598e-08
9.6393155e-08
9.6573464e-08
9.6763604e-08
9.6959732e-08
9.7166049e-08
9.7379057e-08
9.7592669e-08
9.781093e-08
9.8041854e-08
9.8269622e-08
9.8508534e-08
9.8746344e-08
9.8992164e-08
9.9241815e-08
9.9497914e-08
9.9741696e-08
9.3726956e-08
9.3750446e-08
9.3774978e-08
9.3804724e-08
9.3834209e-08
9.3865401e-08
9.3897474e-08
9.3932716e-08
9.3968887e-08
9.4009017e-08
9.4051918e-08
9.4096871e-08
9.4144353e-08
9.4195074e-08
9.424835e-08
9.4304246e-08
9.4363628e-08
9.442611e-08
9.4490684e-08
9.4557229e-08
9.4625791e-08
9.4695975e-08
9.4767625e-08
9.4841138e-08
9.4918243e-08
9.4999746e-08
9.5084669e-08
9.517339e-08
9.526533e-08
9.537047e-08
9.5481929e-08
9.5595952e-08
9.5716494e-08
9.5847202e-08
9.5989054e-08
9.6139134e-08
9.6294605e-08
9.6458587e-08
9.6628511e-08
9.679974e-08
9.6975172e-08
9.7160755e-08
9.7344461e-08
9.7536882e-08
9.7728672e-08
9.7926531e-08
9.8127131e-08
9.8332597e-08
9.852742e-08
9.3493183e-08
9.3520623e-08
9.3548878e-08
9.3581302e-08
9.3613976e-08
9.3648436e-08
9.3684128e-08
9.3722756e-08
9.376275e-08
9.3806248e-08
9.3852461e-08
9.3900884e-08
9.3951752e-08
9.4005452e-08
9.4061406e-08
9.4119455e-08
9.417996e-08
9.4242486e-08
9.4306144e-08
9.43706e-08
9.443566e-08
9.450083e-08
9.4565793e-08
9.4630753e-08
9.469691e-08
9.4764912e-08
9.4834035e-08
9.4904046e-08
9.4979284e-08
9.506236e-08
9.5143749e-08
9.5231093e-08
9.5324805e-08
9.542567e-08
9.5535065e-08
9.5651251e-08
9.5772197e-08
9.5900261e-08
9.6033609e-08
9.6168739e-08
9.630774e-08
9.6455043e-08
9.6601474e-08
9.6754903e-08
9.6908164e-08
9.7066202e-08
9.7226343e-08
9.7390365e-08
9.7545331e-08
9.3310959e-08
9.3341973e-08
9.337373e-08
9.3408945e-08
9.3444852e-08
9.3482663e-08
9.3522025e-08
9.3564208e-08
9.3608124e-08
9.3655252e-08
9.3705087e-08
9.3757262e-08
9.3811822e-08
9.3868897e-08
9.3927966e-08
9.3988681e-08
9.4051004e-08
9.4114438e-08
9.4178149e-08
9.4241615e-08
9.4304438e-08
9.4366013e-08
9.4425892e-08
9.4484121e-08
9.4541488e-08
9.459848e-08
9.4654882e-08
9.4711009e-08
9.4782363e-08
9.4845084e-08
9.4894634e-08
9.4957873e-08
9.5027001e-08
9.5101985e-08
9.5183848e-08
9.5271137e-08
9.5362485e-08
9.5459812e-08
9.5561881e-08
9.5666078e-08
9.5773895e-08
9.5888617e-08
9.6003246e-08
9.6123607e-08
9.6244186e-08
9.6368604e-08
9.6494693e-08
9.6623905e-08
9.6745456e-08
9.3169397e-08
9.320374e-08
9.3238861e-08
9.3276969e-08
9.3316165e-08
9.3357417e-08
9.3400515e-08
9.3446409e-08
9.3494361e-08
9.3545356e-08
9.3599088e-08
9.3655281e-08
9.371382e-08
9.3774633e-08
9.383722e-08
9.3901061e-08
9.3965805e-08
9.4030877e-08
9.4095455e-08
9.4158846e-08
9.4220475e-08
9.427962e-08
9.4335718e-08
9.4388688e-08
9.4438989e-08
9.4486971e-08
9.4532614e-08
9.4576617e-08
9.461734e-08
9.4659481e-08
9.4710235e-08
9.4756493e-08
9.4805039e-08
9.4857596e-08
9.4915178e-08
9.4977219e-08
9.5042972e-08
9.511391e-08
9.5189169e-08
9.5266793e-08
9.5347839e-08
9.5434735e-08
9.5522161e-08
9.5614419e-08
9.5707267e-08
9.5803348e-08
9.5900891e-08
9.6001099e-08
9.6094941e-08
9.3060408e-08
9.3097912e-08
9.3136311e-08
9.3177406e-08
9.3219957e-08
9.3264742e-08
9.331166e-08
9.336142e-08
9.3413539e-08
9.3468624e-08
9.3526514e-08
9.3586985e-08
9.3649787e-08
9.371468e-08
9.3781159e-08
9.3848555e-08
9.3916251e-08
9.3983593e-08
9.4049733e-08
9.4113823e-08
9.4175127e-08
9.423281e-08
9.4286197e-08
9.43351e-08
9.4379724e-08
9.4420279e-08
9.4456948e-08
9.4490303e-08
9.4523265e-08
9.4540583e-08
9.4577312e-08
9.4610092e-08
9.4641663e-08
9.4675146e-08
9.471221e-08
9.4752834e-08
9.4796657e-08
9.4844867e-08
9.4896954e-08
9.4951526e-08
9.5009353e-08
9.5072238e-08
9.5136162e-08
9.5204287e-08
9.527335e-08
9.5345255e-08
9.5418545e-08
9.5494199e-08
9.5564658e-08
9.2977803e-08
9.3018378e-08
9.3060026e-08
9.3104213e-08
9.3150205e-08
9.3198635e-08
9.3249484e-08
9.3303276e-08
9.3359714e-08
9.3419117e-08
9.3481422e-08
9.3546432e-08
9.3613781e-08
9.3683088e-08
9.3753821e-08
9.3825172e-08
9.3896303e-08
9.3966471e-08
9.4034778e-08
9.4100231e-08
9.4161947e-08
9.4218975e-08
9.4270538e-08
9.4316352e-08
9.4356421e-08
9.4390827e-08
9.4419882e-08
9.4444331e-08
9.4464558e-08
9.4484474e-08
9.4500129e-08
9.4514431e-08
9.4529054e-08
9.4545406e-08
9.4564424e-08
9.4586216e-08
9.4610721e-08
9.4638958e-08
9.4670716e-08
9.4705061e-08
9.4742565e-08
9.4784559e-08
9.4828041e-08
9.4875312e-08
9.4923865e-08
9.4975055e-08
9.5027674e-08
9.5082516e-08
9.5133247e-08
9.2916909e-08
9.2960521e-08
9.3005429e-08
9.3052825e-08
9.3102365e-08
9.315457e-08
9.3209483e-08
9.3267486e-08
9.3328419e-08
9.3392373e-08
9.3459356e-08
9.3529175e-08
9.3601362e-08
9.3675411e-08
9.375075e-08
9.3826442e-08
9.3901453e-08
9.3974946e-08
9.4045957e-08
9.4113354e-08
9.4176112e-08
9.4233169e-08
9.4283647e-08
9.4327179e-08
9.4363604e-08
9.4392887e-08
9.4415451e-08
9.4431967e-08
9.4443461e-08
9.4450295e-08
9.4454227e-08
9.445637e-08
9.4457592e-08
9.4459156e-08
9.4462199e-08
9.4467249e-08
9.4474588e-08
9.4485136e-08
9.4498925e-08
9.451539e-08
9.4534963e-08
9.4558629e-08
9.4584177e-08
9.4613261e-08
9.4643965e-08
9.4677226e-08
9.4712037e-08
9.474903e-08
9.4782904e-08
9.2874149e-08
9.2920811e-08
9.2969031e-08
9.3019769e-08
9.3072987e-08
9.312912e-08
9.3188256e-08
9.3250667e-08
9.3316294e-08
9.3385047e-08
9.3456978e-08
9.3531886e-08
9.3609211e-08
9.3688332e-08
9.3768626e-08
9.3849032e-08
9.3928343e-08
9.400562e-08
9.4079819e-08
9.4149671e-08
9.4214021e-08
9.4271691e-08
9.4321708e-08
9.4363627e-08
9.4397153e-08
9.4422143e-08
9.4439097e-08
9.444873e-08
9.4451837e-08
9.4449542e-08
9.4442963e-08
9.4433311e-08
9.4421796e-08
9.440973e-08
9.4398317e-08
9.4388324e-08
9.4380267e-08
9.4374991e-08
9.437273e-08
9.437322e-08
9.437681e-08
9.4384226e-08
9.4393886e-08
9.4406957e-08
9.4421984e-08
9.4439595e-08
9.4458941e-08
9.4480518e-08
9.4499897e-08
9.2846815e-08
9.289658e-08
9.2948197e-08
9.3002426e-08
9.3059476e-08
9.3119708e-08
9.3183251e-08
9.3250286e-08
9.3320827e-08
9.3394642e-08
9.3471804e-08
9.3552095e-08
9.3634867e-08
9.3719395e-08
9.3804993e-08
9.3890481e-08
9.3974491e-08
9.4055979e-08
9.4133809e-08
9.4206578e-08
9.4273002e-08
9.4331792e-08
9.4381879e-08
9.4422745e-08
9.4453982e-08
9.447535e-08
9.4487413e-08
9.4490899e-08
9.4486623e-08
9.4475682e-08
9.4459385e-08
9.4439076e-08
9.4416089e-08
9.4391708e-08
9.4367201e-08
9.434356e-08
9.4321521e-08
9.4301903e-08
9.428512e-08
9.4271166e-08
9.426034e-08
9.4253183e-08
9.4248613e-08
9.4247425e-08
9.4248535e-08
9.425233e-08
9.4258094e-08
9.42662e-08
9.4272965e-08
9.2832861e-08
9.2885816e-08
9.2940945e-08
9.2998833e-08
9.3059888e-08
9.3124415e-08
9.319257e-08
9.3264465e-08
9.3340166e-08
9.341932e-08
9.3502011e-08
9.3587993e-08
9.3676534e-08
9.376681e-08
9.3858065e-08
9.3949e-08
9.4038097e-08
9.4124201e-08
9.4206073e-08
9.4282181e-08
9.4351111e-08
9.4411463e-08
9.4462076e-08
9.4502359e-08
9.453181e-08
9.45501e-08
9.4557844e-08
9.45558e-08
9.454477e-08
9.4525959e-08
9.4500765e-08
9.4470622e-08
9.4436997e-08
9.4401204e-08
9.4364597e-08
9.4328369e-08
9.4293449e-08
9.426066e-08
9.4230573e-08
9.4203398e-08
9.4179416e-08
9.4159033e-08
9.4141568e-08
9.4127538e-08
9.411615e-08
9.4107612e-08
9.4101317e-08
9.4097528e-08
9.4093203e-08
9.2830772e-08
9.2887033e-08
9.2945815e-08
9.3007549e-08
9.3072804e-08
9.3141842e-08
9.3214838e-08
9.3291849e-08
9.3372975e-08
9.3457764e-08
9.3546297e-08
9.3638293e-08
9.3732939e-08
9.3829313e-08
9.3926583e-08
9.4023332e-08
9.4117895e-08
9.4209003e-08
9.4295307e-08
9.4375142e-08
9.4446971e-08
9.4509278e-08
9.4560812e-08
9.4600911e-08
9.462899e-08
9.4644643e-08
9.4648526e-08
9.464143e-08
9.4624171e-08
9.4598036e-08
9.4564521e-08
9.4525163e-08
9.4481562e-08
9.4435079e-08
9.4387158e-08
9.4339177e-08
9.4292241e-08
9.4247198e-08
9.4204763e-08
9.4165335e-08
9.4129193e-08
9.4096653e-08
9.4067357e-08
9.4041614e-08
9.4018864e-08
9.3999178e-08
9.398204e-08
9.3967616e-08
9.3953414e-08
9.2839456e-08
9.2899163e-08
9.2961765e-08
9.302755e-08
9.3097222e-08
9.3171006e-08
9.3249096e-08
9.3331498e-08
9.3418337e-08
9.3509075e-08
9.3603781e-08
9.3702131e-08
9.3803231e-08
9.3906066e-08
9.4009716e-08
9.4112647e-08
9.4213051e-08
9.4309541e-08
9.4400649e-08
9.4484578e-08
9.4559663e-08
9.4624278e-08
9.4677078e-08
9.4717333e-08
9.4744386e-08
9.4757759e-08
9.4758144e-08
9.4746371e-08
9.4723279e-08
9.4690241e-08
9.4648851e-08
9.4600749e-08
9.4547664e-08
9.4491025e-08
9.4432378e-08
9.4373271e-08
9.4314973e-08
9.4258375e-08
9.4204327e-08
9.4153391e-08
9.4105865e-08
9.4062004e-08
9.4021713e-08
9.3985147e-08
9.3951932e-08
9.3922038e-08
9.3895023e-08
9.3870965e-08
9.3847853e-08
9.2858169e-08
9.2921485e-08
9.2988097e-08
9.3058156e-08
9.3132483e-08
9.3211271e-08
9.3294728e-08
9.3382818e-08
9.3475681e-08
9.3572701e-08
9.3673928e-08
9.3778988e-08
9.3886909e-08
9.3996577e-08
9.4106982e-08
9.4216468e-08
9.432309e-08
9.4425331e-08
9.4521601e-08
9.4609971e-08
9.4688646e-08
9.4755888e-08
9.4810262e-08
9.4850965e-08
9.4877276e-08
9.4888658e-08
9.4885833e-08
9.486967e-08
9.4841045e-08
9.4801413e-08
9.4752469e-08
9.4695959e-08
9.4633743e-08
9.4567334e-08
9.4498386e-08
9.442861e-08
9.4359429e-08
9.4291796e-08
9.4226684e-08
9.4164803e-08
9.410648e-08
9.4051937e-08
9.4001293e-08
9.3954592e-08
9.3911611e-08
9.3872241e-08
9.3836106e-08
9.3803201e-08
9.3771938e-08
9.2886457e-08
9.2953569e-08
9.3024402e-08
9.3098977e-08
9.3178216e-08
9.3262287e-08
9.3351407e-08
9.3445504e-08
9.3544723e-08
9.364838e-08
9.3756494e-08
9.3868641e-08
9.3983764e-08
9.4100652e-08
9.4218197e-08
9.433462e-08
9.4447834e-08
9.4556192e-08
9.4657976e-08
9.4751117e-08
9.4833695e-08
9.4903858e-08
9.4960078e-08
9.5001482e-08
9.5027291e-08
9.5036914e-08
9.5031101e-08
9.5010764e-08
9.4976822e-08
9.4930816e-08
9.4874539e-08
9.4809849e-08
9.4738737e-08
9.4662815e-08
9.4583855e-08
9.4503723e-08
9.4423993e-08
9.4345689e-08
9.4269905e-08
9.4197484e-08
9.4128792e-08
9.4064038e-08
9.400352e-08
9.3947199e-08
9.3894979e-08
9.3846692e-08
9.3802014e-08
9.3760868e-08
9.3722041e-08
9.2924118e-08
9.2995232e-08
9.3070519e-08
9.3149871e-08
9.3234303e-08
9.3323957e-08
9.3419059e-08
9.3519503e-08
9.3625433e-08
9.3736101e-08
9.385149e-08
9.3971118e-08
9.4093844e-08
9.4218353e-08
9.4343435e-08
9.4467184e-08
9.4587369e-08
9.4702209e-08
9.4809849e-08
9.4908082e-08
9.499486e-08
9.5068215e-08
9.5126527e-08
9.5168853e-08
9.5194359e-08
9.5202409e-08
9.5193779e-08
9.5169426e-08
9.5130316e-08
9.5078077e-08
9.5014602e-08
9.4941867e-08
9.4861997e-08
9.4776714e-08
9.4687915e-08
9.4597622e-08
9.4507551e-08
9.4418812e-08
9.4332611e-08
9.4249921e-08
9.417115e-08
9.4096513e-08
9.4026457e-08
9.3960888e-08
9.3899811e-08
9.3843017e-08
9.3790228e-08
9.3741297e-08
9.3695349e-08
9.2971174e-08
9.3046514e-08
9.312651e-08
9.3210921e-08
9.3300847e-08
9.3396407e-08
9.3497834e-08
9.3604989e-08
9.3718009e-08
9.3836085e-08
9.3959159e-08
9.4086683e-08
9.4217429e-08
9.4349977e-08
9.4483006e-08
9.4614478e-08
9.4742019e-08
9.4863704e-08
9.4977538e-08
9.5081176e-08
9.5172435e-08
9.5249235e-08
9.5309862e-08
9.5353305e-08
9.5378674e-08
9.5385299e-08
9.537398e-08
9.5345717e-08
9.5301533e-08
9.5243138e-08
9.5172533e-08
9.5091811e-08
9.5003238e-08
9.4908657e-08
9.4810098e-08
9.4709733e-08
9.4609425e-08
9.4510373e-08
9.4413899e-08
9.4321092e-08
9.4232416e-08
9.4148098e-08
9.4068718e-08
9.3994142e-08
9.3924465e-08
9.3859445e-08
9.3798845e-08
9.3742451e-08
9.3689698e-08
9.3027849e-08
9.3107661e-08
9.3192643e-08
9.3282417e-08
9.3378161e-08
9.3479975e-08
9.3588093e-08
9.3702346e-08
9.3822861e-08
9.3948766e-08
9.4079956e-08
9.4215813e-08
9.4355017e-08
9.4496038e-08
9.4637437e-08
9.4777041e-08
9.4912326e-08
9.504122e-08
9.5161585e-08
9.5270929e-08
9.536694e-08
9.5447422e-08
9.5510568e-08
9.5555297e-08
9.558067e-08
9.5585988e-08
9.5572071e-08
9.5539966e-08
9.5490753e-08
9.542623e-08
9.5348502e-08
9.5259789e-08
9.5162499e-08
9.5058609e-08
9.4950286e-08
9.4839856e-08
9.4729323e-08
9.4619987e-08
9.4513282e-08
9.4410411e-08
9.4311896e-08
9.4217993e-08
9.4129396e-08
9.4045946e-08
9.3967817e-08
9.3894743e-08
9.3826524e-08
9.3762884e-08
9.3703543e-08
9.3094566e-08
9.3179117e-08
9.3269385e-08
9.3364847e-08
9.3466759e-08
9.3575197e-08
9.36904e-08
9.3812167e-08
9.3940606e-08
9.4074786e-08
9.4214548e-08
9.4359198e-08
9.4507318e-08
9.4657264e-08
9.480747e-08
9.4955624e-08
9.5099047e-08
9.5235517e-08
9.5362742e-08
9.5478089e-08
9.5579111e-08
9.5663497e-08
9.5729348e-08
9.5775514e-08
9.5801009e-08
9.580511e-08
9.5788657e-08
9.5752745e-08
9.5698514e-08
9.5627845e-08
9.5542956e-08
9.5446195e-08
9.5340119e-08
9.5226846e-08
9.510869e-08
9.4988128e-08
9.4867306e-08
9.4747631e-08
9.4630651e-08
9.4517679e-08
9.4409302e-08
9.4305813e-08
9.4208008e-08
9.4115719e-08
9.4029186e-08
9.3948129e-08
9.3872382e-08
9.3801607e-08
9.3735795e-08
9.3171944e-08
9.3261523e-08
9.3357401e-08
9.3458903e-08
9.3567356e-08
9.3682819e-08
9.3805527e-08
9.3935249e-08
9.4072071e-08
9.4215e-08
9.4363814e-08
9.451774e-08
9.4675255e-08
9.4834595e-08
9.4994061e-08
9.5151192e-08
9.5303153e-08
9.5447563e-08
9.5581978e-08
9.5703615e-08
9.5809895e-08
9.5898394e-08
9.596712e-08
9.6014856e-08
9.604057e-08
9.6043523e-08
9.6024575e-08
9.5984865e-08
9.5925594e-08
9.584873e-08
9.5756602e-08
9.5651696e-08
9.553672e-08
9.5413944e-08
9.5285829e-08
9.5155006e-08
9.5023765e-08
9.4893625e-08
9.4766249e-08
9.4643059e-08
9.4524714e-08
9.4411554e-08
9.4304466e-08
9.4203287e-08
9.4108317e-08
9.4019267e-08
9.3936003e-08
9.3858126e-08
9.3785893e-08
9.3260805e-08
9.3355722e-08
9.3457563e-08
9.3565482e-08
9.3680881e-08
9.3803797e-08
9.3934461e-08
9.407261e-08
9.4218303e-08
9.4370482e-08
9.4528857e-08
9.4692566e-08
9.4859977e-08
9.5029198e-08
9.5198388e-08
9.5364933e-08
9.5525836e-08
9.5678551e-08
9.5820477e-08
9.5948682e-08
9.6060456e-08
9.6153261e-08
9.6225017e-08
9.6274439e-08
9.6300455e-08
9.6302312e-08
9.6280889e-08
9.6237371e-08
9.6173017e-08
9.6089882e-08
9.5990412e-08
9.5877231e-08
9.5753208e-08
9.5620767e-08
9.5482522e-08
9.534126e-08
9.5199412e-08
9.5058616e-08
9.4920655e-08
9.478706e-08
9.4658568e-08
9.4535571e-08
9.4419049e-08
9.4308846e-08
9.4205322e-08
9.4108183e-08
9.4017327e-08
9.3932294e-08
9.3853602e-08
9.3362187e-08
9.3462782e-08
9.3570966e-08
9.368571e-08
9.3808491e-08
9.393932e-08
9.4078425e-08
9.4225505e-08
9.4380588e-08
9.4542547e-08
9.471102e-08
9.4885044e-08
9.5062873e-08
9.524248e-08
9.5421872e-08
9.5598275e-08
9.5768525e-08
9.5929905e-08
9.6079655e-08
9.6214696e-08
9.6332184e-08
9.6429473e-08
9.6504396e-08
9.6555605e-08
9.658199e-08
9.6582789e-08
9.6558898e-08
9.6511547e-08
9.6442053e-08
9.6352555e-08
9.6245617e-08
9.6124014e-08
9.5990772e-08
9.5848475e-08
9.5699895e-08
9.5547971e-08
9.5395279e-08
9.5243583e-08
9.5094786e-08
9.4950531e-08
9.4811643e-08
9.4678576e-08
9.4552396e-08
9.4432968e-08
9.4320706e-08
9.421532e-08
9.4116739e-08
9.4024441e-08
9.3939209e-08
9.347737e-08
9.3584009e-08
9.3698952e-08
9.3820964e-08
9.3951596e-08
9.4090835e-08
9.42389e-08
9.4395451e-08
9.4560478e-08
9.4732782e-08
9.4911915e-08
9.5096813e-08
9.5285603e-08
9.5476114e-08
9.5666195e-08
9.5852905e-08
9.6032904e-08
9.6203304e-08
9.636118e-08
9.6503306e-08
9.6626712e-08
9.6728644e-08
9.6806854e-08
9.6859935e-08
9.6886741e-08
9.6886509e-08
9.6860149e-08
9.6808932e-08
9.6734231e-08
9.6638268e-08
9.6523732e-08
9.6393545e-08
9.6250899e-08
9.6098537e-08
9.5939389e-08
9.5776545e-08
9.5612731e-08
9.5449837e-08
9.5289896e-08
9.5134669e-08
9.4985072e-08
9.4841631e-08
9.4705499e-08
9.457657e-08
9.4455312e-08
9.434144e-08
9.4234918e-08
9.4135158e-08
9.4043217e-08
9.3607902e-08
9.3720986e-08
9.3843141e-08
9.39729e-08
9.4111894e-08
9.4260081e-08
9.4417666e-08
9.4584267e-08
9.475983e-08
9.4943076e-08
9.5133465e-08
9.5329818e-08
9.5530131e-08
9.5732078e-08
9.5933342e-08
9.6130804e-08
9.6320949e-08
9.650071e-08
9.6666996e-08
9.6816436e-08
9.6945938e-08
9.705265e-08
9.7134248e-08
9.7189268e-08
9.7216537e-08
9.721529e-08
9.7186455e-08
9.7131338e-08
9.7051362e-08
9.6948835e-08
9.6826569e-08
9.668764e-08
9.65354e-08
9.6372754e-08
9.6202786e-08
9.6028738e-08
9.5853482e-08
9.5679049e-08
9.5507605e-08
9.5341033e-08
9.5180353e-08
9.5026173e-08
9.4879734e-08
9.4740967e-08
9.4610399e-08
9.4487752e-08
9.437303e-08
9.4265576e-08
9.4166737e-08
9.375564e-08
9.3875607e-08
9.4005471e-08
9.4143504e-08
9.4291418e-08
9.4449136e-08
9.4616848e-08
9.4794122e-08
9.4980852e-08
9.5175673e-08
9.5377944e-08
9.558636e-08
9.5798773e-08
9.6012697e-08
9.6225637e-08
9.6434292e-08
9.6634964e-08
9.6824405e-08
9.6999358e-08
9.7156314e-08
9.7292063e-08
9.7403662e-08
9.7488722e-08
9.7545731e-08
9.757349e-08
9.757124e-08
9.7539923e-08
9.7480875e-08
9.7395566e-08
9.7286385e-08
9.7156272e-08
9.7008453e-08
9.6846441e-08
9.6673292e-08
9.6492242e-08
9.6306682e-08
9.6119636e-08
9.5933279e-08
9.5749921e-08
9.5571579e-08
9.5399381e-08
9.5234031e-08
9.5076861e-08
9.4927846e-08
9.4787572e-08
9.4655776e-08
9.4532499e-08
9.4417015e-08
9.4310978e-08
9.3922796e-08
9.4050134e-08
9.4188257e-08
9.4335142e-08
9.4492586e-08
9.4660473e-08
9.4838971e-08
9.5027592e-08
9.5226167e-08
9.5433239e-08
9.5648048e-08
9.5869157e-08
9.6094262e-08
9.6320705e-08
9.6545807e-08
9.6766077e-08
9.6977631e-08
9.717704e-08
9.7360882e-08
9.7525515e-08
9.7667621e-08
9.7784181e-08
9.7872749e-08
9.7931772e-08
9.7960036e-08
9.7956791e-08
9.792299e-08
9.7859994e-08
9.7769311e-08
9.7653409e-08
9.7515356e-08
9.7358529e-08
9.7186586e-08
9.7002728e-08
9.6810333e-08
9.661294e-08
9.6413726e-08
9.6215024e-08
9.6019298e-08
9.5828707e-08