/*--------------------------------*- C++ -*----------------------------------*\
| =========                 |                                                 |
| \\      /  F ield         | OpenFOAM: The Open Source CFD Toolbox           |
|  \\    /   O peration     | Version:  v2006                                 |
|   \\  /    A nd           | Website:  www.openfoam.com                      |
|    \\/     M anipulation  |                                                 |
\*---------------------------------------------------------------------------*/
FoamFile
{
    version     2.0;
    format      ascii;
    class       volScalarField;
    location    "2500";
    object      omega;
}
// * * * * * * * * * * * * * * * * * * * * * * * * * * * * * * * * * * * * * //

dimensions      [0 0 -1 0 0 0 0];


internalField   nonuniform List<scalar> 
19765
(
15.853347
16.162761
16.976482
17.198164
17.554061
17.608279
18.161809
18.159786
18.651787
19.293563
19.324901
18.870457
18.731794
18.569649
18.087067
18.05003
18.338417
18.263077
17.822528
17.513294
17.394889
17.425935
17.338556
17.395965
17.501159
17.603322
17.764509
18.080123
18.245315
18.612138
19.184118
19.91326
20.191295
20.173689
20.539833
21.335763
21.677725
22.006237
22.831819
23.089581
22.680904
22.48841
22.805679
22.236986
22.468051
22.025611
21.951285
21.877718
21.918671
2.8843931
2.7983777
2.7546318
2.8089246
2.8363496
2.8629005
2.8717629
2.9125849
2.9248563
2.980788
3.0332673
3.048641
3.0464125
3.042819
3.0154403
2.987312
2.9888472
2.9896423
2.9735011
2.9512693
2.9382939
2.9478665
2.9592112
2.9668347
2.9977205
3.0661431
3.1362652
3.2032412
3.2951256
3.3966396
3.4958903
3.587599
3.6591802
3.7665464
3.9113362
4.0399543
4.1332111
4.2557228
4.3566383
4.4030179
4.4776954
4.6153977
4.6752304
4.8691883
4.980312
5.3379068
5.7764524
6.2775413
6.6642117
1.0360627
1.03967
1.0496991
1.083019
1.1033825
1.1220331
1.1325134
1.1522974
1.1599929
1.1812582
1.2015976
1.2101883
1.2117514
1.2142618
1.2107249
1.2040569
1.2042098
1.2067403
1.2055109
1.2027413
1.2054344
1.2154061
1.2242441
1.2304282
1.2433469
1.2702799
1.3011295
1.3322279
1.3722341
1.417016
1.462349
1.5064325
1.543366
1.5899612
1.6489632
1.705225
1.7488884
1.7997687
1.8446274
1.8691392
1.8943386
1.9427069
1.9663258
2.0029228
2.0263753
2.0688999
2.1234804
2.1910682
2.2577871
0.59586721
0.59651796
0.60182359
0.61571423
0.62652341
0.6376553
0.64609445
0.65736772
0.66401489
0.67487142
0.68558938
0.69234773
0.69651546
0.70116915
0.70358275
0.70391082
0.70663456
0.71142247
0.71459171
0.71646415
0.72134781
0.72854651
0.73427567
0.73978606
0.74896255
0.76412324
0.78083292
0.79747613
0.81745245
0.83931629
0.86145091
0.88331293
0.90265447
0.92557833
0.95352449
0.98091933
1.0034071
1.0284124
1.051534
1.0670401
1.0826622
1.1090744
1.1275715
1.157173
1.1820679
1.2102356
1.234696
1.2552275
1.2723152
0.45657151
0.45785738
0.46063075
0.46687469
0.47146876
0.47597215
0.47932206
0.48394015
0.4866975
0.49130307
0.49588823
0.49884335
0.50076007
0.50291808
0.50423185
0.50486039
0.50672872
0.50967272
0.51223634
0.51453956
0.51747788
0.52099968
0.52468977
0.52918125
0.53557494
0.54454045
0.55414231
0.5639579
0.57549417
0.58799605
0.60073447
0.61341065
0.62506451
0.6382662
0.65348706
0.66827937
0.68083746
0.6941591
0.70642413
0.71534635
0.72402747
0.73654743
0.74542297
0.75826009
0.76908073
0.78239956
0.79641294
0.80816779
0.81559365
0.37496166
0.37559832
0.37724292
0.38086749
0.38373534
0.38659489
0.38883559
0.39169229
0.3935437
0.39630126
0.39901807
0.40090511
0.40227973
0.40379041
0.40490996
0.40575029
0.40727201
0.40936227
0.41129743
0.41321258
0.41561557
0.41844752
0.42162625
0.42531791
0.42997508
0.43605038
0.44258113
0.44936728
0.45721455
0.46571068
0.47445234
0.48327481
0.49164196
0.50092258
0.51139644
0.52174676
0.53093558
0.54054939
0.54965246
0.55699201
0.56418595
0.57359363
0.58119694
0.59115517
0.60033046
0.61129244
0.62311099
0.63579522
0.64685135
0.33189737
0.33200919
0.33266229
0.334442
0.33584646
0.33728854
0.33844289
0.33997071
0.34100265
0.34255057
0.3441124
0.34526819
0.34618649
0.34721133
0.34806779
0.34882268
0.34999911
0.35154406
0.35307144
0.35464495
0.35644588
0.35842378
0.36072579
0.36345752
0.36680481
0.3709895
0.37548713
0.38021668
0.38561431
0.3914413
0.39748438
0.40364538
0.40963193
0.41618321
0.4234326
0.43064172
0.43725496
0.4441299
0.45074199
0.45639881
0.46200138
0.46878141
0.47455687
0.48155144
0.48805267
0.49540523
0.50305212
0.51101381
0.5181977
0.30462061
0.30472355
0.30514688
0.3062477
0.30712361
0.30802208
0.30875145
0.30970065
0.31036686
0.31133873
0.31232749
0.3130998
0.31375644
0.31449391
0.31516015
0.31580046
0.3167128
0.31786737
0.31905362
0.32032088
0.32177146
0.32336852
0.32520919
0.32735768
0.32991075
0.33300096
0.33632167
0.33983382
0.34380587
0.34809623
0.35257613
0.35718506
0.36174146
0.36669258
0.37212899
0.37760286
0.3827588
0.38811767
0.39336354
0.39805337
0.40272557
0.40819432
0.41307824
0.41881237
0.42432189
0.4305016
0.43703343
0.44397181
0.45054826
0.28709332
0.28714239
0.28739022
0.28806899
0.28861742
0.28918872
0.28966658
0.29028812
0.2907498
0.29140733
0.29208834
0.29265534
0.2931702
0.29375075
0.29430781
0.29487045
0.29561748
0.29653214
0.2974908
0.29852435
0.29968718
0.30094969
0.30238248
0.30404244
0.30598565
0.30828597
0.31075763
0.31338366
0.31633048
0.31951006
0.32284545
0.32629846
0.32975746
0.33349657
0.33756941
0.341694
0.34564983
0.34975503
0.35380893
0.35752889
0.36125164
0.36546782
0.36932031
0.37368686
0.3778971
0.38249338
0.38726519
0.39223151
0.39690629
0.27521934
0.27530646
0.2755135
0.27599801
0.27639755
0.27681323
0.27717192
0.27762546
0.27798388
0.27847203
0.27898285
0.27943368
0.27986438
0.28034833
0.28083183
0.2813346
0.28196691
0.28271871
0.28351548
0.28437785
0.2853399
0.28638127
0.28754362
0.28887037
0.2903994
0.29217398
0.29407728
0.29610266
0.29836041
0.30079556
0.3033602
0.30603072
0.30873454
0.31165054
0.3148169
0.3180492
0.32119774
0.32447035
0.32773512
0.33079741
0.33387403
0.33730633
0.34051087
0.34408919
0.34758816
0.35138789
0.35535415
0.35952331
0.36352212
0.26694289
0.26705753
0.26724795
0.2676242
0.26794597
0.2682812
0.26858274
0.2689505
0.26926213
0.26966373
0.27008738
0.27048161
0.27087251
0.27130704
0.2717516
0.27221906
0.27277914
0.27342557
0.27411148
0.27484961
0.27566123
0.27653169
0.27748562
0.27855595
0.27977096
0.28115599
0.2826355
0.28420833
0.28594878
0.28782221
0.28979931
0.29186566
0.29397399
0.29624252
0.29869714
0.3012142
0.30369274
0.30626951
0.30885481
0.31131373
0.31379064
0.31651052
0.3190795
0.32189742
0.32465747
0.32761115
0.33066423
0.33383762
0.33686768
0.26102891
0.26118283
0.26138287
0.26170849
0.2619977
0.26229796
0.26257836
0.26290651
0.26320207
0.26356215
0.26394298
0.26431219
0.264687
0.26509791
0.26552344
0.26597168
0.26648693
0.26706494
0.26767536
0.26832568
0.26902911
0.26977535
0.27057825
0.27146116
0.27244608
0.27354827
0.27471783
0.27595639
0.27731605
0.2787759
0.28031849
0.28193548
0.2835953
0.28537878
0.28730536
0.28929099
0.29126507
0.29332137
0.29539813
0.29739858
0.29942009
0.30162344
0.3037289
0.30601979
0.30827908
0.31068755
0.31318015
0.31578075
0.31828068
0.25672734
0.25691475
0.25713074
0.25743389
0.25771337
0.25800292
0.25828205
0.25859741
0.25889543
0.25924158
0.25960759
0.25997272
0.2603482
0.2607539
0.26117564
0.26161794
0.26210868
0.26264467
0.26320544
0.26379468
0.26442002
0.2650736
0.26576253
0.26650317
0.26731267
0.26819992
0.2691318
0.27011127
0.27117605
0.27231458
0.27351681
0.27477762
0.27607576
0.27746753
0.27896812
0.28052029
0.282075
0.28369723
0.28534367
0.28694427
0.288566
0.29032052
0.29200911
0.29382938
0.29562676
0.29752694
0.29948208
0.30150877
0.30344911
0.25355051
0.25377077
0.25400811
0.25430675
0.2545905
0.25488395
0.25517353
0.25549197
0.25580327
0.25615195
0.25651983
0.25689363
0.25728035
0.25769276
0.2581212
0.25856743
0.25904832
0.2595611
0.26009136
0.26063991
0.26121052
0.26179644
0.2624005
0.26303407
0.26371012
0.26443356
0.2651824
0.26596035
0.26679639
0.26768521
0.26862043
0.26959858
0.27060616
0.27168441
0.2728467
0.27405448
0.27527347
0.27654971
0.27785266
0.2791309
0.28043062
0.28183264
0.28319217
0.28465171
0.28609871
0.28762451
0.28919408
0.29082309
0.29238403
0.25118393
0.2514334
0.25169318
0.25199719
0.25229301
0.25259884
0.25290576
0.25323703
0.25356841
0.25393015
0.25431088
0.25470199
0.25510748
0.25553519
0.25597825
0.25643619
0.2569183
0.25742181
0.25793598
0.25845938
0.25899285
0.25952998
0.26007071
0.26062281
0.26119574
0.26179175
0.26239636
0.2630139
0.2636685
0.26435748
0.2650752
0.26582017
0.26658628
0.26740554
0.26829002
0.26921393
0.27015334
0.27114089
0.27215489
0.2731574
0.27418051
0.27528182
0.2763557
0.27750398
0.27864419
0.27984136
0.28106886
0.28233843
0.28354943
0.24940782
0.24968481
0.24996807
0.25028407
0.25059706
0.2509208
0.25124957
0.25160006
0.25195606
0.25233792
0.25273886
0.25315334
0.25358311
0.25403247
0.25449625
0.25497218
0.25546408
0.25596895
0.25647822
0.2569886
0.25749865
0.25800184
0.25849606
0.25898639
0.25947939
0.25997542
0.26046518
0.26095394
0.26146356
0.26198918
0.26252555
0.26307607
0.26364191
0.26424837
0.26490581
0.26559707
0.26630551
0.2670545
0.26782889
0.26860079
0.26939252
0.27024605
0.27108354
0.27197898
0.27287129
0.27380787
0.27476833
0.27576291
0.27670924
0.24807418
0.24837672
0.24868357
0.24901563
0.24934898
0.24969421
0.2500478
0.25042185
0.25080567
0.25121263
0.2516391
0.25208151
0.25253986
0.25301588
0.25350535
0.25400449
0.25451307
0.25502768
0.25554092
0.25604792
0.25654536
0.25702633
0.25748712
0.25793079
0.25836143
0.25877808
0.25917505
0.25955917
0.25995089
0.26033743
0.26071877
0.26110644
0.26150579
0.26193527
0.26240335
0.26289913
0.26341145
0.26395731
0.26452655
0.26509898
0.26569031
0.26633094
0.26696356
0.26764165
0.26831971
0.26903178
0.26976185
0.27051786
0.27123302
0.24707524
0.24740238
0.24773316
0.24808429
0.24844042
0.24880981
0.24919056
0.24959146
0.25000568
0.25044157
0.25089769
0.25137172
0.25186228
0.25236914
0.25288856
0.25341541
0.2539464
0.25447757
0.25500204
0.25551351
0.25600708
0.25647523
0.25691299
0.25732187
0.25770382
0.25805688
0.25837811
0.25867637
0.25896964
0.25923342
0.2594828
0.25973628
0.25999635
0.26027618
0.26058356
0.2609123
0.26125557
0.26162632
0.26201851
0.26241808
0.26283623
0.2632952
0.26375276
0.26424773
0.26474603
0.26527228
0.26581377
0.26637706
0.26690699
0.24633558
0.24668658
0.24704155
0.24741393
0.24779468
0.24819034
0.24860015
0.24903052
0.24947734
0.24994532
0.25043449
0.25094334
0.25146934
0.25201071
0.25256387
0.25312249
0.25368083
0.25423429
0.25477607
0.25529856
0.25579542
0.25625844
0.25668154
0.257065
0.25740894
0.2577106
0.25796932
0.25819574
0.25840209
0.2585582
0.25869826
0.2588405
0.25897915
0.25912905
0.25929637
0.2594782
0.25967192
0.2598884
0.26012507
0.2603726
0.26063896
0.26094015
0.26124523
0.26158201
0.26192493
0.26229142
0.26267122
0.26306937
0.26344056
0.24579914
0.24617383
0.24655349
0.24694902
0.24735606
0.24777987
0.24822054
0.2486827
0.24916423
0.2496671
0.25019237
0.25073897
0.25130345
0.25188271
0.25247314
0.25306728
0.25365739
0.25423813
0.25480246
0.25534156
0.25584775
0.256312
0.2567273
0.25709287
0.25740724
0.25766705
0.25787354
0.25803649
0.25815659
0.25823583
0.25828444
0.25832585
0.25835485
0.25839025
0.25843129
0.25848068
0.25854074
0.258621
0.25872114
0.25883517
0.25896857
0.25913268
0.25930511
0.25950558
0.259715
0.25994558
0.26018896
0.26044911
0.26068853
0.24542552
0.245824
0.24622898
0.24664934
0.24708422
0.24753794
0.24801121
0.24850736
0.24902567
0.24956606
0.25013028
0.25071748
0.25132337
0.25194379
0.25257487
0.25320811
0.25383403
0.25444653
0.25503808
0.25559865
0.25611935
0.25659024
0.25700343
0.25735719
0.25764876
0.25787422
0.25803623
0.25813333
0.25814149
0.25816083
0.25815979
0.25811888
0.25805549
0.25798036
0.25790323
0.25783368
0.25777543
0.25773552
0.25771488
0.25771018
0.25772522
0.25776801
0.25782282
0.25790336
0.25799548
0.25810745
0.25823239
0.25837324
0.25849906
0.24518448
0.24560718
0.24603835
0.24648516
0.24694947
0.24743488
0.24794257
0.24847489
0.24903214
0.24961264
0.2502186
0.25084923
0.25149951
0.2521643
0.25283935
0.25351517
0.25418076
0.25482914
0.25545214
0.25603857
0.25657832
0.25706051
0.25747638
0.25782336
0.25809757
0.25829461
0.25841741
0.25847309
0.25847432
0.25841531
0.25830767
0.2581672
0.25800496
0.25783045
0.25765326
0.25748026
0.2573163
0.2571678
0.25703758
0.25692487
0.25683257
0.25676631
0.25671551
0.25668942
0.25667765
0.25668558
0.25670746
0.2567454
0.25677384
0.2450539
0.24550151
0.24595987
0.24643478
0.24693017
0.24744911
0.24799313
0.24856385
0.24916228
0.24978552
0.25043606
0.25111302
0.25181071
0.2525231
0.25324546
0.25396734
0.25467631
0.25536448
0.2560229
0.25663919
0.25720207
0.25769965
0.25812232
0.2584667
0.25872797
0.25890123
0.25899029
0.25900157
0.25893944
0.25881543
0.25864107
0.25842667
0.25818326
0.25792047
0.25764879
0.25737765
0.2571141
0.25686437
0.2566327
0.25642029
0.25622937
0.25606377
0.25591688
0.25579459
0.25568942
0.25560452
0.25553503
0.25548229
0.2554253
0.24501736
0.2454908
0.24597758
0.24648228
0.24701052
0.24756493
0.24814734
0.24875877
0.24940079
0.2500695
0.25076753
0.25149383
0.25224205
0.25300536
0.25377845
0.25454988
0.25530591
0.25603765
0.25673527
0.25738518
0.25797491
0.25849157
0.25892464
0.25926995
0.2595219
0.25967511
0.25973393
0.2597051
0.25959467
0.25941266
0.259171
0.25888191
0.2585583
0.25821024
0.257849
0.25748567
0.25712882
0.25678455
0.25645833
0.25615301
0.25587044
0.25561317
0.25537775
0.25516755
0.25497736
0.25480866
0.25465731
0.25452397
0.25439149
0.24506298
0.24556339
0.24607996
0.24661626
0.24717922
0.24777118
0.24839418
0.2490488
0.24973698
0.25045402
0.25120256
0.25198136
0.2527834
0.25360105
0.25442837
0.25525292
0.2560597
0.25683875
0.25757924
0.25826637
0.25888645
0.25942554
0.2598722
0.26022149
0.26046711
0.2606032
0.26063464
0.26056845
0.26041055
0.26017219
0.25986653
0.25950677
0.25910699
0.25867772
0.25823109
0.25777979
0.25733387
0.25689962
0.25648362
0.25609019
0.25572101
0.25537775
0.25505944
0.25476758
0.25449872
0.25425308
0.25402706
0.25382072
0.2536202
0.24518231
0.24571099
0.24625894
0.24682874
0.24742847
0.2480602
0.24872617
0.2494266
0.25016369
0.25093208
0.25173435
0.25256895
0.25342825
0.25430383
0.25518903
0.2560704
0.25693166
0.25776176
0.25854876
0.2592766
0.25993037
0.26049501
0.26095815
0.26131409
0.26155584
0.26167716
0.26168332
0.26158169
0.26137854
0.26108599
0.26071821
0.26028951
0.25981526
0.25930675
0.25877705
0.25824035
0.25770811
0.25718694
0.25668449
0.25620634
0.25575418
0.25532906
0.25493204
0.2545632
0.25422048
0.25390315
0.25360805
0.25333467
0.253072
0.24536965
0.2459281
0.24650916
0.24711451
0.24775321
0.24842711
0.24913862
0.24988767
0.25067663
0.25149957
0.25235895
0.25325288
0.25417309
0.25511035
0.25605724
0.25699925
0.25791884
0.25880377
0.25964094
0.26041295
0.26110364
0.2616968
0.26217909
0.26254402
0.262784
0.26289237
0.2628748
0.26273902
0.26249172
0.26214593
0.26171693
0.26122018
0.26067238
0.26008566
0.25947415
0.25885349
0.25823647
0.25763019
0.25704331
0.25648255
0.25594973
0.25544555
0.25497268
0.25453014
0.25411702
0.2537318
0.2533717
0.25303567
0.25271518
0.24562151
0.24621141
0.2468275
0.24747061
0.24815065
0.2488693
0.24962912
0.25042979
0.25127381
0.25215472
0.25307482
0.25403181
0.25501678
0.25601969
0.25703228
0.25803893
0.25902083
0.25996447
0.2608555
0.26167515
0.26240594
0.26303049
0.26353443
0.26391046
0.26415043
0.2642473
0.26420707
0.26403789
0.26374694
0.26334824
0.26285818
0.26229344
0.26167206
0.26100719
0.26031408
0.25960978
0.25890843
0.25821771
0.25754729
0.25690493
0.2562927
0.25571107
0.25516409
0.25465
0.25416875
0.25371827
0.25329607
0.25290058
0.25252547
0.24593628
0.24655948
0.2472127
0.24789596
0.24861989
0.24938607
0.25019719
0.25105271
0.2519552
0.25289775
0.25388239
0.25490644
0.25596028
0.25703303
0.25811553
0.25919104
0.26023938
0.26124575
0.26219442
0.26306522
0.26383931
0.26449803
0.265026
0.26541508
0.26565654
0.26574301
0.2656808
0.2654785
0.26514389
0.26469198
0.26414034
0.26350693
0.26281118
0.26206737
0.26129196
0.26050345
0.25971726
0.25894181
0.25818774
0.25746382
0.25677243
0.25611399
0.25549366
0.25490911
0.25436104
0.25384691
0.25336445
0.25291162
0.25248405
0.24631395
0.24697248
0.24766513
0.24839109
0.24916169
0.2499784
0.25084405
0.25175788
0.25272253
0.25373062
0.25478393
0.25587927
0.25700636
0.2581534
0.25931029
0.26045907
0.26157819
0.26265145
0.26366168
0.26458723
0.26540781
0.26610349
0.26665779
0.26706172
0.26730598
0.26738288
0.26729904
0.2670635
0.26668474
0.26617879
0.26556448
0.26486107
0.26408946
0.26326518
0.26240599
0.26153183
0.26065946
0.25979812
0.25895943
0.25815311
0.25738195
0.25664642
0.25595263
0.25529786
0.25468339
0.25410631
0.25356456
0.25305561
0.2525769
0.24675596
0.24745203
0.24818662
0.24895804
0.2497783
0.25064879
0.25157244
0.25254833
0.25357909
0.25465693
0.25578329
0.25695448
0.25815948
0.25938556
0.26062157
0.26184831
0.26304277
0.26418727
0.26526312
0.2662471
0.26711745
0.26785287
0.26843576
0.26885623
0.26910443
0.26917237
0.26906695
0.26879774
0.26837392
0.26781266
0.26713404
0.26635873
0.26550915
0.26460218
0.263657
0.26269503
0.26173436
0.26078518
0.25986009
0.25896977
0.25811745
0.25730374
0.25653562
0.25581005
0.25512882
0.25448874
0.25388789
0.25332327
0.25279398
0.24726509
0.24800112
0.24878037
0.24960024
0.2504734
0.25140117
0.25238658
0.25342856
0.25452971
0.2556818
0.25688593
0.25813785
0.25942574
0.26073592
0.2620561
0.26336575
0.26464036
0.26586066
0.26700636
0.26805261
0.26897606
0.26975404
0.27036776
0.2708064
0.27105955
0.27111895
0.27099177
0.27068813
0.27021801
0.26959971
0.26885468
0.26800504
0.2670748
0.26608233
0.26504829
0.26399564
0.26294386
0.26190416
0.26089017
0.25991352
0.25897792
0.25808424
0.25724018
0.25644252
0.25569349
0.25498964
0.25432918
0.25370864
0.2531287
0.24784544
0.24862404
0.24945091
0.25032247
0.25125204
0.25224088
0.25329213
0.25440454
0.25558068
0.25681189
0.25809887
0.25943676
0.2608129
0.26221257
0.26362229
0.26502012
0.26637996
0.26768086
0.26890084
0.27001333
0.27099335
0.27181675
0.27246353
0.27292192
0.27318093
0.27323204
0.2730827
0.27274361
0.27222561
0.27154819
0.2707342
0.26980733
0.26879322
0.26771184
0.26658546
0.26543862
0.26429227
0.2631587
0.26205264
0.26098663
0.25996499
0.25898884
0.25806659
0.25719491
0.25637637
0.25560735
0.25488615
0.25420882
0.25357758
0.24850242
0.24932645
0.25020417
0.25113092
0.25212071
0.25317473
0.25429622
0.25548378
0.2567399
0.25805548
0.25943076
0.26086024
0.26233038
0.26382532
0.26533032
0.26682194
0.26827239
0.26965896
0.27095787
0.27214074
0.27318089
0.27405266
0.27473475
0.27521445
0.27548012
0.27552306
0.27535099
0.27497518
0.27440744
0.27366847
0.27278258
0.27177508
0.27067339
0.26949917
0.26827638
0.26703125
0.26578624
0.26455483
0.26335287
0.26219388
0.26108276
0.26002103
0.25901771
0.25806942
0.25717909
0.25634288
0.25555923
0.25482366
0.25413992
0.24924283
0.25011541
0.25104748
0.25203325
0.25308739
0.25421106
0.25540758
0.2566754
0.25801689
0.25942251
0.260892
0.26241915
0.26398945
0.26558587
0.26719228
0.26878367
0.27033043
0.27180802
0.27319074
0.27444832
0.27555232
0.27647547
0.27719516
0.27769768
0.27797078
0.27800555
0.27780998
0.277396
0.27677637
0.27597308
0.27501196
0.27392004
0.27272658
0.27145506
0.27013126
0.26878317
0.26743482
0.26610101
0.26479872
0.26354248
0.26233787
0.26118681
0.26009894
0.25907088
0.25810586
0.25719992
0.25635155
0.25555575
0.25481786
0.25007498
0.25099951
0.25198979
0.25303873
0.25416174
0.25535991
0.25663667
0.25799029
0.25942302
0.26092483
0.26249492
0.26412628
0.26580339
0.26750795
0.26922235
0.27091986
0.27256902
0.27414328
0.27561494
0.27695176
0.27812345
0.27910109
0.27986071
0.28038757
0.28066879
0.2806953
0.28047533
0.2800215
0.27934759
0.27847692
0.2774369
0.27625633
0.27496646
0.2735927
0.27216277
0.27070649
0.26924958
0.2678082
0.26640055
0.26504222
0.26373949
0.26249475
0.26131825
0.26020666
0.2591635
0.25818467
0.25726877
0.25641022
0.25561599
0.25100889
0.25198908
0.25304177
0.25415843
0.25535525
0.25663323
0.25799591
0.25944138
0.26097173
0.2625764
0.26425399
0.26599666
0.26778776
0.26960762
0.27143704
0.27324749
0.27500548
0.27668239
0.2782484
0.27966919
0.28091256
0.28194789
0.28274981
0.28330253
0.28359251
0.28361056
0.28336517
0.28286966
0.28213886
0.28119746
0.28007449
0.27880069
0.27740933
0.27592794
0.27438624
0.27281605
0.2712448
0.2696901
0.26817149
0.2667056
0.2652995
0.26395612
0.26268632
0.26148684
0.26036152
0.25930612
0.25831935
0.25739503
0.25654186
0.2520565
0.25309642
0.25421616
0.25540553
0.25668155
0.25804516
0.25949999
0.2610439
0.26267881
0.26439361
0.26618622
0.26804787
0.26996071
0.27190358
0.27385558
0.27578623
0.27765991
0.27944578
0.2811118
0.28262152
0.28394071
0.28503701
0.28588365
0.28646373
0.28676309
0.28677242
0.28650044
0.28596125
0.28517075
0.28415499
0.28294476
0.28157274
0.28007444
0.27847956
0.27682002
0.27512966
0.27343774
0.27176343
0.27012761
0.26854808
0.26703273
0.26558509
0.26421666
0.26292431
0.26171217
0.26057591
0.25951434
0.25852063
0.25760538
0.25323201
0.25433616
0.25552804
0.25679563
0.2581568
0.25961243
0.26116621
0.2628158
0.26456288
0.26639573
0.26831152
0.27030047
0.27234343
0.27441761
0.2765003
0.2785589
0.28055555
0.28245705
0.28422904
0.28583281
0.2872321
0.28839276
0.28928655
0.28989551
0.29020482
0.29020508
0.28990528
0.28932027
0.28846706
0.2873731
0.28607095
0.28459542
0.28298433
0.28126974
0.27948582
0.27766853
0.27584908
0.27404823
0.27228833
0.27058838
0.2689572
0.267399
0.26592592
0.26453503
0.26323078
0.26200876
0.26086791
0.25980068
0.25881976
0.25455231
0.25572566
0.25699535
0.25834722
0.25980012
0.2613548
0.26301505
0.26477825
0.26664583
0.26860539
0.27065327
0.27277857
0.2749607
0.27717515
0.2793972
0.28159204
0.28371937
0.28574353
0.2876277
0.28933086
0.29081465
0.2920431
0.2929865
0.29362583
0.29394563
0.29393642
0.29360745
0.29297438
0.2920553
0.29087907
0.28948011
0.28789549
0.28616545
0.28432453
0.28240926
0.2804578
0.27850334
0.27656837
0.27467678
0.27284889
0.27109451
0.26941862
0.26783408
0.26633821
0.26493579
0.26362236
0.262397
0.26125139
0.26020056
0.25603746
0.25728555
0.25863934
0.26008225
0.26163418
0.26329573
0.26507074
0.26695632
0.26895356
0.27104931
0.273239
0.27551047
0.27784159
0.28020595
0.28257667
0.28491655
0.28718272
0.2893369
0.29133972
0.29314777
0.29472054
0.29602024
0.29701572
0.29768687
0.29801766
0.29799852
0.29763899
0.29695554
0.29596729
0.29470455
0.29320369
0.29150415
0.28964875
0.28767456
0.28562054
0.28352712
0.28142953
0.2793521
0.27732039
0.27535614
0.27347029
0.27166869
0.269965
0.26835684
0.2668494
0.26543817
0.26412242
0.262893
0.26176751
0.25771135
0.25904037
0.26048534
0.26202685
0.26368596
0.26546308
0.2673621
0.26937976
0.27151678
0.27375917
0.2761013
0.27852966
0.28102038
0.28354501
0.28607433
0.2885686
0.2909822
0.29327409
0.29540223
0.29732078
0.29898704
0.30036145
0.30141142
0.30211581
0.30245802
0.30242846
0.30203693
0.30130071
0.30023994
0.29888635
0.29727836
0.29545792
0.29347054
0.29135584
0.28915525
0.28691145
0.28466186
0.28243276
0.28025153
0.27814148
0.27611484
0.27417847
0.27234691
0.27061816
0.26899786
0.26748146
0.26606848
0.26474882
0.26354305
0.25960246
0.26101941
0.26256356
0.2642122
0.26598766
0.26789012
0.26992348
0.27208406
0.27437211
0.27677265
0.27927892
0.28187583
0.28453766
0.2872337
0.28993222
0.29259072
0.29516072
0.29759826
0.29985855
0.30189323
0.30365747
0.30510995
0.30621673
0.30695567
0.30730968
0.30726917
0.3068442
0.30605286
0.30491619
0.30346737
0.30174699
0.29979966
0.29767354
0.29541083
0.29305534
0.29065208
0.28824073
0.28584973
0.28350847
0.28124206
0.27906419
0.27698288
0.27501364
0.27315498
0.27141302
0.26978324
0.26826544
0.26684846
0.26555627
0.26174491
0.26325775
0.26491017
0.26667565
0.26857787
0.27061674
0.27279609
0.27511175
0.27756339
0.28013492
0.28281821
0.28559647
0.28844186
0.29132124
0.29420017
0.29703325
0.29976892
0.30236021
0.30475949
0.30691588
0.30878243
0.31031616
0.31148187
0.31225656
0.31262266
0.31257064
0.31211083
0.31126207
0.31004622
0.30849789
0.30666
0.30457985
0.30230824
0.29988973
0.29737047
0.29479787
0.29221401
0.28964976
0.28713681
0.28470228
0.28236153
0.28012389
0.27800599
0.2760069
0.27413328
0.27238068
0.27074921
0.26922654
0.26784058
0.26417976
0.26579763
0.2675688
0.26946221
0.27150312
0.273691
0.27602961
0.27851413
0.28114351
0.28390036
0.28677499
0.28974862
0.2927911
0.2958666
0.29893777
0.3019561
0.30486689
0.30762004
0.31016502
0.31244843
0.31442131
0.31603914
0.31726564
0.31807701
0.31845538
0.3183913
0.31789535
0.31698708
0.31568895
0.31403711
0.31207692
0.30985833
0.30743451
0.30485217
0.30215969
0.29940697
0.29663884
0.29388889
0.29119143
0.28857586
0.28605943
0.28365295
0.28137429
0.27922317
0.27720691
0.27532114
0.2735664
0.27192901
0.27044154
0.26695703
0.26869049
0.27059251
0.27262671
0.27482002
0.27717142
0.27968447
0.28235356
0.28517674
0.28813506
0.29121697
0.29440146
0.29765572
0.30094096
0.30421671
0.30743123
0.31052654
0.3134494
0.31614637
0.31856162
0.32064428
0.32234853
0.3236372
0.32448591
0.32487657
0.32479989
0.3242667
0.3232971
0.32191405
0.32015522
0.31806853
0.31570638
0.31312382
0.31036938
0.30749364
0.30454926
0.30158418
0.29863513
0.29573937
0.29292883
0.29022284
0.28763386
0.2851811
0.28286503
0.28069371
0.27866286
0.27677354
0.27501058
0.27341206
0.27013851
0.27199986
0.27404687
0.27623677
0.2785984
0.28113009
0.28383506
0.28670674
0.28974198
0.29292003
0.2962271
0.29963955
0.30312154
0.30663101
0.3101241
0.31354569
0.31683456
0.31993433
0.3227888
0.32533981
0.32753483
0.32932699
0.33067855
0.33156477
0.33196752
0.33187776
0.33130653
0.33027433
0.32880434
0.32693593
0.32471955
0.32220951
0.31946205
0.31652714
0.31345773
0.31030964
0.30713439
0.30397227
0.30086375
0.29784353
0.2949332
0.29214702
0.28950572
0.28701064
0.28467072
0.28248191
0.28044595
0.27854591
0.27682658
0.27380216
0.2758058
0.27801439
0.28037744
0.28292596
0.28565738
0.28857446
0.29166939
0.29493755
0.29835596
0.30190818
0.30556743
0.30929441
0.31304335
0.31676671
0.32040588
0.32389644
0.32717913
0.33019519
0.33288446
0.335193
0.33707333
0.33848752
0.33941076
0.33982512
0.33972189
0.33911228
0.33801698
0.33645914
0.33447996
0.33213219
0.32947109
0.32655322
0.32342979
0.32015645
0.31679274
0.31339422
0.31000501
0.30666902
0.30342385
0.30029349
0.29729421
0.2944484
0.29175846
0.28923432
0.28687227
0.28467489
0.28262327
0.28077043
0.27804848
0.28021142
0.28260124
0.28515799
0.28791512
0.29086893
0.29402145
0.29736335
0.30088811
0.30457006
0.30838959
0.3123162
0.31630654
0.32031064
0.3242769
0.32814315
0.33184191
0.33531143
0.33849092
0.34131865
0.34373979
0.3457067
0.3471818
0.34814062
0.3485657
0.3484488
0.34780119
0.34664347
0.3449985
0.34290947
0.34043077
0.33761721
0.33452472
0.33120584
0.32771952
0.32412951
0.32049565
0.316866
0.31328795
0.30980213
0.30643521
0.30320569
0.30013796
0.29723574
0.29451032
0.29195848
0.28958405
0.28736573
0.28536669
0.28300987
0.28535242
0.28794703
0.29072188
0.29371329
0.29691598
0.300331
0.30394699
0.30775509
0.31172633
0.31583728
0.32005307
0.32432565
0.32860029
0.33282092
0.33692165
0.34083228
0.34448916
0.34783029
0.35079321
0.35332282
0.35537203
0.35690424
0.35789587
0.35833021
0.35819967
0.35751548
0.3562978
0.3545689
0.35237404
0.34976803
0.34680331
0.34353446
0.3400159
0.33631044
0.33248623
0.32860719
0.32472515
0.320891
0.31714859
0.31352755
0.31004904
0.30673977
0.30360515
0.30065804
0.29789593
0.29532418
0.29291874
0.29075565
0.28886443
0.29141125
0.29423931
0.29726171
0.30051807
0.30400096
0.30770997
0.31163112
0.31575246
0.32004105
0.32446881
0.3289958
0.33356863
0.33812724
0.34261072
0.34694941
0.35107077
0.35491013
0.35840554
0.36149501
0.36412422
0.36624747
0.36783
0.36884969
0.36929108
0.36914734
0.36842954
0.36715693
0.36535093
0.36305884
0.36033372
0.35722344
0.35378118
0.35006395
0.34613863
0.34207715
0.33794687
0.33380303
0.32970003
0.3256853
0.32179201
0.3180446
0.31447274
0.31108405
0.30789353
0.30489974
0.30211021
0.29949749
0.29715372
0.2958571
0.29863878
0.30173593
0.3050421
0.30860073
0.31240135
0.31644138
0.32070328
0.32517104
0.32980668
0.3345766
0.33943491
0.34432235
0.34917322
0.35392167
0.35849445
0.36281725
0.3668256
0.37045922
0.37365849
0.37637129
0.37855449
0.38017616
0.38121642
0.38166151
0.38150561
0.38075939
0.37944076
0.37756993
0.37519585
0.3723666
0.36912353
0.36551912
0.36161351
0.35747665
0.35318272
0.34880136
0.3443908
0.34000917
0.33570804
0.33152484
0.32748803
0.3236308
0.31996349
0.31650361
0.31325104
0.31021602
0.30736698
0.30481751
0.30433501
0.3073905
0.31080229
0.31443784
0.31834512
0.32250921
0.3269242
0.33156758
0.33641776
0.34143031
0.3465648
0.35176859
0.35697622
0.36211657
0.36711945
0.37190888
0.37640992
0.38055976
0.38430201
0.38758185
0.39035147
0.39257185
0.39421507
0.39526435
0.39570823
0.39554211
0.39477602
0.39342592
0.39151059
0.38907954
0.38617154
0.38282049
0.37907954
0.37501105
0.37068545
0.36617671
0.36155528
0.3568821
0.35221927
0.34762323
0.34313658
0.33879281
0.33462955
0.33066087
0.32690776
0.3233719
0.32006772
0.31695737
0.31418263
0.31481253
0.31819324
0.32197981
0.32600399
0.33031892
0.33490297
0.33974499
0.3448152
0.35008418
0.35549911
0.36101116
0.36656019
0.37207476
0.37747959
0.3827021
0.38766593
0.39229773
0.3965385
0.40033831
0.40365027
0.4064336
0.40865539
0.41029307
0.41133393
0.41176941
0.41159636
0.41082381
0.4094653
0.40753775
0.40508931
0.40214438
0.39873043
0.39490219
0.39072073
0.38625281
0.38156898
0.37673898
0.37182589
0.36689576
0.3620103
0.35721801
0.35255831
0.34807406
0.34378415
0.3397128
0.33586462
0.33225784
0.32884632
0.32581427
0.32810772
0.33188526
0.33612963
0.34062196
0.34542064
0.3504935
0.35582068
0.36136172
0.36707621
0.37290071
0.37877679
0.38463692
0.39040531
0.39600561
0.40136707
0.40641771
0.41109014
0.41533248
0.41910417
0.42236965
0.42509848
0.42726624
0.42885715
0.42986344
0.43028001
0.43010537
0.42934711
0.42801601
0.42612639
0.42372232
0.42080888
0.41741084
0.41358263
0.40937765
0.40485406
0.40007539
0.39510871
0.3900174
0.38487052
0.37973446
0.37466419
0.36970593
0.36491039
0.36030241
0.35591032