/*--------------------------------*- C++ -*----------------------------------*\
| =========                 |                                                 |
| \\      /  F ield         | OpenFOAM: The Open Source CFD Toolbox           |
|  \\    /   O peration     | Version:  v2006                                 |
|   \\  /    A nd           | Website:  www.openfoam.com                      |
|    \\/     M anipulation  |                                                 |
\*---------------------------------------------------------------------------*/
FoamFile
{
    version     2.0;
    format      ascii;
    class       volScalarField;
    location    "2500";
    object      p;
}
// * * * * * * * * * * * * * * * * * * * * * * * * * * * * * * * * * * * * * //

dimensions      [1 -1 -2 0 0 0 0];


internalField   nonuniform List<scalar> 
19765
(
1.0007974
1.0010974
1.0019034
1.0024661
1.0030234
1.0034421
1.0039351
1.0042212
1.0045863
1.004883
1.005089
1.0052461
1.0053695
1.0054323
1.0054479
1.0054278
1.0053744
1.005287
1.0051645
1.0050058
1.0048057
1.0045666
1.0043098
1.0040091
1.0036445
1.0032657
1.0029406
1.002571
1.0021081
1.0016909
1.0012556
1.00073
1.0001371
0.99935616
0.99872678
0.9982822
0.99771234
0.9968508
0.99625329
0.99558927
0.99449949
0.99356265
0.99341414
0.99258486
0.99261993
0.9923576
0.99259347
0.99295703
0.99342006
1.0018031
1.0019565
1.002153
1.0023886
1.0026384
1.0028789
1.0031306
1.0033421
1.0035634
1.0037825
1.0039677
1.0041213
1.0042628
1.004362
1.0044176
1.0044557
1.0044674
1.0044391
1.0043798
1.0042841
1.0041531
1.0039947
1.0037996
1.0035697
1.0033135
1.0030329
1.002717
1.0023718
1.0020028
1.0016066
1.0011867
1.0007479
1.0002931
0.99983624
0.99938411
0.99892808
0.99846128
0.99800042
0.99757436
0.99717467
0.99682204
0.99653184
0.99625344
0.99601588
0.99584692
0.9957027
0.99559293
0.99549266
0.99539195
1.0017622
1.0019552
1.0021731
1.0023895
1.0026038
1.0028048
1.0030021
1.0031709
1.0033377
1.003493
1.0036304
1.0037501
1.0038567
1.0039372
1.0039888
1.0040212
1.0040326
1.0040143
1.0039649
1.0038832
1.003769
1.0036246
1.0034484
1.0032399
1.0030043
1.0027444
1.0024547
1.0021373
1.0017978
1.0014343
1.0010514
1.0006558
1.0002539
0.99985172
0.99944199
0.9990277
0.99862146
0.99822574
0.99783859
0.99747375
0.99713492
0.99680378
0.99648863
0.99619979
0.99593685
0.99572509
0.99553775
0.99537811
0.99523062
1.0019408
1.0020667
1.0021981
1.0023374
1.0024801
1.0026221
1.0027648
1.0028951
1.003026
1.0031532
1.0032671
1.0033674
1.003458
1.0035281
1.0035737
1.0036044
1.0036191
1.0036083
1.0035701
1.003503
1.0034083
1.0032908
1.003147
1.0029741
1.002777
1.0025595
1.0023167
1.002049
1.0017623
1.0014565
1.0011353
1.000805
1.0004703
1.0001369
0.99979853
0.99945851
0.99912865
0.99881296
0.99850528
0.99821922
0.9979592
0.99770569
0.99745466
0.99722958
0.99700682
0.99680169
0.99659234
0.99638712
0.99618695
1.0018573
1.0019711
1.0020872
1.0022019
1.0023146
1.0024233
1.0025311
1.0026288
1.0027265
1.002822
1.0029081
1.0029841
1.0030528
1.0031065
1.003141
1.0031629
1.0031724
1.0031613
1.0031267
1.003067
1.0029811
1.0028724
1.0027387
1.0025773
1.0023931
1.0021904
1.0019658
1.0017185
1.0014541
1.0011741
1.0008811
1.0005802
1.000275
0.9999707
0.99966522
0.99936058
0.99906352
0.99877705
0.99849799
0.99823356
0.99798444
0.99773944
0.99749627
0.99726749
0.99703774
0.99681749
0.99659936
0.99638816
0.99618319
1.0018312
1.0019134
1.001999
1.0020842
1.002169
1.0022514
1.0023345
1.00241
1.0024865
1.0025616
1.0026293
1.0026889
1.0027425
1.0027839
1.0028094
1.0028242
1.0028278
1.0028137
1.0027793
1.0027231
1.0026441
1.0025457
1.0024261
1.0022823
1.0021183
1.0019375
1.0017376
1.0015181
1.0012839
1.0010366
1.0007786
1.0005143
1.0002469
0.99998096
0.99971502
0.99945085
0.99919376
0.99894616
0.99870595
0.99847819
0.99826337
0.99805297
0.99784584
0.99764811
0.99745022
0.99725686
0.99706128
0.99686406
0.99666843
1.0017417
1.0018113
1.0018832
1.0019528
1.0020208
1.002086
1.0021514
1.0022104
1.0022701
1.0023286
1.0023813
1.0024272
1.0024681
1.002499
1.0025167
1.002525
1.0025236
1.0025067
1.0024721
1.0024181
1.0023439
1.0022517
1.0021398
1.002006
1.0018534
1.0016852
1.0014996
1.0012963
1.0010796
1.0008511
1.000613
1.0003691
1.0001219
0.99987566
0.99962963
0.99938536
0.9991467
0.99891567
0.99869078
0.99847548
0.99826971
0.99806773
0.99786786
0.99767438
0.99748012
0.99728829
0.997094
0.99689847
0.9967019
1.0016714
1.0017255
1.0017823
1.0018373
1.0018912
1.0019426
1.0019945
1.0020411
1.0020883
1.0021345
1.0021755
1.0022108
1.0022417
1.002264
1.0022749
1.0022774
1.0022711
1.002251
1.0022153
1.0021625
1.0020917
1.0020046
1.0018999
1.0017759
1.0016348
1.0014795
1.0013086
1.0011221
1.0009237
1.000715
1.000498
1.0002761
1.0000516
0.99982812
0.99960536
0.99938464
0.99916917
0.99896068
0.99875802
0.99856398
0.99837865
0.99819724
0.99801852
0.99784538
0.99767218
0.997501
0.99732756
0.99715239
0.99697568
1.0015849
1.0016298
1.0016771
1.0017223
1.0017662
1.0018078
1.0018496
1.0018867
1.0019243
1.0019608
1.0019928
1.0020197
1.0020427
1.002058
1.0020635
1.0020613
1.002051
1.0020284
1.0019918
1.0019398
1.0018716
1.0017884
1.0016891
1.0015722
1.0014397
1.0012939
1.0011338
1.0009596
1.0007744
1.0005798
1.0003776
1.0001707
0.99996119
0.99975225
0.99954383
0.99933712
0.99913473
0.99893823
0.99874671
0.99856239
0.99838524
0.99821175
0.99804052
0.99787394
0.99770732
0.99754222
0.99737517
0.99720642
0.99703573
1.001508
1.001544
1.0015824
1.001619
1.0016545
1.001688
1.0017216
1.0017512
1.001781
1.0018097
1.0018344
1.0018545
1.0018709
1.0018805
1.0018812
1.001875
1.0018612
1.0018363
1.0017987
1.0017472
1.001681
1.001601
1.0015063
1.0013958
1.0012709
1.0011338
1.0009836
1.0008206
1.0006477
1.0004663
1.0002781
1.0000857
0.999891
0.99969694
0.99950355
0.99931197
0.99912448
0.99894252
0.99876537
0.99859494
0.99843134
0.99827156
0.99811441
0.9979619
0.99780994
0.99765982
0.99750838
0.99735577
0.99720182
1.0014286
1.0014584
1.0014903
1.0015205
1.0015497
1.0015769
1.0016042
1.0016278
1.0016515
1.0016741
1.0016929
1.0017075
1.0017186
1.0017235
1.0017204
1.0017109
1.0016943
1.0016675
1.0016291
1.001578
1.0015135
1.0014362
1.0013454
1.0012402
1.0011216
1.0009916
1.0008496
1.0006959
1.0005331
1.0003623
1.0001853
1.0000044
0.99982128
0.99963849
0.99945622
0.99927553
0.9990984
0.99892615
0.99875818
0.99859615
0.99844019
0.9982879
0.99813808
0.99799263
0.99784789
0.99770503
0.99756129
0.99741674
0.9972709
1.0013556
1.0013798
1.001406
1.0014306
1.0014544
1.0014764
1.0014984
1.0015171
1.0015357
1.0015531
1.0015671
1.0015771
1.0015838
1.0015848
1.0015785
1.0015662
1.0015471
1.0015187
1.0014796
1.0014288
1.0013658
1.001291
1.0012035
1.0011029
1.0009899
1.0008663
1.0007316
1.0005862
1.0004324
1.0002713
1.0001045
0.99993418
0.99976179
0.99958974
0.99941826
0.99924838
0.99908191
0.99892009
0.99876243
0.99861045
0.99846434
0.99832206
0.99818249
0.99804744
0.99791354
0.99778193
0.99765005
0.99751796
0.9973853
1.0012845
1.0013044
1.0013261
1.0013464
1.0013658
1.0013837
1.0014014
1.001416
1.0014305
1.0014437
1.0014537
1.00146
1.001463
1.0014607
1.0014518
1.0014371
1.0014161
1.0013863
1.0013467
1.0012964
1.0012346
1.0011619
1.0010775
1.0009809
1.0008729
1.0007548
1.0006265
1.0004884
1.0003424
1.0001898
1.0000318
0.9998705
0.99970727
0.99954429
0.99938181
0.99922081
0.99906293
0.99890933
0.99875958
0.99861506
0.998476
0.99834068
0.99820803
0.99807984
0.997953
0.99782862
0.99770439
0.99758039
0.99745608
1.0012184
1.0012345
1.0012523
1.0012688
1.0012845
1.0012988
1.0013128
1.0013242
1.0013351
1.0013447
1.0013514
1.0013545
1.0013544
1.0013494
1.0013382
1.0013216
1.0012989
1.0012681
1.0012281
1.0011781
1.0011176
1.0010468
1.0009651
1.0008721
1.0007686
1.0006556
1.0005331
1.0004014
1.0002626
1.0001175
0.99996754
0.99981451
0.99965972
0.99950516
0.99935114
0.99919861
0.99904909
0.99890369
0.99876205
0.99862546
0.9984942
0.99836677
0.99824221
0.99812222
0.99800392
0.99788842
0.99777355
0.99765945
0.99754561
1.0011553
1.0011684
1.001183
1.0011964
1.0012091
1.0012204
1.0012314
1.0012399
1.0012479
1.0012545
1.0012583
1.0012588
1.0012561
1.0012489
1.0012358
1.0012175
1.0011935
1.0011618
1.0011216
1.001072
1.0010126
1.0009436
1.0008644
1.0007747
1.0006752
1.0005668
1.0004495
1.0003238
1.0001913
1.0000531
0.99991032
0.99976472
0.99961749
0.99947048
0.999324
0.99917896
0.99903679
0.99889852
0.99876382
0.99863392
0.99850908
0.99838804
0.99826988
0.99815628
0.99804454
0.99793578
0.997828
0.99772138
0.99761532
1.0010963
1.0011067
1.0011185
1.0011293
1.0011394
1.0011481
1.0011565
1.0011626
1.0011681
1.0011722
1.0011735
1.0011717
1.0011669
1.0011577
1.001143
1.0011234
1.0010982
1.0010659
1.0010255
1.0009764
1.0009181
1.0008508
1.000774
1.0006873
1.0005914
1.0004872
1.0003747
1.0002544
1.0001278
0.99999585
0.9998597
0.99972094
0.99958071
0.99944071
0.99930128
0.99916332
0.99902815
0.99889675
0.99876887
0.99864564
0.99852738
0.99841296
0.99830154
0.99819475
0.99809009
0.99798862
0.9978885
0.99778995
0.99769237
1.0010404
1.0010487
1.0010582
1.0010667
1.0010745
1.0010811
1.0010873
1.0010913
1.0010946
1.0010966
1.0010959
1.0010921
1.0010854
1.0010746
1.0010586
1.0010378
1.0010118
1.0009789
1.0009385
1.00089
1.0008327
1.000767
1.0006924
1.0006085
1.0005161
1.0004157
1.0003077
1.0001923
1.0000711
0.99994494
0.99981489
0.99968243
0.99954865
0.99941513
0.9992822
0.99915074
0.999022
0.99889689
0.9987752
0.99865799
0.99854557
0.99843697
0.9983314
0.99823044
0.99813174
0.99803637
0.99794262
0.99785071
0.99776004
1.000988
1.0009944
1.0010019
1.0010084
1.0010144
1.0010191
1.0010233
1.0010255
1.001027
1.001027
1.0010245
1.0010191
1.0010109
1.0009986
1.0009815
1.0009598
1.0009331
1.0008998
1.0008595
1.0008115
1.0007553
1.0006912
1.0006186
1.0005374
1.0004481
1.0003514
1.0002475
1.0001367
1.0000206
0.99989975
0.99977536
0.99964879
0.99952103
0.99939357
0.99926676
0.99914145
0.99901881
0.99889972
0.99878398
0.99867263
0.99856595
0.99846311
0.99836338
0.99826828
0.99817561
0.99808641
0.99799908
0.99791388
0.99783018
1.0009386
1.0009434
1.0009491
1.000954
1.0009582
1.0009613
1.0009639
1.0009646
1.0009645
1.0009629
1.0009588
1.000952
1.0009424
1.0009289
1.0009109
1.0008885
1.0008611
1.0008277
1.0007875
1.0007401
1.0006849
1.0006223
1.0005517
1.000473
1.0003867
1.0002934
1.0001933
1.000087
0.99997548
0.99985967
0.99974059
0.99961951
0.99949739
0.99937562
0.99925455
0.999135
0.99901809
0.99890463
0.99879447
0.99868855
0.99858719
0.99848964
0.99839521
0.99830538
0.99821807
0.99813429
0.99805257
0.99797318
0.99789547
1.0008921
1.0008955
1.0008997
1.0009031
1.0009059
1.0009076
1.0009087
1.000908
1.0009065
1.0009035
1.0008981
1.0008901
1.0008793
1.0008649
1.000846
1.000823
1.0007952
1.0007616
1.0007217
1.0006749
1.0006208
1.0005596
1.0004909
1.0004146
1.0003311
1.0002411
1.0001447
1.0000423
0.99993529
0.9998242
0.9997101
0.9995942
0.9994774
0.999361
0.99924536
0.99913129
0.99901982
0.99891173
0.9988069
0.99870622
0.99861
0.99851756
0.9984283
0.99834359
0.99826152
0.99818304
0.99810679
0.99803303
0.99796114
1.0008482
1.0008504
1.0008533
1.0008554
1.000857
1.0008574
1.0008573
1.0008554
1.0008527
1.0008484
1.0008419
1.0008328
1.000821
1.0008058
1.0007863
1.0007628
1.0007347
1.0007011
1.0006614
1.0006153
1.0005622
1.0005025
1.0004356
1.0003615
1.0002808
1.0001938
1.0001008
1.0000024
0.9998995
0.99979288
0.99968349
0.99957247
0.9994607
0.99934939
0.9992389
0.99913001
0.9990237
0.99892071
0.99882092
0.99872518
0.99863379
0.99854614
0.99846168
0.99838169
0.99830441
0.99823073
0.99815939
0.99809066
0.99802389
1.0008067
1.0008079
1.0008097
1.0008107
1.0008111
1.0008105
1.0008093
1.0008064
1.0008025
1.0007972
1.0007897
1.0007797
1.0007671
1.0007511
1.0007311
1.0007072
1.0006789
1.0006454
1.0006061
1.0005606
1.0005086
1.0004503
1.0003852
1.0003133
1.0002352
1.0001511
1.0000614
0.99996663
0.9998677
0.9997653
0.99966038
0.999554
0.999447
0.99934052
0.99923493
0.99913097
0.99902959
0.99893145
0.99883648
0.99874547
0.99865871
0.99857565
0.9984958
0.99842035
0.99834766
0.99827858
0.99821193
0.99814798
0.99808609
1.0007675
1.0007678
1.0007686
1.0007687
1.0007681
1.0007666
1.0007644
1.0007605
1.0007558
1.0007495
1.0007412
1.0007304
1.0007171
1.0007005
1.0006801
1.0006559
1.0006275
1.0005941
1.0005552
1.0005104
1.0004595
1.0004025
1.0003392
1.0002694
1.0001937
1.0001125
1.000026
0.99993466
0.99983949
0.99974112
0.99964044
0.99953847
0.999436
0.99933413
0.9992332
0.99913394
0.99903724
0.99894372
0.99885334
0.99876683
0.99868445
0.99860573
0.9985302
0.99845899
0.99839055
0.9983257
0.99826333
0.99820372
0.99814621
1.0007304
1.0007299
1.0007299
1.0007291
1.0007277
1.0007253
1.0007222
1.0007176
1.0007121
1.000705
1.0006959
1.0006844
1.0006705
1.0006535
1.0006328
1.0006084
1.00058
1.0005467
1.0005083
1.0004643
1.0004144
1.0003588
1.0002971
1.0002295
1.0001562
1.0000776
0.99999409
0.99990611
0.99981454
0.99972
0.99962336
0.99952559
0.99942746
0.99932996
0.99923348
0.99913871
0.99904647
0.99895737
0.99887137
0.99878915
0.99871097
0.99863639
0.99856499
0.9984978
0.99843342
0.99837258
0.99831426
0.99825873
0.99820534
1.0006953
1.0006941
1.0006932
1.0006917
1.0006896
1.0006865
1.0006827
1.0006774
1.0006711
1.0006634
1.0006536
1.0006416
1.0006272
1.0006097
1.0005888
1.0005643
1.0005359
1.000503
1.000465
1.0004218
1.000373
1.0003187
1.0002587
1.000193
1.000122
1.0000461
0.99996546
0.99988067
0.99979254
0.99970166
0.99960889
0.99951513
0.99942112
0.99932781
0.99923558
0.99914508
0.99905711
0.99897222
0.99889039
0.99881226
0.99873805
0.99866739
0.99859988
0.99853648
0.99847588
0.99841877
0.99836418
0.99831239
0.99826274
1.0006618
1.00066
1.0006586
1.0006564
1.0006536
1.0006499
1.0006454
1.0006395
1.0006326
1.0006243
1.000614
1.0006015
1.0005867
1.000569
1.0005479
1.0005234
1.0004951
1.0004625
1.0004251
1.0003826
1.0003349
1.0002819
1.0002236
1.0001598
1.0000911
1.0000176
0.99993978
0.99985806
0.99977322
0.99968585
0.99959677
0.99950684
0.99941677
0.99932746
0.99923928
0.99915288
0.99906897
0.9989881
0.99891025
0.99883601
0.9987656
0.99869867
0.99863487
0.99857506
0.99851804
0.99846444
0.99841337
0.99836509
0.99831894
1.00063
1.0006277
1.0006257
1.0006229
1.0006196
1.0006153
1.0006103
1.0006039
1.0005965
1.0005876
1.0005769
1.000564
1.0005489
1.0005309
1.0005097
1.0004853
1.0004572
1.0004249
1.0003881
1.0003464
1.0002998
1.0002482
1.0001914
1.0001296
1.000063
0.99999195
0.9999168
0.99983802
0.99975633
0.99967233
0.99958679
0.99950052
0.99941421
0.99932873
0.99924442
0.99916191
0.99908189
0.99900485
0.9989308
0.99886027
0.99879347
0.99873007
0.99866977
0.99861334
0.99855967
0.99850935
0.99846154
0.99841648
0.99837354
1.0005997
1.0005969
1.0005944
1.0005911
1.0005873
1.0005826
1.0005771
1.0005702
1.0005624
1.0005531
1.000542
1.0005288
1.0005134
1.0004953
1.0004742
1.0004498
1.0004219
1.00039
1.0003538
1.000313
1.0002675
1.0002172
1.000162
1.000102
1.0000375
0.99996883
0.99989627
0.99982032
0.99974168
0.9996609
0.99957874
0.99949597
0.99941327
0.99933144
0.99925083
0.99917204
0.99909573
0.99902234
0.9989519
0.9988849
0.99882153
0.9987615
0.99870451
0.99865128
0.99860078
0.99855354
0.99850879
0.99846676
0.99842681
1.0005706
1.0005675
1.0005646
1.0005609
1.0005567
1.0005515
1.0005456
1.0005384
1.0005302
1.0005206
1.0005092
1.0004958
1.0004802
1.000462
1.0004409
1.0004167
1.0003891
1.0003577
1.0003221
1.0002822
1.0002377
1.0001887
1.0001351
1.0000769
1.0000144
0.99994803
0.99987798
0.99980477
0.99972905
0.99965136
0.99957244
0.99949303
0.99941378
0.99933543
0.99925836
0.99918312
0.99911033
0.99904042
0.99897342
0.99890977
0.99884966
0.99879281
0.99873896
0.99868874
0.99864122
0.99859686
0.99855496
0.99851572
0.99847852
1.0005428
1.0005394
1.0005361
1.0005321
1.0005275
1.000522
1.0005158
1.0005083
1.0004997
1.0004899
1.0004782
1.0004647
1.000449
1.0004308
1.0004097
1.0003857
1.0003585
1.0003276
1.0002927
1.0002536
1.0002102
1.0001625
1.0001104
1.000054
0.99999357
0.99992938
0.99986176
0.99979118
0.99971827
0.99964356
0.99956775
0.99949155
0.99941558
0.99934057
0.99926686
0.99919501
0.99912558
0.99905898
0.99899524
0.99893478
0.99887776
0.99882393
0.99877304
0.99872567
0.99868095
0.9986393
0.99860007
0.99856345
0.99852881
1.0005162
1.0005125
1.0005089
1.0005046
1.0004997
1.0004939
1.0004874
1.0004797
1.0004709
1.0004608
1.000449
1.0004353
1.0004196
1.0004015
1.0003806
1.0003568
1.00033
1.0002996
1.0002654
1.0002272
1.0001849
1.0001385
1.0000879
1.0000333
0.99997474
0.9999127
0.99984743
0.99977939
0.99970919
0.99963733
0.9995645
0.99949137
0.99941855
0.99934671
0.99927622
0.99920758
0.99914135
0.99907789
0.99901725
0.99895982
0.99890572
0.99885474
0.99880665
0.99876195
0.99871986
0.99868075
0.998644
0.99860979
0.99857752
1.0004905
1.0004866
1.0004827
1.0004782
1.0004731
1.0004671
1.0004604
1.0004525
1.0004435
1.0004333
1.0004214
1.0004076
1.0003919
1.0003739
1.0003532
1.0003298
1.0003033
1.0002735
1.00024
1.0002028
1.0001616
1.0001165
1.0000674
1.0000144
0.99995778
0.99989784
0.99983484
0.99976926
0.99970166
0.99963255
0.99956257
0.99949238
0.99942256
0.99935375
0.99928631
0.99922074
0.99915753
0.99909706
0.99903936
0.99898478
0.99893345
0.99888516
0.99883971
0.99879753
0.99875791
0.99872118
0.99868675
0.99865481
0.99862474
1.0004657
1.0004617
1.0004577
1.0004529
1.0004476
1.0004415
1.0004346
1.0004266
1.0004175
1.0004071
1.0003952
1.0003815
1.0003658
1.0003479
1.0003275
1.0003044
1.0002784
1.0002492
1.0002165
1.0001801
1.00014
1.0000962
1.0000486
0.99999731
0.99994256
0.99988465
0.99982386
0.99976065
0.99969556
0.99962909
0.99956184
0.99949446
0.9994275
0.99936158
0.99929704
0.99923437
0.99917404
0.99911639
0.99906146
0.99900958
0.99896086
0.99891511
0.99887213
0.99883232
0.99879501
0.99876049
0.99872822
0.99869837
0.99867033
1.0004418
1.0004377
1.0004335
1.0004287
1.0004232
1.000417
1.00041
1.0004018
1.0003927
1.0003823
1.0003704
1.0003567
1.0003412
1.0003235
1.0003033
1.0002806
1.0002551
1.0002265
1.0001946
1.0001592
1.0001202
1.0000777
1.0000315
0.99998186
0.99992893
0.99987301
0.99981437
0.99975346
0.99969079
0.99962684
0.99956222
0.99949752
0.99943328
0.9993701
0.99930832
0.99924839
0.99919078
0.99913579
0.99908347
0.99903414
0.99898787
0.9989445
0.99890384
0.99886625
0.99883111
0.99879866
0.99876841
0.99874051
0.99871436
1.0004187
1.0004145
1.0004102
1.0004053
1.0003998
1.0003935
1.0003864
1.0003782
1.0003691
1.0003587
1.0003468
1.0003333
1.0003179
1.0003004
1.0002806
1.0002583
1.0002334
1.0002054
1.0001743
1.0001398
1.000102
1.0000607
1.000016
0.99996795
0.9999168
0.99986281
0.99980626
0.99974756
0.99968723
0.99962571
0.9995636
0.99950146
0.99943981
0.99937924
0.99932006
0.99926273
0.99920767
0.99915518
0.99910533
0.99905837
0.9990144
0.99897326
0.99893478
0.99889925
0.99886612
0.99883559
0.99880721
0.99878109
0.99875667
1.0003963
1.0003921
1.0003877
1.0003828
1.0003772
1.0003709
1.0003638
1.0003557
1.0003465
1.0003362
1.0003244
1.000311
1.0002959
1.0002787
1.0002592
1.0002374
1.000213
1.0001857
1.0001554
1.0001219
1.0000852
1.0000452
1.0000019
0.99995546
0.99990605
0.99985395
0.99979943
0.99974288
0.9996848
0.99962562
0.9995659
0.99950621
0.99944703
0.99938892
0.9993322
0.99927731
0.99922465
0.99917451
0.99912695
0.99908222
0.99904039
0.99900133
0.99896487
0.99893127
0.99890001
0.99887128
0.99884463
0.99882019
0.99879739
1.0003746
1.0003704
1.000366
1.000361
1.0003555
1.0003492
1.0003421
1.000334
1.000325
1.0003147
1.0003031
1.0002899
1.000275
1.0002581
1.0002391
1.0002178
1.0001939
1.0001674
1.0001379
1.0001054
1.0000698
1.000031
0.99998916
0.99994429
0.9998966
0.99984635
0.9997938
0.99973933
0.99968342
0.99962649
0.99956907
0.9995117
0.99945486
0.99939908
0.99934468
0.99929207
0.99924166
0.9991937
0.99914828
0.99910561
0.99906578
0.99902864
0.99899405
0.99896222
0.99893269
0.9989056
0.99888053
0.9988576
0.99883625
1.0003535
1.0003493
1.000345
1.00034
1.0003345
1.0003283
1.0003213
1.0003133
1.0003044
1.0002943
1.0002828
1.0002698
1.0002552
1.0002387
1.0002201
1.0001993
1.0001761
1.0001503
1.0001216
1.0000901
1.0000556
1.0000181
0.99997769
0.99993437
0.99988837
0.99983992
0.99978929
0.99973684
0.99968303
0.99962825
0.99957303
0.99951788
0.99946325
0.99940967
0.99935744
0.99930698
0.99925865
0.99921272
0.99916927
0.99912852
0.99909052
0.99905515
0.99902228
0.99899209
0.99896416
0.99893859
0.998915
0.99889348
0.99887352
1.000333
1.0003289
1.0003247
1.0003198
1.0003143
1.0003082
1.0003013
1.0002934
1.0002846
1.0002747
1.0002635
1.0002508
1.0002365
1.0002204
1.0002022
1.000182
1.0001594
1.0001343
1.0001066
1.000076
1.0000427
1.0000064
0.9999674
0.99992561
0.99988126
0.99983459
0.99978583
0.99973535
0.99968356
0.99963087
0.99957775
0.9995247
0.99947218
0.99942066
0.99937046
0.99932199
0.99927559
0.99923153
0.99918989
0.99915088
0.99911455
0.99908079
0.99904949
0.99902078
0.99899427
0.99897006
0.99894777
0.99892749
0.99890871
1.0003132
1.0003092
1.000305
1.0003002
1.0002948
1.0002888
1.000282
1.0002743
1.0002657
1.000256
1.000245
1.0002326
1.0002187
1.000203
1.0001854
1.0001657
1.0001438
1.0001195
1.0000926
1.0000631
1.0000308
0.99999588
0.99995822
0.99991795
0.99987523
0.9998303
0.99978337
0.9997348
0.99968498
0.99963428
0.99958318
0.99953214
0.9994816
0.99943202
0.99938372
0.99933708
0.99929245
0.9992501
0.9992101
0.99917266
0.99913785
0.99910555
0.99907566
0.9990483
0.99902311
0.99900016
0.99897912
0.99896003
0.99894241
1.0002939
1.00029
1.0002859
1.0002812
1.000276
1.0002701
1.0002635
1.000256
1.0002476
1.0002382
1.0002275
1.0002154
1.0002018
1.0001866
1.0001695
1.0001504
1.0001292
1.0001056
1.0000797
1.0000512
1.0000201
0.99998636
0.99995008
0.99991132
0.99987021
0.99982698
0.99978186
0.99973515
0.99968723
0.99963847
0.9995893
0.99954018
0.99949151
0.99944374
0.9993972
0.99935224
0.99930923
0.99926841
0.99922988
0.99919385
0.99916037
0.99912935
0.9991007
0.9990745
0.99905044
0.99902854
0.9990085
0.99899034
0.99897362
1.0002752
1.0002714
1.0002675
1.0002629
1.0002579
1.0002521
1.0002457
1.0002384
1.0002303
1.0002211
1.0002107
1.000199
1.0001858
1.000171
1.0001545
1.000136
1.0001155
1.0000928
1.0000677
1.0000402
1.0000103
0.99997783
0.99994293
0.99990566
0.99986615
0.9998246
0.99978124
0.99973635
0.99969029
0.9996434
0.9995961
0.99954879
0.9995019
0.99945582
0.9994109
0.99936748
0.99932592
0.99928646
0.99924924
0.99921443
0.99918211
0.99915221
0.99912465
0.99909951
0.99907648
0.9990556
0.99903657
0.99901942
0.9990037
1.0002571
1.0002535
1.0002496
1.0002453
1.0002404
1.0002348
1.0002286
1.0002216
1.0002136
1.0002047
1.0001947
1.0001833
1.0001706
1.0001563
1.0001403
1.0001225
1.0001027
1.0000808
1.0000567
1.0000302
1.0000014
0.99997024
0.99993671
0.99990092
0.99986299
0.99982311
0.99978148
0.99973838
0.99969414
0.99964906
0.99960355
0.99955799
0.99951277
0.99946828
0.99942485
0.99938282
0.99934254
0.99930428
0.99926817
0.99923439
0.99920304
0.99917406
0.99914736
0.99912303
0.99910076
0.99908058
0.9990622
0.99904563
0.99903043
1.0002395
1.0002361
1.0002324
1.0002282
1.0002235
1.0002181
1.0002122
1.0002053
1.0001977
1.0001891
1.0001794
1.0001684
1.0001562
1.0001424
1.000127
1.0001098
1.0000908
1.0000697
1.0000465
1.0000211
0.99999344
0.99996353
0.99993137
0.99989705
0.99986069
0.99982246
0.99978255
0.99974121
0.99969874
0.99965544
0.99961167
0.99956779
0.99952415
0.99948115
0.99943908
0.9993983
0.99935915
0.9993219
0.99928671
0.99925377
0.99922319
0.99919495
0.99916899
0.99914537
0.99912386
0.99910446
0.99908691
0.99907121
0.99905693
1.0002225
1.0002193
1.0002157
1.0002117
1.0002072
1.0002021
1.0001963
1.0001898
1.0001824
1.0001742
1.0001648
1.0001543
1.0001425
1.0001292
1.0001144
1.0000979
1.0000796
1.0000594
1.0000372
1.0000128
0.9999863
0.99995765
0.99992686
0.99989401
0.99985921
0.99982262
0.99978441
0.99974481
0.9997041
0.99966254
0.99962047
0.9995782
0.99953608
0.99949446
0.99945365
0.99941398
0.9993758
0.99933938
0.99930491
0.99927259
0.99924254
0.99921478
0.99918924
0.99916599
0.99914479
0.99912562
0.99910822
0.9990926
0.99907832
1.0002062
1.000203
1.0001997
1.0001959
1.0001915
1.0001866
1.0001811
1.0001749
1.0001678
1.0001599
1.0001509
1.0001408
1.0001295
1.0001168
1.0001026
1.0000868
1.0000692
1.0000499
1.0000286
1.0000053
0.99997993
0.99995255
0.99992313
0.99989176
0.99985851
0.99982355
0.99978704
0.99974917
0.99971019
0.99967036
0.99962995
0.99958927
0.99954861
0.9995083
0.99946864
0.99942996
0.99939259
0.99935682
0.99932285
0.99929093
0.99926121
0.99923373
0.9992085
0.9991856
0.99916485
0.99914625
0.99912959
0.99911482
0.99910156
1.0001903
1.0001874
1.0001842
1.0001806
1.0001765
1.0001718
1.0001665
1.0001605
1.0001538
1.0001462
1.0001376
1.0001279
1.0001171
1.000105
1.0000914
1.0000763
1.0000596
1.0000411
1.0000207
0.99999849
0.99997431
0.99994819
0.99992015
0.99989024
0.99985856
0.99982523
0.99979041
0.99975426
0.99971702
0.9996789
0.99964015
0.99960102
0.99956178
0.99952274
0.99948416
0.99944635
0.99940964
0.99937434
0.99934066
0.99930887
0.99927916
0.9992516
0.99922621
0.99920306
0.99918196
0.99916288
0.9991456
0.99913008
0.99911594
1.0001751
1.0001723
1.0001693
1.0001659
1.000162
1.0001575
1.0001525
1.0001468
1.0001403
1.0001331
1.0001249
1.0001157
1.0001054
1.0000938
1.0000809
1.0000665
1.0000505
1.0000329
1.0000136
0.99999239
0.99996938
0.99994454
0.99991787
0.99988945
0.99985932
0.99982764
0.99979451
0.9997601
0.9997246
0.9996882
0.9996511
0.99961352
0.9995757
0.99953788
0.99950032
0.9994633
0.99942713
0.99939211
0.9993585
0.99932661
0.99929668
0.99926885
0.99924323
0.99921998
0.99919902
0.99918038
0.99916387
0.99914946
0.99913679
1.0001604
1.0001578
1.000155
1.0001517
1.000148
1.0001438
1.000139
1.0001336
1.0001275
1.0001206
1.0001128
1.000104
1.0000942
1.0000832
1.000071
1.0000573
1.0000422
1.0000254
1.000007
0.99998694
0.99996511
0.99994155
0.99991626
0.99988931
0.99986075
0.99983072
0.9997993
0.99976664
0.99973292
0.99969827
0.99966287
0.99962687
0.99959048
0.9995539
0.99951733
0.99948102
0.99944527
0.99941037
0.99937659
0.99934428
0.99931371
0.99928506
0.99925844
0.99923399
0.99921159
0.99919124
0.99917272
0.99915602
0.99914075
1.0001464
1.0001439
1.0001412
1.0001381
1.0001346
1.0001306
1.0001261
1.0001209
1.0001151
1.0001086
1.0001012
1.0000929
1.0000836
1.0000732
1.0000616
1.0000487
1.0000344
1.0000185
1.0000011
0.99998208
0.99996142
0.99993913
0.99991521
0.99988973
0.99986273
0.99983435
0.99980465
0.99977377
0.99974186
0.99970902
0.99967537
0.99964103
0.99960616
0.99957089
0.99953537
0.99949979
0.9994644
0.99942948
0.99939534
0.99936236
0.99933089
0.99930124
0.99927372
0.99924862
0.99922605
0.99920616
0.99918887
0.9991741
0.9991616
1.0001329
1.0001306
1.000128
1.0001251
1.0001217
1.0001179
1.0001136
1.0001087
1.0001033
1.0000971
1.0000901
1.0000823
1.0000736
1.0000638
1.0000528
1.0000406
1.0000271
1.0000122
0.99999574
0.99997779
0.99995831
0.99993731
0.99991479
0.99989082
0.99986541
0.99983869
0.99981071
0.9997816
0.99975149
0.99972044
0.99968858
0.99965595
0.99962268
0.99958881
0.99955443
0.99951965
0.99948467
0.99944972
0.99941509
0.99938114
0.99934823
0.9993167
0.99928683
0.99925889
0.99923291
0.99920898
0.99918695
0.99916688
0.9991484
1.0001201
1.0001178
1.0001154
1.0001125
1.0001093
1.0001057
1.0001016
1.000097
1.0000919
1.0000861
1.0000795
1.0000722
1.000064
1.0000548
1.0000446
1.0000331
1.0000205
1.0000064
0.99999099
0.99997415
0.99995591
0.99993625
0.99991519
0.99989279
0.99986904
0.99984406
0.99981786
0.99979061
0.99976239
0.99973321
0.99970319
0.99967235
0.99964073
0.99960828
0.99957505
0.99954106
0.99950646
0.99947142
0.99943619
0.99940114
0.99936672
0.99933345
0.99930186
0.99927259
0.99924612
0.99922291
0.99920319
0.99918692
0.99917402
1.0001077
1.0001055
1.0001031
1.0001004
1.0000974
1.0000939
1.00009
1.0000857
1.0000809
1.0000754
1.0000693
1.0000625
1.0000549
1.0000464
1.0000368
1.0000262
1.0000144
1.0000012
0.99998675
0.99997097
0.99995388
0.99993547
0.99991574
0.99989476
0.99987256
0.99984933
0.99982504
0.99979983
0.99977377
0.99974685
0.99971903
0.99969039
0.99966082
0.99963021
0.9995985
0.99956561
0.99953158
0.99949646
0.9994604
0.99942367
0.99938668
0.99934988
0.99931373
0.99927873
0.99924515
0.99921326
0.99918312
0.99915506
0.99912876
1.0000961
1.0000939
1.0000915
1.0000888
1.0000858
1.0000824
1.0000787
1.0000746
1.0000701
1.0000651
1.0000595
1.0000532
1.0000462
1.0000384
1.0000295
1.0000196
1.0000084
0.99999606
0.99998239
0.99996752
0.99995141
0.99993404
0.99991542
0.99989564
0.99987474
0.99985297
0.99983023
0.99980678
0.99978263
0.99975767
0.99973224
0.999706
0.99967895
0.99965082
0.99962149
0.99959072
0.9995584
0.99952437
0.99948863
0.99945128
0.99941269
0.99937339
0.99933425
0.99929649
0.99926149
0.99923054
0.99920482
0.99918473
0.99917056
1.0000844
1.0000821
1.0000797
1.000077
1.0000742
1.0000711
1.0000677
1.000064
1.0000599
1.0000554
1.0000503
1.0000446
1.0000381
1.0000308
1.0000226
1.0000133
1.0000029
0.99999143
0.99997881
0.99996514
0.9999504
0.99993458
0.99991773
0.99989992
0.99988099
0.99986092
0.99983964
0.99981772
0.99979481
0.99977056
0.99974709
0.99972237
0.99969694
0.99967028
0.99964261
0.99961332
0.9995824
0.99954929
0.99951395
0.99947607
0.99943587
0.9993933
0.99934864
0.99930197
0.99925375
0.99920429
0.99915446
0.99910481
0.99905745
1.000074
1.0000718
1.0000693
1.0000667
1.0000638
1.0000607
1.0000573
1.0000537
1.0000498
1.0000455
1.0000408
1.0000356
1.0000299
1.0000236
1.0000165
1.0000086
0.99999981
0.99998984
0.99997863
0.99996669
0.99995417
0.99994085
0.99992678
0.99991197
0.99989619
0.99987934
0.99986132
0.99984296
0.99982334
0.99980329
0.99978229
0.99976086
0.99973764
0.99971308
0.99968697
0.99965894
0.99962878
0.99959566
0.99955937
0.99951896
0.99947469
0.99942615
0.9993748
0.99932219
0.99927123
0.99922479
0.9991878
0.99916002
0.99914812
1.0000628
1.0000592
1.0000557
1.0000523
1.0000491
1.0000461
1.0000432
1.0000403
1.0000372
1.0000339
1.0000303
1.0000263
1.0000219
1.0000168
1.0000109
1.000004
0.99999577
0.99998579
0.99997432
0.99996246
0.99995012
0.99993671
0.99992224
0.99990681
0.99989081
0.99987488
0.99985879
0.99984317
0.99982709
0.99981662
0.9997965
0.99978266
0.99976467
0.99974854
0.9997291
0.99970948
0.9996864
0.99966162
0.99963247
0.9995998
0.99956099
0.99951583
0.99945918
0.99939287
0.99931295
0.99921685
0.99910489
0.99897579
0.99884514
1.0000507
1.0000481
1.0000457
1.0000443
1.0000431
1.0000418
1.0000401
1.0000382
1.0000357
1.0000327
1.0000291
1.0000245
1.0000186
1.0000115
1.0000032
0.99999337