/*--------------------------------*- C++ -*----------------------------------*\
| =========                 |                                                 |
| \\      /  F ield         | OpenFOAM: The Open Source CFD Toolbox           |
|  \\    /   O peration     | Version:  v2006                                 |
|   \\  /    A nd           | Website:  www.openfoam.com                      |
|    \\/     M anipulation  |                                                 |
\*---------------------------------------------------------------------------*/
FoamFile
{
    version     2.0;
    format      ascii;
    class       surfaceScalarField;
    location    "2500";
    object      phi;
}
// * * * * * * * * * * * * * * * * * * * * * * * * * * * * * * * * * * * * * //

dimensions      [1 0 -1 0 0 0 0];
oriented        oriented;


internalField   nonuniform List<scalar> 
39234
(
-0.00063025839
-6.2480675e-06
0.00063650646
-0.00060846613
-2.179227e-05
-0.00055835865
-5.0107474e-05
-0.00051452343
-4.383523e-05
-0.00047063062
-4.3892804e-05
-0.00043151268
-3.911795e-05
-0.00038542294
-4.6089737e-05
-0.00034584925
-3.9573693e-05
-0.00029963182
-4.6217431e-05
-0.00025276634
-4.6865487e-05
-0.00020997479
-4.279155e-05
-0.00016872017
-4.1254624e-05
-0.0001266128
-4.2107366e-05
-8.5096246e-05
-4.151656e-05
-4.2867691e-05
-4.2228553e-05
7.9338398e-07
-4.3661078e-05
4.5113487e-05
-4.4320099e-05
9.0758882e-05
-4.5645397e-05
0.00013807263
-4.7313742e-05
0.00018724926
-4.9176629e-05
0.0002373859
-5.0136637e-05
0.00028638625
-4.9000357e-05
0.00033638768
-5.0001423e-05
0.00038748228
-5.1094605e-05
0.00043478942
-4.7307131e-05
0.00047564528
-4.0855862e-05
0.00051611863
-4.0473348e-05
0.00055652453
-4.04059e-05
0.0005910352
-3.4510669e-05
0.0006233939
-3.2358695e-05
0.00065599882
-3.2604917e-05
0.00068984111
-3.3842294e-05
0.00072657618
-3.673507e-05
0.00075289825
-2.6322064e-05
0.00077070842
-1.7810168e-05
0.00079251663
-2.180821e-05
0.00082069607
-2.8179435e-05
0.00084077688
-2.0080813e-05
0.00086664207
-2.586519e-05
0.00090398626
-3.7344183e-05
0.00093126562
-2.7279359e-05
0.00093926677
-8.0011478e-06
0.0009610487
-2.1781927e-05
0.00095664221
4.4064871e-06
0.00095981002
-3.1678083e-06
0.00094291618
1.6893846e-05
0.00092127087
2.1645313e-05
0.00089531476
2.595611e-05
1.9764804e-05
0.00087554996
-0.00059081037
-2.3154717e-05
0.00060771702
-0.00057126122
-4.1341425e-05
-0.00054818715
-7.3181536e-05
-0.00052223411
-6.978828e-05
-0.00049513607
-7.0990841e-05
-0.00046765588
-6.6598139e-05
-0.00043951375
-7.4231874e-05
-0.00041079109
-6.8296349e-05
-0.00038082488
-7.6183638e-05
-0.00034872191
-7.8968467e-05
-0.0003150163
-7.6497154e-05
-0.00027972354
-7.6547387e-05
-0.0002421441
-7.9686802e-05
-0.00020253324
-8.1127426e-05
-0.0001607224
-8.4039389e-05
-0.0001156594
-8.8724077e-05
-6.7234614e-05
-9.2744888e-05
-1.6361081e-05
-9.6518931e-05
3.6849274e-05
-0.0001005241
9.2148968e-05
-0.00010447632
0.00014935392
-0.00010734159
0.00020817764
-0.00010782407
0.00026747616
-0.00010929994
0.00032655866
-0.00011017711
0.00038527268
-0.00010602115
0.0004431411
-9.8724277e-05
0.00049867454
-9.6006789e-05
0.00055131554
-9.3046898e-05
0.00060105971
-8.4254844e-05
0.00064722724
-7.852622e-05
0.000689495
-7.4872673e-05
0.0007277404
-7.2087697e-05
0.00076158138
-7.0576045e-05
0.00079196384
-5.6704522e-05
0.0008197109
-4.5557233e-05
0.00084472407
-4.6821375e-05
0.0008668534
-5.0308761e-05
0.00088707166
-4.0299072e-05
0.00090532116
-4.4114695e-05
0.00092082032
-5.2843342e-05
0.00093408217
-4.0541208e-05
0.00094725518
-2.117415e-05
0.00095899632
-3.3523073e-05
0.00097035767
-6.95486e-06
0.00098067313
-1.3483268e-05
0.00098945331
8.1136707e-06
0.00099683806
1.4260557e-05
0.0010028988
1.989535e-05
1.4167795e-05
0.0010084958
-0.00065531635
-3.8307898e-05
0.00067046953
-0.00063670774
-5.9950035e-05
-0.00061527653
-9.4612745e-05
-0.00059229731
-9.2767501e-05
-0.00056818436
-9.510379e-05
-0.00054322646
-9.155604e-05
-0.00051710637
-0.00010035197
-0.00048994428
-9.5458441e-05
-0.00046114891
-0.00010497901
-0.00043010744
-0.00011000993
-0.00039679974
-0.00010980486
-0.00036107719
-0.00011226994
-0.00032252486
-0.00011823913
-0.00028115808
-0.00012249421
-0.00023681416
-0.00012838331
-0.00018877426
-0.00013676398
-0.00013678654
-0.00014473261
-8.1377345e-05
-0.00015192813
-2.2770272e-05
-0.00015913117
3.8649983e-05
-0.00016589658
0.000102504
-0.00017119561
0.00016838881
-0.00017370888
0.00023519929
-0.00017611042
0.00030208076
-0.00017705858
0.00036864525
-0.00017258564
0.00043432809
-0.00016440711
0.00049777213
-0.00015945083
0.00055829891
-0.00015357368
0.00061574543
-0.00014170136
0.0006693081
-0.00013208889
0.00071849128
-0.00012405585
0.00076299645
-0.00011659286
0.00080265922
-0.00011023882
0.00083851173
-9.2557027e-05
0.00087082665
-7.787216e-05
0.00089915668
-7.5151402e-05
0.00092382859
-7.4980667e-05
0.00094606012
-6.2530601e-05
0.00096535423
-6.3408811e-05
0.00098174271
-6.9231821e-05
0.00099649578
-5.5294275e-05
0.0010099971
-3.4675492e-05
0.0010208351
-4.4361039e-05
0.0010303686
-1.6488378e-05
0.0010377424
-2.0857086e-05
0.001044012
1.8441222e-06
0.0010489847
9.2878505e-06
0.0010533831
1.5496933e-05
1.0372789e-05
0.0010571781
-0.00068208589
-5.1711436e-05
0.00069548943
-0.00066777257
-7.4263359e-05
-0.00065235527
-0.00011003004
-0.00063535913
-0.00010976364
-0.00061693928
-0.00011352365
-0.00059701484
-0.00011148047
-0.00057543145
-0.00012193536
-0.00055194693
-0.00011894296
-0.0005262573
-0.00013066864
-0.00049779732
-0.00013846991
-0.00046638236
-0.00014121982
-0.00043176941
-0.00014688289
-0.0003935924
-0.00015641614
-0.00035176502
-0.0001643216
-0.0003060929
-0.00017405543
-0.00025606337
-0.0001867935
-0.00020153113
-0.00019926485
-0.00014290066
-0.0002105586
-8.0428131e-05
-0.0002216037
-1.4551246e-05
-0.00023177347
5.4297853e-05
-0.0002400447
0.00012571242
-0.00024512346
0.00019854568
-0.00024894368
0.00027181772
-0.00025033062
0.00034499076
-0.00024575868
0.00041736272
-0.00023677907
0.00048746947
-0.00022955758
0.00055442435
-0.00022052856
0.00061790819
-0.0002051852
0.00067704776
-0.00019122846
0.00073125943
-0.00017826752
0.00078023639
-0.00016556982
0.00082380823
-0.00015381066
0.00086293936
-0.00013168816
0.0008978703
-0.0001128031
0.00092817055
-0.00010545165
0.00095410016
-0.00010091027
0.00097689903
-8.5329471e-05
0.00099617483
-8.2684607e-05
0.0010120411
-8.5098124e-05
0.0010260335
-6.9286656e-05
0.0010391327
-4.7774659e-05
0.0010501557
-5.5384069e-05
0.0010609485
-2.7281178e-05
0.001070495
-3.0403525e-05
0.0010802548
-7.9157e-06
0.0010899583
-4.156363e-07
0.0010999222
5.5330134e-06
3.4236407e-07
0.0011099526
-0.00072831939
-6.4439701e-05
0.00074104765
-0.00071483241
-8.7750342e-05
-0.00070037057
-0.00012449188
-0.00068471457
-0.00012541965
-0.00066775137
-0.00013048684
-0.00064927845
-0.0001299534
-0.00062902015
-0.00014219366
-0.00060667467
-0.00014128844
-0.00058188442
-0.00015545889
-0.00055408686
-0.00016626748
-0.00052296879
-0.0001723379
-0.00048820839
-0.00018164328
-0.00044942428
-0.00019520025
-0.00040639526
-0.00020735062
-0.00035890513
-0.00022154556
-0.00030658739
-0.00023911124
-0.00024926845
-0.00025658379
-0.00018720154
-0.00027262551
-0.00012064802
-0.00028815722
-5.0005968e-05
-0.00030241552
2.4194088e-05
-0.00031424476
0.00010117543
-0.0003221048
0.00017978646
-0.00032755471
0.0002590771
-0.00032962126
0.00033831178
-0.00032499336
0.00041661257
-0.00031507985
0.0004925658
-0.00030551081
0.00056520797
-0.00029317073
0.00063402648
-0.00027400371
0.00069813538
-0.00025533736
0.00075692535
-0.00023705749
0.00081006795
-0.00021871242
0.00085740874
-0.00020115145
0.00089967223
-0.00017395165
0.00093705181
-0.00015018267
0.00096929252
-0.00013769237
0.00099674425
-0.000128362
0.0010204843
-0.00010906954
0.0010403994
-0.00010259964
0.0010568159
-0.00010151464
0.001071041
-8.3511813e-05
0.0010838898
-6.0623395e-05
0.0010946544
-6.6148748e-05
0.0011049156
-3.7542302e-05
0.0011140003
-3.9488266e-05
0.0011228391
-1.6754485e-05
0.0011312292
-8.8057376e-06
0.0011393861
-2.6239378e-06
-7.737623e-06
0.0011474661
-0.00077617619
-7.5370907e-05
0.0007871074
-0.00076455264
-9.9373894e-05
-0.00075183333
-0.00013721119
-0.00073782191
-0.00013943108
-0.00072231311
-0.00014599565
-0.00070506627
-0.00014720024
-0.00068571919
-0.00016154074
-0.00066398893
-0.0001630187
-0.00063943821
-0.00018000962
-0.00061155308
-0.00019415261
-0.00058000351
-0.00020388746
-0.00054441737
-0.00021722942
-0.00050437908
-0.00023523854
-0.00045963201
-0.00025209769
-0.00040992941
-0.00027124815
-0.00035491715
-0.00029412351
-0.0002944468
-0.00031705414
-0.00022875639
-0.00033831592
-0.00015814456
-0.00035876905
-8.3091819e-05
-0.00037746826
-4.1663453e-06
-0.00039317023
7.793965e-05
-0.0004042108
0.00016208018
-0.00041169524
0.00024718658
-0.00041472766
0.00033235434
-0.00041016113
0.00041658006
-0.00039930557
0.00049843351
-0.00038736426
0.00057686143
-0.00037159866
0.00065121823
-0.0003483605
0.00072059658
-0.00032471571
0.00078435338
-0.00030081429
0.0008421235
-0.00027648254
0.00089372709
-0.00025275503
0.00093974382
-0.00021996839
0.00098037276
-0.00019081162
0.0010154896
-0.00017280919
0.0010454556
-0.00015832802
0.0010712372
-0.00013485111
0.0010929036
-0.00012426609
0.0011108467
-0.00011945771
0.0011262067
-9.8871828e-05
0.0011398056
-7.4222322e-05
0.0011512888
-7.7631862e-05
0.0011619972
-4.825078e-05
0.0011716324
-4.9123385e-05
0.0011810945
-2.6216597e-05
0.001190494
-1.8205248e-05
0.0011999742
-1.2104175e-05
-1.7231725e-05
0.0012094683
-0.00083051488
-8.5751507e-05
0.00084089547
-0.00081945365
-0.00011043512
-0.00080728721
-0.00014937763
-0.00079385196
-0.00015286633
-0.00077886829
-0.00016097932
-0.00076204748
-0.00016402105
-0.00074296763
-0.00018062059
-0.00072131134
-0.00018467499
-0.00069658674
-0.00020473422
-0.00066827526
-0.00022246409
-0.00063599884
-0.00023616388
-0.00059933615
-0.00025389212
-0.00055783672
-0.00027673797
-0.00051119827
-0.00029873615
-0.00045914029
-0.00032330613
-0.00040131792
-0.00035194588
-0.0003375905
-0.00038078156
-0.00026816664
-0.00040773978
-0.0001933442
-0.00043359149
-0.00011361156
-0.0004572009
-2.9601019e-05
-0.00047718078
5.7916275e-05
-0.00049172809
0.00014775619
-0.00050153516
0.00023876173
-0.00050573319
0.00032991809
-0.0005013175
0.00042011231
-0.00048949978
0.00050788013
-0.00047513208
0.00059209712
-0.00045581565
0.00067200642
-0.0004282698
0.00074666079
-0.00039937008
0.00081538369
-0.00036953718
0.00087777841
-0.00033887726
0.00093365121
-0.00030862784
0.00098349028
-0.00026980745
0.0010274746
-0.00023479593
0.0010655425
-0.00021087709
0.001098095
-0.00019088052
0.0011260618
-0.0001628179
0.0011495967
-0.00014780101
0.0011691598
-0.00013902083
0.001185861
-0.00011557303
0.0012004982
-8.8859512e-05
0.0012128552
-8.9988859e-05
0.0012241962
-5.9591763e-05
0.0012343231
-5.9250304e-05
0.0012440912
-3.5984699e-05
0.001253594
-2.7708062e-05
0.0012631043
-2.1614493e-05
-2.6848887e-05
0.0012727215
-0.00088800743
-9.5248192e-05
0.00089750411
-0.00087771596
-0.00012072659
-0.00086618665
-0.00016090693
-0.00085326512
-0.00016578786
-0.00083864216
-0.00017560227
-0.0008220095
-0.00018065371
-0.00080291079
-0.0001997193
-0.00078101447
-0.00020657131
-0.00075578546
-0.00022996323
-0.00072670408
-0.00025154547
-0.00069336049
-0.00026950747
-0.00065529287
-0.00029195974
-0.00061201629
-0.00032001455
-0.00056319332
-0.00034755912
-0.00050851436
-0.00037798509
-0.00044763135
-0.00041282889
-0.00038041015
-0.00044800276
-0.0003070459
-0.00048110403
-0.00022784477
-0.00051279262
-0.00014331899
-0.00054172668
-5.4149188e-05
-0.00056635058
3.8838513e-05
-0.00058471579
0.00013444559
-0.00059714224
0.00023143675
-0.00060272434
0.00032868512
-0.00059856588
0.00042497431
-0.00058578897
0.00051878958
-0.00056894735
0.00060892637
-0.00054595244
0.00069452826
-0.00051387169
0.00077460857
-0.00047945039
0.00084845201
-0.00044338062
0.00091562597
-0.00040605122
0.00097591232
-0.00036891419
0.0010297227
-0.00032361781
0.0010772385
-0.00028231179
0.0011184645
-0.00025210306
0.0011538153
-0.00022623136
0.0011841809
-0.00019318347
0.0012098009
-0.00017342096
0.001231169
-0.00016038894
0.001249338
-0.00013374203
0.0012651125
-0.000104634
0.0012784104
-0.00010328681
0.001290423
-7.1604312e-05
0.0013010775
-6.9904803e-05
0.0013112037
-4.6110876e-05
0.0013209819
-3.7486286e-05
0.0013307282
-3.1360797e-05
-3.6662578e-05
0.0013405419
-0.00094993415
-0.0001043351
0.00095902106
-0.00093997731
-0.00013068344
-0.00092870824
-0.000172176
-0.00091596074
-0.00017853536
-0.00090139339
-0.00019016962
-0.00088466901
-0.00019737809
-0.00086530288
-0.00021908543
-0.00084293244
-0.00022894175
-0.00081698896
-0.00025590671
-0.00078693644
-0.00028159799
-0.00075232589
-0.00030411802
-0.00071265549
-0.00033163014
-0.00066740662
-0.00036526342
-0.00061620449
-0.00039876125
-0.00055870899
-0.00043548059
-0.00049456542
-0.00047697247
-0.00042364073
-0.00051892745
-0.00034611755
-0.00055862721
-0.00026230836
-0.00059660181
-0.0001727454
-0.00063128963
-7.8147433e-05
-0.00066094855
2.0595553e-05
-0.00068345878
0.00012223291
-0.00069877959
0.00022545353
-0.00070594496
0.00032903174
-0.00070214409
0.00043165158
-0.00068840881
0.00053174098
-0.00066903675
0.00062801877
-0.00064223023
0.00071953534
-0.00060538826
0.00080525682
-0.00056517187
0.00088442741
-0.00052255122
0.0009565804
-0.0004782042
0.001021478
-0.00043381181
0.0010794756
-0.0003816154
0.0011307468
-0.00033358294
0.0011753348
-0.00029669106
0.001213676
-0.00026457264
0.0012466459
-0.00022615331
0.0012745367
-0.00020131174
0.0012978822
-0.00018373443
0.0013177283
-0.00015358823
0.0013348786
-0.00012178425
0.0013493282
-0.00011773637
0.0013622439
-8.4520102e-05
0.0013736096
-8.1270411e-05
0.0013842513
-5.6752667e-05
0.0013943695
-4.7604396e-05
0.0014042906
-4.1281972e-05
-4.6536109e-05
0.0014141642
-0.0010155206
-0.0001129916
0.0010241771
-0.0010058782
-0.00014032585
-0.00099481289
-0.00018324132
-0.00098214089
-0.00019120736
-0.00096750181
-0.0002048087
-0.00095053652
-0.00021434339
-0.0009307394
-0.00023888254
-0.00090771947
-0.00025196169
-0.00088087918
-0.00028274699
-0.0008496631
-0.00031281407
-0.00081358549
-0.00034019563
-0.00077210716
-0.00037310847
-0.00072467592
-0.00041269466
-0.00067088115
-0.00045255602
-0.00061035365
-0.00049600809
-0.00054272824
-0.00054459788
-0.00046786944
-0.00059378624
-0.00038595042
-0.00064054623
-0.0002972923
-0.00068525993
-0.00020245055
-0.00072613139
-0.00010218575
-0.00076121335
2.5537452e-06
-0.00078819828
0.00011046367
-0.00080668952
0.00022015662
-0.00081563791
0.00033031035
-0.00081229782
0.00043950921
-0.00079760767
0.00054611447
-0.000775642
0.00064876323
-0.00074487899
0.00074641498
-0.00070304001
0.00083798494
-0.00065674183
0.00092267272
-0.000607239
0.00099997447
-0.00055550596
0.001069628
-0.00050346538
0.0011319394
-0.00044392677
0.0011870811
-0.00038872459
0.0012351347
-0.00034474466
0.0012765512
-0.00030598919
0.0013121943
-0.00026179634
0.001342411
-0.00023152851
0.001367765
-0.00020908844
0.0013892872
-0.00017511041
0.0014077945
-0.00014029149
0.0014233566
-0.00013329853
0.0014371185
-9.8281937e-05
0.0014491274
-9.3279315e-05
0.0014602076
-6.783285e-05
0.0014705994
-5.7996244e-05
0.0014806564
-5.1338985e-05
-5.6417472e-05
0.0014905378
-0.0010853047
-0.00012141799
0.0010937311
-0.0010757947
-0.00014983587
-0.0010647702
-0.00019426576
-0.00105202
-0.00020395761
-0.0010371621
-0.00021966654
-0.0010198113
-0.00023169421
-0.00099944189
-0.00025925195
-0.00097562824
-0.00027577534
-0.0009477464
-0.00031062883
-0.00091521526
-0.00034534522
-0.00087750914
-0.00037790175
-0.00083405092
-0.00041656669
-0.0007842545
-0.00046249108
-0.00072767223
-0.00050913829
-0.00066390517
-0.00055977516
-0.00059257585
-0.0006159272
-0.00051354399
-0.0006728181
-0.00042697455
-0.00072711567
-0.0003331982
-0.00077903628
-0.00023279436
-0.00082653522
-0.00012656449
-0.00086744322
-1.5524598e-05
-0.00089923817
9.8965524e-05
-0.00092117964
0.00021544427
-0.00093211666
0.00033248428
-0.00092933783
0.00044857132
-0.00091369472
0.00056199387
-0.00088906455
0.00067130553
-0.00085419065
0.00077537616
-0.00080711064
0.00087306559
-0.00075443126
0.00096352694
-0.00069770035
0.0010462194
-0.00063819843
0.0011208582
-0.00057810418
0.0011877098
-0.00051077831
0.0012469434
-0.00044795827
0.0012986699
-0.00039647114
0.0013433586
-0.00035067787
0.0013818725
-0.0003003103
0.0014146019
-0.00026425791
0.0014421434
-0.00023662991
0.0014655343
-0.00019850131
0.0014856021
-0.00016035931
0.0015024711
-0.00015016747
0.001517284
-0.00011309485
0.0015301275
-0.00010612284
0.0015418346
-7.9539927e-05
0.001552665
-6.8826703e-05
0.0015629876
-6.1661493e-05
-6.6425141e-05
0.0015729952
-0.0011591586
-0.00012965725
0.0011673979
-0.001149727
-0.00015926746
-0.0011386785
-0.00020531428
-0.0011257707
-0.00021686539
-0.0011106038
-0.00023483344
-0.0010927671
-0.00024953097
-0.001071716
-0.00028030298
-0.0010469894
-0.00030050197
-0.0010179377
-0.00033968053
-0.00098395073
-0.00037933221
-0.00094446201
-0.00041739046
-0.00089885635
-0.00046217235
-0.00084651279
-0.00051483463
-0.00078694604
-0.00056870504
-0.00071972709
-0.00062699412
-0.00064446428
-0.00069119001
-0.00056101042
-0.00075627196
-0.00046952354
-0.00081860256
-0.00037034533
-0.00087821449
-0.00026408136
-0.00093279919
-0.00015157724
-0.00097994733
-3.3913987e-05
-0.0010169014
8.7484549e-05
-0.0010425782
0.00021107751
-0.0010557096
0.00033533384
-0.0010535942
0.0004586374
-0.0010369983
0.0005791966
-0.0010096237
0.00069547691
-0.00097047097
0.00080625738
-0.0009178911
0.00091033787
-0.00085851175
0.0010068213
-0.00079418378
0.0010951273
-0.00072650444
0.0011749457
-0.00065792261
0.001246507
-0.00058233953
0.0013099788
-0.00051143009
0.0013654991
-0.00045199146
0.001413554
-0.00039873272
0.0014550093
-0.00034176561
0.0014902992
-0.00029954779
0.0015200513
-0.00026638201
0.0015453086
-0.00022375863
0.0015669177
-0.00018196841
0.0015850566
-0.00016830638
0.0016008695
-0.0001289078
0.0016144857
-0.00011973903
0.0016267483
-9.180248e-05
0.0016379428
-8.0021182e-05
0.0016484568
-7.2175504e-05
-7.6461095e-05
0.0016584927
-0.0012374611
-0.00013781375
0.0012456176
-0.0012280101
-0.00016871845
-0.0012168445
-0.00021647991
-0.0012036865
-0.0002300234
-0.0011881164
-0.00025040348
-0.0011696957
-0.00026795169
-0.0011478603
-0.00030213837
-0.0011221099
-0.0003262524
-0.001091769
-0.00037002137
-0.0010561947
-0.0004149066
-0.0010147771
-0.00045880801
-0.00096686165
-0.00051008781
-0.00091179129
-0.00056990499
-0.00084904164
-0.00063145469
-0.00077815263
-0.00069788313
-0.00069871697
-0.00077062566
-0.00061057906
-0.00084440987
-0.00051389087
-0.00091529075
-0.00040900639
-0.00098309897
-0.00029655929
-0.0010452463
-0.00017744207
-0.0010990646
-5.2800927e-05
-0.0011415426
7.5869761e-05
-0.0011712489
0.00020694318
-0.001186783
0.00033878364
-0.0011854346
0.0004696695
-0.0011678841
0.00059772251
-0.0011376767
0.00072131608
-0.0010940645
0.00083913678
-0.0010357118
0.00094992044
-0.00096929541
0.0010527172
-0.00089698058
0.0011469065
-0.00082069366
0.0012321529
-0.00074316907
0.0013086562
-0.00065884283
0.0013765833
-0.00057935717
0.0014360968
-0.00051150497
0.0014877024
-0.00045033833
0.0015322758
-0.000386339
0.0015702918
-0.00033756379
0.0016024116
-0.00029850181
0.0016296944
-0.00025104139
0.0016530057
-0.00020527979
0.0016725699
-0.00018787052
0.0016895414
-0.00014587934
0.0017040827
-0.00013428028
0.0017170519
-0.00010477166
0.0017287531
-9.1722458e-05
0.00173959
-8.3012407e-05
-8.6660511e-05
0.0017497894
-0.0013203179
-0.00014593488
0.0013284391
-0.0013107968
-0.00017823958
-0.0012994583
-0.00022781841
-0.0012859868
-0.0002434949
-0.001269943
-0.00026644733
-0.0012508593
-0.00028703534
-0.0012281514
-0.00032484627
-0.0012012781
-0.00035312576
-0.001169537
-0.00040176242
-0.0011322491
-0.00045219453
-0.0010887596
-0.00050229749
-0.001038373
-0.00056047444
-0.00098039445
-0.0006278835
-0.00091425914
-0.00069759
-0.00083947488
-0.00077266738
-0.00075561721
-0.00085448334
-0.00066252079
-0.00093750629
-0.0005603323
-0.0010174792
-0.00044941934
-0.0010940119
-0.00033044591
-0.0011642197
-0.0002043541
-0.0012251564
-7.2358113e-05
-0.0012735386
6.3972085e-05
-0.0013075791
0.00020291839
-0.0013257293
0.00034273703
-0.0013252533
0.00048159655
-0.0013067437
0.0006175251
-0.0012736053
0.00074879898
-0.0012253384
0.00087400941
-0.0011609222
0.00099182347
-0.0010871095
0.0011012351
-0.0010063922
0.0012015808
-0.00092103935
0.0012924985
-0.00083408677
0.001374159
-0.00074050334
0.0014467287
-0.00065192684
0.0015103935
-0.00057516982
0.0015656789
-0.00050562369
0.0016134731
-0.00043413322
0.0016542923
-0.00037838299
0.0016888318
-0.00033304132
0.0017181688
-0.00028037838
0.0017431933
-0.00023030422
0.0017641761
-0.0002088534
0.001782286
-0.00016398921
0.0017977208
-0.0001497151
0.001811356
-0.00011840682
0.0018235175
-0.00010388394
0.0018346264
-9.4121309e-05
-9.6955233e-05
0.0018449211
-0.0014080705
-0.00015408591
0.0014162216
-0.0013984155
-0.00018789467
-0.0013868396
-0.00023939422
-0.001372987
-0.00025734751
-0.001356397
-0.00028303739
-0.0013365712
-0.00030686107
-0.0013129033
-0.00034851417
-0.0012848086
-0.00038122049
-0.0012515565
-0.00043501456
-0.0012124285
-0.00049132252
-0.0011667225
-0.00054800344
-0.0011137001
-0.00061349685
-0.0010526269
-0.00068895668
-0.00098289576
-0.00076732118
-0.00090398095
-0.0008515822
-0.00081543943
-0.00094302486
-0.00071709495
-0.0010358508
-0.00060908953
-0.0011254847
-0.00049180571
-0.0012112958
-0.00036593998
-0.0012900855
-0.00023248691
-0.0013586094
-9.2732044e-05
-0.0014132934
5.1674004e-05
-0.0014519851
0.00019891617
-0.0014729715
0.00034713801
-0.0014734751
0.00049439349
-0.0014539992
0.00063861031
-0.0014178221
0.00077796252
-0.0013646906
0.00091094262
-0.0012939023
0.0010361446
-0.0012123114
0.0011525029
-0.0011227506
0.0012593098
-0.0010278462
0.0013561758
-0.00093095278
0.0014432458
-0.00082757333
0.0015206867
-0.00072936774
0.0015887078
-0.0006431909
0.0016478569
-0.00056477275
0.00169904
-0.00048531631
0.001742815
-0.00042215803
0.0017799142
-0.0003701405
0.001811439
-0.00031190326
0.0018383058
-0.00025717096
0.0018608299
-0.00023137753
0.0018801989
-0.00018335824
0.0018966432
-0.00016615936
0.0019110582
-0.00013282181
0.0019237896
-0.00011661539
0.001935276
-0.00010560771
-0.00010745538
0.0019457762
-0.0015009421
-0.00016230839
0.0015091646
-0.0014911093
-0.00019772753
-0.0014792481
-0.00025125536
-0.00146496
-0.00027163564
-0.001447762
-0.0003002354
-0.0014271235
-0.00032749957
-0.0014024143
-0.00037322338
-0.0013730042
-0.00041063063
-0.0013381323
-0.00046988638
-0.0012970381
-0.00053241675
-0.0012489696
-0.00059607197
-0.0011931433
-0.00066932314
-0.0011287831
-0.00075331681
-0.0010552378
-0.00084086654
-0.00097194656
-0.00093487343
-0.0008784463
-0.0010365251
-0.00077454881
-0.0011397483
-0.000660392
-0.0012396415
-0.00053637466
-0.0013353131
-0.00040322814
-0.001423232
-0.00026200259
-0.001499835
-0.00011405882
-0.0015612372
3.8866688e-05
-0.0016049106
0.00019485608
-0.0016289609
0.00035193499
-0.001630554
0.0005080373
-0.0016101015
0.00066098309
-0.0015707679
0.00080883847
-0.001512546
0.0009499931
-0.001435057
0.0010829629
-0.0013452812
0.0012066196
-0.0012464073
0.0013202083
-0.001141435
0.0014233107
-0.0010340552
0.0015160471
-0.00092030966
0.001598585
-0.00081190572
0.0016711567
-0.00071576252
0.0017343331
-0.00062794918
0.0017890409
-0.0005400241
0.0018358807
-0.00046899782
0.0018756231
-0.00040988296
0.0019093969
-0.00034567702
0.0019381482
-0.00028592227
0.0019622384
-0.00025546772
0.0019828774
-0.00020399724
0.0020003303
-0.00018361226
0.002015515
-0.00014800652
0.0020287996
-0.00012989995
0.0020406414
-0.00011744951
-0.00011812802
0.002051314
-0.0015992766
-0.00017064912
0.0016076174
-0.0015892181
-0.00020778606
-0.0015770205
-0.00026345297
-0.0015622405
-0.0002864156
-0.0015443714
-0.00031810456
-0.0015228481
-0.0003490229
-0.0014970147
-0.00039905675
-0.001466193
-0.00044145231
-0.00142959
-0.00050648939
-0.0013863995
-0.00057560726
-0.0013358172
-0.00064665426
-0.0012770123
-0.00072812809
-0.0012091646
-0.00082116451
-0.0011315763
-0.00091845483
-0.0010436501
-0.0010227996
-0.00094490123
-0.001135274
-0.00083512856
-0.0012495209
-0.00071446632
-0.0013603037
-0.00058333102
-0.0014664484
-0.00044249121
-0.0015640718
-0.00029305593
-0.0016492703
-0.00013646547
-0.0017178276
2.5452329e-05
-0.0017668284
0.00019067063
-0.0017941792
0.00035709125
-0.0017969746
0.00052252194
-0.0017755322
0.00068466792
-0.0017329139
0.00084148131
-0.0016693594
0.00099124433
-0.00158482
0.0011323901
-0.0014864269
0.0012637235
-0.0013777407
0.0013844409
-0.0012621524
0.001494094
-0.0011437082
0.0015927797
-0.0010189954
0.0016806678
-0.00089979378
0.0017580135
-0.0007931082
0.0018254139
-0.00069534964
0.0018838205
-0.0005984307
0.0019338784
-0.00051905575
0.0019764
-0.0004524045
0.0020125458
-0.00038182285
0.0020432951
-0.00031667153
0.0020690553
-0.0002812279
0.0020910626
-0.00022600456
0.0021096165
-0.00020216615
0.0021256597
-0.00016404976
0.0021395828
-0.00014382302
0.0021518629
-0.00012972967
-0.00012905877
0.0021627937
-0.0017033732
-0.00017914398
0.001711868
-0.0016930503
-0.00021810895
-0.0016804727
-0.00027603056
-0.0016651506
-0.00030173771
-0.0016465516
-0.00033670356
-0.0016240744
-0.00037150001
-0.0015970356
-0.00042609555
-0.0015647064
-0.00047378159
-0.001526259
-0.00054493674
-0.0014808389
-0.00062102733
-0.0014275867
-0.00069990649
-0.0013656215
-0.0007900933
-0.0012940765
-0.00089270946
-0.0012122054
-0.0010003259
-0.0011193723
-0.0011156328
-0.0010150691
-0.0012395772
-0.00089908086
-0.0013655091
-0.00077153866
-0.0014878459
-0.00063287807
-0.001605109
-0.00048390742
-0.0017130424
-0.00032579822
-0.0018073795
-0.00016007476
-0.0018835511
1.1338156e-05
-0.0019382413
0.00018629803
-0.0019691391
0.00036257624
-0.0019732528
0.00053784806
-0.001950804
0.00070969619
-0.001904762
0.00087595228
-0.0018356155
0.001034786
-0.0017436537
0.0011845422
-0.0016361832
0.0013239555
-0.0015171541
0.0014521705
-0.0013903673
0.0015687072
-0.0012602449
0.0016736403
-0.0011239286
0.0017671418
-0.00099329525
0.0018494905
-0.0008754569
0.0019213111
-0.0007671702
0.0019835825
-0.00066070214
0.0020369962
-0.00057246948
0.0020824082
-0.0004978165
0.0021210145
-0.0004204291
0.0021538304
-0.00034948743
0.0021813113
-0.00030870885
0.0022047232
-0.00024941645
0.0022244021
-0.00022184505
0.0022413183
-0.00018096592
0.002255887
-0.00015839171
0.0022686071
-0.00014244977
-0.00014024183
0.0022797901
-0.0018135989
-0.00018783024
0.0018222851
-0.0018029715
-0.00022873632
-0.001789969
-0.00028903305
-0.001774053
-0.00031765371
-0.0017546639
-0.00035609269
-0.0017311619
-0.00039500196
-0.0017028337
-0.00045442377
-0.0016688972
-0.00050771807
-0.0016284879
-0.00058534612
-0.0015806992
-0.00066881599
-0.0015246137
-0.00075599198
-0.0014592977
-0.0008554093
-0.0013838352
-0.00096817197
-0.0012974286
-0.0010867326
-0.0011994014
-0.00121366
-0.0010892208
-0.0013497577
-0.00096665708
-0.0014880729
-0.00083183839
-0.0016226646
-0.00068522091
-0.0017517265
-0.0005276554
-0.0018706079
-0.00036037965
-0.0019746552
-0.0001850067
-0.002058924
-3.5646876e-06
-0.0021196834
0.00018168156
-0.0021543853
0.00036836623
-0.0021599375
0.00055402469
-0.0021364625
0.0007361094
-0.0020868467
0.00091232458
-0.0020118307
0.0010807217
-0.0019120508
0.0012395522
-0.0017950137
0.001387476
-0.0016650779
0.0015235833
-0.0015264746
0.0016473612
-0.0013840229
0.001758863
-0.0012354304
0.0018582637
-0.0010926959
0.0019458665
-0.00096305973
0.0020223262
-0.00084362992
0.0020886533
-0.00072702929
0.002145588
-0.00062940416
0.0021940333
-0.00054626182
0.002235225
-0.00046162077
0.0022702182
-0.00038448062
0.0022995178
-0.00033800847
0.0023244231
-0.00027432173
0.002345308
-0.00024272991
0.0023631725
-0.00019883043
0.002378458
-0.00017367719
0.0023916864
-0.00015567819
-0.0001517461
0.0024031906
-0.0019303123
-0.00019673991
0.001939222
-0.0019193446
-0.00023970401
-0.0019058756
-0.00030250201
-0.0018893163
-0.00033421304
-0.0018690779
-0.00037633114
-0.00184448
-0.00041959977
-0.0018147771
-0.00048412668
-0.0017791312
-0.00054336398
-0.001736638
-0.00062783938
-0.0016863359
-0.00071911801
-0.0016272463
-0.00081508159
-0.0015583797
-0.00092427589
-0.0014787679
-0.0010477838
-0.0013875593
-0.0011779411
-0.001284035
-0.0013171843
-0.0011676356
-0.0014661571
-0.0010381154
-0.0016175931
-0.00089560039
-0.0017651796
-0.00074056877
-0.0019067581
-0.00057391651
-0.0020372602
-0.00039695161
-0.0021516201
-0.00021138066
-0.002244495
-1.9343362e-05
-0.0023117206
0.00017676731
-0.002350496
0.00037444201
-0.0023576122
0.00057106694
-0.0023330874
0.00076395637
-0.0022797361
0.00095067984
-0.0021985541
0.0011291646
-0.0020905355
0.0012975629
-0.001963412
0.0014544556
-0.0018219706
0.0015988756
-0.0016708946
0.0017302756
-0.0015154229
0.0018486874
-0.0013538422
0.0019542898
-0.0011982982
0.0020474112
-0.0010561812
0.0021287385
-0.00092495717
0.0021993167
-0.00079760752
0.002259937
-0.00069002438
0.0023115521
-0.00059787695
0.0023554411
-0.00050550983
0.0023927025
-0.00042174193
0.0024238926
-0.00036919864
0.0024503477
-0.00030077683
0.0024724818
-0.000264864
0.0024913277
-0.00021767629
0.0025073549
-0.00018970437
0.0025211105
-0.0001694338
-0.00016358441
0.0025329488
-0.0020539176
-0.00020590546
0.0020630831
-0.002042573
-0.00025104865
-0.0020285948
-0.00031648014
-0.0020113412
-0.00035146666
-0.0019901923
-0.00039748011
-0.0019644247
-0.0004453673
-0.0019332583
-0.00051529315
-0.001895796
-0.00058082624
-0.0018510911
-0.0006725443
-0.0017981236
-0.0007720855
-0.0017358501
-0.00087735505
-0.0016632223
-0.00099690376
-0.0015792164
-0.0011317897
-0.0014829246
-0.0012742329
-0.0013735826
-0.0014265263
-0.0012506029
-0.0015891368
-0.0011137232
-0.0017544729
-0.00096306722
-0.0019158355
-0.00079913701
-0.0020706883
-0.00062287668
-0.0022135205
-0.00043566868
-0.0023388281
-0.00023931882
-0.0024408449
-3.6084286e-05
-0.0025149552
0.00017150541
-0.0025580857
0.00038078887
-0.0025668956
0.00058899583
-0.0025412943
0.00079329353
-0.0024840338
0.00099110906
-0.0023963697
0.0011802389
-0.0022796654
0.0013587301