/*--------------------------------*- C++ -*----------------------------------*\
| =========                 |                                                 |
| \\      /  F ield         | OpenFOAM: The Open Source CFD Toolbox           |
|  \\    /   O peration     | Version:  v2006                                 |
|   \\  /    A nd           | Website:  www.openfoam.com                      |
|    \\/     M anipulation  |                                                 |
\*---------------------------------------------------------------------------*/
FoamFile
{
    version     2.0;
    format      ascii;
    class       volScalarField;
    location    "2500";
    object      pMean;
}
// * * * * * * * * * * * * * * * * * * * * * * * * * * * * * * * * * * * * * //

dimensions      [1 -1 -2 0 0 0 0];


internalField   nonuniform List<scalar> 
19765
(
1.0003162
1.0005911
1.0014286
1.0020038
1.0025829
1.0030149
1.0035493
1.0038537
1.0042689
1.0046172
1.0048584
1.0050456
1.0052079
1.0053044
1.0053515
1.0053709
1.005358
1.0053087
1.0052234
1.0051014
1.0049405
1.0047434
1.004526
1.0042668
1.00395
1.0036171
1.0033247
1.0029897
1.0025707
1.0021875
1.0017839
1.0012969
1.0007461
1.0000232
0.99943249
0.9990043
0.99845951
0.99764688
0.99707155
0.99643065
0.99539488
0.9944965
0.99432079
0.99351444
0.99350962
0.9932272
0.99341038
0.99371468
0.99411442
1.0015294
1.001675
1.0018648
1.0021001
1.0023523
1.002599
1.0028582
1.0030802
1.0033121
1.0035465
1.0037506
1.0039242
1.0040861
1.0042075
1.0042863
1.0043484
1.0043874
1.0043888
1.0043585
1.0042918
1.0041899
1.0040607
1.003896
1.0036965
1.0034701
1.0032201
1.0029366
1.002623
1.0022847
1.00192
1.0015306
1.0011206
1.0006934
1.0002609
0.99983222
0.99939889
0.99895309
0.99850991
0.99809888
0.99771067
0.99736372
0.99707559
0.99680172
0.99656071
0.99638485
0.99623361
0.99611426
0.996004
0.99589199
1.0014959
1.001687
1.0019061
1.0021275
1.002349
1.0025599
1.0027675
1.0029496
1.0031292
1.0032978
1.0034506
1.0035872
1.0037116
1.0038112
1.0038831
1.0039362
1.0039692
1.0039741
1.0039495
1.0038936
1.0038062
1.0036899
1.0035425
1.0033629
1.0031562
1.0029252
1.0026651
1.0023768
1.0020655
1.0017305
1.0013752
1.0010057
1.0006284
1.0002485
0.99986104
0.99946841
0.99908103
0.99870104
0.99832912
0.99797656
0.99764583
0.9973221
0.99701492
0.9967283
0.99646779
0.99625198
0.99606098
0.99589577
0.99574336
1.0017355
1.0018632
1.0019934
1.0021338
1.0022789
1.0024253
1.0025727
1.0027104
1.0028486
1.002984
1.0031082
1.0032205
1.0033241
1.0034088
1.0034707
1.0035184
1.003551
1.0035598
1.0035423
1.0034971
1.0034245
1.0033295
1.0032088
1.0030591
1.002885
1.0026907
1.0024716
1.0022271
1.0019629
1.0016797
1.0013803
1.0010704
1.0007545
1.0004382
1.000117
0.99979363
0.99947797
0.999174
0.9988776
0.99860043
0.99834625
0.99809853
0.99785419
0.99763245
0.99741361
0.99721103
0.99700507
0.99680224
0.99660335
1.0016672
1.0017838
1.0019019
1.0020199
1.0021366
1.0022506
1.0023638
1.0024686
1.0025734
1.0026764
1.0027715
1.0028578
1.0029377
1.0030038
1.0030519
1.0030883
1.0031131
1.0031185
1.0031018
1.003061
1.0029951
1.0029073
1.0027952
1.0026558
1.0024936
1.0023128
1.0021105
1.001885
1.0016419
1.0013831
1.0011105
1.0008289
1.0005418
1.0002543
0.99996519
0.99967617
0.99939286
0.99911826
0.99885047
0.99859552
0.99835385
0.9981161
0.99788053
0.99765688
0.99743281
0.99721662
0.99700189
0.99679286
0.9965889
1.001671
1.0017554
1.0018419
1.001929
1.0020163
1.0021023
1.0021892
1.00227
1.0023519
1.002433
1.0025081
1.0025762
1.0026392
1.0026912
1.0027285
1.0027559
1.002773
1.0027735
1.0027548
1.0027153
1.0026539
1.0025738
1.0024728
1.0023483
1.0022034
1.0020418
1.0018611
1.0016605
1.0014447
1.0012155
1.0009748
1.0007268
1.0004747
1.0002228
0.99997049
0.9997192
0.99947343
0.99923562
0.9990046
0.99878461
0.99857596
0.99837156
0.99817056
0.99797738
0.99778441
0.99759515
0.99740381
0.99721065
0.9970181
1.001595
1.0016674
1.0017413
1.0018135
1.0018845
1.0019534
1.0020226
1.0020865
1.0021512
1.0022153
1.0022744
1.0023278
1.002377
1.0024172
1.0024453
1.0024647
1.0024752
1.0024712
1.0024506
1.0024116
1.0023532
1.0022775
1.0021828
1.0020667
1.0019318
1.0017813
1.0016135
1.0014278
1.0012282
1.0010167
1.0007948
1.0005663
1.0003337
1.000101
0.99986807
0.99963626
0.99940876
0.99918765
0.99897214
0.99876506
0.99856625
0.99837102
0.99817798
0.99799004
0.99780161
0.99761489
0.99742574
0.99723495
0.99704268
1.0015422
1.0015986
1.0016569
1.0017139
1.0017702
1.0018248
1.0018799
1.0019306
1.0019822
1.0020332
1.00208
1.0021219
1.0021602
1.0021907
1.0022109
1.0022234
1.0022278
1.0022195
1.0021964
1.002157
1.0021006
1.0020284
1.0019392
1.0018311
1.0017061
1.0015669
1.0014121
1.0012414
1.0010584
1.0008648
1.0006624
1.0004542
1.0002426
1.0000312
0.99981992
0.99961009
0.99940435
0.99920451
0.99900996
0.99882301
0.99864366
0.99846801
0.99829502
0.99812656
0.99795826
0.99779139
0.99762234
0.99745133
0.99727845
1.0014669
1.0015142
1.0015633
1.0016107
1.0016571
1.0017017
1.0017466
1.0017876
1.0018292
1.0018701
1.0019073
1.0019403
1.0019698
1.0019927
1.0020065
1.0020134
1.0020128
1.0020009
1.0019758
1.001936
1.0018809
1.0018113
1.0017262
1.0016241
1.0015064
1.0013755
1.0012303
1.0010706
1.0008998
1.0007193
1.0005306
1.0003366
1.0001393
0.99994177
0.99974434
0.99954806
0.99935513
0.99916716
0.99898372
0.9988066
0.99863575
0.99846832
0.99830311
0.99814166
0.99798033
0.99782002
0.99765778
0.99749362
0.99732724
1.0014018
1.0014399
1.0014799
1.0015184
1.0015562
1.0015923
1.0016287
1.0016618
1.0016953
1.0017281
1.0017575
1.0017831
1.0018055
1.0018219
1.0018303
1.0018324
1.0018275
1.0018123
1.0017853
1.001745
1.0016908
1.0016234
1.0015418
1.0014448
1.0013336
1.0012101
1.0010736
1.0009241
1.0007644
1.0005959
1.0004201
1.0002396
1.0000561
0.99987248
0.99968911
0.99950699
0.99932808
0.99915386
0.99898397
0.99882
0.99866202
0.99850761
0.99835571
0.99820767
0.99806025
0.99791421
0.99776687
0.99761815
0.99746785
1.0013314
1.0013632
1.0013968
1.0014289
1.0014603
1.00149
1.00152
1.0015468
1.001574
1.0016003
1.0016236
1.0016432
1.0016599
1.0016711
1.0016751
1.0016732
1.0016648
1.0016469
1.0016182
1.0015775
1.0015241
1.0014585
1.0013797
1.001287
1.0011812
1.0010639
1.0009346
1.0007935
1.0006429
1.0004842
1.0003188
1.000149
0.99997637
0.99980345
0.99963065
0.99945894
0.99929002
0.99912524
0.99896433
0.99880866
0.99865834
0.99851144
0.99836689
0.99822601
0.9980859
0.99794726
0.99780773
0.99766719
0.99752519
1.0012672
1.0012932
1.0013209
1.0013473
1.0013731
1.0013974
1.0014219
1.0014436
1.0014654
1.0014863
1.0015044
1.0015191
1.001531
1.0015378
1.0015381
1.0015328
1.0015214
1.0015012
1.0014712
1.0014301
1.0013773
1.0013132
1.001237
1.001148
1.0010469
1.0009351
1.0008123
1.0006785
1.0005362
1.0003863
1.0002303
1.0000703
0.99990766
0.9997448
0.99958212
0.99942056
0.9992617
0.99910681
0.99895566
0.99880953
0.9986686
0.99853121
0.99839638
0.99826543
0.99813563
0.99800772
0.9978795
0.99775089
0.9976215
1.0012034
1.001225
1.0012482
1.0012702
1.0012915
1.0013116
1.0013316
1.0013491
1.0013666
1.0013831
1.001397
1.0014076
1.0014155
1.0014187
1.0014158
1.0014077
1.0013938
1.0013718
1.0013406
1.0012992
1.001247
1.0011843
1.0011104
1.0010246
1.0009277
1.0008207
1.0007035
1.0005763
1.000441
1.0002988
1.000151
0.99999937
0.99984535
0.99969103
0.99953685
0.99938371
0.99923306
0.99908608
0.99894255
0.99880368
0.99866965
0.9985391
0.99841108
0.99828693
0.99816411
0.99804338
0.99792274
0.99780216
0.9976811
1.001144
1.0011617
1.0011809
1.0011991
1.0012166
1.0012329
1.0012492
1.0012632
1.001277
1.0012897
1.0013
1.0013072
1.0013117
1.0013118
1.0013063
1.0012958
1.0012798
1.0012562
1.0012241
1.0011825
1.0011308
1.0010695
1.0009976
1.0009148
1.0008216
1.0007189
1.0006068
1.0004854
1.0003566
1.0002213
1.0000809
0.99993691
0.99979076
0.99964434
0.9994981
0.99935293
0.99921019
0.99907099
0.99893516
0.99880384
0.99867727
0.99855426
0.99843393
0.99831763
0.99820296
0.99809073
0.99797906
0.99786797
0.99775696
1.0010869
1.0011015
1.0011175
1.0011324
1.0011468
1.0011601
1.0011732
1.0011842
1.0011949
1.0012046
1.0012118
1.0012161
1.0012178
1.0012153
1.0012075
1.001195
1.0011773
1.0011524
1.0011195
1.0010778
1.0010268
1.0009666
1.0008966
1.0008165
1.0007266
1.000628
1.0005204
1.0004043
1.0002813
1.0001523
1.0000184
0.9998814
0.99974231
0.99960298
0.99946384
0.99932575
0.99919
0.99905761
0.99892844
0.99880355
0.99868322
0.99856641
0.9984523
0.99834225
0.998234
0.99812838
0.99802365
0.99791989
0.99781654
1.0010334
1.0010453
1.0010584
1.0010706
1.0010823
1.0010929
1.0011033
1.0011118
1.0011198
1.0011267
1.0011313
1.0011332
1.0011324
1.0011277
1.0011181
1.0011039
1.0010846
1.0010587
1.0010253
1.0009836
1.0009331
1.0008741
1.0008059
1.0007282
1.0006415
1.0005465
1.0004431
1.0003319
1.0002142
1.0000909
0.99996316
0.99983245
0.9996999
0.99956714
0.99943463
0.99930321
0.99917408
0.99904823
0.99892554
0.99880703
0.99869299
0.99858252
0.99847486
0.99837135
0.99826986
0.99817125
0.99807389
0.99797788
0.9978827
1.0009825
1.0009921
1.0010029
1.0010128
1.0010222
1.0010306
1.0010387
1.0010449
1.0010507
1.0010553
1.0010577
1.0010574
1.0010546
1.001048
1.0010367
1.0010211
1.0010006
1.0009738
1.00094
1.0008984
1.0008485
1.0007907
1.0007241
1.0006488
1.0005649
1.0004733
1.0003739
1.0002671
1.0001543
1.0000363
0.99991413
0.99978928
0.99966275
0.99953607
0.99940968
0.9992844
0.99916138
0.99904152
0.99892475
0.99881201
0.99870361
0.99859876
0.99849674
0.9983989
0.99830321
0.99821053
0.99811936
0.99802984
0.99794141
1.0009347
1.0009424
1.000951
1.0009589
1.0009663
1.0009727
1.0009788
1.0009832
1.000987
1.0009896
1.00099
1.0009879
1.0009833
1.0009751
1.0009625
1.0009457
1.0009242
1.0008967
1.0008625
1.0008211
1.0007719
1.0007151
1.0006502
1.000577
1.0004959
1.0004074
1.0003116
1.000209
1.0001007
0.99998767
0.99987078
0.99975139
0.99963049
0.9995095
0.99938887
0.99926939
0.99915214
0.99903801
0.99892692
0.99881977
0.99871688
0.99861755
0.99852113
0.99842893
0.99833902
0.99825229
0.9981673
0.99808425
0.99800255
1.0008895
1.0008955
1.0009023
1.0009085
1.0009142
1.0009189
1.0009232
1.0009259
1.000928
1.0009289
1.0009277
1.000924
1.0009178
1.0009082
1.0008945
1.0008766
1.0008543
1.0008263
1.000792
1.0007507
1.0007023
1.0006466
1.0005832
1.0005121
1.0004335
1.000348
1.0002557
1.0001569
1.000053
0.99994449
0.9998325
0.99971822
0.99960259
0.99948695
0.99937173
0.99925769
0.99914589
0.99903712
0.99893134
0.99882941
0.99873163
0.99863739
0.99854609
0.99845898
0.99837426
0.9982928
0.99821326
0.99813585
0.99805998
1.0008468
1.0008514
1.0008567
1.0008613
1.0008655
1.0008687
1.0008716
1.0008728
1.0008734
1.0008728
1.0008701
1.000865
1.0008575
1.0008468
1.000832
1.0008133
1.0007903
1.0007619
1.0007275
1.0006866
1.0006388
1.0005842
1.0005224
1.0004532
1.0003771
1.0002944
1.0002053
1.0001103
1.0000103
0.99990617
0.99979879
0.99968933
0.99957868
0.9994681
0.99935799
0.99924913
0.99914249
0.99903884
0.99893814
0.99884122
0.99874837
0.99865905
0.9985727
0.99849053
0.99841086
0.9983345
0.99826023
0.99818827
0.99811802
1.0008065
1.0008098
1.0008138
1.0008171
1.0008199
1.0008218
1.0008234
1.0008233
1.0008226
1.0008207
1.0008167
1.0008105
1.0008018
1.0007901
1.0007744
1.0007551
1.0007315
1.0007028
1.0006685
1.0006279
1.0005809
1.0005273
1.000467
1.0003998
1.000326
1.000246
1.00016
1.0000684
0.99997225
0.99987222
0.99976921
0.99966431
0.99955837
0.99945256
0.99934732
0.99924336
0.99914162
0.99904283
0.99894695
0.99885476
0.99876655
0.99868184
0.99860011
0.9985225
0.99844746
0.99837576
0.99830625
0.99823916
0.9981739
1.0007683
1.0007705
1.0007734
1.0007755
1.0007772
1.000778
1.0007783
1.0007772
1.0007753
1.0007722
1.0007672
1.0007599
1.0007503
1.0007376
1.0007213
1.0007014
1.0006774
1.0006486
1.0006143
1.0005741
1.0005278
1.0004754
1.0004165
1.0003512
1.0002796
1.0002022
1.0001191
1.0000309
0.99993834
0.99984221
0.99974334
0.99964277
0.9995413
0.99944005
0.99933943
0.99924015
0.99914308
0.99904892
0.99895764
0.99886999
0.99878623
0.99870593
0.99862863
0.9985554
0.99848478
0.99841752
0.99835254
0.99829008
0.99822954
1.0007322
1.0007335
1.0007353
1.0007364
1.0007371
1.0007369
1.0007362
1.0007341
1.0007312
1.0007271
1.0007211
1.0007129
1.0007024
1.000689
1.0006722
1.0006518
1.0006275
1.0005985
1.0005644
1.0005248
1.0004793
1.0004279
1.0003705
1.0003069
1.0002375
1.0001626
1.0000823
0.99999725
0.99990818
0.99981576
0.99972083
0.99962438
0.99952718
0.99943027
0.99933405
0.99923922
0.99914661
0.99905686
0.99896997
0.99888662
0.99880708
0.99873095
0.99865782
0.99858868
0.99852218
0.99845901
0.99839818
0.99833993
0.99828365
1.000698
1.0006984
1.0006993
1.0006995
1.0006993
1.0006982
1.0006966
1.0006937
1.0006899
1.0006849
1.0006781
1.0006691
1.0006579
1.0006439
1.0006266
1.0006059
1.0005814
1.0005524
1.0005185
1.0004794
1.0004347
1.0003844
1.0003284
1.0002666
1.0001993
1.0001267
1.0000492
0.99996716
0.99988139
0.99979252
0.99970136
0.99960884
0.9995157
0.99942293
0.99933093
0.99924036
0.999152
0.99906647
0.99898376
0.99890453
0.99882902
0.99875687
0.99868771
0.99862247
0.99855987
0.99850059
0.99844368
0.99838938
0.99833709
1.0006655
1.0006652
1.0006653
1.0006647
1.0006637
1.0006619
1.0006595
1.0006558
1.0006512
1.0006454
1.0006379
1.0006282
1.0006165
1.000602
1.0005842
1.0005633
1.0005386
1.0005097
1.0004762
1.0004376
1.0003937
1.0003445
1.0002899
1.0002298
1.0001645
1.0000943
1.0000194
0.99994028
0.99985767
0.9997722
0.99968464
0.99959588
0.99950663
0.99941781
0.99932983
0.99924332
0.99915903
0.99907752
0.99899881
0.9989235
0.99885182
0.99878345
0.99871804
0.99865645
0.99859751
0.99854183
0.99848854
0.99843788
0.99838922
1.0006346
1.0006336
1.000633
1.0006318
1.0006301
1.0006276
1.0006245
1.0006201
1.0006149
1.0006084
1.0006002
1.0005901
1.0005778
1.0005628
1.0005448
1.0005237
1.000499
1.0004702
1.000437
1.000399
1.000356
1.0003079
1.0002547
1.0001963
1.000133
1.000065
0.99999263
0.99991629
0.99983673
0.99975452
0.99967041
0.99958524
0.99949971
0.99941468
0.99933054
0.99924792
0.99916751
0.99908985
0.99901495
0.99894338
0.99887535
0.99881057
0.99874873
0.99869062
0.99863514
0.99858286
0.99853298
0.99848571
0.99844045
1.0006051
1.0006036
1.0006024
1.0006006
1.0005982
1.0005951
1.0005914
1.0005865
1.0005807
1.0005737
1.0005649
1.0005543
1.0005416
1.0005263
1.0005081
1.0004868
1.0004622
1.0004336
1.0004008
1.0003634
1.0003213
1.0002743
1.0002225
1.0001657
1.0001043
1.0000385
0.99996859
0.99989496
0.99981832
0.99973923
0.99965843
0.99957671
0.99949473
0.99941333
0.99933287
0.99925396
0.99917726
0.99910326
0.999032
0.99896399
0.99889944
0.99883808
0.99877961
0.99872476
0.99867253
0.99862343
0.9985767
0.99853257
0.99849043
1.0005769
1.000575
1.0005732
1.0005709
1.000568
1.0005644
1.0005602
1.0005548
1.0005485
1.0005409
1.0005318
1.0005207
1.0005077
1.0004921
1.0004738
1.0004525
1.0004279
1.0003996
1.0003672
1.0003305
1.0002892
1.0002434
1.0001929
1.0001378
1.0000783
1.0000146
0.99994705
0.99987603
0.99980221
0.99972613
0.9996485
0.99957008
0.99949151
0.99941357
0.99933663
0.99926127
0.99918811
0.99911761
0.99904982
0.99898521
0.99892396
0.99886584
0.99881057
0.99875882
0.99870965
0.99866354
0.99861979
0.99857859
0.99853936
1.0005499
1.0005476
1.0005454
1.0005426
1.0005393
1.0005353
1.0005306
1.0005247
1.000518
1.00051
1.0005005
1.0004891
1.0004758
1.0004601
1.0004417
1.0004205
1.0003961
1.000368
1.0003361
1.0003001
1.0002597
1.000215
1.0001659
1.0001124
1.0000547
0.99999308
0.9999278
0.9998593
0.99978819
0.99971501
0.99964043
0.99956517
0.99948986
0.99941523
0.99934166
0.99926969
0.99919991
0.99913275
0.99906826
0.99900687
0.99894877
0.99889372
0.99884148
0.99879265
0.99874636
0.99870305
0.99866206
0.99862358
0.99858702
1.000524
1.0005214
1.0005188
1.0005156
1.0005119
1.0005075
1.0005024
1.0004962
1.0004892
1.0004809
1.000471
1.0004594
1.0004459
1.0004301
1.0004117
1.0003905
1.0003663
1.0003387
1.0003073
1.000272
1.0002325
1.0001889
1.0001411
1.0000892
1.0000333
0.9999737
0.99991065
0.99984458
0.99977609
0.99970569
0.99963403
0.99956181
0.99948962
0.99941817
0.99934781
0.99927907
0.99921251
0.99914853
0.99908718
0.99902886
0.99897374
0.99892161
0.99887224
0.99882616
0.99878259
0.99874191
0.99870351
0.99866757
0.99863351
1.0004992
1.0004962
1.0004933
1.0004898
1.0004858
1.0004811
1.0004757
1.0004692
1.0004618
1.0004532
1.0004432
1.0004314
1.0004178
1.0004019
1.0003835
1.0003625
1.0003386
1.0003113
1.0002805
1.0002459
1.0002074
1.0001649
1.0001185
1.0000681
1.0000139
0.99995631
0.99989542
0.99983171
0.99976574
0.99969802
0.99962917
0.99955986
0.99949066
0.99942223
0.99935494
0.99928928
0.99922579
0.99916483
0.99910646
0.99905107
0.99899877
0.9989494
0.99890273
0.99885925
0.99881823
0.99878001
0.99874403
0.99871044
0.99867869
1.0004752
1.000472
1.0004688
1.000465
1.0004608
1.0004558
1.0004501
1.0004434
1.0004358
1.0004271
1.0004168
1.0004049
1.0003912
1.0003754
1.0003571
1.0003363
1.0003126
1.0002858
1.0002556
1.0002218
1.0001842
1.0001429
1.0000978
1.0000489
0.99999646
0.99994074
0.99988195
0.99982053
0.999757
0.99969186
0.9996257
0.99955918
0.99949283
0.9994273
0.99936293
0.9993002
0.99923962
0.99918154
0.999126
0.99907337
0.99902375
0.99897698
0.99893287
0.99889184
0.99885322
0.99881731
0.99878359
0.9987522
0.99872259
1.000452
1.0004486
1.0004452
1.0004413
1.0004368
1.0004316
1.0004258
1.0004189
1.0004111
1.0004022
1.0003918
1.0003799
1.0003662
1.0003504
1.0003323
1.0003117
1.0002884
1.000262
1.0002325
1.0001994
1.0001628
1.0001226
1.0000788
1.0000314
0.99998071
0.99992686
0.99987012
0.9998109
0.99974973
0.99968707
0.9996235
0.99955964
0.99949602
0.99943325
0.99937166
0.99931173
0.99925391
0.99919855
0.99914569
0.99909567
0.99904858
0.99900427
0.99896256
0.99892383
0.99888745
0.9988537
0.99882208
0.99879273
0.99876511
1.0004296
1.0004261
1.0004225
1.0004184
1.0004138
1.0004084
1.0004024
1.0003954
1.0003875
1.0003785
1.0003681
1.0003561
1.0003425
1.0003268
1.0003089
1.0002886
1.0002657
1.0002399
1.0002109
1.0001787
1.0001431
1.000104
1.0000615
1.0000156
0.99996656
0.99991454
0.99985979
0.99980272
0.99974381
0.99968354
0.99962246
0.99956115
0.99950014
0.99943999
0.99938105
0.99932376
0.99926856
0.99921576
0.99916544
0.99911788
0.99907317
0.99903117
0.99899173
0.99895515
0.99892088
0.99888915
0.9988595
0.99883205
0.99880627
1.0004078
1.0004042
1.0004006
1.0003963
1.0003916
1.0003862
1.0003801
1.000373
1.000365
1.000356
1.0003456
1.0003337
1.0003201
1.0003046
1.0002869
1.0002669
1.0002445
1.0002192
1.0001909
1.0001595
1.0001249
1.000087
1.0000457
1.0000013
0.9999539
0.99990366
0.99985085
0.99979585
0.99973915
0.99968117
0.99962248
0.99956361
0.99950508
0.99944743
0.999391
0.99933621
0.99928348
0.99923311
0.99918517
0.99913991
0.99909744
0.99905762
0.99902028
0.99898572
0.99895341
0.99892356
0.99889572
0.99887003
0.99884594
1.0003867
1.0003831
1.0003793
1.0003751
1.0003702
1.0003648
1.0003586
1.0003515
1.0003435
1.0003345
1.0003241
1.0003123
1.0002989
1.0002836
1.0002662
1.0002466
1.0002246
1.0001999
1.0001723
1.0001418
1.0001081
1.0000713
1.0000314
0.99998845
0.99994262
0.99989413
0.9998432
0.99979022
0.99973564
0.99967988
0.99962347
0.99956693
0.99951076
0.99945549
0.99940143
0.999349
0.99929859
0.9992505
0.99920479
0.9991617
0.99912132
0.99908352
0.99904816
0.99901548
0.998985
0.9989569
0.99893077
0.9989067
0.9988842
1.0003662
1.0003626
1.0003588
1.0003545
1.0003496
1.0003441
1.000338
1.0003309
1.000323
1.000314
1.0003037
1.000292
1.0002787
1.0002637
1.0002466
1.0002274
1.0002059
1.0001818
1.000155
1.0001253
1.0000927
1.000057
1.0000184
0.99997687
0.99993262
0.99988584
0.99983676
0.99978574
0.9997332
0.99967958
0.99962535
0.99957105
0.99951713
0.9994641
0.99941228
0.99936207
0.99931385
0.99926788
0.99922425
0.99918318
0.99914475
0.99910883
0.9990753
0.99904435
0.99901556
0.99898907
0.99896448
0.99894191
0.99892083
1.0003463
1.0003427
1.0003389
1.0003346
1.0003298
1.0003243
1.0003181
1.0003111
1.0003033
1.0002943
1.0002842
1.0002727
1.0002597
1.0002449
1.0002282
1.0002094
1.0001885
1.000165
1.0001389
1.0001101
1.0000785
1.000044
1.0000066
0.99996652
0.99992383
0.99987873
0.99983144
0.99978232
0.99973177
0.9996802
0.99962808
0.9995759
0.99952411
0.9994732
0.99942349
0.99937536
0.99932918
0.99928519
0.9992435
0.9992043
0.99916766
0.99913348
0.99910164
0.9990723
0.99904508
0.99902008
0.99899695
0.99897576
0.99895604
1.0003269
1.0003233
1.0003196
1.0003153
1.0003105
1.0003051
1.0002991
1.0002921
1.0002844
1.0002756
1.0002656
1.0002543
1.0002415
1.0002271
1.0002108
1.0001925
1.0001721
1.0001493
1.000124
1.000096
1.0000654
1.0000321
0.99999601
0.99995732
0.99991615
0.9998727
0.99982717
0.9997799
0.99973128
0.99968168
0.99963158
0.99958143
0.99953167
0.99948277
0.99943503
0.99938884
0.99934454
0.99930239
0.99926248
0.99922499
0.99919
0.99915741
0.99912711
0.99909923
0.99907342
0.99904976
0.99902792
0.99900795
0.9989894
1.0003081
1.0003045
1.0003009
1.0002967
1.000292
1.0002866
1.0002807
1.0002739
1.0002662
1.0002576
1.0002479
1.0002368
1.0002243
1.0002102
1.0001943
1.0001766
1.0001567
1.0001346
1.0001101
1.0000831
1.0000535
1.0000213
0.99998648
0.99994919
0.99990953
0.9998677
0.9998239
0.99977843
0.99973167
0.99968399
0.99963582
0.9995876
0.99953977
0.99949275
0.99944686
0.99940247
0.99935992
0.99931945
0.99928116
0.99924523
0.99921174
0.9991806
0.9991517
0.99912516
0.99910065
0.99907824
0.99905761
0.99903882
0.99902142
1.0002897
1.0002863
1.0002827
1.0002786
1.000274
1.0002688
1.0002629
1.0002563
1.0002488
1.0002404
1.0002309
1.0002201
1.0002079
1.0001942
1.0001788
1.0001616
1.0001423
1.0001209
1.0000972
1.0000711
1.0000425
1.0000115
0.99997796
0.99994206
0.99990391
0.99986368
0.99982156
0.99977785
0.99973291
0.99968707
0.99964076
0.99959439
0.99954838
0.99950313
0.99945897
0.99941624
0.99937528
0.99933634
0.99929951
0.99926499
0.99923283
0.99920297
0.9991753
0.99914993
0.99912655
0.99910519
0.99908557
0.99906773
0.99905122
1.0002719
1.0002686
1.0002651
1.0002611
1.0002566
1.0002515
1.0002459
1.0002394
1.0002321
1.0002239
1.0002147
1.0002042
1.0001924
1.0001791
1.0001641
1.0001474
1.0001288
1.0001081
1.0000852
1.0000601
1.0000325
1.0000027
0.99997041
0.99993589
0.99989922
0.99986056
0.99982011
0.99977813
0.99973495
0.9996909
0.99964638
0.99960178
0.99955749
0.99951391
0.99947134
0.99943014
0.99939063
0.99935305
0.99931753
0.99928424
0.99925326
0.99922453
0.99919797
0.99917365
0.99915131
0.99913097
0.99911235
0.99909549
0.99907997
1.0002546
1.0002514
1.000248
1.0002442
1.0002398
1.0002349
1.0002294
1.0002231
1.0002161
1.0002082
1.0001992
1.000189
1.0001776
1.0001647
1.0001503
1.0001341
1.0001162
1.0000962
1.0000742
1.0000499
1.0000235
0.99999473
0.99996376
0.99993061
0.99989541
0.99985832
0.9998195
0.99977921
0.99973776
0.99969546
0.99965267
0.99960976
0.9995671
0.99952508
0.99948399
0.99944418
0.99940597
0.9993696
0.99933521
0.99930299
0.999273
0.99924521
0.99921954
0.99919606
0.99917452
0.9991549
0.99913697
0.99912072
0.99910576
1.0002378
1.0002347
1.0002315
1.0002278
1.0002236
1.0002189
1.0002136
1.0002075
1.0002007
1.000193
1.0001843
1.0001745
1.0001635
1.0001511
1.0001372
1.0001216
1.0001043
1.0000851
1.0000639
1.0000406
1.0000152
0.99998766
0.99995795
0.99992618
0.99989245
0.9998569
0.99981969
0.99978108
0.99974132
0.99970072
0.99965961
0.99961833
0.99957723
0.99953667
0.99949695
0.9994584
0.99942133
0.99938601
0.99935258
0.99932124
0.99929207
0.99926506
0.99924016
0.99921743
0.99919666
0.99917784
0.99916073
0.99914534
0.99913127
1.0002215
1.0002186
1.0002155
1.0002119
1.0002079
1.0002034
1.0001983
1.0001925
1.0001859
1.0001785
1.0001702
1.0001607
1.0001501
1.0001382
1.0001248
1.0001098
1.0000932
1.0000748
1.0000545
1.0000321
1.0000078
0.99998139
0.99995295
0.99992255
0.99989027
0.99985626
0.99982066
0.9997837
0.99974562
0.99970669
0.99966721
0.99962751
0.9995879
0.99954872
0.99951026
0.99947284
0.99943678
0.99940234
0.99936968
0.99933902
0.99931045
0.99928398
0.99925958
0.99923728
0.99921688
0.99919837
0.99918149
0.99916626
0.99915229
1.0002057
1.000203
1.0002
1.0001966
1.0001928
1.0001885
1.0001836
1.000178
1.0001717
1.0001646
1.0001566
1.0001475
1.0001373
1.0001259
1.0001131
1.0000988
1.0000828
1.0000652
1.0000457
1.0000244
1.0000011
0.99997587
0.99994871
0.99991967
0.99988885
0.99985637
0.99982237
0.99978705
0.99975063
0.99971335
0.99967548
0.99963732
0.99959914
0.99956127
0.99952398
0.99948758
0.99945238
0.99941865
0.99938658
0.9993564
0.99932824
0.99930214
0.99927811
0.99925623
0.99923632
0.9992184
0.99920225
0.99918784
0.99917483
1.0001905
1.0001879
1.0001851
1.0001818
1.0001782
1.0001741
1.0001694
1.0001641
1.0001581
1.0001513
1.0001436
1.0001349
1.0001252
1.0001143
1.000102
1.0000883
1.0000731
1.0000563
1.0000377
1.0000173
0.99999512
0.99997107
0.99994518
0.99991751
0.99988815
0.9998572
0.9998248
0.9997911
0.99975634
0.9997207
0.99968443
0.99964778
0.99961101
0.9995744
0.99953821
0.99950272
0.99946825
0.99943506
0.99940338
0.99937344
0.99934541
0.99931935
0.99929529
0.99927328
0.99925316
0.9992349
0.99921829
0.99920331
0.99918959
1.0001758
1.0001733
1.0001707
1.0001676
1.0001642
1.0001602
1.0001558
1.0001507
1.0001449
1.0001385
1.0001312
1.0001229
1.0001136
1.0001032
1.0000915
1.0000785
1.000064
1.000048
1.0000303
1.0000109
0.9999898
0.99996694
0.99994233
0.99991604
0.99988814
0.99985873
0.99982792
0.99979587
0.99976276
0.99972877
0.9996941
0.99965896
0.99962357
0.99958819
0.99955304
0.99951839
0.99948453
0.99945173
0.99942024
0.99939032
0.9993622
0.99933601
0.99931185
0.99928984
0.99926993
0.99925212
0.99923627
0.99922231
0.99920994
1.0001616
1.0001593
1.0001568
1.0001539
1.0001506
1.0001468
1.0001426
1.0001378
1.0001323
1.0001262
1.0001193
1.0001114
1.0001026
1.0000927
1.0000816
1.0000693
1.0000555
1.0000403
1.0000235
1.0000051
0.99998511
0.99996343
0.99994011
0.9999152
0.99988876
0.9998609
0.9998317
0.99980131
0.99976988
0.99973756
0.99970452
0.99967091
0.99963694
0.99960279
0.99956865
0.99953477
0.99950141
0.99946884
0.99943733
0.99940716
0.99937859
0.99935177
0.99932682
0.99930384
0.99928274
0.9992635
0.99924594
0.99923004
0.99921545
1.000148
1.0001458
1.0001434
1.0001406
1.0001375
1.000134
1.00013
1.0001254
1.0001202
1.0001144
1.0001078
1.0001004
1.0000921
1.0000827
1.0000723
1.0000606
1.0000476
1.0000332
1.0000173
0.99999993
0.99998099
0.99996049
0.99993844
0.9999149
0.99988992
0.99986361
0.99983603
0.99980731
0.9997776
0.999747
0.99971563
0.99968363
0.99965113
0.99961827
0.9995852
0.99955209
0.99951918
0.99948674
0.99945502
0.99942437
0.99939511
0.99936752
0.99934185
0.99931837
0.9992972
0.99927843
0.99926201
0.99924787
0.99923577
1.0001348
1.0001327
1.0001305
1.0001279
1.0001249
1.0001216
1.0001177
1.0001134
1.0001085
1.0001031
1.0000969
1.0000899
1.0000821
1.0000733
1.0000634
1.0000524
1.0000402
1.0000266
1.0000117
0.99999526
0.99997741
0.99995811
0.99993736
0.99991523
0.99989173
0.99986698
0.99984101
0.99981396
0.99978596
0.99975707
0.99972741
0.99969704
0.99966609
0.9996346
0.99960267
0.99957041
0.999538
0.99950565
0.99947362
0.99944223
0.9994118
0.99938263
0.99935498
0.99932907
0.99930494
0.99928266
0.99926211
0.99924332
0.99922598
1.0001223
1.0001203
1.0001181
1.0001156
1.0001128
1.0001096
1.0001059
1.0001019
1.0000973
1.0000921
1.0000864
1.0000798
1.0000725
1.0000643
1.0000551
1.0000448
1.0000333
1.0000206
1.0000066
0.99999118
0.99997447
0.99995641
0.99993701
0.99991634
0.99989438
0.99987125
0.99984697
0.99982167
0.99979545
0.99976834
0.99974044
0.99971179
0.99968242
0.99965232
0.99962154
0.99959012
0.99955818
0.99952588
0.99949343
0.99946118
0.99942953
0.99939891
0.99936983
0.99934282
0.99931834
0.99929678
0.99927834
0.99926299
0.99925065
1.0001101
1.0001082
1.0001061
1.0001037
1.000101
1.0000979
1.0000945
1.0000907
1.0000864
1.0000816
1.0000762
1.0000701
1.0000633
1.0000557
1.0000471
1.0000376
1.0000269
1.0000151
1.0000019
0.99998754
0.99997191
0.99995502
0.99993688
0.99991753
0.99989702
0.99987553
0.99985301
0.99982961
0.9998054
0.99978038
0.99975455
0.99972796
0.99970055
0.99967221
0.99964292
0.99961261
0.99958131
0.99954907
0.99951601
0.9994824
0.99944857
0.99941493
0.99938189
0.99934987
0.99931913
0.9992899
0.99926223
0.99923641
0.99921219
1.0000987
1.0000968
1.0000946
1.0000922
1.0000895
1.0000865
1.0000832
1.0000796
1.0000756
1.0000712
1.0000663
1.0000607
1.0000546
1.0000476
1.0000397
1.0000308
1.0000209
1.0000097
0.9999974
0.99998387
0.99996917
0.99995326
0.99993616
0.99991794
0.99989866
0.99987852
0.99985747
0.99983571
0.99981326
0.9997901
0.99976645
0.99974209
0.99971701
0.99969099
0.99966394
0.99963563
0.99960598
0.99957484
0.99954219
0.99950815
0.99947301
0.99943726
0.99940167
0.99936733
0.99933544
0.99930719
0.9992836
0.99926501
0.99925171
1.0000871
1.0000851
1.0000829
1.0000805
1.0000779
1.0000752
1.0000723
1.0000691
1.0000655
1.0000616
1.0000572
1.0000522
1.0000465
1.0000401
1.0000328
1.0000245
1.0000153
1.0000049
0.99999352
0.99998106
0.99996758
0.99995305
0.99993755
0.99992111
0.99990363
0.99988509
0.99986546
0.99984518
0.999824
0.99980176
0.99977989
0.99975692
0.9997334
0.99970882
0.99968336
0.9996565
0.99962821
0.99959801
0.99956586
0.99953148
0.99949505
0.99945653
0.99941611
0.99937387
0.99933019
0.99928536
0.99924015
0.99919507
0.99915212
1.000077
1.0000749
1.0000727
1.0000703
1.0000677
1.000065
1.000062
1.0000588
1.0000554
1.0000516
1.0000475
1.0000429
1.0000378
1.0000321
1.0000258
1.0000187
1.0000108
1.0000018
0.99999178
0.99998089
0.99996938
0.99995711
0.99994412
0.99993042
0.99991583
0.99990027
0.99988366
0.99986665
0.99984856
0.99983009
0.99981073
0.99979086
0.99976951
0.999747
0.99972313
0.99969757
0.99967011
0.99964006
0.99960721
0.99957073
0.99953085
0.99948721
0.99944109
0.99939391
0.99934823
0.9993066
0.99927331
0.9992482
0.99923694
1.0000655
1.0000621
1.0000587
1.0000555
1.0000526
1.0000498
1.0000473
1.0000448
1.0000422
1.0000394
1.0000362
1.0000327
1.0000288
1.0000244
1.0000192
1.0000132
1.0000062
0.99999764
0.99998765
0.99997697
0.99996573
0.99995351
0.99994033
0.99992623
0.99991152
0.99989678
0.99988186
0.99986718
0.99985207
0.99984093
0.99982312
0.99981021
0.99979364
0.99977866
0.99976079
0.99974283
0.99972188
0.99969942
0.99967313
0.99964369
0.99960881
0.9995682
0.99951727
0.99945759
0.99938572
0.99929919
0.99919841
0.99908248
0.99896534
1.0000536
1.0000512
1.0000491
1.000048
1.0000472
1.0000464
1.0000453
1.0000439
1.0000422
1.00004
1.0000373
1.0000338
1.0000292
1.0000236
1.0000167
1.0000084
0.99999871
0.99998746