/*--------------------------------*- C++ -*----------------------------------*\
| =========                 |                                                 |
| \\      /  F ield         | OpenFOAM: The Open Source CFD Toolbox           |
|  \\    /   O peration     | Version:  v2006                                 |
|   \\  /    A nd           | Website:  www.openfoam.com                      |
|    \\/     M anipulation  |                                                 |
\*---------------------------------------------------------------------------*/
FoamFile
{
    version     2.0;
    format      ascii;
    class       volScalarField;
    location    "2500";
    object      rho;
}
// * * * * * * * * * * * * * * * * * * * * * * * * * * * * * * * * * * * * * //

dimensions      [1 -3 0 0 0 0 0];


internalField   nonuniform List<scalar> 
19765
(
1.0004829
1.0007127
1.0013828
1.0017977
1.0022298
1.0025372
1.0029234
1.0031189
1.0034059
1.0036311
1.0037779
1.0038928
1.0039875
1.0040316
1.0040388
1.0040207
1.0039809
1.0039151
1.0038245
1.0037072
1.0035557
1.0033733
1.0031832
1.0029621
1.0026869
1.0023967
1.0021605
1.0018939
1.0015418
1.0012341
1.0009184
1.0005286
1.000099
0.999491
0.99900117
0.99867884
0.99827032
0.9975833
0.99713527
0.99666164
0.99580437
0.99501401
0.99496032
0.99421322
0.99423049
0.9939254
0.99405398
0.99426253
0.99457633
1.0012281
1.0013236
1.0014544
1.0016164
1.0017904
1.0019582
1.0021408
1.0022896
1.0024538
1.0026198
1.0027579
1.0028723
1.0029824
1.0030583
1.0031001
1.0031329
1.0031468
1.0031297
1.0030921
1.0030282
1.0029387
1.0028312
1.0026962
1.0025359
1.0023574
1.0021622
1.0019393
1.0016949
1.0014344
1.0011535
1.0008551
1.0005426
1.000216
0.99988724
0.99956467
0.99924014
0.99890331
0.99856848
0.99826418
0.99797722
0.9977176
0.99751213
0.99731357
0.99714478
0.99703796
0.99694369
0.99687341
0.99680677
0.99673799
1.0012357
1.0013769
1.0015351
1.0016874
1.0018387
1.0019785
1.0021177
1.0022322
1.0023491
1.0024562
1.0025502
1.002633
1.0027086
1.002765
1.0028012
1.0028255
1.0028349
1.0028226
1.0027885
1.0027316
1.0026511
1.0025487
1.0024242
1.0022766
1.0021093
1.0019242
1.001718
1.0014922
1.0012514
1.0009936
1.0007223
1.0004429
1.0001595
0.99987723
0.99958976
0.99929863
0.99901348
0.99873692
0.99846583
0.99820965
0.99797303
0.99774048
0.99751489
0.9973034
0.99711106
0.99696076
0.99682486
0.99670751
0.99659672
1.0013881
1.0014756
1.0015675
1.0016658
1.0017672
1.0018685
1.0019716
1.0020642
1.0021592
1.0022517
1.0023337
1.002406
1.0024724
1.0025233
1.0025562
1.0025795
1.0025915
1.0025845
1.002558
1.0025106
1.0024434
1.0023607
1.0022597
1.0021375
1.0019976
1.0018436
1.0016717
1.0014816
1.0012783
1.0010612
1.0008331
1.0005988
1.0003612
1.0001251
0.99988567
0.9996448
0.99941137
0.99918948
0.99897303
0.99877222
0.99859175
0.99841685
0.99824159
0.99808818
0.9979344
0.99779456
0.99765051
0.99750998
0.9973749
1.0013189
1.0014006
1.0014841
1.0015662
1.0016466
1.0017239
1.0018012
1.00187
1.00194
1.0020085
1.0020699
1.002124
1.0021738
1.0022122
1.0022364
1.0022525
1.00226
1.0022524
1.002228
1.0021856
1.002124
1.0020464
1.0019506
1.0018346
1.001702
1.0015567
1.0013958
1.001218
1.0010282
1.0008273
1.0006168
1.0004008
1.0001812
0.99996264
0.99974341
0.99952453
0.99931068
0.99910505
0.99890432
0.99871369
0.99853451
0.99835894
0.99818269
0.99801904
0.99785299
0.99769505
0.99753835
0.99738624
0.99723719
1.0013064
1.0013645
1.0014257
1.0014862
1.0015468
1.0016055
1.0016654
1.0017189
1.001774
1.0018282
1.0018767
1.0019193
1.0019583
1.001988
1.002006
1.0020169
1.00202
1.0020101
1.0019857
1.0019458
1.0018894
1.0018196
1.0017347
1.0016324
1.0015155
1.0013871
1.001245
1.0010886
1.0009219
1.0007459
1.0005621
1.0003739
1.0001833
0.99999399
0.99980479
0.99961672
0.99943357
0.99925763
0.99908681
0.99892488
0.99877264
0.99862357
0.99847621
0.99833635
0.99819571
0.99805864
0.99791965
0.99777916
0.9976398
1.0012402
1.0012897
1.0013416
1.0013912
1.0014399
1.0014863
1.0015334
1.001575
1.001618
1.0016601
1.0016977
1.0017305
1.0017602
1.0017824
1.0017949
1.0018011
1.0018005
1.0017886
1.0017641
1.0017258
1.0016728
1.001607
1.0015272
1.0014315
1.0013221
1.0012019
1.0010693
1.0009237
1.0007686
1.0006051
1.0004345
1.0002598
1.0000825
0.99990603
0.99972982
0.99955474
0.99938342
0.99921788
0.99905656
0.99890193
0.99875427
0.99860967
0.99846575
0.99832726
0.99818756
0.9980501
0.99791066
0.99777043
0.99762919
1.0011923
1.0012306
1.0012715
1.0013106
1.0013491
1.0013857
1.0014232
1.001456
1.00149
1.0015233
1.0015526
1.0015778
1.0016002
1.0016162
1.0016238
1.0016258
1.0016216
1.0016074
1.001582
1.0015444
1.0014938
1.0014318
1.0013572
1.0012688
1.001168
1.0010574
1.0009356
1.0008024
1.0006609
1.0005121
1.0003572
1.0001988
1.0000385
0.99987912
0.99972032
0.99956291
0.99940913
0.9992606
0.99911616
0.99897783
0.99884591
0.99871692
0.99858944
0.9984664
0.99834296
0.99822118
0.99809758
0.9979727
0.99784669
1.0011297
1.0011616
1.0011958
1.001228
1.0012595
1.0012891
1.0013193
1.0013455
1.0013726
1.0013989
1.0014218
1.001441
1.0014577
1.0014687
1.0014725
1.0014711
1.0014641
1.0014481
1.0014221
1.001385
1.0013363
1.001277
1.0012062
1.0011227
1.0010279
1.0009239
1.0008096
1.000685
1.0005526
1.0004135
1.0002689
1.0001209
0.99997088
0.99982139
0.99967231
0.99952439
0.99937936
0.99923875
0.9991016
0.99896948
0.99884256
0.99871848
0.99859552
0.99847638
0.99835682
0.99823863
0.99811889
0.99799798
0.99787548
1.0010757
1.0011012
1.001129
1.001155
1.0011805
1.0012043
1.0012286
1.0012494
1.0012709
1.0012916
1.0013092
1.0013235
1.0013355
1.0013424
1.0013428
1.0013385
1.0013289
1.0013112
1.0012844
1.0012477
1.0012005
1.0011435
1.0010759
1.0009971
1.0009078
1.00081
1.0007029
1.0005864
1.0004629
1.0003334
1.0001989
1.0000615
0.9999224
0.99978382
0.99964578
0.99950899
0.99937502
0.9992452
0.99911875
0.99899705
0.99888034
0.99876652
0.99865423
0.99854562
0.99843713
0.99833013
0.99822206
0.99811315
0.99800323
1.0010188
1.0010399
1.0010631
1.0010845
1.0011055
1.0011249
1.0011446
1.0011612
1.0011784
1.0011946
1.0012081
1.0012185
1.0012267
1.0012302
1.001228
1.0012213
1.0012096
1.0011906
1.0011632
1.0011268
1.0010808
1.0010257
1.0009609
1.0008858
1.000801
1.0007083
1.0006069
1.000497
1.0003807
1.0002587
1.0001322
1.0000029
0.99987183
0.99974114
0.99961086
0.99948165
0.99935485
0.9992317
0.99911152
0.99899552
0.99888388
0.99877507
0.99866763
0.99856368
0.99845995
0.99835777
0.99825483
0.99815135
0.99804678
1.0009671
1.0009842
1.0010032
1.0010207
1.0010378
1.0010534
1.0010693
1.0010824
1.0010959
1.0011085
1.0011185
1.0011256
1.0011306
1.0011313
1.0011268
1.0011181
1.0011046
1.0010844
1.0010566
1.0010204
1.0009754
1.000922
1.0008596
1.0007878
1.0007071
1.0006189
1.0005227
1.0004188
1.000309
1.0001939
1.0000747
0.99995301
0.99982974
0.99970682
0.99958434
0.99946298
0.99934396
0.99922841
0.99911578
0.99900717
0.99890281
0.99880135
0.99870151
0.99860523
0.99850953
0.99841564
0.99832143
0.99822712
0.99813228
1.0009163
1.0009303
1.0009461
1.0009605
1.0009745
1.0009872
1.001
1.0010103
1.0010208
1.0010304
1.0010375
1.001042
1.0010443
1.0010427
1.0010363
1.0010259
1.0010111
1.0009899
1.0009617
1.0009257
1.0008817
1.0008298
1.0007696
1.0007006
1.0006234
1.0005392
1.0004476
1.0003489
1.0002446
1.0001355
1.0000226
0.99990736
0.99979062
0.99967413
0.99955801
0.99944292
0.99932996
0.99922018
0.99911309
0.99900969
0.9989102
0.99881356
0.9987185
0.99862694
0.9985361
0.99844718
0.99835826
0.99826956
0.99818047
1.0008692
1.0008805
1.0008935
1.0009052
1.0009166
1.0009267
1.0009369
1.0009448
1.0009528
1.0009597
1.0009645
1.0009667
1.0009668
1.0009633
1.0009553
1.0009435
1.0009274
1.0009054
1.000877
1.0008413
1.0007981
1.0007476
1.0006893
1.0006229
1.0005489
1.0004683
1.0003808
1.0002868
1.0001876
1.000084
0.99997676
0.99986743
0.99975674
0.9996463
0.99953626
0.99942726
0.99932033
0.99921647
0.99911524
0.99901759
0.99892377
0.99883286
0.9987437
0.99865811
0.99857351
0.99849105
0.99840896
0.99832746
0.99824601
1.0008242
1.0008333
1.000844
1.0008535
1.0008627
1.0008707
1.0008787
1.0008846
1.0008905
1.0008953
1.0008981
1.0008984
1.0008966
1.0008915
1.0008821
1.0008692
1.0008521
1.0008295
1.0008009
1.0007655
1.0007231
1.0006739
1.0006174
1.0005534
1.0004822
1.0004049
1.0003211
1.0002313
1.0001367
1.0000379
0.99993585
0.99983182
0.99972653
0.99962147
0.99951679
0.99941312
0.99931142
0.99921261
0.9991163
0.99902338
0.9989341
0.99884768
0.99876302
0.99868192
0.99860192
0.9985242
0.99844708
0.99837085
0.99829484
1.0007821
1.0007894
1.0007981
1.0008057
1.0008129
1.0008191
1.0008253
1.0008295
1.0008335
1.0008365
1.0008375
1.0008362
1.0008329
1.0008263
1.0008159
1.0008019
1.0007841
1.000761
1.0007322
1.0006972
1.0006556
1.0006076
1.0005528
1.0004909
1.0004224
1.000348
1.0002677
1.0001817
1.0000913
0.999997
0.99989969
0.99980054
0.99970027
0.99960023
0.99950059
0.99940199
0.99930532
0.99921144
0.99912003
0.99903192
0.99894737
0.99886571
0.99878593
0.99870975
0.99863486
0.99856241
0.99849083
0.99842043
0.99835056
1.0007422
1.000748
1.000755
1.000761
1.0007667
1.0007713
1.0007759
1.0007786
1.0007811
1.0007825
1.0007821
1.0007794
1.0007747
1.000767
1.0007556
1.0007408
1.0007223
1.0006989
1.0006701
1.0006355
1.0005946
1.0005478
1.0004944
1.0004346
1.0003685
1.0002969
1.0002198
1.0001373
1.0000508
0.99996061
0.99986766
0.99977302
0.99967735
0.99958193
0.99948694
0.99939297
0.99930089
0.9992115
0.9991245
0.99904067
0.99896028
0.99888274
0.99880712
0.99873506
0.9986644
0.99859627
0.99852919
0.99846351
0.99839852
1.0007048
1.0007093
1.0007148
1.0007194
1.0007237
1.000727
1.0007302
1.0007317
1.0007328
1.0007329
1.0007311
1.0007273
1.0007215
1.0007127
1.0007005
1.0006851
1.0006661
1.0006424
1.0006137
1.0005794
1.0005393
1.0004936
1.0004417
1.0003837
1.00032
1.000251
1.0001767
1.0000976
1.0000146
0.99992831
0.99983941
0.99974897
0.99965762
0.99956653
0.99947591
0.99938634
0.99929863
0.99921354
0.99913081
0.99905118
0.99897491
0.99890151
0.99883009
0.99876223
0.99869591
0.99863221
0.99856976
0.9985089
0.99844893
1.0006695
1.0006728
1.0006771
1.0006805
1.0006836
1.0006858
1.0006878
1.0006881
1.0006881
1.000687
1.0006842
1.0006793
1.0006725
1.000663
1.0006501
1.0006341
1.0006147
1.0005908
1.0005622
1.0005284
1.000489
1.0004443
1.0003939
1.0003377
1.0002761
1.0002095
1.0001381
1.000062
0.99998241
0.99989967
0.99981455
0.99972804
0.99964072
0.9995537
0.99946718
0.99938173
0.99929812
0.99921705
0.99913829
0.99906254
0.99899007
0.99892042
0.99885279
0.99878867
0.99872617
0.99866634
0.99860787
0.99855115
0.99849543
1.0006363
1.0006386
1.0006418
1.0006442
1.0006462
1.0006474
1.0006483
1.0006478
1.0006467
1.0006446
1.0006408
1.0006351
1.0006275
1.0006172
1.0006038
1.0005874
1.0005676
1.0005437
1.0005152
1.0004818
1.0004432
1.0003995
1.0003505
1.000296
1.0002364
1.0001721
1.0001033
1.0000302
0.99995368
0.99987431
0.99979276
0.99970995
0.99962644
0.99954326
0.99946062
0.99937908
0.99929936
0.99922213
0.99914719
0.99907519
0.9990064
0.99894041
0.99887649
0.99881604
0.9987573
0.99870126
0.99864671
0.99859405
0.9985425
1.0006049
1.0006064
1.0006087
1.0006101
1.0006113
1.0006116
1.0006116
1.0006102
1.0006083
1.0006053
1.0006007
1.0005942
1.0005858
1.000575
1.0005611
1.0005443
1.0005243
1.0005004
1.0004721
1.0004392
1.0004013
1.0003587
1.0003109
1.0002581
1.0002004
1.0001383
1.0000719
1.0000016
0.9999281
0.99985192
0.99977374
0.99969442
0.9996145
0.99953496
0.999456
0.99937817
0.99930214
0.99922855
0.99915721
0.99908874
0.9990234
0.99896082
0.99890033
0.99884325
0.99878793
0.99873531
0.99868427
0.99863519
0.99858729
1.0005753
1.0005761
1.0005775
1.0005782
1.0005785
1.0005781
1.0005773
1.0005751
1.0005725
1.0005687
1.0005634
1.0005562
1.0005473
1.0005359
1.0005217
1.0005046
1.0004845
1.0004606
1.0004326
1.0004001
1.000363
1.0003214
1.0002749
1.0002236
1.0001678
1.0001078
1.0000438
0.99997604
0.99990537
0.99983221
0.99975722
0.99968121
0.99960471
0.99952863
0.99945316
0.99937886
0.99930635
0.99923623
0.99916834
0.99910326
0.99904123
0.99898194
0.99892475
0.99887091
0.99881888
0.99876956
0.99872187
0.99867622
0.99863182
1.0005473
1.0005475
1.0005481
1.0005481
1.0005478
1.0005467
1.0005452
1.0005424
1.0005391
1.0005347
1.0005287
1.000521
1.0005115
1.0004997
1.0004852
1.000468
1.0004477
1.0004239
1.0003962
1.0003643
1.0003279
1.0002873
1.000242
1.0001923
1.0001382
1.0000802
1.0000184
0.99995318
0.9998852
0.99981492
0.99974297
0.99967011
0.99959686
0.99952406
0.99945193
0.99938098
0.99931182
0.99924501
0.99918039
0.99911853
0.99905964
0.99900343
0.99894935
0.99889852
0.99884954
0.99880323
0.99875861
0.99871605
0.99867478
1.0005208
1.0005204
1.0005205
1.0005199
1.0005189
1.0005172
1.0005151
1.0005117
1.0005078
1.0005028
1.0004964
1.0004882
1.0004783
1.0004661
1.0004514
1.000434
1.0004138
1.0003901
1.0003627
1.0003313
1.0002957
1.000256
1.000212
1.0001637
1.0001114
1.0000553
0.99999563
0.99993278
0.99986737
0.99979983
0.99973077
0.99966091
0.99959075
0.99952108
0.99945213
0.99938439
0.99931844
0.99925477
0.99919329
0.9991345
0.99907861
0.99902536
0.99897423
0.99892629
0.99888021
0.99883677
0.99879504
0.99875542
0.99871709
1.0004957
1.0004948
1.0004943
1.0004932
1.0004917
1.0004894
1.0004868
1.000483
1.0004785
1.0004731
1.0004661
1.0004576
1.0004473
1.0004349
1.0004199
1.0004025
1.0003823
1.0003588
1.0003317
1.0003009
1.0002661
1.0002274
1.0001845
1.0001377
1.000087
1.0000327
0.99997517
0.9999146
0.99985164
0.99978672
0.99972042
0.99965343
0.99958622
0.99951955
0.99945363
0.99938895
0.99932605
0.99926539
0.99920689
0.99915103
0.99909798
0.99904753
0.99899919
0.99895395
0.99891058
0.99886979
0.99883073
0.99879378
0.99875812
1.0004718
1.0004705
1.0004695
1.0004679
1.000466
1.0004633
1.0004602
1.0004559
1.0004511
1.0004451
1.0004378
1.0004289
1.0004184
1.0004057
1.0003907
1.0003732
1.0003531
1.0003298
1.0003032
1.0002729
1.0002388
1.0002011
1.0001594
1.0001139
1.0000648
1.0000124
0.99995681
0.99989843
0.99983783
0.99977542
0.99971176
0.9996475
0.99958312
0.99951931
0.99945629
0.99939453
0.99933454
0.99927675
0.9992211
0.99916802
0.9991177
0.99906991
0.99902423
0.99898154
0.99894074
0.99890247
0.99886593
0.99883148
0.99879833
1.0004491
1.0004474
1.000446
1.000444
1.0004416
1.0004386
1.000435
1.0004305
1.0004252
1.0004189
1.0004113
1.0004021
1.0003913
1.0003785
1.0003634
1.000346
1.000326
1.000303
1.0002767
1.000247
1.0002138
1.0001769
1.0001364
1.0000923
1.0000447
0.99999404
0.99994038
0.99988411
0.99982577
0.99976576
0.99970463
0.99964299
0.9995813
0.99952022
0.99945997
0.999401
0.99934379
0.99928874
0.9992358
0.99918538
0.99913763
0.99909237
0.99904919
0.99900892
0.99897052
0.99893459
0.99890037
0.99886824
0.99883738
1.0004274
1.0004254
1.0004236
1.0004213
1.0004186
1.0004152
1.0004113
1.0004064
1.0004008
1.0003943
1.0003863
1.000377
1.000366
1.0003531
1.000338
1.0003206
1.0003008
1.0002781
1.0002523
1.0002232
1.0001907
1.0001548
1.0001154
1.0000726
1.0000265
0.99997751
0.99992571
0.99987146
0.99981529
0.99975758
0.99969888
0.99963974
0.99958063
0.99952216
0.99946456
0.99940825
0.99935369
0.99930126
0.9992509
0.999203
0.99915771
0.99911485
0.99907405
0.99903606
0.99899993
0.9989662
0.99893418
0.99890421
0.99887549
1.0004066
1.0004044
1.0004023
1.0003997
1.0003967
1.000393
1.0003888
1.0003837
1.0003778
1.000371
1.0003629
1.0003533
1.0003422
1.0003293
1.0003142
1.000297
1.0002773
1.0002549
1.0002296
1.0002011
1.0001694
1.0001344
1.0000961
1.0000546
1.00001
0.99996265
0.99991264
0.99986034
0.99980626
0.99975077
0.99969438
0.99963765
0.999581
0.99952503
0.99946995
0.99941618
0.99936414
0.9993142
0.9992663
0.99922081
0.99917784
0.99913725
0.9990987
0.99906286
0.99902886
0.99899719
0.9989672
0.99893922
0.99891247
1.0003868
1.0003843
1.000382
1.0003791
1.0003758
1.0003719
1.0003675
1.0003621
1.0003561
1.000349
1.0003407
1.0003311
1.0003199
1.0003069
1.0002919
1.0002748
1.0002554
1.0002334
1.0002085
1.0001807
1.0001497
1.0001157
1.0000785
1.0000383
0.99999513
0.99994932
0.99990104
0.99985063
0.99979856
0.99974519
0.99969103
0.99963659
0.9995823
0.99952871
0.99947604
0.99942469
0.99937506
0.99932748
0.99928192
0.9992387
0.99919795
0.99915951
0.99912309
0.99908928
0.99905728
0.99902755
0.99899947
0.99897336
0.99894845
1.0003677
1.000365
1.0003625
1.0003594
1.0003559
1.0003518
1.0003472
1.0003417
1.0003354
1.0003282
1.0003198
1.0003101
1.0002989
1.000286
1.0002711
1.0002542
1.000235
1.0002133
1.000189
1.0001618
1.0001316
1.0000985
1.0000624
1.0000234
0.99998167
0.99993739
0.9998908
0.99984221
0.99979207
0.99974075
0.99968871
0.99963648
0.99958443
0.99953312
0.99948275
0.9994337
0.99938635
0.99934102
0.99929767
0.99925662
0.99921795
0.99918155
0.99914713
0.99911523
0.99908511
0.99905719
0.99903089
0.9990065
0.99898328
1.0003493
1.0003465
1.0003438
1.0003406
1.0003369
1.0003327
1.0003279
1.0003222
1.0003159
1.0003086
1.0003001
1.0002903
1.0002791
1.0002662
1.0002515
1.0002348
1.000216
1.0001947
1.0001708
1.0001443
1.0001149
1.0000827
1.0000477
1.0000099
0.99996954
0.99992677
0.9998818
0.99983497
0.9997867
0.99973733
0.99968734
0.99963721
0.99958731
0.99953816
0.99948998
0.99944311
0.99939794
0.99935473
0.99931349
0.99927448
0.99923779
0.99920331
0.99917077
0.99914067
0.99911232
0.9990861
0.99906146
0.99903869
0.99901705
1.0003316
1.0003287
1.0003259
1.0003225
1.0003187
1.0003143
1.0003094
1.0003037
1.0002972
1.0002899
1.0002814
1.0002716
1.0002604
1.0002477
1.0002331
1.0002167
1.0001981
1.0001773
1.000154
1.0001281
1.0000995
1.0000683
1.0000343
0.99999772
0.99995866
0.99991734
0.99987395
0.99982882
0.99978234
0.99973487
0.99968683
0.99963871
0.99959086
0.99954377
0.99949766
0.99945287
0.99940975
0.99936856
0.9993293
0.99929221
0.99925739
0.99922471
0.99919395
0.99916553
0.99913884
0.9991142
0.9990911
0.99906982
0.99904964
1.0003145
1.0003115
1.0003086
1.0003051
1.0003012
1.0002968
1.0002918
1.000286
1.0002795
1.0002721
1.0002636
1.0002539
1.0002428
1.0002302
1.0002158
1.0001997
1.0001815
1.0001611
1.0001384
1.0001131
1.0000853
1.000055
1.0000221
0.99998668
0.99994892
0.99990902
0.99986717
0.99982368
0.99977893
0.99973327
0.99968711
0.9996409
0.99959501
0.99954988
0.99950574
0.99946291
0.99942173
0.99938243
0.99934504
0.99930976
0.99927669
0.99924571
0.99921662
0.99918978
0.99916464
0.99914147
0.99911982
0.99909994
0.99908111
1.000298
1.0002949
1.0002919
1.0002884
1.0002845
1.00028
1.0002749
1.0002691
1.0002626
1.0002552
1.0002467
1.0002371
1.0002261
1.0002137
1.0001996
1.0001837
1.0001659
1.000146
1.0001238
1.0000993
1.0000723
1.0000429
1.000011
0.99997673
0.99994024
0.99990173
0.99986137
0.99981947
0.99977639
0.99973247
0.99968811
0.99964373
0.9995997
0.99955643
0.99951414
0.99947317
0.9994338
0.9993963
0.99936065
0.99932708
0.99929565
0.99926626
0.99923872
0.99921335
0.99918965
0.99916786
0.99914754
0.99912893
0.99911134
1.0002819
1.0002789
1.0002758
1.0002723
1.0002683
1.0002638
1.0002588
1.0002529
1.0002464
1.0002391
1.0002307
1.0002212
1.0002104
1.0001981
1.0001843
1.0001687
1.0001513
1.0001319
1.0001103
1.0000865
1.0000603
1.0000318
1.0000009
0.99996779
0.99993256
0.9998954
0.99985649
0.99981613
0.99977466
0.99973241
0.99968977
0.99964714
0.99960487
0.99956335
0.99952283
0.99948359
0.99944594
0.9994101
0.9993761
0.99934411
0.99931422
0.99928631
0.99926022
0.99923623
0.99921387
0.99919336
0.99917428
0.99915687
0.99914045
1.0002664
1.0002633
1.0002603
1.0002567
1.0002527
1.0002482
1.0002432
1.0002375
1.000231
1.0002237
1.0002154
1.000206
1.0001954
1.0001834
1.0001699
1.0001547
1.0001377
1.0001188
1.0000978
1.0000746
1.0000492
1.0000216
0.99999179
0.99995981
0.9999258
0.99988996
0.99985246
0.99981359
0.99977368
0.99973304
0.99969205
0.99965108
0.99961048
0.99957062
0.99953174
0.99949414
0.99945809
0.99942381
0.99939133
0.99936083
0.99933235
0.99930583
0.99928108
0.99925836
0.99923723
0.99921789
0.99919995
0.99918362
0.99916824
1.0002513
1.0002483
1.0002452
1.0002417
1.0002377
1.0002333
1.0002283
1.0002226
1.0002162
1.0002091
1.0002009
1.0001917
1.0001813
1.0001695
1.0001563
1.0001414
1.0001249
1.0001065
1.0000861
1.0000637
1.0000391
1.0000124
0.99998358
0.99995271
0.99991991
0.99988537
0.99984924
0.99981182
0.99977341
0.99973432
0.9996949
0.99965551
0.99961649
0.99957819
0.99954086
0.99950478
0.99947022
0.9994374
0.99940633
0.9993772
0.99935004
0.99932479
0.99930128
0.99927974
0.99925976
0.99924152
0.99922464
0.99920933
0.99919495
1.0002366
1.0002336
1.0002306
1.0002271
1.0002233
1.0002189
1.000214
1.0002084
1.0002021
1.0001951
1.0001871
1.000178
1.0001678
1.0001564
1.0001435
1.000129
1.000113
1.0000951
1.0000753
1.0000536
1.0000298
1.000004
0.99997621
0.99994644
0.99991483
0.99988155
0.99984677
0.99981076
0.99977381
0.9997362
0.99969828
0.9996604
0.99962287
0.99958604
0.99955016
0.9995155
0.99948232
0.99945084
0.99942108
0.99939321
0.99936726
0.99934317
0.99932079
0.99930031
0.99928137
0.9992641
0.99924816
0.99923372
0.9992202
1.0002224
1.0002195
1.0002165
1.0002131
1.0002093
1.000205
1.0002002
1.0001947
1.0001886
1.0001817
1.0001738
1.000165
1.0001551
1.0001439
1.0001314
1.0001174
1.0001018
1.0000845
1.0000653
1.0000443
1.0000213
0.99999646
0.99996964
0.99994095
0.99991052
0.99987849
0.99984502
0.99981037
0.99977483
0.99973866
0.99970218
0.99966572
0.9996296
0.99959415
0.99955962
0.99952628
0.99949439
0.99946414
0.99943557
0.99940885
0.999384
0.99936096
0.99933962
0.99932011
0.99930213
0.99928577
0.99927073
0.99925716
0.99924449
1.0002086
1.0002058
1.0002029
1.0001996
1.0001959
1.0001916
1.0001869
1.0001816
1.0001756
1.0001689
1.0001612
1.0001526
1.000143
1.0001321
1.00012
1.0001064
1.0000913
1.0000745
1.0000561
1.0000358
1.0000136
0.99998964
0.99996381
0.99993621
0.99990692
0.99987612
0.99984394
0.99981062
0.99977645
0.99974166
0.99970656
0.99967146
0.99963667
0.99960252
0.99956925
0.99953713
0.99950641
0.99947729
0.99944981
0.99942411
0.99940024
0.99937814
0.99935769
0.99933903
0.99932185
0.99930625
0.99929192
0.99927902
0.99926698
1.0001953
1.0001925
1.0001897
1.0001865
1.0001829
1.0001788
1.0001742
1.000169
1.0001632
1.0001566
1.0001492
1.0001409
1.0001315
1.000121
1.0001092
1.0000961
1.0000815
1.0000653
1.0000475
1.0000279
1.0000066
0.99998353
0.99995868
0.99993215
0.99990401
0.99987442
0.9998435
0.99981149
0.99977865
0.9997452
0.99971142
0.99967761
0.99964408
0.99961115
0.99957906
0.99954807
0.99951843
0.99949031
0.99946379
0.999439
0.99941598
0.99939469
0.99937504
0.99935713
0.99934071
0.99932584
0.99931226
0.99930008
0.99928878
1.0001824
1.0001797
1.000177
1.0001739
1.0001704
1.0001664
1.000162
1.0001569
1.0001513
1.0001449
1.0001378
1.0001297
1.0001206
1.0001104
1.0000991
1.0000864
1.0000723
1.0000567
1.0000396
1.0000208
1.0000003
0.99997808
0.99995422
0.99992876
0.99990175
0.99987335
0.99984367
0.99981295
0.99978141
0.99974925
0.99971674
0.99968417
0.99965184
0.99962006
0.99958907
0.99955912
0.99953045
0.99950322
0.99947752
0.99945349
0.99943117
0.99941053
0.9993915
0.99937417
0.99935829
0.9993439
0.99933076
0.99931897
0.99930802
1.0001699
1.0001674
1.0001648
1.0001618
1.0001584
1.0001546
1.0001503
1.0001454
1.0001399
1.0001338
1.0001268
1.000119
1.0001103
1.0001005
1.0000895
1.0000773
1.0000638
1.0000488
1.0000323
1.0000142
0.99999454
0.99997326
0.99995039
0.99992598
0.99990011
0.99987289
0.99984444
0.99981498
0.99978471
0.99975381
0.99972253
0.99969115
0.99965997
0.9996293
0.99959934
0.99957033
0.99954251
0.99951603
0.99949101
0.99946757
0.9994458
0.99942569
0.99940717
0.99939035
0.999375
0.99936118
0.99934865
0.99933749
0.99932724
1.0001579
1.0001555
1.000153
1.0001501
1.0001469
1.0001432
1.0001391
1.0001344
1.0001291
1.0001232
1.0001165
1.0001089
1.0001005
1.000091
1.0000805
1.0000688
1.0000558
1.0000414
1.0000256
1.0000083
0.99998941
0.99996904
0.99994715
0.9999238
0.99989905
0.999873
0.99984577
0.99981756
0.99978855
0.99975888
0.9997288
0.99969858
0.99966852
0.9996389
0.9996099
0.99958174
0.99955463
0.99952876
0.99950424
0.99948122
0.99945981
0.99944001
0.99942177
0.99940517
0.99939001
0.99937631
0.99936384
0.99935269
0.99934236
1.0001464
1.0001441
1.0001417
1.0001389
1.0001358
1.0001323
1.0001283
1.0001238
1.0001187
1.000113
1.0001066
1.0000993
1.0000912
1.0000821
1.000072
1.0000607
1.0000483
1.0000345
1.0000194
1.0000028
0.99998484
0.99996538
0.99994447
0.99992218
0.99989854
0.99987367
0.99984765
0.99982069
0.99979291
0.99976446
0.99973555
0.99970649
0.99967754
0.99964892
0.99962081
0.99959338
0.99956686
0.99954143
0.99951723
0.99949446
0.99947324
0.99945361
0.99943556
0.9994192
0.99940437
0.99939109
0.99937918
0.99936869
0.99935918
1.0001352
1.000133
1.0001308
1.0001281
1.0001252
1.0001218
1.000118
1.0001137
1.0001089
1.0001034
1.0000972
1.0000902
1.0000824
1.0000737
1.000064
1.0000532
1.0000413
1.0000282
1.0000138
0.99999796
0.99998079
0.99996224
0.99994232
0.99992109
0.99989857
0.99987487
0.99985006
0.99982434
0.99979779
0.99977054
0.99974282
0.99971492
0.99968707
0.99965943
0.99963212
0.99960532
0.99957923
0.99955407
0.99953002
0.99950729
0.99948603
0.9994663
0.9994481
0.99943151
0.99941637
0.99940269
0.99939025
0.99937913
0.99936886
1.0001244
1.0001223
1.0001202
1.0001177
1.0001149
1.0001117
1.0001081
1.000104
1.0000994
1.0000942
1.0000883
1.0000816
1.0000742
1.0000658
1.0000565
1.0000462
1.0000349
1.0000223
1.0000086
0.99999358
0.99997724
0.99995961
0.99994068
0.99992051
0.99989912
0.99987659
0.999853
0.99982852
0.99980321
0.99977715
0.99975064
0.99972393
0.99969717
0.99967047
0.99964389
0.99961759
0.99959181
0.99956679
0.99954273
0.99951988
0.99949842
0.99947848
0.99946012
0.99944348
0.99942849
0.99941519
0.99940343
0.99939321
0.9993842
1.0001138
1.000112
1.0001099
1.0001076
1.000105
1.000102
1.0000986
1.0000947
1.0000903
1.0000854
1.0000798
1.0000734
1.0000663
1.0000584
1.0000495
1.0000397
1.0000288
1.0000169
1.0000039
0.99998965
0.99997417
0.99995745
0.99993951
0.9999204
0.99990013
0.99987879
0.99985643
0.99983322
0.99980915
0.99978433
0.99975908
0.9997336
0.99970795
0.99968213
0.9996562
0.99963032
0.99960474
0.99957972
0.9995555
0.99953232
0.99951038
0.99948984
0.99947074
0.9994532
0.99943711
0.99942247
0.9994091
0.99939706
0.99938591
1.0001037
1.0001019
1.0001
1.0000978
1.0000953
1.0000925
1.0000893
1.0000856
1.0000815
1.0000768
1.0000716
1.0000656
1.0000589
1.0000514
1.0000429
1.0000336
1.0000233
1.000012
0.99999962
0.99998614
0.9999715
0.99995569
0.99993874
0.99992068
0.99990154
0.99988138
0.99986025
0.99983831
0.99981551
0.99979198
0.99976808
0.9997439
0.99971938
0.99969444
0.99966914
0.99964367
0.99961827
0.9995932
0.9995687
0.99954504
0.99952248
0.99950126
0.99948156
0.99946364
0.99944755
0.99943342
0.99942119
0.99941081
0.99940209
1.0000938
1.0000921
1.0000903
1.0000882
1.0000859
1.0000832
1.0000802
1.0000768
1.0000729
1.0000686
1.0000637
1.0000581
1.0000518
1.0000447
1.0000368
1.0000279
1.0000181
1.0000074
0.99999573
0.99998303
0.99996924
0.99995436
0.99993842
0.99992145
0.99990345
0.99988448
0.99986458
0.9998439
0.99982234
0.9998001
0.99977761
0.99975475
0.99973134
0.99970727
0.99968265
0.99965766
0.99963252
0.99960744
0.99958261
0.99955828
0.99953472
0.99951214
0.99949073
0.99947068
0.99945199
0.99943472
0.99941874
0.99940416
0.99939052
1.0000844
1.0000827
1.000081
1.000079
1.0000768
1.0000742
1.0000714
1.0000682
1.0000646
1.0000605
1.000056
1.0000508
1.000045
1.0000385
1.000031
1.0000227
1.0000134
1.0000033
0.99999231
0.9999804
0.99996751
0.99995361
0.99993872
0.9999229
0.99990611
0.9998884
0.99986978
0.99985043
0.99983017
0.99980932
0.9997883
0.99976674
0.99974436
0.99972112
0.99969719
0.9996727
0.99964783
0.9996227
0.99959747
0.99957242
0.99954784
0.9995241
0.99950158
0.99948075
0.99946197
0.99944559
0.9994318
0.99942052
0.99941185
1.0000753
1.0000737
1.000072
1.0000701
1.000068
1.0000656
1.0000629
1.0000598
1.0000564
1.0000527
1.0000485
1.0000437
1.0000384
1.0000324
1.0000256
1.0000179
1.0000092
0.99999966
0.99998927
0.9999781
0.99996605
0.99995303
0.9999391
0.99992429
0.9999086
0.99989216
0.99987493
0.99985707
0.99983835
0.99981926
0.9998
0.99977997
0.99975889
0.99973681
0.99971389
0.99969019
0.99966575
0.99964057
0.99961475
0.99958847
0.99956201
0.99953567
0.99950977
0.99948463
0.99946043
0.99943733
0.99941532
0.99939475
0.99937508
1.0000668
1.0000653
1.0000636
1.0000617
1.0000595
1.0000571
1.0000545
1.0000516
1.0000485
1.000045
1.0000411
1.0000368
1.000032
1.0000266
1.0000204
1.0000133
1.0000051
0.999996
0.99998607
0.99997548
0.9999641
0.9999518
0.99993861
0.99992461
0.99990982
0.99989437
0.99987822
0.99986158
0.99984417
0.99982665
0.99980925
0.99979075
0.99977132
0.99975098
0.99972989
0.99970784
0.99968477
0.9996605
0.99963503
0.99960843
0.99958095
0.99955297
0.99952514
0.99949836
0.99947368
0.99945206
0.99943443
0.99942095
0.99941211
1.0000584
1.0000568
1.000055
1.0000531
1.0000511
1.0000489
1.0000466
1.000044
1.0000411
1.0000379
1.0000344
1.0000304
1.000026
1.000021
1.0000153
1.0000088
1.0000013
0.99999277
0.9999835
0.99997373
0.99996335
0.99995218
0.99994032
0.99992779
0.99991446
0.99990022
0.99988506
0.9998694
0.99985272
0.99983569
0.99981963
0.99980172
0.9997832
0.99976374
0.99974381
0.99972274
0.99970066
0.99967701
0.99965189
0.99962498
0.99959653
0.99956643
0.99953486
0.99950174
0.99946734
0.99943156
0.99939511
0.99935802
0.99932223
1.0000512
1.0000496
1.0000479
1.000046
1.0000439
1.0000417
1.0000392
1.0000366
1.0000338
1.0000307
1.0000274
1.0000237
1.0000198
1.0000155
1.0000108
1.0000055
0.99999941
0.99999219
0.99998394
0.99997544
0.99996681
0.99995765
0.999948
0.99993788
0.99992707
0.9999154
0.99990283
0.99988996
0.99987585
0.99986245
0.99984798
0.99983211
0.99981515
0.99979709
0.99977818
0.99975772
0.99973593
0.99971185
0.99968575
0.99965654
0.99962487
0.99959014
0.99955371
0.9995167
0.99948111
0.99944893
0.99942467
0.99940659
0.99940321
1.0000432
1.0000405
1.0000379
1.0000354
1.000033
1.0000308
1.0000287
1.0000267
1.0000245
1.0000221
1.0000195
1.0000168
1.0000138
1.0000104
1.0000065
1.000002
0.99999656
0.99998941
0.99998079
0.99997212
0.99996344
0.99995405
0.99994389
0.99993306
0.99992187
0.9999108
0.99989968
0.99988886
0.99987768
0.9998729
0.99985804
0.99984833
0.99983549
0.9998245
0.99981093
0.99979733
0.99978119
0.99976393
0.99974368
0.99972103
0.99969426
0.99966313
0.99962309
0.99957618
0.99951736
0.99944698
0.99936358
0.99926569
0.99916833
1.0000355
1.0000339
1.0000322
1.0000314
1.0000306
1.0000298
1.0000286
1.0000272
1.0000254
1.0000231
1.0000203
1.0000167
1.0000121
1.0000067
1.0000004