/*--------------------------------*- C++ -*----------------------------------*\
| =========                 |                                                 |
| \\      /  F ield         | OpenFOAM: The Open Source CFD Toolbox           |
|  \\    /   O peration     | Version:  v2006                                 |
|   \\  /    A nd           | Website:  www.openfoam.com                      |
|    \\/     M anipulation  |                                                 |
\*---------------------------------------------------------------------------*/
FoamFile
{
    version     2.0;
    format      ascii;
    class       volScalarField;
    location    "2500";
    object      T;
}
// * * * * * * * * * * * * * * * * * * * * * * * * * * * * * * * * * * * * * //

dimensions      [0 0 0 1 0 0 0];


internalField   nonuniform List<scalar> 
19765
(
1.0003129
1.000383
1.0005185
1.0006659
1.0007905
1.0009013
1.0010074
1.0010976
1.0011752
1.0012462
1.001305
1.001347
1.0013755
1.0013941
1.0014025
1.0014005
1.001387
1.0013657
1.0013341
1.001293
1.0012449
1.0011886
1.0011224
1.0010433
1.0009545
1.0008664
1.000778
1.0006754
1.0005651
1.0004559
1.0003366
1.000201
1.000038
0.99986494
0.99972523
0.99960274
0.99944098
0.99926571
0.99911549
0.99892406
0.99868971
0.9985415
0.99844608
0.9983623
0.99838019
0.99842269
0.99853076
0.99868692
0.9988373
1.0005731
1.0006308
1.0006963
1.0007697
1.0008453
1.0009177
1.0009864
1.0010489
1.0011057
1.0011584
1.0012054
1.0012443
1.0012755
1.0012986
1.0013123
1.0013176
1.0013155
1.0013043
1.0012828
1.0012512
1.0012099
1.0011594
1.0010995
1.0010304
1.000953
1.0008681
1.0007754
1.000675
1.0005669
1.0004519
1.0003307
1.0002046
1.0000765
0.99994845
0.99981883
0.99968719
0.999557
0.99943065
0.99930852
0.99919537
0.99910194
0.99901681
0.99893656
0.9988674
0.99880495
0.99875471
0.998715
0.99868117
0.99864902
1.0005247
1.0005762
1.0006358
1.0006997
1.0007626
1.0008235
1.0008813
1.0009354
1.0009851
1.0010331
1.0010763
1.0011131
1.0011439
1.0011679
1.0011832
1.0011913
1.0011934
1.0011874
1.0011722
1.0011476
1.0011141
1.0010723
1.0010209
1.0009603
1.0008924
1.0008179
1.0007348
1.0006435
1.0005451
1.0004397
1.0003282
1.0002122
1.0000938
0.99997396
0.99985166
0.9997284
0.99960712
0.99948772
0.99937135
0.99926234
0.99915976
0.99906074
0.99897076
0.99889298
0.99882194
0.99876012
0.99870834
0.99866575
0.99862877
1.0005508
1.0005891
1.0006284
1.0006693
1.0007105
1.0007511
1.0007906
1.000828
1.0008637
1.0008984
1.0009302
1.000958
1.000982
1.0010012
1.0010139
1.0010212
1.0010239
1.0010202
1.0010085
1.000989
1.0009616
1.000927
1.0008844
1.000834
1.000777
1.0007137
1.0006431
1.0005658
1.0004827
1.0003941
1.0003013
1.0002054
1.0001084
1.0000111
0.99991221
0.99981302
0.9997165
0.99962258
0.99953118
0.99944573
0.99936598
0.99928714
0.99921111
0.99913918
0.99906992
0.99900437
0.99893877
0.99887376
0.99880834
1.0005365
1.0005686
1.000601
1.0006336
1.0006657
1.0006971
1.0007275
1.0007563
1.0007839
1.0008107
1.0008354
1.0008571
1.0008761
1.0008913
1.0009015
1.0009074
1.0009093
1.0009059
1.0008957
1.0008785
1.0008543
1.0008235
1.0007856
1.0007405
1.0006891
1.000632
1.0005685
1.0004991
1.0004247
1.0003458
1.0002634
1.0001787
1.0000931
1.0000074
0.99992115
0.99983535
0.99975206
0.99967111
0.99959264
0.99951867
0.99944855
0.99937891
0.99931178
0.9992464
0.99918244
0.99911985
0.99905814
0.99899876
0.99894253
1.000523
1.0005471
1.0005714
1.000596
1.0006201
1.0006437
1.0006668
1.0006889
1.0007101
1.0007309
1.0007501
1.000767
1.0007817
1.0007933
1.0008008
1.0008047
1.0008052
1.000801
1.000791
1.0007749
1.0007524
1.0007239
1.0006893
1.000648
1.000601
1.0005488
1.0004911
1.0004282
1.0003609
1.0002897
1.0002156
1.0001396
1.0000629
0.99998626
0.99990951
0.99983338
0.99975938
0.99968763
0.99961813
0.99955218
0.99948946
0.99942796
0.99936803
0.99930998
0.99925253
0.99919604
0.99913921
0.99908223
0.9990257
1.0004998
1.0005198
1.0005398
1.0005597
1.000579
1.0005977
1.0006159
1.0006333
1.00065
1.0006663
1.0006813
1.0006944
1.0007056
1.0007143
1.0007195
1.0007216
1.0007207
1.0007158
1.0007057
1.0006902
1.0006691
1.0006427
1.0006108
1.0005728
1.0005297
1.0004818
1.000429
1.0003714
1.00031
1.0002452
1.0001777
1.0001085
1.0000387
0.9999689
0.99989907
0.99982984
0.99976244
0.99969687
0.9996332
0.99957242
0.99951417
0.99945665
0.99940055
0.99934538
0.99929064
0.99923608
0.999181
0.99912547
0.99906988
1.0004774
1.0004932
1.0005091
1.0005249
1.0005402
1.000555
1.0005695
1.0005832
1.0005963
1.0006092
1.0006209
1.000631
1.0006395
1.0006457
1.000649
1.0006496
1.0006474
1.0006416
1.0006313
1.0006162
1.000596
1.000571
1.000541
1.0005056
1.0004654
1.0004208
1.0003718
1.0003185
1.0002618
1.0002021
1.00014
1.0000764
1.0000123
0.99994824
0.99988427
0.99982092
0.99975918
0.99969915
0.99964084
0.99958503
0.99953151
0.99947896
0.99942759
0.99937733
0.99932742
0.99927786
0.99922784
0.99917735
0.99912644
1.0004536
1.0004666
1.0004796
1.0004926
1.000505
1.0005169
1.0005285
1.0005395
1.0005499
1.0005601
1.0005692
1.0005769
1.0005831
1.0005874
1.0005891
1.0005883
1.0005851
1.0005785
1.000568
1.0005531
1.0005336
1.0005098
1.0004814
1.0004481
1.0004105
1.0003688
1.0003231
1.0002736
1.0002209
1.0001654
1.0001079
1.000049
0.99998953
0.99993008
0.99987072
0.9998119
0.99975448
0.99969852
0.99964407
0.99959177
0.99954144
0.99949191
0.99944352
0.99939595
0.99934874
0.99930168
0.9992542
0.99920618
0.99915779
1.0004307
1.0004412
1.0004518
1.0004624
1.0004724
1.0004821
1.0004914
1.0005002
1.0005084
1.0005164
1.0005235
1.0005292
1.0005337
1.0005363
1.0005367
1.0005348
1.0005306
1.0005235
1.0005126
1.0004979
1.000479
1.0004561
1.000429
1.0003975
1.0003619
1.0003227
1.0002797
1.0002332
1.0001839
1.000132
1.0000783
1.0000233
0.99996781
0.99991232
0.99985695
0.99980211
0.99974855
0.99969635
0.99964557
0.99959674
0.99954977
0.99950371
0.99945873
0.99941471
0.99937112
0.99932786
0.99928434
0.99924047
0.99919628
1.0004083
1.000417
1.0004257
1.0004344
1.0004426
1.0004505
1.000458
1.000465
1.0004715
1.0004778
1.0004832
1.0004873
1.0004903
1.0004916
1.0004908
1.000488
1.0004831
1.0004753
1.0004643
1.0004497
1.0004313
1.0004091
1.0003832
1.0003532
1.0003194
1.0002823
1.0002417
1.0001979
1.0001515
1.0001028
1.0000523
1.0000007
0.99994864
0.99989653
0.99984452
0.999793
0.99974261
0.99969346
0.99964559
0.99959948
0.99955506
0.9995115
0.99946901
0.99942739
0.99938626
0.99934547
0.99930453
0.99926331
0.9992219
1.0003871
1.0003942
1.0004014
1.0004085
1.0004152
1.0004215
1.0004276
1.0004332
1.0004383
1.0004431
1.0004471
1.00045
1.0004517
1.0004519
1.0004502
1.0004466
1.000441
1.0004328
1.0004216
1.0004071
1.0003891
1.0003677
1.0003427
1.0003139
1.0002818
1.0002464
1.0002079
1.0001665
1.0001226
1.0000766
1.000029
0.99998034
0.99993122
0.99988207
0.99983305
0.99978449
0.999737
0.99969067
0.99964557
0.99960212
0.99956029
0.99951938
0.99947955
0.99944068
0.99940238
0.99936455
0.99932675
0.99928885
0.99925088
1.0003669
1.0003727
1.0003786
1.0003844
1.0003899
1.0003951
1.0003999
1.0004043
1.0004083
1.0004119
1.0004147
1.0004165
1.0004172
1.0004166
1.0004141
1.0004098
1.0004036
1.0003951
1.0003837
1.0003693
1.0003517
1.0003309
1.0003067
1.0002792
1.0002484
1.0002146
1.000178
1.0001386
1.0000969
1.0000534
1.0000083
0.9999623
0.99991582
0.99986931
0.99982291
0.99977697
0.999732
0.99968812
0.9996454
0.99960421
0.99956455
0.99952579
0.99948812
0.99945139
0.99941529
0.99937972
0.9993443
0.99930889
0.99927355
1.0003478
1.0003526
1.0003574
1.0003622
1.0003666
1.0003707
1.0003746
1.000378
1.000381
1.0003836
1.0003855
1.0003864
1.0003862
1.0003848
1.0003816
1.0003768
1.0003702
1.0003613
1.0003499
1.0003356
1.0003183
1.000298
1.0002747
1.0002481
1.0002186
1.0001863
1.0001513
1.0001137
1.0000741
1.0000327
0.99998993
0.99994623
0.99990212
0.99985799
0.99981398
0.99977042
0.99972778
0.99968619
0.99964571
0.9996067
0.99956918
0.99953259
0.9994971
0.99946262
0.99942884
0.99939569
0.99936282
0.99933011
0.99929761
1.0003298
1.0003337
1.0003376
1.0003415
1.0003451
1.0003483
1.0003513
1.0003539
1.0003561
1.0003579
1.0003589
1.0003591
1.0003582
1.0003561
1.0003524
1.0003471
1.0003401
1.000331
1.0003195
1.0003053
1.0002883
1.0002686
1.000246
1.0002203
1.000192
1.000161
1.0001274
1.0000916
1.0000538
1.0000143
0.99997361
0.99993205
0.9998901
0.99984813
0.99980629
0.99976489
0.99972437
0.99968485
0.99964641
0.99960936
0.99957373
0.99953905
0.99950546
0.99947288
0.99944107
0.99940994
0.99937919
0.9993487
0.99931855
1.0003129
1.000316
1.0003192
1.0003223
1.0003251
1.0003277
1.0003299
1.0003318
1.0003332
1.0003343
1.0003347
1.0003342
1.0003327
1.00033
1.0003259
1.0003202
1.0003129
1.0003037
1.0002921
1.000278
1.0002614
1.0002421
1.0002201
1.0001954
1.000168
1.0001383
1.0001061
1.0000718
1.0000357
0.99999798
0.99995915
0.99991953
0.99987956
0.99983959
0.99979976
0.99976036
0.99972182
0.99968425
0.99964772
0.99961255
0.99957876
0.99954594
0.99951422
0.99948355
0.99945369
0.9994246
0.99939598
0.99936774
0.99933994
1.000297
1.0002995
1.000302
1.0003045
1.0003066
1.0003085
1.0003102
1.0003114
1.0003123
1.0003128
1.0003126
1.0003115
1.0003095
1.0003063
1.0003018
1.0002958
1.0002883
1.0002789
1.0002673
1.0002534
1.000237
1.0002182
1.0001969
1.0001729
1.0001465
1.0001179
1.000087
1.0000541
1.0000195
0.99998346
0.99994636
0.99990854
0.99987041
0.99983228
0.99979432
0.99975679
0.99972009
0.99968433
0.99964959
0.99961615
0.99958406
0.99955293
0.99952291
0.99949395
0.99946583
0.99943852
0.99941177
0.99938547
0.99935971
1.000282
1.0002839
1.0002859
1.0002878
1.0002894
1.0002908
1.0002919
1.0002927
1.000293
1.0002929
1.0002922
1.0002906
1.0002882
1.0002847
1.0002798
1.0002736
1.0002658
1.0002563
1.0002448
1.000231
1.000215
1.0001966
1.0001758
1.0001526
1.0001272
1.0000995
1.0000698
1.0000382
1.0000051
0.99997056
0.99993507
0.99989893
0.99986251
0.99982611
0.99978989
0.99975412
0.99971915
0.9996851
0.99965205
0.99962027
0.99958981
0.99956031
0.99953194
0.99950464
0.99947822
0.99945265
0.99942771
0.99940329
0.99937949
1.0002679
1.0002694
1.0002708
1.0002723
1.0002734
1.0002743
1.000275
1.0002753
1.0002751
1.0002746
1.0002735
1.0002715
1.0002687
1.0002648
1.0002597
1.0002532
1.0002453
1.0002357
1.0002242
1.0002106
1.0001949
1.0001769
1.0001568
1.0001343
1.0001096
1.000083
1.0000544
1.000024
0.99999219
0.99995912
0.99992515
0.99989057
0.99985576
0.99982098
0.99978641
0.99975228
0.99971894
0.99968651
0.99965506
0.99962484
0.9995959
0.99956793
0.99954109
0.9995153
0.99949044
0.99946644
0.99944312
0.99942038
0.99939833
1.0002546
1.0002557
1.0002567
1.0002577
1.0002585
1.000259
1.0002592
1.0002591
1.0002586
1.0002577
1.0002561
1.0002538
1.0002507
1.0002465
1.0002412
1.0002345
1.0002265
1.0002169
1.0002055
1.0001921
1.0001766
1.0001591
1.0001394
1.0001176
1.0000938
1.000068
1.0000405
1.0000113
0.99998072
0.999949
0.99991645
0.99988335
0.99985004
0.9998168
0.99978378
0.99975121
0.99971942
0.99968852
0.99965859
0.99962986
0.99960238
0.99957588
0.99955049
0.99952617
0.99950279
0.99948029
0.99945853
0.99943738
0.99941698
1.0002421
1.0002428
1.0002435
1.0002441
1.0002445
1.0002447
1.0002446
1.0002441
1.0002432
1.000242
1.0002401
1.0002375
1.0002341
1.0002297
1.0002241
1.0002173
1.0002093
1.0001996
1.0001883
1.0001751
1.0001599
1.0001428
1.0001237
1.0001025
1.0000794
1.0000546
1.000028
0.9999999
0.99997051
0.99994006
0.99990885
0.99987715
0.99984527
0.99981348
0.99978193
0.99975084
0.99972052
0.99969108
0.99966259
0.99963527
0.99960918
0.99958406
0.99956004
0.99953708
0.99951507
0.99949396
0.99947361
0.99945391
0.99943498
1.0002302
1.0002307
1.0002311
1.0002314
1.0002315
1.0002313
1.0002309
1.0002301
1.0002289
1.0002274
1.0002252
1.0002224
1.0002187
1.0002141
1.0002084
1.0002015
1.0001934
1.0001838
1.0001725
1.0001595
1.0001446
1.0001279
1.0001093
1.0000888
1.0000664
1.0000424
1.0000168
0.99998969
0.99996144
0.9999322
0.99990225
0.99987187
0.99984135
0.99981094
0.99978079
0.99975111
0.99972219
0.99969414
0.99966703
0.99964105
0.99961628
0.99959247
0.99956976
0.9995481
0.99952739
0.99950759
0.99948858
0.99947023
0.9994527
1.0002191
1.0002192
1.0002193
1.0002194
1.0002192
1.0002188
1.0002181
1.000217
1.0002156
1.0002138
1.0002114
1.0002083
1.0002044
1.0001997
1.0001938
1.0001869
1.0001787
1.0001691
1.000158
1.0001452
1.0001306
1.0001143
1.0000962
1.0000762
1.0000546
1.0000314
1.0000066
0.99998057
0.99995339
0.99992529
0.99989656
0.99986744
0.99983821
0.99980911
0.99978029
0.99975195
0.99972437
0.99969764
0.99967183
0.99964714
0.99962362
0.99960106
0.99957958
0.99955914
0.99953965
0.99952106
0.99950328
0.99948618
0.9994699
1.0002085
1.0002084
1.0002083
1.0002081
1.0002077
1.000207
1.0002061
1.0002048
1.0002031
1.0002011
1.0001985
1.0001952
1.0001912
1.0001863
1.0001803
1.0001733
1.0001652
1.0001556
1.0001446
1.000132
1.0001178
1.0001018
1.0000842
1.0000648
1.0000439
1.0000214
0.99999755
0.99997243
0.99994627
0.99991927
0.99989168
0.99986376
0.99983576
0.99980792
0.99978036
0.99975331
0.99972699
0.99970152
0.99967697
0.9996535
0.99963117
0.9996098
0.99958949
0.99957021
0.99955187
0.99953443
0.9995178
0.99950186
0.99948676
1.0001984
1.0001982
1.0001979
1.0001974
1.0001968
1.0001959
1.0001948
1.0001933
1.0001915
1.0001892
1.0001864
1.000183
1.0001788
1.0001738
1.0001678
1.0001608
1.0001526
1.0001432
1.0001323
1.0001199
1.0001059
1.0000904
1.0000732
1.0000545
1.0000342
1.0000124
0.99998938
0.99996517
0.99993999
0.99991403
0.99988755
0.99986077
0.99983395
0.9998073
0.99978095
0.99975512
0.99973002
0.99970575
0.99968239
0.99966009
0.99963889
0.99961865
0.99959944
0.99958125
0.99956399
0.99954762
0.99953206
0.99951719
0.99950316
1.0001889
1.0001885
1.000188
1.0001874
1.0001865
1.0001855
1.0001842
1.0001825
1.0001805
1.0001781
1.0001752
1.0001716
1.0001673
1.0001622
1.0001562
1.0001491
1.000141
1.0001316
1.0001209
1.0001087
1.0000951
1.0000799
1.0000632
1.000045
1.0000253
1.0000043
0.99998206
0.99995872
0.99993447
0.99990952
0.99988409
0.9998584
0.9998327
0.99980719
0.999782
0.99975733
0.99973339
0.99971027
0.99968805
0.99966686
0.99964674
0.99962757
0.99960941
0.99959225
0.999576
0.99956064
0.99954608
0.99953222
0.99951918
1.0001799
1.0001793
1.0001786
1.0001778
1.0001769
1.0001756
1.0001742
1.0001724
1.0001702
1.0001677
1.0001646
1.0001609
1.0001565
1.0001514
1.0001453
1.0001383
1.0001302
1.0001209
1.0001104
1.0000984
1.0000851
1.0000703
1.000054
1.0000364
1.0000173
0.99999699
0.9999755
0.999953
0.99992965
0.99990566
0.99988123
0.99985659
0.99983196
0.99980754
0.99978346
0.9997599
0.99973707
0.99971504
0.9996939
0.99967376
0.99965468
0.99963652
0.99961936
0.99960317
0.99958788
0.99957345
0.99955983
0.99954688
0.99953477
1.0001712
1.0001705
1.0001697
1.0001688
1.0001677
1.0001663
1.0001647
1.0001628
1.0001605
1.0001578
1.0001546
1.0001509
1.0001464
1.0001412
1.0001351
1.0001281
1.0001201
1.000111
1.0001006
1.0000889
1.0000759
1.0000615
1.0000457
1.0000285
1.00001
0.9999904
0.99996965
0.99994795
0.99992547
0.99990239
0.99987893
0.99985529
0.99983168
0.9998083
0.99978528
0.99976278
0.999741
0.99972002
0.99969991
0.99968078
0.99966267
0.99964548
0.99962926
0.99961398
0.9995996
0.99958606
0.9995733
0.99956122
0.99954996
1.0001629
1.0001621
1.0001612
1.0001602
1.0001589
1.0001575
1.0001558
1.0001537
1.0001513
1.0001486
1.0001453
1.0001414
1.000137
1.0001317
1.0001257
1.0001187
1.0001108
1.0001018
1.0000916
1.0000801
1.0000674
1.0000533
1.000038
1.0000213
1.0000035
0.99998447
0.99996443
0.99994351
0.99992186
0.99989967
0.99987713
0.99985444
0.99983181
0.99980943
0.99978741
0.99976593
0.99974515
0.99972517
0.99970603
0.99968786
0.99967069
0.9996544
0.99963907
0.99962467
0.99961113
0.99959841
0.99958647
0.99957519
0.99956471
1.000155
1.0001541
1.0001531
1.000152
1.0001506
1.0001491
1.0001473
1.0001451
1.0001427
1.0001398
1.0001365
1.0001326
1.0001281
1.0001228
1.0001168
1.0001099
1.0001021
1.0000932
1.0000832
1.000072
1.0000596
1.0000459
1.000031
1.0000148
0.99999752
0.99997915
0.9999598
0.99993963
0.99991878
0.99989743
0.99987578
0.99985401
0.99983232
0.99981088
0.99978983
0.9997693
0.99974949
0.99973045
0.99971225
0.99969498
0.99967869
0.99966328
0.99964879
0.9996352
0.99962245
0.99961052
0.99959934
0.9995888
0.99957905
1.0001474
1.0001464
1.0001453
1.0001441
1.0001427
1.0001411
1.0001392
1.000137
1.0001345
1.0001315
1.0001282
1.0001242
1.0001197
1.0001145
1.0001085
1.0001017
1.000094
1.0000852
1.0000754
1.0000645
1.0000524
1.0000391
1.0000246
1.0000089
0.99999215
0.99997439
0.99995571
0.99993626
0.99991619
0.99989565
0.99987484
0.99985395
0.99983315
0.99981262
0.99979248
0.99977288
0.99975397
0.99973583
0.99971851
0.99970211
0.99968666
0.99967206
0.99965837
0.99964555
0.99963356
0.99962235
0.99961187
0.99960203
0.99959296
1.0001401
1.0001391
1.0001379
1.0001366
1.0001352
1.0001335
1.0001315
1.0001292
1.0001267
1.0001237
1.0001203
1.0001164
1.0001118
1.0001066
1.0001007
1.000094
1.0000864
1.0000778
1.0000682
1.0000575
1.0000457
1.0000328
1.0000187
1.0000035
0.99998731
0.99997015
0.99995212
0.99993337
0.99991404
0.99989428
0.99987428
0.99985422
0.99983428
0.99981461
0.99979534
0.99977661
0.99975857
0.99974129
0.99972481
0.99970923
0.99969456
0.99968074
0.9996678
0.99965571
0.99964442
0.99963389
0.99962408
0.99961489
0.99960644
1.0001331
1.000132
1.0001308
1.0001294
1.0001279
1.0001262
1.0001242
1.0001219
1.0001193
1.0001163
1.0001128
1.0001089
1.0001044
1.0000993
1.0000934
1.0000868
1.0000793
1.0000709
1.0000615
1.0000511
1.0000396
1.000027
1.0000134
0.99999866
0.99998297
0.99996639
0.99994899
0.99993091
0.99991229
0.99989328
0.99987406
0.9998548
0.99983567
0.99981683
0.99979839
0.99978049
0.99976327
0.99974679
0.99973111
0.9997163
0.99970238
0.99968929
0.99967705
0.99966564
0.99965501
0.99964512
0.99963593
0.99962734
0.99961947
1.0001263
1.0001252
1.0001239
1.0001225
1.000121
1.0001192
1.0001172
1.0001148
1.0001122
1.0001092
1.0001058
1.0001019
1.0000974
1.0000923
1.0000865
1.00008
1.0000727
1.0000645
1.0000553
1.0000451
1.0000339
1.0000217
1.0000085
0.99999426
0.99997909
0.99996307
0.99994628
0.99992885
0.99991092
0.99989263
0.99987416
0.99985566
0.9998373
0.99981924
0.99980159
0.99978447
0.99976803
0.99975232
0.99973738
0.9997233
0.99971009
0.99969768
0.99968611
0.99967534
0.99966532
0.99965603
0.99964742
0.99963938
0.99963205
1.0001197
1.0001186
1.0001173
1.0001159
1.0001143
1.0001125
1.0001105
1.0001081
1.0001055
1.0001025
1.0000991
1.0000952
1.0000908
1.0000858
1.0000801
1.0000737
1.0000665
1.0000585
1.0000495
1.0000396
1.0000288
1.0000169
1.0000041
0.9999903
0.99997563
0.99996016
0.99994396
0.99992717
0.9999099
0.9998923
0.99987454
0.99985676
0.99983915
0.99982183
0.99980492
0.99978855
0.99977284
0.99975785
0.99974362
0.99973022
0.99971767
0.9997059
0.99969495
0.99968477
0.99967533
0.99966659
0.99965851
0.99965099
0.99964415
1.0001134
1.0001122
1.0001109
1.0001095
1.0001079
1.0001061
1.000104
1.0001017
1.0000991
1.0000961
1.0000927
1.0000889
1.0000845
1.0000796
1.000074
1.0000677
1.0000607
1.0000529
1.0000442
1.0000345
1.000024
1.0000125
1.0000001
0.99998674
0.99997257
0.99995763
0.99994201
0.99992583
0.9999092
0.99989226
0.99987518
0.9998581
0.99984119
0.99982458
0.99980838
0.99979271
0.99977768
0.99976337
0.9997498
0.99973704
0.9997251
0.99971393
0.99970354
0.99969392
0.99968501
0.99967678
0.9996692
0.99966216
0.99965577
1.0001072
1.000106
1.0001048
1.0001033
1.0001017
1.0000999
1.0000979
1.0000956
1.000093
1.00009
1.0000867
1.0000829
1.0000786
1.0000737
1.0000683
1.0000621
1.0000553
1.0000476
1.0000392
1.0000298
1.0000196
1.0000085
0.99999644
0.99998356
0.99996987
0.99995546
0.9999404
0.99992481
0.9999088
0.9998925
0.99987606
0.99985965
0.9998434
0.99982746
0.99981193
0.99979692
0.99978254
0.99976885
0.99975589
0.99974372
0.99973235
0.99972173
0.99971187
0.99970275
0.99969434
0.99968657
0.99967944
0.99967283
0.99966685
1.0001012
1.0001001
1.0000988
1.0000974
1.0000958
1.000094
1.000092
1.0000897
1.0000871
1.0000842
1.0000809
1.0000772
1.000073
1.0000682
1.0000629
1.0000569
1.0000502
1.0000428
1.0000346
1.0000255
1.0000156
1.0000048
0.99999318
0.99998074
0.99996753
0.99995363
0.99993912
0.9999241
0.99990868
0.99989299
0.99987718
0.9998614
0.99984579
0.99983049
0.99981558
0.99980119
0.99978741
0.99977429
0.99976189
0.99975026
0.9997394
0.99972928
0.99971991
0.99971125
0.99970328
0.99969595
0.99968923
0.99968302
0.99967742
1.0000954
1.0000943
1.000093
1.0000916
1.0000901
1.0000883
1.0000863
1.0000841
1.0000815
1.0000787
1.0000754
1.0000718
1.0000677
1.000063
1.0000578
1.000052
1.0000455
1.0000383
1.0000303
1.0000215
1.0000119
1.0000015
0.99999026
0.99997824
0.9999655
0.99995211
0.99993813
0.99992366
0.99990882
0.99989372
0.99987851
0.99986333
0.99984833
0.99983363
0.99981931
0.99980549
0.99979225
0.99977967
0.99976777
0.99975662
0.99974623
0.99973656
0.99972762
0.99971938
0.9997118
0.99970485
0.9996985
0.99969264
0.99968738
1.0000898
1.0000887
1.0000874
1.0000861
1.0000845
1.0000828
1.0000809
1.0000787
1.0000762
1.0000734
1.0000702
1.0000667
1.0000626
1.0000581
1.000053
1.0000474
1.0000411
1.0000341
1.0000263
1.0000178
1.0000085
0.99999849
0.99998765
0.99997607
0.99996379
0.99995088
0.99993742
0.9999235
0.99990921
0.99989468
0.99988005
0.99986545
0.99985103
0.99983689
0.99982311
0.99980981
0.99979706
0.99978495
0.99977351
0.99976279
0.99975281
0.99974353
0.99973498
0.99972711
0.9997199
0.9997133
0.99970728
0.99970176
0.99969681
1.0000843
1.0000832
1.000082
1.0000807
1.0000792
1.0000775
1.0000756
1.0000735
1.000071
1.0000683
1.0000652
1.0000618
1.0000579
1.0000535
1.0000485
1.000043
1.0000369
1.0000301
1.0000227
1.0000144
1.0000055
0.99999579
0.99998534
0.99997418
0.99996236
0.99994994
0.99993699
0.99992359
0.99990984
0.99989586
0.99988179
0.99986775
0.99985388
0.99984025
0.99982697
0.99981413
0.99980182
0.99979012
0.99977907
0.99976873
0.99975911
0.99975018
0.99974196
0.99973442
0.99972752
0.99972122
0.99971549
0.99971023
0.99970554
1.0000789
1.0000779
1.0000767
1.0000755
1.000074
1.0000724
1.0000705
1.0000685
1.0000661
1.0000635
1.0000605
1.0000571
1.0000533
1.0000491
1.0000443
1.000039
1.000033
1.0000265
1.0000193
1.0000114
1.0000027
0.99999337
0.99998331
0.99997258
0.9999612
0.99994926
0.99993681
0.99992393
0.9999107
0.99989726
0.99988373
0.99987023
0.99985686
0.99984372
0.99983088
0.99981844
0.99980652
0.99979517
0.99978445
0.99977443
0.99976512
0.99975651
0.99974858
0.99974133
0.99973472
0.9997287
0.99972324
0.99971827
0.99971383
1.0000737
1.0000727
1.0000716
1.0000704
1.000069
1.0000674
1.0000656
1.0000636
1.0000614
1.0000588
1.0000559
1.0000527
1.000049
1.0000449
1.0000403
1.0000351
1.0000294
1.0000231
1.0000162
1.0000085
1.0000002
0.99999122
0.99998155
0.99997123
0.9999603
0.99994883
0.99993688
0.9999245
0.99991179
0.99989887
0.99988587
0.99987288
0.99985999
0.99984727
0.99983482
0.99982274
0.99981113
0.99980008
0.99978966
0.99977991
0.99977087
0.99976251
0.99975484
0.99974783
0.99974144
0.99973563
0.99973038
0.99972559
0.99972134
1.0000686
1.0000677
1.0000666
1.0000654
1.0000641
1.0000626
1.0000609
1.000059
1.0000568
1.0000544
1.0000516
1.0000485
1.0000449
1.000041
1.0000365
1.0000316
1.0000261
1.00002
1.0000133
1.0000059
0.99999797
0.99998933
0.99998004
0.99997014
0.99995965
0.99994865
0.99993718
0.9999253
0.99991309
0.99990069
0.99988821
0.9998757
0.99986324
0.99985091
0.99983879
0.999827
0.99981567
0.99980489
0.99979471
0.9997852
0.99977638
0.99976824
0.99976079
0.99975399
0.99974782
0.99974224
0.99973721
0.99973266
0.99972863
1.0000636
1.0000628
1.0000618
1.0000606
1.0000594
1.0000579
1.0000563
1.0000544
1.0000524
1.00005
1.0000474
1.0000444
1.000041
1.0000372
1.000033
1.0000282
1.0000229
1.0000171
1.0000106
1.0000036
0.99999595
0.99998767
0.99997877
0.99996928
0.99995923
0.99994869
0.99993771
0.99992632
0.99991461
0.99990273
0.99989074
0.99987869
0.99986662
0.99985462
0.99984279
0.99983127
0.99982019
0.99980963
0.99979967
0.99979035
0.99978172
0.99977375
0.99976644
0.99975979
0.99975374
0.99974827
0.99974334
0.99973886
0.9997349
1.0000588
1.000058
1.000057
1.000056
1.0000547
1.0000534
1.0000518
1.0000501
1.0000481
1.0000459
1.0000433
1.0000405
1.0000373
1.0000337
1.0000296
1.0000251
1.00002
1.0000144
1.0000082
1.0000015
0.99999416
0.99998624
0.99997772
0.99996865
0.99995904
0.99994896
0.99993846
0.99992755
0.99991635
0.99990498
0.99989348
0.99988185
0.99987013
0.99985842
0.99984686
0.99983559
0.99982474
0.99981439
0.99980461
0.99979545
0.99978695
0.99977909
0.9997719
0.99976536
0.99975944
0.99975412
0.99974935
0.99974508
0.99974132
1.0000542
1.0000534
1.0000525
1.0000515
1.0000503
1.000049
1.0000475
1.0000458
1.000044
1.0000418
1.0000394
1.0000367
1.0000337
1.0000303
1.0000264
1.0000221
1.0000173
1.0000119
1.000006
0.99999958
0.99999258
0.99998502
0.99997689
0.99996822
0.99995905
0.99994943
0.99993941
0.999929
0.9999183
0.99990744
0.9998964
0.99988516
0.99987376
0.99986234
0.99985105
0.99984004
0.99982942
0.99981926
0.99980962
0.99980056
0.99979211
0.99978427
0.99977708
0.99977051
0.99976455
0.99975915
0.9997543
0.9997499
0.99974603
1.0000498
1.000049
1.0000481
1.0000472
1.0000461
1.0000448
1.0000434
1.0000418
1.00004
1.000038
1.0000357
1.0000331
1.0000303
1.000027
1.0000234
1.0000193
1.0000147
1.0000096
1.000004
0.99999787
0.9999912
0.999984
0.99997626
0.999968
0.99995927
0.99995012
0.99994058
0.99993065
0.99992047
0.99991012
0.99989953
0.99988864
0.99987755
0.99986644
0.99985545
0.99984472
0.99983432
0.99982432
0.99981477
0.99980573
0.99979724
0.99978935
0.99978209
0.99977547
0.9997695
0.99976415
0.99975941
0.9997552
0.99975154
1.0000456
1.0000449
1.0000441
1.0000431
1.0000421
1.0000409
1.0000395
1.0000379
1.0000362
1.0000343
1.0000321
1.0000297
1.000027
1.0000239
1.0000205
1.0000167
1.0000124
1.0000075
1.0000022
0.99999635
0.99999001
0.99998317
0.99997581
0.99996797
0.99995968
0.99995099
0.99994194
0.99993251
0.99992285
0.99991301
0.99990284
0.9998923
0.99988155
0.99987079
0.99986015
0.99984972
0.99983954
0.99982965
0.9998201
0.99981097
0.99980232
0.99979421
0.99978669
0.99977977
0.99977347
0.99976774
0.99976259
0.99975792
0.9997538
1.0000418
1.0000411
1.0000403
1.0000394
1.0000383
1.0000372
1.0000358
1.0000343
1.0000327
1.0000308
1.0000287
1.0000264
1.0000238
1.0000209
1.0000177
1.0000142
1.0000101
1.0000056
1.0000006
0.999995
0.99998899
0.9999825
0.99997554
0.99996812
0.99996026
0.99995204
0.99994348
0.99993455
0.99992543
0.9999161
0.99990633
0.99989616
0.99988581
0.99987548
0.99986526
0.99985515
0.99984516
0.99983531
0.99982567
0.99981634
0.99980742
0.999799
0.99979116
0.99978397
0.99977749
0.99977172
0.99976665
0.99976226
0.99975848
1.0000382
1.0000375
1.0000367
1.0000359
1.0000349
1.0000337
1.0000325
1.000031
1.0000294
1.0000276
1.0000255
1.0000233
1.0000208
1.0000181
1.0000151
1.0000118
1.000008
1.0000038
0.99999907
0.99999382
0.99998813
0.99998201
0.99997544
0.99996844
0.99996103
0.99995328
0.99994521
0.99993678
0.99992821
0.99991938
0.99991
0.99990023
0.99989038
0.99988059
0.99987082
0.99986103
0.99985119
0.99984133
0.99983152
0.99982189
0.99981254
0.99980358
0.99979511
0.99978721
0.99977992
0.99977324
0.99976719
0.9997617
0.99975684
1.0000348
1.0000341
1.0000334
1.0000325
1.0000316
1.0000305
1.0000293
1.0000279
1.0000263
1.0000246
1.0000226
1.0000204
1.000018
1.0000154
1.0000126
1.0000095
1.0000061
1.0000022
0.99999774
0.99999281
0.99998745
0.9999817
0.99997553
0.99996895
0.999962
0.99995473
0.99994716
0.99993926
0.99993127
0.99992292
0.99991393
0.99990466
0.99989542
0.99988622
0.99987692
0.99986742
0.99985769
0.99984777
0.99983776
0.99982776
0.99981791
0.99980837
0.9997993
0.99979085
0.99978315
0.99977631
0.99977038
0.99976538
0.99976115
1.0000315
1.0000308
1.0000301
1.0000293
1.0000284
1.0000274
1.0000262
1.0000249
1.0000235
1.0000218
1.0000199
1.0000178
1.0000155
1.000013
1.0000103
1.0000074
1.0000042
1.0000006
0.99999654
0.99999193
0.9999869
0.9999815
0.99997571
0.99996954
0.99996302
0.99995623
0.99994918
0.99994184
0.99993446
0.99992662
0.99991808
0.99990949
0.99990101
0.99989248
0.99988367
0.99987448
0.99986489
0.99985494
0.99984469
0.99983424
0.99982371
0.99981323
0.99980298
0.9997931
0.99978372
0.99977492
0.99976679
0.99975928
0.99975266
1.0000283
1.0000277
1.000027
1.0000262
1.0000253
1.0000243
1.0000232
1.000022
1.0000206
1.0000191
1.0000174
1.0000154
1.0000133
1.0000108
1.0000082
1.0000054
1.0000024
0.99999912
0.99999538
0.99999109
0.99998637
0.9999813
0.99997587
0.99997009
0.99996399
0.99995766
0.99995108
0.99994427
0.99993748
0.99993007
0.99992206
0.99991433
0.99990671
0.99989891
0.99989067
0.99988194
0.99987269
0.99986293
0.99985264
0.99984189
0.99983077
0.99981944
0.99980812
0.99979714
0.99978679
0.99977746
0.99976937
0.99976274
0.99975743
1.000025
1.0000244
1.0000237
1.0000229
1.0000221
1.0000212
1.0000202
1.0000191
1.0000179
1.0000165
1.000015
1.0000132
1.0000112
1.0000089
1.0000063
1.0000036
1.0000007
0.99999772
0.99999437
0.99999047
0.99998611
0.99998145
0.99997648
0.99997119
0.9999656
0.99995976
0.99995366
0.99994738
0.99994111
0.99993394
0.99992653
0.99991973
0.99991281
0.99990561
0.99989786
0.99988964
0.99988079
0.99987133
0.9998611
0.99985013
0.99983837
0.9998259
0.9998128
0.99979924
0.99978539
0.99977169
0.99975828
0.99974563
0.99973422
1.0000218
1.0000212
1.0000205
1.0000197
1.0000189
1.0000181
1.0000171
1.0000161
1.000015
1.0000138
1.0000124
1.0000109
1.0000091
1.0000071
1.0000048
1.0000022
0.99999945
0.9999967
0.99999374
0.9999903
0.99998642
0.99998226
0.99997784
0.99997314
0.99996818
0.999963
0.99995756
0.99995206
0.9999465
0.99993995
0.99993341
0.99992781
0.99992155
0.99991505
0.99990785
0.99990028
0.9998919
0.99988286
0.99987267
0.99986146
0.99984885
0.99983505
0.9998201
0.99980449
0.99978911
0.99977484
0.99976205
0.99975245
0.99974373
1.0000186
1.0000178
1.0000168
1.000016
1.0000151
1.0000143
1.0000135
1.0000127
1.0000118
1.0000109
1.0000098
1.0000086
1.0000072
1.0000055
1.0000034
1.000001
0.99999827
0.99999544
0.99999259
0.9999894
0.99998573
0.99998172
0.99997741
0.99997281
0.99996801
0.99996315
0.9999582
0.99995333
0.99994841
0.99994278
0.9999377
0.99993342
0.99992822
0.99992308
0.99991723
0.99991121
0.99990427
0.99989674
0.99988784
0.99987782
0.99986577
0.99985174
0.99983512
0.99981571
0.9997946
0.99976886
0.99974023
0.99970915
0.9996755
1.0000143
1.0000132
1.0000126
1.000012
1.0000115
1.000011
1.0000105
1.00001
1.0000094
1.0000087
1.0000078
1.0000068
1.0000055
1.0000038
1.0000018
0.99999934
0.99999633