/*--------------------------------*- C++ -*----------------------------------*\
| =========                 |                                                 |
| \\      /  F ield         | OpenFOAM: The Open Source CFD Toolbox           |
|  \\    /   O peration     | Version:  v2006                                 |
|   \\  /    A nd           | Website:  www.openfoam.com                      |
|    \\/     M anipulation  |                                                 |
\*---------------------------------------------------------------------------*/
FoamFile
{
    version     2.0;
    format      ascii;
    class       volScalarField;
    location    "2500";
    object      TMean;
}
// * * * * * * * * * * * * * * * * * * * * * * * * * * * * * * * * * * * * * //

dimensions      [0 0 0 1 0 0 0];


internalField   nonuniform List<scalar> 
19765
(
1.0001714
1.0002195
1.0003646
1.0005148
1.0006427
1.0007578
1.0008717
1.0009697
1.0010597
1.0011462
1.0012163
1.0012693
1.0013107
1.0013409
1.0013599
1.0013702
1.0013707
1.0013623
1.0013438
1.0013157
1.0012796
1.001236
1.0011838
1.00112
1.001047
1.0009731
1.0008973
1.0008086
1.0007127
1.000616
1.0005096
1.0003886
1.0002427
1.0000883
0.99996163
0.99984778
0.99969812
0.99953768
0.99939725
0.9992181
0.99900137
0.99886561
0.99876922
0.9986831
0.99868712
0.99871822
0.99880753
0.99894039
0.99906797
1.0004573
1.0005142
1.0005795
1.0006537
1.0007318
1.0008078
1.0008812
1.0009489
1.0010116
1.0010707
1.0011249
1.0011719
1.0012116
1.0012436
1.0012667
1.0012817
1.0012898
1.0012894
1.0012792
1.0012592
1.0012295
1.0011909
1.0011434
1.0010869
1.0010226
1.000951
1.0008714
1.0007844
1.0006898
1.0005884
1.0004806
1.0003675
1.0002519
1.0001355
1.0000174
0.99989706
0.99977727
0.99966038
0.99954685
0.99944068
0.99935129
0.99927009
0.99919321
0.999126
0.99906409
0.99901361
0.99897221
0.99893649
0.99890272
1.0004224
1.0004741
1.0005344
1.0005996
1.0006651
1.0007293
1.0007912
1.0008498
1.0009045
1.0009577
1.0010066
1.0010498
1.0010874
1.0011186
1.0011416
1.0011577
1.0011682
1.0011711
1.0011652
1.0011503
1.0011265
1.0010947
1.0010537
1.0010036
1.0009464
1.0008823
1.0008099
1.0007298
1.0006429
1.0005492
1.0004495
1.000345
1.0002375
1.0001283
1.0000168
0.999904
0.9997922
0.99968165
0.99957366
0.99947168
0.99937506
0.99928204
0.99919693
0.9991225
0.99905533
0.998996
0.99894551
0.99890309
0.99886615
1.0004731
1.0005125
1.0005527
1.0005946
1.0006373
1.0006799
1.0007217
1.0007619
1.0008007
1.0008385
1.0008741
1.0009064
1.0009353
1.0009598
1.0009784
1.000992
1.0010013
1.0010046
1.0010006
1.000989
1.0009699
1.0009437
1.0009098
1.0008681
1.0008197
1.0007653
1.0007037
1.0006356
1.0005618
1.0004827
1.0003991
1.0003122
1.0002237
1.0001344
1.0000436
0.9999523
0.99986291
0.9997755
0.99969032
0.99961023
0.99953499
0.99946078
0.99938924
0.99932118
0.99925562
0.99919337
0.99913142
0.99906998
0.99900827
1.0004692
1.0005022
1.0005356
1.0005693
1.0006028
1.000636
1.0006684
1.0006997
1.0007299
1.0007595
1.0007874
1.0008129
1.000836
1.0008556
1.0008708
1.000882
1.0008895
1.000892
1.0008882
1.0008777
1.0008605
1.000837
1.0008068
1.0007695
1.0007261
1.000677
1.0006219
1.0005609
1.0004949
1.0004244
1.0003502
1.0002734
1.0001954
1.000117
1.0000379
0.9999589
0.99988185
0.99980663
0.99973358
0.99966439
0.99959847
0.99953306
0.99946995
0.99940818
0.99934774
0.99928832
0.99922953
0.99917249
0.99911806
1.0004647
1.0004898
1.000515
1.0005405
1.0005658
1.000591
1.0006157
1.0006398
1.0006632
1.0006863
1.0007083
1.0007283
1.0007465
1.000762
1.0007738
1.0007823
1.0007877
1.0007889
1.0007846
1.0007745
1.0007583
1.0007365
1.0007087
1.0006745
1.0006347
1.0005899
1.0005397
1.0004843
1.0004245
1.0003608
1.000294
1.0002251
1.000155
1.0000848
1.0000143
0.99994414
0.99987562
0.99980892
0.9997442
0.99968252
0.99962362
0.99956586
0.99950956
0.99945478
0.99940057
0.99934712
0.99929333
0.99923929
0.99918531
1.0004476
1.0004687
1.0004896
1.0005106
1.0005311
1.0005512
1.000571
1.0005902
1.0006088
1.0006273
1.0006447
1.0006605
1.0006748
1.0006869
1.000696
1.0007021
1.0007056
1.0007053
1.0007003
1.0006902
1.0006748
1.0006543
1.0006286
1.0005971
1.0005606
1.0005195
1.0004735
1.0004228
1.0003682
1.0003102
1.0002494
1.0001867
1.000123
1.0000591
0.99999504
0.99993135
0.99986905
0.99980825
0.9997491
0.99969244
0.99963795
0.99958416
0.99953165
0.99947985
0.99942845
0.99937709
0.9993252
0.99927277
0.99922007
1.0004311
1.0004479
1.0004646
1.0004814
1.0004977
1.0005138
1.0005296
1.0005449
1.0005598
1.0005746
1.0005885
1.000601
1.0006123
1.0006216
1.0006283
1.0006325
1.0006343
1.0006328
1.0006271
1.0006169
1.0006019
1.0005823
1.000558
1.0005285
1.0004943
1.000456
1.0004133
1.0003663
1.0003159
1.0002623
1.0002064
1.0001487
1.0000902
1.0000315
0.99997276
0.99991441
0.99985731
0.99980161
0.99974741
0.99969535
0.99964526
0.99959606
0.99954795
0.99950072
0.99945381
0.99940711
0.99935995
0.99931226
0.99926401
1.0004117
1.0004257
1.0004397
1.0004535
1.000467
1.0004801
1.000493
1.0005054
1.0005175
1.0005293
1.0005404
1.0005504
1.0005591
1.0005662
1.0005709
1.0005735
1.0005738
1.0005712
1.0005648
1.0005544
1.0005397
1.0005209
1.0004977
1.0004698
1.0004378
1.0004019
1.000362
1.0003183
1.0002714
1.0002217
1.0001698
1.0001163
1.0000621
1.0000076
0.99995315
0.99989902
0.99984596
0.9997941
0.99974356
0.99969487
0.99964787
0.99960162
0.9995564
0.99951183
0.99946759
0.99942341
0.99937879
0.99933359
0.9992879
1.000393
1.0004044
1.0004159
1.0004273
1.0004383
1.000449
1.0004595
1.0004696
1.0004794
1.000489
1.0004978
1.0005056
1.0005124
1.0005176
1.0005208
1.0005219
1.0005211
1.0005175
1.0005105
1.0004999
1.0004854
1.0004671
1.0004449
1.0004183
1.000388
1.000354
1.0003165
1.0002754
1.0002314
1.0001849
1.0001364
1.0000865
1.0000358
0.99998499
0.99993413
0.99988362
0.9998341
0.9997857
0.99973852
0.99969304
0.99964915
0.99960609
0.99956403
0.99952273
0.99948183
0.99944116
0.99940021
0.99935887
0.99931709
1.0003741
1.0003836
1.0003932
1.0004027
1.0004118
1.0004207
1.0004293
1.0004375
1.0004455
1.0004532
1.0004602
1.0004663
1.0004714
1.0004751
1.0004769
1.0004769
1.000475
1.0004706
1.0004631
1.0004523
1.000438
1.0004202
1.0003987
1.0003733
1.0003444
1.0003122
1.0002766
1.0002379
1.0001965
1.0001528
1.0001072
1.0000603
1.0000127
0.99996499
0.99991721
0.99986975
0.99982318
0.99977761
0.99973317
0.99969025
0.9996488
0.99960812
0.99956843
0.99952946
0.99949093
0.99945265
0.99941421
0.99937544
0.99933639
1.000356
1.0003639
1.0003718
1.0003797
1.0003872
1.0003946
1.0004016
1.0004084
1.0004148
1.000421
1.0004266
1.0004312
1.0004349
1.0004373
1.0004381
1.0004371
1.0004343
1.0004292
1.0004213
1.0004104
1.0003962
1.0003787
1.0003579
1.0003335
1.0003058
1.0002751
1.0002413
1.0002046
1.0001654
1.000124
1.000081
1.0000368
0.9999919
0.99994684
0.99990177
0.99985701
0.99981308
0.99977011
0.99972821
0.99968774
0.99964869
0.99961046
0.99957322
0.99953678
0.99950086
0.99946533
0.99942979
0.99939411
0.99935827
1.0003386
1.0003451
1.0003517
1.0003583
1.0003646
1.0003706
1.0003764
1.0003819
1.0003871
1.000392
1.0003963
1.0003998
1.0004023
1.0004037
1.0004035
1.0004016
1.0003981
1.0003925
1.0003842
1.0003731
1.000359
1.0003419
1.0003217
1.0002982
1.0002717
1.0002423
1.00021
1.0001751
1.0001378
1.0000986
1.0000578
1.0000159
0.99997346
0.99993079
0.99988812
0.99984574
0.99980414
0.99976345
0.99972375
0.9996854
0.99964838
0.99961218
0.99957696
0.99954256
0.99950874
0.99947536
0.99944209
0.99940879
0.99937548
1.000322
1.0003274
1.0003329
1.0003384
1.0003436
1.0003485
1.0003533
1.0003577
1.0003618
1.0003657
1.000369
1.0003714
1.000373
1.0003735
1.0003724
1.0003699
1.0003658
1.0003596
1.0003511
1.0003399
1.0003259
1.0003092
1.0002895
1.0002667
1.0002412
1.000213
1.0001821
1.0001487
1.0001133
1.0000759
1.0000372
0.99999738
0.99995704
0.99991652
0.99987602
0.99983581
0.99979635
0.99975775
0.99972012
0.99968378
0.99964874
0.99961454
0.99958135
0.99954902
0.99951735
0.99948621
0.99945531
0.99942453
0.99939387
1.0003062
1.0003107
1.0003153
1.0003198
1.0003241
1.0003281
1.000332
1.0003355
1.0003388
1.0003417
1.0003441
1.0003457
1.0003465
1.0003462
1.0003445
1.0003413
1.0003367
1.0003302
1.0003214
1.0003101
1.0002963
1.0002798
1.0002606
1.0002386
1.0002139
1.0001868
1.0001572
1.0001253
1.0000914
1.0000558
1.0000188
0.99998095
0.99994255
0.999904
0.99986547
0.99982724
0.99978972
0.99975303
0.99971728
0.99968276
0.99964949
0.99961707
0.99958566
0.99955513
0.9995253
0.99949607
0.99946718
0.9994385
0.99941008
1.0002913
1.000295
1.0002988
1.0003025
1.000306
1.0003093
1.0003124
1.0003152
1.0003176
1.0003198
1.0003214
1.0003223
1.0003224
1.0003214
1.0003191
1.0003155
1.0003104
1.0003036
1.0002946
1.0002833
1.0002696
1.0002534
1.0002346
1.0002133
1.0001895
1.0001633
1.0001349
1.0001043
1.0000718
1.0000378
1.0000025
0.99996638
0.99992977
0.99989302
0.99985632
0.99981992
0.99978421
0.99974931
0.99971533
0.99968254
0.99965097
0.99962028
0.9995906
0.99956184
0.99953383
0.99950649
0.99947959
0.999453
0.99942679
1.0002772
1.0002802
1.0002833
1.0002864
1.0002892
1.0002918
1.0002943
1.0002964
1.0002982
1.0002997
1.0003007
1.0003009
1.0003004
1.0002989
1.0002961
1.000292
1.0002866
1.0002794
1.0002703
1.000259
1.0002454
1.0002295
1.0002113
1.0001905
1.0001675
1.0001422
1.0001148
1.0000855
1.0000543
1.0000218
0.99998805
0.99995352
0.99991856
0.99988349
0.99984848
0.99981379
0.99977976
0.99974654
0.9997142
0.99968302
0.99965303
0.99962391
0.99959582
0.99956866
0.99954229
0.99951663
0.99949148
0.99946673
0.99944244
1.0002639
1.0002664
1.0002688
1.0002713
1.0002735
1.0002756
1.0002775
1.000279
1.0002803
1.0002812
1.0002816
1.0002813
1.0002802
1.0002782
1.0002751
1.0002706
1.0002649
1.0002575
1.0002483
1.000237
1.0002236
1.000208
1.0001901
1.0001699
1.0001476
1.0001232
1.0000968
1.0000686
1.0000387
1.0000075
0.99997521
0.99994218
0.99990877
0.99987527
0.99984185
0.99980875
0.99977631
0.99974466
0.99971389
0.99968424
0.99965576
0.99962817
0.9996016
0.99957598
0.99955119
0.99952715
0.99950369
0.9994807
0.99945825
1.0002513
1.0002533
1.0002552
1.0002572
1.0002589
1.0002605
1.0002619
1.0002629
1.0002637
1.0002641
1.000264
1.0002632
1.0002617
1.0002593
1.0002558
1.0002511
1.0002451
1.0002375
1.0002282
1.0002169
1.0002037
1.0001884
1.0001709
1.0001513
1.0001296
1.0001061
1.0000806
1.0000534
1.0000247
0.99999478
0.99996384
0.99993222
0.99990026
0.99986823
0.99983631
0.99980472
0.99977378
0.99974362
0.99971432
0.99968612
0.99965906
0.99963289
0.99960774
0.99958355
0.9995602
0.99953765
0.99951572
0.9994943
0.9994735
1.0002394
1.000241
1.0002425
1.000244
1.0002453
1.0002464
1.0002473
1.000248
1.0002483
1.0002483
1.0002478
1.0002466
1.0002447
1.0002419
1.0002381
1.0002331
1.0002269
1.0002192
1.0002098
1.0001987
1.0001856
1.0001705
1.0001535
1.0001344
1.0001134
1.0000906
1.000066
1.0000398
1.0000122
0.99998347
0.9999538
0.99992351
0.99989291
0.99986228
0.99983177
0.99980161
0.9997721
0.99974335
0.99971546
0.99968863
0.99966293
0.99963812
0.99961433
0.9995915
0.99956954
0.99954839
0.99952791
0.99950799
0.99948873
1.0002282
1.0002293
1.0002305
1.0002316
1.0002325
1.0002333
1.0002338
1.0002341
1.000234
1.0002336
1.0002327
1.0002312
1.0002289
1.0002259
1.0002218
1.0002166
1.0002102
1.0002024
1.000193
1.0001819
1.000169
1.0001542
1.0001376
1.000119
1.0000986
1.0000766
1.0000529
1.0000276
1.0000011
0.99997343
0.99994495
0.99991592
0.99988662
0.9998573
0.99982814
0.99979933
0.99977118
0.99974377
0.99971721
0.9996917
0.99966728
0.99964376
0.99962124
0.9995997
0.99957902
0.99955916
0.99954001
0.99952145
0.9995036
1.0002175
1.0002184
1.0002192
1.00022
1.0002206
1.000221
1.0002212
1.0002211
1.0002207
1.0002199
1.0002187
1.0002169
1.0002144
1.000211
1.0002067
1.0002013
1.0001948
1.000187
1.0001776
1.0001666
1.0001538
1.0001394
1.0001231
1.000105
1.0000853
1.0000639
1.000041
1.0000167
0.99999109
0.99996452
0.99993718
0.99990934
0.99988127
0.99985322
0.99982533
0.99979782
0.99977095
0.99974483
0.99971954
0.99969528
0.99967209
0.99964979
0.9996285
0.99960816
0.9995887
0.99957007
0.99955217
0.99953489
0.99951834
1.0002075
1.000208
1.0002085
1.000209
1.0002093
1.0002094
1.0002093
1.0002089
1.0002082
1.0002072
1.0002057
1.0002036
1.0002008
1.0001973
1.0001928
1.0001872
1.0001806
1.0001727
1.0001634
1.0001525
1.0001399
1.0001258
1.0001099
1.0000923
1.0000731
1.0000524
1.0000303
1.0000068
0.99998219
0.99995663
0.99993038
0.99990368
0.99987678
0.99984993
0.99982326
0.99979698
0.99977134
0.99974644
0.99972238
0.9996993
0.99967728
0.99965615
0.999636
0.99961681
0.99959849
0.999581
0.99956425
0.99954814
0.99953278
1.0001979
1.0001982
1.0001985
1.0001987
1.0001987
1.0001986
1.0001982
1.0001975
1.0001966
1.0001953
1.0001936
1.0001912
1.0001882
1.0001845
1.0001798
1.0001742
1.0001675
1.0001596
1.0001503
1.0001395
1.0001272
1.0001133
1.0000978
1.0000807
1.000062
1.000042
1.0000206
0.99999796
0.99997426
0.99994968
0.99992447
0.99989884
0.99987307
0.99984736
0.99982186
0.99979676
0.99977229
0.99974856
0.99972565
0.99970372
0.99968282
0.99966279
0.99964374
0.99962562
0.99960838
0.99959197
0.99957631
0.99956128
0.99954703
1.0001888
1.0001889
1.0001889
1.0001889
1.0001887
1.0001883
1.0001877
1.0001869
1.0001857
1.0001842
1.0001822
1.0001797
1.0001765
1.0001726
1.0001678
1.0001621
1.0001553
1.0001474
1.0001382
1.0001275
1.0001154
1.0001018
1.0000867
1.0000701
1.000052
1.0000326
1.0000119
0.99999005
0.99996721
0.99994357
0.99991934
0.99989476
0.99987006
0.99984544
0.99982105
0.99979708
0.99977374
0.99975113
0.99972932
0.99970847
0.99968863
0.99966966
0.99965164
0.99963455
0.99961832
0.99960291
0.99958825
0.99957423
0.99956099
1.0001802
1.0001801
1.0001799
1.0001797
1.0001793
1.0001787
1.0001779
1.0001768
1.0001754
1.0001737
1.0001716
1.0001688
1.0001655
1.0001615
1.0001566
1.0001508
1.0001441
1.0001362
1.000127
1.0001165
1.0001046
1.0000913
1.0000766
1.0000604
1.0000428
1.000024
1.0000041
0.99998297
0.99996096
0.99993822
0.99991494
0.99989135
0.99986768
0.9998441
0.99982078
0.99979788
0.99977562
0.99975407
0.99973333
0.99971352
0.99969468
0.99967671
0.99965967
0.99964355
0.99962827
0.99961381
0.9996001
0.99958702
0.99957471
1.0001719
1.0001716
1.0001713
1.0001709
1.0001703
1.0001696
1.0001686
1.0001673
1.0001658
1.0001639
1.0001616
1.0001587
1.0001553
1.0001511
1.0001462
1.0001403
1.0001336
1.0001257
1.0001167
1.0001063
1.0000947
1.0000817
1.0000673
1.0000515
1.0000345
1.0000163
0.99999699
0.99997664
0.99995544
0.99993356
0.9999112
0.99988856
0.99986586
0.99984329
0.99982099
0.99979912
0.99977788
0.99975735
0.99973762
0.99971879
0.99970092
0.9996839
0.9996678
0.99965259
0.99963821
0.99962463
0.99961179
0.99959959
0.99958815
1.000164
1.0001636
1.0001631
1.0001626
1.0001618
1.0001609
1.0001598
1.0001584
1.0001567
1.0001547
1.0001522
1.0001492
1.0001456
1.0001414
1.0001364
1.0001306
1.0001238
1.000116
1.0001071
1.0000969
1.0000855
1.0000728
1.0000588
1.0000434
1.0000269
1.0000093
0.99999065
0.99997101
0.99995059
0.99992953
0.99990805
0.99988632
0.99986456
0.99984295
0.99982162
0.99980074
0.99978048
0.99976092
0.99974215
0.99972426
0.99970731
0.99969119
0.99967597
0.99966162
0.9996481
0.99963535
0.99962333
0.99961194
0.9996013
1.0001565
1.0001559
1.0001553
1.0001546
1.0001537
1.0001527
1.0001514
1.0001499
1.0001481
1.0001459
1.0001433
1.0001403
1.0001366
1.0001323
1.0001273
1.0001214
1.0001147
1.000107
1.0000982
1.0000882
1.000077
1.0000646
1.0000509
1.0000361
1.0000201
1.000003
0.99998496
0.99996602
0.99994634
0.99992608
0.99990543
0.99988458
0.99986372
0.99984303
0.99982263
0.99980269
0.99978336
0.99976474
0.99974688
0.99972989
0.99971381
0.99969855
0.99968416
0.99967063
0.9996579
0.99964593
0.99963468
0.99962404
0.99961415
1.0001492
1.0001486
1.0001478
1.000147
1.000146
1.0001449
1.0001435
1.0001419
1.0001399
1.0001377
1.000135
1.0001318
1.0001281
1.0001238
1.0001188
1.0001129
1.0001062
1.0000986
1.0000899
1.0000801
1.0000692
1.0000571
1.0000438
1.0000293
1.0000138
0.99999732
0.99997987
0.9999616
0.99994264
0.99992315
0.9999033
0.99988329
0.9998633
0.99984348
0.99982398
0.99980493
0.99978649
0.99976875
0.99975176
0.99973563
0.99972038
0.99970593
0.99969234
0.99967958
0.99966759
0.99965636
0.99964583
0.9996359
0.99962669
1.0001422
1.0001415
1.0001407
1.0001398
1.0001387
1.0001374
1.0001359
1.0001342
1.0001322
1.0001299
1.0001271
1.0001239
1.0001201
1.0001158
1.0001107
1.0001049
1.0000983
1.0000908
1.0000822
1.0000726
1.000062
1.0000502
1.0000372
1.0000232
1.0000082
0.99999219
0.99997534
0.99995771
0.99993945
0.99992069
0.99990162
0.99988241
0.99986324
0.99984427
0.99982561
0.99980742
0.99978983
0.99977293
0.99975678
0.99974145
0.99972699
0.99971331
0.99970047
0.99968843
0.99967716
0.99966661
0.99965675
0.99964747
0.9996389
1.0001355
1.0001347
1.0001338
1.0001328
1.0001316
1.0001303
1.0001287
1.0001269
1.0001248
1.0001224
1.0001196
1.0001164
1.0001126
1.0001082
1.0001032
1.0000975
1.0000909
1.0000835
1.0000751
1.0000657
1.0000553
1.0000438
1.0000312
1.0000176
1.000003
0.99998759
0.99997131
0.99995431
0.99993671
0.99991867
0.99990035
0.9998819
0.99986352
0.99984535
0.99982751
0.99981013
0.99979335
0.99977725
0.99976188
0.99974732
0.99973361
0.99972066
0.99970852
0.99969717
0.99968656
0.99967665
0.99966742
0.99965876
0.99965078
1.000129
1.0001281
1.0001271
1.0001261
1.0001249
1.0001235
1.0001218
1.00012
1.0001178
1.0001154
1.0001126
1.0001093
1.0001055
1.0001011
1.0000961
1.0000904
1.000084
1.0000767
1.0000685
1.0000593
1.0000491
1.0000379
1.0000257
1.0000125
0.9999984
0.99998346
0.99996775
0.99995135
0.99993441
0.99991705
0.99989944
0.99988173
0.9998641
0.9998467
0.99982963
0.99981302
0.99979701
0.99978167
0.99976705
0.99975322
0.99974021
0.99972795
0.99971647
0.99970577
0.99969578
0.99968648
0.99967783
0.99966973
0.99966231
1.0001227
1.0001218
1.0001207
1.0001196
1.0001184
1.0001169
1.0001153
1.0001134
1.0001112
1.0001087
1.0001058
1.0001025
1.0000988
1.0000944
1.0000895
1.0000839
1.0000775
1.0000703
1.0000623
1.0000533
1.0000434
1.0000325
1.0000207
1.0000079
0.99999423
0.99997979
0.99996462
0.99994881
0.99993249
0.99991579
0.99989886
0.99988186
0.99986495
0.99984828
0.99983194
0.99981607
0.9998008
0.99978617
0.99977226
0.99975911
0.99974676
0.99973515
0.9997243
0.9997142
0.9997048
0.99969606
0.99968796
0.99968039
0.99967347
1.0001165
1.0001156
1.0001146
1.0001134
1.0001121
1.0001106
1.0001089
1.000107
1.0001048
1.0001023
1.0000994
1.0000961
1.0000924
1.0000881
1.0000832
1.0000777
1.0000714
1.0000644
1.0000566
1.0000478
1.0000382
1.0000276
1.0000161
1.0000037
0.99999048
0.99997653
0.99996189
0.99994665
0.99993094
0.99991487
0.9998986
0.99988227
0.99986605
0.99985007
0.99983443
0.99981926
0.99980467
0.99979073
0.99977747
0.99976498
0.99975325
0.99974224
0.99973198
0.99972244
0.99971359
0.99970537
0.99969777
0.99969069
0.99968425
1.0001106
1.0001097
1.0001086
1.0001074
1.0001061
1.0001046
1.0001029
1.0001009
1.0000987
1.0000962
1.0000933
1.0000901
1.0000864
1.0000821
1.0000773
1.0000719
1.0000657
1.0000589
1.0000512
1.0000427
1.0000333
1.000023
1.0000119
0.9999999
0.99998713
0.99997365
0.99995953
0.99994485
0.99992971
0.99991425
0.99989861
0.99988293
0.99986737
0.99985204
0.99983707
0.99982256
0.99980862
0.99979531
0.99978268
0.99977079
0.99975964
0.9997492
0.99973949
0.99973048
0.99972212
0.9997144
0.99970727
0.99970064
0.99969463
1.0001048
1.0001039
1.0001028
1.0001016
1.0001003
1.0000987
1.000097
1.0000951
1.0000929
1.0000904
1.0000875
1.0000843
1.0000806
1.0000765
1.0000717
1.0000664
1.0000604
1.0000537
1.0000462
1.0000379
1.0000288
1.0000189
1.0000081
0.99999648
0.99998414
0.99997114
0.99995752
0.99994337
0.9999288
0.99991393
0.99989889
0.99988383
0.99986889
0.99985419
0.99983984
0.99982595
0.99981262
0.99979991
0.99978786
0.99977652
0.99976592
0.999756
0.9997468
0.99973827
0.99973038
0.9997231
0.9997164
0.99971019
0.99970457
1.0000992
1.0000982
1.0000972
1.000096
1.0000946
1.0000931
1.0000914
1.0000895
1.0000873
1.0000848
1.000082
1.0000788
1.0000752
1.0000711
1.0000665
1.0000612
1.0000554
1.0000489
1.0000416
1.0000335
1.0000247
1.0000151
1.0000046
0.99999341
0.9999815
0.99996895
0.99995583
0.9999422
0.99992818
0.99991387
0.99989941
0.99988494
0.99987059
0.99985649
0.99984273
0.99982942
0.99981666
0.99980449
0.99979298
0.99978216
0.99977205
0.99976262
0.99975387
0.99974579
0.99973833
0.99973147
0.99972517
0.99971934
0.99971408
1.0000937
1.0000928
1.0000917
1.0000905
1.0000892
1.0000877
1.000086
1.0000841
1.0000819
1.0000795
1.0000767
1.0000736
1.00007
1.000066
1.0000615
1.0000564
1.0000507
1.0000443
1.0000373
1.0000295
1.0000209
1.0000116
1.0000015
0.99999067
0.99997918
0.99996708
0.99995444
0.99994132
0.99992782
0.99991406
0.99990016
0.99988625
0.99987247
0.99985893
0.99984572
0.99983295
0.99982071
0.99980905
0.99979802
0.99978767
0.99977802
0.99976902
0.9997607
0.99975302
0.99974595
0.99973945
0.99973351
0.99972802
0.99972309
1.0000884
1.0000875
1.0000864
1.0000852
1.0000839
1.0000825
1.0000808
1.0000789
1.0000768
1.0000744
1.0000717
1.0000686
1.0000651
1.0000612
1.0000568
1.0000518
1.0000463
1.0000401
1.0000333
1.0000257
1.0000174
1.0000084
0.99999868
0.99998824
0.99997716
0.99996551
0.99995334
0.99994071
0.99992773
0.99991448
0.99990112
0.99988775
0.99987451
0.9998615
0.9998488
0.99983653
0.99982476
0.99981356
0.99980297
0.99979304
0.99978379
0.99977519
0.99976724
0.99975993
0.99975322
0.99974706
0.99974145
0.99973629
0.99973166
1.0000832
1.0000823
1.0000812
1.0000801
1.0000788
1.0000774
1.0000757
1.0000739
1.0000718
1.0000695
1.0000668
1.0000639
1.0000605
1.0000567
1.0000524
1.0000475
1.0000422
1.0000362
1.0000296
1.0000223
1.0000143
1.0000056
0.99999616
0.99998609
0.99997542
0.99996421
0.9999525
0.99994036
0.99992787
0.99991514
0.99990229
0.99988944
0.99987671
0.99986418
0.99985196
0.99984013
0.99982879
0.999818
0.9998078
0.99979825
0.99978936
0.99978111
0.9997735
0.99976651
0.9997601
0.99975425
0.99974891
0.99974402
0.99973964
1.0000781
1.0000772
1.0000762
1.0000751
1.0000739
1.0000725
1.0000709
1.0000691
1.0000671
1.0000648
1.0000622
1.0000593
1.000056
1.0000523
1.0000482
1.0000435
1.0000383
1.0000325
1.0000261
1.0000191
1.0000113
1.000003
0.99999391
0.99998422
0.99997395
0.99996317
0.99995192
0.99994025
0.99992824
0.99991601
0.99990366
0.9998913
0.99987905
0.99986698
0.99985519
0.99984376
0.9998328
0.99982237
0.99981251
0.99980329
0.99979472
0.99978677
0.99977946
0.99977276
0.99976664
0.99976106
0.999756
0.99975137
0.99974725
1.0000731
1.0000723
1.0000713
1.0000702
1.000069
1.0000677
1.0000662
1.0000644
1.0000625
1.0000603
1.0000578
1.000055
1.0000518
1.0000482
1.0000442
1.0000397
1.0000347
1.0000291
1.0000229
1.0000161
1.0000087
1.0000006
0.99999191
0.9999826
0.99997274
0.99996238
0.99995158
0.99994037
0.99992884
0.99991709
0.99990522
0.99989334
0.99988154
0.99986988
0.99985847
0.99984741
0.99983678
0.99982666
0.99981711
0.99980817
0.99979987
0.99979219
0.99978513
0.99977867
0.99977278
0.99976742
0.99976256
0.99975813
0.99975418
1.0000683
1.0000675
1.0000665
1.0000655
1.0000644
1.0000631
1.0000616
1.0000599
1.000058
1.0000559
1.0000535
1.0000508
1.0000478
1.0000443
1.0000404
1.0000361
1.0000312
1.0000259
1.0000199
1.0000134
1.0000063
0.99999851
0.99999016
0.99998123
0.99997176
0.99996183
0.99995147
0.99994072
0.99992965
0.99991837
0.99990698
0.99989555
0.99988416
0.99987289
0.99986182
0.99985107
0.99984074
0.99983089
0.9998216
0.99981291
0.99980484
0.99979738
0.99979054
0.9997843
0.99977862
0.99977348
0.99976884
0.99976463
0.99976089
1.0000636
1.0000628
1.0000619
1.0000609
1.0000598
1.0000586
1.0000571
1.0000556
1.0000538
1.0000517
1.0000494
1.0000468
1.0000439
1.0000406
1.0000369
1.0000327
1.0000281
1.0000229
1.0000172
1.0000109
1.0000041
0.99999665
0.99998864
0.99998008
0.99997102
0.9999615
0.99995158
0.99994128
0.99993067
0.99991986
0.99990893
0.99989794
0.99988693
0.999876
0.99986524
0.99985477
0.9998447
0.9998351
0.99982603
0.99981754
0.99980966
0.99980237
0.99979569
0.99978959
0.99978405
0.99977902
0.99977448
0.99977036
0.99976671
1.000059
1.0000583
1.0000574
1.0000565
1.0000554
1.0000542
1.0000529
1.0000513
1.0000496
1.0000477
1.0000455
1.000043
1.0000402
1.000037
1.0000335
1.0000295
1.0000251
1.0000201
1.0000147
1.0000086
1.0000021
0.99999499
0.99998734
0.99997915
0.99997048
0.99996139
0.99995191
0.99994205
0.9999319
0.99992156
0.99991108
0.99990049
0.99988983
0.99987922
0.99986875
0.99985855
0.99984871
0.99983933
0.99983044
0.99982211
0.99981436
0.9998072
0.99980063
0.99979465
0.99978924
0.99978436
0.99977998
0.99977605
0.99977259
1.0000546
1.0000539
1.0000531
1.0000522
1.0000512
1.00005
1.0000487
1.0000473
1.0000456
1.0000438
1.0000417
1.0000393
1.0000366
1.0000336
1.0000303
1.0000265
1.0000223
1.0000175
1.0000123
1.0000066
1.0000003
0.99999354
0.99998624
0.99997842
0.99997015
0.99996148
0.99995244
0.99994302
0.99993333
0.99992346
0.99991342
0.9999032
0.99989289
0.99988257
0.99987239
0.99986244
0.99985283
0.99984363
0.99983488
0.99982665
0.99981897
0.99981185
0.9998053
0.99979932
0.99979389
0.99978898
0.99978455
0.99978055
0.99977701
1.0000504
1.0000497
1.0000489
1.0000481
1.0000471
1.000046
1.0000448
1.0000434
1.0000418
1.00004
1.000038
1.0000358
1.0000332
1.0000304
1.0000272
1.0000236
1.0000196
1.0000151
1.0000102
1.0000047
0.99999875
0.99999229
0.99998533
0.99997789
0.99997002
0.99996177
0.99995316
0.99994419
0.99993497
0.99992557
0.99991594
0.9999061
0.9998961
0.9998861
0.99987621
0.99986653
0.99985713
0.99984807
0.99983941
0.99983121
0.99982353
0.99981638
0.9998098
0.9998038
0.99979838
0.99979353
0.99978922
0.99978539
0.99978205
1.0000464
1.0000458
1.000045
1.0000442
1.0000433
1.0000422
1.000041
1.0000397
1.0000381
1.0000364
1.0000345
1.0000324
1.00003
1.0000273
1.0000243
1.0000209
1.0000171
1.0000129
1.0000082
1.000003
0.99999734
0.99999121
0.99998461
0.99997755
0.99997007
0.99996224
0.99995407
0.99994555
0.99993681
0.99992788
0.99991866
0.99990917
0.99989952
0.99988986
0.99988028
0.99987086
0.99986165
0.9998527
0.99984407
0.99983582
0.99982802
0.99982071
0.99981394
0.99980773
0.99980206
0.99979692
0.99979229
0.9997881
0.9997844
1.0000426
1.000042
1.0000413
1.0000405
1.0000396
1.0000386
1.0000375
1.0000362
1.0000347
1.000033
1.0000312
1.0000291
1.0000269
1.0000243
1.0000215
1.0000183
1.0000148
1.0000108
1.0000064
1.0000015
0.99999611
0.9999903
0.99998405
0.99997736
0.99997029
0.99996288
0.99995516
0.99994709
0.99993884
0.99993038
0.99992156
0.99991243
0.99990316
0.99989389
0.99988468
0.99987553
0.99986649
0.99985759
0.99984891
0.99984054
0.99983254
0.999825
0.999818
0.99981158
0.99980579
0.99980063
0.99979609
0.99979215
0.99978874
1.000039
1.0000384
1.0000378
1.000037
1.0000362
1.0000352
1.0000341
1.0000328
1.0000314
1.0000299
1.0000281
1.0000261
1.0000239
1.0000215
1.0000189
1.0000159
1.0000126
1.0000089
1.0000047
1.0000001
0.99999503
0.99998956
0.99998366
0.99997735
0.99997068
0.9999637
0.99995642
0.99994882
0.99994106
0.99993306
0.99992463
0.9999159
0.99990708
0.99989826
0.99988943
0.99988056
0.99987168
0.99986281
0.99985403
0.99984544
0.99983712
0.99982917
0.99982166
0.99981467
0.99980822
0.99980232
0.99979697
0.99979212
0.99978784
1.0000356
1.000035
1.0000344
1.0000337
1.0000328
1.0000319
1.0000309
1.0000297
1.0000283
1.0000268
1.0000252
1.0000233
1.0000212
1.0000189
1.0000163
1.0000136
1.0000105
1.0000071
1.0000032
0.99999886
0.99999411
0.99998897
0.99998343
0.99997751
0.99997125
0.99996471
0.99995788
0.99995076
0.99994353
0.99993598
0.99992793
0.99991967
0.99991138
0.99990306
0.99989462
0.99988603
0.99987729
0.99986844
0.99985953
0.99985067
0.99984197
0.99983356
0.99982556
0.99981811
0.99981132
0.99980529
0.99980005
0.99979562
0.99979185
1.0000322
1.0000317
1.0000311
1.0000304
1.0000296
1.0000287
1.0000277
1.0000266
1.0000254
1.000024
1.0000224
1.0000206
1.0000186
1.0000164
1.000014
1.0000114
1.0000085
1.0000054
1.0000018
0.99999776
0.99999331
0.9999885
0.99998331
0.99997776
0.9999719
0.99996579
0.99995943
0.99995281
0.99994613
0.99993904
0.99993143
0.99992377
0.99991612
0.99990835
0.99990037
0.9998921
0.99988355
0.99987473
0.99986568
0.99985647
0.99984722
0.99983803
0.99982904
0.9998204
0.99981219
0.9998045
0.99979741
0.99979087
0.99978511
1.000029
1.0000285
1.0000279
1.0000272
1.0000264
1.0000256
1.0000246
1.0000236
1.0000224
1.0000212
1.0000197
1.0000181
1.0000162
1.0000142
1.0000119
1.0000094
1.0000067
1.0000038
1.0000005
0.99999675
0.99999259
0.99998808
0.99998322
0.99997803
0.99997255
0.99996685
0.99996092
0.99995478
0.99994863
0.99994194
0.99993484
0.99992791
0.99992095
0.99991382
0.99990638
0.99989858
0.99989038
0.99988176
0.99987272
0.99986328
0.99985354
0.99984363
0.99983375
0.99982416
0.99981514
0.999807
0.99979992
0.99979412
0.99978943
1.0000258
1.0000253
1.0000246
1.0000239
1.0000232
1.0000224
1.0000215
1.0000206
1.0000196
1.0000184
1.0000172
1.0000157
1.000014
1.0000121
1.00001
1.0000076
1.000005
1.0000023
0.99999931
0.99999589
0.99999207
0.99998792
0.99998347
0.99997871
0.99997369
0.99996844
0.99996295
0.9999573
0.99995162
0.99994522
0.99993868
0.9999325
0.99992613
0.99991958
0.99991265
0.99990536
0.99989755
0.99988923
0.99988026
0.99987065
0.99986038
0.99984951
0.9998381
0.9998263
0.99981428
0.9998024
0.99979079
0.99977989
0.99976997
1.0000227
1.0000221
1.0000215
1.0000208
1.0000201
1.0000193
1.0000185
1.0000176
1.0000167
1.0000157
1.0000145
1.0000132
1.0000118
1.0000101
1.0000081
1.0000059
1.0000035
1.000001
0.99999833
0.9999953
0.99999188
0.99998818
0.99998421
0.99997997
0.9999755
0.99997083
0.99996594
0.99996096
0.99995592
0.99995008
0.99994436
0.99993914
0.99993338
0.99992756
0.99992118
0.99991452
0.99990716
0.99989924
0.99989033
0.99988057
0.99986961
0.99985764
0.99984468
0.99983118
0.99981788
0.99980555
0.99979446
0.99978606
0.99977842
1.0000194
1.0000186
1.0000178
1.000017
1.0000162
1.0000155
1.0000148
1.0000141
1.0000134
1.0000126
1.0000117
1.0000107
1.0000095
1.0000081
1.0000065
1.0000045
1.0000022
0.99999971
0.99999716
0.99999435
0.99999115
0.99998761
0.9999838
0.99997968
0.99997538
0.999971
0.99996652
0.99996209
0.99995756
0.99995246
0.99994791
0.99994375
0.99993902
0.99993442
0.99992921
0.99992387
0.99991775
0.99991113
0.99990333
0.99989458
0.9998841
0.99987188
0.9998575
0.99984069
0.99982243
0.99980019
0.99977551
0.99974876
0.99972005
1.0000148
1.0000138
1.0000133
1.0000128
1.0000124
1.0000121
1.0000118
1.0000114
1.0000111
1.0000106
1.00001
1.0000093
1.0000083
1.000007
1.0000055
1.0000035
1.0000011
0.99999834
0.99999564