/*--------------------------------*- C++ -*----------------------------------*\
| =========                 |                                                 |
| \\      /  F ield         | OpenFOAM: The Open Source CFD Toolbox           |
|  \\    /   O peration     | Version:  v2006                                 |
|   \\  /    A nd           | Website:  www.openfoam.com                      |
|    \\/     M anipulation  |                                                 |
\*---------------------------------------------------------------------------*/
FoamFile
{
    version     2.0;
    format      ascii;
    class       volVectorField;
    location    "2500";
    object      U;
}
// * * * * * * * * * * * * * * * * * * * * * * * * * * * * * * * * * * * * * //

dimensions      [0 1 -1 0 0 0 0];


internalField   nonuniform List<vector> 
19765
(
(0.0875517 0.028539342 -9.1857622e-20)
(0.084749685 0.031456908 9.2421346e-20)
(0.07789185 0.033238269 -9.4798648e-20)
(0.070151253 0.033436883 0)
(0.063503554 0.032617125 0)
(0.057468085 0.030953366 2.3312418e-19)
(0.051271925 0.028496991 -1.8619782e-19)
(0.045691831 0.025719554 0)
(0.040258003 0.022385207 4.7095754e-19)
(0.034404782 0.018304997 4.0103737e-20)
(0.029601091 0.014033805 -8.0771828e-19)
(0.025822918 0.0095043045 8.0434975e-19)
(0.022460477 0.0047694989 -9.0724357e-19)
(0.019633134 -0.00010922806 -1.0495069e-18)
(0.017584515 -0.0051181479 1.2359488e-18)
(0.015991601 -0.010386008 0)
(0.014645689 -0.015489866 -2.2831062e-20)
(0.013719466 -0.020596449 1.8016461e-20)
(0.013210343 -0.025837677 -9.4221915e-19)
(0.013114786 -0.031174862 7.9039693e-19)
(0.013429655 -0.036655777 -3.3952384e-19)
(0.014117477 -0.042010507 5.8800052e-19)
(0.015195786 -0.047219446 -2.6614397e-19)
(0.016740102 -0.052672191 1.1224558e-20)
(0.018714135 -0.058110104 -5.4824579e-20)
(0.020874471 -0.062751939 4.3197011e-20)
(0.023224248 -0.066896209 -1.9073058e-19)
(0.026024126 -0.071398572 1.8131864e-19)
(0.029106348 -0.075747981 0)
(0.03229875 -0.079568426 3.3413789e-19)
(0.035864876 -0.083458562 -3.1854737e-19)
(0.040008176 -0.087498248 6.1092657e-19)
(0.045347694 -0.091762096 -5.8940473e-19)
(0.051187782 -0.095511164 2.8407849e-19)
(0.05610179 -0.09780627 -2.7989621e-19)
(0.060723865 -0.099576349 -2.6548882e-19)
(0.06684234 -0.10179518 1.8809225e-22)
(0.07341804 -0.10356555 5.1608008e-19)
(0.079448904 -0.10438654 -2.7223281e-19)
(0.087151882 -0.10527294 -2.4704862e-19)
(0.096101725 -0.10569369 2.4171984e-19)
(0.10219218 -0.10419078 -1.5065325e-20)
(0.10758365 -0.10180739 -2.9711561e-20)
(0.1128271 -0.098682833 1.1932101e-19)
(0.11593233 -0.094631626 -2.7023422e-19)
(0.1183658 -0.089816617 1.208189e-19)
(0.118363 -0.084401805 0)
(0.11719395 -0.078938509 -1.2704449e-19)
(0.11586868 -0.074026687 0)
(0.079029098 0.016518123 1.4977824e-19)
(0.076000323 0.019136183 1.4421868e-19)
(0.072451103 0.021239489 -6.8537632e-20)
(0.068615678 0.022034686 6.8045031e-20)
(0.064732407 0.021924503 -3.3618642e-19)
(0.061032156 0.021110551 2.6650391e-19)
(0.057448518 0.019778717 -3.2585053e-20)
(0.054150948 0.01805794 2.5852367e-19)
(0.051012154 0.015952374 3.154537e-20)
(0.047866483 0.013612966 -2.9575334e-19)
(0.044947859 0.010911473 1.575931e-20)
(0.042439503 0.0077892858 4.782677e-19)
(0.040213798 0.0043052902 -7.7335518e-19)
(0.038303555 0.00058561715 2.3077293e-19)
(0.036880227 -0.0033277985 -2.7046607e-19)
(0.035747999 -0.0074292739 3.1198556e-19)
(0.034741472 -0.011688638 -1.8085472e-20)
(0.03407842 -0.016062253 0)
(0.033860821 -0.020526294 1.959253e-20)
(0.034050813 -0.025044559 -2.9785212e-19)
(0.03460657 -0.029565994 2.59908e-19)
(0.035427054 -0.034121673 2.0254439e-20)
(0.036585382 -0.038652295 7.5940489e-21)
(0.038160441 -0.043068688 -1.0700458e-20)
(0.039999324 -0.047389084 -2.7008844e-20)
(0.041944638 -0.051707903 2.2575122e-20)
(0.044106473 -0.055945014 9.2370002e-20)
(0.046591805 -0.059990687 -2.949932e-19)
(0.049329147 -0.063903691 3.6462654e-19)
(0.052299179 -0.06766249 -1.7601642e-19)
(0.055560303 -0.07116928 1.0612039e-20)
(0.059181337 -0.074331672 0)
(0.063145469 -0.077016844 1.6906858e-19)
(0.067261209 -0.079301869 -7.1510588e-23)
(0.071419076 -0.081336315 -1.5657593e-19)
(0.075714557 -0.083081131 -1.7333731e-19)
(0.080210595 -0.084351079 6.9986929e-23)
(0.084810356 -0.085113474 -1.3334501e-19)
(0.089468576 -0.085367018 1.4231771e-19)
(0.094196853 -0.084936736 1.5081706e-19)
(0.098847098 -0.083669524 1.7329128e-19)
(0.10338321 -0.081616304 -3.1917272e-19)
(0.10781881 -0.079182646 1.8234493e-19)
(0.11209988 -0.076091603 -2.1158943e-20)
(0.11602042 -0.072985851 -8.7088341e-20)
(0.11953018 -0.06975515 1.8014668e-19)
(0.12256567 -0.066617708 -1.3991276e-19)
(0.12511882 -0.063929538 -4.8126655e-20)
(0.12732356 -0.061386954 9.9122415e-20)
(0.082809056 0.015744538 8.1483141e-20)
(0.080519253 0.015879898 4.2959432e-24)
(0.077858878 0.015848109 1.5882249e-19)
(0.074970028 0.015695917 -1.9898693e-24)
(0.072100747 0.015160471 -2.4946359e-19)
(0.069274518 0.01433366 3.4312673e-19)
(0.066540389 0.013198466 -8.7258481e-20)
(0.063921114 0.01187563 0)
(0.061454245 0.010255487 0)
(0.058976942 0.0084679159 4.7918401e-20)
(0.056672839 0.0064006286 0)
(0.054616968 0.003996993 5.3229721e-20)
(0.052757657 0.0013011994 5.0755522e-19)
(0.051150308 -0.0016144602 6.0653146e-19)
(0.049899742 -0.0047365095 -1.0534082e-18)
(0.048884717 -0.0080532273 -3.0740507e-23)
(0.048020176 -0.011531428 4.038597e-20)
(0.047430071 -0.015150591 -7.432453e-19)
(0.04717058 -0.018905991 8.278073e-19)
(0.047257502 -0.022743281 0)
(0.047672418 -0.026610545 5.0804758e-20)
(0.048315744 -0.030563337 -1.4835221e-23)
(0.049313305 -0.03451 -1.778235e-20)
(0.050678802 -0.038382996 -3.0834049e-20)
(0.05226487 -0.042177339 1.088063e-19)
(0.053978525 -0.045966525 -1.239897e-20)
(0.055980983 -0.049677196 -1.6892127e-19)
(0.058308255 -0.053221857 5.1780961e-19)
(0.060840338 -0.056657038 -3.0969565e-19)
(0.063613625 -0.059936062 3.6312357e-20)
(0.066642077 -0.062975619 2.568606e-19)
(0.069899594 -0.065723978 -5.5303516e-19)
(0.073375284 -0.068085922 -2.6397551e-19)
(0.076901497 -0.070207765 4.8316578e-19)
(0.080478046 -0.072159023 4.6955613e-19)
(0.084174232 -0.073793751 -4.2499452e-19)
(0.08798133 -0.074984459 0)
(0.09178067 -0.075894698 1.8872885e-19)
(0.095609048 -0.076443788 -2.1041684e-19)
(0.099416106 -0.076507391 2.3087095e-19)
(0.10309286 -0.076285684 -2.3031065e-19)
(0.10660188 -0.075992006 0)
(0.11001108 -0.075305719 0)
(0.11312979 -0.07434835 2.5665845e-20)
(0.1160411 -0.07319389 0)
(0.11861457 -0.072009926 -5.1114953e-20)
(0.1209387 -0.070716748 2.0193109e-19)
(0.12306012 -0.06933821 -9.9894556e-20)
(0.12501703 -0.067817253 0)
(0.081860962 0.011122933 -8.5750586e-20)
(0.080203611 0.011235357 -2.5471615e-19)
(0.07848954 0.01116976 8.2680967e-20)
(0.076686437 0.010981722 -4.2302985e-19)
(0.074862782 0.010506209 3.4515308e-19)
(0.07304633 0.0098103578 3.5585701e-19)
(0.071257195 0.0088703146 -2.7109415e-19)
(0.069530537 0.0077900276 3.7570412e-19)
(0.067848999 0.0064543363 4.8943676e-23)
(0.066168217 0.0050135211 -8.9094087e-19)
(0.06457683 0.0033688887 5.1812939e-19)
(0.063124902 0.0014586768 0)
(0.061789304 -0.00068784036 -5.7223445e-20)
(0.060624839 -0.0030015006 -1.0361127e-18)
(0.059703235 -0.0055134136 1.1784085e-18)
(0.058951636 -0.0082222189 1.0639705e-18)
(0.058322861 -0.011059152 -2.505087e-18)
(0.057910128 -0.014020012 1.4178058e-18)
(0.057772701 -0.017136035 -8.2737156e-19)
(0.057922858 -0.020327676 1.0102255e-18)
(0.058357913 -0.023538228 0)
(0.059002893 -0.026853128 -5.7370452e-19)
(0.05992399 -0.030160507 6.695144e-19)
(0.06112845 -0.033420712 -3.6762852e-19)
(0.062539075 -0.036627251 6.1767651e-20)
(0.064104663 -0.039832048 -7.3397352e-24)
(0.065918569 -0.042958735 -1.9484539e-19)
(0.067992665 -0.045928479 5.3431718e-19)
(0.070246965 -0.048779556 -3.3206799e-19)
(0.072698025 -0.051468254 -3.5056105e-19)
(0.075337501 -0.053926192 2.9480684e-19)
(0.078130657 -0.056122406 6.6733335e-19)
(0.081047413 -0.057994285 -1.7935781e-22)
(0.083988456 -0.059650142 -5.9297447e-19)
(0.086974233 -0.061138265 4.5113941e-19)
(0.090030068 -0.062360769 -5.0124047e-19)
(0.093104544 -0.063231522 4.8819354e-19)
(0.096129462 -0.06386888 -9.659586e-19)
(0.099141438 -0.064233747 5.0307486e-19)
(0.10207482 -0.064254299 2.0281339e-19)
(0.10487255 -0.064045755 -2.3163482e-19)
(0.10761663 -0.063739868 -5.8243917e-20)
(0.11035864 -0.063158474 2.2836064e-19)
(0.11296208 -0.062457885 -2.317311e-19)
(0.11553921 -0.061533135 0)
(0.11801702 -0.06044678 1.1519972e-19)
(0.12048153 -0.059248839 -5.6962351e-20)
(0.12289124 -0.057993348 0)
(0.1252549 -0.056733123 0)
(0.082821819 0.0089499471 -8.0077504e-20)
(0.081494917 0.0085722324 -2.373323e-19)
(0.080131269 0.0081508131 3.0786689e-19)
(0.078735722 0.0077360525 7.8361773e-20)
(0.07734931 0.0071693817 2.3861831e-19)
(0.075978943 0.0064864893 -2.4439143e-19)
(0.074633304 0.0056488081 2.4696725e-19)
(0.073333564 0.0047209527 -4.2431691e-19)
(0.072069387 0.0036054764 -8.6080708e-20)
(0.070806809 0.002404297 1.7624559e-19)
(0.069610709 0.0010367088 -8.2170429e-19)
(0.068512698 -0.00054607769 8.5283978e-19)
(0.067499822 -0.0023268037 9.8457096e-20)
(0.066613358 -0.0042603228 8.2736804e-19)
(0.065905507 -0.0063730171 -1.0933882e-19)
(0.065330242 -0.0086581946 -9.3023559e-19)
(0.064859978 -0.011064999 0)
(0.0645647 -0.013599505 0)
(0.064493435 -0.016286925 0)
(0.064660588 -0.019077 -5.3905322e-19)
(0.065067412 -0.021928301 8.0546225e-19)
(0.065670277 -0.024856316 -8.2260099e-19)
(0.06651271 -0.027773568 5.1745885e-19)
(0.067609977 -0.030663361 -6.2242958e-20)
(0.068906518 -0.033511385 1.0482528e-23)
(0.070356395 -0.036346419 2.4278132e-20)
(0.07201766 -0.039099845 4.3932394e-20)
(0.073897041 -0.041716379 -8.0749208e-20)
(0.075933409 -0.044225372 2.267667e-19)
(0.078128889 -0.046582306 -2.8533877e-19)
(0.080470574 -0.04873618 0)
(0.082926403 -0.050668115 -5.8479482e-19)
(0.085467646 -0.052330219 1.0028872e-18)
(0.088018003 -0.053814298 -4.301249e-19)
(0.090582466 -0.055152353 -4.2226007e-19)
(0.09317579 -0.056266662 1.4185685e-22)
(0.095763366 -0.05709828 9.2270424e-19)
(0.098293062 -0.057759221 -4.5785606e-19)
(0.10078716 -0.058215966 0)
(0.10321163 -0.058417222 0)
(0.1055308 -0.058477325 -1.6629458e-19)
(0.10778822 -0.058529406 2.2342559e-19)
(0.1100297 -0.058375809 5.4957251e-20)
(0.11217 -0.058222582 3.3478861e-19)
(0.11429735 -0.057930588 -5.5253583e-20)
(0.116352 -0.057619485 -2.7925242e-19)
(0.11837358 -0.057246824 5.5801426e-20)
(0.12035869 -0.056727564 0)
(0.12230438 -0.056024765 -3.6333259e-23)
(0.083595899 0.0066657066 4.2190309e-24)
(0.082609705 0.0062938834 -5.803162e-24)
(0.081604462 0.0058653428 0)
(0.080576588 0.0054205962 -3.6199708e-19)
(0.079558622 0.0048571698 7.3122421e-20)
(0.078549943 0.0042020658 2.2353055e-19)
(0.077551995 0.0034287138 7.4966469e-20)
(0.076583528 0.0025810684 1.5358851e-19)
(0.075633607 0.0015886174 7.7514186e-20)
(0.07467933 0.00051950773 -1.5766039e-19)
(0.073773566 -0.00068496948 0)
(0.072941668 -0.0020615861 -2.501793e-19)
(0.072174845 -0.0036011115 -8.5895624e-20)
(0.071506526 -0.0052740229 1.7846786e-19)
(0.070979621 -0.0070990414 0)
(0.070562521 -0.0090722458 -1.9567818e-19)
(0.07023713 -0.011159366 1.0384226e-18)
(0.070060436 -0.013363462 -8.9567698e-19)
(0.070075016 -0.01569796 0)
(0.070296093 -0.01812236 9.641597e-19)
(0.070733128 -0.020601711 -1.2764932e-18)
(0.071353495 -0.023141183 7.8420477e-19)
(0.072178258 -0.025682973 -4.5351148e-19)
(0.073228199 -0.02821357 1.1002498e-19)
(0.074460221 -0.03070823 -9.6581467e-20)
(0.075837487 -0.033183139 -1.3014697e-19)
(0.077397667 -0.035583074 1.1846838e-19)
(0.079143354 -0.037861315 3.6481387e-19)
(0.081027806 -0.040034965 -6.1742804e-19)
(0.08304538 -0.042069402 1.3150076e-22)
(0.085179668 -0.043925211 4.970361e-19)
(0.087401868 -0.045587207 4.7832349e-19)
(0.08968481 -0.047020519 -4.634562e-19)
(0.091971911 -0.048289703 -1.1385392e-19)
(0.09426348 -0.049420357 0)
(0.096563471 -0.050362695 4.3953564e-19)
(0.09884281 -0.051078565 -1.0854516e-22)
(0.10106499 -0.051643152 -4.2929814e-19)
(0.10324522 -0.052039116 0)
(0.1053593 -0.052236836 0)
(0.10738732 -0.052309152 -1.0461472e-19)
(0.10936062 -0.052335467 5.2695012e-20)
(0.11132472 -0.052201807 -5.1948658e-20)
(0.11321663 -0.052024271 -5.2716019e-19)
(0.11511517 -0.051721999 4.699238e-19)
(0.11698233 -0.051353895 0)
(0.11886833 -0.050893242 -5.2695505e-20)
(0.12076616 -0.050340534 0)
(0.12267068 -0.049660451 2.0763884e-19)
(0.084669884 0.0051494505 6.9325609e-20)
(0.083866662 0.0046876136 -1.3661727e-19)
(0.083053266 0.0042037589 -2.6560471e-19)
(0.082233866 0.0037239848 5.3676401e-19)
(0.08143212 0.0031631765 -4.0550274e-19)
(0.080644745 0.0025377145 0)
(0.079868836 0.0018237184 5.5025342e-19)
(0.079118725 0.0010498467 -7.0090732e-20)
(0.078384179 0.00016087652 3.306054e-23)
(0.077647196 -0.00079632116 -9.2721749e-19)
(0.076950255 -0.0018676824 -2.8675108e-23)
(0.076313093 -0.0030824745 5.957619e-19)
(0.075729555 -0.0044358219 6.0908834e-19)
(0.075226787 -0.0059073619 -1.4121575e-18)
(0.074839853 -0.0075116951 6.4964996e-19)
(0.074546904 -0.009246783 8.4352072e-19)
(0.074336803 -0.011087725 -1.5919335e-18)
(0.07425576 -0.013036037 1.9240123e-23)
(0.074338995 -0.015100116 6.0787413e-19)
(0.07460024 -0.017248133 -8.8984629e-19)
(0.07504735 -0.019454072 7.5145188e-19)
(0.075657786 -0.021713818 5.1621818e-19)
(0.076446697 -0.02397717 2.269076e-19)
(0.077435919 -0.026233907 -1.9433773e-19)
(0.078590264 -0.028462004 1.3405816e-21)
(0.079880524 -0.030670461 -7.7502423e-20)
(0.081333022 -0.032811742 0)
(0.082946481 -0.034846971 1.3177037e-19)
(0.084682245 -0.036789445 -1.2445812e-19)
(0.086531988 -0.038609212 1.1849159e-19)
(0.088478965 -0.04027414 0)
(0.090497788 -0.041773311 0)
(0.09256322 -0.043078588 4.2770002e-19)
(0.094629508 -0.044245015 -4.2162609e-19)
(0.096693696 -0.045293703 -4.1629004e-19)
(0.098756435 -0.046183814 8.1897499e-19)
(0.1007941 -0.046884657 -9.4472204e-23)
(0.10278011 -0.047464086 -1.0058086e-19)
(0.10472466 -0.047906996 -3.9780303e-19)
(0.1066109 -0.048186425 -3.9306874e-19)
(0.10842521 -0.048368438 4.4352084e-19)
(0.11019435 -0.048532209 0)
(0.11194847 -0.048564058 -1.961231e-19)
(0.11365036 -0.048587376 1.9889959e-19)
(0.11535443 -0.048514578 -1.9712469e-19)
(0.11703913 -0.048415869 9.9582275e-20)
(0.11873844 -0.048259408 0)
(0.12045208 -0.048040054 1.9829986e-19)
(0.1221895 -0.047701433 -1.9604335e-19)
(0.085660461 0.0037697996 -1.9381275e-19)
(0.085030896 0.0033270956 1.2724778e-19)
(0.08439217 0.0028606681 2.474125e-19)
(0.083748193 0.002390516 -1.2465796e-19)
(0.083120487 0.0018545834 -3.7580703e-19)
(0.08250496 0.0012646176 7.6033124e-19)
(0.081898261 0.00060232164 -8.8712545e-19)
(0.081312607 -0.00011253355 5.1464779e-19)
(0.080739505 -0.00092203177 -1.2890188e-19)
(0.080164786 -0.0017939932 -1.2992074e-19)
(0.079624443 -0.0027635018 -5.2797012e-19)
(0.079134639 -0.0038535562 9.5920888e-24)
(0.078690983 -0.005062167 -1.4470941e-23)
(0.078316022 -0.0063752553 8.3732112e-19)
(0.078039187 -0.0078035573 0)
(0.077844919 -0.0093464718 -2.9539485e-19)
(0.077726603 -0.010986339 0)
(0.077722977 -0.01272309 3.2245137e-19)
(0.077863888 -0.014561012 -1.7150404e-19)
(0.078162141 -0.016474096 0)
(0.078625385 -0.018441059 -4.8449095e-23)
(0.07923927 -0.020454941 -2.1713644e-19)
(0.080013887 -0.022473657 0)
(0.080967256 -0.024488221 -1.7228908e-19)
(0.082071508 -0.026478435 7.5332294e-20)
(0.083302666 -0.028447877 3.4731146e-20)
(0.084678753 -0.030356005 0)
(0.086196437 -0.032168733 -1.1929936e-19)
(0.087823582 -0.033894705 -1.1309689e-19)
(0.08955018 -0.035509142 -1.0816384e-19)
(0.091359322 -0.03698548 0)
(0.093227957 -0.038314658 -2.023366e-19)
(0.095132839 -0.039474264 0)
(0.097036745 -0.04050719 -9.7583753e-20)
(0.09893558 -0.041430961 8.5986762e-23)
(0.10082694 -0.042215654 8.3269803e-23)
(0.10269029 -0.042838643 3.7714569e-19)
(0.10450498 -0.043351922 4.7042003e-19)
(0.10627862 -0.043745747 -7.413656e-23)
(0.10799732 -0.044000945 -6.9847851e-23)
(0.1096518 -0.044166386 -7.4235929e-19)
(0.1112635 -0.044299707 6.7797809e-23)
(0.11285983 -0.04432018 3.7012177e-19)
(0.11441025 -0.044313355 1.8751089e-19)
(0.11596356 -0.04421766 -1.8609253e-19)
(0.11750243 -0.044078224 9.3919113e-20)
(0.1190596 -0.043870457 9.381322e-20)
(0.12063717 -0.043588087 -1.8707221e-19)
(0.12224493 -0.043194374 2.775257e-19)
(0.086668811 0.0027495045 1.205193e-19)
(0.086154896 0.0023060142 -4.1534059e-19)
(0.085634093 0.0018475292 0)
(0.085112168 0.001387992 -4.6436305e-19)
(0.084607042 0.00087638867 9.3125007e-19)
(0.084114652 0.00032028674 -4.6972118e-19)
(0.08363118 -0.00029591471 -1.1719413e-19)
(0.083166959 -0.00095858737 1.1854956e-19)
(0.082714697 -0.0017013109 2.3690439e-19)
(0.082263033 -0.0025012448 0)
(0.081842503 -0.0033862846 0)
(0.081466541 -0.0043750681 -1.2168469e-19)
(0.08113199 -0.0054671488 0)
(0.080857894 -0.0066524015 -2.5050765e-19)
(0.0806692 -0.0079390989 0)
(0.080554644 -0.0093274564 -7.8499047e-19)
(0.080510575 -0.010804311 5.394283e-19)
(0.080569791 -0.01236852 -5.619213e-19)
(0.08075767 -0.01402192 8.8783092e-19)
(0.081085707 -0.015743013 6.3213399e-19)
(0.0815606 -0.01751429 -5.1573772e-19)
(0.082172867 -0.019327928 1.8585812e-19)
(0.082930024 -0.021147135 -1.7654569e-19)
(0.083846963 -0.022962607 1.4613864e-23)
(0.084901604 -0.024757209 6.8472581e-20)
(0.086073989 -0.026531703 -6.2434584e-20)
(0.087376872 -0.028251023 0)
(0.088805525 -0.029885505 1.0818772e-19)
(0.090332517 -0.031441584 1.0297525e-19)
(0.091947381 -0.032898193 0)
(0.093633836 -0.034232969 -1.9121922e-19)
(0.095371218 -0.035438822 3.7261171e-19)
(0.097138237 -0.036497335 0)
(0.098903744 -0.037444872 -9.0420226e-19)
(0.1006629 -0.038296403 7.182276e-19)
(0.10241199 -0.039027298 0)
(0.10413298 -0.039618833 3.5218828e-19)
(0.1058098 -0.04011642 -3.5219572e-19)
(0.1074477 -0.040511701 0)
(0.10903524 -0.040787653 2.6063563e-19)
(0.1105653 -0.040987248 -3.4914328e-19)
(0.11205748 -0.041164002 0)
(0.11353057 -0.041242468 8.7179152e-20)
(0.11496524 -0.041305528 -3.531701e-19)
(0.11639791 -0.041293436 3.508081e-19)
(0.11781842 -0.041253155 3.5393938e-19)
(0.11925261 -0.041161246 -4.419004e-19)
(0.12070378 -0.041014377 4.406766e-19)
(0.1221814 -0.04076761 -4.359976e-19)
(0.087611135 0.0018615206 -5.6288538e-20)
(0.087197018 0.0014443296 1.1085847e-19)
(0.086776299 0.0010121396 2.1571153e-19)
(0.08635429 0.00057522301 5.4148458e-19)
(0.085947556 9.3993822e-05 -5.419532e-19)
(0.085552299 -0.00042660127 -4.3635805e-19)
(0.085165342 -0.00099923281 9.778528e-19)
(0.084795656 -0.0016145107 -5.4793274e-19)
(0.084437495 -0.0022989636 -5.4611918e-19)
(0.08408162 -0.0030366384 8.7467855e-19)
(0.083754555 -0.0038495742 -4.406532e-19)
(0.083467779 -0.0047528467 2.2200662e-19)
(0.08321912 -0.005746996 2.2351125e-19)
(0.083024907 -0.0068246897 9.0522011e-19)
(0.08290663 -0.0079921255 -9.1919623e-19)
(0.082856073 -0.009250027 0)
(0.082871601 -0.010588617 0)
(0.08298141 -0.012005974 4.4784089e-23)
(0.083207334 -0.013502164 0)
(0.083559713 -0.015059115 5.4741214e-19)
(0.084044732 -0.016661655 -5.887308e-19)
(0.084656515 -0.018301921 6.446349e-19)
(0.085400896 -0.019948101 -3.139359e-19)
(0.086289659 -0.021590073 4.8013657e-19)
(0.087305305 -0.023213251 -6.152947e-20)
(0.088430624 -0.024816414 -1.1262604e-19)
(0.089674517 -0.026368844 -1.0453439e-19)
(0.091031507 -0.027844172 -2.9516427e-19)
(0.09247793 -0.029246678 -5.636628e-19)
(0.094003147 -0.03055835 1.8103931e-19)
(0.095591503 -0.031759949 1.7570858e-19)
(0.097224137 -0.0328454 -1.717582e-19)
(0.098881428 -0.033799307 -6.7526111e-19)
(0.10053685 -0.034651424 1.3413515e-18)
(0.10218518 -0.035414436 -6.6746507e-19)
(0.10382144 -0.036068799 0)
(0.10542924 -0.036599507 -4.9364123e-19)
(0.1069953 -0.037043736 4.9454625e-19)
(0.10852328 -0.037395483 1.6419296e-19)
(0.11000288 -0.037641386 -2.4507704e-19)
(0.11142851 -0.037815871 -1.6424721e-19)
(0.11281693 -0.037961946 0)
(0.11418427 -0.038020236 -8.2185516e-20)
(0.11551417 -0.038055357 -2.4964643e-19)
(0.11683901 -0.038020623 5.7914764e-19)
(0.11815009 -0.037951287 -2.5040728e-19)
(0.11947128 -0.037828214 -1.6678804e-19)
(0.12080601 -0.037647386 -2.4948357e-19)
(0.12216393 -0.037373161 -1.646464e-19)
(0.088512938 0.0011701178 5.2647629e-19)
(0.088173553 0.00077274836 2.0735353e-19)
(0.087828405 0.00036266833 -5.0463249e-19)
(0.087482999 -5.2748013e-05 4.0469487e-19)
(0.087151944 -0.00050603602 -8.0884511e-19)
(0.086831922 -0.0009942632 3.0461959e-19)
(0.086520171 -0.0015282174 3.0289477e-19)
(0.0862246 -0.0021014723 -4.0622438e-19)
(0.08594058 -0.0027355613 0)
(0.085660658 -0.0034191788 -8.0664997e-19)
(0.085407966 -0.0041701258 8.0998203e-19)
(0.085192476 -0.0050008121 -8.1313268e-19)
(0.085012788 -0.0059123042 6.117413e-19)
(0.084883098 -0.0068991534 -4.111521e-19)
(0.084822092 -0.0079660526 1.2465939e-18)
(0.084823775 -0.0091139582 8.4150614e-19)
(0.084887898 -0.010335383 -1.2857754e-18)
(0.085038914 -0.011627854 2.2030169e-19)
(0.085295726 -0.012990278 1.3712792e-18)
(0.085667587 -0.014407283 -9.5980737e-19)
(0.086160271 -0.015865307 -5.1135967e-19)
(0.086769941 -0.017356985 5.5547957e-19)
(0.087501347 -0.018854795 -9.6538439e-19)
(0.088363845 -0.020347522 2.464358e-19)
(0.089343397 -0.021822962 -5.5492881e-20)
(0.090425082 -0.023278976 1.0195316e-19)
(0.091615052 -0.024688252 9.4975298e-20)
(0.092907358 -0.026027411 5.3813483e-19)
(0.094281298 -0.027299433 -1.718287e-19)
(0.095726396 -0.028488823 4.980402e-19)
(0.097227768 -0.029578954 0)
(0.09876822 -0.030564816 0)
(0.10032967 -0.031433497 0)
(0.10188925 -0.032210343 3.110787e-19)
(0.10344158 -0.032906436 -3.1025241e-19)
(0.10498107 -0.033505621 3.0873083e-19)
(0.1064927 -0.033995373 -3.0756465e-19)
(0.10796554 -0.034408003 1.5428357e-19)
(0.10940197 -0.034738673 -6.1603506e-19)
(0.11079266 -0.034975877 4.6059824e-19)
(0.1121329 -0.035149565 -1.5445553e-19)
(0.11343831 -0.035298421 3.1172634e-19)
(0.11472001 -0.035369152 0)
(0.11596697 -0.035421021 -7.839607e-20)
(0.11720471 -0.035411318 1.5601506e-19)
(0.11842791 -0.035373702 -1.5729776e-19)
(0.11965624 -0.035290771 3.1442764e-19)
(0.12089385 -0.03516054 1.5681325e-19)
(0.12214867 -0.034945903 -2.2742203e-23)
(0.089353281 0.00058202397 -2.9577817e-19)
(0.089076632 0.00021120319 0)
(0.088794726 -0.00017230495 -7.7594681e-24)
(0.088512442 -0.00056325125 0)
(0.088243255 -0.00098770727 -3.7779556e-19)
(0.087984265 -0.0014441691 9.4670557e-20)
(0.087733377 -0.0019416867 5.6399565e-19)
(0.087497614 -0.0024760068 1.8865405e-19)
(0.087273462 -0.003064582 -5.6171325e-19)
(0.087054871 -0.0036996003 -7.4587698e-19)
(0.086862259 -0.0043954473 7.4668229e-19)
(0.086704436 -0.0051623713 0)
(0.086580649 -0.0060017441 3.7348673e-19)
(0.086503386 -0.006909477 -3.7511179e-19)
(0.08648907 -0.0078890493 7.5509212e-19)
(0.086533382 -0.008941507 -7.6140515e-19)
(0.08663705 -0.010061053 5.3773893e-23)
(0.086821474 -0.011244831 7.8943075e-19)
(0.087103152 -0.012490911 -1.2216663e-18)
(0.08749042 -0.013786019 8.4947456e-19)
(0.087988752 -0.015117835 -1.1230556e-18)
(0.088595487 -0.016479489 -2.4184567e-19)
(0.089314815 -0.0178471 0)
(0.090154287 -0.019208611 0)
(0.091102154 -0.020553653 0)
(0.092145553 -0.021879545 0)
(0.093288517 -0.023161784 0)
(0.094524846 -0.024379405 1.6392383e-19)
(0.095836264 -0.025534253 -6.2970654e-19)
(0.097212546 -0.026612836 3.0514784e-19)
(0.098639545 -0.027600535 5.95852e-19)
(0.10010143 -0.028492982 -5.8595272e-19)
(0.10158142 -0.029279131 5.7916004e-19)
(0.10305947 -0.029980299 -5.7777198e-19)
(0.1045301 -0.030606059 2.8869984e-19)
(0.10598714 -0.031143089 -2.8798408e-19)
(0.10741652 -0.03158096 4.3133514e-19)
(0.10880882 -0.031947104 5.7788005e-19)
(0.1101654 -0.032237951 -2.8908127e-19)
(0.11147742 -0.032444102 -1.3978468e-24)
(0.11274084 -0.032590655 0)
(0.11396954 -0.032710326 -1.4672456e-19)
(0.11517241 -0.032758915 1.4603043e-19)
(0.11634025 -0.032785592 2.9561114e-19)
(0.11749545 -0.03275511 -3.6807682e-19)
(0.11863348 -0.032694935 -3.7107175e-19)
(0.11977212 -0.032590352 2.9677232e-19)
(0.12091514 -0.03243948 0)
(0.1220699 -0.032210248 1.4676943e-19)
(0.090143901 0.00011252886 -2.7717995e-19)
(0.08991709 -0.00023522164 -2.7293037e-19)
(0.089685672 -0.00059505222 2.6595736e-19)
(0.089454211 -0.00096328992 0)
(0.089234889 -0.0013614209 -2.6501755e-19)
(0.089025266 -0.0017889922 -6.2757288e-24)
(0.088823749 -0.0022537717 5.2588911e-19)
(0.088636655 -0.0027530686 -5.2649205e-19)
(0.088461322 -0.0033012537 5.216703e-19)
(0.0882929 -0.0038929947 0)
(0.088149487 -0.0045400637 0)
(0.088038961 -0.0052510135 0)
(0.087961091 -0.0060273552 -3.4318896e-19)
(0.087926978 -0.0068659663 -6.8689875e-19)
(0.087951164 -0.0077693956 1.3779171e-18)
(0.088030616 -0.0087386731 -1.3842271e-18)
(0.088166747 -0.009769203 3.4950594e-19)
(0.088378412 -0.010857867 2.4606075e-23)
(0.088680099 -0.012002155 7.3044637e-19)
(0.089079341 -0.013190456 3.7887439e-19)
(0.089581276 -0.014411497 -1.9755986e-23)
(0.090183994 -0.015658871 0)
(0.090891276 -0.016911708 2.1693704e-19)
(0.091709248 -0.018157546 -2.0124929e-19)
(0.092627838 -0.019387392 0)
(0.093635902 -0.020598282 -8.4314715e-20)
(0.094735877 -0.021768158 0)
(0.095921434 -0.022878171 1.5012867e-19)
(0.097176271 -0.023929367 -2.8915183e-19)
(0.098490496 -0.024909957 -5.6170383e-19)
(0.099850684 -0.025807059 8.7906918e-23)
(0.1012422 -0.026616942 8.1318382e-19)
(0.10264945 -0.027330192 -5.3718582e-19)
(0.10405471 -0.027965122 2.684748e-19)
(0.10545249 -0.028530233 0)
(0.10683632 -0.029014458 -8.0622543e-19)
(0.10819304 -0.029409091 4.0635697e-23)
(0.10951453 -0.029738131 -5.4131075e-19)
(0.11080138 -0.029998945 4.0689564e-19)
(0.11204526 -0.030183649 -4.0697713e-19)
(0.11324257 -0.030314132 7.4970339e-23)
(0.11440625 -0.030419518 6.9066675e-19)
(0.11554225 -0.030460934 1.3764681e-19)
(0.11664403 -0.030482363 -2.78695e-19)
(0.11772992 -0.030452495 -2.7780076e-19)
(0.11879698 -0.030396446 3.5011608e-19)
(0.11986028 -0.030301093 7.0015824e-20)
(0.12092379 -0.030165777 1.3975616e-19)
(0.12199317 -0.029959114 -2.0799532e-19)
(0.090880012 -0.00027975608 0)
(0.090695031 -0.00060352952 -8.5338466e-20)
(0.090506077 -0.0009393806 0)
(0.090317112 -0.0012848846 0)
(0.090139365 -0.0016575517 0)
(0.089970777 -0.0020576957 0)
(0.089810273 -0.0024919634 -6.5468115e-19)
(0.089663561 -0.0029588296 6.5410393e-19)
(0.089528742 -0.0034701514 6.4710624e-19)
(0.08940194 -0.0040224682 -1.2835212e-18)
(0.089299315 -0.0046254382 6.3911378e-19)
(0.089227986 -0.0052862291 0)
(0.089188161 -0.0060063988 6.3230498e-19)
(0.089189793 -0.0067835337 -3.1547364e-19)
(0.08924586 -0.0076194369 -3.1541887e-19)
(0.089354331 -0.0085150627 1.2631535e-18)
(0.08951711 -0.0094666983 -6.3556744e-19)
(0.089750914 -0.010471048 -6.444533e-19)
(0.090068545 -0.011525189 1.7267641e-23)
(0.090476833 -0.012618835 3.4009529e-19)
(0.090980582 -0.013741608 -3.5561556e-19)
(0.091578421 -0.014887476 -3.7761924e-19)
(0.092273784 -0.016038023 3.8864331e-19)
(0.093071661 -0.017180752 0)
(0.093963282 -0.01830769 8.3130476e-20)
(0.094938905 -0.019415674 -3.5016043e-25)
(0.095999734 -0.020484757 0)
(0.097139412 -0.021497885 0)
(0.098343281 -0.022455448 0)
(0.099601796 -0.023347048 1.0359642e-18)
(0.10090221 -0.024161214 -5.1496529e-23)
(0.10223092 -0.024894671 -7.532645e-19)
(0.10357334 -0.025539289 4.9885337e-19)
(0.10491361 -0.026110755 0)
(0.10624625 -0.026616569 -2.5050137e-19)
(0.10756451 -0.027047485 2.5098466e-19)
(0.10885595 -0.027396199 -2.5163299e-19)
(0.11011332 -0.02768355 7.610425e-19)
(0.11133656 -0.027907724 0)
(0.11251766 -0.028062251 0)
(0.11365333 -0.028165973 5.1494064e-19)
(0.1147553 -0.028244186 -5.2040611e-19)
(0.11582787 -0.028263871 5.1931528e-19)
(0.11686568 -0.028262692 -3.9430476e-19)
(0.11788471 -0.028214147 0)
(0.1188825 -0.028139627 -6.610584e-20)
(0.11987251 -0.028027849 -6.6128137e-20)
(0.12085834 -0.027878495 -1.9811294e-19)
(0.12184478 -0.027663398 -1.3108188e-19)
(0.091569092 -0.00059480865 -3.253609e-19)
(0.091418461 -0.00089706036 8.0100511e-20)
(0.091264514 -0.0012111844 1.5627351e-19)
(0.091110781 -0.0015356902 0)
(0.090967535 -0.0018850444 0)
(0.090833082 -0.0022601147 1.5465123e-19)
(0.09070676 -0.0026666591 1.5298351e-19)
(0.090593768 -0.003104005 0)
(0.090492809 -0.00358203 0)
(0.090400837 -0.0040986425 2.9839662e-19)
(0.090332335 -0.0046618247 0)
(0.090293787 -0.0052776243 0)
(0.090285759 -0.0059475832 -5.8389545e-19)
(0.090317241 -0.0066698075 2.904986e-19)
(0.090399884 -0.0074455142 0)
(0.090532443 -0.0082755459 -5.7832526e-19)
(0.09071717 -0.0091568326 -5.8007678e-19)
(0.090968961 -0.010085968 5.862445e-19)
(0.091299187 -0.011059743 1.1941071e-18)
(0.091714063 -0.012068947 -6.1399485e-19)
(0.092218055 -0.013103981 -6.3892941e-19)
(0.09281019 -0.014159133 3.3750544e-19)
(0.093493567 -0.015218009 -3.5002777e-19)
(0.094272234 -0.016268321 -8.3324157e-20)
(0.095138479 -0.017302875 7.7155519e-20)
(0.096083707 -0.018318386 0)
(0.097108154 -0.019296759 2.6570606e-19)
(0.098205492 -0.020222519 0)
(0.099362429 -0.021095561 4.9036393e-19)
(0.10056978 -0.021906683 -2.9187331e-23)
(0.10181542 -0.022645648 -4.7052515e-19)
(0.10308665 -0.023309609 -6.8295715e-23)
(0.10436981 -0.023891573 -4.6364715e-19)
(0.10565057 -0.02440515 -4.6491757e-19)
(0.10692353 -0.024857091 -1.1680057e-18)
(0.1081818 -0.025239718 9.3815789e-19)
(0.10941362 -0.02554698 0)
(0.11061252 -0.025797289 -2.3782384e-19)
(0.11177798 -0.025989557 0)
(0.11290235 -0.026118512 4.8001956e-19)
(0.11398259 -0.026200728 2.423566e-19)
(0.11502959 -0.026258716 -5.8853683e-23)
(0.11604591 -0.026263745 -4.8990163e-19)
(0.11702764 -0.026249198 4.493984e-24)
(0.11798815 -0.026191901 -2.4764847e-19)
(0.11892581 -0.026111062 2.497051e-19)
(0.11985219 -0.025996733 -2.4986967e-19)
(0.12077091 -0.025849363 5.6169517e-19)
(0.12168534 -0.025642129 6.1968407e-20)
(0.092211446 -0.00085263564 -3.0558983e-19)
(0.092089872 -0.0011341754 7.5230256e-20)
(0.09196565 -0.0014275237 2.9371371e-19)
(0.091841791 -0.0017319516 7.3175129e-19)
(0.091727786 -0.0020593468 -5.8159995e-19)
(0.09162224 -0.002410977 -1.4486165e-19)
(0.091524866 -0.0027918351 -1.4315322e-19)
(0.091440419 -0.0032018834 -5.7004242e-19)
(0.091368116 -0.0036493757 8.4354995e-19)