/*--------------------------------*- C++ -*----------------------------------*\
| =========                 |                                                 |
| \\      /  F ield         | OpenFOAM: The Open Source CFD Toolbox           |
|  \\    /   O peration     | Version:  v2006                                 |
|   \\  /    A nd           | Website:  www.openfoam.com                      |
|    \\/     M anipulation  |                                                 |
\*---------------------------------------------------------------------------*/
FoamFile
{
    version     2.0;
    format      ascii;
    class       volVectorField;
    location    "2500";
    object      UMean;
}
// * * * * * * * * * * * * * * * * * * * * * * * * * * * * * * * * * * * * * //

dimensions      [0 1 -1 0 0 0 0];


internalField   nonuniform List<vector> 
19765
(
(0.091298228 0.030896259 -8.8496263e-20)
(0.08879846 0.034218702 8.8809904e-20)
(0.082006359 0.036364537 -9.0794667e-20)
(0.074237738 0.03690081 0)
(0.067581196 0.036429125 0)
(0.061536271 0.035118339 2.2073577e-19)
(0.055248411 0.032991019 -1.7548983e-19)
(0.049631762 0.030491174 0)
(0.044057829 0.027411152 4.3932764e-19)
(0.037930547 0.023536784 3.7209415e-20)
(0.032914006 0.019478552 -7.4381194e-19)
(0.028972363 0.015116675 7.3469401e-19)
(0.025427896 0.010495169 -8.2057365e-19)
(0.022424718 0.0057440949 -9.379007e-19)
(0.020225974 0.0009115013 1.0877392e-18)
(0.018414865 -0.0041985478 0)
(0.016771267 -0.0092568772 -2.1140481e-20)
(0.015558042 -0.014259063 1.8649583e-20)
(0.014834023 -0.019403116 -1.0334228e-18)
(0.014550126 -0.024641768 8.9792932e-19)
(0.014684238 -0.030004938 -3.9380714e-19)
(0.015171301 -0.035279489 6.897835e-19)
(0.016028561 -0.040418133 -3.1388016e-19)
(0.017342652 -0.045763437 1.3202732e-20)
(0.019065518 -0.051105388 -6.3623351e-20)
(0.020958832 -0.055747066 4.922938e-20)
(0.023045367 -0.05993475 -2.1427631e-19)
(0.025574581 -0.064447457 2.014342e-19)
(0.028382073 -0.068823488 0)
(0.031316696 -0.072707521 3.6512585e-19)
(0.034630085 -0.07665237 -3.4593499e-19)
(0.038510789 -0.080726523 6.6003031e-19)
(0.043535897 -0.085002169 -6.3391341e-19)
(0.049056076 -0.088798991 3.0435643e-19)
(0.053735047 -0.09122728 -2.9881179e-19)
(0.058167987 -0.093149684 -2.8254284e-19)
(0.064036917 -0.09548713 1.872101e-22)
(0.070360776 -0.097398383 5.4623187e-19)
(0.076189752 -0.098399767 -2.8744176e-19)
(0.083629051 -0.099455295 -2.602973e-19)
(0.092283878 -0.10005445 2.5414448e-19)
(0.098242001 -0.098808967 -1.5807015e-20)
(0.10353781 -0.096716401 -3.1105166e-20)
(0.10872499 -0.093923567 1.2483386e-19)
(0.11185966 -0.090208335 -2.8178574e-19)
(0.11437843 -0.085777991 1.2597719e-19)
(0.11455101 -0.080766283 0)
(0.11361713 -0.075702842 -1.3185051e-19)
(0.11252595 -0.071155348 0)
(0.082499582 0.018018113 1.4464734e-19)
(0.079469478 0.020936178 1.3921155e-19)
(0.075897009 0.023441309 -6.6118129e-20)
(0.072022919 0.024568612 6.5636184e-20)
(0.068072184 0.024765175 -3.2430451e-19)
(0.064279313 0.024234064 2.5719452e-19)
(0.060587794 0.023174965 -3.1453393e-20)
(0.057167873 0.021697237 2.4977414e-19)
(0.053903755 0.019826233 3.0490657e-20)
(0.050636781 0.0176987 -2.8601282e-19)
(0.047580456 0.015172446 1.5254038e-20)
(0.044918132 0.012201605 4.6334745e-19)
(0.042533653 0.0088649286 -7.4954709e-19)
(0.04045956 0.0052855308 2.2376903e-19)
(0.03885795 0.0014959413 -2.6231722e-19)
(0.037541245 -0.002480458 3.022547e-19)
(0.03633552 -0.0066041625 -1.7486268e-20)
(0.035440529 -0.010857026 0)
(0.034979473 -0.015232655 1.920374e-20)
(0.034927349 -0.019683146 -3.0096389e-19)
(0.035244946 -0.024151091 2.6832995e-19)
(0.035832564 -0.028656369 2.1188957e-20)
(0.036753746 -0.033139096 8.0101902e-21)
(0.038082256 -0.03752202 -1.1331499e-20)
(0.039668192 -0.041816848 -2.8600208e-20)
(0.041359873 -0.046104336 2.386691e-20)
(0.043271637 -0.050312692 9.7546861e-20)
(0.045509305 -0.054349669 -3.1112488e-19)
(0.047996811 -0.05826623 3.8401015e-19)
(0.050718906 -0.062033906 -1.8516073e-19)
(0.053738684 -0.065563004 1.1152524e-20)
(0.057120333 -0.068764174 0)
(0.060847486 -0.071512073 1.7738997e-19)
(0.06472665 -0.073883548 -7.0421718e-23)
(0.068647729 -0.076012523 -1.6407245e-19)
(0.072714948 -0.077856776 -1.8159189e-19)
(0.0769969 -0.079243059 6.9773628e-23)
(0.081388893 -0.080145071 -1.3962764e-19)
(0.085845576 -0.080551885 1.4900749e-19)
(0.090389609 -0.080295909 1.5790225e-19)
(0.094870098 -0.079240339 1.8140899e-19)
(0.099232476 -0.077446872 -3.3406537e-19)
(0.10350756 -0.07528037 1.9078907e-19)
(0.10764724 -0.072438962 -2.2138897e-20)
(0.11145467 -0.069596858 -9.0970679e-20)
(0.11487603 -0.066589173 1.8852079e-19)
(0.11785067 -0.063664982 -1.4628983e-19)
(0.12038231 -0.061150381 -5.027317e-20)
(0.12256801 -0.058829937 1.0344057e-19)
(0.085675494 0.017738544 7.8874462e-20)
(0.083391985 0.018062115 6.8484269e-24)
(0.080735892 0.018202107 1.5351227e-19)
(0.077831306 0.018217698 1.0075994e-24)
(0.074922389 0.017838001 -2.40596e-19)
(0.072038194 0.017160592 3.30637e-19)
(0.069234713 0.016166119 -8.3988459e-20)
(0.06652877 0.014981382 0)
(0.063968129 0.01349143 0)
(0.061398119 0.011841603 4.5960955e-20)
(0.058987006 0.0099036414 0)
(0.056811527 0.0076159209 5.091421e-20)
(0.054828065 0.0050318359 4.8436309e-19)
(0.053084014 0.0022257235 5.7733206e-19)
(0.051681102 -0.00079744315 -9.9942221e-19)
(0.050508972 -0.0040143425 -2.8390981e-23)
(0.04947719 -0.0073814332 3.7852228e-20)
(0.048702281 -0.010896511 -6.9076849e-19)
(0.048252698 -0.014568856 7.6077389e-19)
(0.048144219 -0.018338785 0)
(0.048361692 -0.022149901 5.2442386e-20)
(0.04881324 -0.02604513 -1.6742873e-23)
(0.049605852 -0.029935795 -1.9695641e-20)
(0.050755592 -0.033767696 -3.4286373e-20)
(0.052125237 -0.037531227 1.1982512e-19)
(0.053625654 -0.04128955 -1.3486051e-20)
(0.055411516 -0.044973664 -1.8217318e-19)
(0.057519677 -0.048508727 5.5474486e-19)
(0.059834568 -0.051942835 -3.3000334e-19)
(0.062390192 -0.055225666 3.8537487e-20)
(0.06520393 -0.058281308 2.7176053e-19)
(0.06825227 -0.061058731 -5.8362296e-19)
(0.071525213 -0.063466422 -2.7801104e-19)
(0.074858644 -0.065638651 5.0787584e-19)
(0.078245555 -0.067636482 4.9289258e-19)
(0.08175712 -0.069325993 -4.4567651e-19)
(0.085392972 -0.070591479 0)
(0.089032679 -0.071582345 1.9757836e-19)
(0.092706092 -0.072219683 -2.2014779e-19)
(0.096374189 -0.072390562 2.4140922e-19)
(0.099930061 -0.072282602 -2.4064833e-19)
(0.10332055 -0.072092425 0)
(0.10662557 -0.071527227 0)
(0.10965555 -0.070715418 2.6763926e-20)
(0.11248909 -0.069686425 0)
(0.11500205 -0.068632763 -5.340315e-20)
(0.11726734 -0.067477352 2.1142066e-19)
(0.11932564 -0.066241191 -1.0468431e-19)
(0.12123285 -0.064875821 0)
(0.0842076 0.01267942 -8.3835322e-20)
(0.082518099 0.012964824 -2.4890423e-19)
(0.080776486 0.013057472 8.070261e-20)
(0.07894444 0.013024027 -4.1253341e-19)
(0.077079866 0.012695454 3.362548e-19)
(0.075212454 0.012140323 3.463734e-19)
(0.073368867 0.011333801 -2.6351516e-19)
(0.07157414 0.010381221 3.6484404e-19)
(0.069823328 0.0091658079 5.0076437e-23)
(0.068071712 0.0078460305 -8.6218126e-19)
(0.06639499 0.006316905 5.0062563e-19)
(0.064844555 0.0045146204 0)
(0.063404403 0.0024722339 -5.5053266e-20)
(0.062124091 0.00025742454 -9.9426215e-19)
(0.061073362 -0.0021656067 1.1273136e-18)
(0.060188229 -0.0047881053 1.0131088e-18)
(0.059419462 -0.007537127 -2.371526e-18)
(0.058851927 -0.010417028 1.3331098e-18)
(0.058547416 -0.013462233 -7.708688e-19)
(0.058520474 -0.01659875 9.2901522e-19)
(0.058770554 -0.019775266 0)
(0.059232268 -0.023050568 -6.0647117e-19)
(0.059960279 -0.026315823 7.3453941e-19)
(0.060968605 -0.029551012 -4.0585326e-19)
(0.062183986 -0.032744801 6.7417408e-20)
(0.063555907 -0.035940355 -8.9674839e-24)
(0.065174957 -0.039059545 -2.0790355e-19)
(0.067054481 -0.042034566 5.6635164e-19)
(0.069117046 -0.044901361 -3.5013707e-19)
(0.071377685 -0.04761091 -3.6821882e-19)
(0.07383106 -0.050099812 3.0871889e-19)
(0.076445224 -0.052338375 6.9715138e-19)
(0.079191229 -0.054263964 -1.7555926e-22)
(0.081970451 -0.055980556 -6.170755e-19)
(0.084796631 -0.057530769 4.6879418e-19)
(0.087697134 -0.058820754 -5.2031102e-19)
(0.090628494 -0.059769807 5.0632941e-19)
(0.093521414 -0.060491701 -1.0009146e-18)
(0.096406077 -0.060945204 5.2095619e-19)
(0.099225091 -0.061062165 2.0990844e-19)
(0.10192224 -0.060955517 -2.395793e-19)
(0.10456411 -0.060751637 -6.0205374e-20)
(0.10720438 -0.060278134 2.3599054e-19)
(0.10971633 -0.059689283 -2.3936507e-19)
(0.11220359 -0.05888577 0)
(0.11459433 -0.057932031 1.1904695e-19)
(0.11697097 -0.056862059 -5.8952081e-20)
(0.11930101 -0.055727589 0)
(0.12159285 -0.054563057 0)
(0.084870069 0.010594735 -7.8608224e-20)
(0.083523347 0.010318289 -2.3277693e-19)
(0.082141115 0.0099953427 3.0162208e-19)
(0.080723259 0.009681743 7.6716234e-20)
(0.079304388 0.009212877 2.3341445e-19)
(0.077893058 0.0086263965 -2.3889391e-19)
(0.076501373 0.0078827014 2.4116355e-19)
(0.075145129 0.0070479 -4.1405927e-19)
(0.073821032 0.0060229359 -8.3891501e-20)
(0.072496003 0.0049145297 1.7155038e-19)
(0.071225852 0.0036383788 -7.9899263e-19)
(0.070042283 0.0021442113 8.2825921e-19)
(0.068936724 0.00045080938 9.5458908e-20)
(0.067947186 -0.0013981533 8.0081676e-19)
(0.067124549 -0.0034318956 -1.0560353e-19)
(0.066429265 -0.0056397188 -8.9572923e-19)
(0.065833702 -0.0079686808 0)
(0.065402765 -0.010429742 0)
(0.065186258 -0.013049561 0)
(0.065199798 -0.015778526 -5.0790897e-19)
(0.065446362 -0.018580757 7.7357017e-19)
(0.065886511 -0.021463852 -8.4034559e-19)
(0.066556627 -0.024340059 5.5410756e-19)
(0.067479365 -0.027202283 -6.7308271e-20)
(0.068600838 -0.030033079 9.6786584e-24)
(0.069875452 -0.032854895 2.5793679e-20)
(0.071360061 -0.035599195 4.6359285e-20)
(0.073063748 -0.03821776 -8.4777698e-20)
(0.07492785 -0.040737043 2.3712057e-19)
(0.076953567 -0.043109678 -2.9745247e-19)
(0.079130241 -0.04528811 0)
(0.081427995 -0.047253486 -6.0703361e-19)
(0.083819137 -0.04895769 1.0393843e-18)
(0.086228397 -0.050487868 -4.4509871e-19)
(0.088656686 -0.051872426 -4.3643891e-19)
(0.091119747 -0.053037838 1.3860022e-22)
(0.093587742 -0.053929078 9.5217035e-19)
(0.096008324 -0.054652362 -4.7209414e-19)
(0.098399407 -0.055173854 0)
(0.10073138 -0.055445811 0)
(0.10296941 -0.055578089 -1.7118179e-19)
(0.10514824 -0.055696715 2.2984593e-19)
(0.10731376 -0.055615126 5.6515942e-20)
(0.10938759 -0.055530964 3.4409474e-19)
(0.11145028 -0.055311375 -5.6769315e-20)
(0.11344831 -0.055071669 -2.8679587e-19)
(0.11541911 -0.054773279 5.7286002e-20)
(0.11735801 -0.054350243 0)
(0.1192655 -0.053752928 -3.3975172e-23)
(0.085382194 0.008149796 2.6173229e-24)
(0.084368692 0.0078756421 -4.2015052e-24)
(0.083341663 0.0075399883 0)
(0.082289618 0.0071865415 -3.5564216e-19)
(0.081241222 0.006710955 7.1791824e-20)
(0.080195803 0.0061414149 2.193549e-19)
(0.079157607 0.0054512861 7.3505147e-20)
(0.07814056 0.0046853572 1.5052198e-19)
(0.077138857 0.003772604 7.5889163e-20)
(0.076130197 0.0027845892 -1.5421431e-19)
(0.075160236 0.0016601101 0)
(0.074253893 0.00036133185 -2.4432592e-19)
(0.073405575 -0.0011014119 -8.3783247e-20)
(0.072646355 -0.0026997466 1.7387608e-19)
(0.072017663 -0.004454885 0)
(0.07149275 -0.0063601597 -1.8995332e-19)
(0.071054022 -0.0083795126 1.0053779e-18)
(0.070754525 -0.010519668 -8.6464369e-19)
(0.070636887 -0.012795821 0)
(0.070717188 -0.015168076 9.2264992e-19)
(0.071004612 -0.017605641 -1.2128202e-18)
(0.071471613 -0.020108176 7.7669325e-19)
(0.072136428 -0.022615768 -4.76595e-19)
(0.07302284 -0.025121932 1.1712319e-19)
(0.074089774 -0.027602528 -1.0231556e-19)
(0.075301474 -0.030068777 -1.3684597e-19)
(0.076695689 -0.032465182 1.2392343e-19)
(0.078277114 -0.03475026 3.8014521e-19)
(0.080000563 -0.036938949 -6.4134965e-19)
(0.081860078 -0.038994042 1.2563083e-22)
(0.083841366 -0.040878418 5.1414722e-19)
(0.085917388 -0.042576774 4.9408047e-19)
(0.088061863 -0.044053604 -4.7815102e-19)
(0.090218422 -0.045370846 -1.1732764e-19)
(0.092384152 -0.046551261 0)
(0.094564255 -0.047546901 4.5226474e-19)
(0.096733366 -0.048321565 -1.065347e-22)
(0.098854348 -0.048947891 -4.4124743e-19)
(0.10093913 -0.049407257 0)
(0.10296684 -0.049671263 0)
(0.10491744 -0.049811465 -1.0741116e-19)
(0.10681563 -0.04990533 5.4081049e-20)
(0.10870639 -0.049841555 -5.330579e-20)
(0.11053163 -0.049735705 -5.4070828e-19)
(0.11236392 -0.049507697 4.8191983e-19)
(0.11416848 -0.049216668 0)
(0.11599207 -0.048836178 -5.401808e-20)
(0.1178304 -0.04836539 0)
(0.11968334 -0.047775011 2.1279098e-19)
(0.086274567 0.0066014374 6.8387884e-20)
(0.085443956 0.006208783 -1.3469187e-19)
(0.08460653 0.0057926148 -2.6166441e-19)
(0.083762107 0.0053815559 5.2857986e-19)
(0.082930186 0.0048878793 -3.99134e-19)
(0.082107877 0.0043291673 0)
(0.08129383 0.0036812612 5.4108565e-19)
(0.080499005 0.0029735901 -6.8897696e-20)
(0.079716454 0.0021502646 3.5225095e-23)
(0.078928933 0.0012607675 -9.1018502e-19)
(0.078173121 0.00025718982 -3.1921454e-23)
(0.077468246 -0.00089057261 5.8419605e-19)
(0.076810479 -0.0021769767 5.9675058e-19)
(0.076225143 -0.0035827033 -1.3824182e-18)
(0.07574599 -0.0051243879 6.3534078e-19)
(0.075354893 -0.0067981326 8.2360902e-19)
(0.075041267 -0.0085778802 -1.551374e-18)
(0.074848328 -0.010468032 9.645049e-24)
(0.0748113 -0.01247849 5.8959513e-19)
(0.074944799 -0.014577904 -8.600995e-19)
(0.075256712 -0.016742835 7.2279009e-19)
(0.075728219 -0.018967026 5.1054311e-19)
(0.076372744 -0.021199014 2.3521022e-19)
(0.077212875 -0.023432148 -2.0459869e-19)
(0.078216273 -0.0256454 1.4071703e-21)
(0.079354882 -0.027844403 -8.0880441e-20)
(0.08065538 -0.029981557 0)
(0.082118526 -0.032021765 1.3654279e-19)
(0.083707133 -0.033976094 -1.2864524e-19)
(0.085412795 -0.03581274 1.2224906e-19)
(0.087220541 -0.037501293 0)
(0.089106363 -0.03903039 0)
(0.09104582 -0.040371399 4.3973484e-19)
(0.092993422 -0.041576576 -4.3308574e-19)
(0.094943841 -0.042664688 -4.2730803e-19)
(0.096898653 -0.043596823 8.4027095e-19)
(0.098837005 -0.044344125 -9.2188487e-23)
(0.10073166 -0.04497132 -1.0310716e-19)
(0.10259033 -0.045462761 -4.0771172e-19)
(0.10439856 -0.045793201 -4.0278117e-19)
(0.10614254 -0.046026573 4.5432542e-19)
(0.10784369 -0.046238531 0)
(0.10953222 -0.046320836 -2.008099e-19)
(0.11117408 -0.046392764 2.0358671e-19)
(0.11281914 -0.046370371 -2.0174786e-19)
(0.11444822 -0.046321519 1.0189471e-19)
(0.11609308 -0.046216159 0)
(0.11775434 -0.046049896 2.028447e-19)
(0.11944287 -0.045769772 -2.0051782e-19)
(0.087085715 0.005124768 -1.9155374e-19)
(0.08642966 0.0047451758 1.2570171e-19)
(0.08576797 0.004339528 2.4424907e-19)
(0.085100077 0.003929931 -1.2302359e-19)
(0.084444405 0.0034528284 -3.7074388e-19)
(0.083796855 0.0029210936 7.4988534e-19)
(0.08315533 0.0023164216 -8.7451462e-19)
(0.082529209 0.0016592851 5.0722185e-19)
(0.08191244 0.00090717335 -1.2696764e-19)
(0.081291446 9.4402325e-05 -1.279066e-19)
(0.080697489 -0.00081566789 -5.1962009e-19)
(0.080146186 -0.0018467088 4.6688795e-24)
(0.079634911 -0.0029962153 -1.8198554e-23)
(0.079184768 -0.0042509257 8.2273554e-19)
(0.078824007 -0.0056233197 0)
(0.078539974 -0.0071114456 -2.8969108e-19)
(0.078326561 -0.0086967239 0)
(0.078220117 -0.010381438 3.1529674e-19)
(0.0782504 -0.012171299 -1.6737419e-19)
(0.078430885 -0.014040863 0)
(0.078769376 -0.015970607 -4.7025708e-23)
(0.079254167 -0.017952559 -2.1434024e-19)
(0.079894766 -0.019944073 0)
(0.080709311 -0.02193781 -1.7987068e-19)
(0.081672492 -0.023914983 7.8517409e-20)
(0.082761602 -0.025877064 3.6033208e-20)
(0.083995407 -0.027783328 0)
(0.085372467 -0.029602634 -1.230722e-19)
(0.086861902 -0.031341776 -1.1643681e-19)
(0.088453837 -0.032974405 -1.1119352e-19)
(0.090132958 -0.034475191 0)
(0.091877407 -0.035834587 -2.0757681e-19)
(0.093664664 -0.037029636 0)
(0.095457648 -0.038101162 -9.9970855e-20)
(0.097250336 -0.039064727 8.3256081e-23)
(0.099041167 -0.039891533 8.0901669e-23)
(0.10081182 -0.040560077 3.8592472e-19)
(0.10254103 -0.041120339 4.812221e-19)
(0.10423433 -0.041561817 -7.2706469e-23)
(0.10587978 -0.041866257 -6.87864e-23)
(0.10746776 -0.042081479 -7.590208e-19)
(0.10901543 -0.042263441 6.6925389e-23)
(0.11054983 -0.042333862 3.7831813e-19)
(0.1120432 -0.042377283 1.9162057e-19)
(0.11354013 -0.0423334 -1.9016091e-19)
(0.11502534 -0.042247172 9.595941e-20)
(0.11652933 -0.042095013 9.5841201e-20)
(0.11805496 -0.041871302 -1.9110513e-19)
(0.11961351 -0.041540183 2.8350063e-19)
(0.08795743 0.0040463987 1.1927735e-19)
(0.087417101 0.0036526645 -4.1089186e-19)
(0.08687263 0.0032428588 0)
(0.086326615 0.0028327967 -4.5903865e-19)
(0.085794038 0.0023697621 9.2031874e-19)
(0.085270919 0.0018623337 -4.6412362e-19)
(0.084754209 0.0012948209 -1.1575484e-19)
(0.084252013 0.00068147104 1.1708016e-19)
(0.08375874 -1.1735159e-05 2.3386152e-19)
(0.083263554 -0.00076022881 0)
(0.082793058 -0.001593205 0)
(0.082360157 -0.0025298681 -1.2002295e-19)
(0.081963029 -0.0035694251 0)
(0.081619532 -0.0047024702 -2.4686556e-19)
(0.081353566 -0.0059387635 0)
(0.081156158 -0.0072775547 -7.724681e-19)
(0.081024099 -0.0087050409 5.3023419e-19)
(0.080988262 -0.010222057 -5.5172871e-19)
(0.081073923 -0.011831733 8.7043751e-19)
(0.081293153 -0.013513153 6.1857501e-19)
(0.081653041 -0.015249943 -5.0335098e-19)
(0.082146003 -0.017033913 1.8297627e-19)
(0.082779397 -0.018828548 -1.7923018e-19)
(0.083567927 -0.020625007 1.5426824e-23)
(0.084491726 -0.022407344 7.0983674e-20)
(0.085532185 -0.024175096 -6.4480561e-20)
(0.086702952 -0.025892957 0)
(0.088001069 -0.027533541 1.112168e-19)
(0.089400259 -0.029101567 1.056841e-19)
(0.090890286 -0.030574681 0)
(0.092456267 -0.031931422 -1.9582796e-19)
(0.094078535 -0.033164115 3.813206e-19)
(0.095736458 -0.034253835 0)
(0.097399012 -0.035234979 -9.243e-19)
(0.099059815 -0.036120817 7.3387145e-19)
(0.10071584 -0.036887725 0)
(0.10235081 -0.037517957 3.5972418e-19)
(0.10394806 -0.038054891 -3.5964725e-19)
(0.10551117 -0.0384897 0)
(0.10703025 -0.038806358 2.6611866e-19)
(0.10849783 -0.039046573 -3.5642888e-19)
(0.10992985 -0.039261743 0)
(0.11134515 -0.039379716 8.8982935e-20)
(0.11272617 -0.039481008 -3.6042341e-19)
(0.11410625 -0.039508135 3.5800884e-19)
(0.11547661 -0.039506795 3.6116474e-19)
(0.11686139 -0.039454805 -4.509055e-19)
(0.11826454 -0.039349296 4.4963886e-19)
(0.11969651 -0.03914766 -4.4486567e-19)
(0.088770431 0.0030846177 -5.5780327e-20)
(0.088331573 0.0027115712 1.0981705e-19)
(0.087888478 0.0023223583 2.1359146e-19)
(0.087443565 0.0019288498 5.3606239e-19)
(0.087011005 0.0014902104 -5.364153e-19)
(0.086586976 0.0010123139 -4.3184763e-19)
(0.086168894 0.00048248328 9.674727e-19)
(0.08576387 -8.9326611e-05 -5.4207952e-19)
(0.085367435 -0.00072999206 -5.4009984e-19)
(0.084970775 -0.0014221062 8.648137e-19)
(0.084597132 -0.0021887843 -4.3562838e-19)
(0.084257484 -0.0030455782 2.1943571e-19)
(0.083950702 -0.003992764 2.2084857e-19)
(0.083692127 -0.0050236107 8.9417731e-19)
(0.08350233 -0.0061456006 -9.0763542e-19)
(0.083374925 -0.0073587429 0)
(0.083308655 -0.0086527795 0)
(0.083330138 -0.010027473 4.3302784e-23)
(0.083461096 -0.011484075 0)
(0.083712371 -0.013005102 5.3780671e-19)
(0.084090633 -0.0145762 -5.7722717e-19)
(0.08459126 -0.016189429 6.316126e-19)
(0.085220267 -0.017813664 -3.1544209e-19)
(0.085989256 -0.019438742 4.9547953e-19)
(0.086882409 -0.021051033 -6.3511242e-20)
(0.087884049 -0.022648755 -1.1589324e-19)
(0.089004073 -0.024200897 -1.0733249e-19)
(0.090238637 -0.025682914 -3.0255914e-19)
(0.091565128 -0.027097602 -5.769909e-19)
(0.092973227 -0.028425859 1.8513107e-19)
(0.094448537 -0.029649114 1.7954722e-19)
(0.095973083 -0.030760724 -1.7540897e-19)
(0.097527856 -0.031744809 -6.8930931e-19)
(0.09908644 -0.032629493 1.368632e-18)
(0.10064235 -0.033426002 -6.808137e-19)
(0.10219122 -0.034115486 0)
(0.10371813 -0.034683627 -5.0339461e-19)
(0.10520924 -0.03516603 5.04234e-19)
(0.10666686 -0.035556195 1.6740701e-19)
(0.10808194 -0.035841428 -2.4987e-19)
(0.10944856 -0.036055311 -1.674435e-19)
(0.11078043 -0.036239479 0)
(0.11209352 -0.036336608 -8.3780393e-20)
(0.11337308 -0.036410206 -2.5446098e-19)
(0.11464863 -0.036414842 5.903304e-19)
(0.11591276 -0.036385413 -2.552255e-19)
(0.11718766 -0.036303656 -1.6999472e-19)
(0.11847726 -0.036166122 -2.5428158e-19)
(0.11979203 -0.035938311 -1.6781704e-19)
(0.08956542 0.0023338096 5.2224441e-19)
(0.089202067 0.0019732689 2.0562876e-19)
(0.088834846 0.0015994164 -5.0024811e-19)
(0.088467009 0.0012210401 4.0112941e-19)
(0.088110979 0.00080436558 -8.0160115e-19)
(0.087763433 0.00035314502 3.0186965e-19)
(0.087421981 -0.00014344608 3.0010004e-19)
(0.087092997 -0.00067848462 -4.024684e-19)
(0.08677278 -0.0012738365 0)
(0.086454229 -0.0019169812 -7.9884395e-19)
(0.086157691 -0.002626644 8.0209252e-19)
(0.085892673 -0.0034156514 -8.0513106e-19)
(0.085658583 -0.0042848886 6.0556811e-19)
(0.085468779 -0.0052294374 -4.0692425e-19)
(0.085341133 -0.0062551122 1.2334312e-18)
(0.085271132 -0.0073623493 8.321547e-19)
(0.08525884 -0.0085433224 -1.2706354e-18)
(0.085327401 -0.0097970218 2.1755842e-19)
(0.085495621 -0.011123424 1.3529977e-18)
(0.085773207 -0.012507715 -9.4589402e-19)
(0.086166437 -0.013937031 -5.031435e-19)
(0.086672365 -0.015404007 5.4534287e-19)
(0.087296085 -0.016881983 -9.6766084e-19)
(0.088046803 -0.018359625 2.5323969e-19)
(0.088911681 -0.019825334 -5.7082505e-20)
(0.089877477 -0.021276783 1.0460077e-19)
(0.090951373 -0.022686435 9.7262763e-20)
(0.092128938 -0.024032337 5.5032111e-19)
(0.093390455 -0.025316131 -1.7551231e-19)
(0.094725808 -0.026521377 5.0829745e-19)
(0.096121249 -0.027631926 0)
(0.097560359 -0.028642173 0)
(0.09902562 -0.02953874 0)
(0.10049425 -0.030345476 3.1691568e-19)
(0.10195983 -0.031072163 -3.1599612e-19)
(0.1034173 -0.031703204 3.1441799e-19)
(0.10485284 -0.032226626 -3.1321853e-19)
(0.10625501 -0.032673277 1.5710615e-19)
(0.10762506 -0.033037927 -6.2731142e-19)
(0.10895466 -0.03330969 4.6905021e-19)
(0.11023883 -0.033517664 -1.5728316e-19)
(0.11149051 -0.033699107 3.1741291e-19)
(0.11272085 -0.033802913 0)
(0.11391992 -0.033886825 -7.9828329e-20)
(0.11511103 -0.033909654 1.5887367e-19)
(0.11628972 -0.0339043 -1.6017668e-19)
(0.11747439 -0.033854271 3.2018734e-19)
(0.11866946 -0.033757949 1.5969022e-19)
(0.11988365 -0.033579952 -2.2547083e-23)
(0.090307341 0.0016837976 -2.9366885e-19)
(0.090008213 0.0013454632 0)
(0.089705362 0.00099392957 -6.9865226e-24)
(0.089401686 0.00063567444 0)
(0.0891088 0.00024360824 -3.7482885e-19)
(0.088823761 -0.00018002884 9.3922758e-20)
(0.088544743 -0.00064429877 5.5946299e-19)
(0.08827747 -0.0011445029 1.8714332e-19)
(0.088019127 -0.0016983809 -5.5710286e-19)
(0.08776395 -0.0022970861 -7.3967096e-19)
(0.087529987 -0.0029557949 7.404573e-19)
(0.087325623 -0.0036851192 0)
(0.087150737 -0.0044863003 3.7029009e-19)
(0.087017106 -0.0053557116 -3.7184951e-19)
(0.086940433 -0.0062978165 7.4838411e-19)
(0.086917611 -0.0073132798 -7.5429787e-19)
(0.086949627 -0.0083960639 5.1907954e-23)
(0.087056788 -0.0095445913 7.8123004e-19)
(0.087255507 -0.010757903 -1.2080969e-18)
(0.08755453 -0.012023252 8.3925181e-19)
(0.087959786 -0.013328963 -1.1080964e-18)
(0.088469352 -0.014668183 -2.3819851e-19)
(0.089087779 -0.016017906 0)
(0.089822467 -0.017366082 0)
(0.090662588 -0.018702656 0)
(0.09159695 -0.020024979 0)
(0.092630657 -0.021308409 0)
(0.093758935 -0.022533116 1.67304e-19)
(0.094964425 -0.023699758 -6.4206364e-19)
(0.096237306 -0.024794026 3.1090865e-19)
(0.097564459 -0.025801647 6.0679967e-19)
(0.098930749 -0.026717684 -5.9648397e-19)
(0.10031993 -0.027530657 5.8941394e-19)
(0.10171204 -0.028260578 -5.8783428e-19)
(0.10310076 -0.028915884 2.9367566e-19)
(0.10448035 -0.029483666 -2.9293432e-19)
(0.10583781 -0.029953909 4.3874469e-19)
(0.10716324 -0.030352819 5.8778195e-19)
(0.10845706 -0.03067645 -2.9404574e-19)
(0.10971131 -0.030915872 4.3114379e-25)
(0.11092164 -0.031095514 0)
(0.11209968 -0.031247 -1.4925149e-19)
(0.11325427 -0.031327753 1.485602e-19)
(0.11437716 -0.031385951 3.0072618e-19)
(0.11548874 -0.031387413 -3.7447443e-19)
(0.11658526 -0.031359224 -3.7752295e-19)
(0.11768329 -0.031287384 3.0194304e-19)
(0.11878682 -0.031170407 0)
(0.11990382 -0.03097743 1.4934272e-19)
(0.091012689 0.0011593082 -2.7541675e-19)
(0.090764421 0.00083953094 -2.7114311e-19)
(0.090512748 0.00050744249 2.6414991e-19)
(0.090260618 0.00016780457 0)
(0.090018537 -0.00020182006 -2.631867e-19)
(0.089784026 -0.00060032752 -7.0180089e-24)
(0.089555651 -0.00103551 5.2220101e-19)
(0.089338628 -0.0015042848 -5.2282927e-19)
(0.089130809 -0.0020212911 5.1796837e-19)
(0.088927572 -0.0025803176 0)
(0.088744979 -0.0031938281 0)
(0.088590514 -0.0038707024 0)
(0.088464445 -0.0046123673 -3.4069236e-19)
(0.088377254 -0.0054161145 -6.8184866e-19)
(0.088342848 -0.0062853654 1.3675938e-18)
(0.088359186 -0.0072208777 -1.3733702e-18)
(0.088427901 -0.0082178963 3.4661253e-19)
(0.088566925 -0.0092744329 1.8850704e-23)
(0.088790679 -0.01038886 7.2366794e-19)
(0.089107062 -0.011550061 3.750724e-19)
(0.089521628 -0.012747369 -1.5881089e-23)
(0.090033122 -0.013974393 0)
(0.090645652 -0.015211088 2.1726171e-19)
(0.091365176 -0.016445153 -2.0543558e-19)
(0.092182371 -0.017667695 0)
(0.093087692 -0.0188759 -8.6115475e-20)
(0.094084673 -0.020047645 0)
(0.095168338 -0.021164972 1.5297079e-19)
(0.096323253 -0.022227867 -2.9437296e-19)
(0.09753995 -0.023223814 -5.7150833e-19)
(0.098805943 -0.024140163 8.3571553e-23)
(0.10010723 -0.024972624 8.2675431e-19)
(0.1014287 -0.025711359 -5.4603853e-19)
(0.10275271 -0.026373494 2.7283524e-19)
(0.10407307 -0.026966502 0)
(0.1053837 -0.027479627 -8.1921841e-19)
(0.10667234 -0.027904471 3.9050736e-23)
(0.10793041 -0.028263917 -5.5004864e-19)
(0.10915773 -0.028554997 4.1349228e-19)
(0.11034668 -0.028770226 -4.1362063e-19)
(0.11149339 -0.028930863 7.3326423e-23)
(0.1126088 -0.029064997 7.0196993e-19)
(0.1136989 -0.029135298 1.3991639e-19)
(0.11475785 -0.029184682 -2.8329231e-19)
(0.11580233 -0.029182923 -2.824128e-19)
(0.11682999 -0.029154633 3.5593762e-19)
(0.11785489 -0.029087379 7.1184363e-20)
(0.11888109 -0.028980772 1.4209985e-19)
(0.11991489 -0.028804829 -2.1149787e-19)
(0.091670919 0.00071317034 0)
(0.091465743 0.00041415753 -8.4841388e-20)
(0.091257522 0.00010293939 0)
(0.091048808 -0.00021710181 0)
(0.090849377 -0.00056429765 0)
(0.090657108 -0.00093838221 0)
(0.090471029 -0.0013460201 -6.5067653e-19)
(0.090295898 -0.0017853383 6.5014893e-19)
(0.090130202 -0.0022684348 6.4313643e-19)
(0.089970244 -0.0027910954 -1.2756045e-18)
(0.08983043 -0.0033635832 6.3520269e-19)
(0.089717514 -0.0039933603 0)
(0.089632102 -0.0046819329 6.2840248e-19)
(0.089583607 -0.0054272587 -3.1350948e-19)
(0.089584444 -0.0062319183 -3.1342681e-19)
(0.089633406 -0.0070966761 1.2548299e-18)
(0.089732578 -0.0080177208 -6.3116085e-19)
(0.089897895 -0.0089927628 -6.3976148e-19)
(0.090142107 -0.010019682 1.9180479e-23)
(0.09047238 -0.011088658 3.3724265e-19)
(0.090893888 -0.012189884 -3.5231783e-19)
(0.091405863 -0.013317346 -3.7366237e-19)
(0.092012016 -0.014453392 3.8899725e-19)
(0.092717158 -0.015585802 0)
(0.093513135 -0.016706562 8.4900744e-20)
(0.094391705 -0.017812734 1.8159793e-25)
(0.095355192 -0.018884369 0)
(0.096398529 -0.019905114 0)
(0.097507881 -0.020874416 0)
(0.098674146 -0.021781228 1.0527544e-18)
(0.099885434 -0.022614232 -5.1112966e-23)
(0.10112871 -0.023369616 -7.6500226e-19)
(0.10238986 -0.024038852 5.0653822e-19)
(0.1036531 -0.024636568 0)
(0.10491236 -0.025169346 -2.5429599e-19)
(0.10616126 -0.025628171 2.547939e-19)
(0.10738811 -0.026005967 -2.5546554e-19)
(0.10858529 -0.0263226 7.7264794e-19)
(0.10975207 -0.026575946 0)
(0.11088106 -0.02675985 0)
(0.1119687 -0.02689262 5.2293961e-19)
(0.11302501 -0.026998693 -5.2850819e-19)
(0.1140543 -0.027046299 5.274733e-19)
(0.1150518 -0.02707228 -4.0051044e-19)
(0.116032 -0.027050989 0)
(0.11699297 -0.027003475 -6.7157505e-20)
(0.11794722 -0.026919034 -6.7185376e-20)
(0.11889843 -0.02679761 -2.0129284e-19)
(0.11985194 -0.026612177 -1.3319896e-19)
(0.092290693 0.00034851589 -3.2371158e-19)
(0.092120898 6.8001601e-05 7.9685239e-20)
(0.091948472 -0.00022436188 1.5543819e-19)
(0.091775766 -0.00052623154 0)
(0.09161175 -0.00085282327 0)
(0.091454669 -0.0012044917 1.5383095e-19)
(0.091303901 -0.0015870181 1.5216705e-19)
(0.091163829 -0.0019994243 0)
(0.091033436 -0.0024518121 0)
(0.090909815 -0.0029414439 2.9681438e-19)
(0.09080592 -0.0034768387 0)
(0.090727905 -0.004064314 0)
(0.090676646 -0.0047053889 -5.8084139e-19)
(0.090660658 -0.0053985077 2.8897316e-19)
(0.090691092 -0.0061455855 0)
(0.090767391 -0.0069473405 -5.7512617e-19)
(0.090891954 -0.0078006536 -5.7671089e-19)
(0.091079014 -0.0087030198 5.8267177e-19)
(0.091339907 -0.0096519635 1.1863578e-18)
(0.091681149 -0.010638711 -6.0968295e-19)
(0.092107546 -0.011654202 -6.3397149e-19)
(0.09261868 -0.012692741 3.3454365e-19)
(0.093217892 -0.013738638 -3.5010158e-19)
(0.09390904 -0.014779972 -8.4608472e-20)
(0.094684916 -0.015809403 7.8664309e-20)
(0.095538308 -0.016823915 0)
(0.096470598 -0.017805468 2.7022681e-19)
(0.097476695 -0.018739127 0)
(0.098544097 -0.019623945 4.9800114e-19)
(0.099664062 -0.02045013 -3.1851849e-23)
(0.10082526 -0.021207531 -4.7749509e-19)
(0.10201551 -0.02189278 -6.5169437e-23)
(0.10322159 -0.022498502 -4.7035818e-19)
(0.10442925 -0.023037337 -4.715895e-19)
(0.10563259 -0.023515202 -1.1847092e-18)
(0.10682504 -0.023924577 9.5161222e-19)
(0.10799551 -0.024259568 0)
(0.1091372 -0.024537703 -2.4126709e-19)
(0.11024897 -0.024757602 0)
(0.11132371 -0.024914246 4.8709142e-19)
(0.11235816 -0.025023719 2.4594715e-19)
(0.11336167 -0.025107746 -5.7560519e-23)
(0.11433684 -0.025138722 -4.9726121e-19)
(0.11528019 -0.025149235 3.3234508e-24)
(0.11620387 -0.025116914 -2.5141534e-19)
(0.11710662 -0.025060603 2.5351962e-19)
(0.11799923 -0.02497089 -2.5371094e-19)
(0.1188853 -0.024848408 5.7037952e-19)
(0.11976876 -0.024667519 6.2933634e-20)
(0.092869757 4.3152473e-05 -3.0420635e-19)
(0.0927301 -0.00021902098 7.4882974e-20)
(0.092588276 -0.0004929008 2.9232076e-19)
(0.092446276 -0.00077700144 7.2829418e-19)
(0.092312437 -0.0010838728 -5.7885956e-19)
(0.092185298 -0.0014143267 -1.4418814e-19)
(0.092064577 -0.0017733785 -1.4248668e-19)
(0.091954316 -0.0021607208 -5.6744933e-19)
(0.091853936 -0.0025848128 8.3969073e-19)