/*--------------------------------*- C++ -*----------------------------------*\
| =========                 |                                                 |
| \\      /  F ield         | OpenFOAM: The Open Source CFD Toolbox           |
|  \\    /   O peration     | Version:  v2006                                 |
|   \\  /    A nd           | Website:  www.openfoam.com                      |
|    \\/     M anipulation  |                                                 |
\*---------------------------------------------------------------------------*/
FoamFile
{
    version     2.0;
    format      ascii;
    class       volVectorField;
    location    "2500";
    object      wallShearStress;
}
// * * * * * * * * * * * * * * * * * * * * * * * * * * * * * * * * * * * * * //

dimensions      [1 -1 -2 0 0 0 0];


internalField   uniform (0 0 0);

boundaryField
{
    Side
    {
        type            empty;
    }
    Inlet
    {
        type            calculated;
        value           uniform (0 0 0);
    }
    Wing
    {
        type            calculated;
        value           nonuniform List<vector> 
139
(
(-3.0080446e-05 -1.0267288e-05 3.1913647e-23)
(-2.9150847e-05 -1.0477047e-05 -3.1783432e-23)
(-2.6615084e-05 -9.4417051e-06 3.1750188e-23)
(-2.2648446e-05 -8.937221e-06 1.4693679e-39)
(-1.9643135e-05 -8.1774509e-06 0)
(-1.6805325e-05 -7.2605975e-06 -6.4974551e-23)
(-1.457303e-05 -5.931779e-06 4.8565933e-23)
(-1.2064324e-05 -4.7038835e-06 0)
(-1.041345e-05 -3.237968e-06 -1.0505982e-22)
(-8.5645701e-06 -1.8942982e-06 -8.0285844e-24)
(-6.9863684e-06 -9.004439e-07 1.4640368e-22)
(-5.8654342e-06 -1.8711453e-07 -1.2948331e-22)
(-4.8664265e-06 3.9486517e-07 1.3058143e-22)
(-4.1621862e-06 8.6310961e-07 1.3743625e-22)
(-3.8398098e-06 1.3051169e-06 -1.5350348e-22)
(-3.7394545e-06 1.8838762e-06 1.7632415e-38)
(-3.7762303e-06 2.5803091e-06 3.0713318e-24)
(-3.8346388e-06 3.4348354e-06 -2.6340999e-24)
(-3.9831955e-06 4.4239038e-06 1.5074249e-22)
(-4.2994172e-06 5.5715177e-06 -1.381066e-22)
(-4.6465035e-06 6.9005343e-06 6.4873852e-23)
(-4.9604222e-06 8.3108269e-06 -1.2207211e-22)
(-5.6624315e-06 9.7760245e-06 5.9464734e-23)
(-6.5601704e-06 1.14677e-05 -2.7092107e-24)
(-7.0367494e-06 1.3305876e-05 1.4172973e-23)
(-7.3155042e-06 1.5080261e-05 -1.1788127e-23)
(-8.4998825e-06 1.6695599e-05 5.4988379e-23)
(-9.9560602e-06 1.8617868e-05 -5.5168877e-23)
(-1.0852854e-05 2.0681476e-05 -1.4693679e-39)
(-1.236203e-05 2.2659079e-05 -1.1238813e-22)
(-1.4442295e-05 2.4685667e-05 1.1236513e-22)
(-1.7009192e-05 2.6816707e-05 -2.281355e-22)
(-2.0279208e-05 2.9843632e-05 2.2921008e-22)
(-2.2118359e-05 3.3328794e-05 -1.1491776e-22)
(-2.3910478e-05 3.6344404e-05 1.1626421e-22)
(-2.7123718e-05 3.8268847e-05 1.1422721e-22)
(-3.1324075e-05 4.0544861e-05 2.0533288e-25)
(-3.4335691e-05 4.3457839e-05 -2.3497146e-22)
(-3.8650052e-05 4.5313765e-05 1.2743693e-22)
(-4.4353515e-05 4.6772458e-05 1.1914978e-22)
(-4.8725872e-05 4.9151798e-05 -1.1872277e-22)
(-5.0546792e-05 5.0521914e-05 7.4356722e-24)
(-5.4550667e-05 4.9469632e-05 1.4881e-23)
(-5.558208e-05 4.9877944e-05 -5.9555702e-23)
(-5.7382623e-05 4.77016e-05 1.3483108e-22)
(-5.7188959e-05 4.6065702e-05 -5.9501112e-23)
(-5.6144409e-05 4.2971216e-05 0)
(-5.446881e-05 3.9679225e-05 6.0666669e-23)
(-5.3138016e-05 3.6381098e-05 2.9387359e-39)
(-1.6567842e-05 -1.4786644e-06 -4.0122176e-21)
(-1.3798072e-05 -8.4240156e-07 -1.146107e-37)
(-1.3188781e-05 -5.3877799e-08 -2.2566806e-22)
(-1.5012388e-05 3.3994777e-07 -6.3285661e-23)
(-1.8052265e-05 5.1978048e-07 1.0163183e-21)
(-2.045269e-05 4.5357889e-07 -4.7907021e-22)
(-2.2010417e-05 3.3841293e-07 1.4693679e-39)
(-2.3252343e-05 1.8664872e-07 3.2223373e-23)
(-2.4238116e-05 2.0889042e-08 9.6791863e-23)
(-2.5080942e-05 -1.4600173e-07 1.0698432e-27)
(-2.5805042e-05 -3.3032505e-07 3.2500716e-23)
(-2.6361293e-05 -4.9420473e-07 3.2522341e-23)
(-2.6898147e-05 -6.550874e-07 -4.9404027e-28)
(-2.7389668e-05 -8.2760804e-07 -3.2728201e-23)
(-2.7728312e-05 -9.9131515e-07 2.6230416e-22)
(-2.7880761e-05 -1.1314536e-06 1.3160366e-22)
(-2.7976209e-05 -1.2419067e-06 -1.3183368e-22)
(-2.8210718e-05 -1.3700631e-06 2.8698593e-42)
(-2.8573519e-05 -1.5483404e-06 -1.3154223e-22)
(-2.9056197e-05 -1.8062524e-06 -1.8367099e-40)
(-2.9602253e-05 -2.1509379e-06 -1.6443375e-23)
(-3.0007224e-05 -2.5426675e-06 1.6481816e-23)
(-3.0154898e-05 -2.9444786e-06 1.3225884e-22)
(-2.9945857e-05 -3.3075274e-06 -1.3217906e-22)
(-2.9674287e-05 -3.6702193e-06 1.3481702e-22)
(-2.942194e-05 -4.0448321e-06 -1.3498397e-22)
(-2.897422e-05 -4.4005415e-06 -1.8367099e-40)
(-2.8524531e-05 -4.7754354e-06 -6.6721701e-23)
(-2.8049311e-05 -5.1452522e-06 -1.6667343e-23)
(-2.771796e-05 -5.6300462e-06 1.665327e-23)
(-2.7560241e-05 -6.1935656e-06 -3.3141419e-23)
(-2.7656729e-05 -7.0465738e-06 9.1835496e-40)
(-2.8266195e-05 -8.1766247e-06 0)
(-2.942542e-05 -9.6751286e-06 -1.8367099e-39)
(-5.2375435e-05 -9.5504696e-07 2.8790147e-23)
(-5.0497891e-05 -1.3692026e-06 3.0870226e-23)
(-4.9048534e-05 -1.6856563e-06 -5.2482101e-27)
(-4.777564e-05 -1.9648251e-06 -6.6178388e-23)
(-4.6583225e-05 -2.2293931e-06 3.9039887e-24)
(-4.5364988e-05 -2.4916179e-06 5.8670635e-23)
(-4.391571e-05 -2.759432e-06 1.2533816e-22)
(-4.2416327e-05 -2.9942248e-06 1.2567491e-22)
(-4.1119605e-05 -3.1907857e-06 5.0787114e-22)
(-4.0026689e-05 -3.3730185e-06 -2.5241733e-22)
(-3.9034088e-05 -3.5613013e-06 -2.525447e-22)
(-3.806944e-05 -3.7609912e-06 2.6036304e-22)
(-3.6943314e-05 -3.9807638e-06 -5.1140113e-22)
(-3.5665247e-05 -4.1896988e-06 -7.85895e-24)
(-3.4439307e-05 -4.3731081e-06 -9.9675724e-22)
(-3.3281596e-05 -4.5679581e-06 1.0025181e-21)
(-3.1906088e-05 -4.7488453e-06 2.4979255e-38)
(-3.0404572e-05 -4.8953637e-06 -4.4097273e-27)
(-2.8997376e-05 -5.0242076e-06 1.9760202e-21)
(-2.7392745e-05 -5.1367614e-06 -1.95934e-21)
(-2.5513242e-05 -5.1715949e-06 1.8981975e-24)
(-2.3459472e-05 -5.1606439e-06 3.849196e-21)
(-2.0814215e-05 -4.9601896e-06 -3.6833819e-24)
(-1.932422e-05 -4.9011709e-06 1.469483e-23)
(-1.1588852e-05 -3.9224242e-06 -6.5537077e-21)
(-5.227423e-05 3.3665693e-05 1.4693679e-39)
(-5.2090919e-05 3.144964e-05 -6.3222117e-23)
(-5.2316599e-05 2.9810948e-05 -5.8774718e-39)
(-5.2715607e-05 2.8455668e-05 3.2032248e-23)
(-5.3537752e-05 2.735033e-05 3.2010169e-23)
(-5.4483194e-05 2.6466338e-05 -1.5984433e-23)
(-5.6082613e-05 2.5702071e-05 1.5915337e-23)
(-5.7277896e-05 2.518336e-05 -7.3468397e-40)
(-5.8339924e-05 2.4398622e-05 6.3371497e-23)
(-5.967154e-05 2.3809542e-05 -6.3140777e-23)
(-6.103632e-05 2.3177955e-05 1.4693679e-39)
(-6.2833919e-05 2.258428e-05 6.2421224e-23)
(-6.4108093e-05 2.1975356e-05 6.2228633e-23)
(-6.5551506e-05 2.1142069e-05 0)
(-6.6604149e-05 2.039902e-05 -1.9238197e-24)
(-6.7776557e-05 1.9379853e-05 1.9070563e-24)
(-6.8944642e-05 1.8504844e-05 1.1479437e-41)
(-6.9653263e-05 1.7361167e-05 2.5713939e-39)
(-7.0459187e-05 1.6220492e-05 6.0763098e-23)
(-7.0693515e-05 1.4967418e-05 -1.205877e-22)
(-7.1766906e-05 1.360976e-05 5.9567448e-23)
(-7.2062555e-05 1.2376379e-05 5.5101298e-40)
(-7.1567688e-05 1.0690693e-05 9.2937144e-25)
(-7.0890378e-05 9.2211038e-06 -6.0134418e-23)
(-6.9183955e-05 7.5325691e-06 -1.8367099e-40)
(-6.831336e-05 5.986091e-06 2.9731989e-23)
(-6.631405e-05 4.701644e-06 -1.4877838e-23)
(-6.3493649e-05 3.0397922e-06 -1.977387e-24)
(-6.0741752e-05 1.7285016e-06 2.3265964e-25)
(-5.7515179e-05 5.2910476e-07 9.3922945e-25)
(-5.4611431e-05 -3.4737085e-07 9.4774819e-25)
)
;
    }
    Outlet
    {
        type            calculated;
        value           uniform (0 0 0);
    }
    Ground
    {
        type            calculated;
        value           uniform (0 0 0);
    }
}


// ************************************************************************* //
