/*--------------------------------*- C++ -*----------------------------------*\
| =========                 |                                                 |
| \\      /  F ield         | OpenFOAM: The Open Source CFD Toolbox           |
|  \\    /   O peration     | Version:  v2006                                 |
|   \\  /    A nd           | Website:  www.openfoam.com                      |
|    \\/     M anipulation  |                                                 |
\*---------------------------------------------------------------------------*/
FoamFile
{
    version     2.0;
    format      ascii;
    class       volScalarField;
    location    "2500";
    object      yPlus;
}
// * * * * * * * * * * * * * * * * * * * * * * * * * * * * * * * * * * * * * //

dimensions      [0 0 0 0 0 0 0];


internalField   uniform 0;

boundaryField
{
    Side
    {
        type            empty;
    }
    Inlet
    {
        type            calculated;
        value           uniform 0;
    }
    Wing
    {
        type            calculated;
        value           nonuniform List<scalar> 
139
(
88.876548
86.751097
79.352408
73.530984
67.838186
63.242114
56.858635
52.151695
46.255801
39.438241
34.37112
30.627208
26.841105
24.005586
23.316328
24.217955
26.211166
29.700385
34.581233
39.949463
45.46003
50.68264
56.214214
61.755963
67.196947
71.860917
75.934424
79.877044
84.202335
87.286579
89.710987
91.80826
96.348268
101.72714
103.92424
103.99823
107.14032
110.05758
110.2964
114.08755
121.05623
124.40713
125.08305
129.12837
127.8964
129.22867
127.03151
124.01466
120.50335
60.988576
56.305509
55.917199
60.087619
65.91737
70.028064
72.531653
74.464816
75.938957
77.185565
78.228752
79.016278
79.78641
80.474735
80.940451
81.148831
81.32246
81.714144
82.284233
83.027802
83.839196
84.418167
84.642662
84.363389
84.114946
83.866064
83.382691
82.968767
82.534286
82.464358
82.68919
83.557985
85.330019
88.066128
110.40237
108.38581
106.81236
105.40779
104.08073
102.68569
101.00129
99.260443
97.743702
96.451765
95.258787
94.080341
92.667752
91.067239
89.52491
88.055241
86.250908
84.309954
82.470746
80.302336
77.720372
74.787392
70.823131
68.655269
53.425108
117.73072
115.58502
114.4867
113.7408
113.45681
113.69173
114.29065
115.5877
115.95639
117.01056
118.05108
119.46361
120.99313
122.01873
123.45042
124.26593
125.7229
126.46365
127.35077
127.81498
128.659
129.51823
129.07513
128.75117
127.27261
126.48077
124.831
122.06437
119.23987
115.87443
112.80973
)
;
    }
    Outlet
    {
        type            calculated;
        value           uniform 0;
    }
    Ground
    {
        type            calculated;
        value           nonuniform List<scalar> 
154
(
81.569532
84.609892
87.684299
90.641219
93.483275
96.230797
98.88368
101.44091
103.90426
106.27618
108.55566
110.75056
112.84753
114.88235
116.77955
118.69708
120.3548
122.18383
123.89961
125.5928
127.19117
128.93758
130.50044
132.02302
133.50364
134.92305
136.29266
137.61938
138.90619
140.15637
141.373
142.55869
143.71575
144.84629
145.95222
147.03531
148.09717
149.13933
150.16319
151.17007
152.16121
153.13775
154.10079
155.05134
155.99035
156.91873
157.83733
158.74694
159.64834
160.54222
161.42928
162.31016
163.18548
164.05581
164.92171
165.78371
166.64232
167.49801
168.35125
169.20247
170.05208
170.90048
171.748
172.59496
173.44157
174.28804
175.13421
175.98026
176.82453
177.66915
178.50145
179.35585
180.09182
181.22482
57.254758
54.117702
51.468406
49.253726
47.520497
46.327216
45.704453
45.647463
46.121305
47.073078
48.435336
50.135347
52.102751
54.273956
56.594204
59.017918
61.50807
64.034873
66.575124
69.109077
71.62595
74.100988
76.567821
78.880444
130.79526
130.00624
129.10981
128.08445
126.93632
125.65091
124.20884
122.59296
120.78514
118.76728
116.52519
114.04189
111.33269
108.35651
105.11934
101.61901
97.861938
93.859827
89.623415
85.187729
80.556193
75.757947
70.824724
65.756516
60.715181
475.39395
400.86264
342.14294
305.85697
277.70013
253.74755
234.31665
218.75455
205.99284
195.14619
186.06301
178.33514
171.70843
165.99976
161.06972
156.78251
153.04816
149.78725
146.93118
144.43185
142.2323
140.31656
138.63687
137.1859
135.93113
134.84113
133.91963
133.14744
132.53083
131.9914
131.64686
)
;
    }
}


// ************************************************************************* //
