/*--------------------------------*- C++ -*----------------------------------*\
| =========                 |                                                 |
| \\      /  F ield         | OpenFOAM: The Open Source CFD Toolbox           |
|  \\    /   O peration     | Version:  v2006                                 |
|   \\  /    A nd           | Website:  www.openfoam.com                      |
|    \\/     M anipulation  |                                                 |
\*---------------------------------------------------------------------------*/
FoamFile
{
    version     2.0;
    format      ascii;
    class       volScalarField;
    location    "1000";
    object      alphat;
}
// * * * * * * * * * * * * * * * * * * * * * * * * * * * * * * * * * * * * * //

dimensions      [1 -1 -1 0 0 0 0];


internalField   nonuniform List<scalar> 
55713
(
3.2975561e-10
2.9261918e-09
2.889787e-08
6.9309991e-08
8.9597849e-08
9.5657861e-08
9.5896796e-08
9.5048491e-08
9.4487094e-08
9.4281453e-08
9.4247898e-08
9.4259584e-08
9.4271201e-08
9.4276228e-08
9.4277077e-08
9.4276998e-08
9.427673e-08
9.4276466e-08
9.4276114e-08
9.427585e-08
9.4275815e-08
9.4275824e-08
9.4275681e-08
9.4275443e-08
9.427527e-08
9.4275196e-08
9.4275143e-08
9.4275064e-08
9.4274926e-08
9.4274735e-08
9.4274519e-08
9.4274288e-08
9.427407e-08
9.4273938e-08
9.4274167e-08
9.4275078e-08
9.4274905e-08
9.4274247e-08
9.4273357e-08
9.4272487e-08
9.4271823e-08
9.4271267e-08
9.4270511e-08
9.4269455e-08
9.426827e-08
9.4267091e-08
9.426595e-08
9.4264888e-08
9.4263914e-08
9.4262979e-08
9.4262019e-08
9.4260986e-08
9.4259878e-08
9.4258757e-08
9.425766e-08
9.4256605e-08
9.4255556e-08
9.4254416e-08
9.4253151e-08
3.8836986e-10
4.2238661e-09
3.5953965e-08
7.6167418e-08
9.3038855e-08
9.6964867e-08
9.6591911e-08
9.5764335e-08
9.5333683e-08
9.5208396e-08
9.5201774e-08
9.5215434e-08
9.5223722e-08
9.5226309e-08
9.5226204e-08
9.5225629e-08
9.5224999e-08
9.5224288e-08
9.5223491e-08
9.5222835e-08
9.5222437e-08
9.5222062e-08
9.5221532e-08
9.5220933e-08
9.5220417e-08
9.5220004e-08
9.5219607e-08
9.5219182e-08
9.5218712e-08
9.5218186e-08
9.5217635e-08
9.5217061e-08
9.5216488e-08
9.5215987e-08
9.5215803e-08
9.5216493e-08
9.521612e-08
9.5215111e-08
9.5213836e-08
9.5212562e-08
9.5211516e-08
9.5210642e-08
9.5209587e-08
9.5208176e-08
9.5206588e-08
9.5204983e-08
9.5203386e-08
9.5201849e-08
9.5200397e-08
9.5198975e-08
9.5197514e-08
9.5195953e-08
9.5194266e-08
9.5192512e-08
9.5190736e-08
9.5188947e-08
9.5187103e-08
9.5185092e-08
9.5182863e-08
4.7327354e-10
5.9309054e-09
4.3460335e-08
8.2283539e-08
9.5716149e-08
9.8032425e-08
9.7313655e-08
9.6572137e-08
9.6262396e-08
9.6196754e-08
9.6204876e-08
9.6217126e-08
9.6222107e-08
9.6222536e-08
9.6221948e-08
9.6221074e-08
9.622e-08
9.621884e-08
9.6217623e-08
9.6216599e-08
9.6215854e-08
9.6215105e-08
9.6214204e-08
9.6213262e-08
9.6212421e-08
9.621168e-08
9.6210954e-08
9.6210204e-08
9.6209411e-08
9.6208567e-08
9.6207697e-08
9.6206801e-08
9.6205899e-08
9.620505e-08
9.6204457e-08
9.6204884e-08
9.6204432e-08
9.6203092e-08
9.6201447e-08
9.6199781e-08
9.6198365e-08
9.61972e-08
9.6195886e-08
9.6194159e-08
9.6192199e-08
9.6190203e-08
9.6188183e-08
9.6186204e-08
9.6184312e-08
9.6182445e-08
9.6180529e-08
9.6178493e-08
9.6176286e-08
9.6173956e-08
9.6171565e-08
9.6169116e-08
9.6166558e-08
9.6163763e-08
9.6160651e-08
5.9680439e-10
8.2524644e-09
5.1599305e-08
8.779301e-08
9.7952124e-08
9.8982565e-08
9.808886e-08
9.7477412e-08
9.7276346e-08
9.7252163e-08
9.7265938e-08
9.7274419e-08
9.7276056e-08
9.7275721e-08
9.727488e-08
9.7273579e-08
9.727205e-08
9.7270482e-08
9.7268881e-08
9.7267523e-08
9.7266458e-08
9.7265358e-08
9.7264116e-08
9.7262861e-08
9.726172e-08
9.726068e-08
9.725965e-08
9.7258598e-08
9.7257512e-08
9.7256378e-08
9.7255218e-08
9.725403e-08
9.7252824e-08
9.7251651e-08
9.7250681e-08
9.7250781e-08
9.7250386e-08
9.7248741e-08
9.7246761e-08
9.7244719e-08
9.7242941e-08
9.72415e-08
9.7239981e-08
9.7237987e-08
9.723569e-08
9.7233336e-08
9.7230932e-08
9.7228545e-08
9.7226253e-08
9.7223983e-08
9.7221654e-08
9.7219192e-08
9.7216522e-08
9.7213668e-08
9.7210713e-08
9.7207665e-08
9.7204452e-08
9.7200947e-08
9.7197026e-08
7.765534e-10
1.1346519e-08
6.0095304e-08
9.2544056e-08
9.978286e-08
9.9871552e-08
9.8951035e-08
9.8489055e-08
9.8374599e-08
9.8374877e-08
9.8387783e-08
9.8391635e-08
9.8391577e-08
9.8390995e-08
9.8389772e-08
9.8387991e-08
9.8386051e-08
9.8384118e-08
9.8382179e-08
9.8380528e-08
9.8379173e-08
9.8377742e-08
9.8376185e-08
9.8374643e-08
9.8373231e-08
9.8371919e-08
9.8370616e-08
9.8369295e-08
9.8367945e-08
9.8366556e-08
9.8365137e-08
9.836369e-08
9.8362219e-08
9.8360759e-08
9.8359466e-08
9.8359204e-08
9.8358885e-08
9.8357043e-08
9.8354769e-08
9.8352377e-08
9.8350246e-08
9.8348545e-08
9.8346887e-08
9.834469e-08
9.8342102e-08
9.8339432e-08
9.8336694e-08
9.8333949e-08
9.8331312e-08
9.832869e-08
9.8326004e-08
9.8323184e-08
9.8320125e-08
9.831682e-08
9.8313372e-08
9.8309808e-08
9.8306031e-08
9.8301917e-08
9.8297292e-08
1.0397459e-09
1.540521e-08
6.8669074e-08
9.6127845e-08
1.0131084e-07
1.0076238e-07
9.9924752e-08
9.9609686e-08
9.9556873e-08
9.9568007e-08
9.9576217e-08
9.9576931e-08
9.9576184e-08
9.957543e-08
9.9573686e-08
9.9571452e-08
9.9569174e-08
9.9566916e-08
9.9564675e-08
9.9562792e-08
9.9561184e-08
9.9559453e-08
9.9557622e-08
9.955583e-08
9.9554181e-08
9.955263e-08
9.9551087e-08
9.9549532e-08
9.9547954e-08
9.9546348e-08
9.954471e-08
9.9543046e-08
9.9541352e-08
9.9539653e-08
9.9538082e-08
9.9537462e-08
9.9537202e-08
9.9535318e-08
9.9532797e-08
9.9530088e-08
9.9527622e-08
9.9525667e-08
9.9523944e-08
9.9521631e-08
9.9518812e-08
9.9515867e-08
9.9512856e-08
9.9509808e-08
9.9506889e-08
9.9503979e-08
9.9501e-08
9.9497899e-08
9.9494541e-08
9.9490872e-08
9.9487014e-08
9.9483034e-08
9.9478798e-08
9.9474194e-08
9.9468984e-08
1.4291813e-09
2.0641068e-08
7.692524e-08
9.9008978e-08
1.0255453e-07
1.0169518e-07
1.0102837e-07
1.0083965e-07
1.0082477e-07
1.0083625e-07
1.0084002e-07
1.0083879e-07
1.0083799e-07
1.0083697e-07
1.0083461e-07
1.0083202e-07
1.008295e-07
1.0082693e-07
1.0082442e-07
1.008224e-07
1.0082058e-07
1.0081859e-07
1.0081653e-07
1.0081454e-07
1.0081269e-07
1.0081095e-07
1.0080921e-07
1.0080746e-07
1.008057e-07
1.0080392e-07
1.0080211e-07
1.0080028e-07
1.0079841e-07
1.0079653e-07
1.0079473e-07
1.0079378e-07
1.0079353e-07
1.0079182e-07
1.007891e-07
1.0078612e-07
1.0078336e-07
1.0078115e-07
1.0077943e-07
1.0077711e-07
1.0077414e-07
1.0077097e-07
1.0076775e-07
1.0076447e-07
1.0076135e-07
1.0075824e-07
1.0075505e-07
1.0075176e-07
1.0074821e-07
1.0074429e-07
1.0074012e-07
1.0073585e-07
1.0073128e-07
1.0072633e-07
1.0072069e-07
2.0183054e-09
2.7278048e-08
8.5014952e-08
1.0203109e-07
1.0365287e-07
1.0274035e-07
1.022741e-07
1.0217734e-07
1.0218206e-07
1.0218881e-07
1.0218927e-07
1.0218702e-07
1.0218654e-07
1.0218502e-07
1.0218206e-07
1.0217931e-07
1.0217659e-07
1.0217373e-07
1.0217102e-07
1.0216896e-07
1.0216698e-07
1.0216477e-07
1.0216255e-07
1.021604e-07
1.0215843e-07
1.0215654e-07
1.0215466e-07
1.0215278e-07
1.0215089e-07
1.0214899e-07
1.0214706e-07
1.0214511e-07
1.0214314e-07
1.0214114e-07
1.0213919e-07
1.0213793e-07
1.0213764e-07
1.0213634e-07
1.021335e-07
1.0213032e-07
1.021273e-07
1.0212488e-07
1.0212315e-07
1.0212099e-07
1.0211798e-07
1.0211466e-07
1.0211133e-07
1.0210789e-07
1.0210467e-07
1.0210145e-07
1.0209815e-07
1.0209478e-07
1.0209117e-07
1.0208715e-07
1.0208279e-07
1.0207837e-07
1.0207363e-07
1.0206852e-07
1.0206262e-07
2.9557679e-09
3.5526923e-08
9.221547e-08
1.0432721e-07
1.0476406e-07
1.0396032e-07
1.0366445e-07
1.0362598e-07
1.0363484e-07
1.0363694e-07
1.0363576e-07
1.0363317e-07
1.0363309e-07
1.0363078e-07
1.0362745e-07
1.0362473e-07
1.0362183e-07
1.0361872e-07
1.0361591e-07
1.0361393e-07
1.0361182e-07
1.0360947e-07
1.0360716e-07
1.0360493e-07
1.0360288e-07
1.0360092e-07
1.0359896e-07
1.0359702e-07
1.0359506e-07
1.0359311e-07
1.0359114e-07
1.0358915e-07
1.0358714e-07
1.035851e-07
1.0358308e-07
1.035816e-07
1.0358123e-07
1.0358048e-07
1.0357771e-07
1.0357439e-07
1.0357119e-07
1.0356861e-07
1.0356687e-07
1.0356506e-07
1.0356215e-07
1.0355878e-07
1.0355545e-07
1.0355194e-07
1.0354874e-07
1.0354556e-07
1.0354226e-07
1.0353895e-07
1.0353543e-07
1.0353148e-07
1.0352709e-07
1.0352271e-07
1.03518e-07
1.0351293e-07
1.0350701e-07
4.5771039e-09
4.5538088e-08
9.8577605e-08
1.0632493e-07
1.0599159e-07
1.053595e-07
1.0519694e-07
1.051904e-07
1.0519641e-07
1.05195e-07
1.0519328e-07
1.0519061e-07
1.0519086e-07
1.0518767e-07
1.0518425e-07
1.0518176e-07
1.0517869e-07
1.0517541e-07
1.0517266e-07
1.0517089e-07
1.0516869e-07
1.0516627e-07
1.0516394e-07
1.0516172e-07
1.051597e-07
1.0515774e-07
1.0515579e-07
1.0515386e-07
1.0515194e-07
1.0515002e-07
1.0514808e-07
1.0514615e-07
1.051442e-07
1.0514222e-07
1.0514023e-07
1.0513863e-07
1.0513818e-07
1.0513799e-07
1.0513566e-07
1.0513228e-07
1.0512895e-07
1.0512631e-07
1.0512461e-07
1.0512323e-07
1.0512069e-07
1.0511735e-07
1.0511424e-07
1.0511074e-07
1.051077e-07
1.0510473e-07
1.051016e-07
1.050985e-07
1.0509525e-07
1.0509162e-07
1.050874e-07
1.0508326e-07
1.0507884e-07
1.0507408e-07
1.0506841e-07
7.284743e-09
5.7334943e-08
1.0382604e-07
1.0809788e-07
1.0738094e-07
1.0694827e-07
1.0687614e-07
1.0688121e-07
1.0688218e-07
1.0687906e-07
1.0687767e-07
1.0687495e-07
1.0687534e-07
1.0687133e-07
1.068683e-07
1.068662e-07
1.0686299e-07
1.0685966e-07
1.0685718e-07
1.068557e-07
1.0685348e-07
1.0685107e-07
1.0684883e-07
1.0684676e-07
1.0684486e-07
1.0684301e-07
1.0684118e-07
1.0683937e-07
1.0683758e-07
1.068358e-07
1.0683401e-07
1.0683224e-07
1.0683046e-07
1.0682867e-07
1.0682685e-07
1.0682528e-07
1.0682474e-07
1.0682506e-07
1.068237e-07
1.0682034e-07
1.0681694e-07
1.0681437e-07
1.0681279e-07
1.0681189e-07
1.0681006e-07
1.0680682e-07
1.0680425e-07
1.0680085e-07
1.0679814e-07
1.0679563e-07
1.0679285e-07
1.0679016e-07
1.0678739e-07
1.0678434e-07
1.0678057e-07
1.0677693e-07
1.0677312e-07
1.0676896e-07
1.0676391e-07
1.1155513e-08
7.085619e-08
1.072815e-07
1.0970261e-07
1.0897441e-07
1.0873103e-07
1.0870882e-07
1.0871316e-07
1.0871079e-07
1.0870753e-07
1.0870695e-07
1.0870406e-07
1.0870451e-07
1.0869984e-07
1.0869777e-07
1.0869628e-07
1.0869296e-07
1.0868975e-07
1.086878e-07
1.0868672e-07
1.0868455e-07
1.0868226e-07
1.0868029e-07
1.0867852e-07
1.0867687e-07
1.0867526e-07
1.0867368e-07
1.0867213e-07
1.086706e-07
1.086691e-07
1.086676e-07
1.0866613e-07
1.0866466e-07
1.086632e-07
1.086617e-07
1.0866036e-07
1.0865984e-07
1.086605e-07
1.086606e-07
1.0865749e-07
1.0865414e-07
1.086518e-07
1.0865044e-07
1.0865e-07
1.0864935e-07
1.0864621e-07
1.0864464e-07
1.0864145e-07
1.0863928e-07
1.0863749e-07
1.0863532e-07
1.0863327e-07
1.0863123e-07
1.0862902e-07
1.0862612e-07
1.0862324e-07
1.0862043e-07
1.0861721e-07
1.0861322e-07
1.6914308e-08
8.6031325e-08
1.095957e-07
1.1120995e-07
1.1079365e-07
1.1070469e-07
1.1070229e-07
1.1070216e-07
1.1069931e-07
1.1069686e-07
1.1069725e-07
1.106943e-07
1.1069455e-07
1.1069014e-07
1.1068911e-07
1.1068868e-07
1.1068519e-07
1.1068248e-07
1.1068128e-07
1.1068076e-07
1.1067869e-07
1.1067682e-07
1.1067534e-07
1.1067405e-07
1.1067281e-07
1.1067163e-07
1.1067047e-07
1.1066935e-07
1.1066826e-07
1.106672e-07
1.1066616e-07
1.1066516e-07
1.1066417e-07
1.1066321e-07
1.1066224e-07
1.1066137e-07
1.1066111e-07
1.1066193e-07
1.106634e-07
1.1066109e-07
1.1065814e-07
1.1065626e-07
1.1065523e-07
1.1065528e-07
1.1065592e-07
1.106531e-07
1.1065301e-07
1.1065025e-07
1.1064887e-07
1.1064801e-07
1.1064676e-07
1.106456e-07
1.1064455e-07
1.1064348e-07
1.1064182e-07
1.1064002e-07
1.1063861e-07
1.1063671e-07
1.1063426e-07
2.4921868e-08
1.0254001e-07
1.1277008e-07
1.1294243e-07
1.1284897e-07
1.1284354e-07
1.1284429e-07
1.1284279e-07
1.1284095e-07
1.1283961e-07
1.1284055e-07
1.1283813e-07
1.1283847e-07
1.1283555e-07
1.1283477e-07
1.128359e-07
1.1283299e-07
1.1283153e-07
1.1283112e-07
1.1283113e-07
1.1282961e-07
1.1282862e-07
1.1282791e-07
1.1282729e-07
1.128267e-07
1.1282615e-07
1.1282563e-07
1.1282515e-07
1.128247e-07
1.1282428e-07
1.1282389e-07
1.1282354e-07
1.1282322e-07
1.1282292e-07
1.1282265e-07
1.1282242e-07
1.1282255e-07
1.1282327e-07
1.1282522e-07
1.1282437e-07
1.1282262e-07
1.1282152e-07
1.1282105e-07
1.1282171e-07
1.1282259e-07
1.1282141e-07
1.1282258e-07
1.1282107e-07
1.1282086e-07
1.1282096e-07
1.1282088e-07
1.1282083e-07
1.1282089e-07
1.1282106e-07
1.1282098e-07
1.1282064e-07
1.1282087e-07
1.1282054e-07
1.1282013e-07
8.5587192e-08
8.5584422e-08
8.55826e-08
8.5584003e-08
8.5584579e-08
8.5585453e-08
8.5586255e-08
8.5587108e-08
8.5587991e-08
8.5588889e-08
8.5589791e-08
8.5590694e-08
8.5591606e-08
8.5592542e-08
8.5593511e-08
8.5594508e-08
8.5595511e-08
8.5596495e-08
8.5597444e-08
8.5598352e-08
8.5599224e-08
8.560004e-08
8.5600715e-08
8.5601129e-08
8.5601221e-08
8.5601057e-08
8.5600818e-08
8.5600661e-08
8.5600613e-08
8.5600615e-08
8.5600597e-08
8.5600525e-08
8.5600398e-08
8.5600231e-08
8.5600016e-08
8.5599728e-08
8.5599358e-08
8.5598964e-08
8.5598668e-08
8.5598464e-08
8.5597741e-08
8.5594798e-08
8.5587891e-08
8.5580309e-08
8.5590877e-08
8.5664914e-08
8.5868732e-08
8.623823e-08
8.6651712e-08
8.6623284e-08
8.5068364e-08
8.0165e-08
6.9258331e-08
5.0507157e-08
2.6895977e-08
8.6075433e-09
1.7874024e-09
6.0526086e-10
8.4936988e-10
8.5876843e-08
8.5874401e-08
8.5873822e-08
8.5874902e-08
8.5875657e-08
8.5876494e-08
8.5877329e-08
8.5878196e-08
8.5879091e-08
8.5879996e-08
8.5880901e-08
8.5881804e-08
8.5882714e-08
8.5883648e-08
8.5884615e-08
8.588561e-08
8.5886614e-08
8.5887601e-08
8.5888551e-08
8.5889453e-08
8.5890315e-08
8.5891117e-08
8.5891778e-08
8.5892179e-08
8.5892255e-08
8.5892076e-08
8.5891832e-08
8.5891677e-08
8.5891628e-08
8.5891622e-08
8.5891595e-08
8.5891512e-08
8.5891377e-08
8.5891202e-08
8.5890981e-08
8.5890694e-08
8.5890342e-08
8.5889983e-08
8.5889698e-08
8.5889406e-08
8.5888473e-08
8.5885427e-08
8.5878998e-08
8.5872636e-08
8.5883768e-08
8.5953853e-08
8.614496e-08
8.6496249e-08
8.6909717e-08
8.6953236e-08
8.5615412e-08
8.1107439e-08
7.0896333e-08
5.2744478e-08
2.8955718e-08
9.592538e-09
1.9140117e-09
5.5618385e-10
7.6018812e-10
8.6195922e-08
8.6193703e-08
8.6193599e-08
8.6194576e-08
8.6195398e-08
8.6196238e-08
8.6197094e-08
8.6197976e-08
8.6198885e-08
8.61998e-08
8.620071e-08
8.6201616e-08
8.6202528e-08
8.6203462e-08
8.6204428e-08
8.6205424e-08
8.6206431e-08
8.6207422e-08
8.6208369e-08
8.620926e-08
8.6210106e-08
8.6210894e-08
8.6211547e-08
8.6211944e-08
8.6212017e-08
8.621183e-08
8.621158e-08
8.6211422e-08
8.6211371e-08
8.6211364e-08
8.6211336e-08
8.6211253e-08
8.621112e-08
8.6210952e-08
8.6210745e-08
8.6210477e-08
8.6210139e-08
8.6209778e-08
8.6209488e-08
8.6209274e-08
8.6208692e-08
8.6206391e-08
8.6200577e-08
8.6192526e-08
8.6195204e-08
8.6244878e-08
8.6403884e-08
8.6728985e-08
8.7170849e-08
8.7382108e-08
8.6456052e-08
8.268424e-08
7.3509208e-08
5.6213959e-08
3.2117752e-08
1.112546e-08
2.1308243e-09
5.2303874e-10
6.7216083e-10
8.6547557e-08
8.6545671e-08
8.6546019e-08
8.6546928e-08
8.65478e-08
8.6548645e-08
8.6549517e-08
8.6550415e-08
8.6551333e-08
8.6552254e-08
8.6553167e-08
8.6554073e-08
8.6554983e-08
8.6555915e-08
8.6556881e-08
8.6557877e-08
8.6558885e-08
8.6559877e-08
8.6560818e-08
8.6561695e-08
8.6562523e-08
8.6563297e-08
8.6563937e-08
8.6564325e-08
8.6564387e-08
8.6564186e-08
8.6563929e-08
8.6563772e-08
8.6563722e-08
8.6563714e-08
8.6563683e-08
8.65636e-08
8.6563467e-08
8.6563302e-08
8.6563104e-08
8.6562852e-08
8.6562532e-08
8.6562182e-08
8.6561885e-08
8.6561678e-08
8.6561245e-08
8.6559458e-08
8.6554488e-08
8.6546391e-08
8.6544577e-08
8.6579568e-08
8.6709989e-08
8.7001848e-08
8.7444192e-08
8.7768752e-08
8.7178199e-08
8.4063505e-08
7.5891573e-08
5.9578835e-08
3.5434823e-08
1.2868353e-08
2.4271191e-09
5.0229918e-10
5.9889332e-10
8.6935748e-08
8.6934302e-08
8.6934961e-08
8.6935838e-08
8.6936733e-08
8.6937588e-08
8.6938473e-08
8.6939382e-08
8.6940307e-08
8.6941231e-08
8.6942143e-08
8.6943045e-08
8.6943952e-08
8.6944882e-08
8.6945846e-08
8.6946842e-08
8.6947851e-08
8.6948841e-08
8.6949771e-08
8.695063e-08
8.6951438e-08
8.6952195e-08
8.6952821e-08
8.6953198e-08
8.6953244e-08
8.6953027e-08
8.6952762e-08
8.6952606e-08
8.695256e-08
8.6952552e-08
8.6952521e-08
8.6952437e-08
8.6952306e-08
8.6952146e-08
8.6951961e-08
8.6951727e-08
8.6951427e-08
8.6951086e-08
8.6950786e-08
8.6950589e-08
8.69503e-08
8.6949015e-08
8.6944921e-08
8.6937021e-08
8.693133e-08
8.6952413e-08
8.7053823e-08
8.7307815e-08
8.7738349e-08
8.815689e-08
8.788654e-08
8.5436676e-08
7.8322579e-08
6.3152152e-08
3.9177321e-08
1.4970976e-08
2.8364546e-09
4.9365304e-10
5.3106221e-10
8.7365151e-08
8.7364266e-08
8.7365119e-08
8.7365992e-08
8.7366893e-08
8.736776e-08
8.7368653e-08
8.7369569e-08
8.7370497e-08
8.7371419e-08
8.7372326e-08
8.7373221e-08
8.7374121e-08
8.7375047e-08
8.7376009e-08
8.7377004e-08
8.7378013e-08
8.7378996e-08
8.737991e-08
8.7380745e-08
8.738153e-08
8.7382268e-08
8.7382878e-08
8.7383239e-08
8.7383265e-08
8.7383024e-08
8.7382751e-08
8.73826e-08
8.7382559e-08
8.7382552e-08
8.7382521e-08
8.7382438e-08
8.738231e-08
8.7382155e-08
8.7381983e-08
8.7381769e-08
8.738149e-08
8.7381165e-08
8.7380864e-08
8.7380664e-08
8.7380466e-08
8.73796e-08
8.7376427e-08
8.7369279e-08
8.736125e-08
8.7370893e-08
8.7444892e-08
8.7657105e-08
8.8059656e-08
8.8539702e-08
8.8548834e-08
8.6737494e-08
8.0695077e-08
6.6834136e-08
4.3294597e-08
1.7468208e-08
3.3811873e-09
5.0135969e-10
4.7343643e-10
8.7841372e-08
8.7841031e-08
8.7841976e-08
8.7842861e-08
8.7843761e-08
8.7844635e-08
8.7845533e-08
8.7846453e-08
8.7847379e-08
8.7848293e-08
8.7849189e-08
8.7850072e-08
8.7850963e-08
8.7851882e-08
8.7852839e-08
8.7853831e-08
8.7854837e-08
8.7855809e-08
8.7856699e-08
8.7857503e-08
8.7858261e-08
8.7858978e-08
8.785957e-08
8.7859911e-08
8.785991e-08
8.785964e-08
8.7859356e-08
8.7859212e-08
8.7859179e-08
8.7859174e-08
8.7859144e-08
8.7859063e-08
8.7858937e-08
8.785879e-08
8.7858631e-08
8.7858439e-08
8.7858185e-08
8.7857878e-08
8.7857583e-08
8.7857377e-08
8.7857236e-08
8.7856703e-08
8.7854403e-08
8.7848341e-08
8.7839226e-08
8.7839887e-08
8.7888935e-08
8.8057611e-08
8.8418815e-08
8.8928641e-08
8.9171597e-08
8.7965212e-08
8.294256e-08
7.0603832e-08
4.7811264e-08
2.0454883e-08
4.0943383e-09
5.2691506e-10
4.2327317e-10
8.8371001e-08
8.8371073e-08
8.8372045e-08
8.8372943e-08
8.8373837e-08
8.8374713e-08
8.8375612e-08
8.8376528e-08
8.8377445e-08
8.8378345e-08
8.8379224e-08
8.8380089e-08
8.8380966e-08
8.8381874e-08
8.8382823e-08
8.8383809e-08
8.8384806e-08
8.8385759e-08
8.8386615e-08
8.8387381e-08
8.8388109e-08
8.8388801e-08
8.8389371e-08
8.8389688e-08
8.8389651e-08
8.8389342e-08
8.8389048e-08
8.8388914e-08
8.838889e-08
8.8388889e-08
8.8388861e-08
8.8388782e-08
8.838866e-08
8.8388519e-08
8.8388375e-08
8.8388207e-08
8.8387981e-08
8.8387698e-08
8.8387415e-08
8.8387207e-08
8.8387094e-08
8.8386802e-08
8.8385278e-08
8.8380524e-08
8.8371503e-08
8.8365875e-08
8.8393474e-08
8.8518931e-08
8.8827676e-08
8.9334899e-08
8.9754718e-08
8.9096996e-08
8.5172662e-08
7.4397339e-08
5.2709656e-08
2.4034096e-08
5.0401248e-09
5.7589944e-10
3.8004662e-10
8.896179e-08
8.8962106e-08
8.8963095e-08
8.8963998e-08
8.8964879e-08
8.8965751e-08
8.8966642e-08
8.8967547e-08
8.8968447e-08
8.8969324e-08
8.8970175e-08
8.8971015e-08
8.897187e-08
8.8972762e-08
8.8973696e-08
8.897467e-08
8.8975652e-08
8.8976573e-08
8.8977383e-08
8.8978103e-08
8.8978795e-08
8.897946e-08
8.8980003e-08
8.8980291e-08
8.8980207e-08
8.8979847e-08
8.8979542e-08
8.8979424e-08
8.8979411e-08
8.8979414e-08
8.8979389e-08
8.8979314e-08
8.8979196e-08
8.8979063e-08
8.8978935e-08
8.8978795e-08
8.8978602e-08
8.8978349e-08
8.8978086e-08
8.8977885e-08
8.8977784e-08
8.897765e-08
8.8976765e-08
8.8973348e-08
8.8965376e-08
8.8956122e-08
8.8966614e-08
8.9051574e-08
8.930034e-08
8.977519e-08
9.0313984e-08
9.0130723e-08
8.7253008e-08
7.8162274e-08
5.7952204e-08
2.8294388e-08
6.2989231e-09
6.5426343e-10
3.434285e-10
8.9622992e-08
8.9623491e-08
8.9624469e-08
8.9625364e-08
8.9626226e-08
8.9627084e-08
8.9627959e-08
8.9628842e-08
8.9629714e-08
8.9630555e-08
8.9631367e-08
8.963217e-08
8.9632994e-08
8.9633861e-08
8.9634772e-08
8.9635725e-08
8.9636681e-08
8.9637554e-08
8.9638302e-08
8.9638966e-08
8.9639618e-08
8.964025e-08
8.9640761e-08
8.9641014e-08
8.9640868e-08
8.9640443e-08
8.964012e-08
8.9640031e-08
8.9640028e-08
8.9640036e-08
8.9640015e-08
8.9639945e-08
8.9639834e-08
8.9639711e-08
8.9639601e-08
8.9639494e-08
8.963934e-08
8.9639123e-08
8.9638889e-08
8.9638709e-08
8.963862e-08
8.9638575e-08
8.9638153e-08
8.9635985e-08
8.9629705e-08
8.9619249e-08
8.9617516e-08
8.9667079e-08
8.98528e-08
9.026908e-08
9.0865122e-08
9.1071337e-08
8.9176411e-08
8.1792733e-08
6.3474892e-08
3.3324216e-08
7.9675427e-09
7.7180304e-10
3.1342037e-10
9.0365936e-08
9.0366549e-08
9.0367498e-08
9.0368371e-08
9.0369203e-08
9.0370035e-08
9.0370881e-08
9.0371728e-08
9.0372554e-08
9.0373343e-08
9.03741e-08
9.0374851e-08
9.0375632e-08
9.0376462e-08
9.0377337e-08
9.0378259e-08
9.0379173e-08
9.0379975e-08
9.0380642e-08
9.0381239e-08
9.0381844e-08
9.0382437e-08
9.0382908e-08
9.038312e-08
9.0382881e-08
9.0382371e-08
9.0382043e-08
9.0381989e-08
9.0381995e-08
9.0382007e-08
9.0381992e-08
9.0381929e-08
9.0381829e-08
9.0381717e-08
9.0381628e-08
9.0381559e-08
9.0381454e-08
9.0381283e-08
9.0381086e-08
9.0380942e-08
9.0380882e-08
9.038089e-08
9.0380755e-08
9.0379614e-08
9.0375313e-08
9.0365623e-08
9.0356635e-08
9.037792e-08
9.0502718e-08
9.0841196e-08
9.1433272e-08
9.1925149e-08
9.0917436e-08
8.5076051e-08
6.918291e-08
3.9196591e-08
1.0202943e-08
9.4247631e-10
2.9059212e-10
9.1204297e-08
9.1204987e-08
9.1205901e-08
9.1206734e-08
9.1207523e-08
9.1208314e-08
9.1209114e-08
9.1209907e-08
9.1210669e-08
9.1211384e-08
9.1212066e-08
9.1212749e-08
9.1213472e-08
9.1214251e-08
9.1215076e-08
9.121595e-08
9.1216801e-08
9.1217502e-08
9.1218063e-08
9.1218582e-08
9.1219133e-08
9.121968e-08
9.1220102e-08
9.1220278e-08
9.1219863e-08
9.1219288e-08
9.1218968e-08
9.1218947e-08
9.1218959e-08
9.1218975e-08
9.1218969e-08
9.1218916e-08
9.1218831e-08
9.1218734e-08
9.1218668e-08
9.1218646e-08
9.1218607e-08
9.1218493e-08
9.121834e-08
9.1218244e-08
9.1218242e-08
9.1218311e-08
9.1218339e-08
9.1217916e-08
9.1215479e-08
9.1207911e-08
9.1196195e-08
9.1197626e-08
9.1268677e-08
9.1519272e-08
9.2053447e-08
9.2710032e-08
9.2444935e-08
8.8326959e-08
7.4934365e-08
4.5942452e-08
1.3209538e-08
1.1838194e-09
2.7705655e-10
9.2154173e-08
9.2154932e-08
9.2155817e-08
9.2156599e-08
9.2157332e-08
9.2158065e-08
9.2158803e-08
9.2159526e-08
9.2160205e-08
9.2160827e-08
9.2161416e-08
9.2162017e-08
9.2162672e-08
9.2163392e-08
9.2164158e-08
9.2164962e-08
9.2165721e-08
9.216629e-08
9.2166714e-08
9.2167147e-08
9.2167643e-08
9.2168146e-08
9.2168511e-08
9.2168638e-08
9.216796e-08
9.2167345e-08
9.2167069e-08
9.2167063e-08
9.216708e-08
9.21671e-08
9.2167106e-08
9.2167067e-08
9.2167002e-08
9.2166925e-08
9.2166877e-08
9.2166918e-08
9.216697e-08
9.2166927e-08
9.2166815e-08
9.2166768e-08
9.2166857e-08
9.2167033e-08
9.2167187e-08
9.2167173e-08
9.2166139e-08
9.216132e-08
9.2150407e-08
9.2140688e-08
9.2169435e-08
9.2332128e-08
9.2768703e-08
9.3482245e-08
9.3782058e-08
9.1217205e-08
8.0594933e-08
5.3526622e-08
1.7267069e-08
1.5302742e-09
2.7910112e-10
9.3232012e-08
9.3232947e-08
9.3233813e-08
9.3234538e-08
9.3235219e-08
9.3235903e-08
9.3236589e-08
9.3237252e-08
9.323785e-08
9.3238376e-08
9.323887e-08
9.3239388e-08
9.3239979e-08
9.3240647e-08
9.3241373e-08
9.3242116e-08
9.3242769e-08
9.3243199e-08
9.3243463e-08
9.3243801e-08
9.3244268e-08
9.3244755e-08
9.3245082e-08
9.3245082e-08
9.3244115e-08
9.3243518e-08
9.3243325e-08
9.3243311e-08
9.324333e-08
9.3243356e-08
9.3243383e-08
9.3243363e-08
9.324332e-08
9.3243266e-08
9.3243235e-08
9.3243341e-08
9.3243502e-08
9.3243552e-08
9.3243482e-08
9.3243493e-08
9.3243704e-08
9.3243976e-08
9.3244248e-08
9.3244477e-08
9.324424e-08
9.3242014e-08
9.3234008e-08
9.3220837e-08
9.3221426e-08
9.3306225e-08
9.3620281e-08
9.4289514e-08
9.4974007e-08
9.3770904e-08
8.591074e-08
6.1826981e-08
2.2730622e-08
2.0948877e-09
2.9439949e-10
9.3564992e-10
9.8243829e-10
1.01206e-09
1.033366e-09
1.0514591e-09
1.0680701e-09
1.0832924e-09
1.0967903e-09
1.1082711e-09
1.1175615e-09
1.1245192e-09
1.1289835e-09
1.1307349e-09
1.129477e-09
1.124818e-09
1.1162702e-09
1.1032501e-09
1.0850972e-09
1.0611006e-09
1.0305482e-09
9.9278798e-10
9.4731546e-10
8.9382671e-10
8.3248433e-10
7.6398806e-10
6.897233e-10
6.1090021e-10
5.2909943e-10
4.4642095e-10
3.6522525e-10
2.8829322e-10
2.1601177e-10
1.523161e-10
9.9066914e-11
5.7052252e-11
2.6787747e-11
7.9190151e-12
6.0618442e-13
2.5671857e-12
1.0507193e-11
2.5197858e-11
4.8364634e-11
7.6658931e-11
1.0672334e-10
1.3734299e-10
1.6625269e-10
1.9578852e-10
2.2448233e-10
2.5236678e-10
2.7956394e-10
3.0585371e-10
3.307692e-10
3.5420365e-10
3.7669849e-10
3.9822837e-10
4.1859296e-10
4.3766376e-10
4.5543468e-10
4.7200442e-10
4.8745449e-10
5.0180231e-10
5.1508622e-10
5.2738796e-10
5.3879794e-10
5.4939953e-10
5.5926639e-10
5.6846438e-10
5.7705104e-10
5.8507777e-10
5.9258875e-10
5.9962452e-10
6.0621303e-10
6.1239302e-10
6.1813076e-10
6.7716412e-10
7.327619e-10
7.8233888e-10
8.2419353e-10
8.5854791e-10
8.8674476e-10
9.1012237e-10
9.2959055e-10
9.4570744e-10
9.5885982e-10
9.6932016e-10
9.7725154e-10
9.8269884e-10
9.8558742e-10
9.8571937e-10
9.8277889e-10
9.763371e-10
9.6586633e-10
9.5075958e-10
9.3036566e-10
9.0403474e-10
8.7119481e-10
8.3137583e-10
7.8446586e-10
7.2958755e-10
6.667869e-10
5.9802263e-10
5.2561769e-10
4.5171645e-10
3.7841043e-10
3.0798231e-10
2.4240131e-10
1.8333127e-10
1.3191376e-10
8.9831214e-11
6.0476615e-11
3.3996755e-11
1.6891091e-11
7.8983914e-12
9.0439105e-12
1.4760601e-11
2.6147107e-11
4.1910787e-11
6.0925218e-11
8.1899381e-11
1.032726e-10
1.2521521e-10
1.4718276e-10
1.6885394e-10
1.9009412e-10
2.1078927e-10
2.307066e-10
2.4966675e-10
2.6772719e-10
2.8493882e-10
3.0129118e-10
3.1675057e-10
3.3129071e-10
3.4493065e-10
3.5770918e-10
3.6965271e-10
3.8078738e-10
3.9114815e-10
4.0077705e-10
4.0971955e-10
4.1802205e-10
4.2572906e-10
4.3288404e-10
4.3952654e-10
4.4569451e-10
4.5142243e-10
4.5674107e-10
4.6168651e-10
4.6626547e-10
1.5511406e-09
1.3172157e-09
1.1297706e-09
9.8982336e-10
8.9213249e-10
8.2733844e-10
7.9094967e-10
7.7808417e-10
7.8175267e-10
7.9542061e-10
8.1425124e-10
8.3475527e-10
8.5449363e-10
8.7189413e-10
8.8603841e-10
8.9645965e-10
9.0292893e-10
9.052977e-10
9.0338753e-10
8.9691827e-10
8.8554639e-10
8.6886581e-10
8.46415e-10
8.1786428e-10
7.8272331e-10
7.40588e-10
6.9173398e-10
6.3709185e-10
5.7801274e-10
5.160702e-10
4.5302943e-10
3.9063438e-10
3.3072588e-10
2.7379645e-10
2.2352901e-10
1.784338e-10
1.4034919e-10
1.0923993e-10
8.3813419e-11
6.6184484e-11
5.3167178e-11
4.8935243e-11
4.9290948e-11
5.2721425e-11
5.8798684e-11
6.678425e-11
7.6230346e-11
8.6380498e-11
9.7376983e-11
1.0895404e-10
1.2084808e-10
1.3283766e-10
1.4472952e-10
1.563882e-10
1.6772344e-10
1.7867106e-10
1.8918332e-10
1.9922533e-10
2.0877567e-10
2.1782499e-10
2.2637224e-10
2.3442186e-10
2.4198387e-10
2.4907194e-10
2.5570284e-10
2.6189557e-10
2.6767052e-10
2.7304895e-10
2.780524e-10
2.827023e-10
2.8701984e-10
2.9102475e-10
2.947399e-10
2.9817125e-10
6.5711486e-09
4.7642373e-09
3.5289338e-09
2.7155373e-09
2.1889901e-09
1.8278642e-09
1.5491864e-09
1.3106431e-09
1.1320339e-09
9.9919021e-10
9.04273e-10
8.4239298e-10
8.0760328e-10
7.9363435e-10
7.9405469e-10
8.0374758e-10
8.1853843e-10
8.3524138e-10
8.5104926e-10
8.624509e-10
8.6867209e-10
8.6992568e-10
8.6626926e-10
8.5761864e-10
8.4377518e-10
8.2446179e-10
7.9950774e-10
7.6900185e-10
7.3335115e-10
6.9323805e-10
6.4958064e-10
6.0344768e-10
5.560738e-10
5.084529e-10
4.6162059e-10
4.1624558e-10
3.7349006e-10
3.345635e-10
2.9659803e-10
2.6583889e-10
2.3822819e-10
2.1419568e-10
1.9468215e-10
1.7926134e-10
1.6785847e-10
1.5813887e-10
1.5308076e-10
1.4999528e-10
1.4814228e-10
1.4730064e-10
1.4733238e-10
1.4808005e-10
1.4939189e-10
1.5113896e-10
1.5321726e-10
1.5553864e-10
1.5802876e-10
1.6062522e-10
1.6327709e-10
1.6594131e-10
1.6858798e-10
1.711539e-10
1.736768e-10
1.7614336e-10
1.7853675e-10
1.808447e-10
1.8305833e-10
1.8517171e-10
1.8718143e-10
1.8908587e-10
1.9088526e-10
1.9258004e-10
1.941758e-10
1.9565917e-10
2.1683117e-08
1.6271632e-08
1.1967897e-08
8.7251232e-09
6.3761581e-09
4.7676126e-09
3.6724455e-09
2.897203e-09
2.3622893e-09
1.9771031e-09
1.6861934e-09
1.456705e-09
1.2573003e-09
1.106979e-09
9.9226406e-10
9.094102e-10
8.5414408e-10
8.2109607e-10
8.0962767e-10
8.1390265e-10
8.2747738e-10
8.4313432e-10
8.5615989e-10
8.6572301e-10
8.7170241e-10
8.7394933e-10
8.7224432e-10
8.6637281e-10
8.5621719e-10
8.4181961e-10
8.2340249e-10
8.0136619e-10
7.7625287e-10
7.4876254e-10
7.1946941e-10
6.8901892e-10
6.5804629e-10
6.2379059e-10
5.9365705e-10
5.6617449e-10
5.3926539e-10
5.1258934e-10
4.8735672e-10
4.6479516e-10
4.4491735e-10
4.2678488e-10
4.1083808e-10
3.9722256e-10
3.8568628e-10
3.7552968e-10
3.6659217e-10
3.5879917e-10
3.5177974e-10
3.456095e-10
3.4025841e-10
3.3563796e-10
3.3166143e-10
3.2822659e-10
3.2531755e-10
3.2253916e-10
3.2045569e-10
3.1867084e-10
3.1710178e-10
3.1572895e-10
3.1450526e-10
3.1343988e-10
3.1250549e-10
3.1168544e-10
3.1096652e-10
3.1033688e-10
3.0978616e-10
3.093046e-10
3.0888583e-10
3.0851506e-10
4.367906e-08
3.5553457e-08
2.8097419e-08
2.1692561e-08
1.6442467e-08
1.2331991e-08
9.242976e-09
6.9533653e-09
5.2969557e-09
4.110779e-09
3.2763912e-09
2.6722539e-09
2.2318342e-09
1.9028549e-09
1.6492722e-09
1.4452925e-09
1.2678063e-09
1.128261e-09
1.0183035e-09
9.3500855e-10
8.8055059e-10
8.5326277e-10
8.4525867e-10
8.5062244e-10
8.6238577e-10
8.7455407e-10
8.8547759e-10
8.945653e-10
9.0143606e-10
9.0577729e-10
9.0738729e-10
9.062027e-10
9.0228561e-10
8.9584139e-10
8.8716969e-10
8.7650573e-10
8.6465203e-10
8.5216439e-10
8.3790812e-10
8.228712e-10
8.0776692e-10
7.9260741e-10
7.7739448e-10
7.6196046e-10
7.4654605e-10
7.3145892e-10
7.1770568e-10
7.0522369e-10
6.9393321e-10
6.8371019e-10
6.7445117e-10
6.6606467e-10
6.5839285e-10
6.5135871e-10
6.4491262e-10
6.3901069e-10
6.336118e-10
6.2867654e-10
6.2416561e-10
6.1999689e-10
6.1619762e-10
6.1275129e-10
6.0962864e-10
6.0680055e-10
6.0423936e-10
6.0192187e-10
5.9982589e-10
5.9793108e-10
5.9621921e-10
5.9467379e-10
5.9327969e-10
5.9202359e-10
5.9089168e-10
5.8987776e-10
6.3406969e-08