/*--------------------------------*- C++ -*----------------------------------*\
| =========                 |                                                 |
| \\      /  F ield         | OpenFOAM: The Open Source CFD Toolbox           |
|  \\    /   O peration     | Version:  v2006                                 |
|   \\  /    A nd           | Website:  www.openfoam.com                      |
|    \\/     M anipulation  |                                                 |
\*---------------------------------------------------------------------------*/
FoamFile
{
    version     2.0;
    format      ascii;
    class       volScalarField;
    location    "1000";
    object      Cp;
}
// * * * * * * * * * * * * * * * * * * * * * * * * * * * * * * * * * * * * * //

dimensions      [0 0 0 0 0 0 0];


internalField   nonuniform List<scalar> 
55713
(
0.0062192031
0.0062199297
0.0062198303
0.0062203041
0.0062202497
0.0062205095
0.00622056
0.0062207627
0.0062208498
0.0062209143
0.006220835
0.0062206711
0.006220485
0.0062203388
0.0062203059
0.0062203301
0.006220361
0.00622037
0.0062203769
0.006220379
0.0062203783
0.0062203765
0.0062203697
0.0062203509
0.0062203147
0.0062202632
0.0062201975
0.006220114
0.0062200145
0.0062199026
0.0062197774
0.0062196464
0.0062195248
0.0062194297
0.0062193603
0.006219302
0.0062192376
0.0062191695
0.0062190934
0.0062190043
0.0062188997
0.0062187751
0.0062186234
0.0062184411
0.0062182362
0.006218016
0.0062177863
0.0062175531
0.0062173158
0.0062170743
0.0062168323
0.0062165776
0.0062163165
0.0062160302
0.0062157415
0.0062154215
0.006215081
0.0062147516
0.0062142389
0.0057619139
0.0057632694
0.0057632488
0.0057641423
0.0057642981
0.0057649465
0.0057653102
0.0057659466
0.0057664934
0.0057670319
0.0057674694
0.0057678281
0.0057681452
0.0057684705
0.0057688346
0.0057691817
0.0057694262
0.005769553
0.0057695989
0.0057696446
0.0057697426
0.0057698662
0.0057700545
0.0057702781
0.0057705425
0.0057708181
0.0057710736
0.0057712941
0.0057714599
0.0057715737
0.0057716061
0.0057715511
0.0057714229
0.0057713641
0.0057713576
0.0057713651
0.005771407
0.0057714674
0.0057715147
0.0057715278
0.0057715214
0.0057715086
0.0057714495
0.0057713331
0.0057712123
0.0057711269
0.0057711141
0.0057711463
0.0057712292
0.0057713404
0.0057714663
0.0057715812
0.0057717302
0.0057718284
0.0057719433
0.0057720039
0.0057720472
0.0057720735
0.0057720365
0.0053699284
0.0053715339
0.0053717188
0.0053727879
0.0053731506
0.0053739758
0.0053744084
0.0053750506
0.0053755451
0.0053761651
0.0053768324
0.0053775734
0.0053782965
0.0053789709
0.005379476
0.005379814
0.0053800549
0.0053802457
0.0053803963
0.0053804621
0.0053804585
0.0053804192
0.0053804716
0.0053805697
0.0053807591
0.0053810083
0.0053813284
0.0053817104
0.0053821097
0.0053824989
0.0053828323
0.0053830977
0.0053832785
0.005383351
0.0053833144
0.0053832191
0.0053832209
0.0053832661
0.0053832923
0.005383228
0.0053831341
0.0053831397
0.005383222
0.005383398
0.005383633
0.0053839293
0.0053842901
0.0053846872
0.0053851097
0.0053854573
0.0053858238
0.0053861438
0.0053864497
0.0053866996
0.0053870439
0.0053871884
0.0053876379
0.0053876826
0.0053881971
0.0050322773
0.0050340043
0.0050343205
0.0050354584
0.0050359029
0.0050367029
0.0050371048
0.0050375861
0.0050378992
0.005038243
0.0050385631
0.0050389012
0.0050392233
0.0050395071
0.0050397364
0.0050399475
0.0050401853
0.0050404906
0.0050408596
0.0050411942
0.0050414634
0.0050416258
0.0050417158
0.0050417385
0.0050417538
0.0050417721
0.0050418427
0.0050419747
0.0050422066
0.0050425192
0.0050429197
0.0050433739
0.0050438032
0.0050441559
0.0050444128
0.0050445785
0.0050446468
0.0050446733
0.0050447136
0.0050448274
0.0050450584
0.0050453844
0.0050457902
0.0050462581
0.005046758
0.0050472381
0.0050476475
0.0050479688
0.0050482279
0.0050483933
0.0050485644
0.0050486525
0.0050488784
0.0050489473
0.0050493666
0.0050494335
0.0050501156
0.0050501514
0.0050510118
0.0047406946
0.0047423886
0.0047427312
0.0047438035
0.0047442675
0.0047449525
0.0047453479
0.0047457832
0.0047460876
0.0047463552
0.0047465598
0.004746734
0.0047468795
0.0047470159
0.0047471723
0.0047473847
0.0047476622
0.0047479866
0.0047483636
0.0047488074
0.0047492499
0.0047496412
0.0047499633
0.0047502235
0.0047504105
0.004750533
0.0047505994
0.0047506349
0.004750669
0.0047507322
0.0047508556
0.0047510686
0.004751381
0.0047517943
0.0047522373
0.0047526419
0.0047529953
0.0047533206
0.0047536532
0.0047540174
0.0047544141
0.0047547739
0.0047551014
0.0047553814
0.004755616
0.0047557812
0.0047559048
0.0047559927
0.0047561133
0.0047562053
0.0047564112
0.0047565152
0.0047568423
0.0047569466
0.0047574304
0.0047575238
0.0047582254
0.0047582722
0.0047591947
0.0044905596
0.0044920969
0.0044924692
0.0044934117
0.0044938569
0.0044945115
0.0044949554
0.0044954674
0.0044958968
0.0044963053
0.0044966611
0.0044969916
0.0044973039
0.0044976242
0.0044979671
0.0044983288
0.004498692
0.0044990094
0.0044993076
0.0044996135
0.0044999735
0.0045003877
0.0045008306
0.0045012423
0.0045016079
0.0045019146
0.0045021643
0.0045023524
0.0045024787
0.0045025621
0.0045026245
0.00450269
0.0045028008
0.0045029724
0.0045032359
0.0045035676
0.0045039621
0.0045043634
0.0045047406
0.0045050447
0.0045052944
0.0045054681
0.0045056236
0.0045057302
0.0045058723
0.0045059878
0.0045061993
0.0045063626
0.0045066593
0.0045068401
0.0045072109
0.0045073913
0.0045078421
0.004508001
0.0045085359
0.0045086539
0.0045093239
0.0045093845
0.0045102789
0.0042679122
0.0042692447
0.0042696523
0.0042704813
0.0042709991
0.0042716326
0.0042721245
0.0042726835
0.0042731741
0.0042736803
0.0042741579
0.0042746248
0.0042750826
0.0042755394
0.0042759879
0.0042763922
0.0042767304
0.0042769933
0.0042772046
0.0042773766
0.0042775502
0.0042777403
0.0042779714
0.0042782454
0.0042785752
0.0042789449
0.0042793131
0.0042796425
0.0042799187
0.0042801477
0.0042803242
0.0042804534
0.0042805392
0.0042806175
0.0042807027
0.0042808237
0.0042809807
0.0042811643
0.0042813772
0.0042815785
0.0042818018
0.0042819695
0.0042821911
0.0042823584
0.0042826204
0.0042828175
0.0042831374
0.0042833476
0.0042837031
0.0042839176
0.0042843191
0.004284536
0.0042849983
0.0042852078
0.0042857422
0.0042859076
0.0042865459
0.0042866211
0.0042874608
0.004074172
0.0040750921
0.0040754204
0.0040760001
0.0040763009
0.0040767783
0.004077089
0.0040774711
0.0040777776
0.0040781086
0.0040784149
0.0040787185
0.0040790052
0.0040792649
0.004079494
0.0040796851
0.0040798506
0.0040799873
0.004080107
0.0040801988
0.0040802695
0.004080327
0.0040803778
0.0040804367
0.0040805222
0.0040806501
0.0040808317
0.0040810706
0.0040813349
0.0040815823
0.0040817921
0.0040819606
0.0040820863
0.0040821661
0.00408222
0.004082268
0.0040823349
0.0040824137
0.0040825379
0.004082663
0.004082819
0.0040829504
0.0040831225
0.004083244
0.0040834319
0.0040835474
0.0040837457
0.0040838369
0.0040840612
0.0040841369
0.0040843935
0.0040844463
0.0040847325
0.0040847775
0.0040850857
0.0040851197
0.0040854928
0.004085466
0.0040858898
0.0039707585
0.003971345
0.003971484
0.0039718613
0.0039722008
0.0039723728
0.0039726483
0.0039727972
0.0039730125
0.003973147
0.00397332
0.0039734338
0.0039735707
0.0039736563
0.0039737634
0.0039738453
0.0039739513
0.0039740508
0.0039741717
0.0039742877
0.003974395
0.0039744821
0.0039745498
0.0039745926
0.0039746044
0.0039745948
0.0039746119
0.0039746459
0.0039747188
0.0039748187
0.003974936
0.0039750684
0.0039751806
0.0039752781
0.0039753384
0.0039753805
0.0039754054
0.0039754344
0.0039754687
0.0039755038
0.0039755569
0.0039755952
0.0039756608
0.0039757068
0.0039757737
0.0039758218
0.0039758636
0.0039759418
0.0039759759
0.003976061
0.0039760789
0.0039761662
0.0039761781
0.0039762334
0.0039762664
0.0039762801
0.0039762967
0.0039762631
0.003976242
0.0038800159
0.0038812027
0.0038821601
0.0038822437
0.0038830491
0.003883186
0.0038837592
0.0038839348
0.0038843781
0.0038845378
0.0038849224
0.0038850848
0.0038854319
0.0038855897
0.0038858983
0.0038860719
0.0038863577
0.0038865615
0.003886863
0.0038871179
0.0038874135
0.0038876923
0.0038879818
0.0038882404
0.0038884956
0.0038887167
0.0038889143
0.0038891037
0.0038892937
0.0038894993
0.0038897327
0.0038899996
0.0038902863
0.0038905785
0.0038908611
0.0038911337
0.0038914027
0.0038916706
0.003891947
0.0038922234
0.0038925039
0.0038927946
0.0038930787
0.0038933816
0.0038936772
0.0038939959
0.003894325
0.0038946539
0.0038950067
0.0038953627
0.0038957431
0.0038961412
0.0038965519
0.0038970207
0.0038974616
0.0038980103
0.0038985032
0.0038992292
0.0038999694
0.0035088999
0.0035088822
0.003510042
0.0035106412
0.0035114057
0.0035121163
0.0035127692
0.003513354
0.0035138901
0.0035143827
0.0035148352
0.0035152564
0.0035156341
0.0035159941
0.0035163191
0.0035166249
0.0035169137
0.0035171911
0.0035174257
0.0035176808
0.0035179011
0.0035181244
0.0035183045
0.0035185041
0.0035186568
0.0035188096
0.0035189124
0.0035190074
0.0035190594
0.0035190625
0.0035190457
0.0035190492
0.0035190698
0.0035191093
0.0035191485
0.003519173
0.0035191815
0.0035191726
0.0035191555
0.0035191219
0.0035190754
0.0035190152
0.0035189367
0.0035188454
0.0035187366
0.0035186301
0.0035184954
0.0035183319
0.0035181507
0.0035179365
0.003517705
0.0035174343
0.0035171495
0.0035168324
0.0035164556
0.0035160975
0.0035155712
0.0035152512
0.0035147352
0.0034935532
0.0034899488
0.003488633
0.0034863732
0.003484882
0.0034832357
0.0034817467
0.0034803854
0.0034792064
0.003477986
0.0034769229
0.0034758328
0.0034749079
0.0034739328
0.0034730824
0.0034721482
0.0034713523
0.003470479
0.0034697159
0.0034688545
0.0034681042
0.0034673468
0.0034666344
0.003465947
0.0034652678
0.0034646305
0.0034640129
0.0034634555
0.00346283
0.0034622765
0.0034616633
0.0034611083
0.0034605128
0.0034599645
0.0034593751
0.0034588315
0.0034582515
0.0034577028
0.0034571316
0.0034565705
0.0034560204
0.0034554144
0.0034548656
0.0034542112
0.0034536018
0.0034529101
0.0034522049
0.003451555
0.003450728
0.003450027
0.0034490806
0.0034482853
0.0034472136
0.0034462258
0.0034449806
0.003443848
0.0034423566
0.0034409717
0.0034388021
0.005286625
0.005285322
0.0052840768
0.0052830713
0.0052820393
0.0052811143
0.0052801858
0.0052793064
0.005278565
0.0052778801
0.0052772547
0.0052766297
0.0052760468
0.0052755327
0.0052750877
0.0052746526
0.0052742375
0.0052738555
0.0052735172
0.0052732098
0.0052729206
0.0052726662
0.0052724307
0.0052722227
0.0052720326
0.0052718643
0.0052717038
0.0052715588
0.0052714382
0.0052713361
0.0052712528
0.0052711833
0.00527113
0.0052710921
0.0052710725
0.0052710668
0.0052710847
0.0052711116
0.0052711465
0.0052711871
0.0052712336
0.0052712878
0.0052713467
0.005271422
0.0052715252
0.0052716551
0.0052718001
0.0052719437
0.0052721127
0.0052723085
0.005272535
0.0052727717
0.0052730615
0.0052733548
0.0052737735
0.0052740528
0.0052745827
0.005274835
0.005275381
0.0033559999
0.0033599802
0.0033598361
0.0033629281
0.0033629042
0.0033650708
0.0033655403
0.0033671968
0.0033674839
0.0033688728
0.0033690889
0.0033703309
0.0033704668
0.0033715276
0.0033716149
0.0033725828
0.0033727116
0.0033735151
0.0033736577
0.0033742973
0.0033744762
0.0033749262
0.0033751079
0.0033754639
0.003375609
0.003375914
0.003376029
0.003376284
0.0033763719
0.0033765818
0.0033766432
0.0033768118
0.0033768502
0.0033769682
0.0033769864
0.0033770463
0.0033770445
0.003377046
0.0033770283
0.0033769947
0.0033769499
0.0033768934
0.0033768301
0.0033767612
0.0033766799
0.0033765739
0.0033764349
0.0033762808
0.0033761156
0.0033759242
0.0033757167
0.0033754633
0.0033751972
0.0033748531
0.0033745083
0.0033740012
0.0033735571
0.0033727782
0.0033722047
0.0255544
0.025561623
0.025570668
0.025578673
0.025587015
0.025595085
0.025603113
0.025611026
0.025618838
0.025626547
0.025634148
0.02564164
0.025649021
0.025656288
0.025663437
0.025670467
0.025677372
0.025684148
0.025690792
0.025697297
0.025703658
0.025709868
0.025715921
0.02572181
0.02572753
0.025733075
0.02573844
0.025743622
0.025748617
0.025753423
0.025758039
0.025762464
0.025766698
0.025770744
0.025774601
0.025778273
0.02578176
0.025785066
0.025788193
0.025791144
0.025793922
0.025796529
0.025798967
0.025801239
0.025803346
0.02580529
0.025807075
0.025808701
0.02581017
0.025811485
0.025812645
0.025813654
0.02581451
0.025815213
0.025815782
0.02581619
0.025816473
0.025816621
0.02581664
0.023365818
0.023372095
0.023379658
0.023386528
0.023393514
0.023400317
0.023407028
0.023413628
0.023420117
0.023426498
0.023432767
0.023438925
0.023444971
0.023450903
0.023456721
0.023462423
0.023468007
0.023473473
0.023478819
0.023484044
0.023489146
0.023494125
0.023498978
0.023503706
0.023508306
0.023512777
0.023517119
0.023521329
0.023525408
0.023529354
0.023533165
0.023536843
0.023540385
0.02354379
0.02354706
0.023550192
0.023553187
0.023556045
0.023558764
0.023561346
0.02356379
0.023566097
0.023568266
0.023570299
0.023572195
0.023573955
0.02357558
0.023577071
0.023578428
0.023579652
0.023580743
0.023581703
0.023582527
0.023583222
0.023583795
0.023584204
0.023584506
0.023584695
0.023584745
0.021325815
0.021331136
0.021337371
0.021343097
0.021348848
0.021354457
0.021359965
0.021365372
0.021370675
0.021375879
0.021380983
0.021385987
0.021390893
0.021395699
0.021400407
0.021405015
0.021409523
0.021413932
0.02141824
0.021422446
0.021426552
0.021430555
0.021434455
0.021438251
0.021441944
0.021445532
0.021449015
0.021452392
0.021455663
0.021458826
0.021461883
0.021464831
0.021467672
0.021470404
0.021473028
0.021475543
0.02147795
0.021480247
0.021482436
0.021484517
0.021486489
0.021488352
0.021490108
0.021491755
0.021493295
0.021494729
0.021496055
0.021497275
0.021498389
0.021499396
0.021500299
0.021501095
0.021501781
0.021502371
0.021502841
0.021503191
0.021503443
0.021503601
0.021503641
0.019414757
0.019419329
0.019424453
0.019429253
0.01943399
0.019438624
0.019443149
0.019447582
0.019451919
0.019456164
0.019460319
0.019464385
0.019468363
0.019472255
0.019476062
0.019479783
0.01948342
0.019486973
0.019490441
0.019493826
0.019497127
0.019500344
0.019503477
0.019506527
0.019509492
0.019512373
0.01951517
0.019517883
0.01952051
0.019523053
0.01952551
0.019527882
0.019530169
0.01953237
0.019534486
0.019536515
0.019538459
0.019540318
0.01954209
0.019543777
0.019545379
0.019546895
0.019548325
0.01954967
0.01955093
0.019552105
0.019553195
0.0195542
0.019555119
0.019555954
0.019556704
0.019557365
0.019557941
0.019558437
0.01955881
0.019559109
0.019559321
0.019559456
0.019559491
0.017637952
0.017641879
0.017646052
0.017650051
0.017653934
0.017657734
0.017661431
0.017665041
0.017668564
0.017672004
0.017675363
0.017678644
0.017681848
0.017684977
0.017688032
0.017691016
0.017693928
0.017696769
0.017699541
0.017702244
0.017704878
0.017707444
0.017709942
0.017712373
0.017714736
0.017717032
0.017719261
0.017721423
0.017723518
0.017725546
0.017727507
0.017729401
0.017731229
0.017732989
0.017734682
0.017736309
0.017737869
0.017739362
0.017740788
0.017742148
0.01774344
0.017744666
0.017745826
0.017746918
0.017747944
0.017748903
0.017749795
0.01775062
0.017751377
0.017752067
0.017752688
0.017753238
0.017753727
0.017754131
0.017754448
0.0177547
0.01775488
0.017754996
0.017755025
0.015986228
0.01598964
0.015993029
0.015996357
0.015999546
0.016002662
0.016005682
0.016008622
0.016011483
0.016014268
0.016016982
0.016019626
0.016022203
0.016024716
0.016027165
0.016029553
0.016031881
0.01603415
0.01603636
0.016038514
0.016040612
0.016042654
0.016044641
0.016046573
0.016048452
0.016050277
0.016052049
0.016053768
0.016055434
0.016057047
0.016058608
0.016060117
0.016061573
0.016062977
0.016064329
0.016065629
0.016066877
0.016068073
0.016069218
0.01607031
0.016071351
0.01607234
0.016073277
0.016074161
0.016074994
0.016075774
0.016076501
0.016077176
0.016077797
0.016078364
0.016078876
0.016079336
0.016079741
0.016080063
0.016080332
0.016080543
0.016080694
0.016080793
0.016080818
0.014457901
0.014460887
0.014463651
0.014466404
0.014469023
0.014471572
0.014474036
0.014476425
0.014478743
0.014480994
0.014483181
0.014485307
0.014487375
0.014489386
0.014491344
0.01449325
0.014495104
0.01449691
0.014498667
0.014500378
0.014502043
0.014503662
0.014505237
0.014506768
0.014508257
0.014509703
0.014511106
0.014512468
0.014513789
0.014515068
0.014516307
0.014517505
0.014518662
0.01451978
0.014520857
0.014521893
0.01452289
0.014523847
0.014524764
0.014525642
0.014526479
0.014527276
0.014528033
0.01452875
0.014529427
0.014530063
0.014530658
0.014531211
0.014531723
0.01453219
0.014532617
0.014533004
0.014533326
0.0145336
0.014533826
0.014534006
0.014534134
0.01453422
0.014534241
0.013047245
0.013049792
0.013052064
0.013054329
0.013056472
0.01305855
0.013060551
0.013062484
0.013064354
0.013066164
0.013067918
0.013069618
0.013071267
0.013072869
0.013074424
0.013075935
0.013077404
0.013078831
0.013080219
0.013081568
0.01308288
0.013084155
0.013085394
0.013086598
0.013087768
0.013088905
0.013090008
0.013091079
0.013092118
0.013093124
0.013094099
0.013095043
0.013095956
0.013096837
0.013097688
0.013098508
0.013099298
0.013100057
0.013100785
0.013101483
0.013102151
0.013102788
0.013103395
0.013103971
0.013104515
0.013105028
0.01310551
0.013105959
0.013106375
0.013106759
0.013107112
0.013107417
0.013107681
0.013107908
0.013108096
0.013108246
0.013108352
0.013108426
0.013108443
0.011749784
0.011751926
0.011753802
0.011755666
0.011757423
0.011759117
0.011760744
0.011762309
0.011763817
0.011765273
0.011766679
0.011768038
0.011769354
0.011770628
0.011771862
0.01177306
0.011774221
0.011775348
0.011776443
0.011777505
0.011778537
0.01177954
0.011780513
0.011781459
0.011782378
0.01178327
0.011784136
0.011784977
0.011785793
0.011786584
0.011787351
0.011788094
0.011788814
0.011789509
0.011790181
0.01179083
0.011791456
0.011792059
0.011792638
0.011793195
0.011793728
0.011794239
0.011794726
0.011795189
0.011795629
0.011796045
0.011796436
0.011796802
0.011797145
0.011797463
0.011797743
0.011797991
0.011798211
0.011798401
0.011798559
0.011798686
0.011798772
0.011798838
0.011798851
0.010560852
0.010562637
0.010564186
0.010565718
0.010567158
0.010568537
0.010569857
0.010571122
0.010572336
0.010573504
0.010574629
0.010575713
0.010576759
0.01057777
0.010578747
0.010579692
0.010580608
0.010581494
0.010582354
0.010583187
0.010583996
0.01058478
0.010585542
0.010586281
0.010586998
0.010587695
0.010588372
0.010589029
0.010589667
0.010590286
0.010590887
0.010591469
0.010592033
0.010592579
0.010593108
0.010593619
0.010594112
0.010594589
0.010595048
0.01059549
0.010595915
0.010596323
0.010596713
0.010597085
0.010597439
0.010597775
0.010598092
0.010598392
0.010598673
0.010598922
0.010599149
0.010599355
0.010599538
0.010599698
0.01059983
0.01059994
0.010600011
0.010600074
0.010600081
0.0094760444
0.0094775323
0.0094788169
0.0094800753
0.0094812587
0.0094823846
0.009483458
0.0094844826
0.0094854628
0.009486402
0.0094873033
0.0094881695
0.009489003
0.0094898061
0.0094905807
0.0094913285
0.0094920512
0.00949275
0.0094934263
0.0094940812
0.0094947158
0.0094953311
0.0094959278
0.009496507
0.0094970692
0.0094976151
0.0094981452
0.00949866
0.0094991599
0.0094996454
0.0095001168
0.0095005744
0.0095010184
0.0095014492
0.009501867
0.0095022718
0.0095026639
0.0095030434
0.0095034102
0.0095037644
0.0095041057
0.0095044343
0.0095047499
0.0095050522
0.009505341
0.0095056172
0.0095058799
0.0095061236
0.0095063438
0.0095065498
0.0095067397
0.0095069133
0.0095070694
0.0095072069
0.009507321
0.0095074194
0.0095074789
0.0095075397
0.0095075401
0.0084869719
0.0084881982
0.0084892616
0.0084902831
0.0084912458
0.0084921562
0.0084930205
0.0084938416
0.0084946239
0.0084953703
0.0084960838
0.0084967671
0.0084974223
0.0084980517
0.0084986571
0.0084992401
0.0084998023
0.008500345
0.0085008695
0.008501377
0.0085018684
0.0085023447
0.0085028064
0.0085032541
0.0085036879
0.0085041083
0.0085045157
0.0085049109
0.0085052947
0.0085056676
0.0085060299
0.0085063823
0.0085067248
0.0085070577
0.0085073813
0.0085076956
0.0085080008
0.0085082969
0.0085085836
0.008508861
0.0085091293
0.0085093886
0.008509639
0.008509881
0.0085101136
0.0085103342
0.0085105351
0.0085107262
0.0085109053
0.0085110732
0.0085112296
0.0085113739
0.0085115038
0.0085116202
0.0085117149
0.0085118023
0.0085118474
0.0085119071
0.0085118984
0.0075904019
0.0075914008
0.0075923078
0.0075931571
0.0075939524
0.0075946998
0.0075954068
0.0075960736
0.0075967059
0.0075973055
0.0075978756
0.0075984184
0.0075989362
0.007599431
0.0075999048
0.0076003594
0.0076007965
0.0076012182
0.0076016259
0.0076020213
0.0076024056
0.0076027794
0.0076031426
0.0076034941
0.0076038335
0.0076041608
0.0076044774
0.007604785
0.0076050852
0.007605379
0.0076056669
0.0076059491
0.0076062257
0.0076064966
0.0076067619
0.0076070214
0.0076072751
0.0076075225
0.0076077635
0.0076079983
0.0076082253
0.0076084423
0.0076086496
0.0076088485
0.0076090352
0.007609212
0.0076093803
0.0076095401
0.0076096917
0.0076098353
0.0076099704
0.0076100976
0.0076102111
0.0076103173
0.0076104006
0.007610487
0.0076105233
0.0076105881
0.0076105899
0.0068051959
0.0068059961
0.0068067531
0.0068074894
0.006808181
0.006808831
0.0068094526
0.0068100384
0.0068105971
0.0068111269
0.0068116317
0.006812112
0.0068125691
0.006813004
0.0068134174
0.0068138102
0.0068141836
0.0068145392
0.0068148795
0.0068152065
0.0068155222
0.0068158278
0.0068161227
0.0068164046
0.0068166729
0.0068169306
0.0068171811
0.0068174263
0.0068176656
0.0068178974
0.0068181202
0.0068183335
0.0068185375
0.0068187317
0.0068189169
0.0068190925
0.0068192586
0.0068194157
0.0068195643
0.0068197049
0.0068198364
0.0068199631
0.0068200845
0.0068202037
0.0068203258
0.0068204539
0.0068205868
0.0068207212
0.0068208551
0.0068209872
0.0068211123
0.0068212327
0.0068213333
0.0068214315
0.0068214972
0.0068215693
0.0068215988
0.0068216848
0.0068217039
0.028459699
0.031669441
0.035264133
0.039198672
0.04349061
0.04817555
0.053276633
0.058816488
0.064817456
0.071299897
0.078281182
0.085773493
0.093783095
0.10230732
0.11133319
0.12083382
0.13076662
0.14106952
0.15165911
0.16242754
0.17324175
0.18394243
0.19434553
0.20424489
0.2134301
0.22165519
0.22870303
0.23435493
0.23843103
0.24075418
0.24123797
0.2398458
0.23653317
0.23136417
0.22445848
0.2159541
0.20604286
0.19487197
0.18263002
0.16961914
0.15601054
0.14201948
0.12781255
0.11347016
0.099173993
0.085038167
0.071174663
0.057685437
0.044609281
0.031994395
0.01984478
0.0082676614
-0.0027155135
-0.013210492
-0.023200718
-0.03266218
-0.041602994
-0.05003346
-0.057988571
-0.065498409
-0.072551261
-0.07916011
-0.085357212
-0.091166498
-0.096609032
-0.10170528
-0.10647557
-0.11093943
-0.1151153
-0.11902104
-0.12267286
-0.1260863
-0.12927257
-0.1322488
0.028459669
0.031669419
0.035264094
0.039198624
0.043490562
0.048175504
0.05327659
0.058816449
0.064817424
0.071299873
0.078281166
0.085773492
0.093783135
0.10230739
0.1113333
0.12083399
0.13076685
0.14106983
0.15165951
0.16242806
0.1732424
0.18394323
0.19434639
0.20424592
0.21343117
0.22165627
0.22870425
0.23435617
0.23843224
0.2407553
0.24123899
0.23984669
0.2365343
0.23136568
0.22446002
0.21595528
0.2060392
0.19486625
0.18262915
0.16961944
0.15601033
0.14201361
0.12779987
0.11345699
0.099163942
0.085033876
0.071173752
0.057684874
0.044608813
0.031995077
0.019840983
0.0082595772
-0.0027212636
-0.013213807
-0.023203585
-0.032665323
-0.041606975
-0.050035083
-0.057984936
-0.065494177
-0.072549454
-0.079160863
-0.085358569
-0.091168175
-0.096610781
-0.10170693
-0.10647698
-0.11094047
-0.11511583
-0.11902082
-0.12267166
-0.12608474
-0.12927072
-0.13224783
0.028459426
0.031669197
0.035263822
0.039198317
0.04349023
0.048175144
0.0532762
0.058816029
0.064816971
0.071299391
0.078280657
0.085772959
0.093782574
0.1023068
0.1113327
0.12083338
0.13076625
0.14106925
0.15165898
0.16242761
0.17324206
0.18394307
0.19434661
0.20424628
0.21343212
0.22165781
0.22870602
0.23435842
0.23843508
0.24075868
0.24124294
0.23985125
0.23653935
0.23137097
0.22446536
0.21596026
0.20604306
0.19487181
0.18263773
0.16962682
0.15601786
0.14201989
0.127804
0.11346327
0.099169949
0.085039493
0.071178946
0.057687988
0.044610498
0.03199504
0.019850959
0.008269024
-0.0027267518
-0.013225783
-0.023216335
-0.032677564
-0.041618411
-0.050049156
-0.058000319
-0.065502366
-0.072551245
-0.079157238
-0.085352344
-0.091160747
-0.096601958
-0.10169669
-0.10646532
-0.11092735
-0.1151013
-0.11900504
-0.12265616
-0.12607034
-0.12927408
-0.13225374
0.028458909
0.031668819
0.035263342
0.039197782
0.043489651
0.048174518
0.05327552
0.058815293
0.064816176
0.071298518
0.07827971
0.085771939
0.093781482
0.10230565
0.11133149
0.12083213
0.13076499
0.14106802
0.15165782
0.16242657
0.17324122
0.18394253
0.19434651
0.20424748
0.21343352
0.22165972
0.22870893
0.23436248
0.23844037
0.24076513
0.24125062
0.23986024
0.23654956
0.23138238
0.22447781
0.21597352
0.2060553
0.19488417
0.18265267
0.16964185
0.15603389
0.14203402
0.12781391
0.11347293
0.099179021
0.08505034
0.071192185
0.057701427
0.044624496
0.032010232
0.019871803
0.0082863329
-0.0027200068
-0.013218331
-0.0232052
-0.032664503
-0.041604679
-0.050037494
-0.057988412
-0.065485444
-0.072531345
-0.079139177
-0.085336032
-0.091144735
-0.096585656
-0.10167981
-0.10644765
-0.11090867
-0.11508144
-0.11898383
-0.12263256
-0.12604338
-0.12923031
-0.13220308
0.028458176
0.031668268
0.035262648
0.039196997
0.043488785
0.048173557
0.053274456
0.058814117
0.064814878
0.071297099
0.078278165
0.085770268
0.093779683
0.10230373
0.11132946
0.12083003
0.13076284
0.14106588
0.15165577
0.16242472
0.1732397
0.1839414
0.19434593
0.20424745
0.21343503
0.22166238
0.22871324
0.23436857
0.23844847
0.24077521
0.24126287
0.23987481
0.23656628
0.2314011
0.22449824
0.21599519
0.20607637
0.19490637
0.18267876
0.16966851
0.15606129
0.14205953
0.12783585
0.1134959
0.099202627
0.08507558
0.071218589
0.057726503
0.044648716
0.032033524
0.019899749
0.008313309
-0.0027019246
-0.01320258
-0.023189668
-0.03264977
-0.041590585
-0.050025492
-0.057977218
-0.065469159
-0.07251181
-0.079117851
-0.08531198
-0.091117774
-0.096556235
-0.10164809
-0.10641364
-0.1108724
-0.11504304
-0.11894361
-0.12259106
-0.12600214
-0.1291917
-0.13217559
0.028457273
0.031667527
0.035261735
0.039195965
0.04348764
0.048172285
0.053273041
0.058812548
0.064813142
0.07129518
0.078276051
0.085767949
0.093777154
0.102301
0.11132653
0.12082693
0.13075963
0.14106263
0.15165257
0.16242171
0.17323706
0.1839394
0.19434487
0.20424769
0.21343692
0.22166605
0.22871925
0.23437726
0.23846025
0.24079009
0.24128113
0.23989672
0.23659155
0.23142957
0.22452957
0.21602889
0.20611051
0.19494238
0.18271898
0.16970949
0.15610327
0.14210001
0.12787281
0.11353334
0.099239967
0.085113885
0.071258083
0.057765336
0.044687503
0.032072548
0.019943699
0.0083559965
-0.0026685609
-0.013171962
-0.023157779
-0.03261656
-0.041556287
-0.049991364
-0.05794202
-0.065430081
-0.072468897
-0.079073365
-0.085266782
-0.091072104
-0.096510109
-0.10160133
-0.1063661
-0.11082406
-0.11499395
-0.11889402
-0.12254111
-0.12595257
-0.12914185
-0.13212895
0.028456206
0.031666578
0.035260589
0.039194667
0.043486194
0.048170668
0.053271233
0.058810531
0.064810893
0.071292678
0.078273279
0.085764892
0.093773801
0.10229735
0.11132261
0.12082276
0.13075526
0.14105817
0.15164815
0.16241752
0.17323335
0.18393649
0.19434312
0.2042475
0.21343899
0.22167085
0.22872738
0.23438927
0.23847674
0.24081109
0.24130712
0.23992814
0.236628
0.23147087
0.22457527
0.21607833
0.20616156
0.19499625
0.18277802
0.16977021
0.15616551
0.1421611
0.12793052
0.11359164
0.099298639
0.085173918
0.071319508
0.057825991
0.044747639
0.032132142
0.020006362
0.008416786
-0.0026161411
-0.013122448
-0.023107884
-0.032566871
-0.041507279
-0.049943596
-0.057894563
-0.065380208
-0.072416216
-0.079019338
-0.085211452
-0.091014883
-0.09645074
-0.10153978
-0.10630243
-0.11075845
-0.11492675
-0.11882583
-0.12247272
-0.12588553
-0.12907719
-0.13207052
0.028454959
0.03166541
0.035259198
0.039193086
0.043484426
0.048168683
0.053269002
0.058808027
0.064808087
0.071289539
0.078269778
0.085761007
0.09376951
0.10229265
0.1113175
0.1208173
0.1307495
0.14105223
0.15164221
0.16241182
0.17322822
0.18393238
0.19434057
0.20424732
0.21344139
0.22167715
0.22873822
0.23440547
0.23849922
0.24083999
0.24134315
0.23997198
0.23667908
0.231529
0.22463993
0.21614868
0.20623529
0.19507432
0.18286257
0.16985744
0.15625482
0.14224974
0.12801616
0.1136779
0.099385306
0.085261573
0.071408098
0.05791359
0.044834582
0.032218587
0.020095322
0.0085042436
-0.0025360757
-0.013045836
-0.023031407
-0.032490354
-0.041430617
-0.049866762
-0.05781659
-0.065299191
-0.072331894
-0.078932789
-0.085123164
-0.090925061
-0.096359699
-0.10144785
-0.10620988
-0.1106656
-0.11483398
-0.11873367
-0.12238166
-0.12579632
-0.12899007
-0.1319867
0.028453534
0.031664018
0.03525755
0.039191207
0.043482311
0.048166297
0.053266309
0.058804991
0.064804666
0.07128569
0.07826546
0.085756184
0.093764151
0.10228674
0.11131105
0.12081033
0.1307421
0.14104454
0.15163445
0.16240431
0.1732214
0.18392682
0.19433703
0.20424673
0.21344418
0.22168527
0.22875243
0.234427
0.23852935
0.24087898
0.2413921
0.24003189
0.23674924
0.2316092
0.22472951
0.21624659
0.206339
0.1951844
0.18298082
0.16997986
0.1563803
0.14237542
0.12813947
0.113802
0.099510062
0.08538737
0.071534884
0.058039542
0.04495979
0.032343011
0.020220975
0.0086277382
-0.0024196521
-0.012933441
-0.022919842
-0.03237933
-0.041320261
-0.049757056
-0.057706878
-0.065188223
-0.072219315
-0.078819184
-0.085008833
-0.090809896
-0.096243626
-0.10133086
-0.10609208
-0.11054724
-0.11471546
-0.11861552
-0.12226453
-0.12568095
-0.12887719
-0.13187695
0.028451928
0.031662395
0.035255634
0.039189011
0.043479826
0.048163478
0.053263109
0.058801364
0.064800557
0.071281041
0.078260216
0.085750293
0.093757563
0.10227943
0.11130301
0.1208016
0.13073277
0.14103477
0.15162452
0.16239462
0.1732125
0.18391947
0.19433223
0.2042458
0.21344751
0.22169568
0.22877091
0.23445525
0.23856923
0.24093098
0.24145768
0.24011251
0.23684402
0.23171803
0.22485161
0.21638062
0.20648213
0.19533674
0.18314372
0.170149
0.15655389
0.14255037
0.12831294
0.11397657
0.099685595
0.085563885
0.071712104
0.058215687
0.045134742
0.032516676
0.02039471
0.0087989887
-0.0022547191
-0.012772725
-0.022760586
-0.032220994
-0.041162684
-0.049599805