/*--------------------------------*- C++ -*----------------------------------*\
| =========                 |                                                 |
| \\      /  F ield         | OpenFOAM: The Open Source CFD Toolbox           |
|  \\    /   O peration     | Version:  v2006                                 |
|   \\  /    A nd           | Website:  www.openfoam.com                      |
|    \\/     M anipulation  |                                                 |
\*---------------------------------------------------------------------------*/
FoamFile
{
    version     2.0;
    format      ascii;
    class       volScalarField;
    location    "1000";
    object      Cy;
}
// * * * * * * * * * * * * * * * * * * * * * * * * * * * * * * * * * * * * * //

dimensions      [0 1 0 0 0 0 0];


internalField   nonuniform List<scalar> 
55713
(
-0.13222036
-0.12875641
-0.12547365
-0.12235222
-0.11937514
-0.11652773
-0.11379718
-0.11117219
-0.10864279
-0.10620006
-0.10383601
-0.10154343
-0.099315805
-0.097147175
-0.095032104
-0.09296559
-0.090943012
-0.088960086
-0.087012814
-0.085097455
-0.083210488
-0.081348581
-0.079508569
-0.077687426
-0.075882248
-0.074090226
-0.072308637
-0.070534817
-0.068766151
-0.067000055
-0.065233959
-0.063465294
-0.061691474
-0.059909886
-0.058117866
-0.056312689
-0.054491549
-0.052651539
-0.050789635
-0.048902671
-0.046987317
-0.04504005
-0.043057129
-0.041034558
-0.038968051
-0.036852989
-0.03468437
-0.032456754
-0.030164192
-0.027800159
-0.025357449
-0.022828071
-0.020203116
-0.017472593
-0.014625227
-0.011648201
-0.0085268343
-0.0052441491
-0.0017803009
-0.13213679
-0.12852617
-0.12513289
-0.12192908
-0.11889179
-0.11600182
-0.11324289
-0.11060101
-0.10806408
-0.1056215
-0.10326393
-0.10098308
-0.098771535
-0.096622629
-0.094530325
-0.092489133
-0.090494022
-0.088540365
-0.086623881
-0.084740586
-0.082886751
-0.081058872
-0.079253631
-0.077467873
-0.075698578
-0.073942838
-0.072197835
-0.070460825
-0.068729115
-0.067000047
-0.065270978
-0.063539269
-0.061802259
-0.060057258
-0.058301518
-0.056532225
-0.054746468
-0.05294123
-0.051113353
-0.049259522
-0.047376229
-0.045459749
-0.043506098
-0.041510992
-0.039469806
-0.03737751
-0.035228613
-0.03301708
-0.03073624
-0.028378683
-0.02593612
-0.023399208
-0.020757358
-0.017998455
-0.015108524
-0.01207128
-0.0088675188
-0.0054742975
-0.0018637663
-0.13205301
-0.12829537
-0.12479129
-0.12150489
-0.11840724
-0.11547461
-0.11268724
-0.11002843
-0.10748395
-0.10504152
-0.10269044
-0.10042134
-0.098225925
-0.096096791
-0.094027312
-0.092011503
-0.090043926
-0.088119612
-0.086233992
-0.084382838
-0.082562218
-0.08076845
-0.078998067
-0.077247781
-0.075514457
-0.073795086
-0.072086761
-0.070386652
-0.068691989
-0.067000039
-0.065308089
-0.063613426
-0.061913317
-0.060204993
-0.058485623
-0.0567523
-0.055002016
-0.053231634
-0.051437868
-0.049617251
-0.0477661
-0.045880482
-0.043956172
-0.0419886
-0.039972796
-0.037903323
-0.035774196
-0.033578785
-0.031309696
-0.028958633
-0.026516215
-0.023971752
-0.021312964
-0.01852561
-0.015593011
-0.0124954
-0.0092090423
-0.0057050128
-0.0019474363
-0.13196901
-0.12806399
-0.12444884
-0.12107965
-0.1179215
-0.11494611
-0.11213021
-0.10945443
-0.10690239
-0.1044601
-0.10211554
-0.099858224
-0.097678969
-0.095569655
-0.093523057
-0.091532694
-0.08959272
-0.087697821
-0.08584314
-0.084024208
-0.082236885
-0.080477312
-0.078741872
-0.077027145
-0.075329882
-0.073646971
-0.071975413
-0.070312296
-0.06865477
-0.067000031
-0.065345291
-0.063687766
-0.062024649
-0.060353092
-0.058670182
-0.056972919
-0.055258193
-0.053522754
-0.051763184
-0.049975862
-0.048156932
-0.046302254
-0.044407358
-0.042467387
-0.040477028
-0.038430434
-0.036321126
-0.034141877
-0.031884568
-0.029540014
-0.027097743
-0.024545709
-0.021869941
-0.019054068
-0.016078695
-0.012920567
-0.0095514091
-0.0059362978
-0.0020313119
-0.13188481
-0.12783203
-0.12410554
-0.12065336
-0.11743455
-0.11441629
-0.11157181
-0.10887901
-0.10631938
-0.10387725
-0.10153922
-0.099293711
-0.097130659
-0.095041216
-0.093017554
-0.091052701
-0.089140397
-0.087274986
-0.085451322
-0.083664691
-0.081910746
-0.080185455
-0.078485044
-0.076805964
-0.075144851
-0.07349849
-0.07186379
-0.070237756
-0.06861746
-0.067000023
-0.065382586
-0.063762291
-0.062136257
-0.060501557
-0.058855197
-0.057194084
-0.055515005
-0.053814595
-0.052089304
-0.050335361
-0.048548732
-0.046725069
-0.04485966
-0.042947358
-0.040982508
-0.03895885
-0.03686941
-0.034706363
-0.032460862
-0.030122834
-0.02768071
-0.025121087
-0.022428297
-0.019583832
-0.01656558
-0.013346786
-0.0098946233
-0.0061681551
-0.0021153938
-0.1318004
-0.1275995
-0.12376139
-0.12022601
-0.1169464
-0.11388516
-0.11101203
-0.10830217
-0.10573493
-0.10329295
-0.10096146
-0.098727796
-0.09658099
-0.094511465
-0.092510798
-0.090571518
-0.088686953
-0.086851103
-0.085058532
-0.083304282
-0.0815838
-0.079892874
-0.078227579
-0.076584235
-0.074959361
-0.07334964
-0.071751891
-0.070163031
-0.068580058
-0.067000016
-0.065419973
-0.063837
-0.062248141
-0.060650391
-0.059040671
-0.057415797
-0.055772453
-0.05410716
-0.052416234
-0.050695752
-0.048941503
-0.047148933
-0.045313084
-0.043428521
-0.041489242
-0.039488577
-0.037419054
-0.03527225
-0.033038587
-0.0307071
-0.028265123
-0.025697892
-0.022988038
-0.020114911
-0.017053673
-0.013774063
-0.010238689
-0.0064005875
-0.0021996832
-0.13171577
-0.12736638
-0.12341638
-0.1197976
-0.11645703
-0.1133527
-0.11045084
-0.10772389
-0.10514903
-0.1027072
-0.10038227
-0.098160475
-0.096029953
-0.093980397
-0.092002782
-0.090089138
-0.088232382
-0.086426167
-0.084664766
-0.082942978
-0.081256041
-0.079599565
-0.077969475
-0.076361956
-0.07477341
-0.073200421
-0.071639713
-0.070088121
-0.068542563
-0.067000008
-0.065457453
-0.063911895
-0.062360303
-0.060799595
-0.059226606
-0.057638061
-0.056030542
-0.054400451
-0.052743976
-0.051057039
-0.049335251
-0.047573851
-0.045767636
-0.04391088
-0.041997237
-0.040019621
-0.037970066
-0.035839544
-0.033617749
-0.03129282
-0.02885099
-0.026276132
-0.023549172
-0.020647311
-0.01754298
-0.014202403
-0.01058361
-0.0066335978
-0.0022841809
-0.13163093
-0.12713268
-0.12307051
-0.11936812
-0.11596644
-0.11281892
-0.10988826
-0.10714416
-0.10456166
-0.10211999
-0.099801635
-0.097591739
-0.095477543
-0.093448006
-0.091493499
-0.089605556
-0.087776678
-0.086000171
-0.084270019
-0.082580774
-0.080927466
-0.079305527
-0.077710728
-0.076139122
-0.074586997
-0.073050831
-0.071527257
-0.070013025
-0.068504975
-0.067000001
-0.065495027
-0.063986977
-0.062472745
-0.060949171
-0.059413005
-0.057860879
-0.056289273
-0.054694474
-0.053072535
-0.051419226
-0.049729981
-0.047999828
-0.046223321
-0.044394441
-0.042506498
-0.04055199
-0.038522451
-0.036408253
-0.034198355
-0.03188
-0.029438318
-0.026855813
-0.024111704
-0.021181039
-0.018033506
-0.01463181
-0.010929392
-0.0068671887
-0.0023688879
-0.13154587
-0.12689839
-0.12272377
-0.11893756
-0.11547462
-0.1122838
-0.10932428
-0.10656299
-0.10397283
-0.1015313
-0.099219547
-0.097021581
-0.094923752
-0.092914284
-0.090982944
-0.089120766
-0.087319835
-0.085573111
-0.083874286
-0.082217665
-0.08059807
-0.079010754
-0.077451335
-0.075915733
-0.074400118
-0.072900867
-0.071414519
-0.069937742
-0.068467293
-0.066999994
-0.065532695
-0.064062246
-0.062585468
-0.06109912
-0.059599869
-0.058084254
-0.056548651
-0.054989232
-0.053401915
-0.051782319
-0.050125697
-0.04842687
-0.046680145
-0.044879212
-0.043017032
-0.041085689
-0.039076218
-0.036978384
-0.034780412
-0.032468648
-0.030027114
-0.027436944
-0.024675643
-0.0217161
-0.018525259
-0.015062291
-0.011276038
-0.0071013632
-0.0024538054
-0.1314606
-0.12666352
-0.12237616
-0.11850592
-0.11498157
-0.11174735
-0.10875888
-0.10598036
-0.10338252
-0.10094115
-0.098636002
-0.096449995
-0.094368573
-0.092379224
-0.09047111
-0.088634762
-0.086861848
-0.085144982
-0.083477562
-0.081853647
-0.080267849
-0.078715243
-0.077191293
-0.075691784
-0.074212772
-0.072750528
-0.0713015
-0.06986227
-0.068429517
-0.066999987
-0.065570457
-0.064137704
-0.062698474
-0.061249445
-0.059787201
-0.058308188
-0.056808679
-0.055284727
-0.05373212
-0.052146321
-0.050522404
-0.048854982
-0.047138113
-0.045365197
-0.043528845
-0.041620726
-0.039631372
-0.037549943
-0.035363929
-0.033058772
-0.030617386
-0.028019531
-0.025240995
-0.022252503
-0.019018244
-0.01549385
-0.011623552
-0.0073361241
-0.0025389342
-0.13137511
-0.12642805
-0.12202768
-0.1180732
-0.11448728
-0.11120954
-0.10819206
-0.10539627
-0.10279073
-0.10034951
-0.09805099
-0.095876973
-0.093812
-0.091842821
-0.08995799
-0.088147537
-0.086402712
-0.084715778
-0.083079842
-0.081488716
-0.0799368
-0.078418991
-0.076930598
-0.075467274
-0.074024956
-0.072599813
-0.071188198
-0.069786609
-0.068391646
-0.066999981
-0.065608315
-0.064213352
-0.062811763
-0.061400147
-0.059975003
-0.058532684
-0.057069359
-0.055580965
-0.054063154
-0.052511236
-0.050920107
-0.049284169
-0.047597232
-0.045852403
-0.044041944
-0.042157107
-0.040187921
-0.038122939
-0.035948911
-0.033650378
-0.031209141
-0.028603582
-0.025807767
-0.022790252
-0.019512468
-0.015926494
-0.011971939
-0.0075714743
-0.0026242753
-0.1312894
-0.12619198
-0.12167832
-0.11763939
-0.11399174
-0.11067038
-0.10762381
-0.1048107
-0.10219745
-0.099756381
-0.097464505
-0.095302508
-0.093254026
-0.091305068
-0.089443579
-0.087659085
-0.08594242
-0.084285494
-0.082681122
-0.081122866
-0.079604918
-0.078121994
-0.076669248
-0.075242199
-0.073836668
-0.072448718
-0.071074611
-0.069710758
-0.068353681
-0.066999974
-0.065646267
-0.06428919
-0.062925337
-0.061551229
-0.060163278
-0.058757746
-0.057330695
-0.055877948
-0.054395021
-0.052877071
-0.051318812
-0.049714436
-0.048057507
-0.046340835
-0.044556336
-0.042694839
-0.040745872
-0.038697378
-0.036535367
-0.034243474
-0.031802386
-0.029189103
-0.026375966
-0.023329356
-0.020007936
-0.016360227
-0.012321203
-0.0078074166
-0.00270983
-0.13120347
-0.12595532
-0.12132807
-0.11720447
-0.11349496
-0.11012985
-0.10705413
-0.10422366
-0.10160267
-0.099161755
-0.09687654
-0.094726593
-0.092694643
-0.090765957
-0.088927869
-0.087169402
-0.085480966
-0.083854125
-0.082281396
-0.080756094
-0.0792722
-0.077824248
-0.076407239
-0.075016557
-0.073647905
-0.072297243
-0.070960738
-0.069634716
-0.06831562
-0.066999968
-0.065684316
-0.064365219
-0.063039197
-0.061702691
-0.060352028
-0.058983374
-0.057592691
-0.05617568
-0.054727726
-0.053243828
-0.051718523
-0.05014579
-0.048518943
-0.046830501
-0.045072026
-0.043233929
-0.041305231
-0.039273267
-0.037123304
-0.034838068
-0.032397129
-0.029776103
-0.0269456
-0.023869821
-0.020504655
-0.016795054
-0.012671349
-0.008043954
-0.0027955991
-0.13111732
-0.12571805
-0.12097693
-0.11676846
-0.11299691
-0.10958796
-0.106483
-0.10363513
-0.10100638
-0.098565624
-0.096287086
-0.094149221
-0.092133844
-0.090225482
-0.088410855
-0.086678479
-0.085018345
-0.083421664
-0.081880659
-0.080388395
-0.07893864
-0.07752575
-0.076144568
-0.074790345
-0.073458665
-0.072145385
-0.070846577
-0.069558482
-0.068277463
-0.066999962
-0.06572246
-0.064441441
-0.063153345
-0.061854537
-0.060541255
-0.059209574
-0.057855349
-0.056474165
-0.055061272
-0.053611513
-0.052119245
-0.050578234
-0.048981547
-0.047321406
-0.045589021
-0.043774383
-0.041866007
-0.039850614
-0.037712728
-0.035434166
-0.032993377
-0.030364589
-0.027516676
-0.024411654
-0.021002631
-0.017230982
-0.01302238
-0.0082810894
-0.0028815838
-0.0010760057
-0.0032333108
-0.0054012136
-0.007579668
-0.0097685763
-0.011967796
-0.014177144
-0.016396401
-0.018625318
-0.020863615
-0.023110987
-0.025367104
-0.027631616
-0.029904153
-0.032184326
-0.034471731
-0.036765948
-0.039066545
-0.041373076
-0.043685085
-0.046002103
-0.048323657
-0.050649261
-0.052978425
-0.055310651
-0.057645438
-0.059982277
-0.06232066
-0.064660072
-0.067
-0.069339928
-0.07167934
-0.074017723
-0.076354562
-0.078689349
-0.081021575
-0.083350739
-0.085676343
-0.087997897
-0.090314915
-0.092626924
-0.094933455
-0.097234052
-0.099528269
-0.10181567
-0.10409585
-0.10636838
-0.1086329
-0.11088901
-0.11313638
-0.11537468
-0.1176036
-0.11982286
-0.1220322
-0.12423142
-0.12642033
-0.12859879
-0.13076669
-0.13292399
-0.0011050446
-0.0033164361
-0.0055308124
-0.0077488205
-0.009970979
-0.012197695
-0.014429281
-0.016665962
-0.018907891
-0.021155155
-0.023407783
-0.025665753
-0.027928996
-0.030197405
-0.032470833
-0.034749103
-0.037032006
-0.039319311
-0.041610759
-0.043906074
-0.046204958
-0.048507098
-0.050812169
-0.053119829
-0.055429729
-0.057741508
-0.0600548
-0.062369231
-0.064684425
-0.067
-0.069315575
-0.071630769
-0.0739452
-0.076258492
-0.078570271
-0.080880171
-0.083187831
-0.085492902
-0.087795042
-0.090093926
-0.092389241
-0.094680689
-0.096967994
-0.099250897
-0.10152917
-0.1038026
-0.106071
-0.10833425
-0.11059222
-0.11284485
-0.11509211
-0.11733404
-0.11957072
-0.1218023
-0.12402902
-0.12625118
-0.12846919
-0.13068356
-0.13289496
-0.0011364069
-0.0034062124
-0.0056707806
-0.007931507
-0.010189576
-0.012445989
-0.014701591
-0.01695709
-0.019213071
-0.021470019
-0.023728323
-0.025988294
-0.028250167
-0.030514117
-0.03278026
-0.035048663
-0.037319348
-0.039592296
-0.041867455
-0.04414474
-0.046424038
-0.048705213
-0.050988107
-0.053272543
-0.05555833
-0.057845262
-0.060133123
-0.062421687
-0.064710725
-0.067
-0.069289275
-0.071578313
-0.073866877
-0.076154738
-0.07844167
-0.080727457
-0.083011893
-0.085294787
-0.087575962
-0.08985526
-0.092132545
-0.094407704
-0.096680652
-0.098951337
-0.10121974
-0.10348588
-0.10574983
-0.10801171
-0.11027168
-0.11252998
-0.11478693
-0.11704291
-0.11929841
-0.12155401
-0.12381042
-0.12606849
-0.12832922
-0.13059379
-0.13286359
-0.0011702786
-0.003503172
-0.0058219479
-0.0081288105
-0.010425663
-0.012714149
-0.014995689
-0.017271509
-0.019542667
-0.021810073
-0.024074507
-0.026336638
-0.02859703
-0.030856164
-0.033114439
-0.035372186
-0.037629674
-0.039887118
-0.042144684
-0.044402496
-0.046660642
-0.048919174
-0.051178118
-0.053437472
-0.055697218
-0.057957315
-0.06021771
-0.062478339
-0.064739129
-0.067
-0.069260871
-0.071521661
-0.07378229
-0.076042685
-0.078302782
-0.080562528
-0.082821882
-0.085080826
-0.087339358
-0.089597504
-0.091855316
-0.094112882
-0.096370326
-0.098627814
-0.10088556
-0.10314384
-0.10540297
-0.10766336
-0.10992549
-0.11218993
-0.11445733
-0.11672849
-0.11900431
-0.12128585
-0.12357434
-0.12587119
-0.12817805
-0.13049683
-0.13282972
-0.0012068604
-0.0036078895
-0.0059852104
-0.0083419006
-0.010680639
-0.013003764
-0.015313316
-0.017611084
-0.019898632
-0.022177332
-0.024448386
-0.026712849
-0.028971642
-0.031225574
-0.033475351
-0.035721589
-0.037964824
-0.040205522
-0.042444088
-0.04468087
-0.046916171
-0.049150249
-0.051383326
-0.053615593
-0.055847214
-0.05807833
-0.060309063
-0.062539522
-0.064769805
-0.067
-0.069230195
-0.071460478
-0.073690937
-0.07592167
-0.078152786
-0.080384407
-0.082616674
-0.084849751
-0.087083829
-0.08931913
-0.091555912
-0.093794478
-0.096035176
-0.098278411
-0.10052465
-0.10277443
-0.10502836
-0.10728715
-0.10955161
-0.11182267
-0.11410137
-0.11638892
-0.11868668
-0.12099624
-0.12331936
-0.1256581
-0.12801479
-0.13039211
-0.13279314
-0.0012463692
-0.0037209856
-0.0061615359
-0.0085720404
-0.010956017
-0.013316551
-0.015656357
-0.017977828
-0.020283077
-0.022573974
-0.024852177
-0.027119158
-0.029376223
-0.031624536
-0.033865134
-0.036098941
-0.038326782
-0.040549395
-0.04276744
-0.04498151
-0.047192139
-0.049399806
-0.051604948
-0.05380796
-0.056009207
-0.058209024
-0.060407723
-0.062605599
-0.064802934
-0.067
-0.069197066
-0.071394401
-0.073592277
-0.075790976
-0.077990793
-0.08019204
-0.082395052
-0.084600194
-0.086807861
-0.08901849
-0.09123256
-0.093450605
-0.095673218
-0.097901059
-0.10013487
-0.10237546
-0.10462378
-0.10688084
-0.10914782
-0.11142603
-0.11371692
-0.11602217
-0.11834364
-0.12068345
-0.12304398
-0.12542796
-0.12783846
-0.13027901
-0.13275363
-0.0012890391
-0.0038431308
-0.0063519696
-0.0088205941
-0.011253427
-0.013654364
-0.016026844
-0.018373914
-0.020698279
-0.023002348
-0.025288271
-0.027557971
-0.029813169
-0.032055413
-0.034286098
-0.036506479
-0.038717694
-0.040920774
-0.043116656
-0.045306197
-0.047490179
-0.049669323
-0.051844294
-0.054015713
-0.056184156
-0.05835017
-0.060514272
-0.06267696
-0.064838712
-0.067
-0.069161288
-0.07132304
-0.073485728
-0.07564983
-0.077815844
-0.079984287
-0.082155706
-0.084330677
-0.086509821
-0.088693803
-0.090883344
-0.093079226
-0.095282306
-0.097493521
-0.099713902
-0.10194459
-0.10418683
-0.10644203
-0.10871173
-0.11099765
-0.11330172
-0.11562609
-0.11797316
-0.12034564
-0.12274657
-0.12517941
-0.12764803
-0.13015687
-0.13271096
-0.0013351231
-0.0039750491
-0.0065576403
-0.0090890351
-0.011574634
-0.014019206
-0.016426973
-0.01880169
-0.0211467
-0.023464994
-0.025759254
-0.028031889
-0.030285069
-0.032520758
-0.034740735
-0.036946616
-0.039139874
-0.041321858
-0.043493804
-0.045656853
-0.047812057
-0.049960395
-0.052102784
-0.05424008
-0.056373097
-0.058502604
-0.060629343
-0.062754027
-0.064877352
-0.067
-0.069122648
-0.071245973
-0.073370657
-0.075497396
-0.077626903
-0.07975992
-0.081897216
-0.084039605
-0.086187943
-0.088343147
-0.090506196
-0.092678142
-0.094860126
-0.097053384
-0.099259265
-0.10147924
-0.10371493
-0.10596811
-0.10824075
-0.11053501
-0.1128533
-0.11519831
-0.11757303
-0.11998079
-0.12242537
-0.12491096
-0.12744236
-0.13002495
-0.13266488
-0.0013848944
-0.0041175224
-0.0067797671
-0.0093789546
-0.011921541
-0.014413239
-0.016859117
-0.019263691
-0.021630998
-0.023964655
-0.026267917
-0.028543721
-0.030794721
-0.033023329
-0.03523174
-0.037421959
-0.039595824
-0.041755023
-0.043901118
-0.046035554
-0.048159677
-0.050274747
-0.052381945
-0.054482391
-0.056577147
-0.058667229
-0.060753616
-0.062837258
-0.064919082
-0.067
-0.069080918
-0.071162742
-0.073246384
-0.075332771
-0.077422853
-0.079517609
-0.081618055
-0.083725253
-0.085840323
-0.087964446
-0.090098882
-0.092244977
-0.094404176
-0.096578041
-0.09876826
-0.10097667
-0.10320528
-0.10545628
-0.10773208
-0.11003535
-0.112369
-0.11473631
-0.11714088
-0.11958676
-0.12207846
-0.12462105
-0.12722023
-0.12988248
-0.13261511
-0.0014386479
-0.0042713952
-0.0070196667
-0.0096920711
-0.012296205
-0.014838799
-0.017325837
-0.019762657
-0.022154043
-0.02450429
-0.026817275
-0.0290965
-0.031345144
-0.033566103
-0.035762022
-0.037935325
-0.040088243
-0.042222834
-0.044341008
-0.046444543
-0.048535099
-0.050614238
-0.052683432
-0.05474408
-0.056797515
-0.058845018
-0.060887827
-0.062927145
-0.064964149
-0.067
-0.069035851
-0.071072855
-0.073112173
-0.075154982
-0.077202485
-0.07925592
-0.081316568
-0.083385762
-0.085464901
-0.087555457
-0.089658992
-0.091777166
-0.093911757
-0.096064675
-0.098237978
-0.1004339
-0.10265486
-0.1049035
-0.10718273
-0.10949571
-0.11184596
-0.11423734
-0.11667416
-0.1191612
-0.12170379
-0.12430793
-0.12698033
-0.1297286
-0.13256135
-0.0014967022
-0.0044375795
-0.0072787612
-0.010030241
-0.012700847
-0.015298409
-0.017829899
-0.020301545
-0.022718935
-0.0250871
-0.027410582
-0.029693501
-0.031939599
-0.034152295
-0.036334722
-0.038489754
-0.040620047
-0.042728061
-0.04481608
-0.046886241
-0.048940545
-0.050980878
-0.053009028
-0.055026694
-0.057035504
-0.059037023
-0.061032769
-0.063024218
-0.065012819
-0.067
-0.068987181
-0.070975782
-0.072967231
-0.074962977
-0.076964496
-0.078973306
-0.080990972
-0.083019122
-0.085059455
-0.087113759
-0.08918392
-0.091271939
-0.093379953
-0.095510246
-0.097665278
-0.099847705
-0.1020604
-0.1043065
-0.10658942
-0.1089129
-0.11128106
-0.11369846
-0.1161701
-0.11870159
-0.12129915
-0.12396976
-0.12672124
-0.12956242
-0.1325033
-0.0015594014
-0.0046170603
-0.0075585862
-0.010395468
-0.013137865
-0.015794793
-0.018374291
-0.020883549
-0.023329024
-0.025716537
-0.028051356
-0.030338262
-0.032581608
-0.03478538
-0.036953231
-0.039088529
-0.041194387
-0.043273695
-0.045329147
-0.047363262
-0.049378413
-0.051376837
-0.053360659
-0.055331906
-0.057292522
-0.059244381
-0.0611893
-0.063129053
-0.06506538
-0.067
-0.06893462
-0.070870947
-0.0728107
-0.074755619
-0.076707478
-0.078668094
-0.080639341
-0.082623163
-0.084621587
-0.086636738
-0.088670853
-0.090726305
-0.092805613
-0.094911471
-0.097046769
-0.09921462
-0.10141839
-0.10366174
-0.10594864
-0.10828346
-0.11067098
-0.11311645
-0.11562571
-0.11820521
-0.12086214
-0.12360453
-0.12644141
-0.12938294
-0.1324406
-0.0016271171
-0.0048109015
-0.0078608004
-0.010789918
-0.013609849
-0.016330894
-0.018962241
-0.021512118
-0.023987924
-0.026396333
-0.028743394
-0.031034604
-0.033274976
-0.035469106
-0.037621215
-0.039735198
-0.041814664
-0.043862968
-0.045883244
-0.04787843
-0.049851294
-0.051804456
-0.053740405
-0.05566152
-0.057570088
-0.059468316
-0.061358345
-0.063242269
-0.065122144
-0.067
-0.068877856
-0.070757731
-0.072641655
-0.074531684
-0.076429912
-0.07833848
-0.080259595
-0.082195544
-0.084148706
-0.08612157
-0.088116756
-0.090137032
-0.092185336
-0.094264802
-0.096378785
-0.098530894
-0.10072502
-0.1029654
-0.10525661
-0.10760367
-0.11001208
-0.11248788
-0.11503776
-0.11766911
-0.12039015
-0.12321008
-0.1261392
-0.1291891
-0.13237288
-0.0017002507
-0.005020252
-0.0081871951
-0.011215929
-0.014119598
-0.016909889
-0.019597234
-0.02219098
-0.024699542
-0.027130517
-0.029490798
-0.031786654
-0.034023812
-0.036207526
-0.038342629
-0.040433589
-0.042484548
-0.044499366
-0.046481651
-0.048434792
-0.050361987
-0.052266265
-0.054150511
-0.056017486
-0.057869844
-0.059710151
-0.061540903
-0.063364535
-0.065183445
-0.067
-0.068816555
-0.070635465
-0.072459097
-0.074289849
-0.076130156
-0.077982514
-0.079849489
-0.081733735
-0.083638013
-0.085565208
-0.087518349
-0.089500634
-0.091515452
-0.093566411
-0.095657371
-0.097792474
-0.099976188
-0.10221335
-0.1045092
-0.10686948
-0.10930046
-0.11180902
-0.11440277
-0.11709011
-0.1198804
-0.12278407
-0.1258128
-0.12897975
-0.13229975
-0.13297506
-0.13304716
-0.13311362
-0.13317487
-0.13323132
-0.13328335
-0.1333313
-0.1333755
-0.13341623
-0.13345378
-0.13348838
-0.13352027
-0.13354966
-0.13357675
-0.13360172
-0.13362473
-0.13364594
-0.13366548
-0.1336835
-0.1337001
-0.1337154
-0.13372951
-0.13374251
-0.13375449
-0.13376553
-0.13377571
-0.13378509
-0.13379373
-0.1338017
-0.13380904
-0.13381581
-0.13382204
-0.13382779
-0.13383309
-0.13383797
-0.13384248
-0.13384662
-0.13385045
-0.13385397
-0.13385722
-0.13386021
-0.13386297
-0.13386551
-0.13386785
-0.13387001
-0.133872
-0.13387384
-0.13387553
-0.13387709
-0.13387852
-0.13387985
-0.13388106
-0.13388219
-0.13388323
-0.13388418
-0.13388506
-0.13388587
-0.13388662
-0.13388731
-0.13388794
-0.13388853
-0.13388907
-0.13388957
-0.13389002
-0.13389045
-0.13389084
-0.13389119
-0.13389152
-0.13389183
-0.13389211
-0.13389237
-0.13389261
-0.13389283
-0.13389303
-0.13091759
-0.13113321
-0.13133194
-0.1315151
-0.1316839
-0.13183949
-0.13198288
-0.13211505
-0.13223685
-0.13234912
-0.13245259
-0.13254795
-0.13263584
-0.13271685
-0.13279151
-0.13286032
-0.13292374
-0.13298219
-0.13303606
-0.13308571
-0.13313147
-0.13317364
-0.13321251
-0.13324834
-0.13328136
-0.13331179
-0.13333984
-0.13336569
-0.13338951
-0.13341147
-0.1334317
-0.13345035
-0.13346754
-0.13348339
-0.13349799
-0.13351145
-0.13352385
-0.13353528
-0.13354582
-0.13355553
-0.13356448
-0.13357272
-0.13358033
-0.13358733
-0.13359379
-0.13359974
-0.13360523
-0.13361028
-0.13361494
-0.13361924
-0.13362319
-0.13362684
-0.1336302
-0.1336333
-0.13363616
-0.13363879
-0.13364121
-0.13364345
-0.13364551
-0.13364741
-0.13364916
-0.13365077
-0.13365226
-0.13365363
-0.13365489
-0.13365606
-0.13365713
-0.13365812
-0.13365903
-0.13365987
-0.13366064
-0.13366136
-0.13366202
-0.13366262
-0.12884505
-0.12920259
-0.12953212
-0.12983583
-0.13011575
-0.13037374
-0.13061152
-0.13083067
-0.13103265
-0.13121881
-0.13139038
-0.13154851
-0.13169425
-0.13182857
-0.13195237
-0.13206647
-0.13217163
-0.13226855
-0.13235788
-0.13244021
-0.13251609
-0.13258602
-0.13265048
-0.13270988
-0.13276463
-0.13281509
-0.1328616
-0.13290446
-0.13294396
-0.13298037
-0.13301393
-0.13304486
-0.13307336
-0.13309963
-0.13312384
-0.13314616
-0.13316672
-0.13318568
-0.13320315
-0.13321925
-0.13323409
-0.13324776
-0.13326037
-0.13327199
-0.13328269
-0.13329256
-0.13330166
-0.13331004
-0.13331777
-0.13332489
-0.13333145
-0.1333375
-0.13334307
-0.13334821
-0.13335295
-0.13335731
-0.13336133
-0.13336504
-0.13336846
-0.13337161
-0.13337451
-0.13337718
-0.13337965
-0.13338192
-0.13338402
-0.13338595
-0.13338772
-0.13338936
-0.13339088
-0.13339227
-0.13339355
-0.13339473
-0.13339583
-0.13339683
-0.12675761
-0.12725505
-0.12771353
-0.12813608
-0.12852553
-0.12888447
-0.12921529
-0.12952019
-0.12980121
-0.1300602
-0.13029891
-0.13051892
-0.13072168
-0.13090857
-0.13108081
-0.13123955
-0.13138586
-0.1315207
-0.13164498
-0.13175953
-0.13186509
-0.13196239
-0.13205206
-0.13213471
-0.13221088
-0.13228109
-0.13234579
-0.13240542
-0.13246038
-0.13251104
-0.13255772
-0.13260075
-0.13264041
-0.13267696
-0.13271064
-0.13274169
-0.1327703
-0.13279667
-0.13282098
-0.13284338
-0.13286402
-0.13288305
-0.13290059
-0.13291675
-0.13293165
-0.13294538
-0.13295803
-0.13296969
-0.13298044
-0.13299035
-0.13299948
-0.1330079
-0.13301565
-0.1330228
-0.13302939
-0.13303546
-0.13304106
-0.13304621
-0.13305097
-0.13305535
-0.13305939
-0.13306311
-0.13306654
-0.1330697
-0.13307261
-0.1330753
-0.13307777
-0.13308006
-0.13308216
-0.1330841
-0.13308588
-0.13308753
-0.13308905
-0.13309044
-0.12465543
-0.12529029
-0.12587541
-0.12641469
-0.12691172
-0.12736981
-0.12779201
-0.12818113
-0.12853977
-0.12887031
-0.12917496
-0.12945573
-0.12971451
-0.12995301
-0.13017283
-0.13037542
-0.13056214
-0.13073424
-0.13089284
-0.13103902
-0.13117375
-0.13129792
-0.13141236
-0.13151784
-0.13161505
-0.13170464
-0.13178722
-0.13186332
-0.13193346
-0.13199811
-0.13205769
-0.1321126
-0.13216321
-0.13220985
-0.13225284
-0.13229247
-0.13232898
-0.13236264
-0.13239366
-0.13242224
-0.13244859
-0.13247288
-0.13249526
-0.13251589
-0.1325349
-0.13255242
-0.13256857
-0.13258345
-0.13259717
-0.13260981
-0.13262147
-0.13263221
-0.1326421
-0.13265123
-0.13265963
-0.13266738
-0.13267453
-0.13268111
-0.13268718
-0.13269277
-0.13269792
-0.13270267
-0.13270705
-0.13271108
-0.1327148
-0.13271823
-0.13272139
-0.1327243
-0.13272698
-0.13272946
-0.13273173
-0.13273384
-0.13273577
-0.13273756
-0.12253867
-0.12330791
-0.12401689
-0.12467032
-0.12527255
-0.12582761
-0.12633918
-0.12681067
-0.12724522
-0.12764573
-0.12801485
-0.12835506
-0.12866861
-0.12895759
-0.12922394
-0.12946941
-0.12969565
-0.12990417
-0.13009635
-0.13027347
-0.13043671
-0.13058716
-0.13072583
-0.13085362
-0.13097141
-0.13107997
-0.13118002
-0.13127223
-0.13135722
-0.13143554
-0.13150773
-0.13157427
-0.13163559
-0.1316921
-0.13174419
-0.1317922
-0.13183645
-0.13187722
-0.13191481
-0.13194945
-0.13198137
-0.1320108
-0.13203792
-0.13206291
-0.13208594
-0.13210718
-0.13212674
-0.13214478
-0.1321614
-0.13217672
-0.13219084
-0.13220385
-0.13221584
-0.1322269
-0.13223708
-0.13224647
-0.13225513
-0.1322631
-0.13227046
-0.13227723
-0.13228347
-0.13228923
-0.13229453
-0.13229942
-0.13230393
-0.13230808
-0.13231191
-0.13231544
-0.13231869
-0.13232168
-0.13232445
-0.13232699
-0.13232934
-0.1323315
-0.12040745
-0.12130745
-0.12213693
-0.12290143
-0.12360604
-0.12425544
-0.12485397
-0.1254056
-0.12591401
-0.12638259
-0.12681446
-0.12721249
-0.12757933
-0.12791744
-0.12822905
-0.12851625
-0.12878094
-0.1290249
-0.12924974
-0.12945696
-0.12964795
-0.12982397
-0.1299862
-0.13013572
-0.13027353
-0.13040053
-0.13051759
-0.13062547
-0.1307249
-0.13081654
-0.130901
-0.13097885
-0.13105059
-0.13111671
-0.13117765
-0.13123382
-0.13128558
-0.13133329
-0.13137727
-0.13141779
-0.13145514
-0.13148957
-0.1315213
-0.13155054
-0.13157749
-0.13160233
-0.13162522
-0.13164632
-0.13166577
-0.13168369
-0.13170021
-0.13171544
-0.13172947
-0.1317424
-0.13175432
-0.13176531
-0.13177543
-0.13178476
-0.13179336
-0.13180129
-0.1318086
-0.13181533
-0.13182154
-0.13182726
-0.13183253
-0.13183739
-0.13184186
-0.13184599
-0.1318498
-0.1318533
-0.13185653
-0.13185951
-0.13186226
-0.13186479
-0.11826187
-0.11928833
-0.12023437
-0.1211063
-0.12190991
-0.12265056
-0.12333319
-0.12396233
-0.12454217
-0.12507659
-0.12556914
-0.12602309
-0.12644148
-0.12682709
-0.12718248
-0.12751003
-0.12781191
-0.12809014
-0.12834657
-0.12858291
-0.12880073
-0.12900148
-0.12918651
-0.12935703
-0.1295142
-0.12965905
-0.12979255
-0.12991559
-0.13002899
-0.13013351
-0.13022983
-0.13031861
-0.13040044
-0.13047585
-0.13054535
-0.13060941
-0.13066845
-0.13072286
-0.13077301
-0.13081923
-0.13086183
-0.1309011
-0.13093728
-0.13097063
-0.13100137
-0.1310297
-0.13105581
-0.13107988
-0.13110205
-0.1311225
-0.13114134
-0.1311587
-0.1311747
-0.13118945
-0.13120305
-0.13121558
-0.13122713
-0.13123777
-0.13124758
-0.13125662
-0.13126495
-0.13127263
-0.13127971
-0.13128623
-0.13129225
-0.13129779
-0.13130289
-0.1313076
-0.13131194
-0.13131594
-0.13131962
-0.13132302
-0.13132615
-0.13132904
-0.11610201
-0.1172499
-0.11830787
-0.11928294
-0.12018162
-0.12100989
-0.12177326
-0.12247683
-0.12312527
-0.12372291
-0.12427372
-0.12478137
-0.12524925
-0.12568047
-0.1260779
-0.12644419
-0.12678178
-0.12709292
-0.12737969
-0.12764398
-0.12788756
-0.12811206
-0.12831897
-0.12850967
-0.12868542
-0.12884741
-0.1289967
-0.1291343
-0.12926111
-0.12937799
-0.12948571
-0.12958499
-0.12967649
-0.12976082
-0.12983855
-0.12991019
-0.12997621
-0.13003706
-0.13009314
-0.13014483
-0.13019247
-0.13023638
-0.13027684
-0.13031414
-0.13034851
-0.1303802
-0.1304094
-0.13043631
-0.13046111
-0.13048397
-0.13050504
-0.13052446
-0.13054236
-0.13055885
-0.13057405
-0.13058806
-0.13060098
-0.13061288
-0.13062385
-0.13063396
-0.13064328
-0.13065187
-0.13065978
-0.13066708
-0.1306738
-0.13068
-0.13068571
-0.13069098
-0.13069583
-0.1307003
-0.13070442
-0.13070822
-0.13071172
-0.13071495
-0.11392792
-0.11519141
-0.1163559
-0.11742916
-0.11841834
-0.11933001
-0.12017025
-0.12094466
-0.12165839
-0.1223162
-0.12292247
-0.12348124
-0.12399622
-0.12447086
-0.12490831
-0.12531148
-0.12568306
-0.12602553
-0.12634116
-0.12663206
-0.12690017
-0.12714727
-0.12737501