/*--------------------------------*- C++ -*----------------------------------*\
| =========                 |                                                 |
| \\      /  F ield         | OpenFOAM: The Open Source CFD Toolbox           |
|  \\    /   O peration     | Version:  v2006                                 |
|   \\  /    A nd           | Website:  www.openfoam.com                      |
|    \\/     M anipulation  |                                                 |
\*---------------------------------------------------------------------------*/
FoamFile
{
    version     2.0;
    format      ascii;
    class       volScalarField;
    location    "1000";
    object      k;
}
// * * * * * * * * * * * * * * * * * * * * * * * * * * * * * * * * * * * * * //

dimensions      [0 2 -2 0 0 0 0];


internalField   nonuniform List<scalar> 
55713
(
1.8627549e-09
4.0649506e-09
1.3282045e-08
2.074955e-08
2.4157884e-08
2.509609e-08
2.5110685e-08
2.4960848e-08
2.486622e-08
2.4833288e-08
2.4828875e-08
2.4831245e-08
2.4833224e-08
2.4834122e-08
2.4834418e-08
2.4834494e-08
2.4834414e-08
2.4834225e-08
2.4833982e-08
2.483379e-08
2.4833701e-08
2.4833629e-08
2.4833487e-08
2.4833302e-08
2.4833138e-08
2.4833004e-08
2.4832865e-08
2.4832706e-08
2.4832512e-08
2.4832272e-08
2.4832011e-08
2.4831733e-08
2.4831449e-08
2.4831185e-08
2.4831014e-08
2.4830997e-08
2.4830645e-08
2.4830127e-08
2.4829534e-08
2.4828946e-08
2.482842e-08
2.4827907e-08
2.4827274e-08
2.4826501e-08
2.482569e-08
2.4824902e-08
2.4824126e-08
2.4823366e-08
2.4822626e-08
2.4821889e-08
2.4821127e-08
2.4820321e-08
2.4819475e-08
2.4818616e-08
2.4817752e-08
2.48169e-08
2.4816089e-08
2.481532e-08
2.4814559e-08
2.0015443e-09
5.3980715e-09
1.5772819e-08
2.2998638e-08
2.5846324e-08
2.6441126e-08
2.6348206e-08
2.6199276e-08
2.6126083e-08
2.6105958e-08
2.6105239e-08
2.6107155e-08
2.6107953e-08
2.6107981e-08
2.6107643e-08
2.6107112e-08
2.6106416e-08
2.6105623e-08
2.61048e-08
2.6104066e-08
2.6103462e-08
2.6102871e-08
2.6102213e-08
2.6101527e-08
2.6100877e-08
2.6100262e-08
2.6099647e-08
2.6099012e-08
2.6098349e-08
2.609764e-08
2.609691e-08
2.6096158e-08
2.6095395e-08
2.6094651e-08
2.6093998e-08
2.6093564e-08
2.6092774e-08
2.6091748e-08
2.6090623e-08
2.6089496e-08
2.6088445e-08
2.608743e-08
2.6086283e-08
2.6084947e-08
2.6083538e-08
2.6082133e-08
2.6080716e-08
2.607929e-08
2.6077866e-08
2.6076421e-08
2.6074919e-08
2.6073331e-08
2.6071644e-08
2.6069884e-08
2.6068053e-08
2.6066149e-08
2.6064185e-08
2.6062153e-08
2.6060036e-08
2.2338291e-09
7.0341688e-09
1.8400809e-08
2.5244772e-08
2.7535874e-08
2.7853387e-08
2.7698357e-08
2.7564632e-08
2.7511954e-08
2.7501129e-08
2.7501977e-08
2.7502871e-08
2.7502508e-08
2.7501672e-08
2.7500745e-08
2.7499586e-08
2.7498231e-08
2.7496808e-08
2.7495385e-08
2.7494093e-08
2.7492954e-08
2.7491825e-08
2.749063e-08
2.7489428e-08
2.7488275e-08
2.7487165e-08
2.7486056e-08
2.7484932e-08
2.7483784e-08
2.7482591e-08
2.7481377e-08
2.748014e-08
2.7478888e-08
2.7477651e-08
2.7476497e-08
2.7475625e-08
2.7474429e-08
2.7472885e-08
2.7471211e-08
2.7469525e-08
2.7467933e-08
2.7466411e-08
2.7464756e-08
2.7462856e-08
2.7460838e-08
2.7458809e-08
2.7456744e-08
2.7454644e-08
2.7452531e-08
2.7450374e-08
2.7448133e-08
2.7445766e-08
2.7443241e-08
2.7440579e-08
2.7437786e-08
2.7434837e-08
2.7431729e-08
2.7428443e-08
2.7424964e-08
2.5889086e-09
9.0965294e-09
2.127124e-08
2.7541849e-08
2.9276473e-08
2.9372096e-08
2.9189917e-08
2.9080391e-08
2.9045967e-08
2.9041267e-08
2.9042096e-08
2.9041548e-08
2.9040011e-08
2.9038623e-08
2.9037107e-08
2.9035246e-08
2.903321e-08
2.9031151e-08
2.902912e-08
2.9027265e-08
2.9025585e-08
2.9023907e-08
2.9022171e-08
2.9020446e-08
2.9018787e-08
2.9017175e-08
2.9015567e-08
2.9013949e-08
2.9012311e-08
2.9010634e-08
2.9008934e-08
2.9007208e-08
2.9005463e-08
2.9003724e-08
2.9002061e-08
2.9000732e-08
2.8999177e-08
2.8997114e-08
2.8994883e-08
2.8992623e-08
2.8990473e-08
2.8988442e-08
2.8986295e-08
2.8983841e-08
2.8981209e-08
2.897855e-08
2.8975832e-08
2.8973053e-08
2.8970247e-08
2.8967377e-08
2.8964394e-08
2.8961249e-08
2.8957887e-08
2.8954318e-08
2.8950556e-08
2.894656e-08
2.8942296e-08
2.8937748e-08
2.8932894e-08
3.1061067e-09
1.1649347e-08
2.4348566e-08
2.9875837e-08
3.1092613e-08
3.1030028e-08
3.08502e-08
3.0768341e-08
3.0748063e-08
3.0746518e-08
3.0746192e-08
3.0744002e-08
3.0741739e-08
3.0739873e-08
3.0737662e-08
3.0735049e-08
3.0732331e-08
3.0729638e-08
3.0726998e-08
3.0724584e-08
3.0722364e-08
3.0720127e-08
3.0717843e-08
3.0715593e-08
3.0713424e-08
3.0711311e-08
3.0709206e-08
3.0707095e-08
3.070497e-08
3.0702812e-08
3.0700628e-08
3.069842e-08
3.0696187e-08
3.069395e-08
3.0691783e-08
3.068998e-08
3.0688099e-08
3.0685547e-08
3.0682763e-08
3.067992e-08
3.06772e-08
3.0674663e-08
3.0672059e-08
3.0669082e-08
3.0665843e-08
3.0662555e-08
3.0659197e-08
3.065575e-08
3.0652268e-08
3.0648699e-08
3.0644992e-08
3.0641094e-08
3.0636922e-08
3.0632464e-08
3.0627754e-08
3.0622739e-08
3.0617344e-08
3.0611564e-08
3.0605359e-08
3.8463272e-09
1.4759169e-08
2.7605226e-08
3.2264857e-08
3.302741e-08
3.2867001e-08
3.2710156e-08
3.2654654e-08
3.2644045e-08
3.2643072e-08
3.2640948e-08
3.2637564e-08
3.2634818e-08
3.2632446e-08
3.2629431e-08
3.2626056e-08
3.262268e-08
3.2619362e-08
3.261612e-08
3.261317e-08
3.2610419e-08
3.2607628e-08
3.2604804e-08
3.2602038e-08
3.2599369e-08
3.2596763e-08
3.2594169e-08
3.2591576e-08
3.2588975e-08
3.2586352e-08
3.25837e-08
3.2581025e-08
3.2578322e-08
3.2575605e-08
3.2572945e-08
3.2570666e-08
3.2568495e-08
3.2565521e-08
3.2562199e-08
3.2558776e-08
3.2555481e-08
3.2552441e-08
3.2549436e-08
3.2545991e-08
3.2542175e-08
3.2538269e-08
3.2534295e-08
3.2530205e-08
3.252608e-08
3.2521846e-08
3.2517451e-08
3.2512846e-08
3.2507914e-08
3.2502611e-08
3.2496992e-08
3.2491015e-08
3.2484543e-08
3.247759e-08
3.2470086e-08
4.9035403e-09
1.8486408e-08
3.0978288e-08
3.474834e-08
3.5130069e-08
3.4926397e-08
3.4804428e-08
3.4770519e-08
3.4765303e-08
3.4763073e-08
3.4759372e-08
3.4755082e-08
3.475204e-08
3.4749071e-08
3.4745156e-08
3.4741068e-08
3.4737081e-08
3.4733148e-08
3.4729321e-08
3.4725885e-08
3.4722628e-08
3.47193e-08
3.4715961e-08
3.4712702e-08
3.470956e-08
3.4706485e-08
3.4703428e-08
3.470038e-08
3.4697329e-08
3.4694268e-08
3.4691177e-08
3.4688068e-08
3.468493e-08
3.4681769e-08
3.4678647e-08
3.4675902e-08
3.4673478e-08
3.4670207e-08
3.466638e-08
3.4662398e-08
3.465854e-08
3.4655006e-08
3.4651672e-08
3.4647852e-08
3.464352e-08
3.4639026e-08
3.4634481e-08
3.4629799e-08
3.4625092e-08
3.4620261e-08
3.4615244e-08
3.4610009e-08
3.4604408e-08
3.4598346e-08
3.4591891e-08
3.4585057e-08
3.4577603e-08
3.4569588e-08
3.4560892e-08
6.4398419e-09
2.287729e-08
3.4624039e-08
3.7386075e-08
3.7458245e-08
3.7257982e-08
3.7173442e-08
3.7154558e-08
3.7151205e-08
3.7147009e-08
3.7142164e-08
3.7137207e-08
3.7134032e-08
3.7130297e-08
3.7125465e-08
3.7120788e-08
3.7116239e-08
3.7111712e-08
3.7107349e-08
3.7103509e-08
3.7099788e-08
3.7095961e-08
3.7092154e-08
3.708845e-08
3.7084881e-08
3.7081385e-08
3.7077913e-08
3.7074459e-08
3.7071009e-08
3.7067561e-08
3.7064086e-08
3.7060598e-08
3.7057083e-08
3.7053538e-08
3.7050013e-08
3.7046837e-08
3.7044188e-08
3.7040822e-08
3.7036555e-08
3.7032059e-08
3.7027674e-08
3.7023676e-08
3.7020083e-08
3.7016046e-08
3.7011309e-08
3.7006294e-08
3.7001259e-08
3.6996064e-08
3.6990881e-08
3.6985562e-08
3.6980033e-08
3.6974292e-08
3.6968164e-08
3.696149e-08
3.6954321e-08
3.6946795e-08
3.6938526e-08
3.6929629e-08
3.691992e-08
8.7931914e-09
2.7949798e-08
3.8325915e-08
4.0178237e-08
4.0082463e-08
3.9918525e-08
3.9865767e-08
3.9855657e-08
3.9851601e-08
3.9845643e-08
3.9840181e-08
3.9834734e-08
3.9831548e-08
3.9826827e-08
3.9821216e-08
3.981614e-08
3.981108e-08
3.9806009e-08
3.9801209e-08
3.9797092e-08
3.9792966e-08
3.978871e-08
3.9784512e-08
3.9780443e-08
3.9776527e-08
3.977269e-08
3.9768885e-08
3.9765108e-08
3.9761343e-08
3.9757591e-08
3.9753822e-08
3.9750046e-08
3.9746247e-08
3.9742418e-08
3.9738588e-08
3.973506e-08
3.9732226e-08
3.9728998e-08
3.9724455e-08
3.9719522e-08
3.9714679e-08
3.9710291e-08
3.9706507e-08
3.970249e-08
3.9697528e-08
3.9692117e-08
3.9686736e-08
3.9681146e-08
3.9675647e-08
3.9670019e-08
3.9664148e-08
3.9658089e-08
3.9651646e-08
3.9644603e-08
3.9636914e-08
3.9628951e-08
3.9620135e-08
3.9610632e-08
3.9600203e-08
1.2728859e-08
3.366954e-08
4.2184868e-08
4.3257879e-08
4.3088099e-08
4.2971871e-08
4.2942273e-08
4.2936172e-08
4.2930397e-08
4.2923243e-08
4.2917629e-08
4.2911841e-08
4.2908697e-08
4.2902861e-08
4.2896763e-08
4.2891537e-08
4.2886046e-08
4.2880536e-08
4.2875472e-08
4.2871251e-08
4.2866813e-08
4.2862242e-08
4.2857776e-08
4.2853473e-08
4.2849339e-08
4.2845288e-08
4.2841278e-08
4.283731e-08
4.2833365e-08
4.2829443e-08
4.2825517e-08
4.2821597e-08
4.2817663e-08
4.2813702e-08
4.2809724e-08
4.2805988e-08
4.280305e-08
4.2800191e-08
4.2795715e-08
4.2790469e-08
4.2785274e-08
4.2780634e-08
4.2776777e-08
4.2773039e-08
4.2768177e-08
4.2762554e-08
4.2757087e-08
4.2751275e-08
4.2745702e-08
4.2740046e-08
4.2734094e-08
4.2727997e-08
4.2721547e-08
4.2714513e-08
4.2706622e-08
4.2698586e-08
4.2689653e-08
4.2679952e-08
4.266926e-08
1.8989176e-08
3.9923622e-08
4.6234471e-08
4.6729921e-08
4.6566685e-08
4.6497427e-08
4.6481851e-08
4.647655e-08
4.6469161e-08
4.6461574e-08
4.645628e-08
4.6450292e-08
4.6447179e-08
4.6440294e-08
4.6434211e-08
4.6429162e-08
4.6423373e-08
4.6417601e-08
4.6412558e-08
4.640847e-08
4.6403869e-08
4.639915e-08
4.6394618e-08
4.6390297e-08
4.6386143e-08
4.6382077e-08
4.6378064e-08
4.6374109e-08
4.637019e-08
4.6366309e-08
4.6362438e-08
4.6358591e-08
4.6354747e-08
4.6350891e-08
4.6347006e-08
4.6343298e-08
4.6340396e-08
4.6338125e-08
4.6334324e-08
4.6328966e-08
4.6323573e-08
4.6318912e-08
4.6315189e-08
4.6311997e-08
4.6307789e-08
4.6302186e-08
4.629709e-08
4.6291304e-08
4.6286011e-08
4.6280769e-08
4.6275128e-08
4.626941e-08
4.6263398e-08
4.6256919e-08
4.624937e-08
4.6241757e-08
4.6233392e-08
4.6224069e-08
4.6213813e-08
2.7327812e-08
4.6585228e-08
5.0595173e-08
5.0738502e-08
5.062789e-08
5.059435e-08
5.0585496e-08
5.0579794e-08
5.05717e-08
5.0564493e-08
5.0560146e-08
5.0554072e-08
5.0551088e-08
5.0543362e-08
5.0538087e-08
5.0533727e-08
5.0527832e-08
5.05221e-08
5.0517528e-08
5.051391e-08
5.0509372e-08
5.0504788e-08
5.0500527e-08
5.0496512e-08
5.0492646e-08
5.0488874e-08
5.0485171e-08
5.0481542e-08
5.0477965e-08
5.0474446e-08
5.0470955e-08
5.046751e-08
5.0464087e-08
5.0460686e-08
5.0457261e-08
5.0453948e-08
5.0451363e-08
5.0449865e-08
5.0447573e-08
5.0442498e-08
5.0437192e-08
5.0432865e-08
5.0429596e-08
5.0427215e-08
5.042451e-08
5.0419214e-08
5.0415239e-08
5.040983e-08
5.0405333e-08
5.0401149e-08
5.0396411e-08
5.0391658e-08
5.038673e-08
5.0381516e-08
5.0375241e-08
5.0368678e-08
5.0361939e-08
5.0353778e-08
5.0344996e-08
3.9051802e-08
5.3569284e-08
5.5455234e-08
5.5444625e-08
5.539554e-08
5.5383133e-08
5.5377064e-08
5.5371048e-08
5.5364258e-08
5.5358394e-08
5.5355725e-08
5.5349952e-08
5.5347187e-08
5.5339729e-08
5.5335927e-08
5.533316e-08
5.5327345e-08
5.5322296e-08
5.531881e-08
5.5316183e-08
5.5312055e-08
5.5308164e-08
5.5304711e-08
5.5301495e-08
5.5298394e-08
5.5295396e-08
5.529248e-08
5.5289655e-08
5.5286897e-08
5.5284219e-08
5.5281595e-08
5.5279044e-08
5.5276538e-08
5.5274086e-08
5.5271655e-08
5.5269314e-08
5.5267571e-08
5.5267054e-08
5.526683e-08
5.5262908e-08
5.5258358e-08
5.5254961e-08
5.5252532e-08
5.525138e-08
5.5250849e-08
5.5246513e-08
5.5244729e-08
5.5240256e-08
5.5237324e-08
5.5234915e-08
5.5231978e-08
5.5228959e-08
5.5226035e-08
5.5222929e-08
5.5219174e-08
5.5214564e-08
5.5210774e-08
5.5205049e-08
5.5199162e-08
5.4393718e-08
6.0646148e-08
6.1024598e-08
6.0994311e-08
6.0985194e-08
6.0980836e-08
6.0977842e-08
6.0973797e-08
6.0969642e-08
6.0966082e-08
6.0965386e-08
6.0960993e-08
6.0959453e-08
6.0954362e-08
6.0951909e-08
6.0951886e-08
6.0947299e-08
6.0944314e-08
6.0942557e-08
6.094142e-08
6.093861e-08
6.0936416e-08
6.0934585e-08
6.0932904e-08
6.0931312e-08
6.092982e-08
6.0928412e-08
6.0927098e-08
6.0925863e-08
6.0924719e-08
6.0923652e-08
6.0922677e-08
6.0921771e-08
6.0920946e-08
6.0920182e-08
6.0919504e-08
6.0919204e-08
6.0919781e-08
6.0921505e-08
6.0920139e-08
6.0917826e-08
6.0916304e-08
6.0915564e-08
6.0916235e-08
6.091725e-08
6.091591e-08
6.0916946e-08
6.0915003e-08
6.0914713e-08
6.091481e-08
6.0914713e-08
6.091451e-08
6.0914581e-08
6.0914561e-08
6.0914457e-08
6.0913558e-08
6.091371e-08
6.0912508e-08
6.091147e-08
1.5314061e-08
1.5313209e-08
1.5312602e-08
1.5313175e-08
1.531345e-08
1.5313847e-08
1.5314224e-08
1.5314622e-08
1.5315031e-08
1.5315443e-08
1.5315854e-08
1.5316262e-08
1.5316668e-08
1.5317075e-08
1.5317483e-08
1.5317892e-08
1.5318297e-08
1.5318694e-08
1.531908e-08
1.5319449e-08
1.5319796e-08
1.5320112e-08
1.532038e-08
1.5320582e-08
1.5320714e-08
1.532079e-08
1.5320831e-08
1.5320861e-08
1.5320887e-08
1.5320898e-08
1.5320879e-08
1.5320822e-08
1.5320728e-08
1.5320604e-08
1.5320449e-08
1.532026e-08
1.5320037e-08
1.5319792e-08
1.5319549e-08
1.5319316e-08
1.5319012e-08
1.5318399e-08
1.531721e-08
1.5315849e-08
1.5316858e-08
1.5326492e-08
1.5353941e-08
1.5403881e-08
1.5458042e-08
1.5445927e-08
1.5214373e-08
1.4517776e-08
1.3060799e-08
1.0631149e-08
7.3373799e-09
3.8860673e-09
1.7758004e-09
1.9246209e-09
1.3126683e-08
1.557689e-08
1.5576135e-08
1.5575977e-08
1.5576433e-08
1.5576781e-08
1.5577171e-08
1.5577566e-08
1.5577975e-08
1.5578394e-08
1.5578814e-08
1.5579231e-08
1.5579644e-08
1.5580054e-08
1.5580464e-08
1.5580876e-08
1.5581289e-08
1.5581699e-08
1.5582103e-08
1.5582495e-08
1.5582869e-08
1.5583217e-08
1.5583533e-08
1.55838e-08
1.5584001e-08
1.5584133e-08
1.5584205e-08
1.5584244e-08
1.5584272e-08
1.5584295e-08
1.5584302e-08
1.5584279e-08
1.5584217e-08
1.5584119e-08
1.5583991e-08
1.5583833e-08
1.5583643e-08
1.5583421e-08
1.5583182e-08
1.5582942e-08
1.5582696e-08
1.5582359e-08
1.558172e-08
1.5580581e-08
1.5579383e-08
1.5580505e-08
1.5589716e-08
1.5615667e-08
1.5663498e-08
1.5718091e-08
1.5715905e-08
1.5512937e-08
1.4868836e-08
1.3479742e-08
1.110092e-08
7.7903753e-09
4.2090843e-09
1.8345434e-09
1.7081908e-09
1.1138711e-08
1.5869916e-08
1.5869226e-08
1.5869238e-08
1.5869662e-08
1.587004e-08
1.5870438e-08
1.5870847e-08
1.5871269e-08
1.5871698e-08
1.5872128e-08
1.5872553e-08
1.5872973e-08
1.5873388e-08
1.5873803e-08
1.5874219e-08
1.5874637e-08
1.5875054e-08
1.5875465e-08
1.5875863e-08
1.5876239e-08
1.5876587e-08
1.5876903e-08
1.5877171e-08
1.5877374e-08
1.5877507e-08
1.5877579e-08
1.5877616e-08
1.5877644e-08
1.5877667e-08
1.5877675e-08
1.5877652e-08
1.5877592e-08
1.5877496e-08
1.587737e-08
1.5877217e-08
1.5877032e-08
1.5876815e-08
1.5876578e-08
1.5876338e-08
1.5876103e-08
1.5875811e-08
1.5875273e-08
1.5874217e-08
1.5872784e-08
1.5872741e-08
1.5879163e-08
1.5900855e-08
1.5945673e-08
1.6005653e-08
1.6029107e-08
1.5884823e-08
1.5336857e-08
1.4063682e-08
1.1769413e-08
8.4364844e-09
4.672838e-09
1.939744e-09
1.5233809e-09
9.3124694e-09
1.6197618e-08
1.6197031e-08
1.6197209e-08
1.6197611e-08
1.6198016e-08
1.6198422e-08
1.6198844e-08
1.6199277e-08
1.6199716e-08
1.6200154e-08
1.6200586e-08
1.6201011e-08
1.620143e-08
1.6201849e-08
1.6202269e-08
1.6202692e-08
1.6203114e-08
1.6203532e-08
1.6203935e-08
1.6204312e-08
1.620466e-08
1.6204974e-08
1.6205242e-08
1.6205445e-08
1.6205577e-08
1.6205646e-08
1.6205682e-08
1.6205709e-08
1.6205732e-08
1.6205739e-08
1.6205716e-08
1.6205656e-08
1.620556e-08
1.6205436e-08
1.6205286e-08
1.6205105e-08
1.6204894e-08
1.620466e-08
1.6204422e-08
1.6204187e-08
1.6203914e-08
1.6203442e-08
1.6202499e-08
1.620106e-08
1.6200403e-08
1.6204823e-08
1.6222678e-08
1.6263309e-08
1.6324426e-08
1.6365557e-08
1.6269923e-08
1.5810664e-08
1.4655126e-08
1.2459877e-08
9.124633e-09
5.1887207e-09
2.0994221e-09
1.3864528e-09
7.8238295e-09
1.6565319e-08
1.6564873e-08
1.6565167e-08
1.6565562e-08
1.6565983e-08
1.65664e-08
1.6566834e-08
1.6567278e-08
1.6567726e-08
1.656817e-08
1.6568606e-08
1.6569035e-08
1.6569458e-08
1.6569879e-08
1.6570302e-08
1.6570729e-08
1.6571158e-08
1.6571581e-08
1.6571987e-08
1.6572363e-08
1.6572709e-08
1.6573022e-08
1.6573288e-08
1.657349e-08
1.657362e-08
1.6573686e-08
1.6573718e-08
1.6573745e-08
1.6573768e-08
1.6573775e-08
1.6573753e-08
1.6573693e-08
1.6573599e-08
1.6573477e-08
1.6573331e-08
1.6573156e-08
1.6572951e-08
1.6572722e-08
1.6572485e-08
1.6572253e-08
1.6572e-08
1.6571595e-08
1.6570772e-08
1.6569359e-08
1.6568163e-08
1.6570653e-08
1.658454e-08
1.6620244e-08
1.6680772e-08
1.673715e-08
1.668883e-08
1.632162e-08
1.5295749e-08
1.3220643e-08
9.9018053e-09
5.7890358e-09
2.325294e-09
1.28792e-09
6.5233338e-09
1.6979493e-08
1.6979238e-08
1.6979607e-08
1.6980006e-08
1.6980437e-08
1.6980866e-08
1.698131e-08
1.6981762e-08
1.6982216e-08
1.6982664e-08
1.6983104e-08
1.6983533e-08
1.6983957e-08
1.698438e-08
1.6984806e-08
1.6985236e-08
1.6985669e-08
1.6986097e-08
1.6986503e-08
1.6986877e-08
1.6987219e-08
1.6987528e-08
1.6987791e-08
1.6987992e-08
1.6988118e-08
1.6988177e-08
1.6988205e-08
1.6988231e-08
1.6988255e-08
1.6988263e-08
1.6988241e-08
1.6988182e-08
1.698809e-08
1.6987971e-08
1.6987829e-08
1.6987662e-08
1.6987463e-08
1.698724e-08
1.6987007e-08
1.6986778e-08
1.6986538e-08
1.6986192e-08
1.6985496e-08
1.6984189e-08
1.698267e-08
1.6983557e-08
1.6993629e-08
1.7023703e-08
1.7081176e-08
1.7148243e-08
1.7142122e-08
1.6865604e-08
1.5977951e-08
1.4045361e-08
1.0769573e-08
6.4808394e-09
2.6220748e-09
1.2333624e-09
5.4525342e-09
1.7448082e-08
1.7448017e-08
1.7448426e-08
1.7448837e-08
1.7449275e-08
1.7449714e-08
1.7450166e-08
1.7450624e-08
1.7451082e-08
1.7451531e-08
1.745197e-08
1.7452398e-08
1.7452821e-08
1.7453243e-08
1.7453669e-08
1.7454101e-08
1.7454538e-08
1.7454967e-08
1.7455371e-08
1.7455738e-08
1.7456073e-08
1.7456377e-08
1.7456636e-08
1.7456832e-08
1.7456952e-08
1.7457002e-08
1.7457024e-08
1.7457049e-08
1.7457074e-08
1.7457083e-08
1.7457062e-08
1.7457005e-08
1.7456914e-08
1.7456799e-08
1.7456663e-08
1.7456504e-08
1.7456314e-08
1.7456099e-08
1.7455873e-08
1.7455648e-08
1.7455421e-08
1.7455123e-08
1.7454552e-08
1.74534e-08
1.7451734e-08
1.7451351e-08
1.7457894e-08
1.7481937e-08
1.7534239e-08
1.7607458e-08
1.7637662e-08
1.744897e-08
1.6706833e-08
1.4940378e-08
1.1741509e-08
7.2875038e-09
2.9981179e-09
1.2192731e-09
4.5573449e-09
1.7980868e-08
1.7980946e-08
1.7981376e-08
1.79818e-08
1.7982242e-08
1.7982688e-08
1.7983145e-08
1.7983606e-08
1.7984063e-08
1.7984509e-08
1.7984942e-08
1.7985365e-08
1.7985782e-08
1.79862e-08
1.7986623e-08
1.7987055e-08
1.7987491e-08
1.7987919e-08
1.7988315e-08
1.7988671e-08
1.7988996e-08
1.7989291e-08
1.7989544e-08
1.7989734e-08
1.7989843e-08
1.798988e-08
1.7989895e-08
1.7989918e-08
1.7989944e-08
1.7989953e-08
1.7989934e-08
1.7989879e-08
1.7989791e-08
1.798968e-08
1.7989552e-08
1.7989403e-08
1.7989225e-08
1.7989021e-08
1.7988804e-08
1.7988589e-08
1.7988374e-08
1.7988116e-08
1.7987661e-08
1.79867e-08
1.7985057e-08
1.7983782e-08
1.7987248e-08
1.8005155e-08
1.8050411e-08
1.8124933e-08
1.8184096e-08
1.8077557e-08
1.7485604e-08
1.5908667e-08
1.2827985e-08
8.2362389e-09
3.4796901e-09
1.2505703e-09
3.8142757e-09
1.8589997e-08
1.8590167e-08
1.8590607e-08
1.859104e-08
1.8591484e-08
1.8591932e-08
1.8592389e-08
1.8592846e-08
1.8593296e-08
1.8593733e-08
1.8594154e-08
1.8594564e-08
1.859497e-08
1.8595379e-08
1.8595794e-08
1.859622e-08
1.8596653e-08
1.8597072e-08
1.8597453e-08
1.8597791e-08
1.8598101e-08
1.8598385e-08
1.8598628e-08
1.8598808e-08
1.8598902e-08
1.8598919e-08
1.8598924e-08
1.8598946e-08
1.8598972e-08
1.8598983e-08
1.8598966e-08
1.8598913e-08
1.8598829e-08
1.8598725e-08
1.8598607e-08
1.8598472e-08
1.8598309e-08
1.859812e-08
1.8597918e-08
1.8597717e-08
1.8597519e-08
1.8597296e-08
1.859694e-08
1.8596184e-08
1.8594705e-08
1.8592925e-08
1.8593908e-08
1.8605944e-08
1.8642765e-08
1.8713853e-08
1.8793494e-08
1.8760484e-08
1.8319219e-08
1.6954112e-08
1.403919e-08
9.3502195e-09
4.0955634e-09
1.3303875e-09
3.2034398e-09
1.9290771e-08
1.9291006e-08
1.9291448e-08
1.9291883e-08
1.9292323e-08
1.9292768e-08
1.9293217e-08
1.9293663e-08
1.9294097e-08
1.9294515e-08
1.9294915e-08
1.9295303e-08
1.9295688e-08
1.9296079e-08
1.929648e-08
1.9296893e-08
1.9297314e-08
1.9297715e-08
1.929807e-08
1.9298383e-08
1.9298672e-08
1.9298939e-08
1.9299166e-08
1.9299331e-08
1.9299401e-08
1.9299392e-08
1.9299382e-08
1.9299404e-08
1.929943e-08
1.9299442e-08
1.9299428e-08
1.929938e-08
1.9299302e-08
1.9299205e-08
1.9299101e-08
1.9298984e-08
1.9298843e-08
1.9298674e-08
1.9298493e-08
1.9298317e-08
1.9298144e-08
1.9297955e-08
1.9297683e-08
1.9297125e-08
1.9295912e-08
1.9293989e-08
1.9293191e-08
1.9299999e-08
1.9327643e-08
1.9390988e-08
1.9481797e-08
1.951064e-08
1.9215784e-08
1.8081143e-08
1.5385137e-08
1.0657378e-08
4.8759234e-09
1.4669798e-09
2.7091225e-09
2.0102774e-08
2.0103046e-08
2.0103484e-08
2.0103913e-08
2.0104341e-08
2.0104772e-08
2.0105203e-08
2.0105624e-08
2.010603e-08
2.0106414e-08
2.0106779e-08
2.0107131e-08
2.0107484e-08
2.0107845e-08
2.0108219e-08
2.0108609e-08
2.0109006e-08
2.0109374e-08
2.010969e-08
2.0109964e-08
2.0110223e-08
2.0110465e-08
2.011067e-08
2.0110814e-08
2.0110847e-08
2.0110799e-08
2.0110773e-08
2.0110794e-08
2.0110819e-08
2.0110832e-08
2.0110822e-08
2.0110779e-08
2.011071e-08
2.0110626e-08
2.0110539e-08
2.0110448e-08
2.0110337e-08
2.0110198e-08
2.0110046e-08
2.0109905e-08
2.0109773e-08
2.0109629e-08
2.0109429e-08
2.0109048e-08
2.010815e-08
2.0106391e-08
2.0104553e-08
2.0107131e-08
2.0125649e-08
2.0177823e-08
2.0270242e-08
2.0346274e-08
2.0187643e-08
1.9296467e-08
1.6874856e-08
1.218887e-08
5.8769953e-09
1.672714e-09
2.3207147e-09
2.1051268e-08
2.1051572e-08
2.1051998e-08
2.1052409e-08
2.1052814e-08
2.1053218e-08
2.1053615e-08
2.1053996e-08
2.1054355e-08
2.1054687e-08
2.1054996e-08
2.1055295e-08
2.1055598e-08
2.1055913e-08
2.1056244e-08
2.1056596e-08
2.1056952e-08
2.1057267e-08
2.1057522e-08
2.1057742e-08
2.1057957e-08
2.1058165e-08
2.1058338e-08
2.1058453e-08
2.1058419e-08
2.1058328e-08
2.1058283e-08
2.1058301e-08
2.1058322e-08
2.1058335e-08
2.1058332e-08
2.1058298e-08
2.1058242e-08
2.1058175e-08
2.1058112e-08
2.1058056e-08
2.105799e-08
2.1057894e-08
2.1057783e-08
2.105769e-08
2.1057621e-08
2.1057545e-08
2.105742e-08
2.1057185e-08
2.1056601e-08
2.1055221e-08
2.1053048e-08
2.1052653e-08
2.1062944e-08
2.1101829e-08
2.1186896e-08
2.1293059e-08
2.1253752e-08
2.0611576e-08
1.8517154e-08
1.3975789e-08
7.1669282e-09
1.9623307e-09
2.0382689e-09
2.2168889e-08
2.2169236e-08
2.2169643e-08
2.2170023e-08
2.2170394e-08
2.2170758e-08
2.2171103e-08
2.2171426e-08
2.2171718e-08
2.2171976e-08
2.2172208e-08
2.2172433e-08
2.2172667e-08
2.2172917e-08
2.2173187e-08
2.2173482e-08
2.2173777e-08
2.2174012e-08
2.2174179e-08
2.2174325e-08
2.2174485e-08
2.2174648e-08
2.2174779e-08
2.2174851e-08
2.2174715e-08
2.2174575e-08
2.2174512e-08
2.2174521e-08
2.2174536e-08
2.2174548e-08
2.2174556e-08
2.2174535e-08
2.2174498e-08
2.2174456e-08
2.2174422e-08
2.2174417e-08
2.2174416e-08
2.217438e-08
2.2174321e-08
2.2174291e-08
2.2174313e-08
2.2174346e-08
2.2174321e-08
2.2174205e-08
2.2173891e-08
2.2172987e-08
2.2171044e-08
2.2169036e-08
2.2172782e-08
2.219792e-08
2.2268254e-08
2.238631e-08
2.2442364e-08
2.2042016e-08
2.0322418e-08
1.6047983e-08
8.8363308e-09
2.3752783e-09
1.8859774e-09
2.3496242e-08
2.3496659e-08
2.3497045e-08
2.3497394e-08
2.3497732e-08
2.3498051e-08
2.3498343e-08
2.3498604e-08
2.3498822e-08
2.3498996e-08
2.3499141e-08
2.3499282e-08
2.3499441e-08
2.3499621e-08
2.3499825e-08
2.3500058e-08
2.3500279e-08
2.3500418e-08
2.3500473e-08
2.3500529e-08
2.3500635e-08
2.3500757e-08
2.3500845e-08
2.3500848e-08
2.3500585e-08
2.3500402e-08
2.350033e-08
2.3500323e-08
2.3500334e-08
2.3500349e-08
2.3500372e-08
2.350037e-08
2.350036e-08
2.350035e-08
2.3500355e-08
2.3500413e-08
2.3500497e-08
2.3500546e-08
2.3500552e-08
2.3500598e-08
2.3500736e-08
2.3500906e-08
2.3501023e-08
2.3501039e-08
2.3500909e-08
2.3500448e-08
2.3499072e-08
2.3496694e-08
2.3496106e-08
2.3508794e-08
2.3559563e-08
2.3671703e-08
2.3793462e-08
2.3615751e-08
2.2306714e-08
1.8434072e-08
1.0985721e-08
3.0607662e-09
1.8219233e-09
1.5937203e-08
1.9362693e-08
2.3049323e-08
2.7157684e-08
3.1840201e-08
3.7208894e-08
4.3344502e-08
5.0313957e-08
5.8180749e-08
6.7007094e-08
7.6848439e-08
8.7746948e-08
9.9722564e-08
1.1276257e-07
1.2680801e-07
1.4173874e-07
1.5735598e-07
1.7336531e-07
1.893606e-07
2.0481398e-07
2.1907411e-07
2.3138077e-07
2.4088631e-07
2.4675526e-07
2.4825366e-07
2.4489294e-07
2.3622633e-07
2.2208126e-07
2.0271982e-07
1.7883604e-07
1.5172126e-07
1.2178581e-07
9.1702337e-08
6.3490537e-08
3.880211e-08
1.9275542e-08
6.0110099e-09
4.839951e-10
2.1500244e-09
9.205583e-09
2.3034445e-08
4.6015742e-08
7.5729056e-08
1.0921492e-07
1.4527734e-07
1.8139252e-07
2.1990345e-07
2.5905946e-07
2.9870611e-07
3.3880692e-07
3.7892202e-07
4.1828413e-07
4.565553e-07
4.9425367e-07
5.3120409e-07
5.6700334e-07
6.0134378e-07
6.3409111e-07
6.6527182e-07
6.9490711e-07
7.2294173e-07
7.4936187e-07
7.7422848e-07
7.9762807e-07
8.1964774e-07
8.4036972e-07
8.5987207e-07
8.7822714e-07
8.9550326e-07
9.1176194e-07
9.2706296e-07
9.4144889e-07
9.5498233e-07
9.6761377e-07
2.507499e-09
3.1967423e-09
3.9596942e-09
4.7928658e-09
5.7049841e-09
6.7119436e-09
7.8311956e-09
9.0785131e-09
1.046758e-08
1.20108e-08
1.3719311e-08
1.560225e-08
1.7665545e-08
1.9910261e-08
2.2330536e-08
2.4911102e-08
2.7624503e-08
3.0428068e-08
3.3261028e-08
3.6042232e-08
3.8669161e-08
4.1019471e-08
4.2952732e-08
4.4326772e-08
4.4937252e-08
4.4613371e-08
4.3314885e-08
4.106943e-08
3.7942966e-08
3.4053322e-08
2.9593726e-08
2.478946e-08
1.9890421e-08
1.5137271e-08
1.0871428e-08
7.6969984e-09
4.540661e-09
2.3622763e-09
1.153086e-09
1.3747571e-09
2.3304448e-09
4.2791194e-09
7.1010112e-09
1.0669217e-08
1.4797547e-08
1.9214456e-08
2.3940551e-08
2.8865593e-08
3.3913707e-08
3.9040843e-08
4.4205087e-08
4.9328745e-08
5.4348635e-08
5.9258539e-08
6.4053708e-08
6.8715285e-08
7.3219204e-08
7.7542462e-08
8.167813e-08
8.5626174e-08
8.9381677e-08
9.2940432e-08
9.630231e-08
9.9470507e-08
1.0245044e-07
1.0524936e-07
1.0787455e-07
1.1033473e-07
1.1263754e-07
1.1479177e-07
1.1680524e-07
1.1868603e-07
1.2044104e-07
1.2210998e-07
1.7157288e-09
1.6786989e-09
1.6658246e-09
1.6877549e-09
1.7553035e-09
1.8731645e-09
2.0547745e-09
2.3129457e-09
2.6522267e-09
3.0725148e-09
3.572899e-09
4.1517055e-09
4.8064905e-09
5.5343582e-09
6.3320136e-09
7.1955386e-09
8.1195839e-09
9.0962665e-09
1.0113838e-08
1.1155114e-08
1.2196883e-08
1.3208991e-08
1.4153668e-08
1.4988371e-08
1.5660893e-08
1.6114175e-08
1.6301646e-08
1.6194201e-08
1.5781233e-08
1.5071101e-08
1.4093151e-08
1.2892875e-08
1.153587e-08
1.005538e-08
8.6136885e-09
7.1910119e-09
5.8986213e-09
4.7757127e-09
3.8009901e-09
3.1056869e-09
2.5753263e-09
2.4416858e-09
2.5293271e-09
2.7780984e-09
3.1771136e-09
3.6951552e-09
4.3127982e-09
4.9902868e-09
5.7369859e-09
6.5384408e-09
7.3784513e-09
8.2426142e-09
9.1176883e-09
9.9931927e-09
1.0861042e-08
1.1714729e-08
1.254881e-08
1.3358826e-08
1.414136e-08
1.4893844e-08
1.5614424e-08
1.6301875e-08
1.6955561e-08
1.7575278e-08
1.8161218e-08
1.8713894e-08
1.9234064e-08
1.972269e-08
2.0180879e-08
2.0609844e-08
2.1010863e-08
2.1385275e-08
2.1734258e-08
2.2060201e-08
3.2539455e-09
2.672616e-09
2.2597648e-09
1.9924771e-09
1.8436616e-09
1.767853e-09
1.7194174e-09
1.667005e-09
1.6469986e-09
1.6594446e-09
1.7105785e-09
1.8109776e-09
1.9686472e-09
2.188607e-09
2.4715213e-09
2.8168402e-09
3.2220665e-09
3.6832914e-09
4.1930017e-09
4.7337052e-09
5.2953489e-09
5.8706477e-09
6.4495377e-09
7.0187723e-09
7.5615431e-09
8.057689e-09
8.4855218e-09
8.8245868e-09
9.0579334e-09
9.174086e-09
9.1683198e-09
9.0427554e-09
8.8077766e-09
8.4759404e-09
8.0659041e-09
7.5939371e-09
7.0894795e-09
6.5865995e-09
6.0378674e-09
5.5800277e-09
5.1424607e-09
4.743585e-09
4.4141405e-09
4.1537673e-09
3.9685206e-09
3.8090063e-09
3.7513087e-09
3.7348963e-09
3.7437838e-09
3.7740595e-09
3.8233279e-09
3.8883894e-09
3.9661351e-09
4.0537947e-09
4.1489013e-09
4.2492874e-09
4.3530748e-09
4.458654e-09
4.5646954e-09
4.670021e-09
4.7737807e-09
4.8741738e-09
4.9722634e-09
5.0676783e-09
5.1599427e-09
5.2487098e-09
5.3337294e-09
5.4148397e-09
5.491952e-09
5.5650383e-09
5.6341179e-09
5.6992528e-09
5.7605327e-09
5.8180072e-09
6.297472e-09
5.1792777e-09
4.2283631e-09
3.4543125e-09
2.8495038e-09
2.4180603e-09
2.1213267e-09
1.9095254e-09
1.7774154e-09
1.6973005e-09
1.6495182e-09
1.6209879e-09
1.5882379e-09
1.583866e-09
1.6043419e-09
1.6575824e-09
1.7507179e-09
1.8877144e-09
2.0822226e-09
2.3350673e-09
2.6404994e-09
2.9831032e-09
3.3474773e-09
3.7272676e-09
4.1170227e-09
4.5098257e-09
4.8969869e-09
5.2685434e-09
5.6139272e-09
5.9231984e-09
6.1879406e-09
6.4018249e-09
6.5612657e-09
6.6660381e-09
6.7172051e-09
6.7183889e-09
6.6755243e-09
6.5607452e-09
6.4523909e-09
6.3401752e-09
6.2046867e-09
6.0444636e-09
5.8767712e-09
5.719927e-09
5.5778309e-09
5.4418555e-09
5.3200648e-09
5.2168222e-09
5.1310259e-09
5.0552044e-09
4.9884888e-09
4.9309247e-09
4.8784172e-09
4.8329848e-09
4.7949419e-09
4.7636107e-09
4.7382303e-09
4.7177405e-09
4.7022694e-09
4.6863831e-09
4.6785056e-09
4.673112e-09
4.6691729e-09
4.6665626e-09
4.6647292e-09
4.6639376e-09
4.6638994e-09
4.6644722e-09
4.6655536e-09
4.6670529e-09
4.6688907e-09
4.6709996e-09
4.6733178e-09
4.6757941e-09
9.4936936e-09
8.1547535e-09
6.8980951e-09
5.7740328e-09
4.8002642e-09
3.9886465e-09
3.3395315e-09
2.8241593e-09
2.4290529e-09
2.1339198e-09
1.9273981e-09
1.7813279e-09
1.6842678e-09
1.6231861e-09
1.5871698e-09
1.5656503e-09
1.5422749e-09
1.5374181e-09
1.5501924e-09
1.5858e-09
1.6590104e-09
1.780347e-09
1.9467943e-09
2.1550997e-09
2.3945354e-09
2.6508381e-09
2.9176773e-09
3.19032e-09
3.4636668e-09
3.7322091e-09
3.9904814e-09
4.2333497e-09
4.4565089e-09
4.6568755e-09
4.8326956e-09
4.9826116e-09
5.1097022e-09
5.2169028e-09
5.2966613e-09
5.354895e-09
5.3967108e-09
5.4230967e-09
5.4353781e-09
5.4334317e-09
5.4198964e-09
5.3979452e-09
5.3760105e-09
5.354837e-09
5.3348999e-09
5.3162642e-09
5.2989205e-09
5.2828041e-09
5.2673832e-09
5.2526858e-09
5.2388239e-09
5.2258638e-09
5.2138342e-09
5.2027375e-09
5.192548e-09
5.1828364e-09
5.174047e-09
5.1662427e-09
5.1593627e-09
5.153332e-09
5.1480692e-09
5.1435164e-09
5.1396093e-09
5.1362878e-09
5.1334978e-09
5.1311902e-09
5.1293187e-09
5.1278436e-09
5.1267232e-09
5.125927e-09
1.2062022e-08