/*--------------------------------*- C++ -*----------------------------------*\
| =========                 |                                                 |
| \\      /  F ield         | OpenFOAM: The Open Source CFD Toolbox           |
|  \\    /   O peration     | Version:  v2006                                 |
|   \\  /    A nd           | Website:  www.openfoam.com                      |
|    \\/     M anipulation  |                                                 |
\*---------------------------------------------------------------------------*/
FoamFile
{
    version     2.0;
    format      ascii;
    class       volScalarField;
    location    "1000";
    object      nut;
}
// * * * * * * * * * * * * * * * * * * * * * * * * * * * * * * * * * * * * * //

dimensions      [0 2 -1 0 0 0 0];


internalField   nonuniform List<scalar> 
55713
(
3.2974697e-10
2.9261194e-09
2.8897179e-08
6.9308359e-08
8.9595749e-08
9.565562e-08
9.5894549e-08
9.5046262e-08
9.4484878e-08
9.4279243e-08
9.4245689e-08
9.4257376e-08
9.4268993e-08
9.4274019e-08
9.4274869e-08
9.427479e-08
9.4274523e-08
9.4274259e-08
9.4273907e-08
9.4273642e-08
9.4273606e-08
9.4273616e-08
9.4273472e-08
9.4273233e-08
9.427306e-08
9.4272984e-08
9.4272931e-08
9.4272851e-08
9.4272713e-08
9.4272521e-08
9.4272306e-08
9.4272076e-08
9.4271859e-08
9.4271727e-08
9.4271956e-08
9.4272868e-08
9.4272695e-08
9.4272037e-08
9.4271148e-08
9.427028e-08
9.4269615e-08
9.4269058e-08
9.4268302e-08
9.4267246e-08
9.4266061e-08
9.4264884e-08
9.4263744e-08
9.4262681e-08
9.4261706e-08
9.426077e-08
9.4259808e-08
9.4258775e-08
9.4257668e-08
9.4256548e-08
9.4255452e-08
9.4254395e-08
9.4253346e-08
9.4252205e-08
9.4250941e-08
3.8836048e-10
4.2237699e-09
3.5953172e-08
7.616576e-08
9.3036838e-08
9.6962764e-08
9.6589815e-08
9.5762256e-08
9.5331613e-08
9.520633e-08
9.5199708e-08
9.5213368e-08
9.5221656e-08
9.5224243e-08
9.5224138e-08
9.5223564e-08
9.5222935e-08
9.5222223e-08
9.5221426e-08
9.5220769e-08
9.5220371e-08
9.5219996e-08
9.5219465e-08
9.5218865e-08
9.5218349e-08
9.5217934e-08
9.5217536e-08
9.5217111e-08
9.521664e-08
9.5216114e-08
9.5215564e-08
9.5214991e-08
9.5214419e-08
9.5213918e-08
9.5213734e-08
9.5214424e-08
9.5214051e-08
9.5213042e-08
9.5211768e-08
9.5210496e-08
9.5209449e-08
9.5208575e-08
9.5207519e-08
9.5206107e-08
9.520452e-08
9.5202917e-08
9.5201321e-08
9.5199783e-08
9.519833e-08
9.5196907e-08
9.5195445e-08
9.5193883e-08
9.5192197e-08
9.5190444e-08
9.5188668e-08
9.5186878e-08
9.5185033e-08
9.5183022e-08
9.5180794e-08
4.7326295e-10
5.9307803e-09
4.3459446e-08
8.2281874e-08
9.5714216e-08
9.8030445e-08
9.7311688e-08
9.6570183e-08
9.6260449e-08
9.619481e-08
9.6202932e-08
9.6215182e-08
9.6220162e-08
9.6220591e-08
9.6220004e-08
9.6219131e-08
9.6218057e-08
9.6216897e-08
9.6215679e-08
9.6214655e-08
9.6213909e-08
9.621316e-08
9.6212257e-08
9.6211315e-08
9.6210472e-08
9.6209731e-08
9.6209005e-08
9.6208254e-08
9.6207461e-08
9.6206616e-08
9.6205746e-08
9.6204851e-08
9.620395e-08
9.6203102e-08
9.6202509e-08
9.6202936e-08
9.6202484e-08
9.6201143e-08
9.61995e-08
9.6197834e-08
9.619642e-08
9.6195253e-08
9.6193939e-08
9.619221e-08
9.6190251e-08
9.6188256e-08
9.6186237e-08
9.6184258e-08
9.6182366e-08
9.6180498e-08
9.617858e-08
9.6176543e-08
9.6174337e-08
9.6172008e-08
9.6169618e-08
9.6167168e-08
9.6164608e-08
9.6161814e-08
9.6158701e-08
5.9679196e-10
8.2523023e-09
5.159832e-08
8.779135e-08
9.7950274e-08
9.8980694e-08
9.8087004e-08
9.7475567e-08
9.7274505e-08
9.7250324e-08
9.72641e-08
9.727258e-08
9.7274216e-08
9.7273882e-08
9.7273042e-08
9.7271741e-08
9.7270212e-08
9.7268643e-08
9.7267042e-08
9.7265683e-08
9.7264618e-08
9.7263517e-08
9.7262274e-08
9.7261018e-08
9.7259876e-08
9.7258835e-08
9.7257804e-08
9.7256753e-08
9.7255666e-08
9.7254532e-08
9.7253372e-08
9.7252184e-08
9.7250979e-08
9.7249808e-08
9.7248838e-08
9.7248937e-08
9.7248542e-08
9.7246897e-08
9.7244917e-08
9.7242877e-08
9.72411e-08
9.7239658e-08
9.7238138e-08
9.7236143e-08
9.7233846e-08
9.7231494e-08
9.7229091e-08
9.7226705e-08
9.7224412e-08
9.722214e-08
9.7219809e-08
9.7217347e-08
9.7214677e-08
9.7211825e-08
9.7208871e-08
9.7205822e-08
9.7202608e-08
9.7199102e-08
9.7195181e-08
7.7653828e-10
1.134631e-08
6.0094228e-08
9.2542411e-08
9.9781086e-08
9.9869775e-08
9.8949273e-08
9.8487301e-08
9.8372847e-08
9.8373126e-08
9.8386033e-08
9.8389884e-08
9.8389826e-08
9.8389244e-08
9.8388022e-08
9.8386242e-08
9.8384302e-08
9.8382368e-08
9.8380427e-08
9.8378777e-08
9.837742e-08
9.8375989e-08
9.8374431e-08
9.8372888e-08
9.8371475e-08
9.8370162e-08
9.8368858e-08
9.8367538e-08
9.8366187e-08
9.8364797e-08
9.8363379e-08
9.8361933e-08
9.8360462e-08
9.8359003e-08
9.8357711e-08
9.8357449e-08
9.835713e-08
9.8355287e-08
9.8353013e-08
9.8350622e-08
9.8348492e-08
9.8346791e-08
9.8345132e-08
9.8342935e-08
9.8340347e-08
9.8337677e-08
9.8334942e-08
9.8332197e-08
9.832956e-08
9.8326936e-08
9.8324248e-08
9.8321427e-08
9.8318368e-08
9.8315064e-08
9.8311618e-08
9.8308054e-08
9.8304275e-08
9.830016e-08
9.8295535e-08
1.0397268e-09
1.5404943e-08
6.8667913e-08
9.6126227e-08
1.0130914e-07
1.0076068e-07
9.9923066e-08
9.9608005e-08
9.9555194e-08
9.9566328e-08
9.9574539e-08
9.9575252e-08
9.9574505e-08
9.9573752e-08
9.957201e-08
9.9569775e-08
9.9567496e-08
9.9565238e-08
9.9562995e-08
9.9561112e-08
9.9559504e-08
9.9557772e-08
9.955594e-08
9.9554147e-08
9.9552497e-08
9.9550945e-08
9.9549402e-08
9.9547847e-08
9.9546268e-08
9.9544662e-08
9.9543024e-08
9.9541361e-08
9.9539668e-08
9.9537969e-08
9.95364e-08
9.953578e-08
9.9535519e-08
9.9533634e-08
9.9531113e-08
9.9528406e-08
9.952594e-08
9.9523986e-08
9.9522262e-08
9.9519947e-08
9.9517128e-08
9.9514184e-08
9.9511175e-08
9.9508128e-08
9.950521e-08
9.9502298e-08
9.9499317e-08
9.9496215e-08
9.9492856e-08
9.9489189e-08
9.9485333e-08
9.9481353e-08
9.9477115e-08
9.947251e-08
9.9467301e-08
1.4291566e-09
2.064073e-08
7.6924008e-08
9.9007397e-08
1.0255289e-07
1.0169355e-07
1.0102675e-07
1.0083803e-07
1.0082315e-07
1.0083464e-07
1.008384e-07
1.0083717e-07
1.0083637e-07
1.0083536e-07
1.00833e-07
1.0083041e-07
1.0082788e-07
1.0082532e-07
1.0082281e-07
1.0082078e-07
1.0081896e-07
1.0081697e-07
1.0081491e-07
1.0081292e-07
1.0081107e-07
1.0080933e-07
1.0080759e-07
1.0080584e-07
1.0080408e-07
1.008023e-07
1.0080049e-07
1.0079865e-07
1.0079679e-07
1.0079491e-07
1.0079312e-07
1.0079216e-07
1.0079192e-07
1.007902e-07
1.0078748e-07
1.0078451e-07
1.0078174e-07
1.0077953e-07
1.0077781e-07
1.0077549e-07
1.0077252e-07
1.0076935e-07
1.0076614e-07
1.0076286e-07
1.0075974e-07
1.0075662e-07
1.0075343e-07
1.0075014e-07
1.0074659e-07
1.0074267e-07
1.007385e-07
1.0073423e-07
1.0072966e-07
1.0072471e-07
1.0071907e-07
2.0182724e-09
2.7277625e-08
8.5013657e-08
1.0202954e-07
1.0365129e-07
1.0273878e-07
1.0227254e-07
1.0217578e-07
1.021805e-07
1.0218726e-07
1.0218771e-07
1.0218546e-07
1.0218498e-07
1.0218346e-07
1.0218051e-07
1.0217775e-07
1.0217503e-07
1.0217217e-07
1.0216946e-07
1.021674e-07
1.0216542e-07
1.0216321e-07
1.0216099e-07
1.0215884e-07
1.0215686e-07
1.0215497e-07
1.0215309e-07
1.0215121e-07
1.0214932e-07
1.0214742e-07
1.0214549e-07
1.0214355e-07
1.0214157e-07
1.0213957e-07
1.0213762e-07
1.0213637e-07
1.0213608e-07
1.0213478e-07
1.0213194e-07
1.0212875e-07
1.0212574e-07
1.0212332e-07
1.0212159e-07
1.0211943e-07
1.0211642e-07
1.021131e-07
1.0210977e-07
1.0210633e-07
1.0210311e-07
1.0209989e-07
1.0209659e-07
1.0209322e-07
1.0208961e-07
1.0208558e-07
1.0208123e-07
1.0207681e-07
1.0207207e-07
1.0206696e-07
1.0206106e-07
2.955721e-09
3.5526388e-08
9.2214098e-08
1.0432565e-07
1.0476249e-07
1.0395877e-07
1.0366291e-07
1.0362444e-07
1.036333e-07
1.036354e-07
1.0363421e-07
1.0363162e-07
1.0363154e-07
1.0362924e-07
1.0362591e-07
1.0362318e-07
1.0362028e-07
1.0361717e-07
1.0361436e-07
1.0361238e-07
1.0361027e-07
1.0360792e-07
1.0360561e-07
1.0360337e-07
1.0360133e-07
1.0359937e-07
1.0359741e-07
1.0359546e-07
1.0359351e-07
1.0359156e-07
1.0358958e-07
1.035876e-07
1.0358559e-07
1.0358355e-07
1.0358153e-07
1.0358005e-07
1.0357968e-07
1.0357893e-07
1.0357616e-07
1.0357284e-07
1.0356964e-07
1.0356706e-07
1.0356532e-07
1.0356351e-07
1.035606e-07
1.0355723e-07
1.035539e-07
1.0355039e-07
1.0354719e-07
1.0354401e-07
1.0354072e-07
1.035374e-07
1.0353388e-07
1.0352994e-07
1.0352555e-07
1.0352116e-07
1.0351645e-07
1.0351139e-07
1.0350546e-07
4.5770333e-09
4.553742e-08
9.8576166e-08
1.0632337e-07
1.0599004e-07
1.0535796e-07
1.051954e-07
1.0518886e-07
1.0519487e-07
1.0519346e-07
1.0519173e-07
1.0518907e-07
1.0518932e-07
1.0518613e-07
1.0518271e-07
1.0518022e-07
1.0517715e-07
1.0517387e-07
1.0517112e-07
1.0516934e-07
1.0516714e-07
1.0516473e-07
1.0516239e-07
1.0516017e-07
1.0515815e-07
1.0515619e-07
1.0515424e-07
1.0515231e-07
1.0515039e-07
1.0514847e-07
1.0514653e-07
1.051446e-07
1.0514265e-07
1.0514067e-07
1.0513869e-07
1.0513709e-07
1.0513663e-07
1.0513645e-07
1.0513412e-07
1.0513073e-07
1.051274e-07
1.0512477e-07
1.0512306e-07
1.0512168e-07
1.0511914e-07
1.051158e-07
1.0511269e-07
1.0510919e-07
1.0510616e-07
1.0510319e-07
1.0510006e-07
1.0509695e-07
1.050937e-07
1.0509007e-07
1.0508585e-07
1.0508172e-07
1.0507729e-07
1.0507253e-07
1.0506686e-07
7.2846444e-09
5.7334204e-08
1.038247e-07
1.0809649e-07
1.0737955e-07
1.0694689e-07
1.0687476e-07
1.0687984e-07
1.0688079e-07
1.0687767e-07
1.0687628e-07
1.0687356e-07
1.0687396e-07
1.0686995e-07
1.0686691e-07
1.0686481e-07
1.068616e-07
1.0685827e-07
1.0685579e-07
1.0685431e-07
1.0685209e-07
1.0684968e-07
1.0684743e-07
1.0684537e-07
1.0684346e-07
1.0684161e-07
1.0683978e-07
1.0683798e-07
1.0683618e-07
1.068344e-07
1.0683262e-07
1.0683085e-07
1.0682907e-07
1.0682727e-07
1.0682545e-07
1.0682389e-07
1.0682335e-07
1.0682367e-07
1.0682231e-07
1.0681895e-07
1.0681555e-07
1.0681298e-07
1.068114e-07
1.068105e-07
1.0680867e-07
1.0680543e-07
1.0680286e-07
1.0679947e-07
1.0679676e-07
1.0679424e-07
1.0679147e-07
1.0678877e-07
1.06786e-07
1.0678296e-07
1.0677919e-07
1.0677555e-07
1.0677175e-07
1.0676758e-07
1.0676253e-07
1.1155362e-08
7.0855292e-08
1.072801e-07
1.097012e-07
1.0897301e-07
1.0872961e-07
1.0870743e-07
1.0871177e-07
1.0870939e-07
1.0870612e-07
1.0870554e-07
1.0870266e-07
1.0870311e-07
1.0869843e-07
1.0869636e-07
1.0869487e-07
1.0869155e-07
1.0868834e-07
1.0868639e-07
1.0868531e-07
1.0868314e-07
1.0868085e-07
1.0867888e-07
1.0867711e-07
1.0867545e-07
1.0867385e-07
1.0867227e-07
1.0867072e-07
1.0866919e-07
1.0866769e-07
1.0866619e-07
1.0866472e-07
1.0866325e-07
1.0866179e-07
1.086603e-07
1.0865896e-07
1.0865844e-07
1.086591e-07
1.086592e-07
1.0865609e-07
1.0865274e-07
1.0865039e-07
1.0864905e-07
1.0864861e-07
1.0864795e-07
1.0864481e-07
1.0864325e-07
1.0864006e-07
1.0863789e-07
1.0863611e-07
1.0863393e-07
1.0863189e-07
1.0862983e-07
1.0862764e-07
1.0862474e-07
1.0862185e-07
1.0861908e-07
1.0861582e-07
1.0861184e-07
1.6913932e-08
8.6029462e-08
1.0959328e-07
1.1120754e-07
1.1079121e-07
1.1070225e-07
1.1069989e-07
1.1069973e-07
1.1069688e-07
1.1069444e-07
1.1069483e-07
1.1069188e-07
1.1069213e-07
1.1068772e-07
1.1068669e-07
1.1068626e-07
1.1068277e-07
1.1068007e-07
1.1067887e-07
1.1067835e-07
1.1067628e-07
1.106744e-07
1.1067293e-07
1.1067163e-07
1.106704e-07
1.1066921e-07
1.1066805e-07
1.1066693e-07
1.1066584e-07
1.1066479e-07
1.1066375e-07
1.1066275e-07
1.1066176e-07
1.1066079e-07
1.1065983e-07
1.1065895e-07
1.1065869e-07
1.1065952e-07
1.1066099e-07
1.1065868e-07
1.1065572e-07
1.1065384e-07
1.106528e-07
1.1065286e-07
1.106535e-07
1.1065068e-07
1.1065059e-07
1.1064783e-07
1.1064646e-07
1.1064559e-07
1.1064435e-07
1.1064319e-07
1.1064212e-07
1.1064105e-07
1.1063941e-07
1.1063758e-07
1.1063622e-07
1.1063429e-07
1.1063184e-07
2.4921552e-08
1.025386e-07
1.1276859e-07
1.1294088e-07
1.1284749e-07
1.1284208e-07
1.1284277e-07
1.1284129e-07
1.1283947e-07
1.1283811e-07
1.1283905e-07
1.1283661e-07
1.1283693e-07
1.12834e-07
1.1283323e-07
1.1283435e-07
1.1283144e-07
1.1282997e-07
1.1282955e-07
1.1282956e-07
1.1282804e-07
1.1282705e-07
1.1282634e-07
1.1282572e-07
1.1282513e-07
1.1282458e-07
1.1282406e-07
1.1282358e-07
1.1282312e-07
1.1282271e-07
1.1282232e-07
1.1282197e-07
1.1282164e-07
1.1282135e-07
1.1282107e-07
1.1282085e-07
1.1282098e-07
1.1282171e-07
1.1282367e-07
1.1282283e-07
1.1282109e-07
1.1282e-07
1.1281954e-07
1.1282021e-07
1.1282111e-07
1.1281994e-07
1.1282108e-07
1.1281955e-07
1.1281935e-07
1.1281946e-07
1.128194e-07
1.1281936e-07
1.1281945e-07
1.1281958e-07
1.1281947e-07
1.1281916e-07
1.1281932e-07
1.1281909e-07
1.1281869e-07
8.557879e-08
8.557602e-08
8.5574196e-08
8.5575596e-08
8.5576171e-08
8.5577044e-08
8.5577844e-08
8.5578695e-08
8.5579576e-08
8.5580472e-08
8.5581373e-08
8.5582273e-08
8.5583184e-08
8.5584119e-08
8.5585086e-08
8.5586081e-08
8.5587081e-08
8.5588064e-08
8.558901e-08
8.5589916e-08
8.5590786e-08
8.5591599e-08
8.5592271e-08
8.5592682e-08
8.5592771e-08
8.5592604e-08
8.5592364e-08
8.5592205e-08
8.5592155e-08
8.5592155e-08
8.5592136e-08
8.5592063e-08
8.5591936e-08
8.5591769e-08
8.5591554e-08
8.5591265e-08
8.5590894e-08
8.55905e-08
8.5590202e-08
8.5589998e-08
8.5589274e-08
8.5586331e-08
8.5579423e-08
8.5571841e-08
8.5582407e-08
8.5656435e-08
8.5860232e-08
8.6229693e-08
8.6643133e-08
8.6614707e-08
8.5059939e-08
8.0157056e-08
6.9251457e-08
5.0502129e-08
2.6893283e-08
8.6066715e-09
1.7872176e-09
6.0519604e-10
8.4927469e-10
8.5869142e-08
8.5866699e-08
8.5866118e-08
8.5867197e-08
8.5867951e-08
8.5868786e-08
8.586962e-08
8.5870486e-08
8.5871379e-08
8.5872283e-08
8.5873187e-08
8.5874088e-08
8.5874997e-08
8.587593e-08
8.5876896e-08
8.5877889e-08
8.5878891e-08
8.5879876e-08
8.5880824e-08
8.5881725e-08
8.5882585e-08
8.5883385e-08
8.5884043e-08
8.5884441e-08
8.5884515e-08
8.5884334e-08
8.5884088e-08
8.5883931e-08
8.5883881e-08
8.5883874e-08
8.5883846e-08
8.5883763e-08
8.5883627e-08
8.5883452e-08
8.5883232e-08
8.5882944e-08
8.5882591e-08
8.5882231e-08
8.5881945e-08
8.5881653e-08
8.5880719e-08
8.5877672e-08
8.5871243e-08
8.586488e-08
8.5876011e-08
8.5946088e-08
8.6137177e-08
8.6488433e-08
8.6901864e-08
8.6945378e-08
8.5607672e-08
8.1100102e-08
7.088991e-08
5.2739685e-08
2.8953071e-08
9.591651e-09
1.913831e-09
5.5612945e-10
7.6011033e-10
8.618887e-08
8.6186651e-08
8.6186546e-08
8.6187522e-08
8.6188343e-08
8.6189182e-08
8.6190037e-08
8.6190919e-08
8.6191826e-08
8.619274e-08
8.6193649e-08
8.6194554e-08
8.6195465e-08
8.6196398e-08
8.6197363e-08
8.6198358e-08
8.6199364e-08
8.6200353e-08
8.6201299e-08
8.6202189e-08
8.6203033e-08
8.6203819e-08
8.6204469e-08
8.6204865e-08
8.6204935e-08
8.6204747e-08
8.6204495e-08
8.6204336e-08
8.6204284e-08
8.6204275e-08
8.6204246e-08
8.6204164e-08
8.6204031e-08
8.6203862e-08
8.6203656e-08
8.6203387e-08
8.6203049e-08
8.6202687e-08
8.6202397e-08
8.6202183e-08
8.6201599e-08
8.6199297e-08
8.6193483e-08
8.6185432e-08
8.618811e-08
8.6237778e-08
8.639677e-08
8.6721844e-08
8.7163671e-08
8.7374912e-08
8.644893e-08
8.2677425e-08
7.3503141e-08
5.6209306e-08
3.2115078e-08
1.1124523e-08
2.1306411e-09
5.2299214e-10
6.7209816e-10
8.6541117e-08
8.653923e-08
8.6539578e-08
8.6540485e-08
8.6541357e-08
8.6542201e-08
8.6543073e-08
8.654397e-08
8.6544887e-08
8.6545807e-08
8.654672e-08
8.6547625e-08
8.6548534e-08
8.6549466e-08
8.6550431e-08
8.6551426e-08
8.6552433e-08
8.6553423e-08
8.6554364e-08
8.655524e-08
8.6556067e-08
8.6556839e-08
8.6557477e-08
8.6557863e-08
8.6557923e-08
8.6557721e-08
8.6557463e-08
8.6557304e-08
8.6557253e-08
8.6557244e-08
8.6557213e-08
8.6557129e-08
8.6556997e-08
8.6556832e-08
8.6556635e-08
8.6556383e-08
8.6556062e-08
8.6555711e-08
8.6555414e-08
8.6555207e-08
8.6554773e-08
8.6552985e-08
8.6548014e-08
8.6539918e-08
8.6538103e-08
8.6573091e-08
8.6703502e-08
8.6995338e-08
8.7437648e-08
8.7762183e-08
8.7171674e-08
8.4057209e-08
7.5885882e-08
5.9574355e-08
3.5432143e-08
1.2867369e-08
2.4269296e-09
5.0225851e-10
5.9884258e-10
8.6929876e-08
8.6928429e-08
8.6929087e-08
8.6929964e-08
8.6930858e-08
8.6931714e-08
8.6932598e-08
8.6933506e-08
8.6934431e-08
8.6935354e-08
8.6936265e-08
8.6937167e-08
8.6938074e-08
8.6939004e-08
8.6939968e-08
8.6940962e-08
8.6941971e-08
8.6942959e-08
8.6943889e-08
8.6944747e-08
8.6945554e-08
8.6946309e-08
8.6946934e-08
8.6947308e-08
8.6947354e-08
8.6947135e-08
8.6946869e-08
8.6946713e-08
8.6946665e-08
8.6946656e-08
8.6946624e-08
8.6946541e-08
8.694641e-08
8.6946251e-08
8.6946066e-08
8.6945833e-08
8.6945532e-08
8.6945191e-08
8.6944891e-08
8.6944693e-08
8.6944404e-08
8.6943118e-08
8.6939023e-08
8.6931124e-08
8.6925432e-08
8.6946513e-08
8.7047916e-08
8.7301889e-08
8.7732394e-08
8.8150907e-08
8.7880574e-08
8.5430874e-08
7.8317253e-08
6.3147846e-08
3.9174635e-08
1.4969938e-08
2.8362538e-09
4.9361681e-10
5.310214e-10
8.7359807e-08
8.7358922e-08
8.7359775e-08
8.7360648e-08
8.7361549e-08
8.7362415e-08
8.7363308e-08
8.7364224e-08
8.7365151e-08
8.7366073e-08
8.7366979e-08
8.7367874e-08
8.7368775e-08
8.73697e-08
8.7370662e-08
8.7371656e-08
8.7372664e-08
8.7373647e-08
8.737456e-08
8.7375395e-08
8.7376179e-08
8.7376915e-08
8.7377524e-08
8.7377883e-08
8.7377908e-08
8.7377666e-08
8.7377392e-08
8.737724e-08
8.7377198e-08
8.737719e-08
8.7377159e-08
8.7377077e-08
8.7376948e-08
8.7376795e-08
8.7376623e-08
8.7376409e-08
8.737613e-08
8.7375804e-08
8.7375504e-08
8.7375302e-08
8.7375104e-08
8.7374237e-08
8.7371064e-08
8.7363917e-08
8.7355888e-08
8.736553e-08
8.7439523e-08
8.7651723e-08
8.8054248e-08
8.8534264e-08
8.8543396e-08
8.6732165e-08
8.0690114e-08
6.6830015e-08
4.3291914e-08
1.7467114e-08
3.3809709e-09
5.0132641e-10
4.7340352e-10
8.7836519e-08
8.7836177e-08
8.7837122e-08
8.7838007e-08
8.7838907e-08
8.7839781e-08
8.7840679e-08
8.7841598e-08
8.7842524e-08
8.7843438e-08
8.7844333e-08
8.7845216e-08
8.7846108e-08
8.7847027e-08
8.7847984e-08
8.7848975e-08
8.784998e-08
8.7850952e-08
8.7851841e-08
8.7852645e-08
8.7853403e-08
8.7854118e-08
8.7854708e-08
8.7855048e-08
8.7855046e-08
8.7854775e-08
8.7854491e-08
8.7854345e-08
8.7854312e-08
8.7854306e-08
8.7854276e-08
8.7854195e-08
8.785407e-08
8.7853923e-08
8.7853765e-08
8.7853573e-08
8.7853319e-08
8.7853012e-08
8.7852717e-08
8.7852511e-08
8.7852369e-08
8.7851835e-08
8.7849535e-08
8.7843473e-08
8.7834358e-08
8.7835018e-08
8.7884063e-08
8.805273e-08
8.8413913e-08
8.8923711e-08
8.9166652e-08
8.7960333e-08
8.2937956e-08
7.0599904e-08
4.780859e-08
2.0453727e-08
4.0941021e-09
5.268835e-10
4.2324661e-10
8.83666e-08
8.8366671e-08
8.8367643e-08
8.8368542e-08
8.8369435e-08
8.8370312e-08
8.8371211e-08
8.8372126e-08
8.8373043e-08
8.8373943e-08
8.8374822e-08
8.8375688e-08
8.8376564e-08
8.8377473e-08
8.8378422e-08
8.8379407e-08
8.8380404e-08
8.8381356e-08
8.8382212e-08
8.8382978e-08
8.8383705e-08
8.8384396e-08
8.8384964e-08
8.838528e-08
8.8385243e-08
8.8384933e-08
8.8384638e-08
8.8384503e-08
8.8384479e-08
8.8384477e-08
8.8384449e-08
8.838437e-08
8.8384248e-08
8.8384108e-08
8.8383965e-08
8.8383798e-08
8.8383572e-08
8.8383289e-08
8.8383005e-08
8.8382797e-08
8.8382683e-08
8.8382391e-08
8.8380866e-08
8.8376112e-08
8.8367091e-08
8.8361464e-08
8.838906e-08
8.851451e-08
8.882324e-08
8.9330438e-08
8.9750236e-08
8.9092546e-08
8.5168404e-08
7.4393613e-08
5.2707003e-08
2.4032874e-08
5.0398632e-09
5.758684e-10
3.8002515e-10
8.8957806e-08
8.8958122e-08
8.895911e-08
8.8960013e-08
8.8960895e-08
8.8961767e-08
8.8962659e-08
8.8963563e-08
8.8964462e-08
8.896534e-08
8.8966191e-08
8.8967031e-08
8.8967887e-08
8.8968779e-08
8.8969713e-08
8.8970686e-08
8.8971667e-08
8.8972588e-08
8.8973398e-08
8.8974118e-08
8.897481e-08
8.8975473e-08
8.8976015e-08
8.8976302e-08
8.8976217e-08
8.8975857e-08
8.8975551e-08
8.8975432e-08
8.8975418e-08
8.8975421e-08
8.8975396e-08
8.8975321e-08
8.8975204e-08
8.8975072e-08
8.8974945e-08
8.8974805e-08
8.8974612e-08
8.8974358e-08
8.8974095e-08
8.8973895e-08
8.8973793e-08
8.8973658e-08
8.8972773e-08
8.8969356e-08
8.8961384e-08
8.895213e-08
8.8962621e-08
8.9047577e-08
8.9296332e-08
8.977116e-08
9.030993e-08
9.0126677e-08
8.7249089e-08
7.8158757e-08
5.7949585e-08
2.8293097e-08
6.2986298e-09
6.5423178e-10
3.4341107e-10
8.961939e-08
8.9619889e-08
8.9620867e-08
8.9621762e-08
8.9622624e-08
8.9623483e-08
8.9624358e-08
8.9625241e-08
8.9626112e-08
8.9626953e-08
8.9627766e-08
8.9628569e-08
8.9629394e-08
8.9630261e-08
8.9631171e-08
8.9632124e-08
8.963308e-08
8.9633953e-08
8.9634701e-08
8.9635365e-08
8.9636016e-08
8.9636647e-08
8.9637156e-08
8.9637408e-08
8.9637262e-08
8.9636836e-08
8.9636513e-08
8.9636423e-08
8.963642e-08
8.9636427e-08
8.9636406e-08
8.9636336e-08
8.9636226e-08
8.9636103e-08
8.9635995e-08
8.9635888e-08
8.9635734e-08
8.9635517e-08
8.9635283e-08
8.9635103e-08
8.9635014e-08
8.9634968e-08
8.9634546e-08
8.9632377e-08
8.9626098e-08
8.9615642e-08
8.9613908e-08
8.9663469e-08
8.9849182e-08
9.0265445e-08
9.0861463e-08
9.106767e-08
8.9172819e-08
8.1789433e-08
6.3472322e-08
3.3322854e-08
7.9672105e-09
7.7176962e-10
3.1340611e-10
9.0362683e-08
9.0363296e-08
9.0364245e-08
9.0365118e-08
9.036595e-08
9.0366783e-08
9.0367628e-08
9.0368475e-08
9.0369301e-08
9.037009e-08
9.0370847e-08
9.03716e-08
9.0372381e-08
9.0373211e-08
9.0374086e-08
9.0375007e-08
9.037592e-08
9.0376723e-08
9.037739e-08
9.0377987e-08
9.0378591e-08
9.0379183e-08
9.0379653e-08
9.0379864e-08
9.0379625e-08
9.0379115e-08
9.0378786e-08
9.0378731e-08
9.0378736e-08
9.0378748e-08
9.0378733e-08
9.0378671e-08
9.0378571e-08
9.0378459e-08
9.0378372e-08
9.0378303e-08
9.0378199e-08
9.0378027e-08
9.037783e-08
9.0377687e-08
9.0377627e-08
9.0377634e-08
9.0377498e-08
9.0376357e-08
9.0372056e-08
9.0362367e-08
9.0353378e-08
9.0374662e-08
9.0499455e-08
9.0837921e-08
9.1429975e-08
9.1921835e-08
9.0914158e-08
8.507298e-08
6.9180404e-08
3.9195159e-08
1.0202563e-08
9.4243986e-10
2.9058029e-10
9.1201362e-08
9.1202052e-08
9.1202966e-08
9.12038e-08
9.1204589e-08
9.1205381e-08
9.120618e-08
9.1206972e-08
9.1207734e-08
9.120845e-08
9.1209132e-08
9.1209816e-08
9.121054e-08
9.1211319e-08
9.1212144e-08
9.1213017e-08
9.1213867e-08
9.1214569e-08
9.121513e-08
9.1215648e-08
9.1216199e-08
9.1216745e-08
9.1217166e-08
9.1217342e-08
9.1216926e-08
9.1216351e-08
9.1216031e-08
9.1216009e-08
9.121602e-08
9.1216036e-08
9.1216029e-08
9.1215977e-08
9.1215892e-08
9.1215796e-08
9.1215731e-08
9.121571e-08
9.1215671e-08
9.1215557e-08
9.1215404e-08
9.1215308e-08
9.1215306e-08
9.1215375e-08
9.1215403e-08
9.1214978e-08
9.1212542e-08
9.1204974e-08
9.1193259e-08
9.1194688e-08
9.1265736e-08
9.1516323e-08
9.2050481e-08
9.2707045e-08
9.2441957e-08
8.8324112e-08
7.4931942e-08
4.5940955e-08
1.32091e-08
1.1837786e-09
2.7704648e-10
9.2151527e-08
9.2152286e-08
9.2153171e-08
9.2153953e-08
9.2154687e-08
9.2155421e-08
9.2156157e-08
9.215688e-08
9.2157559e-08
9.2158181e-08
9.2158771e-08
9.2159373e-08
9.2160028e-08
9.2160748e-08
9.2161513e-08
9.2162317e-08
9.2163076e-08
9.2163645e-08
9.2164069e-08
9.2164502e-08
9.2164998e-08
9.21655e-08
9.2165863e-08
9.216599e-08
9.2165313e-08
9.2164697e-08
9.2164421e-08
9.2164414e-08
9.216443e-08
9.216445e-08
9.2164456e-08
9.2164417e-08
9.2164352e-08
9.2164276e-08
9.2164229e-08
9.216427e-08
9.2164323e-08
9.216428e-08
9.2164168e-08
9.2164122e-08
9.216421e-08
9.2164387e-08
9.216454e-08
9.2164526e-08
9.2163491e-08
9.2158673e-08
9.214776e-08
9.213804e-08
9.2166786e-08
9.2329473e-08
9.2766036e-08
9.3479558e-08
9.3779363e-08
9.1214583e-08
8.0592611e-08
5.3525069e-08
1.7266559e-08
1.5302273e-09
2.7909209e-10
9.3229615e-08
9.323055e-08
9.3231416e-08
9.3232141e-08
9.3232823e-08
9.3233508e-08
9.3234193e-08
9.3234855e-08
9.3235453e-08
9.323598e-08
9.3236474e-08
9.3236994e-08
9.3237585e-08
9.3238253e-08
9.3238978e-08
9.3239719e-08
9.3240373e-08
9.3240803e-08
9.3241068e-08
9.3241406e-08
9.3241872e-08
9.3242357e-08
9.3242684e-08
9.3242683e-08
9.3241717e-08
9.324112e-08
9.3240926e-08
9.3240911e-08
9.3240929e-08
9.3240955e-08
9.3240981e-08
9.3240962e-08
9.324092e-08
9.3240866e-08
9.3240836e-08
9.3240943e-08
9.3241104e-08
9.3241155e-08
9.3241085e-08
9.3241097e-08
9.3241307e-08
9.3241579e-08
9.3241852e-08
9.3242079e-08
9.3241843e-08
9.3239617e-08
9.3231611e-08
9.321844e-08
9.3219028e-08
9.3303824e-08
9.3617872e-08
9.4287088e-08
9.4971564e-08
9.3768492e-08
8.5908527e-08
6.1825379e-08
2.2730024e-08
2.0948305e-09
2.9439099e-10
9.355342e-10
9.8230288e-10
1.0119045e-09
1.0331891e-09
1.0512592e-09
1.0678449e-09
1.0830395e-09
1.0965071e-09
1.1079552e-09
1.1172105e-09
1.1241309e-09
1.1285556e-09
1.1302655e-09
1.1289647e-09
1.1242619e-09
1.1156702e-09
1.1026074e-09
1.0844142e-09
1.0603813e-09
1.0297989e-09
9.9201673e-10
9.4653275e-10
8.9304506e-10
8.3171786e-10
7.6325163e-10
6.8903142e-10
6.1026658e-10
5.2853579e-10
4.4593597e-10
3.6482357e-10
2.8797454e-10
2.1577365e-10
1.5214995e-10
9.8960811e-11
5.6992727e-11
2.6760734e-11
7.9113567e-12
6.0562705e-13
2.5649601e-12
1.0498664e-11
2.5178871e-11
4.8331138e-11
7.6610552e-11
1.0666266e-10
1.3727351e-10
1.6617898e-10
1.9571373e-10
2.2440997e-10
2.5230001e-10
2.7950555e-10
3.0580626e-10
3.3073483e-10
3.5418405e-10
3.7669505e-10
3.9824227e-10
4.1862509e-10
4.3771469e-10
4.5550474e-10
4.7209372e-10
4.87563e-10
5.0192983e-10
5.1523238e-10
5.2755229e-10
5.3897989e-10
5.4959853e-10
5.594818e-10
5.6869557e-10
5.7729736e-10
5.8533856e-10
5.9286336e-10
5.9991232e-10
6.0651338e-10
6.127053e-10
6.1845435e-10
6.7708398e-10
7.3266514e-10
7.8222348e-10
8.2405797e-10
8.5839078e-10
8.8656446e-10
9.0991716e-10
9.2935853e-10
9.4544666e-10
9.5856825e-10
9.6899576e-10
9.7689232e-10
9.8230295e-10
9.8515326e-10
9.8524573e-10
9.8226516e-10
9.7578348e-10
9.652741e-10
9.5013135e-10
9.2970564e-10
9.0334898e-10
8.7049132e-10
8.3066462e-10
7.8375859e-10
7.2889815e-10
6.6613045e-10
5.9741312e-10
5.2506674e-10
4.5123285e-10
3.7799961e-10
3.0764571e-10
2.421366e-10
1.8313274e-10
1.3177317e-10
8.9737708e-11
6.0415598e-11
3.3963755e-11
1.6875439e-11
7.8914612e-12
9.0364528e-12
1.4749249e-11
2.6128505e-11
4.1883428e-11
6.08891e-11
8.18557e-11
1.0322364e-10
1.2516318e-10
1.4713003e-10
1.6880285e-10
1.9004685e-10
2.1074784e-10
2.3067267e-10
2.4964183e-10
2.6771259e-10
2.8493561e-10
3.0130018e-10
3.1677236e-10
3.3132568e-10
3.4497903e-10
3.5777111e-10
3.6972819e-10
3.8087624e-10
3.9125012e-10
4.008918e-10
4.0984668e-10
4.1816114e-10
4.2587967e-10
4.3304571e-10
4.3969881e-10
4.458769e-10
4.5161447e-10
4.569423e-10
4.6189648e-10
4.6648374e-10
1.5509634e-09
1.3170477e-09
1.1296095e-09
9.8966593e-10
8.9197452e-10
8.2717561e-10
7.9077697e-10
7.7789604e-10
7.8154375e-10
7.9518612e-10
8.1398697e-10
8.3445762e-10
8.541596e-10
8.7152134e-10
8.8562507e-10
8.9600457e-10
9.0243158e-10
9.0475831e-10
9.0280729e-10
8.9629955e-10
8.8489294e-10
8.6818302e-10
8.4571001e-10
8.1714598e-10
7.8200243e-10
7.3987693e-10
6.9104592e-10
6.3643962e-10
5.7740783e-10
5.1552197e-10
4.5254445e-10
3.9021599e-10
3.303741e-10
2.7350939e-10
2.2329969e-10
1.7825598e-10
1.4021431e-10
1.0913941e-10
8.374013e-11
6.6129883e-11
5.3126094e-11
4.8900089e-11
4.9258276e-11
5.2689452e-11
5.8766352e-11
6.6751281e-11
7.6196941e-11
8.6347331e-11
9.7344735e-11
1.0892353e-10
1.2082021e-10
1.3281332e-10
1.4470952e-10
1.5637332e-10
1.6771437e-10
1.7866838e-10
1.8918752e-10
1.9923681e-10
2.0879465e-10
2.1785162e-10
2.2640657e-10
2.344639e-10
2.4203354e-10
2.4912915e-10
2.5576742e-10
2.6196734e-10
2.6774927e-10
2.7313445e-10
2.781444e-10
2.8280054e-10
2.8712406e-10
2.911347e-10
2.948553e-10
2.9829183e-10
6.5704133e-09
4.7636423e-09
3.5284415e-09
2.7151149e-09
2.1886111e-09
1.8275125e-09
1.5488558e-09
1.3103335e-09
1.1317384e-09
9.9890248e-10
9.0398634e-10
8.4209962e-10
8.0729498e-10
7.9330302e-10
7.9369303e-10
8.0334926e-10
8.1809832e-10
8.3475565e-10
8.5051578e-10
8.6187031e-10
8.6804661e-10
8.6925864e-10
8.6556527e-10
8.5688375e-10
8.43017e-10
8.2368946e-10
7.9873183e-10
7.682337e-10
7.3260226e-10
6.9251938e-10
6.4890192e-10
6.0281674e-10
5.5549626e-10
5.079322e-10
4.6115781e-10
4.1584002e-10
3.7313888e-10
3.3426207e-10
2.9634381e-10
2.6562363e-10
2.3804722e-10
2.1404411e-10
1.9455475e-10
1.7915372e-10
1.6776679e-10
1.5806102e-10
1.5301352e-10
1.4993718e-10
1.4809238e-10
1.4725823e-10
1.4729691e-10
1.4805111e-10
1.4936915e-10
1.5112217e-10
1.5320627e-10
1.5553329e-10
1.5802892e-10
1.6063077e-10
1.6328791e-10
1.6595728e-10
1.6860896e-10
1.7117976e-10
1.7370736e-10
1.7617846e-10
1.7857623e-10
1.8088841e-10
1.8310612e-10
1.8522343e-10
1.8723691e-10
1.8914496e-10
1.909478e-10
1.9264587e-10
1.9424478e-10
1.9573114e-10
2.1680719e-08
1.6269625e-08
1.1966249e-08
8.7237841e-09
6.3750696e-09
4.7667088e-09
3.6716737e-09
2.8965291e-09
2.3616823e-09
1.9765429e-09
1.6856677e-09
1.4562062e-09
1.2568285e-09
1.1065249e-09
9.9182009e-10
9.089676e-10
8.536932e-10
8.2062741e-10
8.0912971e-10
8.1336521e-10
8.2689313e-10
8.4250059e-10
8.5547807e-10
8.6499631e-10
8.7093538e-10
8.7314792e-10
8.7141601e-10
8.6552634e-10
8.5536236e-10
8.409668e-10
8.2256217e-10
8.0054826e-10
7.7546628e-10
7.4801487e-10
7.1876659e-10
6.8836522e-10
6.5744426e-10
6.2324418e-10
5.9316278e-10
5.6572956e-10
5.3886818e-10
5.1223801e-10
4.8704817e-10
4.645255e-10
4.4468284e-10
4.2658241e-10
4.1066449e-10
3.9707487e-10
3.855619e-10
3.7542649e-10
3.665083e-10
3.5873291e-10
3.5172959e-10
3.4557409e-10
3.4023655e-10
3.3562861e-10
3.3166361e-10
3.2823945e-10
3.2534031e-10
3.225711e-10
3.2049621e-10
3.1871937e-10
3.1715777e-10
3.157919e-10
3.1457472e-10
3.1351542e-10
3.1258672e-10
3.11772e-10
3.1105807e-10
3.1043311e-10
3.0988677e-10
3.0940934e-10
3.0899444e-10
3.0862732e-10
4.3674261e-08
3.5549103e-08
2.809358e-08
2.1689259e-08
1.6439684e-08
1.2329674e-08
9.241052e-09
6.9517642e-09
5.2956089e-09
4.1096271e-09
3.2753813e-09
2.6713496e-09
2.2310069e-09
1.9020839e-09
1.6485437e-09
1.4445983e-09
1.267146e-09
1.1276259e-09
1.017686e-09
9.3440009e-10
8.7993811e-10
8.5263121e-10
8.4459609e-10
8.4991992e-10
8.6163952e-10
8.737658e-10
8.8465152e-10
8.9370719e-10
9.0055301e-10
9.0487758e-10
9.0648003e-10
9.0529727e-10
9.0139145e-10
8.9496748e-10
8.8632402e-10
8.7569534e-10
8.6388227e-10
8.5143921e-10
8.3723161e-10
8.2224544e-10
8.0719254e-10
7.920844e-10
7.7692214e-10
7.6153776e-10
7.4617141e-10
7.3113025e-10
7.1742025e-10
7.049788e-10
6.9372624e-10
6.8353867e-10
6.7431276e-10
6.6595714e-10
6.5831406e-10
6.5130667e-10
6.4488553e-10
6.3900686e-10
6.3362961e-10
6.287145e-10
6.2422232e-10
6.2007105e-10
6.1628804e-10
6.1285686e-10
6.097483e-10
6.0693336e-10
6.0438443e-10
6.0207839e-10
5.999931e-10
5.9810827e-10
5.9640574e-10
5.9486908e-10
5.9348317e-10
5.9223476e-10
5.9111005e-10
5.9010293e-10
6.3400026e-08