/*--------------------------------*- C++ -*----------------------------------*\
| =========                 |                                                 |
| \\      /  F ield         | OpenFOAM: The Open Source CFD Toolbox           |
|  \\    /   O peration     | Version:  v2006                                 |
|   \\  /    A nd           | Website:  www.openfoam.com                      |
|    \\/     M anipulation  |                                                 |
\*---------------------------------------------------------------------------*/
FoamFile
{
    version     2.0;
    format      ascii;
    class       volScalarField;
    location    "1000";
    object      nutMean;
}
// * * * * * * * * * * * * * * * * * * * * * * * * * * * * * * * * * * * * * //

dimensions      [0 2 -1 0 0 0 0];


internalField   nonuniform List<scalar> 
55713
(
5.8792712e-10
3.3626241e-09
2.9241082e-08
6.9388669e-08
8.9486467e-08
9.5530429e-08
9.5821928e-08
9.5015677e-08
9.4471545e-08
9.4268819e-08
9.4233658e-08
9.4243909e-08
9.4254927e-08
9.425966e-08
9.4261086e-08
9.4261381e-08
9.4261212e-08
9.426122e-08
9.426137e-08
9.4261135e-08
9.4260456e-08
9.4259623e-08
9.4258803e-08
9.4258107e-08
9.4257584e-08
9.4257277e-08
9.4257144e-08
9.4257055e-08
9.4256898e-08
9.4256713e-08
9.4256512e-08
9.4256289e-08
9.4256087e-08
9.4256113e-08
9.4256601e-08
9.4257656e-08
9.4258489e-08
9.4258514e-08
9.4257997e-08
9.4257027e-08
9.4255908e-08
9.4254808e-08
9.4253591e-08
9.4252169e-08
9.425068e-08
9.4249228e-08
9.4247867e-08
9.4246658e-08
9.4245604e-08
9.424463e-08
9.4243681e-08
9.4242747e-08
9.4241816e-08
9.4240899e-08
9.4239998e-08
9.4239158e-08
9.4238386e-08
9.4237364e-08
9.423599e-08
6.9370745e-10
4.6820114e-09
3.6335238e-08
7.6216025e-08
9.2903617e-08
9.6845363e-08
9.6532277e-08
9.5740404e-08
9.5321034e-08
9.5196168e-08
9.518763e-08
9.5200208e-08
9.5208096e-08
9.5210579e-08
9.5211045e-08
9.5210756e-08
9.5210046e-08
9.5209704e-08
9.5209487e-08
9.5208779e-08
9.5207636e-08
9.5206407e-08
9.5205212e-08
9.5204175e-08
9.520334e-08
9.5202733e-08
9.5202283e-08
9.5201852e-08
9.5201362e-08
9.5200842e-08
9.5200305e-08
9.519974e-08
9.5199162e-08
9.5198785e-08
9.5198847e-08
9.5199637e-08
9.5200331e-08
9.520008e-08
9.5199272e-08
9.5197949e-08
9.5196438e-08
9.5194975e-08
9.5193434e-08
9.5191623e-08
9.5189696e-08
9.5187795e-08
9.5185972e-08
9.5184286e-08
9.518275e-08
9.5181283e-08
9.5179809e-08
9.5178323e-08
9.517681e-08
9.5175273e-08
9.5173699e-08
9.5172105e-08
9.5170545e-08
9.5168701e-08
9.5166347e-08
8.3406718e-10
6.4961288e-09
4.3924854e-08
8.2284158e-08
9.5565034e-08
9.7927286e-08
9.7268616e-08
9.6554793e-08
9.6251431e-08
9.6184567e-08
9.6191061e-08
9.6202434e-08
9.6207001e-08
9.6207858e-08
9.6207781e-08
9.6206836e-08
9.6205662e-08
9.6204983e-08
9.620437e-08
9.6203159e-08
9.6201605e-08
9.6199994e-08
9.6198445e-08
9.6197092e-08
9.6195971e-08
9.6195085e-08
9.6194326e-08
9.619357e-08
9.6192762e-08
9.6191927e-08
9.6191071e-08
9.6190185e-08
9.618928e-08
9.6188479e-08
9.6188177e-08
9.6188633e-08
9.6189205e-08
9.6188763e-08
9.6187695e-08
9.6186063e-08
9.6184178e-08
9.6182363e-08
9.6180538e-08
9.6178385e-08
9.6176049e-08
9.6173723e-08
9.6171468e-08
9.6169336e-08
9.6167354e-08
9.6165437e-08
9.616349e-08
9.6161499e-08
9.6159455e-08
9.6157357e-08
9.6155184e-08
9.6152909e-08
9.6150633e-08
9.614806e-08
9.6144798e-08
1.0249571e-09
8.9402008e-09
5.2044634e-08
8.773215e-08
9.7798664e-08
9.8896076e-08
9.8056652e-08
9.746459e-08
9.7266262e-08
9.7240151e-08
9.72524e-08
9.7260248e-08
9.7261988e-08
9.7262049e-08
9.726149e-08
9.7259965e-08
9.7258386e-08
9.725743e-08
9.7256399e-08
9.725474e-08
9.7252804e-08
9.7250823e-08
9.7248949e-08
9.7247319e-08
9.7245951e-08
9.724481e-08
9.724376e-08
9.7242704e-08
9.7241602e-08
9.7240479e-08
9.7239331e-08
9.7238152e-08
9.7236948e-08
9.7235801e-08
9.7235105e-08
9.7235245e-08
9.7235679e-08
9.7235127e-08
9.7233839e-08
9.7231942e-08
9.7229714e-08
9.7227557e-08
9.7225478e-08
9.7223054e-08
9.7220346e-08
9.7217622e-08
9.7214967e-08
9.7212422e-08
9.7210028e-08
9.7207702e-08
9.720533e-08
9.7202881e-08
9.7200351e-08
9.7197741e-08
9.7195028e-08
9.719214e-08
9.7189191e-08
9.7185976e-08
9.7181878e-08
1.2867513e-09
1.2127605e-08
6.0462777e-08
9.2434692e-08
9.9638692e-08
9.9804699e-08
9.8928999e-08
9.8478968e-08
9.836492e-08
9.8363066e-08
9.8374637e-08
9.8378434e-08
9.8378556e-08
9.8378266e-08
9.8377133e-08
9.8375052e-08
9.8373126e-08
9.8371953e-08
9.8370515e-08
9.8368441e-08
9.8366141e-08
9.8363807e-08
9.8361649e-08
9.835979e-08
9.8358211e-08
9.835684e-08
9.8355521e-08
9.8354194e-08
9.8352828e-08
9.8351448e-08
9.8350039e-08
9.83486e-08
9.8347132e-08
9.8345694e-08
9.8344628e-08
9.8344444e-08
9.8344731e-08
9.8344168e-08
9.8342711e-08
9.8340593e-08
9.8338061e-08
9.833558e-08
9.8333276e-08
9.833067e-08
9.8327643e-08
9.8324558e-08
9.8321544e-08
9.8318629e-08
9.8315869e-08
9.8313189e-08
9.8310454e-08
9.8307613e-08
9.8304662e-08
9.8301607e-08
9.8298432e-08
9.8295027e-08
9.8291478e-08
9.8287731e-08
9.8282898e-08
1.6520281e-09
1.6277457e-08
6.8950461e-08
9.5988665e-08
1.0118386e-07
1.0071422e-07
9.9910043e-08
9.9601043e-08
9.9547349e-08
9.9556533e-08
9.9563956e-08
9.9564796e-08
9.956417e-08
9.9563623e-08
9.9561849e-08
9.9559224e-08
9.9557087e-08
9.9555734e-08
9.955391e-08
9.9551461e-08
9.9548806e-08
9.9546153e-08
9.954377e-08
9.9541736e-08
9.9539987e-08
9.953841e-08
9.9536853e-08
9.9535292e-08
9.9533697e-08
9.9532098e-08
9.9530467e-08
9.9528807e-08
9.9527116e-08
9.9525436e-08
9.9524054e-08
9.9523541e-08
9.9523682e-08
9.9523196e-08
9.9521643e-08
9.9519358e-08
9.9516573e-08
9.9513788e-08
9.9511283e-08
9.9508589e-08
9.9505321e-08
9.950192e-08
9.9498599e-08
9.9495367e-08
9.9492297e-08
9.9489325e-08
9.94863e-08
9.9483148e-08
9.9479855e-08
9.947643e-08
9.947288e-08
9.9469074e-08
9.9465009e-08
9.9460862e-08
9.9455411e-08
2.1720848e-09
2.1585774e-08
7.7150401e-08
9.8847933e-08
1.024506e-07
1.0166344e-07
1.0101825e-07
1.0083173e-07
1.0081552e-07
1.0082545e-07
1.0082875e-07
1.0082781e-07
1.0082701e-07
1.0082612e-07
1.0082368e-07
1.0082056e-07
1.0081837e-07
1.0081686e-07
1.0081469e-07
1.0081191e-07
1.008089e-07
1.0080599e-07
1.0080345e-07
1.0080131e-07
1.0079943e-07
1.0079767e-07
1.0079592e-07
1.0079417e-07
1.0079239e-07
1.0079062e-07
1.0078881e-07
1.0078698e-07
1.0078512e-07
1.0078325e-07
1.0078161e-07
1.0078079e-07
1.0078078e-07
1.0078045e-07
1.0077891e-07
1.0077653e-07
1.0077355e-07
1.0077049e-07
1.0076781e-07
1.0076512e-07
1.0076172e-07
1.0075807e-07
1.007545e-07
1.0075102e-07
1.0074771e-07
1.0074452e-07
1.0074129e-07
1.0073793e-07
1.0073439e-07
1.007307e-07
1.0072687e-07
1.0072281e-07
1.0071834e-07
1.0071395e-07
1.0070802e-07
2.9408307e-09
2.8258155e-08
8.5064231e-08
1.0185024e-07
1.0357608e-07
1.0272111e-07
1.0226632e-07
1.0216999e-07
1.0217335e-07
1.0217894e-07
1.0217912e-07
1.0217732e-07
1.0217665e-07
1.0217527e-07
1.0217216e-07
1.0216868e-07
1.0216658e-07
1.0216496e-07
1.0216249e-07
1.0215938e-07
1.0215604e-07
1.0215296e-07
1.0215038e-07
1.0214818e-07
1.0214621e-07
1.0214432e-07
1.0214243e-07
1.0214054e-07
1.0213864e-07
1.0213674e-07
1.0213482e-07
1.0213287e-07
1.021309e-07
1.0212891e-07
1.0212708e-07
1.0212599e-07
1.0212583e-07
1.0212572e-07
1.0212434e-07
1.0212195e-07
1.0211884e-07
1.0211557e-07
1.0211274e-07
1.0211014e-07
1.0210677e-07
1.0210293e-07
1.020992e-07
1.0209555e-07
1.0209209e-07
1.0208878e-07
1.0208545e-07
1.02082e-07
1.0207834e-07
1.0207452e-07
1.0207052e-07
1.0206638e-07
1.0206164e-07
1.0205719e-07
1.0205098e-07
4.1214294e-09
3.6478228e-08
9.2177841e-08
1.0417798e-07
1.0471407e-07
1.0394874e-07
1.0365766e-07
1.0361935e-07
1.0362701e-07
1.0362816e-07
1.0362686e-07
1.0362483e-07
1.0362438e-07
1.0362236e-07
1.0361862e-07
1.0361499e-07
1.0361311e-07
1.0361145e-07
1.0360873e-07
1.0360527e-07
1.0360167e-07
1.0359856e-07
1.0359602e-07
1.0359384e-07
1.0359182e-07
1.0358986e-07
1.0358789e-07
1.0358594e-07
1.0358397e-07
1.0358202e-07
1.0358005e-07
1.0357807e-07
1.0357605e-07
1.0357403e-07
1.035721e-07
1.0357081e-07
1.0357051e-07
1.0357064e-07
1.0356964e-07
1.0356736e-07
1.035642e-07
1.0356078e-07
1.0355784e-07
1.035554e-07
1.0355223e-07
1.0354835e-07
1.0354454e-07
1.0354084e-07
1.0353733e-07
1.0353403e-07
1.0353073e-07
1.0352733e-07
1.0352371e-07
1.0351992e-07
1.0351589e-07
1.0351187e-07
1.0350707e-07
1.0350277e-07
1.0349651e-07
5.9657034e-09
4.6377512e-08
9.8478677e-08
1.0621125e-07
1.0596172e-07
1.0535242e-07
1.0519081e-07
1.0518496e-07
1.0518964e-07
1.051874e-07
1.0518583e-07
1.0518382e-07
1.0518359e-07
1.0518084e-07
1.0517657e-07
1.0517304e-07
1.0517151e-07
1.0516996e-07
1.0516696e-07
1.0516313e-07
1.0515943e-07
1.0515645e-07
1.0515406e-07
1.0515196e-07
1.0514997e-07
1.05148e-07
1.0514604e-07
1.0514411e-07
1.0514217e-07
1.0514025e-07
1.0513832e-07
1.0513639e-07
1.0513443e-07
1.0513246e-07
1.0513055e-07
1.0512915e-07
1.0512873e-07
1.0512911e-07
1.0512871e-07
1.0512676e-07
1.0512361e-07
1.0512014e-07
1.0511717e-07
1.0511496e-07
1.0511218e-07
1.0510842e-07
1.0510468e-07
1.0510106e-07
1.0509764e-07
1.0509451e-07
1.0509137e-07
1.0508822e-07
1.0508481e-07
1.0508129e-07
1.0507742e-07
1.0507373e-07
1.0506915e-07
1.0506522e-07
1.0505921e-07
8.6969557e-09
5.8010788e-08
1.0371229e-07
1.0802318e-07
1.0736548e-07
1.0694379e-07
1.0687086e-07
1.0687754e-07
1.0687671e-07
1.0687296e-07
1.0687209e-07
1.0687003e-07
1.0687005e-07
1.0686656e-07
1.0686198e-07
1.0685882e-07
1.0685786e-07
1.0685653e-07
1.0685312e-07
1.0684896e-07
1.0684543e-07
1.0684278e-07
1.0684063e-07
1.0683869e-07
1.068368e-07
1.0683495e-07
1.068331e-07
1.0683129e-07
1.0682949e-07
1.0682771e-07
1.0682592e-07
1.0682415e-07
1.0682236e-07
1.0682058e-07
1.068188e-07
1.0681741e-07
1.0681693e-07
1.0681756e-07
1.0681798e-07
1.0681668e-07
1.0681362e-07
1.0681021e-07
1.0680733e-07
1.0680542e-07
1.0680323e-07
1.0679982e-07
1.0679634e-07
1.0679298e-07
1.067898e-07
1.0678707e-07
1.0678428e-07
1.0678159e-07
1.0677861e-07
1.0677563e-07
1.0677218e-07
1.0676906e-07
1.0676509e-07
1.0676175e-07
1.0675638e-07
1.2633272e-08
7.1378206e-08
1.0718018e-07
1.0965977e-07
1.0896743e-07
1.0872798e-07
1.0870448e-07
1.0871111e-07
1.0870628e-07
1.0870311e-07
1.087035e-07
1.0870101e-07
1.0870158e-07
1.0869725e-07
1.0869273e-07
1.0869029e-07
1.0869026e-07
1.0868915e-07
1.0868512e-07
1.0868087e-07
1.0867784e-07
1.0867571e-07
1.0867391e-07
1.0867223e-07
1.0867057e-07
1.0866896e-07
1.0866737e-07
1.0866582e-07
1.0866428e-07
1.0866278e-07
1.0866128e-07
1.0865981e-07
1.0865833e-07
1.0865687e-07
1.0865541e-07
1.0865417e-07
1.0865369e-07
1.086546e-07
1.0865597e-07
1.0865576e-07
1.0865295e-07
1.0864968e-07
1.0864707e-07
1.0864552e-07
1.0864422e-07
1.0864138e-07
1.0863841e-07
1.0863554e-07
1.0863277e-07
1.086307e-07
1.0862848e-07
1.0862653e-07
1.0862425e-07
1.0862206e-07
1.0861946e-07
1.086171e-07
1.0861422e-07
1.0861168e-07
1.0860742e-07
1.8193389e-08
8.6371959e-08
1.0954399e-07
1.111897e-07
1.1078966e-07
1.1070174e-07
1.1069787e-07
1.1069927e-07
1.1069501e-07
1.1069342e-07
1.1069518e-07
1.1069198e-07
1.1069341e-07
1.1068855e-07
1.1068465e-07
1.1068336e-07
1.1068451e-07
1.1068347e-07
1.1067891e-07
1.1067518e-07
1.10673e-07
1.106715e-07
1.1067016e-07
1.1066889e-07
1.1066765e-07
1.1066646e-07
1.1066529e-07
1.1066417e-07
1.1066307e-07
1.1066201e-07
1.1066097e-07
1.1065997e-07
1.1065897e-07
1.1065801e-07
1.1065706e-07
1.1065622e-07
1.1065588e-07
1.1065695e-07
1.1065927e-07
1.1066039e-07
1.1065814e-07
1.1065528e-07
1.1065311e-07
1.1065204e-07
1.1065181e-07
1.1064981e-07
1.1064773e-07
1.1064565e-07
1.1064354e-07
1.1064235e-07
1.1064102e-07
1.1064001e-07
1.1063875e-07
1.1063761e-07
1.1063622e-07
1.1063495e-07
1.1063345e-07
1.1063214e-07
1.1062945e-07
2.547514e-08
1.0266228e-07
1.1275861e-07
1.1293861e-07
1.1284829e-07
1.1284161e-07
1.1284257e-07
1.1284163e-07
1.128388e-07
1.1283852e-07
1.1284077e-07
1.1283764e-07
1.1283892e-07
1.1283537e-07
1.1283291e-07
1.12833e-07
1.1283478e-07
1.1283393e-07
1.1283011e-07
1.1282802e-07
1.1282705e-07
1.1282634e-07
1.1282567e-07
1.1282505e-07
1.1282445e-07
1.128239e-07
1.1282337e-07
1.1282289e-07
1.1282243e-07
1.1282201e-07
1.1282162e-07
1.1282127e-07
1.1282094e-07
1.1282065e-07
1.1282038e-07
1.1282016e-07
1.1282013e-07
1.1282083e-07
1.1282348e-07
1.1282532e-07
1.1282409e-07
1.1282244e-07
1.1282122e-07
1.1282091e-07
1.1282129e-07
1.1282081e-07
1.1282021e-07
1.1281938e-07
1.1281854e-07
1.1281837e-07
1.1281833e-07
1.1281839e-07
1.128184e-07
1.1281846e-07
1.1281847e-07
1.1281856e-07
1.1281862e-07
1.1281869e-07
1.1281824e-07
8.5561037e-08
8.5557502e-08
8.5555238e-08
8.555681e-08
8.5557181e-08
8.5557866e-08
8.5558443e-08
8.5559124e-08
8.5559884e-08
8.5560704e-08
8.5561548e-08
8.5562414e-08
8.5563337e-08
8.5564374e-08
8.5565542e-08
8.5566799e-08
8.556805e-08
8.5569232e-08
8.5570324e-08
8.557134e-08
8.557226e-08
8.557301e-08
8.5573469e-08
8.5573555e-08
8.557329e-08
8.5572819e-08
8.5572334e-08
8.5571978e-08
8.5571818e-08
8.5571835e-08
8.5571932e-08
8.5572038e-08
8.5572181e-08
8.5572412e-08
8.5572729e-08
8.5573082e-08
8.5573394e-08
8.5573558e-08
8.5573496e-08
8.5573102e-08
8.557183e-08
8.5568231e-08
8.5560989e-08
8.5553838e-08
8.5565593e-08
8.5640467e-08
8.5842015e-08
8.6202006e-08
8.6595223e-08
8.6536721e-08
8.4952915e-08
8.004538e-08
6.9178612e-08
5.0520615e-08
2.7015297e-08
8.8110338e-09
2.0072905e-09
7.7180579e-10
1.0854877e-09
8.5851133e-08
8.5848026e-08
8.5847197e-08
8.5848329e-08
8.5848889e-08
8.5849508e-08
8.5850131e-08
8.5850835e-08
8.5851618e-08
8.5852454e-08
8.585331e-08
8.585419e-08
8.5855128e-08
8.5856179e-08
8.5857356e-08
8.5858611e-08
8.5859856e-08
8.5861033e-08
8.5862131e-08
8.5863156e-08
8.5864087e-08
8.5864841e-08
8.5865297e-08
8.5865368e-08
8.5865084e-08
8.5864595e-08
8.5864106e-08
8.5863757e-08
8.5863598e-08
8.5863605e-08
8.5863683e-08
8.5863774e-08
8.5863909e-08
8.5864138e-08
8.5864454e-08
8.5864804e-08
8.5865114e-08
8.5865279e-08
8.5865198e-08
8.5864709e-08
8.5863257e-08
8.5859606e-08
8.5852878e-08
8.5846918e-08
8.5859115e-08
8.5929883e-08
8.6118739e-08
8.6461004e-08
8.6855383e-08
8.6870455e-08
8.5504371e-08
8.099648e-08
7.081823e-08
5.2761751e-08
2.908114e-08
9.7846985e-09
2.1441523e-09
7.1150604e-10
9.763481e-10
8.6170829e-08
8.6167974e-08
8.6167691e-08
8.6168673e-08
8.6169303e-08
8.616992e-08
8.6170567e-08
8.6171288e-08
8.6172086e-08
8.6172933e-08
8.6173798e-08
8.6174685e-08
8.6175632e-08
8.617669e-08
8.6177871e-08
8.6179127e-08
8.6180373e-08
8.6181551e-08
8.6182655e-08
8.6183689e-08
8.618463e-08
8.6185391e-08
8.6185851e-08
8.6185917e-08
8.618562e-08
8.6185118e-08
8.6184624e-08
8.6184275e-08
8.6184109e-08
8.6184103e-08
8.6184167e-08
8.6184242e-08
8.6184361e-08
8.6184579e-08
8.6184893e-08
8.6185248e-08
8.6185567e-08
8.6185749e-08
8.6185706e-08
8.6185352e-08
8.6184295e-08
8.6181382e-08
8.6175175e-08
8.6167379e-08
8.6171049e-08
8.6221656e-08
8.6379286e-08
8.6696968e-08
8.7121706e-08
8.7306012e-08
8.635083e-08
8.2566217e-08
7.3426691e-08
5.622825e-08
3.2249822e-08
1.1312682e-08
2.3594819e-09
6.7087847e-10
8.7225002e-10
8.6523077e-08
8.6520589e-08
8.6520855e-08
8.6521711e-08
8.6522392e-08
8.652301e-08
8.6523677e-08
8.6524414e-08
8.6525222e-08
8.6526076e-08
8.6526945e-08
8.6527837e-08
8.6528791e-08
8.6529857e-08
8.6531046e-08
8.6532303e-08
8.6533547e-08
8.6534725e-08
8.6535834e-08
8.6536873e-08
8.6537819e-08
8.6538581e-08
8.6539034e-08
8.6539084e-08
8.6538764e-08
8.6538242e-08
8.6537744e-08
8.6537401e-08
8.6537237e-08
8.6537221e-08
8.6537272e-08
8.6537331e-08
8.6537436e-08
8.6537644e-08
8.6537957e-08
8.6538318e-08
8.653865e-08
8.6538852e-08
8.6538829e-08
8.6538524e-08
8.6537663e-08
8.6535282e-08
8.6529865e-08
8.6521894e-08
8.6520958e-08
8.6556978e-08
8.6686633e-08
8.6972409e-08
8.7399448e-08
8.7698438e-08
8.7078595e-08
8.3948821e-08
7.5803571e-08
5.958584e-08
3.5574177e-08
1.3074719e-08
2.65105e-09
6.4427878e-10
7.8492122e-10
8.6911892e-08
8.69099e-08
8.6910516e-08
8.6911319e-08
8.6912019e-08
8.6912648e-08
8.691333e-08
8.6914081e-08
8.6914896e-08
8.6915749e-08
8.6916616e-08
8.6917508e-08
8.6918467e-08
8.691954e-08
8.6920735e-08
8.6921992e-08
8.6923235e-08
8.6924413e-08
8.6925525e-08
8.6926568e-08
8.6927514e-08
8.6928272e-08
8.692871e-08
8.6928737e-08
8.6928387e-08
8.6927843e-08
8.6927341e-08
8.6927008e-08
8.6926848e-08
8.6926827e-08
8.6926865e-08
8.692691e-08
8.6926998e-08
8.6927196e-08
8.6927507e-08
8.6927877e-08
8.6928226e-08
8.6928453e-08
8.692846e-08
8.6928213e-08
8.6927546e-08
8.6925687e-08
8.6921092e-08
8.6913179e-08
8.6908239e-08
8.6930429e-08
8.7031684e-08
8.7280985e-08
8.7698192e-08
8.8092758e-08
8.7792588e-08
8.5323281e-08
7.8228429e-08
6.3147544e-08
3.931746e-08
1.520132e-08
3.0601604e-09
6.3226767e-10
7.0707549e-10
8.7341894e-08
8.7340555e-08
8.7341395e-08
8.7342175e-08
8.7342877e-08
8.7343517e-08
8.7344213e-08
8.7344971e-08
8.7345786e-08
8.7346633e-08
8.7347495e-08
8.7348382e-08
8.7349344e-08
8.7350423e-08
8.7351623e-08
8.735288e-08
8.7354119e-08
8.7355297e-08
8.735641e-08
8.7357452e-08
8.7358394e-08
8.7359142e-08
8.7359558e-08
8.7359551e-08
8.7359164e-08
8.7358592e-08
8.7358086e-08
8.7357767e-08
8.7357617e-08
8.7357592e-08
8.735762e-08
8.7357651e-08
8.7357722e-08
8.7357907e-08
8.7358217e-08
8.7358597e-08
8.7358966e-08
8.7359224e-08
8.7359265e-08
8.7359061e-08
8.7358538e-08
8.7357131e-08
8.7353415e-08
8.7346112e-08
8.7338685e-08
8.7349451e-08
8.7423811e-08
8.7632676e-08
8.8023959e-08
8.8481891e-08
8.8461161e-08
8.6626507e-08
8.0594655e-08
6.6814777e-08
4.3427606e-08
1.7724208e-08
3.6174196e-09
6.3842931e-10
6.4110004e-10
8.781869e-08
8.7818008e-08
8.7818965e-08
8.7819742e-08
8.7820438e-08
8.7821088e-08
8.7821792e-08
8.7822554e-08
8.7823364e-08
8.78242e-08
8.782505e-08
8.7825931e-08
8.7826892e-08
8.7827975e-08
8.7829177e-08
8.783043e-08
8.7831663e-08
8.7832837e-08
8.7833947e-08
8.7834985e-08
8.7835918e-08
8.7836647e-08
8.7837032e-08
8.7836982e-08
8.7836549e-08
8.7835945e-08
8.7835436e-08
8.7835135e-08
8.7834997e-08
8.7834972e-08
8.7834992e-08
8.7835009e-08
8.7835062e-08
8.7835233e-08
8.783554e-08
8.7835932e-08
8.7836325e-08
8.7836619e-08
8.78367e-08
8.7836538e-08
8.7836123e-08
8.7835092e-08
8.7832227e-08
8.7825868e-08
8.7817184e-08
8.7818926e-08
8.7868756e-08
8.8035359e-08
8.8387449e-08
8.8877323e-08
8.9090736e-08
8.7857388e-08
8.2837288e-08
7.0567673e-08
4.7928511e-08
2.0721202e-08
4.348226e-09
6.6514166e-10
5.8463629e-10
8.8348894e-08
8.8348762e-08
8.8349745e-08
8.835052e-08
8.8351202e-08
8.8351858e-08
8.8352566e-08
8.8353324e-08
8.8354123e-08
8.8354941e-08
8.8355774e-08
8.8356644e-08
8.8357601e-08
8.8358683e-08
8.8359882e-08
8.8361126e-08
8.8362349e-08
8.8363516e-08
8.8364619e-08
8.8365644e-08
8.8366561e-08
8.8367264e-08
8.8367609e-08
8.8367504e-08
8.8367014e-08
8.8366373e-08
8.8365863e-08
8.8365583e-08
8.8365461e-08
8.8365439e-08
8.8365451e-08
8.8365456e-08
8.8365491e-08
8.8365645e-08
8.8365948e-08
8.8366352e-08
8.8366772e-08
8.8367108e-08
8.8367237e-08
8.8367118e-08
8.8366782e-08
8.8366043e-08
8.8363956e-08
8.8358774e-08
8.8349992e-08
8.8345345e-08
8.8374019e-08
8.8498559e-08
8.8800394e-08
8.9290186e-08
8.9681376e-08
8.8993438e-08
8.5062394e-08
7.4343331e-08
5.2805346e-08
2.430219e-08
5.3138786e-09
7.1737621e-10
5.3818871e-10
8.8940303e-08
8.8940505e-08
8.8941502e-08
8.8942265e-08
8.894293e-08
8.8943584e-08
8.8944288e-08
8.8945035e-08
8.8945813e-08
8.8946606e-08
8.8947414e-08
8.8948266e-08
8.8949212e-08
8.8950288e-08
8.8951477e-08
8.8952705e-08
8.8953911e-08
8.8955066e-08
8.8956153e-08
8.8957158e-08
8.8958051e-08
8.8958719e-08
8.895901e-08
8.8958837e-08
8.8958278e-08
8.8957594e-08
8.8957085e-08
8.8956832e-08
8.8956729e-08
8.8956711e-08
8.8956717e-08
8.8956712e-08
8.8956729e-08
8.8956866e-08
8.8957162e-08
8.895758e-08
8.8958029e-08
8.8958415e-08
8.8958602e-08
8.8958533e-08
8.8958255e-08
8.895773e-08
8.8956303e-08
8.8952376e-08
8.8944421e-08
8.893599e-08
8.8947712e-08
8.9032734e-08
8.9276774e-08
8.9737066e-08
9.0248852e-08
9.0032878e-08
8.7139552e-08
7.8090069e-08
5.8020899e-08
2.8558766e-08
6.5988824e-09
8.1090376e-10
5.0109771e-10
8.9602157e-08
8.9602607e-08
8.9603585e-08
8.960432e-08
8.960496e-08
8.9605606e-08
8.9606296e-08
8.9607021e-08
8.9607767e-08
8.9608525e-08
8.9609299e-08
8.9610124e-08
8.961105e-08
8.9612111e-08
8.9613278e-08
8.9614481e-08
8.9615664e-08
8.9616797e-08
8.9617858e-08
8.9618831e-08
8.961969e-08
8.9620312e-08
8.9620534e-08
8.9620276e-08
8.961963e-08
8.96189e-08
8.9618397e-08
8.9618175e-08
8.9618093e-08
8.961808e-08
8.9618083e-08
8.9618068e-08
8.9618069e-08
8.9618187e-08
8.9618476e-08
8.9618908e-08
8.9619393e-08
8.9619835e-08
8.9620094e-08
8.9620089e-08
8.961986e-08
8.9619481e-08
8.9618573e-08
8.961584e-08
8.9609343e-08
8.9599515e-08
8.9599024e-08
8.9649388e-08
8.9832441e-08
9.0237346e-08
9.0808839e-08
9.0980776e-08
8.906182e-08
8.1703625e-08
6.3512012e-08
3.3575006e-08
8.3040409e-09
9.5148334e-10
4.7379181e-10
9.0345784e-08
9.0346394e-08
9.0347328e-08
9.0348022e-08
9.0348628e-08
9.0349252e-08
9.0349913e-08
9.0350601e-08
9.0351302e-08
9.035201e-08
9.0352738e-08
9.0353522e-08
9.0354415e-08
9.0355447e-08
9.0356581e-08
9.0357747e-08
9.0358896e-08
9.0359995e-08
9.0361014e-08
9.0361938e-08
9.036275e-08
9.0363313e-08
9.0363446e-08
9.0363082e-08
9.0362328e-08
9.036155e-08
9.0361059e-08
9.0360873e-08
9.0360812e-08
9.0360805e-08
9.0360807e-08
9.0360787e-08
9.0360773e-08
9.0360871e-08
9.0361153e-08
9.0361598e-08
9.0362124e-08
9.0362633e-08
9.036298e-08
9.0363058e-08
9.036288e-08
9.0362599e-08
9.036207e-08
9.0360361e-08
9.0355601e-08
9.0346326e-08
9.0338465e-08
9.0361e-08
9.0484922e-08
9.0815385e-08
9.1386308e-08
9.1843622e-08
9.0804206e-08
8.4973483e-08
6.9186584e-08
3.9419501e-08
1.0569552e-08
1.1499813e-09
4.5752125e-10
9.1184859e-08
9.118558e-08
9.1186458e-08
9.1187097e-08
9.1187656e-08
9.1188243e-08
9.1188856e-08
9.1189489e-08
9.1190126e-08
9.119077e-08
9.1191436e-08
9.1192162e-08
9.1193007e-08
9.1193995e-08
9.119508e-08
9.1196195e-08
9.1197299e-08
9.1198346e-08
9.1199295e-08
9.1200158e-08
9.120091e-08
9.1201391e-08
9.1201412e-08
9.1200915e-08
9.1200021e-08
9.1199205e-08
9.1198734e-08
9.1198587e-08
9.1198547e-08
9.1198546e-08
9.1198551e-08
9.1198528e-08
9.1198504e-08
9.1198584e-08
9.1198863e-08
9.1199318e-08
9.1199888e-08
9.1200477e-08
9.1200932e-08
9.1201128e-08
9.1201009e-08
9.1200798e-08
9.1200531e-08
9.1199607e-08
9.1196545e-08
9.1189134e-08
9.1178324e-08
9.1181163e-08
9.125271e-08
9.1498596e-08
9.2015918e-08
9.2639393e-08
9.2335865e-08
8.8212361e-08
7.4905828e-08
4.6125472e-08
1.3589567e-08
1.4367872e-09
4.5479403e-10
9.2135496e-08
9.213631e-08
9.2137135e-08
9.2137697e-08
9.2138198e-08
9.2138731e-08
9.2139282e-08
9.2139842e-08
9.2140399e-08
9.2140967e-08
9.2141558e-08
9.2142212e-08
9.2142994e-08
9.2143928e-08
9.2144953e-08
9.2146008e-08
9.2147053e-08
9.214802e-08
9.2148871e-08
9.2149663e-08
9.2150346e-08
9.2150715e-08
9.2150612e-08
9.214992e-08
9.2148873e-08
9.2148034e-08
9.2147601e-08
9.214749e-08
9.214747e-08
9.2147474e-08
9.2147486e-08
9.2147468e-08
9.2147439e-08
9.2147506e-08
9.2147784e-08
9.2148248e-08
9.2148858e-08
9.2149535e-08
9.2150126e-08
9.2150473e-08
9.2150455e-08
9.2150281e-08
9.2150197e-08
9.2149824e-08
9.2148158e-08
9.2143159e-08
9.2132902e-08
9.2124503e-08
9.2154563e-08
9.2315481e-08
9.2740155e-08
9.3424173e-08
9.3680838e-08
9.109388e-08
8.0536549e-08
5.3666058e-08
1.7635852e-08
1.8499698e-09
4.710083e-10
9.3214146e-08
9.3215149e-08
9.3215927e-08
9.3216401e-08
9.3216854e-08
9.3217341e-08
9.3217835e-08
9.3218326e-08
9.321881e-08
9.3219304e-08
9.3219818e-08
9.3220406e-08
9.3221136e-08
9.3222022e-08
9.3223e-08
9.3224019e-08
9.3225012e-08
9.3225871e-08
9.3226617e-08
9.3227347e-08
9.3227964e-08
9.3228208e-08
9.3227968e-08
9.3227032e-08
9.3225821e-08
9.3224992e-08
9.322463e-08
9.3224558e-08
9.3224559e-08
9.322457e-08
9.3224591e-08
9.3224592e-08
9.3224566e-08
9.3224625e-08
9.3224891e-08
9.3225369e-08
9.3226017e-08
9.3226773e-08
9.3227517e-08
9.322804e-08
9.3228171e-08
9.3228035e-08
9.3228051e-08
9.3228047e-08
9.3227353e-08
9.3224588e-08
9.3217051e-08
9.3204865e-08
9.3207035e-08
9.3292305e-08
9.3599549e-08
9.4245078e-08
9.488491e-08
9.3642598e-08
8.5823621e-08
6.1929725e-08
2.3068952e-08
2.4745245e-09
5.1332338e-10
1.1869165e-09
1.2393764e-09
1.2719501e-09
1.2959418e-09
1.3169703e-09
1.3368834e-09
1.3557397e-09
1.3731286e-09
1.3886993e-09
1.4022688e-09
1.4137014e-09
1.422917e-09
1.4297732e-09
1.4340506e-09
1.4353599e-09
1.433174e-09
1.4268109e-09
1.4155273e-09
1.3985228e-09
1.3750201e-09
1.344255e-09
1.305542e-09
1.2582974e-09
1.2020845e-09
1.1368592e-09
1.0629936e-09
9.8118662e-10
8.924403e-10
7.9834876e-10
7.0104518e-10
6.030297e-10
5.0682152e-10
4.1481366e-10
3.3001204e-10
2.5442895e-10
1.8938496e-10
1.3549804e-10
9.3190671e-11
6.2328832e-11
4.1125783e-11
2.8526579e-11
2.3548825e-11
2.5482382e-11
3.2718722e-11
4.4005911e-11
5.7853879e-11
7.3168261e-11
8.9668687e-11
1.0689458e-10
1.2467099e-10
1.4278639e-10
1.6077367e-10
1.782636e-10
1.9515642e-10
2.1144873e-10
2.2705091e-10
2.4191471e-10
2.5603348e-10
2.6940369e-10
2.8205582e-10
2.9402739e-10
3.0534588e-10
3.1603924e-10
3.2613754e-10
3.3567034e-10
3.44667e-10
3.5316054e-10
3.6118435e-10
3.6876763e-10
3.7593366e-10
3.8270949e-10
3.8911609e-10
3.9518348e-10
4.0087364e-10
8.6404996e-10
9.3587133e-10
9.9639203e-10
1.0458416e-09
1.0857219e-09
1.1183385e-09
1.1456381e-09
1.1688801e-09
1.1888119e-09
1.2059275e-09
1.2205421e-09
1.2328764e-09
1.2430423e-09
1.2510511e-09
1.2567547e-09
1.2598457e-09
1.2598368e-09
1.2561204e-09
1.2479908e-09
1.2347147e-09
1.2155473e-09
1.1897802e-09
1.156773e-09
1.1159757e-09
1.0668825e-09
1.0088699e-09
9.4200325e-10
8.6729648e-10
7.862263e-10
7.0067991e-10
6.1307126e-10
5.2604814e-10
4.4205037e-10
3.6328427e-10
2.9159634e-10
2.2889551e-10
1.7557809e-10
1.3091327e-10
9.5353137e-11
6.8850644e-11
5.0361648e-11
3.8499202e-11
3.2300821e-11
3.0624921e-11
3.3235163e-11
3.9238984e-11
4.7643883e-11
5.7855622e-11
6.9102257e-11
8.1064987e-11
9.351927e-11
1.0620607e-10
1.1887084e-10
1.3131984e-10
1.4347326e-10
1.5526571e-10
1.6662539e-10
1.7750423e-10
1.8787098e-10
1.9771458e-10
2.0703778e-10
2.1584963e-10
2.2416358e-10
2.3199625e-10
2.39366e-10
2.4629236e-10
2.5279536e-10
2.5889675e-10
2.6461752e-10
2.6997821e-10
2.7499805e-10
2.7969574e-10
2.8409501e-10
2.8819296e-10
1.7501524e-09
1.4981166e-09
1.3004766e-09
1.1575151e-09
1.0601563e-09
1.000186e-09
9.7217897e-10
9.6892738e-10
9.821978e-10
1.0051477e-09
1.032782e-09
1.0615387e-09
1.0890487e-09
1.1139127e-09
1.135443e-09
1.1533918e-09
1.1676979e-09
1.1783201e-09
1.1851014e-09
1.1877758e-09
1.1859628e-09
1.179156e-09
1.1667649e-09
1.1481774e-09
1.1227979e-09
1.0899952e-09
1.0492913e-09
1.0006206e-09
9.4437098e-10
8.8136203e-10
8.1286715e-10
7.4052493e-10
6.6623468e-10
5.9154818e-10
5.1896328e-10
4.5037498e-10
3.8721689e-10
3.3084672e-10
2.8166526e-10
2.377006e-10
2.004217e-10
1.6968724e-10
1.4575079e-10
1.2747143e-10
1.1391748e-10
1.0432803e-10
9.8059563e-11
9.4611338e-11
9.3421185e-11
9.4027765e-11
9.6043429e-11
9.9230516e-11
1.0340904e-10
1.0815185e-10
1.1318084e-10
1.1833006e-10
1.2360962e-10
1.2894144e-10
1.3419033e-10
1.3932187e-10
1.4430615e-10
1.4911781e-10
1.5373907e-10
1.5815746e-10
1.6236579e-10
1.663609e-10
1.7014234e-10
1.7371282e-10
1.7707649e-10
1.8023885e-10
1.8320705e-10
1.8598787e-10
1.8859207e-10
1.9101499e-10
6.7980574e-09
5.012958e-09
3.781222e-09
2.9756554e-09
2.4464773e-09
2.0604492e-09
1.7493051e-09
1.4962049e-09
1.3082955e-09
1.171671e-09
1.079535e-09
1.0249956e-09
1.0004649e-09
9.9803326e-10
1.0108217e-09
1.0332602e-09
1.06095e-09
1.0903682e-09
1.1173631e-09
1.1396219e-09
1.1573645e-09
1.170879e-09
1.1801813e-09
1.1850812e-09
1.1852596e-09
1.1803066e-09
1.1697735e-09
1.1532844e-09
1.1306344e-09
1.1018484e-09
1.067221e-09
1.0273212e-09
9.8299485e-10
9.352229e-10
8.8499772e-10
8.3337606e-10
7.81344e-10
7.3007961e-10
6.8006544e-10
6.3304546e-10
5.8941959e-10
5.4887657e-10
5.1271667e-10
4.8076053e-10
4.5251627e-10
4.2751265e-10
4.0553327e-10
3.8660314e-10
3.7041436e-10
3.5663572e-10
3.449039e-10
3.3490854e-10
3.2648604e-10
3.194704e-10
3.1365391e-10
3.0884607e-10
3.0488381e-10
3.0164264e-10
2.9900876e-10
2.9688372e-10
2.9518352e-10
2.9383611e-10
2.9278103e-10
2.919682e-10
2.9135574e-10
2.9090839e-10
2.9059682e-10
2.9039679e-10
2.9028865e-10
2.9025581e-10
2.902852e-10
2.9036455e-10
2.9049118e-10
2.9063423e-10
2.1820889e-08
1.6450948e-08
1.2162151e-08
8.9290392e-09
6.6231806e-09
5.0454243e-09
3.9402855e-09
3.1728011e-09
2.6301366e-09
2.2274142e-09
1.9126157e-09
1.6502375e-09
1.4425864e-09
1.2854179e-09
1.1707157e-09
1.0936659e-09
1.0480882e-09
1.0312301e-09
1.0388788e-09
1.0626548e-09
1.093162e-09
1.1231458e-09
1.1508629e-09
1.1760769e-09
1.1986448e-09
1.2183407e-09
1.2348703e-09
1.2478907e-09
1.2570501e-09
1.2620419e-09
1.2626541e-09
1.2588126e-09
1.2506067e-09
1.2383223e-09
1.22234e-09
1.2030944e-09
1.1813357e-09
1.1565028e-09
1.1299004e-09
1.1030111e-09
1.0761134e-09
1.0493908e-09
1.0226589e-09
9.9699026e-10
9.7318631e-10
9.5151274e-10
9.3188998e-10
9.1394921e-10
8.9780851e-10
8.8304611e-10
8.6953265e-10
8.5725067e-10
8.4612334e-10
8.3605169e-10
8.2695266e-10
8.1875328e-10
8.1138398e-10
8.0477815e-10
7.9887086e-10
7.9359522e-10
7.888939e-10
7.8471584e-10
7.8100866e-10
7.7772516e-10
7.7482346e-10
7.7226529e-10
7.7001764e-10
7.6805132e-10
7.6634087e-10
7.6486374e-10
7.6360081e-10
7.6253325e-10
7.6165302e-10
7.6092409e-10
4.3705397e-08
3.5605545e-08
2.8175969e-08
2.1790417e-08
1.6572989e-08
1.2514869e-08
9.4463527e-09
7.1832544e-09
5.5456713e-09
4.3817694e-09
3.5487891e-09
2.9371051e-09
2.4870267e-09
2.1429187e-09
1.8673184e-09
1.6374605e-09
1.4500501e-09
1.3043387e-09
1.1946249e-09
1.1231602e-09
1.0896596e-09
1.0850897e-09
1.1009877e-09
1.1275849e-09
1.1573616e-09
1.18771e-09
1.2177373e-09
1.2469097e-09
1.2747445e-09
1.3007893e-09
1.324641e-09
1.3459681e-09
1.3645238e-09
1.3801718e-09
1.3928921e-09
1.4027632e-09
1.4099016e-09
1.4149801e-09
1.4179404e-09
1.4188586e-09
1.4181592e-09
1.4161879e-09
1.4128655e-09
1.4082146e-09
1.402534e-09
1.3961907e-09
1.3895592e-09
1.3829816e-09
1.3766543e-09
1.370669e-09
1.3650971e-09
1.3600258e-09
1.3554178e-09
1.3512344e-09
1.34745e-09
1.3440487e-09
1.3410146e-09
1.3383398e-09
1.3359983e-09
1.3339629e-09
1.3322134e-09
1.3307317e-09
1.3294996e-09
1.3284991e-09
1.3277133e-09
1.3271251e-09
1.3267164e-09
1.3264778e-09
1.3263998e-09
1.3264735e-09
1.3266915e-09
1.3270481e-09
1.3275379e-09
1.3281637e-09