/*--------------------------------*- C++ -*----------------------------------*\
| =========                 |                                                 |
| \\      /  F ield         | OpenFOAM: The Open Source CFD Toolbox           |
|  \\    /   O peration     | Version:  v2006                                 |
|   \\  /    A nd           | Website:  www.openfoam.com                      |
|    \\/     M anipulation  |                                                 |
\*---------------------------------------------------------------------------*/
FoamFile
{
    version     2.0;
    format      ascii;
    class       volScalarField;
    location    "1000";
    object      omega;
}
// * * * * * * * * * * * * * * * * * * * * * * * * * * * * * * * * * * * * * //

dimensions      [0 0 -1 0 0 0 0];


internalField   nonuniform List<scalar> 
55713
(
5.6490432
1.3891951
0.45963118
0.2993802
0.26963203
0.26235876
0.26185727
0.26261789
0.26317672
0.26340144
0.26344839
0.26344086
0.2634294
0.26342488
0.26342565
0.26342667
0.26342657
0.2634253
0.2634237
0.26342241
0.26342157
0.26342077
0.26341967
0.26341838
0.26341713
0.26341591
0.26341459
0.26341312
0.26341145
0.26340944
0.26340728
0.26340496
0.26340256
0.26340013
0.26339768
0.26339495
0.26339169
0.26338804
0.26338424
0.26338042
0.2633767
0.26337282
0.26336821
0.26336296
0.26335767
0.2633526
0.26334755
0.26334245
0.26333733
0.26333213
0.26332673
0.26332107
0.26331518
0.2633092
0.26330309
0.26329701
0.26329133
0.26328636
0.26328182
5.153831
1.2780221
0.43870452
0.30195508
0.27780742
0.27269361
0.27278452
0.27358667
0.27405477
0.27420402
0.27421553
0.27419632
0.27418083
0.27417368
0.27417043
0.27416651
0.27416101
0.27415473
0.27414838
0.27414257
0.27413737
0.27413225
0.27412686
0.27412138
0.27411604
0.27411078
0.27410546
0.27410002
0.27409442
0.27408848
0.2740824
0.27407615
0.27406978
0.27406341
0.27405708
0.27405053
0.27404331
0.27403544
0.2740273
0.27401912
0.27401109
0.27400295
0.27399394
0.27398397
0.27397373
0.27396359
0.2739533
0.27394274
0.27393197
0.27392088
0.27390931
0.27389713
0.27388426
0.27387081
0.27385668
0.27384183
0.27382651
0.27381094
0.27379511
4.7200591
1.1860444
0.42340182
0.30680842
0.28768845
0.28412996
0.28463546
0.28543626
0.28580746
0.28588995
0.28587462
0.28584752
0.28582895
0.28581899
0.2858111
0.28580165
0.28579076
0.28577941
0.28576824
0.28575785
0.28574823
0.28573871
0.28572898
0.28571928
0.2857098
0.28570046
0.2856911
0.28568165
0.28567206
0.28566218
0.28565214
0.28564193
0.2856316
0.28562126
0.28561102
0.2856007
0.2855896
0.28557753
0.28556501
0.28555243
0.28554007
0.28552772
0.28551441
0.28549979
0.28548462
0.28546946
0.28545397
0.28543802
0.28542166
0.28540478
0.28538717
0.2853686
0.2853489
0.28532813
0.28530617
0.28528278
0.28525805
0.28523217
0.28520523
4.3380421
1.102302
0.41224675
0.3137194
0.29889118
0.29674571
0.29759209
0.29833518
0.29859794
0.29862385
0.29859008
0.29855842
0.2985376
0.29852436
0.29851135
0.29849621
0.29847997
0.29846361
0.29844765
0.29843274
0.29841875
0.29840487
0.29839084
0.29837695
0.29836339
0.29835002
0.29833665
0.29832324
0.29830973
0.29829596
0.29828203
0.29826794
0.29825369
0.2982394
0.29822527
0.2982113
0.29819652
0.29818035
0.29816348
0.2981465
0.29812984
0.29811337
0.29809595
0.29807683
0.2980568
0.29803666
0.29801607
0.29799481
0.29797297
0.29795041
0.29792688
0.29790207
0.29787567
0.2978477
0.29781805
0.29778628
0.29775226
0.2977162
0.29767828
3.9999403
1.0267079
0.40517311
0.32283401
0.31160828
0.3107049
0.31177793
0.31240922
0.31256657
0.31254997
0.31250566
0.31247117
0.31244835
0.31243124
0.31241265
0.31239174
0.31237027
0.31234904
0.31232837
0.31230907
0.3122908
0.31227261
0.31225434
0.31223636
0.3122188
0.31220149
0.31218422
0.31216696
0.31214964
0.31213211
0.31211441
0.31209655
0.31207852
0.31206041
0.31204247
0.31202497
0.31200685
0.31198676
0.31196566
0.31194434
0.31192344
0.31190304
0.31188183
0.31185852
0.31183379
0.31180882
0.31178335
0.31175699
0.31172994
0.31170196
0.31167279
0.31164208
0.31160934
0.31157447
0.31153748
0.31149776
0.31145486
0.31140909
0.31136062
3.6993633
0.95808008
0.40201056
0.33565092
0.32600624
0.32618876
0.3273534
0.32783162
0.32789896
0.32785252
0.32780416
0.32776783
0.32774271
0.32772136
0.32769682
0.32767027
0.32764387
0.32761798
0.3275928
0.32756936
0.32754702
0.32752468
0.32750235
0.32748046
0.32745908
0.327438
0.32741702
0.3273961
0.32737515
0.32735409
0.32733283
0.32731143
0.32728984
0.32726813
0.32724656
0.32722571
0.32720475
0.32718107
0.32715598
0.32713049
0.32710549
0.32708137
0.32705684
0.32702982
0.32700075
0.32697117
0.32694112
0.32691003
0.32687816
0.32684518
0.3268108
0.3267747
0.32673616
0.3266949
0.32665108
0.32660408
0.32655292
0.32649814
0.3264398
3.4310728
0.8956276
0.40271287
0.35096711
0.34255562
0.34344752
0.34450706
0.34481552
0.34481468
0.34475329
0.34470372
0.34466538
0.34463794
0.34461197
0.34458121
0.3445495
0.3445186
0.34448836
0.34445898
0.34443182
0.34440572
0.34437951
0.34435342
0.34432793
0.34430305
0.34427851
0.34425412
0.34422985
0.3442056
0.34418132
0.34415684
0.34413225
0.34410748
0.34408255
0.3440577
0.34403372
0.3440105
0.34398391
0.34395522
0.34392586
0.34389702
0.34386948
0.34384229
0.3438123
0.34377944
0.34374565
0.34371152
0.34367623
0.34364016
0.34360284
0.34356393
0.3435232
0.34347971
0.34343289
0.34338301
0.34332974
0.34327132
0.34320861
0.3431415
3.1907694
0.83868336
0.4072762
0.36642402
0.36138716
0.36264768
0.36347432
0.36363371
0.3635841
0.363519
0.36346998
0.36342946
0.36340011
0.36336896
0.36333216
0.36329619
0.36326134
0.3632272
0.36319413
0.36316389
0.3631345
0.36310488
0.36307551
0.3630469
0.36301899
0.36299148
0.36296417
0.36293704
0.36291
0.36288299
0.36285582
0.36282857
0.36280117
0.36277358
0.36274599
0.36271935
0.36269443
0.36266609
0.36263442
0.3626017
0.36256946
0.36253891
0.36250988
0.362478
0.36244229
0.36240497
0.36236749
0.36232879
0.36228946
0.36224878
0.36220634
0.36216208
0.36211486
0.36206376
0.36200896
0.36195091
0.36188671
0.36181767
0.36174346
2.9749734
0.78673344
0.41561883
0.38512327
0.38260317
0.38398421
0.38457119
0.38461639
0.38454437
0.38447909
0.3844308
0.38438784
0.38435738
0.38432038
0.38427858
0.3842397
0.38420162
0.38416422
0.38412831
0.3840959
0.3840639
0.38403154
0.38399961
0.38396861
0.38393839
0.38390862
0.38387914
0.38384989
0.3838208
0.38379181
0.38376273
0.38373363
0.3837044
0.38367499
0.38364549
0.38361692
0.38359091
0.38356254
0.38352894
0.38349361
0.3834587
0.38342589
0.38339578
0.38336371
0.38332654
0.38328679
0.38324713
0.38320613
0.38316487
0.38312229
0.38307777
0.38303154
0.38298232
0.38292889
0.38287084
0.38281014
0.38274239
0.38266931
0.38259047
2.7810283
0.73938179
0.42794186
0.40685202
0.4065297
0.40786544
0.40821436
0.40818173
0.40810351
0.40804098
0.40799431
0.40794962
0.40791874
0.40787566
0.40783093
0.40779092
0.40775062
0.40771093
0.40767345
0.4076402
0.40760652
0.40757242
0.40753901
0.40750668
0.40747522
0.40744428
0.40741369
0.40738343
0.40735338
0.40732352
0.40729367
0.40726387
0.40723401
0.40720401
0.40717386
0.40714451
0.40711832
0.40709186
0.4070583
0.40702151
0.40698497
0.40695105
0.40692095
0.40689075
0.40685433
0.40681375
0.40677378
0.40673202
0.40669075
0.40664842
0.4066039
0.40655791
0.40650911
0.40645622
0.40639744
0.40633697
0.40626905
0.40619514
0.40611529
2.6067402
0.69633167
0.44531281
0.43229822
0.43366435
0.4347712
0.43491887
0.43484863
0.43477561
0.43471731
0.43467344
0.43462848
0.43459771
0.43454962
0.43450502
0.43446634
0.43442522
0.43438474
0.43434763
0.43431537
0.43428134
0.43424699
0.4342137
0.43418164
0.43415051
0.43411995
0.43408984
0.43406016
0.43403077
0.43400168
0.43397269
0.43394387
0.43391511
0.43388631
0.43385733
0.43382897
0.43380398
0.43378143
0.43375138
0.43371487
0.43367818
0.43364496
0.43361655
0.4335903
0.43355832
0.43351903
0.43348173
0.43344134
0.43340276
0.43336389
0.43332232
0.43327972
0.43323467
0.43318636
0.43313093
0.43307441
0.43301149
0.43294108
0.43286548
2.4497467
0.65747
0.4716175
0.46251547
0.4645911
0.46532264
0.46533614
0.4652651
0.46520086
0.46514855
0.46511102
0.46506748
0.46503811
0.46498703
0.46494738
0.46491364
0.46487361
0.46483458
0.46480086
0.46477218
0.46473972
0.46470732
0.46467657
0.46464717
0.46461868
0.46459083
0.46456351
0.46453673
0.46451036
0.46448439
0.46445866
0.46443325
0.46440803
0.46438297
0.46435783
0.46433308
0.4643115
0.46429489
0.46427337
0.46423995
0.46420545
0.46417563
0.4641513
0.46413126
0.46410916
0.46407385
0.46404393
0.46400773
0.46397564
0.46394474
0.4639104
0.46387539
0.4638388
0.46380013
0.46375477
0.46370668
0.46365646
0.46359526
0.4635314
2.3088541
0.62268534
0.50600941
0.49856896
0.49999942
0.50028913
0.50024498
0.50019135
0.50014291
0.50010094
0.50007506
0.50003624
0.50001012
0.49996268
0.499933
0.49990994
0.49987314
0.49983974
0.49981364
0.49979227
0.49976434
0.49973763
0.49971309
0.49968987
0.49966744
0.49964571
0.49962459
0.4996041
0.49958412
0.49956469
0.49954566
0.49952713
0.49950895
0.49949115
0.49947354
0.49945633
0.49944175
0.49943333
0.49942471
0.49939968
0.4993719
0.49934968
0.49933242
0.49932174
0.49931405
0.49928761
0.49927187
0.49924389
0.49922362
0.49920573
0.49918479
0.49916277
0.49914113
0.49911789
0.49909137
0.49905796
0.49902982
0.4989868
0.49894464
2.1825975
0.59144701
0.54114888
0.54005523
0.54042137
0.54040865
0.54037881
0.54035006
0.54032194
0.5402969
0.54028624
0.54025898
0.5402438
0.54021271
0.54019469
0.5401891
0.5401624
0.54014297
0.54012938
0.54011929
0.54010165
0.54008695
0.54007411
0.54006219
0.5400509
0.54004031
0.54003031
0.54002097
0.54001219
0.54000404
0.53999645
0.53998948
0.53998302
0.53997711
0.53997165
0.53996672
0.53996342
0.53996507
0.53997096
0.53996287
0.53995072
0.53994242
0.53993804
0.53994082
0.53994551
0.53993922
0.53994295
0.53993302
0.53993142
0.53993175
0.53993119
0.53992961
0.5399298
0.53992897
0.53992857
0.53992212
0.53992269
0.53991312
0.53990586
0.17894692
0.17894276
0.17893947
0.17894324
0.17894526
0.17894807
0.1789508
0.17895368
0.17895661
0.17895955
0.17896248
0.17896536
0.1789682
0.17897099
0.17897375
0.17897645
0.17897908
0.17898167
0.17898419
0.17898661
0.17898885
0.17899084
0.17899256
0.17899406
0.17899542
0.17899665
0.17899764
0.17899832
0.17899873
0.17899886
0.17899868
0.17899816
0.17899733
0.17899623
0.17899487
0.17899327
0.17899143
0.17898939
0.17898718
0.17898488
0.17898285
0.17898184
0.17898239
0.17898234
0.17897205
0.17892984
0.17882482
0.17863778
0.17841047
0.17832915
0.1788665
0.18111663
0.18859963
0.21050894
0.27283318
0.45151802
0.99361174
3.180161
15.456345
0.18140266
0.18139902
0.1813984
0.18140144
0.1814039
0.18140667
0.18140951
0.18141245
0.18141544
0.18141842
0.18142137
0.18142428
0.18142713
0.18142993
0.18143269
0.1814354
0.18143806
0.18144068
0.18144324
0.18144569
0.18144793
0.18144992
0.18145163
0.18145313
0.18145451
0.18145573
0.1814567
0.18145736
0.18145774
0.18145784
0.18145762
0.18145708
0.18145623
0.18145511
0.18145374
0.18145212
0.18145029
0.18144826
0.18144607
0.18144383
0.18144188
0.18144088
0.1814412
0.18144069
0.18143024
0.18138948
0.18128836
0.18110512
0.18087173
0.18075607
0.18120966
0.1833393
0.19015036
0.21048514
0.26906905
0.43882793
0.95857127
3.0715705
14.654071
0.18412952
0.18412627
0.18412663
0.18412946
0.1841321
0.18413491
0.18413784
0.18414085
0.18414389
0.18414692
0.18414991
0.18415285
0.18415572
0.18415854
0.18416131
0.18416403
0.18416672
0.18416938
0.18417197
0.18417443
0.18417667
0.18417865
0.18418037
0.18418188
0.18418327
0.18418451
0.18418548
0.18418614
0.18418652
0.18418663
0.18418643
0.1841859
0.18418507
0.18418398
0.18418264
0.18418107
0.18417928
0.1841773
0.18417514
0.18417286
0.18417073
0.1841694
0.18416957
0.18417015
0.18416393
0.18413234
0.18404456
0.18387147
0.18362757
0.18345205
0.18374805
0.18550235
0.19133444
0.20938549
0.26269544
0.42004839
0.91040392
2.912818
13.855817
0.18716673
0.18716402
0.18716534
0.18716801
0.1871708
0.18717367
0.18717667
0.18717974
0.18718283
0.18718589
0.18718891
0.18719186
0.18719474
0.18719756
0.18720033
0.18720306
0.18720576
0.18720845
0.18721107
0.18721353
0.18721576
0.18721773
0.18721943
0.18722095
0.18722234
0.18722358
0.18722455
0.1872252
0.18722558
0.18722568
0.18722549
0.18722497
0.18722415
0.18722308
0.18722176
0.18722023
0.18721848
0.18721654
0.18721442
0.18721216
0.18720994
0.18720836
0.18720821
0.1872091
0.18720543
0.18718082
0.18710522
0.1869446
0.18669791
0.18647619
0.18664231
0.18809409
0.19312059
0.20914833
0.25752416
0.40324645
0.86505274
2.7604366
13.064919
0.19055956
0.1905576
0.19055954
0.19056217
0.19056504
0.19056797
0.19057103
0.19057414
0.19057726
0.19058035
0.19058337
0.19058632
0.1905892
0.190592
0.19059476
0.19059749
0.19060021
0.19060291
0.19060554
0.19060799
0.19061019
0.19061214
0.19061382
0.19061533
0.19061673
0.19061796
0.19061892
0.19061957
0.19061994
0.19062004
0.19061986
0.19061935
0.19061855
0.1906175
0.19061623
0.19061473
0.19061303
0.19061114
0.19060907
0.19060684
0.19060456
0.19060272
0.19060223
0.19060329
0.19060202
0.19058445
0.19052196
0.19037668
0.19013242
0.18986929
0.18990352
0.19105061
0.19530498
0.20936016
0.25276063
0.38671075
0.81984693
2.6091495
12.284503
0.19436276
0.19436181
0.19436413
0.19436676
0.19436969
0.19437267
0.19437576
0.1943789
0.19438204
0.19438512
0.19438813
0.19439106
0.19439391
0.19439669
0.19439942
0.19440213
0.19440485
0.19440755
0.19441017
0.19441259
0.19441476
0.19441666
0.19441832
0.19441981
0.1944212
0.19442242
0.19442335
0.19442398
0.19442435
0.19442446
0.19442428
0.19442379
0.19442301
0.194422
0.19442076
0.19441931
0.19441766
0.19441584
0.19441384
0.19441166
0.19440936
0.19440732
0.19440643
0.19440737
0.19440784
0.19439655
0.19434723
0.19421983
0.19398469
0.19369047
0.19360136
0.19445617
0.19801621
0.21016546
0.24876639
0.37103093
0.77553898
2.4601984
11.517731
0.19864268
0.19864272
0.19864524
0.19864792
0.19865087
0.19865389
0.198657
0.19866014
0.19866326
0.19866631
0.19866928
0.19867215
0.19867495
0.19867767
0.19868036
0.19868304
0.19868573
0.19868842
0.19869101
0.19869337
0.19869547
0.19869731
0.19869892
0.19870039
0.19870176
0.19870294
0.19870384
0.19870444
0.1987048
0.19870492
0.19870475
0.19870428
0.19870353
0.19870255
0.19870137
0.19869999
0.1986984
0.19869665
0.19869474
0.19869265
0.19869038
0.1986882
0.19868691
0.1986875
0.19868915
0.1986833
0.19864687
0.19853941
0.19831991
0.19800634
0.19780559
0.19837317
0.20143772
0.21162037
0.24559412
0.35629223
0.7323017
2.3141227
10.767587
0.20348037
0.20348109
0.20348371
0.20348644
0.20348939
0.20349242
0.20349552
0.20349862
0.20350168
0.20350465
0.20350754
0.20351032
0.20351302
0.20351566
0.20351827
0.20352088
0.20352353
0.20352617
0.20352868
0.20353094
0.20353294
0.2035347
0.20353625
0.20353767
0.20353899
0.20354012
0.20354097
0.20354154
0.20354189
0.203542
0.20354185
0.2035414
0.20354069
0.20353976
0.20353865
0.20353734
0.20353585
0.20353419
0.20353239
0.20353043
0.20352826
0.20352602
0.20352438
0.20352445
0.20352664
0.20352518
0.20350084
0.20341473
0.20321721
0.20289762
0.20260778
0.20290763
0.20530623
0.21384452
0.24338294
0.3427072
0.69043344
2.1716251
10.036903
0.20897544
0.20897661
0.20897924
0.20898199
0.2089849
0.20898789
0.20899093
0.20899395
0.20899689
0.20899974
0.20900248
0.20900511
0.20900766
0.20901016
0.20901264
0.20901514
0.20901769
0.20902024
0.20902262
0.20902473
0.20902659
0.20902823
0.20902968
0.20903103
0.20903228
0.20903333
0.20903409
0.20903462
0.20903495
0.20903507
0.20903493
0.20903452
0.20903385
0.20903299
0.20903196
0.20903077
0.20902939
0.20902786
0.20902621
0.20902443
0.20902244
0.20902024
0.20901833
0.20901785
0.20901996
0.20902169
0.2090081
0.20894385
0.20877414
0.20846174
0.20809997
0.20815684
0.20996458
0.2169189
0.24226559
0.33047706
0.65023085
2.0335109
9.3282952
0.2152522
0.21525362
0.21525621
0.21525892
0.21526175
0.21526465
0.21526757
0.21527042
0.21527317
0.21527581
0.21527832
0.21528072
0.21528304
0.21528532
0.2152876
0.21528992
0.21529232
0.2152947
0.21529687
0.21529876
0.21530042
0.21530188
0.21530319
0.21530443
0.21530556
0.21530648
0.21530715
0.21530761
0.21530791
0.21530803
0.21530792
0.21530755
0.21530694
0.21530616
0.21530525
0.21530421
0.21530301
0.21530165
0.21530019
0.21529865
0.21529694
0.21529494
0.21529292
0.21529191
0.21529345
0.21529712
0.21529237
0.2152493
0.21511207
0.21482183
0.2144121
0.21424332
0.21548925
0.22106943
0.24239128
0.31982188
0.61199881
1.9008002
8.6441281
0.22246765
0.22246916
0.22247167
0.22247426
0.22247695
0.22247967
0.22248235
0.22248494
0.22248739
0.2224897
0.22249187
0.22249392
0.2224959
0.22249785
0.22249983
0.22250188
0.22250402
0.22250612
0.22250797
0.22250954
0.22251091
0.22251213
0.22251325
0.22251431
0.22251527
0.222516
0.22251652
0.22251689
0.22251715
0.22251726
0.22251719
0.22251687
0.22251635
0.2225157
0.22251495
0.22251411
0.22251314
0.22251203
0.22251084
0.22250963
0.22250831
0.2225067
0.22250482
0.22250341
0.22250406
0.22250846
0.22251026
0.22248638
0.2223842
0.22212995
0.22170237
0.22134321
0.2220517
0.22682251
0.24392538
0.31097896
0.57603127
1.7748761
7.9864837
0.23082186
0.23082344
0.23082581
0.2308282
0.23083064
0.23083307
0.2308354
0.23083757
0.23083958
0.23084141
0.23084307
0.23084462
0.23084611
0.23084759
0.23084913
0.23085078
0.23085253
0.2308542
0.23085558
0.23085668
0.23085765
0.23085854
0.23085938
0.23086019
0.23086087
0.23086133
0.23086164
0.2308619
0.2308621
0.2308622
0.23086218
0.23086195
0.23086155
0.23086105
0.23086053
0.23085997
0.23085934
0.23085858
0.23085775
0.23085698
0.23085622
0.23085521
0.23085377
0.23085227
0.23085204
0.23085606
0.23086189
0.23085393
0.23078698
0.23057995
0.23016606
0.22968113
0.22991456
0.23336296
0.24711963
0.30421198
0.54257508
1.6576839
7.357137
0.24056996
0.24057174
0.24057385
0.24057593
0.24057804
0.24058007
0.2405819
0.24058351
0.24058491
0.24058608
0.24058707
0.24058793
0.24058876
0.2405896
0.24059053
0.24059163
0.24059285
0.24059391
0.24059462
0.24059507
0.24059552
0.24059598
0.24059644
0.2405969
0.24059719
0.24059727
0.24059731
0.24059742
0.24059755
0.24059763
0.2405977
0.24059757
0.24059734
0.24059708
0.24059684
0.24059668
0.24059652
0.24059625
0.2405959
0.2405957
0.2405957
0.2405956
0.24059493
0.24059371
0.240593
0.24059577
0.24060318
0.24060676
0.24057237
0.24042073
0.24004749
0.23947814
0.23931027
0.24165013
0.25216229
0.29982181
0.5117598
1.5522389
6.7575451
0.25202552
0.25202747
0.25202926
0.25203104
0.25203282
0.2520344
0.25203567
0.25203668
0.25203741
0.25203785
0.25203807
0.25203818
0.25203828
0.25203841
0.25203864
0.25203913
0.25203973
0.25204006
0.25203994
0.25203963
0.2520395
0.2520395
0.25203956
0.2520396
0.25203939
0.25203903
0.25203879
0.25203876
0.25203882
0.25203891
0.25203909
0.25203912
0.25203913
0.25203917
0.2520393
0.25203963
0.2520401
0.25204048
0.25204074
0.2520412
0.25204211
0.2520432
0.25204372
0.25204328
0.25204252
0.25204359
0.25205048
0.25206058
0.25205269
0.2519596
0.25165668
0.25105986
0.25053249
0.25185167
0.25965658
0.29816351
0.48331323
1.4611045
6.1887877
17.035404
19.711531
22.778162
26.285298
30.287678
34.84485
40.021165
45.885663
52.511823
59.977141
68.362536
77.751551
88.229327
99.881398
112.79224
127.04358
142.71261
159.87002
178.57784
198.88737
220.83712
244.45088
269.7359
296.68145
325.25795
355.41622
387.08712
420.18206
454.59401
490.19871
526.85651
564.41464
602.71028
641.57252
680.82564
720.29199
759.79509
799.16361
838.22918
876.83373
914.83233
952.09309
988.4938
1023.9283
1058.3057
1091.5491
1123.5974
1154.4027
1183.9322
1212.1653
1239.0917
1264.7115
1289.034
1312.079
1333.8717
1354.4419
1373.8259
1392.0626
1409.1944
1425.2663
1440.3243
1454.4153
1467.5862
1479.8847
1491.3572
1502.0501
1512.0077
1521.2734
1529.8894
1537.8956
1545.3308
1552.231
1558.6324
1564.5678
3.7033796
4.3631697
5.0621009
5.8161756
6.6461386
7.5707339
8.606493
9.76858
11.071571
12.529937
14.158278
15.97131
17.983805
20.210318
22.66494
25.360873
28.310074
31.522722
35.006768
38.767359
42.806447
47.122206
51.708874
56.556664
61.650934
66.973926
72.504074
78.217542
84.08733
90.088248
96.194177
102.378
108.61205
114.87369
121.14671
127.40085
133.69137
139.9831
146.11819
152.1346
158.0043
163.77207
169.54226
175.22376
180.77602
186.14395
191.27471
196.19103
200.90719
205.42746
209.75345
213.84738
217.70645
221.35134
224.80064
228.06255
231.14139
234.03698
236.76259
239.33228
241.74969
244.01741
246.14002
248.12308
249.9726
251.69569
253.29818
254.78772
256.16976
257.4517
258.63928
259.73963
260.75333
261.76685
1.1062342
1.2745924
1.4746906
1.7053784
1.9678853
2.2645307
2.5984248
2.9733352
3.3935741
3.8638939
4.389381
4.9753341
5.6271573
6.3502269
7.1497678
8.0306941
8.997451
10.053808
11.202655
12.445743
13.783456
15.214524
16.73584
18.342342
20.026655
21.779535
23.589816
25.444993
27.331172
29.234644
31.142027
33.040355
34.917597
36.764297
38.574565
40.340929
42.068612
43.757913
45.390305
46.963441
48.475731
49.932135
51.348267
52.725892
54.063482
55.357068
56.600674
57.79318
58.934732
60.027811
61.069677
62.061653
63.00683
63.905995
64.759164
65.566886
66.330011
67.04999
67.728554
68.366919
68.966301
69.528295
70.05459
70.546857
71.006769
71.435982
71.8361
72.208721
72.555401
72.87767
73.176951
73.454918
73.711609
73.955096
0.49524213
0.56104464
0.64044275
0.73384634
0.84238885
0.9673548
1.110121
1.272199
1.4552821
1.6612679
1.8922615
2.1505503
2.4385723
2.7588537
3.1139512
3.5063706
3.9384832
4.4124187
4.9299517
5.4923637
6.1003048
6.7536259
7.4512436
8.1910438
8.9696211
9.7824355
10.623743
11.486852
12.364053
13.247407
14.128976
15.000837
15.85569
16.687149
17.490551
18.26168
18.999573
19.704897
20.374535
21.007271
21.602692
22.161717
22.688423
23.185493
23.654983
24.098328
24.516191
24.90974
25.280057
25.628853
25.956606
26.263832
26.552571
26.824619
27.080493
27.320759
27.546065
27.75716
27.954889
28.139899
28.312734
28.474008
28.624368
28.764461
28.894903
29.016286
29.129171
29.234097
29.331567
29.42208
29.506063
29.58409
29.656049
29.724485
0.29046416
0.31834031
0.35335743
0.39596493
0.44697611
0.5072809
0.57775471
0.65924603
0.75260563
0.85872181
0.97855477
1.1131582
1.2636871
1.4313876
1.6175735
1.823588
2.0507578
2.3003306
2.5734101
2.8708719
3.1932776
3.5407729
3.9129901
4.3089983
4.7271276
5.1650191
5.6195742
6.0870977
6.5632152
7.0433202
7.5227634
7.9968008
8.4610586
8.9116384
9.3454609
9.7599191
10.153749
10.526765
10.877943
11.207078
11.514294
11.800108
12.066099
12.313483
12.543391
12.756868
12.954772
13.138133
13.307917
13.465231
13.610848
13.745392
13.869795
13.985379
14.092965
14.193101
14.286253
14.372863
14.453387
14.528217
14.597694
14.662152
14.721925
14.777335
14.828684
14.876262
14.920338
14.961165
14.99898
15.034005
15.066441
15.096505
15.124278
15.150292
0.21737503
0.22939407
0.24553991
0.26621623
0.29199248
0.32349975
0.36138002
0.40625073
0.4586919
0.51924901
0.58845001
0.66682694
0.7549362
0.85337251
0.96277089
1.0837963
1.2171249
1.3634116
1.5232522
1.6971317
1.8853717
2.0880622
2.3050003
2.5356502
2.7790455
3.0338085
3.2981091
3.5697597
3.8461553
4.1245458
4.4021724
4.6761984
4.9440329
5.2034019
5.4525157
5.6898917
5.9148131
6.1271583
6.326399
6.5125262
6.6857788
6.8466147
6.9960396
7.1348158
7.2636076
7.3830145
7.4935304
7.5957419
7.6902091
7.7775618
7.8582533
7.9326488
8.0013226
8.0648427
8.1236493
8.1781029
8.2285204
8.2751989
8.3184273
8.3584556
8.3955013
8.4297707
8.4614629
8.4907707
8.5178719
8.5429347
8.5661141
8.5875553
8.6073916
8.625747
8.6427367
8.6584645
8.6730434
8.6864964
0.19025264
0.19464726
0.2016457
0.21153852
0.22470229
0.24156507
0.26258658
0.28823378
0.31895734
0.35517389
0.39725924
0.44555037
0.50035654
0.56197161
0.63068557
0.70678874
0.79056965
0.88230412
0.9822363
1.0905501
1.2073375
1.332557
1.4659944
1.6072326
1.7555944
1.9101565
2.0697205
2.2328808
2.3979829
2.5633105
2.7271714
2.8878413
3.0437847
3.1936989
3.3366008
3.4717298
3.5987742
3.7177815
3.8286151
3.9314058
4.0264335
4.1140937
4.1950591
4.2698799
4.3390283
4.4029217
4.4619014
4.5163338
4.5665612
4.6129449
4.6557563
4.695216
4.7316374
4.7653252
4.7965149
4.8253977
4.8521431
4.8769097
4.8998486
4.9210939
4.9407617
4.9589619
4.9758008
4.99138
5.0057927
5.0191285
5.031468
5.0428883
5.0534597
5.0632472
5.0723156
5.0807028
5.0885402
5.0955502
0.18030495
0.1808405
0.18304064
0.1871523
0.1934403
0.2021932
0.21372583
0.22837284
0.2464751
0.26836216
0.29433671
0.32466291
0.35956315
0.39921942
0.44377987
0.49336439
0.54806905
0.60796519
0.67309383
0.74345269
0.81897923
0.89952734
0.98484542
1.0745563
1.1681235
1.2648641
1.3639303
1.4643613
1.565054
1.6648973
1.7628275
1.8577857
1.9488679
2.0353503
2.1167283
2.1926654
2.2630916
2.3281529
2.3879288
2.4426328
2.4925574
2.538046
2.5795629
2.6175059
2.6522149
2.6839886
2.7130752
2.7397186
2.764142
2.7865629
2.8071518
2.8260487
2.8434237
2.8594405
2.8742277
2.8878895
2.9005169
2.9121925
2.9229929
2.9329852
2.942228
2.9507759
2.9586807
2.9659914
2.972753
2.9790087
2.984797
2.9901546
2.9951154
2.9997095
3.0039714
3.0079042
3.0116305
3.0147753
0.17692117
0.17557117
0.1752614
0.17618975
0.17856867
0.18261281
0.18854453
0.19659777
0.20701656
0.22004743
0.2359282
0.25487519
0.27707314
0.3026682
0.33176599
0.36443175
0.40069309
0.44054103
0.48392988
0.53077267
0.58093432
0.63421949
0.69036248
0.74901664
0.80973572
0.87198642
0.93513929
0.99850895
1.0613361
1.1228829
1.1824715
1.2394518
1.2933028
1.3436449
1.3902524
1.4330238
1.4720187
1.5074236
1.539403
1.5681855
1.5940353
1.6172322
1.6380994
1.6569169
1.6739212
1.689316
1.7032702
1.7159402
1.7274645
1.7379712
1.7475619
1.7563206
1.7643386
1.7717031
1.7784796
1.7847353
1.7905168
1.7958636
1.8008111
1.8053901
1.809628
1.8135497
1.817179
1.8205381
1.8236477
1.8265271
1.8291941
1.8316652
1.8339558
1.8360792
1.8380532
1.8398698
1.8416232
1.8429876
0.17595331
0.17379629
0.17214587
0.1714375
0.17163108
0.17292153
0.17548691
0.1795011
0.18513915
0.19257815
0.20199377
0.21355331
0.22740735
0.24368116
0.26246836
0.28382625
0.30777402
0.33429154
0.36331907
0.39475525
0.42845482
0.46422292
0.50181166
0.54091581
0.58116445
0.62213355
0.66334302
0.70428879
0.74443456
0.78327777
0.82038159
0.85534722
0.88788321
0.91780829
0.94505184
0.96963192
0.99166518
1.0113408
1.028838
1.0443612
1.0581248
1.07034
1.0812272
1.0909742
1.0997357
1.1076401
1.1147925
1.1212821
1.127199
1.1326255
1.1376142
1.1422053
1.1464405
1.1503584
1.1539914
1.1573526
1.1604623
1.1633407
1.1660066
1.168476
1.1707636
1.1728824
1.174845
1.176663
1.1783472
1.1799078
1.1813541
1.182695
1.1839386
1.1850919
1.1861655
1.1871504
1.188117
1.1888087
0.17586147
0.17335947
0.17126128
0.16963536
0.1686202
0.168333
0.16889673
0.17043994
0.17309169
0.17698012
0.18223153
0.18896819
0.19730438
0.20734084
0.21915894
0.23281501
0.24833587
0.26571526
0.28491134
0.3058442
0.32839402
0.35239788
0.37764889
0.40389558
0.43083781
0.45814192
0.48543526
0.51235222
0.53847361
0.56350705
0.58713918
0.60910492
0.62924398
0.64748786
0.66384931
0.67840298
0.69128227
0.70265916
0.71269573
0.72155769
0.72940653
0.7363919
0.74265756
0.74832305
0.75347695
0.75821068
0.76258766
0.76665409
0.7704336
0.7739426
0.77720309
0.78023491
0.78305945
0.78569673
0.78816215
0.79046759
0.79262306
0.79463774
0.79651996
0.79827732
0.79991679
0.80144511
0.80286888
0.8041945
0.80542817
0.80657586
0.80764326
0.80863581
0.8095588
0.81041657
0.81121647
0.81195111
0.8126735
0.81318703
0.17604424
0.1734181
0.17111231
0.16912402
0.16751938
0.16637081
0.16579185
0.16586013
0.16667362
0.16832729
0.17091288
0.17451819
0.1792259
0.18511113
0.19223823
0.2006567
0.21039701
0.22146641
0.23384527
0.2474835
0.26229784
0.27816885
0.29494001
0.31241835
0.3303722
0.34854427
0.36665282
0.38441809
0.40154384
0.41783247
0.4330272
0.44699471
0.45965822
0.47100334
0.48107442
0.48996039
0.49778683
0.50469923
0.51083156
0.51631058
0.52125129
0.52575466
0.52990549
0.53378962
0.53746399
0.54094378
0.54424094
0.54737057
0.55034502
0.55317375
0.55586267
0.55841595
0.56083903
0.5631377
0.5653162
0.56737779
0.56932543
0.57116241
0.57289213
0.57451821
0.57604445
0.57747485
0.57881368
0.58006536
0.58123438
0.58232521
0.58334234
0.58429012
0.58517288
0.58599435
0.58676048
0.58746632
0.58815214
0.58867012
0.17625322
0.17361692
0.17124215
0.16912241
0.16726987
0.16571982
0.16452699
0.16375827
0.16348194
0.16376688
0.16468006
0.16628525
0.16864193
0.17180422
0.1758196
0.18072683
0.18655333
0.19331197
0.20099768
0.20958378
0.21901878
0.22922306
0.24008721
0.25147243
0.26320884
0.27510406
0.28695336
0.29853661
0.30967635
0.32014099
0.32985164
0.33870691
0.34667152
0.3537615
0.36003477
0.36557914
0.37050379
0.37492636
0.37895163
0.38267188
0.3861636
0.38949219
0.39272112
0.3958658
0.39893708
0.40194114
0.404878
0.40774431
0.41053476
0.41324331
0.41586334
0.41838876
0.42081547
0.42314108
0.42536349
0.42748112
0.42949327
0.43140019
0.43320299
0.4349035
0.43650417
0.43800802
0.43941851
0.44073944
0.44197486
0.44312896
0.44420598
0.44521018
0.44614578
0.44701668
0.44782808
0.44857803
0.44929573
0.44987507
0.17640065
0.17380506
0.17143828
0.16929062
0.16735627
0.16564223
0.16416824
0.16297033
0.16209284
0.16158262
0.16149029
0.1618592
0.16273292
0.16415122
0.16614887
0.16875473
0.17199056
0.17586911
0.18039173
0.18554551
0.19130028
0.1976056
0.20438841
0.21155359
0.21898107
0.22653254
0.23406143
0.2414083
0.24845106
0.25502795
0.26108687
0.26657583
0.27148671
0.27585333
0.27974078
0.28323329
0.28642514
0.28941021
0.29226842
0.29506094
0.29784461
0.30065183
0.30349082
0.30636533
0.30926997
0.31219217
0.31511528
0.31802135
0.32089269
0.32371282
0.32646685
0.32914199
0.33172833
0.33421839
0.33660647
0.33888838
0.34106149
0.34312463
0.34507789
0.34692241
0.34866025
0.35029421
0.35182766
0.35326442
0.35460862
0.35586462
0.35703685
0.3581298
0.35914792
0.36009548
0.3609775
0.36179414
0.36256734
0.36322242
0.17647783
0.17393201
0.17160624
0.16948044
0.16754142
0.16578281
0.16420549
0.16282095
0.16164902
0.16072475
0.16003419
0.15969832
0.15968959
0.16003889
0.16077475
0.1619204
0.16349351
0.16550535
0.16795955
0.17085016
0.17415939
0.17785532
0.18188947
0.18619774
0.19069649
0.19528884
0.19987117
0.20433541
0.20859017
0.21254803
0.21616539
0.21942225
0.22233523
0.22494947
0.22733229
0.22956297
0.23172318
0.23388908
0.23611745
0.23845854
0.24093339
0.24354469
0.24628809
0.2491496
0.25210702
0.25513334