/*--------------------------------*- C++ -*----------------------------------*\
| =========                 |                                                 |
| \\      /  F ield         | OpenFOAM: The Open Source CFD Toolbox           |
|  \\    /   O peration     | Version:  v2006                                 |
|   \\  /    A nd           | Website:  www.openfoam.com                      |
|    \\/     M anipulation  |                                                 |
\*---------------------------------------------------------------------------*/
FoamFile
{
    version     2.0;
    format      ascii;
    class       volScalarField;
    location    "1000";
    object      p;
}
// * * * * * * * * * * * * * * * * * * * * * * * * * * * * * * * * * * * * * //

dimensions      [1 -1 -2 0 0 0 0];


internalField   nonuniform List<scalar> 
55713
(
1.0000333
1.0000333
1.0000333
1.0000333
1.0000333
1.0000333
1.0000333
1.0000333
1.0000333
1.0000333
1.0000333
1.0000333
1.0000333
1.0000333
1.0000333
1.0000333
1.0000333
1.0000333
1.0000333
1.0000333
1.0000333
1.0000333
1.0000333
1.0000333
1.0000333
1.0000333
1.0000333
1.0000333
1.0000333
1.0000333
1.0000333
1.0000333
1.0000333
1.0000333
1.0000333
1.0000333
1.0000333
1.0000333
1.0000333
1.0000333
1.0000333
1.0000333
1.0000333
1.0000333
1.0000332
1.0000332
1.0000332
1.0000332
1.0000332
1.0000332
1.0000332
1.0000332
1.0000332
1.0000332
1.0000332
1.0000332
1.0000332
1.0000332
1.0000332
1.0000308
1.0000308
1.0000308
1.0000308
1.0000308
1.0000308
1.0000308
1.0000308
1.0000308
1.0000308
1.0000308
1.0000308
1.0000308
1.0000308
1.0000308
1.0000308
1.0000308
1.0000309
1.0000309
1.0000309
1.0000309
1.0000309
1.0000309
1.0000309
1.0000309
1.0000309
1.0000309
1.0000309
1.0000309
1.0000309
1.0000309
1.0000309
1.0000309
1.0000309
1.0000309
1.0000309
1.0000309
1.0000309
1.0000309
1.0000309
1.0000309
1.0000309
1.0000309
1.0000309
1.0000309
1.0000309
1.0000309
1.0000309
1.0000309
1.0000309
1.0000309
1.0000309
1.0000309
1.0000309
1.0000309
1.0000309
1.0000309
1.0000309
1.0000309
1.0000287
1.0000287
1.0000287
1.0000287
1.0000287
1.0000287
1.0000287
1.0000287
1.0000287
1.0000287
1.0000288
1.0000288
1.0000288
1.0000288
1.0000288
1.0000288
1.0000288
1.0000288
1.0000288
1.0000288
1.0000288
1.0000288
1.0000288
1.0000288
1.0000288
1.0000288
1.0000288
1.0000288
1.0000288
1.0000288
1.0000288
1.0000288
1.0000288
1.0000288
1.0000288
1.0000288
1.0000288
1.0000288
1.0000288
1.0000288
1.0000288
1.0000288
1.0000288
1.0000288
1.0000288
1.0000288
1.0000288
1.0000288
1.0000288
1.0000288
1.0000288
1.0000288
1.0000288
1.0000288
1.0000288
1.0000288
1.0000288
1.0000288
1.0000288
1.0000269
1.0000269
1.0000269
1.0000269
1.0000269
1.0000269
1.0000269
1.0000269
1.0000269
1.0000269
1.0000269
1.0000269
1.0000269
1.0000269
1.0000269
1.0000269
1.000027
1.000027
1.000027
1.000027
1.000027
1.000027
1.000027
1.000027
1.000027
1.000027
1.000027
1.000027
1.000027
1.000027
1.000027
1.000027
1.000027
1.000027
1.000027
1.000027
1.000027
1.000027
1.000027
1.000027
1.000027
1.000027
1.000027
1.000027
1.000027
1.000027
1.000027
1.000027
1.000027
1.000027
1.000027
1.000027
1.000027
1.000027
1.000027
1.000027
1.000027
1.000027
1.000027
1.0000253
1.0000254
1.0000254
1.0000254
1.0000254
1.0000254
1.0000254
1.0000254
1.0000254
1.0000254
1.0000254
1.0000254
1.0000254
1.0000254
1.0000254
1.0000254
1.0000254
1.0000254
1.0000254
1.0000254
1.0000254
1.0000254
1.0000254
1.0000254
1.0000254
1.0000254
1.0000254
1.0000254
1.0000254
1.0000254
1.0000254
1.0000254
1.0000254
1.0000254
1.0000254
1.0000254
1.0000254
1.0000254
1.0000254
1.0000254
1.0000254
1.0000254
1.0000254
1.0000254
1.0000254
1.0000254
1.0000254
1.0000254
1.0000254
1.0000254
1.0000254
1.0000254
1.0000254
1.0000254
1.0000254
1.0000254
1.0000254
1.0000254
1.0000254
1.000024
1.000024
1.000024
1.000024
1.000024
1.000024
1.000024
1.000024
1.000024
1.000024
1.000024
1.000024
1.000024
1.000024
1.0000241
1.0000241
1.0000241
1.0000241
1.0000241
1.0000241
1.0000241
1.0000241
1.0000241
1.0000241
1.0000241
1.0000241
1.0000241
1.0000241
1.0000241
1.0000241
1.0000241
1.0000241
1.0000241
1.0000241
1.0000241
1.0000241
1.0000241
1.0000241
1.0000241
1.0000241
1.0000241
1.0000241
1.0000241
1.0000241
1.0000241
1.0000241
1.0000241
1.0000241
1.0000241
1.0000241
1.0000241
1.0000241
1.0000241
1.0000241
1.0000241
1.0000241
1.0000241
1.0000241
1.0000241
1.0000228
1.0000228
1.0000228
1.0000228
1.0000228
1.0000228
1.0000228
1.0000228
1.0000228
1.0000229
1.0000229
1.0000229
1.0000229
1.0000229
1.0000229
1.0000229
1.0000229
1.0000229
1.0000229
1.0000229
1.0000229
1.0000229
1.0000229
1.0000229
1.0000229
1.0000229
1.0000229
1.0000229
1.0000229
1.0000229
1.0000229
1.0000229
1.0000229
1.0000229
1.0000229
1.0000229
1.0000229
1.0000229
1.0000229
1.0000229
1.0000229
1.0000229
1.0000229
1.0000229
1.0000229
1.0000229
1.0000229
1.0000229
1.0000229
1.0000229
1.0000229
1.0000229
1.0000229
1.0000229
1.0000229
1.0000229
1.0000229
1.0000229
1.0000229
1.0000218
1.0000218
1.0000218
1.0000218
1.0000218
1.0000218
1.0000218
1.0000218
1.0000218
1.0000218
1.0000218
1.0000218
1.0000218
1.0000218
1.0000218
1.0000218
1.0000218
1.0000218
1.0000218
1.0000218
1.0000218
1.0000218
1.0000218
1.0000218
1.0000218
1.0000218
1.0000218
1.0000218
1.0000218
1.0000218
1.0000218
1.0000218
1.0000218
1.0000218
1.0000218
1.0000218
1.0000218
1.0000218
1.0000218
1.0000218
1.0000218
1.0000218
1.0000218
1.0000218
1.0000218
1.0000218
1.0000218
1.0000218
1.0000218
1.0000218
1.0000218
1.0000218
1.0000218
1.0000218
1.0000218
1.0000218
1.0000218
1.0000218
1.0000218
1.0000212
1.0000212
1.0000212
1.0000212
1.0000212
1.0000212
1.0000212
1.0000212
1.0000212
1.0000212
1.0000212
1.0000212
1.0000212
1.0000212
1.0000212
1.0000212
1.0000212
1.0000212
1.0000213
1.0000213
1.0000213
1.0000213
1.0000213
1.0000213
1.0000213
1.0000213
1.0000213
1.0000213
1.0000213
1.0000213
1.0000213
1.0000213
1.0000213
1.0000213
1.0000213
1.0000213
1.0000213
1.0000213
1.0000213
1.0000213
1.0000213
1.0000213
1.0000213
1.0000213
1.0000213
1.0000213
1.0000213
1.0000213
1.0000213
1.0000213
1.0000213
1.0000213
1.0000213
1.0000213
1.0000213
1.0000213
1.0000213
1.0000213
1.0000213
1.0000207
1.0000208
1.0000208
1.0000208
1.0000208
1.0000208
1.0000208
1.0000208
1.0000208
1.0000208
1.0000208
1.0000208
1.0000208
1.0000208
1.0000208
1.0000208
1.0000208
1.0000208
1.0000208
1.0000208
1.0000208
1.0000208
1.0000208
1.0000208
1.0000208
1.0000208
1.0000208
1.0000208
1.0000208
1.0000208
1.0000208
1.0000208
1.0000208
1.0000208
1.0000208
1.0000208
1.0000208
1.0000208
1.0000208
1.0000208
1.0000208
1.0000208
1.0000208
1.0000208
1.0000208
1.0000208
1.0000208
1.0000208
1.0000208
1.0000208
1.0000208
1.0000208
1.0000208
1.0000208
1.0000208
1.0000208
1.0000208
1.0000208
1.0000209
1.0000188
1.0000188
1.0000188
1.0000188
1.0000188
1.0000188
1.0000188
1.0000188
1.0000188
1.0000188
1.0000188
1.0000188
1.0000188
1.0000188
1.0000188
1.0000188
1.0000188
1.0000188
1.0000188
1.0000188
1.0000188
1.0000188
1.0000188
1.0000188
1.0000188
1.0000188
1.0000188
1.0000188
1.0000188
1.0000188
1.0000188
1.0000188
1.0000188
1.0000188
1.0000188
1.0000188
1.0000188
1.0000188
1.0000188
1.0000188
1.0000188
1.0000188
1.0000188
1.0000188
1.0000188
1.0000188
1.0000188
1.0000188
1.0000188
1.0000188
1.0000188
1.0000188
1.0000188
1.0000188
1.0000188
1.0000188
1.0000188
1.0000188
1.0000188
1.0000187
1.0000187
1.0000187
1.0000186
1.0000186
1.0000186
1.0000186
1.0000186
1.0000186
1.0000186
1.0000186
1.0000186
1.0000186
1.0000186
1.0000186
1.0000186
1.0000186
1.0000186
1.0000186
1.0000185
1.0000185
1.0000185
1.0000185
1.0000185
1.0000185
1.0000185
1.0000185
1.0000185
1.0000185
1.0000185
1.0000185
1.0000185
1.0000185
1.0000185
1.0000185
1.0000185
1.0000185
1.0000185
1.0000185
1.0000185
1.0000185
1.0000185
1.0000185
1.0000185
1.0000185
1.0000185
1.0000185
1.0000185
1.0000185
1.0000184
1.0000184
1.0000184
1.0000184
1.0000184
1.0000184
1.0000184
1.0000184
1.0000184
1.0000184
1.0000283
1.0000283
1.0000283
1.0000282
1.0000282
1.0000282
1.0000282
1.0000282
1.0000282
1.0000282
1.0000282
1.0000282
1.0000282
1.0000282
1.0000282
1.0000282
1.0000282
1.0000282
1.0000282
1.0000282
1.0000282
1.0000282
1.0000282
1.0000282
1.0000282
1.0000282
1.0000282
1.0000282
1.0000282
1.0000282
1.0000282
1.0000282
1.0000282
1.0000282
1.0000282
1.0000282
1.0000282
1.0000282
1.0000282
1.0000282
1.0000282
1.0000282
1.0000282
1.0000282
1.0000282
1.0000282
1.0000282
1.0000282
1.0000282
1.0000282
1.0000282
1.0000282
1.0000282
1.0000282
1.0000282
1.0000282
1.0000282
1.0000282
1.0000282
1.0000179
1.000018
1.000018
1.000018
1.000018
1.000018
1.000018
1.000018
1.000018
1.000018
1.000018
1.000018
1.000018
1.000018
1.000018
1.000018
1.000018
1.000018
1.000018
1.000018
1.000018
1.000018
1.000018
1.000018
1.000018
1.0000181
1.0000181
1.0000181
1.0000181
1.0000181
1.0000181
1.0000181
1.0000181
1.0000181
1.0000181
1.0000181
1.0000181
1.0000181
1.0000181
1.0000181
1.0000181
1.0000181
1.0000181
1.0000181
1.0000181
1.0000181
1.0000181
1.0000181
1.0000181
1.0000181
1.0000181
1.000018
1.000018
1.000018
1.000018
1.000018
1.000018
1.000018
1.000018
1.0001366
1.0001367
1.0001367
1.0001368
1.0001368
1.0001369
1.0001369
1.0001369
1.000137
1.000137
1.0001371
1.0001371
1.0001371
1.0001372
1.0001372
1.0001373
1.0001373
1.0001373
1.0001374
1.0001374
1.0001374
1.0001375
1.0001375
1.0001375
1.0001376
1.0001376
1.0001376
1.0001377
1.0001377
1.0001377
1.0001377
1.0001378
1.0001378
1.0001378
1.0001378
1.0001378
1.0001379
1.0001379
1.0001379
1.0001379
1.0001379
1.0001379
1.000138
1.000138
1.000138
1.000138
1.000138
1.000138
1.000138
1.000138
1.000138
1.000138
1.000138
1.000138
1.000138
1.000138
1.000138
1.000138
1.000138
1.0001249
1.000125
1.000125
1.0001251
1.0001251
1.0001251
1.0001252
1.0001252
1.0001252
1.0001253
1.0001253
1.0001253
1.0001254
1.0001254
1.0001254
1.0001255
1.0001255
1.0001255
1.0001255
1.0001256
1.0001256
1.0001256
1.0001257
1.0001257
1.0001257
1.0001257
1.0001257
1.0001258
1.0001258
1.0001258
1.0001258
1.0001259
1.0001259
1.0001259
1.0001259
1.0001259
1.0001259
1.000126
1.000126
1.000126
1.000126
1.000126
1.000126
1.000126
1.000126
1.0001261
1.0001261
1.0001261
1.0001261
1.0001261
1.0001261
1.0001261
1.0001261
1.0001261
1.0001261
1.0001261
1.0001261
1.0001261
1.0001261
1.000114
1.0001141
1.0001141
1.0001141
1.0001142
1.0001142
1.0001142
1.0001142
1.0001143
1.0001143
1.0001143
1.0001144
1.0001144
1.0001144
1.0001144
1.0001145
1.0001145
1.0001145
1.0001145
1.0001145
1.0001146
1.0001146
1.0001146
1.0001146
1.0001147
1.0001147
1.0001147
1.0001147
1.0001147
1.0001147
1.0001148
1.0001148
1.0001148
1.0001148
1.0001148
1.0001148
1.0001148
1.0001149
1.0001149
1.0001149
1.0001149
1.0001149
1.0001149
1.0001149
1.0001149
1.0001149
1.0001149
1.0001149
1.000115
1.000115
1.000115
1.000115
1.000115
1.000115
1.000115
1.000115
1.000115
1.000115
1.000115
1.0001038
1.0001038
1.0001039
1.0001039
1.0001039
1.0001039
1.000104
1.000104
1.000104
1.000104
1.0001041
1.0001041
1.0001041
1.0001041
1.0001041
1.0001042
1.0001042
1.0001042
1.0001042
1.0001042
1.0001043
1.0001043
1.0001043
1.0001043
1.0001043
1.0001043
1.0001044
1.0001044
1.0001044
1.0001044
1.0001044
1.0001044
1.0001044
1.0001044
1.0001045
1.0001045
1.0001045
1.0001045
1.0001045
1.0001045
1.0001045
1.0001045
1.0001045
1.0001045
1.0001045
1.0001045
1.0001046
1.0001046
1.0001046
1.0001046
1.0001046
1.0001046
1.0001046
1.0001046
1.0001046
1.0001046
1.0001046
1.0001046
1.0001046
1.0000943
1.0000943
1.0000944
1.0000944
1.0000944
1.0000944
1.0000944
1.0000945
1.0000945
1.0000945
1.0000945
1.0000945
1.0000945
1.0000946
1.0000946
1.0000946
1.0000946
1.0000946
1.0000946
1.0000947
1.0000947
1.0000947
1.0000947
1.0000947
1.0000947
1.0000947
1.0000947
1.0000948
1.0000948
1.0000948
1.0000948
1.0000948
1.0000948
1.0000948
1.0000948
1.0000948
1.0000948
1.0000949
1.0000949
1.0000949
1.0000949
1.0000949
1.0000949
1.0000949
1.0000949
1.0000949
1.0000949
1.0000949
1.0000949
1.0000949
1.0000949
1.0000949
1.0000949
1.0000949
1.0000949
1.0000949
1.0000949
1.0000949
1.0000949
1.0000855
1.0000855
1.0000855
1.0000855
1.0000856
1.0000856
1.0000856
1.0000856
1.0000856
1.0000856
1.0000856
1.0000857
1.0000857
1.0000857
1.0000857
1.0000857
1.0000857
1.0000857
1.0000857
1.0000858
1.0000858
1.0000858
1.0000858
1.0000858
1.0000858
1.0000858
1.0000858
1.0000858
1.0000859
1.0000859
1.0000859
1.0000859
1.0000859
1.0000859
1.0000859
1.0000859
1.0000859
1.0000859
1.0000859
1.0000859
1.0000859
1.0000859
1.0000859
1.000086
1.000086
1.000086
1.000086
1.000086
1.000086
1.000086
1.000086
1.000086
1.000086
1.000086
1.000086
1.000086
1.000086
1.000086
1.000086
1.0000773
1.0000773
1.0000773
1.0000774
1.0000774
1.0000774
1.0000774
1.0000774
1.0000774
1.0000774
1.0000774
1.0000775
1.0000775
1.0000775
1.0000775
1.0000775
1.0000775
1.0000775
1.0000775
1.0000775
1.0000775
1.0000776
1.0000776
1.0000776
1.0000776
1.0000776
1.0000776
1.0000776
1.0000776
1.0000776
1.0000776
1.0000776
1.0000776
1.0000776
1.0000776
1.0000777
1.0000777
1.0000777
1.0000777
1.0000777
1.0000777
1.0000777
1.0000777
1.0000777
1.0000777
1.0000777
1.0000777
1.0000777
1.0000777
1.0000777
1.0000777
1.0000777
1.0000777
1.0000777
1.0000777
1.0000777
1.0000777
1.0000777
1.0000777
1.0000698
1.0000698
1.0000698
1.0000698
1.0000698
1.0000698
1.0000698
1.0000698
1.0000699
1.0000699
1.0000699
1.0000699
1.0000699
1.0000699
1.0000699
1.0000699
1.0000699
1.0000699
1.0000699
1.0000699
1.00007
1.00007
1.00007
1.00007
1.00007
1.00007
1.00007
1.00007
1.00007
1.00007
1.00007
1.00007
1.00007
1.00007
1.00007
1.00007
1.00007
1.00007
1.0000701
1.0000701
1.0000701
1.0000701
1.0000701
1.0000701
1.0000701
1.0000701
1.0000701
1.0000701
1.0000701
1.0000701
1.0000701
1.0000701
1.0000701
1.0000701
1.0000701
1.0000701
1.0000701
1.0000701
1.0000701
1.0000628
1.0000628
1.0000628
1.0000629
1.0000629
1.0000629
1.0000629
1.0000629
1.0000629
1.0000629
1.0000629
1.0000629
1.0000629
1.0000629
1.0000629
1.000063
1.000063
1.000063
1.000063
1.000063
1.000063
1.000063
1.000063
1.000063
1.000063
1.000063
1.000063
1.000063
1.000063
1.000063
1.000063
1.000063
1.000063
1.000063
1.000063
1.000063
1.0000631
1.0000631
1.0000631
1.0000631
1.0000631
1.0000631
1.0000631
1.0000631
1.0000631
1.0000631
1.0000631
1.0000631
1.0000631
1.0000631
1.0000631
1.0000631
1.0000631
1.0000631
1.0000631
1.0000631
1.0000631
1.0000631
1.0000631
1.0000565
1.0000565
1.0000565
1.0000565
1.0000565
1.0000565
1.0000565
1.0000565
1.0000565
1.0000565
1.0000565
1.0000565
1.0000566
1.0000566
1.0000566
1.0000566
1.0000566
1.0000566
1.0000566
1.0000566
1.0000566
1.0000566
1.0000566
1.0000566
1.0000566
1.0000566
1.0000566
1.0000566
1.0000566
1.0000566
1.0000566
1.0000566
1.0000566
1.0000566
1.0000566
1.0000566
1.0000566
1.0000567
1.0000567
1.0000567
1.0000567
1.0000567
1.0000567
1.0000567
1.0000567
1.0000567
1.0000567
1.0000567
1.0000567
1.0000567
1.0000567
1.0000567
1.0000567
1.0000567
1.0000567
1.0000567
1.0000567
1.0000567
1.0000567
1.0000507
1.0000507
1.0000507
1.0000507
1.0000507
1.0000507
1.0000507
1.0000507
1.0000507
1.0000507
1.0000507
1.0000507
1.0000507
1.0000507
1.0000507
1.0000508
1.0000508
1.0000508
1.0000508
1.0000508
1.0000508
1.0000508
1.0000508
1.0000508
1.0000508
1.0000508
1.0000508
1.0000508
1.0000508
1.0000508
1.0000508
1.0000508
1.0000508
1.0000508
1.0000508
1.0000508
1.0000508
1.0000508
1.0000508
1.0000508
1.0000508
1.0000508
1.0000508
1.0000508
1.0000508
1.0000508
1.0000508
1.0000508
1.0000508
1.0000508
1.0000508
1.0000508
1.0000508
1.0000508
1.0000508
1.0000508
1.0000508
1.0000508
1.0000508
1.0000454
1.0000454
1.0000454
1.0000454
1.0000454
1.0000454
1.0000454
1.0000454
1.0000454
1.0000454
1.0000454
1.0000454
1.0000454
1.0000454
1.0000454
1.0000454
1.0000454
1.0000455
1.0000455
1.0000455
1.0000455
1.0000455
1.0000455
1.0000455
1.0000455
1.0000455
1.0000455
1.0000455
1.0000455
1.0000455
1.0000455
1.0000455
1.0000455
1.0000455
1.0000455
1.0000455
1.0000455
1.0000455
1.0000455
1.0000455
1.0000455
1.0000455
1.0000455
1.0000455
1.0000455
1.0000455
1.0000455
1.0000455
1.0000455
1.0000455
1.0000455
1.0000455
1.0000455
1.0000455
1.0000455
1.0000455
1.0000455
1.0000455
1.0000455
1.0000406
1.0000406
1.0000406
1.0000406
1.0000406
1.0000406
1.0000406
1.0000406
1.0000406
1.0000406
1.0000406
1.0000406
1.0000406
1.0000406
1.0000406
1.0000406
1.0000406
1.0000406
1.0000406
1.0000406
1.0000407
1.0000407
1.0000407
1.0000407
1.0000407
1.0000407
1.0000407
1.0000407
1.0000407
1.0000407
1.0000407
1.0000407
1.0000407
1.0000407
1.0000407
1.0000407
1.0000407
1.0000407
1.0000407
1.0000407
1.0000407
1.0000407
1.0000407
1.0000407
1.0000407
1.0000407
1.0000407
1.0000407
1.0000407
1.0000407
1.0000407
1.0000407
1.0000407
1.0000407
1.0000407
1.0000407
1.0000407
1.0000407
1.0000407
1.0000364
1.0000364
1.0000364
1.0000364
1.0000364
1.0000364
1.0000364
1.0000364
1.0000364
1.0000364
1.0000364
1.0000364
1.0000364
1.0000364
1.0000364
1.0000364
1.0000364
1.0000364
1.0000364
1.0000364
1.0000364
1.0000364
1.0000364
1.0000364
1.0000364
1.0000365
1.0000365
1.0000365
1.0000365
1.0000365
1.0000365
1.0000365
1.0000365
1.0000365
1.0000365
1.0000365
1.0000365
1.0000365
1.0000365
1.0000365
1.0000365
1.0000365
1.0000365
1.0000365
1.0000365
1.0000365
1.0000365
1.0000365
1.0000365
1.0000365
1.0000365
1.0000365
1.0000365
1.0000365
1.0000365
1.0000365
1.0000365
1.0000365
1.0000365
1.0001522
1.0001693
1.0001886
1.0002096
1.0002326
1.0002576
1.0002849
1.0003145
1.0003466
1.0003812
1.0004186
1.0004586
1.0005015
1.0005471
1.0005953
1.0006461
1.0006992
1.0007543
1.0008109
1.0008685
1.0009263
1.0009836
1.0010392
1.0010921
1.0011412
1.0011852
1.0012229
1.0012531
1.0012749
1.0012873
1.0012899
1.0012825
1.0012648
1.0012371
1.0012002
1.0011547
1.0011017
1.001042
1.0009765
1.000907
1.0008342
1.0007594
1.0006834
1.0006067
1.0005303
1.0004547
1.0003806
1.0003085
1.0002385
1.0001711
1.0001061
1.0000442
0.99998548
0.99992936
0.99987594
0.99982535
0.99977754
0.99973246
0.99968993
0.99964977
0.99961206
0.99957672
0.99954358
0.99951252
0.99948342
0.99945617
0.99943066
0.99940679
0.99938446
0.99936358
0.99934405
0.9993258
0.99930876
0.99929285
1.0001522
1.0001693
1.0001886
1.0002096
1.0002325
1.0002576
1.0002849
1.0003145
1.0003466
1.0003812
1.0004186
1.0004586
1.0005015
1.0005471
1.0005953
1.0006461
1.0006992
1.0007543
1.0008109
1.0008685
1.0009263
1.0009836
1.0010392
1.0010921
1.0011412
1.0011852
1.0012229
1.0012531
1.0012749
1.0012874
1.0012899
1.0012825
1.0012648
1.0012371
1.0012002
1.0011547
1.0011017
1.001042
1.0009765
1.000907
1.0008342
1.0007594
1.0006834
1.0006067
1.0005302
1.0004547
1.0003806
1.0003084
1.0002385
1.0001711
1.0001061
1.0000442
0.99998545
0.99992934
0.99987593
0.99982533
0.99977752
0.99973246
0.99968995
0.99964979
0.99961207
0.99957672
0.99954358
0.99951251
0.99948341
0.99945616
0.99943065
0.99940679
0.99938446
0.99936358
0.99934406
0.99932581
0.99930877
0.99929285
1.0001522
1.0001693
1.0001886
1.0002096
1.0002325
1.0002576
1.0002849
1.0003145
1.0003466
1.0003812
1.0004186
1.0004586
1.0005015
1.000547
1.0005953
1.0006461
1.0006992
1.0007543
1.0008109
1.0008685
1.0009263
1.0009836
1.0010392
1.0010921
1.0011412
1.0011852
1.0012229
1.0012531
1.0012749
1.0012874
1.00129
1.0012825
1.0012648
1.0012372
1.0012002
1.0011548
1.0011017
1.001042
1.0009766
1.000907
1.0008342
1.0007594
1.0006834
1.0006067
1.0005303
1.0004547
1.0003806
1.0003085
1.0002385
1.0001711
1.0001061
1.0000442
0.99998542
0.99992928
0.99987586
0.99982527
0.99977746
0.99973238
0.99968986
0.99964975
0.99961206
0.99957674
0.99954361
0.99951255
0.99948346
0.99945621
0.99943072
0.99940686
0.99938454
0.99936366
0.99934414
0.99932589
0.99930875
0.99929282
1.0001522
1.0001693
1.0001886
1.0002096
1.0002325
1.0002576
1.0002849
1.0003145
1.0003466
1.0003812
1.0004186
1.0004586
1.0005015
1.000547
1.0005953
1.0006461
1.0006992
1.0007543
1.0008109
1.0008685
1.0009263
1.0009836
1.0010392
1.0010921
1.0011413
1.0011852
1.0012229
1.0012532
1.001275
1.0012874
1.00129
1.0012826
1.0012649
1.0012372
1.0012003
1.0011548
1.0011018
1.0010421
1.0009767
1.0009071
1.0008343
1.0007595
1.0006834
1.0006068
1.0005303
1.0004548
1.0003807
1.0003085
1.0002386
1.0001712
1.0001063
1.0000443
0.99998546
0.99992932
0.99987592
0.99982534
0.99977753
0.99973244
0.99968993
0.99964984
0.99961217
0.99957683
0.9995437
0.99951264
0.99948354
0.9994563
0.99943081
0.99940696
0.99938464
0.99936378
0.99934427
0.99932603
0.99930899
0.99929309
1.0001522
1.0001693
1.0001886
1.0002096
1.0002325
1.0002576
1.0002849
1.0003145
1.0003466
1.0003812
1.0004186
1.0004586
1.0005015
1.000547
1.0005953
1.0006461
1.0006992
1.0007543
1.0008109
1.0008685
1.0009263
1.0009836
1.0010392
1.0010921
1.0011413
1.0011853
1.001223
1.0012532
1.001275
1.0012875
1.0012901
1.0012826
1.001265
1.0012373
1.0012004
1.001155
1.0011019
1.0010422
1.0009768
1.0009072
1.0008345
1.0007596
1.0006836
1.0006069
1.0005304
1.0004549
1.0003808
1.0003087
1.0002387
1.0001713
1.0001064
1.0000445
0.99998555
0.9999294
0.999876
0.99982542
0.99977761
0.99973251
0.99968999
0.99964993
0.99961227
0.99957695
0.99954383
0.99951278
0.9994837
0.99945647
0.99943099
0.99940715
0.99938485
0.99936399
0.99934449
0.99932625
0.99930919
0.99929324
1.0001522
1.0001693
1.0001885
1.0002096
1.0002325
1.0002576
1.0002849
1.0003145
1.0003466
1.0003812
1.0004186
1.0004586
1.0005014
1.000547
1.0005953
1.0006461
1.0006992
1.0007543
1.0008109
1.0008685
1.0009263
1.0009835
1.0010392
1.0010921
1.0011413
1.0011853
1.001223
1.0012532
1.0012751
1.0012875
1.0012902
1.0012828
1.0012651
1.0012375
1.0012006
1.0011551
1.0011021
1.0010424
1.000977
1.0009075
1.0008347
1.0007598
1.0006838
1.0006071
1.0005306
1.0004551
1.000381
1.0003089
1.0002389
1.0001715
1.0001066
1.0000447
0.99998573
0.99992957
0.99987617
0.99982559
0.99977779
0.99973269
0.99969018
0.99965014
0.9996125
0.99957718
0.99954407
0.99951303
0.99948395
0.99945672
0.99943125
0.99940741
0.99938511
0.99936426
0.99934476
0.99932651
0.99930946
0.99929349
1.0001522
1.0001693
1.0001885
1.0002096
1.0002325
1.0002576
1.0002848
1.0003145
1.0003466
1.0003812
1.0004185
1.0004586
1.0005014
1.000547
1.0005953
1.0006461
1.0006992
1.0007543
1.0008109
1.0008685
1.0009263
1.0009835
1.0010392
1.0010921
1.0011413
1.0011853
1.001223
1.0012533
1.0012752
1.0012876
1.0012903
1.0012829
1.0012653
1.0012377
1.0012008
1.0011554
1.0011024
1.0010427
1.0009773
1.0009078
1.000835
1.0007602
1.0006841
1.0006074
1.000531
1.0004554
1.0003814
1.0003092
1.0002393
1.0001718
1.000107
1.000045
0.99998601
0.99992983
0.99987644
0.99982586
0.99977806
0.99973295
0.99969043
0.9996504
0.99961278
0.99957747
0.99954436
0.99951333
0.99948427
0.99945705
0.99943159
0.99940776
0.99938547
0.99936462
0.99934512
0.99932687
0.99930981
0.9992938
1.0001522
1.0001693
1.0001885
1.0002096
1.0002325
1.0002576
1.0002848
1.0003145
1.0003465
1.0003812
1.0004185
1.0004586
1.0005014
1.000547
1.0005952
1.000646
1.0006991
1.0007542
1.0008109
1.0008684
1.0009263
1.0009835
1.0010392
1.0010921
1.0011413
1.0011853
1.0012231
1.0012534
1.0012753
1.0012878
1.0012905
1.0012832
1.0012656
1.001238
1.0012012
1.0011558
1.0011028
1.0010431
1.0009778
1.0009083
1.0008355
1.0007606
1.0006845
1.0006079
1.0005314
1.0004559
1.0003818
1.0003097
1.0002397
1.0001723
1.0001075
1.0000455
0.99998644
0.99993024
0.99987685
0.99982627
0.99977847
0.99973336
0.99969085
0.99965084
0.99961323
0.99957794
0.99954484
0.99951381
0.99948475
0.99945754
0.99943208
0.99940826
0.99938597
0.99936512
0.99934561
0.99932735
0.99931027
0.99929425
1.0001521
1.0001693
1.0001885
1.0002096
1.0002325
1.0002576
1.0002848
1.0003144
1.0003465
1.0003812
1.0004185
1.0004585
1.0005014
1.0005469
1.0005952
1.000646
1.0006991
1.0007542
1.0008108
1.0008684
1.0009262
1.0009835
1.0010391
1.0010921
1.0011413
1.0011854
1.0012232
1.0012535
1.0012754
1.001288
1.0012908
1.0012835
1.0012659
1.0012384
1.0012017
1.0011563
1.0011033
1.0010437
1.0009784
1.0009089
1.0008362
1.0007613
1.0006852
1.0006085
1.0005321
1.0004566
1.0003825
1.0003103
1.0002404
1.0001729
1.0001081
1.0000461
0.99998706
0.99993084
0.99987744
0.99982686
0.99977906
0.99973394
0.99969143
0.99965143
0.99961383
0.99957854
0.99954545
0.99951443
0.99948537
0.99945817
0.99943271
0.99940889
0.9993866
0.99936575
0.99934624
0.99932797
0.99931088
0.99929484
1.0001521
1.0001693
1.0001885
1.0002095
1.0002325
1.0002575
1.0002848
1.0003144
1.0003465
1.0003811
1.0004185
1.0004585
1.0005013
1.0005469
1.0005952
1.0006459
1.000699
1.0007541
1.0008108
1.0008683
1.0009262
1.0009834
1.0010391
1.0010921
1.0011413
1.0011854
1.0012233
1.0012537
1.0012757
1.0012883
1.0012911
1.0012839
1.0012664
1.001239
1.0012023
1.001157
1.0011041
1.0010445
1.0009793
1.0009098
1.0008371
1.0007622
1.0006861
1.0006094
1.000533
1.0004575
1.0003835
1.0003113
1.0002413
1.0001739
1.0001091
1.000047
0.99998794
0.9999317
0.9998783
0.99982771
0.9997799
0.99973478
0.99969228
0.99965228
0.9996147
0.99957941
0.99954632
0.99951531
0.99948626
0.99945906
0.9994336
0.99940978
0.99938749
0.99936662
0.9993471
0.99932882
0.99931172
0.99929566
1.0001521
1.0001693
1.0001885
1.0002095
1.0002325
1.0002575
1.0002848
1.0003144
1.0003465
1.0003811
1.0004184
1.0004585
1.0005013
1.0005469
1.0005951
1.0006459
1.000699
1.0007541
1.0008107
1.0008683
1.0009261
1.0009834
1.0010391
1.0010921
1.0011414
1.0011855
1.0012234
1.0012539
1.0012759
1.0012887
1.0012916
1.0012845
1.0012671
1.0012398
1.0012032
1.001158
1.0011051
1.0010456
1.0009805
1.000911
1.0008384
1.0007635
1.0006874
1.0006107
1.0005343
1.0004588
1.0003848
1.0003126
1.0002426
1.0001752
1.0001103
1.0000483
0.99998917
0.99993291
0.99987949
0.99982889
0.99978107
0.99973595
0.99969344
0.99965345
0.99961586
0.99958058
0.99954749
0.99951647
0.99948742
0.99946022
0.99943475
0.99941092
0.99938862
0.99936775
0.99934821
0.99932992
0.9993128
0.99929673
1.0001521
1.0001693
1.0001885
1.0002095
1.0002325
1.0002575
1.0002848
1.0003144
1.0003464
1.0003811
1.0004184
1.0004584
1.0005012
1.0005468
1.000595
1.0006458
1.0006989
1.000754
1.0008106
1.0008682
1.0009261
1.0009833
1.001039
1.0010921
1.0011414
1.0011856
1.0012236
1.0012541
1.0012763
1.0012891
1.0012922
1.0012852
1.001268
1.0012408
1.0012044
1.0011593
1.0011065
1.0010471
1.0009821
1.0009127
1.0008401
1.0007653
1.0006891
1.0006125
1.0005361
1.0004606
1.0003865
1.0003144
1.0002444
1.0001769
1.0001121
1.00005
0.99999086
0.99993456
0.99988112
0.99983052
0.99978268
0.99973755
0.99969504
0.99965504
0.99961746
0.99958217
0.99954908
0.99951806
0.99948901
0.9994618
0.99943633
0.99941249
0.99939017
0.99936929
0.99934974
0.99933143
0.99931429
0.99929821
1.0001521
1.0001693
1.0001885
1.0002095
1.0002324
1.0002575
1.0002847
1.0003143
1.0003464
1.000381
1.0004183
1.0004584
1.0005012
1.0005467
1.000595
1.0006457
1.0006988
1.0007539
1.0008105
1.0008681
1.000926
1.0009832
1.001039
1.0010921
1.0011414
1.0011857
1.0012238
1.0012544
1.0012768
1.0012898
1.001293
1.0012862
1.0012692
1.0012422
1.0012059
1.001161
1.0011084
1.0010491
1.0009842
1.0009149
1.0008424
1.0007676
1.0006915
1.0006149
1.0005385
1.000463
1.0003889
1.0003168
1.0002468
1.0001793
1.0001144
1.0000523
0.99999314
0.99993681
0.99988335
0.99983272
0.99978487
0.99973972
0.99969719
0.99965718
0.99961959
0.99958429
0.99955119
0.99952016
0.99949109
0.99946386
0.99943838
0.99941452
0.99939219
0.99937129
0.99935172
0.99933339
0.99931623
0.99930013
1.0001521
1.0001693
1.0001885
1.0002095
1.0002324
1.0002574
1.0002847
1.0003143
1.0003464
1.000381
1.0004183
1.0004583
1.0005011
1.0005466
1.0005949
1.0006456
1.0006987
1.0007538
1.0008104
1.000868
1.0009258
1.0009831
1.0010389
1.0010921
1.0011415
1.0011858
1.001224
1.0012549
1.0012774
1.0012906
1.001294
1.0012875
1.0012707
1.001244
1.0012079
1.0011632
1.0011108
1.0010517
1.000987
1.0009178
1.0008454
1.0007707
1.0006946
1.000618
1.0005417
1.0004662
1.0003921
1.0003199
1.0002499
1.0001824
1.0001175
1.0000554
0.99999618
0.99993982
0.99988632
0.99983567
0.99978779
0.99974262
0.99970007
0.99966004
0.99962243
0.99958712
0.999554
0.99952295
0.99949386
0.99946662
0.99944111
0.99941724
0.99939489
0.99937397
0.99935438
0.99933603
0.99931886
0.99930273
1.0001521
1.0001692
1.0001884
1.0002095
1.0002324
1.0002574
1.0002847
1.0003143
1.0003463
1.0003809
1.0004182
1.0004582
1.000501
1.0005465
1.0005947
1.0006455
1.0006986
1.0007536
1.0008102
1.0008678
1.0009257
1.000983
1.0010388
1.001092
1.0011415
1.001186
1.0012244
1.0012554
1.0012781
1.0012916
1.0012953
1.0012891
1.0012727
1.0012463
1.0012105
1.0011662
1.001114
1.0010552
1.0009906
1.0009217
1.0008494
1.0007747
1.0006987
1.0006222
1.0005459
1.0004704
1.0003964
1.0003241
1.0002541
1.0001866
1.0001216
1.0000595
1.0000002
0.99994381
0.99989027
0.99983958
0.99979166
0.99974646
0.99970388
0.99966382
0.99962617
0.99959083
0.99955768
0.9995266
0.99949749
0.99947022
0.99944468
0.99942078
0.9993984
0.99937745
0.99935784
0.99933946
0.99932226
0.99930612
1.0001521
1.0001692
1.0001884
1.0002094
1.0002324
1.0002574
1.0002846
1.0003142
1.0003463
1.0003809
1.0004181
1.0004581
1.0005009
1.0005464
1.0005946
1.0006453
1.0006984
1.0007534
1.00081
1.0008676
1.0009255
1.0009828
1.0010387
1.001092
1.0011416
1.0011862
1.0012248
1.001256
1.0012791
1.0012929
1.001297
1.0012912
1.0012752
1.0012492
1.0012139
1.0011699
1.0011182
1.0010596
1.0009954
1.0009267
1.0008545
1.00078
1.0007041
1.0006277
1.0005514
1.0004759
1.0004019
1.0003297
1.0002596
1.000192
1.000127
1.0000649
1.0000055
0.99994905
0.99989546
0.99984471
0.99979675
0.9997515
0.99970887
0.99966877
0.99963108
0.9995957
0.99956251
0.99953139
0.99950224
0.99947493
0.99944936
0.99942542
0.99940302
0.99938204
0.99936239
0.99934399
0.99932676
0.99931059
1.000152
1.0001692
1.0001884
1.0002094
1.0002323
1.0002573
1.0002846
1.0003142
1.0003462
1.0003808
1.0004181
1.000458
1.0005008
1.0005463
1.0005944
1.0006452
1.0006982
1.0007532
1.0008098
1.0008674
1.0009252
1.0009826
1.0010385
1.0010919
1.0011416
1.0011865
1.0012253
1.0012569
1.0012802
1.0012945
1.0012991
1.0012939
1.0012784
1.001253
1.0012182
1.0011748
1.0011235
1.0010653
1.0010015
1.0009331
1.0008612
1.0007869
1.0007111
1.0006347
1.0005585
1.0004831
1.0004091
1.0003368
1.0002667
1.0001991
1.0001341
1.0000718
1.0000124
0.99995586
0.9999022
0.99985139
0.99980336
0.99975804
0.99971535
0.99967519
0.99963745
0.99960201
0.99956876
0.9995376
0.99950839
0.99948104
0.99945542
0.99943144
0.99940899
0.99938796
0.99936828
0.99934984