/*--------------------------------*- C++ -*----------------------------------*\
| =========                 |                                                 |
| \\      /  F ield         | OpenFOAM: The Open Source CFD Toolbox           |
|  \\    /   O peration     | Version:  v2006                                 |
|   \\  /    A nd           | Website:  www.openfoam.com                      |
|    \\/     M anipulation  |                                                 |
\*---------------------------------------------------------------------------*/
FoamFile
{
    version     2.0;
    format      ascii;
    class       surfaceScalarField;
    location    "1000";
    object      phi;
}
// * * * * * * * * * * * * * * * * * * * * * * * * * * * * * * * * * * * * * //

dimensions      [1 0 -1 0 0 0 0];
oriented        oriented;


internalField   nonuniform List<scalar> 
110670
(
1.7255974e-05
-0.00037597408
0.00035871807
3.0328412e-05
-0.00035376726
0.00034069479
4.0161911e-05
-0.00033452723
0.00032469369
4.7448423e-05
-0.00031756694
0.0003102804
5.2713145e-05
-0.00030249547
0.00029723072
5.6358582e-05
-0.00028902928
0.00028538382
5.8696505e-05
-0.00027694932
0.00027461137
5.9971329e-05
-0.00026607912
0.00026480428
6.0376309e-05
-0.00025627415
0.00025586915
6.0065758e-05
-0.00024741325
0.00024772379
5.916344e-05
-0.00023939528
0.00024029759
5.7769471e-05
-0.00023213109
0.00023352505
5.5965497e-05
-0.00022554819
0.00022735216
5.3818741e-05
-0.00021958411
0.00022173085
5.1384862e-05
-0.00021418507
0.00021661895
4.8709914e-05
-0.00020930489
0.00021197982
4.5832222e-05
-0.00020490253
0.00020778022
4.2783848e-05
-0.00020094259
0.00020399096
3.9591842e-05
-0.0001973943
0.0002005863
3.6279118e-05
-0.00019423112
0.00019754383
3.2865205e-05
-0.00019143021
0.00019484411
2.9366832e-05
-0.00018897183
0.0001924702
2.5798465e-05
-0.00018683921
0.00019040758
2.21727e-05
-0.00018501802
0.00018864378
1.8500649e-05
-0.0001834963
0.00018716834
1.4792214e-05
-0.00018226417
0.0001859726
1.105639e-05
-0.00018131381
0.00018504963
7.3014647e-06
-0.00018063921
0.00018439412
3.5352526e-06
-0.00018023614
0.00018400235
-2.3472044e-07
-0.00018010205
0.00018387202
-4.0009964e-06
-0.00018023605
0.00018400232
-7.7560339e-06
-0.00018063893
0.00018439396
-1.1492011e-05
-0.0001813132
0.00018504917
-1.5200642e-05
-0.00018226306
0.00018597168
-1.8872961e-05
-0.0001834946
0.00018716691
-2.2499125e-05
-0.00018501587
0.00018864203
-2.6068074e-05
-0.00018683712
0.00019040607
-2.95672e-05
-0.00018897062
0.00019246974
-3.2981949e-05
-0.00019143064
0.00019484539
-3.6295502e-05
-0.00019423345
0.000197547
-3.9488311e-05
-0.00019739814
0.00020059095
-4.2537539e-05
-0.00020094719
0.00020399641
-4.5416225e-05
-0.00020490723
0.00020778591
-4.8092315e-05
-0.00020930935
0.00021198543
-5.0527408e-05
-0.00021418908
0.00021662417
-5.2675441e-05
-0.00021958724
0.00022173526
-5.448093e-05
-0.00022554999
0.00022735547
-5.5876764e-05
-0.0002321317
0.00023352753
-5.678118e-05
-0.00023939545
0.00024029986
-5.7093825e-05
-0.00024741335
0.00024772599
-5.6690992e-05
-0.00025627362
0.00025587078
-5.5418724e-05
-0.00026607727
0.000264805
-5.3083991e-05
-0.00027694659
0.00027461185
-4.9442555e-05
-0.00028902714
0.0002853857
-4.4182507e-05
-0.00030249611
0.00029723606
-3.6900576e-05
-0.00031757143
0.00031028949
-2.7068431e-05
-0.00033452637
0.00032469422
-1.3983858e-05
-0.00035370446
0.00034061988
-0.00037555109
0.00035826546
3.3017663e-06
1.7293645e-05
-0.00039326769
3.0397268e-05
-0.00036687085
4.0249072e-05
-0.000344379
4.7546842e-05
-0.00032486468
5.2817209e-05
-0.00030776581
5.6463754e-05
-0.00029267581
5.8799293e-05
-0.00027928484
6.0068957e-05
-0.00026734877
6.0466605e-05
-0.00025667178
6.0147043e-05
-0.00024709368
5.9234315e-05
-0.00023848255
5.7828826e-05
-0.00023072559
5.6012421e-05
-0.00022373178
5.3852587e-05
-0.00021742427
5.1405071e-05
-0.00021173756
4.8715973e-05
-0.00020661578
4.5823645e-05
-0.0002020102
4.2760218e-05
-0.00019787916
3.9552803e-05
-0.00019418688
3.6224367e-05
-0.00019090268
3.2794471e-05
-0.00018800031
2.9279904e-05
-0.00018545726
2.5695167e-05
-0.00018325448
2.205292e-05
-0.00018137577
1.8364294e-05
-0.00017980767
1.4639238e-05
-0.00017853911
1.0886759e-05
-0.00017756133
7.1151738e-06
-0.00017686762
3.3323092e-06
-0.00017645327
-4.5428431e-07
-0.00017631546
-4.2371531e-06
-0.00017645318
-8.0087355e-06
-0.00017686734
-1.1761205e-05
-0.00017756073
-1.5486257e-05
-0.00017853801
-1.9174931e-05
-0.00017980592
-2.2817349e-05
-0.00018137345
-2.6402441e-05
-0.00018325203
-2.991757e-05
-0.00018545549
-3.3348172e-05
-0.00018800004
-3.6677364e-05
-0.00019090426
-3.9885546e-05
-0.00019418996
-4.2949799e-05
-0.00019788294
-4.5843094e-05
-0.00020201393
-4.8533294e-05
-0.00020661915
-5.0981891e-05
-0.00021174048
-5.3142663e-05
-0.00021742646
-5.4959997e-05
-0.00022373266
-5.6366654e-05
-0.00023072504
-5.7280712e-05
-0.00023848139
-5.7601521e-05
-0.00024709255
-5.7205002e-05
-0.00025667014
-5.5936752e-05
-0.00026734552
-5.3603223e-05
-0.00027928012
-4.995939e-05
-0.00029267097
-4.4692486e-05
-0.00030776301
-3.7398149e-05
-0.00032486576
-2.7546586e-05
-0.00034437793
-1.443339e-05
-0.00036681765
-0.00039287702
2.8925371e-06
1.7334123e-05
-0.00041060181
3.0466888e-05
-0.00038000362
4.0337755e-05
-0.00035424987
4.7647364e-05
-0.00033217429
5.2923936e-05
-0.00031304238
5.6572358e-05
-0.00029632423
5.8906449e-05
-0.00028161893
6.0171982e-05
-0.0002686143
6.0563376e-05
-0.00025706318
6.0235802e-05
-0.0002467661
5.9313664e-05
-0.00023756041
5.7897591e-05
-0.00022930952
5.6069788e-05
-0.00022190398
5.3897961e-05
-0.00021525244
5.1437958e-05
-0.00020927755
4.8735875e-05
-0.0002039137
4.5830067e-05
-0.00019910439
4.2752714e-05
-0.00019480181
3.9530988e-05
-0.00019096516
3.618792e-05
-0.00018755961
3.2743136e-05
-0.00018455552
2.9213475e-05
-0.0001819276
2.5613479e-05
-0.00017965448
2.195583e-05
-0.00017771812
1.8251692e-05
-0.00017610353
1.4511037e-05
-0.00017479845
1.0742889e-05
-0.00017379318
6.9555841e-06
-0.00017308031
3.1569693e-06
-0.00017265466
-6.4538072e-07
-0.0001725131
-4.4439812e-06
-0.00017265458
-8.2312428e-06
-0.00017308008
-1.1999308e-05
-0.00017379267
-1.5739851e-05
-0.00017479746
-1.9443896e-05
-0.00017610188
-2.3101552e-05
-0.00017771579
-2.6701749e-05
-0.00017965184
-3.0231858e-05
-0.00018192538
-3.3677303e-05
-0.00018455459
-3.7021152e-05
-0.00018756041
-4.0243718e-05
-0.0001909674
-4.3322003e-05
-0.00019480465
-4.6228921e-05
-0.00019910702
-4.8932286e-05
-0.00020391578
-5.1393499e-05
-0.00020927927
-5.3566162e-05
-0.0002152538
-5.539448e-05
-0.00022190434
-5.68111e-05
-0.00022930842
-5.773396e-05
-0.00023755853
-5.8062131e-05
-0.00024676437
-5.7671181e-05
-0.00025706109
-5.6406248e-05
-0.00026861046
-5.4073272e-05
-0.0002816131
-5.0426517e-05
-0.00029631772
-4.5152291e-05
-0.00031303724
-3.7845248e-05
-0.00033217281
-2.7974153e-05
-0.00035424903
-1.4832537e-05
-0.00037995927
-0.0004102428
2.5332514e-06
1.7374025e-05
-0.00042797584
3.0534623e-05
-0.00039316422
4.0425045e-05
-0.00036414029
4.7746984e-05
-0.00033949623
5.3030419e-05
-0.00031832582
5.6681469e-05
-0.00029997528
5.901497e-05
-0.00028395243
6.0277263e-05
-0.00026987659
6.0663311e-05
-0.00025744923
6.0328696e-05
-0.00024643149
5.9398076e-05
-0.00023662979
5.7972412e-05
-0.00022788386
5.6134243e-05
-0.00022006581
5.3951515e-05
-0.00021306971
5.1480064e-05
-0.0002068061
4.8765927e-05
-0.00020119956
4.5847467e-05
-0.00019618593
4.2756933e-05
-0.00019171128
3.9521599e-05
-0.00018772982
3.6164595e-05
-0.00018420261
3.2705631e-05
-0.00018109656
2.9161607e-05
-0.00017838358
2.5547121e-05
-0.00017604
2.1874887e-05
-0.00017404589
1.8156101e-05
-0.00017238475
1.4400744e-05
-0.0001710431
1.0617854e-05
-0.0001700103
6.8157654e-06
-0.00016927823
3.0023316e-06
-0.00016884123
-8.1487545e-07
-0.0001686959
-4.6283601e-06
-0.0001688411
-8.4305273e-06
-0.00016927791
-1.221348e-05
-0.00017000972
-1.5968846e-05
-0.0001710421
-1.9687584e-05
-0.00017238314
-2.3359776e-05
-0.0001740436
-2.697435e-05
-0.00017603726
-3.0518692e-05
-0.00017838104
-3.3978228e-05
-0.00018109506
-3.7336022e-05
-0.00018420262
-4.0572324e-05
-0.0001877311
-4.3664022e-05
-0.00019171296
-4.6583922e-05
-0.00019618712
-4.9299777e-05
-0.00020119993
-5.1772934e-05
-0.00020680611
-5.3956822e-05
-0.00021306991
-5.5795395e-05
-0.00022006577
-5.7221166e-05
-0.00022788265
-5.8151954e-05
-0.00023662775
-5.8486606e-05
-0.00024642972
-5.8100362e-05
-0.00025744733
-5.6837889e-05
-0.00026987293
-5.450464e-05
-0.00028394635
-5.0854245e-05
-0.00029996812
-4.5571999e-05
-0.00031831949
-3.8251698e-05
-0.00033949311
-2.8360614e-05
-0.00036414011
-1.5190303e-05
-0.00039312958
-0.0004276486
2.2154881e-06
1.7414274e-05
-0.0004453901
3.0604231e-05
-0.00040635417
4.0514797e-05
-0.00037405085
4.7849747e-05
-0.00034683117
5.3140812e-05
-0.00032361688
5.6795295e-05
-0.00030362976
5.9128982e-05
-0.00028628611
6.0388796e-05
-0.00027113641
6.0770251e-05
-0.00025783068
6.042932e-05
-0.00024609056
5.9490911e-05
-0.00023569138
5.80562e-05
-0.00022644915
5.6208228e-05
-0.00021821784
5.401517e-05
-0.00021087665
5.1532815e-05
-0.00020432375
4.8807127e-05
-0.00019847388
4.587653e-05
-0.00019325534
4.2773389e-05
-0.00018860814
3.9525058e-05
-0.0001844815
3.6154703e-05
-0.00018083226
3.2682095e-05
-0.00017762396
2.9124219e-05
-0.0001748257
2.5495756e-05
-0.00017241154
2.1809474e-05
-0.00017035961
1.8076593e-05
-0.00016865187
1.4307116e-05
-0.00016727363
1.0510092e-05
-0.00016621328
6.6938748e-06
-0.00016546201
2.8663209e-06
-0.00016501368
-9.649988e-07
-0.00016486459
-4.7926006e-06
-0.0001650135
-8.6088973e-06
-0.00016546162
-1.2406005e-05
-0.00016621261
-1.6175533e-05
-0.00016727258
-1.9908406e-05
-0.00016865027
-2.3594661e-05
-0.00017035735
-2.7223191e-05
-0.00017240874
-3.0781358e-05
-0.00017482288
-3.4254552e-05
-0.00017762187
-3.762576e-05
-0.00018083142
-4.0875144e-05
-0.00018448172
-4.39795e-05
-0.00018860861
-4.6911553e-05
-0.00019325507
-4.963902e-05
-0.00019847247
-5.2123255e-05
-0.00020432188
-5.4317592e-05
-0.00021087558
-5.6165733e-05
-0.00021821763
-5.7599988e-05
-0.0002264484
-5.8538054e-05
-0.00023568968
-5.8878579e-05
-0.0002460892
-5.8496476e-05
-0.00025782944
-5.7235966e-05
-0.00027113344
-5.4902007e-05
-0.00028628031
-5.1247631e-05
-0.0003036225
-4.5957062e-05
-0.00032361006
-3.8623227e-05
-0.00034682695
-2.8711985e-05
-0.00037405136
-1.5512929e-05
-0.00040632864
-0.00044509437
1.9328436e-06
1.7454514e-05
-0.00046284463
3.0673305e-05
-0.00041957297
4.060437e-05
-0.00038398193
4.7952707e-05
-0.00035417952
5.3251824e-05
-0.00032891601
5.6910234e-05
-0.00030728818
5.9244658e-05
-0.00028862055
6.0502476e-05
-0.00027239423
6.0879851e-05
-0.00025820806
6.0533068e-05
-0.00024574378
5.9587208e-05
-0.00023474553
5.814361e-05
-0.00022500555
5.628604e-05
-0.00021636028
5.4082911e-05
-0.00020867353
5.1589962e-05
-0.00020183081
4.8853007e-05
-0.00019573693
4.5910599e-05
-0.00019031293
4.2795283e-05
-0.00018549283
3.95345e-05
-0.00018122072
3.6151412e-05
-0.00017744917
3.26658e-05
-0.00017413835
2.9094708e-05
-0.00017125462
2.5452864e-05
-0.0001687697
2.1753066e-05
-0.00016665982
1.800657e-05
-0.00016490538
1.4223416e-05
-0.00016349048
1.0412694e-05
-0.00016240256
6.5827712e-06
-0.0001616321
2.7415242e-06
-0.00016117244
-1.1034588e-06
-0.00016101961
-4.9446728e-06
-0.00016117229
-8.7745255e-06
-0.00016163178
-1.2585135e-05
-0.00016240201
-1.6368125e-05
-0.00016348959
-2.0114426e-05
-0.00016490398
-2.3814056e-05
-0.00016665773
-2.7455865e-05
-0.00016876693
-3.1027178e-05
-0.00017125157
-3.4513331e-05
-0.00017413572
-3.7897228e-05
-0.00017744752
-4.1158963e-05
-0.00018121999
-4.4275247e-05
-0.00018549233
-4.721875e-05
-0.00019031157
-4.9957141e-05
-0.00019573408
-5.2451848e-05
-0.00020182718
-5.4656247e-05
-0.00020867119
-5.6513733e-05
-0.00021636014
-5.7956337e-05
-0.0002250058
-5.890154e-05
-0.00023474448
-5.9247727e-05
-0.00024574302
-5.886956e-05
-0.00025820761
-5.7610769e-05
-0.00027239224
-5.5275858e-05
-0.00028861522
-5.1617323e-05
-0.00030728104
-4.6318287e-05
-0.0003289091
-3.897079e-05
-0.00035417445
-2.90394e-05
-0.00038398275
-1.5811728e-05
-0.00041955632
-0.0004625798
1.6736996e-06
1.7494907e-05
-0.00048033954
3.0742777e-05
-0.00043282085
4.0694434e-05
-0.00039393359
4.8056246e-05
-0.00036154134
5.3363605e-05
-0.00033422337
5.7026245e-05
-0.00031095083
5.9361714e-05
-0.00029095602
6.0617903e-05
-0.00027365043
6.0991665e-05
-0.00025858183
6.0639477e-05
-0.0002453916
5.9686484e-05
-0.00023379254
5.8234205e-05
-0.00022355328
5.6367395e-05
-0.00021449347
5.4154549e-05
-0.00020646069
5.1651316e-05
-0.00019932758
4.8903258e-05
-0.00019298888
4.5949246e-05
-0.00018735893
4.282202e-05
-0.00018236561
3.9549135e-05
-0.00017794784
3.6153709e-05
-0.00017405375
3.2655581e-05
-0.00017064023
2.9071849e-05
-0.00016767089
2.5417237e-05
-0.00016511509
2.1704536e-05
-0.00016294712
1.7945009e-05
-0.00016114586
1.4148707e-05
-0.00015969418
1.0324745e-05
-0.0001585786
6.4815272e-06
-0.00015778888
2.626966e-06
-0.00015731788
-1.2313185e-06
-0.00015716133
-5.0857978e-06
-0.00015731781
-8.9288552e-06
-0.00015778872
-1.2752585e-05
-0.00015857828
-1.6548597e-05
-0.00015969358
-2.0307807e-05
-0.00016114477
-2.4020225e-05
-0.00016294532
-2.7674706e-05
-0.00016511246
-3.1258575e-05
-0.00016766771
-3.4757148e-05
-0.00017063715
-3.8153269e-05
-0.00017405141
-4.142698e-05
-0.00017794628
-4.4554861e-05
-0.00018236445
-4.7509534e-05
-0.0001873569
-5.0258549e-05
-0.00019298507
-5.2763344e-05
-0.00019932239
-5.4977493e-05
-0.00020645704
-5.6844046e-05
-0.00021449359
-5.8294782e-05
-0.00022355507
-5.9246891e-05
-0.00023379238
-5.9598386e-05
-0.00024539153
-5.9223741e-05
-0.00025858225
-5.796624e-05
-0.00027364974
-5.5629937e-05
-0.00029095153
-5.1966952e-05
-0.00031094403
-4.6659236e-05
-0.00033421681
-3.929787e-05
-0.00036153582
-2.9346306e-05
-0.00039393431
-1.6090029e-05
-0.0004328126
-0.00048010468
1.434851e-06
1.7535734e-05
-0.00049787528
3.0812215e-05
-0.00044609733
4.0785273e-05
-0.00040390665
4.816099e-05
-0.00036891706
5.3477107e-05
-0.00033953949
5.7144589e-05
-0.00031461831
5.9481543e-05
-0.00029329298
6.0736563e-05
-0.00027490545
6.1107288e-05
-0.00025895256
6.0750202e-05
-0.00024503452
5.9790445e-05
-0.00023283279
5.8329895e-05
-0.00022209274
5.6454535e-05
-0.00021261812
5.4232433e-05
-0.0002042386
5.1719089e-05
-0.00019681424
4.8959844e-05
-0.00019022964
4.5994232e-05
-0.00018439332
4.2855147e-05
-0.00017922653
3.9570211e-05
-0.00017466291
3.6162443e-05
-0.00017064599
3.2651847e-05
-0.00016712964
2.9055589e-05
-0.00016407464
2.5388397e-05
-0.00016144791
2.1663048e-05
-0.00015922178
1.7890797e-05
-0.00015737361
1.4081689e-05
-0.00015588508
1.024484e-05
-0.00015474176
6.3886722e-06
-0.00015393272
2.5211151e-06
-0.00015345033
-1.3501976e-06
-0.00015329002
-5.2177167e-06
-0.0001534503
-9.0738001e-06
-0.00015393265
-1.291052e-05
-0.00015474157
-1.6719456e-05
-0.00015588465
-2.0491499e-05
-0.00015737273
-2.4216641e-05
-0.00015922018
-2.7883727e-05
-0.00016144538
-3.1480117e-05
-0.00016407132
-3.4991102e-05
-0.00016712617
-3.8399431e-05
-0.00017064308
-4.1685124e-05
-0.00017466059
-4.4824503e-05
-0.00017922508
-4.7790253e-05
-0.00018439115
-5.0549748e-05
-0.00019022558
-5.3064307e-05
-0.00019680783
-5.5287889e-05
-0.00020423347
-5.7163114e-05
-0.00021261837
-5.8621705e-05
-0.00022209648
-5.9580495e-05
-0.00023283359
-5.9937017e-05
-0.00024503501
-5.9565476e-05
-0.0002589538
-5.8308784e-05
-0.00027490644
-5.5970473e-05
-0.00029328984
-5.2302389e-05
-0.00031461212
-4.6985443e-05
-0.00033953376
-3.9609288e-05
-0.00036891198
-2.9636733e-05
-0.00040390687
-1.635062e-05
-0.00044609871
-0.00049767046
1.2151634e-06
1.7573023e-05
-0.00051544831
3.0879269e-05
-0.00045940358
4.0874006e-05
-0.0004139014
4.8263058e-05
-0.00037630612
5.3587833e-05
-0.00034486427
5.726073e-05
-0.00031829122
5.9599008e-05
-0.00029563126
6.0853055e-05
-0.0002761595
6.122134e-05
-0.00025932085
6.0859773e-05
-0.00024467296
5.9893417e-05
-0.00023186644
5.8425237e-05
-0.00022062456
5.6542196e-05
-0.00021073508
5.4311425e-05
-0.00020200783
5.1788109e-05
-0.00019429093
4.9017753e-05
-0.00018745929
4.6040768e-05
-0.00018141634
4.2890076e-05
-0.00017607584
3.9593276e-05
-0.00017136611
3.6173314e-05
-0.00016722604
3.2650453e-05
-0.00016360678
2.9041883e-05
-0.00016046608
2.5362288e-05
-0.00015776832
2.162445e-05
-0.00015548395
1.7839651e-05
-0.00015358882
1.4017963e-05
-0.0001520634
1.0168503e-05
-0.00015089231
6.2996842e-06
-0.00015006391
2.4194415e-06
-0.00014957009
-1.4645937e-06
-0.000149406
-5.3448578e-06
-0.00014957004
-9.2136917e-06
-0.00015006382
-1.3063153e-05
-0.00015089211
-1.6884792e-05
-0.00015206302
-2.0669471e-05
-0.00015358806
-2.4407144e-05
-0.00015548251
-2.808665e-05
-0.00015776588
-3.1695375e-05
-0.0001604626
-3.5218574e-05
-0.00016360298
-3.863891e-05
-0.00016722275
-4.1936454e-05
-0.00017136305
-4.5087104e-05
-0.00017607443
-4.8063699e-05
-0.00018141456
-5.0833523e-05
-0.00018745576
-5.3357715e-05
-0.00019428364
-5.5590576e-05
-0.00020200061
-5.7474155e-05
-0.0002107348
-5.8940286e-05
-0.00022063035
-5.9905475e-05
-0.0002318684
-6.0266954e-05
-0.00024467354
-5.9898364e-05
-0.00025932239
-5.8642343e-05
-0.00027616247
-5.6301845e-05
-0.00029563034
-5.2628472e-05
-0.00031828549
-4.730289e-05
-0.00034485935
-3.9911757e-05
-0.00037630311
-2.99189e-05
-0.00041389973
-1.6603065e-05
-0.00045941455
-0.00051527706
1.0035268e-06
1.7609186e-05
-0.0005330575
3.0941724e-05
-0.00047273612
4.0957327e-05
-0.000423917
4.835659e-05
-0.00038370539
5.3688232e-05
-0.00035019592
5.7367809e-05
-0.0003219708
5.9706465e-05
-0.00029796993
6.0960028e-05
-0.00027741307
6.1327906e-05
-0.00025968873
6.0963494e-05
-0.00024430855
5.9991868e-05
-0.00023089482
5.8518584e-05
-0.00021915128
5.6629581e-05
-0.00020884609
5.4392521e-05
-0.00019977078
5.1861167e-05
-0.00019175958
4.9082187e-05
-0.00018468031
4.6096123e-05
-0.00017843028
4.2936303e-05
-0.00017291603
3.9629833e-05
-0.00016805965
3.6200077e-05
-0.00016379629
3.2667386e-05
-0.0001600741
2.904885e-05
-0.00015684755
2.5359126e-05
-0.0001540786
2.1610996e-05
-0.00015173583
1.7815765e-05
-0.0001497936
1.3983537e-05
-0.00014823118
1.012346e-05
-0.00014703223
6.2439603e-06
-0.00014618442
2.3529769e-06
-0.00014567911
-1.5418286e-06
-0.0001455112
-5.4328524e-06
-0.00014567902
-9.3124013e-06
-0.00014618428
-1.3172523e-05
-0.000147032
-1.700476e-05
-0.00014823079
-2.0799945e-05
-0.00014979288
-2.4548016e-05
-0.00015173445
-2.8237842e-05
-0.00015407605
-3.1856776e-05
-0.00015684368
-3.5389916e-05
-0.00016006984
-3.8820083e-05
-0.00016379259
-4.2127356e-05
-0.00016805578
-4.5287433e-05
-0.00017291436
-4.8272683e-05
-0.00017842932
-5.1050767e-05
-0.00018467768
-5.3583439e-05
-0.00019175097
-5.5823698e-05
-0.00019976035
-5.771391e-05
-0.00020884459
-5.9185472e-05
-0.0002191588
-6.0154905e-05
-0.00023089897
-6.0520133e-05
-0.00024430831
-6.0153307e-05
-0.00025968922
-5.8896793e-05
-0.00027741898
-5.655351e-05
-0.00029797363
-5.2874258e-05
-0.00032196475
-4.7543011e-05
-0.0003501906
-4.0137754e-05
-0.00038370837
-3.0129494e-05
-0.00042390799
-1.6787727e-05
-0.00047275632
-0.00053291922
8.5443006e-07
1.7651857e-05
-0.00055070936
3.1002686e-05
-0.00048608696
4.1044956e-05
-0.00043395928
4.8449992e-05
-0.00039111043
5.3788551e-05
-0.00035553448
5.7478153e-05
-0.00032566041
5.9810888e-05
-0.00030030266
6.1061527e-05
-0.00027866372
6.1430723e-05
-0.00026005794
6.1063468e-05
-0.0002439413
6.0086264e-05
-0.00022991762
5.8609109e-05
-0.00021767413
5.6710127e-05
-0.00020694711
5.4467097e-05
-0.00019752775
5.1926719e-05
-0.00018921921
4.9139316e-05
-0.00018189292
4.6143633e-05
-0.0001754346
4.2975332e-05
-0.00016974773
3.965893e-05
-0.00016474325
3.6220071e-05
-0.00016035743
3.267801e-05
-0.00015653204
2.9049817e-05
-0.00015321936
2.5350345e-05
-0.00015037913
2.1592364e-05
-0.00014797785
1.7787193e-05
-0.00014598843
1.394495e-05
-0.00014438894
1.0074812e-05
-0.0001431621
6.1852312e-06
-0.00014229484
2.2841678e-06
-0.00014177806
-1.6206435e-06
-0.00014160639
-5.5216133e-06
-0.00014177806
-9.4110915e-06
-0.00014229481
-1.328108e-05
-0.00014316201
-1.7123158e-05
-0.00014438872
-2.0928163e-05
-0.00014598788
-2.4686099e-05
-0.00014797652
-2.838602e-05
-0.00015037614
-3.2014674e-05
-0.00015321503
-3.5556543e-05
-0.00015652797
-3.8995792e-05
-0.00016035335
-4.2311385e-05
-0.00016474019
-4.5481462e-05
-0.00016974429
-4.8474078e-05
-0.0001754367
-5.1258971e-05
-0.00018189279
-5.3801343e-05
-0.00018920861
-5.6047006e-05
-0.0001975147
-5.7943676e-05
-0.00020694792
-5.9418508e-05
-0.00021768397
-6.0389243e-05
-0.00022992824
-6.0757727e-05
-0.00024393983
-6.0390547e-05
-0.0002600564
-5.9129696e-05
-0.00027867984
-5.6779966e-05
-0.00030032336
-5.3089385e-05
-0.00032565533
-4.77554e-05
-0.00035552458
-4.03285e-05
-0.00039113527
-3.0307386e-05
-0.00043392911
-1.6928932e-05
-0.00048613478
-0.00055060992
7.6176972e-07
1.7713873e-05
-0.00056842323
3.1124719e-05
-0.0004994978
4.120438e-05
-0.00044403894
4.8637699e-05
-0.00039854375
5.4006642e-05
-0.00036090343
5.7700524e-05
-0.00032935429
6.0036377e-05
-0.00030263852
6.129953e-05
-0.00027992687
6.1655028e-05
-0.00026041344
6.1277899e-05
-0.00024356417
6.0285373e-05
-0.0002289251
5.8792325e-05
-0.00021618109
5.6884562e-05
-0.00020503935
5.4621468e-05
-0.00019526466
5.2062777e-05
-0.00018666052
4.9251202e-05
-0.00017908135
4.6233097e-05
-0.0001724165
4.3040031e-05
-0.00016655467
3.9701762e-05
-0.00016140499
3.6237112e-05
-0.00015689279
3.2669336e-05
-0.00015296427
2.9015515e-05
-0.00014956554
2.5290144e-05
-0.00014665376
2.1506244e-05
-0.00014419396
1.7675257e-05
-0.00014215745
1.3807351e-05
-0.00014052104
9.9117385e-06
-0.00013926649
5.996922e-06
-0.00013838003
2.0709116e-06
-0.00013785205
-1.8587116e-06
-0.00013767677
-5.7846447e-06
-0.00013785213
-9.6993394e-06
-0.00013838011
-1.3594764e-05
-0.00013926659
-1.746239e-05
-0.0001405211
-2.129292e-05
-0.00014215735
-2.5075989e-05
-0.00014419345
-2.8799781e-05
-0.00014665235
-3.2452314e-05
-0.0001495625
-3.6019898e-05
-0.00015296039
-3.94834e-05
-0.00015688985
-4.2824208e-05
-0.00016139939
-4.6017068e-05
-0.00016655143
-4.9032967e-05
-0.00017242081
-5.1838208e-05
-0.00017908756
-5.4394947e-05
-0.00018665187
-5.6663146e-05
-0.0001952465
-5.857935e-05
-0.00020503172
-6.0071143e-05
-0.00021619218
-6.1059791e-05
-0.0002289396
-6.1435267e-05
-0.00024356436
-6.1080918e-05
-0.00026041075
-5.9824749e-05
-0.00027993601
-5.7481263e-05
-0.00030266685
-5.3779007e-05
-0.00032935759
-4.8424824e-05
-0.00036087877
-4.097055e-05
-0.00039858955
-3.0904484e-05
-0.00044399517
-1.7476771e-05
-0.00049956249
-0.00056836936
2.8267383e-07
1.7555509e-05
-0.00058597874
3.1046112e-05
-0.00051298841
4.1100788e-05
-0.00045409362
4.8594025e-05
-0.00040603699
5.3947398e-05
-0.0003662568
5.761282e-05
-0.00033301972
5.9997495e-05
-0.0003050232
6.1261932e-05
-0.00028119131
6.1616713e-05
-0.00026076822
6.1232498e-05
-0.00024317996
6.0261506e-05
-0.00022795411
5.8791175e-05
-0.00021471076
5.6882825e-05
-0.000203131
5.4601413e-05
-0.00019298325
5.2030613e-05
-0.00018408972
4.922823e-05
-0.00017627897
4.6222772e-05
-0.00016941105
4.3038985e-05
-0.00016337089
3.9708883e-05
-0.00015807489
3.6259955e-05
-0.00015344386
3.2708859e-05
-0.00014941318
2.9071027e-05
-0.00014592771
2.5360916e-05
-0.00014294366
2.1591598e-05
-0.00014042464
1.7774539e-05
-0.00013834039
1.3919954e-05
-0.00013666646
1.003706e-05
-0.0001353836
6.1343827e-06
-0.00013447736
2.2199246e-06
-0.0001339376
-1.6985081e-06
-0.00013375834
-5.6130523e-06
-0.00013393759
-9.5158255e-06
-0.00013447734
-1.339884e-05
-0.00013538358
-1.7253509e-05
-0.00013666643
-2.1070523e-05
-0.00013834034
-2.4839431e-05
-0.00014042455
-2.8548383e-05
-0.0001429434
-3.2185513e-05
-0.00014592537
-3.5740497e-05
-0.00014940541
-3.919946e-05
-0.00015343089
-4.2541674e-05
-0.00015805718
-4.574216e-05
-0.00016335095
-4.8774229e-05
-0.00016938874
-5.1595764e-05
-0.00017626602
-5.4154898e-05
-0.00018409274
-5.6410876e-05
-0.00019299052
-5.8323654e-05
-0.00020311895
-5.983112e-05
-0.00021468472
-6.0833344e-05
-0.00022793737
-6.1221387e-05
-0.00024317632
-6.0867641e-05
-0.0002607645
-5.962939e-05
-0.00028117426
-5.7286784e-05
-0.00030500945
-5.3605754e-05
-0.00033303862
-4.8208172e-05
-0.00036627635
-4.0789783e-05
-0.00040600794
-3.0666394e-05
-0.00045411856
-1.7300172e-05
-0.00051292872
-0.00058605587
3.8633113e-07
1.7581282e-05
3.1080853e-05
4.1139759e-05
4.8640177e-05
5.3984826e-05
5.7656334e-05
6.0046136e-05
6.1298904e-05
6.1661652e-05
6.1278684e-05
6.0312859e-05
5.884488e-05
5.6929093e-05
5.4648846e-05
5.2077063e-05
4.927832e-05
4.6273845e-05
4.3092225e-05
3.9761082e-05
3.6314039e-05
3.2764114e-05
2.9126917e-05
2.5417414e-05
2.1648535e-05
1.7831713e-05
1.3977149e-05
1.009409e-05
6.1910431e-06
2.276035e-06
-1.643039e-06
-5.5581078e-06
-9.4612101e-06
-1.3344326e-05
-1.7198951e-05
-2.1015834e-05
-2.4784813e-05
-2.8494679e-05
-3.2132188e-05
-3.5685113e-05
-3.9142382e-05
-4.2480987e-05
-4.5679482e-05
-4.8708619e-05
-5.1529262e-05
-5.4091717e-05
-5.6341765e-05
-5.8249663e-05
-5.9752788e-05
-6.0747285e-05
-6.1134762e-05
-6.077113e-05
-5.9527103e-05
-5.7170996e-05
-5.3487788e-05
-4.808269e-05
-4.0658918e-05
-3.0525339e-05
-1.7143401e-05
5.6280238e-07
-1.0034317e-05
-0.00022261735
0.00021666267
1.598922e-05
-4.8606394e-06
-0.00022331269
0.00021813914
-3.9621871e-07
-0.00022404026
0.00021957597
3.4227286e-06
-0.0002247911
0.00022097229
6.6530446e-06
-0.00022555712
0.00022232694
9.3456527e-06
-0.00022633153
0.00022363905
1.1546384e-05
-0.00022710805
0.00022490745
1.3296628e-05
-0.00022788106
0.00022613093
1.4633948e-05
-0.00022864572
0.00022730851
1.5592554e-05
-0.00022939749
0.000228439
1.6203813e-05
-0.00023013254
0.00022952139
1.6496485e-05
-0.00023084721
0.00023055465
1.6497177e-05
-0.00023153833
0.00023153775
1.6230532e-05
-0.00023220299
0.00023246974
1.5719471e-05
-0.00023283841
0.00023334958
1.4985416e-05
-0.00023344233
0.00023417649
1.4048459e-05
-0.00023401272
0.00023494978
1.2927546e-05
-0.00023454786
0.00023566887
1.1640618e-05
-0.00023504616
0.00023633318
1.0204743e-05
-0.00023550606
0.00023694202
8.6362304e-06
-0.00023592607
0.00023749466
6.9507113e-06
-0.00023630484
0.00023799043
5.1632397e-06
-0.00023664138
0.00023842892
3.2883676e-06
-0.00023693498
0.00023880992
1.340239e-06
-0.00023718511
0.00023913329
-6.6733516e-07
-0.00023739106
0.00023939868
-2.7207936e-06
-0.00023755207
0.00023960557
-4.8067608e-06
-0.0002376674
0.0002397534
-6.9120192e-06
-0.00023773646
0.00023984175
-9.0234673e-06
-0.00023775902
0.0002398705
-1.1128048e-05
-0.00023773511
0.00023983972
-1.3212671e-05
-0.00023766493
0.00023974957
-1.5264151e-05
-0.00023754873
0.00023960024
-1.726916e-05
-0.00023738689
0.00023939192
-1.9214176e-05
-0.00023717985
0.00023912489
-2.108543e-05
-0.00023692823
0.0002387995
-2.2868848e-05
-0.00023663282
0.00023841625
-2.4549975e-05
-0.00023629446
0.00023797561
-2.6113865e-05
-0.00023591424
0.00023747814
-2.7544975e-05
-0.00023549326
0.00023692438
-2.8827047e-05
-0.00023503271
0.0002363148
-2.9943017e-05
-0.00023453384
0.00023564982
-3.0874923e-05
-0.00023399795
0.00023492987
-3.1603822e-05
-0.00023342661
0.00023415553
-3.2109632e-05
-0.00023282163
0.00023332745
-3.2371003e-05
-0.00023218521
0.0002324466
-3.2365013e-05
-0.00023151976
0.00023151379
-3.2067026e-05
-0.00023082803
0.00023053006
-3.1450391e-05
-0.00023011269
0.00022949607
-3.0486311e-05
-0.00022937663
0.00022841257
-2.9143482e-05
-0.0002286232
0.00022728039
-2.7387841e-05
-0.00022785624
0.00022610062
-2.5182168e-05
-0.0002270809
0.00022487524
-2.2485723e-05
-0.00022630405
0.00022360764
-1.9254148e-05
-0.00022553736
0.00022230579
-1.5439228e-05
-0.00022480394
0.00022098912
-1.0990123e-05
-0.00022415722
0.00021970821
-5.8564351e-06
-0.00022373864
0.00021860505
-0.00022396018
0.00021810374
-8.564928e-06
-0.000229024
1.4971692e-05
-3.0040492e-06
-0.0002288735
1.7889395e-06
-0.00022883317
5.8831513e-06
-0.00022888524
9.3402622e-06
-0.00022901415
1.2215407e-05
-0.0002292066
1.4558193e-05
-0.00022945076
1.6413404e-05
-0.00022973619
1.7821688e-05
-0.00023005392
1.8820063e-05
-0.00023039579
1.9442469e-05
-0.00023075487
1.9720021e-05
-0.00023112469
1.9681503e-05
-0.00023149974
1.9353576e-05
-0.000231875
1.876105e-05
-0.00023224583
1.7927136e-05
-0.00023260837
1.6873608e-05
-0.00023295914
1.5620982e-05
-0.0002332952
1.418867e-05
-0.00023361381
1.2595115e-05
-0.00023391248
1.0857927e-05
-0.00023418886
8.9940019e-06
-0.00023444089
7.0196271e-06
-0.00023466699
4.9505637e-06
-0.00023486591
2.802116e-06
-0.00023503665
5.8921884e-07
-0.00023517815
-1.6734891e-06
-0.00023528935
-3.9715903e-06
-0.00023536929
-6.2908195e-06
-0.00023541722
-8.617016e-06
-0.00023543281
-1.0936038e-05
-0.00023541608
-1.3233718e-05
-0.00023536724
-1.5495787e-05
-0.00023528666
-1.7707812e-05
-0.00023517485
-1.985513e-05
-0.00023503252
-2.1922789e-05
-0.00023486056
-2.3895481e-05
-0.00023466011
-2.5757474e-05
-0.00023443246
-2.7492535e-05
-0.00023417917
-2.9083814e-05
-0.00023390196
-3.0513727e-05
-0.00023360278
-3.1763826e-05
-0.00023328372
-3.2814686e-05
-0.00023294708
-3.3645773e-05
-0.00023259551
-3.4235311e-05
-0.00023223208
-3.4560113e-05
-0.0002318604
-3.4595383e-05
-0.00023148448
-3.4314436e-05
-0.00023110896
-3.3688447e-05
-0.00023073866
-3.268629e-05
-0.00023037878
-3.1274016e-05
-0.00023003547
-2.9414643e-05
-0.0002297156
-2.7067725e-05
-0.0002294278
-2.4188922e-05
-0.00022918286
-2.0729514e-05
-0.00022899675
-1.6636609e-05
-0.00022889692
-1.1853343e-05
-0.00022894055
-6.3226606e-06
-0.00022926939
-0.00023028284
-7.070811e-06
-0.00023592106
1.3968028e-05
-1.0891045e-06
-0.00023485513
4.0615203e-06
-0.00023398371
8.4558444e-06
-0.00023327949
1.2160582e-05
-0.00023271882
1.5235392e-05
-0.00023228134
1.7733949e-05
-0.00023194925
1.9704724e-05
-0.0002317069
2.1191694e-05
-0.00023154084
2.2234928e-05
-0.00023143897
2.2871152e-05
-0.00023139104
2.3134028e-05
-0.00023138752
2.3054702e-05
-0.00023142038
2.2662035e-05
-0.0002314823
2.1982885e-05
-0.00023156665
2.1042372e-05
-0.00023166783
1.9864074e-05
-0.00023178083
1.8470216e-05
-0.00023190133
1.6881813e-05
-0.00023202541
1.5118834e-05
-0.0002321495
1.3200336e-05
-0.00023227036
1.1144609e-05
-0.00023238517
8.9692797e-06
-0.00023249167
6.6914072e-06
-0.00023258804
4.3275628e-06