/*--------------------------------*- C++ -*----------------------------------*\
| =========                 |                                                 |
| \\      /  F ield         | OpenFOAM: The Open Source CFD Toolbox           |
|  \\    /   O peration     | Version:  v2006                                 |
|   \\  /    A nd           | Website:  www.openfoam.com                      |
|    \\/     M anipulation  |                                                 |
\*---------------------------------------------------------------------------*/
FoamFile
{
    version     2.0;
    format      ascii;
    class       volScalarField;
    location    "1000";
    object      pMean;
}
// * * * * * * * * * * * * * * * * * * * * * * * * * * * * * * * * * * * * * //

dimensions      [1 -1 -2 0 0 0 0];


internalField   nonuniform List<scalar> 
55713
(
1.0000468
1.0000469
1.0000469
1.0000469
1.0000469
1.0000469
1.0000469
1.0000469
1.0000469
1.0000469
1.0000469
1.0000469
1.0000469
1.0000469
1.0000469
1.0000469
1.0000469
1.0000469
1.0000469
1.0000469
1.0000469
1.0000469
1.0000469
1.0000469
1.0000469
1.0000469
1.0000469
1.0000469
1.0000469
1.0000469
1.0000469
1.0000469
1.0000469
1.0000469
1.0000468
1.0000468
1.0000468
1.0000468
1.0000468
1.0000468
1.0000468
1.0000468
1.0000468
1.0000468
1.0000468
1.0000468
1.0000468
1.0000468
1.0000468
1.0000468
1.0000468
1.0000468
1.0000468
1.0000468
1.0000468
1.0000468
1.0000468
1.0000468
1.0000468
1.0000443
1.0000443
1.0000443
1.0000443
1.0000443
1.0000443
1.0000443
1.0000443
1.0000443
1.0000443
1.0000443
1.0000443
1.0000443
1.0000443
1.0000443
1.0000443
1.0000443
1.0000443
1.0000443
1.0000443
1.0000443
1.0000443
1.0000443
1.0000443
1.0000443
1.0000443
1.0000443
1.0000443
1.0000443
1.0000443
1.0000443
1.0000443
1.0000443
1.0000443
1.0000443
1.0000443
1.0000443
1.0000443
1.0000443
1.0000443
1.0000443
1.0000443
1.0000443
1.0000443
1.0000443
1.0000443
1.0000443
1.0000443
1.0000443
1.0000443
1.0000443
1.0000443
1.0000443
1.0000443
1.0000443
1.0000443
1.0000443
1.0000443
1.0000443
1.0000421
1.0000421
1.0000421
1.0000421
1.0000421
1.0000421
1.0000421
1.0000421
1.0000421
1.0000421
1.0000421
1.0000421
1.0000421
1.0000421
1.0000421
1.0000421
1.0000421
1.0000421
1.0000421
1.0000421
1.0000421
1.0000421
1.0000421
1.0000421
1.0000421
1.0000421
1.0000421
1.0000421
1.0000421
1.0000421
1.0000421
1.0000421
1.0000421
1.0000421
1.0000421
1.0000421
1.0000421
1.0000421
1.0000421
1.0000421
1.0000421
1.0000421
1.0000421
1.0000421
1.0000421
1.0000421
1.0000421
1.0000421
1.0000421
1.0000422
1.0000422
1.0000422
1.0000422
1.0000422
1.0000422
1.0000422
1.0000422
1.0000422
1.0000422
1.0000402
1.0000402
1.0000402
1.0000402
1.0000402
1.0000402
1.0000402
1.0000402
1.0000402
1.0000402
1.0000402
1.0000402
1.0000402
1.0000402
1.0000402
1.0000402
1.0000402
1.0000402
1.0000402
1.0000402
1.0000402
1.0000402
1.0000402
1.0000402
1.0000402
1.0000402
1.0000402
1.0000402
1.0000402
1.0000402
1.0000402
1.0000402
1.0000402
1.0000402
1.0000402
1.0000402
1.0000402
1.0000402
1.0000402
1.0000402
1.0000402
1.0000402
1.0000403
1.0000403
1.0000403
1.0000403
1.0000403
1.0000403
1.0000403
1.0000403
1.0000403
1.0000403
1.0000403
1.0000403
1.0000403
1.0000403
1.0000403
1.0000403
1.0000403
1.0000385
1.0000386
1.0000386
1.0000386
1.0000386
1.0000386
1.0000386
1.0000386
1.0000386
1.0000386
1.0000386
1.0000386
1.0000386
1.0000386
1.0000386
1.0000386
1.0000386
1.0000386
1.0000386
1.0000386
1.0000386
1.0000386
1.0000386
1.0000386
1.0000386
1.0000386
1.0000386
1.0000386
1.0000386
1.0000386
1.0000386
1.0000386
1.0000386
1.0000386
1.0000386
1.0000386
1.0000386
1.0000386
1.0000386
1.0000386
1.0000386
1.0000386
1.0000386
1.0000386
1.0000386
1.0000386
1.0000386
1.0000386
1.0000386
1.0000386
1.0000386
1.0000386
1.0000386
1.0000386
1.0000386
1.0000386
1.0000387
1.0000387
1.0000387
1.0000372
1.0000372
1.0000372
1.0000372
1.0000372
1.0000372
1.0000372
1.0000372
1.0000372
1.0000372
1.0000372
1.0000372
1.0000372
1.0000372
1.0000372
1.0000372
1.0000372
1.0000372
1.0000372
1.0000372
1.0000372
1.0000372
1.0000372
1.0000372
1.0000372
1.0000372
1.0000372
1.0000373
1.0000373
1.0000373
1.0000373
1.0000373
1.0000373
1.0000373
1.0000373
1.0000373
1.0000373
1.0000373
1.0000373
1.0000373
1.0000373
1.0000373
1.0000373
1.0000373
1.0000373
1.0000373
1.0000373
1.0000373
1.0000373
1.0000373
1.0000373
1.0000373
1.0000373
1.0000373
1.0000373
1.0000373
1.0000373
1.0000373
1.0000373
1.000036
1.000036
1.000036
1.000036
1.000036
1.000036
1.000036
1.000036
1.000036
1.000036
1.000036
1.000036
1.000036
1.000036
1.000036
1.000036
1.000036
1.000036
1.000036
1.000036
1.000036
1.000036
1.000036
1.000036
1.000036
1.000036
1.000036
1.000036
1.000036
1.000036
1.000036
1.000036
1.000036
1.000036
1.000036
1.000036
1.000036
1.000036
1.000036
1.000036
1.000036
1.000036
1.000036
1.000036
1.000036
1.000036
1.000036
1.0000361
1.0000361
1.0000361
1.0000361
1.0000361
1.0000361
1.0000361
1.0000361
1.0000361
1.0000361
1.0000361
1.0000361
1.0000349
1.0000349
1.0000349
1.0000349
1.0000349
1.0000349
1.0000349
1.0000349
1.0000349
1.0000349
1.0000349
1.0000349
1.0000349
1.0000349
1.0000349
1.0000349
1.0000349
1.0000349
1.0000349
1.0000349
1.0000349
1.0000349
1.0000349
1.0000349
1.0000349
1.0000349
1.0000349
1.0000349
1.0000349
1.0000349
1.0000349
1.0000349
1.0000349
1.0000349
1.0000349
1.0000349
1.0000349
1.0000349
1.0000349
1.0000349
1.0000349
1.0000349
1.0000349
1.0000349
1.0000349
1.0000349
1.0000349
1.0000349
1.0000349
1.0000349
1.0000349
1.0000349
1.0000349
1.0000349
1.0000349
1.0000349
1.0000349
1.0000349
1.0000349
1.0000344
1.0000344
1.0000344
1.0000344
1.0000344
1.0000344
1.0000344
1.0000344
1.0000345
1.0000345
1.0000345
1.0000345
1.0000345
1.0000345
1.0000345
1.0000345
1.0000345
1.0000345
1.0000345
1.0000345
1.0000345
1.0000345
1.0000345
1.0000345
1.0000345
1.0000345
1.0000345
1.0000345
1.0000345
1.0000345
1.0000345
1.0000345
1.0000345
1.0000345
1.0000345
1.0000345
1.0000345
1.0000345
1.0000345
1.0000345
1.0000345
1.0000345
1.0000345
1.0000345
1.0000345
1.0000345
1.0000345
1.0000345
1.0000345
1.0000345
1.0000345
1.0000345
1.0000345
1.0000345
1.0000345
1.0000345
1.0000345
1.0000345
1.0000345
1.0000342
1.0000342
1.0000342
1.0000342
1.0000342
1.0000342
1.0000342
1.0000342
1.0000342
1.0000342
1.0000342
1.0000342
1.0000342
1.0000342
1.0000342
1.0000342
1.0000342
1.0000342
1.0000342
1.0000342
1.0000342
1.0000342
1.0000342
1.0000342
1.0000342
1.0000342
1.0000342
1.0000342
1.0000342
1.0000342
1.0000342
1.0000342
1.0000342
1.0000342
1.0000342
1.0000342
1.0000342
1.0000342
1.0000342
1.0000342
1.0000342
1.0000342
1.0000342
1.0000342
1.0000342
1.0000342
1.0000342
1.0000342
1.0000342
1.0000343
1.0000343
1.0000343
1.0000343
1.0000343
1.0000343
1.0000343
1.0000343
1.0000343
1.0000343
1.0000313
1.0000313
1.0000313
1.0000313
1.0000313
1.0000313
1.0000314
1.0000314
1.0000314
1.0000314
1.0000314
1.0000314
1.0000314
1.0000314
1.0000314
1.0000314
1.0000314
1.0000314
1.0000314
1.0000314
1.0000314
1.0000314
1.0000314
1.0000314
1.0000314
1.0000314
1.0000314
1.0000314
1.0000314
1.0000314
1.0000314
1.0000314
1.0000314
1.0000314
1.0000314
1.0000314
1.0000314
1.0000314
1.0000314
1.0000314
1.0000314
1.0000314
1.0000314
1.0000314
1.0000314
1.0000314
1.0000314
1.0000314
1.0000314
1.0000314
1.0000314
1.0000314
1.0000314
1.0000314
1.0000314
1.0000314
1.0000314
1.0000314
1.0000314
1.0000314
1.0000314
1.0000314
1.0000314
1.0000314
1.0000313
1.0000313
1.0000313
1.0000313
1.0000313
1.0000313
1.0000313
1.0000313
1.0000312
1.0000312
1.0000312
1.0000312
1.0000312
1.0000312
1.0000312
1.0000312
1.0000312
1.0000312
1.0000312
1.0000312
1.0000312
1.0000312
1.0000312
1.0000311
1.0000311
1.0000311
1.0000311
1.0000311
1.0000311
1.0000311
1.0000311
1.0000311
1.0000311
1.0000311
1.0000311
1.0000311
1.0000311
1.0000311
1.0000311
1.0000311
1.0000311
1.000031
1.000031
1.000031
1.000031
1.000031
1.000031
1.000031
1.000031
1.000031
1.000031
1.000031
1.0000309
1.0000309
1.0000479
1.0000479
1.0000479
1.0000479
1.0000479
1.0000479
1.0000479
1.0000478
1.0000478
1.0000478
1.0000478
1.0000478
1.0000478
1.0000478
1.0000478
1.0000478
1.0000478
1.0000478
1.0000478
1.0000478
1.0000478
1.0000478
1.0000478
1.0000478
1.0000478
1.0000478
1.0000478
1.0000478
1.0000478
1.0000478
1.0000478
1.0000478
1.0000478
1.0000478
1.0000478
1.0000478
1.0000478
1.0000478
1.0000478
1.0000478
1.0000478
1.0000478
1.0000478
1.0000478
1.0000478
1.0000478
1.0000478
1.0000478
1.0000478
1.0000478
1.0000478
1.0000478
1.0000478
1.0000478
1.0000478
1.0000478
1.0000478
1.0000478
1.0000478
1.0000305
1.0000305
1.0000305
1.0000305
1.0000305
1.0000306
1.0000306
1.0000306
1.0000306
1.0000306
1.0000306
1.0000306
1.0000306
1.0000306
1.0000306
1.0000306
1.0000306
1.0000306
1.0000306
1.0000306
1.0000306
1.0000306
1.0000306
1.0000307
1.0000307
1.0000307
1.0000307
1.0000307
1.0000307
1.0000307
1.0000307
1.0000307
1.0000307
1.0000307
1.0000307
1.0000307
1.0000307
1.0000307
1.0000307
1.0000307
1.0000307
1.0000307
1.0000307
1.0000307
1.0000307
1.0000307
1.0000307
1.0000307
1.0000307
1.0000307
1.0000307
1.0000306
1.0000306
1.0000306
1.0000306
1.0000306
1.0000306
1.0000306
1.0000306
1.0001595
1.0001596
1.0001596
1.0001597
1.0001597
1.0001598
1.0001598
1.0001599
1.0001599
1.00016
1.00016
1.00016
1.0001601
1.0001601
1.0001602
1.0001602
1.0001603
1.0001603
1.0001603
1.0001604
1.0001604
1.0001604
1.0001605
1.0001605
1.0001606
1.0001606
1.0001606
1.0001606
1.0001607
1.0001607
1.0001607
1.0001608
1.0001608
1.0001608
1.0001608
1.0001609
1.0001609
1.0001609
1.0001609
1.0001609
1.0001609
1.000161
1.000161
1.000161
1.000161
1.000161
1.000161
1.000161
1.000161
1.0001611
1.0001611
1.0001611
1.0001611
1.0001611
1.0001611
1.0001611
1.0001611
1.0001611
1.0001611
1.0001466
1.0001467
1.0001467
1.0001468
1.0001468
1.0001468
1.0001469
1.0001469
1.000147
1.000147
1.000147
1.0001471
1.0001471
1.0001471
1.0001472
1.0001472
1.0001473
1.0001473
1.0001473
1.0001473
1.0001474
1.0001474
1.0001474
1.0001475
1.0001475
1.0001475
1.0001475
1.0001476
1.0001476
1.0001476
1.0001476
1.0001477
1.0001477
1.0001477
1.0001477
1.0001477
1.0001478
1.0001478
1.0001478
1.0001478
1.0001478
1.0001478
1.0001478
1.0001479
1.0001479
1.0001479
1.0001479
1.0001479
1.0001479
1.0001479
1.0001479
1.0001479
1.0001479
1.0001479
1.0001479
1.0001479
1.0001479
1.0001479
1.0001479
1.0001347
1.0001347
1.0001347
1.0001348
1.0001348
1.0001348
1.0001349
1.0001349
1.0001349
1.000135
1.000135
1.000135
1.000135
1.0001351
1.0001351
1.0001351
1.0001352
1.0001352
1.0001352
1.0001352
1.0001353
1.0001353
1.0001353
1.0001353
1.0001353
1.0001354
1.0001354
1.0001354
1.0001354
1.0001354
1.0001355
1.0001355
1.0001355
1.0001355
1.0001355
1.0001355
1.0001356
1.0001356
1.0001356
1.0001356
1.0001356
1.0001356
1.0001356
1.0001356
1.0001357
1.0001357
1.0001357
1.0001357
1.0001357
1.0001357
1.0001357
1.0001357
1.0001357
1.0001357
1.0001357
1.0001357
1.0001357
1.0001357
1.0001357
1.0001234
1.0001235
1.0001235
1.0001235
1.0001236
1.0001236
1.0001236
1.0001236
1.0001237
1.0001237
1.0001237
1.0001237
1.0001238
1.0001238
1.0001238
1.0001238
1.0001239
1.0001239
1.0001239
1.0001239
1.0001239
1.000124
1.000124
1.000124
1.000124
1.000124
1.000124
1.0001241
1.0001241
1.0001241
1.0001241
1.0001241
1.0001241
1.0001241
1.0001242
1.0001242
1.0001242
1.0001242
1.0001242
1.0001242
1.0001242
1.0001242
1.0001242
1.0001243
1.0001243
1.0001243
1.0001243
1.0001243
1.0001243
1.0001243
1.0001243
1.0001243
1.0001243
1.0001243
1.0001243
1.0001243
1.0001243
1.0001243
1.0001243
1.000113
1.0001131
1.0001131
1.0001131
1.0001131
1.0001132
1.0001132
1.0001132
1.0001132
1.0001132
1.0001133
1.0001133
1.0001133
1.0001133
1.0001133
1.0001134
1.0001134
1.0001134
1.0001134
1.0001134
1.0001134
1.0001135
1.0001135
1.0001135
1.0001135
1.0001135
1.0001135
1.0001135
1.0001136
1.0001136
1.0001136
1.0001136
1.0001136
1.0001136
1.0001136
1.0001136
1.0001136
1.0001136
1.0001137
1.0001137
1.0001137
1.0001137
1.0001137
1.0001137
1.0001137
1.0001137
1.0001137
1.0001137
1.0001137
1.0001137
1.0001137
1.0001137
1.0001137
1.0001137
1.0001137
1.0001137
1.0001137
1.0001137
1.0001137
1.0001034
1.0001034
1.0001034
1.0001034
1.0001035
1.0001035
1.0001035
1.0001035
1.0001035
1.0001036
1.0001036
1.0001036
1.0001036
1.0001036
1.0001036
1.0001036
1.0001037
1.0001037
1.0001037
1.0001037
1.0001037
1.0001037
1.0001037
1.0001037
1.0001038
1.0001038
1.0001038
1.0001038
1.0001038
1.0001038
1.0001038
1.0001038
1.0001038
1.0001038
1.0001039
1.0001039
1.0001039
1.0001039
1.0001039
1.0001039
1.0001039
1.0001039
1.0001039
1.0001039
1.0001039
1.0001039
1.0001039
1.0001039
1.0001039
1.0001039
1.0001039
1.0001039
1.0001039
1.0001039
1.0001039
1.0001039
1.000104
1.000104
1.000104
1.0000945
1.0000945
1.0000945
1.0000945
1.0000945
1.0000946
1.0000946
1.0000946
1.0000946
1.0000946
1.0000946
1.0000946
1.0000946
1.0000947
1.0000947
1.0000947
1.0000947
1.0000947
1.0000947
1.0000947
1.0000947
1.0000947
1.0000948
1.0000948
1.0000948
1.0000948
1.0000948
1.0000948
1.0000948
1.0000948
1.0000948
1.0000948
1.0000948
1.0000948
1.0000948
1.0000949
1.0000949
1.0000949
1.0000949
1.0000949
1.0000949
1.0000949
1.0000949
1.0000949
1.0000949
1.0000949
1.0000949
1.0000949
1.0000949
1.0000949
1.0000949
1.0000949
1.0000949
1.0000949
1.0000949
1.0000949
1.0000949
1.0000949
1.0000949
1.0000863
1.0000863
1.0000863
1.0000863
1.0000863
1.0000863
1.0000863
1.0000863
1.0000864
1.0000864
1.0000864
1.0000864
1.0000864
1.0000864
1.0000864
1.0000864
1.0000864
1.0000864
1.0000865
1.0000865
1.0000865
1.0000865
1.0000865
1.0000865
1.0000865
1.0000865
1.0000865
1.0000865
1.0000865
1.0000865
1.0000865
1.0000865
1.0000865
1.0000866
1.0000866
1.0000866
1.0000866
1.0000866
1.0000866
1.0000866
1.0000866
1.0000866
1.0000866
1.0000866
1.0000866
1.0000866
1.0000866
1.0000866
1.0000866
1.0000866
1.0000866
1.0000866
1.0000866
1.0000866
1.0000866
1.0000866
1.0000866
1.0000866
1.0000866
1.0000787
1.0000787
1.0000787
1.0000788
1.0000788
1.0000788
1.0000788
1.0000788
1.0000788
1.0000788
1.0000788
1.0000788
1.0000788
1.0000788
1.0000788
1.0000789
1.0000789
1.0000789
1.0000789
1.0000789
1.0000789
1.0000789
1.0000789
1.0000789
1.0000789
1.0000789
1.0000789
1.0000789
1.0000789
1.0000789
1.0000789
1.0000789
1.0000789
1.000079
1.000079
1.000079
1.000079
1.000079
1.000079
1.000079
1.000079
1.000079
1.000079
1.000079
1.000079
1.000079
1.000079
1.000079
1.000079
1.000079
1.000079
1.000079
1.000079
1.000079
1.000079
1.000079
1.000079
1.000079
1.000079
1.0000718
1.0000718
1.0000718
1.0000718
1.0000719
1.0000719
1.0000719
1.0000719
1.0000719
1.0000719
1.0000719
1.0000719
1.0000719
1.0000719
1.0000719
1.0000719
1.0000719
1.0000719
1.0000719
1.000072
1.000072
1.000072
1.000072
1.000072
1.000072
1.000072
1.000072
1.000072
1.000072
1.000072
1.000072
1.000072
1.000072
1.000072
1.000072
1.000072
1.000072
1.000072
1.000072
1.000072
1.000072
1.000072
1.000072
1.000072
1.000072
1.000072
1.000072
1.000072
1.000072
1.000072
1.000072
1.000072
1.000072
1.000072
1.000072
1.0000721
1.0000721
1.0000721
1.0000721
1.0000655
1.0000656
1.0000656
1.0000656
1.0000656
1.0000656
1.0000656
1.0000656
1.0000656
1.0000656
1.0000656
1.0000656
1.0000656
1.0000656
1.0000656
1.0000656
1.0000656
1.0000656
1.0000656
1.0000656
1.0000657
1.0000657
1.0000657
1.0000657
1.0000657
1.0000657
1.0000657
1.0000657
1.0000657
1.0000657
1.0000657
1.0000657
1.0000657
1.0000657
1.0000657
1.0000657
1.0000657
1.0000657
1.0000657
1.0000657
1.0000657
1.0000657
1.0000657
1.0000657
1.0000657
1.0000657
1.0000657
1.0000657
1.0000657
1.0000657
1.0000657
1.0000657
1.0000657
1.0000657
1.0000657
1.0000657
1.0000657
1.0000657
1.0000657
1.0000598
1.0000598
1.0000598
1.0000599
1.0000599
1.0000599
1.0000599
1.0000599
1.0000599
1.0000599
1.0000599
1.0000599
1.0000599
1.0000599
1.0000599
1.0000599
1.0000599
1.0000599
1.0000599
1.0000599
1.0000599
1.0000599
1.0000599
1.0000599
1.0000599
1.0000599
1.0000599
1.0000599
1.0000599
1.0000599
1.0000599
1.0000599
1.00006
1.00006
1.00006
1.00006
1.00006
1.00006
1.00006
1.00006
1.00006
1.00006
1.00006
1.00006
1.00006
1.00006
1.00006
1.00006
1.00006
1.00006
1.00006
1.00006
1.00006
1.00006
1.00006
1.00006
1.00006
1.00006
1.00006
1.0000547
1.0000547
1.0000547
1.0000547
1.0000547
1.0000547
1.0000547
1.0000547
1.0000547
1.0000547
1.0000547
1.0000547
1.0000547
1.0000547
1.0000547
1.0000547
1.0000547
1.0000547
1.0000547
1.0000547
1.0000547
1.0000547
1.0000548
1.0000548
1.0000548
1.0000548
1.0000548
1.0000548
1.0000548
1.0000548
1.0000548
1.0000548
1.0000548
1.0000548
1.0000548
1.0000548
1.0000548
1.0000548
1.0000548
1.0000548
1.0000548
1.0000548
1.0000548
1.0000548
1.0000548
1.0000548
1.0000548
1.0000548
1.0000548
1.0000548
1.0000548
1.0000548
1.0000548
1.0000548
1.0000548
1.0000548
1.0000548
1.0000548
1.0000548
1.0000502
1.0000502
1.0000502
1.0000502
1.0000502
1.0000502
1.0000502
1.0000502
1.0000502
1.0000502
1.0000502
1.0000502
1.0000502
1.0000502
1.0000502
1.0000502
1.0000502
1.0000502
1.0000502
1.0000502
1.0000502
1.0000502
1.0000502
1.0000502
1.0000502
1.0000502
1.0000502
1.0000502
1.0000502
1.0000502
1.0000503
1.0000503
1.0000503
1.0000503
1.0000503
1.0000503
1.0000503
1.0000503
1.0000503
1.0000503
1.0000503
1.0000503
1.0000503
1.0000503
1.0000503
1.0000503
1.0000503
1.0000503
1.0000503
1.0000503
1.0000503
1.0000503
1.0000503
1.0000503
1.0000503
1.0000503
1.0000503
1.0000503
1.0000503
1.0001767
1.0001956
1.0002168
1.0002401
1.0002656
1.0002934
1.0003237
1.0003567
1.0003926
1.0004313
1.0004732
1.0005182
1.0005665
1.000618
1.0006729
1.0007309
1.000792
1.0008558
1.0009219
1.00099
1.0010593
1.001129
1.0011984
1.0012663
1.0013315
1.001393
1.0014492
1.001499
1.0015412
1.0015747
1.0015985
1.0016124
1.0016159
1.0016092
1.0015927
1.0015671
1.0015333
1.0014921
1.0014445
1.0013918
1.001335
1.0012751
1.0012131
1.0011497
1.0010858
1.0010218
1.0009584
1.000896
1.0008351
1.0007759
1.0007187
1.0006635
1.0006106
1.00056
1.0005118
1.0004658
1.000422
1.0003805
1.0003412
1.0003041
1.000269
1.0002359
1.0002046
1.0001752
1.0001475
1.0001215
1.0000969
1.0000738
1.0000521
1.0000317
1.0000125
0.99999443
0.99997743
0.99996143
1.0001767
1.0001956
1.0002168
1.0002401
1.0002656
1.0002934
1.0003237
1.0003567
1.0003926
1.0004313
1.0004732
1.0005182
1.0005665
1.000618
1.0006729
1.0007309
1.000792
1.0008558
1.0009219
1.00099
1.0010593
1.001129
1.0011984
1.0012663
1.0013315
1.001393
1.0014492
1.001499
1.0015412
1.0015747
1.0015986
1.0016124
1.0016159
1.0016092
1.0015928
1.0015671
1.0015333
1.0014921
1.0014445
1.0013918
1.001335
1.0012751
1.001213
1.0011497
1.0010857
1.0010217
1.0009583
1.000896
1.000835
1.0007759
1.0007186
1.0006635
1.0006105
1.00056
1.0005117
1.0004658
1.000422
1.0003805
1.0003412
1.0003041
1.000269
1.0002359
1.0002046
1.0001752
1.0001475
1.0001215
1.0000969
1.0000739
1.0000522
1.0000317
1.0000125
0.99999448
0.99997749
0.99996145
1.0001767
1.0001956
1.0002168
1.0002401
1.0002656
1.0002934
1.0003237
1.0003567
1.0003926
1.0004313
1.0004732
1.0005182
1.0005665
1.000618
1.0006729
1.0007309
1.000792
1.0008558
1.0009219
1.00099
1.0010593
1.001129
1.0011984
1.0012663
1.0013315
1.001393
1.0014492
1.0014991
1.0015412
1.0015747
1.0015986
1.0016124
1.0016159
1.0016093
1.0015928
1.0015672
1.0015333
1.0014921
1.0014446
1.0013918
1.001335
1.0012751
1.0012131
1.0011497
1.0010857
1.0010218
1.0009583
1.000896
1.0008351
1.0007759
1.0007187
1.0006635
1.0006106
1.00056
1.0005117
1.0004657
1.000422
1.0003805
1.0003412
1.0003041
1.000269
1.0002359
1.0002047
1.0001752
1.0001476
1.0001215
1.000097
1.0000739
1.0000522
1.0000318
1.0000126
0.99999457
0.99997757
0.99996153
1.0001767
1.0001956
1.0002168
1.0002401
1.0002656
1.0002934
1.0003237
1.0003567
1.0003925
1.0004313
1.0004731
1.0005182
1.0005664
1.000618
1.0006729
1.0007309
1.0007919
1.0008557
1.0009219
1.00099
1.0010593
1.001129
1.0011984
1.0012663
1.0013315
1.001393
1.0014492
1.0014991
1.0015412
1.0015747
1.0015986
1.0016124
1.001616
1.0016093
1.0015928
1.0015672
1.0015334
1.0014921
1.0014446
1.0013919
1.0013351
1.0012752
1.0012132
1.0011498
1.0010858
1.0010218
1.0009584
1.0008961
1.0008351
1.000776
1.0007187
1.0006636
1.0006106
1.0005601
1.0005118
1.0004658
1.0004221
1.0003806
1.0003413
1.0003042
1.0002691
1.000236
1.0002048
1.0001754
1.0001477
1.0001216
1.0000971
1.0000741
1.0000524
1.000032
1.0000128
0.99999474
0.99997774
0.99996169
1.0001767
1.0001956
1.0002168
1.0002401
1.0002656
1.0002934
1.0003237
1.0003567
1.0003925
1.0004313
1.0004731
1.0005182
1.0005664
1.000618
1.0006728
1.0007309
1.0007919
1.0008557
1.0009219
1.0009899
1.0010592
1.001129
1.0011984
1.0012663
1.0013315
1.001393
1.0014493
1.0014991
1.0015413
1.0015748
1.0015987
1.0016125
1.0016161
1.0016094
1.0015929
1.0015673
1.0015335
1.0014923
1.0014448
1.0013921
1.0013352
1.0012753
1.0012133
1.0011499
1.0010859
1.0010219
1.0009585
1.0008962
1.0008353
1.0007761
1.0007189
1.0006637
1.0006108
1.0005602
1.0005119
1.0004659
1.0004222
1.0003807
1.0003414
1.0003043
1.0002692
1.0002361
1.0002049
1.0001755
1.0001479
1.0001218
1.0000973
1.0000743
1.0000526
1.0000322
1.000013
0.99999494
0.99997792
0.99996184
1.0001767
1.0001956
1.0002168
1.0002401
1.0002656
1.0002934
1.0003237
1.0003567
1.0003925
1.0004313
1.0004731
1.0005181
1.0005664
1.000618
1.0006728
1.0007309
1.0007919
1.0008557
1.0009219
1.0009899
1.0010592
1.001129
1.0011983
1.0012662
1.0013315
1.001393
1.0014493
1.0014991
1.0015413
1.0015748
1.0015987
1.0016126
1.0016162
1.0016096
1.0015931
1.0015675
1.0015336
1.0014925
1.001445
1.0013923
1.0013355
1.0012755
1.0012135
1.0011501
1.0010861
1.0010222
1.0009588
1.0008964
1.0008355
1.0007763
1.0007191
1.0006639
1.000611
1.0005604
1.0005121
1.0004661
1.0004224
1.0003809
1.0003416
1.0003045
1.0002695
1.0002364
1.0002052
1.0001758
1.0001481
1.0001221
1.0000976
1.0000746
1.0000529
1.0000325
1.0000133
0.99999522
0.99997819
0.9999621
1.0001766
1.0001956
1.0002168
1.0002401
1.0002656
1.0002934
1.0003237
1.0003567
1.0003925
1.0004313
1.0004731
1.0005181
1.0005664
1.000618
1.0006728
1.0007308
1.0007919
1.0008557
1.0009219
1.0009899
1.0010592
1.001129
1.0011983
1.0012662
1.0013315
1.001393
1.0014493
1.0014992
1.0015414
1.0015749
1.0015989
1.0016127
1.0016164
1.0016098
1.0015933
1.0015678
1.0015339
1.0014927
1.0014452
1.0013926
1.0013358
1.0012759
1.0012138
1.0011504
1.0010864
1.0010225
1.0009591
1.0008967
1.0008358
1.0007766
1.0007194
1.0006643
1.0006113
1.0005607
1.0005124
1.0004664
1.0004227
1.0003812
1.000342
1.0003048
1.0002698
1.0002367
1.0002055
1.0001761
1.0001485
1.0001225
1.000098
1.0000749
1.0000533
1.0000329
1.0000136
0.99999555
0.99997851
0.9999624
1.0001766
1.0001956
1.0002168
1.0002401
1.0002655
1.0002934
1.0003237
1.0003567
1.0003925
1.0004313
1.0004731
1.0005181
1.0005664
1.0006179
1.0006728
1.0007308
1.0007918
1.0008556
1.0009218
1.0009899
1.0010591
1.0011289
1.0011983
1.0012662
1.0013315
1.001393
1.0014493
1.0014992
1.0015415
1.001575
1.001599
1.0016129
1.0016166
1.00161
1.0015936
1.0015681
1.0015343
1.0014931
1.0014457
1.001393
1.0013362
1.0012763
1.0012143
1.0011509
1.0010869
1.0010229
1.0009595
1.0008972
1.0008363
1.0007771
1.0007199
1.0006647
1.0006118
1.0005612
1.0005129
1.0004669
1.0004231
1.0003817
1.0003424
1.0003053
1.0002703
1.0002372
1.000206
1.0001767
1.000149
1.000123
1.0000985
1.0000755
1.0000538
1.0000334
1.0000142
0.99999606
0.99997902
0.9999629
1.0001766
1.0001956
1.0002168
1.0002401
1.0002655
1.0002933
1.0003237
1.0003567
1.0003925
1.0004312
1.0004731
1.0005181
1.0005663
1.0006179
1.0006727
1.0007308
1.0007918
1.0008556
1.0009218
1.0009898
1.0010591
1.0011289
1.0011982
1.0012662
1.0013315
1.001393
1.0014493
1.0014993
1.0015416
1.0015752
1.0015992
1.0016132
1.0016169
1.0016104
1.0015941
1.0015686
1.0015348
1.0014937
1.0014463
1.0013936
1.0013369
1.001277
1.0012149
1.0011516
1.0010876
1.0010236
1.0009602
1.0008979
1.000837
1.0007778
1.0007205
1.0006654
1.0006125
1.0005618
1.0005135
1.0004675
1.0004238
1.0003824
1.0003431
1.000306
1.0002709
1.0002379
1.0002067
1.0001773
1.0001497
1.0001237
1.0000992
1.0000761
1.0000545
1.000034
1.0000148
0.99999672
0.99997966
0.99996353
1.0001766
1.0001955
1.0002168
1.0002401
1.0002655
1.0002933
1.0003237
1.0003567
1.0003925
1.0004312
1.000473
1.000518
1.0005663
1.0006178
1.0006727
1.0007307
1.0007917
1.0008555
1.0009217
1.0009897
1.001059
1.0011288
1.0011982
1.0012661
1.0013314
1.001393
1.0014494
1.0014994
1.0015417
1.0015754
1.0015995
1.0016136
1.0016174
1.0016109
1.0015947
1.0015692
1.0015355
1.0014945
1.0014471
1.0013945
1.0013377
1.0012779
1.0012159
1.0011525
1.0010885
1.0010245
1.0009612
1.0008988
1.0008379
1.0007787
1.0007215
1.0006663
1.0006134
1.0005628
1.0005144
1.0004684
1.0004247
1.0003833
1.000344
1.0003069
1.0002719
1.0002388
1.0002077
1.0001783
1.0001507
1.0001247
1.0001002
1.0000771
1.0000554
1.000035
1.0000158
0.99999768
0.99998061
0.99996447
1.0001766
1.0001955
1.0002168
1.0002401
1.0002655
1.0002933
1.0003236
1.0003566
1.0003924
1.0004312
1.000473
1.000518
1.0005662
1.0006178
1.0006726
1.0007306
1.0007917
1.0008554
1.0009216
1.0009896
1.0010589
1.0011287
1.0011981
1.001266
1.0013314
1.001393
1.0014494
1.0014995
1.0015419
1.0015757
1.0015999
1.001614
1.001618
1.0016116
1.0015955
1.0015701
1.0015365
1.0014955
1.0014482
1.0013956
1.001339
1.0012791
1.0012171
1.0011538
1.0010898
1.0010258
1.0009625
1.0009001
1.0008392
1.00078
1.0007228
1.0006676
1.0006147
1.000564
1.0005157
1.0004697
1.000426
1.0003846
1.0003453
1.0003082
1.0002732
1.0002401
1.000209
1.0001796
1.000152
1.000126
1.0001015
1.0000784
1.0000567
1.0000363
1.0000171
0.99999892
0.99998184
0.99996568
1.0001766
1.0001955
1.0002168
1.00024
1.0002655
1.0002933
1.0003236
1.0003566
1.0003924
1.0004311
1.0004729
1.0005179
1.0005662
1.0006177
1.0006725
1.0007305
1.0007916
1.0008553
1.0009215
1.0009895
1.0010588
1.0011286
1.001198
1.001266
1.0013314
1.001393
1.0014495
1.0014996
1.0015421
1.001576
1.0016004
1.0016147
1.0016187
1.0016125
1.0015965
1.0015713
1.0015378
1.0014969
1.0014497
1.0013972
1.0013406
1.0012808
1.0012189
1.0011555
1.0010916
1.0010276
1.0009642
1.0009019
1.000841
1.0007818
1.0007245
1.0006694
1.0006164
1.0005658
1.0005175
1.0004714
1.0004277
1.0003863
1.0003471
1.00031
1.0002749
1.0002419
1.0002107
1.0001814
1.0001538
1.0001277
1.0001033
1.0000802
1.0000585
1.0000381
1.0000188
1.0000007
0.99998355
0.99996737
1.0001766
1.0001955
1.0002167
1.00024
1.0002655
1.0002933
1.0003236
1.0003566
1.0003923
1.0004311
1.0004729
1.0005179
1.0005661
1.0006176
1.0006724
1.0007304
1.0007914
1.0008552
1.0009213
1.0009894
1.0010587
1.0011284
1.0011978
1.0012658
1.0013313
1.001393
1.0014495
1.0014998
1.0015424
1.0015765
1.001601
1.0016155
1.0016197
1.0016137
1.0015979
1.0015729
1.0015396
1.0014988
1.0014517
1.0013993
1.0013428
1.0012831
1.0012212
1.0011579
1.0010939
1.00103
1.0009666
1.0009043
1.0008434
1.0007842
1.0007269
1.0006718
1.0006188
1.0005682
1.0005198
1.0004738
1.0004301
1.0003887
1.0003494
1.0003123
1.0002773
1.0002443
1.0002131
1.0001838
1.0001561
1.0001301
1.0001056
1.0000825
1.0000608
1.0000403
1.0000211
1.0000029
0.99998577
0.99996956
1.0001766
1.0001955
1.0002167
1.00024
1.0002654
1.0002932
1.0003235
1.0003565
1.0003923
1.000431
1.0004728
1.0005178
1.000566
1.0006175
1.0006723
1.0007303
1.0007913
1.000855
1.0009212
1.0009892
1.0010585
1.0011283
1.0011977
1.0012657
1.0013312
1.0013929
1.0014496
1.0015
1.0015428
1.0015771
1.0016018
1.0016165
1.0016211
1.0016153
1.0015997
1.001575
1.0015419
1.0015013
1.0014544
1.0014021
1.0013457
1.0012861
1.0012243
1.001161
1.0010971
1.0010332
1.0009698
1.0009075
1.0008466
1.0007874
1.0007301
1.000675
1.000622
1.0005713
1.000523
1.000477
1.0004332
1.0003918
1.0003526
1.0003155
1.0002804
1.0002474
1.0002162
1.0001869
1.0001592
1.0001332
1.0001087
1.0000856
1.0000639
1.0000434
1.0000241
1.0000059
0.99998875
0.99997251
1.0001766
1.0001955
1.0002167
1.00024
1.0002654
1.0002932
1.0003235
1.0003565
1.0003922
1.000431
1.0004727
1.0005177
1.0005659
1.0006174
1.0006722
1.0007301
1.0007911
1.0008548
1.000921
1.0009889
1.0010582
1.001128
1.0011975
1.0012655
1.0013311
1.0013929
1.0014497
1.0015003
1.0015433
1.0015778
1.0016028
1.0016179
1.0016228
1.0016174
1.0016021
1.0015777
1.0015448
1.0015045
1.0014578
1.0014058
1.0013496
1.0012901
1.0012283
1.0011651
1.0011013
1.0010374
1.0009741
1.0009118
1.0008509
1.0007917
1.0007344
1.0006792
1.0006262
1.0005755
1.0005272
1.0004811
1.0004374
1.0003959
1.0003567
1.0003196
1.0002846
1.0002515
1.0002203
1.000191
1.0001633
1.0001372
1.0001127
1.0000896
1.0000678
1.0000473
1.000028
1.0000098
0.99999256
0.99997629
1.0001765
1.0001955
1.0002167
1.00024
1.0002654
1.0002932
1.0003235
1.0003564
1.0003922
1.0004309
1.0004727
1.0005176
1.0005658
1.0006173
1.000672
1.00073
1.0007909
1.0008546
1.0009207
1.0009887
1.0010579
1.0011277
1.0011972
1.0012653
1.0013309
1.0013929
1.0014498
1.0015006
1.0015439
1.0015787
1.0016042
1.0016196
1.0016249
1.00162
1.0016052
1.0015812
1.0015487
1.0015088
1.0014624
1.0014106
1.0013546
1.0012953
1.0012336
1.0011705
1.0011068
1.0010429
1.0009796
1.0009174
1.0008564
1.0007972
1.0007399
1.0006847
1.0006317
1.000581
1.0005326
1.0004866
1.0004428
1.0004014
1.0003621
1.000325
1.0002899
1.0002568
1.0002256
1.0001962
1.0001686
1.0001425
1.0001179
1.0000948
1.000073
1.0000524
1.0000331
1.0000148
0.99999758
0.99998127
1.0001765
1.0001954
1.0002167
1.0002399
1.0002653
1.0002931
1.0003234
1.0003564
1.0003921
1.0004308
1.0004726
1.0005175
1.0005657
1.0006171
1.0006718
1.0007297
1.0007907
1.0008543
1.0009204
1.0009883
1.0010576
1.0011274
1.0011968
1.001265
1.0013307
1.0013928
1.00145
1.001501
1.0015447
1.0015799
1.0016058
1.0016218
1.0016277
1.0016233
1.0016091
1.0015856
1.0015537
1.0015142
1.0014682
1.0014168
1.001361
1.001302
1.0012405
1.0011775
1.0011139
1.0010501
1.0009869
1.0009246
1.0008637
1.0008045
1.0007472
1.0006919
1.0006389
1.0005882
1.0005398
1.0004937
1.0004499
1.0004084
1.0003691
1.0003319
1.0002968
1.0002637
1.0002325
1.000203
1.0001753
1.0001492
1.0001246
1.0001014
1.0000795
1.000059
1.0000395
1.0000212
1.0000039
0.99998758
1.0001765
1.0001954
1.0002166
1.0002399
1.0002653
1.0002931
1.0003234
1.0003563
1.000392
1.0004307
1.0004724
1.0005173
1.0005655
1.0006169
1.0006716
1.0007295
1.0007903
1.000854
1.00092
1.0009879
1.0010571
1.0011269
1.0011964
1.0012646
1.0013304
1.0013927
1.0014501
1.0015015
1.0015456
1.0015814
1.0016079
1.0016246
1.0016312
1.0016276
1.0016141