/*--------------------------------*- C++ -*----------------------------------*\
| =========                 |                                                 |
| \\      /  F ield         | OpenFOAM: The Open Source CFD Toolbox           |
|  \\    /   O peration     | Version:  v2006                                 |
|   \\  /    A nd           | Website:  www.openfoam.com                      |
|    \\/     M anipulation  |                                                 |
\*---------------------------------------------------------------------------*/
FoamFile
{
    version     2.0;
    format      ascii;
    class       volScalarField;
    location    "1000";
    object      rho;
}
// * * * * * * * * * * * * * * * * * * * * * * * * * * * * * * * * * * * * * //

dimensions      [1 -3 0 0 0 0 0];


internalField   nonuniform List<scalar> 
55713
(
1.0000262
1.0000247
1.0000239
1.0000236
1.0000234
1.0000234
1.0000234
1.0000234
1.0000235
1.0000234
1.0000234
1.0000234
1.0000234
1.0000234
1.0000234
1.0000234
1.0000234
1.0000234
1.0000234
1.0000234
1.0000234
1.0000234
1.0000234
1.0000234
1.0000235
1.0000235
1.0000235
1.0000235
1.0000235
1.0000235
1.0000235
1.0000235
1.0000235
1.0000234
1.0000234
1.0000234
1.0000235
1.0000234
1.0000234
1.0000234
1.0000234
1.0000234
1.0000234
1.0000234
1.0000234
1.0000234
1.0000234
1.0000234
1.0000234
1.0000234
1.0000234
1.0000234
1.0000234
1.0000234
1.0000234
1.0000234
1.0000234
1.0000235
1.0000234
1.0000242
1.0000228
1.000022
1.0000218
1.0000217
1.0000217
1.0000217
1.0000217
1.0000217
1.0000217
1.0000217
1.0000217
1.0000217
1.0000217
1.0000217
1.0000217
1.0000217
1.0000217
1.0000217
1.0000217
1.0000217
1.0000217
1.0000217
1.0000217
1.0000217
1.0000217
1.0000217
1.0000218
1.0000218
1.0000218
1.0000218
1.0000217
1.0000217
1.0000217
1.0000217
1.0000217
1.0000217
1.0000217
1.0000217
1.0000217
1.0000217
1.0000217
1.0000217
1.0000217
1.0000217
1.0000217
1.0000217
1.0000217
1.0000217
1.0000217
1.0000217
1.0000217
1.0000217
1.0000217
1.0000217
1.0000217
1.0000217
1.0000217
1.0000217
1.0000224
1.0000211
1.0000205
1.0000202
1.0000202
1.0000202
1.0000202
1.0000202
1.0000202
1.0000202
1.0000202
1.0000202
1.0000202
1.0000202
1.0000202
1.0000202
1.0000202
1.0000202
1.0000202
1.0000202
1.0000202
1.0000202
1.0000202
1.0000202
1.0000203
1.0000203
1.0000203
1.0000203
1.0000203
1.0000203
1.0000203
1.0000203
1.0000203
1.0000203
1.0000202
1.0000202
1.0000203
1.0000203
1.0000202
1.0000202
1.0000202
1.0000202
1.0000202
1.0000203
1.0000202
1.0000202
1.0000202
1.0000202
1.0000202
1.0000203
1.0000203
1.0000203
1.0000203
1.0000203
1.0000202
1.0000203
1.0000203
1.0000203
1.0000203
1.0000208
1.0000196
1.0000191
1.0000189
1.0000189
1.0000189
1.0000189
1.0000189
1.0000189
1.0000189
1.0000189
1.0000189
1.0000189
1.0000189
1.0000189
1.0000189
1.0000189
1.0000189
1.0000189
1.0000189
1.0000189
1.0000189
1.0000189
1.0000189
1.000019
1.000019
1.000019
1.000019
1.000019
1.000019
1.000019
1.000019
1.000019
1.000019
1.000019
1.000019
1.000019
1.000019
1.000019
1.0000189
1.0000189
1.0000189
1.000019
1.000019
1.000019
1.0000189
1.0000189
1.0000189
1.0000189
1.000019
1.000019
1.000019
1.000019
1.000019
1.000019
1.000019
1.000019
1.000019
1.000019
1.0000195
1.0000184
1.0000179
1.0000178
1.0000178
1.0000178
1.0000178
1.0000178
1.0000178
1.0000178
1.0000178
1.0000178
1.0000178
1.0000178
1.0000178
1.0000178
1.0000178
1.0000178
1.0000178
1.0000178
1.0000178
1.0000178
1.0000178
1.0000178
1.0000179
1.0000179
1.0000179
1.0000179
1.0000179
1.0000179
1.0000179
1.0000179
1.0000179
1.0000178
1.0000178
1.0000178
1.0000178
1.0000179
1.0000179
1.0000178
1.0000178
1.0000178
1.0000178
1.0000179
1.0000179
1.0000178
1.0000178
1.0000178
1.0000178
1.0000178
1.0000179
1.0000179
1.0000179
1.0000179
1.0000178
1.0000178
1.0000179
1.0000179
1.0000179
1.0000183
1.0000173
1.0000169
1.0000168
1.0000168
1.0000169
1.0000169
1.0000169
1.0000169
1.0000169
1.0000169
1.0000169
1.0000169
1.0000169
1.0000168
1.0000168
1.0000168
1.0000169
1.0000169
1.0000169
1.0000169
1.0000169
1.0000169
1.0000169
1.0000169
1.0000169
1.0000169
1.0000169
1.0000169
1.0000169
1.0000169
1.0000169
1.0000169
1.0000169
1.0000169
1.0000169
1.0000169
1.0000169
1.0000169
1.0000169
1.0000169
1.0000169
1.0000169
1.0000169
1.0000169
1.0000169
1.0000169
1.0000169
1.0000169
1.0000169
1.0000169
1.0000169
1.0000169
1.0000169
1.0000169
1.0000169
1.0000169
1.0000169
1.0000169
1.0000173
1.0000163
1.000016
1.000016
1.000016
1.000016
1.000016
1.000016
1.000016
1.000016
1.000016
1.000016
1.000016
1.000016
1.000016
1.000016
1.000016
1.000016
1.000016
1.000016
1.000016
1.000016
1.0000161
1.0000161
1.0000161
1.0000161
1.0000161
1.0000161
1.0000161
1.0000161
1.0000161
1.0000161
1.0000161
1.0000161
1.0000161
1.0000161
1.0000161
1.0000161
1.0000161
1.0000161
1.000016
1.000016
1.0000161
1.0000161
1.0000161
1.0000161
1.000016
1.000016
1.000016
1.000016
1.0000161
1.0000161
1.0000161
1.0000161
1.0000161
1.000016
1.0000161
1.0000161
1.0000161
1.0000163
1.0000155
1.0000152
1.0000152
1.0000153
1.0000153
1.0000153
1.0000153
1.0000153
1.0000152
1.0000153
1.0000153
1.0000153
1.0000152
1.0000152
1.0000152
1.0000153
1.0000153
1.0000153
1.0000153
1.0000153
1.0000153
1.0000153
1.0000153
1.0000153
1.0000153
1.0000153
1.0000153
1.0000153
1.0000153
1.0000153
1.0000153
1.0000153
1.0000153
1.0000153
1.0000153
1.0000153
1.0000153
1.0000153
1.0000153
1.0000153
1.0000153
1.0000153
1.0000153
1.0000153
1.0000153
1.0000153
1.0000153
1.0000153
1.0000153
1.0000153
1.0000153
1.0000153
1.0000153
1.0000153
1.0000153
1.0000153
1.0000153
1.0000153
1.0000159
1.000015
1.0000149
1.0000149
1.0000149
1.0000149
1.0000149
1.0000149
1.0000149
1.0000149
1.0000149
1.0000149
1.0000149
1.0000149
1.0000149
1.0000149
1.0000149
1.0000149
1.0000149
1.0000149
1.000015
1.000015
1.000015
1.000015
1.000015
1.000015
1.000015
1.000015
1.000015
1.000015
1.000015
1.000015
1.000015
1.000015
1.000015
1.000015
1.0000149
1.000015
1.000015
1.000015
1.000015
1.0000149
1.0000149
1.000015
1.000015
1.000015
1.0000149
1.0000149
1.0000149
1.0000149
1.0000149
1.000015
1.0000149
1.000015
1.0000149
1.0000149
1.0000149
1.0000149
1.0000149
1.0000154
1.0000147
1.0000146
1.0000146
1.0000147
1.0000147
1.0000147
1.0000146
1.0000146
1.0000147
1.0000147
1.0000147
1.0000146
1.0000146
1.0000146
1.0000147
1.0000147
1.0000147
1.0000147
1.0000147
1.0000147
1.0000147
1.0000147
1.0000147
1.0000147
1.0000147
1.0000147
1.0000147
1.0000147
1.0000147
1.0000147
1.0000147
1.0000147
1.0000147
1.0000147
1.0000147
1.0000147
1.0000147
1.0000147
1.0000147
1.0000147
1.0000147
1.0000147
1.0000147
1.0000147
1.0000147
1.0000147
1.0000147
1.0000147
1.0000147
1.0000147
1.0000147
1.0000147
1.0000147
1.0000147
1.0000147
1.0000147
1.0000147
1.0000147
1.0000135
1.0000129
1.0000129
1.0000129
1.0000129
1.000013
1.0000129
1.0000129
1.0000129
1.000013
1.000013
1.000013
1.0000129
1.0000129
1.000013
1.000013
1.000013
1.000013
1.000013
1.000013
1.000013
1.000013
1.000013
1.0000131
1.0000131
1.0000131
1.0000131
1.0000131
1.0000131
1.0000131
1.0000131
1.0000131
1.0000131
1.0000131
1.000013
1.000013
1.000013
1.000013
1.000013
1.000013
1.000013
1.000013
1.000013
1.000013
1.000013
1.000013
1.000013
1.000013
1.000013
1.000013
1.000013
1.000013
1.000013
1.000013
1.000013
1.0000129
1.0000129
1.000013
1.000013
1.0000135
1.0000127
1.000013
1.0000128
1.0000129
1.000013
1.0000128
1.0000128
1.0000129
1.000013
1.000013
1.0000129
1.0000129
1.0000129
1.000013
1.000013
1.000013
1.0000129
1.000013
1.000013
1.000013
1.000013
1.000013
1.000013
1.000013
1.000013
1.000013
1.000013
1.000013
1.000013
1.000013
1.000013
1.000013
1.0000129
1.0000129
1.0000129
1.0000129
1.0000129
1.0000129
1.0000129
1.0000129
1.0000129
1.0000128
1.0000128
1.0000129
1.0000129
1.0000129
1.0000128
1.0000128
1.0000128
1.0000128
1.0000127
1.0000129
1.0000127
1.0000127
1.0000127
1.0000124
1.0000128
1.0000128
1.0000222
1.0000217
1.0000221
1.0000217
1.0000221
1.000022
1.0000217
1.000022
1.000022
1.0000219
1.0000219
1.0000218
1.0000218
1.0000219
1.0000219
1.0000219
1.0000218
1.0000218
1.0000218
1.0000218
1.0000218
1.0000218
1.0000218
1.0000218
1.0000218
1.0000218
1.0000218
1.0000218
1.0000218
1.0000218
1.0000218
1.0000218
1.0000218
1.0000218
1.0000218
1.0000218
1.0000218
1.0000218
1.0000218
1.0000218
1.0000219
1.0000219
1.0000219
1.0000219
1.0000218
1.0000219
1.0000219
1.0000219
1.0000218
1.0000218
1.0000218
1.0000218
1.0000219
1.0000219
1.0000218
1.000022
1.0000216
1.0000219
1.0000219
1.0000127
1.0000138
1.0000132
1.0000137
1.0000132
1.000013
1.0000135
1.0000133
1.0000132
1.0000133
1.0000133
1.0000135
1.0000136
1.0000137
1.0000137
1.0000137
1.0000138
1.0000139
1.0000139
1.0000139
1.0000139
1.0000139
1.0000139
1.0000139
1.0000139
1.0000139
1.0000139
1.0000139
1.0000139
1.0000139
1.0000139
1.0000139
1.0000139
1.0000139
1.0000139
1.0000139
1.0000139
1.0000139
1.0000138
1.0000137
1.0000136
1.0000135
1.0000134
1.0000133
1.0000131
1.000013
1.0000133
1.0000134
1.0000134
1.0000133
1.0000131
1.000013
1.0000128
1.0000131
1.0000134
1.0000132
1.0000138
1.0000128
1.0000128
1.0000982
1.0000982
1.0000982
1.0000982
1.0000983
1.0000983
1.0000983
1.0000983
1.0000983
1.0000983
1.0000984
1.0000984
1.0000984
1.0000984
1.0000984
1.0000985
1.0000985
1.0000985
1.0000985
1.0000986
1.0000986
1.0000986
1.0000987
1.0000987
1.0000987
1.0000988
1.0000988
1.0000988
1.0000988
1.0000988
1.0000989
1.0000989
1.0000989
1.0000989
1.0000989
1.0000989
1.0000989
1.0000989
1.0000989
1.0000989
1.0000989
1.0000989
1.0000989
1.000099
1.000099
1.000099
1.000099
1.000099
1.000099
1.000099
1.000099
1.0000991
1.0000993
1.0000996
1.0001002
1.0001013
1.0001034
1.0001071
1.0001121
1.0000897
1.0000897
1.0000897
1.0000897
1.0000897
1.0000898
1.0000898
1.0000898
1.0000898
1.0000898
1.0000898
1.0000899
1.0000899
1.0000899
1.0000899
1.0000899
1.0000899
1.0000899
1.00009
1.00009
1.00009
1.00009
1.0000901
1.0000901
1.0000901
1.0000901
1.0000902
1.0000902
1.0000902
1.0000902
1.0000902
1.0000902
1.0000902
1.0000902
1.0000902
1.0000902
1.0000902
1.0000903
1.0000903
1.0000903
1.0000903
1.0000903
1.0000903
1.0000903
1.0000903
1.0000903
1.0000904
1.0000904
1.0000904
1.0000904
1.0000904
1.0000905
1.0000906
1.0000909
1.0000914
1.0000925
1.0000944
1.0000978
1.0001023
1.0000818
1.0000818
1.0000818
1.0000818
1.0000819
1.0000819
1.0000819
1.0000819
1.0000819
1.0000819
1.0000819
1.0000819
1.0000819
1.0000819
1.000082
1.000082
1.000082
1.000082
1.000082
1.000082
1.0000821
1.0000821
1.0000821
1.0000821
1.0000821
1.0000822
1.0000822
1.0000822
1.0000822
1.0000822
1.0000822
1.0000822
1.0000822
1.0000822
1.0000822
1.0000822
1.0000822
1.0000823
1.0000823
1.0000823
1.0000823
1.0000823
1.0000823
1.0000823
1.0000823
1.0000823
1.0000823
1.0000823
1.0000823
1.0000824
1.0000824
1.0000824
1.0000825
1.0000828
1.0000833
1.0000842
1.000086
1.0000891
1.0000932
1.0000744
1.0000744
1.0000744
1.0000744
1.0000745
1.0000745
1.0000745
1.0000745
1.0000745
1.0000745
1.0000745
1.0000745
1.0000745
1.0000745
1.0000745
1.0000745
1.0000745
1.0000746
1.0000746
1.0000746
1.0000746
1.0000746
1.0000746
1.0000747
1.0000747
1.0000747
1.0000747
1.0000747
1.0000747
1.0000747
1.0000748
1.0000748
1.0000748
1.0000747
1.0000747
1.0000747
1.0000747
1.0000748
1.0000748
1.0000748
1.0000748
1.0000748
1.0000748
1.0000748
1.0000748
1.0000748
1.0000748
1.0000748
1.0000748
1.0000748
1.0000749
1.0000749
1.000075
1.0000752
1.0000756
1.0000765
1.0000781
1.000081
1.0000847
1.0000676
1.0000676
1.0000676
1.0000676
1.0000676
1.0000676
1.0000676
1.0000676
1.0000676
1.0000676
1.0000676
1.0000676
1.0000676
1.0000676
1.0000676
1.0000676
1.0000676
1.0000676
1.0000677
1.0000677
1.0000677
1.0000677
1.0000677
1.0000677
1.0000677
1.0000678
1.0000678
1.0000678
1.0000678
1.0000678
1.0000678
1.0000678
1.0000678
1.0000678
1.0000678
1.0000678
1.0000678
1.0000678
1.0000678
1.0000678
1.0000678
1.0000678
1.0000678
1.0000678
1.0000678
1.0000679
1.0000679
1.0000679
1.0000679
1.0000679
1.0000679
1.0000679
1.000068
1.0000682
1.0000686
1.0000693
1.0000708
1.0000734
1.0000768
1.0000612
1.0000612
1.0000612
1.0000612
1.0000612
1.0000612
1.0000612
1.0000612
1.0000612
1.0000612
1.0000612
1.0000612
1.0000612
1.0000612
1.0000612
1.0000612
1.0000612
1.0000612
1.0000612
1.0000612
1.0000612
1.0000613
1.0000613
1.0000613
1.0000613
1.0000613
1.0000613
1.0000613
1.0000614
1.0000614
1.0000614
1.0000614
1.0000614
1.0000614
1.0000613
1.0000613
1.0000613
1.0000613
1.0000614
1.0000614
1.0000614
1.0000614
1.0000614
1.0000614
1.0000614
1.0000614
1.0000614
1.0000614
1.0000614
1.0000614
1.0000614
1.0000614
1.0000615
1.0000617
1.000062
1.0000627
1.000064
1.0000664
1.0000695
1.0000553
1.0000553
1.0000553
1.0000553
1.0000553
1.0000553
1.0000553
1.0000553
1.0000553
1.0000553
1.0000553
1.0000553
1.0000553
1.0000553
1.0000553
1.0000553
1.0000553
1.0000553
1.0000553
1.0000553
1.0000553
1.0000553
1.0000553
1.0000554
1.0000554
1.0000554
1.0000554
1.0000554
1.0000554
1.0000554
1.0000554
1.0000554
1.0000554
1.0000554
1.0000554
1.0000554
1.0000554
1.0000554
1.0000554
1.0000554
1.0000554
1.0000554
1.0000554
1.0000554
1.0000554
1.0000554
1.0000554
1.0000554
1.0000554
1.0000554
1.0000554
1.0000555
1.0000555
1.0000556
1.0000559
1.0000565
1.0000577
1.0000599
1.0000627
1.0000498
1.0000498
1.0000498
1.0000498
1.0000498
1.0000498
1.0000498
1.0000498
1.0000498
1.0000498
1.0000498
1.0000498
1.0000498
1.0000498
1.0000498
1.0000498
1.0000498
1.0000498
1.0000498
1.0000498
1.0000498
1.0000498
1.0000499
1.0000499
1.0000499
1.0000499
1.0000499
1.0000499
1.0000499
1.0000499
1.0000499
1.0000499
1.0000499
1.0000499
1.0000499
1.0000499
1.0000499
1.0000499
1.0000499
1.0000499
1.0000499
1.0000499
1.0000499
1.0000499
1.0000499
1.0000499
1.0000499
1.0000499
1.0000499
1.0000499
1.0000499
1.00005
1.00005
1.0000501
1.0000503
1.0000509
1.0000519
1.0000539
1.0000565
1.0000448
1.0000448
1.0000448
1.0000448
1.0000448
1.0000448
1.0000448
1.0000448
1.0000448
1.0000448
1.0000448
1.0000448
1.0000448
1.0000448
1.0000448
1.0000448
1.0000448
1.0000448
1.0000448
1.0000448
1.0000448
1.0000448
1.0000448
1.0000448
1.0000448
1.0000448
1.0000449
1.0000449
1.0000449
1.0000449
1.0000449
1.0000449
1.0000449
1.0000449
1.0000449
1.0000448
1.0000448
1.0000448
1.0000448
1.0000448
1.0000449
1.0000449
1.0000449
1.0000449
1.0000449
1.0000449
1.0000449
1.0000449
1.0000449
1.0000449
1.0000449
1.0000449
1.0000449
1.000045
1.0000452
1.0000456
1.0000466
1.0000484
1.0000508
1.0000402
1.0000402
1.0000402
1.0000402
1.0000402
1.0000402
1.0000402
1.0000402
1.0000402
1.0000402
1.0000402
1.0000402
1.0000402
1.0000402
1.0000402
1.0000402
1.0000402
1.0000402
1.0000402
1.0000402
1.0000402
1.0000402
1.0000402
1.0000402
1.0000402
1.0000402
1.0000402
1.0000402
1.0000403
1.0000403
1.0000403
1.0000403
1.0000403
1.0000402
1.0000402
1.0000402
1.0000402
1.0000402
1.0000402
1.0000402
1.0000402
1.0000402
1.0000402
1.0000402
1.0000402
1.0000403
1.0000403
1.0000403
1.0000403
1.0000403
1.0000403
1.0000403
1.0000403
1.0000403
1.0000405
1.0000409
1.0000417
1.0000433
1.0000455
1.000036
1.000036
1.000036
1.000036
1.000036
1.000036
1.000036
1.000036
1.000036
1.000036
1.000036
1.000036
1.000036
1.000036
1.000036
1.000036
1.000036
1.000036
1.000036
1.000036
1.000036
1.000036
1.000036
1.000036
1.000036
1.000036
1.000036
1.000036
1.0000361
1.0000361
1.0000361
1.0000361
1.000036
1.000036
1.000036
1.000036
1.000036
1.000036
1.000036
1.000036
1.000036
1.000036
1.000036
1.000036
1.000036
1.000036
1.000036
1.000036
1.0000361
1.0000361
1.0000361
1.0000361
1.0000361
1.0000361
1.0000362
1.0000365
1.0000373
1.0000387
1.0000407
1.0000322
1.0000322
1.0000322
1.0000322
1.0000322
1.0000322
1.0000322
1.0000322
1.0000322
1.0000322
1.0000322
1.0000322
1.0000321
1.0000321
1.0000322
1.0000322
1.0000322
1.0000322
1.0000322
1.0000322
1.0000322
1.0000322
1.0000322
1.0000322
1.0000322
1.0000322
1.0000322
1.0000322
1.0000322
1.0000322
1.0000322
1.0000322
1.0000322
1.0000322
1.0000322
1.0000322
1.0000322
1.0000322
1.0000322
1.0000322
1.0000322
1.0000322
1.0000322
1.0000322
1.0000322
1.0000322
1.0000322
1.0000322
1.0000322
1.0000322
1.0000322
1.0000322
1.0000322
1.0000322
1.0000323
1.0000326
1.0000332
1.0000345
1.0000363
1.0000287
1.0000287
1.0000287
1.0000287
1.0000287
1.0000287
1.0000287
1.0000287
1.0000287
1.0000287
1.0000287
1.0000287
1.0000287
1.0000287
1.0000287
1.0000287
1.0000287
1.0000287
1.0000287
1.0000287
1.0000287
1.0000287
1.0000287
1.0000287
1.0000287
1.0000287
1.0000287
1.0000287
1.0000288
1.0000288
1.0000288
1.0000288
1.0000288
1.0000287
1.0000287
1.0000287
1.0000287
1.0000287
1.0000287
1.0000287
1.0000287
1.0000287
1.0000287
1.0000287
1.0000287
1.0000287
1.0000287
1.0000287
1.0000287
1.0000287
1.0000288
1.0000287
1.0000287
1.0000287
1.0000288
1.000029
1.0000295
1.0000307
1.0000324
1.0000257
1.0000257
1.0000257
1.0000257
1.0000257
1.0000257
1.0000257
1.0000257
1.0000257
1.0000257
1.0000257
1.0000257
1.0000257
1.0000257
1.0000257
1.0000257
1.0000257
1.0000257
1.0000257
1.0000257
1.0000257
1.0000257
1.0000257
1.0000257
1.0000257
1.0000257
1.0000257
1.0000257
1.0000257
1.0000258
1.0000258
1.0000257
1.0000257
1.0000257
1.0000257
1.0000257
1.0000257
1.0000257
1.0000257
1.0000257
1.0000257
1.0000257
1.0000257
1.0000257
1.0000257
1.0000257
1.0000257
1.0000257
1.0000257
1.0000257
1.0000257
1.0000257
1.0000257
1.0000257
1.0000258
1.0000259
1.0000263
1.0000273
1.0000289
1.0001237
1.0001379
1.0001538
1.0001711
1.0001901
1.0002109
1.0002336
1.0002583
1.0002851
1.0003141
1.0003455
1.0003792
1.0004153
1.0004538
1.0004947
1.0005378
1.0005829
1.0006299
1.0006783
1.0007277
1.0007775
1.0008269
1.0008753
1.0009216
1.0009648
1.0010041
1.0010383
1.0010664
1.0010876
1.001101
1.0011066
1.0011036
1.001092
1.0010722
1.0010444
1.0010094
1.000968
1.0009203
1.0008677
1.0008124
1.0007541
1.0006931
1.0006315
1.0005689
1.0005061
1.0004436
1.0003822
1.0003225
1.0002647
1.0002089
1.0001552
1.0001039
1.0000553
1.0000091
0.99996509
0.99992326
0.99988364
0.99984619
0.99981084
0.99977745
0.99974594
0.99971632
0.99968851
0.99966241
0.99963793
0.99961497
0.99959347
0.99957332
0.99955446
0.9995368
0.99952027
0.9995048
0.99949034
0.99947678
1.0001184
1.0001321
1.0001475
1.0001645
1.0001831
1.0002034
1.0002255
1.0002497
1.0002758
1.0003042
1.0003348
1.0003677
1.000403
1.0004407
1.0004807
1.000523
1.0005674
1.0006135
1.0006612
1.0007099
1.0007591
1.0008081
1.0008562
1.0009024
1.0009458
1.0009855
1.0010202
1.0010493
1.0010717
1.0010868
1.0010941
1.0010932
1.0010841
1.0010669
1.001042
1.00101
1.0009716
1.0009275
1.0008782
1.0008253
1.0007697
1.000712
1.0006532
1.0005932
1.0005336
1.0004743
1.0004157
1.0003584
1.0003026
1.0002487
1.0001966
1.0001471
1.0000998
1.0000545
1.0000113
0.99997015
0.99993124
0.99989446
0.99985976
0.9998269
0.99979586
0.9997667
0.99973937
0.99971377
0.99968981
0.99966737
0.99964636
0.99962667
0.99960822
0.99959094
0.99957476
0.9995596
0.99954543
0.99953209
1.0001143
1.0001276
1.0001426
1.0001591
1.0001771
1.0001968
1.0002184
1.0002418
1.0002673
1.0002949
1.0003247
1.0003567
1.0003911
1.0004277
1.0004667
1.0005079
1.0005511
1.0005962
1.0006427
1.0006903
1.0007384
1.0007865
1.0008336
1.000879
1.0009218
1.0009611
1.0009957
1.0010248
1.0010476
1.0010634
1.0010717
1.0010722
1.0010648
1.0010495
1.001027
1.0009975
1.000962
1.000921
1.0008752
1.0008257
1.0007733
1.0007189
1.0006633
1.0006068
1.0005502
1.0004939
1.0004384
1.0003841
1.0003313
1.0002801
1.0002307
1.0001833
1.0001382
1.0000952
1.0000541
1.000015
0.99997778
0.99994239
0.99990909
0.99987779
0.99984835
0.99982071
0.99979476
0.99977039
0.9997475
0.99972602
0.99970587
0.99968697
0.99966923
0.9996526
0.999637
0.99962237
0.99960865
0.99959579
1.0001119
1.0001249
1.0001395
1.0001556
1.0001732
1.0001924
1.0002134
1.0002363
1.0002611
1.0002881
1.0003171
1.0003484
1.0003819
1.0004177
1.0004557
1.0004958
1.000538
1.0005819
1.0006272
1.0006736
1.0007206
1.0007674
1.0008133
1.0008576
1.0008994
1.0009376
1.0009714
1.0009999
1.0010222
1.0010378
1.001046
1.0010467
1.0010397
1.0010251
1.0010035
1.0009753
1.0009411
1.0009018
1.0008579
1.0008104
1.0007602
1.0007081
1.0006548
1.0006007
1.0005465
1.0004926
1.0004394
1.0003875
1.0003369
1.000288
1.0002408
1.0001955
1.0001522
1.0001111
1.0000718
1.0000344
0.99999899
0.99996545
0.99993375
0.99990381
0.99987556
0.99984894
0.99982408
0.99980081
0.99977894
0.99975835
0.99973899
0.99972078
0.99970367
0.99968759
0.99967248
0.99965825
0.99964488
0.99963229
1.0001106
1.0001233
1.0001377
1.0001535
1.0001707
1.0001896
1.0002102
1.0002327
1.000257
1.0002834
1.0003119
1.0003425
1.0003754
1.0004104
1.0004476
1.0004869
1.0005282
1.0005711
1.0006154
1.0006608
1.0007066
1.0007522
1.000797
1.0008401
1.0008807
1.0009178
1.0009505
1.000978
1.0009994
1.0010141
1.0010216
1.0010217
1.0010143
1.0009995
1.0009778
1.0009496
1.0009157
1.0008767
1.0008333
1.0007865
1.0007371
1.0006859
1.0006335
1.0005805
1.0005274
1.0004746
1.0004227
1.0003719
1.0003226
1.0002749
1.0002288
1.0001847
1.0001426
1.0001025
1.0000642
1.0000279
0.99999342
0.99996082
0.99993004
0.99990097
0.99987355
0.99984774
0.99982346
0.99980064
0.9997792
0.99975906
0.99974014
0.99972238
0.9997057
0.99969003
0.99967531
0.99966148
0.9996485
0.99963626
1.0001099
1.0001225
1.0001367
1.0001523
1.0001693
1.0001879
1.0002082
1.0002303
1.0002543
1.0002803
1.0003084
1.0003385
1.0003708
1.0004053
1.0004419
1.0004806
1.0005211
1.0005632
1.0006067
1.0006512
1.000696
1.0007407
1.0007845
1.0008266
1.0008661
1.0009022
1.0009338
1.0009602
1.0009806
1.0009943
1.0010009
1.0010001
1.000992
1.0009765
1.0009541
1.0009254
1.0008911
1.0008517
1.000808
1.000761
1.0007116
1.0006603
1.000608
1.0005551
1.0005021
1.0004495
1.0003979
1.0003474
1.0002983
1.0002509
1.0002053
1.0001615
1.0001197
1.0000799
1.000042
1.000006
0.99997188
0.99993962
0.99990915
0.9998804
0.99985328
0.99982775
0.99980375
0.99978118
0.99975996
0.99974004
0.99972132
0.99970374
0.99968723
0.99967172
0.99965715
0.99964345
0.99963058
0.99961843
1.0001095
1.000122
1.0001361
1.0001515
1.0001684
1.0001868
1.0002069
1.0002288
1.0002526
1.0002783
1.000306
1.0003358
1.0003677
1.0004018
1.0004379
1.0004761
1.000516
1.0005576
1.0006005
1.0006442
1.0006883
1.0007322
1.0007752
1.0008164
1.000855
1.0008902
1.0009209
1.0009464
1.0009659
1.0009787
1.0009844
1.0009828
1.0009738
1.0009575
1.0009345
1.0009051
1.0008701
1.0008301
1.0007859
1.0007384
1.0006885
1.0006368
1.0005841
1.0005309
1.0004777
1.0004249
1.000373
1.0003223
1.0002731
1.0002256
1.0001798
1.0001359
1.0000941
1.0000542
1.0000163
0.99998022
0.99994608
0.99991379
0.9998833
0.99985453
0.99982742
0.99980189
0.99977789
0.99975532
0.99973411
0.99971419
0.99969548
0.99967791
0.9996614
0.99964589
0.99963132
0.99961761
0.99960473
0.99959256
1.0001093
1.0001217
1.0001357
1.0001511
1.0001678
1.0001862
1.0002061
1.0002279
1.0002514
1.0002769
1.0003044
1.000334
1.0003656
1.0003994
1.0004352
1.0004729
1.0005124
1.0005536
1.0005959
1.0006391
1.0006827
1.000726
1.0007683
1.0008089
1.0008468
1.0008813
1.0009113
1.000936
1.0009547
1.0009668
1.0009718
1.0009695
1.0009599
1.0009429
1.0009192
1.0008892
1.0008536
1.0008131
1.0007683
1.0007204
1.00067
1.0006179
1.0005647
1.0005111
1.0004575
1.0004044
1.0003522
1.0003013
1.0002518
1.000204
1.0001581
1.000114
1.0000719
1.0000319
0.99999373
0.99995753
0.99992325
0.99989084
0.99986024
0.99983137
0.99980416
0.99977855
0.99975447
0.99973183
0.99971055
0.99969056
0.99967179
0.99965415
0.99963759
0.99962202
0.99960739
0.99959362
0.99958069
0.99956845
1.0001092
1.0001216
1.0001356
1.0001508
1.0001675
1.0001858
1.0002056
1.0002272
1.0002507
1.000276
1.0003034
1.0003327
1.0003642
1.0003977
1.0004332
1.0004706
1.0005099
1.0005507
1.0005927
1.0006355
1.0006786
1.0007215
1.0007633
1.0008034
1.0008408
1.0008747
1.0009042
1.0009284
1.0009466
1.0009581
1.0009625
1.0009597
1.0009495
1.0009321
1.0009079
1.0008774
1.0008414
1.0008004
1.0007553
1.000707
1.0006562
1.0006038
1.0005503
1.0004964
1.0004425
1.0003891
1.0003367
1.0002855
1.0002359
1.0001879
1.0001417
1.0000974
1.0000552
1.000015
0.99997668
0.99994036
0.99990595
0.99987342
0.99984271
0.99981374
0.99978645
0.99976076
0.9997366
0.99971388
0.99969254
0.99967249
0.99965366
0.99963597
0.99961935
0.99960373
0.99958904
0.99957522
0.99956224
0.99954995
1.0001092
1.0001215
1.0001354
1.0001507
1.0001673
1.0001855
1.0002053
1.0002268
1.0002502
1.0002754
1.0003026
1.0003319
1.0003631
1.0003965
1.0004318
1.0004691
1.0005081
1.0005486
1.0005903
1.0006328
1.0006757
1.0007182
1.0007597
1.0007994
1.0008364
1.00087
1.000899
1.0009228
1.0009406
1.0009518
1.0009559
1.0009527
1.0009422
1.0009244
1.0008999
1.0008691
1.0008327
1.0007915
1.0007462
1.0006976
1.0006466
1.0005939
1.0005402
1.0004861
1.000432
1.0003785
1.0003259
1.0002746
1.0002248
1.0001766
1.0001304
1.000086
1.0000436
1.0000033
0.9999649
0.99992849
0.99989401
0.9998614
0.99983062
0.9998016
0.99977425
0.99974851
0.99972431
0.99970155
0.99968017
0.99966008
0.99964121
0.99962348
0.99960682
0.99959116
0.99957644
0.99956258
0.99954956
0.99953723
1.0001092
1.0001215
1.0001354
1.0001506
1.0001672
1.0001853
1.0002051
1.0002266
1.0002498
1.000275
1.0003021
1.0003313
1.0003624
1.0003956
1.0004308
1.0004679
1.0005068
1.0005471
1.0005886
1.0006309
1.0006735
1.0007158
1.0007571
1.0007965
1.0008333
1.0008666
1.0008954
1.0009189
1.0009365
1.0009474
1.0009512
1.0009477
1.0009371
1.0009191
1.0008944
1.0008635
1.000827
1.0007856
1.0007401
1.0006914
1.0006402
1.0005874
1.0005336
1.0004794
1.0004252
1.0003716
1.0003189
1.0002675
1.0002176
1.0001694
1.000123
1.0000786
1.0000362
0.99999574
0.99995731
0.99992084
0.99988631
0.99985366
0.99982284
0.99979378
0.9997664
0.99974064
0.9997164
0.99969362
0.99967221
0.99965209
0.99963319
0.99961544
0.99959875
0.99958307
0.99956832
0.99955444
0.99954139
0.99952904
1.0001091
1.0001215
1.0001353
1.0001505
1.0001671
1.0001852
1.0002049
1.0002264
1.0002496
1.0002747
1.0003018
1.0003308
1.0003619
1.000395
1.0004301
1.0004671
1.0005058
1.000546
1.0005874
1.0006295
1.000672
1.0007141
1.0007552
1.0007944
1.000831
1.0008641
1.0008928
1.0009162
1.0009336
1.0009443
1.0009481
1.0009445
1.0009338
1.0009157
1.0008909
1.0008599
1.0008234
1.0007819
1.0007364
1.0006876
1.0006364
1.0005836
1.0005297
1.0004754
1.0004212
1.0003675
1.0003148
1.0002633
1.0002134
1.0001651
1.0001187
1.0000742
1.0000318
0.99999129
0.99995282
0.99991632
0.99988176
0.99984908
0.99981824
0.99978916
0.99976176
0.99973598
0.99971173
0.99968894
0.99966751
0.99964738
0.99962847
0.9996107
0.999594
0.9995783
0.99956354
0.99954964
0.99953656
0.9995242
1.0001091
1.0001215
1.0001353
1.0001505
1.0001671
1.0001852
1.0002049
1.0002263
1.0002494
1.0002745
1.0003015
1.0003305
1.0003616
1.0003946
1.0004296
1.0004665
1.0005051
1.0005452
1.0005865
1.0006285
1.0006709
1.0007128
1.0007538
1.0007929
1.0008294
1.0008624
1.000891
1.0009143
1.0009317
1.0009424
1.0009462
1.0009425
1.0009318
1.0009138
1.000889
1.0008581
1.0008215
1.0007801
1.0007346
1.0006858
1.0006346
1.0005818
1.0005279
1.0004736
1.0004193
1.0003656
1.0003129
1.0002614
1.0002114
1.0001631
1.0001167
1.0000722
1.0000297
0.99998915
0.99995065
0.99991413
0.99987954
0.99984685
0.99981599
0.99978689
0.99975948
0.99973369
0.99970942
0.99968661
0.99966517
0.99964503
0.9996261
0.99960831
0.99959159
0.99957587
0.99956109
0.99954717
0.99953408
0.99952171
1.0001091
1.0001214
1.0001353
1.0001505
1.000167
1.0001851
1.0002048
1.0002262
1.0002493
1.0002744
1.0003013
1.0003303
1.0003613
1.0003943
1.0004292
1.0004661
1.0005046
1.0005446
1.0005858
1.0006278
1.00067
1.0007119
1.0007528
1.0007919
1.0008283
1.0008613
1.0008898
1.0009131
1.0009305
1.0009413
1.0009452
1.0009416
1.000931
1.000913
1.0008884
1.0008575
1.0008211
1.0007797
1.0007343
1.0006856
1.0006345
1.0005816
1.0005278
1.0004734
1.0004192
1.0003655
1.0003127
1.0002612
1.0002112
1.0001629
1.0001165
1.0000719
1.0000294
0.99998885
0.99995032
0.99991377
0.99987917
0.99984646
0.99981558
0.99978646
0.99975904
0.99973323
0.99970895
0.99968613
0.99966468
0.99964452
0.99962558
0.99960778
0.99959104
0.99957531
0.99956051
0.99954658
0.99953348
0.99952108
1.0001091
1.0001214
1.0001353
1.0001505
1.000167
1.0001851
1.0002047
1.0002261
1.0002492
1.0002743
1.0003012
1.0003301
1.0003611
1.000394
1.0004289
1.0004657
1.0005042
1.0005442
1.0005853
1.0006272
1.0006694
1.0007113
1.0007521
1.0007912
1.0008276
1.0008606
1.0008891
1.0009125
1.00093
1.0009409
1.0009449
1.0009415
1.000931
1.0009133
1.0008889
1.0008582
1.0008219
1.0007807
1.0007354
1.0006868
1.0006358
1.000583
1.0005292
1.0004749
1.0004206
1.0003669
1.0003142
1.0002627
1.0002126
1.0001643
1.0001178
1.0000733
1.0000307
0.99999012
0.99995156
0.99991498
0.99988035
0.99984762
0.99981671
0.99978758
0.99976013
0.9997343
0.99971
0.99968716
0.99966568
0.9996455
0.99962654
0.99960872
0.99959196
0.99957621
0.99956139
0.99954744
0.99953432
0.99952191
1.0001091
1.0001214
1.0001353
1.0001504
1.000167
1.000185
1.0002047
1.000226
1.0002492
1.0002742
1.0003011
1.00033
1.0003609
1.0003938
1.0004287
1.0004654
1.0005039
1.0005438
1.0005849
1.0006268
1.0006689
1.0007107
1.0007516
1.0007906
1.0008271
1.0008601
1.0008888
1.0009123
1.0009299
1.000941
1.0009452
1.0009422
1.000932
1.0009145
1.0008903
1.0008599
1.0008239
1.0007829
1.0007378
1.0006894
1.0006385
1.0005858
1.000532
1.0004778
1.0004236
1.0003699
1.0003171
1.0002656
1.0002156
1.0001672
1.0001207
1.0000761
1.0000335
0.99999287
0.99995427
0.99991765
0.99988298
0.99985022
0.99981928
0.99979012
0.99976264
0.99973678
0.99971246
0.99968959
0.99966809
0.99964789
0.9996289
0.99961106
0.99959428
0.99957851
0.99956367
0.9995497
0.99953656
0.99952413
1.0001091
1.0001214
1.0001352
1.0001504
1.0001669
1.000185
1.0002046
1.000226
1.0002491
1.0002741
1.000301
1.0003299
1.0003608
1.0003937
1.0004285
1.0004652
1.0005036
1.0005435
1.0005846
1.0006264
1.0006685
1.0007103
1.0007512
1.0007903
1.0008268
1.0008599
1.0008887
1.0009124
1.0009303
1.0009417
1.0009461
1.0009436
1.0009337
1.0009166
1.0008928
1.0008627
1.000827
1.0007864
1.0007415
1.0006933
1.0006426
1.0005901
1.0005364
1.0004822
1.000428
1.0003744
1.0003216
1.0002701
1.00022
1.0001716
1.0001251
1.0000804
1.0000378
0.99999712
0.99995847
0.99992181
0.9998871
0.99985428
0.99982331
0.9997941
0.99976658
0.99974068
0.99971632
0.99969341
0.99967187
0.99965164
0.99963262
0.99961474
0.99959794
0.99958213
0.99956727
0.99955327
0.9995401
0.99952765
1.0001091
1.0001214
1.0001352
1.0001504