/*--------------------------------*- C++ -*----------------------------------*\
| =========                 |                                                 |
| \\      /  F ield         | OpenFOAM: The Open Source CFD Toolbox           |
|  \\    /   O peration     | Version:  v2006                                 |
|   \\  /    A nd           | Website:  www.openfoam.com                      |
|    \\/     M anipulation  |                                                 |
\*---------------------------------------------------------------------------*/
FoamFile
{
    version     2.0;
    format      ascii;
    class       volScalarField;
    location    "1000";
    object      T;
}
// * * * * * * * * * * * * * * * * * * * * * * * * * * * * * * * * * * * * * //

dimensions      [0 0 0 1 0 0 0];


internalField   nonuniform List<scalar> 
55713
(
1.0000075
1.0000089
1.0000097
1.00001
1.0000101
1.0000102
1.0000101
1.0000101
1.0000101
1.0000101
1.0000101
1.0000102
1.0000102
1.0000102
1.0000103
1.0000103
1.0000103
1.0000103
1.0000103
1.0000102
1.0000102
1.0000102
1.0000101
1.0000101
1.0000101
1.0000101
1.0000101
1.0000101
1.0000101
1.0000101
1.0000101
1.0000101
1.0000101
1.0000101
1.0000101
1.0000101
1.0000101
1.0000101
1.0000101
1.0000101
1.0000101
1.0000101
1.0000101
1.0000101
1.0000101
1.0000102
1.0000102
1.0000102
1.0000102
1.0000102
1.0000101
1.0000101
1.0000101
1.0000101
1.0000101
1.0000101
1.0000101
1.0000101
1.0000101
1.0000071
1.0000084
1.0000091
1.0000094
1.0000094
1.0000094
1.0000094
1.0000094
1.0000094
1.0000094
1.0000094
1.0000094
1.0000095
1.0000095
1.0000096
1.0000096
1.0000096
1.0000096
1.0000095
1.0000095
1.0000095
1.0000094
1.0000094
1.0000094
1.0000094
1.0000094
1.0000094
1.0000094
1.0000094
1.0000094
1.0000094
1.0000094
1.0000094
1.0000094
1.0000094
1.0000094
1.0000094
1.0000094
1.0000094
1.0000094
1.0000094
1.0000094
1.0000094
1.0000094
1.0000094
1.0000094
1.0000095
1.0000095
1.0000095
1.0000094
1.0000094
1.0000094
1.0000094
1.0000094
1.0000094
1.0000094
1.0000094
1.0000094
1.0000094
1.0000067
1.000008
1.0000086
1.0000088
1.0000088
1.0000088
1.0000088
1.0000088
1.0000088
1.0000088
1.0000088
1.0000088
1.0000088
1.0000089
1.0000089
1.000009
1.000009
1.0000089
1.0000089
1.0000089
1.0000088
1.0000088
1.0000088
1.0000088
1.0000088
1.0000088
1.0000088
1.0000088
1.0000088
1.0000088
1.0000088
1.0000088
1.0000088
1.0000088
1.0000088
1.0000088
1.0000088
1.0000088
1.0000088
1.0000088
1.0000088
1.0000088
1.0000087
1.0000088
1.0000088
1.0000088
1.0000088
1.0000088
1.0000088
1.0000088
1.0000088
1.0000088
1.0000088
1.0000088
1.0000088
1.0000088
1.0000088
1.0000088
1.0000088
1.0000064
1.0000076
1.0000081
1.0000082
1.0000083
1.0000083
1.0000082
1.0000082
1.0000082
1.0000082
1.0000082
1.0000082
1.0000083
1.0000083
1.0000084
1.0000084
1.0000084
1.0000084
1.0000083
1.0000083
1.0000082
1.0000082
1.0000082
1.0000082
1.0000082
1.0000082
1.0000082
1.0000082
1.0000082
1.0000082
1.0000082
1.0000082
1.0000082
1.0000082
1.0000082
1.0000082
1.0000082
1.0000082
1.0000082
1.0000082
1.0000082
1.0000082
1.0000082
1.0000082
1.0000082
1.0000083
1.0000083
1.0000083
1.0000083
1.0000083
1.0000083
1.0000083
1.0000083
1.0000083
1.0000083
1.0000083
1.0000083
1.0000083
1.0000083
1.0000062
1.0000072
1.0000077
1.0000078
1.0000078
1.0000078
1.0000078
1.0000078
1.0000078
1.0000077
1.0000077
1.0000077
1.0000078
1.0000078
1.0000079
1.0000079
1.0000079
1.0000078
1.0000078
1.0000078
1.0000078
1.0000077
1.0000077
1.0000077
1.0000077
1.0000077
1.0000077
1.0000077
1.0000077
1.0000077
1.0000077
1.0000077
1.0000077
1.0000077
1.0000077
1.0000078
1.0000077
1.0000078
1.0000078
1.0000078
1.0000078
1.0000078
1.0000077
1.0000077
1.0000077
1.0000078
1.0000078
1.0000078
1.0000078
1.0000078
1.0000078
1.0000078
1.0000078
1.0000078
1.0000078
1.0000078
1.0000078
1.0000078
1.0000078
1.000006
1.0000069
1.0000073
1.0000074
1.0000074
1.0000074
1.0000074
1.0000074
1.0000074
1.0000073
1.0000073
1.0000073
1.0000073
1.0000074
1.0000074
1.0000075
1.0000074
1.0000074
1.0000073
1.0000073
1.0000073
1.0000073
1.0000073
1.0000073
1.0000073
1.0000073
1.0000073
1.0000073
1.0000073
1.0000073
1.0000073
1.0000073
1.0000073
1.0000073
1.0000073
1.0000073
1.0000073
1.0000073
1.0000073
1.0000074
1.0000074
1.0000074
1.0000073
1.0000073
1.0000073
1.0000073
1.0000074
1.0000074
1.0000074
1.0000074
1.0000074
1.0000074
1.0000074
1.0000074
1.0000074
1.0000074
1.0000074
1.0000074
1.0000074
1.0000058
1.0000067
1.000007
1.000007
1.000007
1.000007
1.000007
1.000007
1.000007
1.000007
1.000007
1.000007
1.000007
1.000007
1.0000071
1.000007
1.000007
1.000007
1.0000069
1.0000069
1.0000069
1.0000069
1.0000069
1.000007
1.000007
1.000007
1.000007
1.000007
1.000007
1.000007
1.000007
1.000007
1.000007
1.000007
1.000007
1.000007
1.000007
1.000007
1.000007
1.000007
1.000007
1.000007
1.000007
1.000007
1.000007
1.000007
1.000007
1.000007
1.000007
1.000007
1.000007
1.000007
1.000007
1.000007
1.000007
1.000007
1.000007
1.000007
1.000007
1.0000057
1.0000065
1.0000067
1.0000067
1.0000067
1.0000067
1.0000067
1.0000067
1.0000067
1.0000067
1.0000067
1.0000067
1.0000067
1.0000067
1.0000067
1.0000067
1.0000066
1.0000066
1.0000066
1.0000066
1.0000066
1.0000066
1.0000066
1.0000066
1.0000066
1.0000066
1.0000066
1.0000066
1.0000066
1.0000066
1.0000066
1.0000066
1.0000067
1.0000067
1.0000067
1.0000067
1.0000067
1.0000067
1.0000067
1.0000067
1.0000067
1.0000067
1.0000067
1.0000067
1.0000066
1.0000066
1.0000067
1.0000067
1.0000067
1.0000067
1.0000067
1.0000067
1.0000067
1.0000067
1.0000067
1.0000067
1.0000067
1.0000067
1.0000067
1.0000056
1.0000064
1.0000065
1.0000065
1.0000065
1.0000065
1.0000065
1.0000065
1.0000065
1.0000065
1.0000065
1.0000064
1.0000065
1.0000065
1.0000065
1.0000064
1.0000064
1.0000064
1.0000064
1.0000064
1.0000064
1.0000064
1.0000064
1.0000064
1.0000064
1.0000064
1.0000064
1.0000064
1.0000064
1.0000064
1.0000064
1.0000064
1.0000064
1.0000064
1.0000064
1.0000064
1.0000064
1.0000064
1.0000064
1.0000065
1.0000065
1.0000065
1.0000065
1.0000064
1.0000064
1.0000064
1.0000064
1.0000065
1.0000065
1.0000065
1.0000065
1.0000065
1.0000065
1.0000065
1.0000065
1.0000065
1.0000065
1.0000065
1.0000065
1.0000056
1.0000063
1.0000063
1.0000063
1.0000063
1.0000063
1.0000063
1.0000063
1.0000063
1.0000063
1.0000063
1.0000063
1.0000063
1.0000063
1.0000063
1.0000062
1.0000062
1.0000061
1.0000062
1.0000062
1.0000062
1.0000062
1.0000062
1.0000062
1.0000062
1.0000062
1.0000062
1.0000062
1.0000062
1.0000062
1.0000062
1.0000062
1.0000062
1.0000062
1.0000062
1.0000063
1.0000063
1.0000063
1.0000063
1.0000063
1.0000063
1.0000063
1.0000063
1.0000062
1.0000062
1.0000062
1.0000063
1.0000063
1.0000063
1.0000063
1.0000063
1.0000063
1.0000063
1.0000063
1.0000063
1.0000063
1.0000063
1.0000063
1.0000063
1.0000053
1.0000059
1.0000059
1.000006
1.0000059
1.0000059
1.0000059
1.000006
1.0000059
1.0000059
1.0000059
1.0000059
1.0000059
1.0000059
1.0000058
1.0000058
1.0000057
1.0000057
1.0000058
1.0000058
1.0000058
1.0000058
1.0000058
1.0000058
1.0000058
1.0000058
1.0000058
1.0000058
1.0000058
1.0000058
1.0000058
1.0000058
1.0000058
1.0000058
1.0000058
1.0000059
1.0000059
1.0000059
1.0000059
1.0000059
1.0000059
1.0000059
1.0000059
1.0000059
1.0000058
1.0000058
1.0000059
1.0000059
1.0000059
1.0000059
1.0000059
1.0000059
1.0000059
1.000006
1.0000059
1.000006
1.000006
1.0000059
1.0000059
1.0000053
1.0000061
1.0000058
1.0000059
1.0000058
1.0000057
1.000006
1.000006
1.0000057
1.0000058
1.0000057
1.0000057
1.0000058
1.0000057
1.0000056
1.0000055
1.0000055
1.0000056
1.0000056
1.0000056
1.0000056
1.0000056
1.0000056
1.0000056
1.0000056
1.0000056
1.0000056
1.0000056
1.0000056
1.0000056
1.0000056
1.0000056
1.0000056
1.0000056
1.0000056
1.0000057
1.0000057
1.0000057
1.0000057
1.0000057
1.0000057
1.0000057
1.0000058
1.0000058
1.0000056
1.0000056
1.0000057
1.0000058
1.0000057
1.0000058
1.0000057
1.0000057
1.0000057
1.0000059
1.0000057
1.0000058
1.000006
1.0000057
1.0000057
1.0000069
1.0000074
1.000007
1.0000073
1.000007
1.000007
1.0000074
1.000007
1.000007
1.0000072
1.0000072
1.0000073
1.000007
1.0000069
1.0000069
1.0000069
1.000007
1.000007
1.0000071
1.0000071
1.0000071
1.0000072
1.0000072
1.0000072
1.0000072
1.0000071
1.0000071
1.0000071
1.0000071
1.0000071
1.0000071
1.0000071
1.0000071
1.0000071
1.0000071
1.0000071
1.0000072
1.0000072
1.0000072
1.0000072
1.0000072
1.0000072
1.0000071
1.0000071
1.0000071
1.000007
1.0000072
1.0000071
1.0000072
1.0000072
1.0000072
1.0000071
1.000007
1.0000073
1.0000071
1.000007
1.0000074
1.0000071
1.0000071
1.0000053
1.0000044
1.0000049
1.0000044
1.0000049
1.0000051
1.0000045
1.0000048
1.0000052
1.000005
1.0000051
1.0000049
1.0000048
1.0000046
1.0000042
1.0000042
1.0000043
1.0000043
1.0000042
1.0000043
1.0000043
1.0000043
1.0000043
1.0000043
1.0000043
1.0000043
1.0000043
1.0000043
1.0000043
1.0000043
1.0000043
1.0000043
1.0000043
1.0000043
1.0000043
1.0000043
1.0000043
1.0000043
1.0000043
1.0000043
1.0000045
1.0000046
1.0000049
1.0000051
1.0000053
1.0000051
1.0000046
1.0000045
1.0000045
1.0000046
1.0000047
1.0000048
1.000005
1.0000047
1.0000052
1.0000051
1.0000044
1.0000053
1.0000053
1.0000406
1.0000406
1.0000406
1.0000407
1.0000407
1.0000407
1.0000407
1.0000408
1.0000408
1.0000408
1.0000408
1.0000409
1.0000409
1.0000409
1.0000409
1.0000409
1.0000409
1.0000409
1.0000409
1.000041
1.000041
1.000041
1.000041
1.000041
1.000041
1.000041
1.000041
1.000041
1.000041
1.000041
1.000041
1.000041
1.000041
1.000041
1.0000411
1.0000411
1.0000411
1.0000411
1.0000411
1.0000411
1.0000411
1.0000411
1.0000411
1.0000411
1.0000411
1.0000411
1.0000411
1.0000411
1.0000411
1.0000411
1.0000411
1.0000411
1.0000409
1.0000406
1.0000401
1.000039
1.000037
1.0000334
1.0000285
1.0000372
1.0000372
1.0000372
1.0000372
1.0000373
1.0000373
1.0000373
1.0000373
1.0000374
1.0000374
1.0000374
1.0000374
1.0000374
1.0000375
1.0000375
1.0000375
1.0000375
1.0000375
1.0000375
1.0000375
1.0000375
1.0000375
1.0000375
1.0000375
1.0000375
1.0000375
1.0000375
1.0000375
1.0000375
1.0000375
1.0000375
1.0000375
1.0000376
1.0000376
1.0000376
1.0000376
1.0000376
1.0000376
1.0000376
1.0000376
1.0000376
1.0000376
1.0000376
1.0000376
1.0000376
1.0000376
1.0000376
1.0000376
1.0000376
1.0000376
1.0000376
1.0000376
1.0000374
1.0000372
1.0000367
1.0000357
1.0000338
1.0000305
1.0000261
1.000034
1.000034
1.000034
1.000034
1.000034
1.0000341
1.0000341
1.0000341
1.0000341
1.0000341
1.0000342
1.0000342
1.0000342
1.0000342
1.0000342
1.0000342
1.0000342
1.0000342
1.0000342
1.0000342
1.0000342
1.0000342
1.0000342
1.0000342
1.0000342
1.0000342
1.0000342
1.0000342
1.0000342
1.0000342
1.0000342
1.0000343
1.0000343
1.0000343
1.0000343
1.0000343
1.0000343
1.0000344
1.0000344
1.0000343
1.0000343
1.0000343
1.0000343
1.0000343
1.0000343
1.0000343
1.0000343
1.0000343
1.0000343
1.0000343
1.0000343
1.0000343
1.0000342
1.000034
1.0000335
1.0000326
1.0000309
1.0000279
1.0000239
1.0000309
1.000031
1.000031
1.000031
1.000031
1.000031
1.0000311
1.0000311
1.0000311
1.0000311
1.0000311
1.0000312
1.0000312
1.0000312
1.0000312
1.0000312
1.0000312
1.0000312
1.0000312
1.0000312
1.0000312
1.0000312
1.0000312
1.0000312
1.0000312
1.0000312
1.0000312
1.0000312
1.0000312
1.0000312
1.0000312
1.0000312
1.0000312
1.0000312
1.0000313
1.0000313
1.0000313
1.0000313
1.0000313
1.0000313
1.0000313
1.0000313
1.0000313
1.0000313
1.0000313
1.0000313
1.0000313
1.0000313
1.0000313
1.0000313
1.0000313
1.0000312
1.0000312
1.000031
1.0000306
1.0000298
1.0000282
1.0000254
1.0000218
1.0000281
1.0000282
1.0000282
1.0000282
1.0000282
1.0000282
1.0000283
1.0000283
1.0000283
1.0000283
1.0000283
1.0000283
1.0000284
1.0000284
1.0000284
1.0000284
1.0000284
1.0000284
1.0000284
1.0000284
1.0000284
1.0000284
1.0000284
1.0000284
1.0000284
1.0000284
1.0000284
1.0000284
1.0000284
1.0000284
1.0000284
1.0000284
1.0000284
1.0000284
1.0000284
1.0000284
1.0000284
1.0000284
1.0000285
1.0000284
1.0000284
1.0000284
1.0000284
1.0000284
1.0000284
1.0000284
1.0000284
1.0000284
1.0000284
1.0000284
1.0000284
1.0000284
1.0000283
1.0000282
1.0000278
1.0000271
1.0000257
1.0000232
1.0000198
1.0000255
1.0000256
1.0000256
1.0000256
1.0000256
1.0000256
1.0000256
1.0000257
1.0000257
1.0000257
1.0000257
1.0000257
1.0000257
1.0000257
1.0000257
1.0000257
1.0000257
1.0000257
1.0000257
1.0000257
1.0000257
1.0000257
1.0000257
1.0000257
1.0000257
1.0000257
1.0000257
1.0000257
1.0000257
1.0000257
1.0000257
1.0000257
1.0000257
1.0000258
1.0000258
1.0000258
1.0000258
1.0000258
1.0000258
1.0000258
1.0000258
1.0000258
1.0000258
1.0000258
1.0000258
1.0000258
1.0000258
1.0000258
1.0000258
1.0000258
1.0000258
1.0000258
1.0000257
1.0000256
1.0000253
1.0000246
1.0000234
1.0000211
1.000018
1.0000231
1.0000232
1.0000232
1.0000232
1.0000232
1.0000232
1.0000232
1.0000232
1.0000233
1.0000233
1.0000233
1.0000233
1.0000233
1.0000233
1.0000233
1.0000233
1.0000233
1.0000233
1.0000233
1.0000233
1.0000233
1.0000233
1.0000233
1.0000233
1.0000233
1.0000233
1.0000233
1.0000233
1.0000233
1.0000233
1.0000233
1.0000233
1.0000233
1.0000233
1.0000233
1.0000233
1.0000234
1.0000234
1.0000234
1.0000234
1.0000234
1.0000234
1.0000234
1.0000234
1.0000234
1.0000234
1.0000233
1.0000233
1.0000233
1.0000233
1.0000233
1.0000233
1.0000233
1.0000232
1.0000229
1.0000224
1.0000212
1.0000191
1.0000164
1.0000209
1.0000209
1.0000209
1.0000209
1.000021
1.000021
1.000021
1.000021
1.000021
1.000021
1.0000211
1.0000211
1.0000211
1.0000211
1.0000211
1.0000211
1.0000211
1.0000211
1.0000211
1.0000211
1.0000211
1.0000211
1.0000211
1.0000211
1.000021
1.000021
1.000021
1.000021
1.000021
1.000021
1.000021
1.000021
1.0000211
1.0000211
1.0000211
1.0000211
1.0000211
1.0000211
1.0000211
1.0000211
1.0000211
1.0000211
1.0000211
1.0000211
1.0000211
1.0000211
1.0000211
1.0000211
1.0000211
1.0000211
1.0000211
1.0000211
1.0000211
1.000021
1.0000207
1.0000203
1.0000193
1.0000174
1.0000148
1.0000189
1.0000189
1.0000189
1.0000189
1.0000189
1.0000189
1.0000189
1.000019
1.000019
1.000019
1.000019
1.000019
1.000019
1.000019
1.000019
1.000019
1.000019
1.000019
1.000019
1.000019
1.000019
1.000019
1.000019
1.000019
1.000019
1.000019
1.000019
1.000019
1.000019
1.000019
1.000019
1.000019
1.000019
1.000019
1.000019
1.000019
1.000019
1.0000191
1.0000191
1.0000191
1.0000191
1.0000191
1.0000191
1.000019
1.000019
1.000019
1.000019
1.000019
1.000019
1.000019
1.000019
1.000019
1.000019
1.0000189
1.0000187
1.0000183
1.0000174
1.0000158
1.0000134
1.000017
1.000017
1.000017
1.000017
1.000017
1.000017
1.0000171
1.0000171
1.0000171
1.0000171
1.0000171
1.0000171
1.0000171
1.0000171
1.0000171
1.0000171
1.0000171
1.0000171
1.0000171
1.0000171
1.0000171
1.0000171
1.0000171
1.0000171
1.0000171
1.0000171
1.0000171
1.0000171
1.0000171
1.0000171
1.0000171
1.0000171
1.0000171
1.0000171
1.0000171
1.0000171
1.0000171
1.0000172
1.0000172
1.0000172
1.0000172
1.0000172
1.0000172
1.0000172
1.0000172
1.0000172
1.0000171
1.0000171
1.0000171
1.0000171
1.0000171
1.0000171
1.0000171
1.0000171
1.0000169
1.0000166
1.0000158
1.0000143
1.0000121
1.0000153
1.0000153
1.0000153
1.0000153
1.0000153
1.0000153
1.0000153
1.0000153
1.0000154
1.0000154
1.0000154
1.0000154
1.0000154
1.0000154
1.0000154
1.0000154
1.0000154
1.0000154
1.0000154
1.0000154
1.0000154
1.0000154
1.0000154
1.0000154
1.0000154
1.0000154
1.0000154
1.0000154
1.0000153
1.0000153
1.0000153
1.0000153
1.0000154
1.0000154
1.0000154
1.0000154
1.0000154
1.0000154
1.0000154
1.0000155
1.0000155
1.0000155
1.0000155
1.0000155
1.0000154
1.0000154
1.0000154
1.0000154
1.0000154
1.0000154
1.0000154
1.0000154
1.0000154
1.0000154
1.0000152
1.0000149
1.0000143
1.0000129
1.000011
1.0000137
1.0000137
1.0000137
1.0000137
1.0000138
1.0000138
1.0000138
1.0000138
1.0000138
1.0000138
1.0000138
1.0000138
1.0000138
1.0000138
1.0000138
1.0000138
1.0000138
1.0000138
1.0000138
1.0000138
1.0000138
1.0000138
1.0000138
1.0000138
1.0000138
1.0000138
1.0000138
1.0000138
1.0000138
1.0000138
1.0000138
1.0000138
1.0000138
1.0000138
1.0000138
1.0000138
1.0000138
1.0000139
1.0000139
1.0000139
1.0000139
1.0000139
1.0000139
1.0000139
1.0000139
1.0000139
1.0000139
1.0000138
1.0000138
1.0000138
1.0000138
1.0000138
1.0000138
1.0000138
1.0000137
1.0000135
1.0000129
1.0000117
1.0000099
1.0000123
1.0000123
1.0000123
1.0000123
1.0000123
1.0000123
1.0000123
1.0000124
1.0000124
1.0000124
1.0000124
1.0000124
1.0000124
1.0000124
1.0000124
1.0000124
1.0000123
1.0000124
1.0000124
1.0000124
1.0000124
1.0000124
1.0000124
1.0000124
1.0000124
1.0000124
1.0000124
1.0000124
1.0000123
1.0000123
1.0000123
1.0000123
1.0000123
1.0000124
1.0000124
1.0000124
1.0000124
1.0000124
1.0000125
1.0000125
1.0000125
1.0000125
1.0000125
1.0000125
1.0000125
1.0000125
1.0000124
1.0000124
1.0000124
1.0000124
1.0000124
1.0000124
1.0000124
1.0000124
1.0000123
1.0000121
1.0000117
1.0000106
1.000009
1.0000111
1.0000111
1.0000111
1.0000111
1.0000111
1.0000111
1.0000111
1.0000111
1.0000111
1.0000111
1.0000111
1.0000111
1.0000112
1.0000111
1.0000111
1.0000111
1.0000111
1.0000111
1.0000111
1.0000111
1.0000111
1.0000111
1.0000111
1.0000111
1.0000111
1.0000111
1.0000111
1.0000111
1.0000111
1.0000111
1.0000111
1.0000111
1.0000111
1.0000111
1.0000111
1.0000111
1.0000111
1.0000111
1.0000112
1.0000112
1.0000112
1.0000113
1.0000113
1.0000113
1.0000112
1.0000112
1.0000112
1.0000111
1.0000111
1.0000111
1.0000111
1.0000111
1.0000111
1.0000111
1.0000111
1.000011
1.0000106
1.0000096
1.0000082
1.0000313
1.0000346
1.0000383
1.0000423
1.0000467
1.0000515
1.0000566
1.0000621
1.0000679
1.0000742
1.0000809
1.000088
1.0000955
1.0001035
1.0001118
1.0001206
1.0001296
1.0001389
1.0001485
1.000158
1.0001676
1.000177
1.0001859
1.0001944
1.0002021
1.0002089
1.0002145
1.0002188
1.0002217
1.0002231
1.0002225
1.0002205
1.0002169
1.0002116
1.0002048
1.0001968
1.0001877
1.0001785
1.000167
1.0001551
1.0001432
1.000131
1.0001186
1.0001066
1.0000948
1.0000835
1.0000721
1.0000609
1.0000501
1.0000395
1.0000295
1.0000197
1.0000102
1.0000013
0.99999279
0.9999848
0.99997732
0.99997032
0.99996379
0.99995772
0.99995205
0.99994676
0.99994182
0.99993721
0.9999329
0.99992887
0.9999251
0.99992158
0.99991829
0.99991522
0.99991236
0.99990968
0.99990719
0.99990489
1.0000365
1.0000403
1.0000444
1.0000489
1.0000537
1.0000589
1.0000645
1.0000705
1.000077
1.0000839
1.0000913
1.0000992
1.0001075
1.0001163
1.0001254
1.000135
1.0001448
1.0001549
1.0001651
1.0001754
1.0001855
1.0001952
1.0002045
1.000213
1.0002205
1.0002269
1.0002318
1.0002352
1.0002368
1.0002364
1.0002341
1.0002299
1.0002238
1.0002158
1.0002062
1.0001952
1.0001829
1.0001698
1.0001558
1.0001411
1.0001261
1.0001107
1.0000956
1.0000802
1.0000652
1.0000508
1.0000369
1.0000234
1.0000106
0.99999821
0.99998667
0.99997457
0.99996427
0.9999546
0.99994539
0.99993667
0.99992848
0.99992075
0.99991369
0.99990719
0.99990101
0.99989515
0.99988965
0.99988435
0.99987938
0.99987475
0.99987045
0.99986644
0.99986272
0.99985925
0.99985603
0.99985303
0.99985024
0.99984768
1.0000405
1.0000447
1.0000492
1.0000542
1.0000595
1.0000653
1.0000715
1.0000781
1.0000853
1.000093
1.0001012
1.00011
1.0001192
1.000129
1.0001392
1.0001498
1.0001607
1.0001719
1.0001832
1.0001945
1.0002057
1.0002164
1.0002265
1.0002357
1.0002438
1.0002506
1.0002556
1.0002589
1.00026
1.0002589
1.0002556
1.0002499
1.000242
1.000232
1.00022
1.0002063
1.0001911
1.0001747
1.0001573
1.0001393
1.0001209
1.0001022
1.0000836
1.0000652
1.000047
1.0000293
1.0000121
0.99999558
0.99997976
0.99996462
0.99995028
0.9999366
0.99992365
0.9999115
0.99989997
0.99988947
0.99987991
0.99987081
0.99986176
0.99985324
0.99984529
0.9998379
0.99983103
0.99982464
0.99981869
0.99981317
0.99980803
0.99980326
0.99979883
0.99979472
0.99979091
0.99978739
0.99978413
0.99978097
1.0000428
1.0000473
1.0000522
1.0000575
1.0000633
1.0000696
1.0000763
1.0000836
1.0000914
1.0000997
1.0001086
1.0001181
1.0001282
1.0001388
1.00015
1.0001616
1.0001736
1.0001859
1.0001983
1.0002108
1.0002231
1.000235
1.0002463
1.0002566
1.0002657
1.0002734
1.0002793
1.0002831
1.0002847
1.0002838
1.0002805
1.0002746
1.0002662
1.0002554
1.0002424
1.0002275
1.0002108
1.0001926
1.0001733
1.0001532
1.0001325
1.0001116
1.0000906
1.0000697
1.0000491
1.000029
1.0000094
0.99999047
0.99997229
0.99995487
0.99993829
0.99992253
0.99990761
0.99989355
0.99988026
0.99986775
0.99985604
0.99984508
0.99983481
0.9998252
0.99981618
0.99980782
0.99979969
0.99979212
0.99978515
0.99977872
0.99977278
0.9997673
0.99976224
0.99975753
0.9997533
0.99974941
0.99974579
0.99974245
1.000044
1.0000488
1.0000539
1.0000596
1.0000657
1.0000723
1.0000794
1.0000871
1.0000954
1.0001042
1.0001137
1.0001238
1.0001346
1.0001459
1.0001578
1.0001703
1.0001832
1.0001964
1.0002099
1.0002234
1.0002368
1.0002498
1.0002622
1.0002737
1.000284
1.0002927
1.0002997
1.0003045
1.0003069
1.0003069
1.0003042
1.0002989
1.0002909
1.0002803
1.0002674
1.0002523
1.0002354
1.0002168
1.000197
1.0001761
1.0001547
1.0001328
1.0001107
1.0000888
1.000067
1.0000457
1.0000249
1.0000047
0.99998528
0.99996663
0.99994882
0.99993187
0.99991579
0.99990059
0.99988623
0.99987267
0.99985992
0.99984795
0.99983673
0.99982623
0.99981641
0.99980724
0.99979869
0.99979073
0.99978332
0.99977644
0.99977004
0.9997641
0.9997586
0.9997535
0.99974878
0.99974441
0.99974037
0.99973664
1.0000447
1.0000496
1.0000549
1.0000607
1.0000671
1.0000739
1.0000813
1.0000894
1.000098
1.0001072
1.0001171
1.0001277
1.000139
1.0001509
1.0001634
1.0001765
1.0001901
1.0002041
1.0002184
1.0002328
1.0002471
1.0002611
1.0002744
1.000287
1.0002983
1.0003081
1.000316
1.0003219
1.0003254
1.0003263
1.0003245
1.00032
1.0003128
1.0003029
1.0002905
1.000276
1.0002595
1.0002412
1.0002216
1.0002009
1.0001795
1.0001577
1.0001356
1.0001135
1.0000915
1.0000699
1.0000489
1.0000284
1.0000086
0.99998963
0.99997147
0.99995415
0.9999377
0.99992212
0.99990739
0.99989347
0.99988037
0.99986806
0.99985651
0.99984569
0.99983557
0.99982611
0.9998173
0.99980908
0.99980144
0.99979433
0.99978773
0.9997816
0.99977592
0.99977065
0.99976577
0.99976126
0.99975708
0.99975322
1.000045
1.00005
1.0000555
1.0000614
1.0000679
1.0000749
1.0000825
1.0000908
1.0000996
1.0001092
1.0001194
1.0001303
1.000142
1.0001543
1.0001672
1.0001808
1.000195
1.0002096
1.0002245
1.0002396
1.0002546
1.0002693
1.0002835
1.0002969
1.0003091
1.0003198
1.0003287
1.0003354
1.0003398
1.0003416
1.0003407
1.0003371
1.0003306
1.0003215
1.0003099
1.0002961
1.0002802
1.0002625
1.0002434
1.0002232
1.0002023
1.0001808
1.000159
1.0001372
1.0001155
1.0000941
1.0000732
1.0000529
1.0000333
1.0000144
0.99999636
0.99997912
0.99996272
0.99994719
0.99993248
0.99991859
0.99990551
0.99989321
0.99988167
0.99987086
0.99986074
0.99985129
0.99984247
0.99983425
0.99982661
0.9998195
0.9998129
0.99980677
0.99980108
0.99979582
0.99979093
0.99978642
0.99978224
0.99977838
1.0000452
1.0000503
1.0000558
1.0000618
1.0000684
1.0000755
1.0000833
1.0000917
1.0001007
1.0001105
1.0001209
1.0001321
1.000144
1.0001566
1.0001699
1.0001839
1.0001984
1.0002135
1.0002289
1.0002445
1.00026
1.0002754
1.0002902
1.0003042
1.0003171
1.0003285
1.0003381
1.0003456
1.0003508
1.0003533
1.0003532
1.0003502
1.0003445
1.0003361
1.0003252
1.0003119
1.0002966
1.0002795
1.000261
1.0002412
1.0002207
1.0001997
1.0001783
1.0001568
1.0001355
1.0001145
1.0000939
1.0000738
1.0000544
1.0000358
1.0000179
1.0000009
0.99998466
0.99996929
0.99995474
0.99994099
0.99992804
0.99991586
0.99990443
0.99989373
0.99988371
0.99987435
0.99986562
0.99985749
0.99984992
0.99984288
0.99983634
0.99983027
0.99982465
0.99981943
0.9998146
0.99981013
0.99980598
0.99980217
1.0000453
1.0000504
1.000056
1.0000621
1.0000687
1.0000759
1.0000838
1.0000923
1.0001014
1.0001113
1.0001219
1.0001333
1.0001454
1.0001582
1.0001718
1.000186
1.0002009
1.0002162
1.000232
1.000248
1.000264
1.0002798
1.0002951
1.0003096
1.000323
1.0003349
1.0003451
1.0003532
1.0003589
1.000362
1.0003625
1.0003601
1.0003549
1.000347
1.0003366
1.0003239
1.000309
1.0002924
1.0002742
1.0002549
1.0002347
1.000214
1.000193
1.0001718
1.0001507
1.0001299
1.0001096
1.0000898
1.0000706
1.0000522
1.0000345
1.0000176
1.0000015
0.99998627
0.99997185
0.99995823
0.99994539
0.99993332
0.999922
0.99991139
0.99990146
0.99989219
0.99988354
0.99987548
0.99986798
0.99986101
0.99985453
0.99984852
0.99984295
0.99983778
0.99983299
0.99982857
0.99982446
0.99982068
1.0000453
1.0000504
1.000056
1.0000622
1.0000689
1.0000761
1.0000841
1.0000926
1.0001019
1.0001119
1.0001226
1.0001341
1.0001463
1.0001593
1.0001731
1.0001875
1.0002026
1.0002182
1.0002342
1.0002505
1.0002668
1.0002829
1.0002986
1.0003135
1.0003272
1.0003396
1.0003502
1.0003587
1.0003648
1.0003684
1.0003693
1.0003673
1.0003626
1.0003551
1.000345
1.0003326
1.0003181
1.0003018
1.0002839
1.0002649
1.000245
1.0002245
1.0002036
1.0001827
1.0001618
1.0001412
1.000121
1.0001013
1.0000822
1.0000639
1.0000463
1.0000295
1.0000136
0.99999842
0.99998408
0.99997053
0.99995777
0.99994577
0.99993451
0.99992396
0.9999141
0.99990488
0.99989628
0.99988828
0.99988082
0.99987389
0.99986745
0.99986148
0.99985594
0.9998508
0.99984604
0.99984164
0.99983756
0.9998338
1.0000453
1.0000505
1.0000561
1.0000622
1.000069
1.0000763
1.0000842
1.0000929
1.0001022
1.0001122
1.000123
1.0001346
1.0001469
1.0001601
1.0001739
1.0001885
1.0002038
1.0002196
1.0002358
1.0002523
1.0002688
1.0002852
1.0003011
1.0003162
1.0003303
1.000343
1.0003539
1.0003627
1.0003692
1.0003731
1.0003742
1.0003726
1.0003682
1.000361
1.0003512
1.000339
1.0003247
1.0003086
1.000291
1.0002721
1.0002523
1.000232
1.0002112
1.0001904
1.0001696
1.0001491
1.000129
1.0001094
1.0000904
1.0000721
1.0000546
1.0000379
1.000022
1.0000069
0.99999256
0.99997906
0.99996634
0.99995438
0.99994315
0.99993264
0.9999228
0.99991361
0.99990505
0.99989706
0.99988963
0.99988272
0.99987631
0.99987035
0.99986482
0.9998597
0.99985496
0.99985057
0.9998465
0.99984275
1.0000453
1.0000505
1.0000561
1.0000623
1.000069
1.0000764
1.0000843
1.000093
1.0001024
1.0001124
1.0001233
1.0001349
1.0001474
1.0001606
1.0001746
1.0001892
1.0002046
1.0002205
1.0002369
1.0002535
1.0002702
1.0002868
1.0003029
1.0003182
1.0003325
1.0003454
1.0003565
1.0003656
1.0003722
1.0003766
1.000378
1.0003765
1.0003722
1.0003652
1.0003556
1.0003436
1.0003295
1.0003135
1.000296
1.0002773
1.0002576
1.0002373
1.0002167
1.0001959
1.0001752
1.0001547
1.0001347
1.0001151
1.0000962
1.0000779
1.0000605
1.0000438
1.0000278
1.0000128
0.99999848
0.99998499
0.99997228
0.99996034
0.99994913
0.99993863
0.99992881
0.99991964
0.99991108
0.99990311
0.99989569
0.99988879
0.99988239
0.99987644
0.99987092
0.9998658
0.99986106
0.99985668
0.99985261
0.99984887
1.0000453
1.0000505
1.0000561
1.0000623
1.000069
1.0000764
1.0000844
1.0000931
1.0001025
1.0001126
1.0001235
1.0001352
1.0001477
1.0001609
1.000175
1.0001897
1.0002052
1.0002212
1.0002376
1.0002544
1.0002712
1.0002879
1.0003041
1.0003196
1.0003341
1.0003471
1.0003584
1.0003677
1.0003745
1.0003792
1.0003805
1.0003793
1.0003752
1.0003683
1.0003589
1.000347
1.000333
1.0003172
1.0002998
1.0002811
1.0002615
1.0002413
1.0002207
1.0001999
1.0001793
1.0001588
1.0001388
1.0001192
1.0001003
1.0000821
1.0000646
1.0000479
1.000032
1.0000169
1.0000027
0.99998917
0.99997647
0.99996453
0.99995333
0.99994283
0.99993301
0.99992384
0.99991529
0.99990732
0.99989991
0.99989301
0.9998866
0.99988066
0.99987514
0.99987002
0.99986529
0.9998609
0.99985683
0.99985309
1.0000453
1.0000505
1.0000561
1.0000623
1.0000691
1.0000764
1.0000844
1.0000931
1.0001025
1.0001127
1.0001236
1.0001353
1.0001478
1.0001611
1.0001752
1.00019
1.0002055
1.0002216
1.0002381
1.0002549
1.0002719
1.0002886
1.000305
1.0003206
1.0003351
1.0003483
1.0003598
1.0003692
1.0003762
1.0003808
1.0003824
1.0003814
1.0003774
1.0003707
1.0003614
1.0003497
1.0003358
1.0003201
1.0003027
1.0002841
1.0002646
1.0002444
1.0002238
1.0002031
1.0001824
1.000162
1.0001419
1.0001224
1.0001035
1.0000853
1.0000678
1.0000511
1.0000352
1.0000201
1.0000058
0.99999233
0.99997962
0.99996767
0.99995646
0.99994596
0.99993615
0.99992697
0.99991842
0.99991045
0.99990303
0.99989613
0.99988972
0.99988377
0.99987825
0.99987313
0.99986839
0.999864
0.99985993
0.99985618
1.0000453
1.0000505
1.0000561
1.0000623
1.0000691
1.0000764
1.0000844
1.0000932
1.0001026
1.0001127
1.0001237
1.0001354
1.0001479
1.0001613
1.0001754
1.0001902
1.0002058
1.0002219
1.0002385
1.0002553
1.0002723
1.0002891
1.0003055
1.0003212
1.0003359
1.0003492
1.0003607
1.0003702
1.0003774
1.000382
1.0003839
1.0003831
1.0003792
1.0003727
1.0003635
1.0003519
1.0003381
1.0003224
1.0003052
1.0002866
1.0002671
1.000247
1.0002264
1.0002057
1.0001851
1.0001647
1.0001446
1.0001251
1.0001062
1.000088
1.0000705
1.0000537
1.0000378
1.0000227
1.0000084
0.99999493
0.99998222
0.99997026
0.99995904
0.99994854
0.99993871
0.99992953
0.99992097
0.99991299
0.99990556
0.99989865
0.99989224
0.99988628
0.99988075
0.99987563
0.99987088
0.99986648
0.99986241
0.99985865
1.0000453
1.0000505
1.0000561
1.0000623
1.0000691
1.0000764
1.0000845
1.0000932
1.0001026
1.0001128
1.0001237
1.0001355
1.000148
1.0001613
1.0001755
1.0001904
1.0002059
1.000222
1.0002386
1.0002555
1.0002726
1.0002894
1.0003059
1.0003217
1.0003364
1.0003498
1.0003614
1.000371
1.0003783
1.0003831
1.0003851
1.0003845
1.0003808
1.0003743
1.0003653
1.0003538
1.0003401
1.0003246
1.0003074
1.0002889
1.0002695
1.0002494
1.0002289
1.0002082
1.0001876
1.0001672
1.0001471
1.0001276
1.0001087
1.0000904
1.0000729
1.0000562
1.0000403
1.0000252
1.0000108
0.99999733
0.9999846
0.99997263
0.9999614
0.99995088
0.99994104
0.99993185
0.99992328
0.99991529
0.99990786
0.99990094
0.99989452
0.99988855
0.99988301
0.99987788
0.99987312
0.99986872
0.99986464
0.99986088
1.0000453
1.0000505
1.0000561
1.0000623
1.0000691
1.0000764
1.0000844
1.0000932
1.0001026
1.0001128
1.0001237
1.0001355
1.000148
1.0001614
1.0001755
1.0001904
1.000206
1.0002221
1.0002387
1.0002557
1.0002727
1.0002896
1.0003061
1.0003219
1.0003367
1.0003502
1.0003619
1.0003717
1.0003791
1.000384
1.0003861
1.0003857
1.0003822
1.0003759
1.000367
1.0003557
1.0003422
1.0003267
1.0003097
1.0002913
1.0002719
1.0002519
1.0002314
1.0002108
1.0001902
1.0001698
1.0001497
1.0001302
1.0001113
1.000093
1.0000755
1.0000588
1.0000428
1.0000277
1.0000133
0.9999998
0.99998705
0.99997507
0.99996382
0.99995328
0.99994343
0.99993422
0.99992563
0.99991763
0.99991018
0.99990325
0.99989681
0.99989083
0.99988529
0.99988014
0.99987538