/*--------------------------------*- C++ -*----------------------------------*\
| =========                 |                                                 |
| \\      /  F ield         | OpenFOAM: The Open Source CFD Toolbox           |
|  \\    /   O peration     | Version:  v2006                                 |
|   \\  /    A nd           | Website:  www.openfoam.com                      |
|    \\/     M anipulation  |                                                 |
\*---------------------------------------------------------------------------*/
FoamFile
{
    version     2.0;
    format      ascii;
    class       volScalarField;
    location    "1000";
    object      TMean;
}
// * * * * * * * * * * * * * * * * * * * * * * * * * * * * * * * * * * * * * //

dimensions      [0 0 0 1 0 0 0];


internalField   nonuniform List<scalar> 
55713
(
1.0000109
1.0000129
1.0000142
1.0000147
1.0000149
1.0000149
1.0000149
1.0000149
1.0000149
1.0000149
1.0000149
1.000015
1.000015
1.000015
1.000015
1.000015
1.000015
1.000015
1.000015
1.000015
1.000015
1.000015
1.000015
1.000015
1.000015
1.000015
1.000015
1.000015
1.000015
1.000015
1.000015
1.000015
1.000015
1.000015
1.000015
1.000015
1.000015
1.000015
1.000015
1.000015
1.000015
1.000015
1.000015
1.000015
1.000015
1.000015
1.000015
1.000015
1.0000149
1.0000149
1.0000149
1.0000149
1.0000149
1.0000149
1.0000148
1.0000148
1.0000148
1.0000148
1.0000148
1.0000105
1.0000124
1.0000135
1.000014
1.0000141
1.0000141
1.0000141
1.0000141
1.0000141
1.0000141
1.0000141
1.0000142
1.0000142
1.0000142
1.0000142
1.0000142
1.0000142
1.0000142
1.0000142
1.0000142
1.0000142
1.0000142
1.0000142
1.0000142
1.0000142
1.0000142
1.0000142
1.0000142
1.0000142
1.0000142
1.0000142
1.0000142
1.0000142
1.0000142
1.0000142
1.0000142
1.0000142
1.0000142
1.0000142
1.0000142
1.0000142
1.0000142
1.0000142
1.0000142
1.0000142
1.0000142
1.0000142
1.0000142
1.0000141
1.0000141
1.0000141
1.0000141
1.0000141
1.0000141
1.0000141
1.000014
1.000014
1.000014
1.000014
1.0000101
1.000012
1.0000129
1.0000133
1.0000134
1.0000134
1.0000134
1.0000134
1.0000134
1.0000134
1.0000134
1.0000134
1.0000134
1.0000134
1.0000135
1.0000135
1.0000135
1.0000135
1.0000135
1.0000135
1.0000135
1.0000135
1.0000135
1.0000135
1.0000135
1.0000135
1.0000134
1.0000134
1.0000134
1.0000134
1.0000134
1.0000134
1.0000135
1.0000135
1.0000135
1.0000135
1.0000135
1.0000135
1.0000135
1.0000135
1.0000135
1.0000135
1.0000135
1.0000135
1.0000135
1.0000135
1.0000135
1.0000134
1.0000134
1.0000134
1.0000134
1.0000134
1.0000134
1.0000134
1.0000134
1.0000134
1.0000133
1.0000133
1.0000133
1.0000098
1.0000116
1.0000125
1.0000127
1.0000128
1.0000128
1.0000127
1.0000127
1.0000127
1.0000128
1.0000128
1.0000128
1.0000128
1.0000128
1.0000128
1.0000128
1.0000128
1.0000128
1.0000128
1.0000128
1.0000128
1.0000128
1.0000128
1.0000128
1.0000128
1.0000128
1.0000128
1.0000128
1.0000128
1.0000128
1.0000128
1.0000128
1.0000128
1.0000128
1.0000129
1.0000129
1.0000129
1.0000129
1.0000129
1.0000129
1.0000129
1.0000129
1.0000129
1.0000128
1.0000128
1.0000128
1.0000128
1.0000128
1.0000128
1.0000128
1.0000128
1.0000128
1.0000128
1.0000128
1.0000128
1.0000128
1.0000127
1.0000127
1.0000127
1.0000096
1.0000113
1.000012
1.0000122
1.0000122
1.0000122
1.0000122
1.0000122
1.0000122
1.0000122
1.0000123
1.0000123
1.0000123
1.0000123
1.0000123
1.0000123
1.0000123
1.0000123
1.0000123
1.0000123
1.0000123
1.0000123
1.0000123
1.0000123
1.0000123
1.0000123
1.0000123
1.0000122
1.0000122
1.0000122
1.0000122
1.0000123
1.0000123
1.0000123
1.0000123
1.0000123
1.0000123
1.0000123
1.0000123
1.0000123
1.0000123
1.0000123
1.0000123
1.0000123
1.0000123
1.0000123
1.0000123
1.0000123
1.0000123
1.0000123
1.0000123
1.0000122
1.0000122
1.0000122
1.0000122
1.0000122
1.0000122
1.0000122
1.0000122
1.0000094
1.000011
1.0000116
1.0000118
1.0000118
1.0000117
1.0000117
1.0000117
1.0000117
1.0000118
1.0000118
1.0000118
1.0000118
1.0000118
1.0000118
1.0000118
1.0000118
1.0000118
1.0000118
1.0000118
1.0000118
1.0000118
1.0000118
1.0000118
1.0000118
1.0000118
1.0000118
1.0000118
1.0000118
1.0000118
1.0000118
1.0000118
1.0000118
1.0000118
1.0000118
1.0000118
1.0000118
1.0000118
1.0000118
1.0000118
1.0000118
1.0000118
1.0000118
1.0000118
1.0000118
1.0000118
1.0000118
1.0000118
1.0000118
1.0000118
1.0000118
1.0000118
1.0000118
1.0000117
1.0000118
1.0000118
1.0000118
1.0000117
1.0000117
1.0000093
1.0000108
1.0000113
1.0000114
1.0000113
1.0000113
1.0000113
1.0000113
1.0000113
1.0000114
1.0000114
1.0000114
1.0000114
1.0000114
1.0000114
1.0000114
1.0000114
1.0000113
1.0000113
1.0000114
1.0000114
1.0000114
1.0000114
1.0000114
1.0000113
1.0000113
1.0000113
1.0000113
1.0000113
1.0000113
1.0000113
1.0000113
1.0000113
1.0000114
1.0000114
1.0000114
1.0000114
1.0000114
1.0000114
1.0000114
1.0000114
1.0000114
1.0000114
1.0000114
1.0000114
1.0000114
1.0000114
1.0000114
1.0000114
1.0000114
1.0000114
1.0000114
1.0000113
1.0000113
1.0000114
1.0000114
1.0000114
1.0000113
1.0000113
1.0000092
1.0000106
1.000011
1.000011
1.000011
1.000011
1.0000109
1.000011
1.000011
1.000011
1.000011
1.000011
1.000011
1.000011
1.000011
1.000011
1.000011
1.000011
1.000011
1.000011
1.000011
1.000011
1.000011
1.000011
1.000011
1.000011
1.0000109
1.0000109
1.0000109
1.0000109
1.0000109
1.000011
1.000011
1.000011
1.000011
1.000011
1.000011
1.000011
1.000011
1.000011
1.000011
1.000011
1.000011
1.000011
1.000011
1.000011
1.000011
1.000011
1.000011
1.000011
1.000011
1.000011
1.000011
1.000011
1.000011
1.000011
1.000011
1.000011
1.000011
1.0000092
1.0000105
1.0000108
1.0000108
1.0000107
1.0000107
1.0000107
1.0000107
1.0000108
1.0000108
1.0000107
1.0000107
1.0000108
1.0000108
1.0000108
1.0000107
1.0000107
1.0000107
1.0000107
1.0000107
1.0000107
1.0000107
1.0000107
1.0000107
1.0000107
1.0000107
1.0000107
1.0000107
1.0000107
1.0000107
1.0000107
1.0000107
1.0000107
1.0000107
1.0000107
1.0000107
1.0000107
1.0000107
1.0000107
1.0000107
1.0000107
1.0000108
1.0000108
1.0000108
1.0000108
1.0000107
1.0000107
1.0000108
1.0000108
1.0000108
1.0000108
1.0000107
1.0000107
1.0000107
1.0000107
1.0000108
1.0000108
1.0000107
1.0000107
1.0000092
1.0000105
1.0000106
1.0000106
1.0000105
1.0000105
1.0000105
1.0000105
1.0000106
1.0000105
1.0000105
1.0000105
1.0000106
1.0000105
1.0000105
1.0000105
1.0000104
1.0000105
1.0000105
1.0000105
1.0000105
1.0000105
1.0000105
1.0000105
1.0000104
1.0000104
1.0000104
1.0000104
1.0000104
1.0000104
1.0000104
1.0000104
1.0000104
1.0000105
1.0000105
1.0000105
1.0000105
1.0000105
1.0000105
1.0000105
1.0000105
1.0000105
1.0000105
1.0000105
1.0000105
1.0000105
1.0000105
1.0000105
1.0000105
1.0000105
1.0000105
1.0000105
1.0000106
1.0000105
1.0000105
1.0000106
1.0000106
1.0000105
1.0000105
1.000009
1.0000101
1.00001
1.0000101
1.00001
1.00001
1.00001
1.0000101
1.00001
1.00001
1.00001
1.00001
1.00001
1.00001
1.0000099
1.0000099
1.0000099
1.0000099
1.0000099
1.0000099
1.0000099
1.0000099
1.0000099
1.0000099
1.0000099
1.0000099
1.0000099
1.0000099
1.0000099
1.0000099
1.0000099
1.0000099
1.0000099
1.0000099
1.0000099
1.0000099
1.0000099
1.0000099
1.0000099
1.0000099
1.0000099
1.0000099
1.00001
1.00001
1.00001
1.00001
1.00001
1.00001
1.00001
1.00001
1.00001
1.00001
1.00001
1.00001
1.0000099
1.00001
1.0000101
1.0000099
1.00001
1.0000089
1.0000103
1.0000098
1.00001
1.0000099
1.0000097
1.0000099
1.00001
1.0000098
1.0000097
1.0000097
1.0000098
1.0000098
1.0000098
1.0000096
1.0000096
1.0000096
1.0000097
1.0000096
1.0000097
1.0000096
1.0000096
1.0000096
1.0000096
1.0000096
1.0000096
1.0000096
1.0000095
1.0000095
1.0000095
1.0000095
1.0000095
1.0000096
1.0000096
1.0000096
1.0000096
1.0000096
1.0000096
1.0000096
1.0000096
1.0000096
1.0000096
1.0000097
1.0000097
1.0000097
1.0000097
1.0000097
1.0000097
1.0000097
1.0000097
1.0000097
1.0000098
1.0000096
1.0000099
1.0000096
1.0000098
1.0000102
1.0000096
1.0000097
1.0000118
1.0000125
1.0000119
1.0000124
1.0000119
1.0000119
1.0000123
1.0000121
1.000012
1.0000121
1.0000121
1.0000123
1.0000122
1.000012
1.000012
1.0000121
1.0000122
1.0000122
1.0000122
1.0000122
1.0000122
1.0000121
1.0000121
1.0000121
1.0000121
1.0000121
1.0000121
1.0000121
1.0000121
1.0000121
1.0000121
1.0000121
1.0000121
1.0000121
1.0000121
1.0000121
1.0000122
1.0000122
1.0000122
1.0000122
1.0000121
1.0000121
1.0000121
1.0000121
1.0000121
1.0000121
1.0000121
1.0000121
1.0000121
1.0000121
1.0000121
1.0000122
1.0000121
1.0000121
1.0000122
1.0000119
1.0000125
1.000012
1.000012
1.0000096
1.0000074
1.0000084
1.0000075
1.0000084
1.0000086
1.0000082
1.0000082
1.0000084
1.0000083
1.0000082
1.0000079
1.0000077
1.0000077
1.0000078
1.0000078
1.0000076
1.0000075
1.0000073
1.0000072
1.0000072
1.0000072
1.0000072
1.0000072
1.0000072
1.0000072
1.0000072
1.0000072
1.0000072
1.0000072
1.0000072
1.0000072
1.0000072
1.0000072
1.0000072
1.0000072
1.0000072
1.0000072
1.0000073
1.0000075
1.0000076
1.0000078
1.0000079
1.0000081
1.0000082
1.0000084
1.0000084
1.0000084
1.0000086
1.0000086
1.0000087
1.0000087
1.0000089
1.0000087
1.0000089
1.0000087
1.0000076
1.0000091
1.000009
1.0000487
1.0000487
1.0000487
1.0000488
1.0000488
1.0000489
1.0000489
1.000049
1.000049
1.0000491
1.0000491
1.0000492
1.0000492
1.0000493
1.0000493
1.0000494
1.0000494
1.0000494
1.0000494
1.0000495
1.0000495
1.0000495
1.0000495
1.0000495
1.0000495
1.0000495
1.0000494
1.0000494
1.0000495
1.0000495
1.0000495
1.0000495
1.0000495
1.0000495
1.0000496
1.0000496
1.0000496
1.0000496
1.0000496
1.0000496
1.0000496
1.0000496
1.0000496
1.0000496
1.0000496
1.0000495
1.0000495
1.0000495
1.0000495
1.0000495
1.0000494
1.0000493
1.0000491
1.0000486
1.0000477
1.0000462
1.0000436
1.0000395
1.0000342
1.0000449
1.0000449
1.0000449
1.000045
1.000045
1.0000451
1.0000451
1.0000452
1.0000452
1.0000452
1.0000453
1.0000453
1.0000454
1.0000454
1.0000455
1.0000455
1.0000455
1.0000455
1.0000456
1.0000456
1.0000456
1.0000456
1.0000456
1.0000456
1.0000456
1.0000456
1.0000456
1.0000456
1.0000456
1.0000456
1.0000456
1.0000456
1.0000456
1.0000457
1.0000457
1.0000457
1.0000457
1.0000457
1.0000457
1.0000457
1.0000457
1.0000457
1.0000457
1.0000457
1.0000457
1.0000456
1.0000456
1.0000456
1.0000456
1.0000455
1.0000455
1.0000454
1.0000452
1.0000448
1.000044
1.0000425
1.0000401
1.0000363
1.0000314
1.0000413
1.0000413
1.0000413
1.0000414
1.0000414
1.0000415
1.0000415
1.0000415
1.0000416
1.0000416
1.0000417
1.0000417
1.0000418
1.0000418
1.0000418
1.0000419
1.0000419
1.0000419
1.0000419
1.000042
1.000042
1.000042
1.000042
1.000042
1.000042
1.000042
1.0000419
1.0000419
1.0000419
1.0000419
1.000042
1.000042
1.000042
1.000042
1.000042
1.000042
1.000042
1.0000421
1.0000421
1.0000421
1.0000421
1.0000421
1.000042
1.000042
1.000042
1.000042
1.0000419
1.0000419
1.0000419
1.0000419
1.0000418
1.0000418
1.0000416
1.0000412
1.0000405
1.0000392
1.0000369
1.0000334
1.0000289
1.0000379
1.000038
1.000038
1.000038
1.0000381
1.0000381
1.0000381
1.0000382
1.0000382
1.0000383
1.0000383
1.0000383
1.0000384
1.0000384
1.0000384
1.0000385
1.0000385
1.0000385
1.0000385
1.0000386
1.0000386
1.0000386
1.0000386
1.0000386
1.0000386
1.0000386
1.0000385
1.0000385
1.0000385
1.0000385
1.0000386
1.0000386
1.0000386
1.0000386
1.0000386
1.0000386
1.0000386
1.0000386
1.0000386
1.0000387
1.0000386
1.0000386
1.0000386
1.0000386
1.0000386
1.0000385
1.0000385
1.0000385
1.0000385
1.0000385
1.0000384
1.0000384
1.0000382
1.0000379
1.0000372
1.000036
1.000034
1.0000306
1.0000266
1.0000348
1.0000348
1.0000349
1.0000349
1.0000349
1.000035
1.000035
1.0000351
1.0000351
1.0000351
1.0000352
1.0000352
1.0000352
1.0000353
1.0000353
1.0000353
1.0000354
1.0000354
1.0000354
1.0000354
1.0000354
1.0000354
1.0000354
1.0000354
1.0000354
1.0000354
1.0000354
1.0000354
1.0000354
1.0000354
1.0000354
1.0000354
1.0000354
1.0000354
1.0000355
1.0000355
1.0000355
1.0000355
1.0000355
1.0000355
1.0000355
1.0000355
1.0000355
1.0000354
1.0000354
1.0000354
1.0000354
1.0000353
1.0000353
1.0000353
1.0000353
1.0000352
1.0000351
1.0000348
1.0000342
1.0000332
1.0000312
1.0000281
1.0000244
1.0000319
1.000032
1.000032
1.000032
1.000032
1.0000321
1.0000321
1.0000321
1.0000322
1.0000322
1.0000322
1.0000323
1.0000323
1.0000323
1.0000324
1.0000324
1.0000324
1.0000324
1.0000325
1.0000325
1.0000325
1.0000325
1.0000325
1.0000325
1.0000325
1.0000325
1.0000325
1.0000325
1.0000325
1.0000325
1.0000325
1.0000325
1.0000325
1.0000325
1.0000325
1.0000325
1.0000325
1.0000325
1.0000325
1.0000325
1.0000325
1.0000325
1.0000325
1.0000325
1.0000325
1.0000324
1.0000324
1.0000324
1.0000324
1.0000323
1.0000323
1.0000323
1.0000322
1.0000319
1.0000314
1.0000305
1.0000287
1.0000258
1.0000224
1.0000292
1.0000293
1.0000293
1.0000293
1.0000294
1.0000294
1.0000294
1.0000295
1.0000295
1.0000295
1.0000295
1.0000296
1.0000296
1.0000296
1.0000297
1.0000297
1.0000297
1.0000297
1.0000298
1.0000298
1.0000298
1.0000298
1.0000298
1.0000298
1.0000298
1.0000298
1.0000298
1.0000297
1.0000297
1.0000297
1.0000297
1.0000298
1.0000298
1.0000298
1.0000298
1.0000298
1.0000298
1.0000298
1.0000298
1.0000298
1.0000298
1.0000298
1.0000298
1.0000298
1.0000297
1.0000297
1.0000297
1.0000297
1.0000296
1.0000296
1.0000296
1.0000296
1.0000295
1.0000293
1.0000289
1.000028
1.0000264
1.0000237
1.0000206
1.0000268
1.0000268
1.0000268
1.0000269
1.0000269
1.0000269
1.0000269
1.000027
1.000027
1.000027
1.000027
1.0000271
1.0000271
1.0000271
1.0000272
1.0000272
1.0000272
1.0000272
1.0000273
1.0000273
1.0000273
1.0000273
1.0000273
1.0000273
1.0000273
1.0000273
1.0000272
1.0000272
1.0000272
1.0000272
1.0000272
1.0000272
1.0000273
1.0000273
1.0000273
1.0000273
1.0000273
1.0000273
1.0000273
1.0000273
1.0000273
1.0000273
1.0000273
1.0000272
1.0000272
1.0000272
1.0000272
1.0000271
1.0000271
1.0000271
1.0000271
1.0000271
1.000027
1.0000269
1.0000265
1.0000257
1.0000242
1.0000217
1.0000188
1.0000245
1.0000245
1.0000246
1.0000246
1.0000246
1.0000246
1.0000247
1.0000247
1.0000247
1.0000247
1.0000248
1.0000248
1.0000248
1.0000249
1.0000249
1.0000249
1.0000249
1.0000249
1.000025
1.000025
1.000025
1.000025
1.000025
1.000025
1.000025
1.000025
1.0000249
1.0000249
1.0000249
1.0000249
1.0000249
1.0000249
1.000025
1.000025
1.000025
1.000025
1.000025
1.000025
1.000025
1.000025
1.000025
1.000025
1.000025
1.0000249
1.0000249
1.0000249
1.0000249
1.0000248
1.0000248
1.0000248
1.0000248
1.0000248
1.0000247
1.0000246
1.0000243
1.0000236
1.0000223
1.0000199
1.0000173
1.0000224
1.0000225
1.0000225
1.0000225
1.0000225
1.0000225
1.0000226
1.0000226
1.0000226
1.0000226
1.0000227
1.0000227
1.0000227
1.0000227
1.0000228
1.0000228
1.0000228
1.0000228
1.0000228
1.0000229
1.0000229
1.0000229
1.0000229
1.0000229
1.0000228
1.0000228
1.0000228
1.0000228
1.0000228
1.0000228
1.0000228
1.0000228
1.0000228
1.0000228
1.0000229
1.0000229
1.0000229
1.0000229
1.0000229
1.0000229
1.0000229
1.0000229
1.0000228
1.0000228
1.0000228
1.0000228
1.0000228
1.0000227
1.0000227
1.0000227
1.0000227
1.0000227
1.0000227
1.0000226
1.0000223
1.0000217
1.0000205
1.0000183
1.0000159
1.0000205
1.0000206
1.0000206
1.0000206
1.0000206
1.0000206
1.0000207
1.0000207
1.0000207
1.0000207
1.0000207
1.0000208
1.0000208
1.0000208
1.0000208
1.0000209
1.0000209
1.0000209
1.0000209
1.0000209
1.0000209
1.0000209
1.0000209
1.0000209
1.0000209
1.0000209
1.0000209
1.0000209
1.0000209
1.0000209
1.0000209
1.0000209
1.0000209
1.0000209
1.0000209
1.0000209
1.0000209
1.0000209
1.0000209
1.0000209
1.0000209
1.0000209
1.0000209
1.0000209
1.0000209
1.0000209
1.0000208
1.0000208
1.0000208
1.0000208
1.0000208
1.0000208
1.0000207
1.0000207
1.0000205
1.00002
1.0000189
1.0000169
1.0000146
1.0000188
1.0000188
1.0000188
1.0000189
1.0000189
1.0000189
1.0000189
1.0000189
1.000019
1.000019
1.000019
1.000019
1.0000191
1.0000191
1.0000191
1.0000191
1.0000191
1.0000191
1.0000192
1.0000192
1.0000192
1.0000192
1.0000192
1.0000192
1.0000192
1.0000191
1.0000191
1.0000191
1.0000191
1.0000191
1.0000191
1.0000191
1.0000191
1.0000191
1.0000192
1.0000192
1.0000192
1.0000192
1.0000192
1.0000192
1.0000192
1.0000192
1.0000191
1.0000191
1.0000191
1.0000191
1.0000191
1.000019
1.000019
1.000019
1.000019
1.000019
1.000019
1.000019
1.0000188
1.0000184
1.0000175
1.0000157
1.0000134
1.0000172
1.0000173
1.0000173
1.0000173
1.0000173
1.0000173
1.0000173
1.0000174
1.0000174
1.0000174
1.0000174
1.0000175
1.0000175
1.0000175
1.0000175
1.0000175
1.0000175
1.0000175
1.0000176
1.0000176
1.0000176
1.0000176
1.0000176
1.0000176
1.0000176
1.0000175
1.0000175
1.0000175
1.0000175
1.0000175
1.0000175
1.0000175
1.0000175
1.0000175
1.0000176
1.0000176
1.0000176
1.0000176
1.0000176
1.0000176
1.0000176
1.0000176
1.0000175
1.0000175
1.0000175
1.0000175
1.0000175
1.0000175
1.0000174
1.0000174
1.0000174
1.0000174
1.0000174
1.0000174
1.0000173
1.000017
1.0000162
1.0000146
1.0000124
1.0000159
1.0000159
1.0000159
1.0000159
1.0000159
1.0000159
1.0000159
1.000016
1.000016
1.000016
1.000016
1.000016
1.0000161
1.0000161
1.0000161
1.0000161
1.0000161
1.0000161
1.0000161
1.0000161
1.0000161
1.0000161
1.0000161
1.0000161
1.0000161
1.0000161
1.0000161
1.0000161
1.0000161
1.0000161
1.0000161
1.0000161
1.0000161
1.0000161
1.0000161
1.0000161
1.0000161
1.0000161
1.0000161
1.0000161
1.0000161
1.0000161
1.0000161
1.0000161
1.0000161
1.0000161
1.0000161
1.0000161
1.000016
1.000016
1.000016
1.000016
1.000016
1.000016
1.0000159
1.0000157
1.000015
1.0000136
1.0000115
1.0000373
1.0000411
1.0000452
1.0000498
1.0000548
1.0000601
1.0000659
1.0000721
1.0000788
1.000086
1.0000936
1.0001018
1.0001105
1.0001198
1.0001296
1.0001399
1.0001507
1.0001619
1.0001735
1.0001854
1.0001974
1.0002095
1.0002214
1.0002331
1.0002442
1.0002546
1.000264
1.0002723
1.0002793
1.0002848
1.0002887
1.0002909
1.0002915
1.0002905
1.0002879
1.0002839
1.0002787
1.0002726
1.0002657
1.0002578
1.0002493
1.0002405
1.0002314
1.0002221
1.000213
1.000204
1.0001952
1.0001864
1.0001779
1.0001696
1.0001617
1.0001541
1.0001468
1.0001399
1.0001333
1.0001271
1.0001212
1.0001158
1.0001107
1.0001059
1.0001014
1.0000973
1.0000934
1.0000898
1.0000865
1.0000834
1.0000805
1.0000778
1.0000753
1.000073
1.0000708
1.0000688
1.000067
1.0000652
1.000043
1.0000472
1.0000518
1.0000568
1.0000622
1.0000681
1.0000745
1.0000813
1.0000887
1.0000967
1.0001052
1.0001142
1.0001239
1.0001341
1.0001448
1.0001561
1.0001679
1.00018
1.0001926
1.0002053
1.0002181
1.0002308
1.0002433
1.0002553
1.0002667
1.000277
1.0002862
1.000294
1.0003001
1.0003045
1.0003069
1.0003073
1.0003058
1.0003024
1.0002973
1.0002906
1.0002826
1.0002734
1.0002633
1.0002526
1.0002413
1.0002296
1.0002177
1.0002059
1.0001941
1.0001825
1.0001711
1.0001602
1.0001496
1.0001394
1.0001297
1.0001204
1.0001114
1.000103
1.0000953
1.0000881
1.0000813
1.000075
1.000069
1.0000634
1.0000582
1.0000534
1.0000488
1.0000446
1.0000407
1.0000371
1.0000337
1.0000306
1.0000278
1.0000251
1.0000227
1.0000205
1.0000184
1.0000166
1.0000475
1.0000521
1.0000572
1.0000627
1.0000686
1.0000751
1.0000821
1.0000897
1.0000979
1.0001067
1.0001161
1.0001262
1.0001369
1.0001482
1.0001601
1.0001726
1.0001857
1.0001991
1.000213
1.000227
1.0002411
1.0002551
1.0002688
1.0002819
1.0002942
1.0003053
1.0003151
1.0003232
1.0003295
1.0003336
1.0003355
1.0003351
1.0003324
1.0003275
1.0003206
1.0003118
1.0003013
1.0002895
1.0002766
1.0002629
1.0002485
1.0002337
1.0002188
1.0002039
1.0001891
1.0001745
1.0001604
1.0001466
1.0001334
1.0001207
1.0001087
1.0000972
1.0000862
1.0000759
1.0000661
1.0000569
1.0000484
1.0000404
1.000033
1.0000261
1.0000196
1.0000136
1.000008
1.0000028
0.99999803
0.99999361
0.99998953
0.99998579
0.99998237
0.99997924
0.99997638
0.99997379
0.99997143
0.99996931
1.0000503
1.0000553
1.0000607
1.0000666
1.000073
1.00008
1.0000876
1.0000958
1.0001046
1.0001141
1.0001243
1.0001352
1.0001468
1.0001591
1.0001721
1.0001858
1.0002
1.0002148
1.00023
1.0002454
1.0002609
1.0002764
1.0002914
1.0003059
1.0003195
1.000332
1.0003429
1.0003521
1.0003592
1.0003641
1.0003665
1.0003664
1.0003638
1.0003587
1.0003513
1.0003418
1.0003305
1.0003175
1.0003032
1.0002879
1.0002718
1.0002553
1.0002384
1.0002215
1.0002047
1.0001881
1.0001718
1.000156
1.0001408
1.0001262
1.0001122
1.0000989
1.0000863
1.0000743
1.000063
1.0000524
1.0000424
1.0000331
1.0000243
1.0000162
1.0000086
1.0000016
0.99999506
0.99998897
0.99998333
0.99997814
0.99997336
0.99996899
0.99996498
0.99996133
0.99995801
0.99995501
0.99995228
0.99994986
1.000052
1.0000572
1.0000629
1.0000691
1.0000759
1.0000833
1.0000912
1.0000999
1.0001092
1.0001193
1.0001301
1.0001416
1.000154
1.0001671
1.0001809
1.0001955
1.0002108
1.0002266
1.0002429
1.0002596
1.0002764
1.0002931
1.0003096
1.0003255
1.0003405
1.0003543
1.0003666
1.0003771
1.0003855
1.0003915
1.000395
1.0003958
1.000394
1.0003896
1.0003828
1.0003737
1.0003625
1.0003497
1.0003353
1.0003198
1.0003034
1.0002863
1.0002689
1.0002514
1.0002338
1.0002164
1.0001994
1.0001827
1.0001666
1.0001511
1.0001363
1.0001221
1.0001086
1.0000958
1.0000837
1.0000723
1.0000616
1.0000516
1.0000422
1.0000334
1.0000252
1.0000176
1.0000105
1.000004
0.99999792
0.99999233
0.99998717
0.99998243
0.99997808
0.9999741
0.99997046
0.99996715
0.99996413
0.99996141
1.000053
1.0000584
1.0000643
1.0000707
1.0000778
1.0000854
1.0000937
1.0001026
1.0001123
1.0001228
1.000134
1.0001461
1.000159
1.0001727
1.0001872
1.0002025
1.0002186
1.0002353
1.0002525
1.0002701
1.000288
1.0003059
1.0003235
1.0003406
1.0003568
1.0003719
1.0003855
1.0003973
1.000407
1.0004142
1.0004189
1.000421
1.0004203
1.0004169
1.000411
1.0004028
1.0003924
1.0003802
1.0003665
1.0003515
1.0003355
1.0003189
1.0003017
1.0002844
1.000267
1.0002497
1.0002327
1.0002161
1.0002
1.0001844
1.0001695
1.0001552
1.0001416
1.0001287
1.0001165
1.0001049
1.0000941
1.0000839
1.0000743
1.0000654
1.0000571
1.0000493
1.0000421
1.0000354
1.0000292
1.0000235
1.0000182
1.0000134
1.0000089
1.0000048
1.000001
0.99999759
0.99999445
0.99999161
1.0000536
1.0000591
1.0000652
1.0000718
1.0000789
1.0000868
1.0000953
1.0001045
1.0001144
1.0001252
1.0001368
1.0001492
1.0001625
1.0001767
1.0001917
1.0002075
1.0002242
1.0002416
1.0002595
1.0002779
1.0002966
1.0003153
1.0003339
1.0003519
1.0003692
1.0003854
1.0004001
1.000413
1.0004238
1.0004322
1.000438
1.0004411
1.0004415
1.0004392
1.0004343
1.000427
1.0004176
1.0004063
1.0003933
1.0003791
1.0003638
1.0003478
1.0003313
1.0003145
1.0002976
1.0002808
1.0002642
1.000248
1.0002322
1.000217
1.0002023
1.0001883
1.0001749
1.0001622
1.0001501
1.0001388
1.0001281
1.000118
1.0001086
1.0000997
1.0000915
1.0000838
1.0000766
1.00007
1.0000639
1.0000582
1.0000529
1.0000481
1.0000436
1.0000395
1.0000357
1.0000323
1.0000291
1.0000263
1.0000539
1.0000595
1.0000657
1.0000724
1.0000797
1.0000877
1.0000963
1.0001057
1.0001159
1.0001269
1.0001387
1.0001514
1.000165
1.0001795
1.0001949
1.0002112
1.0002283
1.0002461
1.0002646
1.0002836
1.0003029
1.0003223
1.0003416
1.0003604
1.0003785
1.0003955
1.0004111
1.0004249
1.0004366
1.000446
1.0004527
1.0004568
1.000458
1.0004566
1.0004526
1.0004461
1.0004375
1.0004269
1.0004147
1.0004012
1.0003866
1.0003712
1.0003552
1.000339
1.0003226
1.0003062
1.0002901
1.0002743
1.0002589
1.000244
1.0002296
1.0002159
1.0002028
1.0001903
1.0001785
1.0001673
1.0001568
1.0001469
1.0001376
1.000129
1.0001208
1.0001133
1.0001062
1.0000997
1.0000936
1.000088
1.0000828
1.000078
1.0000736
1.0000696
1.0000659
1.0000625
1.0000593
1.0000565
1.0000541
1.0000597
1.000066
1.0000728
1.0000802
1.0000883
1.0000971
1.0001066
1.0001169
1.0001281
1.0001401
1.000153
1.0001668
1.0001815
1.0001972
1.0002138
1.0002313
1.0002495
1.0002684
1.0002878
1.0003076
1.0003275
1.0003473
1.0003667
1.0003854
1.0004031
1.0004194
1.0004339
1.0004463
1.0004563
1.0004638
1.0004686
1.0004706
1.0004698
1.0004665
1.0004607
1.0004527
1.0004427
1.000431
1.000418
1.0004039
1.0003889
1.0003734
1.0003576
1.0003415
1.0003255
1.0003097
1.0002942
1.000279
1.0002644
1.0002503
1.0002367
1.0002238
1.0002115
1.0001998
1.0001888
1.0001784
1.0001686
1.0001595
1.0001509
1.0001429
1.0001354
1.0001284
1.000122
1.000116
1.0001104
1.0001053
1.0001006
1.0000963
1.0000923
1.0000886
1.0000853
1.0000822
1.0000794
1.0000541
1.0000599
1.0000662
1.000073
1.0000805
1.0000887
1.0000976
1.0001072
1.0001176
1.0001289
1.000141
1.0001541
1.0001681
1.000183
1.0001989
1.0002158
1.0002334
1.0002519
1.0002711
1.0002909
1.000311
1.0003313
1.0003516
1.0003714
1.0003906
1.0004087
1.0004255
1.0004405
1.0004535
1.0004641
1.0004721
1.0004774
1.00048
1.0004797
1.0004769
1.0004715
1.0004639
1.0004544
1.0004431
1.0004304
1.0004166
1.000402
1.0003867
1.0003711
1.0003553
1.0003395
1.0003238
1.0003085
1.0002935
1.000279
1.000265
1.0002515
1.0002387
1.0002265
1.0002149
1.0002039
1.0001936
1.0001839
1.0001748
1.0001663
1.0001583
1.0001509
1.000144
1.0001376
1.0001316
1.0001262
1.0001211
1.0001164
1.0001121
1.0001082
1.0001046
1.0001013
1.0000983
1.0000956
1.0000542
1.0000599
1.0000663
1.0000732
1.0000807
1.0000889
1.0000979
1.0001076
1.0001181
1.0001295
1.0001417
1.0001549
1.000169
1.0001841
1.0002002
1.0002172
1.0002351
1.0002538
1.0002732
1.0002932
1.0003136
1.0003342
1.0003547
1.0003749
1.0003944
1.0004129
1.0004301
1.0004455
1.0004588
1.0004699
1.0004783
1.000484
1.0004869
1.000487
1.0004845
1.0004795
1.0004722
1.0004629
1.0004519
1.0004395
1.0004258
1.0004114
1.0003962
1.0003807
1.0003651
1.0003494
1.0003338
1.0003185
1.0003036
1.0002891
1.0002751
1.0002617
1.0002489
1.0002368
1.0002252
1.0002143
1.000204
1.0001943
1.0001853
1.0001768
1.0001688
1.0001615
1.0001546
1.0001482
1.0001423
1.0001369
1.0001318
1.0001272
1.000123
1.0001191
1.0001155
1.0001122
1.0001093
1.0001066
1.0000542
1.00006
1.0000663
1.0000733
1.0000808
1.0000891
1.0000981
1.0001079
1.0001184
1.0001299
1.0001422
1.0001555
1.0001697
1.0001849
1.0002011
1.0002182
1.0002363
1.0002551
1.0002747
1.0002949
1.0003155
1.0003363
1.000357
1.0003775
1.0003972
1.000416
1.0004334
1.0004492
1.0004628
1.0004741
1.0004828
1.0004889
1.000492
1.0004925
1.0004902
1.0004854
1.0004783
1.0004692
1.0004583
1.000446
1.0004325
1.0004181
1.000403
1.0003876
1.0003719
1.0003563
1.0003407
1.0003255
1.0003106
1.0002961
1.0002822
1.0002688
1.000256
1.0002438
1.0002323
1.0002214
1.0002111
1.0002015
1.0001924
1.000184
1.0001761
1.0001687
1.0001619
1.0001555
1.0001497
1.0001443
1.0001393
1.0001347
1.0001304
1.0001266
1.0001231
1.0001198
1.0001169
1.0001143
1.0000542
1.00006
1.0000663
1.0000733
1.0000809
1.0000892
1.0000982
1.000108
1.0001187
1.0001302
1.0001426
1.0001559
1.0001702
1.0001855
1.0002018
1.000219
1.0002371
1.0002561
1.0002758
1.0002961
1.0003169
1.0003378
1.0003588
1.0003794
1.0003993
1.0004183
1.0004359
1.0004519
1.0004658
1.0004773
1.0004862
1.0004925
1.0004959
1.0004965
1.0004944
1.0004897
1.0004828
1.0004738
1.000463
1.0004507
1.0004373
1.0004229
1.0004079
1.0003925
1.0003769
1.0003612
1.0003457
1.0003304
1.0003155
1.0003011
1.0002871
1.0002738
1.000261
1.0002488
1.0002373
1.0002264
1.0002161
1.0002065
1.0001975
1.000189
1.0001811
1.0001738
1.000167
1.0001607
1.0001549
1.0001495
1.0001445
1.0001399
1.0001358
1.0001319
1.0001284
1.0001253
1.0001223
1.0001198
1.0000543
1.00006
1.0000664
1.0000733
1.0000809
1.0000893
1.0000983
1.0001082
1.0001188
1.0001304
1.0001428
1.0001562
1.0001706
1.0001859
1.0002022
1.0002195
1.0002378
1.0002568
1.0002766
1.000297
1.0003179
1.000339
1.00036
1.0003807
1.0004008
1.00042
1.0004378
1.0004539
1.0004679
1.0004797
1.0004888
1.0004952
1.0004987
1.0004995
1.0004975
1.000493
1.0004862
1.0004773
1.0004665
1.0004543
1.0004409
1.0004266
1.0004116
1.0003962
1.0003806
1.0003649
1.0003494
1.0003341
1.0003192
1.0003048
1.0002908
1.0002774
1.0002647
1.0002525
1.000241
1.0002301
1.0002199
1.0002102
1.0002012
1.0001928
1.0001849
1.0001776
1.0001708
1.0001645
1.0001587
1.0001534
1.0001484
1.0001439
1.0001398
1.000136
1.0001325
1.0001293
1.0001265
1.0001239
1.0000543
1.00006
1.0000664
1.0000734
1.000081
1.0000893
1.0000984
1.0001082
1.0001189
1.0001305
1.0001429
1.0001564
1.0001708
1.0001862
1.0002026
1.0002199
1.0002382
1.0002573
1.0002772
1.0002977
1.0003186
1.0003397
1.0003609
1.0003817
1.0004019
1.0004212
1.0004391
1.0004553
1.0004695
1.0004814
1.0004907
1.0004972
1.000501
1.0005018
1.0005
1.0004956
1.0004889
1.00048
1.0004694
1.0004572
1.0004438
1.0004295
1.0004145
1.0003991
1.0003835
1.0003679
1.0003523
1.0003371
1.0003222
1.0003077
1.0002938
1.0002804
1.0002676
1.0002555
1.000244
1.0002331
1.0002228
1.0002132
1.0002042
1.0001958
1.000188
1.0001807
1.0001739
1.0001677
1.0001619
1.0001565
1.0001516
1.0001471
1.000143
1.0001392
1.0001358
1.0001326
1.0001298
1.0001272
1.0000543
1.0000601
1.0000664
1.0000734
1.000081
1.0000893
1.0000984
1.0001083
1.000119
1.0001305
1.000143
1.0001565
1.0001709
1.0001863
1.0002027
1.0002201
1.0002384
1.0002576
1.0002775
1.0002981
1.0003191
1.0003403
1.0003615
1.0003824
1.0004027
1.000422
1.0004401
1.0004564
1.0004707
1.0004828
1.0004922
1.0004989
1.0005027
1.0005038
1.0005021
1.0004978
1.0004911
1.0004824
1.0004718
1.0004597
1.0004463
1.0004321
1.0004171
1.0004017
1.0003861
1.0003705
1.000355
1.0003397
1.0003248
1.0003103
1.0002964
1.000283
1.0002703
1.0002581
1.0002466
1.0002357
1.0002255
1.0002159
1.0002069
1.0001985
1.0001907
1.0001834
1.0001767
1.0001704
1.0001647
1.0001594
1.0001545
1.00015
1.0001459
1.0001421
1.0001387
1.0001356
1.0001328
1.0001302
1.0000543
1.0000601
1.0000664
1.0000734
1.000081
1.0000893
1.0000984
1.0001083
1.000119
1.0001306
1.0001431
1.0001565
1.000171
1.0001864
1.0002028
1.0002203
1.0002386
1.0002578
1.0002777
1.0002983
1.0003193
1.0003406
1.0003618
1.0003828
1.0004031
1.0004226
1.0004407
1.0004572
1.0004716
1.0004838
1.0004934
1.0005002
1.0005043
1.0005055
1.0005039
1.0004998
1.0004932
1.0004846
1.0004741
1.0004621
1.0004488
1.0004346
1.0004197
1.0004043
1.0003887
1.0003731
1.0003576
1.0003423
1.0003274
1.000313
1.0002991
1.0002857
1.0002729
1.0002608
1.0002493
1.0002384
1.0002282
1.0002186
1.0002096
1.0002012
1.0001934
1.0001862
1.0001794
1.0001732
1.0001675
1.0001622
1.0001573
1.0001528
1.0001487
1.000145
1.0001416
1.0001385
1.0001357
1.0001331
1.0000543
1.0000601
1.0000664
1.0000734
1.000081
1.0000893
1.0000984
1.0001083
1.000119
1.0001306
1.0001431
1.0001565
1.000171
1.0001864
1.0002029
1.0002203
1.0002386
1.0002578
1.0002778
1.0002984
1.0003194
1.0003407
1.000362
1.000383
1.0004034
1.0004229
1.0004411
1.0004577
1.0004723
1.0004846
1.0004944
1.0005015
1.0005057
1.0005071
1.0005057
1.0005017
1.0004954
1.0004869