/*--------------------------------*- C++ -*----------------------------------*\
| =========                 |                                                 |
| \\      /  F ield         | OpenFOAM: The Open Source CFD Toolbox           |
|  \\    /   O peration     | Version:  v2006                                 |
|   \\  /    A nd           | Website:  www.openfoam.com                      |
|    \\/     M anipulation  |                                                 |
\*---------------------------------------------------------------------------*/
FoamFile
{
    version     2.0;
    format      ascii;
    class       volVectorField;
    location    "1000";
    object      U;
}
// * * * * * * * * * * * * * * * * * * * * * * * * * * * * * * * * * * * * * //

dimensions      [0 1 -1 0 0 0 0];


internalField   nonuniform List<vector> 
55713
(
(0.10320598 7.713543e-07 0)
(0.10310336 -3.5373352e-07 0)
(0.10308286 1.0366141e-06 2.5662923e-18)
(0.10308025 8.4153527e-07 -2.5528255e-18)
(0.10308153 1.6248968e-06 2.5708486e-18)
(0.1030828 1.6110442e-06 2.1275203e-27)
(0.10308331 2.1317581e-06 -2.6461887e-18)
(0.10308323 2.2618966e-06 0)
(0.10308294 2.6534349e-06 1.071024e-20)
(0.10308277 2.9294687e-06 0)
(0.10308268 3.2802634e-06 -1.1106299e-20)
(0.10308233 3.6041732e-06 -1.1310296e-20)
(0.10308158 3.8908212e-06 0)
(0.10308072 4.1506131e-06 3.0024175e-18)
(0.10308016 4.4369089e-06 -3.0569452e-18)
(0.10308007 4.7423202e-06 -6.0781883e-21)
(0.10308036 5.0221414e-06 3.1738156e-18)
(0.10308086 5.2635478e-06 -3.2236762e-18)
(0.10308142 5.4910456e-06 6.4065204e-21)
(0.10308198 5.7245257e-06 -3.336995e-18)
(0.10308249 5.9550019e-06 3.3875731e-18)
(0.10308295 6.1779558e-06 0)
(0.10308337 6.3964866e-06 0)
(0.10308373 6.6106299e-06 -1.7907693e-18)
(0.10308403 6.8094475e-06 1.8129197e-18)
(0.10308427 7.0192146e-06 0)
(0.10308446 7.2134351e-06 0)
(0.10308461 7.4065797e-06 0)
(0.10308471 7.6038685e-06 2.4117606e-19)
(0.10308475 7.8019957e-06 -1.5500632e-28)
(0.10308468 8.0214506e-06 -2.4428837e-19)
(0.1030845 8.2460574e-06 0)
(0.10308418 8.4858417e-06 0)
(0.10308373 8.7206799e-06 0)
(0.10308319 8.9358739e-06 0)
(0.10308269 9.1481921e-06 1.8068236e-18)
(0.10308243 9.3678853e-06 -1.7704303e-18)
(0.10308256 9.591971e-06 -3.4960523e-18)
(0.10308301 9.8211675e-06 1.5172309e-27)
(0.10308351 1.0060298e-05 3.3728785e-18)
(0.10308373 1.0305186e-05 0)
(0.10308354 1.0548596e-05 6.375533e-21)
(0.1030831 1.0784246e-05 -3.2072779e-18)
(0.10308269 1.1022088e-05 3.1507255e-18)
(0.10308254 1.1273586e-05 3.0946677e-18)
(0.10308265 1.1526202e-05 -3.0451043e-18)
(0.10308291 1.1796212e-05 0)
(0.10308319 1.2072292e-05 0)
(0.1030834 1.235754e-05 -2.8657936e-18)
(0.10308345 1.2653886e-05 2.8249292e-18)
(0.10308337 1.2969744e-05 0)
(0.10308324 1.3269705e-05 0)
(0.10308313 1.3631127e-05 0)
(0.10308302 1.3929321e-05 0)
(0.10308288 1.4368869e-05 2.5918173e-18)
(0.10308287 1.4656392e-05 -4.5045759e-27)
(0.10308326 1.5154862e-05 -3.7841734e-18)
(0.10308371 1.558537e-05 1.2295935e-18)
(0.10308367 1.5753611e-05 -1.9270657e-20)
(0.1032144 1.2519876e-06 0)
(0.10312186 -2.717122e-07 2.4229805e-18)
(0.10310582 1.2038884e-06 -2.5055125e-18)
(0.1031044 7.9860508e-07 3.9167696e-20)
(0.10310591 1.4927479e-06 -2.5377962e-18)
(0.10310704 1.4814191e-06 5.1422882e-18)
(0.10310738 2.0207213e-06 7.0720703e-27)
(0.10310717 2.0580622e-06 -2.6837448e-18)
(0.10310686 2.413664e-06 -1.0692591e-20)
(0.10310678 2.5870376e-06 2.1808032e-20)
(0.10310678 2.8133652e-06 -2.8349743e-18)
(0.10310639 3.0567078e-06 2.9126293e-18)
(0.10310552 3.2927597e-06 2.956993e-18)
(0.10310459 3.5565432e-06 5.5547057e-27)
(0.10310407 3.8811994e-06 5.8317709e-27)
(0.10310404 4.2159216e-06 -3.1203248e-18)
(0.10310437 4.5253149e-06 -6.2178928e-21)
(0.10310488 4.7822826e-06 0)
(0.10310545 5.005464e-06 3.2922461e-18)
(0.103106 5.1926903e-06 -6.7133646e-18)
(0.10310651 5.3883073e-06 3.4216209e-18)
(0.10310696 5.5794033e-06 1.3568285e-20)
(0.10310735 5.7409737e-06 0)
(0.10310768 5.8721235e-06 7.0141901e-21)
(0.10310796 5.9785087e-06 0)
(0.10310817 6.1202119e-06 9.1293822e-19)
(0.10310834 6.251769e-06 -1.8845167e-18)
(0.10310846 6.4030508e-06 9.421139e-19)
(0.10310855 6.5615926e-06 2.429558e-19)
(0.10310858 6.7520524e-06 -2.6157257e-19)
(0.10310851 7.0030433e-06 0)
(0.10310834 7.2810156e-06 9.5278369e-19)
(0.10310804 7.5382944e-06 -1.9058635e-18)
(0.10310762 7.7475933e-06 9.3793057e-19)
(0.10310708 7.9701156e-06 0)
(0.10310655 8.1983589e-06 1.8159059e-18)
(0.10310624 8.408823e-06 -1.7929998e-18)
(0.10310633 8.600011e-06 1.3720563e-20)
(0.10310678 8.7692857e-06 0)
(0.10310732 8.9317828e-06 6.628894e-21)
(0.10310758 9.099515e-06 3.3351373e-18)
(0.10310738 9.2825403e-06 -6.5595246e-18)
(0.10310687 9.4884184e-06 1.5037211e-27)
(0.10310638 9.7004726e-06 3.1602632e-18)
(0.10310617 9.8999576e-06 -3.1025528e-18)
(0.1031063 1.0087333e-05 6.0962708e-18)
(0.1031066 1.0327178e-05 -5.9762661e-18)
(0.1031069 1.0567074e-05 2.931519e-18)
(0.1031071 1.0829863e-05 -1.1232006e-20)
(0.10310714 1.1110819e-05 0)
(0.10310703 1.141188e-05 0)
(0.10310684 1.1663704e-05 0)
(0.1031067 1.203106e-05 -2.6790151e-18)
(0.10310657 1.2248544e-05 2.6271592e-18)
(0.10310637 1.2724488e-05 0)
(0.10310624 1.2901384e-05 3.9213106e-20)
(0.10310658 1.3447516e-05 0)
(0.10310706 1.3664363e-05 1.8938936e-20)
(0.10310698 1.417318e-05 1.8552096e-20)
(0.10322179 1.4332852e-06 0)
(0.10313957 -2.9538413e-07 3.7328964e-20)
(0.10312593 1.1341342e-06 -3.7941985e-20)
(0.10312555 7.3245018e-07 -3.8477804e-20)
(0.10312719 1.3815565e-06 -2.5452085e-18)
(0.10312817 1.4181791e-06 2.5791585e-18)
(0.10312833 1.9490942e-06 0)
(0.10312802 2.1000653e-06 2.0894597e-20)
(0.10312771 2.4264606e-06 -5.4654075e-18)
(0.10312777 2.5570652e-06 5.537986e-18)
(0.10312788 2.712076e-06 0)
(0.10312749 2.8636564e-06 -2.2711308e-20)
(0.10312655 3.083646e-06 0)
(0.10312565 3.3539987e-06 3.000022e-18)
(0.10312522 3.6314546e-06 -6.1641076e-18)
(0.10312529 3.8253985e-06 3.1405437e-18)
(0.10312564 3.9559791e-06 -3.1866411e-18)
(0.10312613 4.0508057e-06 -2.9690238e-27)
(0.10312666 4.2138949e-06 3.3167361e-18)
(0.10312717 4.4639926e-06 -3.3757869e-18)
(0.10312763 4.753772e-06 3.9574854e-28)
(0.10312804 5.0071333e-06 3.4944772e-18)
(0.10312839 5.2092953e-06 0)
(0.10312869 5.3693474e-06 1.7928725e-18)
(0.10312894 5.4972278e-06 2.1546867e-27)
(0.10312912 5.6041314e-06 -1.8378956e-18)
(0.10312927 5.669271e-06 -1.482159e-20)
(0.10312938 5.750141e-06 4.9686634e-19)
(0.10312945 5.8247748e-06 -4.8930582e-19)
(0.10312947 5.9246898e-06 2.4775252e-19)
(0.1031294 6.0424664e-06 -2.470771e-19)
(0.10312924 6.1630224e-06 3.0411389e-20)
(0.10312898 6.3440149e-06 0)
(0.10312858 6.607241e-06 1.4730606e-20)
(0.10312806 6.9236829e-06 -1.4493077e-20)
(0.10312752 7.1812509e-06 -1.425595e-20)
(0.10312716 7.3550895e-06 -1.4019396e-20)
(0.10312719 7.5152195e-06 -1.3783532e-20)
(0.10312762 7.6645373e-06 3.4548235e-18)
(0.10312819 7.786361e-06 -3.4083481e-18)
(0.1031285 7.8492208e-06 0)
(0.10312831 7.9152462e-06 3.2888367e-18)
(0.10312776 8.040068e-06 -3.2166998e-18)
(0.10312717 8.2078354e-06 3.1946753e-18)
(0.10312693 8.4014386e-06 -3.1105984e-18)
(0.1031271 8.6186088e-06 -3.0275203e-18)
(0.10312746 8.9025791e-06 -6.054696e-27)
(0.10312778 9.1537316e-06 2.9101716e-18)
(0.10312794 9.4723689e-06 2.2453531e-20)
(0.10312794 9.741501e-06 0)
(0.10312779 1.0013801e-05 0)
(0.10312755 1.0236571e-05 0)
(0.10312737 1.0620792e-05 2.0618992e-20)
(0.10312725 1.0703197e-05 -2.0164986e-20)
(0.10312702 1.1193478e-05 0)
(0.10312678 1.1201407e-05 2.4662555e-18)
(0.10312707 1.1761163e-05 -2.4097511e-18)
(0.10312759 1.1849422e-05 0)
(0.10312748 1.2452973e-05 0)
(0.10322783 1.4622532e-06 6.8444082e-20)
(0.10315395 -2.7823402e-07 -7.2503384e-20)
(0.10314353 1.0299848e-06 -2.3356696e-18)
(0.10314399 6.8145842e-07 2.4200637e-18)
(0.10314566 1.2575123e-06 3.8676989e-20)
(0.10314644 1.3256766e-06 0)
(0.10314645 1.7641308e-06 -2.6015658e-18)
(0.10314602 1.9139919e-06 7.9748593e-18)
(0.10314574 2.2282144e-06 -1.0912048e-17)
(0.10314596 2.4385796e-06 5.6019022e-18)
(0.10314622 2.6760465e-06 -2.85155e-18)
(0.10314585 2.8752078e-06 2.275515e-20)
(0.10314494 3.0642759e-06 5.9468768e-18)
(0.10314417 3.2160278e-06 -3.0102346e-18)
(0.10314391 3.3035134e-06 0)
(0.10314407 3.3560135e-06 0)
(0.10314442 3.4295288e-06 -1.2555823e-20)
(0.10314484 3.4933264e-06 0)
(0.10314528 3.5796301e-06 0)
(0.10314569 3.7030521e-06 2.6517149e-20)
(0.10314607 3.8612365e-06 -1.3493416e-20)
(0.1031464 4.0697962e-06 -2.7457641e-20)
(0.1031467 4.3190882e-06 -1.7875014e-18)
(0.10314696 4.5745891e-06 1.8320026e-18)
(0.10314717 4.8182555e-06 1.4438922e-20)
(0.10314734 5.03844e-06 -1.4676842e-20)
(0.10314747 5.2215263e-06 9.694775e-19)
(0.10314757 5.3542528e-06 -9.6980624e-19)
(0.10314763 5.4435471e-06 1.5390884e-20)
(0.10314765 5.4886312e-06 -2.3366145e-19)
(0.10314759 5.4891297e-06 -2.483887e-19)
(0.10314744 5.4991297e-06 4.7381223e-19)
(0.1031472 5.5276314e-06 0)
(0.10314683 5.6122071e-06 -1.9095868e-18)
(0.10314634 5.745679e-06 1.4562608e-20)
(0.10314579 5.9318285e-06 3.6952514e-18)
(0.10314538 6.1320394e-06 -1.7885858e-18)
(0.10314533 6.2851655e-06 0)
(0.10314573 6.3982058e-06 1.3606483e-20)
(0.10314631 6.4869501e-06 0)
(0.10314667 6.6258563e-06 0)
(0.10314653 6.8070433e-06 2.578885e-20)
(0.10314594 7.0031736e-06 -1.2657417e-20)
(0.10314528 7.2012046e-06 -3.2044026e-18)
(0.10314499 7.4339263e-06 3.1187085e-18)
(0.10314522 7.6885384e-06 -4.0116746e-26)
(0.10314571 7.9824921e-06 2.3409391e-20)
(0.10314605 8.2243523e-06 3.8540588e-26)
(0.10314616 8.4837391e-06 -2.2444945e-20)
(0.1031461 8.6427236e-06 -5.5993457e-18)
(0.10314589 8.9026817e-06 5.4957681e-18)
(0.10314561 8.9830078e-06 4.1946663e-20)
(0.10314539 9.3031021e-06 -2.661636e-18)
(0.10314528 9.3341879e-06 5.1121846e-18)
(0.10314507 9.7293621e-06 -5.0202964e-18)
(0.1031447 9.7521504e-06 2.4243168e-18)
(0.10314492 1.0244275e-05 -7.3647439e-20)
(0.10314551 1.029473e-05 0)
(0.10314537 1.1019016e-05 0)
(0.1032327 1.3490048e-06 -6.6147648e-20)
(0.10316722 -1.9281295e-07 7.045072e-20)
(0.10315892 9.0540489e-07 -2.3194232e-18)
(0.10316004 6.3894577e-07 2.3048223e-18)
(0.10316168 1.1026563e-06 -2.4455393e-18)
(0.10316226 1.1655489e-06 2.5555727e-18)
(0.10316213 1.4738235e-06 2.546432e-18)
(0.1031616 1.5719995e-06 -2.6558658e-18)
(0.10316134 1.8188646e-06 5.4038663e-18)
(0.10316173 1.997983e-06 -1.1113159e-17)
(0.10316213 2.2007026e-06 5.7081566e-18)
(0.10316179 2.3716114e-06 -2.279763e-20)
(0.103161 2.5231427e-06 -2.9813642e-18)
(0.1031605 2.635402e-06 6.0879506e-18)
(0.1031605 2.7172676e-06 -3.1060408e-18)
(0.10316074 2.8049662e-06 -3.1676708e-18)
(0.10316103 2.9548834e-06 2.5226333e-20)
(0.10316133 3.1211389e-06 3.2643418e-18)
(0.10316164 3.2380552e-06 -2.6179481e-20)
(0.10316192 3.3170838e-06 -5.3310118e-20)
(0.10316217 3.3803167e-06 1.3565371e-20)
(0.1031624 3.4681431e-06 1.3803497e-20)
(0.10316263 3.5792566e-06 0)
(0.10316285 3.7184103e-06 -1.828006e-18)
(0.10316303 3.8888215e-06 -1.4521165e-20)
(0.10316318 4.0864221e-06 1.904248e-18)
(0.1031633 4.3059132e-06 0)
(0.10316339 4.5236661e-06 0)
(0.10316345 4.7279539e-06 -3.0968776e-20)
(0.10316347 4.8977044e-06 2.349667e-19)
(0.10316341 5.0120861e-06 -2.4962202e-19)
(0.10316328 5.0694227e-06 0)
(0.10316307 5.0693729e-06 0)
(0.10316274 5.0407897e-06 -1.9035296e-18)
(0.10316227 5.0458346e-06 3.7448719e-18)
(0.10316172 5.0995411e-06 -1.8558033e-18)
(0.10316125 5.195985e-06 -1.7821893e-18)
(0.10316113 5.3133694e-06 1.7796104e-18)
(0.10316146 5.4585441e-06 0)
(0.10316205 5.6261237e-06 0)
(0.10316248 5.8714206e-06 -3.4008348e-18)
(0.1031624 6.1124473e-06 3.286979e-18)
(0.10316182 6.3467398e-06 2.5399295e-20)
(0.10316109 6.5293227e-06 -3.1891288e-18)
(0.10316072 6.7000357e-06 6.2291821e-18)
(0.10316102 6.8259591e-06 -3.0879706e-18)
(0.10316167 6.9629938e-06 -3.0241594e-18)
(0.10316208 7.046747e-06 5.8735042e-18)
(0.10316213 7.2142699e-06 -2.8720198e-18)
(0.10316196 7.2843273e-06 -6.5774824e-20)
(0.10316168 7.5117143e-06 0)
(0.10316136 7.602771e-06 -4.1747513e-20)
(0.10316108 7.8899509e-06 2.6025615e-18)
(0.10316098 8.0014898e-06 -5.0633072e-18)
(0.10316083 8.3489172e-06 2.5356686e-18)
(0.10316034 8.4545949e-06 3.7245531e-20)
(0.10316047 8.8956301e-06 1.4411236e-19)
(0.10316114 8.929841e-06 6.9511912e-20)
(0.10316099 9.6670592e-06 6.661461e-20)
(0.10323646 1.1170834e-06 -1.0236669e-18)
(0.10317817 -1.0801454e-07 -1.0959024e-18)
(0.10317233 7.2883113e-07 2.3392358e-18)
(0.10317396 5.8712761e-07 -2.266854e-18)
(0.10317549 9.1451054e-07 -7.1425507e-27)
(0.10317585 9.7247151e-07 2.4563044e-18)
(0.10317561 1.1927862e-06 4.0190445e-20)
(0.10317496 1.2641412e-06 5.2929144e-18)
(0.10317474 1.4404437e-06 4.2473958e-20)
(0.1031753 1.5558535e-06 -5.6200289e-18)
(0.10317578 1.7057379e-06 5.6683719e-18)
(0.10317539 1.8308388e-06 -5.8239771e-18)
(0.10317483 1.9503335e-06 -2.9891172e-18)
(0.10317478 2.0648214e-06 3.0537873e-18)
(0.10317511 2.1963705e-06 2.4356126e-20)
(0.10317541 2.3521222e-06 0)
(0.10317558 2.5550341e-06 -2.5337546e-20)
(0.10317573 2.7561939e-06 3.331128e-18)
(0.10317588 2.9280137e-06 -6.707902e-18)
(0.10317601 3.0637278e-06 2.765244e-26)
(0.10317611 3.1256865e-06 2.7267488e-20)
(0.10317623 3.1535038e-06 3.5517738e-18)
(0.1031764 3.1846283e-06 -1.8066927e-18)
(0.10317657 3.2337154e-06 1.8375664e-18)
(0.10317673 3.301454e-06 1.8685253e-18)
(0.10317686 3.3843265e-06 -1.9144146e-18)
(0.10317696 3.4885544e-06 9.6535116e-19)
(0.10317704 3.6297928e-06 -9.8094058e-19)
(0.1031771 3.8006294e-06 -2.3356178e-19)
(0.10317712 3.9895126e-06 1.5744603e-20)
(0.10317707 4.1833088e-06 2.5075376e-19)
(0.10317696 4.3516317e-06 0)
(0.10317677 4.4914115e-06 -1.5179938e-20)
(0.10317648 4.5802113e-06 0)
(0.10317605 4.6210276e-06 -1.4689269e-20)
(0.1031755 4.6379222e-06 -1.8489575e-18)
(0.10317498 4.6767309e-06 -2.8402732e-20)
(0.10317475 4.7522952e-06 5.3599681e-18)
(0.10317502 4.8782507e-06 -7.0222976e-18)
(0.10317562 4.9976533e-06 -2.6945182e-20)
(0.10317612 5.1622588e-06 6.8263937e-18)
(0.10317614 5.2886305e-06 -3.324313e-18)
(0.10317562 5.4285869e-06 3.2106336e-18)
(0.10317483 5.5123463e-06 -3.223443e-18)
(0.10317434 5.611233e-06 2.44902e-20)
(0.10317462 5.6569189e-06 0)
(0.10317545 5.7841899e-06 0)
(0.10317598 5.8716097e-06 4.5916698e-20)
(0.10317596 6.0493922e-06 5.7422878e-18)
(0.1031757 6.1566479e-06 -5.56067e-18)
(0.10317531 6.3578607e-06 -4.2682656e-20)
(0.10317497 6.4761486e-06 2.6592923e-18)
(0.10317463 6.7110099e-06 -5.1290963e-18)
(0.10317451 6.8461382e-06 -4.565793e-27)
(0.10317446 7.1304937e-06 2.389793e-18)
(0.10317384 7.2711015e-06 -9.2403403e-26)
(0.10317387 7.6394014e-06 -2.256808e-18)
(0.10317463 7.6930355e-06 2.0966527e-18)
(0.10317446 8.3572951e-06 -6.4382967e-20)
(0.10323944 8.4082792e-07 0)
(0.1031882 -3.5089287e-08 6.6627668e-20)
(0.1031842 5.4715979e-07 -7.7358146e-26)
(0.10318616 5.0370906e-07 0)
(0.10318753 7.2104729e-07 -2.4632387e-18)
(0.10318769 8.3182316e-07 2.5132647e-18)
(0.10318738 1.0055517e-06 0)
(0.10318659 1.1023751e-06 4.1202825e-20)
(0.10318645 1.243852e-06 0)
(0.10318716 1.3323172e-06 5.6178731e-18)
(0.10318763 1.4518494e-06 -5.6728982e-18)
(0.10318703 1.5582302e-06 2.9285396e-18)
(0.10318684 1.6712057e-06 7.3218488e-27)
(0.10318742 1.8022595e-06 -3.0633047e-18)
(0.10318816 1.9476941e-06 -3.1532025e-18)
(0.10318842 2.1014132e-06 3.1932192e-18)
(0.1031884 2.2462064e-06 0)
(0.10318839 2.3786826e-06 2.5936616e-20)
(0.10318842 2.508973e-06 -2.6425211e-20)
(0.10318838 2.6519311e-06 3.0172769e-26)
(0.10318833 2.7738404e-06 -2.7395903e-20)
(0.10318836 2.8688097e-06 0)
(0.10318848 2.9360909e-06 0)
(0.10318863 2.9751607e-06 0)
(0.10318876 2.985402e-06 0)
(0.10318888 2.9902595e-06 0)
(0.10318897 3.0048263e-06 -9.5490416e-19)
(0.10318904 3.050894e-06 5.0829445e-19)
(0.10318909 3.1209095e-06 5.0076362e-19)
(0.1031891 3.2166043e-06 2.372519e-19)
(0.10318906 3.345162e-06 -7.5530965e-19)
(0.10318896 3.5065089e-06 5.1106924e-19)
(0.1031888 3.6755082e-06 1.5238687e-20)
(0.10318855 3.8342199e-06 0)
(0.10318815 3.9654178e-06 1.4744512e-20)
(0.10318761 4.0583182e-06 0)
(0.10318703 4.1347033e-06 0)
(0.1031867 4.1596981e-06 3.6143753e-18)
(0.10318688 4.2014131e-06 -7.0200617e-18)
(0.1031875 4.2213525e-06 6.9493742e-18)
(0.10318809 4.3047513e-06 -6.8498155e-18)
(0.10318826 4.3680612e-06 6.6704817e-18)
(0.10318783 4.4742892e-06 -3.2461083e-18)
(0.10318703 4.546953e-06 2.5058389e-20)
(0.10318637 4.6616256e-06 3.1670156e-18)
(0.10318649 4.751542e-06 -3.0764438e-18)
(0.10318744 4.8905346e-06 2.3509441e-20)
(0.10318811 4.9944897e-06 -2.2973222e-20)
(0.10318806 5.1388981e-06 5.7405967e-18)
(0.10318774 5.2453931e-06 -1.1148814e-17)
(0.10318725 5.4045986e-06 5.4901282e-18)
(0.10318691 5.5214804e-06 4.1358267e-20)
(0.10318651 5.7015316e-06 0)
(0.10318632 5.8305558e-06 -2.5229998e-18)
(0.10318644 6.0481238e-06 2.3973472e-18)
(0.1031857 6.1959122e-06 -7.2065681e-20)
(0.10318559 6.4956159e-06 2.1406019e-18)
(0.10318645 6.5795615e-06 -2.0412157e-18)
(0.10318628 7.132277e-06 1.2456328e-19)
(0.10324169 5.0040456e-07 0)
(0.1031964 3.4269465e-08 -2.2047263e-18)
(0.10319452 3.9082298e-07 -6.7882662e-20)
(0.1031966 4.8679425e-07 4.6020175e-18)
(0.10319781 6.445659e-07 7.3782201e-20)
(0.1031978 7.6583271e-07 -4.9848988e-18)
(0.10319743 9.0950003e-07 2.542892e-18)
(0.10319648 1.0286887e-06 5.1727618e-18)
(0.1031965 1.1477303e-06 -5.3742442e-18)
(0.10319735 1.2572255e-06 -3.4979405e-26)
(0.10319766 1.3626412e-06 4.4701517e-20)
(0.10319666 1.4713992e-06 -2.2917687e-20)
(0.10319707 1.5756097e-06 0)
(0.10319842 1.6912829e-06 2.4003759e-20)
(0.10319959 1.7780854e-06 3.164034e-18)
(0.10319959 1.8607841e-06 -3.2052426e-18)
(0.10319935 1.9120239e-06 3.2443608e-18)
(0.10319924 1.9720546e-06 -3.3337095e-18)
(0.10319922 2.0314728e-06 2.1486453e-26)
(0.10319901 2.1290031e-06 -3.4324962e-18)
(0.10319881 2.22273e-06 7.0162808e-18)
(0.10319879 2.3314181e-06 -3.5841246e-18)
(0.1031989 2.4386421e-06 0)
(0.10319904 2.5427448e-06 1.4486933e-20)
(0.10319917 2.6328009e-06 -1.9003134e-18)
(0.10319927 2.7022545e-06 1.9019859e-18)
(0.10319936 2.7201753e-06 -1.5222504e-20)
(0.10319942 2.7046374e-06 4.7956168e-19)
(0.10319947 2.6998827e-06 -5.0296701e-19)
(0.10319948 2.7157515e-06 1.587985e-20)
(0.10319944 2.7583308e-06 5.0529377e-19)
(0.10319936 2.8296119e-06 -5.1280535e-19)
(0.10319922 2.9277739e-06 -1.5289523e-20)
(0.103199 3.044315e-06 0)
(0.10319864 3.1649154e-06 0)
(0.1031981 3.263221e-06 -1.8764613e-18)
(0.10319747 3.3591301e-06 1.8304507e-18)
(0.103197 3.420321e-06 -2.8110137e-20)
(0.10319707 3.4762167e-06 -2.7619478e-20)
(0.1031977 3.5214927e-06 0)
(0.1031984 3.5887146e-06 2.6633827e-20)
(0.10319878 3.6535493e-06 -3.3193221e-18)
(0.10319848 3.7485492e-06 3.2555275e-18)
(0.10319775 3.8269016e-06 -3.2160283e-18)
(0.10319694 3.9314254e-06 3.1252247e-18)
(0.10319672 4.0222153e-06 2.4080651e-20)
(0.10319772 4.1303761e-06 -2.3540982e-20)
(0.10319847 4.2200843e-06 0)
(0.10319841 4.3375214e-06 0)
(0.10319813 4.4356984e-06 -4.3656652e-20)
(0.10319755 4.5637042e-06 0)
(0.10319726 4.6770596e-06 -4.11668e-20)
(0.10319684 4.817884e-06 0)
(0.1031965 4.9513086e-06 2.5379663e-18)
(0.10319683 5.0991687e-06 -2.2936295e-18)
(0.10319601 5.2511876e-06 7.0904309e-20)
(0.10319571 5.4450915e-06 -2.1642099e-18)
(0.10319672 5.5490506e-06 3.0787471e-18)
(0.10319657 5.9774032e-06 -1.0854102e-18)
(0.10324161 2.2233487e-07 1.1630412e-19)
(0.10320185 1.0204689e-07 -2.0205539e-18)
(0.10320219 2.5510362e-07 -2.9956464e-27)
(0.10320409 3.9745698e-07 2.1606296e-18)
(0.10320518 4.7830072e-07 0)
(0.10320509 6.6195716e-07 3.8027733e-20)
(0.10320459 7.2374659e-07 -3.9503994e-20)
(0.1032035 8.6341224e-07 5.2765913e-18)
(0.10320383 9.3015198e-07 -1.0812482e-17)
(0.10320477 1.0500271e-06 -4.3509981e-20)
(0.10320468 1.1182923e-06 5.6809932e-18)
(0.10320316 1.2146892e-06 2.9611495e-18)
(0.1032046 1.2707316e-06 -3.0108886e-18)
(0.1032067 1.3603334e-06 -2.407277e-20)
(0.10320812 1.4063266e-06 -2.4607946e-20)
(0.10320752 1.4765901e-06 0)
(0.10320715 1.500458e-06 2.5642716e-20)
(0.10320703 1.5536325e-06 -2.6146155e-20)
(0.10320704 1.5839408e-06 2.6642873e-20)
(0.10320662 1.6523729e-06 0)
(0.10320633 1.7014523e-06 3.5634114e-18)
(0.10320633 1.7763733e-06 -5.3971467e-18)
(0.10320647 1.8489321e-06 1.8158759e-18)
(0.10320661 1.9467567e-06 1.8468027e-18)
(0.10320673 2.0584423e-06 -1.863048e-18)
(0.10320683 2.1639421e-06 -9.469911e-19)
(0.10320691 2.23861e-06 9.7782281e-19)
(0.10320697 2.290945e-06 0)
(0.10320701 2.3197851e-06 -2.5242003e-19)
(0.10320702 2.346165e-06 2.5491848e-19)
(0.10320699 2.346827e-06 4.9088614e-19)
(0.10320693 2.3624563e-06 -1.5114934e-18)
(0.10320681 2.3865685e-06 9.9652407e-19)
(0.10320662 2.4337832e-06 1.5081412e-20)
(0.10320629 2.5244134e-06 -1.913484e-18)
(0.10320576 2.6216592e-06 1.8816352e-18)
(0.10320504 2.7051178e-06 0)
(0.1032044 2.7700593e-06 -3.6083071e-18)
(0.1032043 2.8329919e-06 3.54544e-18)
(0.10320495 2.8793854e-06 0)
(0.10320573 2.9364637e-06 0)
(0.10320647 2.9975205e-06 -2.6209668e-20)
(0.10320629 3.0556179e-06 2.5702862e-20)
(0.10320568 3.1260343e-06 0)
(0.10320483 3.198768e-06 0)
(0.10320406 3.2801668e-06 -2.4124035e-20)
(0.10320511 3.3354259e-06 0)
(0.10320583 3.4308234e-06 0)
(0.10320573 3.5020763e-06 5.7367511e-18)
(0.10320556 3.6048612e-06 -5.5797164e-18)
(0.103205 3.6861205e-06 0)
(0.10320479 3.7930637e-06 4.0976292e-20)
(0.10320441 3.9107491e-06 -3.9573958e-20)
(0.10320383 4.0205698e-06 -2.4763676e-18)
(0.10320431 4.1486132e-06 2.2654089e-18)
(0.10320358 4.3065343e-06 -6.9774114e-20)
(0.10320295 4.4535634e-06 2.0541005e-18)
(0.10320422 4.5246325e-06 -2.1254204e-18)
(0.10320408 4.8822638e-06 0)
(0.1032404 -4.9807333e-08 -1.1281807e-19)
(0.10320709 2.2756113e-07 2.0299595e-18)
(0.10320938 4.6701856e-08 -2.0837417e-18)
(0.10321048 5.7527755e-07 -6.8631672e-20)
(0.10321157 3.8880131e-07 3.6056596e-20)
(0.1032118 5.6148806e-07 0)
(0.1032107 6.0805759e-07 3.9276439e-20)
(0.10320966 7.0501261e-07 0)
(0.10321065 7.6974673e-07 5.3536618e-18)
(0.10321149 8.6832527e-07 8.1873561e-27)
(0.10321063 9.167712e-07 -5.7517501e-18)
(0.1032088 9.9057828e-07 2.2989902e-20)
(0.10321175 1.024653e-06 0)
(0.1032145 1.1095168e-06 0)
(0.10321573 1.1548749e-06 3.1595914e-18)
(0.10321424 1.2352937e-06 -3.2527334e-18)
(0.10321387 1.2638461e-06 0)
(0.10321383 1.3298474e-06 -1.3119694e-20)
(0.10321387 1.3622068e-06 0)
(0.10321318 1.4247993e-06 0)
(0.10321294 1.4408262e-06 0)
(0.10321304 1.4927629e-06 -1.8050465e-18)
(0.10321322 1.5264341e-06 1.8504112e-18)
(0.10321337 1.5707547e-06 0)
(0.10321347 1.6075968e-06 -1.483051e-20)
(0.10321356 1.6887945e-06 0)
(0.10321362 1.7710064e-06 -1.5322131e-20)
(0.10321367 1.8536021e-06 -5.1383203e-19)
(0.10321372 1.9331394e-06 5.0627086e-19)
(0.10321372 2.000238e-06 -1.5972968e-20)
(0.10321369 2.0333368e-06 5.3958392e-19)
(0.10321363 2.0440126e-06 -1.4991628e-18)
(0.10321352 2.0531628e-06 9.6795756e-19)
(0.10321336 2.0812252e-06 -3.0229133e-20)
(0.10321306 2.1229055e-06 1.8164578e-26)
(0.10321253 2.1798396e-06 0)
(0.10321171 2.2349893e-06 0)
(0.10321081 2.2907426e-06 0)
(0.1032105 2.3485537e-06 1.3885326e-20)
(0.10321115 2.393597e-06 -3.4916402e-18)
(0.10321189 2.4576714e-06 6.8696471e-18)
(0.10321317 2.5111816e-06 5.1662593e-27)
(0.10321317 2.5763564e-06 -6.5971415e-18)
(0.10321267 2.6435699e-06 3.257234e-18)
(0.10321179 2.6991457e-06 0)
(0.10321031 2.7655358e-06 0)
(0.10321155 2.8225278e-06 0)
(0.10321219 2.9093905e-06 5.8918769e-18)
(0.10321202 2.9716107e-06 -5.757911e-18)
(0.1032119 3.0525418e-06 2.1766605e-20)
(0.10321147 3.11971e-06 -4.2197347e-20)
(0.10321139 3.2130739e-06 -4.9940674e-26)
(0.1032111 3.2871042e-06 4.8142306e-26)
(0.10321024 3.4091154e-06 -3.7753254e-20)
(0.10321045 3.4724984e-06 3.6098579e-20)
(0.10321031 3.6054283e-06 0)
(0.10320887 3.6606525e-06 7.9670363e-26)
(0.10321077 3.8493494e-06 6.0963912e-20)
(0.10321066 3.9526974e-06 0)
(0.10324591 -7.0877078e-07 9.3080212e-19)
(0.10321732 8.8543991e-07 -9.5929069e-19)
(0.10322231 -3.2118547e-07 0)
(0.10322057 2.5044042e-07 6.7599629e-20)
(0.10322207 7.8445313e-08 -3.5650327e-20)
(0.10322422 2.5817929e-07 2.4309906e-18)
(0.10322069 2.894279e-07 -2.5381987e-18)
(0.10322046 2.8423172e-07 5.1972679e-18)
(0.1032233 3.7167344e-07 1.4772191e-26)
(0.10322353 4.490201e-07 -5.5632775e-18)
(0.10322129 5.1083303e-07 -5.687831e-18)
(0.10322005 5.648676e-07 5.8708682e-18)
(0.10322414 6.0574287e-07 0)
(0.10322813 6.6192689e-07 0)
(0.10322846 7.3287906e-07 3.1688343e-18)
(0.10322626 7.9204453e-07 -3.199691e-18)
(0.10322575 8.5274325e-07 -1.2907889e-20)
(0.10322609 9.4126028e-07 1.4617207e-26)
(0.1032259 1.0125849e-06 0)
(0.10322517 1.0725354e-06 1.3657182e-20)
(0.10322511 1.139519e-06 -3.5584029e-18)
(0.10322536 1.2254376e-06 3.6060131e-18)
(0.10322561 1.2636711e-06 1.8408744e-18)
(0.10322577 1.3262124e-06 -1.8717072e-18)
(0.10322587 1.4016203e-06 0)
(0.10322595 1.4599304e-06 0)
(0.10322602 1.4966684e-06 -9.5193987e-19)
(0.10322607 1.549196e-06 1.0141242e-18)
(0.10322611 1.6470345e-06 0)
(0.10322612 1.7860072e-06 1.5999802e-20)
(0.1032261 1.8945467e-06 -1.5891577e-20)
(0.10322605 1.9744421e-06 1.5637163e-20)
(0.10322595 2.0091424e-06 9.846645e-19)
(0.10322581 2.0516863e-06 9.8385504e-19)
(0.10322552 2.0827758e-06 1.488945e-20)
(0.10322498 2.13964e-06 -1.889146e-18)
(0.10322399 2.2004999e-06 -1.8289182e-18)
(0.10322281 2.2321998e-06 -1.8122002e-18)
(0.1032224 2.2888934e-06 3.5481433e-18)
(0.10322291 2.2933389e-06 1.3669378e-20)
(0.10322354 2.3700974e-06 -2.6843997e-20)
(0.10322519 2.3801555e-06 1.3170943e-20)
(0.10322582 2.4332821e-06 -1.2915047e-20)
(0.10322539 2.4952215e-06 -2.5306285e-20)
(0.10322367 2.5209051e-06 -1.2383691e-20)
(0.10322212 2.6318185e-06 -2.4210133e-20)
(0.10322345 2.5825897e-06 0)
(0.10322438 2.710788e-06 0)
(0.10322429 2.7230824e-06 -5.7115684e-18)
(0.10322362 2.810782e-06 -4.3474067e-20)
(0.10322359 2.8548377e-06 5.4285338e-18)
(0.10322388 2.900145e-06 -4.0612812e-20)
(0.10322364 3.0715785e-06 3.9059859e-20)
(0.10322272 3.061844e-06 2.431949e-18)
(0.10322089 3.182037e-06 -2.3184742e-18)
(0.10322319 3.3031415e-06 -2.163997e-18)
(0.10321934 3.0813843e-06 4.1393831e-18)
(0.10322329 3.9890625e-06 -8.9228734e-19)
(0.10322329 2.9558466e-06 -8.2484507e-19)
(0.10324329 -1.8674538e-06 -1.0635472e-19)
(0.10321473 9.3954942e-07 5.8460577e-20)
(0.10322898 1.6381773e-07 3.1279871e-20)
(0.10321929 8.0251611e-07 0)
(0.10322396 6.9172603e-07 0)
(0.10323084 1.019498e-06 2.3359524e-18)
(0.10321826 8.8453018e-07 -2.4645173e-18)
(0.10322182 9.5428191e-07 5.1963124e-18)
(0.10323022 9.4890308e-07 -5.3514434e-18)
(0.10322854 9.7386749e-07 5.5579709e-18)
(0.10322441 9.9868781e-07 -5.7784633e-18)
(0.10322558 9.2136688e-07 -5.9000817e-18)
(0.10322625 9.5404655e-07 3.02906e-18)
(0.10323587 9.3365188e-07 6.2209189e-18)
(0.10323351 9.6016203e-07 -3.1766992e-18)
(0.10323168 9.6152322e-07 5.9714152e-26)
(0.10323036 9.2202863e-07 1.2943651e-20)
(0.10323266 9.1609348e-07 -3.352469e-18)
(0.10323114 8.8743022e-07 6.8852872e-18)
(0.10323158 8.9324626e-07 -3.5326578e-18)
(0.10323156 8.2718039e-07 0)
(0.10323183 8.0168361e-07 1.4173385e-20)
(0.10323226 7.4752706e-07 0)
(0.10323249 7.2160345e-07 7.3256099e-21)
(0.10323263 6.5217065e-07 -7.4457477e-21)
(0.10323274 6.1580718e-07 0)
(0.10323283 5.4010167e-07 -2.306795e-20)
(0.1032329 5.3378639e-07 0)
(0.10323296 5.0846952e-07 0)
(0.10323303 4.838389e-07 0)
(0.10323303 4.5871768e-07 0)
(0.10323295 4.321031e-07 0)
(0.10323286 3.9604539e-07 2.3071839e-20)
(0.10323267 3.7395637e-07 7.5665569e-21)
(0.10323232 3.3442172e-07 0)
(0.10323155 3.058265e-07 2.1967336e-20)
(0.10322993 2.7599815e-07 -1.4403509e-20)
(0.10322872 2.4382309e-07 7.0814124e-21)
(0.1032291 2.1837268e-07 -6.9607579e-21)
(0.10322878 1.6555556e-07 -1.367846e-20)
(0.10322991 1.6157017e-07 3.4521618e-18)
(0.10322962 1.1798449e-07 -6.7625212e-18)
(0.10323306 1.1724258e-07 1.2926284e-20)
(0.10323275 1.2693947e-07 3.2544537e-18)
(0.1032271 1.2523972e-07 1.2391714e-20)
(0.10322865 1.6026932e-07 2.4218935e-20)
(0.10322818 7.342144e-08 0)
(0.10323108 1.248598e-07 -5.8795683e-18)
(0.1032315 1.1855249e-07 2.2363613e-20)
(0.10322781 1.4402365e-07 5.5934412e-18)
(0.10322937 1.7778169e-07 2.095757e-20)
(0.10323106 2.0279819e-07 0)
(0.10323033 2.9292975e-07 -2.4807184e-18)
(0.10323002 3.529456e-07 2.3889451e-18)
(0.10322038 4.3996528e-07 0)
(0.10323089 5.4737736e-07 3.3263627e-20)
(0.1032189 7.0543762e-07 -2.0281547e-18)
(0.10323031 1.0133718e-06 1.7987651e-18)
(0.10323062 5.8718584e-07 -1.0680327e-19)
(0.10319667 -1.9979249e-06 5.1694209e-20)
(0.10317843 -1.1882267e-06 1.7683969e-18)
(0.10319226 -9.3898555e-07 -1.9948901e-18)
(0.10318168 -1.0518476e-06 2.1003983e-18)
(0.1031934 -5.3734361e-07 -4.4618869e-18)
(0.103191 -9.0520405e-07 4.7086813e-18)
(0.1031793 -7.5276209e-07 -2.4606635e-18)
(0.10319402 -5.0651317e-07 5.1380926e-18)
(0.10318725 -5.0317174e-07 -1.0475212e-20)
(0.10319039 -4.8974886e-07 -5.5454596e-18)
(0.10318212 -4.4210226e-07 -5.7155554e-18)
(0.1031851 -3.1255094e-07 5.9146859e-18)
(0.1031955 -2.0510778e-07 0)
(0.10319629 -2.1689261e-07 -1.2157253e-20)
(0.10319585 -2.606527e-07 6.2218329e-21)
(0.10318748 -2.6947892e-07 -1.2717238e-20)
(0.1031886 -1.4629318e-07 -3.3163089e-18)
(0.10318896 -1.2094236e-07 3.3744841e-18)
(0.10319116 -2.0420704e-08 -6.7398427e-21)
(0.10318675 1.1020945e-08 3.5262194e-18)
(0.10318712 1.3541482e-07 -7.1462515e-18)
(0.10318766 2.0966821e-07 5.4497022e-18)
(0.10318774 2.9534613e-07 -1.8464438e-18)
(0.10318782 3.8895565e-07 -3.6647331e-21)
(0.1031879 4.4817671e-07 -1.8989869e-18)
(0.10318798 5.5591398e-07 1.9405948e-18)
(0.10318803 5.8331149e-07 7.6858439e-21)
(0.10318808 6.9899316e-07 0)
(0.10318812 7.3306625e-07 0)
(0.10318814 8.3362583e-07 0)
(0.10318813 8.8038036e-07 0)
(0.10318813 9.8019269e-07 -1.0009311e-18)
(0.10318812 1.0381107e-06 9.7730264e-19)
(0.1031881 1.1344682e-06 -1.9424291e-18)
(0.10318805 1.2010702e-06 1.9040061e-18)
(0.103188 1.2979163e-06 -3.6663233e-21)
(0.10318804 1.3723216e-06 0)
(0.10318655 1.4639806e-06 3.6331372e-18)
(0.10318432 1.5450393e-06 -3.5654673e-18)
(0.10318564 1.5962977e-06 0)
(0.10318519 1.6092644e-06 -3.4556047e-18)
(0.10318791 1.6016397e-06 3.3917978e-18)
(0.10319098 1.5590522e-06 -3.3131932e-18)
(0.10319349 1.4999341e-06 3.2329152e-18)
(0.10319259 1.4785078e-06 -3.1817401e-18)
(0.10318419 1.525973e-06 3.1085541e-18)