/*--------------------------------*- C++ -*----------------------------------*\
| =========                 |                                                 |
| \\      /  F ield         | OpenFOAM: The Open Source CFD Toolbox           |
|  \\    /   O peration     | Version:  v2006                                 |
|   \\  /    A nd           | Website:  www.openfoam.com                      |
|    \\/     M anipulation  |                                                 |
\*---------------------------------------------------------------------------*/
FoamFile
{
    version     2.0;
    format      ascii;
    class       volVectorField;
    location    "1000";
    object      UMean;
}
// * * * * * * * * * * * * * * * * * * * * * * * * * * * * * * * * * * * * * //

dimensions      [0 1 -1 0 0 0 0];


internalField   nonuniform List<vector> 
55713
(
(0.10313336 7.3191424e-07 0)
(0.10297049 -4.0638728e-07 0)
(0.10294189 1.0639425e-06 2.5692514e-18)
(0.10293718 8.6173705e-07 -2.5558908e-18)
(0.10293837 1.7775765e-06 2.5739959e-18)
(0.10293988 1.8148904e-06 1.7625112e-27)
(0.10294048 2.3960412e-06 -2.6492772e-18)
(0.10294022 2.6006704e-06 0)
(0.10293947 3.0007986e-06 1.072194e-20)
(0.10293873 3.2934125e-06 0)
(0.10293831 3.6231021e-06 -1.1117858e-20)
(0.10293812 3.9282097e-06 -1.1321739e-20)
(0.10293795 4.2334731e-06 0)
(0.10293781 4.5278359e-06 3.0052516e-18)
(0.10293787 4.8135277e-06 -3.0597229e-18)
(0.1029381 5.0949692e-06 -6.0835052e-21)
(0.10293827 5.3724044e-06 3.1764934e-18)
(0.10293817 5.6413494e-06 -3.2263062e-18)
(0.10293782 5.9014815e-06 6.4115826e-21)
(0.10293748 6.1526959e-06 -3.3395475e-18)
(0.1029374 6.397954e-06 3.3900729e-18)
(0.10293762 6.639148e-06 0)
(0.10293805 6.8783407e-06 0)
(0.10293852 7.1152926e-06 -1.7919244e-18)
(0.10293895 7.3504354e-06 1.8140303e-18)
(0.10293933 7.5855322e-06 0)
(0.10293966 7.8192767e-06 0)
(0.10293995 8.0527339e-06 0)
(0.10294018 8.2860773e-06 2.4129275e-19)
(0.10294029 8.5192402e-06 -1.1608488e-28)
(0.1029402 8.7521113e-06 -2.4466931e-19)
(0.10293991 8.9855023e-06 0)
(0.10293949 9.2202329e-06 0)
(0.10293895 9.4565423e-06 0)
(0.10293834 9.6955571e-06 0)
(0.10293776 9.9371328e-06 1.8098415e-18)
(0.10293732 1.0181586e-05 -1.7734151e-18)
(0.10293715 1.0428894e-05 -3.5020044e-18)
(0.10293723 1.0679889e-05 2.6260612e-27)
(0.10293744 1.0934996e-05 3.378736e-18)
(0.10293757 1.1194518e-05 0)
(0.10293754 1.1457509e-05 6.3867943e-21)
(0.10293745 1.1726595e-05 -3.2129839e-18)
(0.1029375 1.1999082e-05 3.156368e-18)
(0.10293783 1.2279891e-05 3.1002449e-18)
(0.10293838 1.2564072e-05 -3.0506268e-18)
(0.10293893 1.2861128e-05 0)
(0.10293931 1.315956e-05 0)
(0.10293949 1.3477289e-05 -2.8711024e-18)
(0.10293956 1.3789858e-05 2.8302e-18)
(0.10293967 1.4136988e-05 0)
(0.10293989 1.4460814e-05 0)
(0.10294013 1.4853135e-05 0)
(0.10294017 1.5184513e-05 0)
(0.10294001 1.5642877e-05 2.5968122e-18)
(0.10294013 1.5977761e-05 -5.0402943e-27)
(0.10294093 1.649913e-05 -3.7915712e-18)
(0.10294181 1.6976676e-05 1.2320157e-18)
(0.10294181 1.7139205e-05 -1.9294905e-20)
(0.10313755 1.2291903e-06 0)
(0.10298868 -3.2341314e-07 2.4256645e-18)
(0.10296615 1.2022479e-06 -2.5084216e-18)
(0.10296332 8.2098927e-07 3.921512e-20)
(0.10296495 1.6078948e-06 -2.5409309e-18)
(0.10296636 1.6105394e-06 5.1485318e-18)
(0.10296677 2.183115e-06 4.5129316e-27)
(0.10296633 2.3253361e-06 -2.6867872e-18)
(0.10296548 2.7171739e-06 -1.070441e-20)
(0.10296479 2.9537768e-06 2.1831635e-20)
(0.1029645 3.2426859e-06 -2.8379758e-18)
(0.10296437 3.4988728e-06 2.9156322e-18)
(0.10296417 3.7594007e-06 2.959949e-18)
(0.10296405 4.0075317e-06 3.1544706e-27)
(0.10296418 4.2509043e-06 2.9757933e-27)
(0.10296448 4.4904497e-06 -3.1231461e-18)
(0.10296465 4.7261299e-06 -6.2233468e-21)
(0.10296448 4.9573901e-06 0)
(0.10296406 5.1853925e-06 3.2949847e-18)
(0.10296372 5.4072408e-06 -6.7188024e-18)
(0.10296369 5.6255471e-06 3.4243101e-18)
(0.10296398 5.8397611e-06 1.3578585e-20)
(0.10296442 6.0523631e-06 0)
(0.10296488 6.2624676e-06 7.0191094e-21)
(0.10296528 6.4721699e-06 0)
(0.10296561 6.6823977e-06 9.1352481e-19)
(0.10296591 6.8896967e-06 -1.8856724e-18)
(0.10296617 7.0969282e-06 9.4266427e-19)
(0.10296637 7.303052e-06 2.4309077e-19)
(0.10296646 7.5090676e-06 -2.6183217e-19)
(0.10296636 7.7144055e-06 0)
(0.10296608 7.9182498e-06 9.5418634e-19)
(0.10296567 8.1236593e-06 -1.9086984e-18)
(0.10296515 8.3316349e-06 9.393398e-19)
(0.10296454 8.5437905e-06 0)
(0.10296393 8.7573819e-06 1.8186886e-18)
(0.10296345 8.9692453e-06 -1.7957752e-18)
(0.10296323 9.1799517e-06 1.3742026e-20)
(0.1029633 9.3952109e-06 0)
(0.10296353 9.6154301e-06 6.6394945e-21)
(0.1029637 9.8409704e-06 3.3405246e-18)
(0.10296367 1.0067073e-05 -6.5702166e-18)
(0.10296351 1.0303233e-05 -3.8237342e-28)
(0.10296345 1.0539858e-05 3.1654966e-18)
(0.10296368 1.0789702e-05 -3.1077283e-18)
(0.10296419 1.1034858e-05 6.1065134e-18)
(0.10296475 1.1301172e-05 -5.9863808e-18)
(0.10296515 1.1554888e-05 2.9365193e-18)
(0.10296532 1.1843768e-05 -1.1251324e-20)
(0.10296534 1.2104301e-05 0)
(0.10296537 1.2431829e-05 0)
(0.10296553 1.2692818e-05 0)
(0.10296578 1.3085812e-05 -2.6837514e-18)
(0.10296585 1.3337361e-05 2.6318364e-18)
(0.1029656 1.3812875e-05 0)
(0.10296552 1.4053626e-05 3.9284019e-20)
(0.10296626 1.4609364e-05 0)
(0.10296719 1.4853364e-05 1.8973613e-20)
(0.10296712 1.5391794e-05 1.8575294e-20)
(0.10314079 1.4047214e-06 0)
(0.10300559 -3.272825e-07 3.7370051e-20)
(0.10298746 1.1340729e-06 -3.7985409e-20)
(0.10298621 7.3803157e-07 -3.8524203e-20)
(0.10298815 1.4199598e-06 -2.5483423e-18)
(0.10298941 1.4473354e-06 2.5822624e-18)
(0.10298963 1.9235647e-06 0)
(0.10298903 2.0729284e-06 2.0918122e-20)
(0.10298813 2.4118212e-06 -5.4714255e-18)
(0.10298754 2.6253849e-06 5.5439687e-18)
(0.10298739 2.8883046e-06 0)
(0.1029873 3.1141663e-06 -2.2734712e-20)
(0.10298707 3.3446706e-06 0)
(0.10298697 3.5578732e-06 3.0029323e-18)
(0.10298721 3.7658038e-06 -6.1699056e-18)
(0.10298759 3.9682221e-06 3.1434132e-18)
(0.10298774 4.1691612e-06 -3.1894782e-18)
(0.10298748 4.3667093e-06 -4.3186863e-27)
(0.102987 4.5595113e-06 3.3195621e-18)
(0.10298668 4.7494892e-06 -3.3785979e-18)
(0.10298673 4.9378111e-06 -4.00042e-27)
(0.10298709 5.1235039e-06 3.4972225e-18)
(0.10298757 5.3058695e-06 0)
(0.10298801 5.4835471e-06 1.7941851e-18)
(0.10298837 5.6639911e-06 1.8797496e-27)
(0.10298866 5.8422633e-06 -1.8391428e-18)
(0.10298892 6.017077e-06 -1.4831253e-20)
(0.10298916 6.1950375e-06 4.9717715e-19)
(0.10298934 6.3698087e-06 -4.8959915e-19)
(0.10298941 6.5453834e-06 2.4799113e-19)
(0.10298931 6.7208964e-06 -2.4741097e-19)
(0.10298904 6.8911891e-06 3.045294e-20)
(0.10298865 7.0652506e-06 0)
(0.10298815 7.2407468e-06 1.4751177e-20)
(0.10298755 7.4184418e-06 -1.4513531e-20)
(0.10298693 7.6001373e-06 -1.427628e-20)
(0.1029864 7.7805009e-06 -1.40396e-20)
(0.10298612 7.9591731e-06 -1.3803619e-20)
(0.10298617 8.1438157e-06 3.4599172e-18)
(0.10298643 8.3281821e-06 -3.4134321e-18)
(0.10298664 8.5229625e-06 0)
(0.10298662 8.7148449e-06 3.2938456e-18)
(0.10298641 8.9232359e-06 -3.2216435e-18)
(0.10298623 9.121426e-06 3.1996276e-18)
(0.10298635 9.3439123e-06 -3.1154608e-18)
(0.10298681 9.5479264e-06 -3.0322916e-18)
(0.10298738 9.7921726e-06 -2.4344368e-27)
(0.10298781 9.9989033e-06 2.9148329e-18)
(0.10298798 1.0272895e-05 2.2489805e-20)
(0.10298797 1.0476115e-05 0)
(0.10298793 1.0798705e-05 0)
(0.10298802 1.0988564e-05 0)
(0.10298826 1.1394547e-05 2.0653304e-20)
(0.10298837 1.1541182e-05 -2.0198775e-20)
(0.10298807 1.2036046e-05 0)
(0.10298778 1.2172517e-05 2.4704547e-18)
(0.10298844 1.2732085e-05 -2.4138766e-18)
(0.10298946 1.2878881e-05 0)
(0.10298933 1.3517283e-05 0)
(0.10314267 1.4219818e-06 6.8492269e-20)
(0.10301999 -3.0645098e-07 -7.2583006e-20)
(0.10300612 9.9870866e-07 -2.3383434e-18)
(0.1030062 6.7047522e-07 2.422994e-18)
(0.10300831 1.2325886e-06 3.8724468e-20)
(0.10300938 1.2868153e-06 0)
(0.10300942 1.6807214e-06 -2.6045632e-18)
(0.10300868 1.8247578e-06 7.9838024e-18)
(0.10300774 2.1121267e-06 -1.0924048e-17)
(0.10300731 2.3009593e-06 5.6079545e-18)
(0.10300733 2.5299218e-06 -2.854568e-18)
(0.10300722 2.727365e-06 2.2778651e-20)
(0.10300694 2.9284181e-06 5.9528548e-18)
(0.10300691 3.1161977e-06 -3.0131775e-18)
(0.10300729 3.2997601e-06 0)
(0.10300774 3.4764702e-06 0)
(0.10300784 3.6496845e-06 -1.2567221e-20)
(0.10300746 3.816296e-06 0)
(0.10300692 3.9788214e-06 0)
(0.10300666 4.1406896e-06 2.6539867e-20)
(0.10300682 4.300928e-06 -1.3504686e-20)
(0.10300726 4.461348e-06 -2.7479914e-20)
(0.10300775 4.621661e-06 -1.7889064e-18)
(0.10300817 4.7796951e-06 1.8333965e-18)
(0.10300849 4.9363603e-06 1.4449551e-20)
(0.10300875 5.0893283e-06 -1.4687288e-20)
(0.10300899 5.2420917e-06 9.7014392e-19)
(0.10300919 5.3965164e-06 -9.7044966e-19)
(0.10300935 5.5486872e-06 1.5400733e-20)
(0.10300941 5.6993729e-06 -2.3387993e-19)
(0.10300931 5.8482598e-06 -2.4869964e-19)
(0.10300906 5.9910176e-06 4.7441228e-19)
(0.10300869 6.137427e-06 0)
(0.10300822 6.2850839e-06 -1.9120635e-18)
(0.10300764 6.436376e-06 1.458172e-20)
(0.103007 6.5841677e-06 3.7001577e-18)
(0.10300643 6.7399298e-06 -1.7909884e-18)
(0.10300609 6.8931434e-06 0)
(0.10300611 7.0553403e-06 1.3625222e-20)
(0.10300638 7.2126155e-06 0)
(0.10300665 7.3853392e-06 0)
(0.10300668 7.5435093e-06 2.5825682e-20)
(0.10300643 7.7291415e-06 -1.2675684e-20)
(0.10300614 7.8889062e-06 -3.209073e-18)
(0.10300612 8.0909456e-06 3.1232985e-18)
(0.10300651 8.2507241e-06 -4.2049822e-26)
(0.1030071 8.4770166e-06 2.3444491e-20)
(0.10300756 8.6360747e-06 4.0352205e-26)
(0.10300775 8.895309e-06 -2.2479189e-20)
(0.10300772 9.0476998e-06 -5.6079658e-18)
(0.10300762 9.3548633e-06 5.5043023e-18)
(0.10300762 9.4905936e-06 4.2012287e-20)
(0.10300783 9.8551845e-06 -2.6658268e-18)
(0.10300801 9.9866134e-06 5.1202894e-18)
(0.1030077 1.040916e-05 -5.0283233e-18)
(0.10300717 1.0548199e-05 2.4282257e-18)
(0.10300773 1.1047608e-05 -7.3766807e-20)
(0.10300888 1.1142154e-05 0)
(0.10300867 1.1885157e-05 0)
(0.10314341 1.2432402e-06 -6.6196612e-20)
(0.10303285 -2.2371335e-07 7.0528497e-20)
(0.10302242 8.1748812e-07 -2.3221068e-18)
(0.10302363 6.11595e-07 2.307635e-18)
(0.10302578 1.048018e-06 -2.4485362e-18)
(0.10302663 1.1443594e-06 2.5586084e-18)
(0.10302653 1.4606261e-06 2.5493596e-18)
(0.10302564 1.6006761e-06 -2.6588486e-18)
(0.1030247 1.8434182e-06 5.4098317e-18)
(0.1030245 2.0095971e-06 -1.1125219e-17)
(0.10302468 2.2078372e-06 5.7142268e-18)
(0.10302449 2.3795417e-06 -2.2821317e-20)
(0.10302415 2.5519713e-06 -2.984386e-18)
(0.10302426 2.7138911e-06 6.0939685e-18)
(0.1030248 2.870665e-06 -3.1090378e-18)
(0.1030253 3.0231026e-06 -3.1706602e-18)
(0.1030253 3.1712577e-06 2.5249694e-20)
(0.10302477 3.3136367e-06 3.2673177e-18)
(0.10302421 3.4527332e-06 -2.6202971e-20)
(0.10302405 3.5902105e-06 -5.3357022e-20)
(0.10302434 3.7259812e-06 1.3577017e-20)
(0.10302485 3.8635991e-06 1.381502e-20)
(0.10302535 4.0002056e-06 0)
(0.10302574 4.1361317e-06 -1.829444e-18)
(0.10302603 4.2693224e-06 -1.4532251e-20)
(0.10302626 4.3995297e-06 1.9056581e-18)
(0.10302647 4.5306539e-06 0)
(0.10302665 4.6610067e-06 0)
(0.1030268 4.7923484e-06 -3.0989681e-20)
(0.10302684 4.9220576e-06 2.3518012e-19)
(0.10302675 5.0501219e-06 -2.4991178e-19)
(0.10302651 5.173893e-06 0)
(0.10302617 5.3013589e-06 0)
(0.10302574 5.4234741e-06 -1.9058223e-18)
(0.10302518 5.5525541e-06 3.7494404e-18)
(0.10302454 5.6729035e-06 -1.8580966e-18)
(0.10302391 5.8071158e-06 -1.7844207e-18)
(0.1030235 5.9336617e-06 1.7818688e-18)
(0.10302347 6.078749e-06 0)
(0.10302376 6.2060343e-06 0)
(0.1030241 6.3603196e-06 -3.4053347e-18)
(0.10302419 6.4899463e-06 3.2913821e-18)
(0.10302393 6.6577418e-06 2.5433708e-20)
(0.10302353 6.7863729e-06 -3.1934968e-18)
(0.10302335 6.9679771e-06 6.2378073e-18)
(0.10302366 7.0968699e-06 -3.0922937e-18)
(0.10302426 7.2985631e-06 -3.0284377e-18)
(0.10302477 7.4290058e-06 5.8818911e-18)
(0.10302499 7.657844e-06 -2.8761577e-18)
(0.10302496 7.7891292e-06 -6.5870484e-20)
(0.1030248 8.0497903e-06 0)
(0.10302471 8.1829044e-06 -4.180934e-20)
(0.10302485 8.4802054e-06 2.6064436e-18)
(0.1030251 8.6204918e-06 -5.0709145e-18)
(0.10302485 8.9638266e-06 2.5395134e-18)
(0.10302406 9.1160271e-06 3.7302551e-20)
(0.10302448 9.5553316e-06 1.4433423e-19)
(0.10302577 9.6340578e-06 6.961929e-20)
(0.10302552 1.0367179e-05 6.6696728e-20)
(0.10314299 9.8566272e-07 -1.0244615e-18)
(0.10304378 -1.2968784e-07 -1.0971178e-18)
(0.10303657 6.2927088e-07 2.3419683e-18)
(0.10303867 5.6784563e-07 -2.2696343e-18)
(0.10304076 8.9087235e-07 -7.7800977e-27)
(0.10304138 1.0101522e-06 2.4592082e-18)
(0.10304117 1.2559805e-06 4.0236565e-20)
(0.10304011 1.3926279e-06 5.2988658e-18)
(0.10303923 1.5900929e-06 4.2520959e-20)
(0.10303935 1.7376464e-06 -5.6261378e-18)
(0.10303964 1.902824e-06 5.6744063e-18)
(0.10303927 2.0557305e-06 -5.8300371e-18)
(0.10303891 2.1973323e-06 -2.9921548e-18)
(0.10303922 2.3391538e-06 3.056819e-18)
(0.10303994 2.4702331e-06 2.4379774e-20)
(0.10304045 2.6023848e-06 0)
(0.1030403 2.7280626e-06 -2.5361239e-20)
(0.10303961 2.8495345e-06 3.3341997e-18)
(0.10303905 2.9671225e-06 -6.7139952e-18)
(0.10303904 3.083181e-06 2.9634636e-26)
(0.10303948 3.1978259e-06 2.7291179e-20)
(0.10304005 3.3146649e-06 3.5547764e-18)
(0.10304055 3.4299364e-06 -1.8081779e-18)
(0.1030409 3.5446048e-06 1.8390354e-18)
(0.10304116 3.656801e-06 1.869978e-18)
(0.10304136 3.7677714e-06 -1.9158618e-18)
(0.10304154 3.878434e-06 9.6606063e-19)
(0.10304171 3.9888013e-06 -9.8164142e-19)
(0.10304184 4.0998632e-06 -2.3372404e-19)
(0.10304187 4.2084853e-06 1.57585e-20)
(0.10304178 4.3171762e-06 2.5102666e-19)
(0.10304156 4.4204964e-06 0)
(0.10304126 4.5306891e-06 -1.5196876e-20)
(0.10304086 4.6302117e-06 0)
(0.10304033 4.7451156e-06 -1.4706092e-20)
(0.10303969 4.8427709e-06 -1.8511035e-18)
(0.10303902 4.9631477e-06 -2.8436152e-20)
(0.10303853 5.0653561e-06 5.3663654e-18)
(0.10303842 5.1918584e-06 -7.0308047e-18)
(0.10303871 5.2955217e-06 -2.6978315e-20)
(0.10303914 5.4300077e-06 6.8349079e-18)
(0.10303932 5.538509e-06 -3.3285141e-18)
(0.10303908 5.6847762e-06 3.2147411e-18)
(0.10303858 5.7943481e-06 -3.227616e-18)
(0.10303823 5.9524369e-06 2.4522289e-20)
(0.10303839 6.0624359e-06 0)
(0.10303901 6.235867e-06 0)
(0.10303958 6.3528563e-06 4.5979073e-20)
(0.10303983 6.5447153e-06 5.7501642e-18)
(0.10303981 6.669132e-06 -5.5683738e-18)
(0.10303962 6.8838483e-06 -4.27424e-20)
(0.10303944 7.0167925e-06 2.6630521e-18)
(0.10303948 7.2602513e-06 -5.1364077e-18)
(0.10303978 7.4041135e-06 -4.4197048e-27)
(0.10303966 7.6887554e-06 2.3932586e-18)
(0.10303859 7.8483759e-06 -9.4751186e-26)
(0.10303883 8.2047876e-06 -2.2601378e-18)
(0.1030403 8.2781644e-06 2.0997545e-18)
(0.10304 8.9529438e-06 -6.4462082e-20)
(0.10314195 6.4727438e-07 0)
(0.10305365 -3.166046e-08 6.6701706e-20)
(0.10304924 4.2536715e-07 -8.0558428e-26)
(0.10305196 4.9069624e-07 0)
(0.10305391 7.1114221e-07 -2.4662292e-18)
(0.1030543 8.7666844e-07 2.5162176e-18)
(0.103054 1.0420683e-06 0)
(0.10305275 1.2000132e-06 4.124912e-20)
(0.10305202 1.3343997e-06 0)
(0.10305253 1.486761e-06 5.6239655e-18)
(0.10305285 1.6134961e-06 -5.6789182e-18)
(0.10305217 1.7545494e-06 2.9315765e-18)
(0.10305192 1.867001e-06 5.6410528e-27)
(0.10305252 1.9929849e-06 -3.0663416e-18)
(0.10305338 2.1017861e-06 -3.1562647e-18)
(0.10305387 2.2170347e-06 3.1962572e-18)
(0.10305348 2.3227867e-06 0)
(0.10305262 2.4273638e-06 2.5960555e-20)
(0.10305213 2.5261332e-06 -2.6449212e-20)
(0.10305232 2.6256354e-06 3.1466213e-26)
(0.10305291 2.7235964e-06 -2.7419606e-20)
(0.10305353 2.823205e-06 0)
(0.103054 2.9194871e-06 0)
(0.10305431 3.0159148e-06 0)
(0.10305454 3.1103756e-06 0)
(0.10305472 3.2042972e-06 0)
(0.10305488 3.2981441e-06 -9.5560669e-19)
(0.10305503 3.3914981e-06 5.0865849e-19)
(0.10305514 3.4840351e-06 5.0111285e-19)
(0.10305517 3.5754114e-06 2.3745536e-19)
(0.10305508 3.6660204e-06 -7.5609114e-19)
(0.10305488 3.7543995e-06 5.1160495e-19)
(0.10305461 3.8459613e-06 1.5254876e-20)
(0.10305425 3.9321721e-06 0)
(0.10305376 4.0280785e-06 1.4760608e-20)
(0.10305314 4.1140773e-06 0)
(0.10305243 4.215483e-06 0)
(0.10305183 4.3030285e-06 3.618494e-18)
(0.10305162 4.4081316e-06 -7.0281879e-18)
(0.1030519 4.4982225e-06 6.9575478e-18)
(0.10305241 4.6090811e-06 -6.8579946e-18)
(0.10305271 4.704828e-06 6.6785612e-18)
(0.10305253 4.8232922e-06 -3.2500935e-18)
(0.10305197 4.9230401e-06 2.5089557e-20)
(0.10305141 5.0491387e-06 3.1710069e-18)
(0.10305137 5.1515743e-06 -3.0803761e-18)
(0.103052 5.2875035e-06 2.3539929e-20)
(0.10305265 5.3968371e-06 -2.3003388e-20)
(0.10305293 5.5490623e-06 5.7482149e-18)
(0.10305294 5.6659834e-06 -1.1163766e-17)
(0.10305272 5.8341778e-06 5.4975701e-18)
(0.10305247 5.9615269e-06 4.1414953e-20)
(0.10305237 6.1526056e-06 0)
(0.10305265 6.2894141e-06 -2.5265153e-18)
(0.10305279 6.5124009e-06 2.4007192e-18)
(0.10305142 6.6668088e-06 -7.21683e-20)
(0.10305141 6.9590429e-06 2.1436706e-18)
(0.1030531 7.0626983e-06 -2.0441458e-18)
(0.10305275 7.6645894e-06 1.2471602e-19)
(0.10314042 1.9087483e-07 0)
(0.10306229 8.5815077e-08 -2.2071935e-18)
(0.10306047 2.55939e-07 -6.7963538e-20)
(0.1030635 5.1486198e-07 4.6076855e-18)
(0.10306527 5.9813712e-07 7.3870992e-20)
(0.10306545 7.9444767e-07 -4.9907038e-18)
(0.10306509 8.9014824e-07 2.545783e-18)
(0.10306357 1.0549502e-06 5.1785506e-18)
(0.10306318 1.1442237e-06 -5.3801588e-18)
(0.10306417 1.2892788e-06 -3.3701448e-26)
(0.10306434 1.3825521e-06 4.4748584e-20)
(0.10306321 1.5067367e-06 -2.2941263e-20)
(0.10306332 1.5905938e-06 0)
(0.10306424 1.7044611e-06 2.4027442e-20)
(0.10306521 1.788621e-06 3.1670975e-18)
(0.10306563 1.8923535e-06 -3.2082768e-18)
(0.10306491 1.9759951e-06 3.2473803e-18)
(0.10306389 2.0669379e-06 -3.3367683e-18)
(0.10306358 2.1455404e-06 2.068588e-26)
(0.10306402 2.2319837e-06 -3.4355096e-18)
(0.10306474 2.3118672e-06 7.0222625e-18)
(0.10306538 2.396874e-06 -3.5870929e-18)
(0.10306581 2.4743721e-06 0)
(0.10306609 2.555714e-06 1.44983e-20)
(0.10306629 2.6332986e-06 -1.9017661e-18)
(0.10306645 2.7138806e-06 1.9034026e-18)
(0.1030666 2.7927174e-06 -1.5233553e-20)
(0.10306673 2.8721917e-06 4.799009e-19)
(0.10306683 2.9496554e-06 -5.0331385e-19)
(0.10306685 3.0269115e-06 1.5893068e-20)
(0.10306677 3.1010206e-06 5.0579464e-19)
(0.1030666 3.1746065e-06 -5.1332059e-19)
(0.10306636 3.2491721e-06 -1.5305104e-20)
(0.10306604 3.323505e-06 0)
(0.1030656 3.4023096e-06 0)
(0.10306501 3.4792153e-06 -1.8784583e-18)
(0.10306427 3.5614925e-06 1.8324283e-18)
(0.10306357 3.6407652e-06 -2.8140991e-20)
(0.10306321 3.7251543e-06 -2.7650309e-20)
(0.10306345 3.8061071e-06 0)
(0.10306404 3.8961034e-06 2.6664562e-20)
(0.1030645 3.9822515e-06 -3.323212e-18)
(0.10306441 4.0802344e-06 3.2593979e-18)
(0.10306384 4.1712208e-06 -3.2199062e-18)
(0.10306309 4.2756185e-06 3.129046e-18)
(0.10306275 4.3695961e-06 2.4110534e-20)
(0.10306336 4.4808255e-06 -2.3570665e-20)
(0.10306414 4.5856964e-06 0)
(0.10306444 4.7102337e-06 0)
(0.10306449 4.8223156e-06 -4.3713766e-20)
(0.10306425 4.9649959e-06 0)
(0.10306397 5.0857282e-06 -4.1221937e-20)
(0.10306372 5.2468906e-06 0)
(0.10306386 5.3823346e-06 2.5414267e-18)
(0.10306439 5.5669641e-06 -2.2967843e-18)
(0.10306275 5.7312193e-06 7.1003207e-20)
(0.10306236 5.9441425e-06 -2.1672532e-18)
(0.10306436 6.1015578e-06 3.0830777e-18)
(0.10306397 6.451263e-06 -1.0867381e-18)
(0.10313597 -2.012081e-07 1.1640662e-19)
(0.10306719 2.2211012e-07 -2.0228475e-18)
(0.10306839 6.3471105e-09 -2.0143441e-27)
(0.10307126 4.5683384e-07 2.1633004e-18)
(0.10307292 4.0019426e-07 0)
(0.103073 6.3289312e-07 3.8072176e-20)
(0.10307244 6.8639303e-07 -3.9549246e-20)
(0.10307062 8.3721944e-07 5.2825585e-18)
(0.1030709 8.9215546e-07 -1.0824488e-17)
(0.10307233 1.0291134e-06 -4.3557144e-20)
(0.10307207 1.0988784e-06 5.6870203e-18)
(0.1030704 1.2073663e-06 2.9642219e-18)
(0.10307128 1.2617734e-06 -3.0139521e-18)
(0.10307249 1.3690041e-06 -2.409687e-20)
(0.10307349 1.4260944e-06 -2.4632153e-20)
(0.10307379 1.5243911e-06 0)
(0.10307262 1.5812389e-06 2.5666872e-20)
(0.10307151 1.6663727e-06 -2.6170417e-20)
(0.1030715 1.720901e-06 2.6667075e-20)
(0.10307222 1.8028323e-06 0)
(0.10307304 1.8602009e-06 3.5664553e-18)
(0.10307365 1.9336803e-06 -5.4016237e-18)
(0.10307405 1.9897666e-06 1.8173416e-18)
(0.1030743 2.0592701e-06 1.848255e-18)
(0.10307447 2.1163713e-06 -1.8644759e-18)
(0.10307462 2.1810259e-06 -9.4769871e-19)
(0.10307475 2.239445e-06 9.7853535e-19)
(0.10307486 2.3008788e-06 0)
(0.10307496 2.3636299e-06 -2.525952e-19)
(0.10307497 2.4220764e-06 2.5512429e-19)
(0.1030749 2.487557e-06 4.913457e-19)
(0.10307476 2.5466078e-06 -1.512929e-18)
(0.10307454 2.6128686e-06 9.9748515e-19)
(0.10307427 2.6729166e-06 1.5096187e-20)
(0.10307389 2.7377235e-06 -1.9153884e-18)
(0.10307333 2.7965277e-06 1.8835383e-18)
(0.10307258 2.8629444e-06 0)
(0.10307177 2.9225392e-06 -3.612082e-18)
(0.10307123 2.9896517e-06 3.5492194e-18)
(0.10307138 3.0507081e-06 0)
(0.10307203 3.1200141e-06 0)
(0.10307269 3.1869869e-06 -2.6239173e-20)
(0.10307273 3.2610596e-06 2.5732253e-20)
(0.10307219 3.3327874e-06 0)
(0.10307131 3.4105746e-06 0)
(0.10307052 3.4897803e-06 -2.4152944e-20)
(0.10307104 3.5645938e-06 0)
(0.10307201 3.6503438e-06 0)
(0.10307233 3.7422489e-06 5.7439383e-18)
(0.10307245 3.8383726e-06 -5.5868003e-18)
(0.10307219 3.9351043e-06 0)
(0.10307192 4.0468611e-06 4.1029706e-20)
(0.1030715 4.1681878e-06 -3.9626188e-20)
(0.10307134 4.2638513e-06 -2.4796618e-18)
(0.1030723 4.4316063e-06 2.2684445e-18)
(0.10307059 4.5299603e-06 -6.9869084e-20)
(0.10306951 4.7018278e-06 2.0569273e-18)
(0.10307203 4.8509475e-06 -2.1283402e-18)
(0.10307157 5.0649693e-06 0)
(0.10312994 -6.2240914e-07 -1.1292307e-19)
(0.10307018 4.5556175e-07 2.0323386e-18)
(0.1030759 -2.4461401e-07 -2.0863169e-18)
(0.10307763 6.1275397e-07 -6.8718284e-20)
(0.10307946 2.8064953e-07 3.6101041e-20)
(0.10307982 5.3132867e-07 0)
(0.10307837 5.2779363e-07 3.9323339e-20)
(0.10307636 6.4926335e-07 0)
(0.10307806 7.0816162e-07 5.3598792e-18)
(0.10307965 8.2962421e-07 9.6406764e-27)
(0.1030785 8.6520475e-07 -5.7581594e-18)
(0.10307634 9.699568e-07 2.3014971e-20)
(0.10307847 9.971119e-07 0)
(0.10307996 1.1059358e-06 0)
(0.10308092 1.1386463e-06 3.1628814e-18)
(0.10308097 1.2371468e-06 -3.2560233e-18)
(0.10307925 1.2675599e-06 0)
(0.10307824 1.351007e-06 -1.313254e-20)
(0.10307863 1.3800188e-06 0)
(0.10307961 1.4577808e-06 0)
(0.10308047 1.484609e-06 0)
(0.10308104 1.5500975e-06 -1.8066156e-18)
(0.10308138 1.5797724e-06 1.851977e-18)
(0.1030816 1.6444231e-06 0)
(0.10308175 1.6829907e-06 -1.4842421e-20)
(0.10308187 1.7531405e-06 0)
(0.10308198 1.8011842e-06 -1.5333822e-20)
(0.10308207 1.86164e-06 -5.1421474e-19)
(0.10308215 1.9134518e-06 5.06639e-19)
(0.10308214 1.9641136e-06 -1.5985457e-20)
(0.10308207 2.016525e-06 5.4004466e-19)
(0.10308195 2.0658829e-06 -1.5004666e-18)
(0.10308175 2.1236686e-06 9.6881575e-19)
(0.10308151 2.1776935e-06 -3.025646e-20)
(0.10308117 2.2429509e-06 2.2769313e-26)
(0.10308066 2.30011e-06 0)
(0.1030799 2.3664366e-06 0)
(0.10307896 2.4292074e-06 0)
(0.10307819 2.4928068e-06 1.389926e-20)
(0.1030782 2.5569622e-06 -3.4952307e-18)
(0.10307881 2.6246371e-06 6.8768683e-18)
(0.10307969 2.6916253e-06 6.8846696e-27)
(0.10307989 2.764133e-06 -6.6043782e-18)
(0.10307943 2.8374978e-06 3.2608762e-18)
(0.10307845 2.9089378e-06 0)
(0.10307709 2.985092e-06 0)
(0.10307731 3.052864e-06 0)
(0.10307852 3.1393928e-06 5.8989862e-18)
(0.10307893 3.2177003e-06 -5.7649565e-18)
(0.10307911 3.3082132e-06 2.1793636e-20)
(0.10307882 3.3924513e-06 -4.2250552e-20)
(0.10307866 3.484403e-06 -6.2488864e-26)
(0.10307794 3.5859506e-06 6.0234563e-26)
(0.10307727 3.6715346e-06 -3.7802651e-20)
(0.10307843 3.7868475e-06 3.6146061e-20)
(0.10307729 3.8915443e-06 0)
(0.10307457 3.8874079e-06 9.960619e-26)
(0.10307836 4.2686244e-06 6.104529e-20)
(0.10307765 4.0866006e-06 0)
(0.10313493 -1.6909995e-06 9.3172771e-19)
(0.10308474 1.3862654e-06 -9.6046709e-19)
(0.10309354 -7.9604927e-07 0)
(0.10309081 2.2254289e-07 6.7687536e-20)
(0.10309384 -2.3694882e-07 -3.5695834e-20)
(0.1030969 7.9832058e-08 2.4340169e-18)
(0.10309108 6.7008261e-08 -2.5414004e-18)
(0.10309083 1.6401512e-09 5.2038092e-18)
(0.10309578 1.2726039e-07 2.3170943e-26)
(0.10309596 1.9959598e-07 -5.5699589e-18)
(0.10309382 2.8273369e-07 -5.6945271e-18)
(0.10309265 3.5103778e-07 5.877616e-18)
(0.10309494 4.1593329e-07 0)
(0.10309729 4.7909718e-07 0)
(0.10309797 5.7059956e-07 3.1722883e-18)
(0.10309714 6.393587e-07 -3.2030835e-18)
(0.10309538 7.0830553e-07 -1.2921295e-20)
(0.10309487 7.8951025e-07 1.9577477e-26)
(0.10309544 8.6230039e-07 0)
(0.10309668 9.4931914e-07 1.3670151e-20)
(0.10309764 1.021567e-06 -3.5616674e-18)
(0.1030982 1.1408446e-06 3.6092174e-18)
(0.10309852 1.2205283e-06 1.8424607e-18)
(0.10309872 1.3467276e-06 -1.8732713e-18)
(0.10309887 1.4258069e-06 0)
(0.103099 1.5538113e-06 0)
(0.10309911 1.6287486e-06 -9.5266465e-19)
(0.1030992 1.7343462e-06 1.0148726e-18)
(0.10309928 1.807578e-06 0)
(0.10309929 1.9097383e-06 1.6011876e-20)
(0.10309923 1.9787229e-06 -1.5904532e-20)
(0.10309912 2.0783037e-06 1.5650243e-20)
(0.10309894 2.1483823e-06 9.8550953e-19)
(0.10309873 2.2514303e-06 9.8472193e-19)
(0.10309842 2.3203775e-06 1.4902926e-20)
(0.10309794 2.4155521e-06 -1.8909001e-18)
(0.10309713 2.4414706e-06 -1.8306613e-18)
(0.10309601 2.5076916e-06 -1.8139749e-18)
(0.10309518 2.5472084e-06 3.5517143e-18)
(0.10309509 2.5939378e-06 1.3683525e-20)
(0.10309561 2.649768e-06 -2.6872555e-20)
(0.10309666 2.7012017e-06 1.3185344e-20)
(0.1030972 2.7557936e-06 -1.2929564e-20)
(0.10309686 2.8267703e-06 -2.5335374e-20)
(0.10309547 2.867626e-06 -1.2398225e-20)
(0.10309399 2.9685515e-06 -2.4239295e-20)
(0.10309421 2.9800999e-06 0)
(0.10309548 3.0791736e-06 0)
(0.10309618 3.1134684e-06 -5.7188805e-18)
(0.10309608 3.234951e-06 -4.3530618e-20)
(0.10309593 3.2831166e-06 5.4357505e-18)
(0.10309575 3.3654783e-06 -4.0667891e-20)
(0.10309516 3.5040406e-06 3.9113609e-20)
(0.10309476 3.6141523e-06 2.4353204e-18)
(0.10309299 3.5972755e-06 -2.3217197e-18)
(0.10309519 3.9762686e-06 -2.1670434e-18)
(0.10308833 3.4022466e-06 4.1453422e-18)
(0.10309544 4.7390894e-06 -8.9353365e-19)
(0.10309502 3.1020598e-06 -8.2585567e-19)
(0.10312684 -3.3665249e-06 -1.0646296e-19)
(0.10307725 1.5973491e-06 5.8529795e-20)
(0.10310294 1.4701582e-07 3.1315469e-20)
(0.10308522 1.2915051e-06 0)
(0.10309475 9.6915332e-07 0)
(0.10310595 1.4923185e-06 2.3383651e-18)
(0.10308425 1.2848734e-06 -2.4671338e-18)
(0.10309053 1.3213211e-06 5.2015747e-18)
(0.10310513 1.3550745e-06 -5.3565594e-18)
(0.10310244 1.3378799e-06 5.5632418e-18)
(0.10309864 1.3510349e-06 -5.7838233e-18)
(0.10310073 1.2433045e-06 -5.9055082e-18)
(0.10309915 1.2373096e-06 3.0318675e-18)
(0.10310639 1.1924069e-06 6.2267317e-18)
(0.10310649 1.1818177e-06 -3.1796596e-18)
(0.10310352 1.1266126e-06 1.0443273e-25)
(0.10310336 1.0651896e-06 1.2955612e-20)
(0.10310397 9.9755762e-07 -3.3556018e-18)
(0.10310368 8.9799441e-07 6.8917289e-18)
(0.10310533 8.5002667e-07 -3.5359357e-18)
(0.10310686 7.4517123e-07 0)
(0.10310762 6.9941447e-07 1.4186585e-20)
(0.10310805 6.0030034e-07 0)
(0.10310833 5.404935e-07 7.3325841e-21)
(0.10310853 4.4615023e-07 -7.4529136e-21)
(0.1031087 3.738756e-07 0)
(0.10310884 2.8622902e-07 -2.3090656e-20)
(0.10310897 2.4368327e-07 0)
(0.10310906 1.7277424e-07 0)
(0.10310918 1.3280391e-07 0)
(0.10310915 6.7055439e-08 0)
(0.10310899 1.8830187e-08 0)
(0.10310887 -5.4432014e-08 2.3081321e-20)
(0.10310864 -1.0464682e-07 7.5696608e-21)
(0.10310831 -1.8452399e-07 0)
(0.1031077 -2.3445072e-07 2.1976205e-20)
(0.10310656 -3.200938e-07 -1.4409278e-20)
(0.10310489 -3.696871e-07 7.0842807e-21)
(0.10310473 -4.5189049e-07 -6.9636168e-21)
(0.10310437 -5.1529716e-07 -1.3684122e-20)
(0.10310461 -5.8455041e-07 3.4536235e-18)
(0.10310521 -6.2821055e-07 -6.7654761e-18)
(0.10310667 -6.8875597e-07 1.2932176e-20)
(0.10310652 -7.0704797e-07 3.2559674e-18)
(0.10310316 -7.5541959e-07 1.2397516e-20)
(0.10310279 -7.4515359e-07 2.4230739e-20)
(0.10310306 -8.3045514e-07 0)
(0.10310355 -8.2395154e-07 -5.8827603e-18)
(0.10310575 -8.5545411e-07 2.2376114e-20)
(0.10310437 -8.116922e-07 5.5966436e-18)
(0.10310521 -7.9969459e-07 2.0970318e-20)
(0.10310502 -7.6227696e-07 0)
(0.1031033 -6.6309836e-07 -2.4824364e-18)
(0.10310495 -5.9911163e-07 2.3906664e-18)
(0.10309309 -4.3386581e-07 0)
(0.10310606 -2.8831758e-07 3.3290921e-20)
(0.10308456 -9.7320704e-08 -2.030056e-18)
(0.10310466 3.8748146e-07 1.8004647e-18)
(0.10310411 -4.1577056e-07 -1.0692944e-19)
(0.103046 -3.5994826e-06 5.1762664e-20)
(0.10301461 -2.2364018e-06 1.7709402e-18)
(0.10303771 -1.8253962e-06 -1.9977726e-18)
(0.10302025 -2.07094e-06 2.1034519e-18)
(0.10303956 -1.1978411e-06 -4.4682281e-18)
(0.10303513 -1.8821324e-06 4.7155745e-18)
(0.10301693 -1.6449379e-06 -2.464293e-18)
(0.10304019 -1.2758041e-06 5.1454184e-18)
(0.10303345 -1.3396298e-06 -1.0490117e-20)
(0.10303184 -1.3412297e-06 -5.5533996e-18)
(0.10302689 -1.2698995e-06 -5.7235983e-18)
(0.1030262 -1.1198647e-06 5.9229139e-18)
(0.10303576 -9.6469743e-07 0)
(0.10303547 -8.9353444e-07 -1.2172925e-20)
(0.10303228 -8.4744029e-07 6.2295212e-21)
(0.10302999 -8.0147728e-07 -1.2732368e-20)
(0.10302893 -6.7695387e-07 -3.3201238e-18)
(0.10302692 -5.6786838e-07 3.3781171e-18)
(0.10302948 -3.7462272e-07 -6.7464266e-21)
(0.1030302 -2.5586882e-07 3.529364e-18)
(0.10303018 -5.2480107e-08 -7.1521517e-18)
(0.10303033 4.1896958e-08 5.4538639e-18)
(0.1030305 2.1322091e-07 -1.8477402e-18)
(0.10303065 3.3040923e-07 -3.6670698e-21)
(0.10303079 4.5026486e-07 -1.9000891e-18)
(0.10303091 5.9158945e-07 1.9416044e-18)
(0.10303102 6.764058e-07 7.6893565e-21)
(0.10303111 8.2450028e-07 0)
(0.10303117 9.0260247e-07 0)
(0.1030312 1.0401921e-06 0)
(0.10303119 1.1325194e-06 0)
(0.10303116 1.2782014e-06 -1.0021391e-18)
(0.10303112 1.3826076e-06 9.785275e-19)
(0.10303105 1.5279346e-06 -1.9449549e-18)
(0.10303096 1.6386125e-06 1.9065716e-18)
(0.10303088 1.7835073e-06 -3.6714236e-21)
(0.10303084 1.9036437e-06 0)
(0.1030305 2.0447613e-06 3.6385325e-18)
(0.10302828 2.1806552e-06 -3.5709382e-18)
(0.10302872 2.2990392e-06 0)
(0.10302984 2.3822429e-06 -3.4613154e-18)
(0.10303052 2.4253455e-06 3.3976059e-18)
(0.10303209 2.4343916e-06 -3.3190556e-18)
(0.10303411 2.4150284e-06 3.2387809e-18)