/*--------------------------------*- C++ -*----------------------------------*\
| =========                 |                                                 |
| \\      /  F ield         | OpenFOAM: The Open Source CFD Toolbox           |
|  \\    /   O peration     | Version:  v2006                                 |
|   \\  /    A nd           | Website:  www.openfoam.com                      |
|    \\/     M anipulation  |                                                 |
\*---------------------------------------------------------------------------*/
FoamFile
{
    version     2.0;
    format      ascii;
    class       volVectorField;
    location    "1000";
    object      wallShearStress;
}
// * * * * * * * * * * * * * * * * * * * * * * * * * * * * * * * * * * * * * //

dimensions      [1 -1 -2 0 0 0 0];


internalField   uniform (0 0 0);

boundaryField
{
    Side
    {
        type            empty;
    }
    Ground
    {
        type            calculated;
        value           uniform (0 0 0);
    }
    Inlet
    {
        type            calculated;
        value           uniform (0 0 0);
    }
    Airfoil
    {
        type            calculated;
        value           nonuniform List<vector> 
527
(
(4.6859349e-06 2.0333938e-06 -2.6713058e-20)
(3.371003e-06 1.1603997e-06 3.7014302e-20)
(3.585384e-06 8.6212631e-07 1.9156572e-20)
(2.8035429e-06 7.5410693e-07 -1.9921886e-20)
(3.0280532e-06 8.2450235e-07 -2.0301689e-20)
(2.9364588e-06 7.8012321e-07 2.0717596e-20)
(2.9544998e-06 7.58953e-07 1.0257447e-23)
(2.9344721e-06 7.4327765e-07 -1.0435005e-23)
(2.9753335e-06 7.4770229e-07 -1.0403974e-27)
(2.9902388e-06 7.4607011e-07 6.6084823e-37)
(3.0174747e-06 7.3397797e-07 5.8774718e-39)
(3.0262819e-06 7.2227559e-07 1.124225e-20)
(3.0456773e-06 7.1292753e-07 -1.1373434e-20)
(3.0592723e-06 7.0220509e-07 -1.1529231e-20)
(3.0738833e-06 6.9806223e-07 1.1656893e-20)
(3.0915376e-06 6.8764762e-07 5.8774718e-39)
(3.1020041e-06 6.8149543e-07 0)
(3.1201773e-06 6.6909706e-07 -1.1985511e-20)
(3.1277145e-06 6.6075702e-07 -2.3686414e-23)
(3.1444511e-06 6.4445108e-07 1.2246202e-20)
(3.1504286e-06 6.3625614e-07 1.2337194e-20)
(3.1595322e-06 6.1347113e-07 -1.2450051e-20)
(3.1677407e-06 6.0483446e-07 -1.2568192e-20)
(3.1627655e-06 5.7777776e-07 -2.4853367e-23)
(3.1733736e-06 5.673e-07 2.7749945e-27)
(3.1547437e-06 5.4559479e-07 -2.5276292e-23)
(3.1581241e-06 5.2693025e-07 2.5483011e-23)
(3.1412327e-06 5.1107319e-07 1.3140365e-20)
(3.1204753e-06 4.8266691e-07 5.1941451e-23)
(3.1159507e-06 4.6606855e-07 1.3372026e-20)
(3.0758281e-06 4.4069402e-07 -1.3501574e-20)
(3.0545781e-06 4.1246138e-07 -1.361504e-20)
(3.027756e-06 3.8884492e-07 -1.3747817e-20)
(2.9511101e-06 3.4870767e-07 -1.3849197e-20)
(2.933211e-06 3.1680821e-07 -1.3946175e-20)
(2.8667469e-06 2.8733619e-07 5.4983079e-23)
(2.7314164e-06 2.3156054e-07 -2.4813853e-27)
(2.7246255e-06 1.9831546e-07 1.4236094e-20)
(2.6108604e-06 1.6075127e-07 0)
(2.4387521e-06 9.7705606e-08 -7.2166604e-21)
(2.4148226e-06 6.0931936e-08 -5.7184375e-23)
(2.2811502e-06 2.2540879e-08 7.3654462e-21)
(2.0919922e-06 -4.0176931e-08 7.3880553e-21)
(2.0163196e-06 -8.5492986e-08 1.1707654e-22)
(1.8941067e-06 -1.2545551e-07 7.4790522e-21)
(1.689074e-06 -1.8772682e-07 7.9492805e-37)
(1.5215098e-06 -2.4610232e-07 5.9892037e-23)
(1.4623227e-06 -2.8742581e-07 -7.7104745e-21)
(1.1901852e-06 -3.483533e-07 -7.908853e-21)
(8.9888461e-07 -4.1861969e-07 -7.7813244e-21)
(8.6791307e-07 -4.6997006e-07 -1.4693679e-39)
(5.9915696e-07 -5.4326517e-07 -3.6267846e-40)
(2.2252495e-07 -6.3414111e-07 4.5458571e-39)
(-9.3531384e-09 -7.0741185e-07 -6.2986807e-23)
(-3.394976e-08 -7.8182922e-07 8.2728784e-21)
(-5.1341528e-07 -8.6057685e-07 -8.1738387e-21)
(-1.0217457e-06 -9.4913754e-07 -6.4237252e-23)
(-1.0473055e-06 -1.004852e-06 0)
(-1.2664843e-06 -1.0835252e-06 -6.4978739e-23)
(-1.7556761e-06 -1.1571909e-06 8.4226119e-21)
(-2.1795005e-06 -1.2285527e-06 -6.5731636e-23)
(-2.2570218e-06 -1.296173e-06 6.5985611e-23)
(-2.5353998e-06 -1.3758505e-06 -4.4425421e-38)
(-3.0291303e-06 -1.4471577e-06 2.1696136e-39)
(-3.4104726e-06 -1.5169315e-06 6.6975199e-23)
(-3.5436074e-06 -1.5956883e-06 -6.7608259e-23)
(-3.8495573e-06 -1.6857705e-06 -6.7816929e-23)
(-4.4440124e-06 -1.7588644e-06 8.7830615e-21)
(-4.8944918e-06 -1.8302338e-06 8.3753972e-38)
(-5.0431596e-06 -1.9165454e-06 -1.4693679e-38)
(-5.3219448e-06 -2.0282841e-06 -4.3669692e-21)
(-6.1362155e-06 -2.0943593e-06 -6.6970689e-27)
(-6.8235555e-06 -2.1511741e-06 -6.5235151e-27)
(-6.9191902e-06 -2.2353806e-06 -9.0891055e-21)
(-7.0364851e-06 -2.3797879e-06 -7.0740271e-23)
(-8.0188053e-06 -2.436948e-06 1.4175759e-22)
(-9.0765338e-06 -2.4584777e-06 -4.7114229e-21)
(-9.0937393e-06 -2.548338e-06 -4.4427792e-21)
(-9.2813198e-06 -2.6695081e-06 -7.8083861e-27)
(-9.8957654e-06 -2.7619419e-06 -1.4498695e-22)
(-1.0980405e-05 -2.7781679e-06 7.2621103e-23)
(-1.1476088e-05 -2.8252418e-06 7.3294372e-23)
(-1.159954e-05 -2.9189614e-06 4.635658e-21)
(-1.1753681e-05 -3.0740433e-06 9.4750427e-21)
(-1.279723e-05 -3.099642e-06 -4.7582921e-21)
(-1.3832745e-05 -3.0888372e-06 6.6964966e-27)
(-1.3840715e-05 -3.1936924e-06 3.7589613e-23)
(-1.4075358e-05 -3.3117568e-06 -3.7806948e-23)
(-1.4563885e-05 -3.4284472e-06 4.8542529e-21)
(-1.5704242e-05 -3.4255306e-06 -4.8870127e-21)
(-1.6445568e-05 -3.4401068e-06 -3.8305092e-23)
(-1.6536773e-05 -3.5475377e-06 -4.8967364e-21)
(-1.6716029e-05 -3.7047381e-06 4.9718658e-21)
(-1.7552508e-05 -3.7780682e-06 -1.6163047e-38)
(-1.8937099e-05 -3.7179379e-06 -4.9713267e-21)
(-1.9488806e-05 -3.7438531e-06 9.9889046e-21)
(-1.9568665e-05 -3.8564234e-06 -5.0188974e-21)
(-1.9681886e-05 -4.0465753e-06 3.9885376e-23)
(-2.0766233e-05 -4.0805635e-06 -5.1497238e-21)
(-2.2389412e-05 -3.9551249e-06 -1.1167196e-37)
(-2.2826738e-05 -3.9842593e-06 2.5826049e-21)
(-2.2874073e-05 -4.0991903e-06 2.6340687e-21)
(-2.2959573e-05 -4.291177e-06 2.6175279e-21)
(-2.4013804e-05 -4.3205436e-06 2.5822074e-21)
(-2.5722147e-05 -4.1555552e-06 -2.5874798e-21)
(-2.6253147e-05 -4.1548943e-06 -8.5019723e-27)
(-2.6260251e-05 -4.2667423e-06 2.6206843e-21)
(-2.6343863e-05 -4.4365331e-06 -1.8367099e-39)
(-2.7110447e-05 -4.5195507e-06 -3.7064232e-38)
(-2.8846814e-05 -4.3442256e-06 -1.855077e-37)
(-2.9736755e-05 -4.2695121e-06 -2.7177238e-21)
(-2.9679854e-05 -4.3823138e-06 2.7336698e-21)
(-2.9784715e-05 -4.5104152e-06 -2.7466207e-21)
(-3.0044418e-05 -4.7032739e-06 4.3316438e-23)
(-3.1761258e-05 -4.5406575e-06 -4.8244105e-27)
(-3.324919e-05 -4.3409023e-06 -2.8280716e-21)
(-3.3066266e-05 -4.4740357e-06 5.6163355e-21)
(-3.3232894e-05 -4.5667521e-06 2.7776873e-21)
(-3.3356122e-05 -4.7495391e-06 4.4402066e-23)
(-3.447446e-05 -4.7249634e-06 4.4602962e-23)
(-3.6066653e-05 -4.5334346e-06 -8.9408114e-23)
(-3.6492811e-05 -4.5543707e-06 -2.8365913e-21)
(-3.6627983e-05 -4.6458353e-06 -1.0799854e-37)
(-3.6809967e-05 -4.7664523e-06 -5.8290907e-21)
(-3.712575e-05 -4.9419709e-06 2.8924127e-21)
(-3.8679848e-05 -4.8024855e-06 9.2015664e-23)
(-4.0079471e-05 -4.6341464e-06 -4.617279e-23)
(-4.0034947e-05 -4.767834e-06 2.9811217e-21)
(-4.0291327e-05 -4.8586999e-06 -4.6832426e-23)
(-4.043843e-05 -5.0499151e-06 9.4131289e-23)
(-4.1357682e-05 -5.1291305e-06 -3.0812835e-21)
(-4.3528677e-05 -4.8505524e-06 1.5178644e-21)
(-4.4752179e-05 -4.7070327e-06 1.4762471e-21)
(-4.4651095e-05 -4.8457207e-06 1.5860862e-21)
(-4.4778741e-05 -4.9701095e-06 1.5943254e-21)
(-4.4770582e-05 -5.2629708e-06 1.50596e-21)
(-4.6453347e-05 -5.2102559e-06 1.5618607e-21)
(-4.9612957e-05 -4.6888284e-06 -4.8777088e-23)
(-5.0674117e-05 -4.5419805e-06 4.8969232e-23)
(-5.0379811e-05 -4.6991254e-06 -4.9426441e-23)
(-5.0377284e-05 -4.8382369e-06 1.590834e-21)
(-5.0246537e-05 -5.1757502e-06 1.0000636e-22)
(-5.221812e-05 -5.0654863e-06 1.6050914e-21)
(-5.5944708e-05 -4.389305e-06 -1.6538548e-21)
(-5.706636e-05 -4.2061489e-06 1.6098897e-21)
(-5.6632592e-05 -4.3881583e-06 2.8698593e-42)
(-5.671592e-05 -4.4907172e-06 1.6346261e-21)
(-5.6747336e-05 -4.715496e-06 -1.1938615e-37)
(-5.7903637e-05 -4.7408864e-06 -1.5987461e-21)
(-6.0612418e-05 -4.317045e-06 -5.1684723e-23)
(-6.1992813e-05 -4.1317294e-06 5.1887468e-23)
(-6.1803829e-05 -4.3055061e-06 -3.3900339e-27)
(-6.2151996e-05 -4.3809223e-06 -5.2639912e-23)
(-6.249912e-05 -4.4949703e-06 2.0651507e-38)
(-6.3032406e-05 -4.6146986e-06 2.6565531e-23)
(-6.4335178e-05 -4.5394452e-06 -2.671617e-23)
(-6.5493029e-05 -4.4851088e-06 -8.3235975e-22)
(-6.5748328e-05 -4.6219469e-06 -2.6988022e-23)
(-6.6259284e-05 -4.7023692e-06 8.6870449e-22)
(-6.6527097e-05 -4.8676426e-06 2.2040519e-39)
(-6.6657163e-05 -5.194872e-06 -9.0765542e-22)
(-6.9049888e-05 -4.9727313e-06 9.0683971e-22)
(-7.2266169e-05 -4.4887169e-06 -1.7372489e-21)
(-7.2394649e-05 -4.6133372e-06 -5.5465738e-23)
(-7.2113565e-05 -4.8003761e-06 -8.6509246e-22)
(-7.1827236e-05 -4.9987134e-06 -8.7077935e-22)
(-7.0644899e-05 -5.6112218e-06 9.0824507e-22)
(-7.1504778e-05 -6.2579647e-06 8.8110234e-22)
(-8.3028326e-05 -4.3957665e-06 -2.7787992e-23)
(-9.1157795e-05 -1.9555004e-06 -4.1579675e-22)
(-8.5541343e-05 -3.0520299e-06 2.7987006e-23)
(-8.3941117e-05 -3.2238582e-06 -2.8323229e-23)
(-8.1456992e-05 -3.7526242e-06 2.8612004e-23)
(-7.817842e-05 -4.9633628e-06 -2.8983399e-23)
(-8.4483351e-05 -4.4276777e-06 4.5658189e-22)
(-0.0001042889 3.2819718e-07 3.3290367e-40)
(-0.00011084255 2.6612356e-06 -2.4630677e-22)
(-0.00010123297 1.0787095e-06 -8.3208896e-23)
(-9.790021e-05 7.9670786e-07 -4.0752001e-40)
(-9.3016004e-05 -7.0854399e-08 0)
(-8.6986844e-05 -1.88307e-06 -1.4231938e-46)
(-9.8076776e-05 -2.2383614e-07 2.5741192e-28)
(-0.00012172912 6.764524e-06 5.2137411e-40)
(-0.00012301139 8.4081454e-06 1.3591653e-38)
(-0.00011361106 6.6559243e-06 -8.8157485e-22)
(-0.00010902915 6.1451936e-06 2.2775203e-38)
(-0.00010351412 5.1368156e-06 9.1408378e-22)
(-9.7147463e-05 3.5005846e-06 -4.2244328e-39)
(-0.00010490582 4.7570802e-06 2.8408737e-23)
(-0.00012465346 1.1223794e-05 -2.7403159e-23)
(-0.00012618286 1.2935048e-05 -9.0135752e-22)
(-0.0001163031 1.0934657e-05 5.5591143e-23)
(-0.00011122673 1.0245539e-05 -2.8403135e-23)
(-0.00010543702 9.1352154e-06 9.5575598e-22)
(-9.7807778e-05 7.4112453e-06 9.4957715e-22)
(-0.00010025097 7.7965015e-06 -2.9152316e-23)
(-0.00012804629 1.577041e-05 -8.3980217e-22)
(-0.00014085405 2.168355e-05 1.5435657e-26)
(-0.00012417763 1.765151e-05 -2.7294522e-23)
(-0.0001181971 1.6803535e-05 -7.3468397e-40)
(-0.00011213873 1.5623134e-05 1.8696565e-21)
(-0.00010503707 1.4010765e-05 -2.9413229e-23)
(-9.9211608e-05 1.2684179e-05 -1.9120772e-21)
(-0.00011736912 1.7805231e-05 -1.3959165e-23)
(-0.00013654932 2.5300117e-05 1.3690003e-23)
(-0.00012626944 2.333471e-05 -6.5203202e-39)
(-0.00011836473 2.1675758e-05 0)
(-0.0001124641 2.0474339e-05 -1.4693679e-39)
(-0.00010742047 1.9336303e-05 -1.8921188e-21)
(-0.0001014024 1.785544e-05 1.6759978e-38)
(-9.9100878e-05 1.7416158e-05 -1.921415e-21)
(-0.00011544277 2.2664553e-05 1.8236809e-21)
(-0.00012549104 2.7408735e-05 1.799891e-21)
(-0.00011228209 2.3796894e-05 1.4693679e-39)
(-0.00010760632 2.2909565e-05 4.223096e-27)
(-0.00010242147 2.1679592e-05 1.9576612e-21)
(-9.8028282e-05 2.0539789e-05 1.9827041e-21)
(-9.2469167e-05 1.9107981e-05 -1.5830938e-23)
(-9.1647553e-05 1.9313595e-05 -2.0238225e-21)
(-0.00011056743 2.5413136e-05 1.8776088e-21)
(-0.0001212204 3.055905e-05 0)
(-0.00010715944 2.6472623e-05 1.8841352e-21)
(-0.00010271065 2.5549345e-05 1.5299461e-23)
(-9.7544375e-05 2.4215043e-05 3.347722e-27)
(-9.3544602e-05 2.3102954e-05 1.5969105e-23)
(-8.8890313e-05 2.1832895e-05 2.0701071e-21)
(-8.6863467e-05 2.1742249e-05 0)
(-9.8373417e-05 2.5660255e-05 -1.5408302e-23)
(-0.00010901025 3.0233784e-05 1.5332313e-23)
(-0.00010181692 2.851818e-05 -1.9580035e-21)
(-9.6004788e-05 2.6954039e-05 -1.5862652e-23)
(-9.1571298e-05 2.5763263e-05 1.6245983e-23)
(-8.786461e-05 2.4701939e-05 2.1054835e-21)
(-8.4421116e-05 2.3629309e-05 -4.4081038e-38)
(-8.1044011e-05 2.2721714e-05 -1.79514e-44)
(-8.1783886e-05 2.3587221e-05 9.6844297e-40)
(-9.2397942e-05 2.7342334e-05 2.9387359e-39)
(-9.6981691e-05 2.9876246e-05 -2.0837289e-21)
(-8.7955528e-05 2.700621e-05 -2.9261817e-27)
(-8.4765793e-05 2.616915e-05 -2.796359e-27)
(-8.1004046e-05 2.5034499e-05 3.4751271e-23)
(-7.8090876e-05 2.4124327e-05 -3.5425093e-23)
(-7.527485e-05 2.3164378e-05 1.8035409e-23)
(-7.2595233e-05 2.2365864e-05 -4.7018368e-21)
(-7.4093688e-05 2.3708157e-05 2.295007e-21)
(-8.5993985e-05 2.7753489e-05 1.4693679e-38)
(-9.1475687e-05 3.1005759e-05 2.1499673e-21)
(-8.2203891e-05 2.7882452e-05 -2.9387359e-39)
(-7.9463799e-05 2.7121339e-05 4.5535828e-21)
(-7.5980025e-05 2.5994428e-05 -5.8774718e-39)
(-7.3424171e-05 2.5149735e-05 1.4693679e-39)
(-7.1054541e-05 2.4336609e-05 -1.204302e-21)
(-6.9031204e-05 2.370843e-05 1.2228872e-21)
(-6.851333e-05 2.3863355e-05 -2.9387359e-39)
(-7.2488185e-05 2.5608845e-05 9.2421292e-24)
(-7.7217891e-05 2.7733894e-05 1.1670462e-21)
(-7.5209182e-05 2.7347807e-05 1.1824664e-21)
(-7.1407578e-05 2.6053012e-05 0)
(-6.9098048e-05 2.5282698e-05 -1.2351137e-21)
(-6.6878991e-05 2.4519736e-05 -2.6448623e-38)
(-6.5006306e-05 2.3863354e-05 -5.8774718e-39)
(-6.3353949e-05 2.3273039e-05 1.2950319e-21)
(-6.2021301e-05 2.286949e-05 -1.0240177e-23)
(-6.1997557e-05 2.3168966e-05 1.3232316e-21)
(-6.5138901e-05 2.462602e-05 -1.9798397e-23)
(-6.8760426e-05 2.6269248e-05 9.8479676e-24)
(-6.7415383e-05 2.5971709e-05 -4.9526329e-24)
(-6.4376617e-05 2.4898226e-05 1.306332e-21)
(-6.2575127e-05 2.426731e-05 1.3192312e-27)
(-6.0776932e-05 2.3619342e-05 -5.2378571e-24)
(-5.9251217e-05 2.306363e-05 -1.3607182e-21)
(-5.796218e-05 2.2586689e-05 2.7591406e-21)
(-5.7044844e-05 2.2248736e-05 -1.7632415e-38)
(-5.6671159e-05 2.2332047e-05 -1.1754944e-38)
(-5.8582832e-05 2.3684905e-05 2.7017535e-21)
(-6.4928518e-05 2.6368839e-05 4.9961721e-24)
(-6.8712874e-05 2.824207e-05 1.279695e-21)
(-6.4295482e-05 2.6648815e-05 5.1390068e-24)
(-6.2664689e-05 2.6065613e-05 -2.0571151e-38)
(-6.0748133e-05 2.5354473e-05 -1.3663467e-21)
(-5.935349e-05 2.482802e-05 2.1083825e-28)
(-5.8064435e-05 2.4343826e-05 -2.7487039e-24)
(-5.6997199e-05 2.3949939e-05 -1.1479437e-40)
(-5.6147735e-05 2.3653391e-05 -2.9903933e-39)
(-5.5595431e-05 2.3542847e-05 5.6051939e-45)
(-5.5786513e-05 2.3855252e-05 1.7066107e-27)
(-5.7447863e-05 2.4794898e-05 3.4483153e-41)
(-5.9506756e-05 2.5731557e-05 2.9387359e-39)
(-5.9005384e-05 2.5548182e-05 -7.0543544e-22)
(-5.7085386e-05 2.4810561e-05 7.1661099e-22)
(-5.6015989e-05 2.4394357e-05 1.4217249e-24)
(-5.4876568e-05 2.3945623e-05 7.387648e-22)
(-5.3916928e-05 2.3565324e-05 -1.4565297e-24)
(-5.3017516e-05 2.3216556e-05 -7.543399e-22)
(-5.2250942e-05 2.2938377e-05 -3.3731031e-29)
(-5.1705458e-05 2.2760706e-05 -1.5334723e-21)
(-5.1450649e-05 2.2721626e-05 7.6857933e-22)
(-5.1596737e-05 2.2998065e-05 -2.9387359e-39)
(-5.2898257e-05 2.394313e-05 -1.7949302e-25)
(-5.5641443e-05 2.5225061e-05 1.7778599e-25)
(-5.6853894e-05 2.5689375e-05 -5.8774718e-39)
(-5.4127891e-05 2.4641521e-05 7.5056352e-22)
(-5.3249845e-05 2.4281295e-05 -7.6326964e-22)
(-5.1947393e-05 2.3750622e-05 3.7810445e-25)
(-5.0994273e-05 2.3355322e-05 1.4349296e-42)
(-5.0065893e-05 2.2973641e-05 7.7554547e-25)
(-4.9270354e-05 2.2654437e-05 2.966891e-29)
(-4.8593529e-05 2.2402321e-05 -7.9173926e-25)
(-4.8115911e-05 2.2252839e-05 8.1716991e-22)
(-4.7910162e-05 2.2225477e-05 -8.1898863e-22)
(-4.7989474e-05 2.2377907e-05 1.6324728e-21)
(-4.8536103e-05 2.2890105e-05 -1.573216e-24)
(-5.0023936e-05 2.3863683e-05 1.5410182e-24)
(-5.2043482e-05 2.4819715e-05 -3.9006287e-22)
(-5.2433267e-05 2.4905434e-05 5.8774718e-39)
(-5.0500219e-05 2.4162591e-05 7.9749398e-22)
(-4.9732588e-05 2.3845377e-05 1.583609e-24)
(-4.8736568e-05 2.3431745e-05 -4.1241129e-22)
(-4.8006616e-05 2.3122833e-05 1.6227826e-24)
(-4.7316466e-05 2.2832337e-05 4.1955512e-22)
(-4.6734858e-05 2.2591531e-05 -4.2502355e-22)
(-4.6234398e-05 2.2390315e-05 1.6666835e-24)
(-4.5829968e-05 2.2240219e-05 1.6772711e-24)
(-4.5537256e-05 2.2153162e-05 -1.6857018e-24)
(-4.5395821e-05 2.2137352e-05 2.4336406e-39)
(-4.5407585e-05 2.220367e-05 0)
(-4.5582483e-05 2.2401356e-05 -1.1467215e-27)
(-4.604136e-05 2.2806412e-05 -4.2647877e-22)
(-4.694391e-05 2.3383993e-05 1.6359522e-24)
(-4.7943313e-05 2.3808964e-05 4.1713149e-22)
(-4.7939422e-05 2.3729428e-05 0)
(-4.6992759e-05 2.3369189e-05 -1.6582238e-24)
(-4.6581903e-05 2.3212509e-05 -4.2634806e-22)
(-4.6152552e-05 2.3053825e-05 2.1367936e-22)
(-4.5946079e-05 2.3004347e-05 3.3755549e-24)
(-4.5885289e-05 2.3039509e-05 -3.3705226e-24)
(-4.6022273e-05 2.3194126e-05 1.6770008e-24)
(-4.6381138e-05 2.3494737e-05 -5.8774718e-39)
(-4.7003849e-05 2.3973658e-05 4.206166e-22)
(-4.7928748e-05 2.466507e-05 -4.1283521e-22)
(-4.9199285e-05 2.561051e-05 2.0107556e-22)
(-5.0880728e-05 2.6855934e-05 -1.9581715e-22)
(-5.3029862e-05 2.8417933e-05 7.3459391e-25)
(-5.5587005e-05 3.0289593e-05 1.8023076e-22)
(-5.8582476e-05 3.2582338e-05 3.4324399e-22)
(-6.2660957e-05 3.5308978e-05 3.1866272e-25)
(-6.7629366e-05 3.7527923e-05 -9.6176339e-27)
(-6.9673649e-05 3.9188841e-05 -1.467621e-22)
(-7.1060391e-05 4.4637875e-05 6.7370358e-26)
(-3.8820802e-05 -3.9270387e-06 -3.6734198e-40)
(-3.5626735e-05 -3.2944336e-06 -3.0670828e-24)
(-3.6569544e-05 -3.1663774e-06 3.0716654e-24)
(-3.4783786e-05 -2.4762563e-06 -6.3007561e-21)
(-3.2867387e-05 -2.0006192e-06 2.6246585e-37)
(-3.1761699e-05 -1.6430248e-06 -3.088678e-24)
(-2.97876e-05 -1.2277589e-06 -6.3331225e-21)
(-2.8473254e-05 -1.0790765e-06 3.1702046e-21)
(-2.8162512e-05 -1.0443008e-06 3.1792476e-21)
(-2.7622947e-05 -9.8679028e-07 -3.17833e-21)
(-2.7126125e-05 -9.450547e-07 -3.1059055e-24)
(-2.6756388e-05 -9.242408e-07 -3.1820413e-21)
(-2.6617618e-05 -9.3258693e-07 1.5542419e-24)
(-2.6615169e-05 -9.3104648e-07 3.1854256e-21)
(-2.650162e-05 -8.9734913e-07 3.1844583e-21)
(-2.6462353e-05 -8.5489624e-07 -6.3700805e-21)
(-2.6123057e-05 -7.4162798e-07 3.9335202e-30)
(-2.5596417e-05 -6.4081363e-07 -3.1870231e-21)
(-2.5356003e-05 -5.7015445e-07 3.1880295e-21)
(-2.5125658e-05 -4.9114712e-07 -3.1887978e-21)
(-2.4702846e-05 -4.020655e-07 -1.5948615e-21)
(-2.4413902e-05 -3.5222907e-07 -1.5953467e-21)
(-2.438324e-05 -3.0747449e-07 3.1919813e-21)
(-2.4126427e-05 -2.3717399e-07 -1.5584554e-24)
(-2.3901707e-05 -1.9843539e-07 -7.9692837e-22)
(-2.4013932e-05 -1.627703e-07 -7.9855118e-22)
(-2.373512e-05 -7.2955997e-08 3.9911712e-22)
(-2.33318e-05 -1.3989509e-08 -9.9806416e-23)
(-2.3316458e-05 3.5355424e-08 -7.892113e-42)
(-2.2940647e-05 1.1576649e-07 7.9868901e-22)
(-2.2611466e-05 1.507011e-07 -1.5978079e-21)
(-2.2680164e-05 1.8407211e-07 -7.989771e-22)
(-2.2480274e-05 2.4274206e-07 -1.5980733e-21)
(-2.2177731e-05 2.8553654e-07 2.1219739e-38)
(-2.2174372e-05 3.299532e-07 3.4438311e-41)
(-2.1771686e-05 4.1026235e-07 1.5979613e-21)
(-2.1291863e-05 4.4596477e-07 -3.1984792e-21)
(-2.1205974e-05 4.8553046e-07 3.1997862e-21)
(-2.0897017e-05 5.3009626e-07 -3.1994639e-21)
(-2.0586256e-05 5.5685175e-07 -3.2001508e-21)
(-2.0479881e-05 5.8931002e-07 -1.9373066e-37)
(-2.01896e-05 6.3944835e-07 -3.1994524e-21)
(-1.9677786e-05 6.8274585e-07 -3.2018506e-21)
(-1.9232104e-05 7.176101e-07 -3.2043731e-21)
(-1.8796191e-05 7.6421101e-07 1.5644051e-24)
(-1.7923788e-05 8.0451635e-07 -3.1299168e-24)
(-1.7013209e-05 8.0422117e-07 -1.2826045e-20)
(-1.6258316e-05 8.0100697e-07 -6.4172266e-21)
(-1.5334725e-05 7.5614313e-07 -5.0222537e-42)
(-1.4716161e-05 6.8671017e-07 -6.4277922e-21)
(-1.4292169e-05 6.0812122e-07 -2.6543038e-28)
(-1.3939246e-05 5.1150108e-07 3.2180569e-21)
(-1.3565926e-05 3.8788158e-07 -3.2159912e-21)
(-1.3776683e-05 2.2652419e-07 -3.2162336e-21)
(-1.432155e-05 7.4161426e-08 3.1408128e-24)
(-1.4663465e-05 -1.2149567e-07 -6.281152e-24)
(-1.5288663e-05 -3.4432227e-07 3.1399351e-24)
(-1.6213529e-05 -6.0683343e-07 3.2111778e-21)
(-1.7312533e-05 -9.1749126e-07 3.1378062e-24)
(-1.8585382e-05 -1.2687385e-06 -6.4264041e-21)
(-1.9955425e-05 -1.6602288e-06 3.1348324e-24)
(-2.1675664e-05 -2.1049575e-06 -1.2835348e-20)
(-2.3289137e-05 -2.6019375e-06 3.1306732e-24)
(-2.6225241e-05 -3.2428337e-06 1.2803694e-20)
(-2.8306915e-05 -3.9795456e-06 -1.2788819e-20)
(-3.5849875e-05 -4.9448535e-06 6.238675e-24)
(-2.9783533e-05 -5.0831206e-06 1.2730776e-20)
(-6.5794741e-05 -1.0675467e-05 -5.7268615e-37)
(-5.3865427e-05 6.1742574e-06 6.0783936e-21)
(-0.0001255807 -9.205541e-05 -8.9419025e-22)
(-9.1758004e-05 -5.8225035e-05 3.3155175e-23)
(-9.2190947e-05 -5.5325757e-05 -5.9511424e-27)
(-0.00010688241 -6.2164008e-05 -3.5726047e-21)
(-0.00016737455 -0.00010492674 1.498191e-21)
(-0.00013929579 -6.6627099e-05 -1.4669744e-21)
(-1.1057542e-05 5.1563604e-06 -5.8774718e-39)
(-8.1540742e-06 3.2205561e-06 4.6265283e-21)
(-1.412797e-05 -2.1077017e-06 3.6734198e-38)
(1.6034607e-05 7.5491684e-06 3.7232309e-21)
(5.7670019e-06 5.3955236e-06 2.1248934e-26)
(-9.021142e-06 1.2734103e-06 1.3987996e-26)
(-1.79719e-05 -8.9922562e-07 -2.0199875e-23)
(-2.870227e-05 -3.6035727e-06 -4.6240648e-21)
(-3.535552e-05 -5.015987e-06 -4.2107545e-21)
(-3.6171351e-05 -4.8533206e-06 -3.8658659e-21)
(-3.6811313e-05 -5.0051342e-06 -1.3970301e-23)
(-4.2117441e-05 -6.1741028e-06 -6.4465949e-24)
(-3.9896786e-05 -4.8848838e-06 -6.0060171e-21)
(-3.6491687e-05 -4.2963575e-06 5.5268e-24)
(-4.0679336e-05 -5.14299e-06 5.3701348e-21)
(-5.8233781e-06 -4.221425e-05 4.6998334e-22)
(-5.3148563e-06 -4.0121355e-05 3.6734198e-40)
(-7.2428288e-06 -4.9772585e-05 8.9666108e-22)
(-1.0087842e-05 -6.2986417e-05 -8.5194496e-22)
(-1.4126672e-05 -6.2576029e-05 -8.2167413e-22)
(-1.437496e-05 -6.2456227e-05 8.0037386e-22)
(-1.7491769e-05 -7.3425245e-05 -1.4693679e-39)
(-2.1029643e-05 -8.4992938e-05 2.1495293e-23)
(-2.9279842e-05 -0.0001177925 -6.2914288e-22)
(-4.1154677e-05 -0.00011856314 -3.77131e-23)
(-3.8034422e-05 -8.6865172e-05 1.1098137e-27)
(-3.7541845e-05 -7.814674e-05 -1.3528476e-21)
(-4.5126024e-05 -9.1325323e-05 1.2818576e-21)
(-5.5729507e-05 -0.00011150069 1.167333e-21)
(-5.8382018e-05 -0.00010571848 0)
(-5.6708181e-05 -9.7905608e-05 2.2968449e-21)
(-6.6481004e-05 -0.00011159177 -1.5655271e-26)
(-7.7366461e-05 -0.00012497178 2.9003781e-23)
(-0.00011178624 -0.00018631938 -3.2310115e-21)
(-0.00011089253 -0.00014422635 -2.5424976e-23)
(-6.7000872e-05 -7.0012722e-05 4.4290854e-21)
(-7.1446561e-05 -7.0322169e-05 -2.3509887e-38)
(-9.0053594e-05 -8.9111051e-05 0)
(-0.00012046278 -0.00012255507 0)
(-0.00010672657 -9.6890485e-05 -2.8177328e-23)
(-7.3638224e-05 -5.7222669e-05 3.5352903e-23)
(-8.1252903e-05 -6.081669e-05 2.1760997e-21)
(-9.5862526e-05 -7.0922114e-05 -1.8705806e-21)
(-0.00013297607 -0.00010385858 -2.9387359e-39)
(6.7287293e-07 -3.8655171e-05 2.9571156e-23)
(6.0341825e-07 -2.1127717e-05 -5.4713708e-22)
(4.6772993e-07 -1.5444064e-05 3.6734198e-40)
(2.8442418e-07 -8.5116331e-06 2.9387359e-39)
(-2.4928149e-07 -1.9667439e-06 -1.2340153e-21)
(-7.6959392e-07 4.4428633e-06 -1.231476e-21)
(-1.8200373e-06 9.2271916e-06 -1.1346954e-21)
(-2.9270166e-06 1.4765863e-05 -1.2856969e-39)
(-4.5888727e-06 2.0162379e-05 -8.6444428e-22)
(-5.9516486e-06 3.1399554e-05 3.7792607e-27)
(-1.0067018e-05 3.5506776e-05 1.5851963e-21)
(-1.2514059e-05 3.3923066e-05 -1.1754944e-38)
(-1.4279188e-05 3.5618894e-05 2.3220693e-23)
(-1.631865e-05 3.9990024e-05 -2.1207273e-23)
(-1.8752905e-05 4.439759e-05 6.2280957e-22)
(-2.1280302e-05 5.3169528e-05 -5.7725014e-22)
(-2.4385605e-05 5.6247731e-05 -1.1045344e-21)
(-2.6044588e-05 5.3057778e-05 -5.6966711e-22)
(-2.7767837e-05 5.3060764e-05 -5.3901958e-22)
(-3.0274548e-05 5.6306774e-05 -4.8294556e-22)
(-3.3270103e-05 6.0809504e-05 4.3966437e-22)
(-3.71534e-05 6.738745e-05 -1.2776019e-23)
(-4.2121074e-05 7.3393771e-05 -6.9886017e-22)
(-4.8062231e-05 9.3649378e-05 3.2855788e-22)
(-5.2849899e-05 9.6065908e-05 -1.1904373e-23)
(-4.7564262e-05 6.2669469e-05 1.5722988e-23)
(-4.3835351e-05 5.0036828e-05 -5.8832297e-22)
(-4.4373455e-05 4.9344539e-05 -9.6141135e-24)
(-4.7735834e-05 5.1124564e-05 5.8809984e-22)
(-5.1799394e-05 5.5259477e-05 -5.8774718e-39)
(-5.6807888e-05 6.0697651e-05 0)
(-6.300819e-05 7.0294932e-05 0)
(-6.7328484e-05 8.1154011e-05 4.5306312e-22)
(-6.2266465e-05 7.0077241e-05 8.3960887e-24)
(-5.2296905e-05 4.7187666e-05 -6.8396178e-22)
(-4.7773475e-05 3.9032474e-05 7.9189656e-22)
(-4.7176778e-05 3.691442e-05 8.430181e-22)
(-4.9044667e-05 3.7101042e-05 8.081409e-22)
(-5.2056913e-05 3.9515402e-05 2.4179516e-23)
(-5.5138061e-05 4.3231668e-05 3.5108364e-22)
(-5.8504056e-05 4.7267733e-05 6.7768576e-22)
(-6.2737328e-05 5.1301817e-05 0)
(-6.8038625e-05 5.7304245e-05 -9.1350077e-24)
(-7.1967582e-05 6.7702834e-05 -2.9621289e-22)
(-6.6095975e-05 6.0571669e-05 7.2356927e-22)
(-5.154071e-05 3.7488932e-05 -1.4550627e-23)
(-4.4185555e-05 2.7568098e-05 -5.6318302e-22)
(-4.0834125e-05 2.2805332e-05 6.7396935e-22)
(-4.0058278e-05 2.0116309e-05 -6.991207e-22)
(-4.0168495e-05 1.9921775e-05 2.1327893e-23)
(-4.0706043e-05 2.0737927e-05 1.3115098e-21)
(-4.1410337e-05 2.2097361e-05 6.466575e-22)
(-4.2491844e-05 2.3584079e-05 1.2522145e-21)
(-4.3964708e-05 2.5170363e-05 -1.8904114e-23)
(-4.5892282e-05 2.6968977e-05 1.8203143e-23)
(-4.8280996e-05 2.8740692e-05 2.7998711e-22)
(-5.0860108e-05 3.1072701e-05 1.6722647e-23)
(-5.2715387e-05 3.4313579e-05 -1.6306888e-23)
(-5.9670824e-05 2.2997648e-05 2.3245712e-22)
)
;
    }
    Outlet
    {
        type            calculated;
        value           uniform (0 0 0);
    }
}


// ************************************************************************* //
