/*--------------------------------*- C++ -*----------------------------------*\
| =========                 |                                                 |
| \\      /  F ield         | OpenFOAM: The Open Source CFD Toolbox           |
|  \\    /   O peration     | Version:  v2006                                 |
|   \\  /    A nd           | Website:  www.openfoam.com                      |
|    \\/     M anipulation  |                                                 |
\*---------------------------------------------------------------------------*/
FoamFile
{
    version     2.0;
    format      ascii;
    class       volScalarField;
    location    "1000";
    object      yPlus;
}
// * * * * * * * * * * * * * * * * * * * * * * * * * * * * * * * * * * * * * //

dimensions      [0 0 0 0 0 0 0];


internalField   uniform 0;

boundaryField
{
    Side
    {
        type            empty;
    }
    Ground
    {
        type            calculated;
        value           nonuniform List<scalar> 
519
(
1.2840543
1.2868558
1.2908038
1.2973636
1.3064706
1.3183309
1.3320396
1.347767
1.372045
1.4006084
1.4011255
1.4349937
1.6456881
1.627538
1.8495584
1.7918746
1.7390177
1.687324
1.6376062
1.5898264
1.5439743
1.5002027
1.4586309
1.4195692
1.3833736
1.3500564
1.3204234
1.2962149
1.8815685
1.8869432
1.8913193
1.8954168
1.8990909
1.9024269
1.9052938
1.9075706
1.9091775
1.910057
1.9101427
1.9093511
1.907569
1.9046459
1.9003844
1.8945369
1.8867996
1.8768115
1.8641529
1.8483487
1.8288719
1.8051559
1.776581
1.7426023
1.7025763
1.6558578
1.6018998
1.5402268
1.4702519
1.3913738
1.3033125
1.2051642
1.095752
0.97138103
0.82805774
0.65629582
0.42049889
0.18491882
0.4816156
0.66599086
0.79905451
0.92325124
1.0181285
1.0925947
1.1543027
1.203419
1.2480353
1.2883799
1.3246622
1.3573362
1.3865238
1.4122736
1.4353521
1.4568731
1.4765064
1.494185
1.5100459
1.5243382
1.5373435
1.5491813
1.5598717
1.5695391
1.578351
1.5864313
1.5938715
1.6007462
1.60712
1.6130461
1.6185715
1.6237324
1.6285653
1.6330748
1.6373206
1.6411619
2.2312019
2.1776441
2.1450125
2.1191905
2.0920941
2.0660706
2.0416155
2.0188078
1.9972322
1.9768245
1.9574222
1.9390218
1.921482
1.9047419
1.8886324
1.8730019
1.8579361
1.8433313
1.8291465
1.8152321
1.8015633
1.7879836
1.7745279
1.7609439
1.747376
1.7336979
1.7200645
1.7063373
1.6920878
1.6776057
1.6630402
1.6481151
1.6327305
1.6171357
1.6015679
1.5857733
1.5696478
1.5535252
1.5371112
1.5203013
1.5033417
1.4860666
1.4686657
1.451458
1.4338997
1.4153971
1.3958386
1.3754429
1.3542021
1.3324006
1.3109486
1.2896146
1.2676579
1.2447031
1.2205909
1.1956446
1.169049
1.1426766
1.117911
1.0948571
1.073091
1.0515954
1.0280928
1.001962
0.97318424
0.94330615
0.9143829
0.88696355
0.86205141
0.83863388
0.81530434
0.78882832
0.75678872
0.71907799
0.67594912
0.63190321
0.59385214
0.56308476
0.54015781
0.5160188
0.48974643
0.45741648
0.4187393
0.37686465
0.34134901
0.32607604
0.33531745
0.35832502
0.38466834
0.41161069
0.44029981
0.47170712
0.50594999
0.54185873
0.57738611
0.61024149
0.63829315
0.66124352
0.68062993
0.699568
0.72100823
0.74585632
0.77320723
0.80025063
0.82418711
0.84399486
0.86065645
0.87712361
0.89624819
0.91877774
0.94278228
0.96473723
0.98258884
0.9972884
1.011656
1.0285524
1.0483878
1.0689794
1.0878824
1.1037388
1.1176058
1.1317113
1.1475368
1.165003
1.1825903
1.1987541
1.213396
1.2276974
1.2427282
1.2587378
1.2747666
1.2900941
1.305031
1.3202809
1.3358642
1.3512258
1.3661103
1.3810954
1.3963946
1.4115006
1.4262352
1.4406618
1.4546811
1.4683366
1.4816566
1.4944466
1.5070587
1.5198399
1.5323752
1.5444602
1.5562812
1.5677239
1.5786528
1.5890516
1.598759
1.6078429
1.6164882
1.6247196
1.6323447
1.6392516
1.6453825
1.6508468
1.6560098
1.661029
1.665429
1.6690532
1.672011
1.6744613
1.6766145
1.6791212
1.6818279
1.6837102
1.6852444
1.6863882
1.6870901
1.6878879
1.6897306
1.6917979
1.6932441
1.6945127
1.6954173
1.6958146
1.696562
1.698586
1.7007992
1.7026983
1.7043961
1.7056527
1.7064126
1.707413
1.7095568
1.7120056
1.7140189
1.7157141
1.7170416
1.7180538
1.7191925
1.7216726
1.7250584
1.7278078
1.7304134
1.732832
1.7350848
1.7370176
1.7395245
1.7430413
1.7463067
1.7494311
1.7523521
1.7550562
1.7574962
1.7597078
1.7624739
1.7659112
1.7689355
1.7718208
1.7744305
1.77686
1.7790712
1.7811116
1.7837956
1.7871254
1.7899232
1.7926373
1.7952211
1.7976982
1.7999862
1.8020427
1.8043428
1.8071877
1.8099179
1.81251
1.8149442
1.8172194
1.8192905
1.8211262
1.8227992
1.8247724
1.8270673
1.829067
1.8309443
1.832644
1.8341993
1.8356147
1.8368799
1.8379974
1.8394213
1.8412109
1.8427135
1.8441094
1.8453313
1.8464076
1.8473197
1.8480617
1.8486845
1.8493802
1.8502658
1.85111
1.8517965
1.8523547
1.852777
1.8530687
1.8532423
1.8533011
1.8532433
1.8531775
1.8532154
1.8532042
1.8530565
1.85281
1.8524617
1.8520109
1.8514842
1.8508948
1.8501609
1.8492521
1.8484303
1.8477878
1.8470184
1.8461663
1.845208
1.8441602
1.8430197
1.8417861
1.8404656
1.8390656
1.8375771
1.8360463
1.8345393
1.8329941
1.8313564
1.8296401
1.8278394
1.8259637
1.8240109
1.8219874
1.8198954
1.8177351
1.8155064
1.8132194
1.8109787
1.8088068
1.8065374
1.8041768
1.801715
1.7991811
1.7965864
1.7939375
1.7912279
1.7884647
1.7856467
1.7827772
1.7798527
1.7768869
1.7739516
1.7710631
1.7681433
1.7651708
1.7621317
1.7590325
1.7558704
1.7526498
1.7493655
1.7460035
1.7425671
1.7390727
1.7355261
1.7319261
1.7282749
1.7245846
1.7208743
1.7171297
1.7133234
1.7094605
1.7055393
1.7015612
1.6975263
1.6934351
1.6892876
1.6850846
1.680827
1.6765168
1.6721555
1.6677462
1.6632933
1.6588012
1.6542936
1.6497711
1.6452329
1.1229312
1.1700289
1.2174896
1.2658861
1.3119573
1.3500736
1.3886931
1.4824298
1.7019814
2.0138625
2.285368
2.4171161
2.4619669
2.4945929
2.5112306
2.4989998
2.467793
2.4317304
2.3951958
2.362187
2.3320709
2.3049884
2.2813204
2.2627795
2.2492181
2.2400033
2.2362368
2.2381574
2.2446045
2.2566228
2.2764147
2.2952713
2.3078998
2.317183
2.3239925
2.3285435
2.3298809
2.3274705
2.3218991
2.3135488
2.3022802
2.2915406
2.2795958
2.2568431
1.0753884
1.0294143
0.98733254
0.94859541
0.91294258
0.88028555
0.85040499
0.82314604
0.79835129
0.77590075
0.75559448
0.73721751
0.72059218
0.70548307
0.69174821
0.67917966
0.66779671
0.65718195
0.64786892
0.63834594
0.63156671
0.62122409
0.61925897
0.60716964
)
;
    }
    Inlet
    {
        type            calculated;
        value           uniform 0;
    }
    Airfoil
    {
        type            calculated;
        value           nonuniform List<scalar> 
527
(
1.5794411
1.4915144
1.5504117
1.3466707
1.3719214
1.3318787
1.3177484
1.2935243
1.2823671
1.2655233
1.253309
1.2369265
1.2230225
1.2081324
1.192881
1.1790886
1.1635316
1.1504012
1.1349137
1.1223735
1.1069509
1.0943022
1.0793947
1.0648916
1.0512368
1.0340047
1.0204888
1.0029821
0.98695753
0.97183777
0.95256095
0.93675439
0.91903237
0.89643598
0.88170768
0.85910565
0.82993456
0.81774227
0.78910883
0.75520462
0.74163185
0.71080372
0.67355926
0.65310139
0.62449693
0.58315416
0.54770998
0.53038549
0.47416243
0.41389491
0.40471622
0.3500919
0.29908399
0.30458461
0.31721435
0.37801314
0.4606556
0.46367677
0.49441932
0.55657663
0.60652488
0.61142044
0.6377407
0.68401511
0.71693831
0.72351425
0.74477628
0.78883064
0.81991689
0.82425055
0.83812834
0.88788558
0.92999923
0.92799116
0.92828798
0.9774115
1.0361279
1.0289401
1.030681
1.0535086
1.1024385
1.1211043
1.1178095
1.1165373
1.1530006
1.1959527
1.1871355
1.1877885
1.1983508
1.2359638
1.2602261
1.2543926
1.2521773
1.272559
1.3168516
1.3309276
1.3244722
1.3196657
1.3448822
1.3942757
1.4031755
1.3957402
1.3899342
1.411472
1.4587232
1.4701824
1.4618459
1.4559483
1.4680147
1.510045
1.5322008
1.522619
1.5172803
1.5161142
1.5506748
1.589074
1.5770714
1.5733072
1.5688512
1.5865851
1.6214812
1.6269607
1.6226213
1.6194173
1.6193132
1.6455201
1.6757386
1.6679176
1.6662899
1.6626812
1.6744329
1.7147885
1.7397265
1.7313497
1.7274307
1.7213459
1.7464743
1.807215
1.8290215
1.8179502
1.8121783
1.8045564
1.8333587
1.9020228
1.9250154
1.9126452
1.9089723
1.904636
1.9187855
1.9627
1.987358
1.9797545
1.9807133
1.9816838
1.9856193
2.0018366
2.0184488
2.0180555
2.021544
2.0214005
2.0194535
2.0507388
2.1022659
2.1036492
2.0958772
2.088042
2.067627
2.0773309
2.2400505
2.3844351
2.3076599
2.2839704
2.2479303
2.201046
2.2859719
2.5730033
2.6991372
2.5797638
2.5377241
2.4740034
2.3934367
2.5422152
2.8858616
2.9423586
2.8306818
2.776904
2.7089469
2.6272435
2.7349614
3.0230559
3.079369
2.9613986
2.9022385
2.8309613
2.7311672
2.7717387
3.1647616
3.3858527
3.1853482
3.117446
3.0448918
2.9543325
2.8789629
3.1458989
3.4484536
3.3353886
3.2403288
3.1693725
3.1076108
3.0285534
3.0044037
3.2610562
3.4394963
3.2627654
3.2065677
3.139428
3.0817741
3.0029688
3.0018041
3.316526
3.5053373
3.3059316
3.2501366
3.1793507
3.1248511
3.0571291
3.0351351
3.2462577
3.4371299
3.3347754
3.2512103
3.1879705
3.1347374
3.0838906
3.0332619
3.0617714
3.2692847
3.3592502
3.2104642
3.1647088
3.1056032
3.0606037
3.0154898
2.9725393
3.019049
3.264983
3.3689269
3.2050482
3.1642008
3.1060432
3.0648069
3.0259192
2.9937578
2.995409
3.0945546
3.1979804
3.1606609
3.0911006
3.052026
3.0135084
2.9815027
2.9535378
2.9329005
2.9445394
3.0305408
3.1152816
3.086626
3.0267813
2.9944918
2.9611772
2.9334595
2.9107532
2.8968997
2.8985801
2.9611987
3.1285074
3.1996663
3.1026777
3.0732352
3.0360523
3.0106568
2.9872786
2.9690038
2.9560535
2.9512539
2.9670711
3.0217671
3.0756034
3.0606617
3.0195786
2.9999418
2.9779592
2.9602288
2.9437941
2.9307866
2.923719
2.9249137
2.939014
2.9871661
3.0709516
3.0856417
3.0197459
3.0028832
2.9740865
2.9543306
2.9349275
2.9190253
2.9064621
2.8997073
2.900994
2.9115558
2.9378807
2.9924263
3.0522192
3.0469865
2.9984192
2.9825059
2.959824
2.9444282
2.929994
2.9186003
2.9095333
2.9033667
2.9006916
2.9027022
2.909727
2.9226765
2.9454314
2.9816029
3.0106112
3.0017828
2.9785585
2.9715503
2.9641247
2.9636442
2.9680085
2.9790134
2.9976545
3.025367
3.0634361
3.1132102
3.1764116
3.2540129
3.3437715
3.4461198
3.573328
3.7131413
3.7868706
3.8615604
1.824434
1.7397523
1.7542821
1.700299
1.6453565
1.6107745
1.5538342
1.5163612
1.5059737
1.4895833
1.4745098
1.4630611
1.4581531
1.4568077
1.4522227
1.4496151
1.4383542
1.4222095
1.4142163
1.4065571
1.3935479
1.3846077
1.3830675
1.3750993
1.3682482
1.3711044
1.3627479
1.3509759
1.3505029
1.3396543
1.3302195
1.3325158
1.3270494
1.3185911
1.3190845
1.307952
1.2943141
1.2926106
1.2842541
1.2757357
1.2735664
1.2659753
1.2514618
1.2388546
1.2266591
1.2002009
1.1713178
1.1469655
1.1154465
1.0933748
1.0776039
1.0636256
1.0478076
1.0522568
1.0687036
1.0760971
1.0921245
1.116416
1.1438722
1.1742241
1.2047108
1.2423616
1.2732502
1.3344648
1.3668877
1.5239397
1.3733688
1.9675513
2.128451
4.2753744
3.5474439
3.4989218
3.723142
4.6814552
3.9051439
1.0093344
0.86010663
1.1162273
1.2148018
0.78688038
0.86437714
1.2309543
1.5675282
1.7435076
1.7605654
1.7812085
1.9120023
1.8511589
1.7749955
1.8810934
1.950037
1.8939807
2.1077224
2.3857198
2.4287204
2.4233658
2.6278849
2.8278679
3.3326722
3.4804828
3.0480203
2.9181781
3.1717069
3.5261133
3.4945165
3.3952904
3.6539028
3.9029207
4.7777341
4.3769327
3.2176885
3.2940563
3.7371679
4.3923332
3.9906869
3.2480345
3.4251186
3.756722
4.5314172
1.8026491
1.4184845
1.2848805
0.99626398
0.48548126
0.77106404
1.1636727
1.5295686
1.8546681
2.3910047
2.4343754
2.4379944
2.578287
2.8058969
3.0346141
3.3885075
3.3866037
3.3547012
3.4381864
3.6145399
3.8272523
4.0982159
4.3597809
4.9174441
4.170263
3.6078983
3.3453135
3.3767655
3.5056906
3.6848384
3.8965523
4.1929473
4.1597316
3.5455411
3.1077934
2.9228267
2.900187
2.958448
3.0681953
3.1964613
3.3331278
3.4801116
3.6643756
3.6458365
3.0068182
2.560652
2.3186695
2.2064209
2.16692
2.173281
2.2013058
2.2396013
2.2877775
2.3443432
2.4116556
2.4853104
2.5650599
2.6591818
2.6879474
)
;
    }
    Outlet
    {
        type            calculated;
        value           uniform 0;
    }
}


// ************************************************************************* //
