# Wall shear stress
# Time          	patch           	min             	max             
100             	Airfoil	(-1.46690928e-04 -1.43128241e-04 -2.96525971e-20)	(-1.03195242e-08 1.05375788e-04 2.65953322e-20)
200             	Airfoil	(-1.54221587e-04 -1.86315618e-04 -3.39565703e-20)	(1.28392889e-06 7.92266599e-05 3.36194502e-20)
300             	Airfoil	(-1.79188787e-04 -1.99107283e-04 -3.34124478e-20)	(2.22861447e-06 9.51137122e-05 3.78864460e-20)
400             	Airfoil	(-1.88159439e-04 -2.01811859e-04 -3.04500021e-20)	(1.46982470e-06 1.02370602e-04 3.89644745e-20)
500             	Airfoil	(-1.87938941e-04 -1.99844494e-04 -2.95108702e-20)	(1.76242087e-06 1.05986457e-04 3.92930774e-20)
600             	Airfoil	(-1.84509230e-04 -1.96422973e-04 -2.87191038e-20)	(2.50580866e-06 1.07104034e-04 3.92352467e-20)
700             	Airfoil	(-1.79295214e-04 -1.91779528e-04 -2.77808688e-20)	(2.82973559e-06 1.04657807e-04 3.88863315e-20)
800             	Airfoil	(-1.70895411e-04 -1.85925270e-04 -2.70838407e-20)	(3.01974269e-06 9.59620277e-05 3.82676557e-20)
900             	Airfoil	(-1.62570510e-04 -1.82276646e-04 -2.68137516e-20)	(3.26905381e-06 8.43474351e-05 3.76790155e-20)
1000            	Airfoil	(-1.68738814e-04 -1.84473611e-04 -2.69114337e-20)	(3.51280725e-06 9.62226085e-05 3.72477912e-20)
1100            	Airfoil	(-1.70815020e-04 -1.83730279e-04 -2.65940830e-20)	(3.69167929e-06 1.03076342e-04 3.69880771e-20)
1200            	Airfoil	(-1.71076709e-04 -1.82678575e-04 -2.63164560e-20)	(3.80477701e-06 1.06657370e-04 3.68076788e-20)
1300            	Airfoil	(-1.71056309e-04 -1.81671959e-04 -2.64383578e-20)	(3.75934396e-06 1.09420330e-04 3.69918675e-20)
1400            	Airfoil	(-1.70881865e-04 -1.80713455e-04 -2.60871009e-20)	(3.93578232e-06 1.11528020e-04 3.66107613e-20)
1500            	Airfoil	(-1.70622860e-04 -1.79880577e-04 -2.57251664e-20)	(4.17511351e-06 1.13286581e-04 3.61542459e-20)
1600            	Airfoil	(-1.70392500e-04 -1.79139913e-04 -2.55455671e-20)	(4.37647702e-06 1.14828308e-04 3.58716133e-20)
1700            	Airfoil	(-1.70174962e-04 -1.78424481e-04 -2.53738575e-20)	(4.47745478e-06 1.16226981e-04 3.56851971e-20)
1800            	Airfoil	(-1.69947446e-04 -1.77735596e-04 -2.53373386e-20)	(4.53654544e-06 1.17527875e-04 3.55842976e-20)
1900            	Airfoil	(-1.69722868e-04 -1.77066930e-04 -2.53170865e-20)	(4.54100163e-06 1.18773009e-04 3.55710350e-20)
2000            	Airfoil	(-1.69502624e-04 -1.76406539e-04 -2.53195909e-20)	(4.54684394e-06 1.19991448e-04 3.55571148e-20)
2100            	Airfoil	(-1.69283751e-04 -1.75745974e-04 -2.53290323e-20)	(4.56083167e-06 1.21200178e-04 3.55506888e-20)
2200            	Airfoil	(-1.69062625e-04 -1.75083587e-04 -2.53033293e-20)	(4.57793960e-06 1.22405036e-04 3.55294330e-20)
2300            	Airfoil	(-1.68838901e-04 -1.74422262e-04 -2.52899551e-20)	(4.59954843e-06 1.23602354e-04 3.55022121e-20)
2400            	Airfoil	(-1.68611757e-04 -1.73767079e-04 -2.52719091e-20)	(4.61269034e-06 1.24786577e-04 3.54827652e-20)
2500            	Airfoil	(-1.68386441e-04 -1.73122444e-04 -2.52554224e-20)	(4.62359650e-06 1.25953233e-04 3.54650089e-20)
2600            	Airfoil	(-1.68164468e-04 -1.72489778e-04 -2.52472879e-20)	(4.63438201e-06 1.27098894e-04 3.54519100e-20)
2700            	Airfoil	(-1.67946707e-04 -1.71869641e-04 -2.52323226e-20)	(4.64614019e-06 1.28222145e-04 3.54359891e-20)
2800            	Airfoil	(-1.67732083e-04 -1.71262342e-04 -2.52153651e-20)	(4.66333867e-06 1.29321493e-04 3.54143261e-20)
2900            	Airfoil	(-1.67521569e-04 -1.70670051e-04 -2.51926570e-20)	(4.68643939e-06 1.30394256e-04 3.53844913e-20)
3000            	Airfoil	(-1.67315429e-04 -1.70094096e-04 -2.51637031e-20)	(4.71476924e-06 1.31438561e-04 3.53470764e-20)
3100            	Airfoil	(-1.67113777e-04 -1.69535699e-04 -2.51322962e-20)	(4.74633871e-06 1.32449818e-04 3.53053839e-20)
3200            	Airfoil	(-1.66919869e-04 -1.68998636e-04 -2.50999126e-20)	(4.77958968e-06 1.33426362e-04 3.52621043e-20)
3300            	Airfoil	(-1.67635451e-04 -1.68482061e-04 -2.50658791e-20)	(4.81352571e-06 1.34367097e-04 3.52169594e-20)
3400            	Airfoil	(-1.68613053e-04 -1.67987335e-04 -2.50326749e-20)	(4.84628547e-06 1.35270159e-04 3.51730988e-20)
3500            	Airfoil	(-1.69543194e-04 -1.67514921e-04 -2.50011874e-20)	(4.87773707e-06 1.36134212e-04 3.51315475e-20)
3600            	Airfoil	(-1.70431472e-04 -1.67064710e-04 -2.49711068e-20)	(4.90774318e-06 1.36959188e-04 3.50916826e-20)
3700            	Airfoil	(-1.71296872e-04 -1.66635208e-04 -2.49425091e-20)	(4.93594349e-06 1.37747188e-04 3.50539488e-20)
3800            	Airfoil	(-1.72104648e-04 -1.66226416e-04 -2.49152857e-20)	(4.96243656e-06 1.38497450e-04 3.50182437e-20)
3900            	Airfoil	(-1.72892002e-04 -1.65836605e-04 -2.48893380e-20)	(4.98719061e-06 1.39213091e-04 3.49843776e-20)
4000            	Airfoil	(-1.73642986e-04 -1.65465255e-04 -2.48649278e-20)	(5.01029142e-06 1.39893802e-04 3.49527795e-20)
4100            	Airfoil	(-1.74350760e-04 -1.65113085e-04 -2.48424816e-20)	(5.03144539e-06 1.40542128e-04 3.49237458e-20)
4200            	Airfoil	(-1.75022201e-04 -1.64778280e-04 -2.48218578e-20)	(5.05141770e-06 1.41159335e-04 3.48966904e-20)
4300            	Airfoil	(-1.75678159e-04 -1.64458852e-04 -2.48028644e-20)	(5.06952699e-06 1.41746758e-04 3.48722602e-20)
4400            	Airfoil	(-1.76289737e-04 -1.64154597e-04 -2.47844708e-20)	(5.08656262e-06 1.42306517e-04 3.48486538e-20)
4500            	Airfoil	(-1.76897481e-04 -1.63864546e-04 -2.47666626e-20)	(5.10296343e-06 1.42839653e-04 3.48255663e-20)
4600            	Airfoil	(-1.77456531e-04 -1.63588639e-04 -2.47511792e-20)	(5.11745300e-06 1.43346286e-04 3.48060663e-20)
4700            	Airfoil	(-1.77993531e-04 -1.63324987e-04 -2.47362296e-20)	(5.13151467e-06 1.43829343e-04 3.47867549e-20)
4800            	Airfoil	(-1.78511982e-04 -1.63073463e-04 -2.47215035e-20)	(5.14473889e-06 1.44290284e-04 3.47683624e-20)
4900            	Airfoil	(-1.78993500e-04 -1.62833838e-04 -2.47074505e-20)	(5.15731522e-06 1.44730180e-04 3.47508648e-20)
5000            	Airfoil	(-1.79446512e-04 -1.62605375e-04 -2.46946400e-20)	(5.16917373e-06 1.45148738e-04 3.47350578e-20)
5100            	Airfoil	(-1.79921738e-04 -1.62386023e-04 -2.46818730e-20)	(5.18016744e-06 1.45549416e-04 3.47192567e-20)
5200            	Airfoil	(-1.80318530e-04 -1.62178210e-04 -2.46704111e-20)	(5.19088276e-06 1.45930454e-04 3.47050938e-20)
5300            	Airfoil	(-1.80739830e-04 -1.61978648e-04 -2.46590488e-20)	(5.20091705e-06 1.46295313e-04 3.46910945e-20)
5400            	Airfoil	(-1.81147314e-04 -1.61788035e-04 -2.46477448e-20)	(5.21074211e-06 1.46643293e-04 3.46770085e-20)
5500            	Airfoil	(-1.81512731e-04 -1.61606850e-04 -2.46381225e-20)	(5.21982377e-06 1.46974709e-04 3.46650399e-20)
5600            	Airfoil	(-1.81866957e-04 -1.61433157e-04 -2.46284713e-20)	(5.22846289e-06 1.47291552e-04 3.46531837e-20)
5700            	Airfoil	(-1.82214671e-04 -1.61266809e-04 -2.46189476e-20)	(5.23700872e-06 1.47594291e-04 3.46411346e-20)
5800            	Airfoil	(-1.82536040e-04 -1.61108071e-04 -2.46099862e-20)	(5.24492499e-06 1.47883254e-04 3.46301759e-20)
5900            	Airfoil	(-1.82828059e-04 -1.60956936e-04 -2.46017392e-20)	(5.25274770e-06 1.48158685e-04 3.46197784e-20)
6000            	Airfoil	(-1.83106781e-04 -1.60812460e-04 -2.45933642e-20)	(5.26032278e-06 1.48421608e-04 3.46093111e-20)
6100            	Airfoil	(-1.83424854e-04 -1.60673583e-04 -2.45856063e-20)	(5.26712656e-06 1.48673294e-04 3.45998524e-20)
6200            	Airfoil	(-1.83671279e-04 -1.60541493e-04 -2.45782991e-20)	(5.27415302e-06 1.48912906e-04 3.45905339e-20)
6300            	Airfoil	(-1.83937094e-04 -1.60415625e-04 -2.45705413e-20)	(5.28066156e-06 1.49142134e-04 3.45810496e-20)
6400            	Airfoil	(-1.84171257e-04 -1.60294643e-04 -2.45643166e-20)	(5.28699401e-06 1.49360631e-04 3.45730421e-20)
6500            	Airfoil	(-1.84438873e-04 -1.60178528e-04 -2.45568568e-20)	(5.29291696e-06 1.49570148e-04 3.45639734e-20)
6600            	Airfoil	(-1.84617289e-04 -1.60069473e-04 -2.45505522e-20)	(5.29898958e-06 1.49768583e-04 3.45558850e-20)
6700            	Airfoil	(-1.84843698e-04 -1.59963445e-04 -2.45456497e-20)	(5.30426050e-06 1.49958513e-04 3.45496442e-20)
6800            	Airfoil	(-1.85066645e-04 -1.59861906e-04 -2.45396206e-20)	(5.30943674e-06 1.50140376e-04 3.45423109e-20)
6900            	Airfoil	(-1.85275889e-04 -1.59765342e-04 -2.45329721e-20)	(5.31468775e-06 1.50314319e-04 3.45340705e-20)
7000            	Airfoil	(-1.85446689e-04 -1.59674142e-04 -2.45276115e-20)	(5.31964640e-06 1.50479367e-04 3.45273652e-20)
7100            	Airfoil	(-1.85602692e-04 -1.59586472e-04 -2.45222470e-20)	(5.32480514e-06 1.50636902e-04 3.45201788e-20)
7200            	Airfoil	(-1.85763758e-04 -1.59502321e-04 -2.45171756e-20)	(5.32957244e-06 1.50787367e-04 3.45137350e-20)
7300            	Airfoil	(-1.85926776e-04 -1.59421874e-04 -2.45122277e-20)	(5.33399448e-06 1.50931146e-04 3.45074877e-20)
7400            	Airfoil	(-1.86092124e-04 -1.59344835e-04 -2.45075587e-20)	(5.33834387e-06 1.51068437e-04 3.45013850e-20)
7500            	Airfoil	(-1.86272595e-04 -1.59270331e-04 -2.45030598e-20)	(5.34226813e-06 1.51200047e-04 3.44957551e-20)
7600            	Airfoil	(-1.86406262e-04 -1.59199749e-04 -2.45000012e-20)	(5.34547012e-06 1.51324522e-04 3.44923380e-20)
7700            	Airfoil	(-1.86525293e-04 -1.59132468e-04 -2.44981699e-20)	(5.34859801e-06 1.51442590e-04 3.44899469e-20)
7800            	Airfoil	(-1.86635116e-04 -1.59068392e-04 -2.44956767e-20)	(5.35195634e-06 1.51554993e-04 3.44866545e-20)
7900            	Airfoil	(-1.86738189e-04 -1.59008016e-04 -2.44901848e-20)	(5.35627518e-06 1.51663181e-04 3.44792534e-20)
8000            	Airfoil	(-1.86906028e-04 -1.58948858e-04 -2.44835142e-20)	(5.36011788e-06 1.51768003e-04 3.44710450e-20)
8100            	Airfoil	(-1.86999980e-04 -1.58892016e-04 -2.44829185e-20)	(5.36254057e-06 1.51865437e-04 3.44704884e-20)
8200            	Airfoil	(-1.87075583e-04 -1.58838628e-04 -2.44820470e-20)	(5.36529868e-06 1.51957280e-04 3.44689632e-20)
8300            	Airfoil	(-1.87208096e-04 -1.58788160e-04 -2.44746655e-20)	(5.36921595e-06 1.52048344e-04 3.44597827e-20)
8400            	Airfoil	(-1.87293674e-04 -1.58737974e-04 -2.44742374e-20)	(5.37144942e-06 1.52132696e-04 3.44590722e-20)
8500            	Airfoil	(-1.87348531e-04 -1.58692026e-04 -2.44713846e-20)	(5.37472549e-06 1.52212012e-04 3.44546994e-20)
8600            	Airfoil	(-1.87481636e-04 -1.58646509e-04 -2.44679443e-20)	(5.37657989e-06 1.52291066e-04 3.44514352e-20)
8700            	Airfoil	(-1.87524545e-04 -1.58603498e-04 -2.44671711e-20)	(5.37924744e-06 1.52361942e-04 3.44492129e-20)
8800            	Airfoil	(-1.87643807e-04 -1.58562763e-04 -2.44623732e-20)	(5.38128645e-06 1.52434063e-04 3.44443855e-20)
8900            	Airfoil	(-1.87677410e-04 -1.58523221e-04 -2.44635715e-20)	(5.38328859e-06 1.52498204e-04 3.44445144e-20)
9000            	Airfoil	(-1.87784661e-04 -1.58486135e-04 -2.44580286e-20)	(5.38547758e-06 1.52563431e-04 3.44387287e-20)
9100            	Airfoil	(-1.87808214e-04 -1.58450084e-04 -2.44596556e-20)	(5.38749422e-06 1.52621186e-04 3.44390648e-20)
9200            	Airfoil	(-1.87906381e-04 -1.58416009e-04 -2.44558301e-20)	(5.38869959e-06 1.52680469e-04 3.44361208e-20)
9300            	Airfoil	(-1.87921424e-04 -1.58383983e-04 -2.44516006e-20)	(5.39323262e-06 1.52733091e-04 3.44278083e-20)
9400            	Airfoil	(-1.88010815e-04 -1.58351901e-04 -2.44557411e-20)	(5.39103013e-06 1.52786194e-04 3.44362962e-20)
9500            	Airfoil	(-1.88090540e-04 -1.58322640e-04 -2.44435915e-20)	(5.39772028e-06 1.52835730e-04 3.44181027e-20)
9600            	Airfoil	(-1.88095894e-04 -1.58295104e-04 -2.44550183e-20)	(5.39422490e-06 1.52880116e-04 3.44342193e-20)
9700            	Airfoil	(-1.88171186e-04 -1.58270376e-04 -2.44472157e-20)	(5.39807565e-06 1.52925651e-04 3.44242245e-20)
9800            	Airfoil	(-1.88241000e-04 -1.58245980e-04 -2.44389798e-20)	(5.40269636e-06 1.52968204e-04 3.44115979e-20)
9900            	Airfoil	(-1.88238627e-04 -1.58222274e-04 -2.44515241e-20)	(5.39815944e-06 1.53006681e-04 3.44302681e-20)
10000           	Airfoil	(-1.88301755e-04 -1.58199948e-04 -2.44411361e-20)	(5.40381154e-06 1.53045555e-04 3.44157483e-20)
