/*--------------------------------*- C++ -*----------------------------------*\
| =========                 |                                                 |
| \\      /  F ield         | OpenFOAM: The Open Source CFD Toolbox           |
|  \\    /   O peration     | Version:  v2006                                 |
|   \\  /    A nd           | Website:  www.openfoam.com                      |
|    \\/     M anipulation  |                                                 |
\*---------------------------------------------------------------------------*/
FoamFile
{
    version     2.0;
    format      ascii;
    class       volScalarField;
    location    "2000";
    object      alphat;
}
// * * * * * * * * * * * * * * * * * * * * * * * * * * * * * * * * * * * * * //

dimensions      [1 -1 -1 0 0 0 0];


internalField   nonuniform List<scalar> 
19765
(
9.7839307e-06
9.780609e-06
9.4930368e-06
9.5493273e-06
9.5501767e-06
9.7084612e-06
9.6266811e-06
9.8026323e-06
9.7745204e-06
9.5862565e-06
9.6918241e-06
1.0073184e-05
1.0296528e-05
1.0489504e-05
1.0894478e-05
1.1065897e-05
1.1018741e-05
1.1174373e-05
1.1592305e-05
1.1957906e-05
1.2204228e-05
1.2327818e-05
1.2546946e-05
1.2683205e-05
1.277323e-05
1.2827411e-05
1.285421e-05
1.2792156e-05
1.2810609e-05
1.2692697e-05
1.2462739e-05
1.2169053e-05
1.2200556e-05
1.2344415e-05
1.2200379e-05
1.1861935e-05
1.1845853e-05
1.1780225e-05
1.1502847e-05
1.1592152e-05
1.1962013e-05
1.2110775e-05
1.2071565e-05
1.2378827e-05
1.227309e-05
1.2506606e-05
1.2517415e-05
1.249361e-05
1.2369184e-05
5.4285316e-05
5.6923709e-05
5.914963e-05
6.0944837e-05
6.3114274e-05
6.5334224e-05
6.7572893e-05
6.9808192e-05
7.2114019e-05
7.4140006e-05
7.6526948e-05
7.9123209e-05
8.1355867e-05
8.335128e-05
8.5399904e-05
8.6655915e-05
8.6969162e-05
8.7573007e-05
8.8822224e-05
9.032288e-05
9.1752642e-05
9.2712645e-05
9.3532654e-05
9.4582876e-05
9.5608737e-05
9.6110832e-05
9.6330502e-05
9.663144e-05
9.6851396e-05
9.6871566e-05
9.6776757e-05
9.6614327e-05
9.6601294e-05
9.643443e-05
9.5772021e-05
9.4819002e-05
9.3976396e-05
9.2840542e-05
9.1421679e-05
9.0373308e-05
8.9452182e-05
8.7413637e-05
8.5242047e-05
8.15929e-05
7.8990606e-05
7.2852027e-05
6.6015097e-05
5.9196916e-05
5.4103103e-05
1.6022049e-05
1.5351761e-05
1.4875879e-05
1.5119843e-05
1.5241343e-05
1.5357915e-05
1.5293773e-05
1.5457822e-05
1.5360575e-05
1.5508162e-05
1.5750597e-05
1.5789063e-05
1.5621916e-05
1.5454181e-05
1.5165814e-05
1.4721435e-05
1.4366467e-05
1.4127545e-05
1.39452e-05
1.3796394e-05
1.3737798e-05
1.3790055e-05
1.3812708e-05
1.3870197e-05
1.4165403e-05
1.4712837e-05
1.5218049e-05
1.5732184e-05
1.6470035e-05
1.7259999e-05
1.8025954e-05
1.8736898e-05
1.9374167e-05
2.0367492e-05
2.1607238e-05
2.2640881e-05
2.3445668e-05
2.4504822e-05
2.5319139e-05
2.5736711e-05
2.6450688e-05
2.7692126e-05
2.8328431e-05
2.9501032e-05
3.02814e-05
3.2483215e-05
3.5347037e-05
3.8718902e-05
4.1057801e-05
6.2649823e-07
5.6071172e-07
5.2265152e-07
5.1719396e-07
5.0969601e-07
5.0291145e-07
4.914014e-07
4.8744006e-07
4.7636949e-07
4.7139157e-07
4.6870792e-07
4.6066782e-07
4.4763621e-07
4.357329e-07
4.2257736e-07
4.0724974e-07
3.9568158e-07
3.8811555e-07
3.8176441e-07
3.7558579e-07
3.7292862e-07
3.7506318e-07
3.7597535e-07
3.7796899e-07
3.861219e-07
4.0145856e-07
4.175271e-07
4.3552426e-07
4.6072342e-07
4.8969553e-07
5.2095103e-07
5.5356859e-07
5.8720559e-07
6.3486585e-07
6.9554775e-07
7.5620829e-07
8.1609078e-07
8.9179318e-07
9.639219e-07
1.026551e-06
1.1112248e-06
1.231865e-06
1.3391797e-06
1.5056539e-06
1.6675118e-06
1.9007861e-06
2.1849717e-06
2.5465959e-06
2.9743466e-06
1.6359305e-07
1.6309143e-07
1.6337905e-07
1.6531094e-07
1.6701452e-07
1.6863686e-07
1.6971991e-07
1.7131182e-07
1.7214491e-07
1.7346669e-07
1.7508828e-07
1.7621604e-07
1.7683547e-07
1.7756601e-07
1.7806585e-07
1.781567e-07
1.7857724e-07
1.7943299e-07
1.8017204e-07
1.80789e-07
1.8177409e-07
1.8313282e-07
1.8438851e-07
1.8582929e-07
1.8793603e-07
1.9091862e-07
1.9402387e-07
1.9726781e-07
2.0121177e-07
2.0540194e-07
2.0960405e-07
2.1369453e-07
2.1752097e-07
2.222835e-07
2.2771065e-07
2.3251742e-07
2.3663474e-07
2.4135742e-07
2.4524183e-07
2.480211e-07
2.5173045e-07
2.5659452e-07
2.6008854e-07
2.6552822e-07
2.7004592e-07
2.7614324e-07
2.8208726e-07
2.8657236e-07
2.9087265e-07
1.4150077e-07
1.4165667e-07
1.4215355e-07
1.4332649e-07
1.4423945e-07
1.4515724e-07
1.4586762e-07
1.4678494e-07
1.47361e-07
1.482405e-07
1.490873e-07
1.4965604e-07
1.5005875e-07
1.5050754e-07
1.5083066e-07
1.5108039e-07
1.5156794e-07
1.5223845e-07
1.528571e-07
1.5347114e-07
1.5422061e-07
1.5508474e-07
1.5612154e-07
1.5735695e-07
1.5891871e-07
1.609676e-07
1.6318516e-07
1.6548714e-07
1.6814325e-07
1.7101999e-07
1.7398241e-07
1.7698716e-07
1.7983846e-07
1.8298742e-07
1.8653218e-07
1.9004343e-07
1.9315893e-07
1.9642492e-07
1.9952955e-07
2.0204977e-07
2.045021e-07
2.0773471e-07
2.1032148e-07
2.1374782e-07
2.1688956e-07
2.2067265e-07
2.2476334e-07
2.2919167e-07
2.3308337e-07
1.243902e-07
1.2433002e-07
1.2446874e-07
1.2500981e-07
1.254244e-07
1.2585527e-07
1.2618853e-07
1.2665507e-07
1.2694925e-07
1.2742713e-07
1.2791081e-07
1.2825041e-07
1.2850577e-07
1.2879739e-07
1.2902634e-07
1.2921763e-07
1.2955816e-07
1.3002853e-07
1.3049297e-07
1.3097532e-07
1.3154028e-07
1.3217337e-07
1.3291119e-07
1.3379501e-07
1.348958e-07
1.3629175e-07
1.3779346e-07
1.3937358e-07
1.4119045e-07
1.4315697e-07
1.4519777e-07
1.4728095e-07
1.4930126e-07
1.5152308e-07
1.5399044e-07
1.5644161e-07
1.5868234e-07
1.6102328e-07
1.6327529e-07
1.651976e-07
1.6710785e-07
1.6944271e-07
1.7141651e-07
1.7383419e-07
1.7607346e-07
1.7862348e-07
1.8128018e-07
1.8406283e-07
1.8657728e-07
1.1538769e-07
1.1534306e-07
1.1541775e-07
1.1573626e-07
1.1597721e-07
1.1622706e-07
1.1641845e-07
1.1668702e-07
1.1685635e-07
1.1713403e-07
1.174163e-07
1.1762085e-07
1.1778428e-07
1.1797552e-07
1.1814047e-07
1.1829692e-07
1.1855052e-07
1.1888937e-07
1.1924002e-07
1.1962081e-07
1.2006735e-07
1.2056873e-07
1.2116284e-07
1.2186845e-07
1.227196e-07
1.2376468e-07
1.248954e-07
1.2609684e-07
1.2746439e-07
1.2894726e-07
1.3049959e-07
1.3210129e-07
1.3368657e-07
1.3541341e-07
1.3731296e-07
1.3922758e-07
1.4103129e-07
1.4291016e-07
1.4475236e-07
1.4640297e-07
1.4804844e-07
1.4997856e-07
1.5170092e-07
1.5372694e-07
1.5567348e-07
1.5785824e-07
1.6016709e-07
1.6262498e-07
1.6496202e-07
1.0895842e-07
1.0889652e-07
1.0891074e-07
1.0908227e-07
1.0920907e-07
1.0934503e-07
1.0944859e-07
1.0960313e-07
1.0970067e-07
1.0986839e-07
1.1004291e-07
1.1017494e-07
1.1028751e-07
1.104224e-07
1.1054732e-07
1.1067439e-07
1.1086837e-07
1.1112229e-07
1.1139249e-07
1.1169098e-07
1.1203735e-07
1.1242293e-07
1.1287276e-07
1.1340601e-07
1.1404424e-07
1.1481484e-07
1.1565097e-07
1.1654569e-07
1.1755881e-07
1.1865835e-07
1.198165e-07
1.2102011e-07
1.2222818e-07
1.2353848e-07
1.2496906e-07
1.2641917e-07
1.2780994e-07
1.2925638e-07
1.306863e-07
1.3199956e-07
1.3331506e-07
1.3480948e-07
1.361725e-07
1.3772257e-07
1.3921608e-07
1.4084997e-07
1.4254728e-07
1.4431872e-07
1.4598877e-07
1.0474227e-07
1.046955e-07
1.0469617e-07
1.0479919e-07
1.0487285e-07
1.0495276e-07
1.0501259e-07
1.0510578e-07
1.051644e-07
1.0526949e-07
1.0538084e-07
1.0546851e-07
1.0554778e-07
1.0564496e-07
1.0574043e-07
1.0584297e-07
1.0599335e-07
1.0618728e-07
1.063984e-07
1.0663523e-07
1.0691059e-07
1.0721908e-07
1.0757638e-07
1.0799666e-07
1.0849487e-07
1.0908774e-07
1.0973287e-07
1.1042699e-07
1.1120999e-07
1.1206171e-07
1.1296425e-07
1.1390889e-07
1.148684e-07
1.1590662e-07
1.1703651e-07
1.1819176e-07
1.1931829e-07
1.2049118e-07
1.2166282e-07
1.227638e-07
1.2387064e-07
1.2510637e-07
1.2626023e-07
1.2754939e-07
1.2881025e-07
1.3017971e-07
1.3160908e-07
1.3311378e-07
1.3456051e-07
1.0173518e-07
1.0169801e-07
1.0169205e-07
1.0175551e-07
1.0179995e-07
1.0184929e-07
1.0188634e-07
1.0194634e-07
1.0198508e-07
1.0205591e-07
1.0213255e-07
1.0219608e-07
1.0225691e-07
1.0233216e-07
1.024094e-07
1.02495e-07
1.0261557e-07
1.0276841e-07
1.0293694e-07
1.03127e-07
1.0334707e-07
1.0359373e-07
1.038767e-07
1.042068e-07
1.0459576e-07
1.0505389e-07
1.055533e-07
1.0609276e-07
1.0669947e-07
1.0736019e-07
1.0806315e-07
1.0880241e-07
1.0955984e-07
1.1037805e-07
1.1126586e-07
1.1217817e-07
1.1307804e-07
1.1401508e-07
1.1495641e-07
1.1585335e-07
1.1675731e-07
1.1774989e-07
1.1868775e-07
1.1971633e-07
1.2072408e-07
1.2180241e-07
1.2291702e-07
1.2407709e-07
1.2518746e-07
9.9581049e-08
9.9556714e-08
9.9552461e-08
9.9595715e-08
9.9625931e-08
9.9659769e-08
9.9685777e-08
9.9727814e-08
9.975654e-08
9.980794e-08
9.9864441e-08
9.9913901e-08
9.9963595e-08
1.0002496e-07
1.0008996e-07
1.0016329e-07
1.002627e-07
1.0038642e-07
1.0052384e-07
1.0067906e-07
1.008579e-07
1.0105852e-07
1.0128696e-07
1.0155087e-07
1.0185975e-07
1.0222034e-07
1.0261378e-07
1.0304004e-07
1.0351831e-07
1.0403965e-07
1.0459605e-07
1.0518376e-07
1.057907e-07
1.064465e-07
1.0715771e-07
1.0789298e-07
1.0862584e-07
1.0939018e-07
1.1016288e-07
1.1090857e-07
1.1166207e-07
1.1248182e-07
1.1326576e-07
1.1411708e-07
1.1495688e-07
1.1585089e-07
1.1677553e-07
1.1774057e-07
1.18671e-07
9.7995372e-08
9.7981151e-08
9.7980209e-08
9.8012622e-08
9.8036097e-08
9.8062417e-08
9.8083814e-08
9.8116767e-08
9.8141395e-08
9.8182491e-08
9.8228076e-08
9.8270182e-08
9.8313972e-08
9.8367226e-08
9.842463e-08
9.8489631e-08
9.8574299e-08
9.8677445e-08
9.8792086e-08
9.8921104e-08
9.9068515e-08
9.92334e-08
9.941953e-08
9.9632268e-08
9.9879438e-08
1.0016548e-07
1.0047748e-07
1.0081615e-07
1.01195e-07
1.0160758e-07
1.0204868e-07
1.0251644e-07
1.0300304e-07
1.0352929e-07
1.0409973e-07
1.046919e-07
1.0528659e-07
1.0590712e-07
1.065368e-07
1.0714965e-07
1.0776984e-07
1.084383e-07
1.09082e-07
1.0977348e-07
1.1045625e-07
1.1117641e-07
1.1191664e-07
1.1268384e-07
1.1342096e-07
9.6810272e-08
9.6805373e-08
9.6809107e-08
9.6836501e-08
9.6857647e-08
9.6881071e-08
9.6901442e-08
9.6930338e-08
9.6954108e-08
9.6990101e-08
9.7030041e-08
9.7068641e-08
9.7109601e-08
9.7158281e-08
9.7211094e-08
9.727057e-08
9.7344997e-08
9.7433536e-08
9.7531499e-08
9.7640901e-08
9.7764537e-08
9.7901977e-08
9.8055599e-08
9.8229164e-08
9.8429041e-08
9.8658232e-08
9.890783e-08
9.9179002e-08
9.948094e-08
9.9808973e-08
1.0016055e-07
1.0053559e-07
1.0092876e-07
1.0135449e-07
1.018157e-07
1.0229605e-07
1.0278138e-07
1.0328823e-07
1.0380453e-07
1.0431094e-07
1.0482441e-07
1.0537489e-07
1.059087e-07
1.0647861e-07
1.0704325e-07
1.0763641e-07
1.0824541e-07
1.0887663e-07
1.0948394e-07
9.591251e-08
9.5915184e-08
9.5923533e-08
9.5948981e-08
9.5970106e-08
9.5993166e-08
9.6014464e-08
9.6042251e-08
9.6067039e-08
9.6101124e-08
9.6138727e-08
9.6176291e-08
9.6216477e-08
9.6263003e-08
9.6313391e-08
9.6369467e-08
9.6436948e-08
9.6515198e-08
9.6600991e-08
9.6695698e-08
9.6801248e-08
9.6917436e-08
9.7045739e-08
9.7188797e-08
9.7351758e-08
9.7536671e-08
9.7737407e-08
9.7955323e-08
9.8195901e-08
9.8456589e-08
9.8737698e-08
9.9039797e-08
9.9358246e-08
9.9702558e-08
1.0007468e-07
1.0046285e-07
1.0085683e-07
1.0126863e-07
1.0168944e-07
1.0210475e-07
1.0252658e-07
1.0297661e-07
1.034151e-07
1.0388031e-07
1.0434156e-07
1.0482326e-07
1.0531576e-07
1.0582391e-07
1.0631111e-07
9.5223949e-08
9.5233183e-08
9.5246104e-08
9.5271534e-08
9.529402e-08
9.5318225e-08
9.5341578e-08
9.5370028e-08
9.5396926e-08
9.5431067e-08
9.5468389e-08
9.5506481e-08
9.5547248e-08
9.559326e-08
9.5642769e-08
9.569705e-08
9.5760023e-08
9.5831165e-08
9.5908187e-08
9.5991972e-08
9.6083813e-08
9.6183582e-08
9.6292159e-08
9.6411389e-08
9.6545396e-08
9.6695592e-08
9.685781e-08
9.7033282e-08
9.7224233e-08
9.7431817e-08
9.7658347e-08
9.7902874e-08
9.8160395e-08
9.8437601e-08
9.873651e-08
9.9049043e-08
9.9367897e-08
9.970192e-08
1.0004463e-07
1.0038499e-07
1.0073152e-07
1.0110023e-07
1.0146125e-07
1.0184279e-07
1.0222185e-07
1.0261646e-07
1.0301924e-07
1.0343442e-07
1.0383195e-07
9.4691391e-08
9.4706117e-08
9.4723266e-08
9.4749733e-08
9.47743e-08
9.4800484e-08
9.4826495e-08
9.4856661e-08
9.4886302e-08
9.4921739e-08
9.4960112e-08
9.499977e-08
9.5042055e-08
9.5088724e-08
9.5138503e-08
9.5192229e-08
9.5252541e-08
9.5318966e-08
9.5389816e-08
9.5465588e-08
9.554709e-08
9.5634192e-08
9.5727352e-08
9.5827846e-08
9.5938939e-08
9.6061614e-08
9.619309e-08
9.6334103e-08
9.6484328e-08
9.6651004e-08
9.6834902e-08
9.7031634e-08
9.7237167e-08
9.7457721e-08
9.7695757e-08
9.7945719e-08
9.8202266e-08
9.8471854e-08
9.8749586e-08
9.9026958e-08
9.9310023e-08
9.96105e-08
9.9905828e-08
1.0021678e-07
1.0052594e-07
1.0084655e-07
1.011728e-07
1.0150808e-07
1.0182793e-07
9.4276082e-08
9.4295596e-08
9.431672e-08
9.4344909e-08
9.4372003e-08
9.4400686e-08
9.442972e-08
9.446228e-08
9.4495063e-08
9.4532622e-08
9.4572944e-08
9.4614891e-08
9.4659379e-08
9.4707572e-08
9.4758504e-08
9.4812662e-08
9.4871744e-08
9.4935289e-08
9.5001991e-08
9.5072031e-08
9.5145838e-08
9.5223227e-08
9.5304351e-08
9.5390084e-08
9.5482952e-08
9.5583653e-08
9.5690365e-08
9.5802994e-08
9.5920055e-08
9.6056499e-08
9.6205083e-08
9.6359686e-08
9.6520759e-08
9.6694408e-08
9.6882662e-08
9.7081461e-08
9.7286803e-08
9.7503375e-08
9.7727438e-08
9.7952416e-08
9.8182591e-08
9.8426644e-08
9.8667422e-08
9.8920371e-08
9.9172238e-08
9.9432843e-08
9.969763e-08
9.9969473e-08
1.002281e-07
9.3950663e-08
9.3974353e-08
9.3999173e-08
9.402948e-08
9.405934e-08
9.4090826e-08
9.4123091e-08
9.4158478e-08
9.419466e-08
9.4234906e-08
9.4277808e-08
9.4322573e-08
9.4369788e-08
9.4420175e-08
9.4472966e-08
9.4528357e-08
9.4587346e-08
9.4649452e-08
9.4713606e-08
9.4779725e-08
9.484793e-08
9.4917951e-08
9.4989709e-08
9.5063793e-08
9.5142095e-08
9.5225117e-08
9.5311657e-08
9.5400748e-08
9.5492098e-08
9.5605367e-08
9.5721075e-08
9.583849e-08
9.5963547e-08
9.6098973e-08
9.6246342e-08
9.6402926e-08
9.6565715e-08
9.6738044e-08
9.6917034e-08
9.7097619e-08
9.7282856e-08
9.7479194e-08
9.7673565e-08
9.7877466e-08
9.8080743e-08
9.8290656e-08
9.8503561e-08
9.8721801e-08
9.8928599e-08
9.3694687e-08
9.3722137e-08
9.3750461e-08
9.3783162e-08
9.3815957e-08
9.3850459e-08
9.3886106e-08
9.3924632e-08
9.3964411e-08
9.4007765e-08
9.4053724e-08
9.4101726e-08
9.4152095e-08
9.4205222e-08
9.4260458e-08
9.4317755e-08
9.4377574e-08
9.4439398e-08
9.450229e-08
9.4565946e-08
9.4630232e-08
9.4694764e-08
9.475929e-08
9.4824186e-08
9.489081e-08
9.4959521e-08
9.5029475e-08
9.5099682e-08
9.5174896e-08
9.5261811e-08
9.5346344e-08
9.5435717e-08
9.5532681e-08
9.5635939e-08
9.5749447e-08
9.5871032e-08
9.5998094e-08
9.6133012e-08
9.6273702e-08
9.6416375e-08
9.6563278e-08
9.671925e-08
9.6874306e-08
9.7037048e-08
9.719965e-08
9.7367509e-08
9.753768e-08
9.7712137e-08
9.7876848e-08
9.3493226e-08
9.3524116e-08
9.3555782e-08
9.3591066e-08
9.3626908e-08
9.366458e-08
9.3703725e-08
9.3745629e-08
9.3789168e-08
9.3835964e-08
9.3885361e-08
9.3936948e-08
9.3990842e-08
9.4047172e-08
9.4105357e-08
9.4165139e-08
9.4226559e-08
9.4289048e-08
9.4351733e-08
9.4414115e-08
9.4475844e-08
9.4536412e-08
9.4595427e-08
9.4653093e-08
9.4710339e-08
9.4767396e-08
9.4823667e-08
9.4881565e-08
9.4959585e-08
9.5017478e-08
9.5065414e-08
9.513022e-08
9.5200414e-08
9.5277826e-08
9.5363796e-08
9.5455638e-08
9.5551753e-08
9.5654302e-08
9.5761974e-08
9.5871992e-08
9.5985991e-08
9.6107568e-08
9.6229066e-08
9.6356895e-08
9.6484989e-08
9.6617331e-08
9.6751512e-08
9.6889154e-08
9.7018532e-08
9.3334948e-08
9.3369068e-08
9.3403983e-08
9.3442006e-08
9.3481002e-08
9.3521981e-08
9.3564738e-08
9.3610226e-08
9.3657686e-08
9.3708211e-08
9.3761374e-08
9.3816861e-08
9.3874617e-08
9.3934561e-08
9.3996145e-08
9.4058924e-08
9.4122604e-08
9.4186551e-08
9.4249908e-08
9.4312001e-08
9.4372293e-08
9.4430146e-08
9.4485049e-08
9.453706e-08
9.4586771e-08
9.4634287e-08
9.467943e-08
9.4722707e-08
9.4764008e-08
9.480636e-08
9.4857287e-08
9.4902684e-08
9.4952562e-08
9.5007366e-08
9.5067572e-08
9.5132533e-08
9.5201504e-08
9.5276186e-08
9.5355628e-08
9.5437716e-08
9.5523595e-08
9.5615917e-08
9.5708818e-08
9.5807075e-08
9.5905978e-08
9.6008466e-08
9.6112558e-08
9.6219607e-08
9.6319774e-08
9.321137e-08
9.3248581e-08
9.3286692e-08
9.3327589e-08
9.336984e-08
9.3414258e-08
9.3460748e-08
9.3510012e-08
9.3561558e-08
9.3616076e-08
9.3673304e-08
9.3732985e-08
9.3794921e-08
9.3858861e-08
9.3924254e-08
9.3990495e-08
9.4057011e-08
9.4123094e-08
9.418787e-08
9.4250502e-08
9.4310286e-08
9.4366459e-08
9.4418394e-08
9.446603e-08
9.4509688e-08
9.4549369e-08
9.4585052e-08
9.4617425e-08
9.4649893e-08
9.4661269e-08
9.4700922e-08
9.4735421e-08
9.4767894e-08
9.4802293e-08
9.48407e-08
9.4883142e-08
9.4929193e-08
9.498015e-08
9.5035388e-08
9.509338e-08
9.5154963e-08
9.5222103e-08
9.5290348e-08
9.5363244e-08
9.5437137e-08
9.5514175e-08
9.5592715e-08
9.5673871e-08
9.5749383e-08
9.3115985e-08
9.3156219e-08
9.3197521e-08
9.3241427e-08
9.328705e-08
9.3335045e-08
9.3385404e-08
9.3438637e-08
9.3494447e-08
9.3553215e-08
9.3614793e-08
9.3678958e-08
9.3745386e-08
9.3813679e-08
9.388327e-08
9.3953403e-08
9.4023272e-08
9.4092085e-08
9.4158923e-08
9.4222802e-08
9.4282862e-08
9.4338216e-08
9.438813e-08
9.4432437e-08
9.4471242e-08
9.4504446e-08
9.4532186e-08
9.4555294e-08
9.4574178e-08
9.4594011e-08
9.46088e-08
9.4622277e-08
9.4636514e-08
9.465306e-08
9.467281e-08
9.4695758e-08
9.472176e-08
9.4751926e-08
9.478596e-08
9.4822835e-08
9.4863175e-08
9.4908441e-08
9.4955274e-08
9.5006293e-08
9.5058662e-08
9.5113935e-08
9.517074e-08
9.5229995e-08
9.5284754e-08
9.3043851e-08
9.3087089e-08
9.3131611e-08
9.3178667e-08
9.3227788e-08
9.3279513e-08
9.3333895e-08
9.3391297e-08
9.3451566e-08
9.3514839e-08
9.3581051e-08
9.3649989e-08
9.3721219e-08
9.3794216e-08
9.3868378e-08
9.394281e-08
9.4016501e-08
9.4088572e-08
9.4158041e-08
9.4223779e-08
9.4284784e-08
9.4340046e-08
9.4388728e-08
9.4430567e-08
9.4465496e-08
9.4493323e-08
9.4514309e-08
9.4529203e-08
9.4539225e-08
9.4544573e-08
9.454733e-08
9.4548656e-08
9.4549347e-08
9.455073e-08
9.4553966e-08
9.4559547e-08
9.4567722e-08
9.4579495e-08
9.4594828e-08
9.4613083e-08
9.4634736e-08
9.4660861e-08
9.4688961e-08
9.4720949e-08
9.4754628e-08
9.4791102e-08
9.4829219e-08
9.4869721e-08
9.4906774e-08
9.2991167e-08
9.3037434e-08
9.3085242e-08
9.3135598e-08
9.3188365e-08
9.3243987e-08
9.3302565e-08
9.3364349e-08
9.342929e-08
9.3497333e-08
9.3568467e-08
9.3642473e-08
9.3718818e-08
9.3796865e-08
9.3875962e-08
9.3955083e-08
9.4033036e-08
9.4108846e-08
9.4181452e-08
9.4249589e-08
9.4312118e-08
9.4367907e-08
9.441602e-08
9.4456107e-08
9.4487957e-08
9.4511296e-08
9.4526476e-08
9.4534289e-08
9.4535653e-08
9.4531784e-08
9.4523808e-08
9.4512972e-08
9.4500502e-08
9.4487807e-08
9.4476111e-08
9.4466152e-08
9.4458415e-08
9.4453809e-08
9.4452509e-08
9.4454194e-08
9.4459247e-08
9.4468462e-08
9.4480021e-08
9.4495302e-08
9.4512618e-08
9.453273e-08
9.4554665e-08
9.4579015e-08
9.4600887e-08
9.2955035e-08
9.3004394e-08
9.3055583e-08
9.3109403e-08
9.3165981e-08
9.3225685e-08
9.3288653e-08
9.3355047e-08
9.3424892e-08
9.3497978e-08
9.3574328e-08
9.3653708e-08
9.373549e-08
9.3818932e-08
9.3903325e-08
9.3987515e-08
9.4070145e-08
9.4150139e-08
9.4226345e-08
9.4297363e-08
9.4361922e-08
9.4418773e-08
9.4466881e-08
9.4505812e-08
9.4535237e-08
9.4554808e-08
9.4564953e-08
9.4566472e-08
9.4560298e-08
9.4547571e-08
9.4529645e-08
9.4507911e-08
9.4483713e-08
9.4458409e-08
9.4433277e-08
9.4409291e-08
9.4387164e-08
9.4367772e-08
9.4351479e-08
9.4338236e-08
9.432837e-08
9.4322471e-08
9.4319262e-08
9.4319718e-08
9.4322551e-08
9.4328263e-08
9.4336025e-08
9.43463e-08
9.4354995e-08
9.2933252e-08
9.2985795e-08
9.304049e-08
9.3097952e-08
9.3158524e-08
9.3222513e-08
9.3290087e-08
9.3361335e-08
9.3436336e-08
9.3514754e-08
9.3596627e-08
9.3681696e-08
9.3769245e-08
9.3858434e-08
9.3948483e-08
9.4038118e-08
9.4125824e-08
9.4210419e-08
9.4290652e-08
9.4364989e-08
9.443203e-08
9.4490408e-08
9.4538993e-08
9.4577269e-08
9.460481e-08
9.4621197e-08
9.4626922e-08
9.4622811e-08
9.4609768e-08
9.4589045e-08
9.4562076e-08
9.4530337e-08
9.4495304e-08
9.4458355e-08
9.4420853e-08
9.438398e-08
9.4348651e-08
9.4315735e-08
9.4285761e-08
9.4258909e-08
9.4235482e-08
9.421592e-08
9.4199382e-08
9.4186536e-08
9.4176412e-08
9.4169317e-08
9.4164543e-08
9.4162433e-08
9.4159586e-08
9.2924168e-08
9.2980017e-08
9.3038364e-08
9.3099664e-08
9.3164432e-08
9.323293e-08
9.3305345e-08
9.338171e-08
9.3462139e-08
9.354619e-08
9.3633907e-08
9.3724994e-08
9.3818653e-08
9.3913944e-08
9.4010015e-08
9.4105467e-08
9.4198638e-08
9.4288234e-08
9.4372894e-08
9.4450954e-08
9.4520882e-08
9.4581198e-08
9.4630676e-08
9.4668723e-08
9.4694824e-08
9.4708502e-08
9.4710301e-08
9.4701076e-08
9.4681734e-08
9.4653602e-08
9.4618214e-08
9.4577142e-08
9.4531994e-08
9.4484188e-08
9.4435173e-08
9.4386321e-08
9.4338729e-08
9.4293285e-08
9.4250667e-08
9.4211254e-08
9.4175343e-08
9.4143275e-08
9.4114557e-08
9.4089627e-08
9.4067771e-08
9.4049144e-08
9.403314e-08
9.4019998e-08
9.4006907e-08
9.2926577e-08
9.2985878e-08
9.3048049e-08
9.3113397e-08
9.3182584e-08
9.3255831e-08
9.3333345e-08
9.3415107e-08
9.3501257e-08
9.3591262e-08
9.3685157e-08
9.3782607e-08
9.3882729e-08
9.398449e-08
9.4086952e-08
9.4188595e-08
9.4287615e-08
9.4382596e-08
9.4472065e-08
9.4554222e-08
9.462741e-08
9.4690031e-08
9.4740766e-08
9.4778944e-08
9.4803975e-08
9.4815328e-08
9.4813595e-08
9.4799663e-08
9.4774452e-08
9.4739373e-08
9.4696054e-08
9.4646165e-08
9.4591444e-08
9.4533367e-08
9.4473483e-08
9.4413338e-08
9.4354198e-08
9.429699e-08
9.4242531e-08
9.4191371e-08
9.4143821e-08
9.4100155e-08
9.4060166e-08
9.4024116e-08
9.39915e-08
9.3962358e-08
9.3936168e-08
9.3913074e-08
9.3890784e-08
9.293964e-08
9.3002559e-08
9.3068747e-08
9.3138371e-08
9.3212219e-08
9.3290478e-08
9.3373367e-08
9.3460828e-08
9.3553012e-08
9.3649308e-08
9.3749734e-08
9.3853907e-08
9.3960861e-08
9.4069468e-08
9.4178699e-08
9.4286912e-08
9.4392159e-08
9.4492902e-08
9.4587546e-08
9.4674155e-08
9.4750946e-08
9.4816203e-08
9.4868515e-08
9.4907135e-08
9.4931403e-08
9.4940743e-08
9.4935788e-08
9.4917462e-08
9.4886711e-08
9.4845028e-08
9.4794134e-08
9.4735802e-08
9.46719e-08
9.4603979e-08
9.4533698e-08
9.4462767e-08
9.4392611e-08
9.4324212e-08
9.4258518e-08
9.4196232e-08
9.4137689e-08
9.4083126e-08
9.4032569e-08
9.398615e-08
9.3943534e-08
9.3904674e-08
9.3869118e-08
9.3836924e-08
9.3806253e-08
9.296282e-08
9.3029545e-08
9.3099966e-08
9.3174112e-08
9.3252882e-08
9.3336435e-08
9.3424998e-08
9.3518478e-08
9.3617032e-08
9.3719975e-08
9.3827301e-08
9.3938575e-08
9.4052747e-08
9.4168588e-08
9.4284977e-08
9.4400143e-08
9.4511997e-08
9.4618873e-08
9.4719046e-08
9.4810446e-08
9.489116e-08
9.4959357e-08
9.501353e-08
9.5052859e-08
9.5076621e-08
9.5084199e-08
9.5076266e-08
9.5053783e-08
9.5017733e-08
9.4969689e-08
9.4911469e-08
9.4844953e-08
9.4772136e-08
9.4694665e-08
9.4614314e-08
9.4532952e-08
9.4452157e-08
9.437298e-08
9.429649e-08
9.4223531e-08
9.4154475e-08
9.4089538e-08
9.4028942e-08
9.3972725e-08
9.3920689e-08
9.3872722e-08
9.3828432e-08
9.3787798e-08
9.3749384e-08
9.2995845e-08
9.3066585e-08
9.3141472e-08
9.3220406e-08
9.330438e-08
9.3393529e-08
9.3488088e-08
9.358793e-08
9.369321e-08
9.3803177e-08
9.3917793e-08
9.4036565e-08
9.4158355e-08
9.4281835e-08
9.4405779e-08
9.4528289e-08
9.4647132e-08
9.4760508e-08
9.4866558e-08
9.4963074e-08
9.5048013e-08
9.5119428e-08
9.5175719e-08
9.5215989e-08
9.5239459e-08
9.5245477e-08
9.5234752e-08
9.5208287e-08
9.5167107e-08
9.5112866e-08
9.5047479e-08
9.4972937e-08
9.489137e-08
9.4804529e-08
9.4714313e-08
9.4622749e-08
9.4531561e-08
9.444188e-08
9.4354895e-08
9.4271576e-08
9.419234e-08
9.4117403e-08
9.404715e-08
9.3981549e-08
9.3920521e-08
9.3863901e-08
9.3811353e-08
9.3762779e-08
9.3717106e-08
9.3038676e-08
9.3113657e-08
9.3193268e-08
9.3277272e-08
9.3366754e-08
9.3461825e-08
9.3562723e-08
9.3669292e-08
9.3781679e-08
9.389907e-08
9.4021386e-08
9.4148072e-08
9.4277899e-08
9.4409435e-08
9.4541346e-08
9.4671599e-08
9.4797817e-08
9.4918059e-08
9.5030328e-08
9.5132275e-08
9.5221726e-08
9.5296618e-08
9.5355256e-08
9.5396671e-08
9.5420028e-08
9.5424647e-08
9.5411271e-08
9.5380946e-08
9.5334746e-08
9.5274403e-08
9.5201933e-08
9.5119443e-08
9.5029201e-08
9.4933076e-08
9.4833101e-08
9.4731455e-08
9.463001e-08
9.4529983e-08
9.4432683e-08
9.4339196e-08
9.4249991e-08
9.4165297e-08
9.408564e-08
9.4010937e-08
9.3941211e-08
9.3876258e-08
9.3815787e-08
9.3759633e-08
9.3707051e-08
9.3091486e-08
9.3170954e-08
9.3255567e-08
9.3344948e-08
9.3440263e-08
9.3541603e-08
9.3649209e-08
9.3762895e-08
9.3882794e-08
9.400803e-08
9.4138479e-08
9.4273516e-08
9.4411819e-08
9.4551847e-08
9.4692148e-08
9.4830553e-08
9.4964535e-08
9.509201e-08
9.5210835e-08
9.5318519e-08
9.5412756e-08
9.5491366e-08
9.5552561e-08
9.5595299e-08
9.5618693e-08
9.5622041e-08
9.5606117e-08
9.5572011e-08
9.5520849e-08
9.5454444e-08
9.5374913e-08
9.5284485e-08
9.518557e-08
9.5080169e-08
9.4970454e-08
9.485876e-08
9.4747099e-08
9.4636789e-08
9.4529249e-08
9.4425681e-08
9.4326611e-08
9.4232292e-08
9.414337e-08
9.4059734e-08
9.398149e-08
9.3908408e-08
9.3840239e-08
9.377675e-08
9.3717503e-08
9.3154653e-08
9.3238876e-08
9.3328791e-08
9.3423876e-08
9.3525374e-08
9.3633356e-08
9.3748064e-08
9.3869281e-08
9.3997123e-08
9.4130652e-08
9.4269691e-08
9.4413539e-08
9.4560776e-08
9.4709747e-08
9.4858876e-08
9.5005851e-08
9.5147993e-08
9.5283067e-08
9.540878e-08
9.5522498e-08
9.5621782e-08
9.5704337e-08
9.576828e-08
9.5812498e-08
9.5836055e-08
9.583823e-08
9.581983e-08
9.5781989e-08
9.5725884e-08
9.565341e-08
9.5566789e-08
9.5468377e-08
9.5360733e-08
9.5246e-08
9.5126497e-08
9.5004711e-08
9.4882798e-08
9.4762179e-08
9.4644387e-08
9.4530734e-08
9.4421807e-08
9.4317893e-08
9.4219749e-08
9.4127244e-08
9.4040561e-08
9.395945e-08
9.3883701e-08
9.3813015e-08
9.3747246e-08
9.3228758e-08
9.3318025e-08
9.3413567e-08
9.3514706e-08
9.3622763e-08
9.3737787e-08
9.3860018e-08
9.3989209e-08
9.4125452e-08
9.4267746e-08
9.4415856e-08
9.4568999e-08
9.472565e-08
9.4884035e-08
9.5042443e-08
9.5198416e-08
9.5349118e-08
9.5492156e-08
9.5625086e-08
9.5745127e-08
9.5849708e-08
9.5936417e-08
9.6003283e-08
9.6049119e-08
9.6072943e-08
9.6074023e-08
9.6053194e-08
9.6011633e-08
9.5950573e-08
9.5871987e-08
9.5778205e-08
9.5671719e-08
9.5555244e-08
9.5431072e-08
9.5301673e-08
9.5169691e-08
9.5037422e-08
9.4906396e-08
9.4778262e-08
9.4654436e-08
9.4535576e-08
9.4422012e-08
9.4314598e-08
9.42132e-08
9.411807e-08
9.4028944e-08
9.3945649e-08
9.3867823e-08
9.3795601e-08
9.3314592e-08
9.3409214e-08
9.3510735e-08
9.3618306e-08
9.3733326e-08
9.3855819e-08
9.3986024e-08
9.4123659e-08
9.4268791e-08
9.4420353e-08
9.4578042e-08
9.4740987e-08
9.4907553e-08
9.5075838e-08
9.5243991e-08
9.5409399e-08
9.5569063e-08
9.5720431e-08
9.58609e-08
9.5987543e-08
9.6097657e-08
9.6188717e-08
9.6258661e-08
9.6306236e-08
9.6330415e-08
9.6330458e-08
9.6307225e-08
9.6261941e-08
9.6195887e-08
9.6111117e-08
9.6010075e-08
9.5895393e-08
9.5769949e-08
9.563619e-08
9.5496745e-08
9.5354411e-08
9.5211625e-08
9.507003e-08
9.4931391e-08
9.4797233e-08
9.4668286e-08
9.4544933e-08
9.4428122e-08
9.4317724e-08
9.4214053e-08
9.411684e-08
9.4025947e-08
9.3940949e-08
9.3862257e-08
9.3413172e-08
9.3513485e-08
9.3621364e-08
9.3735775e-08
9.385819e-08
9.3988613e-08
9.4127274e-08
9.4273857e-08
9.4428396e-08
9.4589756e-08
9.4757559e-08
9.4930838e-08
9.5107842e-08
9.5286531e-08
9.5464906e-08
9.5640193e-08
9.5809225e-08
9.5969283e-08
9.6117604e-08
9.6251116e-08
9.6366984e-08
9.6462574e-08
9.6535737e-08
9.6585155e-08
9.6609759e-08
9.6608807e-08
9.6583184e-08
9.6534155e-08
9.6463053e-08
9.6372009e-08
9.6263586e-08
9.6140564e-08
9.6005988e-08
9.5862469e-08
9.5712793e-08
9.5559908e-08
9.5406395e-08
9.5254012e-08
9.5104645e-08
9.4959925e-08
9.4820667e-08
9.4687313e-08
9.4560902e-08
9.4441321e-08
9.4328946e-08
9.4223504e-08
9.4124898e-08
9.4032635e-08
9.3947406e-08
9.3525759e-08
9.3632129e-08
9.3746779e-08
9.386847e-08
9.3998749e-08
9.4137595e-08
9.4285229e-08
9.4441298e-08
9.4605795e-08
9.4777514e-08
9.4955994e-08
9.5140164e-08
9.5328147e-08
9.5517759e-08
9.5706844e-08
9.5892458e-08
9.6071261e-08
9.6240362e-08
9.6396837e-08
9.6537468e-08
9.6659292e-08
9.6759572e-08
9.6836075e-08
9.6887423e-08
9.691251e-08
9.6910593e-08
9.6882582e-08
9.6829779e-08
9.6753564e-08
9.6656146e-08
9.654021e-08
9.6408695e-08
9.6264813e-08
9.6111342e-08
9.5951225e-08
9.578756e-08
9.5623065e-08
9.5459625e-08
9.5299246e-08
9.5143673e-08
9.499381e-08
9.485017e-08
9.4713883e-08
9.458486e-08
9.4463538e-08
9.4349648e-08
9.424313e-08
9.4143424e-08
9.4051509e-08
9.3653896e-08
9.3766719e-08
9.3888591e-08
9.4018038e-08
9.4156688e-08
9.430449e-08
9.4461653e-08
9.4627782e-08
9.4802825e-08
9.4985496e-08
9.5175245e-08
9.5370886e-08
9.5570407e-08
9.5771474e-08
9.5971761e-08
9.616815e-08
9.635712e-08
9.6535605e-08
9.6700517e-08
9.6848494e-08
9.6976455e-08
9.7081561e-08
9.7161506e-08
9.7214853e-08
9.7240466e-08
9.7237605e-08
9.7207202e-08
9.7150592e-08
9.7069197e-08
9.6965304e-08
9.6841727e-08
9.6701566e-08
9.6548206e-08
9.6384586e-08
9.6213803e-08
9.60391e-08
9.5863334e-08
9.5688518e-08
9.5516787e-08
9.5350006e-08
9.5189179e-08
9.50349e-08
9.4888392e-08
9.4749599e-08
9.4619024e-08
9.4496404e-08
9.4381721e-08
9.4274346e-08
9.4175557e-08
9.3799437e-08
9.391915e-08
9.4048737e-08
9.4186461e-08
9.4334034e-08
9.449137e-08
9.4658663e-08
9.4835469e-08
9.5021683e-08
9.5215935e-08
9.5417572e-08
9.5625285e-08
9.583692e-08
9.604998e-08
9.6261962e-08
9.6469563e-08
9.6669082e-08
9.685727e-08
9.7030877e-08
9.7186401e-08
9.7320647e-08
9.7430688e-08
9.751415e-08
9.7569546e-08
9.7595715e-08
9.7591924e-08
9.7559124e-08
9.7498679e-08
9.7412043e-08
9.7301585e-08
9.7170253e-08
9.7021311e-08
9.6858311e-08
9.6684351e-08
9.650267e-08
9.6316651e-08
9.6129289e-08
9.5942733e-08
9.5759256e-08
9.558085e-08
9.5408632e-08
9.524329e-08
9.5086142e-08
9.4937179e-08
9.4796964e-08
9.4665251e-08
9.4542063e-08
9.44267e-08
9.4320759e-08
9.3964602e-08
9.4091686e-08
9.4229532e-08
9.4376107e-08
9.4533208e-08
9.4700711e-08
9.4878785e-08
9.5066933e-08
9.5264989e-08
9.5471486e-08
9.5685661e-08
9.5906068e-08
9.6130402e-08
9.6355992e-08
9.6580151e-08
9.6799388e-08
9.7009811e-08
9.720799e-08
9.7390512e-08
9.7553744e-08
9.7694385e-08
9.7809432e-08
9.7896457e-08
9.795393e-08
9.7980671e-08
9.7975959e-08
9.7940762e-08
9.7876464e-08
9.7784546e-08
9.7667456e-08
9.7528282e-08
9.7370455e-08
9.7197684e-08
9.7013207e-08
9.6820396e-08
9.6622764e-08
9.6423448e-08
9.6224742e-08
9.6029067e-08
9.583856e-08