/*--------------------------------*- C++ -*----------------------------------*\
| =========                 |                                                 |
| \\      /  F ield         | OpenFOAM: The Open Source CFD Toolbox           |
|  \\    /   O peration     | Version:  v2006                                 |
|   \\  /    A nd           | Website:  www.openfoam.com                      |
|    \\/     M anipulation  |                                                 |
\*---------------------------------------------------------------------------*/
FoamFile
{
    version     2.0;
    format      ascii;
    class       volScalarField;
    location    "2000";
    object      Cp;
}
// * * * * * * * * * * * * * * * * * * * * * * * * * * * * * * * * * * * * * //

dimensions      [0 0 0 0 0 0 0];


internalField   nonuniform List<scalar> 
19765
(
0.14799804
0.20406136
0.35487995
0.46016102
0.56444636
0.64280482
0.73510386
0.78866965
0.85709214
0.91271469
0.95130327
0.98075883
1.0039435
1.0157914
1.0187958
1.015139
1.0052623
0.98902355
0.96621484
0.93662904
0.89932359
0.85471934
0.8068033
0.75067359
0.68262874
0.61190062
0.55118925
0.48216015
0.3957093
0.31776861
0.23643608
0.13823896
0.027478557
-0.11841744
-0.23602189
-0.31912817
-0.42564152
-0.58663378
-0.69832472
-0.82245255
-1.026118
-1.2012236
-1.2290847
-1.3841192
-1.3776795
-1.4268058
-1.3828519
-1.3150365
-1.228624
0.33653897
0.36520997
0.40195504
0.44601301
0.49274791
0.5377412
0.58484122
0.62442538
0.66584989
0.70686941
0.74156648
0.7703306
0.79685681
0.81545992
0.8259218
0.83310755
0.83539064
0.83017323
0.81916236
0.80133679
0.77690417
0.74736093
0.71093908
0.66803788
0.62019313
0.56780335
0.50879791
0.44431821
0.37539258
0.30138298
0.22293881
0.14094069
0.055966986
-0.02940957
-0.11390474
-0.19913032
-0.28637511
-0.3725172
-0.45215898
-0.52687904
-0.59281428
-0.64708451
-0.69914056
-0.74358177
-0.77520512
-0.80219837
-0.82275885
-0.84153613
-0.86040712
0.32891775
0.36499614
0.40576516
0.44624737
0.48636039
0.52397327
0.56090015
0.59250336
0.62374748
0.65282455
0.6785712
0.70098795
0.72097742
0.73609203
0.74578327
0.75190469
0.75409498
0.75073857
0.74156468
0.72635928
0.70506675
0.6781394
0.6452648
0.60634149
0.56236734
0.51383977
0.45973491
0.40045213
0.33702885
0.2691313
0.19758995
0.12366785
0.048574433
-0.026581038
-0.10314867
-0.18057077
-0.25649739
-0.33046396
-0.40283077
-0.47103143
-0.53438054
-0.59629546
-0.65521429
-0.70923004
-0.75840221
-0.79801516
-0.83306441
-0.86293391
-0.89053522
0.36245038
0.38600324
0.41056647
0.43663626
0.46333376
0.48990289
0.51660826
0.54098806
0.56548982
0.58931635
0.61064281
0.62943321
0.64640501
0.65955215
0.66814058
0.67392287
0.6767113
0.67475663
0.66766716
0.6551802
0.63752441
0.61560583
0.58877079
0.5564914
0.51969869
0.47907567
0.43373444
0.38372502
0.33017328
0.27304261
0.21302222
0.15131257
0.08875974
0.026445666
-0.036783182
-0.10032987
-0.16198282
-0.22099054
-0.27850303
-0.33197965
-0.38059211
-0.42798857
-0.47491714
-0.51700448
-0.55865343
-0.5970079
-0.63615321
-0.67452794
-0.71196163
0.34686847
0.3681676
0.38988657
0.41135606
0.4324303
0.45278029
0.47296114
0.49124842
0.50953746
0.52741633
0.54355167
0.55778753
0.57067646
0.5807543
0.58723131
0.59138123
0.59318998
0.59115446
0.58473547
0.57362318
0.55761107
0.53734576
0.51239221
0.48226945
0.44788322
0.41002806
0.36808543
0.32188473
0.27248928
0.22018441
0.16544548
0.10922007
0.052184492
-0.0046743631
-0.061760226
-0.11869211
-0.1742113
-0.22775582
-0.27991516
-0.32934476
-0.37591549
-0.42171728
-0.4671748
-0.5099503
-0.55290373
-0.59408669
-0.63487403
-0.67436647
-0.71270016
0.3420624
0.35744907
0.37345822
0.38939524
0.40525555
0.42068051
0.43622905
0.4503784
0.46469292
0.47875563
0.49144431
0.5026068
0.51266467
0.52043603
0.52524022
0.52802835
0.52874118
0.52614081
0.51975277
0.50929292
0.49456948
0.47621737
0.45388646
0.42704373
0.39641879
0.36266533
0.32532679
0.28432532
0.24057833
0.19437419
0.14616367
0.096774804
0.046812444
-0.0028848788
-0.05258452
-0.1019553
-0.15000486
-0.19628541
-0.24118584
-0.2837605
-0.3239192
-0.36325376
-0.40197305
-0.43894078
-0.47593728
-0.51208792
-0.54865396
-0.5855283
-0.62210637
0.32534728
0.33837505
0.35182793
0.36485632
0.37759143
0.38978754
0.40202624
0.41307708
0.42425362
0.43522375
0.44508321
0.45368833
0.46137289
0.46717737
0.47051001
0.47209661
0.4718552
0.4687326
0.46229505
0.45225423
0.43841681
0.42120849
0.40033008
0.37535703
0.34686107
0.31544911
0.28078483
0.24281052
0.20233197
0.15965076
0.11516467
0.069581471
0.023401679
-0.022623164
-0.068600541
-0.11424989
-0.15885459
-0.20203377
-0.2440686
-0.28431147
-0.32277617
-0.36053225
-0.39789379
-0.43406423
-0.47037914
-0.50624019
-0.54256312
-0.57911865
-0.61587117
0.31224784
0.3223729
0.33300473
0.34328947
0.3533749
0.36300927
0.37272256
0.38144182
0.39028281
0.39893194
0.40663228
0.41325051
0.41905208
0.42323773
0.4253008
0.42580232
0.42464081
0.42092819
0.41428624
0.40444345
0.39123805
0.37498233
0.35544628
0.33229544
0.30595609
0.2769541
0.24503514
0.2101924
0.17313533
0.13414655
0.093600989
0.052128405
0.010178878
-0.031581387
-0.073210752
-0.11446027
-0.15473255
-0.1937005
-0.23158083
-0.26785036
-0.30249537
-0.33640786
-0.36981627
-0.40218488
-0.43456246
-0.46656596
-0.49899006
-0.53173908
-0.56477776
0.29609672
0.30450325
0.31335151
0.32180782
0.33003531
0.33781991
0.34564748
0.35260271
0.35963835
0.36647798
0.37248353
0.37753289
0.3818409
0.38473319
0.38577118
0.38539583
0.383494
0.37930274
0.37248698
0.36279161
0.35007399
0.33454616
0.31600681
0.29419947
0.26945097
0.2422241
0.21232582
0.17977225
0.14518618
0.10882997
0.07104489
0.032384242
-0.0067647056
-0.045809127
-0.084758534
-0.12338812
-0.16121387
-0.19794063
-0.23373645
-0.26818911
-0.30130217
-0.33373142
-0.36573916
-0.39687882
-0.42802608
-0.45888859
-0.49011859
-0.52166554
-0.55357621
0.28173767
0.28848246
0.2956708
0.30251641
0.30917498
0.31544035
0.32174145
0.32727833
0.33286599
0.3382491
0.34288234
0.34665133
0.34972926
0.3515392
0.35170021
0.35056186
0.3480054
0.34337335
0.33637062
0.32676298
0.31442361
0.29949984
0.28182144
0.26119542
0.23787174
0.21225546
0.18420266
0.15375333
0.12146026
0.08756741
0.052396566
0.016447204
-0.019928941
-0.056194919
-0.092335553
-0.12813924
-0.16318044
-0.19718902
-0.23030138
-0.262158
-0.29273923
-0.3226053
-0.35198161
-0.38049177
-0.40889969
-0.43696377
-0.46527466
-0.49380644
-0.52258768
0.26692155
0.27249234
0.27846805
0.28411687
0.28958471
0.29468518
0.29979748
0.30422492
0.30866712
0.31289235
0.31642981
0.31917267
0.32126092
0.32219574
0.32164326
0.31988286
0.31679337
0.31180244
0.30464879
0.29511825
0.28309103
0.26867696
0.25171971
0.23207188
0.20993485
0.18565501
0.15913065
0.13041468
0.099997043
0.068102179
0.035028698
0.0012242769
-0.032998464
-0.067156339
-0.10121844
-0.13498703
-0.1680924
-0.20028584
-0.23168048
-0.26196534
-0.29111879
-0.31958384
-0.34758943
-0.37477961
-0.40183626
-0.42854113
-0.45541186
-0.48243525
-0.50969854
0.25329383
0.25781687
0.2627216
0.26733501
0.27179034
0.27591235
0.28003196
0.28353658
0.28702723
0.29029046
0.29291652
0.29480416
0.29606551
0.29626512
0.29510841
0.29281926
0.28927671
0.28397986
0.27669667
0.26723156
0.25547097
0.24150224
0.22517828
0.20638788
0.18530086
0.16221121
0.1370514
0.10988616
0.081153844
0.051063322
0.01989687
-0.011937102
-0.044151445
-0.076303376
-0.10834941
-0.14009771
-0.17121085
-0.20145467
-0.23092282
-0.2593307
-0.28664167
-0.31323778
-0.33932686
-0.3645734
-0.38960281
-0.41420622
-0.43886146
-0.46355431
-0.48835705
0.24001738
0.24373354
0.2477976
0.25159334
0.2552406
0.25857822
0.26189502
0.26465179
0.26736608
0.26984206
0.27172037
0.27290508
0.2734854
0.27307821
0.27142181
0.26869586
0.26478112
0.25923651
0.25185502
0.2424579
0.23093801
0.21736643
0.20160382
0.18356532
0.16339851
0.14135387
0.11738996
0.091579289
0.064315023
0.03579099
0.0062726866
-0.02386785
-0.054368777
-0.084826215
-0.11519081
-0.14527942
-0.17478664
-0.20349465
-0.23148423
-0.25849674
-0.28449121
-0.30978536
-0.33457965
-0.35854374
-0.38225426
-0.40550534
-0.42872962
-0.45190995
-0.47514867
0.22765862
0.23067318
0.23400653
0.23709717
0.24005241
0.24272198
0.24535672
0.24747951
0.24953638
0.2513466
0.25259305
0.25318423
0.25318992
0.25227066
0.25019244
0.24709903
0.24287397
0.2371269
0.22967227
0.22034653
0.20904919
0.19583865
0.18058445
0.1632222
0.14388238
0.12278017
0.099894781
0.075305092
0.049366239
0.022259735
-0.0057624827
-0.034357921
-0.06328335
-0.092165901
-0.12094993
-0.14945634
-0.17740068
-0.20457626
-0.23105043
-0.25658068
-0.28111719
-0.30493578
-0.32822074
-0.35065099
-0.37276487
-0.39435757
-0.4158311
-0.43716161
-0.45844384
0.21587559
0.21832324
0.22105855
0.22357037
0.22595388
0.22807006
0.23013669
0.23173066
0.23323698
0.23448888
0.23520498
0.23529797
0.23482149
0.23347299
0.23104208
0.2276433
0.22316363
0.21725605
0.20975354
0.20050627
0.18942042
0.1765442
0.16175643
0.14500851
0.1264172
0.10616891
0.084259149
0.060771237
0.036027263
0.010197624
-0.016478687
-0.043685836
-0.071197865
-0.098670952
-0.12604664
-0.15315195
-0.1797235
-0.20556771
-0.23074319
-0.25502449
-0.2783591
-0.30098369
-0.32307168
-0.34430775
-0.36519416
-0.3855265
-0.40567451
-0.4256076
-0.44543551
0.20484945
0.2068074
0.20902446
0.211036
0.21292643
0.21456646
0.21614469
0.21728457
0.21831864
0.21909254
0.21935532
0.21902344
0.21813688
0.2164245
0.21369613
0.21004223
0.20535361
0.1993205
0.19179188
0.18263037
0.17174861
0.15918652
0.14483238
0.12865031
0.11074589
0.091281934
0.070267166
0.047788285
0.024139024
-0.00051957034
-0.025959793
-0.05188853
-0.078093691
-0.104256
-0.13031377
-0.15609799
-0.181361
-0.20591919
-0.22982132
-0.25285427
-0.2749611
-0.29634867
-0.31717623
-0.33713796
-0.35670427
-0.37567301
-0.39438833
-0.41281348
-0.43105542
0.19442158
0.19597191
0.19775337
0.19934347
0.20081666
0.20205295
0.2032156
0.20396866
0.20459964
0.20496556
0.20484165
0.20414798
0.20291311
0.20089298
0.19791496
0.19404958
0.18919179
0.18306404
0.17552932
0.16646145
0.15577935
0.14351614
0.12956925
0.11391341
0.096644954
0.077906938
0.057718894
0.036169946
0.013529092
-0.010050812
-0.034352588
-0.059103446
-0.084103805
-0.10905696
-0.13389955
-0.15846768
-0.18252931
-0.20591189
-0.22865733
-0.25056578
-0.27157967
-0.29187984
-0.31161411
-0.33048645
-0.34893656
-0.36676553
-0.38429208
-0.40147374
-0.41842537
0.18463346
0.18583135
0.18723452
0.1884587
0.18956961
0.19045557
0.1912577
0.1916754
0.19195734
0.19197079
0.19151359
0.1905092
0.18897653
0.18669496
0.1835071
0.17946699
0.17447374
0.16827787
0.16075467
0.15178807
0.14130307
0.12932711
0.11576628
0.10060441
0.083930117
0.065869763
0.046451919
0.025767593
0.0040641403
-0.018512605
-0.041754999
-0.065408115
-0.089282998
-0.11310281
-0.1368024
-0.1602222
-0.1831432
-0.20540212
-0.22703345
-0.24784827
-0.26778771
-0.28701095
-0.30565322
-0.32343074
-0.34075441
-0.35743081
-0.37375662
-0.38968538
-0.40533157
0.17539791
0.17629666
0.17737624
0.17828676
0.17908602
0.17967013
0.18016095
0.18028888
0.18026909
0.17997823
0.17923383
0.17796267
0.17617555
0.17367235
0.17030911
0.16612609
0.16102668
0.15478599
0.14729008
0.13843213
0.12814306
0.11644525
0.10325354
0.08855881
0.072443291
0.055019834
0.036324019
0.016448512
-0.0043785144
-0.026017363
-0.048269273
-0.070895338
-0.093716182
-0.11647311
-0.13909995
-0.16144197
-0.18329293
-0.20449924
-0.22508974
-0.24488706
-0.26383335
-0.28206935
-0.29971958
-0.31651356
-0.33283455
-0.34849577
-0.36377273
-0.37861557
-0.39314321
0.1667067
0.1673459
0.16814341
0.16878024
0.16930732
0.16962778
0.16984672
0.16972174
0.16943899
0.16888368
0.16789056
0.16638951
0.16438457
0.16169363
0.15818451
0.15388604
0.14870584
0.14244062
0.13498604
0.12624366
0.11615002
0.10472274
0.091886049
0.077636059
0.062049494
0.045228801
0.027214082
0.0080997488
-0.011902949
-0.032659694
-0.053979936
-0.07563911
-0.097466294
-0.11921915
-0.14083055
-0.16215038
-0.18298383
-0.203186
-0.22278001
-0.24159881
-0.25958535
-0.27686439
-0.29354949
-0.30938477
-0.32472704
-0.33939783
-0.35365344
-0.36744229
-0.38088373
0.15850274
0.15891881
0.15947225
0.15987178
0.16016221
0.16025317
0.16023517
0.15988978
0.15937806
0.15859305
0.15738465
0.15568577
0.1534948
0.15064554
0.14701634
0.14262646
0.13738771
0.13111591
0.12371523
0.11509494
0.10519679
0.094034389
0.081541181
0.067716933
0.052633582
0.036385769
0.019016713
0.00062210322
-0.018601738
-0.038525275
-0.058965663
-0.079711298
-0.10059895
-0.12140127
-0.14205056
-0.16240163
-0.1822707
-0.20152155
-0.22017275
-0.23806778
-0.25515177
-0.27153592
-0.28732428
-0.30227633
-0.31672376
-0.33049719
-0.34383488
-0.35668399
-0.36916638
0.15076147
0.15098329
0.15132328
0.15151502
0.15159793
0.15148763
0.1512619
0.1507235
0.15001168
0.14902667
0.14763173
0.14576269
0.14341324
0.14043128
0.13670458
0.1322444
0.1269667
0.12070419
0.1133687
0.10487655
0.095174304
0.084272327
0.072112577
0.05869777
0.04409567
0.02839464
0.011640301
-0.0060709116
-0.024555855
-0.043689283
-0.063295579
-0.083174889
-0.10317097
-0.12307017
-0.14280435
-0.16223321
-0.18118322
-0.19952622
-0.21727641
-0.2342871
-0.25050553
-0.26603092
-0.28095807
-0.29506221
-0.30865103
-0.32156512
-0.33402606
-0.345981
-0.35755222
0.14344006
0.14349366
0.14364776
0.1436582
0.14355969
0.14327331
0.14286582
0.14215871
0.14127231
0.14011348
0.13855734
0.13654251
0.13405883
0.13096681
0.12716262
0.12265091
0.11735164
0.1111126
0.10385248
0.095494097
0.085988438
0.075343299
0.06350836
0.050488844
0.036348868
0.021171581
0.0050045577
-0.012055501
-0.029837158
-0.04821904
-0.067032375
-0.086088019
-0.10523617
-0.1242758
-0.14313857
-0.16168918
-0.179764
-0.19724271
-0.21413586
-0.23030662
-0.24570507
-0.26042021
-0.27453873
-0.28785192
-0.30064479
-0.31276834
-0.32442858
-0.33557305
-0.3463252
0.13651004
0.13641707
0.13640846
0.13626
0.13600229
0.13556144
0.13499462
0.13413994
0.13310129
0.1317916
0.13009656
0.12795749
0.12536106
0.12217905
0.11831523
0.11376876
0.10846346
0.10226059
0.095085083
0.086865667
0.077557436
0.067166179
0.055648514
0.043011865
0.029317161
0.014643109
-0.00096109492
-0.017398908
-0.034509313
-0.052174493
-0.07023215
-0.088502948
-0.10684305
-0.12506304
-0.14309455
-0.16080728
-0.17804689
-0.19470046
-0.21077523
-0.22614363
-0.2407586
-0.25470004
-0.26804699
-0.28060657
-0.29264231
-0.30401588
-0.3149188
-0.32529979
-0.33528231
0.12993659
0.1297165
0.12956602
0.12927881
0.12888189
0.12830601
0.12759999
0.12661675
0.12544585
0.12400585
0.12219188
0.11994788
0.11725792
0.11400394
0.11009657
0.10553044
0.10023311
0.094077908
0.0869954
0.078919786
0.069809929
0.059670069
0.048463055
0.036198252
0.022933782
0.0087445226
-0.0063190043
-0.022160756
-0.038629057
-0.055609369
-0.072945561
-0.090467306
-0.10803634
-0.12547398
-0.14271201
-0.15962515
-0.17606796
-0.19193463
-0.20722958
-0.22183437
-0.2357051
-0.2489139
-0.26153303
-0.27338535
-0.28471421
-0.295392
-0.30559681
-0.31527883
-0.32456168
0.12369198
0.12336154
0.1230873
0.12267896
0.12216041
0.12146669
0.12063935
0.11954453
0.1182593
0.11670743
0.1147925
0.11246096
0.10969481
0.10638514
0.10244882
0.097876721
0.092600042
0.086502938
0.079521108
0.071593779
0.06268329
0.052792709
0.04189046
0.029987622
0.017139834
0.0034186237
-0.011124423
-0.026394064
-0.042247016
-0.058571827
-0.075218223
-0.0920242
-0.10885671
-0.12554701
-0.14202715
-0.15817684
-0.17385906
-0.18897468
-0.20352563
-0.2174021
-0.23056335
-0.24307452
-0.25500165
-0.26618272
-0.27684214
-0.28686287
-0.29641051
-0.30543716
-0.31406587
0.11774687
0.11732129
0.11693971
0.11642623
0.11580206
0.11500616
0.11407378
0.11288289
0.11149966
0.10985267
0.10785313
0.10544991
0.10262335
0.099272821
0.095320889
0.090755354
0.085510887
0.079481417
0.072607314
0.06483244
0.056122335
0.046479189
0.035876423
0.02432661
0.011883173
-0.0013853271
-0.015426484
-0.030146101
-0.0454085
-0.061105131
-0.077091328
-0.09321278
-0.10934136
-0.12531752
-0.14107373
-0.1564946
-0.17145113
-0.18585054
-0.19969265
-0.21287599
-0.22536306
-0.23721299
-0.24848631
-0.25903568
-0.26906786
-0.27847618
-0.28741467
-0.29583752
-0.30386717
0.11207604
0.11156885
0.1110946
0.11049036
0.109775
0.10889113
0.10786852
0.10659574
0.10512943
0.10340265
0.10133347
0.0988731
0.096000581
0.092622812
0.088667541
0.084120077
0.078918431
0.072965347
0.066205475
0.05858694
0.05007823
0.040680899
0.030372822
0.019167875
0.0071174756
-0.005712476
-0.019268982
-0.033459118
-0.048154104
-0.063248185
-0.078602044
-0.094068514
-0.10952411
-0.12481782
-0.13988262
-0.1546079
-0.16887227
-0.18258886
-0.19575567
-0.2082791
-0.22012477
-0.23134646
-0.24199965
-0.25195096
-0.26139062
-0.27022199
-0.27858833
-0.28644619
-0.29391687
0.10665468
0.10607829
0.10552484
0.10484306
0.10404984
0.10309114
0.10199198
0.10065045
0.099114856
0.097322432
0.095197464
0.092693374
0.089788238
0.086395792
0.082448542
0.077929789
0.072780742
0.066912127
0.060272503
0.052813936
0.044507616
0.035354645
0.025336878
0.014469294
0.0028014781
-0.0096030927
-0.022691047
-0.036370921
-0.050520257
-0.065035982
-0.079783917
-0.094623536
-0.10943575
-0.12407746
-0.13848222
-0.1525441
-0.16614884
-0.17921516
-0.19173951
-0.20363576
-0.21487266
-0.22549929
-0.23556668
-0.2449548
-0.25383857
-0.26213099
-0.26996539
-0.27730076
-0.28425715
0.1014609
0.10082662
0.10020624
0.099459075
0.098600249
0.097578887
0.096415829
0.095017773
0.093425719
0.091580771
0.089412857
0.086877531
0.083952149
0.080556693
0.076628027
0.072147864
0.067060473
0.06128381
0.05477003
0.047474821
0.039371857
0.03046194
0.020730443
0.010193282
-0.0011016695
-0.013093172
-0.02572769
-0.038915401
-0.052539651
-0.066500002
-0.080667191
-0.094906894
-0.10910419
-0.12312329
-0.13689843
-0.15032815
-0.16330487
-0.17575255
-0.18766622
-0.1989668
-0.20962599
-0.21968866
-0.22920182
-0.23805792
-0.24641766
-0.25420322
-0.26153871
-0.26838568
-0.27486256
0.096474111
0.095792437
0.095116509
0.094315261
0.093402282
0.092329629
0.091114511
0.08967139
0.08803486
0.086149634
0.08395077
0.08139586
0.078461763
0.075074165
0.071173947
0.066741582
0.06172426
0.05604651
0.049663782
0.042535111
0.034636441
0.025968378
0.016519414
0.0063062243
-0.0046249389
-0.016214937
-0.028410273
-0.041122926
-0.054241631
-0.067668527
-0.08127909
-0.09494479
-0.10855466
-0.12197971
-0.13515483
-0.14798287
-0.16036252
-0.17222254
-0.18355678
-0.19429273
-0.20440495
-0.2139346
-0.22292514
-0.2312808
-0.2391492
-0.24646122
-0.25333248
-0.25972714
-0.2657619
0.091676156
0.090956795
0.090235858
0.08939103
0.088434573
0.087321272
0.086065165
0.084587747
0.082917974
0.081003932
0.07878535
0.076221766
0.073289727
0.069920148
0.06605761
0.061681645
0.056742232
0.051169878
0.044923069
0.037963919
0.030270445
0.021843143
0.012673235
0.0027779998
-0.0077978782
-0.018997266
-0.0307669
-0.043020728
-0.055652498
-0.068566928
-0.08164405
-0.094760773
-0.10780988
-0.12066867
-0.13327273
-0.14552896
-0.15734188
-0.16864464
-0.17943002
-0.18963161
-0.19922662
-0.20825284
-0.21675052
-0.22463482
-0.23204124
-0.23890884
-0.24534537
-0.25131767
-0.25694039
0.087050595
0.086302605
0.085546477
0.084667905
0.083677983
0.082534045
0.081247353
0.079745783
0.078053326
0.07612122
0.073893456
0.071331434
0.068411539
0.065069489
0.061253284
0.056941769
0.05208758
0.046626678
0.040520337
0.033733512
0.026246106
0.018058561
0.0091644747
-0.00041842494
-0.010646997
-0.021466051
-0.032822758
-0.044633179
-0.056795795
-0.069217893
-0.081783925
-0.094375906
-0.1068902
-0.1192099
-0.13127129
-0.1429851
-0.15426117
-0.16503669
-0.17530344
-0.18500065
-0.19410797
-0.20266025
-0.21069486
-0.2181372
-0.22511165
-0.23156501
-0.23759781
-0.24317954
-0.24842272
0.082583233
0.081815021
0.081032816
0.080129674
0.079115653
0.077950474
0.076642955
0.07512678
0.073421557
0.07148147
0.06925441
0.066703548
0.063805242
0.060499627
0.056737866
0.052498336
0.047736206
0.042392408
0.036430796
0.029818936
0.022538438
0.014589736
0.005968459
-0.0033073511
-0.013196103
-0.023644518
-0.034600396
-0.045982079
-0.057692522
-0.069641635
-0.081718143
-0.093808897
-0.10581366
-0.1176209
-0.12916756
-0.14036792
-0.15113671
-0.16141469
-0.17119268
-0.18041504
-0.18906365
-0.19717055
-0.20477053
-0.21179836
-0.21836813
-0.22443387
-0.23008934
-0.23530679
-0.24019628
0.078261704
0.077481086
0.076681279
0.075762132
0.074732775
0.073555163
0.072235965
0.070714156
0.06900547
0.067066846
0.064849749
0.062319037
0.059451155
0.056190304
0.052490584
0.048330088
0.043666395
0.038444988
0.032632095
0.026197686
0.019124915
0.011414224
0.0030629651
-0.0059106519
-0.015466593
-0.025553489
-0.036119982
-0.04708685
-0.058361347
-0.069856045
-0.081463853
-0.093076207
-0.10459614
-0.11591706
-0.12697655
-0.13769215
-0.14798299
-0.15779299
-0.167112
-0.17588901
-0.18410787
-0.19179816
-0.19899231
-0.20563388
-0.21182754
-0.21753415
-0.22284131
-0.227724
-0.2322897
0.074075734
0.073289909
0.07248032
0.071553105
0.070516556
0.069334722
0.068012375
0.066493319
0.064789857
0.062861508
0.060663018
0.058160853
0.055331634
0.052123321
0.048492741
0.044417862
0.039858557
0.034764474
0.029104038
0.022849426
0.01598518
0.0085117706
0.0004279625
-0.0082480018
-0.017477672
-0.0272116
-0.037399502
-0.047964756
-0.058818757
-0.069876848
-0.08103603
-0.092192139
-0.10325135
-0.11411165
-0.12471121
-0.13497052
-0.14481262
-0.15418415
-0.16307387
-0.17143489
-0.1792527
-0.18655449
-0.19337041
-0.19965197
-0.20549505
-0.21086679
-0.21584897
-0.22041942
-0.22468264
0.070016786
0.06923236
0.068420179
0.067492221
0.066456015
0.065277573
0.06395999
0.062451481
0.060761314
0.058851423
0.056679571
0.05421376
0.051430862
0.048282315
0.044727487
0.040744355
0.036294977
0.031332819
0.025828337
0.019755738
0.013100805
0.005864047
-0.0019546498
-0.010337103
-0.019246563
-0.028635536
-0.03845497
-0.048631052
-0.059079224
-0.069717707
-0.080447569
-0.091168888
-0.1017909
-0.11221585
-0.12238244
-0.13221379
-0.14163636
-0.15059901
-0.15908935
-0.16706404
-0.17450995
-0.18145208
-0.18791856
-0.19386836
-0.19938942
-0.2044549
-0.20914132
-0.21342932
-0.21742034
0.066078255
0.065301178
0.064492929
0.063570893
0.062541917
0.061373847
0.060068294
0.05857751
0.056908077
0.055024186
0.052886387
0.05046414
0.047734643
0.044652553
0.04117961
0.037293913
0.032959605
0.028133652
0.022788396
0.016899903
0.010455067
0.0034544298
-0.00410131
-0.012194037
-0.02078886
-0.029840271
-0.039300605
-0.049099157
-0.059155314
-0.069390337
-0.079709346
-0.090016585
-0.10022431
-0.11023874
-0.11999905
-0.1294307
-0.13846299
-0.14704656
-0.15516762
-0.16278577
-0.16988884
-0.17649952
-0.18264378
-0.18828709
-0.19350977
-0.19829038
-0.20270028
-0.20672319
-0.21045686
0.062254926
0.061490537
0.060692107
0.059782024
0.058766527
0.05761517
0.056328263
0.05486175
0.053219841
0.051368845
0.049271885
0.046899818
0.044230224
0.041220746
0.037835347
0.034052344
0.029837861
0.025152089
0.019969112
0.014266708
0.0080327597
0.0012678232
-0.0060268308
-0.013833205
-0.022118446
-0.030839078
-0.039948965
-0.049380763
-0.059057819
-0.068904578
-0.078830281
-0.088743315
-0.098558971
-0.10818723
-0.11756771
-0.12662784
-0.13529928
-0.14353392
-0.15131635
-0.15860855
-0.165399
-0.17170825
-0.1775604
-0.18292718
-0.18788229
-0.19240959
-0.19657604
-0.20036819
-0.20388042
0.05854338
0.057796291
0.057012849
0.056120029
0.055123554
0.053994563
0.052732226
0.051295861
0.049687599
0.047875726
0.045825756
0.043509882
0.040906116
0.037974881
0.034682216
0.031006742
0.026916469
0.022374552
0.017356703
0.011842268
0.0058200116
-0.00070951885
-0.0077446915
-0.015267705
-0.023247877
-0.031643809
-0.040411096
-0.049485994
-0.058795843
-0.068268484
-0.077817373
-0.087355122
-0.09680014
-0.10606601
-0.11509279
-0.12380954
-0.13214975
-0.140066
-0.14754096
-0.15453819
-0.16104618
-0.16708294
-0.17267016
-0.17778446
-0.18249278
-0.18678328
-0.19071833
-0.19428767
-0.19758157
0.054940914
0.054215145
0.053451242
0.052580358
0.051607796
0.050506159
0.049273633
0.047872623
0.046303454
0.044536264
0.042538793
0.040284519
0.037751936
0.03490405
0.031708851
0.028145332
0.024183292
0.019788624
0.01493855
0.0096138691
0.0038041287
-0.0024901583
-0.0092671746
-0.016509403
-0.024188445
-0.032265021
-0.040696684
-0.049423504
-0.058376922
-0.067488375
-0.076675733
-0.085855994
-0.094950858
-0.10387744
-0.11257623
-0.12097764
-0.1290165
-0.13664556
-0.1438452
-0.15057999
-0.15683812
-0.16263522
-0.1679912
-0.17288766
-0.17738636
-0.18148006
-0.18522778
-0.18862168
-0.19174922
0.05144667
0.050745427
0.0500048
0.049159731
0.0482152
0.047145155
0.045946942
0.04458579
0.04306046
0.041342831
0.039402723
0.037214855
0.034758244
0.031998305
0.028904861
0.025457324
0.021627198
0.017382894
0.012703052
0.0075698156
0.0019734367
-0.0040856283
-0.010605534
-0.017569118
-0.024950374
-0.032712155
-0.040814217
-0.049200661
-0.057807136
-0.066568949
-0.075408625
-0.084247857
-0.093011883
-0.10162137
-0.11001729
-0.11813121
-0.1258988
-0.13327239
-0.14022965
-0.14673511
-0.15277564
-0.15836344
-0.16351533
-0.16821565
-0.17251971
-0.17642305
-0.17998053
-0.18318743
-0.18612725
0.048059272
0.047385317
0.04667117
0.045855236
0.044942238
0.043907384
0.042747312
0.041429847
0.039952423
0.038288564
0.036410045
0.034292795
0.031916398
0.029248512
0.026260681
0.022932781
0.019237918
0.01514683
0.01063949
0.0056993009
0.00031715821
-0.005506557
-0.011770095
-0.018456704
-0.025542882
-0.032993609
-0.040771083
-0.048823637
-0.057091253
-0.065513377
-0.074017566
-0.082530612
-0.090981642
-0.099294995
-0.10741232
-0.11526616
-0.12279275
-0.12994351
-0.13669298
-0.14300506
-0.148865
-0.15428203
-0.15927109
-0.16382033
-0.16798146
-0.17175412
-0.1751912
-0.17828942
-0.18113123
0.044779856
0.044135004
0.043449551
0.042665167
0.041786333
0.040789461
0.039670576
0.038399908
0.036973754
0.035367205
0.033553878
0.031510884
0.029218409
0.026646215
0.023767456
0.020562494
0.01700594
0.013070675
0.0087379321
0.0039923164
-0.0011746763
-0.0067627467
-0.01277034
-0.019181156
-0.025974294
-0.033116813
-0.040573612
-0.048297425
-0.056232682
-0.064323293
-0.072502279
-0.08070209
-0.088856146
-0.096892702
-0.10475438
-0.11237482
-0.11969055
-0.12665164
-0.13322883
-0.13938398
-0.14509891
-0.15037764
-0.15523024
-0.15964441
-0.16366462
-0.16729103
-0.17057208
-0.17350781
-0.17617676
0.0416068
0.040992802
0.040337941
0.039587179
0.03874467
0.037788038
0.036712783
0.035491403
0.034119247
0.032572928
0.030827808
0.028862164
0.026656828
0.024183527
0.021416929
0.01833789
0.014922419
0.011145359
0.0069891344
0.0024395204
-0.0025114043
-0.0078634291
-0.013615258
-0.01975105
-0.026252555
-0.033088768
-0.040227566
-0.047626227
-0.055233751
-0.062998863
-0.070860639
-0.07875783
-0.086628609
-0.094405543
-0.10203275
-0.10944533
-0.11658018
-0.12338573
-0.12982866
-0.13586823
-0.14148285
-0.14667252
-0.15144508
-0.1557912
-0.15975364
-0.16333673
-0.16658875
-0.16950961
-0.17217914
0.03854328
0.037960574
0.037336858
0.036620615
0.035815517
0.034900446
0.03387042
0.032700094
0.031383994
0.029900216
0.028225766
0.026340065
0.024224628
0.021853027
0.019201346
0.016250927
0.012979049
0.0093623227
0.0053843073
0.0010319591
-0.0037020458
-0.0088175787
-0.014313627
-0.020174789
-0.026385492
-0.03291646
-0.039738791
-0.046814333
-0.054096703
-0.061539858
-0.069089581
-0.076691707
-0.084289648
-0.091820945
-0.099232132
-0.10646052
-0.11344365
-0.12012799
-0.12647531
-0.13244022
-0.1379946
-0.14312995
-0.14784533
-0.15212583
-0.15600345
-0.15947928
-0.16259504
-0.16535551
-0.16783427
0.03558556
0.035035161
0.034443343
0.033762579
0.032995802
0.032123286
0.03113963
0.030021615
0.028763094
0.02734365
0.025741859
0.023938273
0.021915108
0.019647667
0.017113341
0.014293941
0.011167889
0.0077133856
0.0039150818
-0.00023880906
-0.0047549499
-0.0096332642
-0.014872978
-0.020459141
-0.026379027
-0.032604965
-0.039111487
-0.045864738
-0.05282291
-0.059945546
-0.067185711
-0.07449703
-0.081828605
-0.089124001
-0.096333574
-0.10339823
-0.11025697
-0.11685471
-0.1231484
-0.12908803
-0.13463983
-0.13978989
-0.14453456
-0.14886189
-0.1528048
-0.15637
-0.15960127
-0.16250085
-0.16514565
0.032740567
0.032221064
0.031659776
0.031013543
0.030284418
0.029454145
0.028516955
0.027451687
0.026251631
0.024897831
0.02337032
0.02165071
0.019721889
0.017560763
0.015145954
0.012459764
0.0094816678
0.0061912565
0.0025742001
-0.0013799075
-0.0056769668
-0.010316922
-0.01529916
-0.020609234
-0.02623731
-0.032156995
-0.038346685
-0.044776482
-0.051409152
-0.058210295
-0.065140731
-0.072162327
-0.079230244
-0.086295448
-0.09331384
-0.10023156
-0.10699015
-0.11353342
-0.11981307
-0.12577201
-0.13136575
-0.13656597
-0.14135227
-0.14569743
-0.14961451
-0.15309939
-0.15618351
-0.15887797
-0.1612473
0.029999688
0.029511315
0.02898047
0.02836862
0.027676852
0.026888536
0.02599773
0.024985377
0.023844399
0.022557283
0.021105427
0.019471428
0.017638831
0.015586042
0.013292851
0.010742052
0.0079139995
0.004789334
0.0013545944
-0.0023990107
-0.0064765073
-0.010877926
-0.015602763
-0.020636993
-0.025972874
-0.031584097
-0.037453583
-0.043555163
-0.04985623
-0.056329276
-0.062943761
-0.069670063
-0.076470017
-0.083304342
-0.090136657
-0.096920387
-0.10360096
-0.11012242
-0.11643263
-0.12246946
-0.12818197
-0.13353597
-0.13850898
-0.14307846
-0.14726298
-0.15106703
-0.15452823
-0.15764881
-0.16050217
0.02737742
0.026915455
0.026411055
0.02582995
0.025172635
0.024424028
0.023578132
0.022617814
0.021535747
0.020315813
0.018940734
0.017394015
0.015659713
0.013717423
0.0115478
0.009133971
0.0064569832
0.0034983075
0.00024540428
-0.0033084796
-0.0071673915
-0.011331501
-0.01580021
-0.020559764
-0.025604156
-0.030906641
-0.03645472
-0.04222428
-0.048186964
-0.054322843
-0.060609027
-0.067025267
-0.073540898
-0.080129861
-0.086766585
-0.093415145
-0.10002753
-0.1065505
-0.11292856
-0.11909121
-0.12497121
-0.13050985
-0.13565282
-0.14034303
-0.14455898
-0.14827684
-0.15150729
-0.15426672
-0.15660363
0.024853098
0.024417196
0.023938921
0.023387599
0.022763397
0.02205283
0.021250356
0.020341052
0.019317865
0.018166138
0.016869739
0.015412682
0.013779037
0.011949067
0.0099040311
0.0076276009
0.005102011
0.0023098951
-0.00076028435
-0.004112808
-0.007750493
-0.011673361
-0.015880065
-0.020357669
-0.025104629