/*--------------------------------*- C++ -*----------------------------------*\
| =========                 |                                                 |
| \\      /  F ield         | OpenFOAM: The Open Source CFD Toolbox           |
|  \\    /   O peration     | Version:  v2006                                 |
|   \\  /    A nd           | Website:  www.openfoam.com                      |
|    \\/     M anipulation  |                                                 |
\*---------------------------------------------------------------------------*/
FoamFile
{
    version     2.0;
    format      ascii;
    class       volScalarField;
    location    "2000";
    object      k;
}
// * * * * * * * * * * * * * * * * * * * * * * * * * * * * * * * * * * * * * //

dimensions      [0 2 -2 0 0 0 0];


internalField   nonuniform List<scalar> 
19765
(
0.00015506836
0.0001580013
0.00016096398
0.00016395911
0.00016728825
0.00017052355
0.00017433469
0.0001774595
0.00018168703
0.0001842723
0.00018657131
0.00018932589
0.00019207863
0.00019397236
0.00019622097
0.00019890012
0.00020122723
0.00020324106
0.00020577227
0.00020860008
0.00021148575
0.00021404375
0.00021679332
0.00021991796
0.0002228759
0.00022519023
0.00022777801
0.00023076453
0.00023328873
0.00023585914
0.00023877622
0.00024210285
0.00024622177
0.00024905734
0.00025074061
0.00025331194
0.00025712591
0.00025975344
0.00026326876
0.00026843209
0.00027232561
0.00027358879
0.00027656377
0.00027673767
0.00027722035
0.00027701636
0.0002762842
0.00027477721
0.00027246459
0.00015644972
0.00015913383
0.00016274828
0.00017095511
0.00017872838
0.00018670589
0.00019365537
0.00020286488
0.00021040267
0.0002204026
0.00023145866
0.00024048148
0.00024704849
0.00025278221
0.00025664831
0.0002579807
0.0002590412
0.00026091232
0.0002632091
0.00026566487
0.00026869904
0.00027241445
0.00027590925
0.0002797615
0.00028578137
0.00029388792
0.00030135634
0.00030882313
0.00031848215
0.00032844924
0.0003378118
0.00034619512
0.00035316527
0.00036301397
0.00037449469
0.00038307959
0.00038856575
0.00039537489
0.00039868077
0.00039841327
0.00040113848
0.00040412925
0.00039927278
0.00039807744
0.00039421382
0.00038971014
0.00038216832
0.0003724482
0.00036138977
1.6581768e-05
1.5940847e-05
1.5592694e-05
1.6348443e-05
1.6786589e-05
1.7197981e-05
1.7283136e-05
1.7771064e-05
1.7774466e-05
1.8271677e-05
1.8874395e-05
1.9053414e-05
1.8873906e-05
1.8708248e-05
1.8304378e-05
1.7669226e-05
1.7245033e-05
1.6994095e-05
1.6758044e-05
1.6541776e-05
1.6509312e-05
1.67103e-05
1.6860906e-05
1.7018584e-05
1.7565829e-05
1.8642959e-05
1.9755087e-05
2.0914926e-05
2.2558345e-05
2.4417575e-05
2.6323557e-05
2.8193831e-05
2.9875325e-05
3.2363448e-05
3.561671e-05
3.8604107e-05
4.10106e-05
4.4121378e-05
4.6735343e-05
4.8148438e-05
5.0162394e-05
5.3868953e-05
5.5788523e-05
5.919049e-05
6.1477972e-05
6.7340791e-05
7.5219385e-05
8.5025179e-05
9.2914906e-05
3.7280331e-07
3.3397768e-07
3.1403566e-07
3.1788753e-07
3.1873548e-07
3.2003782e-07
3.1681068e-07
3.1970215e-07
3.1556246e-07
3.173339e-07
3.2050469e-07
3.1808195e-07
3.1091781e-07
3.0465108e-07
2.9645466e-07
2.8582309e-07
2.7877121e-07
2.7529158e-07
2.7199828e-07
2.6831046e-07
2.6824011e-07
2.7247907e-07
2.7530981e-07
2.7887819e-07
2.8846653e-07
3.0603958e-07
3.2529995e-07
3.4661446e-07
3.759241e-07
4.1033178e-07
4.4812751e-07
4.8837538e-07
5.2951099e-07
5.8715549e-07
6.6284494e-07
7.4152078e-07
8.1876128e-07
9.1719296e-07
1.0138633e-06
1.0958593e-06
1.203812e-06
1.3672656e-06
1.5113978e-06
1.7441053e-06
1.973441e-06
2.303446e-06
2.7017427e-06
3.2016986e-06
3.7908457e-06
7.4583114e-08
7.4557165e-08
7.5134217e-08
7.7046312e-08
7.8599203e-08
8.0113741e-08
8.1188513e-08
8.2732905e-08
8.3601958e-08
8.5034179e-08
8.6623545e-08
8.7694909e-08
8.8335547e-08
8.9077932e-08
8.9558423e-08
8.9713068e-08
9.0255878e-08
9.1214882e-08
9.2052414e-08
9.27862e-08
9.3829482e-08
9.5179595e-08
9.6518878e-08
9.8116652e-08
1.0044052e-07
1.037564e-07
1.0731884e-07
1.1106395e-07
1.1562204e-07
1.2061631e-07
1.2577502e-07
1.3096177e-07
1.3586743e-07
1.4180373e-07
1.4876067e-07
1.5537114e-07
1.611262e-07
1.6758988e-07
1.7332848e-07
1.7753859e-07
1.8241133e-07
1.8918203e-07
1.9410083e-07
2.0160323e-07
2.0799131e-07
2.1640138e-07
2.2505376e-07
2.3204168e-07
2.3772237e-07
5.2978859e-08
5.3123657e-08
5.353965e-08
5.4496302e-08
5.5252556e-08
5.6014701e-08
5.6611209e-08
5.7382183e-08
5.7875987e-08
5.8625711e-08
5.9361419e-08
5.986661e-08
6.0230678e-08
6.0635361e-08
6.0932364e-08
6.1158699e-08
6.1585458e-08
6.2175459e-08
6.2724238e-08
6.3271536e-08
6.3953164e-08
6.4753082e-08
6.5685972e-08
6.6791871e-08
6.8200864e-08
7.006443e-08
7.2102773e-08
7.4251755e-08
7.6772819e-08
7.9550298e-08
8.2461426e-08
8.5460409e-08
8.8356421e-08
9.1616841e-08
9.5361113e-08
9.9139865e-08
1.0255732e-07
1.0619723e-07
1.0970987e-07
1.1259614e-07
1.1545113e-07
1.1924804e-07
1.2235011e-07
1.2649e-07
1.3035817e-07
1.3507058e-07
1.402521e-07
1.4594488e-07
1.5102626e-07
4.122644e-08
4.121817e-08
4.1343012e-08
4.1742596e-08
4.2054637e-08
4.2378101e-08
4.2633488e-08
4.2982227e-08
4.321071e-08
4.3568138e-08
4.3930964e-08
4.4193804e-08
4.4397969e-08
4.4629176e-08
4.4817937e-08
4.498116e-08
4.5251543e-08
4.5616545e-08
4.5979213e-08
4.6356374e-08
4.6794964e-08
4.7283746e-08
4.7856451e-08
4.8543855e-08
4.9399069e-08
5.0485278e-08
5.1666643e-08
5.2924533e-08
5.4383444e-08
5.5982664e-08
5.7666517e-08
5.9410248e-08
6.112861e-08
6.3040927e-08
6.5194189e-08
6.737059e-08
6.9396138e-08
7.153822e-08
7.3629822e-08
7.5442642e-08
7.7262615e-08
7.95026e-08
8.1430652e-08
8.3807169e-08
8.6044066e-08
8.8616661e-08
9.1334788e-08
9.4216912e-08
9.6859185e-08
3.5101671e-08
3.5098513e-08
3.5168493e-08
3.5391261e-08
3.5564884e-08
3.5744331e-08
3.5886502e-08
3.6078548e-08
3.6207265e-08
3.6405595e-08
3.6607995e-08
3.6761373e-08
3.6888684e-08
3.7034683e-08
3.7164589e-08
3.728918e-08
3.7477068e-08
3.7721553e-08
3.7974769e-08
3.8248612e-08
3.8566992e-08
3.8922383e-08
3.9339448e-08
3.9833248e-08
4.0428105e-08
4.1158518e-08
4.1953453e-08
4.2804673e-08
4.3780422e-08
4.4848668e-08
4.5979377e-08
4.7159128e-08
4.8341137e-08
4.964316e-08
5.109341e-08
5.2575575e-08
5.3991647e-08
5.5484614e-08
5.6967119e-08
5.8311195e-08
5.9666068e-08
6.1272045e-08
6.2724665e-08
6.4452025e-08
6.6134293e-08
6.8046721e-08
7.009746e-08
7.2311366e-08
7.4445686e-08
3.1241258e-08
3.1227801e-08
3.1257709e-08
3.1379791e-08
3.1475012e-08
3.1575562e-08
3.165666e-08
3.1768463e-08
3.184636e-08
3.1966246e-08
3.2091015e-08
3.2191179e-08
3.2280131e-08
3.2383163e-08
3.2481061e-08
3.2580512e-08
3.2720423e-08
3.2897241e-08
3.3084584e-08
3.3289601e-08
3.3524409e-08
3.3783327e-08
3.4082194e-08
3.4433887e-08
3.4852107e-08
3.5354822e-08
3.5901642e-08
3.6489399e-08
3.7157326e-08
3.7886799e-08
3.8661215e-08
3.9472735e-08
4.0295081e-08
4.1194641e-08
4.2186482e-08
4.3203427e-08
4.4190414e-08
4.5227264e-08
4.6263567e-08
4.7225647e-08
4.8198693e-08
4.931354e-08
5.0343038e-08
5.1523825e-08
5.2675269e-08
5.3947635e-08
5.5285056e-08
5.6696283e-08
5.8042613e-08
2.8792292e-08
2.8787787e-08
2.880879e-08
2.8887051e-08
2.8948421e-08
2.9013309e-08
2.9066716e-08
2.9139457e-08
2.9192675e-08
2.9272499e-08
2.9356639e-08
2.9428064e-08
2.9495171e-08
2.9573117e-08
2.9650819e-08
2.9732772e-08
2.9842153e-08
2.9976915e-08
3.0121883e-08
3.0281775e-08
3.0464015e-08
3.0665041e-08
3.0894045e-08
3.1160159e-08
3.147226e-08
3.1840539e-08
3.2240731e-08
3.2671726e-08
3.3158142e-08
3.3688905e-08
3.4254127e-08
3.4849141e-08
3.5457834e-08
3.612095e-08
3.6848402e-08
3.759901e-08
3.8337967e-08
3.911404e-08
3.9896486e-08
4.0638327e-08
4.1390625e-08
4.2237755e-08
4.3036801e-08
4.3937519e-08
4.4827576e-08
4.5803939e-08
4.6834211e-08
4.7930233e-08
4.8995041e-08
2.7126713e-08
2.7127863e-08
2.7144968e-08
2.719953e-08
2.7243526e-08
2.7290273e-08
2.7330316e-08
2.7383365e-08
2.7425014e-08
2.748451e-08
2.7547953e-08
2.7605e-08
2.7661088e-08
2.7725713e-08
2.7792131e-08
2.7863351e-08
2.7953799e-08
2.8062254e-08
2.817949e-08
2.8308505e-08
2.8453918e-08
2.8613376e-08
2.8792264e-08
2.8997232e-08
2.9234773e-08
2.9510776e-08
2.9809959e-08
3.0132202e-08
3.0493466e-08
3.0886878e-08
3.1306416e-08
3.1749216e-08
3.2205179e-08
3.270012e-08
3.3240356e-08
3.3799433e-08
3.435503e-08
3.4937682e-08
3.5527504e-08
3.6093707e-08
3.6668602e-08
3.7304664e-08
3.7910809e-08
3.8580806e-08
3.9242966e-08
3.9957514e-08
4.0702848e-08
4.1485309e-08
4.2240609e-08
2.5965814e-08
2.5974326e-08
2.5992605e-08
2.6035816e-08
2.6072032e-08
2.611035e-08
2.614465e-08
2.6187997e-08
2.6224619e-08
2.6273672e-08
2.6326243e-08
2.6375914e-08
2.64263e-08
2.6483526e-08
2.6543369e-08
2.6607858e-08
2.6686183e-08
2.6777566e-08
2.6876208e-08
2.6984028e-08
2.7103983e-08
2.7234607e-08
2.7379029e-08
2.7541818e-08
2.7727958e-08
2.7941034e-08
2.8171082e-08
2.8418468e-08
2.8694044e-08
2.8993524e-08
2.931319e-08
2.9651373e-08
3.0001571e-08
3.0380956e-08
3.0793991e-08
3.1223154e-08
3.1653309e-08
3.2104574e-08
3.2563708e-08
3.3009521e-08
3.3462964e-08
3.3959899e-08
3.4438506e-08
3.4962187e-08
3.5482659e-08
3.6041113e-08
3.6623425e-08
3.7235962e-08
3.7830662e-08
2.5132874e-08
2.5147216e-08
2.5167712e-08
2.5205342e-08
2.5238384e-08
2.5273191e-08
2.5305718e-08
2.5344853e-08
2.5380152e-08
2.542447e-08
2.5471987e-08
2.5518617e-08
2.5566786e-08
2.5620518e-08
2.5677078e-08
2.5737792e-08
2.5808594e-08
2.5888945e-08
2.5975055e-08
2.6068096e-08
2.6169934e-08
2.6279586e-08
2.6398827e-08
2.653079e-08
2.6679368e-08
2.6846745e-08
2.7026318e-08
2.721868e-08
2.7431382e-08
2.7661735e-08
2.790749e-08
2.8167766e-08
2.8438362e-08
2.8730955e-08
2.9048705e-08
2.9379693e-08
2.9713512e-08
3.006364e-08
3.0420968e-08
3.0770591e-08
3.1126526e-08
3.1512877e-08
3.1887169e-08
3.2292104e-08
3.26945e-08
3.3121932e-08
3.3564357e-08
3.4025958e-08
3.447182e-08
2.4523118e-08
2.4542901e-08
2.4566481e-08
2.4602026e-08
2.4634567e-08
2.4668669e-08
2.470163e-08
2.4739626e-08
2.4775639e-08
2.4818436e-08
2.4864186e-08
2.4910257e-08
2.4958269e-08
2.5010881e-08
2.5066269e-08
2.5125243e-08
2.5191615e-08
2.5264966e-08
2.5342725e-08
2.5425532e-08
2.5514521e-08
2.5608945e-08
2.5709751e-08
2.581909e-08
2.5939969e-08
2.6073718e-08
2.6215922e-08
2.6367292e-08
2.6533205e-08
2.6712045e-08
2.6902589e-08
2.7104519e-08
2.7315119e-08
2.7542535e-08
2.7789132e-08
2.804672e-08
2.8307997e-08
2.8582292e-08
2.8863267e-08
2.9140205e-08
2.9422613e-08
2.9727541e-08
3.0024788e-08
3.034437e-08
3.066279e-08
3.0999526e-08
3.1347447e-08
3.1710263e-08
3.2060736e-08
2.407025e-08
2.4094605e-08
2.412134e-08
2.4156647e-08
2.4190102e-08
2.4225045e-08
2.4259662e-08
2.4298319e-08
2.4336247e-08
2.4379487e-08
2.4425518e-08
2.4472626e-08
2.4521863e-08
2.4574969e-08
2.4630683e-08
2.4689419e-08
2.4753561e-08
2.4822735e-08
2.4895112e-08
2.4970938e-08
2.5050819e-08
2.5134098e-08
2.5221183e-08
2.5313544e-08
2.5413475e-08
2.5521752e-08
2.5635425e-08
2.5755252e-08
2.5885113e-08
2.6024167e-08
2.6171936e-08
2.632843e-08
2.6491868e-08
2.6668028e-08
2.685877e-08
2.7058475e-08
2.7262031e-08
2.7475995e-08
2.7695896e-08
2.7913919e-08
2.8136616e-08
2.8375956e-08
2.8610248e-08
2.8860569e-08
2.9110023e-08
2.9372206e-08
2.9641798e-08
2.9921496e-08
3.0190339e-08
2.3729658e-08
2.3758142e-08
2.3788116e-08
2.3824361e-08
2.3859608e-08
2.3896348e-08
2.393337e-08
2.3973804e-08
2.4014396e-08
2.4059322e-08
2.4106944e-08
2.4156139e-08
2.4207549e-08
2.4262274e-08
2.4319404e-08
2.4379039e-08
2.4442566e-08
2.4509612e-08
2.4578799e-08
2.4650061e-08
2.4723614e-08
2.4798804e-08
2.4875677e-08
2.4955216e-08
2.5039133e-08
2.5127837e-08
2.5219382e-08
2.5314535e-08
2.5416136e-08
2.5523995e-08
2.5638132e-08
2.5758651e-08
2.5884418e-08
2.6019716e-08
2.6166166e-08
2.631999e-08
2.6477619e-08
2.6643747e-08
2.6815207e-08
2.6986252e-08
2.7161418e-08
2.7349329e-08
2.7534131e-08
2.773096e-08
2.7927469e-08
2.8133423e-08
2.834483e-08
2.8563964e-08
2.8774035e-08
2.3471861e-08
2.3504006e-08
2.353714e-08
2.3575009e-08
2.3612553e-08
2.3651665e-08
2.3691546e-08
2.3734468e-08
2.3778211e-08
2.3825651e-08
2.3875752e-08
2.3927777e-08
2.398206e-08
2.4039241e-08
2.4098622e-08
2.4160053e-08
2.42242e-08
2.4290659e-08
2.4358317e-08
2.4426855e-08
2.449618e-08
2.4565597e-08
2.4634886e-08
2.4704676e-08
2.4776199e-08
2.4849615e-08
2.4923673e-08
2.4999131e-08
2.507811e-08
2.5161024e-08
2.5248036e-08
2.5339213e-08
2.5434066e-08
2.5535999e-08
2.5646493e-08
2.5763044e-08
2.5883165e-08
2.6010237e-08
2.6142023e-08
2.6274284e-08
2.6410186e-08
2.6555921e-08
2.6699838e-08
2.68528e-08
2.7005688e-08
2.716546e-08
2.7329033e-08
2.7498145e-08
2.7659415e-08
2.3275816e-08
2.3311356e-08
2.3347624e-08
2.3387593e-08
2.3427791e-08
2.3469676e-08
2.3512745e-08
2.3558656e-08
2.3605914e-08
2.3656466e-08
2.3709696e-08
2.3765116e-08
2.3822824e-08
2.3883121e-08
2.3945433e-08
2.4009394e-08
2.4075141e-08
2.4142214e-08
2.4209646e-08
2.4276901e-08
2.4343631e-08
2.4409073e-08
2.4472802e-08
2.4535184e-08
2.459705e-08
2.4658383e-08
2.4718428e-08
2.4777919e-08
2.4838522e-08
2.4901198e-08
2.4965765e-08
2.5032501e-08
2.5101723e-08
2.5176217e-08
2.5257256e-08
2.5343202e-08
2.5432359e-08
2.5527222e-08
2.5626262e-08
2.5726383e-08
2.5829808e-08
2.5941044e-08
2.6051468e-08
2.6168957e-08
2.628672e-08
2.640978e-08
2.6535732e-08
2.6666007e-08
2.6789703e-08
2.3126961e-08
2.3165679e-08
2.3205041e-08
2.3247431e-08
2.3290528e-08
2.3335473e-08
2.3381973e-08
2.3431246e-08
2.3482306e-08
2.353643e-08
2.3593294e-08
2.3652568e-08
2.3714168e-08
2.377813e-08
2.3843948e-08
2.391107e-08
2.3979223e-08
2.4047878e-08
2.4116134e-08
2.4183262e-08
2.4248696e-08
2.4311584e-08
2.4371334e-08
2.4428117e-08
2.4482419e-08
2.4534094e-08
2.4582748e-08
2.462909e-08
2.4674545e-08
2.4720479e-08
2.4765835e-08
2.4811998e-08
2.4859865e-08
2.4911473e-08
2.4967855e-08
2.5028055e-08
2.5091044e-08
2.5158735e-08
2.5230148e-08
2.5303057e-08
2.5379032e-08
2.546134e-08
2.5543593e-08
2.5631486e-08
2.5719927e-08
2.581251e-08
2.5907321e-08
2.6005479e-08
2.609811e-08
2.3014582e-08
2.3056365e-08
2.3098828e-08
2.3143898e-08
2.3190103e-08
2.3238351e-08
2.32885e-08
2.3341447e-08
2.3396571e-08
2.3454653e-08
2.3515576e-08
2.3579111e-08
2.3645019e-08
2.3713133e-08
2.3782968e-08
2.3853811e-08
2.392506e-08
2.3996106e-08
2.4066057e-08
2.413401e-08
2.4199207e-08
2.4260686e-08
2.4317721e-08
2.4370322e-08
2.4418687e-08
2.446257e-08
2.4501843e-08
2.4537201e-08
2.4569995e-08
2.4601702e-08
2.4630223e-08
2.4659269e-08
2.4689131e-08
2.4721147e-08
2.4756369e-08
2.4794493e-08
2.4835044e-08
2.4879534e-08
2.4927404e-08
2.4977089e-08
2.5029699e-08
2.5087608e-08
2.5146094e-08
2.5209272e-08
2.5273314e-08
2.5340794e-08
2.5410172e-08
2.5482352e-08
2.5550029e-08
2.2930987e-08
2.2975773e-08
2.3021365e-08
2.3069329e-08
2.3118826e-08
2.3170591e-08
2.3224592e-08
2.3281491e-08
2.3340928e-08
2.3403316e-08
2.346868e-08
2.3536849e-08
2.3607459e-08
2.3680172e-08
2.3754498e-08
2.3829574e-08
2.390453e-08
2.3978665e-08
2.4051057e-08
2.4120638e-08
2.4186476e-08
2.4247491e-08
2.4302834e-08
2.4352382e-08
2.4396092e-08
2.4433634e-08
2.4465079e-08
2.4491125e-08
2.4513141e-08
2.4532251e-08
2.4546429e-08
2.4561138e-08
2.4575077e-08
2.4589784e-08
2.4606523e-08
2.4625461e-08
2.4646519e-08
2.4670918e-08
2.4698419e-08
2.4727982e-08
2.4760393e-08
2.4797366e-08
2.4835441e-08
2.4877565e-08
2.4920857e-08
2.4967129e-08
2.5015127e-08
2.5065554e-08
2.5112399e-08
2.2870427e-08
2.2918214e-08
2.2967e-08
2.3018058e-08
2.3071033e-08
2.3126525e-08
2.3184589e-08
2.3245709e-08
2.3309714e-08
2.3376739e-08
2.3446905e-08
2.3520075e-08
2.359577e-08
2.3673512e-08
2.3752781e-08
2.3832576e-08
2.3911798e-08
2.3989644e-08
2.4065132e-08
2.4137037e-08
2.4204264e-08
2.4265608e-08
2.4320104e-08
2.4367507e-08
2.4407584e-08
2.4439923e-08
2.4464746e-08
2.4482777e-08
2.4495374e-08
2.4502441e-08
2.4507158e-08
2.4507369e-08
2.450668e-08
2.4506068e-08
2.4506553e-08
2.4508606e-08
2.4512485e-08
2.4519225e-08
2.4528858e-08
2.4540756e-08
2.4555489e-08
2.4574288e-08
2.4594655e-08
2.4618679e-08
2.4644198e-08
2.4672465e-08
2.4702451e-08
2.4734701e-08
2.476425e-08
2.2828678e-08
2.2879504e-08
2.2931573e-08
2.2985921e-08
2.3042563e-08
2.3101998e-08
2.3164345e-08
2.3229955e-08
2.3298794e-08
2.3370784e-08
2.3446111e-08
2.3524645e-08
2.3605812e-08
2.3689007e-08
2.3773664e-08
2.3858649e-08
2.394266e-08
2.4024786e-08
2.4103963e-08
2.4178811e-08
2.4248078e-08
2.4310429e-08
2.4364785e-08
2.4410792e-08
2.4448055e-08
2.4476089e-08
2.4495231e-08
2.450626e-08
2.4510404e-08
2.4503297e-08
2.4498779e-08
2.448914e-08
2.4476215e-08
2.4461917e-08
2.4447772e-08
2.4434665e-08
2.4423139e-08
2.4414102e-08
2.4407802e-08
2.4403949e-08
2.4402965e-08
2.4405729e-08
2.4410488e-08
2.4418686e-08
2.4428715e-08
2.4441406e-08
2.4455905e-08
2.4472616e-08
2.4487442e-08
2.2802569e-08
2.2856512e-08
2.2911985e-08
2.2969826e-08
2.3030337e-08
2.3093942e-08
2.3160809e-08
2.3231188e-08
2.3305147e-08
2.3382437e-08
2.3463287e-08
2.3547562e-08
2.3634596e-08
2.372367e-08
2.3814159e-08
2.39048e-08
2.3994106e-08
2.4081049e-08
2.4164465e-08
2.4242819e-08
2.4314704e-08
2.4378655e-08
2.4433474e-08
2.4478705e-08
2.4513819e-08
2.4538261e-08
2.4552461e-08
2.4557248e-08
2.4553286e-08
2.4542843e-08
2.4525473e-08
2.4503283e-08
2.4478017e-08
2.4451008e-08
2.4423543e-08
2.4396655e-08
2.4371104e-08
2.4347736e-08
2.4326995e-08
2.4308877e-08
2.429371e-08
2.4282118e-08
2.4272928e-08
2.4267106e-08
2.4263466e-08
2.426253e-08
2.4263577e-08
2.4266898e-08
2.4269112e-08
2.2789763e-08
2.2846931e-08
2.2905953e-08
2.2967497e-08
2.3032095e-08
2.3100113e-08
2.3171758e-08
2.3247201e-08
2.3326583e-08
2.3409523e-08
2.3496273e-08
2.3586679e-08
2.3679989e-08
2.3775378e-08
2.3872152e-08
2.3968918e-08
2.4064016e-08
2.4156292e-08
2.4244469e-08
2.4326854e-08
2.4401885e-08
2.4467961e-08
2.4523769e-08
2.4568747e-08
2.4602256e-08
2.4623672e-08
2.4633503e-08
2.4632594e-08
2.4621798e-08
2.4602219e-08
2.457563e-08
2.4543565e-08
2.4507549e-08
2.4468904e-08
2.4429069e-08
2.4389358e-08
2.4350771e-08
2.4314145e-08
2.4280095e-08
2.4248849e-08
2.4220683e-08
2.4196034e-08
2.4174184e-08
2.4155738e-08
2.4139841e-08
2.4126776e-08
2.4115933e-08
2.4107496e-08
2.409869e-08
2.278853e-08
2.2849061e-08
2.2911804e-08
2.2977276e-08
2.3046199e-08
2.3118892e-08
2.3195594e-08
2.3276414e-08
2.3361549e-08
2.3450507e-08
2.354355e-08
2.3640496e-08
2.3740513e-08
2.384267e-08
2.3946194e-08
2.4049564e-08
2.4150951e-08
2.4249067e-08
2.4342509e-08
2.4429424e-08
2.4508092e-08
2.4576772e-08
2.463403e-08
2.4679206e-08
2.4711558e-08
2.4730399e-08
2.4736304e-08
2.4730159e-08
2.471278e-08
2.4685622e-08
2.4650309e-08
2.4608507e-08
2.4561981e-08
2.4512149e-08
2.4460559e-08
2.4408732e-08
2.4357861e-08
2.4308789e-08
2.4262284e-08
2.4218774e-08
2.4178511e-08
2.4141798e-08
2.4108279e-08
2.4078289e-08
2.4051232e-08
2.4027212e-08
2.4005705e-08
2.3986802e-08
2.3968242e-08
2.279763e-08
2.2861688e-08
2.2928347e-08
2.2997991e-08
2.3071496e-08
2.3149146e-08
2.3231208e-08
2.3317742e-08
2.3408984e-08
2.3504351e-08
2.3604102e-08
2.3708024e-08
2.3815198e-08
2.3924596e-08
2.4035355e-08
2.4145821e-08
2.4254001e-08
2.4358465e-08
2.445767e-08
2.4549598e-08
2.463237e-08
2.4704097e-08
2.4763223e-08
2.4808986e-08
2.4840554e-08
2.4857181e-08
2.4859496e-08
2.4848429e-08
2.4824842e-08
2.4790264e-08
2.4746487e-08
2.4695333e-08
2.4638727e-08
2.457816e-08
2.4515296e-08
2.4451857e-08
2.4389223e-08
2.4328274e-08
2.4269919e-08
2.4214766e-08
2.4163061e-08
2.4115018e-08
2.407057e-08
2.4029849e-08
2.3992462e-08
2.3958377e-08
2.3927138e-08
2.3898751e-08
2.3871396e-08
2.2816205e-08
2.2883979e-08
2.2954774e-08
2.302885e-08
2.3107217e-08
2.3190131e-08
2.3277883e-08
2.3370492e-08
2.3468224e-08
2.3570417e-08
2.3677319e-08
2.3788675e-08
2.3903488e-08
2.4020623e-08
2.4139124e-08
2.4257199e-08
2.4372689e-08
2.4484015e-08
2.4589481e-08
2.4686899e-08
2.4774224e-08
2.4849417e-08
2.4910793e-08
2.4957488e-08
2.4988586e-08
2.5003284e-08
2.5002263e-08
2.4986499e-08
2.4956903e-08
2.4915129e-08
2.4863109e-08
2.4802804e-08
2.4736311e-08
2.4665228e-08
2.4591351e-08
2.4516595e-08
2.4442517e-08
2.4370057e-08
2.4300256e-08
2.4233879e-08
2.4171188e-08
2.4112335e-08
2.405749e-08
2.4006633e-08
2.3959531e-08
2.3916047e-08
2.387578e-08
2.383866e-08
2.3803246e-08
2.2843709e-08
2.2915411e-08
2.2990586e-08
2.3069377e-08
2.3152911e-08
2.3241422e-08
2.333522e-08
2.3434294e-08
2.3538928e-08
2.3648393e-08
2.3762917e-08
2.38822e-08
2.4005161e-08
2.413056e-08
2.4257336e-08
2.4383556e-08
2.4506893e-08
2.4625606e-08
2.4737839e-08
2.4841225e-08
2.4933546e-08
2.5012608e-08
2.5076591e-08
2.5124528e-08
2.515542e-08
2.5168415e-08
2.5164238e-08
2.514392e-08
2.5108433e-08
2.5059556e-08
2.4999365e-08
2.4929979e-08
2.4853668e-08
2.4772155e-08
2.468738e-08
2.4601446e-08
2.4516084e-08
2.4432308e-08
2.435129e-08
2.4273939e-08
2.4200542e-08
2.4131221e-08
2.4066334e-08
2.400575e-08
2.3949364e-08
2.3896958e-08
2.3848175e-08
2.3802871e-08
2.3759939e-08
2.2879858e-08
2.2955724e-08
2.3035549e-08
2.3119361e-08
2.3208392e-08
2.3302859e-08
2.3403092e-08
2.3509051e-08
2.3621033e-08
2.3738249e-08
2.3860901e-08
2.3988637e-08
2.4120289e-08
2.4254511e-08
2.4390126e-08
2.4525056e-08
2.4656799e-08
2.4783444e-08
2.4902962e-08
2.5012799e-08
2.5110559e-08
2.5193883e-08
2.5260813e-08
2.5310274e-08
2.5341188e-08
2.5352655e-08
2.5345445e-08
2.5320645e-08
2.5279302e-08
2.5223326e-08
2.5154944e-08
2.5076438e-08
2.499026e-08
2.4898273e-08
2.4802577e-08
2.470546e-08
2.4608826e-08
2.451378e-08
2.4421623e-08
2.4333396e-08
2.4249426e-08
2.4169819e-08
2.4095094e-08
2.4025035e-08
2.3959642e-08
2.3898632e-08
2.3841683e-08
2.3788582e-08
2.3738519e-08
2.2924594e-08
2.3004886e-08
2.3089657e-08
2.3178821e-08
2.3273708e-08
2.3374521e-08
2.3481609e-08
2.3594906e-08
2.371472e-08
2.3840202e-08
2.3971524e-08
2.4108277e-08
2.4249203e-08
2.4392843e-08
2.4537898e-08
2.4682135e-08
2.4822871e-08
2.4958017e-08
2.5085355e-08
2.5202138e-08
2.5305783e-08
2.5393758e-08
2.5463964e-08
2.5515211e-08
2.5546344e-08
2.555642e-08
2.5546248e-08
2.5516979e-08
2.5469747e-08
2.5406595e-08
2.5329911e-08
2.5242147e-08
2.5145946e-08
2.5043331e-08
2.4936568e-08
2.4828139e-08
2.4720119e-08
2.4613719e-08
2.4510366e-08
2.4411231e-08
2.4316688e-08
2.4226843e-08
2.4142351e-08
2.4062933e-08
2.3988675e-08
2.3919242e-08
2.3854343e-08
2.3793694e-08
2.3736755e-08
2.2978063e-08
2.3063066e-08
2.3153107e-08
2.3247984e-08
2.3349117e-08
2.34567e-08
2.3571098e-08
2.3692226e-08
2.3820394e-08
2.3954698e-08
2.4095274e-08
2.424165e-08
2.4392475e-08
2.454617e-08
2.4701304e-08
2.4855483e-08
2.5005834e-08
2.5150074e-08
2.5285791e-08
2.5410032e-08
2.5520016e-08
2.5613035e-08
2.5686837e-08
2.5740117e-08
2.5771642e-08
2.5780428e-08
2.5767324e-08
2.5733549e-08
2.568033e-08
2.5609855e-08
2.5524678e-08
2.5427433e-08
2.532096e-08
2.5207458e-08
2.5089377e-08
2.4969392e-08
2.4849758e-08
2.47318e-08
2.4617077e-08
2.4506884e-08
2.4401648e-08
2.4301491e-08
2.4207184e-08
2.4118403e-08
2.4035304e-08
2.3957512e-08
2.3884758e-08
2.3816689e-08
2.3753015e-08
2.3040599e-08
2.3130628e-08
2.3226295e-08
2.3327274e-08
2.3435078e-08
2.3549891e-08
2.3672096e-08
2.3801587e-08
2.3938675e-08
2.4082401e-08
2.4232863e-08
2.4389516e-08
2.4550911e-08
2.4715345e-08
2.4881244e-08
2.504604e-08
2.5206662e-08
2.5360626e-08
2.5505306e-08
2.5637536e-08
2.5754328e-08
2.5852787e-08
2.5930504e-08
2.5986055e-08
2.6018126e-08
2.6025694e-08
2.600965e-08
2.5971285e-08
2.591193e-08
2.583392e-08
2.5739986e-08
2.5632954e-08
2.5515873e-08
2.5391135e-08
2.5261384e-08
2.5129498e-08
2.4997915e-08
2.4868089e-08
2.4741712e-08
2.4620201e-08
2.4504047e-08
2.4393395e-08
2.4289119e-08
2.4190863e-08
2.4098843e-08
2.4012649e-08
2.3932031e-08
2.3856569e-08
2.3786205e-08
2.3112721e-08
2.320812e-08
2.3309801e-08
2.3417309e-08
2.3532246e-08
2.3654791e-08
2.3785342e-08
2.3923774e-08
2.4070398e-08
2.42242e-08
2.4385228e-08
2.4552866e-08
2.4725556e-08
2.4901463e-08
2.5078861e-08
2.5254997e-08
2.5426592e-08
2.5590942e-08
2.5745202e-08
2.5885976e-08
2.601006e-08
2.6114365e-08
2.6196318e-08
2.6254369e-08
2.6287123e-08
2.6293524e-08
2.6274499e-08
2.623142e-08
2.6165728e-08
2.6079914e-08
2.5976892e-08
2.5859693e-08
2.5731587e-08
2.5595175e-08
2.545331e-08
2.5309082e-08
2.5165119e-08
2.5023015e-08
2.4884599e-08
2.4751413e-08
2.4624015e-08
2.4502583e-08
2.4388083e-08
2.428014e-08
2.4179022e-08
2.4084285e-08
2.3995699e-08
2.3912774e-08
2.3835674e-08
2.3195139e-08
2.3296283e-08
2.3404403e-08
2.3518905e-08
2.3641481e-08
2.3772304e-08
2.391179e-08
2.4059795e-08
2.4216624e-08
2.4381209e-08
2.4553545e-08
2.4732933e-08
2.4917703e-08
2.5105875e-08
2.5295561e-08
2.5483812e-08
2.5667125e-08
2.5842568e-08
2.6007057e-08
2.6156958e-08
2.628884e-08
2.6399409e-08
2.6485922e-08
2.6546699e-08
2.6580262e-08
2.6585523e-08
2.6563449e-08
2.6515494e-08
2.6443219e-08
2.6349276e-08
2.6236772e-08
2.6108956e-08
2.5969332e-08
2.5820726e-08
2.5666218e-08
2.5509118e-08
2.5352251e-08
2.5197364e-08
2.504643e-08
2.4901114e-08
2.476205e-08
2.4629457e-08
2.4504388e-08
2.4386454e-08
2.4275968e-08
2.4172462e-08
2.4075718e-08
2.3985176e-08
2.3901221e-08
2.3288757e-08
2.3396059e-08
2.3511086e-08
2.363309e-08
2.3763858e-08
2.3903558e-08
2.4052622e-08
2.421089e-08
2.4378656e-08
2.4554794e-08
2.4739243e-08
2.4931212e-08
2.5128911e-08
2.5330207e-08
2.5533032e-08
2.5734229e-08
2.593006e-08
2.6117347e-08
2.6292753e-08
2.6452394e-08
2.6592601e-08
2.6709867e-08
2.680127e-08
2.6864998e-08
2.6899485e-08
2.6903618e-08
2.68784e-08
2.6825373e-08
2.6746226e-08
2.6643778e-08
2.6521339e-08
2.6382388e-08
2.623068e-08
2.6069283e-08
2.5901519e-08
2.5730929e-08
2.5560548e-08
2.5392282e-08
2.5228258e-08
2.5070265e-08
2.4919021e-08
2.4774794e-08
2.4638717e-08
2.4510395e-08
2.4390185e-08
2.4277594e-08
2.4172417e-08
2.4074019e-08
2.3983009e-08
2.3394698e-08
2.3508612e-08
2.3631061e-08
2.3761126e-08
2.3900693e-08
2.4049927e-08
2.4209276e-08
2.437856e-08
2.4558062e-08
2.4746597e-08
2.4944036e-08
2.5149493e-08
2.5361044e-08
2.5576391e-08
2.5793275e-08
2.6008313e-08
2.6217519e-08
2.6417449e-08
2.6604503e-08
2.6774531e-08
2.6923615e-08
2.7048025e-08
2.7144658e-08
2.7211561e-08
2.724708e-08
2.7250079e-08
2.7221599e-08
2.7163275e-08
2.7076927e-08
2.6965548e-08
2.6832663e-08
2.6681996e-08
2.6517567e-08
2.6342708e-08
2.6160996e-08
2.5976217e-08
2.5791623e-08
2.5609294e-08
2.5431514e-08
2.5260206e-08
2.5096175e-08
2.4939746e-08
2.4792132e-08
2.465294e-08
2.4522563e-08
2.440049e-08
2.4286528e-08
2.4179962e-08
2.4081633e-08
2.3514331e-08
2.3635357e-08
2.3765796e-08
2.3904537e-08
2.4053574e-08
2.4213065e-08
2.4383475e-08
2.4564604e-08
2.4756721e-08
2.4958576e-08
2.5169965e-08
2.5389898e-08
2.5616305e-08
2.584671e-08
2.6078647e-08
2.6308492e-08
2.6531989e-08
2.6745418e-08
2.6944895e-08
2.7125992e-08
2.7284531e-08
2.7416553e-08
2.7518763e-08
2.7589066e-08
2.762572e-08
2.7627567e-08
2.7595685e-08
2.7531809e-08
2.7437893e-08
2.7317112e-08
2.7173215e-08
2.7010187e-08
2.6832334e-08
2.6643269e-08
2.6446839e-08
2.6247089e-08
2.6047498e-08
2.585033e-08
2.5658035e-08
2.5472677e-08
2.5295155e-08
2.5125861e-08
2.4966086e-08
2.4815444e-08
2.4674367e-08
2.4542325e-08
2.4419136e-08
2.4304004e-08
2.419801e-08
2.3649307e-08
2.3778e-08
2.3917059e-08
2.4065159e-08
2.4224406e-08
2.4394953e-08
2.4577281e-08
2.4771169e-08
2.4976867e-08
2.5193054e-08
2.5419447e-08
2.5654934e-08
2.5897293e-08
2.6143852e-08
2.6391919e-08
2.6637612e-08
2.6876388e-08
2.7104227e-08
2.731695e-08
2.7509835e-08
2.7678435e-08
2.7818552e-08
2.7926696e-08
2.8000628e-08
2.8038514e-08
2.8039178e-08
2.8003736e-08
2.7934025e-08
2.7832139e-08
2.770144e-08
2.7545912e-08
2.736982e-08
2.7177777e-08
2.6973691e-08
2.6761699e-08
2.6546114e-08
2.633065e-08
2.6117772e-08
2.5910104e-08
2.5709857e-08
2.5518037e-08
2.5335109e-08
2.5162449e-08
2.4999682e-08
2.484728e-08
2.4704696e-08
2.4571763e-08
2.4447592e-08
2.433353e-08
2.380161e-08
2.3938586e-08
2.4086969e-08
2.4245186e-08
2.4415467e-08
2.4597957e-08
2.4793153e-08
2.5000812e-08
2.5221158e-08
2.5452794e-08
2.5695345e-08
2.5947572e-08
2.6207079e-08
2.6470983e-08
2.6736348e-08
2.6999013e-08
2.7254124e-08
2.7497349e-08
2.772419e-08
2.792962e-08
2.8108915e-08
2.8257629e-08
2.8372074e-08
2.8449863e-08
2.8489074e-08
2.8488512e-08
2.8449335e-08
2.8373484e-08
2.8263194e-08
2.8122016e-08
2.7954189e-08
2.7764277e-08
2.7557215e-08
2.7337227e-08
2.7108751e-08
2.6876379e-08
2.6644074e-08
2.6414509e-08
2.6190497e-08
2.5974409e-08
2.5767367e-08
2.5569923e-08
2.5383537e-08
2.5207857e-08
2.5043396e-08
2.488959e-08
2.4746289e-08
2.4612504e-08
2.448987e-08
2.3973618e-08
2.4119569e-08
2.4278064e-08
2.4447247e-08
2.4629483e-08
2.4824906e-08
2.5034031e-08
2.5256583e-08
2.549276e-08
2.574108e-08
2.6001064e-08
2.6271329e-08
2.6549293e-08
2.683184e-08
2.7115769e-08
2.7396617e-08
2.76692e-08
2.7928848e-08
2.817073e-08
2.8389501e-08
2.8580147e-08
2.8737975e-08
2.8859096e-08
2.8940973e-08
2.8981597e-08
2.8979758e-08
2.8936654e-08
2.8854337e-08
2.8735177e-08
2.8582926e-08
2.8402087e-08
2.8197547e-08
2.7974581e-08
2.7737744e-08
2.7491784e-08
2.7241581e-08
2.6991358e-08
2.6744013e-08
2.6502562e-08
2.6269549e-08
2.604623e-08
2.5833255e-08
2.5632179e-08
2.544268e-08
2.5265314e-08
2.5099506e-08
2.4945124e-08
2.480107e-08
2.46693e-08
2.4168182e-08
2.4323887e-08
2.4493385e-08
2.4674492e-08
2.4869719e-08
2.5079189e-08
2.5303428e-08
2.5542131e-08
2.5795459e-08
2.6061833e-08
2.6340659e-08
2.6630393e-08
2.6928247e-08
2.7230851e-08
2.7534717e-08
2.7835052e-08
2.8126322e-08
2.8403495e-08
2.866139e-08
2.8894332e-08
2.909701e-08
2.9264482e-08
2.9392656e-08
2.9478851e-08
2.9520971e-08
2.9517794e-08
2.9470562e-08
2.9381433e-08
2.9252916e-08
2.9088961e-08
2.8894359e-08
2.867434e-08
2.8434535e-08
2.8179837e-08
2.791531e-08
2.7646128e-08
2.7376789e-08
2.7110432e-08
2.68503e-08
2.659913e-08
2.6358327e-08
2.6128657e-08
2.591178e-08
2.570741e-08
2.5516152e-08
2.5337422e-08
2.5171107e-08
2.5015991e-08
2.4874389e-08
2.4388725e-08
2.4555071e-08
2.4736586e-08
2.4930704e-08
2.5140099e-08
2.5364875e-08
2.560557e-08
2.5861838e-08
2.6133796e-08
2.6419755e-08
2.6718987e-08
2.7029771e-08
2.7349087e-08
2.7673291e-08
2.7998576e-08
2.8319801e-08
2.8631053e-08
2.8926916e-08
2.9201842e-08
2.9449813e-08
2.966522e-08
2.984287e-08
2.9978476e-08
3.0069212e-08
3.0112906e-08
3.0108324e-08
3.0056753e-08
2.9960456e-08
2.9822072e-08
2.9645759e-08
2.9436617e-08
2.9200235e-08
2.8942611e-08
2.8668974e-08
2.8384702e-08
2.8095275e-08
2.780548e-08
2.7518724e-08
2.7238504e-08
2.6967773e-08