/*--------------------------------*- C++ -*----------------------------------*\
| =========                 |                                                 |
| \\      /  F ield         | OpenFOAM: The Open Source CFD Toolbox           |
|  \\    /   O peration     | Version:  v2006                                 |
|   \\  /    A nd           | Website:  www.openfoam.com                      |
|    \\/     M anipulation  |                                                 |
\*---------------------------------------------------------------------------*/
FoamFile
{
    version     2.0;
    format      ascii;
    class       volScalarField;
    location    "2000";
    object      nut;
}
// * * * * * * * * * * * * * * * * * * * * * * * * * * * * * * * * * * * * * //

dimensions      [0 2 -1 0 0 0 0];


internalField   nonuniform List<scalar> 
19765
(
9.7792664e-06
9.7737029e-06
9.4799806e-06
9.5322426e-06
9.5289769e-06
9.6839371e-06
9.5986603e-06
9.772192e-06
9.7413735e-06
9.5515967e-06
9.6553676e-06
1.0034141e-05
1.0255647e-05
1.0447392e-05
1.0850658e-05
1.1021579e-05
1.0975042e-05
1.113078e-05
1.1548119e-05
1.1913713e-05
1.2160952e-05
1.2286328e-05
1.2507084e-05
1.264569e-05
1.2738935e-05
1.2796666e-05
1.2826418e-05
1.2767889e-05
1.2790794e-05
1.2676954e-05
1.2451202e-05
1.2162518e-05
1.2199237e-05
1.2350578e-05
1.2212448e-05
1.1877499e-05
1.1866247e-05
1.1808625e-05
1.1535756e-05
1.1630837e-05
1.2012256e-05
1.2171297e-05
1.2132552e-05
1.2450707e-05
1.234415e-05
1.2582882e-05
1.2592137e-05
1.2565565e-05
1.2436508e-05
5.4218895e-05
5.6848645e-05
5.9063918e-05
6.0846685e-05
6.3001684e-05
6.5206745e-05
6.742875e-05
6.9648931e-05
7.1937706e-05
7.3946474e-05
7.6316659e-05
7.8896774e-05
8.1114114e-05
8.3097287e-05
8.5136096e-05
8.6385381e-05
8.6696409e-05
8.7299809e-05
8.8548426e-05
9.0050165e-05
9.1483737e-05
9.2450809e-05
9.3281025e-05
9.434347e-05
9.5383686e-05
9.5903248e-05
9.6143787e-05
9.6467635e-05
9.6712342e-05
9.6759583e-05
9.6693675e-05
9.6561502e-05
9.6579968e-05
9.6444815e-05
9.581322e-05
9.4890575e-05
9.4079025e-05
9.2973078e-05
9.1580084e-05
9.0555919e-05
8.9656254e-05
8.7631108e-05
8.5471125e-05
8.1826029e-05
7.9224801e-05
7.307494e-05
6.6221773e-05
5.9386221e-05
5.4279875e-05
1.6002324e-05
1.53307e-05
1.4853124e-05
1.5094417e-05
1.5213414e-05
1.5327631e-05
1.5261493e-05
1.5423431e-05
1.5324609e-05
1.5470196e-05
1.571056e-05
1.5747626e-05
1.5579738e-05
1.5411585e-05
1.5123463e-05
1.4679966e-05
1.4325861e-05
1.4087782e-05
1.3906418e-05
1.3758802e-05
1.3701461e-05
1.3754979e-05
1.3779281e-05
1.3838663e-05
1.4135553e-05
1.4684539e-05
1.5191902e-05
1.5708687e-05
1.6449388e-05
1.7242794e-05
1.8012861e-05
1.8728513e-05
1.9370978e-05
2.0369884e-05
2.1615984e-05
2.2656639e-05
2.3468679e-05
2.4535661e-05
2.5357882e-05
2.5782705e-05
2.650424e-05
2.7754658e-05
2.8398819e-05
2.9580605e-05
3.036894e-05
3.2582036e-05
3.5459403e-05
3.8846564e-05
4.1197759e-05
6.2563135e-07
5.5988693e-07
5.2183485e-07
5.1633509e-07
5.0879807e-07
5.0197469e-07
4.904356e-07
4.8643701e-07
4.7534411e-07
4.7033345e-07
4.6761752e-07
4.5956289e-07
4.4653288e-07
4.3463677e-07
4.215004e-07
4.0620231e-07
3.946591e-07
3.8711519e-07
3.8079039e-07
3.7464514e-07
3.7201946e-07
3.7417958e-07
3.751273e-07
3.7716234e-07
3.8535152e-07
4.0071906e-07
4.1682939e-07
4.348789e-07
4.6013403e-07
4.8917497e-07
5.2051575e-07
5.5323542e-07
5.8699146e-07
6.3478398e-07
6.9562448e-07
7.5647381e-07
8.1656787e-07
8.9251259e-07
9.6490842e-07
1.0278081e-06
1.1127867e-06
1.2338125e-06
1.3415322e-06
1.5085308e-06
1.6709553e-06
1.9049783e-06
2.1901069e-06
2.5529407e-06
2.9821611e-06
1.6337794e-07
1.628637e-07
1.6313729e-07
1.650528e-07
1.6674031e-07
1.68347e-07
1.6941509e-07
1.7099239e-07
1.7181191e-07
1.7311926e-07
1.7472688e-07
1.758428e-07
1.7645213e-07
1.7717426e-07
1.7766867e-07
1.7775644e-07
1.7817467e-07
1.7902981e-07
1.7977153e-07
1.8039471e-07
1.8138874e-07
1.827587e-07
1.8402936e-07
1.8548876e-07
1.8761641e-07
1.9062155e-07
1.9375303e-07
1.9702737e-07
2.0100457e-07
2.0523157e-07
2.0947419e-07
2.136082e-07
2.1748079e-07
2.2229095e-07
2.2776818e-07
2.3262705e-07
2.3679694e-07
2.4157254e-07
2.455097e-07
2.4833937e-07
2.5209869e-07
2.5701505e-07
2.6056078e-07
2.6605394e-07
2.706256e-07
2.7677981e-07
2.8278195e-07
2.873219e-07
2.9167704e-07
1.4131643e-07
1.4146392e-07
1.4195144e-07
1.4311406e-07
1.4401696e-07
1.4492482e-07
1.4562535e-07
1.4653332e-07
1.4710028e-07
1.479702e-07
1.4880824e-07
1.4936955e-07
1.4976565e-07
1.5020908e-07
1.5052883e-07
1.5077641e-07
1.5126248e-07
1.5193311e-07
1.525542e-07
1.531731e-07
1.5392974e-07
1.5480298e-07
1.5585107e-07
1.5710035e-07
1.5867804e-07
1.6074441e-07
1.6298197e-07
1.6530687e-07
1.6798802e-07
1.7089212e-07
1.7388424e-07
1.7692053e-07
1.7980499e-07
1.8298796e-07
1.86568e-07
1.9011566e-07
1.9326773e-07
1.9657014e-07
1.9971118e-07
2.0226646e-07
2.0475262e-07
2.0802022e-07
2.1064162e-07
2.1410316e-07
2.1728072e-07
2.2110099e-07
2.2523097e-07
2.2970085e-07
2.3363383e-07
1.2423635e-07
1.2417009e-07
1.243022e-07
1.2483634e-07
1.2524426e-07
1.2566869e-07
1.2599553e-07
1.2645609e-07
1.2674437e-07
1.272161e-07
1.2769418e-07
1.2802901e-07
1.2828011e-07
1.2856835e-07
1.2879528e-07
1.289854e-07
1.2932537e-07
1.2979641e-07
1.3026319e-07
1.3074967e-07
1.3132058e-07
1.3196124e-07
1.3270843e-07
1.3360364e-07
1.3471753e-07
1.3612795e-07
1.3764606e-07
1.3924471e-07
1.4108174e-07
1.4307009e-07
1.4513437e-07
1.4724232e-07
1.4928853e-07
1.5153688e-07
1.5403158e-07
1.5651079e-07
1.5877971e-07
1.6114875e-07
1.6342889e-07
1.6537859e-07
1.6731566e-07
1.6967797e-07
1.7167924e-07
1.7412477e-07
1.7639246e-07
1.7897173e-07
1.8165899e-07
1.8447337e-07
1.8701989e-07
1.1525046e-07
1.1520147e-07
1.1527136e-07
1.1558496e-07
1.1582113e-07
1.1606639e-07
1.1625317e-07
1.1651753e-07
1.1668265e-07
1.1695603e-07
1.1723442e-07
1.1743568e-07
1.1759621e-07
1.1778526e-07
1.1794903e-07
1.1810498e-07
1.1835865e-07
1.1869862e-07
1.190517e-07
1.1943635e-07
1.1988823e-07
1.203963e-07
1.2099854e-07
1.2171392e-07
1.225763e-07
1.2363381e-07
1.2477848e-07
1.2599554e-07
1.2737998e-07
1.2888101e-07
1.3045272e-07
1.3207473e-07
1.3368109e-07
1.3542943e-07
1.37351e-07
1.3928807e-07
1.4111426e-07
1.4301547e-07
1.4487996e-07
1.4655231e-07
1.4821901e-07
1.5017075e-07
1.5191469e-07
1.5396254e-07
1.5593133e-07
1.5813899e-07
1.6047181e-07
1.6295476e-07
1.653174e-07
1.0883563e-07
1.0877033e-07
1.0878082e-07
1.0894863e-07
1.0907184e-07
1.092044e-07
1.0930453e-07
1.09456e-07
1.0955044e-07
1.0971504e-07
1.0988679e-07
1.1001652e-07
1.1012708e-07
1.1026055e-07
1.1038486e-07
1.1051188e-07
1.1070633e-07
1.1096164e-07
1.1123433e-07
1.1153651e-07
1.1188781e-07
1.122795e-07
1.1273672e-07
1.1327874e-07
1.1392702e-07
1.1470874e-07
1.1555727e-07
1.1646574e-07
1.1749369e-07
1.1860909e-07
1.1978407e-07
1.2100523e-07
1.2223147e-07
1.2356025e-07
1.250097e-07
1.2647899e-07
1.2788896e-07
1.2935448e-07
1.3080343e-07
1.3213533e-07
1.3346913e-07
1.3498203e-07
1.3636358e-07
1.3793228e-07
1.3944475e-07
1.4109802e-07
1.4281545e-07
1.4460773e-07
1.4629907e-07
1.0462986e-07
1.0458047e-07
1.0457824e-07
1.0467842e-07
1.0474933e-07
1.0482665e-07
1.0488386e-07
1.0497475e-07
1.0503104e-07
1.0513381e-07
1.0524315e-07
1.0532919e-07
1.054071e-07
1.0550342e-07
1.055987e-07
1.0570154e-07
1.0585273e-07
1.0604827e-07
1.0626193e-07
1.0650235e-07
1.0678238e-07
1.0709658e-07
1.0746071e-07
1.0788902e-07
1.0839638e-07
1.0899934e-07
1.0965567e-07
1.1036213e-07
1.1115837e-07
1.1202418e-07
1.1294158e-07
1.1390166e-07
1.1487708e-07
1.1593142e-07
1.1707771e-07
1.1824953e-07
1.1939261e-07
1.2058188e-07
1.217698e-07
1.2288671e-07
1.2400914e-07
1.2526052e-07
1.2643e-07
1.2773479e-07
1.290115e-07
1.3039706e-07
1.3184308e-07
1.33365e-07
1.3482931e-07
1.0163176e-07
1.0159249e-07
1.0158418e-07
1.0164539e-07
1.0168765e-07
1.0173497e-07
1.0176996e-07
1.0182819e-07
1.0186515e-07
1.0193423e-07
1.0200941e-07
1.0207179e-07
1.021317e-07
1.0220649e-07
1.0228386e-07
1.0237003e-07
1.0249163e-07
1.0264623e-07
1.0281735e-07
1.0301093e-07
1.0323548e-07
1.0348755e-07
1.0377693e-07
1.0411452e-07
1.0451196e-07
1.0497944e-07
1.0548916e-07
1.0603993e-07
1.0665872e-07
1.0733226e-07
1.0804869e-07
1.088019e-07
1.0957367e-07
1.1040641e-07
1.1130894e-07
1.1223609e-07
1.1315077e-07
1.1410247e-07
1.1505835e-07
1.1596954e-07
1.1688746e-07
1.1789398e-07
1.1884576e-07
1.1988819e-07
1.2090994e-07
1.2200241e-07
1.2313154e-07
1.2430652e-07
1.2543207e-07
9.9484951e-08
9.9458943e-08
9.9452802e-08
9.949427e-08
9.9522755e-08
9.9555e-08
9.9579394e-08
9.9620076e-08
9.9647426e-08
9.9697515e-08
9.9752952e-08
9.9801638e-08
9.9850776e-08
9.9911985e-08
9.9977361e-08
1.0005147e-07
1.001521e-07
1.0027771e-07
1.0041775e-07
1.0057644e-07
1.0075961e-07
1.009654e-07
1.0119992e-07
1.0147087e-07
1.017877e-07
1.0215703e-07
1.0256006e-07
1.0299679e-07
1.034862e-07
1.0401933e-07
1.0458807e-07
1.0518853e-07
1.0580852e-07
1.0647752e-07
1.0720205e-07
1.0795072e-07
1.0869691e-07
1.094744e-07
1.1026012e-07
1.1101853e-07
1.1178444e-07
1.1261653e-07
1.1341274e-07
1.1427617e-07
1.1512817e-07
1.1603442e-07
1.1697156e-07
1.1794936e-07
1.1889273e-07
9.7905766e-08
9.7890186e-08
9.7887698e-08
9.7918667e-08
9.7940748e-08
9.7965802e-08
9.7985918e-08
9.8017825e-08
9.8041396e-08
9.8081511e-08
9.8126344e-08
9.8167962e-08
9.8211472e-08
9.8264817e-08
9.8322786e-08
9.8388731e-08
9.8474765e-08
9.8579884e-08
9.8697181e-08
9.8829611e-08
9.8981232e-08
9.9151093e-08
9.9343037e-08
9.956246e-08
9.9817139e-08
1.0011142e-07
1.0043243e-07
1.0078088e-07
1.0117013e-07
1.0159368e-07
1.0204622e-07
1.0252578e-07
1.0302443e-07
1.0356286e-07
1.0414556e-07
1.0475004e-07
1.0535697e-07
1.0598954e-07
1.0663113e-07
1.0725562e-07
1.0788716e-07
1.0856685e-07
1.092217e-07
1.0992414e-07
1.106179e-07
1.1134903e-07
1.1210039e-07
1.1287888e-07
1.1362741e-07
9.6726292e-08
9.6720301e-08
9.6722777e-08
9.6749011e-08
9.6769039e-08
9.6791461e-08
9.6810823e-08
9.6838924e-08
9.6861897e-08
9.6897176e-08
9.6936615e-08
9.6974958e-08
9.7015861e-08
9.7064829e-08
9.7118365e-08
9.717892e-08
9.725483e-08
9.7345414e-08
9.7446051e-08
9.7558821e-08
9.768656e-08
9.7828811e-08
9.7988016e-08
9.8167962e-08
9.8374975e-08
9.8611975e-08
9.8870085e-08
9.9150465e-08
9.9462166e-08
9.9800467e-08
1.0016274e-07
1.0054877e-07
1.0095316e-07
1.0139018e-07
1.0186276e-07
1.0235448e-07
1.0285109e-07
1.0336901e-07
1.0389623e-07
1.044133e-07
1.0493712e-07
1.0549778e-07
1.0604167e-07
1.0662143e-07
1.0719591e-07
1.0779881e-07
1.0841764e-07
1.0905877e-07
1.0967604e-07
9.5833616e-08
9.5835406e-08
9.5842725e-08
9.5867237e-08
9.5887465e-08
9.5909735e-08
9.5930243e-08
9.5957436e-08
9.5981637e-08
9.6015223e-08
9.6052528e-08
9.6090023e-08
9.6130335e-08
9.6177308e-08
9.6228546e-08
9.6285811e-08
9.6354867e-08
9.6435218e-08
9.6523694e-08
9.6621728e-08
9.6731286e-08
9.6852139e-08
9.6985823e-08
9.7134997e-08
9.7304772e-08
9.7497125e-08
9.7705946e-08
9.7932577e-08
9.8182376e-08
9.8452739e-08
9.8743902e-08
9.9056316e-08
9.9385274e-08
9.9740152e-08
1.0012289e-07
1.0052166e-07
1.0092614e-07
1.0134823e-07
1.0177918e-07
1.0220435e-07
1.0263576e-07
1.0309519e-07
1.0354296e-07
1.0401718e-07
1.0448741e-07
1.0497795e-07
1.0547932e-07
1.0599635e-07
1.0649245e-07
9.5149616e-08
9.5158145e-08
9.517023e-08
9.5194913e-08
9.5216688e-08
9.5240282e-08
9.5263029e-08
9.5291052e-08
9.5317541e-08
9.5351363e-08
9.5388556e-08
9.5426736e-08
9.546778e-08
9.5514373e-08
9.5564837e-08
9.5620398e-08
9.5685021e-08
9.5758305e-08
9.5838014e-08
9.5925085e-08
9.6020846e-08
9.6125149e-08
9.6238927e-08
9.6364039e-08
9.6504574e-08
9.6661883e-08
9.6831807e-08
9.7015562e-08
9.7215257e-08
9.7431997e-08
9.7668022e-08
9.7922273e-08
9.8189684e-08
9.8476819e-08
9.8785685e-08
9.9108144e-08
9.9436799e-08
9.9780421e-08
1.0013256e-07
1.0048207e-07
1.0083747e-07
1.0121483e-07
1.0158437e-07
1.0197415e-07
1.0236137e-07
1.0276398e-07
1.0317473e-07
1.0359784e-07
1.0400327e-07
9.4621237e-08
9.4635404e-08
9.4651878e-08
9.4677754e-08
9.4701764e-08
9.4727484e-08
9.4753043e-08
9.4782923e-08
9.4812302e-08
9.4847572e-08
9.4885957e-08
9.4925833e-08
9.4968523e-08
9.5015884e-08
9.5066705e-08
9.5121786e-08
9.5183806e-08
9.5252405e-08
9.532594e-08
9.5404956e-08
9.5490296e-08
9.5581811e-08
9.5680008e-08
9.5786174e-08
9.5903538e-08
9.6033032e-08
9.6171877e-08
9.6320787e-08
9.6479332e-08
9.6654704e-08
9.6847603e-08
9.7053538e-08
9.7268416e-08
9.7498341e-08
9.7745757e-08
9.8005054e-08
9.8270804e-08
9.8549389e-08
9.8835941e-08
9.9121867e-08
9.9413199e-08
9.9721724e-08
1.0002495e-07
1.0034351e-07
1.0066018e-07
1.009881e-07
1.0132162e-07
1.0166408e-07
1.0199105e-07
9.420975e-08
9.4228831e-08
9.4249418e-08
9.427715e-08
9.4303819e-08
9.4332166e-08
9.4360879e-08
9.4393274e-08
9.4425922e-08
9.4463442e-08
9.4503897e-08
9.4546174e-08
9.4591173e-08
9.4640151e-08
9.4692199e-08
9.4747772e-08
9.480861e-08
9.4874351e-08
9.4943729e-08
9.5016972e-08
9.5094537e-08
9.5176228e-08
9.5262238e-08
9.5353448e-08
9.5452355e-08
9.5559608e-08
9.5673382e-08
9.5793559e-08
9.5918558e-08
9.6063284e-08
9.6220425e-08
9.6383763e-08
9.6553691e-08
9.6736205e-08
9.6933321e-08
9.7140924e-08
9.735493e-08
9.7579957e-08
9.7812289e-08
9.8045273e-08
9.8283164e-08
9.8534704e-08
9.8782806e-08
9.9042776e-08
9.9301546e-08
9.9568839e-08
9.9840231e-08
1.0011856e-07
1.003836e-07
9.3887867e-08
9.391123e-08
9.3935631e-08
9.3965594e-08
9.3995142e-08
9.4026399e-08
9.4058457e-08
9.409378e-08
9.4129936e-08
9.4170252e-08
9.4213391e-08
9.4258581e-08
9.4306398e-08
9.4357648e-08
9.4411616e-08
9.4468472e-08
9.4529253e-08
9.4593569e-08
9.4660387e-08
9.4729666e-08
9.4801554e-08
9.487577e-08
9.4952273e-08
9.5031655e-08
9.511578e-08
9.5205109e-08
9.529843e-08
9.539475e-08
9.549369e-08
9.5614863e-08
9.5738724e-08
9.5864449e-08
9.5997916e-08
9.6141753e-08
9.6297516e-08
9.6462425e-08
9.6633394e-08
9.6813692e-08
9.7000463e-08
9.7188568e-08
9.7381039e-08
9.7584375e-08
9.7785573e-08
9.7995995e-08
9.8205661e-08
9.8421736e-08
9.8640698e-08
9.8864856e-08
9.907748e-08
9.3635166e-08
9.3662381e-08
9.3690386e-08
9.3722843e-08
9.3755422e-08
9.378979e-08
9.3825327e-08
9.3863879e-08
9.3903725e-08
9.3947245e-08
9.3993529e-08
9.4042036e-08
9.4093086e-08
9.4147142e-08
9.4203605e-08
9.4262407e-08
9.4324047e-08
9.4388088e-08
9.4453627e-08
9.45204e-08
9.4588295e-08
9.465692e-08
9.4726058e-08
9.4796084e-08
9.4868332e-08
9.494312e-08
9.5019595e-08
9.5096737e-08
9.5179221e-08
9.5273693e-08
9.5366007e-08
9.5463299e-08
9.5568267e-08
9.5679518e-08
9.5800992e-08
9.5930463e-08
9.6065261e-08
9.6207704e-08
9.6355726e-08
9.6505471e-08
9.6659161e-08
9.6821681e-08
9.6983104e-08
9.7151906e-08
9.7320421e-08
9.7493957e-08
9.7669682e-08
9.7849534e-08
9.8019535e-08
9.3436758e-08
9.346749e-08
9.3498927e-08
9.3534049e-08
9.3569762e-08
9.360738e-08
9.3646499e-08
9.3688506e-08
9.3732194e-08
9.3779238e-08
9.3829036e-08
9.3881198e-08
9.3935839e-08
9.3993154e-08
9.4052607e-08
9.4113925e-08
9.4177187e-08
9.4241895e-08
9.4307206e-08
9.4372659e-08
9.4437926e-08
9.450249e-08
9.456599e-08
9.4628628e-08
9.469131e-08
9.475423e-08
9.481678e-08
9.488134e-08
9.4966332e-08
9.5031461e-08
9.5086831e-08
9.5159195e-08
9.5237017e-08
9.5322038e-08
9.541558e-08
9.5514905e-08
9.5618348e-08
9.5728013e-08
9.5842607e-08
9.5959289e-08
9.6079673e-08
9.6207392e-08
9.6334846e-08
9.6468327e-08
9.6601917e-08
9.6739514e-08
9.6878814e-08
9.7021404e-08
9.7155618e-08
9.3281331e-08
9.3315361e-08
9.3350123e-08
9.3388058e-08
9.3426997e-08
9.3467994e-08
9.35108e-08
9.3556458e-08
9.3604139e-08
9.3654983e-08
9.3708612e-08
9.3764734e-08
9.3823293e-08
9.3884269e-08
9.3947154e-08
9.4011495e-08
9.4077031e-08
9.4143192e-08
9.4209152e-08
9.427427e-08
9.4338027e-08
9.4399782e-08
9.4459048e-08
9.4515883e-08
9.4570852e-08
9.462403e-08
9.4675222e-08
9.4724905e-08
9.4772898e-08
9.4822184e-08
9.4880228e-08
9.4932848e-08
9.4990004e-08
9.5052059e-08
9.5119469e-08
9.5191538e-08
9.5267459e-08
9.5348879e-08
9.5434862e-08
9.5523236e-08
9.5615125e-08
9.5713213e-08
9.5811692e-08
9.5915221e-08
9.6019236e-08
9.612659e-08
9.6235403e-08
9.6346993e-08
9.6451579e-08
9.3160427e-08
9.3197607e-08
9.3235631e-08
9.3276504e-08
9.3318764e-08
9.336326e-08
9.3409864e-08
9.3459357e-08
9.3511185e-08
9.3566084e-08
9.3623835e-08
9.3684203e-08
9.3746989e-08
9.3811999e-08
9.3878721e-08
9.3946542e-08
9.4014922e-08
9.4083212e-08
9.4150563e-08
9.4216172e-08
9.4279352e-08
9.4339334e-08
9.4395515e-08
9.4447831e-08
9.4496579e-08
9.454173e-08
9.4583247e-08
9.4621785e-08
9.4660683e-08
9.4678709e-08
9.4725179e-08
9.4766588e-08
9.4806012e-08
9.4847327e-08
9.4892595e-08
9.4941795e-08
9.4994444e-08
9.5051787e-08
9.5113213e-08
9.5177143e-08
9.524439e-08
9.5316953e-08
9.5390429e-08
9.5468257e-08
9.5546915e-08
9.5628473e-08
9.5711382e-08
9.579672e-08
9.5876291e-08
9.3067556e-08
9.310781e-08
9.3149083e-08
9.3193021e-08
9.3238708e-08
9.3286837e-08
9.3337366e-08
9.3390879e-08
9.3447026e-08
9.3506228e-08
9.3568378e-08
9.3633273e-08
9.3700591e-08
9.3769987e-08
9.3840928e-08
9.3912653e-08
9.3984388e-08
9.4055395e-08
9.412478e-08
9.4191586e-08
9.4254972e-08
9.4314045e-08
9.4368092e-08
9.4416942e-08
9.4460676e-08
9.4499169e-08
9.4532538e-08
9.4561583e-08
9.4586649e-08
9.4612869e-08
9.4634192e-08
9.4654281e-08
9.4675162e-08
9.4698309e-08
9.4724598e-08
9.4753976e-08
9.4786245e-08
9.4822468e-08
9.4862362e-08
9.4904847e-08
9.4950531e-08
9.5000899e-08
9.5052641e-08
9.5108275e-08
9.5165088e-08
9.5224563e-08
9.5285414e-08
9.5348523e-08
9.540701e-08
9.2997793e-08
9.3041095e-08
9.3085639e-08
9.3132776e-08
9.3182011e-08
9.3233916e-08
9.3288517e-08
9.3346244e-08
9.3406897e-08
9.347065e-08
9.3537476e-08
9.3607182e-08
9.3679335e-08
9.3753461e-08
9.3828987e-08
9.3905019e-08
9.3980575e-08
9.4054824e-08
9.4126807e-08
9.4195423e-08
9.4259684e-08
9.4318576e-08
9.4371281e-08
9.4417531e-08
9.4457235e-08
9.4490177e-08
9.4516597e-08
9.4537211e-08
9.4553181e-08
9.4564664e-08
9.4573687e-08
9.4581346e-08
9.4588391e-08
9.4596079e-08
9.4605551e-08
9.4617254e-08
9.4631386e-08
9.4648908e-08
9.4669791e-08
9.4693352e-08
9.4720049e-08
9.4750981e-08
9.4783692e-08
9.4820004e-08
9.4857836e-08
9.4898223e-08
9.4940095e-08
9.4984157e-08
9.5024646e-08
9.2947351e-08
9.2993721e-08
9.3041595e-08
9.3092074e-08
9.3144998e-08
9.3200842e-08
9.3259682e-08
9.332183e-08
9.3387195e-08
9.3455757e-08
9.352754e-08
9.3602345e-08
9.3679641e-08
9.3758837e-08
9.3839309e-08
9.3920033e-08
9.3999845e-08
9.4077813e-08
9.4152899e-08
9.4223863e-08
9.4289577e-08
9.434891e-08
9.440094e-08
9.4445309e-08
9.4481787e-08
9.4510073e-08
9.45305e-08
9.4543828e-08
9.4550916e-08
9.4552943e-08
9.4550979e-08
9.4546212e-08
9.4539822e-08
9.4533152e-08
9.4527405e-08
9.4523278e-08
9.4521207e-08
9.452206e-08
9.452602e-08
9.4532725e-08
9.4542542e-08
9.4556285e-08
9.4572177e-08
9.4591514e-08
9.4612711e-08
9.4636469e-08
9.4661889e-08
9.4689532e-08
9.4714572e-08
9.2913346e-08
9.296284e-08
9.3014134e-08
9.3068114e-08
9.3124885e-08
9.3184847e-08
9.3248115e-08
9.3314906e-08
9.3385209e-08
9.3458849e-08
9.3535879e-08
9.3616082e-08
9.3698837e-08
9.3783443e-08
9.3869218e-08
9.395501e-08
9.4039488e-08
9.4121618e-08
9.4200267e-08
9.4274059e-08
9.4341735e-08
9.4402044e-08
9.4453963e-08
9.4497052e-08
9.4530964e-08
9.4555321e-08
9.4570534e-08
9.4577371e-08
9.4576708e-08
9.456965e-08
9.4557495e-08
9.454158e-08
9.4523201e-08
9.4503656e-08
9.4484204e-08
9.4465774e-08
9.4449037e-08
9.4434831e-08
9.4423525e-08
9.4415034e-08
9.440967e-08
9.440804e-08
9.4408907e-08
9.4413168e-08
9.4419632e-08
9.4428745e-08
9.443975e-08
9.4453074e-08
9.4464697e-08
9.2893584e-08
9.2946292e-08
9.3001123e-08
9.3058778e-08
9.3119575e-08
9.3183853e-08
9.3251759e-08
9.3323433e-08
9.3398922e-08
9.3477921e-08
9.3560499e-08
9.3646412e-08
9.3734951e-08
9.3825314e-08
9.3916747e-08
9.4007978e-08
9.4097519e-08
9.4184225e-08
9.4266863e-08
9.4343921e-08
9.4414009e-08
9.447576e-08
9.4528053e-08
9.4570368e-08
9.4602256e-08
9.4623275e-08
9.4633897e-08
9.4634915e-08
9.462718e-08
9.4611908e-08
9.4590483e-08
9.4564323e-08
9.4534863e-08
9.4503422e-08
9.4471342e-08
9.4439766e-08
9.4409567e-08
9.4381578e-08
9.4356335e-08
9.4333983e-08
9.431481e-08
9.4299275e-08
9.4286571e-08
9.4277297e-08
9.4270572e-08
9.4266651e-08
9.4264893e-08
9.426561e-08
9.4265468e-08
9.2886427e-08
9.2942465e-08
9.3000978e-08
9.3062496e-08
9.3127518e-08
9.319633e-08
9.3269104e-08
9.3345919e-08
9.3426861e-08
9.3511517e-08
9.3599959e-08
9.3691906e-08
9.3786567e-08
9.3883038e-08
9.3980491e-08
9.4077531e-08
9.4172521e-08
9.4264199e-08
9.4351224e-08
9.4431949e-08
9.4504857e-08
9.4568461e-08
9.4621547e-08
9.4663515e-08
9.469383e-08
9.4711991e-08
9.4718521e-08
9.4714244e-08
9.4700015e-08
9.4677128e-08
9.4647065e-08
9.4611345e-08
9.4571535e-08
9.4528998e-08
9.4485163e-08
9.4441362e-08
9.4398654e-08
9.4357894e-08
9.4319765e-08
9.4284614e-08
9.4252726e-08
9.4224457e-08
9.4199348e-08
9.4177772e-08
9.4159099e-08
9.4143438e-08
9.4130243e-08
9.4119723e-08
9.4109139e-08
9.2890679e-08
9.2950188e-08
9.3012548e-08
9.3078138e-08
9.3147602e-08
9.3221186e-08
9.3299081e-08
9.3381313e-08
9.3467996e-08
9.3558625e-08
9.365326e-08
9.3751582e-08
9.3852715e-08
9.3955657e-08
9.4059496e-08
9.4162715e-08
9.4263533e-08
9.4360567e-08
9.4452358e-08
9.4537126e-08
9.4613223e-08
9.467905e-08
9.4733294e-08
9.4775279e-08
9.4804394e-08
9.4820086e-08
9.4822925e-08
9.4813766e-08
9.4793483e-08
9.4763451e-08
9.4725248e-08
9.4680495e-08
9.463089e-08
9.4577855e-08
9.452292e-08
9.4467594e-08
9.4413105e-08
9.4360351e-08
9.4310152e-08
9.4263031e-08
9.4219285e-08
9.4179206e-08
9.4142613e-08
9.4109715e-08
9.4080082e-08
9.4053711e-08
9.4030138e-08
9.4009477e-08
9.3989508e-08
9.2905506e-08
9.296865e-08
9.3035048e-08
9.3104933e-08
9.3179077e-08
9.325769e-08
9.3340979e-08
9.3428925e-08
9.3521659e-08
9.3618594e-08
9.3719771e-08
9.3824824e-08
9.3932793e-08
9.404258e-08
9.4153179e-08
9.4262953e-08
9.4369976e-08
9.4472739e-08
9.4569661e-08
9.4658825e-08
9.4738456e-08
9.4806837e-08
9.4862561e-08
9.4904875e-08
9.4933102e-08
9.494664e-08
9.4946104e-08
9.4932384e-08
9.4906383e-08
9.4869556e-08
9.4823579e-08
9.4770178e-08
9.4711179e-08
9.4648085e-08
9.4582534e-08
9.4516202e-08
9.4450477e-08
9.4386316e-08
9.4324667e-08
9.4266208e-08
9.4211265e-08
9.4160088e-08
9.4112731e-08
9.4069275e-08
9.4029455e-08
9.3993186e-08
9.396007e-08
9.3930137e-08
9.3901618e-08
9.2930382e-08
9.2997345e-08
9.3067992e-08
9.3142414e-08
9.3221495e-08
9.3305416e-08
9.3394395e-08
9.3488372e-08
9.3587488e-08
9.369108e-08
9.3799165e-08
9.3911323e-08
9.402651e-08
9.4143527e-08
9.4261271e-08
9.4377981e-08
9.4491585e-08
9.4600446e-08
9.4702853e-08
9.4796751e-08
9.4880235e-08
9.4951474e-08
9.5008964e-08
9.5051877e-08
9.5079475e-08
9.5091116e-08
9.5087453e-08
9.5069416e-08
9.5037944e-08
9.4994576e-08
9.4941083e-08
9.48793e-08
9.4811186e-08
9.4738337e-08
9.4662509e-08
9.4585538e-08
9.4508967e-08
9.4433822e-08
9.4361175e-08
9.4291845e-08
9.4226196e-08
9.4164458e-08
9.4106877e-08
9.4053446e-08
9.4004032e-08
9.3958488e-08
9.3916474e-08
9.3877941e-08
9.3841523e-08
9.2965039e-08
9.3036027e-08
9.3111153e-08
9.3190374e-08
9.3274672e-08
9.33642e-08
9.3459185e-08
9.3559533e-08
9.3665384e-08
9.3776008e-08
9.3891387e-08
9.4011042e-08
9.4133844e-08
9.4258491e-08
9.4383777e-08
9.4507809e-08
9.4628375e-08
9.4743699e-08
9.4851937e-08
9.4950893e-08
9.5038533e-08
9.5112908e-08
9.5172422e-08
9.521617e-08
9.5243355e-08
9.5253305e-08
9.5246707e-08
9.5224532e-08
9.5187766e-08
9.5138026e-08
9.5077186e-08
9.5007191e-08
9.4930134e-08
9.4847722e-08
9.4761833e-08
9.4674463e-08
9.4587303e-08
9.4501461e-08
9.4418129e-08
9.4338253e-08
9.4262245e-08
9.419033e-08
9.412292e-08
9.405994e-08
9.4001372e-08
9.394702e-08
9.3896596e-08
9.3849976e-08
9.3806155e-08
9.3009445e-08
9.308468e-08
9.3164539e-08
9.324884e-08
9.3338654e-08
9.3434112e-08
9.3535444e-08
9.3642525e-08
9.3755487e-08
9.3873538e-08
9.3996618e-08
9.4124184e-08
9.4255017e-08
9.438771e-08
9.4520944e-08
9.4652697e-08
9.4780607e-08
9.490276e-08
9.5017168e-08
9.5121497e-08
9.5213579e-08
9.529135e-08
9.5353118e-08
9.5397906e-08
9.5424862e-08
9.5433284e-08
9.5423897e-08
9.5397713e-08
9.5355767e-08
9.529976e-08
9.5231664e-08
9.5153542e-08
9.5067628e-08
9.4975749e-08
9.4879915e-08
9.4782278e-08
9.4684678e-08
9.458831e-08
9.4494483e-08
9.4404266e-08
9.4318119e-08
9.4236284e-08
9.4159307e-08
9.4087073e-08
9.4019655e-08
9.3956826e-08
9.3898338e-08
9.3844001e-08
9.379314e-08
9.3063776e-08
9.3143504e-08
9.3228371e-08
9.3318054e-08
9.3413707e-08
9.3515438e-08
9.3623483e-08
9.3737682e-08
9.3858158e-08
9.3984055e-08
9.4115265e-08
9.4251177e-08
9.4390477e-08
9.4531647e-08
9.4673251e-08
9.481313e-08
9.4948774e-08
9.5078118e-08
9.5199033e-08
9.5309039e-08
9.5405837e-08
9.5487247e-08
9.5551481e-08
9.5597488e-08
9.5624367e-08
9.5631394e-08
9.5619323e-08
9.5589214e-08
9.5542155e-08
9.5479926e-08
9.5404604e-08
9.5318374e-08
9.5223616e-08
9.5122287e-08
9.501654e-08
9.490868e-08
9.4800691e-08
9.469387e-08
9.4589637e-08
9.4489176e-08
9.4393007e-08
9.4301393e-08
9.4215001e-08
9.413369e-08
9.4057616e-08
9.3986524e-08
9.3920208e-08
9.3858412e-08
9.3800766e-08
9.3128415e-08
9.32129e-08
9.3303073e-08
9.3398463e-08
9.3500302e-08
9.3608677e-08
9.3723826e-08
9.3845555e-08
9.3973973e-08
9.4108159e-08
9.4247954e-08
9.4392667e-08
9.454089e-08
9.4690986e-08
9.4841396e-08
9.4989818e-08
9.5133587e-08
9.5270488e-08
9.5398241e-08
9.5514222e-08
9.5615998e-08
9.5701271e-08
9.5768162e-08
9.5815549e-08
9.5842479e-08
9.5848212e-08
9.5833535e-08
9.5799551e-08
9.5747403e-08
9.5678952e-08
9.5596382e-08
9.5502008e-08
9.5398357e-08
9.5287533e-08
9.5171833e-08
9.5053718e-08
9.4935316e-08
9.4818028e-08
9.4703387e-08
9.4592689e-08
9.4486516e-08
9.4385165e-08
9.4289412e-08
9.4199099e-08
9.4114456e-08
9.4035211e-08
9.3961194e-08
9.3892086e-08
9.3827804e-08
9.3203947e-08
9.3293475e-08
9.3389277e-08
9.3490722e-08
9.359912e-08
9.3714536e-08
9.3837206e-08
9.3966906e-08
9.4103721e-08
9.4246667e-08
9.4395525e-08
9.4549521e-08
9.4707143e-08
9.4866633e-08
9.5026299e-08
9.5183688e-08
9.5335981e-08
9.5480804e-08
9.5615722e-08
9.5737965e-08
9.5844967e-08
9.5934316e-08
9.600404e-08
9.6052945e-08
9.6080033e-08
9.6084553e-08
9.6067319e-08
9.6029482e-08
9.5972238e-08
9.5897528e-08
9.5807646e-08
9.5705046e-08
9.559241e-08
9.5471993e-08
9.5346244e-08
9.521778e-08
9.5088872e-08
9.496103e-08
9.4835902e-08
9.471489e-08
9.4598648e-08
9.4487515e-08
9.4382363e-08
9.4283036e-08
9.4189826e-08
9.4102453e-08
9.4020781e-08
9.3944429e-08
9.3873592e-08
9.3291165e-08
9.3386045e-08
9.3487825e-08
9.35957e-08
9.3711058e-08
9.383394e-08
9.3964581e-08
9.410272e-08
9.4248417e-08
9.4400623e-08
9.4559048e-08
9.4722833e-08
9.4890353e-08
9.5059722e-08
9.5229105e-08
9.5395898e-08
9.5557116e-08
9.5710223e-08
9.5852628e-08
9.5981412e-08
9.6093877e-08
9.6187497e-08
9.6260211e-08
9.6310756e-08
9.6338092e-08
9.6341459e-08
9.63217e-08
9.6280008e-08
9.6217634e-08
9.6136601e-08
9.6039315e-08
9.5928374e-08
9.5806624e-08
9.5676476e-08
9.5540538e-08
9.5401579e-08
9.5262014e-08
9.5123467e-08
9.49877e-08
9.4856226e-08
9.4729772e-08
9.4608729e-08
9.4494061e-08
9.438562e-08
9.4283759e-08
9.4188192e-08
9.409882e-08
9.4015197e-08
9.3937795e-08
9.3391086e-08
9.3491654e-08
9.3599789e-08
9.37145e-08
9.3837249e-08
9.3968055e-08
9.4107146e-08
9.4254225e-08
9.4409321e-08
9.4571314e-08
9.4739841e-08
9.4913944e-08
9.5091881e-08
9.5271631e-08
9.5451208e-08
9.5627846e-08
9.5798393e-08
9.5960144e-08
9.6110348e-08
9.6245938e-08
9.6364087e-08
9.6462158e-08
9.6538003e-08
9.6590293e-08
9.6617949e-08
9.6620208e-08
9.6597939e-08
9.6552377e-08
9.6484824e-08
9.6397382e-08
9.6292579e-08
9.6173161e-08
9.6042142e-08
9.5902099e-08
9.5755796e-08
9.5606155e-08
9.5455733e-08
9.5306272e-08
9.5159654e-08
9.5017499e-08
9.4880619e-08
9.4749464e-08
9.4625088e-08
9.4507362e-08
9.4396697e-08
9.4292809e-08
9.4195633e-08
9.410466e-08
9.4020638e-08
9.3504975e-08
9.3611593e-08
9.3726495e-08
9.3848479e-08
9.3979087e-08
9.4118309e-08
9.4266365e-08
9.442292e-08
9.4587963e-08
9.4760303e-08
9.4939492e-08
9.5124468e-08
9.5313363e-08
9.5504011e-08
9.5694267e-08
9.5881197e-08
9.6061474e-08
9.6232221e-08
9.6390524e-08
9.6533171e-08
9.6657205e-08
9.6759887e-08
9.6838985e-08
9.689311e-08
9.6921145e-08
9.6922328e-08
9.6897554e-08
9.6848095e-08
9.6775302e-08
9.6681357e-08
9.6568911e-08
9.644087e-08
9.6300418e-08
9.6150296e-08
9.5993428e-08
9.5832885e-08
9.5671363e-08
9.5510729e-08
9.5352987e-08
9.519987e-08
9.5052281e-08
9.491074e-08
9.4776389e-08
9.4649127e-08
9.4529424e-08
9.4416999e-08
9.4311824e-08
9.4213326e-08
9.4122536e-08
9.3634372e-08
9.3747437e-08
9.3869554e-08
9.3999288e-08
9.4138258e-08
9.4286428e-08
9.4444004e-08
9.4610607e-08
9.4786184e-08
9.4969462e-08
9.5159903e-08
9.5356329e-08
9.5556741e-08
9.5758816e-08
9.5960243e-08
9.615791e-08
9.6348313e-08
9.6528395e-08
9.6695079e-08
9.6845011e-08
9.697511e-08
9.708254e-08
9.7164992e-08
9.7221021e-08
9.724948e-08
9.7249611e-08
9.722233e-08
9.7168945e-08
9.7090849e-08
9.6990305e-08
9.6870094e-08
9.6733285e-08
9.6583233e-08
9.6422845e-08
9.6255195e-08
9.6083502e-08
9.59106e-08
9.5738486e-08
9.5569291e-08
9.540487e-08
9.5246224e-08
9.5093955e-08
9.4949297e-08
9.4812185e-08
9.468315e-08
9.4561924e-08
9.4448515e-08
9.4342283e-08
9.4244558e-08
9.3781133e-08
9.390108e-08
9.4030904e-08
9.4168907e-08
9.4316791e-08
9.4474486e-08
9.4642181e-08
9.4819448e-08
9.5006183e-08
9.5201026e-08
9.5403336e-08
9.5611814e-08
9.5824315e-08
9.6038354e-08
9.6251443e-08
9.6460286e-08
9.6661193e-08
9.6850929e-08
9.7026252e-08
9.7183667e-08
9.7319981e-08
9.7432266e-08
9.7518149e-08
9.7576133e-08
9.7605046e-08
9.760414e-08
9.7574351e-08
9.7517014e-08
9.7433559e-08
9.732633e-08
9.7198245e-08
9.7052539e-08
9.6892735e-08
9.6721895e-08
9.6543241e-08
9.6360128e-08
9.6175532e-08
9.5991584e-08
9.5810554e-08
9.5634423e-08
9.5464306e-08
9.5300897e-08
9.5145524e-08
9.4998169e-08
9.4859422e-08
9.4729031e-08
9.4607046e-08
9.4492756e-08
9.4387808e-08
9.3947476e-08
9.4074785e-08
9.421286e-08
9.4359705e-08
9.4517108e-08
9.4684957e-08
9.4863422e-08
9.5052018e-08
9.5250579e-08
9.5457652e-08
9.5672481e-08
9.5893631e-08
9.6118805e-08
9.6345345e-08
9.6570577e-08
9.6791016e-08
9.7002783e-08
9.7202459e-08
9.738664e-08
9.7551698e-08
9.7694336e-08
9.781155e-08
9.7900908e-08
9.7960875e-08
9.7990262e-08
9.7988329e-08
9.7956032e-08
9.7894728e-08
9.7805876e-08
9.7691899e-08
9.755586e-08
9.7401158e-08
9.7231474e-08
9.7050015e-08
9.6860131e-08
9.6665312e-08
9.6468673e-08
9.6272494e-08