/*--------------------------------*- C++ -*----------------------------------*\
| =========                 |                                                 |
| \\      /  F ield         | OpenFOAM: The Open Source CFD Toolbox           |
|  \\    /   O peration     | Version:  v2006                                 |
|   \\  /    A nd           | Website:  www.openfoam.com                      |
|    \\/     M anipulation  |                                                 |
\*---------------------------------------------------------------------------*/
FoamFile
{
    version     2.0;
    format      ascii;
    class       volScalarField;
    location    "2000";
    object      nutMean;
}
// * * * * * * * * * * * * * * * * * * * * * * * * * * * * * * * * * * * * * //

dimensions      [0 2 -1 0 0 0 0];


internalField   nonuniform List<scalar> 
19765
(
1.001898e-05
9.9961764e-06
9.6735329e-06
9.6950262e-06
9.6634858e-06
9.7942969e-06
9.6832185e-06
9.8330862e-06
9.7748109e-06
9.56207e-06
9.6411042e-06
9.9953509e-06
1.0195201e-05
1.0368496e-05
1.0753667e-05
1.0908873e-05
1.0843673e-05
1.0982586e-05
1.1379278e-05
1.1721652e-05
1.194521e-05
1.2048032e-05
1.2242577e-05
1.2355679e-05
1.2426586e-05
1.2466497e-05
1.2480874e-05
1.2410532e-05
1.2421786e-05
1.230099e-05
1.2071364e-05
1.1780359e-05
1.1804149e-05
1.1941741e-05
1.1801595e-05
1.1469772e-05
1.144883e-05
1.138527e-05
1.1113028e-05
1.1192423e-05
1.1549199e-05
1.1697389e-05
1.16521e-05
1.1953061e-05
1.184812e-05
1.2073224e-05
1.2079161e-05
1.2052268e-05
1.1928842e-05
5.6618533e-05
5.9513308e-05
6.1627654e-05
6.3192607e-05
6.5155882e-05
6.7165205e-05
6.9180385e-05
7.1173101e-05
7.3251929e-05
7.5001337e-05
7.7084921e-05
7.9378257e-05
8.1324618e-05
8.303853e-05
8.4824262e-05
8.5929097e-05
8.6215574e-05
8.6790892e-05
8.7921457e-05
8.92117e-05
9.0373332e-05
9.1057032e-05
9.1626922e-05
9.2460456e-05
9.3267946e-05
9.3546003e-05
9.3580073e-05
9.374094e-05
9.3842691e-05
9.3756629e-05
9.3564887e-05
9.3309057e-05
9.3210086e-05
9.2970071e-05
9.2244458e-05
9.1243533e-05
9.0360716e-05
8.9191663e-05
8.7741609e-05
8.6645789e-05
8.5668595e-05
8.3644492e-05
8.1517099e-05
7.8236799e-05
7.5684911e-05
7.0124036e-05
6.3813949e-05
5.7413508e-05
5.2644154e-05
1.7796672e-05
1.692981e-05
1.6292478e-05
1.643743e-05
1.644207e-05
1.6440173e-05
1.6246668e-05
1.6297919e-05
1.6069339e-05
1.6109208e-05
1.6252205e-05
1.6182096e-05
1.5909925e-05
1.5657864e-05
1.5290774e-05
1.4777423e-05
1.4393025e-05
1.415419e-05
1.3950063e-05
1.374897e-05
1.3601179e-05
1.3553077e-05
1.3495584e-05
1.3482289e-05
1.3694668e-05
1.4142276e-05
1.4554967e-05
1.498752e-05
1.563528e-05
1.6332774e-05
1.7008817e-05
1.7633419e-05
1.8191031e-05
1.9082628e-05
2.019983e-05
2.112421e-05
2.1838122e-05
2.2784841e-05
2.3499292e-05
2.3847626e-05
2.4469069e-05
2.5574846e-05
2.6129506e-05
2.7188228e-05
2.7888226e-05
2.9706858e-05
3.2130297e-05
3.5066935e-05
3.7093841e-05
7.4298046e-07
6.4947605e-07
5.922221e-07
5.7649608e-07
5.5941977e-07
5.44289e-07
5.2470848e-07
5.1456743e-07
4.9717156e-07
4.8745588e-07
4.8074472e-07
4.6866806e-07
4.5200135e-07
4.3729798e-07
4.2171445e-07
4.0442591e-07
3.9184578e-07
3.8378196e-07
3.7658193e-07
3.693451e-07
3.6461946e-07
3.6405318e-07
3.6304132e-07
3.6358439e-07
3.7000392e-07
3.8296323e-07
3.9652746e-07
4.1199981e-07
4.3403931e-07
4.5936247e-07
4.8663247e-07
5.1496809e-07
5.4408089e-07
5.8557888e-07
6.3834064e-07
6.9073415e-07
7.4219127e-07
8.0724826e-07
8.6869933e-07
9.2151726e-07
9.93234e-07
1.0956434e-06
1.1860486e-06
1.3274364e-06
1.4652306e-06
1.6644015e-06
1.9061437e-06
2.211536e-06
2.5691128e-06
1.638955e-07
1.6296902e-07
1.6289018e-07
1.6453867e-07
1.6597721e-07
1.6733449e-07
1.6814577e-07
1.6947814e-07
1.7003511e-07
1.711056e-07
1.7248492e-07
1.7335859e-07
1.7372878e-07
1.742208e-07
1.7447146e-07
1.7432198e-07
1.7453759e-07
1.7520238e-07
1.7576667e-07
1.7624371e-07
1.7699068e-07
1.7798559e-07
1.789904e-07
1.8028001e-07
1.8220971e-07
1.8491306e-07
1.8770178e-07
1.9064553e-07
1.9424787e-07
1.9806672e-07
2.0189819e-07
2.0562443e-07
2.0910159e-07
2.1344571e-07
2.183966e-07
2.2276568e-07
2.2648704e-07
2.3075897e-07
2.342434e-07
2.3669081e-07
2.3997934e-07
2.4432667e-07
2.4738697e-07
2.5222791e-07
2.5619865e-07
2.6161217e-07
2.6697955e-07
2.7122311e-07
2.7492818e-07
1.4069996e-07
1.406618e-07
1.4099305e-07
1.4201502e-07
1.4277109e-07
1.4353652e-07
1.44098e-07
1.4486495e-07
1.4529424e-07
1.4603133e-07
1.4672992e-07
1.4715197e-07
1.4741492e-07
1.4772367e-07
1.4790381e-07
1.4801615e-07
1.4837002e-07
1.4890261e-07
1.4938915e-07
1.4988935e-07
1.5051193e-07
1.5120811e-07
1.5208696e-07
1.5319529e-07
1.5462575e-07
1.5649195e-07
1.5849856e-07
1.6060134e-07
1.6304434e-07
1.656883e-07
1.6841407e-07
1.7117803e-07
1.7379945e-07
1.7670056e-07
1.7996291e-07
1.8318443e-07
1.8603822e-07
1.8903006e-07
1.9186229e-07
1.9414922e-07
1.9637679e-07
1.9931474e-07
2.0165223e-07
2.0475939e-07
2.0759968e-07
2.1102343e-07
2.1472706e-07
2.1873113e-07
2.2234325e-07
1.2338774e-07
1.2325716e-07
1.233234e-07
1.2379052e-07
1.2412563e-07
1.2447453e-07
1.2472501e-07
1.2510443e-07
1.2531228e-07
1.2570315e-07
1.2609572e-07
1.2634507e-07
1.2651417e-07
1.2671952e-07
1.2686235e-07
1.2697217e-07
1.2723291e-07
1.2762029e-07
1.2800372e-07
1.2841277e-07
1.2890138e-07
1.2944228e-07
1.3008499e-07
1.3088315e-07
1.3189744e-07
1.3317933e-07
1.3455233e-07
1.3600907e-07
1.3769172e-07
1.395108e-07
1.4139996e-07
1.4332775e-07
1.4519689e-07
1.4725593e-07
1.4954141e-07
1.5180813e-07
1.5387954e-07
1.5604487e-07
1.5812308e-07
1.5989269e-07
1.6165381e-07
1.6380715e-07
1.6562321e-07
1.6785423e-07
1.699185e-07
1.7227328e-07
1.7472809e-07
1.7729678e-07
1.7962307e-07
1.1437481e-07
1.1427639e-07
1.1429941e-07
1.1456471e-07
1.1475261e-07
1.1494967e-07
1.1508964e-07
1.1530446e-07
1.1542206e-07
1.1564648e-07
1.1587374e-07
1.1602462e-07
1.1613648e-07
1.162756e-07
1.1638836e-07
1.1649396e-07
1.1669568e-07
1.1697994e-07
1.1727617e-07
1.1760458e-07
1.1799595e-07
1.1843411e-07
1.189587e-07
1.1959629e-07
1.2037939e-07
1.2133978e-07
1.2237616e-07
1.2348524e-07
1.2475155e-07
1.2612302e-07
1.2755974e-07
1.2904185e-07
1.3050901e-07
1.3210864e-07
1.3386634e-07
1.3563498e-07
1.3730104e-07
1.3903661e-07
1.4073469e-07
1.4225379e-07
1.4376975e-07
1.4554565e-07
1.4712755e-07
1.489899e-07
1.5077657e-07
1.527825e-07
1.5490126e-07
1.5715582e-07
1.5930048e-07
1.0803924e-07
1.0794825e-07
1.0793195e-07
1.0806974e-07
1.081629e-07
1.0826482e-07
1.0833513e-07
1.0845451e-07
1.0851844e-07
1.0865076e-07
1.08789e-07
1.0888606e-07
1.0896503e-07
1.0906602e-07
1.0915744e-07
1.0925174e-07
1.0941159e-07
1.096294e-07
1.0986343e-07
1.1012644e-07
1.1043611e-07
1.1078162e-07
1.111862e-07
1.1167143e-07
1.1226106e-07
1.1297311e-07
1.1374449e-07
1.1457493e-07
1.1551724e-07
1.1653888e-07
1.1761568e-07
1.1873467e-07
1.1985824e-07
1.2107761e-07
1.2240773e-07
1.2375475e-07
1.2504735e-07
1.2639193e-07
1.2771949e-07
1.2893823e-07
1.3016024e-07
1.3154681e-07
1.3281094e-07
1.3424957e-07
1.3563539e-07
1.3715249e-07
1.3872917e-07
1.403754e-07
1.419294e-07
1.0391531e-07
1.0384909e-07
1.0382947e-07
1.0390956e-07
1.0396102e-07
1.0401869e-07
1.0405709e-07
1.0412759e-07
1.0416481e-07
1.0424692e-07
1.0433488e-07
1.0440023e-07
1.0445798e-07
1.045333e-07
1.0460721e-07
1.0468833e-07
1.0481579e-07
1.049852e-07
1.0517143e-07
1.053831e-07
1.0563185e-07
1.0591143e-07
1.0623586e-07
1.0661955e-07
1.0708015e-07
1.0762894e-07
1.0822552e-07
1.0887067e-07
1.0959934e-07
1.1039107e-07
1.1123041e-07
1.1210878e-07
1.1300132e-07
1.1396729e-07
1.1501735e-07
1.1608985e-07
1.171361e-07
1.1822516e-07
1.193116e-07
1.2033199e-07
1.213584e-07
1.2250234e-07
1.2356981e-07
1.2476227e-07
1.2592761e-07
1.2719309e-07
1.2851331e-07
1.2990233e-07
1.3123834e-07
1.010104e-07
1.0096083e-07
1.0094142e-07
1.0098904e-07
1.0101838e-07
1.0105259e-07
1.0107516e-07
1.0111981e-07
1.0114424e-07
1.0119947e-07
1.0126038e-07
1.0130907e-07
1.0135559e-07
1.0141629e-07
1.0147931e-07
1.0155062e-07
1.0165558e-07
1.0179156e-07
1.0194287e-07
1.0211528e-07
1.0231647e-07
1.0254271e-07
1.0280231e-07
1.0310541e-07
1.0346606e-07
1.0389153e-07
1.0435507e-07
1.0485793e-07
1.0542384e-07
1.0603947e-07
1.0669476e-07
1.0738391e-07
1.0809036e-07
1.0885348e-07
1.0968052e-07
1.1052964e-07
1.1136751e-07
1.1223975e-07
1.1311505e-07
1.1394892e-07
1.1478971e-07
1.1571161e-07
1.1658255e-07
1.1753778e-07
1.1847345e-07
1.1947488e-07
1.2051017e-07
1.2158787e-07
1.2262048e-07
9.8945113e-08
9.8912575e-08
9.8899311e-08
9.8931637e-08
9.8951627e-08
9.8975276e-08
9.899162e-08
9.9023415e-08
9.9042703e-08
9.9083627e-08
9.912964e-08
9.9169324e-08
9.920958e-08
9.9261299e-08
9.9316916e-08
9.9380699e-08
9.946941e-08
9.9581452e-08
9.9706813e-08
9.9849467e-08
1.0001466e-07
1.0020033e-07
1.0041151e-07
1.0065505e-07
1.0094212e-07
1.0127772e-07
1.0164377e-07
1.0204176e-07
1.0248833e-07
1.0297464e-07
1.0349398e-07
1.0404254e-07
1.0460917e-07
1.0522101e-07
1.0588342e-07
1.0656743e-07
1.0724924e-07
1.0795992e-07
1.0867755e-07
1.0936985e-07
1.1006955e-07
1.1082956e-07
1.1155612e-07
1.123448e-07
1.1312237e-07
1.1394989e-07
1.1480543e-07
1.1569786e-07
1.1655861e-07
9.7439543e-08
9.7419851e-08
9.7412776e-08
9.7437508e-08
9.7453925e-08
9.7473246e-08
9.7488071e-08
9.7514077e-08
9.7532391e-08
9.7566365e-08
9.7604889e-08
9.7640515e-08
9.7678056e-08
9.7724912e-08
9.7776137e-08
9.7834778e-08
9.7912132e-08
9.8007194e-08
9.8113418e-08
9.8233541e-08
9.8371164e-08
9.8525146e-08
9.8698553e-08
9.8896028e-08
9.9126446e-08
9.939339e-08
9.9684501e-08
1.0000136e-07
1.0035575e-07
1.0074154e-07
1.011543e-07
1.0159183e-07
1.0204671e-07
1.0253792e-07
1.030693e-07
1.0362023e-07
1.0417353e-07
1.0475056e-07
1.0533558e-07
1.0590487e-07
1.0648111e-07
1.0710137e-07
1.0769862e-07
1.0834e-07
1.0897316e-07
1.0964094e-07
1.1032731e-07
1.1103859e-07
1.117225e-07
9.6322817e-08
9.6314312e-08
9.6313937e-08
9.6335995e-08
9.6352338e-08
9.6371032e-08
9.6387012e-08
9.6411277e-08
9.6430906e-08
9.646213e-08
9.649739e-08
9.6531776e-08
9.6568679e-08
9.6613193e-08
9.6662023e-08
9.6717337e-08
9.6786824e-08
9.6869821e-08
9.6961953e-08
9.7065098e-08
9.7181736e-08
9.731122e-08
9.7455428e-08
9.7617516e-08
9.780446e-08
9.8018922e-08
9.8252433e-08
9.8506636e-08
9.87897e-08
9.9097379e-08
9.9427162e-08
9.9778208e-08
1.0014551e-07
1.0054237e-07
1.0097144e-07
1.0141783e-07
1.0186891e-07
1.0233976e-07
1.0281902e-07
1.0328903e-07
1.0376564e-07
1.0427584e-07
1.0477054e-07
1.0529835e-07
1.0582107e-07
1.0636994e-07
1.0693325e-07
1.0751678e-07
1.0807844e-07
9.5484117e-08
9.5484417e-08
9.5490017e-08
9.5511747e-08
9.5529609e-08
9.5549486e-08
9.5567878e-08
9.5592615e-08
9.5614738e-08
9.5645676e-08
9.5680237e-08
9.5715141e-08
9.575278e-08
9.5796685e-08
9.5844611e-08
9.5898067e-08
9.5962302e-08
9.6036841e-08
9.6118686e-08
9.6209084e-08
9.6309719e-08
9.6420179e-08
9.6541585e-08
9.6676079e-08
9.6829093e-08
9.7002673e-08
9.7191045e-08
9.7395823e-08
9.7622255e-08
9.7867816e-08
9.8131844e-08
9.841428e-08
9.8711228e-08
9.9031756e-08
9.9377711e-08
9.9738394e-08
1.0010463e-07
1.0048726e-07
1.0087803e-07
1.0126365e-07
1.0165532e-07
1.0207256e-07
1.0247909e-07
1.0291006e-07
1.0333725e-07
1.0378319e-07
1.0423901e-07
1.0470912e-07
1.0516014e-07
9.4845843e-08
9.4853582e-08
9.4864733e-08
9.4887631e-08
9.4907966e-08
9.4930103e-08
9.495161e-08
9.4978134e-08
9.5003411e-08
9.5035559e-08
9.5070997e-08
9.5107519e-08
9.51468e-08
9.5191282e-08
9.5239399e-08
9.5292156e-08
9.5353107e-08
9.5421874e-08
9.5496333e-08
9.557726e-08
9.5665751e-08
9.5761489e-08
9.5865093e-08
9.5978001e-08
9.6104397e-08
9.62459e-08
9.6398639e-08
9.6564064e-08
9.6744968e-08
9.6941149e-08
9.7153414e-08
9.7381257e-08
9.7620976e-08
9.7878941e-08
9.8156917e-08
9.8447486e-08
9.8744052e-08
9.905454e-08
9.9372848e-08
9.9688867e-08
1.000105e-07
1.0035212e-07
1.0068655e-07
1.0103961e-07
1.0139022e-07
1.0175495e-07
1.0212707e-07
1.0251036e-07
1.0287753e-07
9.435639e-08
9.437022e-08
9.4386277e-08
9.4411057e-08
9.4434256e-08
9.4459156e-08
9.4484064e-08
9.4513096e-08
9.4541844e-08
9.4576108e-08
9.4613415e-08
9.4652269e-08
9.4693818e-08
9.4739731e-08
9.4788878e-08
9.484187e-08
9.4901056e-08
9.496609e-08
9.5035409e-08
9.5109417e-08
9.5188765e-08
9.5273145e-08
9.5362824e-08
9.5458746e-08
9.5564087e-08
9.5680157e-08
9.5804443e-08
9.5938004e-08
9.6081785e-08
9.6238882e-08
9.6410176e-08
9.6593132e-08
9.6784677e-08
9.6990267e-08
9.7212007e-08
9.7444783e-08
9.7683718e-08
9.7934503e-08
9.8192536e-08
9.8450051e-08
9.8712643e-08
9.8990842e-08
9.9264209e-08
9.9551685e-08
9.983741e-08
1.0013349e-07
1.0043468e-07
1.0074401e-07
1.0103926e-07
9.3977928e-08
9.3996977e-08
9.4017503e-08
9.4044626e-08
9.4070922e-08
9.4098889e-08
9.4127357e-08
9.4159349e-08
9.419176e-08
9.4228733e-08
9.4268575e-08
9.4310262e-08
9.4354549e-08
9.440254e-08
9.4453385e-08
9.4507379e-08
9.4565995e-08
9.4628882e-08
9.4694826e-08
9.4763933e-08
9.4836504e-08
9.491219e-08
9.4991e-08
9.5073528e-08
9.5162133e-08
9.5257894e-08
9.5359254e-08
9.5467065e-08
9.5580154e-08
9.5706506e-08
9.5844574e-08
9.5989064e-08
9.6139726e-08
9.6302014e-08
9.6477846e-08
9.6663351e-08
9.685474e-08
9.7056099e-08
9.7263985e-08
9.747246e-08
9.7685515e-08
9.791097e-08
9.8133342e-08
9.8366665e-08
9.8598912e-08
9.8839032e-08
9.9082912e-08
9.9333109e-08
9.9571248e-08
9.3684171e-08
9.3707696e-08
9.3732265e-08
9.3761956e-08
9.3791426e-08
9.3822601e-08
9.3854681e-08
9.3889903e-08
9.392608e-08
9.3966162e-08
9.4009002e-08
9.4053894e-08
9.4101289e-08
9.4151871e-08
9.4204966e-08
9.4260608e-08
9.431962e-08
9.4381616e-08
9.4445595e-08
9.4511415e-08
9.4579095e-08
9.4648209e-08
9.4718571e-08
9.4790525e-08
9.4865766e-08
9.494519e-08
9.5027888e-08
9.5114635e-08
9.5204532e-08
9.5305592e-08
9.5413772e-08
9.5524644e-08
9.5641708e-08
9.5768923e-08
9.5907096e-08
9.6053255e-08
9.6204626e-08
9.6364283e-08
9.6529738e-08
9.6696488e-08
9.6867397e-08
9.7048267e-08
9.722733e-08
9.7414972e-08
9.7602016e-08
9.7795039e-08
9.7990763e-08
9.8191266e-08
9.8381363e-08
9.3455436e-08
9.3482938e-08
9.3511261e-08
9.3543678e-08
9.3576378e-08
9.3610864e-08
9.3646599e-08
9.3685249e-08
9.3725283e-08
9.3768777e-08
9.3814973e-08
9.3863375e-08
9.3914197e-08
9.3967803e-08
9.4023623e-08
9.4081474e-08
9.4141679e-08
9.4203803e-08
9.4266963e-08
9.4330805e-08
9.4395113e-08
9.4459365e-08
9.452322e-08
9.4586834e-08
9.4651374e-08
9.4717573e-08
9.4784754e-08
9.4852867e-08
9.4926087e-08
9.5006268e-08
9.5084691e-08
9.5169382e-08
9.5260091e-08
9.5358233e-08
9.5464444e-08
9.557711e-08
9.5694378e-08
9.5818621e-08
9.594807e-08
9.6079319e-08
9.6214419e-08
9.6357682e-08
9.6500133e-08
9.6649481e-08
9.6798693e-08
9.6952617e-08
9.7108621e-08
9.726844e-08
9.7419415e-08
9.3277519e-08
9.330861e-08
9.3340454e-08
9.3375694e-08
9.3411654e-08
9.3449518e-08
9.3488945e-08
9.3531176e-08
9.3575154e-08
9.3622306e-08
9.3672152e-08
9.3724332e-08
9.3778871e-08
9.3835883e-08
9.3894852e-08
9.3955407e-08
9.4017483e-08
9.4080579e-08
9.4143866e-08
9.4206805e-08
9.426898e-08
9.4329762e-08
9.4388679e-08
9.4445737e-08
9.4501691e-08
9.455711e-08
9.4611888e-08
9.466562e-08
9.4733822e-08
9.4795569e-08
9.4843535e-08
9.4904378e-08
9.4971239e-08
9.5043571e-08
9.5122322e-08
9.5206404e-08
9.5294535e-08
9.5388584e-08
9.5487327e-08
9.5588209e-08
9.5692692e-08
9.5803965e-08
9.5915191e-08
9.6032069e-08
9.6149195e-08
9.6270116e-08
9.6392699e-08
9.6518359e-08
9.6636549e-08
9.3139647e-08
9.3174075e-08
9.3209292e-08
9.3247447e-08
9.3286713e-08
9.3328033e-08
9.3371209e-08
9.3417168e-08
9.3465193e-08
9.3516228e-08
9.3569989e-08
9.3626202e-08
9.3684737e-08
9.3745508e-08
9.3808016e-08
9.3871726e-08
9.393626e-08
9.4001044e-08
9.4065255e-08
9.4128188e-08
9.4189252e-08
9.4247706e-08
9.4302962e-08
9.4354904e-08
9.4403965e-08
9.4450568e-08
9.4494734e-08
9.4537266e-08
9.4575987e-08
9.4616249e-08
9.4665104e-08
9.4709667e-08
9.4755916e-08
9.4805945e-08
9.4860915e-08
9.4920294e-08
9.498335e-08
9.5051506e-08
9.5123921e-08
9.5198693e-08
9.5276862e-08
9.5360789e-08
9.5445282e-08
9.5534549e-08
9.5624434e-08
9.5717523e-08
9.5812075e-08
9.5909261e-08
9.6000251e-08
9.3033829e-08
9.307142e-08
9.310992e-08
9.3151075e-08
9.3193703e-08
9.3238565e-08
9.3285568e-08
9.3335401e-08
9.3387597e-08
9.3442733e-08
9.350066e-08
9.3561159e-08
9.3623966e-08
9.368883e-08
9.3755245e-08
9.3822529e-08
9.3890044e-08
9.3957135e-08
9.4022953e-08
9.408664e-08
9.4147447e-08
9.420452e-08
9.4257164e-08
9.430516e-08
9.4348688e-08
9.4388024e-08
9.4423407e-08
9.4455379e-08
9.4486779e-08
9.4503874e-08
9.4538033e-08
9.4568527e-08
9.4598014e-08
9.4629419e-08
9.4664305e-08
9.4702652e-08
9.4744132e-08
9.4789918e-08
9.4839527e-08
9.4891616e-08
9.4946943e-08
9.5007259e-08
9.5068649e-08
9.51342e-08
9.5200716e-08
9.5270059e-08
9.5340797e-08
9.541388e-08
9.548192e-08
9.2953955e-08
9.2994617e-08
9.3036365e-08
9.3080619e-08
9.3126692e-08
9.3175203e-08
9.3226138e-08
9.3280004e-08
9.3336521e-08
9.3395977e-08
9.3458324e-08
9.3523365e-08
9.3590724e-08
9.3660008e-08
9.3730686e-08
9.3801939e-08
9.387291e-08
9.3942855e-08
9.4010877e-08
9.4075971e-08
9.4137244e-08
9.4193729e-08
9.4244631e-08
9.428964e-08
9.4328734e-08
9.4362056e-08
9.4389966e-08
9.4413197e-08
9.4432137e-08
9.4450382e-08
9.4464532e-08
9.4477294e-08
9.4490254e-08
9.45048e-08
9.4521888e-08
9.4541665e-08
9.4564109e-08
9.4590226e-08
9.4619826e-08
9.4652011e-08
9.4687344e-08
9.4727117e-08
9.4768407e-08
9.4813458e-08
9.4859819e-08
9.4908811e-08
9.4959245e-08
9.5011893e-08
9.5060564e-08
9.2895421e-08
9.2939116e-08
9.2984121e-08
9.3031586e-08
9.3081208e-08
9.3133493e-08
9.318849e-08
9.3246567e-08
9.3307575e-08
9.3371583e-08
9.3438607e-08
9.3508457e-08
9.3580654e-08
9.3654683e-08
9.3729973e-08
9.3805575e-08
9.3880442e-08
9.3953735e-08
9.4024489e-08
9.4091562e-08
9.4153922e-08
9.4210491e-08
9.4260377e-08
9.4303187e-08
9.4338741e-08
9.4367054e-08
9.4388594e-08
9.4404022e-08
9.4414328e-08
9.4419927e-08
9.4422506e-08
9.4423183e-08
9.4422859e-08
9.4422795e-08
9.4424132e-08
9.4427415e-08
9.4432951e-08
9.4441648e-08
9.4453555e-08
9.4468137e-08
9.448582e-08
9.4507558e-08
9.4531206e-08
9.4558372e-08
9.4587184e-08
9.4618554e-08
9.4651491e-08
9.4686607e-08
9.4718725e-08
9.2854704e-08
9.2901444e-08
9.2949756e-08
9.3000563e-08
9.3053861e-08
9.311007e-08
9.3169286e-08
9.3231767e-08
9.3297464e-08
9.3366269e-08
9.3438239e-08
9.3513175e-08
9.3590508e-08
9.366961e-08
9.3749857e-08
9.3830179e-08
9.3909357e-08
9.3986451e-08
9.4060415e-08
9.4129972e-08
9.419396e-08
9.4251189e-08
9.4300671e-08
9.434194e-08
9.4374681e-08
9.4398797e-08
9.441483e-08
9.4423482e-08
9.4425532e-08
9.4422089e-08
9.4414283e-08
9.4403333e-08
9.4390457e-08
9.4376958e-08
9.436404e-08
9.435249e-08
9.4342844e-08
9.4335941e-08
9.4332029e-08
9.4330869e-08
9.4332807e-08
9.4338544e-08
9.4346552e-08
9.4357959e-08
9.437135e-08
9.4387328e-08
9.4405062e-08
9.4425028e-08
9.4442905e-08
9.2829145e-08
9.2878982e-08
9.2930685e-08
9.2984981e-08
9.3042104e-08
9.3102409e-08
9.3166025e-08
9.3233126e-08
9.3303731e-08
9.3377592e-08
9.345479e-08
9.3535104e-08
9.3617881e-08
9.3702389e-08
9.3787941e-08
9.3873349e-08
9.3957235e-08
9.4038553e-08
9.4116165e-08
9.4188663e-08
9.4254755e-08
9.4313141e-08
9.4362742e-08
9.4403017e-08
9.4433544e-08
9.4454119e-08
9.4465346e-08
9.4467944e-08
9.4462708e-08
9.4450735e-08
9.4433337e-08
9.4411862e-08
9.438765e-08
9.4361984e-08
9.4336135e-08
9.4311111e-08
9.4287663e-08
9.4266609e-08
9.4248373e-08
9.4232969e-08
9.4220695e-08
9.4212071e-08
9.4206058e-08
9.4203425e-08
9.4203114e-08
9.4205497e-08
9.420987e-08
9.421659e-08
9.4222066e-08
9.2816735e-08
9.2869756e-08
9.2924964e-08
9.2982915e-08
9.3044038e-08
9.3108632e-08
9.3176853e-08
9.3248808e-08
9.3324565e-08
9.340376e-08
9.3486481e-08
9.3572482e-08
9.3661024e-08
9.3751277e-08
9.3842485e-08
9.3933343e-08
9.4022322e-08
9.4108266e-08
9.4189935e-08
9.4265791e-08
9.4334415e-08
9.4394395e-08
9.4444562e-08
9.4484305e-08
9.4513109e-08
9.4530675e-08
9.4537655e-08
9.4534799e-08
9.4522894e-08
9.4503143e-08
9.4476947e-08
9.4445746e-08
9.4411015e-08
9.4374067e-08
9.4336257e-08
9.4298794e-08
9.4262621e-08
9.4228557e-08
9.4197185e-08
9.4168731e-08
9.4143473e-08
9.4121804e-08
9.4103075e-08
9.4087784e-08
9.4075158e-08
9.4065394e-08
9.4057895e-08
9.405291e-08
9.4047474e-08
9.2815994e-08
9.2872314e-08
9.2931168e-08
9.299296e-08
9.3058277e-08
9.3127374e-08
9.320043e-08
9.3277493e-08
9.3358668e-08
9.3443493e-08
9.3532051e-08
9.362406e-08
9.3718702e-08
9.3815051e-08
9.3912273e-08
9.4008944e-08
9.4103394e-08
9.4194351e-08
9.4280464e-08
9.4360064e-08
9.4431606e-08
9.4493569e-08
9.454469e-08
9.4584292e-08
9.4611779e-08
9.4626767e-08
9.4629947e-08
9.4622103e-08
9.4604039e-08
9.4577041e-08
9.4542609e-08
9.4502286e-08
9.4457677e-08
9.4410147e-08
9.4361141e-08
9.4312051e-08
9.4263992e-08
9.4217812e-08
9.4174234e-08
9.413367e-08
9.40964e-08
9.4062727e-08
9.403232e-08
9.4005472e-08
9.398164e-08
9.3960886e-08
9.3942702e-08
9.3927241e-08
9.3912079e-08
9.2825856e-08
9.2885616e-08
9.2948282e-08
9.3014119e-08
9.3083847e-08
9.3157684e-08
9.3235826e-08
9.3318274e-08
9.3405155e-08
9.3495922e-08
9.3590647e-08
9.3689004e-08
9.3790096e-08
9.3892902e-08
9.3996502e-08
9.4099357e-08
9.4199652e-08
9.4295997e-08
9.4386924e-08
9.4470631e-08
9.4545447e-08
9.4609741e-08
9.4662158e-08
9.4701953e-08
9.4728458e-08
9.4741216e-08
9.4740951e-08
9.4728484e-08
9.4704646e-08
9.4670809e-08
9.4628573e-08
9.4579582e-08
9.4525573e-08
9.4467979e-08
9.4408346e-08
9.4348236e-08
9.4288925e-08
9.4231307e-08
9.4176236e-08
9.4124288e-08
9.4075758e-08
9.4030894e-08
9.3989622e-08
9.3952083e-08
9.3917918e-08
9.3887089e-08
9.3859161e-08
9.3834201e-08
9.3810255e-08
9.2845602e-08
9.2908965e-08
9.2975634e-08
9.3045739e-08
9.3120115e-08
9.3198949e-08
9.328245e-08
9.337058e-08
9.3463477e-08
9.356052e-08
9.366176e-08
9.3766823e-08
9.3874731e-08
9.3984367e-08
9.4094721e-08
9.4204131e-08
9.4310646e-08
9.4412748e-08
9.4508847e-08
9.4597005e-08
9.4675426e-08
9.4742367e-08
9.4796382e-08
9.4836657e-08
9.486246e-08
9.487327e-08
9.4869838e-08
9.4853026e-08
9.4823704e-08
9.4783328e-08
9.4733596e-08
9.4676262e-08
9.4613193e-08
9.4545904e-08
9.4476055e-08
9.4405365e-08
9.4335265e-08
9.426671e-08
9.4200677e-08
9.4137888e-08
9.4078667e-08
9.4023231e-08
9.3971715e-08
9.3924153e-08
9.3880333e-08
9.3840142e-08
9.3803206e-08
9.3769512e-08
9.3737522e-08
9.2874797e-08
9.2941949e-08
9.3012832e-08
9.3087447e-08
9.3166729e-08
9.325084e-08
9.3339998e-08
9.3434127e-08
9.3533373e-08
9.3637047e-08
9.3745169e-08
9.3857313e-08
9.397242e-08
9.4089273e-08
9.4206765e-08
9.4323113e-08
9.4436223e-08
9.4544447e-08
9.4646066e-08
9.4739006e-08
9.4821344e-08
9.4891222e-08
9.4947104e-08
9.4988108e-08
9.5013442e-08
9.502253e-08
9.5016147e-08
9.49952e-08
9.4960602e-08
9.4913896e-08
9.485688e-08
9.4791419e-08
9.4719513e-08
9.4642777e-08
9.4562986e-08
9.4482015e-08
9.4401445e-08
9.4322302e-08
9.4245683e-08
9.4172441e-08
9.4102939e-08
9.4037384e-08
9.3976087e-08
9.3919e-08
9.3866034e-08
9.381702e-08
9.3771636e-08
9.3729798e-08
9.3690332e-08
9.2913257e-08
9.2984405e-08
9.3059735e-08
9.3139121e-08
9.322359e-08
9.3313277e-08
9.340841e-08
9.350888e-08
9.3614831e-08
9.3725511e-08
9.3840903e-08
9.3960524e-08
9.4083229e-08
9.4207702e-08
9.433273e-08
9.4456403e-08
9.4576488e-08
9.4691199e-08
9.479868e-08
9.4896722e-08
9.4983271e-08
9.5056355e-08
9.5114348e-08
9.5156297e-08
9.5181357e-08
9.5188903e-08
9.5179735e-08
9.5154803e-08
9.5115071e-08
9.5062168e-08
9.4997997e-08
9.4924536e-08
9.4843921e-08
9.4757879e-08
9.4668308e-08
9.4577238e-08
9.4486393e-08
9.4396883e-08
9.4309919e-08
9.4226479e-08
9.4146974e-08
9.4071612e-08
9.4000854e-08
9.3934597e-08
9.3872854e-08
9.3815413e-08
9.3761997e-08
9.3712454e-08
9.3665941e-08
9.2961017e-08
9.3036385e-08
9.3116418e-08
9.3200859e-08
9.3290815e-08
9.3386402e-08
9.3487854e-08
9.3595029e-08
9.3708064e-08
9.3826147e-08
9.3949219e-08
9.4076733e-08
9.4207455e-08
9.4339966e-08
9.4472939e-08
9.4604337e-08
9.473178e-08
9.485334e-08
9.4967023e-08
9.5070477e-08
9.5161518e-08
9.523806e-08
9.5298384e-08
9.534147e-08
9.5366418e-08
9.5372567e-08
9.5360735e-08
9.533192e-08
9.5287142e-08
9.5228115e-08
9.5156846e-08
9.5075437e-08
9.498616e-08
9.4890865e-08
9.4791583e-08
9.4690494e-08
9.4589465e-08
9.4489698e-08
9.4392519e-08
9.4299022e-08
9.4209672e-08
9.4124693e-08
9.4044674e-08
9.3969476e-08
9.3899198e-08
9.3833597e-08
9.3772436e-08
9.3715498e-08
9.3662243e-08
9.3018315e-08
9.3098151e-08
9.3183163e-08
9.3272961e-08
9.336873e-08
9.3470565e-08
9.3578702e-08
9.3692971e-08
9.3813496e-08
9.3939403e-08
9.4070588e-08
9.4206431e-08
9.4345609e-08
9.4486591e-08
9.4627935e-08
9.4767466e-08
9.4902656e-08
9.5031431e-08
9.5151649e-08
9.5260817e-08
9.535662e-08
9.5436856e-08
9.5499712e-08
9.5544102e-08
9.5569076e-08
9.5573941e-08
9.5559533e-08
9.5526898e-08
9.5477115e-08
9.5411984e-08
9.5333621e-08
9.5244252e-08
9.5146294e-08
9.5041726e-08
9.493272e-08
9.4821608e-08
9.4710397e-08
9.460039e-08
9.4493027e-08
9.4389513e-08
9.4290373e-08
9.419586e-08
9.4106675e-08
9.4022657e-08
9.3943981e-08
9.387038e-08
9.3801656e-08
9.3737526e-08
9.3677736e-08
9.3085585e-08
9.3170154e-08
9.3260447e-08
9.3355929e-08
9.3457859e-08
9.3566315e-08
9.3681532e-08
9.3803309e-08
9.3931754e-08
9.4065933e-08
9.4205686e-08
9.4350319e-08
9.4498411e-08
9.4648318e-08
9.479847e-08
9.4946552e-08
9.5089884e-08
9.5226239e-08
9.5353324e-08
9.5468502e-08
9.5569325e-08
9.5653475e-08
9.571905e-08
9.5764892e-08
9.5790006e-08
9.5793674e-08
9.577675e-08
9.5740327e-08
9.5685543e-08
9.5614288e-08
9.5528786e-08
9.5431396e-08
9.532468e-08
9.521076e-08
9.5091952e-08
9.4970739e-08
9.4849273e-08
9.4728961e-08
9.4611357e-08
9.4497778e-08
9.4388814e-08
9.4284755e-08
9.4186403e-08
9.4093588e-08
9.4006553e-08
9.3925014e-08
9.3848808e-08
9.3777589e-08
9.3711372e-08
9.3163454e-08
9.3253046e-08
9.3348944e-08
9.3450461e-08
9.355893e-08
9.3674405e-08
9.3797123e-08
9.3926851e-08
9.4063675e-08
9.4206599e-08
9.4355403e-08
9.450931e-08
9.4666796e-08
9.4826097e-08
9.4985509e-08
9.5142571e-08
9.5294445e-08
9.5438745e-08
9.5573026e-08
9.5694502e-08
9.5800591e-08
9.5888863e-08
9.5957325e-08
9.600475e-08
9.6030101e-08
9.6032638e-08
9.6013234e-08
9.5973028e-08
9.591322e-08
9.5835787e-08
9.5743066e-08
9.5637552e-08
9.5521959e-08
9.5398559e-08
9.5269815e-08
9.5138365e-08
9.5006502e-08
9.4875747e-08
9.4747772e-08
9.4624001e-08
9.4505097e-08
9.4391396e-08
9.4283793e-08
9.4182122e-08
9.4086683e-08
9.3997187e-08
9.39135e-08
9.3835217e-08
9.3762613e-08
9.3252751e-08
9.3347678e-08
9.3449535e-08
9.3557466e-08
9.3672877e-08
9.3795801e-08
9.3926472e-08
9.4064623e-08
9.4210315e-08
9.4362486e-08
9.4520849e-08
9.4684538e-08
9.485192e-08
9.5021102e-08
9.5190241e-08
9.535672e-08
9.5517539e-08
9.567015e-08
9.5811948e-08
9.5939999e-08
9.605159e-08
9.6144179e-08
9.6215679e-08
9.6264804e-08
9.629047e-08
9.6291927e-08
9.6270062e-08
9.6226059e-08
9.6161181e-08
9.6077491e-08
9.5977444e-08
9.5863673e-08
9.5739051e-08
9.5606001e-08
9.5467143e-08
9.5325267e-08
9.518281e-08
9.5041414e-08
9.4902867e-08
9.4768707e-08
9.4639672e-08
9.4516156e-08
9.4399141e-08
9.428847e-08
9.4184504e-08
9.4086947e-08
9.3995697e-08
9.3910289e-08
9.3831255e-08
9.3354522e-08
9.3455124e-08
9.3563321e-08
9.3678074e-08
9.3800863e-08
9.3931698e-08
9.4070807e-08
9.4217887e-08
9.4372967e-08
9.4534917e-08
9.4703375e-08
9.4877379e-08
9.505518e-08
9.5234748e-08
9.5414091e-08
9.5590431e-08
9.5760602e-08
9.5921885e-08
9.6071514e-08
9.6206408e-08
9.6323721e-08
9.6420802e-08
9.649548e-08
9.6546402e-08
9.657245e-08
9.6572862e-08
9.6548541e-08
9.6500715e-08
9.6430706e-08
9.6340665e-08
9.6233165e-08
9.6110984e-08
9.5977155e-08
9.5834259e-08
9.5685072e-08
9.5532538e-08
9.5379241e-08
9.5226947e-08
9.507757e-08
9.4932757e-08
9.4793335e-08
9.465976e-08
9.45331e-08
9.4413221e-08
9.4300536e-08
9.4194752e-08
9.4095799e-08
9.400315e-08
9.3917597e-08
9.347005e-08
9.3576694e-08
9.3691647e-08
9.3813666e-08
9.3944305e-08
9.4083548e-08
9.4231615e-08
9.4388165e-08
9.4553188e-08
9.4725483e-08
9.4904601e-08
9.5089479e-08
9.5278241e-08
9.5468715e-08
9.565875e-08
9.5845401e-08
9.6025326e-08
9.6195635e-08
9.6353397e-08
9.6495384e-08
9.6618623e-08
9.6720356e-08
9.679833e-08
9.6851134e-08
9.6877614e-08
9.6877007e-08
9.6850226e-08
9.6798543e-08
9.6723335e-08
9.6626839e-08
9.6511751e-08
9.6380997e-08
9.6237769e-08
9.6084811e-08
9.5925053e-08
9.5761595e-08
9.5597168e-08
9.5433671e-08
9.5273145e-08
9.5117357e-08
9.4967227e-08
9.4823282e-08
9.4686678e-08
9.4557307e-08
9.4435638e-08
9.4321382e-08
9.4214502e-08
9.4114408e-08
9.4022163e-08
9.3600884e-08
9.3713972e-08
9.3836137e-08
9.3965903e-08
9.4104903e-08
9.4253094e-08
9.4410682e-08
9.4577282e-08
9.475284e-08
9.4936078e-08
9.5126453e-08
9.5322787e-08
9.5523074e-08
9.5724986e-08
9.5926207e-08
9.6123616e-08
9.6313692e-08
9.6493367e-08
9.6659547e-08
9.6808857e-08
9.69382e-08
9.7044721e-08
9.7126092e-08
9.7180845e-08
9.7207798e-08
9.7206186e-08
9.7176938e-08
9.7121361e-08
9.7040886e-08
9.6937834e-08
9.6815024e-08
9.6675533e-08
9.6522712e-08
9.6359464e-08
9.6188875e-08
9.6014198e-08
9.5838314e-08
9.5663263e-08
9.5491221e-08
9.5324078e-08
9.5162858e-08
9.5008171e-08
9.486126e-08
9.4722054e-08
9.4591079e-08
9.4468057e-08
9.4352987e-08
9.424521e-08
9.4146075e-08
9.3748881e-08
9.3868855e-08
9.3998729e-08
9.413677e-08
9.4284691e-08
9.4442414e-08
9.4610131e-08
9.4787406e-08
9.4974135e-08
9.516895e-08
9.537121e-08
9.5579609e-08
9.5792e-08
9.6005892e-08
9.6218793e-08
9.6427399e-08
9.6628008e-08
9.681737e-08
9.6992225e-08
9.7149059e-08
9.7284657e-08
9.7396075e-08
9.7480917e-08
9.7537666e-08
9.7565118e-08
9.7562513e-08
9.753079e-08
9.7471287e-08
9.7385485e-08
9.7275786e-08
9.7145135e-08
9.6996756e-08
9.6834155e-08
9.666039e-08
9.6478699e-08
9.6292487e-08
9.6104788e-08
9.5917791e-08
9.5733816e-08
9.5554886e-08
9.5382137e-08
9.5216272e-08
9.5058624e-08
9.4909169e-08
9.4768489e-08
9.463632e-08
9.4512699e-08
9.4396899e-08
9.4290574e-08
9.3916255e-08
9.40436e-08
9.4181736e-08
9.4328631e-08
9.4486086e-08
9.4653982e-08
9.4832489e-08
9.5021116e-08
9.5219695e-08
9.5426766e-08
9.5641569e-08
9.5862667e-08
9.6087754e-08
9.6314171e-08
9.6539237e-08
9.6759464e-08
9.6970961e-08
9.7170298e-08
9.7354051e-08
9.7518571e-08
9.7660535e-08
9.7776921e-08
9.7865279e-08
9.7924051e-08
9.7952017e-08
9.7948425e-08
9.7914224e-08
9.7850778e-08
9.7759606e-08
9.7643193e-08
9.7504606e-08
9.7347215e-08
9.7174669e-08
9.6990172e-08
9.6797107e-08
9.6599029e-08
9.6399131e-08
9.6199761e-08
9.6003394e-08
9.5812196e-08