/*--------------------------------*- C++ -*----------------------------------*\
| =========                 |                                                 |
| \\      /  F ield         | OpenFOAM: The Open Source CFD Toolbox           |
|  \\    /   O peration     | Version:  v2006                                 |
|   \\  /    A nd           | Website:  www.openfoam.com                      |
|    \\/     M anipulation  |                                                 |
\*---------------------------------------------------------------------------*/
FoamFile
{
    version     2.0;
    format      ascii;
    class       volScalarField;
    location    "2000";
    object      omega;
}
// * * * * * * * * * * * * * * * * * * * * * * * * * * * * * * * * * * * * * //

dimensions      [0 0 -1 0 0 0 0];


internalField   nonuniform List<scalar> 
19765
(
15.85685
16.165961
16.979358
17.200476
17.555741
17.608908
18.162398
18.159641
18.651069
19.292304
19.323067
18.868171
18.72906
18.566582
18.083786
18.046426
18.334985
18.259373
17.818683
17.509242
17.39056
17.421295
17.333643
17.390744
17.495647
17.59757
17.758506
18.07382
18.2388
18.605348
19.176961
19.905652
20.183375
20.165643
20.53156
21.327044
21.668681
21.996926
22.821978
23.079344
22.670646
22.478195
22.795185
22.226662
22.45763
22.015334
21.94101
21.867478
21.908448
2.8855203
2.7992547
2.7554603
2.8096042
2.8368825
2.863291
2.872
2.9126776
2.9247899
2.9805695
3.032872
3.0480521
3.0456905
3.0420031
3.0145652
2.986393
2.9879115
2.9886929
2.9724877
2.9501875
2.9371236
2.946588
2.9578282
2.9653509
2.9961243
3.0644209
3.1344338
3.2013134
3.2930869
3.394488
3.4936288
3.5852293
3.6567135
3.7639552
3.908591
4.0370667
4.1302059
4.2525739
4.3533567
4.3996381
4.4741829
4.6117099
4.6714347
4.8649243
4.975889
5.3330204
5.7710373
6.2716266
6.6578962
1.03621
1.0397991
1.0497922
1.0830787
1.1034071
1.1220248
1.132467
1.1522121
1.1598643
1.1810889
1.2013827
1.209923
1.2114393
1.2139081
1.2103298
1.2036286
1.2037694
1.2063002
1.2050582
1.2022686
1.2049308
1.2148546
1.2236419
1.2297853
1.2426701
1.2695637
1.3003696
1.3314242
1.371379
1.4161032
1.4613757
1.5053961
1.5422724
1.588789
1.6477025
1.7038761
1.747461
1.7982552
1.8430302
1.8674704
1.8926177
1.9408978
1.9644663
2.0009898
2.02437
2.0668074
2.1212818
2.1887439
2.2553389
0.59588336
0.59650917
0.60179127
0.61566129
0.6264479
0.63755767
0.64597815
0.65723237
0.66386109
0.67469984
0.68539924
0.69214021
0.69629321
0.7009326
0.70333185
0.70364712
0.70635951
0.71113608
0.71429923
0.71617228
0.72103784
0.72820401
0.73391035
0.73941154
0.74858023
0.76372603
0.7804151
0.79703674
0.81698827
0.83882415
0.86092978
0.88276231
0.90207614
0.92496897
0.95287754
0.98023326
1.0026861
1.0276527
1.0507353
1.06621
1.0817994
1.1081632
1.1266206
1.1561616
1.1810256
1.2091718
1.2336122
1.2541218
1.271174
0.45650662
0.45778873
0.46055819
0.46679797
0.47138692
0.47588459
0.47922834
0.48383968
0.48659
0.49118842
0.49576543
0.49871198
0.50062046
0.50277016
0.50407549
0.50469659
0.50655842
0.50949549
0.51205225
0.51435101
0.51728395
0.52079377
0.52447543
0.5289628
0.5353504
0.54430576
0.55389504
0.56369807
0.57522093
0.58770836
0.60043204
0.61309334
0.62473303
0.6379195
0.65312315
0.667898
0.68044039
0.69374557
0.70599442
0.71490311
0.72357112
0.73607377
0.74493496
0.75775324
0.76855742
0.78185392
0.79585619
0.80760177
0.81501914
0.37489526
0.37552795
0.37716876
0.38078929
0.38365313
0.38650868
0.38874558
0.3915982
0.39344579
0.39619944
0.39891217
0.40079527
0.40216618
0.40367307
0.40478867
0.40562511
0.40714297
0.40922915
0.41116036
0.41307212
0.41546984
0.4182935
0.42146629
0.42515419
0.42980656
0.43587475
0.44239725
0.44917525
0.45701365
0.46550008
0.47423174
0.48304404
0.49140139
0.50067141
0.51113328
0.52147134
0.53064895
0.5402511
0.54934266
0.55667233
0.56385666
0.57325217
0.58084489
0.59079
0.59995275
0.61089994
0.62270345
0.63536936
0.64642291
0.33183878
0.33194926
0.3326008
0.33437855
0.33578095
0.33722085
0.33837303
0.33989842
0.34092804
0.34247345
0.34403263
0.34518586
0.34610174
0.34712411
0.34797811
0.34873063
0.3499046
0.35144689
0.35297165
0.35454294
0.35634143
0.35831541
0.36061351
0.3633423
0.36668627
0.37086636
0.37535868
0.3800829
0.38547471
0.39129537
0.39733192
0.40348622
0.40946621
0.41601046
0.42325209
0.43045332
0.43705923
0.44392661
0.45053124
0.45618144
0.46177755
0.46854993
0.47431858
0.48130528
0.48779901
0.49514333
0.50278155
0.51073449
0.51790846
0.3045686
0.30467069
0.30509306
0.30619263
0.30706731
0.30796452
0.30869269
0.30964052
0.31030547
0.31127593
0.3122632
0.3130341
0.31368938
0.31442544
0.31509024
0.31572911
0.31663987
0.31779269
0.31897712
0.32024263
0.32169123
0.32328556
0.32512332
0.32726944
0.32981991
0.33290666
0.33622345
0.33973165
0.34369939
0.34798507
0.35246009
0.35706398
0.36161537
0.36656109
0.37199153
0.37745929
0.38260943
0.38796231
0.3932022
0.39788657
0.4025534
0.40801585
0.412894
0.41862148
0.42412448
0.43029692
0.43682102
0.44375119
0.45031971
0.28704991
0.28709854
0.28734579
0.28802374
0.28857138
0.28914185
0.28961892
0.29023957
0.29070043
0.29135702
0.29203705
0.29260314
0.29311711
0.29369674
0.29425287
0.29481457
0.29556053
0.29647399
0.29743142
0.29846372
0.2996252
0.30088597
0.30231671
0.30397483
0.30591607
0.30821385
0.31068268
0.31330585
0.31624956
0.31942575
0.32275758
0.32620686
0.3296621
0.3333972
0.33746566
0.34158579
0.34553736
0.34963819
0.35368772
0.35740365
0.36112241
0.3653341
0.36918242
0.37354436
0.37775011
0.38234156
0.38710838
0.39206953
0.39673945
0.27518237
0.27526925
0.27547596
0.27595995
0.27635901
0.27677418
0.2771324
0.27758539
0.27794332
0.27843088
0.27894109
0.27939134
0.27982148
0.28030483
0.28078773
0.28128986
0.28192143
0.28267237
0.28346823
0.28432965
0.28529065
0.28633072
0.28749154
0.28881678
0.2903442
0.2921168
0.29401791
0.29604108
0.29829641
0.30072888
0.30329065
0.30595814
0.30865891
0.31157169
0.31473456
0.31796329
0.32110837
0.32437742
0.3276386
0.3306975
0.33377075
0.33719926
0.34040022
0.34397458
0.34746962
0.35126511
0.35522691
0.35939138
0.36338568
0.26691177
0.26702627
0.26721649
0.26759237
0.26791381
0.26824871
0.26854993
0.26891732
0.26922863
0.26962983
0.27005306
0.27044691
0.27083743
0.27127156
0.2717157
0.27218272
0.27274226
0.27338807
0.2740733
0.27481071
0.27562151
0.276491
0.27744378
0.27851286
0.27972658
0.28111006
0.28258789
0.28415902
0.28589755
0.28776882
0.2897436
0.29180754
0.29391349
0.29617955
0.29863151
0.30114584
0.30362169
0.30619568
0.30877816
0.31123439
0.3137086
0.31642552
0.31899167
0.32180656
0.32456361
0.32751413
0.33056395
0.33373397
0.33676082
0.26100243
0.26115627
0.26135618
0.26168157
0.26197057
0.2622706
0.26255081
0.26287871
0.26317407
0.26353387
0.26391443
0.26428338
0.26465794
0.26506856
0.26549379
0.2659417
0.26645655
0.26703409
0.26764399
0.26829374
0.26899651
0.26974199
0.27054397
0.27142585
0.2724097
0.27351064
0.27467888
0.27591607
0.2772741
0.27873209
0.28027278
0.2818879
0.28354589
0.28532743
0.28725188
0.28923526
0.29120707
0.293261
0.29533534
0.29733344
0.29935261
0.30155341
0.30365642
0.30594469
0.30820137
0.3106071
0.31309685
0.31569448
0.31819155
0.25670474
0.2568921
0.25710801
0.25741099
0.25769033
0.25797973
0.25825873
0.25857392
0.2588718
0.25921776
0.25958358
0.25994853
0.26032382
0.26072931
0.26115084
0.26159289
0.26208332
0.26261894
0.2631793
0.26376807
0.26439289
0.26504586
0.26573404
0.26647383
0.26728243
0.26816866
0.26909951
0.27007782
0.27114113
0.27227812
0.27347893
0.27473838
0.27603512
0.27742529
0.27892407
0.28047428
0.28202703
0.28364723
0.28529161
0.28689024
0.28851001
0.29026243
0.29194902
0.29376717
0.29556246
0.29746046
0.29941338
0.30143778
0.30337593
0.25353105
0.25375129
0.25398859
0.2542871
0.25457075
0.2548641
0.2551536
0.25547192
0.25578313
0.25613167
0.25649942
0.25687309
0.25725967
0.25767192
0.2581002
0.25854623
0.25902688
0.25953936
0.26006928
0.26061746
0.26118763
0.26177304
0.26237648
0.26300933
0.26368463
0.26440722
0.26515525
0.2659321
0.26676681
0.26765451
0.26858879
0.26956591
0.27057221
0.27164895
0.27280954
0.27401556
0.27523284
0.27650736
0.2778086
0.27908519
0.28038328
0.28178356
0.28314141
0.28459916
0.28604439
0.28756835
0.28913603
0.29076308
0.29232214
0.25116708
0.25141653
0.25167628
0.25198021
0.25227595
0.25258171
0.25288857
0.25321976
0.25355107
0.25391272
0.25429334
0.25468436
0.25508975
0.25551733
0.25596026
0.25641804
0.25689995
0.25740321
0.25791711
0.25844019
0.25897329
0.25950999
0.2600502
0.26060169
0.26117399
0.26176927
0.26237324
0.26298963
0.26364317
0.26433157
0.26504863
0.26579254
0.26655728
0.26737505
0.26825804
0.26918054
0.27011862
0.27110483
0.27211749
0.27311869
0.27414047
0.27524035
0.27631283
0.27745964
0.27859839
0.27979405
0.28102
0.28228798
0.28349747
0.24939311
0.24967008
0.24995333
0.25026927
0.25058221
0.2509059
0.25123462
0.25158505
0.251941
0.25232279
0.25272365
0.25313806
0.25356774
0.254017
0.25448067
0.25495647
0.2554482
0.25595286
0.25646189
0.256972
0.25748173
0.25798456
0.25847833
0.25896814
0.25946059
0.25995601
0.26044522
0.26093273
0.26144184
0.26196728
0.26250283
0.26305201
0.26361647
0.26422173
0.26487811
0.26556839
0.26627585
0.2670238
0.26779708
0.26856784
0.2693584
0.27021068
0.27104692
0.27194107
0.27283211
0.27376736
0.27472648
0.27571969
0.27666471
0.24806124
0.24836378
0.24867061
0.24900262
0.24933594
0.24968112
0.25003468
0.25040869
0.25079247
0.25119937
0.25162577
0.25206812
0.25252641
0.25300234
0.25349172
0.25399074
0.25449917
0.2550136
0.25552664
0.2560334
0.25653057
0.25701121
0.25747162
0.25791484
0.258345
0.25876112
0.2591576
0.25954035
0.25993246
0.26031867
0.26069861
0.26108489
0.2614833
0.26191214
0.2623796
0.26287465
0.26338611
0.26393098
0.26449916
0.26507051
0.26566076
0.26630026
0.26693178
0.26760874
0.2682857
0.26899664
0.26972558
0.27048044
0.27119452
0.24706377
0.24739091
0.24772168
0.24807276
0.24842887
0.24879823
0.24917895
0.24957982
0.249994
0.25042985
0.25088591
0.25135989
0.25185039
0.25235717
0.25287651
0.25340326
0.25393412
0.25446513
0.25498942
0.25550068
0.255994
0.25646187
0.25689929
0.25730778
0.2576893
0.2580419
0.25836264
0.25865955
0.25895429
0.2592166
0.25946429
0.259717
0.25997684
0.2602564
0.2605632
0.26089109
0.26123339
0.26160313
0.2619943
0.26239289
0.2628101
0.2632681
0.26372472
0.26421874
0.26471612
0.26524142
0.26578196
0.26634429
0.26687331
0.24632534
0.24667634
0.2470313
0.24740365
0.24778438
0.24818001
0.2485898
0.24902013
0.24946693
0.24993487
0.25042399
0.25093279
0.25145874
0.25200003
0.25255312
0.25311164
0.25366987
0.25422318
0.2547648
0.2552871
0.25578374
0.2562465
0.25666931
0.25705242
0.25739598
0.25769724
0.25795544
0.25818076
0.25838927
0.25854222
0.25868148
0.25882377
0.25896254
0.25911191
0.25927828
0.25945911
0.2596519
0.25986752
0.26010338
0.26035014
0.26061575
0.26091616
0.26122047
0.26155647
0.26189862
0.26226432
0.26264333
0.26304069
0.26341112
0.24578994
0.24616462
0.24654427
0.24693978
0.2473468
0.24777059
0.24821123
0.24867337
0.24915487
0.2496577
0.25018293
0.25072948
0.25129391
0.25187311
0.25246346
0.25305752
0.25364751
0.25422812
0.2547923
0.25533123
0.25583722
0.25630124
0.25671627
0.25708153
0.25739556
0.257655
0.25786095
0.25802358
0.25814453
0.25822135
0.25827047
0.25831151
0.25834027
0.2583745
0.25841454
0.25846319
0.25852263
0.25860231
0.25870184
0.25881526
0.25894803
0.25911147
0.25928324
0.25948304
0.25969179
0.25992169
0.26016438
0.26042385
0.26066263
0.2454172
0.24581566
0.24622064
0.24664097
0.24707583
0.24752953
0.24800278
0.24849891
0.24901719
0.24955754
0.25012172
0.25070887
0.25131472
0.25193508
0.25256608
0.25319923
0.25382506
0.25443743
0.25502884
0.25558925
0.25610977
0.25658045
0.25699339
0.25734687
0.25763813
0.25786325
0.25802478
0.25812373
0.25812455
0.25814873
0.25814751
0.25810578
0.25804123
0.25796537
0.25788789
0.25781799
0.25775931
0.25771889
0.2576977
0.25769242
0.25770688
0.25774907
0.25780329
0.25788324
0.25797477
0.25808615
0.2582105
0.25835076
0.25847603
0.24517689
0.24559958
0.24603074
0.24647753
0.24694182
0.24742721
0.24793488
0.24846718
0.24902439
0.24960486
0.25021078
0.25084137
0.2514916
0.25215633
0.2528313
0.25350705
0.25417254
0.2548208
0.25544367
0.25602995
0.25656953
0.25705152
0.25746717
0.25781389
0.25808781
0.25828453
0.25840706
0.25846188
0.25846391
0.2584041
0.25829573
0.25815478
0.2579922
0.25781733
0.25763971
0.25746623
0.25730176
0.25715274
0.25702199
0.25690876
0.25681595
0.25674916
0.25669785
0.25667124
0.25665897
0.25666639
0.25668777
0.25672521
0.25675318
0.24504694
0.24549454
0.24595289
0.24642778
0.24692315
0.24744207
0.24798607
0.24855676
0.24915516
0.24977837
0.25042886
0.25110579
0.25180342
0.25251575
0.25323804
0.25395984
0.25466872
0.25535678
0.25601508
0.25663122
0.25719394
0.25769134
0.2581138
0.25845794
0.25871894
0.25889191
0.25898066
0.25899173
0.25892908
0.25880472
0.25863006
0.25841534
0.25817155
0.25790835
0.25763625
0.25736468
0.25710071
0.25685053
0.25661841
0.25640557
0.2562142
0.25604814
0.25590081
0.25577807
0.25567246
0.25558712
0.2555172
0.25546403
0.25540665
0.24501094
0.24548437
0.24597113
0.24647581
0.24700403
0.24755842
0.24814081
0.24875222
0.2493942
0.25006288
0.25076086
0.25148712
0.25223529
0.25299854
0.25377156
0.25454291
0.25529885
0.25603049
0.25672799
0.25737776
0.25796734
0.25848382
0.25891669
0.25926178
0.25951348
0.25966642
0.25972497
0.25969582
0.25958511
0.2594028
0.2591608
0.25887137
0.2585474
0.25819899
0.25783739
0.25747368
0.25711646
0.2567718
0.25644518
0.25613946
0.25585649
0.25559882
0.25536301
0.25515242
0.25496184
0.25479277
0.25464104
0.25450733
0.25437451
0.24505703
0.24555741
0.24607398
0.24661025
0.24717319
0.24776513
0.24838811
0.2490427
0.24973084
0.25044785
0.25119635
0.2519751
0.25277708
0.25359467
0.25442193
0.2552464
0.25605309
0.25683204
0.25757241
0.25825941
0.25887935
0.25941827
0.25986474
0.26021383
0.2604592
0.26059504
0.26062622
0.26055977
0.26040159
0.26016292
0.25985696
0.25949689
0.25909679
0.25866721
0.25822025
0.25776861
0.25732236
0.25688775
0.25647141
0.25607763
0.2557081
0.25536447
0.25504582
0.25475361
0.25448441
0.25423844
0.2540121
0.25380544
0.25360463
0.24517675
0.24570541
0.24625335
0.24682312
0.24742283
0.24805454
0.24872049
0.24942089
0.25015795
0.2509263
0.25172852
0.25256308
0.25342233
0.25429784
0.25518297
0.25606426
0.25692543
0.25775543
0.25854232
0.25927003
0.25992366
0.26048814
0.26095111
0.26130685
0.26154837
0.26166945
0.26167537
0.26157349
0.26137008
0.26107725
0.26070919
0.2602802
0.25980566
0.25929685
0.25876685
0.25822985
0.25769731
0.25717583
0.25667307
0.2561946
0.25574212
0.25531669
0.25491936
0.25455021
0.2542072
0.25388957
0.25359419
0.25332053
0.2530576
0.24536443
0.24592287
0.24650391
0.24710924
0.24774791
0.24842179
0.24913328
0.24988229
0.25067122
0.25149412
0.25235346
0.25324734
0.25416749
0.25510469
0.25605151
0.25699344
0.25791294
0.25879778
0.25963483
0.26040672
0.26109727
0.26169028
0.26217241
0.26253714
0.2627769
0.26288505
0.26286725
0.26273123
0.26248368
0.26213763
0.26170836
0.26121134
0.26066327
0.26007628
0.2594645
0.25884356
0.25822627
0.25761971
0.25703255
0.25647151
0.25593841
0.25543394
0.25496079
0.25451798
0.25410459
0.25371911
0.25335876
0.25302248
0.25270177
0.24561659
0.24620647
0.24682254
0.24746564
0.24814565
0.24886427
0.24962407
0.2504247
0.25126868
0.25214956
0.25306961
0.25402655
0.25501147
0.25601431
0.25702683
0.25803341
0.25901522
0.25995876
0.26084968
0.26166921
0.26239987
0.26302427
0.26352805
0.2639039
0.26414365
0.26424031
0.26419986
0.26403045
0.26373927
0.26334031
0.26285
0.26228501
0.26166337
0.26099825
0.26030488
0.25960034
0.25889873
0.25820777
0.25753709
0.25689448
0.25628199
0.25570011
0.25515288
0.25463854
0.25415705
0.25370634
0.25328391
0.2528882
0.25251289
0.24593162
0.2465548
0.247208
0.24789124
0.24861514
0.2493813
0.25019239
0.25104787
0.25195033
0.25289283
0.25387743
0.25490143
0.25595521
0.2570279
0.25811033
0.25918576
0.26023401
0.26124028
0.26218885
0.26305954
0.26383349
0.26449207
0.26501988
0.26540878
0.26565004
0.26573631
0.26567389
0.26547137
0.26513652
0.26468437
0.26413249
0.26349884
0.26280284
0.26205879
0.26128314
0.2604944
0.25970798
0.25893231
0.25817802
0.25745387
0.25676225
0.25610358
0.25548302
0.25489825
0.25434997
0.25383562
0.25335295
0.25289993
0.25247218
0.24630952
0.24696803
0.24766066
0.24838659
0.24915716
0.24997385
0.25083947
0.25175327
0.25271788
0.25372593
0.25477918
0.25587448
0.2570015
0.25814849
0.2593053
0.260454
0.26157304
0.2626462
0.26365633
0.26458176
0.26540221
0.26609775
0.2666519
0.26705565
0.26729972
0.26737642
0.26729238
0.26705663
0.26667764
0.26617146
0.26555691
0.26485327
0.26408142
0.2632569
0.26239749
0.26152312
0.26065053
0.25978899
0.2589501
0.25814358
0.25737221
0.25663647
0.25594249
0.25528751
0.25467284
0.25409557
0.25355363
0.25304451
0.25256563
0.24675173
0.24744778
0.24818235
0.24895374
0.24977397
0.25064444
0.25156806
0.25254391
0.25357463
0.25465242
0.25577873
0.25694988
0.25815481
0.25938083
0.26061677
0.26184343
0.26303781
0.26418221
0.26525795
0.26624182
0.26711204
0.26784733
0.26843007
0.26885037
0.26909838
0.26916613
0.26906051
0.26879109
0.26836706
0.26780556
0.26712671
0.26635117
0.26550135
0.26459416
0.26364877
0.26268659
0.26172572
0.26077635
0.25985108
0.25896058
0.25810807
0.25729418
0.25652588
0.25580013
0.25511873
0.25447847
0.25387745
0.25331267
0.25278323
0.24726104
0.24799704
0.24877627
0.24959611
0.25046924
0.25139698
0.25238237
0.25342431
0.25452541
0.25567746
0.25688154
0.25813341
0.25942125
0.26073136
0.26205147
0.26336104
0.26463556
0.26585577
0.26700136
0.2680475
0.26897083
0.26974868
0.27036224
0.27080072
0.27105369
0.2711129
0.27098553
0.27068168
0.27021134
0.26959282
0.26884755
0.26799769
0.26706722
0.26607453
0.26504027
0.26398742
0.26293545
0.26189558
0.26088142
0.25990459
0.25896883
0.25807498
0.25723076
0.25643295
0.25568376
0.25497976
0.25431915
0.25369846
0.25311838
0.24784154
0.24862012
0.24944697
0.2503185
0.25124804
0.25223685
0.25328806
0.25440044
0.25557654
0.25680771
0.25809463
0.25943247
0.26080855
0.26220815
0.2636178
0.26501556
0.26637531
0.26767612
0.268896
0.27000837
0.27098827
0.27181155
0.27245817
0.2729164
0.27317523
0.27322615
0.27307663
0.27273733
0.27221912
0.27154148
0.27072726
0.26980015
0.26878581
0.26770421
0.26657762
0.26543058
0.26428404
0.26315031
0.26204408
0.26097792
0.25995612
0.25897983
0.25805743
0.25718561
0.25636693
0.25559777
0.25487645
0.25419899
0.25356763
0.24849865
0.24932266
0.25020035
0.25112708
0.25211684
0.25317083
0.25429228
0.25547981
0.25673589
0.25805142
0.25942666
0.26085608
0.26232616
0.26382103
0.26532597
0.26681751
0.26826787
0.26965435
0.27095316
0.27213592
0.27317595
0.27404759
0.27472954
0.27520907
0.27547457
0.27551733
0.27534507
0.27496906
0.2744011
0.27366191
0.27277578
0.27176805
0.27066613
0.26949169
0.26826868
0.26702336
0.26577816
0.26454659
0.26334447
0.26218532
0.26107406
0.26001219
0.25900874
0.25806032
0.25716986
0.25633354
0.25554977
0.25481409
0.25413025
0.24923918
0.25011174
0.25104379
0.25202953
0.25308364
0.25420727
0.25540376
0.25667154
0.25801299
0.25941857
0.26088802
0.26241511
0.26398535
0.2655817
0.26718805
0.26877935
0.27032603
0.27180353
0.27318615
0.27444362
0.2755475
0.27647053
0.27719008
0.27769244
0.27796536
0.27799996
0.2778042
0.27739002
0.27677017
0.27596666
0.27500531
0.27391315
0.27271945
0.2714477
0.27012369
0.26877539
0.26742686
0.26609287
0.26479042
0.26353404
0.26232928
0.26117808
0.26009009
0.25906191
0.25809678
0.25719072
0.25634226
0.25554637
0.25480838
0.25007144
0.25099594
0.25198619
0.25303511
0.25415809
0.25535623
0.25663295
0.25798654
0.25941923
0.26092099
0.26249103
0.26412234
0.2657994
0.26750389
0.26921822
0.27091566
0.27256473
0.2741389
0.27561046
0.27694718
0.27811875
0.27909626
0.27985575
0.28038245
0.28066349
0.28068982
0.28046967
0.28001564
0.27934152
0.27847063
0.27743037
0.27624956
0.27495945
0.27358546
0.2721553
0.27069882
0.26924172
0.26780015
0.26639235
0.26503386
0.26373097
0.2624861
0.26130948
0.26019777
0.2591545
0.25817557
0.25725958
0.25640094
0.25560663
0.25100544
0.2519856
0.25303827
0.2541549
0.25535169
0.25662964
0.25799229
0.25943772
0.26096802
0.26257265
0.2642502
0.26599282
0.26778386
0.26960365
0.27143301
0.27324339
0.2750013
0.27667811
0.27824402
0.27966471
0.28090797
0.28194317
0.28274496
0.28329751
0.28358733
0.28360521
0.28335962
0.28286391
0.28213291
0.28119128
0.28006808
0.27879403
0.27740243
0.2759208
0.27437888
0.27280847
0.27123702
0.26968214
0.26816336
0.26669731
0.26529105
0.26394753
0.26267759
0.261478
0.26035257
0.25929707
0.25831021
0.2573858
0.25653256
0.25205314
0.25309303
0.25421274
0.25540209
0.25667808
0.25804165
0.25949644
0.26104032
0.26267519
0.26438995
0.26618251
0.26804411
0.26995689
0.2718997
0.27385164
0.27578222
0.27765582
0.2794416
0.28110752
0.28261713
0.28393621
0.2850324
0.28587889
0.28645882
0.28675802
0.28676717
0.286495
0.28595561
0.28516491
0.28414893
0.28293845
0.28156619
0.28006763
0.27847252
0.27681275
0.27512217
0.27343005
0.27175555
0.27011955
0.26853985
0.26702434
0.26557656
0.26420799
0.26291551
0.26170326
0.26056689
0.25950523
0.25851144
0.25759611
0.25322874
0.25433286
0.25552471
0.25679227
0.25815341
0.259609
0.26116275
0.26281229
0.26455933
0.26639214
0.26830789
0.27029679
0.27233969
0.27441382
0.27649644
0.27855498
0.28055155
0.28245296
0.28422486
0.28582853
0.2872277
0.28838824
0.2892819
0.2898907
0.29019985
0.29019993
0.28989993
0.28931473
0.28846132
0.28736714
0.28606474
0.28458897
0.28297762
0.28126279
0.27947864
0.27766113
0.27584147
0.27404043
0.27228035
0.27058023
0.26894888
0.26739053
0.26591731
0.26452629
0.26322192
0.26199979
0.26085884
0.25979152
0.25881052
0.25454913
0.25572245
0.2569921
0.25834394
0.25979681
0.26135146
0.26301166
0.26477482
0.26664236
0.26860187
0.2706497
0.27277495
0.27495703
0.27717143
0.27939342
0.28158819
0.28371545
0.28573952
0.2876236
0.28932666
0.29081034
0.29203867
0.29298194
0.29362111
0.29394075
0.29393136
0.2936022
0.29296894
0.29204966
0.29087321
0.289474
0.28788912
0.28615883
0.28431766
0.28240216
0.28045048
0.27849581
0.27656064
0.27466887
0.2728408
0.27108626
0.26941021
0.26782553
0.26632953
0.26492699
0.26361344
0.26238798
0.26124227
0.26019135
0.25603437
0.25728243
0.25863619
0.26007907
0.26163096
0.26329247
0.26506744
0.26695297
0.26895017
0.27104587
0.27323551
0.27550693
0.27783799
0.28020229
0.28257295
0.28491277
0.28717888
0.28933298
0.29133571
0.29314366
0.29471631
0.2960159
0.29701125
0.29768226
0.29801288
0.29799356
0.29763383
0.29695019
0.29596175
0.2946988
0.29319768
0.29149787
0.28964221
0.28766776
0.28561351
0.28351986
0.28142205
0.27934443
0.27731253
0.27534809
0.27346208
0.27166032
0.26995649
0.26834821
0.26684065
0.26542931
0.26411346
0.26288393
0.26175835
0.25770836
0.25903735
0.26048229
0.26202377
0.26368284
0.26545991
0.26735889
0.2693765
0.27151348
0.2737558
0.27609788
0.27852618
0.28101685
0.28354142
0.28607069
0.28856489
0.29097843
0.29327024
0.2953983
0.29731675
0.2989829
0.30035719
0.30140704
0.30211128
0.30245333
0.30242359
0.30203186
0.30129546
0.3002345
0.29888069
0.29727244
0.29545172
0.29346405
0.2913491
0.28914825
0.28690423
0.28465441
0.2824251
0.28024366
0.27813343
0.27610662
0.2741701
0.27233841
0.27060953
0.26898912
0.26747262
0.26605954
0.26473978
0.26353392
0.25959958
0.2610165
0.26256061
0.26420922
0.26598464
0.26788706
0.26992037
0.2720809
0.27436889
0.27676938
0.27927558
0.28187244
0.2845342
0.28723018
0.28992864
0.29258709
0.29515702
0.29759449
0.2998547
0.30188929
0.30365343
0.30510579
0.30621244
0.30695124
0.30730509
0.30726439
0.30683922
0.3060477
0.30491084
0.3034618
0.30174115
0.29979351
0.2976671
0.29540411
0.29304835
0.29064485
0.28823325
0.28584202
0.28350055
0.28123395
0.27905591
0.27697444
0.27500507
0.27314629
0.27140422
0.26977435
0.26825645
0.26683938
0.26554711
0.26174211
0.26325493
0.26490732
0.26667276
0.26857495
0.27061377
0.27279308
0.27510869
0.27756027
0.28013174
0.28281496
0.28559316
0.28843848
0.29131779
0.29419666
0.29702968
0.29976529
0.30235652
0.30475573
0.30691202
0.30877847
0.31031209
0.31147768
0.31225222
0.31261816
0.31256595
0.31210594
0.31125701
0.31004096
0.3084924
0.30665422
0.30457375
0.30230182
0.29988301
0.29736347
0.29479059
0.29220646
0.28964196
0.28712879
0.28469404
0.28235311
0.28011531
0.27799728
0.27599806
0.27412435
0.27237165
0.27074009
0.26921734
0.2678313
0.26417702
0.26579487
0.26756601
0.2694594
0.27150027
0.27368812
0.27602669
0.27851116
0.28114049
0.28389728
0.28677184
0.28974541
0.29278781
0.29586324
0.29893433
0.3019526
0.30486334
0.30761643
0.31016134
0.31244467
0.31441744
0.31603516
0.31726154
0.31807277
0.31845098
0.31838671
0.31789057
0.3169821
0.31568378
0.31403169
0.31207118
0.30985225
0.30742809
0.30484543
0.30215264
0.29939962
0.2966312
0.29388097
0.29118326
0.28856747
0.28605083
0.28364418
0.28136537
0.27921412
0.27719776
0.27531189
0.27355706
0.2719196
0.27043205
0.26695428
0.26868773
0.27058974
0.27262391
0.2748172
0.27716858
0.2796816
0.28235066
0.28517379
0.28813207
0.29121392
0.29439835
0.29765253
0.30093769
0.30421336
0.30742781
0.31052306
0.31344586
0.31614277
0.31855795
0.32064051
0.32234465
0.3236332
0.32448177
0.32487227
0.3247954
0.32426202
0.32329223
0.32190896
0.32014985
0.31806282
0.31570031
0.3131174
0.31036262
0.30748655
0.30454184
0.30157643
0.29862709
0.29573105
0.29292027
0.29021405
0.28762488
0.28517196
0.28285575
0.2806843
0.27865334
0.27676392
0.27500087
0.27340227
0.2701357
0.27199704
0.27404404
0.27623392
0.27859555
0.28112723
0.28383218
0.28670385
0.28973907
0.29291709
0.29622413
0.29963652
0.30311845
0.30662784
0.31012085
0.31354236
0.31683115
0.31993087
0.32278528
0.32533623
0.32753116
0.32932322
0.33067466
0.33156074
0.33196333
0.33187338
0.33130195
0.33026956
0.32879933
0.32693061
0.32471386
0.32220345
0.31945563
0.31652038
0.31345061
0.31030216
0.30712656
0.30396411
0.3008553
0.29783481
0.29492423
0.29213784
0.28949634
0.2870011
0.28466103
0.28247209
0.28043601
0.27853587
0.27681645
0.27379922
0.27580286
0.27801144
0.28037449
0.28292301
0.28565443
0.28857151
0.29166645
0.29493462
0.29835302
0.30190524
0.30556447
0.30929141
0.31304029
0.31676356
0.32040265
0.32389313
0.32717575
0.33019177
0.33288098
0.33518945
0.33706967
0.33848374
0.33940684
0.33982105
0.33971764
0.33910782
0.33801232
0.33645421
0.33447469
0.33212653
0.32946506
0.32654685
0.32342307
0.32014935
0.31678524
0.31338634
0.30999677
0.30666046
0.30341498
0.30028435
0.29728483
0.29443879
0.29174865
0.28922434
0.28686213
0.28466461
0.28261286
0.28075992
0.27804539
0.28020833
0.28259815
0.28515489
0.28791203
0.29086585
0.29401839
0.2973603
0.30088509
0.30456707
0.30838663
0.31231325
0.31630359
0.32030767
0.32427387
0.32814003
0.33183871
0.33530816
0.33848759
0.34131528
0.34373635
0.34570316
0.34717814
0.34813684
0.34856176
0.34844467
0.34779685
0.34663891
0.34499365
0.34290425
0.34042517
0.33761126
0.33451844
0.3311992
0.32771246
0.32412202
0.32048773
0.31685769
0.31327928
0.30979313
0.30642589
0.30319609
0.30012809
0.29722564
0.29450001
0.29194797
0.28957337
0.2873549
0.28535572
0.28300668
0.28534922
0.28794382
0.29071867
0.29371008
0.29691278
0.30032781
0.30394383
0.30775195
0.31172324
0.31583424
0.32005008
0.32432271
0.32859737
0.33281798
0.33691866
0.34082921
0.344486
0.34782708
0.35078996
0.35331951
0.35536862
0.35690073
0.35789222
0.35832642
0.3581957
0.35751129
0.35629337
0.35456413
0.3523689
0.34976253
0.3467975
0.34352833
0.34000937
0.33630345
0.33247874
0.32859923
0.32471676
0.3208822
0.31713941
0.31351801
0.31003916
0.30672958
0.30359467
0.3006473
0.29788497
0.29531302
0.2929074
0.29074415
0.28886121
0.29140802
0.29423605
0.29725845
0.3005148
0.30399769
0.3077067
0.31162786
0.31574922
0.32003785
0.32446568
0.32899274
0.33356566
0.33812434
0.34260785
0.34694654
0.35106783
0.35490711
0.35840245
0.36149189
0.36412105
0.36624422
0.36782665
0.36884621
0.36928745
0.36914353
0.3684255
0.36715263
0.36534628
0.36305384
0.36032839
0.35721782
0.35377522
0.35005754
0.3461317
0.34206967
0.33793886
0.33379452
0.32969106
0.32567588
0.32178217
0.31803436
0.31446212
0.31107309
0.30788225
0.30488818
0.30209841
0.29948547
0.29714151
0.29585393
0.29863559
0.30173273
0.30503888
0.30859749
0.3123981
0.31643811
0.32070001
0.32516777
0.32980344
0.33457339
0.33943178
0.34431932
0.3491703
0.35391885
0.35849168
0.36281446
0.36682273
0.37045629
0.37365552
0.37636827
0.3785514
0.38017298
0.38121311
0.38165806
0.38150199
0.38075553
0.37943661
0.37756543
0.37519104
0.37236151
0.36911814
0.36551335
0.36160722
0.35746976
0.35317523
0.34879327
0.34438216
0.33999998
0.33569832
0.33151461
0.32747731
0.32361962
0.31995188
0.31649162
0.31323871
0.31020339
0.30735409
0.30480438
0.30433194
0.30738742
0.31079918
0.31443471
0.31834198
0.32250605
0.32692103
0.33156439
0.33641456
0.34142711
0.34656161
0.35176545
0.35697315
0.36211362
0.36711664
0.37190619
0.37640728
0.38055707
0.38429925
0.38757905
0.39034864
0.39256896
0.39421209
0.39526125
0.39570499
0.39553871
0.39477236
0.39342196
0.39150631
0.389075
0.38616673
0.38281535
0.37907395
0.37500485
0.3706786
0.36616921
0.36154713
0.35687331
0.35220985
0.34761317
0.34312588
0.3387815
0.33461766
0.33064845
0.32689486
0.32335856
0.32005399
0.31694329
0.31416825
0.31480954
0.31819024
0.3219768
0.32600097
0.33031589
0.33489994
0.33974195
0.34481215
0.35008113
0.35549605
0.36100809
0.36655714
0.37207175
0.37747666
0.38269931
0.3876633
0.39229522
0.39653601
0.40033577
0.40364769
0.40643099
0.40865273
0.41029033
0.41133108
0.41176642
0.41159322
0.41082038
0.4094616
0.40753376
0.40508511
0.4021399
0.39872556
0.39489678
0.39071465
0.38624603
0.38156152
0.37673081
0.37181698
0.36688609
0.36199985
0.35720678
0.35254631
0.34806133
0.34377071
0.33969873
0.33584996
0.33224264
0.32883066
0.32579823
0.32810473
0.33188228
0.33612666
0.34061899
0.34541769
0.35049057
0.35581776
0.36135882
0.36707333
0.37289785
0.37877393
0.38463407
0.39040248
0.39600282
0.40136438
0.40641517
0.41108777
0.4153302
0.41910187
0.42236732
0.42509613
0.42726385
0.42885469
0.42986089
0.43027733
0.43010254
0.42934397
0.42801263
0.4261228
0.42371852
0.42080478
0.41740626
0.41357746
0.40937177
0.40484747
0.40006807
0.39510059
0.39000843
0.38486065
0.37972363
0.37465239
0.36969314
0.36489662
0.36028769