/*--------------------------------*- C++ -*----------------------------------*\
| =========                 |                                                 |
| \\      /  F ield         | OpenFOAM: The Open Source CFD Toolbox           |
|  \\    /   O peration     | Version:  v2006                                 |
|   \\  /    A nd           | Website:  www.openfoam.com                      |
|    \\/     M anipulation  |                                                 |
\*---------------------------------------------------------------------------*/
FoamFile
{
    version     2.0;
    format      ascii;
    class       volScalarField;
    location    "2000";
    object      p;
}
// * * * * * * * * * * * * * * * * * * * * * * * * * * * * * * * * * * * * * //

dimensions      [1 -1 -2 0 0 0 0];


internalField   nonuniform List<scalar> 
19765
(
1.0007914
1.0010911
1.0018976
1.0024605
1.0030182
1.0034372
1.0039307
1.0042171
1.004583
1.0048804
1.0050867
1.0052442
1.0053682
1.0054316
1.0054476
1.0054281
1.0053753
1.0052884
1.0051665
1.0050083
1.0048088
1.0045703
1.0043141
1.004014
1.0036501
1.0032719
1.0029473
1.0025782
1.0021159
1.0016992
1.0012643
1.0007392
1.0001469
0.99936681
0.99873796
0.99829358
0.99772404
0.99686319
0.99626597
0.99560224
0.99451321
0.9935769
0.99342792
0.99259893
0.99263337
0.99237068
0.99260571
0.99296833
0.99343039
1.0017995
1.0019528
1.0021493
1.0023849
1.0026348
1.0028754
1.0031272
1.0033389
1.0035604
1.0037797
1.0039653
1.0041191
1.0042609
1.0043604
1.0044163
1.0044547
1.0044669
1.004439
1.0043802
1.0042849
1.0041542
1.0039962
1.0038015
1.0035721
1.0033163
1.0030361
1.0027206
1.0023758
1.0020073
1.0016115
1.0011921
1.0007536
1.0002993
0.99984274
0.99939094
0.99893522
0.99846871
0.9980081
0.99758225
0.99718271
0.99683014
0.99653995
0.9962616
0.99602397
0.99585488
0.99571054
0.9956006
0.9955002
0.99539929
1.0017588
1.0019517
1.0021697
1.0023861
1.0026006
1.0028018
1.0029992
1.0031682
1.0033353
1.0034907
1.0036284
1.0037483
1.0038552
1.003936
1.0039878
1.0040205
1.0040322
1.0040143
1.0039652
1.0038839
1.0037701
1.0036261
1.0034503
1.0032422
1.0030071
1.0027476
1.0024583
1.0021413
1.0018021
1.0014391
1.0010565
1.0006613
1.0002597
0.99985787
0.99944845
0.99903446
0.99862847
0.99823297
0.99784601
0.99748133
0.9971426
0.99681153
0.99649648
0.99620765
0.99594472
0.99573291
0.99554549
0.99538578
0.99523819
1.0019381
1.002064
1.0021954
1.0023348
1.0024775
1.0026196
1.0027624
1.0028927
1.0030237
1.0031512
1.0032652
1.0033657
1.0034564
1.0035267
1.0035726
1.0036036
1.0036185
1.003608
1.0035701
1.0035033
1.0034089
1.0032917
1.0031482
1.0029756
1.0027789
1.0025617
1.0023192
1.0020518
1.0017655
1.00146
1.0011391
1.0008091
1.0004746
1.0001414
0.99980332
0.99946352
0.99913386
0.99881833
0.99851081
0.99822486
0.99796492
0.99771149
0.99746056
0.99723551
0.99701281
0.99680772
0.9965984
0.99639321
0.99619305
1.0018548
1.0019686
1.0020848
1.0021996
1.0023123
1.0024211
1.002529
1.0026268
1.0027246
1.0028202
1.0029064
1.0029826
1.0030515
1.0031054
1.00314
1.0031622
1.0031719
1.003161
1.0031267
1.0030672
1.0029816
1.0028733
1.0027398
1.0025788
1.0023949
1.0021925
1.0019682
1.0017212
1.001457
1.0011774
1.0008847
1.000584
1.000279
0.99997501
0.99966976
0.99936534
0.99906847
0.99878216
0.99850326
0.99823895
0.99798993
0.99774502
0.99750195
0.99727323
0.99704355
0.99682334
0.99660524
0.99639407
0.9961891
1.0018291
1.0019113
1.0019969
1.0020821
1.002167
1.0022494
1.0023326
1.0024082
1.0024848
1.00256
1.0026278
1.0026875
1.0027413
1.0027828
1.0028085
1.0028234
1.0028272
1.0028133
1.0027792
1.0027233
1.0026445
1.0025464
1.002427
1.0022835
1.0021197
1.0019392
1.0017396
1.0015203
1.0012864
1.0010393
1.0007816
1.0005175
1.0002503
0.99998457
0.99971882
0.99945483
0.9991979
0.99895044
0.99871035
0.9984827
0.99826796
0.99805763
0.9978506
0.99765293
0.9974551
0.9972618
0.99706627
0.9968691
0.99667352
1.0017397
1.0018093
1.0018813
1.0019509
1.002019
1.0020842
1.0021497
1.0022088
1.0022685
1.0023272
1.0023799
1.0024259
1.002467
1.0024981
1.0025159
1.0025244
1.0025231
1.0025064
1.002472
1.0024183
1.0023443
1.0022523
1.0021406
1.0020071
1.0018547
1.0016867
1.0015014
1.0012983
1.0010819
1.0008537
1.0006158
1.0003721
1.0001251
0.99987903
0.99963318
0.99938909
0.99915058
0.9989197
0.99869493
0.99847975
0.99827407
0.99807219
0.99787241
0.997679
0.99748482
0.99729307
0.99709884
0.99690338
0.99670686
1.0016696
1.0017238
1.0017806
1.0018356
1.0018895
1.0019411
1.001993
1.0020396
1.0020869
1.0021331
1.0021743
1.0022097
1.0022407
1.0022631
1.0022741
1.0022768
1.0022706
1.0022508
1.0022152
1.0021626
1.002092
1.0020051
1.0019006
1.0017768
1.001636
1.0014809
1.0013102
1.0011239
1.0009258
1.0007173
1.0005005
1.0002787
1.0000544
0.99983113
0.99960853
0.99938797
0.99917262
0.99896426
0.99876171
0.99856777
0.99838252
0.99820118
0.99802254
0.99784946
0.99767634
0.99750521
0.99733183
0.99715672
0.99698006
1.0015833
1.0016282
1.0016755
1.0017207
1.0017647
1.0018064
1.0018482
1.0018854
1.001923
1.0019596
1.0019917
1.0020187
1.0020418
1.0020572
1.0020628
1.0020608
1.0020506
1.0020282
1.0019917
1.0019399
1.0018719
1.0017889
1.0016897
1.0015731
1.0014408
1.0012952
1.0011353
1.0009613
1.0007763
1.0005819
1.0003799
1.0001732
0.99996383
0.99975505
0.99954678
0.99934023
0.99913797
0.99894159
0.99875018
0.99856596
0.9983889
0.99821549
0.99804434
0.99787784
0.99771129
0.99754626
0.99737927
0.99721059
0.99703995
1.0015065
1.0015426
1.001581
1.0016176
1.0016532
1.0016867
1.0017204
1.00175
1.0017799
1.0018087
1.0018334
1.0018536
1.00187
1.0018797
1.0018806
1.0018745
1.0018608
1.0018361
1.0017986
1.0017472
1.0016813
1.0016015
1.0015069
1.0013966
1.0012719
1.001135
1.000985
1.0008221
1.0006495
1.0004682
1.0002802
1.0000879
0.99989344
0.99969952
0.99950627
0.99931482
0.99912745
0.9989456
0.99876855
0.99859821
0.99843468
0.99827499
0.99811791
0.99796546
0.99781356
0.9976635
0.99751211
0.99735955
0.99720565
1.0014273
1.0014571
1.001489
1.0015192
1.0015484
1.0015757
1.0016031
1.0016267
1.0016505
1.0016731
1.001692
1.0017067
1.0017178
1.0017228
1.0017199
1.0017105
1.0016939
1.0016672
1.001629
1.001578
1.0015137
1.0014367
1.001346
1.0012409
1.0011225
1.0009927
1.0008509
1.0006973
1.0005347
1.0003642
1.0001873
1.0000065
0.99982355
0.99964091
0.99945877
0.99927821
0.99910119
0.99892905
0.99876117
0.99859924
0.99844335
0.99829114
0.99814139
0.997996
0.99785133
0.99770853
0.99756485
0.99742036
0.99727457
1.0013544
1.0013786
1.0014048
1.0014295
1.0014533
1.0014753
1.0014974
1.0015161
1.0015348
1.0015522
1.0015663
1.0015764
1.0015831
1.0015842
1.001578
1.0015657
1.0015468
1.0015185
1.0014795
1.0014289
1.001366
1.0012913
1.0012041
1.0011036
1.0009908
1.0008674
1.0007328
1.0005876
1.0004339
1.000273
1.0001064
0.99993617
0.99976392
0.999592
0.99942064
0.99925088
0.99908451
0.9989228
0.99876523
0.99861332
0.99846729
0.99832508
0.99818557
0.99805058
0.99791674
0.99778518
0.99765335
0.99752131
0.99738869
1.0012834
1.0013033
1.001325
1.0013453
1.0013648
1.0013827
1.0014004
1.0014151
1.0014296
1.0014429
1.0014529
1.0014593
1.0014624
1.0014602
1.0014513
1.0014368
1.0014158
1.0013862
1.0013467
1.0012965
1.0012349
1.0011623
1.001078
1.0009815
1.0008737
1.0007558
1.0006277
1.0004897
1.0003439
1.0001914
1.0000335
0.99987238
0.99970928
0.99954642
0.99938406
0.99922317
0.99906539
0.99891189
0.99876222
0.99861778
0.99847879
0.99834354
0.99821096
0.99808282
0.99795604
0.99783171
0.99770753
0.99758358
0.99745932
1.0012173
1.0012334
1.0012513
1.0012678
1.0012836
1.0012979
1.001312
1.0013233
1.0013343
1.001344
1.0013506
1.0013538
1.0013538
1.0013489
1.0013378
1.0013213
1.0012987
1.0012679
1.0012281
1.0011782
1.0011178
1.0010472
1.0009656
1.0008728
1.0007694
1.0006565
1.0005342
1.0004027
1.000264
1.000119
0.99996919
0.99981628
0.99966162
0.99950718
0.99935326
0.99920084
0.99905142
0.9989061
0.99876454
0.99862803
0.99849683
0.99836947
0.99824496
0.99812502
0.99800678
0.99789132
0.9977765
0.99766244
0.99754864
1.0011543
1.0011674
1.001182
1.0011955
1.0012082
1.0012195
1.0012306
1.0012391
1.0012471
1.0012538
1.0012577
1.0012582
1.0012556
1.0012484
1.0012354
1.0012172
1.0011933
1.0011617
1.0011216
1.0010721
1.0010129
1.000944
1.0008649
1.0007754
1.000676
1.0005677
1.0004505
1.000325
1.0001926
1.0000545
0.99991189
0.99976641
0.9996193
0.99947239
0.99932601
0.99918108
0.99903899
0.9989008
0.99876619
0.99863635
0.99851158
0.9983906
0.99827249
0.99815894
0.99804726
0.99793854
0.9978308
0.99772422
0.9976182
1.0010954
1.0011058
1.0011177
1.0011284
1.0011385
1.0011473
1.0011558
1.0011618
1.0011674
1.0011715
1.0011729
1.0011711
1.0011664
1.0011573
1.0011427
1.0011231
1.0010981
1.0010658
1.0010255
1.0009765
1.0009184
1.0008512
1.0007744
1.0006879
1.0005922
1.0004881
1.0003757
1.0002555
1.0001291
0.99999722
0.99986119
0.99972255
0.99958242
0.99944253
0.9993032
0.99916532
0.99903024
0.99889892
0.99877112
0.99864795
0.99852975
0.99841538
0.99830402
0.99819728
0.99809266
0.99799123
0.99789115
0.99779263
0.99769509
1.0010396
1.0010479
1.0010574
1.0010659
1.0010738
1.0010804
1.0010866
1.0010906
1.001094
1.001096
1.0010953
1.0010916
1.001085
1.0010742
1.0010583
1.0010376
1.0010116
1.0009789
1.0009386
1.0008901
1.000833
1.0007674
1.0006928
1.0006091
1.0005168
1.0004166
1.0003086
1.0001934
1.0000723
0.99994626
0.99981631
0.99968397
0.99955029
0.99941686
0.99928402
0.99915265
0.99902399
0.99889896
0.99877734
0.99866019
0.99854783
0.99843928
0.99833376
0.99823285
0.99813419
0.99803886
0.99794514
0.99785327
0.99776262
1.0009873
1.0009937
1.0010012
1.0010077
1.0010137
1.0010184
1.0010227
1.0010249
1.0010264
1.0010265
1.001024
1.0010187
1.0010105
1.0009983
1.0009812
1.0009596
1.0009329
1.0008998
1.0008596
1.0008116
1.0007556
1.0006915
1.000619
1.0005379
1.0004488
1.0003522
1.0002484
1.0001378
1.0000217
0.99990101
0.99977673
0.99965025
0.99952259
0.99939522
0.9992685
0.99914327
0.99902071
0.99890169
0.99878602
0.99867472
0.9985681
0.99846531
0.99836563
0.99827057
0.99817794
0.99808877
0.99800147
0.9979163
0.99783264
1.0009379
1.0009427
1.0009485
1.0009533
1.0009576
1.0009607
1.0009633
1.000964
1.0009639
1.0009624
1.0009584
1.0009516
1.000942
1.0009286
1.0009107
1.0008883
1.000861
1.0008277
1.0007876
1.0007402
1.0006852
1.0006226
1.0005521
1.0004735
1.0003874
1.0002942
1.0001942
1.000088
0.99997659
0.99986088
0.9997419
0.99962091
0.99949889
0.9993772
0.99925621
0.99913675
0.99901991
0.99890652
0.99879642
0.99869056
0.99858925
0.99849174
0.99839736
0.99830756
0.99822029
0.99813655
0.99805486
0.99797549
0.99789781
1.0008914
1.0008948
1.0008991
1.0009025
1.0009053
1.000907
1.0009082
1.0009075
1.000906
1.000903
1.0008977
1.0008897
1.000879
1.0008646
1.0008458
1.0008228
1.0007951
1.0007616
1.0007218
1.000675
1.0006211
1.00056
1.0004913
1.0004151
1.0003318
1.0002418
1.0001455
1.0000433
0.99993635
0.99982536
0.99971136
0.99959555
0.99947883
0.99936252
0.99924696
0.99913296
0.99902156
0.99891354
0.99880877
0.99870814
0.99861196
0.99851957
0.99843035
0.99834568
0.99826364
0.9981852
0.99810897
0.99803524
0.99796336
1.0008475
1.0008498
1.0008527
1.0008549
1.0008564
1.0008569
1.0008568
1.000855
1.0008522
1.000848
1.0008416
1.0008325
1.0008208
1.0008055
1.0007861
1.0007626
1.0007346
1.0007011
1.0006615
1.0006154
1.0005625
1.0005028
1.000436
1.0003621
1.0002814
1.0001946
1.0001017
1.0000033
0.99990053
0.999794
0.9996847
0.99957377
0.99946208
0.99935085
0.99924044
0.99913162
0.99902537
0.99892244
0.99882271
0.99872702
0.99863567
0.99854806
0.99846364
0.99838369
0.99830644
0.99823279
0.99816147
0.99809276
0.99802602
1.0008061
1.0008073
1.0008091
1.0008102
1.0008106
1.00081
1.0008088
1.0008059
1.0008021
1.0007969
1.0007894
1.0007794
1.0007668
1.0007509
1.000731
1.0007071
1.0006789
1.0006454
1.0006062
1.0005608
1.0005089
1.0004506
1.0003856
1.0003139
1.0002358
1.0001518
1.0000622
0.99996754
0.9998687
0.99976639
0.99966155
0.99955525
0.99944833
0.99934193
0.99923641
0.99913252
0.99903119
0.99893311
0.99883819
0.99874724
0.99866051
0.9985775
0.99849768
0.99842226
0.9983496
0.99828055
0.99821392
0.99814999
0.99808812
1.000767
1.0007673
1.0007681
1.0007682
1.0007676
1.0007661
1.0007639
1.0007601
1.0007554
1.0007492
1.0007409
1.0007301
1.0007168
1.0007003
1.00068
1.0006558
1.0006275
1.0005941
1.0005553
1.0005106
1.0004598
1.0004029
1.0003396
1.00027
1.0001944
1.0001132
1.0000268
0.99993554
0.99984046
0.99974217
0.99964157
0.99953968
0.99943729
0.99933548
0.99923462
0.99913543
0.99903878
0.99894532
0.99885499
0.99876852
0.99868618
0.9986075
0.99853201
0.99846082
0.99839241
0.99832759
0.99826524
0.99820565
0.99814815
1.0007299
1.0007294
1.0007294
1.0007286
1.0007272
1.0007249
1.0007218
1.0007173
1.0007117
1.0007047
1.0006956
1.0006842
1.0006703
1.0006533
1.0006326
1.0006083
1.00058
1.0005468
1.0005084
1.0004645
1.0004147
1.0003591
1.0002976
1.00023
1.0001568
1.0000783
0.99999486
0.99990697
0.99981547
0.99972102
0.99962446
0.99952676
0.9994287
0.99933127
0.99923485
0.99914014
0.99904796
0.99895891
0.99887296
0.99879078
0.99871263
0.99863809
0.99856672
0.99849956
0.9984352
0.99837439
0.99831609
0.99826058
0.9982072
1.0006948
1.0006936
1.0006928
1.0006913
1.0006891
1.0006861
1.0006823
1.000677
1.0006708
1.0006631
1.0006534
1.0006414
1.000627
1.0006096
1.0005887
1.0005643
1.000536
1.000503
1.0004652
1.000422
1.0003733
1.0003191
1.0002591
1.0001936
1.0001226
1.0000468
0.99996621
0.9998815
0.99979345
0.99970265
0.99960995
0.99951626
0.99942232
0.99932907
0.9992369
0.99914646
0.99905854
0.9989737
0.99889192
0.99881382
0.99873965
0.99866902
0.99860155
0.99853817
0.9984776
0.9984205
0.99836593
0.99831416
0.99826453
1.0006614
1.0006596
1.0006582
1.000656
1.0006532
1.0006495
1.0006451
1.0006392
1.0006323
1.0006241
1.0006138
1.0006013
1.0005866
1.0005689
1.0005478
1.0005234
1.0004951
1.0004625
1.0004252
1.0003828
1.0003352
1.0002823
1.000224
1.0001603
1.0000916
1.0000183
0.99994052
0.99985887
0.9997741
0.99968681
0.9995978
0.99950793
0.99941793
0.99932868
0.99924056
0.99915421
0.99907035
0.99898953
0.99891172
0.99883752
0.99876715
0.99870025
0.99863647
0.99857669
0.99851969
0.99846611
0.99841505
0.99836679
0.99832065
1.0006296
1.0006273
1.0006253
1.0006225
1.0006192
1.000615
1.00061
1.0006036
1.0005962
1.0005874
1.0005767
1.0005639
1.0005487
1.0005308
1.0005097
1.0004853
1.0004572
1.000425
1.0003882
1.0003467
1.0003001
1.0002485
1.0001918
1.0001301
1.0000635
0.99999259
0.99991751
0.9998388
0.99975719
0.99967326
0.99958778
0.99950158
0.99941534
0.99932991
0.99924566
0.9991632
0.99908323
0.99900623
0.99893222
0.99886172
0.99879495
0.99873159
0.99867131
0.9986149
0.99856126
0.99851095
0.99846316
0.99841812
0.99837518
1.0005993
1.0005966
1.000594
1.0005908
1.000587
1.0005823
1.0005768
1.00057
1.0005621
1.0005529
1.0005418
1.0005287
1.0005133
1.0004953
1.0004741
1.0004498
1.000422
1.0003902
1.000354
1.0003133
1.0002678
1.0002175
1.0001624
1.0001025
1.0000381
0.99996945
0.99989697
0.99982109
0.99974251
0.9996618
0.9995797
0.999497
0.99941436
0.99933258
0.99925203
0.99917329
0.99909702
0.99902367
0.99895327
0.9988863
0.99882296
0.99876296
0.998706
0.99865278
0.99860231
0.99855509
0.99851035
0.99846833
0.99842839
1.0005703
1.0005672
1.0005643
1.0005606
1.0005564
1.0005512
1.0005454
1.0005382
1.00053
1.0005204
1.000509
1.0004956
1.0004801
1.000462
1.0004409
1.0004167
1.0003892
1.0003578
1.0003223
1.0002824
1.000238
1.000189
1.0001355
1.0000774
1.000015
0.99994865
0.99987867
0.99980552
0.99972986
0.99965224
0.99957338
0.99949404
0.99941483
0.99933654
0.99925952
0.99918433
0.99911158
0.99904171
0.99897474
0.99891113
0.99885105
0.99879423
0.99874039
0.99869019
0.99864269
0.99859835
0.99855646
0.99851724
0.99848004
1.0005425
1.0005391
1.0005358
1.0005318
1.0005272
1.0005218
1.0005155
1.0005081
1.0004996
1.0004897
1.0004781
1.0004645
1.0004489
1.0004307
1.0004097
1.0003858
1.0003586
1.0003277
1.0002929
1.0002539
1.0002105
1.0001629
1.0001108
1.0000545
0.99999411
0.99992999
0.99986243
0.99979191
0.99971906
0.99964442
0.99956866
0.99949252
0.99941661
0.99934164
0.99926799
0.99919618
0.99912679
0.99906023
0.99899652
0.9989361
0.9988791
0.9988253
0.99877443
0.99872707
0.99868237
0.99864074
0.99860152
0.99856491
0.99853027
1.0005159
1.0005122
1.0005086
1.0005043
1.0004994
1.0004937
1.0004872
1.0004795
1.0004707
1.0004607
1.0004489
1.0004352
1.0004195
1.0004014
1.0003806
1.0003569
1.00033
1.0002997
1.0002656
1.0002274
1.0001852
1.0001389
1.0000883
1.0000337
0.99997527
0.9999133
0.99984809
0.99978011
0.99970996
0.99963817
0.99956539
0.99949232
0.99941954
0.99934776
0.99927731
0.99920872
0.99914252
0.9990791
0.9990185
0.99896109
0.99890702
0.99885606
0.99880799
0.99876331
0.99872124
0.99868214
0.9986454
0.9986112
0.99857894
1.0004902
1.0004864
1.0004825
1.000478
1.0004729
1.0004669
1.0004602
1.0004523
1.0004434
1.0004331
1.0004213
1.0004076
1.0003919
1.0003739
1.0003532
1.0003298
1.0003034
1.0002736
1.0002402
1.000203
1.0001619
1.0001168
1.0000678
1.0000149
0.9999583
0.99989842
0.99983549
0.99976996
0.99970242
0.99963336
0.99956344
0.9994933
0.99942353
0.99935477
0.99928737
0.99922184
0.99915867
0.99909823
0.99904056
0.99898601
0.99893471
0.99888644
0.99884101
0.99879885
0.99875924
0.99872252
0.99868811
0.99865617
0.99862611
1.0004655
1.0004615
1.0004574
1.0004527
1.0004474
1.0004413
1.0004344
1.0004264
1.0004174
1.000407
1.0003951
1.0003814
1.0003658
1.0003479
1.0003275
1.0003045
1.0002785
1.0002493
1.0002167
1.0001804
1.0001403
1.0000966
1.000049
0.99999776
0.99994307
0.99988522
0.99982449
0.99976134
0.99969631
0.99962988
0.99956269
0.99949536
0.99942844
0.99936257
0.99929808
0.99923544
0.99917515
0.99911753
0.99906263
0.99901078
0.99896208
0.99891635
0.99887339
0.99883359
0.9987963
0.99876179
0.99872953
0.99869969
0.99867165
1.0004416
1.0004375
1.0004333
1.0004285
1.000423
1.0004168
1.0004098
1.0004017
1.0003926
1.0003822
1.0003703
1.0003567
1.0003412
1.0003235
1.0003034
1.0002807
1.0002553
1.0002267
1.0001948
1.0001594
1.0001205
1.000078
1.0000319
0.99998232
0.99992944
0.99987357
0.99981499
0.99975413
0.99969151
0.99962762
0.99956304
0.99949839
0.9994342
0.99937107
0.99930932
0.99924943
0.99919185
0.99913689
0.99908461
0.9990353
0.99898905
0.9989457
0.99890506
0.99886749
0.99883236
0.99879992
0.99876968
0.99874178
0.99871564
1.0004185
1.0004143
1.00041
1.0004051
1.0003996
1.0003933
1.0003863
1.0003781
1.000369
1.0003586
1.0003468
1.0003332
1.0003179
1.0003005
1.0002807
1.0002584
1.0002335
1.0002056
1.0001745
1.0001401
1.0001023
1.000061
1.0000164
0.99996839
0.9999173
0.99986336
0.99980686
0.99974822
0.99968793
0.99962647
0.9995644
0.99950231
0.99944071
0.99938018
0.99932104
0.99926374
0.99920872
0.99915626
0.99910643
0.9990595
0.99901555
0.99897443
0.99893596
0.99890045
0.99886733
0.99883682
0.99880844
0.99878233
0.99875792
1.0003961
1.0003919
1.0003876
1.0003826
1.0003771
1.0003707
1.0003637
1.0003555
1.0003464
1.0003361
1.0003244
1.000311
1.0002959
1.0002787
1.0002593
1.0002375
1.0002131
1.0001859
1.0001556
1.0001222
1.0000855
1.0000455
1.0000023
0.9999559
0.99990654
0.9998545
0.99980002
0.99974353
0.99968549
0.99962636
0.99956669
0.99950704
0.9994479
0.99938983
0.99933315
0.99927829
0.99922567
0.99917556
0.99912802
0.99908332
0.99904151
0.99900247
0.99896602
0.99893243
0.99890119
0.99887247
0.99884583
0.99882139
0.99879859
1.0003744
1.0003702
1.0003659
1.0003609
1.0003553
1.000349
1.000342
1.0003339
1.0003249
1.0003147
1.0003031
1.0002899
1.000275
1.0002582
1.0002392
1.0002179
1.0001941
1.0001675
1.0001381
1.0001056
1.0000701
1.0000314
0.99998955
0.99994473
0.99989709
0.99984688
0.99979438
0.99973996
0.9996841
0.99962721
0.99956984
0.99951251
0.99945571
0.99939997
0.9993456
0.99929304
0.99924265
0.99919473
0.99914933
0.99910669
0.99906687
0.99902975
0.99899517
0.99896336
0.99893384
0.99890675
0.99888169
0.99885877
0.99883742
1.0003533
1.0003492
1.0003449
1.0003399
1.0003344
1.0003282
1.0003212
1.0003132
1.0003043
1.0002942
1.0002828
1.0002698
1.0002552
1.0002388
1.0002202
1.0001994
1.0001762
1.0001504
1.0001219
1.0000904
1.0000559
1.0000185
0.99997807
0.9999348
0.99988884
0.99984044
0.99978985
0.99973746
0.99968369
0.99962896
0.99957378
0.99951867
0.99946409
0.99941054
0.99935835
0.99930792
0.99925962
0.99921372
0.9991703
0.99912956
0.99909158
0.99905623
0.99902338
0.9989932
0.99896528
0.99893972
0.99891613
0.99889462
0.99887466
1.0003329
1.0003288
1.0003245
1.0003197
1.0003142
1.0003081
1.0003012
1.0002934
1.0002846
1.0002747
1.0002635
1.0002508
1.0002365
1.0002204
1.0002023
1.0001821
1.0001595
1.0001345
1.0001068
1.0000763
1.000043
1.0000068
0.99996777
0.99992603
0.99988173
0.9998351
0.99978639
0.99973595
0.99968421
0.99963156
0.99957848
0.99952548
0.99947299
0.99942151
0.99937135
0.9993229
0.99927654
0.99923251
0.99919089
0.9991519
0.99911559
0.99908185
0.99905056
0.99902186
0.99899537
0.99897116
0.99894888
0.9989286
0.99890982
1.000313
1.000309
1.0003049
1.0003001
1.0002948
1.0002887
1.000282
1.0002743
1.0002657
1.000256
1.000245
1.0002327
1.0002187
1.0002031
1.0001855
1.0001658
1.0001439
1.0001196
1.0000928
1.0000633
1.0000311
0.99999621
0.99995859
0.99991836
0.99987569
0.9998308
0.99978392
0.99973539
0.99968561
0.99963496
0.9995839
0.9995329
0.9994824
0.99943285
0.99938458
0.99933797
0.99929338
0.99925105
0.99921108
0.99917366
0.99913886
0.99910659
0.99907671
0.99904936
0.99902419
0.99900125
0.9989802
0.99896112
0.99894351
1.0002938
1.0002899
1.0002858
1.0002812
1.000276
1.0002701
1.0002635
1.000256
1.0002476
1.0002381
1.0002275
1.0002154
1.0002019
1.0001866
1.0001696
1.0001505
1.0001293
1.0001058
1.0000799
1.0000514
1.0000203
0.99998668
0.99995045
0.99991172
0.99987066
0.99982747
0.99978239
0.99973573
0.99968785
0.99963913
0.99959
0.99954092
0.99949229
0.99944455
0.99939804
0.99935312
0.99931013
0.99926934
0.99923084
0.99919483
0.99916137
0.99913037
0.99910173
0.99907555
0.99905149
0.9990296
0.99900956
0.99899141
0.99897469
1.0002751
1.0002713
1.0002674
1.0002629
1.0002578
1.0002521
1.0002457
1.0002384
1.0002302
1.0002211
1.0002107
1.000199
1.0001859
1.0001711
1.0001546
1.0001361
1.0001156
1.0000929
1.0000679
1.0000405
1.0000106
0.99997815
0.99994329
0.99990606
0.99986659
0.99982508
0.99978176
0.99973692
0.9996909
0.99964405
0.99959678
0.99954952
0.99950265
0.99945662
0.99941172
0.99936834
0.9993268
0.99928737
0.99925017
0.99921539
0.99918309
0.99915321
0.99912566
0.99910053
0.99907751
0.99905664
0.99903762
0.99902047
0.99900475
1.000257
1.0002534
1.0002496
1.0002452
1.0002403
1.0002348
1.0002286
1.0002215
1.0002136
1.0002047
1.0001947
1.0001834
1.0001707
1.0001564
1.0001404
1.0001226
1.0001029
1.000081
1.0000569
1.0000305
1.0000017
0.99997056
0.99993706
0.99990131
0.99986342
0.99982358
0.99978199
0.99973893
0.99969473
0.99964969
0.99960422
0.9995587
0.99951351
0.99946906
0.99942565
0.99938366
0.99934341
0.99930517
0.99926908
0.99923533
0.999204
0.99917503
0.99914836
0.99912403
0.99910178
0.99908161
0.99906323
0.99904666
0.99903147
1.0002394
1.000236
1.0002323
1.0002281
1.0002234
1.0002181
1.0002121
1.0002053
1.0001977
1.0001891
1.0001794
1.0001685
1.0001562
1.0001425
1.0001271
1.00011
1.0000909
1.0000699
1.0000467
1.0000213
0.99999372
0.99996384
0.99993172
0.99989744
0.99986111
0.99982292
0.99978305
0.99974175
0.99969932
0.99965605
0.99961232
0.99956848
0.99952487
0.9994819
0.99943986
0.99939912
0.99936
0.99932278
0.99928761
0.9992547
0.99922414
0.99919591
0.99916996
0.99914636
0.99912486
0.99910547
0.99908793
0.99907223
0.99905796
1.0002225
1.0002192
1.0002157
1.0002117
1.0002072
1.0002021
1.0001963
1.0001898
1.0001824
1.0001742
1.0001648
1.0001543
1.0001425
1.0001293
1.0001145
1.0000981
1.0000798
1.0000596
1.0000374
1.000013
0.99998657
0.99995795
0.9999272
0.99989439
0.99985962
0.99982307
0.9997849
0.99974534
0.99970466
0.99966314
0.9996211
0.99957887
0.99953679
0.9994952
0.99945442
0.99941478
0.99937663
0.99934024
0.99930579
0.99927349
0.99924347
0.99921572
0.9991902
0.99916696
0.99914578
0.99912662
0.99910923
0.99909361
0.99907934
1.0002061
1.000203
1.0001996
1.0001958
1.0001915
1.0001866
1.0001811
1.0001749
1.0001678
1.0001599
1.0001509
1.0001408
1.0001295
1.0001169
1.0001027
1.0000869
1.0000694
1.0000501
1.0000288
1.0000055
0.9999802
0.99995285
0.99992346
0.99989212
0.99985891
0.99982399
0.99978751
0.99974968
0.99971074
0.99967094
0.99963057
0.99958992
0.99954929
0.99950902
0.99946939
0.99943074
0.9993934
0.99935766
0.99932372
0.99929182
0.99926212
0.99923467
0.99920945
0.99918656
0.99916583
0.99914724
0.99913058
0.99911582
0.99910257
1.0001903
1.0001873
1.0001842
1.0001805
1.0001764
1.0001718
1.0001665
1.0001605
1.0001538
1.0001462
1.0001376
1.000128
1.0001172
1.0001051
1.0000915
1.0000764
1.0000597
1.0000412
1.0000209
0.99999872
0.99997457
0.99994849
0.99992047
0.9998906
0.99985895
0.99982566
0.99979087
0.99975476
0.99971755
0.99967946
0.99964075
0.99960165
0.99956245
0.99952344
0.99948489
0.99944712
0.99941044
0.99937516
0.99934151
0.99930975
0.99928006
0.99925252
0.99922715
0.99920402
0.99918293
0.99916387
0.99914659
0.99913109
0.99911694
1.0001751
1.0001723
1.0001693
1.0001658
1.0001619
1.0001575
1.0001525
1.0001468
1.0001404
1.0001331
1.000125
1.0001158
1.0001055
1.0000939
1.000081
1.0000666
1.0000507
1.0000331
1.0000138
0.99999262
0.99996964
0.99994483
0.99991819
0.9998898
0.99985971
0.99982805
0.99979496
0.99976057
0.99972511
0.99968874
0.99965168
0.99961414
0.99957635
0.99953857
0.99950104
0.99946405
0.99942791
0.99939292
0.99935934
0.99932748
0.99929757
0.99926976
0.99924417
0.99922094
0.99919999
0.99918136
0.99916487
0.99915046
0.99913779
1.0001604
1.0001578
1.000155
1.0001517
1.000148
1.0001438
1.000139
1.0001336
1.0001275
1.0001206
1.0001129
1.0001041
1.0000943
1.0000833
1.0000711
1.0000574
1.0000423
1.0000256
1.0000072
0.99998717
0.99996537
0.99994183
0.99991657
0.99988965
0.99986112
0.99983112
0.99979973
0.9997671
0.99973341
0.9996988
0.99966343
0.99962746
0.9995911
0.99955456
0.99951803
0.99948175
0.99944603
0.99941116
0.99937742
0.99934514
0.99931459
0.99928597
0.99925937
0.99923494
0.99921257
0.99919222
0.99917372
0.99915703
0.99914177
1.0001464
1.0001439
1.0001412
1.0001381
1.0001346
1.0001306
1.0001261
1.0001209
1.0001152
1.0001086
1.0001013
1.000093
1.0000837
1.0000733
1.0000617
1.0000488
1.0000345
1.0000187
1.0000013
0.99998231
0.99996168
0.99993941
0.99991551
0.99989006
0.99986309
0.99983474
0.99980507
0.99977422
0.99974234
0.99970953
0.99967592
0.99964161
0.99960677
0.99957154
0.99953605
0.9995005
0.99946514
0.99943026
0.99939616
0.9993632
0.99933176
0.99930215
0.99927465
0.99924957
0.99922702
0.99920714
0.99918987
0.99917512
0.99916262
1.0001329
1.0001306
1.000128
1.0001251
1.0001217
1.0001179
1.0001136
1.0001088
1.0001033
1.0000971
1.0000902
1.0000824
1.0000737
1.0000639
1.000053
1.0000408
1.0000273
1.0000124
0.99999593
0.99997801
0.99995856
0.99993758
0.99991509
0.99989114
0.99986576
0.99983907
0.99981111
0.99978203
0.99975195
0.99972093
0.9996891
0.99965651
0.99962327
0.99958943
0.99955508
0.99952034
0.99948539
0.99945048
0.99941589
0.99938197
0.9993491
0.9993176
0.99928776
0.99925984
0.99923389
0.99920998
0.99918797
0.99916792
0.99914946
1.0001201
1.0001178
1.0001154
1.0001125
1.0001093
1.0001057
1.0001016
1.000097
1.0000919
1.0000861
1.0000796
1.0000723
1.0000641
1.0000549
1.0000447
1.0000333
1.0000206
1.0000066
0.99999119
0.99997437
0.99995614
0.99993651
0.99991547
0.9998931
0.99986937
0.99984442
0.99981825
0.99979103
0.99976282
0.99973368
0.9997037
0.99967289
0.99964129
0.99960888
0.99957568
0.99954173
0.99950716
0.99947216
0.99943696
0.99940195
0.99936758
0.99933433
0.99930278
0.99927354
0.99924711
0.99922392
0.99920422
0.99918796
0.99917508
1.0001077
1.0001055
1.0001031
1.0001004
1.0000974
1.0000939
1.0000901
1.0000857
1.0000809
1.0000755
1.0000694
1.0000626
1.000055
1.0000465
1.000037
1.0000263
1.0000145
1.0000014
0.99998694
0.99997118
0.99995411
0.99993572
0.99991602
0.99989506
0.99987288
0.99984968
0.99982541
0.99980023
0.99977419
0.9997473
0.99971951
0.99969089
0.99966136
0.99963078
0.9995991
0.99956625
0.99953226
0.99949717
0.99946115
0.99942447
0.99938752
0.99935076
0.99931465
0.99927969
0.99924615
0.9992143
0.99918419
0.99915617
0.99912991
1.0000961
1.0000939
1.0000915
1.0000888
1.0000858
1.0000824
1.0000787
1.0000746
1.0000701
1.0000651
1.0000595
1.0000533
1.0000463
1.0000385
1.0000296
1.0000197
1.0000086
0.99999623
0.99998258
0.99996772
0.99995164
0.99993429
0.9999157
0.99989593
0.99987506
0.99985331
0.9998306
0.99980717
0.99978303
0.99975811
0.9997327
0.99970648
0.99967946
0.99965136
0.99962207
0.99959133
0.99955905
0.99952506
0.99948936
0.99945205
0.9994135
0.99937425
0.99933516
0.99929744
0.99926247
0.99923156
0.99920588
0.9991858
0.99917166
1.0000844
1.0000821
1.0000797
1.000077
1.0000742
1.0000711
1.0000677
1.0000641
1.00006
1.0000555
1.0000504
1.0000447
1.0000382
1.0000309
1.0000227
1.0000134
1.0000031
0.9999916
0.99997899
0.99996534
0.99995062
0.99993481
0.99991799
0.9999002
0.99988129
0.99986124
0.99983999
0.99981809
0.99979519
0.99977098
0.99974752
0.99972282
0.99969744
0.99967081
0.99964316
0.9996139
0.99958302
0.99954995
0.99951465
0.99947682
0.99943667
0.99939416
0.99934955
0.99930294
0.99925476
0.99920535
0.99915556
0.99910592
0.9990587
1.000074
1.0000718
1.0000693
1.0000667
1.0000638
1.0000607
1.0000574
1.0000537
1.0000498
1.0000455
1.0000408
1.0000357
1.00003
1.0000237
1.0000166
1.0000087
0.99999995
0.99999
0.9999788
0.99996687
0.99995436
0.99994106
0.99992701
0.99991221
0.99989645
0.99987961
0.99986163
0.99984328
0.99982366
0.99980368
0.99978269
0.99976124
0.99973807
0.99971355
0.99968746
0.99965947
0.99962934
0.99959626
0.99956002
0.99951966
0.99947545
0.99942698
0.99937569
0.99932315
0.99927226
0.99922589
0.99918892
0.99916123
0.99914915
1.0000628
1.0000592
1.0000557
1.0000523
1.0000491
1.0000461
1.0000432
1.0000403
1.0000373
1.000034
1.0000303
1.0000264
1.000022
1.0000169
1.000011
1.0000041
0.99999591
0.99998596
0.99997449
0.99996264
0.99995032
0.99993693
0.99992248
0.99990707
0.99989109
0.99987518
0.99985913
0.99984348
0.99982737
0.99981692
0.99979697
0.99978305
0.99976505
0.99974894
0.99972953
0.99970993
0.99968688
0.99966214
0.99963303
0.9996004
0.99956164
0.99951655
0.99945997
0.99939374
0.99931392
0.99921794
0.9991061
0.99897727
0.99884655
1.0000508
1.0000481
1.0000458
1.0000443
1.0000431
1.0000418
1.0000402
1.0000382
1.0000358
1.0000328
1.0000292
1.0000246
1.0000187
1.0000117
1.0000033