/*--------------------------------*- C++ -*----------------------------------*\
| =========                 |                                                 |
| \\      /  F ield         | OpenFOAM: The Open Source CFD Toolbox           |
|  \\    /   O peration     | Version:  v2006                                 |
|   \\  /    A nd           | Website:  www.openfoam.com                      |
|    \\/     M anipulation  |                                                 |
\*---------------------------------------------------------------------------*/
FoamFile
{
    version     2.0;
    format      ascii;
    class       surfaceScalarField;
    location    "2000";
    object      phi;
}
// * * * * * * * * * * * * * * * * * * * * * * * * * * * * * * * * * * * * * //

dimensions      [1 0 -1 0 0 0 0];
oriented        oriented;


internalField   nonuniform List<scalar> 
39234
(
-0.00063065886
-6.207506e-06
0.00063686636
-0.00060889601
-2.1762847e-05
-0.00055880038
-5.0095638e-05
-0.00051498054
-4.381984e-05
-0.00047110278
-4.3877763e-05
-0.00043200497
-3.9097817e-05
-0.00038592722
-4.6077752e-05
-0.00034637236
-3.9554859e-05
-0.000300162
-4.6210368e-05
-0.00025330114
-4.6860869e-05
-0.00021052038
-4.2780758e-05
-0.00016927577
-4.1244619e-05
-0.00012717607
-4.2099687e-05
-8.5671297e-05
-4.1504784e-05
-4.3457885e-05
-4.2213402e-05
1.9389267e-07
-4.3651786e-05
4.4505424e-05
-4.4311517e-05
9.0137986e-05
-4.563257e-05
0.00013743828
-4.7300285e-05
0.00018660074
-4.916246e-05
0.00023672524
-5.0124491e-05
0.00028571913
-4.8993903e-05
0.00033571333
-4.9994186e-05
0.00038679986
-5.1086535e-05
0.00043410582
-4.7305962e-05
0.00047496963
-4.086381e-05
0.00051544994
-4.0480306e-05
0.00055586154
-4.04116e-05
0.00059038332
-3.4521776e-05
0.00062275348
-3.237016e-05
0.00065536776
-3.2614269e-05
0.00068921671
-3.3848957e-05
0.0007259546
-3.673788e-05
0.00075228766
-2.633306e-05
0.00077011483
-1.7827172e-05
0.00079193568
-2.1820846e-05
0.00082012219
-2.8186505e-05
0.00084021562
-2.0093431e-05
0.00086608877
-2.5873146e-05
0.00090343293
-3.7344159e-05
0.00093071924
-2.7286304e-05
0.00093873961
-8.0203675e-06
0.00096053206
-2.1792449e-05
0.00095615165
4.3804124e-06
0.00095934099
-3.1893385e-06
0.00094247958
1.686141e-05
0.00092086917
2.1610414e-05
0.00089494854
2.5920638e-05
1.9734894e-05
0.00087521364
-0.00059117474
-2.3106133e-05
0.00060807336
-0.00057163475
-4.1302841e-05
-0.00054857085
-7.3159539e-05
-0.00052262624
-6.9764452e-05
-0.0004955356
-7.0968399e-05
-0.00046806175
-6.6571672e-05
-0.00043992664
-7.4212862e-05
-0.00041121121
-6.8270296e-05
-0.00038125402
-7.6167557e-05
-0.000349159
-7.8955888e-05
-0.00031546094
-7.6478814e-05
-0.00028018033
-7.6525229e-05
-0.00024261318
-7.966684e-05
-0.0002030148
-8.1103168e-05
-0.0001612168
-8.4011399e-05
-0.00011616556
-8.8703031e-05
-6.7748798e-05
-9.2728273e-05
-1.6882484e-05
-9.6498885e-05
3.6319565e-05
-0.00010050233
9.1610395e-05
-0.00010445329
0.0001488059
-0.00010731999
0.00020761978
-0.00010780779
0.00026690966
-0.00010928406
0.00032598488
-0.00011016175
0.00038469172
-0.0001060128
0.00044255285
-9.872494e-05
0.00049808073
-9.6008185e-05
0.00055071797
-9.3048839e-05
0.00060045915
-8.4262951e-05
0.00064662503
-7.8536037e-05
0.00068889268
-7.4881914e-05
0.00072713943
-7.2095707e-05
0.00076098355
-7.0582001e-05
0.00079136918
-5.671869e-05
0.00081911905
-4.5577041e-05
0.00084413551
-4.6837309e-05
0.000866269
-5.0319987e-05
0.000886491
-4.0315428e-05
0.00090474462
-4.4126769e-05
0.00092024912
-5.2848652e-05
0.00093351622
-4.0553404e-05
0.00094669293
-2.119708e-05
0.00095843811
-3.3537626e-05
0.0009698028
-6.9842729e-06
0.00098012219
-1.350873e-05
0.0009889066
8.077007e-06
0.00099629702
1.4219994e-05
0.0010023643
1.9853323e-05
1.413044e-05
0.0010079688
-0.00065565818
-3.824956e-05
0.00067080161
-0.00063706032
-5.9900703e-05
-0.00061563732
-9.4582542e-05
-0.00059266507
-9.2736703e-05
-0.00056855865
-9.5074823e-05
-0.00054360619
-9.1524132e-05
-0.00051749233
-0.00010032673
-0.00049033546
-9.5427168e-05
-0.000461547
-0.00010495601
-0.00043051325
-0.00010998964
-0.00039721271
-0.00010977936
-0.00036149716
-0.00011224078
-0.00032295265
-0.00011821135
-0.00028159344
-0.00012246238
-0.00023725694
-0.00012834789
-0.00018922589
-0.00013673408
-0.00013724753
-0.00014470662
-8.1846616e-05
-0.00015189981
-2.3247657e-05
-0.00015910129
3.8165078e-05
-0.00016586603
0.00010201215
-0.00017116706
0.00016789009
-0.00017368573
0.00023469468
-0.00017608865
0.00030157131
-0.00017703838
0.00036813114
-0.00017257263
0.00043380933
-0.00016440313
0.00049725014
-0.00015944899
0.00055777499
-0.0001535737
0.00061521989
-0.00014170785
0.00066878192
-0.00013209807
0.00071796567
-0.00012406566
0.0007624726
-0.00011660264
0.00080213837
-0.00011024777
0.00083799326
-9.2573581e-05
0.00087031031
-7.7894084e-05
0.00089864366
-7.5170659e-05
0.00092332001
-7.4996339e-05
0.00094555535
-6.2550773e-05
0.00096485422
-6.3425633e-05
0.00098124869
-6.9243125e-05
0.00099600685
-5.5311566e-05
0.0010095123
-3.4702574e-05
0.0010203567
-4.4381968e-05
0.0010298945
-1.652209e-05
0.0010372735
-2.0887751e-05
0.0010435469
1.8036507e-06
0.0010485218
9.2450428e-06
0.0010529227
1.5452444e-05
1.0331125e-05
0.001056722
-0.00068238128
-5.164834e-05
0.00069578006
-0.00066807194
-7.4210047e-05
-0.00065266073
-0.00010999375
-0.00063567014
-0.0001097273
-0.00061725591
-0.00011348905
-0.00059733665
-0.0001114434
-0.00057575955
-0.00012190382
-0.00055228065
-0.00011890607
-0.00052659818
-0.00013063849
-0.00049814618
-0.00013844164
-0.00046673902
-0.00014118652
-0.00043213395
-0.00014684585
-0.00039396542
-0.00015637988
-0.00035214619
-0.00016428162
-0.00030648174
-0.00017401233
-0.00025646051
-0.00018675532
-0.00020193669
-0.00019923044
-0.00014331377
-0.00021052273
-8.0847894e-05
-0.00022156716
-1.4976649e-05
-0.00023173728
5.3866878e-05
-0.00024001059
0.00012527492
-0.00024509377
0.00019810202
-0.00024891575
0.00027136866
-0.00025030503
0.00034453652
-0.00024574048
0.00041690322
-0.00023676984
0.00048700565
-0.00022955142
0.00055395722
-0.00022052527
0.00061743811
-0.00020518873
0.00067657554
-0.0001912355
0.00073078611
-0.00017827622
0.00077976301
-0.00016557954
0.0008233359
-0.00015382067
0.00086246788
-0.00013170555
0.00089739952
-0.00011282572
0.00092770125
-0.00010547239
0.00095363315
-0.00010092824
0.0009764339
-8.535152e-05
0.00099571215
-8.2703879e-05
0.0010115817
-8.5112708e-05
0.0010255766
-6.9306433e-05
0.0010386768
-4.7802803e-05
0.0010497016
-5.5406721e-05
0.0010604947
-2.7315182e-05
0.0010700413
-3.0434385e-05
0.0010798
-7.9549834e-06
0.0010895019
-4.5691412e-07
0.0010994638
5.4905537e-06
3.0225047e-07
0.0011094927
-0.00072860283
-6.4373051e-05
0.00074132754
-0.00071511943
-8.769345e-05
-0.00070066252
-0.00012445065
-0.00068501125
-0.00012537857
-0.0006680529
-0.00013044741
-0.00064958459
-0.00012991171
-0.0006293317
-0.00014215672
-0.00060699128
-0.0001412465
-0.00058220714
-0.00015542262
-0.00055441627
-0.00016623252
-0.00052330471
-0.00017229808
-0.00048855083
-0.00018159973
-0.00044977373
-0.00019515698
-0.00040675167
-0.00020730367
-0.00035926847
-0.00022149553
-0.00030695844
-0.00023906536
-0.00024964768
-0.0002565412
-0.00018758869
-0.00027258172
-0.00012104292
-0.00028811293
-5.0408804e-05
-0.0003023714
2.3784262e-05
-0.00031420365
0.00010075957
-0.00032206909
0.00017936469
-0.00032752086
0.00025865009
-0.00032959043
0.00033787976
-0.00032497015
0.00041617567
-0.00031506575
0.00049212487
-0.00030550061
0.00056476391
-0.00029316431
0.00063357976
-0.00027400459
0.00069768686
-0.0002553426
0.00075647604
-0.0002370654
0.00080961886
-0.00021872236
0.00085696087
-0.00020116267
0.00089922566
-0.00017397035
0.00093660674
-0.00015020681
0.00096884987
-0.00013771552
0.00099630484
-0.00012838321
0.0010200481
-0.00010909479
0.001039967
-0.00010262273
0.001056388
-0.00010153373
0.0010706172
-8.3535628e-05
0.0010834691
-6.0654745e-05
0.0010942377
-6.6175267e-05
0.0011045015
-3.7578977e-05
0.0011135897
-3.9522635e-05
0.0011224316
-1.6796835e-05
0.0011308247
-8.850089e-06
0.0011389848
-2.6695497e-06
-7.7795895e-06
0.0011470667
-0.00077643763
-7.5301627e-05
0.0007873662
-0.00076481726
-9.9313817e-05
-0.0007521026
-0.00013716532
-0.00073809576
-0.00013938541
-0.0007225918
-0.00014595137
-0.00070534972
-0.00014715379
-0.00068600817
-0.00016149827
-0.00066428322
-0.00016297145
-0.00063973877
-0.00017996706
-0.00061186047
-0.00019411082
-0.00058031761
-0.00020384094
-0.00054473816
-0.00021717918
-0.00050470693
-0.00023518821
-0.00045996679
-0.00025204381
-0.000410271
-0.00027119132
-0.0003552661
-0.00029407026
-0.00029480347
-0.00031700383
-0.00022912053
-0.00033826466
-0.00015851582
-0.00035871764
-8.3469702e-05
-0.00037741752
-4.5510869e-06
-0.00039312227
7.7548037e-05
-0.00040416821
0.00016168248
-0.0004116553
0.00024678325
-0.00041469121
0.00033194555
-0.00041013244
0.00041616585
-0.00039928606
0.00049801457
-0.00038734933
0.00057643854
-0.00037158827
0.00065079182
-0.00034835787
0.00072016739
-0.00032471818
0.00078392229
-0.0003008203
0.0008416914
-0.00027649147
0.00089329486
-0.00025276613
0.00093931166
-0.00021998714
0.0009799409
-0.00019083605
0.0010150587
-0.00017283333
0.0010450264
-0.0001583509
0.0010708096
-0.00013487802
0.0010924782
-0.00012429129
0.0011104239
-0.00011947941
0.0011257862
-9.8897925e-05
0.0011393867
-7.4255301e-05
0.0011508718
-7.7660286e-05
0.0011615812
-4.8288434e-05
0.0011712173
-4.9158695e-05
0.0011806794
-2.6258994e-05
0.0011900788
-1.824942e-05
0.0011995591
-1.2149855e-05
-1.7274351e-05
0.0012090538
-0.00083076751
-8.5680652e-05
0.00084114654
-0.00081970851
-0.00011037282
-0.00080754565
-0.00014932818
-0.00079411412
-0.00015281694
-0.0007791345
-0.00016093099
-0.00076231782
-0.00016397048
-0.00074324282
-0.00018057327
-0.00072159131
-0.00018462296
-0.00069687235
-0.00020468602
-0.00066856706
-0.00022241611
-0.00063629683
-0.00023611117
-0.00059964038
-0.00025383562
-0.00055814761
-0.00027668098
-0.00051151582
-0.0002986756
-0.00045946451
-0.00032324264
-0.00040164935
-0.00035188542
-0.00033792955
-0.00038072363
-0.00026851319
-0.00040768102
-0.00019369811
-0.00043353272
-0.00011397263
-0.000457143
-2.9969164e-05
-0.00047712573
5.7541104e-05
-0.00049167848
0.0001473746
-0.00050148879
0.00023837412
-0.00050569074
0.00032952461
-0.00050128294
0.00041971307
-0.00048947452
0.00050747577
-0.00047511203
0.00059168834
-0.00045580084
0.00067159365
-0.00042826318
0.00074624475
-0.00039936927
0.0008149652
-0.00036954076
0.00087735833
-0.0003388846
0.00093323038
-0.00030863818
0.00098306893
-0.00026982569
0.001027053
-0.00023482017
0.0010651215
-0.0002109018
0.0010976753
-0.00019090466
0.0011256434
-0.00016284619
0.0011491802
-0.00014782808
0.0011687458
-0.00013904492
0.0011854491
-0.00011560127
0.0012000879
-8.8894109e-05
0.0012124468
-9.0019233e-05
0.001223789
-5.9630579e-05
0.0012339172
-5.9286854e-05
0.0012436859
-3.6027694e-05
0.001253189
-2.7752606e-05
0.0012626993
-2.1660128e-05
-2.6892096e-05
0.0012723171
-0.00088824685
-9.5175768e-05
0.00089774196
-0.00087795761
-0.00012066205
-0.0008664318
-0.000160854
-0.00085351392
-0.00016573482
-0.00083889496
-0.00017554995
-0.0008222664
-0.00018059904
-0.00080317246
-0.00019966721
-0.00078128089
-0.00020651453
-0.00075605741
-0.00022990949
-0.00072698206
-0.00025149147
-0.00069364453
-0.00026944871
-0.00065558305
-0.0002918971
-0.00061231298
-0.00031995105
-0.00056349657
-0.00034749202
-0.00050882419
-0.00037791501
-0.00044794827
-0.00041276134
-0.00038073453
-0.00044793737
-0.0003073777
-0.00048103785
-0.00022818389
-0.00051272653
-0.00014366527
-0.00054166162
-5.4502515e-05
-0.00056628849
3.8478118e-05
-0.00058465912
0.00013407849
-0.00059708916
0.00023106329
-0.00060267554
0.00032830545
-0.0005985251
0.00042458851
-0.00058575759
0.00051839821
-0.00056892173
0.00060853006
-0.00054593269
0.00069412743
-0.00051386055
0.00077420387
-0.00047944571
0.00084804421
-0.0004433811
0.00091521586
-0.00040605625
0.0009755007
-0.00036892302
0.0010293099
-0.00032363484
0.0010768248
-0.00028233516
0.0011180506
-0.00025212757
0.0011534019
-0.00022625595
0.0011837681
-0.00019321235
0.001209389
-0.00017344906
0.0012307586
-0.00016041452
0.0012489289
-0.00013377159
0.0012647043
-0.00010466949
0.0012780034
-0.00010331831
0.0012900164
-7.1643571e-05
0.0013006713
-6.9941771e-05
0.0013107973
-4.6153663e-05
0.0013205749
-3.7530267e-05
0.0013303204
-3.1405548e-05
-3.6704681e-05
0.0013401329
-0.00095016577
-0.00010426162
0.00095925162
-0.00094021068
-0.00013061714
-0.00092894456
-0.00017212012
-0.00091620026
-0.00017847912
-0.0009016365
-0.00019011371
-0.00088491588
-0.00019731966
-0.00086555416
-0.00021902892
-0.00084318819
-0.00022888051
-0.00081724993
-0.00025584775
-0.00078720312
-0.00028153828
-0.00075259837
-0.00030405346
-0.00071293392
-0.00033156155
-0.00066769138
-0.00036519358
-0.00061649569
-0.00039868771
-0.00055900671
-0.00043540399
-0.00049487016
-0.00047689789
-0.00042395289
-0.00051885465
-0.00034643714
-0.0005585536
-0.00026263534
-0.00059652832
-0.00017307972
-0.00063121725
-7.848903e-05
-0.00066087917
2.0246657e-05
-0.00068339481
0.00012187701
-0.00069871952
0.00022509092
-0.00070588945
0.00032866253
-0.00070209671
0.00043127585
-0.00068837091
0.00053135923
-0.00066900511
0.00062763156
-0.00064220502
0.00071914306
-0.00060537206
0.0008048601
-0.00056516275
0.00088402698
-0.00052254798
0.00095617699
-0.00047820627
0.0010210724
-0.00043381842
0.0010790681
-0.00038163054
0.0011303377
-0.0003336048
0.0011749249
-0.00029671474
0.001213266
-0.00026459703
0.0012462358
-0.00022618219
0.0012741271
-0.0002013403
0.0012974735
-0.00018376094
0.0013173205
-0.0001536186
0.0013344712
-0.00012182021
0.0013489215
-0.00011776862
0.0013618375
-8.4559527e-05
0.0013732033
-8.1307576e-05
0.0013838447
-5.6795119e-05
0.0013939623
-4.7647789e-05
0.0014038826
-4.1325893e-05
-4.6577342e-05
0.0014137553
-0.0010157434
-0.00011291706
0.0010243988
-0.0010061027
-0.00014025779
-0.00099504026
-0.00018318259
-0.00098237136
-0.00019114801
-0.00096773577
-0.00020474931
-0.00095077415
-0.00021428128
-0.00093098132
-0.00023882175
-0.00090796575
-0.00025189607
-0.00088113053
-0.00028268297
-0.00084991998
-0.00031274883
-0.00081384803
-0.00034012541
-0.00077237554
-0.00037303405
-0.00072495051
-0.00041261861
-0.0006711621
-0.00045247613
-0.00061064109
-0.000495925
-0.00054302265
-0.00054451632
-0.00046817122
-0.00059370608
-0.00038625964
-0.00064046519
-0.00029760899
-0.00068517898
-0.00020277469
-0.00072605155
-0.00010251734
-0.00076113652
2.2146987e-06
-0.00078812685
0.00011011739
-0.00080662221
0.00021980329
-0.00081557535
0.00032995007
-0.00081224349
0.00043914205
-0.0007975629
0.00054574087
-0.00077560392
0.0006483837
-0.00074484785
0.0007460299
-0.00070301826
0.00083759489
-0.00065672774
0.00092227839
-0.00060723148
0.00099957659
-0.00055550446
0.0010692273
-0.00050346917
0.0011315362
-0.00044393944
0.0011866758
-0.00038874439
0.001234728
-0.00034476694
0.0012761438
-0.0003060128
0.0013117863
-0.00026182467
0.001342003
-0.00023155698
0.0013673574
-0.00020911534
0.0013888799
-0.00017514113
0.0014073872
-0.00014032753
0.0014229497
-0.00013333112
0.0014367114
-9.8321202e-05
0.0014487202
-9.331634e-05
0.0014597997
-6.7874684e-05
0.0014701907
-5.8038752e-05
0.0014802466
-5.1381753e-05
-5.6457461e-05
0.0014901267
-0.0010855209
-0.00012134261
0.0010939465
-0.0010760124
-0.00014976628
-0.0010649905
-0.00019420446
-0.0010522432
-0.0002038954
-0.0010373886
-0.00021960389
-0.0010200412
-0.00023162861
-0.00099967591
-0.00025918708
-0.00097586646
-0.00027570552
-0.0009479895
-0.00031055993
-0.0009154637
-0.00034527464
-0.00087776308
-0.00037782602
-0.00083431059
-0.00041648654
-0.00078452028
-0.00046240891
-0.00072794431
-0.00050905211
-0.00066418371
-0.0005596856
-0.00059286135
-0.00061583868
-0.00051383685
-0.00067273058
-0.00042727489
-0.00072702715
-0.00033350608
-0.00077894778
-0.00023310983
-0.0008264478
-0.00012688756
-0.00086735879
-1.5855455e-05
-0.00089915895
9.8627046e-05
-0.00092110471
0.00021509848
-0.00093204678
0.00033213119
-0.0009292762
0.00044821098
-0.00091364269
0.00056162665
-0.0008890196
0.0006709319
-0.0008541531
0.00077499648
-0.00080708284
0.0008726804
-0.00075441166
0.00096313689
-0.00069768797
0.0010458252
-0.00063819275
0.0011204605
-0.00057810449
0.0011873089
-0.00051078788
0.0012465399
-0.00044797537
0.0012982644
-0.00039649138
0.0013429516
-0.00035070007
0.0013814644
-0.00030033748
0.0014141931
-0.0002642857
0.0014417344
-0.0002366566
0.0014651251
-0.00019853182
0.0014851925
-0.00016039494
0.0015020613
-0.00015019993
0.0015168737
-0.00011313357
0.0015297167
-0.00010615937
0.0015414229
-7.9580857e-05
0.0015522522
-6.8868096e-05
0.0015625734
-6.1702932e-05
-6.6463723e-05
0.0015725797
-0.0011593683
-0.00012958103
0.0011676067
-0.0011499382
-0.00015919637
-0.0011388922
-0.0002052505
-0.0011259872
-0.00021680041
-0.0011108234
-0.00023476763
-0.0010929901
-0.00024946198
-0.001071943
-0.00028023415
-0.0010472205
-0.00030042803
-0.0010181735
-0.00033960688
-0.00098419174
-0.00037925642
-0.00094470843
-0.00041730934
-0.00089910839
-0.00046208658
-0.00084677088
-0.00051474643
-0.00078721037
-0.00056861261
-0.00071999788
-0.00062689809
-0.00064474202
-0.00069109454
-0.00056129553
-0.00075617707
-0.00046981618
-0.00081850651
-0.00037064563
-0.00087811832
-0.0002643894
-0.00093270404
-0.00015189311
-0.00097985508
-3.4237809e-05
-0.0010168142
8.7152875e-05
-0.0010424954
0.00021073817
-0.0010556321
0.00033498684
-0.0010535249
0.00045828277
-0.0010369386
0.00057883467
-0.0010095715
0.00069510812
-0.00097042655
0.00080588205
-0.00091785677
0.00090995652
-0.00085848613
0.0010064345
-0.00079416599
0.0010947358
-0.00072649402
0.0011745502
-0.00065791886
0.0012461078
-0.00058234545
0.0013095764
-0.00051144398
0.0013650941
-0.00045200915
0.001413147
-0.00039875298
0.0014546007
-0.00034179117
0.0014898895
-0.00029957445
0.0015196409
-0.00026640805
0.0015448977
-0.00022378856
0.001566506
-0.00018200332
0.0015846445
-0.00016833843
0.0016004567
-0.00012894575
0.0016140722
-0.00011977487
0.0016263337
-9.184236e-05
0.001637527
-8.0061338e-05
0.0016480395
-7.2215503e-05
-7.649817e-05
0.001658074
-0.0012376653
-0.00013773678
0.001245821
-0.0012282157
-0.00016864595
-0.0012170524
-0.00021641381
-0.001203897
-0.00022995578
-0.00118833
-0.00025033464
-0.0011699126
-0.00026787942
-0.001148081
-0.0003020657
-0.0011223346
-0.00032617445
-0.0010919984
-0.0003699431
-0.0010564291
-0.00041482573
-0.0010150168
-0.00045872159
-0.00096710693
-0.00050999647
-0.00091204255
-0.00056981082
-0.00084929911
-0.00063135605
-0.00077841656
-0.00069778064
-0.00069898787
-0.00077052323
-0.00061085735
-0.00084430759
-0.00051417676
-0.0009151871
-0.00040930005
-0.00098299504
-0.00029686086
-0.0010451432
-0.00017775168
-0.0010989643
-5.311872e-05
-0.0011414472
7.5543837e-05
-0.0011711579
0.00020660924
-0.0011866975
0.00033844168
-0.0011853573
0.00046931954
-0.0011678165
0.00059736482
-0.0011376168
0.00072095105
-0.0010940128
0.00083876473
-0.0010356704
0.00094954184
-0.00096926324
0.0010523327
-0.00089695683
0.0011465166
-0.00082067791
0.0012317584
-0.00074316066
0.0013082574
-0.00065884449
0.0013761807
-0.00057936726
0.0014356911
-0.0005115195
0.0014872942
-0.00045035608
0.0015318654
-0.00038636237
0.0015698797
-0.00033758877
0.0016019983
-0.00029852665
0.0016292799
-0.00025107021
0.0016525901
-0.00020531353
0.0016721534
-0.00018790171
0.0016891238
-0.00014591613
0.001703664
-0.00013431508
0.0017166318
-0.0001048102
0.0017283316
-9.1761129e-05
0.0017391669
-8.3050759e-05
-8.6695889e-05
0.0017493646
-0.0013205169
-0.00014585716
0.0013286373
-0.0013109972
-0.0001781657
-0.0012996609
-0.00022775006
-0.001286192
-0.00024342472
-0.0012701511
-0.00026637555
-0.0012510706
-0.00028695986
-0.0012283665
-0.00032476986
-0.0012014971
-0.00035304387
-0.0011697605
-0.00040167962
-0.0011324776
-0.00045210868
-0.0010889933
-0.00050220585
-0.0010386122
-0.00056037761
-0.00098063959
-0.00062778341
-0.00091451047
-0.00069748516
-0.00083973269
-0.00077255842
-0.00075588201
-0.00085437392
-0.00066279302
-0.00093739657
-0.00056061221
-0.0010173679
-0.00044970714
-0.0010939001
-0.00033074178
-0.0011641086
-0.00020465822
-0.0012250478
-7.2670665e-05
-0.0012734348
6.3651117e-05
-0.0013074797
0.00020258908
-0.0013256355
0.00034239933
-0.0013251676
0.00048125046
-0.0013066676
0.00061717087
-0.0012735372
0.00074843695
-0.0012252789
0.00087363986
-0.0011608734
0.00099144686
-0.0010870702
0.001100852
-0.001006362
0.0012011918
-0.00092101772
0.0012921043
-0.00083407314
0.00137376
-0.00074050022
0.0014463254
-0.00065193262
0.0015099866
-0.00057518069
0.0015652689
-0.00050563841
0.0016130605
-0.00043415394
0.0016538775
-0.00037840583
0.0016884154
-0.00033306455
0.0017177509
-0.00028040574
0.0017427739
-0.00023033648
0.0017637556
-0.00020888345
0.0017818641
-0.00016402465
0.0017972977
-0.00014974868
0.0018109314
-0.00011844389
0.0018230914
-0.00010392104
0.0018341986
-9.4157957e-05
-9.6988882e-05
0.0018444915
-0.0014082649
-0.00015400747
0.0014164152
-0.0013986111
-0.00018781945
-0.0013870375
-0.00023932371
-0.0013731873
-0.00025727486
-0.0013566001
-0.00028296275
-0.0013367775
-0.00030678246
-0.0013131133
-0.00034843412
-0.0012850224
-0.00038113473
-0.0012517747
-0.00043492732
-0.0012126516
-0.00049123178
-0.0011669508
-0.00054790665
-0.0011139339
-0.00061339456
-0.0010528666
-0.00068885071
-0.00098314155
-0.00076721016
-0.00090423323
-0.00085146674
-0.00081569872
-0.00094290843
-0.00071736173
-0.0010357336
-0.00060936407
-0.0011253656
-0.00049208828
-0.0012111759
-0.0003662308
-0.0012899661
-0.00023278619
-0.0013584924
-9.3040009e-05
-0.0014131809
5.1357324e-05
-0.0014518771
0.00019859079
-0.0014728689
0.00034680389
-0.0014733807
0.0004940506
-0.0014539143
0.00063825885
-0.0014177454
0.0007776028
-0.0013646228
0.00091057489
-0.0012938454
0.0010357692
-0.0012122646
0.0011521206
-0.0011227133
0.001258921
-0.0010278182
0.0013557812
-0.00093093334
0.0014428459
-0.00082756485
0.0015202819
-0.00072936864
0.0015882988
-0.00064319756
0.0016474443
-0.0005647839
0.0016986242
-0.00048533385
0.0017423966
-0.00042217823
0.0017794936
-0.0003701616
0.0018110166
-0.00031192868
0.0018378814
-0.00025720132
0.001860404
-0.00023140603
0.0018797713
-0.00018339197
0.001896214
-0.0001661914
0.0019106273
-0.00013285714
0.0019233569
-0.00011665069
0.0019348414
-0.00010564246
-0.00010748713
0.0019453397
-0.0015011321
-0.00016222923
0.0015093538
-0.0014913005
-0.000197651
-0.0014794415
-0.00025118276
-0.0014651558
-0.00027156057
-0.0014479606
-0.00030015798
-0.0014273251
-0.0003274179
-0.0014026195
-0.00037313976
-0.0013732132
-0.00041054108
-0.0013383457
-0.00046979478
-0.0012972563
-0.0005323212
-0.0012491928
-0.0005959701
-0.0011933719
-0.00066921544
-0.0011290177
-0.00075320498
-0.0010554785
-0.00084074934
-0.00097219379
-0.00093475146
-0.00087870058
-0.0010364016
-0.00077481063
-0.0011396235
-0.00066066168
-0.0012395145
-0.00053665251
-0.0013351851
-0.00040351443
-0.0014231042
-0.00026229756
-0.0014997093
-0.00011436273
-0.0015611158
3.8553759e-05
-0.0016047936
0.00019453411
-0.0016288493
0.0003516039
-0.0016304504
0.00050769705
-0.0016100075
0.00066063385
-0.0015706823
0.00080848051
-0.0015124695
0.00094962664
-0.0014349916
0.0010825884
-0.0013452263
0.0012062375
-0.0012463624
0.0013198192
-0.0011413999
0.0014229152
-0.0010340294
0.0015156457
-0.00092029528
0.0015981783
-0.00081190123
0.0016707452
-0.00071576445
0.0017339175
-0.00062795625
0.0017886216
-0.00054003799
0.0018354583
-0.00046901492
0.0018751982
-0.00040990151
0.0019089697
-0.00034570014
0.0019377188
-0.00028595041
0.0019618071
-0.00025549438
0.0019824442
-0.00020402903
0.0019998954
-0.00018364255
0.0020150782
-0.00014803998
0.0020283608
-0.00012993334
0.0020402007
-0.0001174823
-0.00011815783
0.0020508714
-0.0015994625
-0.00017056924
0.0016078025
-0.0015894053
-0.00020770824
-0.0015772097
-0.00026337833
-0.0015624321
-0.00028633818
-0.0015445657
-0.0003180244
-0.0015230454
-0.00034893821
-0.0014972155
-0.00039896962
-0.0014663976
-0.00044135901
-0.0014297988
-0.0005063935
-0.0013866131
-0.00057550697
-0.0013360358
-0.00064654735
-0.0012772362
-0.00072801502
-0.0012093944
-0.00082104685
-0.0011318123
-0.00091833144
-0.0010438926
-0.0010226711
-0.00094515088
-0.0011351434
-0.00083538582
-0.0012493886
-0.00071473155
-0.0013601688
-0.00058360456
-0.0014663121
-0.00044277337
-0.0015639354
-0.00029334701
-0.0016491357
-0.00013676576
-0.001717697
2.5142709e-05
-0.001766702
0.00019035162
-0.0017940582
0.00035676275
-0.0017968616
0.00052218389
-0.0017754286
0.00068432045
-0.0017328188
0.00084112464
-0.0016692737
0.00099087867
-0.0015847456
0.0011320158
-0.0014863634
0.0012633411
-0.0013776878
0.001384051
-0.0012621098
0.0014936971
-0.0011436755
0.0015923764
-0.0010189746
0.0016802585
-0.00089978335
0.0017575989
-0.00079310487
0.0018249948
-0.0006953521
0.0018833972
-0.00059844043
0.0019334516
-0.00051906926
0.0019759701
-0.00045242003
0.0020121132
-0.00038184321
0.0020428598
-0.00031669704
0.0020686178
-0.00028125234
0.0020906228
-0.00022603408
0.0021091746
-0.00020219439
0.0021252157
-0.00016408107
0.0021391367
-0.00014385428
0.0021514147
-0.00012976031
-0.00012908649
0.0021623434
-0.0017035552
-0.00017906339
0.0017120493
-0.0016932335
-0.00021802986
-0.0016806579
-0.00027595394
-0.0016653381
-0.00030165799
-0.0016467418
-0.00033662073
-0.0016242676
-0.00037141236
-0.0015972323
-0.00042600499
-0.0015649067
-0.0004736846
-0.0015264636
-0.00054483661
-0.0014810482
-0.00062092236
-0.001427801
-0.00069979459
-0.0013658411
-0.00078997488
-0.001294302
-0.00089258599
-0.001212437
-0.0010001964
-0.0011196104
-0.0011154977
-0.0010153144
-0.0012394394
-0.00089933388
-0.0013653691
-0.00077179977
-0.0014877029
-0.00063314764
-0.0016049642
-0.0004841858
-0.0017128972
-0.00032608575
-0.0018072357
-0.00016037178
-0.001883411
1.103149e-05
-0.0019381053
0.00018598162
-0.0019690083
0.00036224996
-0.0019731299
0.00053751182
-0.0019506905
0.00070935009
-0.0019046571
0.00087559651
-0.0018355201
0.0010344207
-0.0017435698
0.0011841678
-0.0016361105
0.0013235725
-0.0015170924
0.0014517793
-0.0013903166
0.0015683085
-0.0012602047
0.0016732347
-0.0011239007
0.0017667297
-0.00099327835
0.0018490726
-0.00087544778
0.001920888
-0.00076716754
0.0019831549
-0.00066070724
0.0020365645
-0.00057247895
0.0020819731
-0.00049782857
0.0021205762
-0.00042044632
0.0021533891
-0.00034950996
0.0021808675
-0.00030873075
0.0022042769
-0.00024944343
0.0022239535
-0.00022187103
0.0022408674
-0.00018099492
0.0022554338
-0.00015842071
0.0022681517
-0.00014247818
-0.00014026741
0.0022793326
-0.0018137772
-0.00018774892
0.0018224628
-0.0018031511
-0.00022865597
-0.0017901506
-0.00028895449
-0.0017742368
-0.00031757174
-0.0017548503
-0.00035600725
-0.0017313513
-0.0003949114
-0.0017030264
-0.00045432983
-0.0016690936
-0.00050761743
-0.0016286884
-0.00058524181
-0.0015809044
-0.0006687064
-0.0015248238
-0.00075587512
-0.0014595132
-0.00085528555
-0.0013840564
-0.00096804269
-0.001297656
-0.0010865968
-0.0011996355
-0.0012135182
-0.0010894621
-0.0013496128
-0.00096690611
-0.0014879251
-0.00083209563
-0.0016225134
-0.00068548676
-0.001751573
-0.00052793026
-0.0018704537
-0.0003606639
-0.0019745021
-0.0001853007
-0.0020587742
-3.8686876e-06
-0.0021195373
0.00018136744
-0.0021542444
0.00036804187
-0.0021598043
0.00055368997
-0.0021363386
0.00073576438
-0.0020867315
0.0009119694
-0.0020117251
0.0010803565
-0.0019119569
0.0012391773
-0.0017949314
0.0013870919
-0.001665007
0.0015231905
-0.0015264152
0.0016469605
-0.0013839747
0.0017584547
-0.001235395
0.0018578483
-0.001092672
0.0019454448
-0.00096304428
0.0020218989
-0.00084362163
0.0020882209
-0.00072702926
0.0021451511
-0.00062940911
0.0021935925
-0.00054626998
0.0022347806
-0.00046163441
0.0022697704
-0.00038449979
0.0022990671
-0.00033802747
0.0023239696
-0.00027434586
0.0023448518
-0.00024275332
0.0023627138
-0.00019885688
0.0023779968
-0.00017370371
0.0023912228
-0.00015570418
-0.00015176938
0.0024027248
-0.0019304871
-0.00019665787
0.001939396
-0.0019195206
-0.00023962241
-0.0019060536
-0.00030242155
-0.0018894964
-0.00033412886
-0.0018692606
-0.00037624312
-0.0018446656
-0.00041950635
-0.001814966
-0.00048402941
-0.0017793237
-0.00054325974
-0.0017368346
-0.00062773095
-0.0016865371
-0.00071900384
-0.0016274525
-0.00081495982
-0.0015585912
-0.00092414683
-0.0014789851
-0.0010476488
-0.0013877828
-0.0011777991
-0.0012842651
-0.0013170359
-0.001167873
-0.0014660049
-0.0010383606
-0.0016174375
-0.00089585396
-0.0017650201
-0.00074083111
-0.0019065959
-0.00057418806
-0.0020370967
-0.0003972328
-0.0021514573
-0.00021167189
-0.0022443351
-1.9644911e-05
-0.0023115643
0.00017645528
-0.0023503446
0.00037411934
-0.0023574684
0.00057073349
-0.0023329527
0.00076361216
-0.0022796102
0.00095032498
-0.0021984379
0.0011287992
-0.0020904311
0.0012971873
-0.0019633194
0.0014540702
-0.00182189
0.001598481
-0.001670826
0.0017298723
-0.001515366
0.0018482761
-0.0013537987
0.0019538708
-0.0011982667
0.0020469855
-0.0010561589
0.0021283066
-0.00092494273
0.0021988792
-0.00079760188
0.0022594944
-0.00069002435
0.0023111052
-0.00059788076
0.0023549903
-0.00050551949
0.0023922479
-0.00042175739
0.0024234348
-0.00036921442
0.0024498868
-0.00030079783
0.0024720181
-0.00026488461
0.0024908612
-0.00021769997
0.0025068857
-0.00018972826
0.0025206388
-0.00016945725
-0.0001636053
0.0025324747
-0.002054089
-0.00020582268
0.0020632538
-0.0020427456
-0.00025096582
-0.0020287693
-0.00031639783
-0.0020115178
-0.00035138031
-0.0019903714
-0.00039738956
-0.0019646067
-0.00044527106
-0.0019334435
-0.0005151926
-0.0018959848
-0.00058071845
-0.0018512839
-0.00067243179
-0.001798321
-0.0007719668
-0.0017360524
-0.00087722839
-0.0016634298
-0.00099676941
-0.0015794298
-0.0011316488
-0.0014831442
-0.0012740846
-0.001373809
-0.0014263712
-0.0012508366
-0.0015889772
-0.0011139648
-0.0017543093
-0.00096331726
-0.0019156676
-0.00079939599
-0.0020705172
-0.00062314508
-0.0022133477
-0.00043594696
-0.0023386555
-0.00023960742
-0.0024406746
-3.638354e-05
-0.0025147882
0.00017119531
-0.0025579235
0.00038046772
-0.0025667408
0.00058866347
-0.0025411485
0.00079294993
-0.0024838966
0.00099075429
-0.0023962423