/*--------------------------------*- C++ -*----------------------------------*\
| =========                 |                                                 |
| \\      /  F ield         | OpenFOAM: The Open Source CFD Toolbox           |
|  \\    /   O peration     | Version:  v2006                                 |
|   \\  /    A nd           | Website:  www.openfoam.com                      |
|    \\/     M anipulation  |                                                 |
\*---------------------------------------------------------------------------*/
FoamFile
{
    version     2.0;
    format      ascii;
    class       volScalarField;
    location    "2000";
    object      pMean;
}
// * * * * * * * * * * * * * * * * * * * * * * * * * * * * * * * * * * * * * //

dimensions      [1 -1 -2 0 0 0 0];


internalField   nonuniform List<scalar> 
19765
(
1.0001903
1.0004585
1.0013043
1.0018828
1.0024675
1.002903
1.0034482
1.0037575
1.0041857
1.0045475
1.0047979
1.0049931
1.0051655
1.0052708
1.0053262
1.0053559
1.0053536
1.0053143
1.0052387
1.0051264
1.0049757
1.0047895
1.0045825
1.0043341
1.0040297
1.0037089
1.0034251
1.0030991
1.0026916
1.0023173
1.0019221
1.0014451
1.0009054
1.0001977
0.99961702
0.99919312
0.99865488
0.99785506
0.99728553
0.99665069
0.99562905
0.99474072
0.99455791
0.99375756
0.99374232
0.99345465
0.99362406
0.99391285
0.99429604
1.0014577
1.0016013
1.0017894
1.0020246
1.0022774
1.0025257
1.0027868
1.0030117
1.0032462
1.0034847
1.0036937
1.0038725
1.0040399
1.004167
1.0042519
1.0043203
1.0043664
1.0043756
1.0043529
1.0042937
1.0041995
1.004078
1.0039211
1.0037296
1.003511
1.003269
1.002994
1.0026886
1.0023584
1.0020019
1.0016205
1.001218
1.000798
1.000372
0.99994942
0.99952203
0.99908172
0.99864316
0.99823606
0.99785087
0.99750541
0.99721782
0.99694513
0.99670322
0.99652556
0.99637249
0.99625063
0.99613775
0.9960228
1.0014262
1.0016168
1.0018362
1.0020589
1.0022823
1.0024957
1.0027061
1.0028916
1.0030745
1.0032467
1.0034035
1.0035446
1.0036736
1.0037781
1.0038554
1.003914
1.0039525
1.0039635
1.0039455
1.0038963
1.0038159
1.0037069
1.0035671
1.0033951
1.0031959
1.0029725
1.0027201
1.0024394
1.0021355
1.0018079
1.0014599
1.0010972
1.0007264
1.0003523
0.99997063
0.99958367
0.99920123
0.99882534
0.99845741
0.99810807
0.99777946
0.99745768
0.99715258
0.99686654
0.99660667
0.9963898
0.99619785
0.99603117
0.99587748
1.0016818
1.0018099
1.0019399
1.0020805
1.0022262
1.0023738
1.0025224
1.002662
1.0028022
1.0029397
1.0030665
1.003182
1.003289
1.0033776
1.0034437
1.0034958
1.0035332
1.003547
1.003535
1.0034955
1.0034287
1.0033396
1.003225
1.0030813
1.0029132
1.002725
1.0025121
1.0022736
1.0020153
1.001738
1.0014443
1.0011398
1.0008289
1.000517
1.0002003
0.99988129
0.99956934
0.99926844
0.99897498
0.99870015
0.99844749
0.99820129
0.9979587
0.99773784
0.99752002
0.99731811
0.99711303
0.99691083
0.99671227
1.0016175
1.0017348
1.0018534
1.0019723
1.00209
1.0022054
1.00232
1.0024267
1.0025333
1.0026383
1.0027357
1.0028247
1.0029075
1.0029768
1.0030286
1.0030688
1.0030975
1.0031073
1.0030952
1.0030594
1.0029987
1.0029164
1.00281
1.0026763
1.0025198
1.0023448
1.0021483
1.0019285
1.001691
1.0014377
1.0011705
1.000894
1.0006116
1.0003285
1.0000437
0.99975872
0.999479
0.99920751
0.99894266
0.9986902
0.99845047
0.99821462
0.99798104
0.99775873
0.99753615
0.99732102
0.99710719
0.99689873
0.99669503
1.0016291
1.001714
1.0018008
1.0018884
1.0019763
1.0020633
1.0021512
1.0022334
1.0023167
1.0023994
1.0024763
1.0025466
1.0026121
1.0026669
1.0027073
1.002738
1.0027586
1.0027629
1.0027484
1.0027132
1.0026565
1.0025811
1.0024851
1.0023655
1.0022256
1.002069
1.0018934
1.0016977
1.0014867
1.0012622
1.0010261
1.0007824
1.0005343
1.0002861
1.0000373
0.9997894
0.99954659
0.99931134
0.99908273
0.99886477
0.99865773
0.9984549
0.9982555
0.99806351
0.99787183
0.99768365
0.99749341
0.99730132
0.99710958
1.0015566
1.0016297
1.0017041
1.001777
1.0018488
1.0019186
1.0019888
1.0020541
1.0021201
1.0021856
1.0022464
1.0023018
1.0023531
1.0023958
1.0024266
1.0024489
1.0024625
1.0024619
1.002445
1.0024099
1.0023556
1.0022842
1.002194
1.0020825
1.0019522
1.0018064
1.0016433
1.0014622
1.0012671
1.0010599
1.0008424
1.0006179
1.0003891
1.0001599
0.99993044
0.99970188
0.99947731
0.9992588
0.99904573
0.99884081
0.99864383
0.99845036
0.9982591
0.99807261
0.99788572
0.99770033
0.99751252
0.99732297
0.99713183
1.0015084
1.0015653
1.0016241
1.0016817
1.0017386
1.0017939
1.0018499
1.0019017
1.0019544
1.0020066
1.002055
1.0020986
1.0021388
1.0021715
1.0021941
1.0022093
1.0022165
1.0022112
1.0021914
1.0021556
1.0021028
1.0020346
1.0019494
1.0018456
1.0017248
1.0015897
1.0014391
1.0012726
1.0010936
1.000904
1.0007054
1.0005008
1.0002926
1.0000843
0.99987605
0.99966906
0.99946587
0.99926829
0.99907586
0.99889077
0.99871299
0.99853884
0.99836735
0.99820012
0.9980331
0.99786736
0.99769946
0.99752953
0.99735766
1.001436
1.001484
1.0015336
1.0015815
1.0016286
1.0016739
1.0017196
1.0017616
1.0018043
1.0018464
1.001885
1.0019195
1.0019508
1.0019756
1.0019916
1.0020009
1.0020028
1.0019937
1.0019715
1.001935
1.0018833
1.0018173
1.0017359
1.0016377
1.0015239
1.0013968
1.0012555
1.0010997
1.0009326
1.0007558
1.0005706
1.00038
1.0001859
0.99999135
0.99979679
0.99960324
0.99941278
0.99922705
0.99904571
0.99887048
0.99870128
0.99853544
0.9983718
0.9982117
0.99805175
0.99789269
0.99773171
0.99756875
0.99740351
1.001374
1.0014126
1.0014531
1.0014921
1.0015304
1.0015672
1.0016044
1.0016384
1.0016728
1.0017067
1.0017374
1.0017644
1.0017884
1.0018066
1.001817
1.0018212
1.0018187
1.0018061
1.0017818
1.0017444
1.0016934
1.0016293
1.0015511
1.0014576
1.00135
1.0012301
1.0010972
1.0009512
1.000795
1.0006298
1.0004573
1.0002798
1.0000993
0.9999184
0.99973765
0.99955801
0.99938135
0.99920915
0.99904115
0.99887888
0.99872237
0.99856936
0.99841884
0.99827196
0.99812573
0.99798077
0.9978345
0.9976868
0.99753745
1.001306
1.0013383
1.0013724
1.001405
1.0014369
1.0014673
1.0014979
1.0015257
1.0015537
1.001581
1.0016054
1.0016264
1.0016445
1.0016574
1.0016632
1.0016633
1.001657
1.0016415
1.0016154
1.0015774
1.0015269
1.0014643
1.0013887
1.0012993
1.0011968
1.0010828
1.0009569
1.000819
1.0006716
1.0005161
1.0003538
1.0001868
1.0000169
0.9998466
0.99967628
0.99950691
0.99934014
0.99917733
0.99901826
0.99886426
0.99871541
0.99856991
0.99842675
0.99828707
0.99814817
0.99801064
0.9978722
0.99773272
0.99759171
1.001244
1.0012705
1.0012986
1.0013255
1.0013518
1.0013767
1.0014019
1.0014244
1.001447
1.0014689
1.001488
1.001504
1.0015172
1.0015255
1.0015275
1.001524
1.0015146
1.0014967
1.0014689
1.0014304
1.0013803
1.001319
1.0012458
1.0011598
1.0010618
1.0009531
1.0008334
1.0007027
1.0005633
1.0004164
1.0002632
1.0001059
0.99994583
0.99978536
0.99962499
0.9994656
0.99930874
0.99915566
0.99900621
0.99886161
0.99872203
0.99858592
0.99845234
0.99832246
0.99819374
0.9980668
0.99793953
0.99781183
0.99768329
1.0011821
1.0012042
1.0012278
1.0012502
1.0012721
1.0012927
1.0013134
1.0013316
1.0013499
1.0013673
1.0013821
1.0013939
1.0014031
1.0014077
1.0014064
1.0014
1.001388
1.001368
1.001339
1.0012999
1.0012502
1.0011902
1.001119
1.0010361
1.000942
1.000838
1.0007237
1.0005993
1.0004668
1.0003274
1.0001822
1.0000331
0.99988148
0.99972942
0.99957741
0.99942633
0.99927757
0.99913232
0.99899042
0.99885302
0.99872032
0.99859102
0.99846421
0.99834111
0.99821934
0.99809957
0.99797987
0.99786018
0.99773997
1.0011245
1.0011427
1.0011623
1.0011808
1.0011988
1.0012157
1.0012326
1.0012472
1.0012618
1.0012754
1.0012865
1.0012948
1.0013005
1.001302
1.0012979
1.0012891
1.0012748
1.0012531
1.001223
1.0011836
1.0011343
1.0010754
1.0010061
1.0009259
1.0008354
1.0007355
1.0006261
1.0005074
1.0003812
1.0002485
1.0001105
0.99996893
0.99982504
0.99968075
0.99953655
0.9993933
0.99925233
0.99911476
0.99898045
0.99885051
0.99872517
0.99860331
0.99848409
0.99836875
0.99825504
0.99814366
0.99803283
0.99792252
0.99781225
1.001069
1.001084
1.0011003
1.0011157
1.0011306
1.0011443
1.001158
1.0011697
1.0011811
1.0011915
1.0011996
1.0012049
1.0012077
1.0012065
1.0012001
1.0011892
1.001173
1.0011499
1.0011189
1.0010793
1.0010305
1.0009726
1.000905
1.0008274
1.0007401
1.000644
1.000539
1.0004254
1.0003048
1.0001782
1.0000467
0.99991192
0.99977497
0.99963764
0.99950043
0.99936416
0.99923008
0.99909923
0.9989715
0.99884793
0.99872878
0.99861308
0.99850003
0.99839091
0.99828356
0.99817876
0.99807484
0.99797183
0.99786918
1.0010169
1.0010292
1.0010427
1.0010552
1.0010674
1.0010785
1.0010894
1.0010985
1.0011072
1.0011149
1.0011203
1.0011231
1.0011234
1.0011199
1.0011116
1.0010988
1.0010811
1.0010568
1.0010252
1.0009854
1.000937
1.0008802
1.0008142
1.0007389
1.0006546
1.000562
1.000461
1.0003522
1.0002368
1.0001158
0.99999022
0.99986163
0.99973108
0.99960022
0.99946952
0.99933981
0.99921226
0.99908786
0.99896653
0.99884926
0.99873632
0.99862688
0.9985202
0.99841755
0.9983169
0.99821903
0.99812239
0.99802705
0.9979325
1.0009674
1.0009773
1.0009884
1.0009987
1.0010085
1.0010173
1.0010259
1.0010328
1.0010392
1.0010445
1.0010477
1.0010483
1.0010465
1.001041
1.001031
1.0010168
1.0009977
1.0009725
1.0009403
1.0009006
1.0008527
1.0007968
1.0007324
1.0006593
1.0005777
1.0004883
1.0003912
1.0002866
1.000176
1.0000601
0.9999401
0.99981724
0.99969261
0.99956772
0.99944304
0.99931937
0.99919784
0.99907936
0.99896388
0.99885231
0.99874496
0.99864108
0.99854
0.99844297
0.99834807
0.9982561
0.9981656
0.99807671
0.99798886
1.0009208
1.0009288
1.0009377
1.000946
1.0009537
1.0009606
1.0009672
1.0009721
1.0009765
1.0009798
1.000981
1.0009797
1.0009761
1.0009689
1.0009575
1.000942
1.0009218
1.0008958
1.0008633
1.0008236
1.0007762
1.0007214
1.0006585
1.0005874
1.0005084
1.0004221
1.0003284
1.0002279
1.0001217
1.0000107
0.99989574
0.99977823
0.99965912
0.99953983
0.99942081
0.99930286
0.99918703
0.9990742
0.99896431
0.99885827
0.99875637
0.99865796
0.99856241
0.99847096
0.99838178
0.99829569
0.99821132
0.99812882
0.99804764
1.0008766
1.0008829
1.0008901
1.0008966
1.0009026
1.0009078
1.0009126
1.0009158
1.0009185
1.00092
1.0009195
1.0009166
1.0009114
1.0009028
1.0008902
1.0008736
1.0008525
1.0008259
1.0007931
1.0007535
1.0007068
1.0006529
1.0005915
1.0005223
1.0004458
1.0003623
1.000272
1.0001752
1.0000732
0.99996668
0.99985655
0.99974405
0.99963012
0.99951608
0.99940238
0.9992898
0.99917932
0.99907179
0.99896715
0.99886626
0.99876942
0.99867605
0.99858556
0.99849916
0.99841513
0.99833427
0.9982553
0.99817841
0.99810302
1.000835
1.0008398
1.0008454
1.0008504
1.0008549
1.0008585
1.0008618
1.0008636
1.0008647
1.0008647
1.0008627
1.0008584
1.0008518
1.000842
1.0008283
1.0008108
1.000789
1.000762
1.000729
1.0006896
1.0006435
1.0005906
1.0005306
1.0004634
1.0003891
1.0003084
1.0002212
1.000128
1.0000299
0.99992761
0.999822
0.99971423
0.99960518
0.99949612
0.99938746
0.99927996
0.99917458
0.9990721
0.99897248
0.99887654
0.99878458
0.99869607
0.99861048
0.99852897
0.99844993
0.99837413
0.99830038
0.99822888
0.99815907
1.0007956
1.0007991
1.0008034
1.000807
1.0008102
1.0008125
1.0008145
1.000815
1.0008148
1.0008134
1.0008101
1.0008046
1.0007968
1.0007859
1.0007714
1.0007531
1.0007307
1.0007033
1.0006703
1.0006312
1.0005857
1.0005339
1.0004752
1.0004098
1.0003378
1.0002596
1.0001754
1.0000857
0.99999129
0.99989298
0.99979163
0.99968833
0.99958392
0.99947956
0.99937568
0.99927302
0.99917247
0.99907478
0.99897992
0.99888866
0.99880129
0.99871734
0.99863633
0.99855935
0.99848489
0.9984137
0.99834467
0.99827802
0.99821315
1.0007583
1.0007608
1.0007639
1.0007663
1.0007683
1.0007695
1.0007702
1.0007696
1.0007682
1.0007657
1.0007613
1.0007547
1.0007459
1.0007341
1.0007188
1.0006999
1.000677
1.0006494
1.0006164
1.0005777
1.0005329
1.000482
1.0004248
1.0003611
1.0002912
1.0002156
1.0001342
1.0000477
0.99995683
0.99986233
0.99976505
0.99966599
0.99956598
0.9994661
0.99936677
0.99926871
0.99917278
0.99907965
0.99898935
0.99890257
0.99881959
0.99874001
0.99866338
0.99859073
0.99852066
0.99845387
0.99838933
0.99832726
0.99826708
1.000723
1.0007245
1.0007265
1.000728
1.0007289
1.0007291
1.0007288
1.0007272
1.0007248
1.0007212
1.0007158
1.0007083
1.0006986
1.0006861
1.0006701
1.0006507
1.0006275
1.0005997
1.0005669
1.0005285
1.0004844
1.0004346
1.0003787
1.0003167
1.000249
1.0001757
1.0000971
1.0000136
0.99992615
0.99983529
0.99974187
0.99964686
0.99955103
0.99945542
0.99936044
0.99926677
0.99917523
0.99908647
0.99900049
0.99891797
0.99883917
0.99876372
0.99869121
0.99862261
0.99855662
0.99849389
0.99843347
0.99837557
0.99831961
1.0006895
1.0006902
1.0006913
1.0006918
1.0006919
1.0006912
1.00069
1.0006874
1.0006841
1.0006796
1.0006734
1.0006651
1.0006546
1.0006414
1.000625
1.0006052
1.0005817
1.0005539
1.0005212
1.0004833
1.00044
1.0003911
1.0003366
1.0002763
1.0002106
1.0001396
1.0000636
0.99998314
0.99989889
0.9998115
0.99972177
0.99963062
0.99953879
0.99944726
0.99935642
0.99926695
0.99917961
0.99909501
0.99901317
0.99893472
0.99885991
0.9987884
0.99871982
0.99865508
0.99859296
0.99853408
0.99847754
0.99842356
0.99837156
1.0006577
1.0006576
1.000658
1.0006577
1.000657
1.0006555
1.0006534
1.0006501
1.000646
1.0006408
1.0006338
1.0006248
1.0006137
1.0005999
1.0005831
1.000563
1.0005394
1.0005115
1.0004791
1.0004417
1.0003991
1.0003513
1.0002981
1.0002395
1.0001757
1.000107
1.0000335
0.99995587
0.99987471
0.99979065
0.99970446
0.99961701
0.999529
0.99944136
0.99935449
0.99926903
0.9991857
0.99910507
0.99902718
0.99895261
0.99888158
0.99881381
0.99874895
0.99868784
0.99862934
0.99857403
0.99852108
0.99847071
0.99842232
1.0006274
1.0006267
1.0006263
1.0006254
1.0006239
1.0006218
1.000619
1.000615
1.0006103
1.0006043
1.0005966
1.0005871
1.0005754
1.0005612
1.000544
1.0005238
1.0005
1.0004723
1.0004401
1.0004033
1.0003615
1.0003147
1.0002629
1.0002059
1.000144
1.0000774
1.0000065
0.99993153
0.99985335
0.99977248
0.99968968
0.99960576
0.99952141
0.9994375
0.99935442
0.99927279
0.9991933
0.99911647
0.99904234
0.99897147
0.99890406
0.99883985
0.99877853
0.99872085
0.99866578
0.99861385
0.99856427
0.99851727
0.99847225
1.0005986
1.0005973
1.0005963
1.0005947
1.0005927
1.0005899
1.0005865
1.000582
1.0005766
1.00057
1.0005618
1.0005517
1.0005397
1.0005251
1.0005077
1.0004872
1.0004635
1.0004359
1.0004041
1.0003678
1.0003269
1.0002812
1.0002306
1.0001752
1.0001151
1.0000507
0.99998214
0.99990986
0.99983454
0.99975674
0.99967718
0.99959665
0.9995158
0.99943546
0.99935601
0.99927805
0.99920222
0.99912901
0.99905848
0.99899113
0.99892717
0.99886634
0.99880835
0.99875391
0.99870206
0.99865328
0.99860684
0.99856295
0.99852102
1.000571
1.0005692
1.0005677
1.0005656
1.000563
1.0005597
1.0005558
1.0005507
1.0005448
1.0005377
1.0005291
1.0005186
1.0005061
1.0004913
1.0004737
1.0004532
1.0004295
1.0004021
1.0003708
1.0003351
1.0002949
1.0002503
1.000201
1.0001472
1.000089
1.0000266
0.99996034
0.99989061
0.99981805
0.9997432
0.99966676
0.99958947
0.99951198
0.99943506
0.99935908
0.99928462
0.99921228
0.99914254
0.99907544
0.99901145
0.99895076
0.99889314
0.99883833
0.99878696
0.99873814
0.99869233
0.99864883
0.99860785
0.99856881
1.0005445
1.0005424
1.0005404
1.0005378
1.0005348
1.000531
1.0005266
1.0005212
1.0005148
1.0005073
1.0004982
1.0004874
1.0004747
1.0004596
1.0004419
1.0004214
1.0003979
1.0003708
1.0003398
1.0003048
1.0002655
1.0002219
1.000174
1.0001217
1.0000652
1.0000049
0.99994084
0.99987357
0.99980367
0.99973166
0.99965822
0.99958405
0.99950977
0.99943612
0.99936346
0.99929234
0.99922335
0.9991569
0.99909307
0.99903228
0.9989747
0.99892012
0.99886831
0.99881983
0.99877387
0.99873083
0.99869008
0.9986518
0.99861541
1.0005191
1.0005166
1.0005142
1.0005113
1.0005079
1.0005037
1.0004989
1.0004931
1.0004864
1.0004785
1.0004691
1.0004581
1.0004451
1.0004299
1.0004122
1.0003918
1.0003684
1.0003416
1.0003111
1.0002768
1.0002383
1.0001959
1.0001492
1.0000984
1.0000437
0.9999853
0.99992344
0.99985856
0.99979122
0.99972195
0.99965138
0.9995802
0.999509
0.99943847
0.99936899
0.99930107
0.99923526
0.99917196
0.99911123
0.99905348
0.99899886
0.99894717
0.9988982
0.99885246
0.99880919
0.99876876
0.99873058
0.99869482
0.99866091
1.0004947
1.0004919
1.0004892
1.0004859
1.0004822
1.0004777
1.0004726
1.0004664
1.0004594
1.0004513
1.0004417
1.0004304
1.0004173
1.000402
1.0003843
1.000364
1.0003408
1.0003144
1.0002845
1.0002508
1.0002133
1.0001719
1.0001265
1.0000772
1.0000242
0.99996772
0.99990797
0.9998454
0.99978054
0.9997139
0.9996461
0.99957778
0.99950953
0.99944199
0.99937554
0.99931066
0.99924788
0.99918758
0.99912981
0.99907494
0.99902312
0.99897416
0.99892787
0.99888471
0.99884397
0.99880599
0.9987702
0.99873678
0.99870516
1.0004712
1.0004681
1.0004651
1.0004616
1.0004576
1.0004528
1.0004475
1.0004411
1.0004338
1.0004254
1.0004156
1.0004042
1.000391
1.0003758
1.0003581
1.000338
1.0003151
1.000289
1.0002597
1.0002268
1.0001901
1.0001498
1.0001057
1.0000579
1.0000066
0.99995197
0.99989428
0.99983395
0.99977148
0.99970738
0.99964223
0.99957666
0.99951122
0.99944654
0.99938297
0.999321
0.9992611
0.99920364
0.99914867
0.99909654
0.99904738
0.99900101
0.99895725
0.99891651
0.99887815
0.99884246
0.99880892
0.99877768
0.9987482
1.0004484
1.0004452
1.000442
1.0004382
1.000434
1.000429
1.0004234
1.0004169
1.0004094
1.0004009
1.000391
1.0003795
1.0003662
1.000351
1.0003335
1.0003136
1.000291
1.0002654
1.0002366
1.0002045
1.0001688
1.0001295
1.0000867
1.0000404
0.9999907
0.99993791
0.99988222
0.99982405
0.9997639
0.99970224
0.99963964
0.9995767
0.99951396
0.999452
0.99939119
0.99933197
0.99927481
0.99922004
0.99916773
0.99911819
0.99907153
0.9990276
0.99898622
0.99894777
0.99891164
0.99887809
0.99884664
0.99881743
0.99878991
1.0004264
1.000423
1.0004196
1.0004157
1.0004113
1.0004062
1.0004005
1.0003938
1.0003862
1.0003775
1.0003675
1.000356
1.0003428
1.0003277
1.0003104
1.0002907
1.0002685
1.0002434
1.0002152
1.0001838
1.0001491
1.0001109
1.0000694
1.0000245
0.99997641
0.99992541
0.99987167
0.99981561
0.99975769
0.99969838
0.99963823
0.99957781
0.99951763
0.99945828
0.99940008
0.99934348
0.99928891
0.99923669
0.99918689
0.99913979
0.99909549
0.99905385
0.99901472
0.99897841
0.99894437
0.99891283
0.99888333
0.998856
0.99883032
1.000405
1.0004015
1.000398
1.000394
1.0003895
1.0003843
1.0003784
1.0003716
1.000364
1.0003553
1.0003453
1.0003338
1.0003207
1.0003057
1.0002885
1.0002692
1.0002474
1.0002228
1.0001953
1.0001647
1.0001309
1.0000938
1.0000535
1.0000101
0.99996361
0.99991435
0.99986252
0.99980849
0.99975274
0.99969569
0.99963788
0.99957988
0.99952216
0.99946527
0.99940956
0.99935543
0.99930332
0.9992535
0.99920606
0.99916125
0.99911917
0.99907969
0.99904265
0.99900834
0.99897625
0.99894657
0.99891888
0.9988933
0.9988693
1.0003842
1.0003807
1.0003772
1.000373
1.0003684
1.0003632
1.0003573
1.0003504
1.0003428
1.000334
1.0003241
1.0003126
1.0002996
1.0002848
1.000268
1.000249
1.0002276
1.0002036
1.0001768
1.000147
1.0001141
1.0000782
1.0000391
0.99999708
0.99995219
0.99990464
0.99985466
0.99980261
0.99974894
0.99969408
0.99963853
0.99958282
0.99952744
0.99947291
0.99941954
0.99936776
0.99931795
0.99927039
0.99922516
0.9991825
0.9991425
0.99910503
0.99906996
0.99903751
0.99900724
0.99897931
0.99895331
0.99892934
0.99890692
1.0003641
1.0003605
1.0003569
1.0003528
1.0003481
1.0003428
1.0003369
1.0003301
1.0003224
1.0003138
1.0003038
1.0002925
1.0002797
1.0002652
1.0002486
1.00023
1.0002091
1.0001856
1.0001595
1.0001305
1.0000986
1.0000638
1.000026
0.9999854
0.99994205
0.99989618
0.999848
0.99979788
0.99974623
0.99969347
0.99964008
0.99958658
0.99953342
0.99948111
0.99942997
0.99938038
0.99933274
0.99928729
0.99924413
0.99920348
0.99916541
0.99912981
0.99909656
0.99906584
0.99903725
0.99901091
0.99898645
0.99896397
0.99894297
1.0003444
1.0003409
1.0003373
1.0003331
1.0003285
1.0003232
1.0003173
1.0003106
1.000303
1.0002944
1.0002846
1.0002734
1.0002608
1.0002465
1.0002303
1.0002121
1.0001917
1.0001689
1.0001435
1.0001153
1.0000844
1.0000507
1.0000142
0.99997494
0.99993311
0.99988888
0.99984247
0.99979422
0.99974453
0.99969379
0.99964248
0.99959108
0.99954004
0.99948983
0.99944078
0.99939326
0.99934763
0.99930416
0.99926292
0.99922413
0.99918785
0.99915398
0.9991224
0.99909329
0.99906626
0.9990414
0.99901839
0.99899729
0.99897763
1.0003253
1.0003219
1.0003183
1.0003141
1.0003095
1.0003043
1.0002985
1.0002918
1.0002843
1.0002758
1.0002662
1.0002552
1.0002429
1.0002289
1.000213
1.0001953
1.0001754
1.0001532
1.0001285
1.0001013
1.0000714
1.0000388
1.0000035
0.99996562
0.99992528
0.99988268
0.99983799
0.99979156
0.99974377
0.99969498
0.99964566
0.99959627
0.99954724
0.99949902
0.99945193
0.99940634
0.99936259
0.99932094
0.99928147
0.99924439
0.99920975
0.99917746
0.99914742
0.99911976
0.99909414
0.99907062
0.99904889
0.99902901
0.99901052
1.0003067
1.0003033
1.0002998
1.0002957
1.0002912
1.0002861
1.0002803
1.0002737
1.0002664
1.000258
1.0002486
1.0002379
1.0002258
1.0002121
1.0001967
1.0001794
1.0001601
1.0001386
1.0001147
1.0000883
1.0000594
1.0000279
0.99999387
0.99995736
0.99991851
0.9998775
0.9998345
0.99978985
0.9997439
0.999697
0.99964959
0.99960212
0.99955499
0.99950864
0.99946339
0.99941958
0.99937757
0.9993376
0.99929975
0.99926422
0.99923108
0.99920023
0.99917159
0.99914527
0.99912094
0.99909867
0.99907815
0.99905944
0.99904209
1.0002887
1.0002853
1.0002819
1.0002779
1.0002735
1.0002684
1.0002628
1.0002564
1.0002492
1.000241
1.0002318
1.0002213
1.0002096
1.0001963
1.0001813
1.0001645
1.0001458
1.0001249
1.0001018
1.0000763
1.0000484
1.0000181
0.99998526
0.99995011
0.99991273
0.99987328
0.99983195
0.99978903
0.99974486
0.99969979
0.99965423
0.99960858
0.99956326
0.99951867
0.99947513
0.99943299
0.99939257
0.99935411
0.99931773
0.9992836
0.99925179
0.99922223
0.99919483
0.99916967
0.99914647
0.99912525
0.99910574
0.99908798
0.99907153
1.0002711
1.0002678
1.0002645
1.0002606
1.0002563
1.0002514
1.0002459
1.0002397
1.0002326
1.0002247
1.0002157
1.0002056
1.0001941
1.0001812
1.0001667
1.0001504
1.0001323
1.0001122
1.0000898
1.0000653
1.0000384
1.0000091
0.9999776
0.9999438
0.99990787
0.99986997
0.99983028
0.99978906
0.99974664
0.99970334
0.99965954
0.99961565
0.99957204
0.99952911
0.99948716
0.99944653
0.99940756
0.99937048
0.9993354
0.99930251
0.99927188
0.99924345
0.99921715
0.99919305
0.99917089
0.99915069
0.99913218
0.9991154
0.99909993
1.0002539
1.0002509
1.0002476
1.0002439
1.0002397
1.0002349
1.0002296
1.0002236
1.0002167
1.0002091
1.0002003
1.0001905
1.0001794
1.0001669
1.0001529
1.0001372
1.0001197
1.0001003
1.0000788
1.0000551
1.0000292
1.0000011
0.99997083
0.99993838
0.9999039
0.99986753
0.99982945
0.9997899
0.99974918
0.9997076
0.99966552
0.99962331
0.99958132
0.99953994
0.99949947
0.99946024
0.99942256
0.99938669
0.99935276
0.99932094
0.99929131
0.99926383
0.99923843
0.99921518
0.99919382
0.99917435
0.99915653
0.99914037
0.99912547
1.0002373
1.0002344
1.0002313
1.0002277
1.0002236
1.0002191
1.0002139
1.0002081
1.0002015
1.0001941
1.0001856
1.0001761
1.0001654
1.0001534
1.0001398
1.0001247
1.0001079
1.0000892
1.0000685
1.0000458
1.0000209
0.99999398
0.99996491
0.9999338
0.99990076
0.99986591
0.99982942
0.99979151
0.99975247
0.99971257
0.99967215
0.99963156
0.99959112
0.9995512
0.99951209
0.99947412
0.99943761
0.99940279
0.99936982
0.9993389
0.9993101
0.99928341
0.99925879
0.99923629
0.99921571
0.99919704
0.99918005
0.99916474
0.99915073
1.0002212
1.0002184
1.0002154
1.000212
1.0002081
1.0002037
1.0001988
1.0001932
1.0001868
1.0001797
1.0001716
1.0001624
1.0001521
1.0001405
1.0001275
1.000113
1.0000968
1.0000788
1.000059
1.0000372
1.0000134
0.9999876
0.99995978
0.99993002
0.9998984
0.99986507
0.99983015
0.99979387
0.99975648
0.99971824
0.99967944
0.99964041
0.99960146
0.99956292
0.99952507
0.99948824
0.99945274
0.99941881
0.99938663
0.9993564
0.99932822
0.99930209
0.99927798
0.99925594
0.99923575
0.99921741
0.99920067
0.99918554
0.99917164
1.0002056
1.000203
1.0002001
1.0001968
1.0001931
1.0001889
1.0001842
1.0001788
1.0001727
1.0001659
1.0001581
1.0001493
1.0001394
1.0001283
1.0001158
1.0001019
1.0000864
1.0000692
1.0000502
1.0000294
1.0000066
0.99998198
0.9999554
0.99992698
0.99989679
0.99986496
0.99983162
0.99979696
0.99976121
0.9997246
0.9996874
0.99964989
0.99961237
0.99957514
0.99953846
0.99950266
0.99946803
0.99943483
0.99940326
0.99937353
0.99934578
0.99932004
0.99929633
0.99927471
0.99925503
0.99923728
0.99922126
0.99920695
0.999194
1.0001905
1.000188
1.0001853
1.0001822
1.0001787
1.0001747
1.0001702
1.000165
1.0001592
1.0001526
1.0001452
1.0001368
1.0001273
1.0001167
1.0001048
1.0000915
1.0000767
1.0000603
1.0000421
1.0000223
1.0000006
0.99997705
0.99995173
0.99992465
0.99989589
0.99986557
0.9998338
0.99980075
0.99976663
0.99973164
0.99969602
0.99966002
0.9996239
0.99958792
0.99955235
0.99951748
0.99948359
0.99945096
0.99941979
0.99939034
0.99936274
0.99933708
0.99931337
0.99929166
0.99927179
0.99925375
0.99923731
0.99922247
0.99920887
1.0001759
1.0001736
1.000171
1.0001681
1.0001647
1.0001609
1.0001566
1.0001517
1.0001462
1.0001399
1.0001328
1.0001248
1.0001158
1.0001057
1.0000943
1.0000816
1.0000676
1.0000519
1.0000347
1.0000158
0.99999515
0.9999728
0.99994873
0.999923
0.99989568
0.99986687
0.99983667
0.99980523
0.99977274
0.99973938
0.99970535
0.99967085
0.9996361
0.99960136
0.99956684
0.99953281
0.99949955
0.99946733
0.99943639
0.999407
0.99937935
0.99935359
0.99932981
0.99930813
0.99928848
0.99927089
0.99925521
0.99924138
0.99922909
1.0001619
1.0001596
1.0001572
1.0001544
1.0001513
1.0001477
1.0001436
1.0001389
1.0001336
1.0001277
1.0001209
1.0001133
1.0001048
1.0000952
1.0000844
1.0000724
1.000059
1.0000442
1.0000279
1.0000099
0.99999035
0.99996916
0.99994635
0.99992197
0.99989608
0.99986879
0.99984018
0.99981038
0.99977956
0.99974785
0.99971542
0.99968244
0.99964909
0.99961558
0.99958208
0.99954883
0.9995161
0.99948415
0.99945322
0.99942361
0.99939557
0.99936923
0.99934471
0.99932212
0.99930136
0.99928241
0.9992651
0.99924941
0.999235
1.0001484
1.0001463
1.000144
1.0001413
1.0001383
1.0001349
1.000131
1.0001266
1.0001216
1.0001159
1.0001096
1.0001024
1.0000943
1.0000852
1.0000751
1.0000637
1.0000511
1.000037
1.0000216
1.0000046
0.99998611
0.99996608
0.99994452
0.99992149
0.99989703
0.99987126
0.99984424
0.99981609
0.99978695
0.99975694
0.99972617
0.99969477
0.9996629
0.99963067
0.99959824
0.99956578
0.99953352
0.99950172
0.99947064
0.9994406
0.99941192
0.99938486
0.99935968
0.99933663
0.99931582
0.99929734
0.99928115
0.99926718
0.99925518
1.0001353
1.0001333
1.0001311
1.0001286
1.0001258
1.0001225
1.0001188
1.0001146
1.0001099
1.0001046
1.0000986
1.0000919
1.0000843
1.0000758
1.0000662
1.0000555
1.0000436
1.0000304
1.0000158
0.99999984
0.99998242
0.99996356
0.99994327
0.99992162
0.99989862
0.99987438
0.99984894
0.99982244
0.99979498
0.99976665
0.99973757
0.9997078
0.99967745
0.99964659
0.9996153
0.99958369
0.99955195
0.99952029
0.99948894
0.99945821
0.99942844
0.99939989
0.99937281
0.99934743
0.99932379
0.99930194
0.99928178
0.99926333
0.99924629
1.0001229
1.000121
1.0001188
1.0001164
1.0001137
1.0001106
1.0001071
1.0001031
1.0000987
1.0000937
1.0000881
1.0000818
1.0000747
1.0000668
1.0000578
1.0000478
1.0000367
1.0000243
1.0000106
0.99999564
0.99997933
0.99996169
0.99994272
0.9999225
0.99990101
0.99987837
0.99985459
0.9998298
0.9998041
0.99977753
0.99975019
0.9997221
0.99969333
0.99966385
0.99963371
0.99960296
0.99957171
0.99954013
0.99950841
0.9994769
0.99944597
0.99941605
0.99938761
0.99936121
0.99933724
0.99931611
0.99929801
0.9992829
0.99927071
1.0001107
1.0001089
1.0001069
1.0001045
1.0001019
1.000099
1.0000957
1.000092
1.0000878
1.0000832
1.000078
1.0000721
1.0000655
1.0000581
1.0000498
1.0000406
1.0000302
1.0000187
1.0000059
0.99999188
0.99997663
0.99996014
0.99994241
0.99992349
0.99990343
0.99988238
0.99986033
0.99983741
0.99981367
0.99978915
0.99976384
0.9997378
0.99971095
0.99968321
0.99965455
0.99962491
0.99959433
0.99956284
0.99953057
0.99949777
0.99946477
0.99943195
0.99939973
0.99936849
0.99933849
0.99930995
0.99928293
0.9992577
0.99923402
1.0000994
1.0000975
1.0000955
1.0000931
1.0000905
1.0000876
1.0000844
1.0000809
1.0000771
1.0000728
1.000068
1.0000627
1.0000567
1.00005
1.0000424
1.0000338
1.0000241
1.0000133
1.0000013
0.99998815
0.99997382
0.99995829
0.99994159
0.99992378
0.99990492
0.99988521
0.99986459
0.99984328
0.99982128
0.99979858
0.9997754
0.99975153
0.99972697
0.99970151
0.99967505
0.99964739
0.99961843
0.99958804
0.99955621
0.99952303
0.9994888
0.99945398
0.99941932
0.99938587
0.9993548
0.99932725
0.99930422
0.99928602
0.99927295
1.0000879
1.0000858
1.0000837
1.0000814
1.0000789
1.0000763
1.0000735
1.0000704
1.000067
1.0000632
1.000059
1.0000542
1.0000487
1.0000425
1.0000355
1.0000275
1.0000185
1.0000085
0.99999737
0.99998522
0.99997207
0.99995789
0.99994273
0.99992665
0.99990956
0.99989142
0.99987222
0.99985236
0.99983164
0.99980993
0.99978847
0.99976597
0.99974294
0.99971891
0.99969403
0.9996678
0.9996402
0.99961076
0.99957945
0.99954599
0.99951054
0.99947307
0.99943376
0.99939268
0.9993502
0.99930659
0.99926259
0.99921871
0.9991769
1.0000777
1.0000757
1.0000736
1.0000712
1.0000688
1.0000661
1.0000632
1.0000601
1.0000568
1.0000532
1.0000492
1.0000448
1.0000399
1.0000344
1.0000282
1.0000213
1.0000136
1.000005
0.99999522
0.9999846
0.99997337
0.99996137
0.99994866
0.99993524
0.99992097
0.99990575
0.99988951
0.99987285
0.99985516
0.9998371
0.99981818
0.99979871
0.99977784
0.99975587
0.99973259
0.99970768
0.99968093
0.99965168
0.99961973
0.99958428
0.99954554
0.99950319
0.99945844
0.99941268
0.99936838
0.99932801
0.9992957
0.99927128
0.99926021
1.0000663
1.0000628
1.0000595
1.0000564
1.0000535
1.0000508
1.0000484
1.000046
1.0000435
1.0000408
1.0000378
1.0000344
1.0000306
1.0000263
1.0000214
1.0000156
1.0000089
1.0000007
0.99999114
0.99998077
0.99996981
0.9999579
0.99994507
0.99993131
0.99991694
0.9999025
0.99988789
0.99987347
0.99985861
0.9998473
0.99983006
0.99981742
0.99980122
0.99978654
0.99976909
0.99975156
0.99973116
0.99970931
0.99968377
0.99965518
0.99962133
0.99958191
0.99953247
0.99947453
0.99940477
0.99932074
0.99922289
0.99911039
0.99899682
1.0000544
1.000052
1.00005
1.0000489
1.0000482
1.0000476
1.0000467
1.0000455
1.0000439
1.0000419
1.0000394
1.0000362
1.000032
1.0000267
1.0000202
1.0000124
1.0000031
0.99999228
0.99998071
0.99996842
0.99995422
0.99993831