/*--------------------------------*- C++ -*----------------------------------*\
| =========                 |                                                 |
| \\      /  F ield         | OpenFOAM: The Open Source CFD Toolbox           |
|  \\    /   O peration     | Version:  v2006                                 |
|   \\  /    A nd           | Website:  www.openfoam.com                      |
|    \\/     M anipulation  |                                                 |
\*---------------------------------------------------------------------------*/
FoamFile
{
    version     2.0;
    format      ascii;
    class       volScalarField;
    location    "2000";
    object      rho;
}
// * * * * * * * * * * * * * * * * * * * * * * * * * * * * * * * * * * * * * //

dimensions      [1 -3 0 0 0 0 0];


internalField   nonuniform List<scalar> 
19765
(
1.000477
1.0007066
1.0013772
1.0017923
1.0022248
1.0025325
1.0029192
1.003115
1.0034027
1.0036287
1.0037758
1.0038909
1.0039862
1.0040308
1.0040385
1.004021
1.0039817
1.0039164
1.0038263
1.0037095
1.0035586
1.0033769
1.0031872
1.0029666
1.0026921
1.0024026
1.0021668
1.0019006
1.0015492
1.0012419
1.0009266
1.0005373
1.0001081
0.99950105
0.99901176
0.99868958
0.99828133
0.99759504
0.99714728
0.99667386
0.99581738
0.99502749
0.99497324
0.99422681
0.99424344
0.99393811
0.99406596
0.99427369
0.99458661
1.001225
1.0013204
1.0014512
1.0016131
1.0017871
1.001955
1.0021377
1.0022866
1.0024509
1.0026172
1.0027555
1.00287
1.0029804
1.0030566
1.0030987
1.0031317
1.0031461
1.0031294
1.0030921
1.0030285
1.0029394
1.0028322
1.0026975
1.0025376
1.0023594
1.0021645
1.001942
1.001698
1.0014378
1.0011573
1.0008592
1.0005471
1.0002208
0.99989232
0.99957001
0.99924572
0.99890911
0.99857447
0.99827031
0.99798345
0.99772385
0.99751833
0.99731981
0.99715092
0.99704392
0.99694952
0.99687903
0.9968123
0.99674333
1.0012326
1.0013738
1.001532
1.0016844
1.0018358
1.0019758
1.0021151
1.0022298
1.0023469
1.0024542
1.0025484
1.0026313
1.0027072
1.0027639
1.0028003
1.0028249
1.0028345
1.0028225
1.0027888
1.0027322
1.002652
1.00255
1.0024259
1.0022787
1.0021117
1.001927
1.0017211
1.0014957
1.0012552
1.0009978
1.0007269
1.0004477
1.0001647
0.9998826
0.99959537
0.99930447
0.99901952
0.9987431
0.99847215
0.99821608
0.99797949
0.99774696
0.99752144
0.99730993
0.99711747
0.99696704
0.99683115
0.99671368
0.99660279
1.0013856
1.0014731
1.001565
1.0016634
1.0017648
1.0018662
1.0019693
1.002062
1.0021571
1.0022497
1.0023318
1.0024043
1.0024709
1.0025219
1.0025551
1.0025786
1.0025908
1.0025841
1.0025579
1.0025108
1.0024438
1.0023614
1.0022607
1.0021387
1.0019992
1.0018454
1.0016738
1.001484
1.0012809
1.0010642
1.0008362
1.0006022
1.0003648
1.000129
0.99988969
0.99964901
0.99941573
0.99919395
0.99897761
0.99877688
0.99859645
0.99842157
0.99824637
0.99809295
0.9979392
0.99779934
0.99765528
0.99751472
0.99737958
1.0013166
1.0013983
1.0014819
1.001564
1.0016445
1.0017218
1.0017992
1.0018681
1.0019382
1.0020069
1.0020684
1.0021226
1.0021725
1.0022111
1.0022355
1.0022518
1.0022594
1.002252
1.0022279
1.0021857
1.0021244
1.002047
1.0019516
1.0018358
1.0017035
1.0015585
1.0013978
1.0012204
1.0010308
1.0008301
1.0006199
1.0004041
1.0001848
0.99996645
0.99974742
0.99952872
0.99931503
0.99910953
0.99890893
0.99871841
0.9985393
0.9983638
0.99818762
0.99802401
0.99785801
0.99770009
0.99754339
0.99739129
0.99724222
1.0013044
1.0013625
1.0014237
1.0014843
1.0015449
1.0016037
1.0016637
1.0017172
1.0017724
1.0018267
1.0018753
1.001918
1.0019571
1.001987
1.0020051
1.0020161
1.0020194
1.0020097
1.0019855
1.0019458
1.0018897
1.0018201
1.0017354
1.0016333
1.0015167
1.0013885
1.0012467
1.0010905
1.000924
1.0007482
1.0005646
1.0003766
1.0001862
0.99999707
0.99980803
0.9996201
0.99943709
0.99926125
0.99909052
0.99892867
0.99877648
0.99862747
0.99848017
0.99834034
0.99819974
0.9980627
0.99792375
0.99778329
0.99764395
1.0012383
1.001288
1.0013398
1.0013895
1.0014383
1.0014847
1.0015318
1.0015735
1.0016165
1.0016588
1.0016964
1.0017293
1.0017591
1.0017815
1.001794
1.0018004
1.0018
1.0017883
1.001764
1.0017258
1.001673
1.0016075
1.0015279
1.0014324
1.0013232
1.0012032
1.0010709
1.0009255
1.0007705
1.0006072
1.0004369
1.0002624
1.0000853
0.99990896
0.9997329
0.99955797
0.99938678
0.99922136
0.99906014
0.9989056
0.99875802
0.99861348
0.99846963
0.9983312
0.99819155
0.99805414
0.99791475
0.99777456
0.99763335
1.0011907
1.001229
1.0012699
1.001309
1.0013476
1.0013843
1.0014217
1.0014546
1.0014887
1.001522
1.0015514
1.0015767
1.0015992
1.0016153
1.001623
1.0016252
1.0016211
1.001607
1.0015819
1.0015444
1.001494
1.0014322
1.0013578
1.0012695
1.001169
1.0010585
1.000937
1.000804
1.0006627
1.000514
1.0003593
1.0002011
1.0000409
0.99988169
0.99972302
0.99956574
0.99941206
0.99926363
0.99911927
0.99898102
0.99884916
0.99872023
0.9985928
0.99846981
0.99834641
0.99822466
0.9981011
0.99797626
0.99785028
1.0011282
1.0011602
1.0011944
1.0012266
1.0012582
1.0012878
1.001318
1.0013442
1.0013714
1.0013977
1.0014207
1.00144
1.0014568
1.0014679
1.0014718
1.0014706
1.0014636
1.0014478
1.0014219
1.001385
1.0013365
1.0012774
1.0012067
1.0011234
1.0010288
1.000925
1.0008109
1.0006864
1.0005542
1.0004153
1.0002708
1.000123
0.99997314
0.99982379
0.99967485
0.99952704
0.99938213
0.99924161
0.99910455
0.99897252
0.99884566
0.99872165
0.99859875
0.99847966
0.99836016
0.99824201
0.99812232
0.99800145
0.99787899
1.0010744
1.0010999
1.0011277
1.0011537
1.0011792
1.001203
1.0012274
1.0012482
1.0012698
1.0012905
1.0013083
1.0013226
1.0013347
1.0013416
1.0013422
1.001338
1.0013285
1.0013109
1.0012843
1.0012477
1.0012006
1.0011438
1.0010764
1.0009977
1.0009086
1.000811
1.000704
1.0005877
1.0004644
1.0003351
1.0002007
1.0000635
0.99992447
0.99978601
0.99964809
0.99951142
0.99937754
0.9992478
0.99912143
0.99899981
0.99888315
0.99876938
0.99865715
0.99854858
0.99844013
0.99833317
0.99822514
0.99811626
0.99800637
1.0010176
1.0010387
1.0010619
1.0010834
1.0011044
1.0011238
1.0011435
1.0011602
1.0011774
1.0011937
1.0012072
1.0012177
1.0012259
1.0012296
1.0012274
1.0012208
1.0012093
1.0011903
1.0011631
1.0011268
1.0010809
1.001026
1.0009614
1.0008864
1.0008018
1.0007092
1.000608
1.0004983
1.0003821
1.0002602
1.0001338
1.0000047
0.99987376
0.9997432
0.99961303
0.99948392
0.99935722
0.99923415
0.99911405
0.99899812
0.99888655
0.99877779
0.99867041
0.9985665
0.99846282
0.99836068
0.99825778
0.99815434
0.9980498
1.000966
1.000983
1.0010021
1.0010196
1.0010367
1.0010524
1.0010683
1.0010815
1.001095
1.0011076
1.0011176
1.0011249
1.0011299
1.0011307
1.0011262
1.0011176
1.0011043
1.0010841
1.0010564
1.0010204
1.0009755
1.0009223
1.00086
1.0007883
1.0007078
1.0006197
1.0005238
1.00042
1.0003102
1.0001954
1.0000763
0.9999547
0.99983155
0.99970874
0.99958636
0.99946509
0.99934616
0.99923069
0.99911813
0.99900958
0.99890528
0.99880387
0.99870408
0.99860784
0.99851218
0.99841832
0.99832415
0.99822987
0.99813506
1.0009152
1.0009293
1.0009451
1.0009595
1.0009735
1.0009862
1.0009991
1.0010094
1.00102
1.0010295
1.0010367
1.0010413
1.0010437
1.0010422
1.0010358
1.0010255
1.0010108
1.0009897
1.0009616
1.0009258
1.0008818
1.0008301
1.00077
1.0007011
1.0006241
1.00054
1.0004486
1.00035
1.0002458
1.0001369
1.0000241
0.99990895
0.99979232
0.99967593
0.99955991
0.99944492
0.99933204
0.99922233
0.99911531
0.99901197
0.99891254
0.99881595
0.99872094
0.99862942
0.99853862
0.99844974
0.99836085
0.99827218
0.99818312
1.0008682
1.0008796
1.0008926
1.0009043
1.0009157
1.0009258
1.000936
1.000944
1.000952
1.000959
1.0009638
1.0009661
1.0009662
1.0009628
1.0009548
1.0009431
1.0009271
1.0009053
1.0008769
1.0008413
1.0007982
1.0007479
1.0006897
1.0006234
1.0005496
1.0004691
1.0003818
1.0002878
1.0001887
1.0000852
0.99997815
0.99986893
0.99975834
0.999648
0.99953805
0.99942913
0.99932228
0.99921849
0.99911733
0.99901973
0.99892597
0.9988351
0.99874598
0.99866043
0.99857586
0.99849344
0.99841137
0.99832991
0.99824848
1.0008232
1.0008324
1.0008431
1.0008527
1.0008619
1.0008699
1.0008779
1.0008839
1.0008898
1.0008947
1.0008974
1.0008978
1.0008961
1.000891
1.0008817
1.0008688
1.0008519
1.0008294
1.0008008
1.0007656
1.0007233
1.0006742
1.0006178
1.0005539
1.0004829
1.0004056
1.000322
1.0002323
1.0001378
1.0000391
0.99993717
0.99983324
0.99972805
0.99962308
0.99951848
0.9994149
0.99931327
0.99921453
0.99911828
0.99902542
0.99893618
0.99884981
0.99876519
0.99868412
0.99860416
0.99852647
0.99844938
0.99837317
0.99829719
1.0007812
1.0007886
1.0007972
1.0008049
1.0008122
1.0008184
1.0008246
1.0008288
1.0008329
1.0008359
1.0008369
1.0008357
1.0008324
1.0008259
1.0008155
1.0008016
1.0007838
1.0007609
1.0007322
1.0006973
1.0006558
1.0006079
1.0005531
1.0004914
1.000423
1.0003487
1.0002685
1.0001827
1.0000923
0.99999815
0.99990094
0.9998019
0.99970171
0.99960176
0.9995022
0.99940367
0.99930707
0.99921326
0.99912191
0.99903384
0.99894934
0.99886773
0.99878799
0.99871183
0.99863697
0.99856455
0.998493
0.99842262
0.99835277
1.0007414
1.0007472
1.0007542
1.0007603
1.0007659
1.0007706
1.0007752
1.000778
1.0007805
1.000782
1.0007815
1.0007789
1.0007743
1.0007666
1.0007552
1.0007406
1.0007221
1.0006988
1.0006701
1.0006355
1.0005948
1.000548
1.0004948
1.0004351
1.0003691
1.0002976
1.0002206
1.0001382
1.0000518
0.99996171
0.99986885
0.9997743
0.99967873
0.99958339
0.99948847
0.99939458
0.99930256
0.99921323
0.99912628
0.9990425
0.99896215
0.99888466
0.99880907
0.99873704
0.99866641
0.99859831
0.99853125
0.99846559
0.99840062
1.0007041
1.0007085
1.0007141
1.0007187
1.000723
1.0007264
1.0007295
1.0007311
1.0007322
1.0007324
1.0007306
1.0007268
1.0007211
1.0007124
1.0007002
1.0006849
1.0006659
1.0006423
1.0006136
1.0005795
1.0005395
1.0004938
1.0004421
1.0003842
1.0003205
1.0002516
1.0001775
1.0000985
1.0000156
0.99992937
0.99984056
0.9997502
0.99965893
0.99956792
0.99947737
0.99938787
0.99930023
0.99921519
0.99913251
0.99905292
0.9989767
0.99890333
0.99883194
0.99876411
0.99869782
0.99863415
0.99857171
0.99851087
0.99845092
1.0006688
1.0006722
1.0006764
1.0006799
1.000683
1.0006852
1.0006872
1.0006876
1.0006876
1.0006866
1.0006837
1.0006789
1.0006722
1.0006627
1.0006498
1.0006339
1.0006145
1.0005908
1.0005622
1.0005284
1.0004892
1.0004446
1.0003943
1.0003382
1.0002767
1.0002102
1.0001388
1.0000629
0.99998333
0.99990068
0.99981565
0.99972922
0.99964198
0.99955503
0.99946858
0.99938319
0.99929964
0.99921862
0.99913991
0.99906421
0.99899177
0.99892216
0.99885456
0.99879047
0.998728
0.99866818
0.99860973
0.99855303
0.99849733
1.0006357
1.000638
1.0006412
1.0006436
1.0006457
1.0006469
1.0006478
1.0006472
1.0006463
1.0006442
1.0006404
1.0006347
1.0006271
1.0006169
1.0006035
1.0005872
1.0005675
1.0005436
1.0005152
1.0004819
1.0004434
1.0003998
1.0003508
1.0002964
1.0002369
1.0001727
1.000104
1.000031
0.99995457
0.99987529
0.99979382
0.99971108
0.99962764
0.99954453
0.99946196
0.99938048
0.99930082
0.99922364
0.99914874
0.99907678
0.99900802
0.99894207
0.99887817
0.99881775
0.99875904
0.99870302
0.99864849
0.99859583
0.9985443
1.0006043
1.0006058
1.0006081
1.0006096
1.0006107
1.0006111
1.0006111
1.0006097
1.0006078
1.0006049
1.0006003
1.0005938
1.0005855
1.0005747
1.0005609
1.0005442
1.0005242
1.0005003
1.0004721
1.0004393
1.0004015
1.000359
1.0003113
1.0002585
1.000201
1.0001389
1.0000726
1.0000024
0.99992896
0.99985286
0.99977476
0.99969551
0.99961566
0.99953619
0.99945729
0.99937951
0.99930353
0.99922999
0.99915869
0.99909027
0.99902496
0.99896241
0.99890195
0.99884489
0.99878959
0.99873699
0.99868596
0.99863689
0.99858901
1.0005748
1.0005755
1.000577
1.0005777
1.000578
1.0005776
1.0005768
1.0005747
1.0005721
1.0005683
1.000563
1.0005559
1.000547
1.0005357
1.0005215
1.0005045
1.0004844
1.0004606
1.0004326
1.0004002
1.0003632
1.0003217
1.0002753
1.0002241
1.0001683
1.0001084
1.0000444
0.99997679
0.9999062
0.99983312
0.99975821
0.99968226
0.99960583
0.9995298
0.9994544
0.99938015
0.99930769
0.99923761
0.99916976
0.99910472
0.99904272
0.99898346
0.9989263
0.99887248
0.99882047
0.99877116
0.99872349
0.99867785
0.99863345
1.0005468
1.0005469
1.0005477
1.0005477
1.0005473
1.0005462
1.0005447
1.000542
1.0005387
1.0005343
1.0005284
1.0005207
1.0005113
1.0004995
1.000485
1.0004678
1.0004477
1.0004239
1.0003962
1.0003644
1.0003281
1.0002875
1.0002424
1.0001927
1.0001387
1.0000808
1.0000191
0.99995392
0.99988601
0.9998158
0.99974392
0.99967112
0.99959793
0.99952519
0.99945312
0.99938222
0.99931311
0.99924634
0.99918176
0.99911993
0.99906107
0.99900489
0.99895083
0.99890003
0.99885106
0.99880477
0.99876015
0.99871761
0.99867634
1.0005204
1.0005199
1.00052
1.0005194
1.0005185
1.0005168
1.0005147
1.0005114
1.0005075
1.0005025
1.0004961
1.0004879
1.0004781
1.0004659
1.0004512
1.0004339
1.0004137
1.0003901
1.0003627
1.0003314
1.0002959
1.0002563
1.0002123
1.0001641
1.0001118
1.0000558
0.99999628
0.99993349
0.99986815
0.99980068
0.99973169
0.99966189
0.99959179
0.99952218
0.99945328
0.99938559
0.99931968
0.99925605
0.99919461
0.99913585
0.99907998
0.99902676
0.99897566
0.99892773
0.99888167
0.99883824
0.99879652
0.99875691
0.99871858
1.0004953
1.0004943
1.0004939
1.0004927
1.0004913
1.0004891
1.0004864
1.0004826
1.0004782
1.0004728
1.0004659
1.0004573
1.0004471
1.0004347
1.0004198
1.0004024
1.0003823
1.0003588
1.0003318
1.000301
1.0002663
1.0002276
1.0001849
1.0001381
1.0000874
1.0000333
0.9999758
0.99991529
0.9998524
0.99978755
0.99972131
0.99965438
0.99958723
0.99952061
0.99945474
0.9993901
0.99932724
0.99926663
0.99920816
0.99915232
0.99909931
0.99904888
0.99900056
0.99895533
0.99891197
0.9988712
0.99883216
0.99879521
0.99875956
1.0004714
1.0004701
1.0004691
1.0004675
1.0004656
1.0004629
1.0004598
1.0004556
1.0004508
1.0004449
1.0004376
1.0004287
1.0004182
1.0004056
1.0003906
1.0003732
1.0003531
1.0003299
1.0003033
1.000273
1.0002391
1.0002013
1.0001598
1.0001143
1.0000653
1.0000129
0.99995743
0.99989911
0.99983857
0.99977622
0.99971262
0.99964842
0.99958409
0.99952033
0.99945736
0.99939564
0.99933569
0.99927794
0.99922232
0.99916927
0.99911897
0.9990712
0.99902554
0.99898287
0.99894208
0.99890382
0.99886729
0.99883285
0.9987997
1.0004487
1.000447
1.0004456
1.0004436
1.0004413
1.0004382
1.0004347
1.0004302
1.0004249
1.0004187
1.0004111
1.0004019
1.0003912
1.0003784
1.0003634
1.000346
1.000326
1.000303
1.0002768
1.0002472
1.000214
1.0001772
1.0001368
1.0000927
1.0000452
0.99999458
0.99994098
0.99988477
0.99982649
0.99976654
0.99970546
0.99964388
0.99958224
0.99952121
0.99946101
0.99940208
0.9993449
0.99928989
0.99923698
0.99918659
0.99913886
0.99909362
0.99905046
0.9990102
0.99897181
0.99893589
0.99890168
0.99886955
0.9988387
1.000427
1.000425
1.0004233
1.000421
1.0004183
1.0004149
1.000411
1.0004061
1.0004006
1.000394
1.0003862
1.0003768
1.0003659
1.000353
1.0003379
1.0003206
1.0003008
1.0002781
1.0002524
1.0002233
1.0001909
1.000155
1.0001157
1.000073
1.000027
0.99997804
0.99992629
0.99987211
0.99981599
0.99975835
0.99969969
0.99964061
0.99958155
0.99952312
0.99946556
0.99940929
0.99935477
0.99930237
0.99925204
0.99920417
0.9991589
0.99911605
0.99907527
0.9990373
0.99900118
0.99896746
0.99893544
0.99890547
0.99887676
1.0004063
1.000404
1.000402
1.0003994
1.0003964
1.0003927
1.0003886
1.0003834
1.0003776
1.0003708
1.0003627
1.0003532
1.0003421
1.0003292
1.0003142
1.0002969
1.0002773
1.000255
1.0002297
1.0002012
1.0001696
1.0001347
1.0000965
1.000055
1.0000105
0.99996317
0.99991321
0.99986098
0.99980695
0.99975151
0.99969518
0.99963849
0.99958189
0.99952596
0.99947093
0.99941719
0.99936519
0.99931527
0.99926741
0.99922193
0.99917899
0.99913841
0.99909988
0.99906405
0.99903006
0.9989984
0.99896842
0.99894044
0.9989137
1.0003865
1.000384
1.0003817
1.0003788
1.0003756
1.0003717
1.0003672
1.0003619
1.0003559
1.0003488
1.0003406
1.0003309
1.0003198
1.0003069
1.0002919
1.0002748
1.0002555
1.0002335
1.0002086
1.0001808
1.0001499
1.000116
1.0000789
1.0000387
0.99999558
0.99994983
0.9999016
0.99985125
0.99979923
0.99974592
0.9996918
0.99963741
0.99958317
0.99952962
0.99947699
0.99942567
0.99937607
0.99932852
0.99928299
0.99923979
0.99919906
0.99916064
0.99912423
0.99909043
0.99905844
0.99902872
0.99900064
0.99897454
0.99894963
1.0003674
1.0003647
1.0003622
1.0003591
1.0003557
1.0003516
1.000347
1.0003415
1.0003353
1.0003281
1.0003197
1.00031
1.0002988
1.0002859
1.000271
1.0002542
1.0002351
1.0002134
1.0001891
1.0001619
1.0001318
1.0000988
1.0000628
1.0000238
0.99998211
0.99993789
0.99989135
0.99984282
0.99979273
0.99974145
0.99968947
0.99963727
0.99958528
0.999534
0.99948367
0.99943465
0.99938734
0.99934203
0.99929871
0.99925768
0.99921903
0.99918264
0.99914823
0.99911634
0.99908624
0.99905832
0.99903202
0.99900764
0.99898442
1.0003491
1.0003462
1.0003436
1.0003403
1.0003367
1.0003324
1.0003277
1.000322
1.0003157
1.0003084
1.0003
1.0002902
1.000279
1.0002662
1.0002515
1.0002348
1.000216
1.0001948
1.000171
1.0001445
1.0001151
1.000083
1.0000481
1.0000103
0.99996998
0.99992726
0.99988234
0.99983556
0.99978734
0.99973802
0.99968808
0.99963799
0.99958813
0.99953902
0.99949087
0.99944404
0.9993989
0.99935572
0.9993145
0.9992755
0.99923883
0.99920436
0.99917184
0.99914175
0.99911341
0.99908719
0.99906256
0.99903979
0.99901815
1.0003314
1.0003285
1.0003256
1.0003223
1.0003185
1.0003141
1.0003093
1.0003035
1.0002971
1.0002897
1.0002812
1.0002715
1.0002604
1.0002477
1.0002331
1.0002167
1.0001982
1.0001774
1.0001541
1.0001283
1.0000998
1.0000685
1.0000346
0.9999981
0.99995909
0.99991782
0.99987449
0.9998294
0.99978297
0.99973554
0.99968755
0.99963947
0.99959166
0.99954461
0.99949854
0.99945378
0.99941068
0.99936952
0.99933028
0.99929321
0.9992584
0.99922574
0.99919499
0.99916658
0.9991399
0.99911526
0.99909216
0.99907089
0.9990507
1.0003143
1.0003113
1.0003084
1.0003049
1.0003011
1.0002966
1.0002916
1.0002858
1.0002794
1.000272
1.0002635
1.0002538
1.0002428
1.0002302
1.0002158
1.0001997
1.0001816
1.0001612
1.0001385
1.0001133
1.0000856
1.0000553
1.0000224
0.99998706
0.99994934
0.99990949
0.99986769
0.99982425
0.99977955
0.99973393
0.99968781
0.99964165
0.99959579
0.9995507
0.99950659
0.99946379
0.99942263
0.99938336
0.99934599
0.99931073
0.99927768
0.99924671
0.99921763
0.9991908
0.99916566
0.9991425
0.99912085
0.99910097
0.99908214
1.0002978
1.0002947
1.0002917
1.0002882
1.0002843
1.0002798
1.0002748
1.000269
1.0002625
1.0002551
1.0002467
1.000237
1.0002261
1.0002137
1.0001996
1.0001838
1.000166
1.0001461
1.000124
1.0000995
1.0000725
1.0000431
1.0000113
0.9999771
0.99994066
0.9999022
0.99986188
0.99982003
0.999777
0.99973312
0.9996888
0.99964446
0.99960046
0.99955722
0.99951497
0.99947402
0.99943469
0.9993972
0.99936158
0.99932802
0.99929661
0.99926723
0.9992397
0.99921435
0.99919065
0.99916886
0.99914854
0.99912994
0.99911235
1.0002817
1.0002787
1.0002756
1.0002721
1.0002682
1.0002636
1.0002586
1.0002528
1.0002463
1.000239
1.0002306
1.0002211
1.0002103
1.0001981
1.0001843
1.0001688
1.0001514
1.000132
1.0001105
1.0000866
1.0000605
1.000032
1.0000012
0.99996816
0.99993297
0.99989586
0.99985699
0.99981668
0.99977525
0.99973304
0.99969044
0.99964785
0.99960561
0.99956413
0.99952363
0.99948442
0.9994468
0.99941099
0.999377
0.99934503
0.99931515
0.99928726
0.99926118
0.99923719
0.99921484
0.99919433
0.99917526
0.99915785
0.99914142
1.0002662
1.0002631
1.0002601
1.0002565
1.0002526
1.0002481
1.0002431
1.0002374
1.0002309
1.0002237
1.0002154
1.000206
1.0001954
1.0001834
1.0001699
1.0001547
1.0001378
1.0001189
1.0000979
1.0000748
1.0000495
1.0000219
0.99999211
0.99996017
0.99992621
0.99989042
0.99985296
0.99981413
0.99977426
0.99973366
0.99969271
0.99965178
0.9996112
0.99957138
0.99953253
0.99949495
0.99945893
0.99942467
0.99939222
0.99936173
0.99933327
0.99930675
0.99928201
0.9992593
0.99923818
0.99921884
0.9992009
0.99918457
0.99916919
1.0002511
1.0002481
1.0002451
1.0002415
1.0002376
1.0002332
1.0002282
1.0002225
1.0002162
1.000209
1.0002009
1.0001916
1.0001813
1.0001695
1.0001563
1.0001415
1.000125
1.0001067
1.0000863
1.0000639
1.0000393
1.0000127
0.9999839
0.99995307
0.99992031
0.99988581
0.99984973
0.99981235
0.99977398
0.99973493
0.99969554
0.99965619
0.9996172
0.99957894
0.99954163
0.99950558
0.99947104
0.99943824
0.9994072
0.99937808
0.99935093
0.99932569
0.99930219
0.99928066
0.99926069
0.99924244
0.99922557
0.99921026
0.99919587
1.0002365
1.0002335
1.0002305
1.000227
1.0002232
1.0002188
1.0002139
1.0002083
1.000202
1.000195
1.000187
1.000178
1.0001678
1.0001564
1.0001435
1.0001291
1.0001131
1.0000952
1.0000755
1.0000538
1.0000301
1.0000043
0.99997653
0.9999468
0.99991523
0.99988199
0.99984725
0.99981127
0.99977436
0.99973679
0.99969891
0.99966106
0.99962356
0.99958677
0.99955091
0.99951628
0.99948313
0.99945166
0.99942193
0.99939407
0.99936813
0.99934405
0.99932168
0.99930121
0.99928227
0.999265
0.99924907
0.99923463
0.9992211
1.0002223
1.0002194
1.0002164
1.000213
1.0002092
1.0002049
1.0002001
1.0001946
1.0001885
1.0001816
1.0001738
1.000165
1.0001551
1.000144
1.0001314
1.0001174
1.0001019
1.0000846
1.0000655
1.0000445
1.0000216
0.99999673
0.99996995
0.99994131
0.99991091
0.99987892
0.99984549
0.99981088
0.99977537
0.99973924
0.99970279
0.99966637
0.99963028
0.99959486
0.99956036
0.99952704
0.99949517
0.99946494
0.9994364
0.99940969
0.99938485
0.99936183
0.99934049
0.999321
0.99930302
0.99928666
0.99927162
0.99925805
0.99924537
1.0002085
1.0002057
1.0002028
1.0001995
1.0001958
1.0001916
1.0001869
1.0001815
1.0001756
1.0001688
1.0001612
1.0001527
1.000143
1.0001322
1.00012
1.0001065
1.0000914
1.0000747
1.0000562
1.000036
1.0000139
0.99998991
0.99996412
0.99993655
0.99990731
0.99987654
0.9998444
0.99981112
0.99977698
0.99974223
0.99970716
0.9996721
0.99963733
0.99960321
0.99956997
0.99953788
0.99950719
0.99947808
0.99945062
0.99942494
0.99940108
0.99937899
0.99935855
0.99933989
0.99932272
0.99930712
0.9992928
0.99927989
0.99926785
1.0001952
1.0001924
1.0001896
1.0001864
1.0001828
1.0001787
1.0001742
1.000169
1.0001631
1.0001566
1.0001492
1.0001409
1.0001315
1.000121
1.0001093
1.0000962
1.0000816
1.0000655
1.0000477
1.0000281
1.0000068
0.9999838
0.99995899
0.9999325
0.99990439
0.99987483
0.99984395
0.99981198
0.99977917
0.99974575
0.99971201
0.99967823
0.99964473
0.99961183
0.99957977
0.9995488
0.99951918
0.99949109
0.99946459
0.99943981
0.9994168
0.99939553
0.99937589
0.99935799
0.99934157
0.99932671
0.99931313
0.99930094
0.99928964
1.0001823
1.0001797
1.000177
1.0001738
1.0001703
1.0001664
1.000162
1.0001569
1.0001513
1.0001449
1.0001378
1.0001297
1.0001207
1.0001105
1.0000991
1.0000865
1.0000725
1.0000569
1.0000398
1.000021
1.0000005
0.99997835
0.99995453
0.99992909
0.99990213
0.99987376
0.99984412
0.99981343
0.99978192
0.9997498
0.99971732
0.99968478
0.99965247
0.99962073
0.99958977
0.99955985
0.99953119
0.99950399
0.99947831
0.99945429
0.99943198
0.99941136
0.99939234
0.99937501
0.99935914
0.99934476
0.99933162
0.99931982
0.99930887
1.0001699
1.0001673
1.0001647
1.0001617
1.0001584
1.0001545
1.0001503
1.0001454
1.0001399
1.0001338
1.0001269
1.0001191
1.0001103
1.0001005
1.0000896
1.0000774
1.0000639
1.0000489
1.0000325
1.0000144
0.99999477
0.99997353
0.99995069
0.99992632
0.99990047
0.99987329
0.99984487
0.99981545
0.99978521
0.99975434
0.99972309
0.99969175
0.9996606
0.99962995
0.99960002
0.99957104
0.99954324
0.99951679
0.99949178
0.99946837
0.99944661
0.99942651
0.999408
0.99939119
0.99937585
0.99936203
0.9993495
0.99933834
0.99932809
1.0001579
1.0001555
1.000153
1.0001501
1.0001469
1.0001432
1.0001391
1.0001344
1.0001291
1.0001232
1.0001165
1.000109
1.0001005
1.0000911
1.0000806
1.0000689
1.0000559
1.0000415
1.0000258
1.0000085
0.99998964
0.9999693
0.99994745
0.99992413
0.99989941
0.99987339
0.9998462
0.99981802
0.99978904
0.9997594
0.99972935
0.99969916
0.99966914
0.99963954
0.99961057
0.99958244
0.99955535
0.99952951
0.999505
0.99948201
0.99946061
0.99944082
0.99942259
0.999406
0.99939084
0.99937715
0.99936468
0.99935353
0.99934321
1.0001463
1.000144
1.0001417
1.0001389
1.0001358
1.0001323
1.0001283
1.0001238
1.0001188
1.000113
1.0001066
1.0000994
1.0000913
1.0000822
1.0000721
1.0000609
1.0000484
1.0000347
1.0000196
1.0000031
0.99998507
0.99996564
0.99994476
0.9999225
0.99989889
0.99987405
0.99984807
0.99982113
0.99979339
0.99976496
0.99973609
0.99970706
0.99967814
0.99964955
0.99962147
0.99959407
0.99956757
0.99954216
0.99951799
0.99949524
0.99947403
0.99945441
0.99943638
0.99942003
0.9994052
0.99939193
0.99938002
0.99936953
0.99936002
1.0001351
1.000133
1.0001307
1.0001281
1.0001252
1.0001218
1.000118
1.0001137
1.0001089
1.0001034
1.0000972
1.0000903
1.0000825
1.0000738
1.0000641
1.0000533
1.0000415
1.0000283
1.0000139
0.99999817
0.99998102
0.9999625
0.99994261
0.9999214
0.99989891
0.99987524
0.99985047
0.99982477
0.99979826
0.99977103
0.99974335
0.99971548
0.99968765
0.99966005
0.99963277
0.99960599
0.99957992
0.99955479
0.99953077
0.99950806
0.99948681
0.9994671
0.99944891
0.99943233
0.9994172
0.99940353
0.9993911
0.99937998
0.9993697
1.0001243
1.0001223
1.0001202
1.0001177
1.0001149
1.0001117
1.0001081
1.000104
1.0000994
1.0000942
1.0000883
1.0000817
1.0000742
1.0000659
1.0000566
1.0000463
1.000035
1.0000225
1.0000088
0.99999378
0.99997747
0.99995986
0.99994096
0.99992082
0.99989945
0.99987696
0.9998534
0.99982894
0.99980366
0.99977764
0.99975116
0.99972447
0.99969775
0.99967107
0.99964451
0.99961825
0.99959249
0.9995675
0.99954346
0.99952063
0.99949919
0.99947927
0.99946093
0.9994443
0.99942932
0.99941603
0.99940427
0.99939405
0.99938504
1.0001138
1.0001119
1.0001099
1.0001076
1.000105
1.000102
1.0000986
1.0000947
1.0000903
1.0000854
1.0000798
1.0000735
1.0000664
1.0000585
1.0000496
1.0000398
1.000029
1.0000171
1.0000041
0.99998985
0.99997439
0.9999577
0.99993978
0.99992071
0.99990046
0.99987915
0.99985681
0.99983363
0.99980959
0.9997848
0.99975958
0.99973413
0.9997085
0.99968271
0.99965681
0.99963096
0.99960541
0.99958042
0.99955622
0.99953306
0.99951116
0.99949063
0.99947155
0.99945402
0.99943794
0.99942331
0.99940995
0.99939792
0.99938677
1.0001036
1.0001019
1.0001
1.0000978
1.0000953
1.0000925
1.0000893
1.0000856
1.0000815
1.0000769
1.0000716
1.0000657
1.000059
1.0000515
1.000043
1.0000337
1.0000234
1.0000121
0.99999979
0.99998634
0.99997172
0.99995593
0.999939
0.99992098
0.99990185
0.99988172
0.99986062
0.99983871
0.99981594
0.99979243
0.99976856
0.99974441
0.99971991
0.99969501
0.99966974
0.99964429
0.99961892
0.99959389
0.99956941
0.99954578
0.99952325
0.99950204
0.99948237
0.99946446
0.99944839
0.99943427
0.99942205
0.99941167
0.99940295
1.0000937
1.0000921
1.0000903
1.0000882
1.0000859
1.0000832
1.0000802
1.0000768
1.0000729
1.0000686
1.0000637
1.0000582
1.0000519
1.0000448
1.0000369
1.000028
1.0000183
1.0000076
0.9999959
0.99998322
0.99996946
0.9999546
0.99993868
0.99992174
0.99990376
0.99988482
0.99986494
0.99984429
0.99982275
0.99980054
0.99977807
0.99975524
0.99973185
0.99970782
0.99968323
0.99965827
0.99963317
0.99960811
0.99958331
0.99955902
0.99953548
0.99951293
0.99949155
0.99947152
0.99945285
0.99943559
0.99941962
0.99940505
0.99939143
1.0000843
1.0000827
1.000081
1.000079
1.0000768
1.0000742
1.0000714
1.0000682
1.0000646
1.0000606
1.000056
1.0000509
1.0000451
1.0000385
1.0000311
1.0000228
1.0000136
1.0000035
0.99999248
0.99998059
0.99996772
0.99995384
0.99993897
0.99992318
0.9999064
0.99988872
0.99987013
0.99985081
0.99983057
0.99980974
0.99978874
0.99976721
0.99974486
0.99972165
0.99969775
0.99967329
0.99964845
0.99962335
0.99959817
0.99957314
0.9995486
0.99952488
0.99950239
0.99948159
0.99946284
0.99944647
0.99943269
0.99942142
0.99941275
1.0000752
1.0000737
1.000072
1.0000701
1.000068
1.0000656
1.0000629
1.0000598
1.0000565
1.0000527
1.0000485
1.0000438
1.0000385
1.0000325
1.0000257
1.000018
1.0000094
0.99999982
0.99998944
0.99997829
0.99996625
0.99995326
0.99993935
0.99992456
0.99990889
0.99989247
0.99987526
0.99985743
0.99983873
0.99981966
0.99980042
0.99978042
0.99975937
0.99973731
0.99971443
0.99969076
0.99966635
0.99964121
0.99961543
0.99958918
0.99956276
0.99953646
0.99951059
0.99948549
0.99946132
0.99943825
0.99941626
0.99939572
0.99937607
1.0000668
1.0000653
1.0000636
1.0000617
1.0000595
1.0000571
1.0000545
1.0000517
1.0000485
1.000045
1.0000412
1.0000369
1.0000321
1.0000267
1.0000205
1.0000134
1.0000053
0.99999616
0.99998624
0.99997567
0.9999643
0.99995202
0.99993886
0.99992488
0.9999101
0.99989468
0.99987855
0.99986193
0.99984454
0.99982704
0.99980966
0.99979119
0.99977178
0.99975147
0.99973041
0.99970839
0.99968535
0.99966111
0.99963569
0.99960912
0.99958168
0.99955375
0.99952596
0.99949922
0.99947457
0.99945299
0.99943538
0.99942191
0.99941308
1.0000584
1.0000568
1.000055
1.0000531
1.0000511
1.0000489
1.0000466
1.000044
1.0000411
1.000038
1.0000344
1.0000305
1.000026
1.000021
1.0000154
1.0000089
1.0000014
0.99999293
0.99998367
0.99997391
0.99996355
0.9999524
0.99994055
0.99992804
0.99991473
0.99990051
0.99988537
0.99986974
0.99985307
0.99983605
0.99982003
0.99980214
0.99978365
0.99976421
0.99974431
0.99972327
0.99970123
0.99967761
0.99965254
0.99962567
0.99959726
0.99956721
0.99953568
0.99950261
0.99946826
0.99943254
0.99939614
0.9993591
0.99932336
1.0000512
1.0000496
1.0000479
1.000046
1.0000439
1.0000417
1.0000393
1.0000367
1.0000338
1.0000308
1.0000274
1.0000238
1.0000199
1.0000156
1.0000109
1.0000056
0.99999953
0.99999235
0.9999841
0.9999756
0.99996698
0.99995783
0.9999482
0.9999381
0.9999273
0.99991564
0.9999031
0.99989024
0.99987613
0.99986276
0.99984832
0.99983248
0.99981554
0.9997975
0.99977863
0.99975819
0.99973644
0.99971239
0.99968634
0.99965718
0.99962557
0.99959089
0.99955453
0.99951759
0.99948206
0.99944994
0.99942572
0.99940767
0.99940429
1.0000432
1.0000405
1.0000379
1.0000354
1.0000331
1.0000309
1.0000288
1.0000267
1.0000245
1.0000221
1.0000196
1.0000168
1.0000138
1.0000105
1.0000066
1.0000021
0.99999667
0.99998957
0.99998096
0.99997228
0.99996362
0.99995424
0.9999441
0.99993329
0.99992212
0.99991106
0.99989996
0.99988915
0.99987798
0.99987324
0.99985834
0.99984865
0.99983584
0.99982487
0.99981131
0.99979773
0.99978162
0.99976439
0.99974418
0.99972156
0.99969484
0.99966377
0.99962379
0.99957696
0.99951822
0.99944796
0.99936469
0.99926695
0.99916976
1.0000355
1.0000339
1.0000322
1.0000314
1.0000306
1.0000298
1.0000287
1.0000273
1.0000255
1.0000232
1.0000204
1.0000168
1.0000123
1.0000069
1.0000006
0.99999327