/*--------------------------------*- C++ -*----------------------------------*\
| =========                 |                                                 |
| \\      /  F ield         | OpenFOAM: The Open Source CFD Toolbox           |
|  \\    /   O peration     | Version:  v2006                                 |
|   \\  /    A nd           | Website:  www.openfoam.com                      |
|    \\/     M anipulation  |                                                 |
\*---------------------------------------------------------------------------*/
FoamFile
{
    version     2.0;
    format      ascii;
    class       volScalarField;
    location    "2000";
    object      T;
}
// * * * * * * * * * * * * * * * * * * * * * * * * * * * * * * * * * * * * * //

dimensions      [0 0 0 1 0 0 0];


internalField   nonuniform List<scalar> 
19765
(
1.0003109
1.0003809
1.0005165
1.0006639
1.0007887
1.0008996
1.0010059
1.0010962
1.001174
1.0012453
1.0013042
1.0013464
1.0013751
1.0013939
1.0014024
1.0014006
1.0013874
1.0013662
1.0013349
1.0012939
1.0012459
1.0011898
1.0011239
1.0010451
1.0009565
1.0008686
1.0007803
1.000678
1.0005678
1.0004588
1.0003396
1.0002043
1.0000415
0.99986872
0.99972917
0.99960678
0.99944516
0.99927009
0.99911998
0.99892869
0.99869457
0.99854656
0.99845105
0.99836712
0.99838479
0.9984271
0.99853483
0.9986906
0.99884061
1.0005716
1.0006293
1.0006949
1.0007683
1.0008439
1.0009163
1.0009852
1.0010477
1.0011047
1.0011575
1.0012045
1.0012436
1.0012749
1.0012982
1.001312
1.0013175
1.0013155
1.0013044
1.0012832
1.0012517
1.0012106
1.0011602
1.0011005
1.0010316
1.0009544
1.0008697
1.0007772
1.0006769
1.000569
1.0004542
1.0003333
1.0002073
1.0000794
0.99995147
0.99982201
0.99969052
0.99956046
0.99943424
0.99931221
0.99919914
0.99910577
0.99902068
0.99894046
0.9988713
0.99880883
0.99875857
0.99871883
0.99868492
0.99865272
1.0005234
1.0005749
1.0006345
1.0006984
1.0007613
1.0008223
1.0008802
1.0009344
1.0009842
1.0010323
1.0010756
1.0011124
1.0011433
1.0011674
1.0011828
1.0011911
1.0011933
1.0011874
1.0011723
1.0011479
1.0011145
1.0010729
1.0010217
1.0009612
1.0008935
1.0008191
1.0007362
1.000645
1.0005468
1.0004416
1.0003303
1.0002144
1.0000961
0.99997643
0.99985428
0.99973116
0.99961001
0.99949071
0.99937445
0.99926553
0.99916301
0.99906406
0.99897413
0.99889637
0.99882545
0.99876363
0.99871179
0.9986692
0.99863219
1.0005498
1.0005881
1.0006274
1.0006683
1.0007095
1.0007501
1.0007897
1.0008271
1.000863
1.0008977
1.0009295
1.0009574
1.0009815
1.0010007
1.0010136
1.001021
1.0010238
1.0010201
1.0010086
1.0009892
1.0009619
1.0009274
1.000885
1.0008347
1.0007778
1.0007147
1.0006442
1.000567
1.000484
1.0003956
1.0003029
1.0002071
1.0001103
1.000013
0.99991425
0.99981515
0.99971873
0.99962489
0.99953357
0.99944819
0.99936849
0.9992897
0.99921373
0.99914184
0.99907263
0.99900712
0.99894157
0.99887661
0.99881124
1.0005356
1.0005677
1.0006001
1.0006328
1.0006649
1.0006963
1.0007267
1.0007556
1.0007832
1.00081
1.0008348
1.0008566
1.0008756
1.0008909
1.0009012
1.0009071
1.0009092
1.0009058
1.0008958
1.0008787
1.0008546
1.0008238
1.0007861
1.0007411
1.0006898
1.0006328
1.0005694
1.0005002
1.0004259
1.0003471
1.0002648
1.0001802
1.0000947
1.0000091
0.99992295
0.99983724
0.99975403
0.99967315
0.99959475
0.99952083
0.99945076
0.99938117
0.99931408
0.99924874
0.99918482
0.99912226
0.99906058
0.99900121
0.99894499
1.0005222
1.0005463
1.0005707
1.0005952
1.0006194
1.000643
1.0006661
1.0006882
1.0007095
1.0007304
1.0007496
1.0007665
1.0007813
1.0007929
1.0008005
1.0008044
1.000805
1.0008009
1.000791
1.000775
1.0007526
1.0007242
1.0006897
1.0006485
1.0006016
1.0005496
1.0004919
1.0004291
1.0003619
1.0002909
1.0002169
1.0001409
1.0000643
0.99998776
0.9999111
0.99983504
0.99976111
0.99968943
0.99961998
0.99955409
0.99949141
0.99942996
0.99937007
0.99931206
0.99925465
0.99919819
0.9991414
0.99908445
0.99902795
1.000499
1.000519
1.0005391
1.000559
1.0005783
1.0005971
1.0006153
1.0006327
1.0006494
1.0006658
1.0006808
1.000694
1.0007053
1.000714
1.0007193
1.0007214
1.0007206
1.0007157
1.0007057
1.0006903
1.0006693
1.0006429
1.0006111
1.0005733
1.0005302
1.0004825
1.0004297
1.0003723
1.0003109
1.0002462
1.0001788
1.0001097
1.00004
0.99997027
0.99990051
0.99983136
0.99976402
0.99969852
0.9996349
0.99957417
0.99951597
0.9994585
0.99940244
0.9993473
0.99929261
0.99923808
0.99918304
0.99912754
0.99907199
1.0004768
1.0004926
1.0005085
1.0005243
1.0005396
1.0005545
1.0005689
1.0005827
1.0005958
1.0006087
1.0006205
1.0006306
1.0006391
1.0006454
1.0006488
1.0006494
1.0006473
1.0006416
1.0006314
1.0006163
1.0005962
1.0005713
1.0005413
1.000506
1.0004659
1.0004214
1.0003725
1.0003193
1.0002627
1.000203
1.000141
1.0000775
1.0000135
0.99994949
0.99988559
0.9998223
0.99976062
0.99970064
0.99964239
0.99958663
0.99953314
0.99948064
0.99942931
0.99937909
0.99932921
0.99927968
0.9992297
0.99917924
0.99912836
1.000453
1.000466
1.0004791
1.000492
1.0005045
1.0005164
1.000528
1.000539
1.0005495
1.0005597
1.0005688
1.0005765
1.0005828
1.0005871
1.0005889
1.0005881
1.000585
1.0005785
1.000568
1.0005532
1.0005338
1.00051
1.0004817
1.0004485
1.0004109
1.0003694
1.0003237
1.0002743
1.0002216
1.0001663
1.0001089
1.00005
0.99999062
0.99993124
0.99987194
0.99981319
0.99975582
0.99969991
0.99964551
0.99959326
0.99954297
0.99949348
0.99944513
0.99939759
0.99935042
0.9993034
0.99925595
0.99920796
0.99915961
1.0004302
1.0004407
1.0004513
1.0004619
1.000472
1.0004816
1.000491
1.0004997
1.000508
1.0005161
1.0005232
1.0005289
1.0005334
1.0005361
1.0005365
1.0005346
1.0005305
1.0005234
1.0005127
1.000498
1.0004792
1.0004563
1.0004293
1.0003978
1.0003623
1.0003232
1.0002802
1.0002339
1.0001846
1.0001328
1.0000792
1.0000243
0.99996882
0.99991339
0.99985808
0.99980331
0.99974979
0.99969764
0.99964691
0.99959812
0.99955118
0.99950516
0.99946023
0.99941624
0.99937267
0.99932945
0.99928596
0.99924212
0.99919796
1.0004078
1.0004165
1.0004253
1.0004339
1.0004422
1.0004501
1.0004576
1.0004646
1.0004712
1.0004775
1.0004829
1.0004871
1.00049
1.0004914
1.0004907
1.0004879
1.000483
1.0004753
1.0004643
1.0004498
1.0004314
1.0004094
1.0003835
1.0003535
1.0003198
1.0002827
1.0002422
1.0001985
1.0001522
1.0001035
1.0000532
1.0000016
0.99994959
0.99989753
0.99984558
0.99979411
0.99974378
0.99969467
0.99964685
0.99960078
0.9995564
0.99951287
0.99947042
0.99942883
0.99938774
0.99934697
0.99930606
0.99926488
0.99922349
1.0003867
1.0003938
1.0004009
1.0004081
1.0004148
1.0004212
1.0004272
1.0004328
1.000438
1.0004428
1.0004468
1.0004497
1.0004515
1.0004518
1.0004501
1.0004465
1.0004409
1.0004328
1.0004216
1.0004072
1.0003892
1.0003679
1.0003429
1.0003143
1.0002821
1.0002469
1.0002084
1.000167
1.0001232
1.0000773
1.0000298
0.99998118
0.99993211
0.99988302
0.99983405
0.99978554
0.99973809
0.99969181
0.99964675
0.99960334
0.99956155
0.99952067
0.99948087
0.99944203
0.99940376
0.99936596
0.99932818
0.99929031
0.99925237
1.0003665
1.0003723
1.0003782
1.0003841
1.0003895
1.0003947
1.0003996
1.000404
1.000408
1.0004116
1.0004145
1.0004163
1.000417
1.0004164
1.0004139
1.0004097
1.0004036
1.0003951
1.0003838
1.0003694
1.0003518
1.000331
1.000307
1.0002795
1.0002487
1.0002151
1.0001784
1.0001391
1.0000976
1.000054
1.0000091
0.99996309
0.99991666
0.9998702
0.99982386
0.99977796
0.99973303
0.9996892
0.99964651
0.99960536
0.99956574
0.99952701
0.99948937
0.99945266
0.9994166
0.99938106
0.99934566
0.99931027
0.99927496
1.0003475
1.0003522
1.0003571
1.0003618
1.0003663
1.0003704
1.0003743
1.0003777
1.0003807
1.0003834
1.0003853
1.0003862
1.000386
1.0003846
1.0003815
1.0003767
1.0003701
1.0003613
1.0003499
1.0003357
1.0003184
1.0002982
1.0002749
1.0002484
1.0002189
1.0001867
1.0001517
1.0001143
1.0000747
1.0000333
0.99999062
0.99994698
0.99990292
0.99985884
0.99981488
0.99977135
0.99972876
0.99968721
0.99964677
0.9996078
0.9995703
0.99953375
0.99949829
0.99946382
0.99943007
0.99939695
0.9993641
0.99933142
0.99929894
1.0003295
1.0003334
1.0003373
1.0003412
1.0003448
1.000348
1.0003511
1.0003536
1.0003558
1.0003576
1.0003587
1.0003589
1.000358
1.0003559
1.0003523
1.000347
1.0003401
1.000331
1.0003195
1.0003054
1.0002885
1.0002688
1.0002462
1.0002206
1.0001923
1.0001614
1.0001279
1.0000921
1.0000543
1.0000149
0.99997427
0.99993276
0.99989086
0.99984893
0.99980714
0.99976578
0.9997253
0.99968582
0.99964741
0.9996104
0.9995748
0.99954014
0.99950658
0.99947403
0.99944224
0.99941113
0.99938041
0.99934994
0.99931982
1.0003126
1.0003157
1.0003189
1.000322
1.0003248
1.0003274
1.0003297
1.0003316
1.000333
1.0003341
1.0003345
1.000334
1.0003326
1.0003299
1.0003258
1.0003202
1.0003129
1.0003037
1.0002921
1.0002781
1.0002615
1.0002423
1.0002204
1.0001957
1.0001684
1.0001386
1.0001065
1.0000723
1.0000362
0.99999856
0.99995978
0.99992021
0.99988028
0.99984035
0.99980057
0.99976121
0.99972271
0.99968517
0.99964868
0.99961354
0.99957978
0.99954698
0.99951529
0.99948464
0.99945481
0.99942573
0.99939714
0.99936892
0.99934114
1.0002967
1.0002992
1.0003017
1.0003042
1.0003064
1.0003083
1.00031
1.0003112
1.0003121
1.0003126
1.0003124
1.0003113
1.0003093
1.0003062
1.0003017
1.0002958
1.0002883
1.0002789
1.0002673
1.0002535
1.0002372
1.0002184
1.0001971
1.0001732
1.0001469
1.0001182
1.0000874
1.0000545
1.00002
0.99998402
0.99994696
0.99990919
0.9998711
0.99983302
0.99979509
0.9997576
0.99972093
0.99968521
0.9996505
0.99961709
0.99958502
0.99955392
0.99952393
0.99949499
0.9994669
0.9994396
0.99941287
0.99938659
0.99936085
1.0002817
1.0002837
1.0002856
1.0002876
1.0002892
1.0002906
1.0002917
1.0002924
1.0002928
1.0002928
1.000292
1.0002905
1.0002881
1.0002846
1.0002797
1.0002735
1.0002658
1.0002563
1.0002448
1.0002311
1.0002151
1.0001968
1.000176
1.0001529
1.0001275
1.0000999
1.0000702
1.0000387
1.0000055
0.9999711
0.99993565
0.99989955
0.99986317
0.99982681
0.99979063
0.99975489
0.99971995
0.99968594
0.99965292
0.99962117
0.99959073
0.99956126
0.99953291
0.99950563
0.99947923
0.99945368
0.99942876
0.99940435
0.99938058
1.0002676
1.0002691
1.0002706
1.000272
1.0002732
1.0002741
1.0002748
1.0002751
1.000275
1.0002745
1.0002733
1.0002714
1.0002686
1.0002647
1.0002596
1.0002532
1.0002453
1.0002358
1.0002243
1.0002107
1.000195
1.0001771
1.000157
1.0001345
1.0001099
1.0000833
1.0000548
1.0000244
0.99999266
0.99995964
0.9999257
0.99989117
0.99985639
0.99982166
0.99978711
0.99975302
0.99971971
0.99968731
0.99965589
0.9996257
0.99959678
0.99956884
0.99954201
0.99951625
0.9994914
0.99946742
0.99944413
0.9994214
0.99939936
1.0002544
1.0002554
1.0002565
1.0002575
1.0002583
1.0002588
1.0002591
1.0002589
1.0002584
1.0002575
1.000256
1.0002537
1.0002506
1.0002465
1.0002411
1.0002345
1.0002265
1.0002169
1.0002055
1.0001922
1.0001767
1.0001592
1.0001396
1.0001179
1.0000941
1.0000684
1.0000409
1.0000117
0.99998117
0.9999495
0.99991698
0.99988392
0.99985065
0.99981745
0.99978445
0.99975192
0.99972016
0.99968929
0.99965939
0.99963068
0.99960322
0.99957675
0.99955138
0.99952708
0.99950371
0.99948123
0.99945949
0.99943836
0.99941797
1.0002418
1.0002426
1.0002433
1.0002439
1.0002443
1.0002445
1.0002444
1.0002439
1.0002431
1.0002419
1.00024
1.0002374
1.000234
1.0002296
1.0002241
1.0002173
1.0002093
1.0001997
1.0001883
1.0001752
1.00016
1.0001429
1.0001239
1.0001027
1.0000797
1.0000549
1.0000284
1.0000003
0.99997095
0.99994054
0.99990936
0.9998777
0.99984586
0.9998141
0.99978258
0.99975152
0.99972124
0.99969182
0.99966336
0.99963606
0.99960999
0.99958488
0.99956089
0.99953795
0.99951595
0.99949486
0.99947452
0.99945484
0.99943593
1.00023
1.0002305
1.0002309
1.0002312
1.0002313
1.0002311
1.0002307
1.00023
1.0002288
1.0002273
1.0002251
1.0002223
1.0002186
1.0002141
1.0002084
1.0002015
1.0001934
1.0001838
1.0001726
1.0001596
1.0001447
1.0001281
1.0001095
1.000089
1.0000667
1.0000427
1.0000171
0.99999008
0.99996186
0.99993266
0.99990275
0.9998724
0.99984192
0.99981154
0.99978142
0.99975177
0.99972288
0.99969485
0.99966776
0.99964181
0.99961705
0.99959327
0.99957057
0.99954893
0.99952824
0.99950846
0.99948945
0.99947112
0.9994536
1.0002189
1.0002191
1.0002192
1.0002192
1.000219
1.0002186
1.0002179
1.0002169
1.0002155
1.0002137
1.0002113
1.0002082
1.0002044
1.0001996
1.0001938
1.0001869
1.0001787
1.0001692
1.0001581
1.0001453
1.0001307
1.0001145
1.0000964
1.0000765
1.0000549
1.0000317
1.000007
0.99998095
0.9999538
0.99992574
0.99989704
0.99986795
0.99983876
0.99980969
0.99978089
0.99975258
0.99972503
0.99969832
0.99967254
0.99964787
0.99962436
0.99960182
0.99958036
0.99955994
0.99954046
0.99952189
0.99950412
0.99948703
0.99947077
1.0002083
1.0002083
1.0002081
1.0002079
1.0002075
1.0002069
1.0002059
1.0002047
1.000203
1.000201
1.0001984
1.0001951
1.0001911
1.0001862
1.0001803
1.0001733
1.0001652
1.0001557
1.0001447
1.0001321
1.0001179
1.000102
1.0000844
1.0000651
1.0000441
1.0000217
0.99999788
0.99997279
0.99994666
0.9999197
0.99989215
0.99986426
0.99983629
0.99980847
0.99978095
0.99975392
0.99972763
0.99970218
0.99967765
0.9996542
0.99963189
0.99961054
0.99959024
0.99957098
0.99955265
0.99953523
0.99951861
0.99950268
0.99948759
1.0001983
1.000198
1.0001977
1.0001973
1.0001967
1.0001958
1.0001947
1.0001932
1.0001914
1.0001891
1.0001864
1.0001829
1.0001788
1.0001738
1.0001678
1.0001608
1.0001527
1.0001432
1.0001324
1.00012
1.0001061
1.0000906
1.0000734
1.0000547
1.0000344
1.0000127
0.9999897
0.99996552
0.99994037
0.99991445
0.999888
0.99986125
0.99983446
0.99980783
0.99978152
0.99975571
0.99973063
0.99970639
0.99968304
0.99966076
0.99963959
0.99961936
0.99960017
0.99958199
0.99956474
0.99954838
0.99953283
0.99951797
0.99950396
1.0001888
1.0001884
1.0001878
1.0001872
1.0001864
1.0001854
1.0001841
1.0001824
1.0001804
1.000178
1.0001751
1.0001715
1.0001673
1.0001622
1.0001562
1.0001491
1.000141
1.0001317
1.000121
1.0001089
1.0000952
1.0000801
1.0000634
1.0000452
1.0000256
1.0000046
0.99998237
0.99995906
0.99993485
0.99990992
0.99988452
0.99985886
0.99983319
0.99980771
0.99978255
0.9997579
0.99973398
0.99971089
0.99968868
0.9996675
0.99964741
0.99962825
0.99961011
0.99959296
0.99957673
0.99956138
0.99954683
0.99953297
0.99951995
1.0001797
1.0001791
1.0001785
1.0001777
1.0001767
1.0001755
1.0001741
1.0001723
1.0001701
1.0001676
1.0001645
1.0001608
1.0001565
1.0001513
1.0001453
1.0001383
1.0001302
1.000121
1.0001105
1.0000986
1.0000852
1.0000705
1.0000542
1.0000366
1.0000176
0.99999727
0.99997581
0.99995333
0.99993002
0.99990605
0.99988166
0.99985704
0.99983244
0.99980804
0.99978399
0.99976045
0.99973764
0.99971563
0.99969451
0.99967439
0.99965532
0.99963718
0.99962003
0.99960385
0.99958857
0.99957416
0.99956054
0.99954761
0.9995355
1.0001711
1.0001704
1.0001696
1.0001687
1.0001676
1.0001662
1.0001646
1.0001627
1.0001604
1.0001578
1.0001546
1.0001508
1.0001464
1.0001412
1.0001352
1.0001282
1.0001202
1.0001111
1.0001007
1.000089
1.000076
1.0000616
1.0000458
1.0000287
1.0000103
0.99999066
0.99996994
0.99994827
0.99992582
0.99990278
0.99987934
0.99985572
0.99983214
0.99980879
0.99978579
0.99976331
0.99974155
0.99972059
0.99970049
0.99968138
0.99966329
0.99964611
0.9996299
0.99961464
0.99960027
0.99958674
0.99957399
0.99956192
0.99955066
1.0001628
1.000162
1.0001611
1.0001601
1.0001588
1.0001574
1.0001557
1.0001536
1.0001513
1.0001485
1.0001453
1.0001414
1.0001369
1.0001317
1.0001257
1.0001188
1.0001108
1.0001019
1.0000917
1.0000802
1.0000675
1.0000535
1.0000382
1.0000215
1.0000037
0.99998473
0.99996472
0.99994383
0.99992221
0.99990004
0.99987753
0.99985486
0.99983226
0.9998099
0.99978791
0.99976644
0.99974568
0.99972572
0.9997066
0.99968844
0.99967128
0.99965501
0.99963969
0.9996253
0.99961177
0.99959907
0.99958713
0.99957586
0.99956539
1.0001549
1.000154
1.000153
1.0001519
1.0001506
1.000149
1.0001472
1.0001451
1.0001426
1.0001398
1.0001364
1.0001326
1.0001281
1.0001228
1.0001168
1.0001099
1.0001021
1.0000933
1.0000833
1.0000721
1.0000597
1.0000461
1.0000312
1.000015
0.99999775
0.9999794
0.99996009
0.99993994
0.99991912
0.9998978
0.99987617
0.99985442
0.99983275
0.99981134
0.9997903
0.9997698
0.99975
0.99973098
0.99971279
0.99969554
0.99967927
0.99966386
0.99964938
0.99963581
0.99962307
0.99961115
0.99959998
0.99958945
0.99957971
1.0001473
1.0001464
1.0001453
1.0001441
1.0001426
1.000141
1.0001391
1.0001369
1.0001344
1.0001315
1.0001281
1.0001242
1.0001197
1.0001145
1.0001085
1.0001017
1.000094
1.0000853
1.0000755
1.0000646
1.0000525
1.0000392
1.0000247
1.0000091
0.99999238
0.99997464
0.99995599
0.99993656
0.99991652
0.99989601
0.99987522
0.99985435
0.99983357
0.99981306
0.99979294
0.99977336
0.99975447
0.99973634
0.99971904
0.99970266
0.99968721
0.99967263
0.99965894
0.99964614
0.99963415
0.99962295
0.99961249
0.99960266
0.99959359
1.00014
1.000139
1.0001378
1.0001366
1.0001351
1.0001334
1.0001314
1.0001292
1.0001266
1.0001237
1.0001203
1.0001163
1.0001118
1.0001067
1.0001007
1.000094
1.0000864
1.0000779
1.0000683
1.0000576
1.0000458
1.0000329
1.0000189
1.0000037
0.99998754
0.99997039
0.99995239
0.99993366
0.99991436
0.99989462
0.99987465
0.99985461
0.99983469
0.99981504
0.99979579
0.99977708
0.99975905
0.99974178
0.99972532
0.99970975
0.9996951
0.99968129
0.99966835
0.99965627
0.99964499
0.99963447
0.99962467
0.99961548
0.99960704
1.000133
1.0001319
1.0001307
1.0001294
1.0001279
1.0001261
1.0001241
1.0001218
1.0001192
1.0001163
1.0001128
1.0001089
1.0001044
1.0000993
1.0000934
1.0000868
1.0000794
1.000071
1.0000616
1.0000512
1.0000397
1.0000272
1.0000135
0.99999885
0.99998319
0.99996663
0.99994925
0.9999312
0.9999126
0.99989362
0.99987442
0.99985518
0.99983607
0.99981725
0.99979883
0.99978094
0.99976374
0.99974727
0.9997316
0.99971681
0.9997029
0.99968982
0.99967759
0.99966619
0.99965557
0.99964568
0.9996365
0.99962791
0.99962005
1.0001262
1.0001251
1.0001239
1.0001225
1.0001209
1.0001191
1.0001171
1.0001148
1.0001122
1.0001092
1.0001058
1.0001019
1.0000974
1.0000923
1.0000866
1.0000801
1.0000727
1.0000645
1.0000554
1.0000452
1.0000341
1.0000219
1.0000087
0.99999445
0.9999793
0.9999633
0.99994654
0.99992913
0.99991123
0.99989296
0.99987451
0.99985603
0.9998377
0.99981965
0.99980202
0.99978492
0.99976849
0.99975279
0.99973787
0.9997238
0.9997106
0.9996982
0.99968663
0.99967587
0.99966586
0.99965658
0.99964797
0.99963994
0.99963261
1.0001196
1.0001185
1.0001172
1.0001159
1.0001143
1.0001125
1.0001104
1.0001081
1.0001055
1.0001025
1.0000991
1.0000952
1.0000908
1.0000858
1.0000801
1.0000737
1.0000666
1.0000585
1.0000496
1.0000397
1.0000289
1.000017
1.0000042
0.99999048
0.99997584
0.99996039
0.99994421
0.99992744
0.9999102
0.99989262
0.99987488
0.99985713
0.99983953
0.99982223
0.99980535
0.99978899
0.99977329
0.99975831
0.9997441
0.99973071
0.99971817
0.99970641
0.99969546
0.99968529
0.99967586
0.99966712
0.99965905
0.99965153
0.99964469
1.0001133
1.0001122
1.0001109
1.0001095
1.0001079
1.0001061
1.000104
1.0001017
1.0000991
1.0000961
1.0000927
1.0000889
1.0000845
1.0000796
1.000074
1.0000678
1.0000608
1.0000529
1.0000442
1.0000346
1.0000241
1.0000126
1.0000002
0.99998692
0.99997277
0.99995785
0.99994226
0.99992609
0.99990949
0.99989258
0.99987551
0.99985846
0.99984156
0.99982497
0.99980879
0.99979314
0.99977813
0.99976383
0.99975027
0.99973752
0.99972559
0.99971443
0.99970405
0.99969443
0.99968553
0.99967731
0.99966972
0.99966268
0.9996563
1.0001071
1.000106
1.0001047
1.0001033
1.0001017
1.0000999
1.0000979
1.0000956
1.000093
1.00009
1.0000867
1.0000829
1.0000786
1.0000738
1.0000683
1.0000622
1.0000554
1.0000477
1.0000393
1.0000299
1.0000197
1.0000086
0.9999966
0.99998374
0.99997008
0.99995568
0.99994064
0.99992507
0.99990908
0.9998928
0.99987639
0.99986
0.99984377
0.99982785
0.99981234
0.99979734
0.99978298
0.9997693
0.99975636
0.99974419
0.99973283
0.99972222
0.99971237
0.99970326
0.99969484
0.99968709
0.99967995
0.99967335
0.99966738
1.0001012
1.0001
1.0000988
1.0000974
1.0000958
1.000094
1.000092
1.0000897
1.0000871
1.0000842
1.0000809
1.0000772
1.000073
1.0000683
1.0000629
1.000057
1.0000503
1.0000429
1.0000347
1.0000256
1.0000157
1.0000049
0.99999334
0.99998091
0.99996772
0.99995384
0.99993935
0.99992435
0.99990895
0.99989329
0.9998775
0.99986174
0.99984615
0.99983086
0.99981598
0.9998016
0.99978783
0.99977473
0.99976234
0.99975072
0.99973987
0.99972976
0.99972039
0.99971174
0.99970378
0.99969645
0.99968973
0.99968353
0.99967793
1.0000954
1.0000943
1.000093
1.0000916
1.00009
1.0000883
1.0000863
1.0000841
1.0000815
1.0000787
1.0000755
1.0000718
1.0000677
1.0000631
1.0000579
1.000052
1.0000456
1.0000383
1.0000304
1.0000216
1.000012
1.0000016
0.99999041
0.99997842
0.9999657
0.99995231
0.99993835
0.99992391
0.99990909
0.99989401
0.99987882
0.99986367
0.99984868
0.99983399
0.99981969
0.99980588
0.99979266
0.99978008
0.9997682
0.99975706
0.99974668
0.99973701
0.99972808
0.99971985
0.99971228
0.99970534
0.99969899
0.99969313
0.99968787
1.0000897
1.0000886
1.0000874
1.0000861
1.0000845
1.0000828
1.0000808
1.0000787
1.0000762
1.0000734
1.0000702
1.0000667
1.0000627
1.0000581
1.0000531
1.0000474
1.0000411
1.0000341
1.0000264
1.0000179
1.0000087
0.99999862
0.9999878
0.99997623
0.99996397
0.99995108
0.99993764
0.99992374
0.99990947
0.99989496
0.99988035
0.99986578
0.99985137
0.99983724
0.99982347
0.99981018
0.99979745
0.99978534
0.99977391
0.9997632
0.99975323
0.99974397
0.99973542
0.99972756
0.99972036
0.99971376
0.99970775
0.99970223
0.99969729
1.0000842
1.0000832
1.000082
1.0000807
1.0000792
1.0000775
1.0000756
1.0000735
1.000071
1.0000683
1.0000653
1.0000618
1.0000579
1.0000535
1.0000486
1.0000431
1.000037
1.0000302
1.0000228
1.0000146
1.0000056
0.99999592
0.99998549
0.99997434
0.99996254
0.99995013
0.9999372
0.99992383
0.9999101
0.99989613
0.99988208
0.99986806
0.9998542
0.99984058
0.99982731
0.99981448
0.99980219
0.99979049
0.99977946
0.99976912
0.99975951
0.9997506
0.99974239
0.99973485
0.99972796
0.99972167
0.99971594
0.99971069
0.99970601
1.0000789
1.0000779
1.0000767
1.0000754
1.000074
1.0000724
1.0000705
1.0000685
1.0000661
1.0000635
1.0000605
1.0000571
1.0000534
1.0000491
1.0000443
1.000039
1.0000331
1.0000266
1.0000194
1.0000115
1.0000028
0.9999935
0.99998346
0.99997273
0.99996138
0.99994945
0.99993702
0.99992416
0.99991095
0.99989752
0.99988401
0.99987052
0.99985717
0.99984403
0.9998312
0.99981878
0.99980686
0.99979552
0.99978482
0.99977481
0.99976551
0.99975691
0.99974899
0.99974175
0.99973514
0.99972913
0.99972368
0.99971871
0.99971428
1.0000737
1.0000727
1.0000716
1.0000704
1.000069
1.0000674
1.0000656
1.0000636
1.0000614
1.0000588
1.000056
1.0000527
1.0000491
1.0000449
1.0000403
1.0000352
1.0000295
1.0000232
1.0000162
1.0000086
1.0000003
0.99999135
0.9999817
0.99997139
0.99996048
0.99994902
0.99993708
0.99992472
0.99991202
0.99989912
0.99988613
0.99987315
0.99986027
0.99984757
0.99983513
0.99982306
0.99981147
0.99980043
0.99979002
0.99978029
0.99977125
0.9997629
0.99975524
0.99974823
0.99974186
0.99973606
0.99973081
0.99972603
0.99972178
1.0000686
1.0000677
1.0000666
1.0000654
1.0000641
1.0000626
1.0000609
1.000059
1.0000568
1.0000544
1.0000516
1.0000485
1.000045
1.000041
1.0000366
1.0000316
1.0000261
1.0000201
1.0000134
1.0000061
0.99999808
0.99998945
0.99998018
0.99997029
0.99995982
0.99994883
0.99993738
0.99992551
0.99991332
0.99990093
0.99988845
0.99987596
0.99986352
0.9998512
0.99983909
0.99982733
0.99981601
0.99980524
0.99979508
0.99978558
0.99977677
0.99976864
0.99976119
0.9997544
0.99974824
0.99974266
0.99973764
0.99973309
0.99972906
1.0000636
1.0000627
1.0000617
1.0000606
1.0000593
1.0000579
1.0000563
1.0000544
1.0000524
1.00005
1.0000474
1.0000444
1.0000411
1.0000373
1.000033
1.0000283
1.000023
1.0000172
1.0000107
1.0000037
0.99999606
0.99998779
0.99997891
0.99996943
0.9999594
0.99994887
0.9999379
0.99992652
0.99991483
0.99990295
0.99989098
0.99987894
0.99986689
0.99985491
0.9998431
0.9998316
0.99982053
0.99980999
0.99980004
0.99979074
0.99978211
0.99977415
0.99976685
0.9997602
0.99975416
0.99974869
0.99974376
0.99973929
0.99973533
1.0000588
1.000058
1.000057
1.0000559
1.0000547
1.0000534
1.0000518
1.0000501
1.0000481
1.0000459
1.0000434
1.0000405
1.0000373
1.0000337
1.0000297
1.0000251
1.0000201
1.0000145
1.0000083
1.0000016
0.99999427
0.99998636
0.99997786
0.99996879
0.9999592
0.99994913
0.99993864
0.99992774
0.99991655
0.99990519
0.9998937
0.99988209
0.9998704
0.99985872
0.99984718
0.99983592
0.99982509
0.99981475
0.99980499
0.99979584
0.99978735
0.9997795
0.99977231
0.99976578
0.99975986
0.99975454
0.99974978
0.99974551
0.99974175
1.0000542
1.0000534
1.0000525
1.0000514
1.0000503
1.000049
1.0000475
1.0000458
1.000044
1.0000418
1.0000395
1.0000368
1.0000337
1.0000303
1.0000265
1.0000222
1.0000173
1.000012
1.0000061
0.99999968
0.99999269
0.99998513
0.99997702
0.99996836
0.99995921
0.9999496
0.99993959
0.99992918
0.99991849
0.99990765
0.99989663
0.99988541
0.99987404
0.99986264
0.99985137
0.99984037
0.99982977
0.99981962
0.99980999
0.99980094
0.9997925
0.99978468
0.99977749
0.99977092
0.99976497
0.99975957
0.99975472
0.99975033
0.99974646
1.0000498
1.000049
1.0000481
1.0000472
1.0000461
1.0000448
1.0000434
1.0000418
1.00004
1.000038
1.0000357
1.0000332
1.0000303
1.0000271
1.0000235
1.0000194
1.0000148
1.0000097
1.0000041
0.99999797
0.9999913
0.99998411
0.99997638
0.99996814
0.99995942
0.99995028
0.99994075
0.99993082
0.99992065
0.99991032
0.99989975
0.9998889
0.99987784
0.99986674
0.99985576
0.99984504
0.99983466
0.99982467
0.99981513
0.9998061
0.99979762
0.99978974
0.99978249
0.99977588
0.99976991
0.99976457
0.99975983
0.99975563
0.99975197
1.0000456
1.0000449
1.0000441
1.0000431
1.0000421
1.0000409
1.0000395
1.0000379
1.0000362
1.0000343
1.0000321
1.0000297
1.000027
1.000024
1.0000206
1.0000167
1.0000124
1.0000076
1.0000023
0.99999644
0.99999011
0.99998328
0.99997593
0.99996811
0.99995982
0.99995115
0.9999421
0.99993267
0.99992303
0.99991321
0.99990307
0.99989256
0.99988183
0.99987107
0.99986045
0.99985003
0.99983986
0.99982998
0.99982044
0.99981132
0.99980269
0.99979459
0.99978707
0.99978016
0.99977387
0.99976815
0.999763
0.99975834
0.99975423
1.0000418
1.0000411
1.0000403
1.0000394
1.0000383
1.0000372
1.0000359
1.0000344
1.0000327
1.0000308
1.0000287
1.0000264
1.0000238
1.000021
1.0000178
1.0000142
1.0000102
1.0000057
1.0000006
0.99999509
0.99998909
0.99998261
0.99997566
0.99996824
0.9999604
0.99995219
0.99994363
0.9999347
0.99992561
0.99991631
0.99990657
0.99989641
0.99988607
0.99987575
0.99986553
0.99985543
0.99984545
0.99983561
0.99982599
0.99981667
0.99980777
0.99979935
0.99979153
0.99978435
0.99977788
0.99977212
0.99976706
0.99976268
0.9997589
1.0000382
1.0000375
1.0000367
1.0000359
1.0000349
1.0000338
1.0000325
1.000031
1.0000294
1.0000276
1.0000256
1.0000233
1.0000208
1.0000181
1.0000151
1.0000118
1.0000081
1.0000039
0.99999914
0.99999391
0.99998823
0.99998212
0.99997555
0.99996856
0.99996116
0.99995342
0.99994535
0.99993693
0.99992839
0.99991959
0.99991024
0.99990047
0.99989062
0.99988082
0.99987107
0.99986129
0.99985146
0.99984161
0.99983182
0.9998222
0.99981287
0.99980392
0.99979547
0.99978758
0.9997803
0.99977364
0.9997676
0.99976211
0.99975727
1.0000348
1.0000341
1.0000334
1.0000326
1.0000316
1.0000305
1.0000293
1.0000279
1.0000264
1.0000246
1.0000227
1.0000205
1.0000181
1.0000155
1.0000126
1.0000095
1.0000061
1.0000022
0.99999781
0.99999289
0.99998754
0.9999818
0.99997564
0.99996907
0.99996212
0.99995487
0.9999473
0.99993941
0.99993145
0.99992313
0.99991415
0.99990487
0.99989563
0.99988644
0.99987715
0.99986766
0.99985795
0.99984805
0.99983805
0.99982806
0.99981824
0.99980871
0.99979965
0.99979122
0.99978353
0.99977671
0.99977078
0.9997658
0.99976157
1.0000315
1.0000309
1.0000301
1.0000293
1.0000284
1.0000274
1.0000263
1.000025
1.0000235
1.0000218
1.00002
1.0000179
1.0000156
1.0000131
1.0000103
1.0000074
1.0000042
1.0000007
0.99999661
0.99999201
0.99998698
0.99998159
0.99997581
0.99996965
0.99996314
0.99995637
0.99994932
0.99994199
0.99993465
0.99992682
0.99991827
0.99990967
0.99990119
0.99989268
0.99988389
0.99987472
0.99986515
0.99985521
0.99984498
0.99983454
0.99982403
0.99981357
0.99980334
0.99979347
0.99978411
0.99977532
0.9997672
0.99975971
0.99975309
1.0000283
1.0000277
1.000027
1.0000262
1.0000253
1.0000243
1.0000232
1.000022
1.0000207
1.0000191
1.0000174
1.0000155
1.0000133
1.0000109
1.0000082
1.0000054
1.0000024
0.99999918
0.99999545
0.99999117
0.99998646
0.9999814
0.99997598
0.9999702
0.99996411
0.99995779
0.99995121
0.99994442
0.99993767
0.99993024
0.99992222
0.99991449
0.99990688
0.9998991
0.99989088
0.99988217
0.99987294
0.99986319
0.99985292
0.99984219
0.99983109
0.99981977
0.99980848
0.99979751
0.99978719
0.99977787
0.99976979
0.99976318
0.99975786
1.000025
1.0000244
1.0000237
1.0000229
1.0000221
1.0000212
1.0000202
1.0000191
1.0000179
1.0000165
1.000015
1.0000132
1.0000112
1.0000089
1.0000064
1.0000036
1.0000008
0.99999778
0.99999444
0.99999054
0.9999862
0.99998154
0.99997657
0.99997129
0.99996571
0.99995989
0.99995379
0.99994753
0.99994129
0.99993408
0.99992667
0.99991988
0.99991299
0.99990581
0.99989807
0.99988986
0.99988103
0.99987158
0.99986137
0.99985042
0.99983868
0.99982623
0.99981315
0.99979962
0.9997858
0.99977212
0.99975875
0.99974612
0.99973462
1.0000218
1.0000212
1.0000205
1.0000197
1.0000189
1.0000181
1.0000171
1.0000161
1.000015
1.0000138
1.0000125
1.0000109
1.0000092
1.0000071
1.0000048
1.0000022
0.9999995
0.99999675
0.99999381
0.99999037
0.9999865
0.99998234
0.99997793
0.99997324
0.99996828
0.99996311
0.99995768
0.9999522
0.99994665
0.99994004
0.99993352
0.99992795
0.99992172
0.99991524
0.99990804
0.99990049
0.99989212
0.99988309
0.99987292
0.99986173
0.99984914
0.99983537
0.99982045
0.99980488
0.99978952
0.99977529
0.99976253
0.99975287
0.99974437
1.0000186
1.0000178
1.0000168
1.000016
1.0000151
1.0000143
1.0000135
1.0000127
1.0000118
1.0000109
1.0000098
1.0000086
1.0000072
1.0000055
1.0000035
1.0000011
0.99999832
0.99999549
0.99999265
0.99998947
0.99998581
0.99998181
0.9999775
0.99997291
0.99996811
0.99996326
0.99995832
0.99995349
0.99994854
0.99994291
0.99993776
0.99993356
0.99992839
0.99992326
0.9999174
0.99991139
0.99990446
0.99989695
0.99988806
0.99987806
0.99986603
0.99985203
0.99983544
0.99981606
0.99979499
0.99976931
0.99974074
0.99970963
0.99967637
1.0000143
1.0000132
1.0000126
1.000012
1.0000115
1.000011
1.0000105
1.00001
1.0000094
1.0000087
1.0000079
1.0000068
1.0000055
1.0000039
1.0000019