/*--------------------------------*- C++ -*----------------------------------*\
| =========                 |                                                 |
| \\      /  F ield         | OpenFOAM: The Open Source CFD Toolbox           |
|  \\    /   O peration     | Version:  v2006                                 |
|   \\  /    A nd           | Website:  www.openfoam.com                      |
|    \\/     M anipulation  |                                                 |
\*---------------------------------------------------------------------------*/
FoamFile
{
    version     2.0;
    format      ascii;
    class       volScalarField;
    location    "2000";
    object      TMean;
}
// * * * * * * * * * * * * * * * * * * * * * * * * * * * * * * * * * * * * * //

dimensions      [0 0 0 1 0 0 0];


internalField   nonuniform List<scalar> 
19765
(
1.0001343
1.0001767
1.0003244
1.0004752
1.000604
1.0007202
1.0008361
1.0009362
1.0010295
1.0011199
1.001193
1.001249
1.0012937
1.0013269
1.0013487
1.0013622
1.0013664
1.0013614
1.0013463
1.0013216
1.0012887
1.0012484
1.0011999
1.00114
1.0010711
1.0010009
1.0009284
1.0008434
1.0007512
1.0006579
1.0005548
1.0004376
1.0002962
1.0001466
1.0000234
0.99991184
0.99976535
0.99960879
0.99947092
0.99929499
0.99908287
0.99895036
0.99885372
0.998767
0.99876741
0.99879552
0.99887993
0.99900669
0.99912832
1.000427
1.0004836
1.0005489
1.0006233
1.0007021
1.0007791
1.0008536
1.0009227
1.0009869
1.0010477
1.0011038
1.0011529
1.0011948
1.0012292
1.0012548
1.0012723
1.001283
1.0012855
1.0012783
1.0012612
1.0012346
1.0011991
1.0011548
1.0011017
1.0010407
1.0009727
1.0008965
1.0008131
1.000722
1.0006241
1.0005198
1.0004101
1.0002977
1.0001844
1.0000694
0.99995194
0.99983487
0.99972045
0.99960917
0.99950484
0.99941651
0.99933633
0.99926033
0.99919364
0.99913187
0.99908133
0.99903949
0.99900328
0.99896909
1.0003957
1.0004474
1.0005078
1.0005734
1.0006395
1.0007047
1.0007676
1.0008274
1.0008834
1.0009379
1.0009884
1.0010332
1.0010726
1.0011057
1.0011307
1.0011489
1.0011615
1.0011669
1.0011634
1.0011509
1.0011297
1.0011005
1.0010622
1.0010149
1.0009605
1.0008992
1.0008295
1.0007523
1.0006684
1.0005779
1.0004812
1.0003797
1.0002751
1.0001687
1.00006
0.99994992
0.99984059
0.99973237
0.99962657
0.99952642
0.99943137
0.99933992
0.99925609
0.99918253
0.99911638
0.99905771
0.99900755
0.99896518
0.99892825
1.0004528
1.0004924
1.0005329
1.0005751
1.0006182
1.0006613
1.0007036
1.0007446
1.0007842
1.0008228
1.0008594
1.0008928
1.000923
1.0009489
1.0009691
1.0009843
1.0009953
1.0010005
1.0009985
1.000989
1.000972
1.000948
1.0009165
1.0008771
1.0008309
1.0007787
1.0007196
1.0006539
1.0005825
1.0005059
1.0004247
1.0003401
1.0002538
1.0001667
1.000078
0.99998873
0.9999012
0.99981549
0.99973194
0.99965325
0.9995792
0.9995062
0.99943584
0.99936878
0.99930419
0.99924282
0.99918181
0.99912132
0.99906058
1.0004516
1.0004848
1.0005184
1.0005524
1.0005864
1.00062
1.000653
1.0006849
1.0007158
1.0007461
1.0007749
1.0008013
1.0008254
1.0008463
1.0008628
1.0008753
1.0008843
1.0008883
1.0008862
1.0008775
1.0008621
1.0008405
1.0008123
1.000777
1.0007357
1.0006888
1.0006359
1.000577
1.0005132
1.0004449
1.0003729
1.0002982
1.0002222
1.0001456
1.0000684
0.99999121
0.99991579
0.99984208
0.99977044
0.9997025
0.99963769
0.99957339
0.99951133
0.9994505
0.99939099
0.9993324
0.99927437
0.99921795
0.99916399
1.0004494
1.0004748
1.0005002
1.000526
1.0005516
1.0005771
1.0006023
1.0006269
1.0006509
1.0006747
1.0006973
1.0007182
1.0007373
1.0007538
1.0007667
1.0007765
1.0007832
1.0007857
1.0007829
1.0007744
1.0007599
1.0007397
1.0007138
1.0006814
1.0006435
1.0006007
1.0005524
1.000499
1.0004411
1.0003794
1.0003145
1.0002474
1.0001791
1.0001106
1.0000417
0.99997311
0.99990603
0.99984065
0.99977717
0.99971662
0.99965871
0.99960194
0.99954658
0.99949266
0.9994393
0.99938664
0.99933365
0.99928038
0.99922707
1.0004339
1.0004553
1.0004765
1.0004977
1.0005185
1.0005391
1.0005593
1.0005789
1.0005981
1.000617
1.0006351
1.0006517
1.0006668
1.0006798
1.0006898
1.000697
1.0007016
1.0007026
1.0006989
1.0006902
1.0006763
1.0006574
1.0006333
1.0006035
1.0005687
1.0005293
1.0004851
1.0004362
1.0003834
1.0003272
1.0002682
1.0002071
1.0001451
1.0000827
1.0000201
0.99995789
0.99989694
0.99983739
0.99977942
0.99972384
0.99967034
0.99961751
0.99956595
0.99951503
0.9994645
0.99941398
0.99936293
0.99931131
0.99925937
1.000419
1.000436
1.000453
1.00047
1.0004866
1.0005031
1.0005192
1.0005349
1.0005503
1.0005655
1.00058
1.0005932
1.0006051
1.0006153
1.0006229
1.0006281
1.0006309
1.0006305
1.000626
1.0006171
1.0006035
1.0005853
1.0005625
1.0005345
1.0005019
1.0004652
1.0004241
1.0003788
1.00033
1.0002781
1.0002238
1.0001676
1.0001106
1.0000533
0.9999959
0.99993887
0.99988299
0.99982841
0.99977528
0.99972421
0.99967501
0.9996267
0.99957943
0.999533
0.99948687
0.99944093
0.99939452
0.99934756
0.9993
1.0004008
1.000415
1.0004292
1.0004433
1.0004571
1.0004705
1.0004837
1.0004965
1.000509
1.0005213
1.0005329
1.0005434
1.0005528
1.0005606
1.0005662
1.0005696
1.0005709
1.0005693
1.000564
1.0005548
1.0005413
1.0005238
1.000502
1.0004755
1.0004449
1.0004105
1.0003721
1.00033
1.0002846
1.0002364
1.000186
1.0001339
1.0000811
1.0000279
0.99997472
0.99992181
0.99986989
0.99981911
0.99976959
0.99972184
0.99967572
0.99963032
0.99958593
0.99954215
0.99949869
0.99945526
0.99941139
0.99936693
0.99932194
1.0003831
1.0003948
1.0004064
1.0004181
1.0004293
1.0004404
1.0004512
1.0004616
1.0004718
1.0004818
1.0004911
1.0004995
1.0005068
1.0005127
1.0005166
1.0005186
1.0005186
1.0005159
1.00051
1.0005005
1.0004871
1.00047
1.000449
1.0004238
1.0003948
1.0003622
1.0003261
1.0002864
1.0002439
1.0001988
1.0001516
1.000103
1.0000536
1.000004
0.99995432
0.99990495
0.99985648
0.99980907
0.99976284
0.99971823
0.99967515
0.99963288
0.99959157
0.999551
0.9995108
0.9994708
0.99943053
0.99938985
0.9993487
1.0003652
1.0003749
1.0003846
1.0003943
1.0004037
1.0004129
1.0004218
1.0004304
1.0004386
1.0004468
1.0004542
1.0004608
1.0004664
1.0004707
1.0004733
1.000474
1.0004729
1.0004694
1.0004628
1.000453
1.0004398
1.000423
1.0004027
1.0003786
1.0003509
1.00032
1.0002858
1.0002484
1.0002083
1.0001658
1.0001215
1.0000759
1.0000295
0.9999829
0.99993623
0.99988983
0.99984425
0.99979963
0.99975608
0.999714
0.99967332
0.99963341
0.99959444
0.99955616
0.99951831
0.99948069
0.9994429
0.99940478
0.99936634
1.0003479
1.000356
1.0003641
1.0003722
1.0003799
1.0003875
1.0003949
1.0004019
1.0004086
1.0004152
1.0004212
1.0004263
1.0004305
1.0004335
1.0004349
1.0004346
1.0004325
1.0004283
1.0004212
1.0004112
1.000398
1.0003816
1.0003618
1.0003386
1.0003121
1.0002826
1.0002501
1.0002146
1.0001766
1.0001365
1.0000946
1.0000515
1.0000078
0.99996378
0.99991974
0.99987598
0.99983298
0.9997909
0.99974983
0.99971015
0.99967181
0.99963429
0.99959773
0.99956192
0.99952663
0.9994917
0.99945675
0.99942165
0.99938637
1.0003311
1.0003379
1.0003447
1.0003514
1.0003579
1.0003642
1.0003703
1.0003761
1.0003815
1.0003868
1.0003915
1.0003954
1.0003984
1.0004003
1.0004007
1.0003995
1.0003967
1.0003918
1.0003843
1.0003741
1.000361
1.0003448
1.0003256
1.0003032
1.0002777
1.0002495
1.0002184
1.0001846
1.0001485
1.0001104
1.0000708
1.00003
0.99998853
0.99994687
0.99990517
0.99986374
0.99982302
0.99978315
0.99974425
0.99970664
0.99967031
0.99963478
0.99960021
0.99956641
0.99953319
0.99950038
0.99946768
0.99943493
0.99940215
1.0003152
1.0003209
1.0003265
1.0003321
1.0003375
1.0003427
1.0003477
1.0003524
1.0003568
1.000361
1.0003646
1.0003675
1.0003695
1.0003705
1.00037
1.0003681
1.0003646
1.0003592
1.0003514
1.000341
1.0003279
1.0003121
1.0002933
1.0002716
1.0002471
1.00022
1.0001902
1.0001579
1.0001235
1.0000872
1.0000495
1.0000108
0.9999714
0.99993184
0.99989225
0.99985292
0.99981429
0.99977647
0.99973959
0.99970395
0.99966955
0.99963599
0.99960339
0.99957163
0.99954051
0.9995099
0.99947952
0.99944923
0.99941906
1.0003
1.0003047
1.0003094
1.0003141
1.0003186
1.0003229
1.0003269
1.0003307
1.0003342
1.0003375
1.0003402
1.0003422
1.0003434
1.0003436
1.0003424
1.0003398
1.0003358
1.0003299
1.0003219
1.0003114
1.0002983
1.0002827
1.0002644
1.0002433
1.0002197
1.0001936
1.000165
1.0001341
1.0001012
1.0000666
1.0000307
0.99999374
0.99995627
0.99991861
0.99988095
0.99984355
0.99980681
0.99977087
0.99973582
0.99970196
0.99966931
0.99963748
0.99960664
0.99957665
0.99954734
0.99951861
0.9994902
0.999462
0.99943403
1.0002857
1.0002895
1.0002934
1.0002973
1.000301
1.0003045
1.0003078
1.0003108
1.0003135
1.000316
1.000318
1.0003192
1.0003197
1.0003191
1.0003174
1.0003143
1.0003098
1.0003035
1.0002952
1.0002847
1.0002717
1.0002563
1.0002384
1.000218
1.0001951
1.0001699
1.0001424
1.0001128
1.0000813
1.0000482
1.0000139
0.99997864
0.99994291
0.99990701
0.99987112
0.9998355
0.99980053
0.99976634
0.99973302
0.99970085
0.99966987
0.99963973
0.99961058
0.99958232
0.9995548
0.99952792
0.99950147
0.99947531
0.99944951
1.000272
1.0002752
1.0002784
1.0002816
1.0002846
1.0002875
1.0002901
1.0002924
1.0002945
1.0002963
1.0002976
1.0002982
1.000298
1.0002969
1.0002946
1.0002911
1.0002862
1.0002796
1.0002711
1.0002605
1.0002476
1.0002325
1.000215
1.0001951
1.0001729
1.0001486
1.0001221
1.0000937
1.0000635
1.0000318
0.99999896
0.99996529
0.99993116
0.99989689
0.99986265
0.9998287
0.99979538
0.99976281
0.99973111
0.99970051
0.99967108
0.99964249
0.9996149
0.99958821
0.99956229
0.99953707
0.99951234
0.99948799
0.99946409
1.0002591
1.0002618
1.0002644
1.000267
1.0002694
1.0002716
1.0002737
1.0002754
1.0002769
1.0002781
1.0002788
1.0002788
1.0002782
1.0002766
1.0002738
1.0002699
1.0002646
1.0002578
1.0002492
1.0002386
1.0002258
1.0002109
1.0001938
1.0001744
1.0001529
1.0001294
1.0001039
1.0000765
1.0000475
1.0000172
0.99998571
0.9999535
0.99992087
0.99988813
0.99985544
0.99982304
0.99979127
0.99976025
0.99973007
0.99970098
0.99967302
0.99964592
0.99961982
0.99959465
0.99957028
0.99954665
0.99952358
0.99950096
0.99947886
1.000247
1.0002491
1.0002512
1.0002533
1.0002552
1.0002569
1.0002584
1.0002597
1.0002607
1.0002614
1.0002615
1.0002611
1.0002599
1.0002579
1.0002548
1.0002505
1.000245
1.000238
1.0002292
1.0002186
1.000206
1.0001913
1.0001746
1.0001557
1.0001349
1.0001121
1.0000875
1.0000611
1.0000333
1.0000041
0.99997397
0.99994312
0.99991191
0.9998806
0.99984936
0.99981844
0.99978813
0.99975856
0.99972983
0.99970215
0.99967559
0.99964988
0.99962518
0.99960141
0.99957846
0.99955628
0.99953471
0.99951364
0.99949317
1.0002354
1.0002371
1.0002388
1.0002404
1.0002419
1.0002431
1.0002442
1.0002451
1.0002456
1.0002458
1.0002456
1.0002447
1.0002431
1.0002407
1.0002373
1.0002327
1.000227
1.0002198
1.000211
1.0002004
1.0001879
1.0001735
1.0001571
1.0001388
1.0001185
1.0000965
1.0000727
1.0000473
1.0000205
0.99999249
0.99996358
0.99993402
0.99990413
0.99987418
0.99984433
0.9998148
0.99978588
0.99975769
0.99973033
0.99970401
0.99967877
0.9996544
0.99963103
0.9996086
0.99958701
0.9995662
0.99954606
0.99952646
0.99950751
1.0002245
1.0002258
1.0002271
1.0002283
1.0002294
1.0002303
1.000231
1.0002314
1.0002316
1.0002314
1.0002308
1.0002295
1.0002276
1.0002249
1.0002211
1.0002164
1.0002104
1.0002031
1.0001943
1.0001837
1.0001714
1.0001572
1.0001412
1.0001233
1.0001037
1.0000823
1.0000594
1.0000349
1.0000091
0.99998216
0.9999544
0.99992606
0.99989743
0.99986877
0.99984023
0.99981202
0.99978443
0.99975756
0.99973151
0.99970646
0.99968249
0.99965938
0.99963726
0.99961608
0.99959575
0.99957623
0.99955739
0.99953913
0.99952155
1.0002142
1.0002152
1.0002161
1.000217
1.0002177
1.0002183
1.0002186
1.0002187
1.0002185
1.000218
1.000217
1.0002154
1.0002132
1.0002102
1.0002063
1.0002013
1.0001952
1.0001878
1.0001789
1.0001684
1.0001563
1.0001424
1.0001267
1.0001093
1.0000902
1.0000695
1.0000473
1.0000237
0.99999885
0.99997297
0.99994632
0.99991914
0.99989171
0.99986428
0.99983698
0.99981004
0.9997837
0.99975809
0.99973328
0.99970947
0.9996867
0.99966479
0.99964387
0.99962388
0.99960474
0.99958642
0.99956881
0.99955181
0.99953551
1.0002044
1.0002051
1.0002057
1.0002063
1.0002067
1.000207
1.000207
1.0002068
1.0002063
1.0002055
1.0002042
1.0002024
1.0001999
1.0001966
1.0001925
1.0001873
1.0001811
1.0001737
1.0001648
1.0001544
1.0001424
1.0001288
1.0001135
1.0000965
1.0000779
1.0000579
1.0000365
1.0000137
0.99998972
0.99996483
0.99993923
0.99991316
0.99988687
0.9998606
0.9998345
0.99980876
0.99978363
0.99975922
0.9997356
0.99971295
0.99969133
0.99967056
0.99965077
0.9996319
0.99961388
0.99959669
0.99958021
0.99956435
0.99954923
1.0001951
1.0001955
1.0001959
1.0001962
1.0001964
1.0001963
1.0001961
1.0001957
1.0001949
1.0001938
1.0001923
1.0001902
1.0001875
1.000184
1.0001797
1.0001744
1.0001681
1.0001606
1.0001517
1.0001415
1.0001296
1.0001163
1.0001013
1.0000848
1.0000668
1.0000474
1.0000266
1.0000046
0.99998158
0.99995764
0.99993304
0.99990802
0.99988283
0.99985768
0.99983271
0.99980812
0.99978414
0.99976087
0.99973839
0.99971686
0.99969633
0.99967665
0.99965793
0.99964012
0.99962317
0.99960703
0.99959162
0.99957683
0.9995628
1.0001863
1.0001865
1.0001866
1.0001867
1.0001866
1.0001863
1.0001859
1.0001852
1.0001842
1.0001829
1.0001811
1.0001788
1.0001759
1.0001723
1.0001678
1.0001624
1.000156
1.0001485
1.0001397
1.0001295
1.0001179
1.0001048
1.0000902
1.0000741
1.0000567
1.0000379
1.0000178
0.99999656
0.99997433
0.99995129
0.99992766
0.99990365
0.9998795
0.99985542
0.99983154
0.99980806
0.99978518
0.999763
0.9997416
0.99972114
0.99970165
0.999683
0.9996653
0.99964849
0.99963253
0.99961738
0.99960296
0.99958916
0.99957612
1.0001779
1.0001779
1.0001778
1.0001777
1.0001774
1.0001769
1.0001762
1.0001753
1.0001741
1.0001726
1.0001706
1.0001681
1.0001651
1.0001613
1.0001567
1.0001513
1.0001449
1.0001373
1.0001286
1.0001186
1.0001071
1.0000943
1.0000801
1.0000644
1.0000474
1.0000292
1.0000098
0.99998931
0.99996789
0.99994573
0.99992302
0.99989997
0.99987683
0.99985376
0.99983093
0.99980849
0.99978667
0.99976553
0.99974517
0.99972572
0.99970723
0.99968957
0.99967283
0.99965697
0.99964195
0.99962773
0.99961423
0.99960136
0.99958925
1.0001698
1.0001696
1.0001694
1.0001691
1.0001686
1.000168
1.0001671
1.000166
1.0001646
1.0001629
1.0001608
1.0001581
1.0001549
1.0001511
1.0001464
1.0001409
1.0001345
1.000127
1.0001183
1.0001084
1.0000972
1.0000846
1.0000707
1.0000555
1.000039
1.0000214
1.0000026
0.99998283
0.99996219
0.99994086
0.99991904
0.99989692
0.99987473
0.99985265
0.99983081
0.99980938
0.99978856
0.99976843
0.99974906
0.99973057
0.99971302
0.9996963
0.99968047
0.99966552
0.99965138
0.99963802
0.99962539
0.99961338
0.99960211
1.0001621
1.0001618
1.0001614
1.0001609
1.0001603
1.0001595
1.0001585
1.0001572
1.0001557
1.0001538
1.0001515
1.0001488
1.0001454
1.0001415
1.0001367
1.0001312
1.0001248
1.0001173
1.0001088
1.000099
1.000088
1.0000757
1.0000622
1.0000474
1.0000314
1.0000143
0.99999614
0.99997705
0.99995716
0.99993663
0.99991566
0.99989444
0.99987316
0.99985202
0.99983113
0.99981067
0.99979081
0.99977163
0.9997532
0.99973564
0.99971899
0.99970316
0.9996882
0.99967409
0.99966079
0.99964825
0.99963642
0.99962521
0.99961474
1.0001548
1.0001543
1.0001538
1.0001532
1.0001524
1.0001514
1.0001503
1.0001489
1.0001472
1.0001452
1.0001428
1.00014
1.0001365
1.0001325
1.0001277
1.0001222
1.0001157
1.0001084
1.0000999
1.0000903
1.0000795
1.0000675
1.0000543
1.0000399
1.0000244
1.0000079
0.99999033
0.99997191
0.99995274
0.99993299
0.99991284
0.99989246
0.99987207
0.99985182
0.99983185
0.99981231
0.99979336
0.99977509
0.99975756
0.99974089
0.99972509
0.9997101
0.99969596
0.99968266
0.99967014
0.99965837
0.9996473
0.99963683
0.99962708
1.0001477
1.0001471
1.0001465
1.0001457
1.0001448
1.0001438
1.0001425
1.000141
1.0001392
1.0001371
1.0001346
1.0001316
1.0001282
1.0001241
1.0001193
1.0001137
1.0001073
1.0001
1.0000917
1.0000823
1.0000717
1.00006
1.0000471
1.0000331
1.0000181
1.0000021
0.99998512
0.99996735
0.99994888
0.99992987
0.99991051
0.99989095
0.9998714
0.99985201
0.99983291
0.99981425
0.99979618
0.99977878
0.99976211
0.99974627
0.99973129
0.99971709
0.99970374
0.99969119
0.99967941
0.99966836
0.99965799
0.99964822
0.99963916
1.0001409
1.0001402
1.0001394
1.0001386
1.0001376
1.0001365
1.0001351
1.0001335
1.0001316
1.0001294
1.0001268
1.0001238
1.0001203
1.0001161
1.0001113
1.0001058
1.0000995
1.0000922
1.000084
1.0000748
1.0000645
1.0000531
1.0000405
1.0000269
1.0000123
0.99999685
0.99998047
0.99996332
0.99994553
0.99992724
0.99990863
0.99988986
0.99987112
0.99985255
0.99983428
0.99981646
0.99979922
0.99978264
0.99976679
0.99975175
0.99973754
0.99972411
0.99971148
0.99969965
0.99968857
0.99967819
0.99966849
0.99965936
0.99965092
1.0001343
1.0001335
1.0001327
1.0001318
1.0001307
1.0001295
1.000128
1.0001263
1.0001244
1.0001221
1.0001195
1.0001164
1.0001128
1.0001087
1.0001039
1.0000984
1.0000921
1.000085
1.0000769
1.0000679
1.0000578
1.0000467
1.0000345
1.0000213
1.0000071
0.99999215
0.99997633
0.99995979
0.99994265
0.99992505
0.99990716
0.99988915
0.99987117
0.99985339
0.99983592
0.9998189
0.99980245
0.99978666
0.99977158
0.9997573
0.99974382
0.9997311
0.99971918
0.99970802
0.99969759
0.99968785
0.99967876
0.99967024
0.99966239
1.0001279
1.0001271
1.0001262
1.0001252
1.0001241
1.0001228
1.0001212
1.0001195
1.0001175
1.0001152
1.0001125
1.0001094
1.0001058
1.0001016
1.0000969
1.0000914
1.0000852
1.0000782
1.0000703
1.0000614
1.0000516
1.0000408
1.0000289
1.0000161
1.0000024
0.99998793
0.99997266
0.9999567
0.99994019
0.99992326
0.99990607
0.99988878
0.99987154
0.99985451
0.9998378
0.99982153
0.99980585
0.9997908
0.99977646
0.99976288
0.9997501
0.99973806
0.99972679
0.99971627
0.99970645
0.9996973
0.99968879
0.99968083
0.99967352
1.0001217
1.0001209
1.0001199
1.0001189
1.0001177
1.0001163
1.0001148
1.000113
1.0001109
1.0001086
1.0001058
1.0001027
1.0000991
1.000095
1.0000903
1.0000849
1.0000788
1.0000719
1.0000641
1.0000555
1.0000459
1.0000354
1.0000239
1.0000114
0.99999819
0.99998417
0.99996942
0.99995404
0.99993814
0.99992185
0.99990532
0.99988872
0.99987219
0.99985587
0.99983988
0.99982434
0.99980937
0.99979503
0.99978138
0.99976848
0.99975636
0.99974495
0.9997343
0.99972437
0.99971513
0.99970654
0.99969857
0.99969112
0.99968431
1.0001157
1.0001148
1.0001139
1.0001128
1.0001115
1.0001101
1.0001085
1.0001067
1.0001046
1.0001023
1.0000995
1.0000964
1.0000928
1.0000887
1.000084
1.0000787
1.0000727
1.000066
1.0000584
1.00005
1.0000406
1.0000304
1.0000192
1.0000072
0.99999436
0.99998081
0.99996658
0.99995175
0.99993644
0.99992077
0.99990489
0.99988894
0.99987309
0.99985745
0.99984215
0.99982729
0.999813
0.99979933
0.99978633
0.99977407
0.99976256
0.99975175
0.99974168
0.9997323
0.9997236
0.99971552
0.99970805
0.99970109
0.99969474
1.0001099
1.000109
1.000108
1.0001069
1.0001056
1.0001042
1.0001026
1.0001007
1.0000986
1.0000962
1.0000935
1.0000904
1.0000868
1.0000828
1.0000782
1.0000729
1.0000671
1.0000604
1.000053
1.0000448
1.0000357
1.0000258
1.000015
1.0000033
0.99999093
0.99997785
0.99996412
0.99994983
0.99993508
0.99992001
0.99990474
0.99988943
0.99987421
0.99985923
0.99984457
0.99983037
0.99981671
0.99980367
0.99979128
0.99977962
0.99976868
0.99975843
0.9997489
0.99974004
0.99973184
0.99972424
0.99971723
0.99971072
0.9997048
1.0001042
1.0001033
1.0001023
1.0001012
1.0000999
1.0000984
1.0000968
1.000095
1.0000929
1.0000905
1.0000878
1.0000847
1.0000812
1.0000772
1.0000726
1.0000675
1.0000617
1.0000553
1.0000481
1.0000401
1.0000312
1.0000216
1.0000111
0.99999986
0.99998787
0.99997524
0.999962
0.99994823
0.99993403
0.99991953
0.99990486
0.99989015
0.99987555
0.99986118
0.99984714
0.99983354
0.99982049
0.99980803
0.99979622
0.9997851
0.9997747
0.99976497
0.99975593
0.99974755
0.99973981
0.99973266
0.99972607
0.99971997
0.99971444
1.0000987
1.0000978
1.0000967
1.0000956
1.0000943
1.0000929
1.0000913
1.0000894
1.0000873
1.000085
1.0000823
1.0000792
1.0000758
1.0000718
1.0000674
1.0000624
1.0000568
1.0000505
1.0000434
1.0000357
1.0000271
1.0000178
1.0000076
0.99999673
0.99998515
0.99997296
0.9999602
0.99994694
0.99993328
0.99991933
0.99990522
0.99989109
0.99987708
0.99986329
0.99984983
0.9998368
0.99982431
0.99981239
0.99980111
0.9997905
0.99978059
0.99977134
0.99976276
0.99975482
0.9997475
0.99974076
0.99973457
0.99972884
0.99972367
1.0000933
1.0000924
1.0000914
1.0000902
1.000089
1.0000875
1.0000859
1.0000841
1.000082
1.0000797
1.0000771
1.0000741
1.0000707
1.0000668
1.0000625
1.0000576
1.0000521
1.0000459
1.0000391
1.0000316
1.0000233
1.0000142
1.0000044
0.99999392
0.99998275
0.999971
0.99995871
0.99994594
0.9999328
0.99991938
0.99990582
0.99989224
0.99987878
0.99986554
0.99985263
0.99984013
0.99982815
0.99981674
0.99980594
0.9997958
0.99978633
0.99977751
0.99976935
0.99976182
0.99975488
0.9997485
0.99974267
0.99973728
0.99973243
1.000088
1.0000871
1.0000861
1.000085
1.0000838
1.0000824
1.0000808
1.000079
1.0000769
1.0000747
1.0000721
1.0000691
1.0000658
1.000062
1.0000578
1.000053
1.0000477
1.0000417
1.0000351
1.0000278
1.0000198
1.000011
1.0000016
0.99999142
0.99998065
0.99996933
0.9999575
0.99994522
0.99993257
0.99991966
0.99990663
0.99989358
0.99988065
0.99986793
0.99985552
0.99984352
0.999832
0.99982104
0.99981068
0.99980096
0.9997919
0.99978347
0.99977569
0.99976852
0.99976193
0.9997559
0.99975039
0.99974532
0.99974077
1.0000829
1.000082
1.000081
1.0000799
1.0000787
1.0000773
1.0000758
1.000074
1.000072
1.0000698
1.0000673
1.0000644
1.0000612
1.0000575
1.0000534
1.0000487
1.0000435
1.0000378
1.0000314
1.0000243
1.0000165
1.0000081
0.99999899
0.99998921
0.99997884
0.99996794
0.99995656
0.99994475
0.99993258
0.99992018
0.99990765
0.99989511
0.99988268
0.99987044
0.9998585
0.99984694
0.99983585
0.9998253
0.99981532
0.99980598
0.99979728
0.9997892
0.99978175
0.9997749
0.99976863
0.99976289
0.99975766
0.99975286
0.99974857
1.0000779
1.000077
1.0000761
1.000075
1.0000738
1.0000725
1.000071
1.0000693
1.0000673
1.0000651
1.0000627
1.0000599
1.0000567
1.0000532
1.0000492
1.0000447
1.0000397
1.0000341
1.0000279
1.0000211
1.0000136
1.0000055
0.99999668
0.99998727
0.99997729
0.99996681
0.99995587
0.99994452
0.99993283
0.99992091
0.99990887
0.99989682
0.99988485
0.99987307
0.99986155
0.99985039
0.99983968
0.99982949
0.99981986
0.99981085
0.99980247
0.9997947
0.99978754
0.99978099
0.999775
0.99976953
0.99976457
0.99976004
0.99975599
1.000073
1.0000722
1.0000712
1.0000702
1.0000691
1.0000678
1.0000663
1.0000646
1.0000628
1.0000607
1.0000583
1.0000556
1.0000525
1.0000491
1.0000452
1.0000409
1.000036
1.0000306
1.0000247
1.0000181
1.0000109
1.0000031
0.99999462
0.99998558
0.99997599
0.99996593
0.99995543
0.99994453
0.9999333
0.99992185
0.99991029
0.9998987
0.99988718
0.99987581
0.99986467
0.99985387
0.99984349
0.99983362
0.99982429
0.99981557
0.99980746
0.99979996
0.99979306
0.99978674
0.99978098
0.99977574
0.99977099
0.99976665
0.99976278
1.0000682
1.0000674
1.0000665
1.0000655
1.0000644
1.0000632
1.0000618
1.0000602
1.0000584
1.0000563
1.000054
1.0000514
1.0000485
1.0000452
1.0000415
1.0000373
1.0000326
1.0000274
1.0000217
1.0000153
1.0000084
1.0000009
0.99999281
0.99998413
0.99997493
0.99996528
0.99995521
0.99994475
0.99993398
0.999923
0.9999119
0.99990075
0.99988964
0.99987865
0.99986786
0.99985737
0.9998473
0.9998377
0.99982864
0.99982016
0.99981229
0.99980501
0.99979833
0.99979223
0.99978668
0.99978165
0.99977711
0.99977299
0.99976934
1.0000635
1.0000628
1.0000619
1.000061
1.0000599
1.0000587
1.0000574
1.0000558
1.0000541
1.0000522
1.00005
1.0000475
1.0000446
1.0000415
1.0000379
1.0000339
1.0000294
1.0000244
1.0000189
1.0000128
1.0000062
0.99999899
0.99999122
0.99998291
0.9999741
0.99996485
0.99995521
0.9999452
0.99993487
0.99992435
0.9999137
0.99990298
0.99989225
0.99988159
0.99987112
0.99986092
0.99985112
0.99984176
0.99983293
0.99982466
0.99981697
0.99980986
0.99980334
0.99979739
0.99979198
0.99978707
0.99978264
0.99977861
0.99977504
1.000059
1.0000583
1.0000575
1.0000566
1.0000556
1.0000544
1.0000531
1.0000517
1.00005
1.0000481
1.000046
1.0000436
1.000041
1.0000379
1.0000345
1.0000307
1.0000264
1.0000216
1.0000163
1.0000105
1.0000042
0.99999728
0.99998985
0.9999819
0.99997348
0.99996464
0.99995543
0.99994584
0.99993597
0.9999259
0.99991569
0.99990537
0.99989499
0.99988466
0.99987448
0.99986455
0.99985499
0.99984585
0.9998372
0.99982908
0.99982153
0.99981455
0.99980815
0.99980232
0.99979703
0.99979227
0.999788
0.99978416
0.99978077
1.0000547
1.000054
1.0000532
1.0000524
1.0000514
1.0000503
1.0000491
1.0000476
1.0000461
1.0000443
1.0000422
1.00004
1.0000374
1.0000345
1.0000313
1.0000276
1.0000236
1.000019
1.000014
1.0000084
1.0000024
0.99999578
0.99998868
0.99998109
0.99997306
0.99996463
0.99995584
0.99994669
0.99993727
0.99992766
0.99991787
0.99990793
0.99989789
0.99988786
0.99987797
0.9998683
0.99985896
0.99985
0.99984149
0.99983348
0.999826
0.99981906
0.99981268
0.99980686
0.99980157
0.99979678
0.99979247
0.99978856
0.99978512
1.0000505
1.0000499
1.0000492
1.0000483
1.0000474
1.0000463
1.0000451
1.0000438
1.0000423
1.0000405
1.0000386
1.0000365
1.000034
1.0000313
1.0000282
1.0000248
1.0000209
1.0000166
1.0000118
1.0000065
1.0000007
0.99999446
0.9999877
0.99998048
0.99997284
0.99996482
0.99995646
0.99994774
0.99993877
0.99992961
0.99992024
0.99991066
0.99990095
0.99989124
0.99988163
0.99987223
0.99986309
0.99985428
0.99984586
0.99983788
0.9998304
0.99982344
0.99981704
0.99981121
0.99980594
0.99980122
0.99979702
0.99979329
0.99979003
1.0000466
1.000046
1.0000453
1.0000445
1.0000436
1.0000426
1.0000414
1.0000401
1.0000386
1.000037
1.0000352
1.0000331
1.0000308
1.0000282
1.0000253
1.000022
1.0000184
1.0000143
1.0000098
1.0000047
0.99999926
0.99999332
0.99998691
0.99998005
0.99997279
0.99996518
0.99995725
0.99994897
0.99994047
0.99993177
0.9999228
0.99991358
0.99990421
0.99989484
0.99988554
0.99987639
0.99986744
0.99985873
0.99985033
0.99984232
0.99983474
0.99982765
0.99982107
0.99981504
0.99980954
0.99980455
0.99980006
0.99979599
0.99979241
1.0000428
1.0000423
1.0000416
1.0000408
1.00004
1.000039
1.0000379
1.0000366
1.0000352
1.0000336
1.0000319
1.0000299
1.0000277
1.0000252
1.0000225
1.0000194
1.000016
1.0000122
1.0000079
1.0000032
0.99999797
0.99999234
0.99998627
0.99997978
0.99997291
0.99996572
0.99995822
0.99995038
0.99994235
0.99993411
0.99992554
0.99991668
0.9999077
0.99989871
0.99988975
0.99988086
0.99987207
0.99986343
0.999855
0.99984687
0.99983911
0.99983181
0.99982502
0.99981881
0.99981319
0.99980819
0.99980379
0.99979997
0.99979665
1.0000392
1.0000387
1.0000381
1.0000373
1.0000365
1.0000356
1.0000345
1.0000333
1.000032
1.0000305
1.0000288
1.0000269
1.0000247
1.0000224
1.0000198
1.000017
1.0000138
1.0000102
1.0000062
1.0000017
0.99999683
0.99999153
0.9999858
0.99997969
0.99997321
0.99996643
0.99995936
0.99995197
0.99994443
0.99993664
0.99992845
0.99991999
0.99991145
0.99990289
0.9998943
0.99988567
0.99987704
0.99986843
0.99985993
0.9998516
0.99984356
0.99983586
0.99982861
0.99982185
0.99981562
0.99980993
0.99980477
0.99980008
0.99979595
1.0000358
1.0000353
1.0000347
1.000034
1.0000332
1.0000323
1.0000313
1.0000301
1.0000289
1.0000274
1.0000258
1.000024
1.000022
1.0000198
1.0000173
1.0000146
1.0000117
1.0000084
1.0000046
1.0000004
0.99999585
0.99999087
0.9999855
0.99997975
0.99997368
0.99996732
0.99996069
0.99995377
0.99994673
0.99993939
0.99993159
0.9999236
0.99991556
0.99990747
0.99989926
0.99989091
0.99988243
0.99987385
0.99986523
0.99985667
0.99984827
0.99984015
0.99983243
0.99982524
0.9998187
0.99981288
0.99980781
0.99980353
0.99979989
1.0000324
1.0000319
1.0000313
1.0000307
1.0000299
1.0000291
1.0000281
1.0000271
1.0000259
1.0000245
1.000023
1.0000213
1.0000194
1.0000173
1.000015
1.0000125
1.0000097
1.0000066
1.0000032
0.99999929
0.99999499
0.99999033
0.9999853
0.99997992
0.99997422
0.99996829
0.99996211
0.99995568
0.99994917
0.99994228
0.99993492
0.99992751
0.99992007
0.99991251
0.99990474
0.99989672
0.99988844
0.99987991
0.99987117
0.99986229
0.99985337
0.99984452
0.99983587
0.99982754
0.99981965
0.99981225
0.99980543
0.99979914
0.99979361
1.0000293
1.0000287
1.0000281
1.0000275
1.0000267
1.0000259
1.000025
1.000024
1.0000229
1.0000217
1.0000203
1.0000188
1.000017
1.000015
1.0000128
1.0000104
1.0000078
1.000005
1.0000018
0.99999822
0.99999421
0.99998985
0.99998515
0.99998011
0.99997479
0.99996926
0.9999635
0.99995753
0.99995153
0.99994504
0.99993818
0.99993147
0.99992468
0.99991773
0.99991049
0.99990294
0.99989501
0.9998867
0.99987797
0.99986888
0.9998595
0.99984996
0.99984046
0.99983124
0.99982256
0.99981473
0.99980792
0.99980234
0.9997978
1.0000261
1.0000255
1.0000249
1.0000242
1.0000235
1.0000227
1.0000219
1.000021
1.00002
1.0000189
1.0000177
1.0000164
1.0000148
1.000013
1.0000109
1.0000086
1.0000061
1.0000035
1.0000006
0.99999732
0.99999363
0.99998962
0.99998529
0.99998068
0.9999758
0.99997071
0.99996538
0.99995989
0.99995436
0.99994817
0.99994187
0.99993585
0.99992962
0.99992324
0.99991652
0.99990947
0.99990194
0.99989392
0.99988527
0.99987602
0.99986614
0.99985568
0.99984472
0.99983339
0.99982184
0.99981043
0.9997993
0.99978885
0.99977935
1.0000229
1.0000224
1.0000217
1.0000211
1.0000204
1.0000197
1.0000189
1.000018
1.0000171
1.0000162
1.0000151
1.0000138
1.0000124
1.0000108
1.000009
1.0000069
1.0000046
1.0000021
0.99999953
0.9999966
0.99999331
0.99998973
0.99998587
0.99998176
0.99997742
0.99997288
0.99996813
0.99996329
0.99995837
0.99995274
0.99994723
0.99994211
0.99993648
0.99993083
0.99992467
0.99991825
0.99991116
0.99990353
0.99989495
0.99988557
0.99987504
0.99986355
0.99985112
0.99983817
0.99982541
0.99981358
0.99980293
0.99979487
0.99978748
1.0000196
1.0000188
1.000018
1.0000172
1.0000165
1.0000158
1.0000152
1.0000145
1.0000138
1.0000131
1.0000122
1.0000113
1.0000101
1.0000088
1.0000073
1.0000054
1.0000032
1.0000008
0.99999836
0.99999564
0.99999257
0.99998916
0.99998547
0.99998148
0.99997731
0.99997305
0.9999687
0.99996437
0.99995994
0.99995499
0.9999506
0.99994646
0.99994184
0.99993738
0.99993235
0.99992719
0.99992128
0.99991489
0.99990739
0.99989897
0.99988889
0.99987715
0.99986335
0.99984722
0.99982971
0.99980839
0.99978474
0.99975915
0.99973167
1.000015
1.000014
1.0000134
1.000013
1.0000127
1.0000124
1.0000121
1.0000118
1.0000115
1.0000111
1.0000106
1.00001
1.0000091
1.0000079
1.0000064
1.0000046
1.0000023
0.99999971
0.99999711
0.99999433
0.9999912
0.99998769
0.99998381
0.99997963
0.99997525