/*--------------------------------*- C++ -*----------------------------------*\
| =========                 |                                                 |
| \\      /  F ield         | OpenFOAM: The Open Source CFD Toolbox           |
|  \\    /   O peration     | Version:  v2006                                 |
|   \\  /    A nd           | Website:  www.openfoam.com                      |
|    \\/     M anipulation  |                                                 |
\*---------------------------------------------------------------------------*/
FoamFile
{
    version     2.0;
    format      ascii;
    class       volVectorField;
    location    "2000";
    object      U;
}
// * * * * * * * * * * * * * * * * * * * * * * * * * * * * * * * * * * * * * //

dimensions      [0 1 -1 0 0 0 0];


internalField   nonuniform List<vector> 
19765
(
(0.087602321 0.028570056 -9.1807145e-20)
(0.084804046 0.03149271 9.236493e-20)
(0.077946885 0.033279058 -9.4735277e-20)
(0.070205981 0.033482245 0)
(0.063558148 0.032667533 0)
(0.057522611 0.031008901 2.3291889e-19)
(0.051325142 0.0285573 -1.8601667e-19)
(0.045745077 0.025783767 0)
(0.040308892 0.022453356 4.7039779e-19)
(0.034451265 0.018377067 4.0051117e-20)
(0.029646576 0.01411064 -8.0651877e-19)
(0.025867319 0.0095766575 8.029948e-19)
(0.022502514 0.0048455772 -9.0549887e-19)
(0.019672742 -3.1801266e-05 -1.0471542e-18)
(0.01762211 -0.0050386899 1.2326353e-18)
(0.016026356 -0.010304091 0)
(0.01467458 -0.015405447 -2.2914211e-20)
(0.013744088 -0.020507638 1.8069356e-20)
(0.013233115 -0.025748952 -9.4453493e-19)
(0.013135735 -0.031085001 7.9206769e-19)
(0.013448395 -0.036564193 -3.4015475e-19)
(0.014133445 -0.041917708 5.8897514e-19)
(0.015208592 -0.047125588 -2.6654295e-19)
(0.016749576 -0.052576784 1.1239942e-20)
(0.018720017 -0.058013282 -5.4893879e-20)
(0.020876609 -0.062654994 4.3247596e-20)
(0.023222726 -0.066799789 -1.9093905e-19)
(0.026018841 -0.071302216 1.8150449e-19)
(0.029097259 -0.075651881 0)
(0.032286092 -0.079473126 3.3444299e-19)
(0.035848707 -0.083363936 -3.1882346e-19)
(0.039988379 -0.087404013 6.1143157e-19)
(0.045323506 -0.091667966 -5.8987038e-19)
(0.051159096 -0.09541765 2.8429382e-19)
(0.056069803 -0.097714573 -2.8009973e-19)
(0.060689228 -0.099486755 -2.6567447e-19)
(0.066804192 -0.10170723 1.8808312e-22)
(0.073376338 -0.10347956 5.1641517e-19)
(0.079404349 -0.10430311 -2.724034e-19)
(0.08710355 -0.10519191 -2.4719855e-19)
(0.096049277 -0.10561511 2.4186156e-19)
(0.1021379 -0.10411575 -1.507385e-20)
(0.10752801 -0.10173641 -2.9727683e-20)
(0.11277066 -0.098616662 1.193861e-19)
(0.11587637 -0.094570104 -2.7036962e-19)
(0.11831111 -0.089760506 1.2087936e-19)
(0.11831086 -0.084351527 0)
(0.11714527 -0.078893908 -1.271014e-19)
(0.11582328 -0.073987246 0)
(0.079075186 0.01653815 1.4970536e-19)
(0.076046354 0.019159653 1.4414561e-19)
(0.072496789 0.021269878 -6.8502163e-20)
(0.068660961 0.022069518 6.8009725e-20)
(0.064776817 0.021963512 -3.3601325e-19)
(0.061075317 0.021153451 2.663694e-19)
(0.057490179 0.019825357 -3.2568826e-20)
(0.054190957 0.018107903 2.5839961e-19)
(0.051050452 0.01600551 3.1530585e-20)
(0.04790288 0.013668855 -2.9561918e-19)
(0.044982199 0.010969568 1.575254e-20)
(0.042471823 0.0078497383 4.7807041e-19)
(0.040244145 0.004368032 -7.7304076e-19)
(0.038331801 0.00065052423 2.3068002e-19)
(0.036906223 -0.0032608998 -2.7035697e-19)
(0.035771566 -0.0073605472 3.1185278e-19)
(0.03476197 -0.011618321 -1.8077105e-20)
(0.03409529 -0.01599061 0)
(0.033874396 -0.020453734 1.9595312e-20)
(0.034061176 -0.024971129 -2.980839e-19)
(0.034613782 -0.029491718 2.6010486e-19)
(0.03543117 -0.03404657 2.02694e-20)
(0.03658637 -0.038576393 7.5995433e-21)
(0.038158144 -0.042992192 -1.0708021e-20)
(0.039993581 -0.04731213 -2.7027404e-20)
(0.041935393 -0.051630435 2.2590271e-20)
(0.044093784 -0.05586707 9.2431006e-20)
(0.04657571 -0.059912544 -2.951844e-19)
(0.049309602 -0.063825531 3.648579e-19)
(0.052276199 -0.067584389 -1.7612614e-19)
(0.055533975 -0.071091422 1.0618551e-20)
(0.059151683 -0.074254283 0)
(0.063112514 -0.076940252 1.6916966e-19)
(0.067224945 -0.079226416 -7.1500064e-23)
(0.071379492 -0.081262132 -1.5666772e-19)
(0.075671766 -0.083008293 -1.734385e-19)
(0.080164789 -0.084279819 6.9986621e-23)
(0.08476162 -0.085044123 -1.3342216e-19)
(0.089417002 -0.085299773 1.423998e-19)
(0.094142694 -0.084871885 1.5090379e-19)
(0.098790561 -0.083607578 1.7339044e-19)
(0.10332422 -0.081557939 -3.1935441e-19)
(0.10775759 -0.079127966 1.8244756e-19)
(0.11203673 -0.076040045 -2.1170883e-20)
(0.11595575 -0.072937955 -8.7135136e-20)
(0.11946431 -0.069710377 1.8024837e-19)
(0.12249897 -0.066575235 -1.3999017e-19)
(0.12505194 -0.063890356 -4.8152706e-20)
(0.12725597 -0.061350596 9.9175358e-20)
(0.082848319 0.015770528 8.1445191e-20)
(0.080558712 0.015909197 4.3334169e-24)
(0.077898511 0.015879902 1.5874268e-19)
(0.075009298 0.015730137 -1.9475003e-24)
(0.072139475 0.015197013 -2.4932927e-19)
(0.069312411 0.014372427 3.4293687e-19)
(0.066577308 0.013239318 -8.7208482e-20)
(0.06395683 0.011918491 0)
(0.061488676 0.010300234 0)
(0.059010103 0.0085145471 4.7888028e-20)
(0.056704607 0.0064489018 0)
(0.054647207 0.0040467251 5.3193416e-20)
(0.052786168 0.0013525094 5.0718732e-19)
(0.051176926 -0.0015615811 6.0606188e-19)
(0.049924196 -0.0046821417 -1.0525247e-18)
(0.048906852 -0.0079972778 -3.0707658e-23)
(0.048039842 -0.011473797 4.0341837e-20)
(0.047447177 -0.015091551 -7.4229491e-19)
(0.047185167 -0.018845935 8.265362e-19)
(0.047269505 -0.022682326 0)
(0.047681774 -0.026548662 5.0891073e-20)
(0.048322456 -0.030500597 -1.4867753e-23)
(0.049317272 -0.034446532 -1.7804273e-20)
(0.050679848 -0.038318972 -3.0867665e-20)
(0.05226294 -0.042112865 1.0891257e-19)
(0.053973645 -0.045901587 -1.2409988e-20)
(0.055973112 -0.049611861 -1.6906032e-19)
(0.058297365 -0.053156359 5.1820805e-19)
(0.06082646 -0.056591489 -3.0991984e-19)
(0.063596752 -0.05987053 3.6337355e-20)
(0.066622243 -0.062910275 2.570304e-19)
(0.069876869 -0.065659005 -5.5338789e-19)
(0.073349752 -0.06802156 -2.6413894e-19)
(0.076873293 -0.070144074 4.83456e-19)
(0.080447211 -0.072095942 4.6983204e-19)
(0.084140832 -0.073731396 -4.2524023e-19)
(0.087945549 -0.074923121 0)
(0.091742669 -0.075834461 1.8883488e-19)
(0.095568889 -0.076384761 -2.1053376e-19)
(0.099374013 -0.076449857 2.3099786e-19)
(0.10304909 -0.076229733 -2.3043561e-19)
(0.10655646 -0.075937463 0)
(0.10996419 -0.075252913 0)
(0.11308164 -0.074297497 2.5679226e-20)
(0.11599181 -0.073144658 0)
(0.11856431 -0.0719626 -5.1144451e-20)
(0.12088737 -0.070671401 2.0204837e-19)
(0.12300768 -0.069294843 -9.9952511e-20)
(0.12496386 -0.067776097 0)
(0.081893064 0.011144655 -8.5722541e-20)
(0.080235407 0.011259517 -2.5462947e-19)
(0.078520988 0.011196245 8.2651203e-20)
(0.076717505 0.011010412 -4.2287121e-19)
(0.074893267 0.010536991 3.4501795e-19)
(0.073076077 0.0098431192 3.5571245e-19)
(0.071286141 0.008904943 -2.7097798e-19)
(0.069558487 0.0078264347 3.755371e-19)
(0.067875926 0.0064924142 4.8968331e-23)
(0.066194097 0.0050532845 -8.9049233e-19)
(0.064601493 0.0034102618 5.1785452e-19)
(0.063148202 0.0015015493 0)
(0.061811168 -0.00064352767 -5.7188674e-20)
(0.060645107 -0.002955821 -1.0354342e-18)
(0.059721718 -0.0054665172 1.1775693e-18)
(0.058968242 -0.0081741624 1.0631193e-18)
(0.058337464 -0.011009927 -2.5028006e-18)
(0.057922502 -0.013969724 1.4163171e-18)
(0.057782689 -0.017084841 -8.2634239e-19)
(0.057930337 -0.020275889 1.0086686e-18)
(0.058362786 -0.023486113 0)
(0.059005217 -0.026800408 -5.7457709e-19)
(0.059923679 -0.030107206 6.7034039e-19)
(0.061125431 -0.033367134 -3.6801146e-19)
(0.062533363 -0.036573528 6.182336e-20)
(0.06409629 -0.039778215 -7.360889e-24)
(0.06590753 -0.042904829 -1.9498623e-19)
(0.067978971 -0.045874672 5.3467189e-19)
(0.070230651 -0.048725992 -3.3227228e-19)
(0.072679104 -0.051415 -3.5076383e-19)
(0.075316028 -0.053873384 2.9496857e-19)
(0.078106727 -0.056070198 6.6768348e-19)
(0.081021137 -0.057942831 -1.7931455e-22)
(0.083959951 -0.059599541 -5.9326218e-19)
(0.086943521 -0.061088537 4.5135158e-19)
(0.089997203 -0.062311986 -5.014708e-19)
(0.093069696 -0.063183832 4.8841355e-19)
(0.096092779 -0.063822367 -9.6638473e-19)
(0.099102985 -0.064188465 5.0329364e-19)
(0.10203478 -0.064210349 2.0290047e-19)
(0.10483111 -0.064003212 -2.3173275e-19)
(0.10757375 -0.063698719 -5.8268197e-20)
(0.11031433 -0.06311882 2.2845533e-19)
(0.11291647 -0.062419709 -2.318262e-19)
(0.11549228 -0.061496851 0)
(0.1179688 -0.060412181 1.15251e-19)
(0.12043208 -0.059215861 -5.6987753e-20)
(0.12284067 -0.057961929 0)
(0.12520332 -0.056702754 0)
(0.082850508 0.0089724729 -8.0055398e-20)
(0.081523306 0.0085962607 -2.3726363e-19)
(0.080159357 0.0081762841 3.0777255e-19)
(0.078763459 0.0077630006 7.833688e-20)
(0.077376555 0.0071977561 2.3853945e-19)
(0.076005578 0.006516264 -2.4430799e-19)
(0.07465926 0.0056799408 2.4687888e-19)
(0.073358695 0.0047534186 -4.2416043e-19)
(0.072093647 0.0036392294 -8.6047159e-20)
(0.070830159 0.0024393524 1.7617335e-19)
(0.069632991 0.0010730377 -8.2135366e-19)
(0.068533756 -0.00050851668 8.5245865e-19)
(0.067519559 -0.002288027 9.8410301e-20)
(0.066631635 -0.0042203681 8.2695091e-19)
(0.065922162 -0.0063319597 -1.0927965e-19)
(0.065345203 -0.0086160575 -9.2968199e-19)
(0.064873174 -0.011021783 0)
(0.064575994 -0.013555282 0)
(0.064502702 -0.016241775 0)
(0.064667718 -0.019031025 -5.3850751e-19)
(0.065072357 -0.021881703 8.0556846e-19)
(0.06567298 -0.024809117 -8.2365913e-19)
(0.066513008 -0.02772582 5.1800217e-19)
(0.06760788 -0.030615303 -6.22984e-20)
(0.068902036 -0.033463125 1.0474021e-23)
(0.070349532 -0.036297993 2.4294774e-20)
(0.072008397 -0.039051314 4.3959739e-20)
(0.073885387 -0.041667893 -8.0795475e-20)
(0.075919409 -0.044177039 2.2688745e-19)
(0.078112573 -0.046534199 -2.8548163e-19)
(0.080452007 -0.048688419 0)
(0.082905677 -0.050620822 -5.8506117e-19)
(0.085444871 -0.052283514 1.0033267e-18)
(0.087993301 -0.053768234 -4.3030619e-19)
(0.090555907 -0.055106933 -4.2243245e-19)
(0.093147455 -0.05622195 1.4181651e-22)
(0.095733403 -0.057054398 9.2306423e-19)
(0.098261617 -0.057716208 -4.5803044e-19)
(0.10075432 -0.058173855 0)
(0.10317754 -0.058376102 0)
(0.10549561 -0.05843722 -1.6635469e-19)
(0.10775198 -0.058490228 2.2350468e-19)
(0.10999244 -0.058337643 5.4976457e-20)
(0.11213186 -0.058185375 3.3490343e-19)
(0.11425836 -0.057894405 -5.5272296e-20)
(0.1163123 -0.057584291 -2.7934551e-19)
(0.11833323 -0.057212828 5.581975e-20)
(0.12031772 -0.056694974 0)
(0.12226288 -0.055993648 -3.6302685e-23)
(0.083620746 0.0066863715 4.1975062e-24)
(0.082634197 0.0063159599 -5.781815e-24)
(0.081628657 0.0058887651 0)
(0.08060044 0.0054453374 -3.6190218e-19)
(0.079582038 0.0048831736 7.3102512e-20)
(0.078572828 0.004229294 2.2346799e-19)
(0.077574297 0.0034571264 7.4944518e-20)
(0.076605128 0.0026106402 1.5354239e-19)
(0.075654458 0.0016193119 7.7489656e-20)
(0.074699394 0.00055134034 -1.576082e-19)
(0.07379271 -0.00065202056 0)
(0.072959751 -0.0020275585 -2.5009016e-19)
(0.07219177 -0.0035660261 -8.5863312e-20)
(0.071522166 -0.005237914 1.7839731e-19)
(0.070993823 -0.0070619797 0)
(0.070575199 -0.0090342645 -1.95589e-19)
(0.070248207 -0.011120472 1.0379025e-18)
(0.07006978 -0.013323713 -8.9518316e-19)
(0.070082496 -0.015657442 0)
(0.07030159 -0.018081161 9.634767e-19)
(0.070736521 -0.020560006 -1.2754149e-18)
(0.07135475 -0.023098985 7.8428839e-19)
(0.072177264 -0.025640293 -4.539119e-19)
(0.073224951 -0.028170614 1.1010805e-19)
(0.074454705 -0.030665144 -9.6645175e-20)
(0.075829703 -0.033139974 -1.3022355e-19)
(0.077387612 -0.035539896 1.1853196e-19)
(0.079131052 -0.037818262 3.6499516e-19)
(0.0810133 -0.039992148 -6.1771424e-19)
(0.083028709 -0.042026897 1.3142972e-22)
(0.085160901 -0.043883124 4.9724397e-19)
(0.087381098 -0.045545644 4.7851591e-19)
(0.089662143 -0.046979577 -4.6363641e-19)
(0.091947457 -0.048249446 -1.138967e-19)
(0.094237299 -0.049380808 0)
(0.096535646 -0.050323904 4.3969326e-19)
(0.098813473 -0.051040604 -1.0852069e-22)
(0.10103426 -0.051606064 -4.2944669e-19)
(0.10321318 -0.052002922 0)
(0.10532608 -0.052201574 0)
(0.10735304 -0.052274841 -1.0464964e-19)
(0.10932531 -0.052302106 5.2712349e-20)
(0.1112884 -0.052169425 -5.1965646e-20)
(0.11317939 -0.051992892 -5.2733005e-19)
(0.11507703 -0.05169166 4.7007432e-19)
(0.11694331 -0.051324619 0)
(0.11882846 -0.050865077 -5.2712145e-20)
(0.12072549 -0.050313434 0)
(0.12262933 -0.049634854 2.0770372e-19)
(0.084692404 0.005169538 6.9311704e-20)
(0.08388879 0.0047087197 -1.365887e-19)
(0.083075046 0.0042258597 -2.6554617e-19)
(0.08225528 0.0037470914 5.3664235e-19)
(0.081453094 0.0031872634 -4.0540799e-19)
(0.080665211 0.0025627718 0)
(0.079888748 0.0018497316 5.5011674e-19)
(0.079137989 0.0010768122 -7.0072935e-20)
(0.078402748 0.00018878 3.3097189e-23)
(0.077665035 -0.00076745697 -9.2696234e-19)
(0.076967247 -0.0018378623 -2.8728076e-23)
(0.076329116 -0.0030517148 5.9558812e-19)
(0.075744519 -0.0044041294 6.089024e-19)
(0.075240579 -0.0058747566 -1.4117081e-18)
(0.074852339 -0.0074782259 6.4943292e-19)
(0.074558004 -0.0092124735 8.4321681e-19)
(0.074346443 -0.011052582 -1.5913098e-18)
(0.074263825 -0.013000108 1.9085587e-23)
(0.074345374 -0.01506347 6.0758797e-19)
(0.074604837 -0.017210839 -8.8937425e-19)
(0.07505006 -0.019416256 7.5098827e-19)
(0.075658564 -0.021675547 5.1627067e-19)
(0.076445454 -0.023938464 2.2707903e-19)
(0.077432616 -0.026194921 -1.9446425e-19)
(0.078584888 -0.028422866 1.3413495e-21)
(0.079873075 -0.030631222 -7.7542235e-20)
(0.081323497 -0.032772472 0)
(0.082934904 -0.034807792 1.3182808e-19)
(0.084668658 -0.036750447 -1.2450921e-19)
(0.086516432 -0.038570462 1.1853773e-19)
(0.088461508 -0.040235728 0)
(0.090478515 -0.041735322 0)
(0.092542227 -0.043041101 4.2784952e-19)
(0.094606894 -0.044208068 -4.2176886e-19)
(0.096669531 -0.045257306 -4.1642761e-19)
(0.098730798 -0.046148001 8.1924119e-19)
(0.10076711 -0.04684949 -9.444298e-23)
(0.10275187 -0.047429583 -1.006125e-19)
(0.10469526 -0.047873169 -3.9792718e-19)
(0.10658044 -0.04815331 -3.9319046e-19)
(0.10839379 -0.04833604 4.4365633e-19)
(0.11016201 -0.048500483 0)
(0.11191525 -0.048533037 -1.9618191e-19)
(0.11361634 -0.048557032 1.9895844e-19)
(0.11531961 -0.048484938 -1.9718272e-19)
(0.11700357 -0.048386921 9.961131e-20)
(0.11870216 -0.048231172 0)
(0.1204151 -0.048012565 1.9835689e-19)
(0.12215188 -0.047674697 -1.9609948e-19)
(0.085680463 0.0037886774 -1.9377946e-19)
(0.085050533 0.0033468952 1.2722497e-19)
(0.084411485 0.0028813551 2.4736575e-19)
(0.083767168 0.0024120847 -1.2463379e-19)
(0.083139062 0.0018770055 -3.7573211e-19)
(0.082523075 0.0012878809 7.6017663e-19)
(0.081915874 0.00062641295 -8.8693857e-19)
(0.081329638 -8.7616326e-05 5.1453773e-19)
(0.080755906 -0.00089629926 -1.2887317e-19)
(0.080180521 -0.001767424 -1.298908e-19)
(0.079639409 -0.0027360975 -5.2784592e-19)
(0.079148726 -0.0038253283 9.5190295e-24)
(0.078704105 -0.0050331195 -1.4530231e-23)
(0.078328077 -0.0063454023 8.3710312e-19)
(0.078050053 -0.007772938 0)
(0.077854516 -0.0093151067 -2.9530902e-19)
(0.077734857 -0.010954235 0)
(0.077729783 -0.012690287 3.2234257e-19)
(0.077869139 -0.014527569 -1.7144079e-19)
(0.078165743 -0.016440076 0)
(0.078627236 -0.018406566 -4.8433691e-23)
(0.079239318 -0.020420049 -2.1715765e-19)
(0.080012056 -0.022438393 0)
(0.080963496 -0.024452707 -1.7238665e-19)
(0.082065802 -0.026442794 7.5370053e-20)
(0.083295008 -0.028412168 3.4746846e-20)
(0.084669144 -0.030320301 0)
(0.086184899 -0.032133147 -1.1934577e-19)
(0.087810156 -0.033859326 -1.1313826e-19)
(0.089534908 -0.035474037 -1.0820156e-19)
(0.091342269 -0.036950732 0)
(0.093209203 -0.038280346 -2.0240226e-19)
(0.095112475 -0.039440458 0)
(0.097014864 -0.040473933 -9.7613788e-20)
(0.098912247 -0.041398271 8.5951837e-23)
(0.10080223 -0.042183562 8.3239528e-23)
(0.10266431 -0.042807195 3.7725645e-19)
(0.10447784 -0.043321138 4.7055642e-19)
(0.10625038 -0.043715638 -7.4118454e-23)
(0.10796808 -0.043971531 -6.9834602e-23)
(0.10962165 -0.044137675 -7.4256985e-19)
(0.11123248 -0.044271684 6.7786878e-23)
(0.11282796 -0.044292863 3.7022541e-19)
(0.11437761 -0.04428675 1.8756289e-19)
(0.11593015 -0.044191786 -1.8614401e-19)
(0.11746829 -0.0440531 9.3944945e-20)
(0.11902473 -0.043846115 9.3838897e-20)
(0.12060159 -0.043564566 -1.8712328e-19)
(0.12220868 -0.043171729 2.7760136e-19)
(0.086686973 0.002767547 1.2050102e-19)
(0.086172688 0.0023247917 -4.1527506e-19)
(0.085651551 0.0018670249 0)
(0.085129282 0.0014082144 -4.6428455e-19)
(0.084623762 0.00089732228 9.3108887e-19)
(0.084130931 0.00034192971 -4.6963864e-19)
(0.083646982 -0.0002735661 -1.1717289e-19)
(0.083182215 -0.00093552773 1.1852788e-19)
(0.082729363 -0.0016775425 2.3685945e-19)
(0.082277073 -0.0024767449 0)
(0.081855826 -0.0033610491 0)
(0.081479051 -0.0043491014 -1.2166011e-19)
(0.081143608 -0.0054404503 0)
(0.080868526 -0.0066249797 -2.5045366e-19)
(0.080678737 -0.0079109837 0)
(0.080563009 -0.0092986642 -7.8480397e-19)
(0.080517698 -0.010774848 5.3929085e-19)
(0.080575576 -0.012338422 -5.6176833e-19)
(0.080762018 -0.013991238 8.8756853e-19)
(0.081088533 -0.015711804 6.3192803e-19)
(0.081561813 -0.017482639 -5.1554775e-19)
(0.082172416 -0.019295906 1.8587565e-19)
(0.082927842 -0.02111478 -1.7664637e-19)
(0.083842992 -0.022930021 1.4626572e-23)
(0.084895828 -0.0247245 6.8502996e-20)
(0.086066401 -0.02649893 -6.2459701e-20)
(0.08736747 -0.028218257 0)
(0.088794333 -0.029852845 1.082255e-19)
(0.090319573 -0.03140911 1.0300922e-19)
(0.091932727 -0.032865963 0)
(0.093617534 -0.034201056 -1.912774e-19)
(0.095353341 -0.035407292 3.7272186e-19)
(0.09711887 -0.036466245 0)
(0.098882971 -0.037414253 -9.0445719e-19)
(0.10064078 -0.038266265 7.1842621e-19)
(0.1023886 -0.038997662 0)
(0.10410842 -0.039589737 3.5228399e-19)
(0.10578416 -0.040087873 -3.5229038e-19)
(0.10742104 -0.040483704 0)
(0.10900765 -0.040760224 2.6070524e-19)
(0.11053686 -0.040960386 -3.4923579e-19)
(0.11202821 -0.041137676 0)
(0.11350052 -0.041216694 8.7202047e-20)
(0.11493447 -0.041280288 -3.5326218e-19)
(0.11636643 -0.041268743 3.5089948e-19)
(0.11778626 -0.041229005 3.5403107e-19)
(0.11921978 -0.04113765 -4.4201464e-19)
(0.1206703 -0.040991357 4.4079025e-19)
(0.12214732 -0.040745214 -4.3611001e-19)
(0.087627515 0.0018786006 -5.6281065e-20)
(0.087213055 0.001462059 1.1084315e-19)
(0.086792022 0.0010305005 2.1568032e-19)
(0.086369689 0.00059421992 5.4140478e-19)
(0.085962586 0.0001136124 -5.4187169e-19)
(0.085566918 -0.0004063622 -4.3629168e-19)
(0.085179514 -0.00097837528 9.777e-19)
(0.084809322 -0.0015930282 -5.4784661e-19)
(0.084450612 -0.002276856 -5.4603055e-19)
(0.084094152 -0.0030138842 8.7453325e-19)
(0.08376642 -0.0038261678 -4.405792e-19)
(0.083478889 -0.0047287894 2.2196877e-19)
(0.083229402 -0.0057222854 2.23472e-19)
(0.083034275 -0.0067993312 9.0505729e-19)
(0.082914985 -0.0079661429 -9.1902562e-19)
(0.08286334 -0.0092234339 0)
(0.082877713 -0.01056142 0)
(0.082986278 -0.011978202 4.476733e-23)
(0.083210867 -0.013473864 0)
(0.083561829 -0.015030339 5.4726805e-19)
(0.084045349 -0.016632473 -5.8855702e-19)
(0.08465558 -0.018272401 6.4469377e-19)
(0.085398344 -0.019918292 -3.1409407e-19)
(0.086285433 -0.021560057 4.8034939e-19)
(0.087299388 -0.023183128 -6.1553879e-20)
(0.088423003 -0.024786244 -1.1266671e-19)
(0.089665191 -0.026338697 -1.0456948e-19)
(0.091020498 -0.027814141 -2.9525751e-19)
(0.092465273 -0.029216836 -5.6383158e-19)
(0.093988882 -0.030528757 1.8109128e-19)
(0.095575687 -0.031730671 1.7575743e-19)
(0.097206841 -0.032816498 -1.7180473e-19)
(0.098862729 -0.033770835 -6.7544029e-19)
(0.10051683 -0.034623414 1.3416998e-18)
(0.10216389 -0.0353869 -6.6763557e-19)
(0.10379896 -0.036041758 0)
(0.10540566 -0.036572995 -4.9376577e-19)
(0.10697069 -0.037017762 4.9466995e-19)
(0.10849771 -0.037370051 1.6423398e-19)
(0.10997643 -0.037616509 -2.4513819e-19)
(0.11140126 -0.03779155 -1.6428799e-19)
(0.11278891 -0.037938165 0)
(0.11415551 -0.037997006 -8.2205852e-20)
(0.11548472 -0.038032673 -2.4970781e-19)
(0.11680889 -0.037998497 5.7929016e-19)
(0.11811933 -0.037929727 -2.5046868e-19)
(0.1194399 -0.037807239 -1.668289e-19)
(0.12077401 -0.037627024 -2.4954468e-19)
(0.12213135 -0.037353451 -1.6468677e-19)
(0.088527861 0.0011863755 5.2641406e-19)
(0.088188142 0.00078955217 2.0732817e-19)
(0.087842684 0.00038000818 -5.04568e-19)
(0.087496961 -3.4862555e-05 4.0464244e-19)
(0.08716555 -0.00048761335 -8.0873859e-19)
(0.086845136 -0.00097530031 3.0457917e-19)
(0.08653296 -0.0015087124 3.0285368e-19)
(0.086236911 -0.0020814159 -4.0616919e-19)
(0.085952373 -0.0027149502 0)
(0.085671898 -0.003397992 -8.0653524e-19)
(0.085418579 -0.0041483556 8.0986611e-19)
(0.085202383 -0.0049784572 -8.1301514e-19)
(0.08502192 -0.0058893607 6.1165058e-19)
(0.084891376 -0.0068756242 -4.1108997e-19)
(0.084829425 -0.0079419567 1.2464003e-18)
(0.084830095 -0.0090893073 8.4136844e-19)
(0.084893139 -0.010310183 -1.285552e-18)
(0.085042993 -0.011602133 2.2026115e-19)
(0.085298559 -0.012964076 1.3710083e-18)
(0.085669098 -0.014380649 -9.5960046e-19)
(0.086160387 -0.015838299 -5.1123686e-19)
(0.086768607 -0.017329663 5.5532686e-19)
(0.087498506 -0.018827217 -9.6546366e-19)
(0.08835944 -0.020319758 2.465338e-19)
(0.089337406 -0.021795099 -5.5512727e-20)
(0.090417491 -0.023251078 1.0198651e-19)
(0.091605861 -0.024660384 9.5004278e-20)
(0.092896587 -0.025999657 5.3828987e-19)
(0.094268982 -0.027271862 -1.7187573e-19)
(0.095712572 -0.028461488 4.9817143e-19)
(0.097212491 -0.029551915 0)
(0.098751556 -0.030538126 0)
(0.10031169 -0.031407201 0)
(0.10187002 -0.032184468 3.1115363e-19)
(0.10342117 -0.03288099 -3.1032616e-19)
(0.10495954 -0.03348062 3.0880383e-19)
(0.10647013 -0.033970841 -3.0763718e-19)
(0.10794201 -0.034383946 1.5431978e-19)
(0.10937753 -0.034715091 -6.1617961e-19)
(0.11076738 -0.034952777 4.6070652e-19)
(0.11210686 -0.035126944 -1.5449174e-19)
(0.11341154 -0.035276256 3.1179916e-19)
(0.11469254 -0.035347451 0)
(0.11593885 -0.035399767 -7.8414395e-20)
(0.11717596 -0.03539052 1.5605162e-19)
(0.11839855 -0.035353356 -1.5733456e-19)
(0.11962629 -0.035270884 3.1450124e-19)
(0.12086332 -0.035141125 1.5685e-19)
(0.1221176 -0.034926999 -2.2739663e-23)
(0.089366856 0.00059745472 -2.9574711e-19)
(0.089089896 0.0002271149 0)
(0.088807695 -0.00015592095 -7.7491763e-24)
(0.088525109 -0.0005463862 0)
(0.088255585 -0.0009703676 -3.7775192e-19)
(0.087996223 -0.0014263509 9.4659559e-20)
(0.087744934 -0.0019233868 5.63929e-19)
(0.087508721 -0.0024572153 1.8863185e-19)
(0.08728408 -0.0030452944 -5.6164549e-19)
(0.087064965 -0.0036797967 -7.4578579e-19)
(0.086871763 -0.0043751196 7.4659087e-19)
(0.086713277 -0.0051415166 0)
(0.086588763 -0.0059803579 3.734398e-19)
(0.086510699 -0.0068875607 -3.7506391e-19)
(0.086495499 -0.0078666183 7.5499364e-19)
(0.086538862 -0.0089185713 -7.6130072e-19)
(0.086641518 -0.010037619 5.3752213e-23)
(0.086824854 -0.011220922 7.8930998e-19)
(0.087105365 -0.012466565 -1.2214661e-18)
(0.087491396 -0.01376128 8.4932335e-19)
(0.087988424 -0.015092755 -1.1228335e-18)
(0.088593799 -0.016454123 -2.4179122e-19)
(0.089311714 -0.017821509 0)
(0.09014972 -0.019182855 0)
(0.091096091 -0.020527811 0)
(0.09213798 -0.021853679 0)
(0.093279435 -0.023135958 0)
(0.094514274 -0.024353698 1.6396715e-19)
(0.095824232 -0.025508729 -6.2986534e-19)
(0.097199091 -0.026587545 3.0522199e-19)
(0.098624719 -0.027575533 5.9599305e-19)
(0.10008529 -0.028468319 -5.8608848e-19)
(0.10156404 -0.029254848 5.7929225e-19)
(0.10304091 -0.029956421 -5.7790175e-19)
(0.10451043 -0.030582598 2.88764e-19)
(0.1059664 -0.031120059 -2.8804788e-19)
(0.1073948 -0.031558384 4.3143058e-19)
(0.10878618 -0.031924988 5.7800753e-19)
(0.11014191 -0.032216296 -2.8914514e-19)
(0.11145314 -0.032422915 -1.3717067e-24)
(0.11271584 -0.032569934 0)
(0.11394384 -0.032690055 -1.4675702e-19)
(0.11514606 -0.032739099 1.460629e-19)
(0.11631328 -0.032766223 2.9567678e-19)
(0.11746789 -0.032736194 -3.6815887e-19)
(0.11860535 -0.032676474 -3.7115445e-19)
(0.11974345 -0.032572356 2.9683858e-19)
(0.12088594 -0.032421965 0)
(0.12204018 -0.032193245 1.4680237e-19)
(0.09015631 0.00012720664 -2.7715394e-19)
(0.089929201 -0.0002201275 -2.7290401e-19)
(0.089697499 -0.00057954653 2.6593071e-19)
(0.089465746 -0.00094736206 0)
(0.0892461 -0.0013450742 -2.6499058e-19)
(0.089036123 -0.001772221 -6.2875922e-24)
(0.088834223 -0.002236571 5.2583481e-19)
(0.088646703 -0.0027354277 -5.2643815e-19)
(0.088470906 -0.0032831666 5.2161583e-19)
(0.088301986 -0.0038744426 0)
(0.088158015 -0.0045210379 0)
(0.088046862 -0.0052315101 0)
(0.087968307 -0.0060073692 -3.4315229e-19)
(0.087933441 -0.006845498 -6.8682458e-19)
(0.087956797 -0.0077484578 1.3777655e-18)
(0.088035355 -0.0087172747 -1.3840676e-18)
(0.088170535 -0.0097473502 3.4946341e-19)
(0.088381176 -0.010835581 2.4520046e-23)
(0.088681767 -0.011979471 7.3034657e-19)
(0.089079846 -0.013167413 3.7881832e-19)
(0.089580557 -0.014388144 -1.969734e-23)
(0.090181996 -0.015635258 0)
(0.090887952 -0.016887892 2.1695405e-19)
(0.091704547 -0.018133586 -2.0131516e-19)
(0.092621726 -0.019363358 0)
(0.093628366 -0.020574235 -8.4337781e-20)
(0.094726915 -0.021744158 0)
(0.095911065 -0.022854291 1.5016532e-19)
(0.097164524 -0.023905668 -2.8921929e-19)
(0.098477405 -0.024886486 -5.6183067e-19)
(0.099836298 -0.025783867 8.784944e-23)
(0.10122658 -0.026594073 8.1335954e-19)
(0.10263265 -0.027307683 -5.3730045e-19)
(0.10403679 -0.027942995 2.6853126e-19)
(0.10543352 -0.028508497 0)
(0.10681635 -0.028993126 -8.063935e-19)
(0.10817214 -0.02938818 4.0614413e-23)
(0.10949276 -0.029717643 -5.4142363e-19)
(0.11077879 -0.029978879 4.0698079e-19)
(0.11202193 -0.03016401 -4.0706282e-19)
(0.11321855 -0.030294914 7.4948135e-23)
(0.11438157 -0.030400703 6.908124e-19)
(0.11551693 -0.030442524 1.3767603e-19)
(0.11661813 -0.030464345 -2.7875417e-19)
(0.11770345 -0.030434872 -2.7786008e-19)
(0.11876998 -0.030379213 3.5019092e-19)
(0.11983276 -0.030284255 7.0030839e-20)
(0.12089576 -0.030149342 1.3978627e-19)
(0.12196466 -0.029943109 -2.0804028e-19)
(0.090891357 -0.00026580613 0)
(0.090706095 -0.00058921105 -8.5331114e-20)
(0.090516871 -0.00092469689 0)
(0.090327626 -0.0012698252 0)
(0.090149572 -0.0016421183 0)
(0.089980647 -0.002041882 0)
(0.089819779 -0.0024757637 -6.5462203e-19)
(0.089672662 -0.0029422332 6.5404557e-19)
(0.089537402 -0.0034531515 6.4704768e-19)
(0.089410127 -0.0040050473 -1.2834044e-18)
(0.089306972 -0.0046075876 6.3905613e-19)
(0.08923505 -0.0052679443 0)
(0.089194577 -0.0059876747 6.322475e-19)
(0.089195497 -0.0067643699 -3.1544472e-19)
(0.089250782 -0.0075998441 -3.1538955e-19)
(0.089358411 -0.0084950491 1.263031e-18)
(0.089520292 -0.0094462699 -6.3550258e-19)
(0.089753131 -0.010450225 -6.4438423e-19)
(0.090069728 -0.011504002 1.7299395e-23)
(0.090476921 -0.012597322 3.4005325e-19)
(0.090979517 -0.013719813 -3.5556689e-19)
(0.091576153 -0.014865445 -3.7756069e-19)
(0.092270266 -0.016015812 3.8867311e-19)
(0.093066845 -0.017158413 0)
(0.093957133 -0.018285289 8.3153185e-20)
(0.094931408 -0.01939327 -3.4273751e-25)
(0.095990888 -0.020462409 0)
(0.097129234 -0.021475662 0)
(0.098331796 -0.022433405 0)
(0.099589038 -0.02332523 1.0361823e-18)
(0.10088823 -0.02413967 -5.1493617e-23)
(0.10221576 -0.02487344 -7.5341706e-19)
(0.10355707 -0.025518406 4.9895323e-19)
(0.10489627 -0.026090241 0)
(0.10622791 -0.026596433 -2.5055064e-19)
(0.10754523 -0.027027739 2.5103409e-19)
(0.10883578 -0.027376859 -2.5168267e-19)
(0.11009233 -0.027664619 7.6119285e-19)
(0.1113148 -0.0278892 0)
(0.11249519 -0.028044139 0)
(0.1136302 -0.028148269 5.1504402e-19)
(0.11473154 -0.028226874 -5.2051077e-19)
(0.11580352 -0.028246953 5.1942057e-19)
(0.11684078 -0.028246158 -3.9438482e-19)
(0.11785928 -0.028197999 0)
(0.11885657 -0.028123862 -6.6119392e-20)
(0.11984609 -0.028012472 -6.6141752e-20)
(0.12083145 -0.027863514 -1.9815386e-19)
(0.12181744 -0.027648837 -1.3110912e-19)
(0.09157949 -0.00058153644 -3.253364e-19)
(0.091428592 -0.00088346351 8.0094344e-20)
(0.091274386 -0.0011972641 1.5626111e-19)
(0.091120384 -0.0015214354 0)
(0.090976844 -0.0018704551 0)
(0.09084207 -0.0022451838 1.5463906e-19)
(0.090715399 -0.0026513801 1.529714e-19)
(0.090602021 -0.003088367 0)
(0.090500643 -0.0035660259 0)
(0.09040822 -0.0040822557 2.9837319e-19)
(0.090339213 -0.0046450465 0)
(0.090300103 -0.0052604499 0)
(0.09029146 -0.0059300075 -5.8385027e-19)
(0.090322269 -0.0066518298 2.9047604e-19)
(0.090404171 -0.0074271436 0)
(0.090535935 -0.0082567899 -5.78278e-19)
(0.090719812 -0.0091376972 -5.8002707e-19)
(0.09097069 -0.010066472 5.8619176e-19)
(0.091299941 -0.011039915 1.1939927e-18)
(0.091713782 -0.012048822 -6.1393122e-19)
(0.092216686 -0.0130836 -6.3885621e-19)
(0.092807685 -0.014138538 3.3746166e-19)
(0.093489882 -0.015197253 -3.5005406e-19)
(0.094267324 -0.016247454 -8.3347189e-20)
(0.095132307 -0.017281958 7.7174993e-20)
(0.096076258 -0.018297476 0)
(0.097099427 -0.019275912 2.6576479e-19)
(0.0981955 -0.0202018 0)
(0.099351198 -0.021075022 4.9046344e-19)
(0.10055734 -0.021886367 -2.922705e-23)
(0.10180182 -0.022625599 -4.7061604e-19)
(0.10307193 -0.023289863 -6.8253779e-23)
(0.10435403 -0.023872163 -4.6373461e-19)
(0.10563379 -0.024386095 -4.6500449e-19)
(0.1069058 -0.024838398 -1.1682232e-18)
(0.10816316 -0.025221398 9.3833293e-19)
(0.10939414 -0.025529045 0)
(0.11059226 -0.025779742 -2.3786857e-19)
(0.11175699 -0.025972394 0)
(0.11288067 -0.026101735 4.8011126e-19)
(0.11396028 -0.02618433 2.4240312e-19)
(0.11500669 -0.026242682 -5.8836037e-23)
(0.11602245 -0.026248075 -4.8999687e-19)
(0.11700365 -0.02623388 4.4774573e-24)
(0.11796366 -0.026176934 -2.4769716e-19)
(0.11890085 -0.02609644 2.4975437e-19)
(0.11982676 -0.025982458 -2.4991926e-19)
(0.12074504 -0.025835438 5.6180723e-19)
(0.12165904 -0.025628574 6.1980855e-20)
(0.092220981 -0.00084001037 -3.0556917e-19)
(0.092099155 -0.0011212607 7.522507e-20)
(0.091974684 -0.0014143198 2.9369293e-19)
(0.091850569 -0.0017184474 7.3169974e-19)
(0.091736283 -0.0020455414 -5.815591e-19)
(0.09163043 -0.0023968629 -1.4485161e-19)
(0.091532724 -0.0027774055 -1.4314328e-19)
(0.091447909 -0.0031871275 -5.7000377e-19)
(0.091375206 -0.0036342862 8.4349245e-19)