/*--------------------------------*- C++ -*----------------------------------*\
| =========                 |                                                 |
| \\      /  F ield         | OpenFOAM: The Open Source CFD Toolbox           |
|  \\    /   O peration     | Version:  v2006                                 |
|   \\  /    A nd           | Website:  www.openfoam.com                      |
|    \\/     M anipulation  |                                                 |
\*---------------------------------------------------------------------------*/
FoamFile
{
    version     2.0;
    format      ascii;
    class       volVectorField;
    location    "2000";
    object      UMean;
}
// * * * * * * * * * * * * * * * * * * * * * * * * * * * * * * * * * * * * * //

dimensions      [0 1 -1 0 0 0 0];


internalField   nonuniform List<vector> 
19765
(
(0.092278691 0.031513173 -8.7617096e-20)
(0.089858055 0.034941609 8.7865541e-20)
(0.083083178 0.037182821 -8.9747738e-20)
(0.075307215 0.037807459 0)
(0.068648361 0.03742683 0)
(0.062600956 0.036208382 2.1749745e-19)
(0.056289105 0.034167144 -1.7269114e-19)
(0.050662838 0.03173993 0)
(0.045052285 0.028726416 4.3106309e-19)
(0.038853351 0.024905805 3.6453297e-20)
(0.033780924 0.020903118 -7.2712061e-19)
(0.02979639 0.016585769 7.1650568e-19)
(0.026204278 0.011993699 -7.9794838e-19)
(0.023155089 0.0072760684 -9.0877617e-19)
(0.020917056 0.0024896538 1.0490813e-18)
(0.019048835 -0.0025791278 0)
(0.017327513 -0.0076257268 -2.0687715e-20)
(0.016039218 -0.012600883 1.8810945e-20)
(0.015258859 -0.017719369 -1.0571852e-18)
(0.014925602 -0.022932216 9.2604936e-19)
(0.015012387 -0.028264585 -4.0802311e-19)
(0.015446918 -0.033518166 7.1645926e-19)
(0.016246346 -0.038638425 -3.2639675e-19)
(0.017500209 -0.04395562 1.3721528e-20)
(0.019157364 -0.04927247 -6.5930832e-20)
(0.020980812 -0.053914119 5.0811071e-20)
(0.022998467 -0.058113171 -2.2044894e-19)
(0.025456858 -0.062628592 2.0670683e-19)
(0.028192462 -0.067011599 0)
(0.031059633 -0.070912279 3.7324648e-19)
(0.034306891 -0.074871453 -3.531115e-19)
(0.038118881 -0.078954634 6.7289623e-19)
(0.043061722 -0.083233373 -6.4557458e-19)
(0.048498198 -0.087042694 3.096689e-19)
(0.053115673 -0.089505836 -3.0376708e-19)
(0.057499125 -0.091468099 -2.8701025e-19)
(0.063302762 -0.093836584 1.8697895e-22)
(0.06956073 -0.095784698 5.5412964e-19)
(0.075336884 -0.096833278 -2.9142535e-19)
(0.082707199 -0.097933057 -2.6376731e-19)
(0.091284834 -0.098578898 2.5739856e-19)
(0.09720833 -0.097400776 -1.6001262e-20)
(0.10247911 -0.095384306 -3.1470137e-20)
(0.10765157 -0.092678251 1.2627749e-19)
(0.11079394 -0.089050934 -2.8481078e-19)
(0.11333501 -0.084721235 1.2732801e-19)
(0.11355347 -0.079814981 0)
(0.11268111 -0.074856156 -1.3310902e-19)
(0.11165119 -0.070403983 0)
(0.083407884 0.018410683 1.4330496e-19)
(0.080377437 0.021407319 1.3790174e-19)
(0.076798886 0.024017463 -6.5485229e-20)
(0.072914666 0.025231681 6.5006071e-20)
(0.068946272 0.025508517 -3.2119631e-19)
(0.065129162 0.025051419 2.5475914e-19)
(0.061409415 0.024063689 -3.1157333e-20)
(0.057957475 0.022649563 2.4748499e-19)
(0.054660562 0.020839943 3.0214694e-20)
(0.051361868 0.018767868 -2.8346399e-19)
(0.048269526 0.01628749 1.5121803e-20)
(0.045566903 0.013356227 4.5944238e-19)
(0.043140856 0.010058074 -7.4331573e-19)
(0.041023872 0.0065153593 2.2193591e-19)
(0.03937559 0.0027581438 -2.6018453e-19)
(0.038010602 -0.0011855367 2.9970821e-19)
(0.036752783 -0.0052737155 -1.732948e-20)
(0.035797142 -0.0094949482 0)
(0.035272375 -0.013847413 1.9101205e-20)
(0.035156883 -0.018280164 -3.0175966e-19)
(0.035412147 -0.022734123 2.705258e-19)
(0.035938819 -0.027226226 2.1433287e-20)
(0.036797933 -0.031696433 8.1191051e-21)
(0.038061917 -0.036070612 -1.1496734e-20)
(0.039581659 -0.040358759 -2.9016949e-20)
(0.041206972 -0.044638057 2.420519e-20)
(0.043053299 -0.048838897 9.8902494e-20)
(0.045226158 -0.052873606 -3.1534907e-19)
(0.04764829 -0.056791103 3.8908573e-19)
(0.050305509 -0.060561109 -1.875551e-19)
(0.053262135 -0.06409605 1.1294043e-20)
(0.056581146 -0.067307374 0)
(0.060246291 -0.070071693 1.7956874e-19)
(0.064063554 -0.072465795 -7.0136325e-23)
(0.067922678 -0.074619508 -1.6603517e-19)
(0.071930172 -0.076489783 -1.8375307e-19)
(0.07615611 -0.077906511 6.9717528e-23)
(0.080493743 -0.078845058 -1.4127253e-19)
(0.084897695 -0.07929198 1.5075898e-19)
(0.08939352 -0.079081615 1.5975728e-19)
(0.093829592 -0.078081428 1.8353438e-19)
(0.098146515 -0.076355932 -3.379646e-19)
(0.1023796 -0.074259337 1.9299997e-19)
(0.10648228 -0.071483283 -2.2395473e-20)
(0.1102601 -0.068710166 -9.1987217e-20)
(0.11365833 -0.065760833 1.9071337e-19)
(0.11661705 -0.062892507 -1.4795953e-19)
(0.11914304 -0.060423237 -5.0835191e-20)
(0.12132381 -0.058160943 1.0457114e-19)
(0.086425587 0.018260468 7.819204e-20)
(0.084143714 0.018633219 7.5161121e-24)
(0.081488731 0.018818149 1.5212338e-19)
(0.078580042 0.018877633 1.7918443e-24)
(0.075660753 0.018538674 -2.3827679e-19)
(0.072761393 0.017900344 3.2737052e-19)
(0.069939765 0.016942679 -8.3133268e-20)
(0.067211146 0.015794068 0)
(0.064625966 0.014338175 0)
(0.062031696 0.012724394 4.5449079e-20)
(0.059592574 0.010820286 0)
(0.057385784 0.0085629107 5.0308736e-20)
(0.055369838 0.0060080529 4.7829909e-19)
(0.053590016 0.0032306 5.6969797e-19)
(0.052147246 0.00023329568 -9.8530926e-19)
(0.050934021 -0.0029575042 -2.7776223e-23)
(0.049858493 -0.0062955355 3.7190122e-20)
(0.049035226 -0.0097833743 -6.7705907e-19)
(0.048535891 -0.013433974 7.4326722e-19)
(0.04837627 -0.017186274 0)
(0.048542071 -0.020982712 5.2864693e-20)
(0.048943436 -0.024862885 -1.7241447e-23)
(0.04968241 -0.028738893 -2.0196734e-20)
(0.050775687 -0.032560039 -3.519112e-20)
(0.052088699 -0.03631551 1.2271291e-19)
(0.053533319 -0.04006576 -1.3770899e-20)
(0.055262504 -0.043742929 -1.8564512e-19)
(0.05731333 -0.047275483 5.6442066e-19)
(0.059571387 -0.050709313 -3.3532278e-19)
(0.062070053 -0.053993145 3.9120299e-20)
(0.064827606 -0.057052999 2.7566293e-19)
(0.067821211 -0.059838029 -5.9163371e-19)
(0.071041102 -0.062257693 -2.8168671e-19)
(0.074324088 -0.064443108 5.1434674e-19)
(0.077661379 -0.066453129 4.9900358e-19)
(0.081124635 -0.068156977 -4.5109229e-19)
(0.084715679 -0.069442031 0)
(0.088313616 -0.070453996 1.9989561e-19)
(0.091946481 -0.071114426 -2.226958e-19)
(0.095578217 -0.071313376 2.4416859e-19)
(0.099102459 -0.071235178 -2.4335513e-19)
(0.10246193 -0.071072085 0)
(0.10573969 -0.070538566 0)
(0.10874646 -0.069764853 2.7051435e-20)
(0.11155965 -0.068768701 0)
(0.1140568 -0.067749125 -5.4002106e-20)
(0.11630671 -0.066629757 2.1390513e-19)
(0.11834853 -0.06543085 -1.0593844e-19)
(0.12024273 -0.064106187 0)
(0.084821675 0.013086685 -8.3334311e-20)
(0.083123747 0.013417349 -2.4738406e-19)
(0.081374924 0.01355139 8.0185172e-20)
(0.079535304 0.013558391 -4.0978815e-19)
(0.077660024 0.013268261 3.3392758e-19)
(0.07577928 0.012749949 3.4389315e-19)
(0.073921449 0.011978363 -2.615331e-19)
(0.072108916 0.011059199 3.6200395e-19)
(0.070339984 0.0098752575 5.0371985e-23)
(0.06856984 0.0085871505 -8.5466076e-19)
(0.066870792 0.0070882479 4.9604866e-19)
(0.065294581 0.0053142037 0)
(0.063827069 0.0032990645 -5.4485865e-20)
(0.062516444 0.0011101211 -9.8332096e-19)
(0.061431926 -0.0012896515 1.1139566e-18)
(0.060511854 -0.0038895633 9.9981435e-19)
(0.059706463 -0.0066155768 -2.3366203e-18)
(0.05909843 -0.0094742878 1.3109786e-18)
(0.058750205 -0.012500955 -7.5610811e-19)
(0.058676928 -0.015623031 9.0780759e-19)
(0.058878611 -0.018790627 0)
(0.059292371 -0.022055573 -6.1500421e-19)
(0.059969854 -0.025309805 7.5156157e-19)
(0.060926859 -0.028538442 -4.158697e-19)
(0.062091149 -0.031728891 6.8897962e-20)
(0.063412392 -0.034922025 -9.3935475e-24)
(0.064980452 -0.038039251 -2.1132434e-19)
(0.066809058 -0.04101565 5.7474267e-19)
(0.06882145 -0.043886555 -3.5486963e-19)
(0.071032259 -0.046601559 -3.7284335e-19)
(0.073436935 -0.049098562 3.1236223e-19)
(0.07600426 -0.051348204 7.0495989e-19)
(0.078705583 -0.053287847 -1.7456436e-22)
(0.081442461 -0.055020329 -6.2338644e-19)
(0.084226879 -0.056586789 4.73417e-19)
(0.087086737 -0.05789443 -5.2530446e-19)
(0.089980648 -0.058863969 5.1107801e-19)
(0.092839029 -0.059607982 -1.0100671e-18)
(0.09569038 -0.060084677 5.2563797e-19)
(0.098479467 -0.060226865 2.1176608e-19)
(0.10115029 -0.06014688 -2.416593e-19)
(0.10376543 -0.059969692 -6.0718905e-20)
(0.10637907 -0.059524421 2.3798811e-19)
(0.10886709 -0.058964814 -2.4136367e-19)
(0.11133084 -0.058193003 0)
(0.11369881 -0.05727398 1.2005385e-19)
(0.11605245 -0.056237508 -5.9472939e-20)
(0.11836165 -0.055134716 0)
(0.1206347 -0.053995251 0)
(0.085405995 0.011025146 -7.8223935e-20)
(0.08405409 0.010775189 -2.3158549e-19)
(0.082667 0.010478002 2.999888e-19)
(0.08124331 0.010190865 7.6285857e-20)
(0.07981595 0.0097475845 2.3205344e-19)
(0.078393905 0.0091863253 -2.3745611e-19)
(0.076990175 0.0084672175 2.396457e-19)
(0.07561915 0.0076567606 -4.113766e-19)
(0.074279378 0.006655477 -8.3318975e-20)
(0.072938013 0.0055713444 1.7032251e-19)
(0.071648489 0.0043191187 -7.9305329e-19)
(0.070442536 0.0028481391 8.2183129e-19)
(0.06931273 0.0011775861 9.46749e-20)
(0.068296223 -0.00064925177 7.9387402e-19)
(0.067443554 -0.002662336 -1.0462686e-19)
(0.066716868 -0.0048499192 -8.867075e-19)
(0.066088521 -0.0071585125 0)
(0.065622089 -0.0096003546 0)
(0.065367579 -0.012202483 0)
(0.065340925 -0.014915456 -4.9977078e-19)
(0.065545551 -0.017704841 7.6517155e-19)
(0.06594312 -0.020576181 -8.449094e-19)
(0.06656815 -0.023441646 5.636938e-19)
(0.067445217 -0.026296648 -6.863513e-20)
(0.068520877 -0.029122933 9.4680535e-24)
(0.069749626 -0.031941289 2.6190672e-20)
(0.071188005 -0.034683199 4.6994933e-20)
(0.072845715 -0.037302294 -8.5832748e-20)
(0.074664737 -0.039824269 2.3983204e-19)
(0.076646028 -0.042201011 -3.0062465e-19)
(0.078779522 -0.044385869 0)
(0.081035909 -0.046359995 -6.1285681e-19)
(0.083387772 -0.048075215 1.0489408e-18)
(0.085760109 -0.049617456 -4.490194e-19)
(0.088152762 -0.051014181 -4.4015138e-19)
(0.090581735 -0.052192966 1.3774757e-22)
(0.093018437 -0.053099806 9.5988534e-19)
(0.095410465 -0.053839403 -4.75822e-19)
(0.097774589 -0.054377835 0)
(0.10008235 -0.05466829 0)
(0.10229915 -0.054819453 -1.7246136e-19)
(0.10445741 -0.05495549 2.3152688e-19)
(0.10660305 -0.054892741 5.6924032e-20)
(0.10865949 -0.05482665 3.4653123e-19)
(0.11070525 -0.054626004 -5.7166155e-20)
(0.11268846 -0.05440498 -2.8877085e-19)
(0.11464596 -0.054126007 5.7674685e-20)
(0.11657277 -0.053728142 0)
(0.11847027 -0.053158428 -3.3357936e-23)
(0.085849597 0.0085381223 2.1981477e-24)
(0.084828946 0.0082895194 -3.7823263e-24)
(0.083796216 0.0079781651 0)
(0.082737847 0.007648603 -3.5397996e-19)
(0.081681491 0.0071959966 7.1443796e-20)
(0.08062646 0.0066488416 2.1826274e-19)
(0.079577735 0.0059804863 7.3122936e-20)
(0.07854798 0.0052359369 1.4971993e-19)
(0.07753273 0.0043440358 7.5464147e-20)
(0.076509843 0.0033772391 -1.5331303e-19)
(0.075523087 0.0022736919 0)
(0.074597268 0.00099528097 -2.4279508e-19)
(0.073727627 -0.00044737119 -8.3230809e-20)
(0.072944624 -0.0020261909 1.7267525e-19)
(0.072289301 -0.0037630427 0)
(0.07173618 -0.0056505404 -1.8845628e-19)
(0.071267799 -0.0076521584 9.9673737e-19)
(0.070936172 -0.0097755802 -8.565296e-19)
(0.07078394 -0.012036462 0)
(0.070827408 -0.014395068 9.117988e-19)
(0.071075686 -0.016821692 -1.1961784e-18)
(0.071502558 -0.01931456 7.747094e-19)
(0.072125524 -0.021813204 -4.826273e-19)
(0.072969144 -0.024312968 1.1898204e-19)
(0.073992879 -0.026789878 -1.0381751e-19)
(0.075161253 -0.029253857 -1.3860046e-19)
(0.076512038 -0.031649335 1.25352e-19)
(0.078050479 -0.033936199 3.8415994e-19)
(0.079731796 -0.036128821 -6.4761353e-19)
(0.08154995 -0.038189316 1.2409383e-22)
(0.083491201 -0.040081166 5.1862746e-19)
(0.08552897 -0.041789035 4.9820606e-19)
(0.08763721 -0.04327725 -4.8199843e-19)
(0.089759609 -0.044607066 -1.1823711e-19)
(0.091892409 -0.0458005 0)
(0.09404114 -0.046810085 4.5559735e-19)
(0.096181406 -0.047600132 -1.0600828e-22)
(0.098275907 -0.048242612 -4.4437582e-19)
(0.10033571 -0.048718566 0)
(0.10234082 -0.048999914 0)
(0.10427117 -0.049157879 -1.0814327e-19)
(0.10614969 -0.049269416 5.4443911e-20)
(0.10802127 -0.049223927 -5.3661083e-20)
(0.10982906 -0.049136832 -5.4425511e-19)
(0.11164401 -0.048928256 4.8506033e-19)
(0.1134322 -0.048657394 0)
(0.11523945 -0.048297879 -5.4364317e-20)
(0.11706221 -0.047848534 0)
(0.11890164 -0.047281601 2.1413976e-19)
(0.08669443 0.0069813764 6.8142603e-20)
(0.085856653 0.0066068189 -1.3418825e-19)
(0.085012941 0.0062083563 -2.6063375e-19)
(0.084161972 0.0058152725 5.2643916e-19)
(0.083322157 0.0053391569 -3.9746816e-19)
(0.082490709 0.0047979064 0)
(0.081666686 0.0041672898 5.3868771e-19)
(0.080860163 0.0034769373 -6.8585643e-20)
(0.080065053 0.0026707859 3.5790862e-23)
(0.079264312 0.0017990012 -9.0573008e-19)
(0.078493099 0.00081315837 -3.277016e-23)
(0.077770509 -0.00031706592 5.8117099e-19)
(0.077093321 -0.0015859538 5.9352368e-19)
(0.076486383 -0.0029744595 -1.3746402e-18)
(0.075983102 -0.0044997508 6.3159839e-19)
(0.075566326 -0.0061574432 8.1840156e-19)
(0.075225613 -0.0079211769 -1.540767e-18)
(0.075003398 -0.0097961081 7.136435e-24)
(0.074934902 -0.011792532 5.8481537e-19)
(0.075034976 -0.013879226 -8.5232165e-19)
(0.075311514 -0.016033422 7.1529679e-19)
(0.075746669 -0.018248306 5.0904532e-19)
(0.076353414 -0.020472087 2.3737723e-19)
(0.077154534 -0.02269904 -2.0728517e-19)
(0.078118432 -0.024908403 1.4246094e-21)
(0.079217357 -0.027104929 -8.1765036e-20)
(0.080478079 -0.029241 0)
(0.08190189 -0.03128251 1.3779239e-19)
(0.083451988 -0.033239938 -1.2974155e-19)
(0.085119946 -0.035081 1.2323284e-19)
(0.086891257 -0.036775735 0)
(0.088742274 -0.038312662 0)
(0.090648765 -0.03966302 4.4288563e-19)
(0.092565308 -0.040878337 -4.3608591e-19)
(0.094485955 -0.041976766 -4.3019254e-19)
(0.096412524 -0.042919897 8.458462e-19)
(0.098324888 -0.043679355 -9.1590658e-23)
(0.10019564 -0.044319049 -1.0376854e-19)
(0.10203183 -0.044823188 -4.1030578e-19)
(0.10381965 -0.045166974 -4.0532385e-19)
(0.10554522 -0.045413784 4.57154e-19)
(0.10722858 -0.04563835 0)
(0.10889994 -0.045733857 -2.0203688e-19)
(0.11052609 -0.045818502 2.0481377e-19)
(0.11215571 -0.045809298 -2.0295817e-19)
(0.11377023 -0.045773491 1.0250009e-19)
(0.11540084 -0.045681501 0)
(0.1170484 -0.045529128 2.0403451e-19)
(0.11872413 -0.045264316 -2.0168921e-19)
(0.08745863 0.0054793075 -1.9096283e-19)
(0.086795643 0.0051162248 1.2529729e-19)
(0.086127945 0.0047264765 2.434216e-19)
(0.085453794 0.0043327204 -1.2259608e-19)
(0.084790806 0.0038710078 -3.694195e-19)
(0.084134879 0.0033545064 7.4715297e-19)
(0.083484243 0.0027649096 -8.7121599e-19)
(0.082847535 0.0021228734 5.0527944e-19)
(0.082219342 0.0013857754 -1.264617e-19)
(0.081586242 0.00058849069 -1.2737976e-19)
(0.080978259 -0.00030602783 -5.1743601e-19)
(0.080410867 -0.0013216277 3.3810952e-24)
(0.079881901 -0.0024556687 -1.917322e-23)
(0.079412087 -0.0036951034 8.1892055e-19)
(0.079029369 -0.0050528673 0)
(0.078721849 -0.0065266556 -2.8819927e-19)
(0.078483556 -0.0080976481 0)
(0.07835021 -0.009768744 3.1342557e-19)
(0.078351547 -0.011546026 -1.6629414e-19)
(0.078501218 -0.0134042 0)
(0.078807068 -0.0153242 -4.6652838e-23)
(0.07925808 -0.017297793 -2.1360272e-19)
(0.079863614 -0.019282188 0)
(0.080641834 -0.021270471 -1.8185525e-19)
(0.081568101 -0.023244226 7.9351468e-20)
(0.08262004 -0.025204378 3.6374142e-20)
(0.083816614 -0.027110152 0)
(0.085156875 -0.028931177 -1.2406e-19)
(0.086610275 -0.030673762 -1.1731123e-19)
(0.08816697 -0.03231115 -1.1198669e-19)
(0.089812067 -0.033818332 0)
(0.091524019 -0.035185634 -2.0894868e-19)
(0.093280495 -0.036389956 0)
(0.095044452 -0.037471582 -1.0059577e-19)
(0.096809363 -0.038445559 8.2541249e-23)
(0.098573887 -0.039283382 8.0281741e-23)
(0.10032029 -0.039963846 3.8822296e-19)
(0.10202712 -0.040536401 4.8404993e-19)
(0.1036994 -0.040990346 -7.2332078e-23)
(0.10532568 -0.041307669 -6.8508496e-23)
(0.10689626 -0.041535915 -7.6338254e-19)
(0.10842717 -0.041730603 6.6696975e-23)
(0.10994537 -0.041814091 3.804638e-19)
(0.1114238 -0.041870658 1.9269641e-19)
(0.11290598 -0.041840331 -1.9122594e-19)
(0.11437715 -0.041768023 9.6493524e-20)
(0.11586722 -0.041630413 9.6372092e-20)
(0.11737927 -0.041422049 -1.9216087e-19)
(0.11892494 -0.041107307 2.8506476e-19)
(0.088294587 0.0043857452 1.1895248e-19)
(0.087747347 0.0040050259 -4.0972817e-19)
(0.087196683 0.0036079536 0)
(0.086644366 0.0032108333 -4.576459e-19)
(0.086104608 0.0027605035 9.1745934e-19)
(0.085573449 0.0022658077 -4.6265942e-19)
(0.085048044 0.0017110319 -1.1537835e-19)
(0.084535913 0.0011105852 1.166958e-19)
(0.084031911 0.00043033356 2.3306558e-19)
(0.083525339 -0.00030470195 0)
(0.083041771 -0.0011240565 0)
(0.082593973 -0.0020470824 -1.1958829e-19)
(0.082180474 -0.0030728962 0)
(0.081818818 -0.0041922803 -2.4591289e-19)
(0.081532637 -0.0054153841 0)
(0.081313551 -0.0067412044 -7.691927e-19)
(0.08115847 -0.0081557711 5.278294e-19)
(0.081097763 -0.0096604362 -5.4906281e-19)
(0.081156679 -0.011258669 8.6588835e-19)
(0.081347439 -0.012929706 6.1502886e-19)
(0.081677236 -0.014657467 -5.0011159e-19)
(0.082138981 -0.016433671 1.8221658e-19)
(0.082739993 -0.018221875 -1.7992643e-19)
(0.083494923 -0.020013355 1.5639408e-23)
(0.084384485 -0.021792479 7.164117e-20)
(0.085390423 -0.023558463 -6.5016239e-20)
(0.086526618 -0.02527594 0)
(0.087790577 -0.026918118 1.1200981e-19)
(0.089156323 -0.028489269 1.0639326e-19)
(0.090613682 -0.029966701 0)
(0.092148137 -0.031329188 -1.9703446e-19)
(0.093740281 -0.032568904 3.8360045e-19)
(0.095369655 -0.03366679 0)
(0.097005267 -0.034656728 -9.295612e-19)
(0.098640332 -0.035551543 7.3796668e-19)
(0.100272 -0.036327875 0)
(0.10188446 -0.036968232 3.6169692e-19)
(0.10346089 -0.037515461 -3.6159791e-19)
(0.10500443 -0.037960613 0)
(0.10650559 -0.038287922 2.6755401e-19)
(0.10795682 -0.038538764 -3.5833609e-19)
(0.1093731 -0.038763986 0)
(0.11077328 -0.038892295 8.9455129e-20)
(0.11214026 -0.03900359 -3.6232217e-19)
(0.11350657 -0.039040978 3.5989385e-19)
(0.11486381 -0.039049826 3.630562e-19)
(0.11623566 -0.039008281 -4.5326286e-19)
(0.11762624 -0.038913593 4.51985e-19)
(0.11904626 -0.038723766 -4.4718717e-19)
(0.089073747 0.0034046482 -5.5647388e-20)
(0.088628417 0.003043149 1.0954463e-19)
(0.088179466 0.0026651781 2.1303688e-19)
(0.087728561 0.0022830245 5.3464405e-19)
(0.087289244 0.0018555262 -5.3496669e-19)
(0.086857688 0.0013887994 -4.3066779e-19)
(0.086431463 0.00087016564 9.6475747e-19)
(0.086017194 0.00030972741 -5.4054843e-19)
(0.085610746 -0.00031948236 -5.385253e-19)
(0.085203416 -0.00099967655 8.6223325e-19)
(0.084817586 -0.0017542518 -4.3431398e-19)
(0.084464107 -0.0025988845 2.187632e-19)
(0.084142118 -0.003533782 2.2015207e-19)
(0.083866703 -0.0045523703 8.9128875e-19)
(0.083658194 -0.0056624679 -9.0461138e-19)
(0.083510683 -0.0068638971 0)
(0.083423012 -0.0081462741 0)
(0.083421384 -0.009509802 4.2914813e-23)
(0.083527495 -0.010956043 0)
(0.083752315 -0.012467667 5.3529438e-19)
(0.084102645 -0.014030535 -5.7421847e-19)
(0.084574187 -0.015636685 6.2818174e-19)
(0.085173007 -0.017255176 -3.158228e-19)
(0.085910658 -0.018875831 4.9949425e-19)
(0.086771757 -0.02048527 -6.4030103e-20)
(0.087741035 -0.022081564 -1.167486e-19)
(0.088828646 -0.023633628 -1.0806502e-19)
(0.090031174 -0.025117394 -3.0449502e-19)
(0.091326282 -0.026535267 -5.8047995e-19)
(0.092703733 -0.027867862 1.862022e-19)
(0.09414946 -0.029096784 1.8055208e-19)
(0.095645722 -0.030215237 -1.7636465e-19)
(0.097173667 -0.031207219 -6.9298676e-19)
(0.098706909 -0.032100425 1.3757732e-18)
(0.10023863 -0.032905698 -6.84308e-19)
(0.10176463 -0.033604372 0)
(0.10327037 -0.034182306 -5.0594778e-19)
(0.10474187 -0.034674698 5.0676998e-19)
(0.10618108 -0.035074914 1.6824837e-19)
(0.10757928 -0.035370438 -2.5112467e-19)
(0.10893045 -0.035594628 -1.6828021e-19)
(0.11024753 -0.035788762 0)
(0.11154642 -0.035896052 -8.4197891e-20)
(0.11281281 -0.035979716 -2.5572131e-19)
(0.11407546 -0.035994652 5.9325777e-19)
(0.1153273 -0.035975663 -2.5648679e-19)
(0.11659009 -0.035904715 -1.7083415e-19)
(0.11786788 -0.035778507 -2.5553759e-19)
(0.11917135 -0.035562841 -1.6864704e-19)
(0.089840786 0.0026382957 5.2113743e-19)
(0.08947116 0.0022873882 2.0517759e-19)
(0.089098164 0.0019230118 -4.9910124e-19)
(0.088724459 0.0015543242 4.0019674e-19)
(0.088361895 0.0011472271 -7.9970626e-19)
(0.088007148 0.00070568704 3.0115032e-19)
(0.087657924 0.00021887 2.9936899e-19)
(0.0873202 -0.00030617098 -4.014859e-19)
(0.086990513 -0.00089138863 0)
(0.086661855 -0.0015239446 -7.9680202e-19)
(0.086353846 -0.0022228059 8.0002876e-19)
(0.086075871 -0.0030009082 -8.0303796e-19)
(0.085827548 -0.003859089 6.0395331e-19)
(0.085622016 -0.0047925692 -4.0581832e-19)
(0.085476935 -0.0058074564 1.229988e-18)
(0.085388178 -0.0069040509 8.2970855e-19)
(0.085355892 -0.008074438 -1.2666751e-18)
(0.08540288 -0.0093179902 2.1684085e-19)
(0.08554792 -0.010634964 1.3482158e-18)
(0.08580084 -0.012010693 -9.4225476e-19)
(0.086168047 -0.013432495 -5.0099448e-19)
(0.08664683 -0.014893003 5.4269164e-19)
(0.087242374 -0.016365788 -9.6825186e-19)
(0.087963845 -0.017839481 2.5501968e-19)
(0.088798717 -0.019302639 -5.7498669e-20)
(0.089734189 -0.020752891 1.0529388e-19)
(0.090777712 -0.022162639 9.786158e-20)
(0.091925253 -0.023510304 5.5351119e-19)
(0.093157351 -0.024797176 -1.7647657e-19)
(0.094463987 -0.02600657 5.1098248e-19)
(0.095831707 -0.027122461 0)
(0.097244297 -0.028139089 0)
(0.098684385 -0.029042953 0)
(0.10012921 -0.029857509 3.184436e-19)
(0.1015721 -0.030592201 -3.1749963e-19)
(0.1030081 -0.031231579 3.1590669e-19)
(0.10442373 -0.031763811 -3.1469853e-19)
(0.10580741 -0.032219364 1.5784501e-19)
(0.10716008 -0.032592905 -6.302632e-19)
(0.1084737 -0.032873711 4.7126267e-19)
(0.1097432 -0.033090655 -1.5802334e-19)
(0.11098081 -0.033280624 3.1890148e-19)
(0.11219771 -0.033393083 0)
(0.11338426 -0.033485378 -8.0203251e-20)
(0.11456315 -0.033516718 1.5962197e-19)
(0.1157302 -0.033519805 -1.609303e-19)
(0.11690344 -0.033478385 3.2169506e-19)
(0.11808738 -0.033390935 1.6044332e-19)
(0.11929094 -0.033222524 -2.2496004e-23)
(0.090556951 0.0019720788 -2.9311709e-19)
(0.090251941 0.0016422418 0)
(0.08994361 0.0012990718 -6.7842272e-24)
(0.089634337 0.00094936795 0)
(0.089335251 0.00056577434 -3.7405281e-19)
(0.089043397 0.00015072384 9.3727148e-20)
(0.088757018 -0.00030484859 5.5827733e-19)
(0.088481502 -0.00079612785 1.8674813e-19)
(0.088214215 -0.0013409283 -5.5589685e-19)
(0.087949465 -0.0019301331 -7.3804757e-19)
(0.087704684 -0.0025791251 7.3882894e-19)
(0.087488143 -0.0032986116 0)
(0.087299889 -0.0040897993 3.694539e-19)
(0.08715151 -0.0049491831 -3.7099614e-19)
(0.087058522 -0.0058814835 7.466294e-19)
(0.087018135 -0.0068872655 -7.5243872e-19)
(0.087031404 -0.007960429 5.1419299e-23)
(0.08711835 -0.0090997309 7.790849e-19)
(0.087295363 -0.010304467 -1.2045475e-18)
(0.087571296 -0.011562027 8.365778e-19)
(0.087952199 -0.012860904 -1.1041835e-18)
(0.08843634 -0.014194251 -2.3724455e-19)
(0.089028366 -0.015539291 0)
(0.089735638 -0.016883975 0)
(0.090547566 -0.01821833 0)
(0.091453398 -0.019539717 0)
(0.092458516 -0.020823457 0)
(0.093558521 -0.022050015 1.6818881e-19)
(0.094736292 -0.023219742 -6.4529828e-19)
(0.095982115 -0.024318113 3.124166e-19)
(0.097283141 -0.025330946 6.0966533e-19)
(0.098624416 -0.026253156 -5.9924062e-19)
(0.099989832 -0.027073147 5.92098e-19)
(0.10135946 -0.027810592 -5.9046819e-19)
(0.10272673 -0.028473629 2.9497814e-19)
(0.10408606 -0.029049459 -2.9423011e-19)
(0.10542469 -0.029528172 4.4068422e-19)
(0.10673263 -0.029935655 5.903739e-19)
(0.10801003 -0.030267864 -2.9534526e-19)
(0.10924916 -0.030515991 9.0965452e-25)
(0.1104456 -0.030704289 0)
(0.11161038 -0.030864099 -1.4991295e-19)
(0.11275233 -0.030953267 1.4922241e-19)
(0.11386346 -0.031019711 3.0206512e-19)
(0.11496363 -0.03102953 -3.7614911e-19)
(0.11604928 -0.031009708 -3.7921166e-19)
(0.11713669 -0.030946435 3.0329656e-19)
(0.11822988 -0.030838325 0)
(0.11933701 -0.030654833 1.5001632e-19)
(0.091239985 0.0014331983 -2.7495554e-19)
(0.090986102 0.0011207378 -2.7067561e-19)
(0.09072913 0.00079590568 2.6367712e-19)
(0.090471591 0.00046374861 0)
(0.090223557 0.00010158058 -2.6270779e-19)
(0.089982534 -0.00028932423 -7.2120968e-24)
(0.089747132 -0.00071676427 5.2123627e-19)
(0.089522279 -0.0011775544 -5.2187116e-19)
(0.089305961 -0.0016864038 5.1700001e-19)
(0.089093615 -0.0022368714 0)
(0.088900772 -0.0028416016 0)
(0.088734811 -0.0035095601 0)
(0.088596132 -0.0042421514 -3.4003928e-19)
(0.088495054 -0.0050367758 -6.8052764e-19)
(0.088445317 -0.0058970828 1.3648934e-18)
(0.088445143 -0.0068237589 -1.3705302e-18)
(0.088496219 -0.0078120075 3.4585566e-19)
(0.088616237 -0.008860136 1.734531e-23)
(0.0888196 -0.0099667483 7.2189484e-19)
(0.089114304 -0.011120856 3.7407789e-19)
(0.089506008 -0.012311951 -1.4867632e-23)
(0.089993634 -0.013533648 0)
(0.090581372 -0.014766117 2.1734545e-19)
(0.091275137 -0.015997099 -2.0653023e-19)
(0.092065802 -0.017217727 0)
(0.092944239 -0.018425228 -8.6586857e-20)
(0.093914271 -0.019597459 0)
(0.094971274 -0.020716698 1.5371474e-19)
(0.096100043 -0.021782653 -2.9573963e-19)
(0.097291219 -0.022782617 -5.7407471e-19)
(0.098532563 -0.023704002 8.243685e-23)
(0.099810236 -0.02454237 8.3030644e-19)
(0.10110926 -0.025287774 -5.4835577e-19)
(0.10241201 -0.025957027 2.739766e-19)
(0.10371211 -0.026557335 0)
(0.10500359 -0.027078023 -8.2261941e-19)
(0.1062744 -0.027510773 3.8635929e-23)
(0.10751589 -0.027878175 -5.5233586e-19)
(0.10872762 -0.028177174 4.1521901e-19)
(0.1099022 -0.028400391 -4.1535963e-19)
(0.11103567 -0.028568917 7.289619e-23)
(0.11213844 -0.028710572 7.0492866e-19)
(0.11321654 -0.02878843 1.4051048e-19)
(0.11426428 -0.028845128 -2.8449572e-19)
(0.11529793 -0.028850723 -2.8362006e-19)
(0.11631527 -0.028829696 3.5746149e-19)
(0.11733012 -0.028769793 7.1490245e-20)
(0.11834655 -0.028670697 1.4271334e-19)
(0.11937104 -0.028502791 -2.1241472e-19)
(0.091877834 0.00097296717 0)
(0.091667375 0.00068043071 -8.4711366e-20)
(0.091454111 0.00037565564 0)
(0.091240232 6.2274727e-05 0)
(0.091035127 -0.00027825846 0)
(0.090836663 -0.00064552626 0)
(0.090643891 -0.0010461979 -6.4962902e-19)
(0.090461325 -0.0014783094 6.491144e-19)
(0.090287551 -0.0019540216 6.4209801e-19)
(0.090118919 -0.0024689233 -1.2735337e-18)
(0.089969375 -0.0030334357 6.3417963e-19)
(0.089845579 -0.003655098 0)
(0.08974824 -0.0043354028 6.2738166e-19)
(0.08968663 -0.005072405 -3.1299569e-19)
(0.089673017 -0.0058688887 -3.1290573e-19)
(0.089706409 -0.0067255684 1.2526526e-18)
(0.089788938 -0.0076386074 -6.3000817e-19)
(0.089936336 -0.008605979 -6.385342e-19)
(0.090161339 -0.009625774 1.9680505e-23)
(0.090471199 -0.010688293 3.3649647e-19)
(0.090871188 -0.011783879 -3.5145522e-19)
(0.091360697 -0.012906522 -3.7262736e-19)
(0.091943509 -0.014038771 3.8908744e-19)
(0.092624386 -0.01516848 0)
(0.093395338 -0.016287621 8.5364142e-20)
(0.094248514 -0.017393316 3.2073749e-25)
(0.095186531 -0.018465617 0)
(0.096204659 -0.019488353 0)
(0.09728928 -0.020460725 0)
(0.098431405 -0.021371516 1.0571492e-18)
(0.09961937 -0.022209449 -5.1012357e-23)
(0.10084029 -0.02297057 -7.6807461e-19)
(0.10208017 -0.023646249 5.0854972e-19)
(0.10332325 -0.024250833 0)
(0.10456332 -0.024790668 -2.5528923e-19)
(0.10579406 -0.025256795 2.5579097e-19)
(0.107004 -0.025642201 -2.5646872e-19)
(0.10818544 -0.025966496 7.7568571e-19)
(0.10933744 -0.026227475 0)
(0.11045279 -0.026419066 0)
(0.11152787 -0.026559436 5.250334e-19)
(0.11257223 -0.026672798 -5.3062898e-19)
(0.1135902 -0.026727709 5.2960874e-19)
(0.11457714 -0.026760795 -4.0213483e-19)
(0.11554719 -0.026746633 0)
(0.11649852 -0.026706185 -6.7432789e-20)
(0.11744342 -0.026628896 -6.7462121e-20)
(0.11838557 -0.026514778 -2.0212522e-19)
(0.11933046 -0.026337106 -1.3375313e-19)
(0.092479472 0.00059533256 -3.2328017e-19)
(0.092304662 0.00032050372 7.9576617e-20)
(0.092127402 3.3831852e-05 1.552197e-19)
(0.091949732 -0.00026211696 0)
(0.091780282 -0.00058275465 0)
(0.09161728 -0.00092830151 1.5361639e-19)
(0.091460116 -0.001304545 1.5195349e-19)
(0.091312959 -0.0017104268 0)
(0.091174866 -0.0021561074 0)
(0.091042964 -0.0026386802 2.9640051e-19)
(0.09092981 -0.0031668047 0)
(0.09084147 -0.0037468687 0)
(0.0907789 -0.0043803857 -5.8004253e-19)
(0.090750492 -0.0050658883 2.8857415e-19)
(0.090767266 -0.0058054743 0)
(0.090828845 -0.0065998292 -5.7428937e-19)
(0.090937667 -0.0074458216 -5.7583046e-19)
(0.09110779 -0.0083411819 5.8173724e-19)
(0.091350543 -0.0092836265 1.1843308e-18)
(0.091672518 -0.010264496 -6.0855506e-19)
(0.092078612 -0.011274872 -6.3267462e-19)
(0.092568552 -0.012309062 3.3376892e-19)
(0.093145743 -0.013351562 -3.5011844e-19)
(0.093813991 -0.014390545 -8.4944024e-20)
(0.094566222 -0.015418633 7.905925e-20)
(0.095395585 -0.016432881 0)
(0.096303763 -0.017415264 2.7141012e-19)
(0.097285985 -0.018350988 0)
(0.098329961 -0.019238886 5.0000014e-19)
(0.09942706 -0.020069012 -3.2548798e-23)
(0.10056616 -0.020831235 -4.7931943e-19)
(0.10173522 -0.021522055 -6.4351236e-23)
(0.10292113 -0.022133993 -4.7211476e-19)
(0.10410966 -0.022679438 -4.7333586e-19)
(0.10529478 -0.023164087 -1.1890813e-18)
(0.10647001 -0.023580461 9.5513388e-19)
(0.10762442 -0.023922709 0)
(0.10875114 -0.024208125 -2.4216836e-19)
(0.10984885 -0.024435254 0)
(0.11091061 -0.024599143 4.8894251e-19)
(0.11193308 -0.024715749 2.46887e-19)
(0.11292521 -0.024806587 -5.7222098e-23)
(0.11388962 -0.024844352 -4.9918762e-19)
(0.11482292 -0.024861422 3.017187e-24)
(0.11573697 -0.024835635 -2.5240134e-19)
(0.11663058 -0.024785741 2.545181e-19)
(0.11751435 -0.024702467 -2.5471642e-19)
(0.11839187 -0.024586497 5.7265273e-19)
(0.11926724 -0.024412499 6.3186291e-20)
(0.093041974 0.00027752917 -3.0384449e-19)
(0.092897585 2.0420914e-05 7.4792138e-20)
(0.092751155 -0.0002483668 2.9195642e-19)
(0.092604409 -0.00052715058 7.2738993e-19)
(0.092465381 -0.00082865348 -5.7814278e-19)
(0.092332593 -0.001153568 -1.4401197e-19)
(0.092205763 -0.0015069153 -1.4231234e-19)
(0.092088748 -0.0018883175 -5.6677107e-19)
(0.091981023 -0.0023062875 8.386813e-19)