/*--------------------------------*- C++ -*----------------------------------*\
| =========                 |                                                 |
| \\      /  F ield         | OpenFOAM: The Open Source CFD Toolbox           |
|  \\    /   O peration     | Version:  v2006                                 |
|   \\  /    A nd           | Website:  www.openfoam.com                      |
|    \\/     M anipulation  |                                                 |
\*---------------------------------------------------------------------------*/
FoamFile
{
    version     2.0;
    format      ascii;
    class       volVectorField;
    location    "2000";
    object      wallShearStress;
}
// * * * * * * * * * * * * * * * * * * * * * * * * * * * * * * * * * * * * * //

dimensions      [1 -1 -2 0 0 0 0];


internalField   uniform (0 0 0);

boundaryField
{
    Side
    {
        type            empty;
    }
    Inlet
    {
        type            calculated;
        value           uniform (0 0 0);
    }
    Wing
    {
        type            calculated;
        value           nonuniform List<vector> 
139
(
(-3.0110279e-05 -1.02842e-05 3.1910223e-23)
(-2.9183072e-05 -1.0496111e-05 -3.1779565e-23)
(-2.6647704e-05 -9.4612528e-06 3.1746423e-23)
(-2.2679306e-05 -8.9577999e-06 1.4693679e-39)
(-1.9672378e-05 -8.1987345e-06 0)
(-1.6832568e-05 -7.2823969e-06 -6.4968381e-23)
(-1.4598524e-05 -5.9528646e-06 4.8561471e-23)
(-1.208769e-05 -4.7255369e-06 0)
(-1.0434531e-05 -3.2575965e-06 -1.0505111e-22)
(-8.5812989e-06 -1.9117865e-06 -8.0276096e-24)
(-6.9990947e-06 -9.1632126e-07 1.463915e-22)
(-5.8811904e-06 -1.9842823e-07 -1.2945364e-22)
(-4.8790479e-06 3.8533362e-07 1.3051725e-22)
(-4.1716444e-06 8.5462905e-07 1.3728032e-22)
(-3.8455434e-06 1.2965543e-06 -1.531576e-22)
(-3.7418999e-06 1.874095e-06 5.8774718e-39)
(-3.7756097e-06 2.5677605e-06 3.0791275e-24)
(-3.8370526e-06 3.4176166e-06 -2.6379965e-24)
(-3.9842304e-06 4.4038034e-06 1.5089156e-22)
(-4.2992897e-06 5.5487833e-06 -1.3820277e-22)
(-4.6457472e-06 6.8751155e-06 6.4907371e-23)
(-4.9593577e-06 8.2829995e-06 -1.221215e-22)
(-5.6600541e-06 9.7458565e-06 5.9484149e-23)
(-6.5562321e-06 1.1434808e-05 -2.7099078e-24)
(-7.0323759e-06 1.3270292e-05 1.4176141e-23)
(-7.3110266e-06 1.504243e-05 -1.1790456e-23)
(-8.4933791e-06 1.6656169e-05 5.4997314e-23)
(-9.947202e-06 1.8576386e-05 -5.5176909e-23)
(-1.0842822e-05 2.0637786e-05 -1.4693679e-39)
(-1.2349832e-05 2.2613583e-05 -1.1239989e-22)
(-1.4427242e-05 2.4638448e-05 1.1237612e-22)
(-1.6990853e-05 2.6767816e-05 -2.2815395e-22)
(-2.0256637e-05 2.9791675e-05 2.2922962e-22)
(-2.2093909e-05 3.3273212e-05 -1.1492706e-22)
(-2.3884398e-05 3.6286423e-05 1.1627407e-22)
(-2.709446e-05 3.8210445e-05 1.1423646e-22)
(-3.1290591e-05 4.0485676e-05 2.0504794e-25)
(-3.4299766e-05 4.3397023e-05 -2.349923e-22)
(-3.8610457e-05 4.5253012e-05 1.2744871e-22)
(-4.4308813e-05 4.6711838e-05 1.1916147e-22)
(-4.8677991e-05 4.9090311e-05 -1.1873567e-22)
(-5.0498918e-05 5.0460932e-05 7.436488e-24)
(-5.4500572e-05 4.9411917e-05 1.4882669e-23)
(-5.5533021e-05 4.9822272e-05 -5.9564113e-23)
(-5.7333865e-05 4.7650155e-05 1.3484651e-22)
(-5.7142651e-05 4.6018406e-05 -5.9508744e-23)
(-5.6101186e-05 4.2929106e-05 -5.8774718e-39)
(-5.4429303e-05 3.9642373e-05 6.0673372e-23)
(-5.3101705e-05 3.6349255e-05 2.9387359e-39)
(-1.6571748e-05 -1.4795387e-06 -4.0127043e-21)
(-1.3799647e-05 -8.4227992e-07 -1.190188e-37)
(-1.3190368e-05 -5.3908827e-08 -2.2565833e-22)
(-1.5014137e-05 3.3999243e-07 -6.3283081e-23)
(-1.805447e-05 5.1985088e-07 1.016279e-21)
(-2.0455243e-05 4.5364839e-07 -4.7905171e-22)
(-2.2013183e-05 3.3847422e-07 8.2651947e-40)
(-2.3255291e-05 1.8668623e-07 3.2222148e-23)
(-2.4241234e-05 2.0904589e-08 9.6788166e-23)
(-2.5084222e-05 -1.4601113e-07 1.0708152e-27)
(-2.5808493e-05 -3.3036526e-07 3.2499475e-23)
(-2.6364918e-05 -4.9427647e-07 3.2521083e-23)
(-2.6901984e-05 -6.5519446e-07 -4.9616505e-28)
(-2.7393733e-05 -8.2775692e-07 -3.2726954e-23)
(-2.7732586e-05 -9.9151042e-07 2.6229409e-22)
(-2.7885252e-05 -1.1317016e-06 1.3159853e-22)
(-2.7980978e-05 -1.2422154e-06 -1.3182838e-22)
(-2.8215865e-05 -1.3704538e-06 2.8698593e-42)
(-2.8579153e-05 -1.5488393e-06 -1.3153638e-22)
(-2.906243e-05 -1.806904e-06 -9.1835496e-41)
(-2.9609192e-05 -2.1517933e-06 -1.6442553e-23)
(-3.0014918e-05 -2.5437716e-06 1.6480945e-23)
(-3.0163332e-05 -2.9458713e-06 1.3225142e-22)
(-2.9954978e-05 -3.3092354e-06 -1.3217317e-22)
(-2.9684138e-05 -3.672294e-06 1.348108e-22)
(-2.9432613e-05 -4.0473412e-06 -1.3497751e-22)
(-2.8985668e-05 -4.403544e-06 0)
(-2.8536853e-05 -4.7790681e-06 -6.6718156e-23)
(-2.8062727e-05 -5.1498222e-06 -1.6666386e-23)
(-2.7732845e-05 -5.6355128e-06 1.6651558e-23)
(-2.7577107e-05 -6.2002493e-06 -3.3137625e-23)
(-2.7675821e-05 -7.0551137e-06 -5.5101298e-40)
(-2.828832e-05 -8.1877218e-06 0)
(-2.94515e-05 -9.6894859e-06 -2.2040519e-39)
(-5.2351425e-05 -9.5429944e-07 2.8792483e-23)
(-5.0474909e-05 -1.3682737e-06 3.0872719e-23)
(-4.9026259e-05 -1.6845395e-06 -5.2471049e-27)
(-4.775392e-05 -1.9635774e-06 -6.618373e-23)
(-4.6561949e-05 -2.2280243e-06 3.9043053e-24)
(-4.5344117e-05 -2.4901323e-06 5.8675433e-23)
(-4.3895325e-05 -2.7578274e-06 1.2534855e-22)
(-4.2396401e-05 -2.9925067e-06 1.256855e-22)
(-4.1099959e-05 -3.1889587e-06 5.0791475e-22)
(-4.0007138e-05 -3.3710784e-06 -2.5243953e-22)
(-3.9014498e-05 -3.5592285e-06 -2.5256755e-22)
(-3.8049693e-05 -3.7587672e-06 2.6038731e-22)
(-3.6923456e-05 -3.9783764e-06 -5.1145087e-22)
(-3.5645363e-05 -4.1871345e-06 -7.8597493e-24)
(-3.4419309e-05 -4.3703546e-06 -9.9686258e-22)
(-3.3261353e-05 -4.5649887e-06 1.0026284e-21)
(-3.1885702e-05 -4.7456138e-06 2.6448623e-38)
(-3.0384084e-05 -4.8918881e-06 -4.4172411e-27)
(-2.897666e-05 -5.0204794e-06 1.9762728e-21)
(-2.7371891e-05 -5.1327371e-06 -1.9596023e-21)
(-2.549239e-05 -5.1672722e-06 1.8984614e-24)
(-2.3438708e-05 -5.1559973e-06 3.8497816e-21)
(-2.0793855e-05 -4.9553091e-06 -3.6839121e-24)
(-1.9304156e-05 -4.8960163e-06 1.4697205e-23)
(-1.157277e-05 -3.917123e-06 -6.5541968e-21)
(-5.2240553e-05 3.3638217e-05 1.4693679e-39)
(-5.2059109e-05 3.142568e-05 -6.3228097e-23)
(-5.2286158e-05 2.9789685e-05 -4.4081038e-39)
(-5.2686213e-05 2.8436592e-05 3.2035069e-23)
(-5.3508871e-05 2.7332966e-05 3.2012709e-23)
(-5.4454611e-05 2.6450367e-05 -1.5985711e-23)
(-5.6053666e-05 2.5687192e-05 1.5916623e-23)
(-5.7248792e-05 2.5169283e-05 -1.4693679e-39)
(-5.8310611e-05 2.4385387e-05 6.3376657e-23)
(-5.9641813e-05 2.379697e-05 -6.3145947e-23)
(-6.1006092e-05 2.3166e-05 1.4693679e-39)
(-6.2802825e-05 2.257283e-05 6.2426477e-23)
(-6.4076484e-05 2.1964388e-05 6.2233873e-23)
(-6.5519177e-05 2.1131632e-05 -7.3468397e-40)
(-6.6571413e-05 2.0389071e-05 -1.9239833e-24)
(-6.7743258e-05 1.9370493e-05 1.9072189e-24)
(-6.8910826e-05 1.8495993e-05 -1.1479437e-41)
(-6.9619171e-05 1.7352937e-05 2.2040519e-39)
(-7.0424739e-05 1.6212872e-05 6.0768331e-23)
(-7.0659024e-05 1.4960489e-05 -1.2059815e-22)
(-7.1731774e-05 1.3603531e-05 5.9572606e-23)
(-7.2027288e-05 1.2370783e-05 3.6734198e-40)
(-7.1532663e-05 1.0685937e-05 9.2945173e-25)
(-7.0855767e-05 9.2170748e-06 -6.0139632e-23)
(-6.9150352e-05 7.5293882e-06 0)
(-6.828025e-05 5.9836827e-06 2.9734532e-23)
(-6.6282112e-05 4.6998439e-06 -1.4879117e-23)
(-6.3463275e-05 3.0387732e-06 -1.9775543e-24)
(-6.0712985e-05 1.7280749e-06 2.3267939e-25)
(-5.7488246e-05 5.2920917e-07 9.393078e-25)
(-5.4586154e-05 -3.4688503e-07 9.4782606e-25)
)
;
    }
    Outlet
    {
        type            calculated;
        value           uniform (0 0 0);
    }
    Ground
    {
        type            calculated;
        value           uniform (0 0 0);
    }
}


// ************************************************************************* //
