/*--------------------------------*- C++ -*----------------------------------*\
| =========                 |                                                 |
| \\      /  F ield         | OpenFOAM: The Open Source CFD Toolbox           |
|  \\    /   O peration     | Version:  v2006                                 |
|   \\  /    A nd           | Website:  www.openfoam.com                      |
|    \\/     M anipulation  |                                                 |
\*---------------------------------------------------------------------------*/
FoamFile
{
    version     2.0;
    format      ascii;
    class       volScalarField;
    location    "2000";
    object      yPlus;
}
// * * * * * * * * * * * * * * * * * * * * * * * * * * * * * * * * * * * * * //

dimensions      [0 0 0 0 0 0 0];


internalField   uniform 0;

boundaryField
{
    Side
    {
        type            empty;
    }
    Inlet
    {
        type            calculated;
        value           uniform 0;
    }
    Wing
    {
        type            calculated;
        value           nonuniform List<scalar> 
139
(
88.923918
86.802905
79.405419
73.586212
67.895627
63.302747
56.920187
52.216283
46.320277
39.50023
34.433887
30.686484
26.893488
24.042804
23.330159
24.202922
26.171322
29.642913
34.515158
39.877241
45.383474
50.603751
56.133142
61.673157
67.112921
71.776864
75.851054
79.794505
84.120173
87.205938
89.632373
91.731786
96.271805
101.65012
103.84904
103.92622
107.06929
109.98776
110.22936
114.02107
120.98858
124.34044
125.01868
129.0651
127.83641
129.17118
126.97815
123.96585
120.45897
60.995973
56.308602
55.920581
60.091125
65.921403
70.032438
72.536213
74.469539
75.94384
77.19061
78.233978
79.021706
79.792093
80.480697
80.946678
81.155355
81.329378
81.721587
82.292338
83.036708
83.849033
84.429016
84.654547
84.376314
84.129023
83.881446
83.399407
82.987053
82.554544
82.487175
82.715462
83.588293
85.365499
88.107855
110.37704
108.36111
106.78808
105.38379
104.05691
102.662
100.97778
99.237043
97.720258
96.428107
95.234773
94.055824
92.642725
91.041726
89.498784
88.028326
86.223211
84.281402
82.441146
80.271629
77.688474
74.75416
70.788373
68.619492
53.388062
117.69023
115.54773
114.45183
113.70789
113.42528
113.66122
114.26066
115.558
115.92704
116.98129
118.0218
119.43406
120.96337
121.98874
123.42021
124.23553
125.69221
126.43285
127.31978
127.78395
128.62765
129.48669
129.04367
128.71986
127.2418
126.4502
124.801
122.03521
119.21166
115.84731
112.78362
)
;
    }
    Outlet
    {
        type            calculated;
        value           uniform 0;
    }
    Ground
    {
        type            calculated;
        value           nonuniform List<scalar> 
154
(
81.221169
84.255471
87.323997
90.275471
93.112331
95.854796
98.502802
101.05533
103.51411
105.88156
108.15697
110.34735
112.44139
114.47033
116.36858
118.27455
119.94233
121.75274
123.46753
125.15589
126.75078
128.48699
130.04984
131.56752
133.04398
134.45977
135.82556
137.1484
138.43137
139.67771
140.89051
142.07238
143.22565
144.3524
145.45456
146.53388
147.592
148.63042
149.65056
150.65374
151.64117
152.61403
153.57339
154.52027
155.45562
156.38034
157.29529
158.20126
159.09901
159.98926
160.8727
161.74996
162.62165
163.48837
164.35067
165.20907
166.06408
166.91618
167.76584
168.61349
169.45953
170.30437
171.14833
171.99175
172.83483
173.67777
174.52042
175.36296
176.20372
177.04484
177.87366
178.72458
179.45734
180.58611
57.284245
54.135512
51.470455
49.236834
47.479399
46.258863
45.606618
45.520087
45.965422
46.890803
48.229425
49.908728
51.85822
54.014002
56.320941
58.733091
61.213093
63.730882
66.263034
68.789631
71.299751
73.768574
76.229607
78.536953
130.7157
129.92776
129.03264
128.00887
126.86268
125.57958
124.14024
122.52755
120.72344
118.70986
116.47264
113.99484
111.2918
108.32236
105.09251
101.59999
97.85125
93.857861
89.630345
85.203468
80.580278
75.789369
70.861728
65.796004
60.753419
474.88175
400.41214
341.75028
305.54418
277.44059
253.51011
234.08953
218.54273
205.80252
194.9741
185.90504
178.18762
171.56915
165.86777
160.94455
156.66366
152.935
149.67905
146.82725
144.3316
142.13525
140.22228
138.54509
137.09636
135.84356
134.75523
133.8353
133.06413
132.44895
131.91016
131.56639
)
;
    }
}


// ************************************************************************* //
