/*--------------------------------*- C++ -*----------------------------------*\
| =========                 |                                                 |
| \\      /  F ield         | OpenFOAM: The Open Source CFD Toolbox           |
|  \\    /   O peration     | Version:  v2006                                 |
|   \\  /    A nd           | Website:  www.openfoam.com                      |
|    \\/     M anipulation  |                                                 |
\*---------------------------------------------------------------------------*/
FoamFile
{
    version     2.0;
    format      ascii;
    class       volScalarField;
    location    "3000";
    object      alphat;
}
// * * * * * * * * * * * * * * * * * * * * * * * * * * * * * * * * * * * * * //

dimensions      [1 -1 -1 0 0 0 0];


internalField   nonuniform List<scalar> 
19765
(
9.7813822e-06
9.7783317e-06
9.4911441e-06
9.5478237e-06
9.5491131e-06
9.7080797e-06
9.6263318e-06
9.8027505e-06
9.7749881e-06
9.5870154e-06
9.6929328e-06
1.0074649e-05
1.0298323e-05
1.0491567e-05
1.0896824e-05
1.1068515e-05
1.1021175e-05
1.1177042e-05
1.1595245e-05
1.1961152e-05
1.2207784e-05
1.2331655e-05
1.25511e-05
1.2687648e-05
1.2777919e-05
1.2832291e-05
1.2859265e-05
1.2797344e-05
1.2815924e-05
1.2698075e-05
1.2468139e-05
1.2174453e-05
1.220611e-05
1.2350119e-05
1.2206067e-05
1.186755e-05
1.1851578e-05
1.1785993e-05
1.1508587e-05
1.1598104e-05
1.1968267e-05
1.2117127e-05
1.2077991e-05
1.2385465e-05
1.2279677e-05
1.2513362e-05
1.2524211e-05
1.2500407e-05
1.2375904e-05
5.4257335e-05
5.689796e-05
5.9122659e-05
6.0921242e-05
6.3093293e-05
6.5315855e-05
6.7557324e-05
6.9795623e-05
7.2104136e-05
7.4133895e-05
7.6525609e-05
7.9126477e-05
8.1362203e-05
8.3360618e-05
8.5412054e-05
8.6669114e-05
8.6981126e-05
8.7583719e-05
8.8834594e-05
9.0337984e-05
9.177138e-05
9.2735201e-05
9.3558603e-05
9.4611772e-05
9.564059e-05
9.6145685e-05
9.6367889e-05
9.6670872e-05
9.689266e-05
9.6914474e-05
9.6821173e-05
9.6660228e-05
9.6648675e-05
9.6483255e-05
9.5822098e-05
9.4870022e-05
9.4028231e-05
9.2893068e-05
9.1474849e-05
9.0427042e-05
8.950649e-05
8.7467753e-05
8.5295469e-05
8.1639353e-05
7.9036088e-05
7.2890088e-05
6.6046693e-05
5.9223392e-05
5.4125558e-05
1.6004968e-05
1.5335405e-05
1.4860881e-05
1.5105917e-05
1.5228666e-05
1.5346523e-05
1.5283803e-05
1.5449146e-05
1.5353454e-05
1.5502406e-05
1.5746184e-05
1.5786064e-05
1.5620136e-05
1.5453285e-05
1.5165679e-05
1.4721841e-05
1.4366711e-05
1.4127237e-05
1.3945182e-05
1.3797481e-05
1.3740138e-05
1.3793437e-05
1.3817056e-05
1.3875501e-05
1.4171827e-05
1.4720629e-05
1.5227192e-05
1.5742589e-05
1.6481828e-05
1.7273213e-05
1.8040558e-05
1.8752841e-05
1.9391374e-05
2.0386105e-05
2.1627596e-05
2.2662837e-05
2.3468948e-05
2.4529716e-05
2.5345499e-05
2.5763976e-05
2.6479465e-05
2.7722965e-05
2.836043e-05
2.9534762e-05
3.0316276e-05
3.2524024e-05
3.5393915e-05
3.8771029e-05
4.1113447e-05
6.2557108e-07
5.5999082e-07
5.2207953e-07
5.1670128e-07
5.0927999e-07
5.0256548e-07
4.9112906e-07
4.8722705e-07
4.7622012e-07
4.7129299e-07
4.6865444e-07
4.6065819e-07
4.4766298e-07
4.3578523e-07
4.2264968e-07
4.0733516e-07
3.9576765e-07
3.8819834e-07
3.8185752e-07
3.7569563e-07
3.7307887e-07
3.7523592e-07
3.7616993e-07
3.7818452e-07
3.8636435e-07
4.0173701e-07
4.1784454e-07
4.3588271e-07
4.6113307e-07
4.9016434e-07
5.2148491e-07
5.5417285e-07
5.8788478e-07
6.3564634e-07
6.9645816e-07
7.5725505e-07
8.1727731e-07
8.9315596e-07
9.6546235e-07
1.0282557e-06
1.1131463e-06
1.2340905e-06
1.3416889e-06
1.5085773e-06
1.6707969e-06
1.9045921e-06
2.1894765e-06
2.5520291e-06
2.9808986e-06
1.636137e-07
1.631158e-07
1.6340672e-07
1.653415e-07
1.6704778e-07
1.686729e-07
1.6975876e-07
1.7135347e-07
1.7218944e-07
1.7351392e-07
1.7513815e-07
1.7626869e-07
1.768908e-07
1.7762397e-07
1.7812662e-07
1.7822024e-07
1.7864315e-07
1.7950107e-07
1.802419e-07
1.8085998e-07
1.8184904e-07
1.8321261e-07
1.8447206e-07
1.8591485e-07
1.880242e-07
1.9101072e-07
1.9412041e-07
1.9736879e-07
2.0131786e-07
2.0551366e-07
2.0972148e-07
2.1381765e-07
2.1764964e-07
2.2241878e-07
2.2785344e-07
2.3266717e-07
2.3679089e-07
2.4152082e-07
2.4541173e-07
2.4819651e-07
2.5191273e-07
2.5678522e-07
2.6028651e-07
2.657361e-07
2.7026294e-07
2.7637115e-07
2.8232111e-07
2.8681141e-07
2.9112228e-07
1.415279e-07
1.4168526e-07
1.4218354e-07
1.4335798e-07
1.4427246e-07
1.4519176e-07
1.4590361e-07
1.4682252e-07
1.4740008e-07
1.4828111e-07
1.491295e-07
1.4969976e-07
1.5010388e-07
1.505541e-07
1.508787e-07
1.511299e-07
1.5161896e-07
1.5229109e-07
1.5291133e-07
1.535266e-07
1.5427767e-07
1.55145e-07
1.5618385e-07
1.5742045e-07
1.5898387e-07
1.6103537e-07
1.6325603e-07
1.6556108e-07
1.6822051e-07
1.7110088e-07
1.7406702e-07
1.7707557e-07
1.7993053e-07
1.8308345e-07
1.866327e-07
1.9014855e-07
1.9326824e-07
1.9653861e-07
1.9964758e-07
2.0217151e-07
2.0462743e-07
2.0786471e-07
2.1045544e-07
2.1388683e-07
2.1703334e-07
2.2082218e-07
2.2491872e-07
2.2935434e-07
2.3324718e-07
1.2441331e-07
1.2435359e-07
1.2449289e-07
1.2503468e-07
1.2545005e-07
1.2588174e-07
1.2621582e-07
1.2668328e-07
1.2697834e-07
1.2745717e-07
1.2794185e-07
1.2828242e-07
1.2853868e-07
1.2883121e-07
1.2906105e-07
1.2925317e-07
1.2959456e-07
1.3006584e-07
1.3053118e-07
1.3101429e-07
1.315801e-07
1.3221453e-07
1.3295381e-07
1.3383875e-07
1.3494077e-07
1.3633841e-07
1.3784205e-07
1.3942409e-07
1.4124307e-07
1.4321189e-07
1.452551e-07
1.4734076e-07
1.4936352e-07
1.5158797e-07
1.5405824e-07
1.5651236e-07
1.5875583e-07
1.6109959e-07
1.633544e-07
1.6527918e-07
1.6719185e-07
1.6952962e-07
1.7150597e-07
1.7392666e-07
1.7616878e-07
1.7872197e-07
1.8138203e-07
1.8416807e-07
1.8668642e-07
1.1540856e-07
1.1536423e-07
1.1543928e-07
1.1575826e-07
1.1599967e-07
1.1624998e-07
1.1644181e-07
1.1671089e-07
1.1688069e-07
1.1715889e-07
1.174417e-07
1.1764675e-07
1.1781067e-07
1.1800242e-07
1.1816787e-07
1.1832483e-07
1.1857899e-07
1.1891847e-07
1.1926976e-07
1.1965116e-07
1.200984e-07
1.2060081e-07
1.21196e-07
1.2190248e-07
1.227546e-07
1.2380098e-07
1.2493316e-07
1.2613608e-07
1.2750526e-07
1.2898993e-07
1.3054414e-07
1.321478e-07
1.3373502e-07
1.3546394e-07
1.373658e-07
1.3928278e-07
1.4108873e-07
1.4296992e-07
1.4481446e-07
1.464672e-07
1.4811476e-07
1.5004737e-07
1.5177199e-07
1.5380064e-07
1.5574974e-07
1.5793737e-07
1.6024926e-07
1.6271039e-07
1.6505056e-07
1.0897557e-07
1.089138e-07
1.0892822e-07
1.0910005e-07
1.0922714e-07
1.093634e-07
1.0946725e-07
1.0962212e-07
1.0971995e-07
1.0988801e-07
1.1006288e-07
1.1019523e-07
1.103081e-07
1.104433e-07
1.1056853e-07
1.1069591e-07
1.1089024e-07
1.1114456e-07
1.1141518e-07
1.1171408e-07
1.120609e-07
1.1244709e-07
1.1289766e-07
1.1343159e-07
1.1407055e-07
1.1484209e-07
1.1567925e-07
1.1657502e-07
1.175893e-07
1.1869014e-07
1.1984963e-07
1.2105463e-07
1.2226409e-07
1.2357588e-07
1.250081e-07
1.264599e-07
1.2785228e-07
1.2930039e-07
1.3073199e-07
1.320468e-07
1.3336384e-07
1.3486001e-07
1.3622465e-07
1.3777652e-07
1.3927178e-07
1.4090755e-07
1.4260682e-07
1.4438028e-07
1.4605223e-07
1.0475683e-07
1.0471012e-07
1.0471089e-07
1.0481409e-07
1.0488792e-07
1.04968e-07
1.0502799e-07
1.0512137e-07
1.0518015e-07
1.0528544e-07
1.0539699e-07
1.0548484e-07
1.055643e-07
1.0566166e-07
1.0575731e-07
1.0586005e-07
1.0601067e-07
1.0620487e-07
1.0641628e-07
1.0665342e-07
1.0692913e-07
1.0723807e-07
1.0759593e-07
1.0801678e-07
1.0851559e-07
1.0910918e-07
1.0975511e-07
1.1045007e-07
1.1123399e-07
1.1208672e-07
1.1299032e-07
1.1393605e-07
1.1489668e-07
1.1593612e-07
1.1706737e-07
1.1822402e-07
1.1935194e-07
1.2052626e-07
1.2169934e-07
1.2280169e-07
1.2390989e-07
1.2514714e-07
1.2630242e-07
1.2759316e-07
1.2885559e-07
1.3022674e-07
1.3165787e-07
1.3316444e-07
1.3461297e-07
1.0174729e-07
1.0171014e-07
1.0170424e-07
1.0176782e-07
1.0181237e-07
1.0186182e-07
1.0189896e-07
1.0195908e-07
1.0199792e-07
1.0206887e-07
1.0214564e-07
1.0220928e-07
1.0227021e-07
1.0234557e-07
1.0242293e-07
1.0250865e-07
1.0262938e-07
1.027824e-07
1.0295113e-07
1.0314142e-07
1.0336175e-07
1.0360874e-07
1.0389212e-07
1.0422268e-07
1.0461212e-07
1.0507081e-07
1.0557083e-07
1.0611095e-07
1.0671836e-07
1.0737984e-07
1.0808359e-07
1.088237e-07
1.0958204e-07
1.1040126e-07
1.1129018e-07
1.1220363e-07
1.1310461e-07
1.1404278e-07
1.1498525e-07
1.1588327e-07
1.167883e-07
1.1778204e-07
1.18721e-07
1.1975079e-07
1.2075971e-07
1.2183929e-07
1.2295518e-07
1.2411659e-07
1.2522821e-07
9.959124e-08
9.9566906e-08
9.9562677e-08
9.9606002e-08
9.9636276e-08
9.9670176e-08
9.9696235e-08
9.9738338e-08
9.9767115e-08
9.9818588e-08
9.9875162e-08
9.9924684e-08
9.9974436e-08
1.0003586e-07
1.0010093e-07
1.0017434e-07
1.0027385e-07
1.0039771e-07
1.0053528e-07
1.0069067e-07
1.0086971e-07
1.0107058e-07
1.0129934e-07
1.0156363e-07
1.0187292e-07
1.0223394e-07
1.0262788e-07
1.0305467e-07
1.0353348e-07
1.0405539e-07
1.0461244e-07
1.0520091e-07
1.0580866e-07
1.0646535e-07
1.071775e-07
1.079137e-07
1.0864747e-07
1.0941274e-07
1.1018636e-07
1.1093294e-07
1.1168733e-07
1.1250806e-07
1.1329294e-07
1.1414528e-07
1.1498609e-07
1.1588117e-07
1.1680694e-07
1.1777316e-07
1.1870472e-07
9.8003941e-08
9.7989711e-08
9.7988776e-08
9.8021233e-08
9.804474e-08
9.8071095e-08
9.8092518e-08
9.8125507e-08
9.8150159e-08
9.8191295e-08
9.8236921e-08
9.8279059e-08
9.8322879e-08
9.837617e-08
9.8433613e-08
9.8498661e-08
9.85834e-08
9.868664e-08
9.880139e-08
9.8930538e-08
9.9078107e-08
9.9243187e-08
9.942957e-08
9.9642625e-08
9.9890129e-08
1.0017652e-07
1.0048894e-07
1.0082802e-07
1.0120725e-07
1.016203e-07
1.0206199e-07
1.0253046e-07
1.0301777e-07
1.0354474e-07
1.0411588e-07
1.0470875e-07
1.0530413e-07
1.0592536e-07
1.0655577e-07
1.0716934e-07
1.0779025e-07
1.084595e-07
1.0910397e-07
1.0979627e-07
1.1047986e-07
1.1120088e-07
1.11942e-07
1.1271012e-07
1.1344811e-07
9.6817524e-08
9.6812609e-08
9.681634e-08
9.6843757e-08
9.6864917e-08
9.6888356e-08
9.6908735e-08
9.6937647e-08
9.6961424e-08
9.6997436e-08
9.7037396e-08
9.7076008e-08
9.711698e-08
9.7165678e-08
9.7218513e-08
9.7278017e-08
9.7352493e-08
9.7441099e-08
9.7539143e-08
9.7648645e-08
9.7772405e-08
9.7910003e-08
9.806383e-08
9.8237661e-08
9.8437818e-08
9.8667296e-08
9.8917253e-08
9.9188707e-08
9.9490929e-08
9.9819429e-08
1.0017162e-07
1.0054726e-07
1.0094097e-07
1.0136719e-07
1.018289e-07
1.0230978e-07
1.0279566e-07
1.0330311e-07
1.0382005e-07
1.043271e-07
1.0484122e-07
1.0539239e-07
1.0592688e-07
1.0649752e-07
1.0706288e-07
1.0765679e-07
1.0826656e-07
1.0889859e-07
1.0950667e-07
9.5918671e-08
9.5921326e-08
9.5929665e-08
9.5955123e-08
9.5976252e-08
9.5999315e-08
9.6020611e-08
9.6048402e-08
9.6073185e-08
9.6107276e-08
9.6144884e-08
9.6182449e-08
9.6222637e-08
9.6269169e-08
9.6319567e-08
9.6375659e-08
9.6443173e-08
9.6521473e-08
9.6607327e-08
9.6702112e-08
9.6807762e-08
9.6924077e-08
9.7052549e-08
9.719583e-08
9.7359028e-08
9.7544181e-08
9.7745225e-08
9.7963292e-08
9.8204146e-08
9.8465373e-08
9.8747026e-08
9.9049527e-08
9.9368275e-08
9.9712901e-08
1.0008542e-07
1.0047407e-07
1.0086859e-07
1.0128095e-07
1.0170236e-07
1.0211824e-07
1.0254065e-07
1.0299129e-07
1.0343036e-07
1.0389617e-07
1.0435803e-07
1.0484035e-07
1.0533348e-07
1.0584228e-07
1.0633009e-07
9.522921e-08
9.5238424e-08
9.5251332e-08
9.5276763e-08
9.5299245e-08
9.5323445e-08
9.534679e-08
9.5375234e-08
9.5402122e-08
9.543626e-08
9.5473579e-08
9.5511665e-08
9.5552426e-08
9.5598438e-08
9.5647949e-08
9.5702238e-08
9.5765234e-08
9.5836412e-08
9.5913482e-08
9.5997328e-08
9.608925e-08
9.6189124e-08
9.6297842e-08
9.6417261e-08
9.6551468e-08
9.670187e-08
9.6864345e-08
9.7039844e-08
9.7231198e-08
9.7439351e-08
9.7666193e-08
9.7910856e-08
9.8168545e-08
9.8446069e-08
9.8745434e-08
9.9058492e-08
9.9377878e-08
9.9712429e-08
1.0005566e-07
1.0039649e-07
1.007435e-07
1.011127e-07
1.0147419e-07
1.0185623e-07
1.0223579e-07
1.0263091e-07
1.0303421e-07
1.0344993e-07
1.0384798e-07
9.4695904e-08
9.4710611e-08
9.4727744e-08
9.4754207e-08
9.4778765e-08
9.480494e-08
9.4830938e-08
9.4861094e-08
9.4890721e-08
9.492615e-08
9.4964514e-08
9.5004161e-08
9.5046437e-08
9.5093102e-08
9.5142878e-08
9.5196608e-08
9.5256935e-08
9.5323387e-08
9.5394274e-08
9.5470095e-08
9.5551664e-08
9.5638854e-08
9.5732132e-08
9.5832786e-08
9.594405e-08
9.6066902e-08
9.6198584e-08
9.6339531e-08
9.6490418e-08
9.6657464e-08
9.6841321e-08
9.7038081e-08
9.7243891e-08
9.7464912e-08
9.7703468e-08
9.7953919e-08
9.8210894e-08
9.8480873e-08
9.8758976e-08
9.9036702e-08
9.9320121e-08
9.9620978e-08
9.991668e-08
1.0022803e-07
1.0053759e-07
1.0085861e-07
1.011853e-07
1.0152102e-07
1.0184129e-07
9.4279973e-08
9.4299467e-08
9.4320574e-08
9.4348756e-08
9.4375838e-08
9.4404509e-08
9.4433529e-08
9.4466076e-08
9.4498842e-08
9.453639e-08
9.4576701e-08
9.4618635e-08
9.4663112e-08
9.4711298e-08
9.4762225e-08
9.4816384e-08
9.4875476e-08
9.4939041e-08
9.5005772e-08
9.5075852e-08
9.5149714e-08
9.5227177e-08
9.5308402e-08
9.5394269e-08
9.5487285e-08
9.558814e-08
9.5695003e-08
9.5807534e-08
9.5925571e-08
9.6061824e-08
9.6210193e-08
9.6365036e-08
9.6526623e-08
9.670079e-08
9.6889445e-08
9.7088542e-08
9.7294132e-08
9.7510953e-08
9.7735281e-08
9.7960539e-08
9.8191009e-08
9.8435387e-08
9.8676491e-08
9.8929786e-08
9.9182001e-08
9.9442966e-08
9.9708122e-08
9.9980344e-08
1.0023933e-07
9.3954032e-08
9.3977703e-08
9.4002507e-08
9.4032804e-08
9.4062651e-08
9.4094123e-08
9.4126373e-08
9.4161745e-08
9.419791e-08
9.4238143e-08
9.4281033e-08
9.4325785e-08
9.4372988e-08
9.4423366e-08
9.4476151e-08
9.4531541e-08
9.4590536e-08
9.4652659e-08
9.4716835e-08
9.4782987e-08
9.4851238e-08
9.4921321e-08
9.4993165e-08
9.5067364e-08
9.5145793e-08
9.5228948e-08
9.5315588e-08
9.5404645e-08
9.5497114e-08
9.5609468e-08
9.572532e-08
9.5843271e-08
9.5968893e-08
9.61046e-08
9.6252102e-08
9.6408813e-08
9.6571774e-08
9.674433e-08
9.6923583e-08
9.7104445e-08
9.728997e-08
9.7486611e-08
9.768128e-08
9.7885489e-08
9.8089072e-08
9.8299296e-08
9.8512516e-08
9.8731078e-08
9.8938181e-08
9.3697617e-08
9.372505e-08
9.3753357e-08
9.3786048e-08
9.3818829e-08
9.3853317e-08
9.3888948e-08
9.392746e-08
9.3967222e-08
9.4010562e-08
9.4056509e-08
9.4104497e-08
9.4154855e-08
9.4207972e-08
9.4263202e-08
9.4320496e-08
9.438032e-08
9.4442156e-08
9.4505067e-08
9.4568751e-08
9.4633075e-08
9.469766e-08
9.4762259e-08
9.4827252e-08
9.4893986e-08
9.4962811e-08
9.5032828e-08
9.5103221e-08
9.5178962e-08
9.526525e-08
9.5350489e-08
9.5440122e-08
9.5537391e-08
9.5640575e-08
9.5754127e-08
9.5875892e-08
9.6003201e-08
9.613839e-08
9.6279354e-08
9.6422293e-08
9.6569455e-08
9.6725692e-08
9.6881003e-08
9.7044006e-08
9.7206864e-08
9.7374984e-08
9.7545418e-08
9.7720143e-08
9.7885108e-08
9.3495786e-08
9.3526659e-08
9.355831e-08
9.3593583e-08
9.3629412e-08
9.366707e-08
9.3706199e-08
9.3748088e-08
9.3791612e-08
9.3838394e-08
9.3887779e-08
9.3939353e-08
9.3993236e-08
9.4049557e-08
9.4107735e-08
9.4167514e-08
9.4228938e-08
9.4291436e-08
9.4354136e-08
9.4416541e-08
9.4478303e-08
9.4538916e-08
9.4597994e-08
9.4655743e-08
9.4713084e-08
9.4770237e-08
9.4826564e-08
9.4885251e-08
9.4960796e-08
9.5020888e-08
9.5069171e-08
9.513394e-08
9.5203994e-08
9.5281495e-08
9.5367756e-08
9.5459893e-08
9.5556268e-08
9.5659051e-08
9.5766944e-08
9.587717e-08
9.5991376e-08
9.6113165e-08
9.6234871e-08
9.6362915e-08
9.6491222e-08
9.6623781e-08
9.6758179e-08
9.6896044e-08
9.7025632e-08
9.3337194e-08
9.3371299e-08
9.34062e-08
9.3444212e-08
9.3483194e-08
9.352416e-08
9.3566903e-08
9.3612376e-08
9.3659822e-08
9.3710335e-08
9.3763486e-08
9.381896e-08
9.3876706e-08
9.3936642e-08
9.3998219e-08
9.4060995e-08
9.4124677e-08
9.4188632e-08
9.4252001e-08
9.4314114e-08
9.4374433e-08
9.4432326e-08
9.4487282e-08
9.4539364e-08
9.4589157e-08
9.4636756e-08
9.4681994e-08
9.4725184e-08
9.4767015e-08
9.4809353e-08
9.4860143e-08
9.4905691e-08
9.4955794e-08
9.5010819e-08
9.5071215e-08
9.5136348e-08
9.5205483e-08
9.5280331e-08
9.5359941e-08
9.5442199e-08
9.5528251e-08
9.5620753e-08
9.5713834e-08
9.5812275e-08
9.5911361e-08
9.6014036e-08
9.6118314e-08
9.6225553e-08
9.6325898e-08
9.3213349e-08
9.3250547e-08
9.3288644e-08
9.332953e-08
9.3371769e-08
9.3416174e-08
9.3462651e-08
9.3511902e-08
9.3563434e-08
9.3617941e-08
9.3675158e-08
9.3734828e-08
9.3796755e-08
9.3860686e-08
9.3926073e-08
9.3992311e-08
9.4058829e-08
9.4124919e-08
9.4189705e-08
9.4252354e-08
9.4312162e-08
9.4368368e-08
9.442035e-08
9.4468045e-08
9.4511773e-08
9.4551528e-08
9.4587272e-08
9.4619755e-08
9.4652221e-08
9.4663849e-08
9.4703549e-08
9.4738159e-08
9.4770759e-08
9.4805293e-08
9.4843844e-08
9.4886435e-08
9.4932635e-08
9.4983743e-08
9.5039134e-08
9.5097278e-08
9.5159012e-08
9.522631e-08
9.5294711e-08
9.5367767e-08
9.5441819e-08
9.5519017e-08
9.5597718e-08
9.5679037e-08
9.5754702e-08
9.3117736e-08
9.3157959e-08
9.3199247e-08
9.3243144e-08
9.3288755e-08
9.3336738e-08
9.3387085e-08
9.3440306e-08
9.3496105e-08
9.3554862e-08
9.361643e-08
9.3680585e-08
9.3747004e-08
9.381529e-08
9.3884876e-08
9.3955006e-08
9.4024876e-08
9.4093694e-08
9.4160541e-08
9.4224435e-08
9.4284516e-08
9.4339899e-08
9.4389852e-08
9.443421e-08
9.4473075e-08
9.4506344e-08
9.4534145e-08
9.4557305e-08
9.4576275e-08
9.4596171e-08
9.4611061e-08
9.4624656e-08
9.4639017e-08
9.4655694e-08
9.4675577e-08
9.4698658e-08
9.4724791e-08
9.4755087e-08
9.4789251e-08
9.4826253e-08
9.4866722e-08
9.4912121e-08
9.4959088e-08
9.5010244e-08
9.506275e-08
9.5118161e-08
9.5175106e-08
9.5234502e-08
9.5289393e-08
9.3045408e-08
9.3088635e-08
9.3133145e-08
9.3180191e-08
9.3229302e-08
9.3281017e-08
9.3335387e-08
9.3392779e-08
9.3453037e-08
9.3516301e-08
9.3582504e-08
9.3651433e-08
9.3722654e-08
9.3795645e-08
9.3869803e-08
9.3944232e-08
9.4017924e-08
9.409e-08
9.4159477e-08
9.4225227e-08
9.4286251e-08
9.4341538e-08
9.4390254e-08
9.4432136e-08
9.4467116e-08
9.4495002e-08
9.451604e-08
9.4530988e-08
9.454107e-08
9.4546496e-08
9.4549342e-08
9.4550767e-08
9.4551565e-08
9.4553061e-08
9.4556413e-08
9.4562111e-08
9.4570399e-08
9.4582282e-08
9.4597726e-08
9.4616089e-08
9.463785e-08
9.4664089e-08
9.4692303e-08
9.4724407e-08
9.4758204e-08
9.4794798e-08
9.4833036e-08
9.487366e-08
9.4910828e-08
9.2992556e-08
9.3038813e-08
9.3086611e-08
9.3136958e-08
9.3189716e-08
9.3245329e-08
9.3303897e-08
9.3365671e-08
9.3430603e-08
9.3498636e-08
9.3569762e-08
9.364376e-08
9.3720099e-08
9.379814e-08
9.3877233e-08
9.3956352e-08
9.4034306e-08
9.411012e-08
9.4182733e-08
9.4250882e-08
9.4313426e-08
9.4369238e-08
9.4417381e-08
9.4457504e-08
9.4489398e-08
9.451279e-08
9.4528017e-08
9.4535877e-08
9.4537295e-08
9.4533492e-08
9.4525593e-08
9.4514846e-08
9.4502473e-08
9.448988e-08
9.4478288e-08
9.4468433e-08
9.4460795e-08
9.4456286e-08
9.4455079e-08
9.4456855e-08
9.4462e-08
9.4471308e-08
9.4482962e-08
9.4498342e-08
9.4515758e-08
9.4535972e-08
9.455801e-08
9.4582466e-08
9.4604439e-08
9.295628e-08
9.300563e-08
9.305681e-08
9.3110622e-08
9.3167191e-08
9.3226887e-08
9.3289846e-08
9.3356232e-08
9.3426068e-08
9.3499146e-08
9.3575489e-08
9.3654862e-08
9.3736638e-08
9.3820076e-08
9.3904465e-08
9.3988654e-08
9.4071285e-08
9.4151283e-08
9.4227495e-08
9.4298524e-08
9.4363097e-08
9.4419967e-08
9.4468102e-08
9.4507063e-08
9.4536526e-08
9.4556147e-08
9.4566334e-08
9.4567895e-08
9.4561769e-08
9.4549101e-08
9.4531243e-08
9.4509589e-08
9.4485477e-08
9.4460265e-08
9.4435228e-08
9.4411334e-08
9.4389296e-08
9.4369989e-08
9.4353776e-08
9.4340609e-08
9.433082e-08
9.4324998e-08
9.4321867e-08
9.4322404e-08
9.4325319e-08
9.4331116e-08
9.4338966e-08
9.434933e-08
9.4358111e-08
9.2934371e-08
9.2986908e-08
9.3041594e-08
9.3099049e-08
9.3159613e-08
9.3223595e-08
9.3291161e-08
9.3362402e-08
9.3437395e-08
9.3515806e-08
9.3597673e-08
9.3682736e-08
9.377028e-08
9.3859464e-08
9.3949511e-08
9.4039145e-08
9.4126853e-08
9.4211452e-08
9.4291691e-08
9.4366037e-08
9.4433091e-08
9.4491486e-08
9.4540094e-08
9.4578396e-08
9.4605969e-08
9.4622403e-08
9.4628168e-08
9.4624095e-08
9.4611095e-08
9.4590422e-08
9.4563515e-08
9.4531846e-08
9.4496891e-08
9.4460026e-08
9.4422611e-08
9.4385823e-08
9.4350575e-08
9.4317736e-08
9.4287833e-08
9.4261048e-08
9.4237684e-08
9.4218185e-08
9.4201711e-08
9.4188929e-08
9.4178872e-08
9.4171845e-08
9.4167141e-08
9.4165105e-08
9.4162329e-08
9.2925179e-08
9.2981022e-08
9.3039362e-08
9.3100655e-08
9.3165417e-08
9.3233908e-08
9.3306316e-08
9.3382674e-08
9.3463097e-08
9.3547142e-08
9.3634853e-08
9.3725936e-08
9.381959e-08
9.3914878e-08
9.4010947e-08
9.4106398e-08
9.4199571e-08
9.4289171e-08
9.4373837e-08
9.4451905e-08
9.4521846e-08
9.4582178e-08
9.4631676e-08
9.4669744e-08
9.4695874e-08
9.4709596e-08
9.4711433e-08
9.4702243e-08
9.4682937e-08
9.4654851e-08
9.4619516e-08
9.4578506e-08
9.4533429e-08
9.4485699e-08
9.4436765e-08
9.4387994e-08
9.4340478e-08
9.4295106e-08
9.4252555e-08
9.4213202e-08
9.4177346e-08
9.4145331e-08
9.4116665e-08
9.4091786e-08
9.4069981e-08
9.4051407e-08
9.4035457e-08
9.4022372e-08
9.4009338e-08
9.2927495e-08
9.298679e-08
9.3048955e-08
9.3114297e-08
9.3183478e-08
9.325672e-08
9.3334226e-08
9.3415983e-08
9.3502127e-08
9.3592127e-08
9.3686017e-08
9.3783463e-08
9.3883582e-08
9.398534e-08
9.4087801e-08
9.4189444e-08
9.4288465e-08
9.4383451e-08
9.4472925e-08
9.4555091e-08
9.4628291e-08
9.4690926e-08
9.4741679e-08
9.4779875e-08
9.4804932e-08
9.4816327e-08
9.4814631e-08
9.4800729e-08
9.477555e-08
9.474051e-08
9.4697237e-08
9.4647403e-08
9.4592745e-08
9.4534738e-08
9.4474929e-08
9.4414861e-08
9.4355796e-08
9.4298659e-08
9.4244264e-08
9.4193162e-08
9.4145664e-08
9.4102046e-08
9.4062101e-08
9.4026093e-08
9.3993517e-08
9.3964415e-08
9.3938265e-08
9.3915213e-08
9.3892964e-08
9.2940475e-08
9.300339e-08
9.3069573e-08
9.3139192e-08
9.3213034e-08
9.3291288e-08
9.3374171e-08
9.3461627e-08
9.3553806e-08
9.3650097e-08
9.3750519e-08
9.3854689e-08
9.3961641e-08
9.4070245e-08
9.4179476e-08
9.4287689e-08
9.4392938e-08
9.4493686e-08
9.4588335e-08
9.4674953e-08
9.4751755e-08
9.4817026e-08
9.4869354e-08
9.4907989e-08
9.493228e-08
9.4941661e-08
9.4936741e-08
9.4918443e-08
9.4887719e-08
9.4846068e-08
9.4795213e-08
9.4736928e-08
9.4673081e-08
9.4605224e-08
9.4535013e-08
9.4464156e-08
9.4394073e-08
9.4325746e-08
9.4260117e-08
9.419789e-08
9.4139401e-08
9.4084885e-08
9.403437e-08
9.3987989e-08
9.3945406e-08
9.3906577e-08
9.387105e-08
9.3838886e-08
9.3808242e-08
9.2963584e-08
9.3030305e-08
9.3100721e-08
9.3174863e-08
9.3253628e-08
9.3337176e-08
9.3425735e-08
9.351921e-08
9.361776e-08
9.3720699e-08
9.3828021e-08
9.3939293e-08
9.4053462e-08
9.4169302e-08
9.4285691e-08
9.4400858e-08
9.4512715e-08
9.4619595e-08
9.4719774e-08
9.4811182e-08
9.4891907e-08
9.4960117e-08
9.5014305e-08
9.5053647e-08
9.507743e-08
9.5085047e-08
9.5077147e-08
9.5054689e-08
9.5018662e-08
9.4970644e-08
9.4912456e-08
9.4845978e-08
9.4773209e-08
9.4695795e-08
9.4615508e-08
9.4534216e-08
9.4453493e-08
9.4374387e-08
9.4297966e-08
9.4225069e-08
9.4156069e-08
9.4091183e-08
9.4030632e-08
9.3974453e-08
9.392245e-08
9.387451e-08
9.3830244e-08
9.3789632e-08
9.3751236e-08
9.2996547e-08
9.3067283e-08
9.3142166e-08
9.3221096e-08
9.3305066e-08
9.3394211e-08
9.3488765e-08
9.3588604e-08
9.369388e-08
9.3803844e-08
9.3918457e-08
9.4037227e-08
9.4159015e-08
9.4282494e-08
9.4406438e-08
9.452895e-08
9.4647796e-08
9.4761177e-08
9.4867233e-08
9.4963757e-08
9.5048707e-08
9.5120134e-08
9.5176438e-08
9.5216721e-08
9.524021e-08
9.5246265e-08
9.5235572e-08
9.5209129e-08
9.5167967e-08
9.5113746e-08
9.5048384e-08
9.4973873e-08
9.4892345e-08
9.4805553e-08
9.4715396e-08
9.4623896e-08
9.4532777e-08
9.4443165e-08
9.4356249e-08
9.4272995e-08
9.419382e-08
9.4118939e-08
9.4048736e-08
9.3983178e-08
9.3922186e-08
9.3865596e-08
9.3813071e-08
9.3764517e-08
9.3718858e-08
9.3039323e-08
9.3114301e-08
9.3193908e-08
9.3277909e-08
9.3367387e-08
9.3462454e-08
9.3563349e-08
9.3669915e-08
9.3782299e-08
9.3899687e-08
9.4022001e-08
9.4148684e-08
9.427851e-08
9.4410046e-08
9.4541958e-08
9.4672213e-08
9.4798434e-08
9.4918681e-08
9.5030956e-08
9.5132911e-08
9.5222373e-08
9.5297277e-08
9.5355928e-08
9.5397354e-08
9.5420729e-08
9.5425383e-08
9.5412038e-08
9.5381732e-08
9.5335545e-08
9.5275217e-08
9.5202766e-08
9.5120299e-08
9.5030089e-08
9.4934005e-08
9.4834081e-08
9.4732494e-08
9.4631112e-08
9.4531152e-08
9.4433918e-08
9.4340496e-08
9.4251354e-08
9.4166719e-08
9.4087116e-08
9.4012462e-08
9.3942778e-08
9.387786e-08
9.3817419e-08
9.3761287e-08
9.3708722e-08
9.3092085e-08
9.3171551e-08
9.325616e-08
9.3345538e-08
9.344085e-08
9.3542187e-08
9.3649791e-08
9.3763473e-08
9.388337e-08
9.4008603e-08
9.4139051e-08
9.4274086e-08
9.4412388e-08
9.4552416e-08
9.4692718e-08
9.4831125e-08
9.4965111e-08
9.5092591e-08
9.5211422e-08
9.5319114e-08
9.5413361e-08
9.5491983e-08
9.5553191e-08
9.559594e-08
9.5619351e-08
9.562273e-08
9.5606837e-08
9.5572748e-08
9.5521596e-08
9.5455201e-08
9.5375683e-08
9.5285272e-08
9.5186383e-08
9.5081016e-08
9.4971346e-08
9.4859703e-08
9.4748098e-08
9.4637847e-08
9.4530369e-08
9.4426862e-08
9.4327852e-08
9.4233592e-08
9.4144726e-08
9.4061143e-08
9.3982946e-08
9.3909906e-08
9.3841773e-08
9.3778313e-08
9.371909e-08
9.315521e-08
9.3239431e-08
9.3329343e-08
9.3424425e-08
9.3525921e-08
9.3633901e-08
9.3748607e-08
9.3869821e-08
9.399766e-08
9.4131187e-08
9.4270224e-08
9.4414071e-08
9.4561308e-08
9.4710279e-08
9.4859409e-08
9.5006387e-08
9.5148532e-08
9.5283611e-08
9.5409331e-08
9.5523057e-08
9.5622351e-08
9.5704917e-08
9.5768873e-08
9.5813103e-08
9.5836675e-08
9.583888e-08
9.5820509e-08
9.5782684e-08
9.5726587e-08
9.5654119e-08
9.5567506e-08
9.5469107e-08
9.5361485e-08
9.5246782e-08
9.5127317e-08
9.5005576e-08
9.4883713e-08
9.4763145e-08
9.4645406e-08
9.4531806e-08
9.4422933e-08
9.4319073e-08
9.4220981e-08
9.4128528e-08
9.4041894e-08
9.3960828e-08
9.3885119e-08
9.3814469e-08
9.3748731e-08
9.3229278e-08
9.3318543e-08
9.3414083e-08
9.351522e-08
9.3623275e-08
9.3738297e-08
9.3860526e-08
9.3989715e-08
9.4125956e-08
9.4268249e-08
9.4416357e-08
9.4569499e-08
9.472615e-08
9.4884534e-08
9.5042944e-08
9.5198919e-08
9.5349625e-08
9.5492668e-08
9.5625604e-08
9.5745653e-08
9.5850244e-08
9.5936965e-08
9.6003843e-08
9.6049691e-08
9.6073531e-08
9.6074637e-08
9.6053837e-08
9.6012292e-08
9.5951238e-08
9.5872655e-08
9.5778881e-08
9.5672406e-08
9.5555951e-08
9.5431807e-08
9.5302445e-08
9.5170505e-08
9.503828e-08
9.4907298e-08
9.4779207e-08
9.4655424e-08
9.4536608e-08
9.4423088e-08
9.4315719e-08
9.4214367e-08
9.4119281e-08
9.4030197e-08
9.3946944e-08
9.3869157e-08
9.3796968e-08
9.3315079e-08
9.34097e-08
9.3511218e-08
9.3618789e-08
9.3733806e-08
9.3856298e-08
9.3986502e-08
9.4124136e-08
9.4269266e-08
9.4420826e-08
9.4578514e-08
9.4741458e-08
9.4908024e-08
9.5076309e-08
9.5244463e-08
9.5409873e-08
9.5569541e-08
9.5720914e-08
9.5861389e-08
9.598804e-08
9.6098163e-08
9.6189234e-08
9.6259191e-08
9.6306779e-08
9.6330973e-08
9.6331039e-08
9.6307836e-08
9.6262569e-08
9.6196522e-08
9.6111756e-08
9.601072e-08
9.5896051e-08
9.5770628e-08
9.5636901e-08
9.5497494e-08
9.5355201e-08
9.5212457e-08
9.5070901e-08
9.4932299e-08
9.4798175e-08
9.4669261e-08
9.4545942e-08
9.4429164e-08
9.4318801e-08
9.4215165e-08
9.4117986e-08
9.4027129e-08
9.3942167e-08
9.3863507e-08
9.3413628e-08
9.351394e-08
9.3621818e-08
9.3736229e-08
9.3858643e-08
9.3989065e-08
9.4127724e-08
9.4274307e-08
9.4428845e-08
9.4590204e-08
9.4758006e-08
9.4931285e-08
9.5108288e-08
9.5286977e-08
9.5465353e-08
9.5640642e-08
9.5809678e-08
9.5969739e-08
9.6118067e-08
9.6251586e-08
9.6367463e-08
9.6463064e-08
9.653624e-08
9.6585671e-08
9.6610292e-08
9.6609359e-08
9.6583767e-08
9.6534758e-08
9.6463665e-08
9.6372627e-08
9.6264212e-08
9.6141206e-08
9.6006657e-08
9.5863175e-08
9.5713543e-08
9.5560703e-08
9.5407232e-08
9.5254887e-08
9.5105553e-08
9.4960862e-08
9.4821629e-08
9.4688299e-08
9.4561912e-08
9.4442353e-08
9.4330002e-08
9.4224584e-08
9.4126003e-08
9.4033767e-08
9.3948564e-08
9.3526187e-08
9.3632557e-08
9.3747206e-08
9.3868896e-08
9.3999175e-08
9.4138021e-08
9.4285654e-08
9.4441723e-08
9.460622e-08
9.4777938e-08
9.4956419e-08
9.5140588e-08
9.532857e-08
9.5518183e-08
9.5707268e-08
9.5892884e-08
9.607169e-08
9.6240795e-08
9.6397276e-08
9.6537913e-08
9.6659746e-08
9.6760037e-08
9.6836553e-08
9.6887915e-08
9.691302e-08
9.6911119e-08
9.6883139e-08
9.6830362e-08
9.6754159e-08
9.665675e-08
9.6540827e-08
9.6409333e-08
9.6265485e-08
9.611206e-08
9.5951993e-08
9.5788378e-08
9.562393e-08
9.5460529e-08
9.5300183e-08
9.5144636e-08
9.4994796e-08
9.4851175e-08
9.4714906e-08
9.4585898e-08
9.446459e-08
9.4350714e-08
9.424421e-08
9.414452e-08
9.4052621e-08
9.3654296e-08
9.376712e-08
9.3888992e-08
9.4018439e-08
9.4157089e-08
9.4304891e-08
9.4462055e-08
9.4628185e-08
9.4803228e-08
9.4985899e-08
9.5175649e-08
9.5371289e-08
9.5570811e-08
9.5771878e-08
9.5972165e-08
9.6168555e-08
9.6357528e-08
9.6536016e-08
9.6700933e-08
9.6848917e-08
9.6976886e-08
9.7082003e-08
9.716196e-08
9.7215323e-08
9.7240954e-08
9.7238106e-08
9.7207737e-08
9.7151159e-08
9.7069782e-08
9.6965902e-08
9.6842342e-08
9.6702208e-08
9.6548889e-08
9.6385322e-08
9.6214596e-08
9.6039947e-08
9.586423e-08
9.5689456e-08
9.551776e-08
9.5351008e-08
9.5190204e-08
9.5035946e-08
9.4889454e-08
9.4750675e-08
9.4620111e-08
9.4497499e-08
9.4382823e-08
9.4275456e-08
9.4176675e-08
9.3799812e-08
9.3919526e-08
9.4049112e-08
9.4186837e-08
9.4334411e-08
9.4491749e-08
9.4659043e-08
9.4835849e-08
9.5022065e-08
9.5216318e-08
9.5417956e-08
9.5625669e-08
9.5837305e-08
9.6050365e-08
9.6262347e-08
9.646995e-08
9.666947e-08
9.6857661e-08
9.7031272e-08
9.7186803e-08
9.7321056e-08
9.7431107e-08
9.7514582e-08
9.7569994e-08
9.7596183e-08
9.7592402e-08
9.7559639e-08
9.7499234e-08
9.7412625e-08
9.7302183e-08
9.7170869e-08
9.7021958e-08
9.6859005e-08
9.6685102e-08
9.6503481e-08
9.6317515e-08
9.6130201e-08
9.5943687e-08
9.5760246e-08
9.5581873e-08
9.5409684e-08
9.5244368e-08
9.5087242e-08
9.4938297e-08
9.4798097e-08
9.4666393e-08
9.4543213e-08
9.4427854e-08
9.4321917e-08
9.3964953e-08
9.4092038e-08
9.4229884e-08
9.437646e-08
9.4533563e-08
9.4701066e-08
9.4879143e-08
9.5067292e-08
9.5265349e-08
9.5471849e-08
9.5686025e-08
9.5906434e-08
9.6130769e-08
9.635636e-08
9.658052e-08
9.6799757e-08
9.7010181e-08
9.7208362e-08
9.7390888e-08
9.7554126e-08
9.7694774e-08
9.7809831e-08
9.7896867e-08
9.7954356e-08
9.7981119e-08
9.7976415e-08
9.7941258e-08
9.7877011e-08
9.7785126e-08
9.7668054e-08
9.7528898e-08
9.7371103e-08
9.7198379e-08
9.7013958e-08
9.6821202e-08
9.6623618e-08
9.6424343e-08