/*--------------------------------*- C++ -*----------------------------------*\
| =========                 |                                                 |
| \\      /  F ield         | OpenFOAM: The Open Source CFD Toolbox           |
|  \\    /   O peration     | Version:  v2006                                 |
|   \\  /    A nd           | Website:  www.openfoam.com                      |
|    \\/     M anipulation  |                                                 |
\*---------------------------------------------------------------------------*/
FoamFile
{
    version     2.0;
    format      ascii;
    class       volVectorField;
    location    "3000";
    object      C;
}
// * * * * * * * * * * * * * * * * * * * * * * * * * * * * * * * * * * * * * //

dimensions      [0 1 0 0 0 0 0];


internalField   nonuniform List<vector> 
19765
(
(0.022634151 0.034246898 0.5)
(0.019098432 0.033067018 0.5)
(0.016108949 0.031596963 0.5)
(0.013552558 0.029964556 0.5)
(0.011308621 0.028362475 0.5)
(0.0093238533 0.026807993 0.5)
(0.0075973869 0.025268391 0.5)
(0.0060793816 0.023753229 0.5)
(0.0047602056 0.022269948 0.5)
(0.0036818308 0.020747037 0.5)
(0.0027164715 0.019249202 0.5)
(0.001796293 0.01781178 0.5)
(0.00096221383 0.016405337 0.5)
(0.00020858445 0.01502128 0.5)
(-0.00051836094 0.013678195 0.5)
(-0.0011543808 0.012346636 0.5)
(-0.0016366197 0.010987326 0.5)
(-0.0020387859 0.0096152123 0.5)
(-0.0024230407 0.0082495462 0.5)
(-0.0027864873 0.0068874538 0.5)
(-0.0031115733 0.0055251129 0.5)
(-0.0033581369 0.0041581298 0.5)
(-0.0035364402 0.0027904902 0.5)
(-0.003684979 0.0014265216 0.5)
(-0.0037577932 6.3664761e-05 0.5)
(-0.0036927024 -0.0012988986 0.5)
(-0.0035388487 -0.0026619566 0.5)
(-0.0033549868 -0.0040291417 0.5)
(-0.0031003829 -0.0053959554 0.5)
(-0.0027692659 -0.0067588128 0.5)
(-0.0024032053 -0.0081223105 0.5)
(-0.0020161723 -0.0094899429 0.5)
(-0.0016110352 -0.010864697 0.5)
(-0.0011134567 -0.012223598 0.5)
(-0.00047321149 -0.013561333 0.5)
(0.00024023824 -0.01491548 0.5)
(0.00097908022 -0.016309784 0.5)
(0.0018107742 -0.017718229 0.5)
(0.0027418447 -0.019151756 0.5)
(0.0037206481 -0.020646371 0.5)
(0.0048240422 -0.022159674 0.5)
(0.0061665506 -0.023637108 0.5)
(0.0076981795 -0.025155388 0.5)
(0.0094545409 -0.026682897 0.5)
(0.011479587 -0.028218018 0.5)
(0.013782867 -0.029776467 0.5)
(0.016425581 -0.031334175 0.5)
(0.019414062 -0.032953144 0.5)
(0.022768215 -0.034682859 0.5)
(0.021428455 0.041375651 0.5)
(0.017726041 0.04016821 0.5)
(0.01455307 0.038663393 0.5)
(0.011795887 0.036987059 0.5)
(0.0093334889 0.035329592 0.5)
(0.0071122708 0.033706108 0.5)
(0.0051313039 0.032081256 0.5)
(0.0033408192 0.030462531 0.5)
(0.0017324334 0.02885298 0.5)
(0.00034854595 0.027179691 0.5)
(-0.00093727662 0.025505024 0.5)
(-0.0021898562 0.023859854 0.5)
(-0.0033645074 0.022210632 0.5)
(-0.0044649181 0.020548539 0.5)
(-0.0055393784 0.018888408 0.5)
(-0.0065157814 0.017196533 0.5)
(-0.0073291724 0.015436562 0.5)
(-0.00804827 0.013624015 0.5)
(-0.008725724 0.011776853 0.5)
(-0.009351696 0.0098945375 0.5)
(-0.0099014316 0.0079767743 0.5)
(-0.010328832 0.0060244313 0.5)
(-0.01064075 0.00404825 0.5)
(-0.010870651 0.0020594606 0.5)
(-0.01097018 6.3529427e-05 0.5)
(-0.010878307 -0.0019321049 0.5)
(-0.010643162 -0.0039199917 0.5)
(-0.010325814 -0.0058957516 0.5)
(-0.0098905273 -0.0078479869 0.5)
(-0.0093346719 -0.0097662443 0.5)
(-0.0087061264 -0.011649998 0.5)
(-0.0080259317 -0.013499165 0.5)
(-0.0073038969 -0.015314393 0.5)
(-0.0064756656 -0.01707441 0.5)
(-0.0054942852 -0.018771754 0.5)
(-0.0044332311 -0.020442845 0.5)
(-0.0033475306 -0.022115087 0.5)
(-0.002175493 -0.023766636 0.5)
(-0.00091206426 -0.02540797 0.5)
(0.00038717793 -0.027079439 0.5)
(0.001795999 -0.028743235 0.5)
(0.0034277655 -0.030346747 0.5)
(0.0052318537 -0.031968569 0.5)
(0.0072426535 -0.033581358 0.5)
(0.0095040773 -0.035185484 0.5)
(0.012025698 -0.036799393 0.5)
(0.014869023 -0.038401167 0.5)
(0.018040988 -0.040054602 0.5)
(0.021562218 -0.041810736 0.5)
(0.020151742 0.048924302 0.5)
(0.016272817 0.047687663 0.5)
(0.01290555 0.046146031 0.5)
(0.0099357439 0.044423208 0.5)
(0.0072419918 0.042707179 0.5)
(0.0047703362 0.041010802 0.5)
(0.0025197246 0.039296073 0.5)
(0.00044048194 0.037568172 0.5)
(-0.0014747402 0.035826069 0.5)
(-0.003182979 0.033994914 0.5)
(-0.0048090243 0.032134098 0.5)
(-0.0064147966 0.030270239 0.5)
(-0.0079521089 0.028365958 0.5)
(-0.0094216769 0.026410799 0.5)
(-0.010866399 0.024416155 0.5)
(-0.012207419 0.022345161 0.5)
(-0.013375411 0.020162235 0.5)
(-0.014432616 0.017882881 0.5)
(-0.015423078 0.015525038 0.5)
(-0.016329558 0.01309063 0.5)
(-0.017119969 0.010583222 0.5)
(-0.017741819 0.0080091501 0.5)
(-0.018197107 0.0053860412 0.5)
(-0.018514568 0.0027327634 0.5)
(-0.018643281 6.3385449e-05 0.5)
(-0.018522186 -0.002605695 0.5)
(-0.018199516 -0.0052580745 0.5)
(-0.017738859 -0.0078807762 0.5)
(-0.017109199 -0.010454766 0.5)
(-0.016312641 -0.01296266 0.5)
(-0.015403609 -0.015398518 0.5)
(-0.014410429 -0.01775838 0.5)
(-0.013350307 -0.020040432 0.5)
(-0.012167733 -0.022223621 0.5)
(-0.01082139 -0.024299746 0.5)
(-0.0093900107 -0.026305285 0.5)
(-0.0079350924 -0.028270525 0.5)
(-0.006400516 -0.030177309 0.5)
(-0.0047839334 -0.032037374 0.5)
(-0.0031444992 -0.033895014 0.5)
(-0.0014114094 -0.035716771 0.5)
(0.000527204 -0.037452716 0.5)
(0.002620025 -0.039183699 0.5)
(0.0049004022 -0.040886398 0.5)
(0.0074121824 -0.042563432 0.5)
(0.010165027 -0.044235987 0.5)
(0.013220785 -0.045884399 0.5)
(0.01658704 -0.047574336 0.5)
(0.020285187 -0.049358453 0.5)
(0.018799828 0.056917583 0.5)
(0.014733998 0.055650014 0.5)
(0.011160993 0.054069394 0.5)
(0.0079660332 0.052297365 0.5)
(0.0050272797 0.050519396 0.5)
(0.0022903876 0.048745973 0.5)
(-0.00024586672 0.046936368 0.5)
(-0.0026310379 0.045093199 0.5)
(-0.0048715551 0.04321148 0.5)
(-0.0069237596 0.041213963 0.5)
(-0.0089105774 0.039156637 0.5)
(-0.010891012 0.037061877 0.5)
(-0.012813388 0.034888486 0.5)
(-0.014674822 0.032623589 0.5)
(-0.016512699 0.030275211 0.5)
(-0.018241649 0.027803695 0.5)
(-0.019786783 0.025173292 0.5)
(-0.021203082 0.022399319 0.5)
(-0.02252605 0.019500227 0.5)
(-0.023730593 0.01648055 0.5)
(-0.024776957 0.013347984 0.5)
(-0.025605832 0.010114624 0.5)
(-0.026213651 0.0068053047 0.5)
(-0.02662435 0.0034471013 0.5)
(-0.026784283 6.323269e-05 0.5)
(-0.026631939 -0.0033203387 0.5)
(-0.026216057 -0.0066776472 0.5)
(-0.025602904 -0.0099865672 0.5)
(-0.024766267 -0.013219858 0.5)
(-0.023713752 -0.016352904 0.5)
(-0.022506673 -0.019374038 0.5)
(-0.021181001 -0.022275154 0.5)
(-0.019761801 -0.025051831 0.5)
(-0.018202244 -0.027682618 0.5)
(-0.016467788 -0.030159073 0.5)
(-0.014643203 -0.032518295 0.5)
(-0.012796366 -0.034793221 0.5)
(-0.010876797 -0.036969219 0.5)
(-0.0088855889 -0.039060219 0.5)
(-0.0068854162 -0.041114389 0.5)
(-0.0048084411 -0.043102585 0.5)
(-0.0025445452 -0.04497807 0.5)
(-0.00014582479 -0.04682431 0.5)
(0.002420123 -0.048621922 0.5)
(0.005197051 -0.050376025 0.5)
(0.0081947588 -0.052110612 0.5)
(0.011475466 -0.053808391 0.5)
(0.015047454 -0.055536981 0.5)
(0.018932936 -0.057350742 0.5)
(0.017368284 0.065381682 0.5)
(0.013104542 0.064081348 0.5)
(0.0093136815 0.062459438 0.5)
(0.0058803023 0.060635327 0.5)
(0.0026820989 0.058791832 0.5)
(-0.00033569141 0.056936938 0.5)
(-0.0031745019 0.055027092 0.5)
(-0.0058837402 0.053062111 0.5)
(-0.0084689774 0.051033054 0.5)
(-0.010885738 0.048859885 0.5)
(-0.013254898 0.046594834 0.5)
(-0.015632466 0.044255954 0.5)
(-0.017963187 0.041798129 0.5)
(-0.020240111 0.039205546 0.5)
(-0.022494894 0.036482821 0.5)
(-0.024635578 0.033587613 0.5)
(-0.026580909 0.030483505 0.5)
(-0.028378006 0.027185563 0.5)
(-0.030053609 0.023713038 0.5)
(-0.031574291 0.020073224 0.5)
(-0.032892224 0.01627822 0.5)
(-0.033940856 0.012346205 0.5)
(-0.034710537 0.0083096088 0.5)
(-0.035220211 0.0042042547 0.5)
(-0.035413348 6.3070774e-05 0.5)
(-0.035227775 -0.0040778167 0.5)
(-0.034712937 -0.0081822788 0.5)
(-0.03393795 -0.01221848 0.5)
(-0.032881594 -0.016150435 0.5)
(-0.031557514 -0.019945916 0.5)
(-0.030034308 -0.023587186 0.5)
(-0.028356013 -0.027061738 0.5)
(-0.026556028 -0.030362385 0.5)
(-0.024596388 -0.033466949 0.5)
(-0.022450093 -0.036366974 0.5)
(-0.020208555 -0.0391005 0.5)
(-0.017946178 -0.041703067 0.5)
(-0.015618309 -0.044163566 0.5)
(-0.013230002 -0.046498712 0.5)
(-0.010847523 -0.048760625 0.5)
(-0.008406072 -0.050924541 0.5)
(-0.0057974848 -0.052947315 0.5)
(-0.0030747295 -0.054915357 0.5)
(-0.00020630246 -0.056813248 0.5)
(0.0028514277 -0.058648852 0.5)
(0.006108438 -0.060449067 0.5)
(0.0096273488 -0.062199103 0.5)
(0.013417188 -0.063968625 0.5)
(0.017501037 -0.065813785 0.5)
(0.015852419 0.074344329 0.5)
(0.011379111 0.073009289 0.5)
(0.0073575645 0.071343652 0.5)
(0.0036717182 0.069464411 0.5)
(0.00019876765 0.067551582 0.5)
(-0.0031164983 0.065610513 0.5)
(-0.0062757556 0.063594697 0.5)
(-0.0093282388 0.061500912 0.5)
(-0.012278689 0.059316192 0.5)
(-0.015081703 0.056957361 0.5)
(-0.017855939 0.054472579 0.5)
(-0.020654294 0.051875435 0.5)
(-0.023417787 0.049116734 0.5)
(-0.026135011 0.046177327 0.5)
(-0.028831618 0.043058317 0.5)
(-0.031408842 0.039714674 0.5)
(-0.033778423 0.036109002 0.5)
(-0.035979072 0.032256077 0.5)
(-0.038028395 0.028176139 0.5)
(-0.039884135 0.023879409 0.5)
(-0.041489938 0.019382656 0.5)
(-0.042771567 0.014710499 0.5)
(-0.043712836 0.0099033921 0.5)
(-0.04432745 0.0050064521 0.5)
(-0.044555823 6.2899223e-05 0.5)
(-0.04433499 -0.0048803582 0.5)
(-0.04371523 -0.0097764091 0.5)
(-0.042768679 -0.014583124 0.5)
(-0.041479358 -0.019255227 0.5)
(-0.039867417 -0.023752453 0.5)
(-0.038009163 -0.02805064 0.5)
(-0.035957159 -0.032132603 0.5)
(-0.033753634 -0.03598823 0.5)
(-0.031369833 -0.039594407 0.5)
(-0.028786935 -0.042942781 0.5)
(-0.026103528 -0.046072552 0.5)
(-0.023400804 -0.049021903 0.5)
(-0.02064019 -0.051783321 0.5)
(-0.017831131 -0.054376755 0.5)
(-0.015043615 -0.056858415 0.5)
(-0.01221599 -0.059208052 0.5)
(-0.0092422305 -0.061386459 0.5)
(-0.0061762655 -0.063483295 0.5)
(-0.0029874732 -0.065487195 0.5)
(0.00036762916 -0.067409013 0.5)
(0.0038992297 -0.06927867 0.5)
(0.0076703782 -0.071084023 0.5)
(0.011690898 -0.072896892 0.5)
(0.015984797 -0.07477531 0.5)
(0.014247268 0.083834891 0.5)
(0.0095520511 0.082463087 0.5)
(0.0052862329 0.080751144 0.5)
(0.0013330448 0.078813541 0.5)
(-0.0024308489 0.076827341 0.5)
(-0.0060611391 0.074795099 0.5)
(-0.0095597734 0.07266721 0.5)
(-0.012975788 0.070437175 0.5)
(-0.016313103 0.06808788 0.5)
(-0.019525281 0.065532686 0.5)
(-0.022728601 0.062815385 0.5)
(-0.025972708 0.059944917 0.5)
(-0.029194713 0.056867814 0.5)
(-0.032378393 0.053561251 0.5)
(-0.035543083 0.050022675 0.5)
(-0.03858291 0.046204301 0.5)
(-0.04140203 0.042067528 0.5)
(-0.044030207 0.037626823 0.5)
(-0.046475461 0.032903553 0.5)
(-0.048686184 0.02791104 0.5)
(-0.050597 0.022671007 0.5)
(-0.052125531 0.017214886 0.5)
(-0.053248613 0.011591623 0.5)
(-0.05397443 0.0058561918 0.5)
(-0.054240159 6.2717505e-05 0.5)
(-0.053981946 -0.0057304624 0.5)
(-0.053251 -0.011465008 0.5)
(-0.052122658 -0.017087882 0.5)
(-0.050586465 -0.022543951 0.5)
(-0.048669523 -0.027784456 0.5)
(-0.046456296 -0.032778423 0.5)
(-0.044008372 -0.037503716 0.5)
(-0.041377328 -0.041947118 0.5)
(-0.038544065 -0.046084429 0.5)
(-0.035498527 -0.049907471 0.5)
(-0.032346993 -0.053456769 0.5)
(-0.029177765 -0.056773238 0.5)
(-0.025958656 -0.059853086 0.5)
(-0.022703881 -0.062719865 0.5)
(-0.01948732 -0.065434059 0.5)
(-0.016250613 -0.067980113 0.5)
(-0.012890039 -0.070323077 0.5)
(-0.0094605797 -0.072556154 0.5)
(-0.0059324967 -0.074672169 0.5)
(-0.0022624811 -0.076685203 0.5)
(0.001559896 -0.078628348 0.5)
(0.0055981426 -0.080492263 0.5)
(0.0098629309 -0.082351033 0.5)
(0.014379249 -0.084264679 0.5)
(0.012547571 0.09388446 0.5)
(0.0076173776 0.092473716 0.5)
(0.0030929005 0.090712734 0.5)
(-0.0011433796 0.088713348 0.5)
(-0.005215365 0.086649496 0.5)
(-0.0091792573 0.084520776 0.5)
(-0.013037303 0.082274325 0.5)
(-0.016838317 0.079900124 0.5)
(-0.020585388 0.077376753 0.5)
(-0.024230949 0.074613798 0.5)
(-0.027888735 0.071650391 0.5)
(-0.031604977 0.068490603 0.5)
(-0.035312676 0.065076473 0.5)
(-0.038990441 0.061381188 0.5)
(-0.042650946 0.057398368 0.5)
(-0.046180856 0.053077366 0.5)
(-0.049476194 0.048378205 0.5)
(-0.052557221 0.043315019 0.5)
(-0.055421863 0.037910421 0.5)
(-0.058008602 0.032181018 0.5)
(-0.060242523 0.026153783 0.5)
(-0.062032617 0.019867363 0.5)
(-0.063348298 0.01337969 0.5)
(-0.064191922 0.006756184 0.5)
(-0.064497236 6.2525041e-05 0.5)
(-0.064199412 -0.006630841 0.5)
(-0.063350678 -0.013253464 0.5)
(-0.062029757 -0.01974075 0.5)
(-0.06023203 -0.026027122 0.5)
(-0.057991999 -0.032054825 0.5)
(-0.055402765 -0.03778568 0.5)
(-0.052535464 -0.043192296 0.5)
(-0.049451581 -0.048258175 0.5)
(-0.046142168 -0.052957897 0.5)
(-0.042606525 -0.057283516 0.5)
(-0.038959131 -0.061277019 0.5)
(-0.035295769 -0.064982172 0.5)
(-0.031590976 -0.068399067 0.5)
(-0.027864103 -0.071555184 0.5)
(-0.024193118 -0.0745155 0.5)
(-0.020523112 -0.077269364 0.5)
(-0.016752839 -0.079786396 0.5)
(-0.012938422 -0.08216363 0.5)
(-0.0090510182 -0.08439825 0.5)
(-0.0050475189 -0.08650781 0.5)
(-0.00091722712 -0.088528734 0.5)
(0.0034038529 -0.090454645 0.5)
(0.0079272963 -0.092362022 0.5)
(0.012679133 -0.09431298 0.5)
(0.01074776 0.10452596 0.5)
(0.0055687516 0.10307397 0.5)
(0.0007703814 0.10126106 0.5)
(-0.0037656683 0.099196266 0.5)
(-0.0081639024 0.097050223 0.5)
(-0.012481066 0.094819399 0.5)
(-0.01671973 0.092447494 0.5)
(-0.020928464 0.089920721 0.5)
(-0.025109508 0.087213168 0.5)
(-0.029214067 0.084230341 0.5)
(-0.03335317 0.081006408 0.5)
(-0.03756945 0.077540333 0.5)
(-0.041791577 0.073769415 0.5)
(-0.04599264 0.069662551 0.5)
(-0.050178282 0.065209339 0.5)
(-0.054227306 0.060356146 0.5)
(-0.058027052 0.05506146 0.5)
(-0.061587702 0.049339066 0.5)
(-0.064896527 0.043212931 0.5)
(-0.06788152 0.036703142 0.5)
(-0.070457664 0.029842235 0.5)
(-0.072524809 0.022676494 0.5)
(-0.074044487 0.015273363 0.5)
(-0.075012893 0.0077093329 0.5)
(-0.075360144 6.2321207e-05 0.5)
(-0.075020358 -0.007584399 0.5)
(-0.07404686 -0.015147548 0.5)
(-0.072521961 -0.022550295 0.5)
(-0.070447212 -0.02971599 0.5)
(-0.067864976 -0.036577363 0.5)
(-0.064877497 -0.043088601 0.5)
(-0.061566022 -0.049216749 0.5)
(-0.058002528 -0.054941829 0.5)
(-0.054188772 -0.060237092 0.5)
(-0.050134005 -0.06509486 0.5)
(-0.045961428 -0.069558716 0.5)
(-0.041774717 -0.073675411 0.5)
(-0.037555501 -0.077449106 0.5)
(-0.033328627 -0.080911528 0.5)
(-0.02917637 -0.084132384 0.5)
(-0.025047452 -0.087106168 0.5)
(-0.020843271 -0.08980738 0.5)
(-0.016621177 -0.092337177 0.5)
(-0.012353252 -0.094697295 0.5)
(-0.0079966079 -0.096909014 0.5)
(-0.0035402553 -0.099012262 0.5)
(0.0010803201 -0.10100381 0.5)
(0.0058776528 -0.10296266 0.5)
(0.010878878 -0.10495314 0.5)
(0.0088419372 0.11579426 0.5)
(0.0033994614 0.11429858 0.5)
(-0.0016889334 0.11243068 0.5)
(-0.0065424124 0.11029664 0.5)
(-0.01128612 0.10806359 0.5)
(-0.015977379 0.1057247 0.5)
(-0.020619112 0.10322003 0.5)
(-0.025259616 0.10053177 0.5)
(-0.029900259 0.097629298 0.5)
(-0.034490921 0.094413742 0.5)
(-0.039139753 0.090913998 0.5)
(-0.043885597 0.087123648 0.5)
(-0.048652547 0.08297499 0.5)
(-0.053407814 0.07843233 0.5)
(-0.058149609 0.073481032 0.5)
(-0.062748443 0.068064325 0.5)
(-0.067082409 0.062139026 0.5)
(-0.071151005 0.055718548 0.5)
(-0.074930247 0.048828319 0.5)
(-0.078337016 0.041492107 0.5)
(-0.081275603 0.033748344 0.5)
(-0.083636176 0.0256514 0.5)
(-0.085371907 0.01727879 0.5)
(-0.086472472 0.0087187326 0.5)
(-0.086864143 6.2105346e-05 0.5)
(-0.08647991 -0.0085942319 0.5)
(-0.085374272 -0.017153412 0.5)
(-0.083633341 -0.02552564 0.5)
(-0.081265193 -0.033622539 0.5)
(-0.078320533 -0.041366766 0.5)
(-0.074911288 -0.048704422 0.5)
(-0.071129406 -0.055596659 0.5)
(-0.067057977 -0.062019815 0.5)
(-0.062710065 -0.067945704 0.5)
(-0.058105485 -0.073366949 0.5)
(-0.053376707 -0.07832885 0.5)
(-0.048635739 -0.082881302 0.5)
(-0.043871701 -0.087032744 0.5)
(-0.039115302 -0.090819459 0.5)
(-0.034453363 -0.094316141 0.5)
(-0.029838432 -0.097522701 0.5)
(-0.025174724 -0.10041883 0.5)
(-0.020520906 -0.10311011 0.5)
(-0.015850014 -0.10560304 0.5)
(-0.011119409 -0.10792289 0.5)
(-0.0063177821 -0.11011328 0.5)
(-0.0013800682 -0.11217432 0.5)
(0.0037072855 -0.11418767 0.5)
(0.0089725875 -0.11622 0.5)
(0.0068238599 0.12772627 0.5)
(0.0011023999 0.12618432 0.5)
(-0.0042931013 0.12425818 0.5)
(-0.009482709 0.12205083 0.5)
(-0.014592248 0.11972569 0.5)
(-0.01967965 0.1172724 0.5)
(-0.024748218 0.1146272 0.5)
(-0.029845954 0.111768 0.5)
(-0.034973319 0.10865923 0.5)
(-0.04007877 0.10519731 0.5)
(-0.045267403 0.10140555 0.5)
(-0.050574059 0.097271866 0.5)
(-0.055917996 0.092723266 0.5)
(-0.061260174 0.08771916 0.5)
(-0.066590946 0.082240445 0.5)
(-0.071772064 0.076227049 0.5)
(-0.076671793 0.069633982 0.5)
(-0.081278308 0.062474263 0.5)
(-0.085555728 0.054774886 0.5)
(-0.089409166 0.046563519 0.5)
(-0.092731592 0.037884838 0.5)
(-0.09540292 0.028801773 0.5)
(-0.097367458 0.019402504 0.5)
(-0.098607985 0.0097876709 0.5)
(-0.099046704 6.1876753e-05 0.5)
(-0.098615395 -0.0096636291 0.5)
(-0.097369814 -0.019277588 0.5)
(-0.095400097 -0.028676477 0.5)
(-0.092721224 -0.037759498 0.5)
(-0.089392746 -0.046438642 0.5)
(-0.085536843 -0.054651448 0.5)
(-0.081256794 -0.062352827 0.5)
(-0.076647456 -0.069515214 0.5)
(-0.071733844 -0.07610888 0.5)
(-0.066546984 -0.082126781 0.5)
(-0.061229179 -0.087616058 0.5)
(-0.055901245 -0.092629917 0.5)
(-0.050560218 -0.097181304 0.5)
(-0.045243049 -0.10131137 0.5)
(-0.040041357 -0.10510008 0.5)
(-0.034911732 -0.10855305 0.5)
(-0.029761379 -0.11165549 0.5)
(-0.024650378 -0.1145177 0.5)
(-0.01955276 -0.1171512 0.5)
(-0.014426154 -0.11958551 0.5)
(-0.0092589071 -0.12186815 0.5)
(-0.0039853727 -0.12400276 0.5)
(0.0014090838 -0.12607384 0.5)
(0.0069540147 -0.1281505 0.5)
(0.0046869156 0.1403611 0.5)
(-0.0013299588 0.13877014 0.5)
(-0.0070506542 0.13678233 0.5)
(-0.012596191 0.13449735 0.5)
(-0.018093115 0.13207472 0.5)
(-0.023600008 0.12950033 0.5)
(-0.029120574 0.12670639 0.5)
(-0.034702497 0.12366622 0.5)
(-0.040345295 0.12033907 0.5)
(-0.0459959 0.11661633 0.5)
(-0.051756169 0.11251539 0.5)
(-0.057656713 0.10801818 0.5)
(-0.063611679 0.10304612 0.5)
(-0.069575388 0.097553397 0.5)
(-0.075529879 0.091516204 0.5)
(-0.081327648 0.084870983 0.5)
(-0.086826522 0.077570805 0.5)
(-0.092002684 0.069628273 0.5)
(-0.096807666 0.061072051 0.5)
(-0.10113412 0.051933938 0.5)
(-0.10486303 0.04226522 0.5)
(-0.10786345 0.032137898 0.5)
(-0.11007029 0.021651437 0.5)
(-0.11145904 0.010919637 0.5)
(-0.11194759 6.1634676e-05 0.5)
(-0.11146642 -0.010796081 0.5)
(-0.11007264 -0.021527011 0.5)
(-0.10786064 -0.032013093 0.5)
(-0.10485271 -0.042140373 0.5)
(-0.10111777 -0.05180955 0.5)
(-0.096788857 -0.060949098 0.5)
(-0.091981258 -0.069507315 0.5)
(-0.086802285 -0.077452505 0.5)
(-0.08128959 -0.08475329 0.5)
(-0.075486089 -0.091402985 0.5)
(-0.069544511 -0.097450696 0.5)
(-0.06359499 -0.10295313 0.5)
(-0.05764293 -0.10792798 0.5)
(-0.051731915 -0.11242159 0.5)
(-0.04595864 -0.1165195 0.5)
(-0.040283958 -0.12023333 0.5)
(-0.034618257 -0.12355416 0.5)
(-0.029023121 -0.12659732 0.5)
(-0.023473618 -0.12937962 0.5)
(-0.017927674 -0.1319351 0.5)
(-0.012373266 -0.1343154 0.5)
(-0.0067441292 -0.13652791 0.5)
(-0.001024482 -0.13866009 0.5)
(0.0048165465 -0.14078371 0.5)
(0.0024241031 0.15374012 0.5)
(-0.0039055838 0.15209726 0.5)
(-0.0099706267 0.15004414 0.5)
(-0.01589306 0.14767699 0.5)
(-0.021800193 0.14515113 0.5)
(-0.027751294 0.14244855 0.5)
(-0.0337505 0.13949714 0.5)
(-0.03984515 0.13626539 0.5)
(-0.046033776 0.13270705 0.5)
(-0.052261681 0.12870819 0.5)
(-0.058627287 0.12427989 0.5)
(-0.065156736 0.11939776 0.5)
(-0.071758766 0.11397732 0.5)
(-0.078380655 0.10796721 0.5)
(-0.084995645 0.10133865 0.5)
(-0.091446439 0.094024392 0.5)
(-0.097579795 0.085975443 0.5)
(-0.10335919 0.077203965 0.5)
(-0.10872284 0.067740398 0.5)
(-0.1135502 0.057620916 0.5)
(-0.11770957 0.046903809 0.5)
(-0.12105849 0.035670677 0.5)
(-0.12352193 0.024032939 0.5)
(-0.12506764 0.01211833 0.5)
(-0.12560895 6.1378336e-05 0.5)
(-0.12507499 -0.011995289 0.5)
(-0.12352427 -0.023909031 0.5)
(-0.12105569 -0.035546392 0.5)
(-0.11769929 -0.046779483 0.5)
(-0.11353392 -0.057497048 0.5)
(-0.10870411 -0.067617959 0.5)
(-0.10333786 -0.077083512 0.5)
(-0.097555662 -0.085857639 0.5)
(-0.091408551 -0.0939072 0.5)
(-0.084952037 -0.1012259 0.5)
(-0.078349905 -0.10786494 0.5)
(-0.071742143 -0.11388471 0.5)
(-0.065143013 -0.11930794 0.5)
(-0.058603138 -0.12418648 0.5)
(-0.05222458 -0.12861176 0.5)
(-0.045972702 -0.13260177 0.5)
(-0.039761265 -0.13615381 0.5)
(-0.033653456 -0.13938854 0.5)
(-0.027625435 -0.14232836 0.5)
(-0.021635443 -0.1450121 0.5)
(-0.015671063 -0.14749579 0.5)
(-0.0096653762 -0.14979078 0.5)
(-0.0036013847 -0.15198768 0.5)
(0.00255318 -0.15416102 0.5)
(2.8009112e-05 0.16790719 0.5)
(-0.0066329131 0.16620934 0.5)
(-0.013062585 0.16408707 0.5)
(-0.019384116 0.16163291 0.5)
(-0.025725625 0.15899778 0.5)
(-0.032147109 0.15615947 0.5)
(-0.038653163 0.15304137 0.5)
(-0.045290757 0.14960678 0.5)
(-0.05205739 0.14580369 0.5)
(-0.058896628 0.14151247 0.5)
(-0.065903253 0.13673755 0.5)
(-0.073098679 0.13144785 0.5)
(-0.080385923 0.12555264 0.5)
(-0.08770479 0.11899468 0.5)
(-0.095019216 0.11173991 0.5)
(-0.10216154 0.10371722 0.5)
(-0.10896679 0.094875391 0.5)
(-0.11538498 0.08522612 0.5)
(-0.12134023 0.074801739 0.5)
(-0.12669803 0.063643056 0.5)
(-0.13131322 0.051815776 0.5)
(-0.1350312 0.039411664 0.5)
(-0.13776636 0.026554799 0.5)
(-0.13947829 0.01338767 0.5)
(-0.14007548 6.1106885e-05 0.5)
(-0.13948561 -0.013265174 0.5)
(-0.13776869 -0.02643144 0.5)
(-0.13502841 -0.039287931 0.5)
(-0.13130299 -0.051692001 0.5)
(-0.12668182 -0.063519737 0.5)
(-0.12132159 -0.074679843 0.5)
(-0.11536374 -0.085106202 0.5)
(-0.10894277 -0.094758111 0.5)
(-0.10212383 -0.10360056 0.5)
(-0.094975801 -0.11162766 0.5)
(-0.087674176 -0.11889286 0.5)
(-0.080369371 -0.12546044 0.5)
(-0.073085018 -0.13135843 0.5)
(-0.065879213 -0.13664456 0.5)
(-0.058859695 -0.14141648 0.5)
(-0.051996593 -0.14569889 0.5)
(-0.045207246 -0.1494957 0.5)
(-0.038556551 -0.15293326 0.5)
(-0.03202181 -0.15603982 0.5)
(-0.025561606 -0.15885937 0.5)
(-0.019163102 -0.16145252 0.5)
(-0.012758684 -0.16383483 0.5)
(-0.0063300668 -0.16610027 0.5)
(0.00015649997 -0.16832627 0.5)
(-0.0025092168 0.1829087 0.5)
(-0.0095208823 0.18115263 0.5)
(-0.016336659 0.17895713 0.5)
(-0.023080797 0.17641084 0.5)
(-0.029882272 0.17366001 0.5)
(-0.036801853 0.17067801 0.5)
(-0.043844623 0.16738343 0.5)
(-0.051057156 0.16373409 0.5)
(-0.058435865 0.15967188 0.5)
(-0.065922469 0.15507111 0.5)
(-0.07360789 0.14992916 0.5)
(-0.081508545 0.14420791 0.5)
(-0.089521392 0.13780998 0.5)
(-0.097578318 0.13067191 0.5)
(-0.1056334 0.12275405 0.5)
(-0.11350803 0.1139812 0.5)
(-0.12102477 0.10429978 0.5)
(-0.1281194 0.093720993 0.5)
(-0.13470112 0.082279184 0.5)
(-0.14062062 0.070020066 0.5)
(-0.14571851 0.057017195 0.5)
(-0.14982729 0.043373103 0.5)
(-0.1528502 0.029225269 0.5)
(-0.15473815 0.014731811 0.5)
(-0.15539451 6.0819435e-05 0.5)
(-0.15474543 -0.014609892 0.5)
(-0.15285251 -0.029102491 0.5)
(-0.14982452 -0.043249952 0.5)
(-0.14570833 -0.056894004 0.5)
(-0.14060448 -0.069897328 0.5)
(-0.13468257 -0.082157863 0.5)
(-0.12809827 -0.093601641 0.5)
(-0.12100087 -0.10418305 0.5)
(-0.1134705 -0.11386509 0.5)
(-0.10559019 -0.12264233 0.5)
(-0.097547847 -0.13057056 0.5)
(-0.089504916 -0.13771821 0.5)
(-0.08149495 -0.14411891 0.5)
(-0.073583966 -0.14983662 0.5)
(-0.065885713 -0.15497558 0.5)
(-0.05837536 -0.15956758 0.5)
(-0.050974041 -0.16362354 0.5)
(-0.043748468 -0.16727583 0.5)
(-0.036677146 -0.17055894 0.5)
(-0.029719027 -0.17352226 0.5)
(-0.022860823 -0.1762313 0.5)
(-0.016034188 -0.17870607 0.5)
(-0.0092194682 -0.18104408 0.5)
(-0.0023813458 -0.18332586 0.5)
(-0.0051958873 0.19879381 0.5)
(-0.012578953 0.19697608 0.5)
(-0.019803576 0.19470304 0.5)
(-0.026995214 0.19205919 0.5)
(-0.034283752 0.18918588 0.5)
(-0.041730775 0.18605174 0.5)
(-0.049341886 0.18257031 0.5)
(-0.057163237 0.17869359 0.5)
(-0.065190094 0.17435703 0.5)
(-0.073362215 0.16942851 0.5)
(-0.081766433 0.16389794 0.5)
(-0.090413875 0.15771972 0.5)
(-0.09919509 0.15078948 0.5)
(-0.10803357 0.14303712 0.5)
(-0.11687296 0.13441713 0.5)
(-0.12552305 0.12484993 0.5)
(-0.13379322 0.11427945 0.5)
(-0.14160416 0.10271639 0.5)
(-0.14884926 0.090197212 0.5)
(-0.15536355 0.076772821 0.5)
(-0.1609726 0.062525093 0.5)
(-0.16549521 0.047567959 0.5)
(-0.16882282 0.03205309 0.5)
(-0.17089715 0.016155153 0.5)
(-0.17161618 6.0515043e-05 0.5)
(-0.1709044 -0.016033845 0.5)
(-0.16882512 -0.031930928 0.5)
(-0.16549246 -0.047445426 0.5)
(-0.16096247 -0.06240252 0.5)
(-0.1553475 -0.076650698 0.5)
(-0.1488308 -0.090076499 0.5)
(-0.14158313 -0.10259764 0.5)
(-0.13376944 -0.11416332 0.5)
(-0.12548572 -0.12473441 0.5)
(-0.11682997 -0.13430596 0.5)
(-0.10800325 -0.14293628 0.5)
(-0.099178695 -0.15069816 0.5)
(-0.09040035 -0.15763117 0.5)
(-0.081742631 -0.16380587 0.5)
(-0.073325646 -0.16933347 0.5)
(-0.065129896 -0.17425327 0.5)
(-0.05708054 -0.1785836 0.5)
(-0.049246216 -0.18246326 0.5)
(-0.041606696 -0.18593327 0.5)
(-0.034121326 -0.18904882 0.5)
(-0.026776342 -0.19188056 0.5)
(-0.019502618 -0.19445323 0.5)
(-0.012279055 -0.19686809 0.5)
(-0.005068672 -0.19920892 0.5)
(-0.0080408046 0.21561457 0.5)
(-0.015817145 0.21373154 0.5)
(-0.023474694 0.21137638 0.5)
(-0.031140192 0.20862924 0.5)
(-0.038944485 0.20562623 0.5)
(-0.046950024 0.20233103 0.5)
(-0.055162962 0.19865177 0.5)
(-0.063629001 0.1945343 0.5)
(-0.0723422 0.18990726 0.5)
(-0.081240233 0.1846317 0.5)
(-0.090405601 0.17868963 0.5)
(-0.099843834 0.17202753 0.5)
(-0.1094387 0.16453364 0.5)
(-0.11910478 0.15613083 0.5)
(-0.1287747 0.14676733 0.5)
(-0.13824595 0.136359 0.5)
(-0.14731395 0.1248471 0.5)
(-0.15588339 0.11224177 0.5)
(-0.16383097 0.098581748 0.5)
(-0.17097511 0.083923431 0.5)
(-0.17712542 0.068357505 0.5)
(-0.18208626 0.052009969 0.5)
(-0.18573652 0.035047522 0.5)
(-0.18800823 0.017662356 0.5)
(-0.18879361 6.0192736e-05 0.5)
(-0.18801543 -0.017541695 0.5)
(-0.18573881 -0.034926011 0.5)
(-0.18208352 -0.051888089 0.5)
(-0.17711534 -0.068235586 0.5)
(-0.17095914 -0.08380196 0.5)
(-0.16381261 -0.09846168 0.5)
(-0.15586247 -0.11212366 0.5)
(-0.14729029 -0.12473158 0.5)
(-0.13820882 -0.1362441 0.5)
(-0.12873193 -0.14665676 0.5)
(-0.11907462 -0.15603052 0.5)
(-0.10942239 -0.16444281 0.5)
(-0.099830383 -0.17193946 0.5)
(-0.090381928 -0.17859805 0.5)
(-0.081203862 -0.18453717 0.5)
(-0.072282328 -0.18980406 0.5)
(-0.063546746 -0.1944249 0.5)
(-0.055067804 -0.1985453 0.5)
(-0.046826608 -0.2022132 0.5)
(-0.038782926 -0.20548992 0.5)
(-0.030922486 -0.20845157 0.5)
(-0.023175338 -0.2111279 0.5)
(-0.015518852 -0.21362413 0.5)
(-0.0079142829 -0.21602751 0.5)
(-0.011053289 0.23342608 0.5)
(-0.019246066 0.23147389 0.5)
(-0.027362041 0.22903177 0.5)
(-0.03552931 0.22617528 0.5)
(-0.043879741 0.22303495 0.5)
(-0.052476699 0.2195692 0.5)
(-0.061326921 0.21568049 0.5)
(-0.070475629 0.2113081 0.5)
(-0.079915613 0.2063735 0.5)
(-0.08958233 0.20073048 0.5)
(-0.099553694 0.19435268 0.5)
(-0.10982931 0.18717822 0.5)
(-0.12028576 0.17908748 0.5)
(-0.13082821 0.1699959 0.5)
(-0.14137759 0.15984511 0.5)
(-0.15171839 0.14854611 0.5)
(-0.16163122 0.13603733 0.5)
(-0.17100387 0.12232833 0.5)
(-0.17969531 0.10746025 0.5)
(-0.1875064 0.091495314 0.5)
(-0.19422987 0.07453353 0.5)
(-0.19965476 0.056713678 0.5)
(-0.20364668 0.03821837 0.5)
(-0.20612739 0.019258355 0.5)
(-0.20698304 5.9851425e-05 0.5)
(-0.20613456 -0.01913838 0.5)
(-0.20364896 -0.038097549 0.5)
(-0.19965204 -0.05659249 0.5)
(-0.19421986 -0.074412304 0.5)
(-0.18749053 -0.091374533 0.5)
(-0.17967705 -0.10734086 0.5)
(-0.17098307 -0.12221089 0.5)
(-0.1616077 -0.13592246 0.5)
(-0.15168148 -0.14843186 0.5)
(-0.14133507 -0.15973516 0.5)
(-0.13079823 -0.16989616 0.5)
(-0.12026954 -0.17899716 0.5)
(-0.10981594 -0.18709065 0.5)
(-0.099530157 -0.19426162 0.5)
(-0.089546167 -0.20063649 0.5)
(-0.079856084 -0.2062709 0.5)
(-0.070393844 -0.21119933 0.5)
(-0.061232304 -0.21557462 0.5)
(-0.052353984 -0.21945204 0.5)
(-0.0437191 -0.22289941 0.5)
(-0.035312839 -0.22599861 0.5)
(-0.027064382 -0.2287847 0.5)
(-0.018949473 -0.2313671 0.5)
(-0.010927501 -0.23383673 0.5)
(-0.014243211 0.2522867 0.5)
(-0.02287695 0.25026126 0.5)
(-0.031478351 0.24772707 0.5)
(-0.040176948 0.24475478 0.5)
(-0.049105688 0.24146905 0.5)
(-0.058328905 0.23782273 0.5)
(-0.067853956 0.23371224 0.5)
(-0.077725553 0.22906995 0.5)
(-0.087935143 0.22380969 0.5)
(-0.098415832 0.21777759 0.5)
(-0.10924068 0.2109384 0.5)
(-0.12040301 0.20322141 0.5)
(-0.13177181 0.19449867 0.5)
(-0.14324227 0.18467775 0.5)
(-0.15472292 0.17369329 0.5)
(-0.1659845 0.16145116 0.5)
(-0.17679195 0.14788678 0.5)
(-0.18701511 0.1330091 0.5)
(-0.19649424 0.1168618 0.5)
(-0.20501159 0.099513269 0.5)
(-0.21234198 0.081073395 0.5)
(-0.21825826 0.061694492 0.5)
(-0.22261197 0.041576019 0.5)
(-0.225314 0.020948379 0.5)
(-0.22624406 5.9490006e-05 0.5)
(-0.22532112 -0.020829129 0.5)
(-0.22261423 -0.041455929 0.5)
(-0.21825555 -0.061574037 0.5)
(-0.21233203 -0.080952903 0.5)
(-0.20499581 -0.099393219 0.5)
(-0.1964761 -0.11674314 0.5)
(-0.18699444 -0.13289237 0.5)
(-0.17676857 -0.14777261 0.5)
(-0.16594781 -0.16133761 0.5)
(-0.15468065 -0.17358402 0.5)
(-0.14321246 -0.18457862 0.5)
(-0.13175569 -0.1944089 0.5)
(-0.12038972 -0.20313436 0.5)
(-0.10921728 -0.2108479 0.5)
(-0.098379889 -0.21768417 0.5)
(-0.087875976 -0.22370772 0.5)
(-0.077644263 -0.22896184 0.5)
(-0.067759913 -0.23360702 0.5)
(-0.058206933 -0.23770629 0.5)
(-0.048946019 -0.24133434 0.5)
(-0.039961784 -0.24457918 0.5)
(-0.031182489 -0.24748148 0.5)
(-0.022582157 -0.25015513 0.5)
(-0.0141182 -0.25269491 0.5)
(-0.017621021 0.27225822 0.5)
(-0.026721694 0.27015521 0.5)
(-0.035837113 0.26752352 0.5)
(-0.045098334 0.26442861 0.5)
(-0.054639447 0.26098894 0.5)
(-0.064525815 0.25715142 0.5)
(-0.074765451 0.25280612 0.5)
(-0.085402522 0.24787803 0.5)
(-0.096427059 0.24227296 0.5)
(-0.10776968 0.23582887 0.5)
(-0.11949828 0.22850112 0.5)