/*--------------------------------*- C++ -*----------------------------------*\
| =========                 |                                                 |
| \\      /  F ield         | OpenFOAM: The Open Source CFD Toolbox           |
|  \\    /   O peration     | Version:  v2006                                 |
|   \\  /    A nd           | Website:  www.openfoam.com                      |
|    \\/     M anipulation  |                                                 |
\*---------------------------------------------------------------------------*/
FoamFile
{
    version     2.0;
    format      ascii;
    class       volScalarField;
    location    "3000";
    object      Cp;
}
// * * * * * * * * * * * * * * * * * * * * * * * * * * * * * * * * * * * * * //

dimensions      [0 0 0 0 0 0 0];


internalField   nonuniform List<scalar> 
19765
(
0.14935146
0.20546588
0.3561868
0.46141355
0.56562108
0.64392321
0.73608701
0.78958054
0.8578435
0.91329566
0.95181236
0.98118617
1.004231
1.0159628
1.0188504
1.0150727
1.0050636
0.98869391
0.96577641
0.93606875
0.89862928
0.85388352
0.80583964
0.74957488
0.68137042
0.61049187
0.54968302
0.48054889
0.39395739
0.31591265
0.23448397
0.136166
0.025271729
-0.12081445
-0.23853999
-0.32168915
-0.42827572
-0.58942418
-0.70117915
-0.82537134
-1.0292062
-1.2044309
-1.2321857
-1.387287
-1.3807025
-1.4297486
-1.385607
-1.3175783
-1.2309485
0.33735105
0.36604071
0.40278961
0.44684477
0.49356752
0.53853515
0.58560339
0.62515082
0.66653258
0.70748738
0.74211809
0.77083614
0.7972954
0.81582816
0.82621809
0.83331653
0.8354945
0.83018042
0.81908404
0.80117249
0.77665172
0.7470203
0.71050502
0.66751061
0.61957433
0.56708912
0.507981
0.44340175
0.37437995
0.30027058
0.22172954
0.13964058
0.054579849
-0.030872965
-0.11544141
-0.20073824
-0.28804893
-0.37424563
-0.45393319
-0.52868776
-0.59463751
-0.6489099
-0.70097835
-0.74540347
-0.77699637
-0.80396314
-0.8244843
-0.843232
-0.86205951
0.3296982
0.3657796
0.40653264
0.44699349
0.48707806
0.52465569
0.56154519
0.59310436
0.62430496
0.65333551
0.67902989
0.70139076
0.72132235
0.73637559
0.74600208
0.75205653
0.75417602
0.75074327
0.74148788
0.72619954
0.70481967
0.67780017
0.64483364
0.60581873
0.56175376
0.51313491
0.45893615
0.39956137
0.33604932
0.26806187
0.19643317
0.12242899
0.04725855
-0.027965853
-0.10460257
-0.18209214
-0.25807656
-0.33208966
-0.40450185
-0.47273786
-0.53610734
-0.59804075
-0.65698213
-0.71099931
-0.76017539
-0.79977413
-0.834808
-0.86466059
-0.89223902
0.36306343
0.38660962
0.4111732
0.43723626
0.46392277
0.49047439
0.517161
0.54151435
0.56598915
0.58978597
0.61107719
0.62982726
0.64675512
0.65985366
0.66838874
0.67411441
0.67684266
0.67482368
0.66766653
0.65510938
0.63738529
0.61539656
0.58848903
0.55613898
0.51927593
0.47858128
0.43316619
0.38308462
0.32946313
0.27226198
0.21217342
0.15040033
0.087788885
0.02542199
-0.037860251
-0.10145898
-0.16315597
-0.22219939
-0.27974664
-0.33325042
-0.38187995
-0.42929347
-0.4762432
-0.51833956
-0.56000151
-0.59836499
-0.63751826
-0.67589813
-0.71333391
0.34743683
0.3687239
0.39043307
0.41188924
0.43294798
0.45327894
0.47344012
0.49170307
0.50996742
0.52781994
0.54392496
0.5581265
0.57097846
0.58101563
0.58744804
0.59155075
0.59330937
0.59121968
0.58474264
0.57356854
0.5574918
0.53715896
0.51213606
0.4819448
0.44749004
0.40956566
0.36755281
0.32128314
0.27182052
0.21944875
0.16464524
0.10835903
0.051266481
-0.0056447937
-0.062782087
-0.11976305
-0.17532501
-0.22890597
-0.2810999
-0.33055818
-0.37715061
-0.42297351
-0.4684537
-0.51124299
-0.55421293
-0.59540439
-0.63619919
-0.67569683
-0.71402966
0.34254749
0.35792618
0.37393017
0.38985915
0.40570925
0.42112077
0.43665494
0.45078561
0.46508072
0.4791221
0.49178568
0.50291926
0.51294546
0.52068155
0.52544671
0.52819323
0.52886175
0.52621357
0.51977437
0.50926062
0.49448061
0.4760705
0.45367998
0.42677733
0.39609327
0.36228022
0.32488146
0.28382111
0.24001696
0.19375625
0.14549139
0.096051572
0.046041762
-0.0036990512
-0.05344105
-0.10285202
-0.15093664
-0.19724731
-0.24217611
-0.28477458
-0.32495192
-0.36430471
-0.40304285
-0.44002428
-0.47703591
-0.51319891
-0.54977856
-0.58666445
-0.62325124
0.3257928
0.33881018
0.35225485
0.36527329
0.37799732
0.39018018
0.40240513
0.413439
0.42459803
0.43554914
0.44538653
0.45396642
0.46162339
0.46739711
0.47069563
0.47224574
0.47196531
0.46880039
0.46231733
0.45222831
0.43833963
0.42107821
0.40014492
0.37511614
0.34656484
0.31509711
0.28037657
0.24234702
0.20181455
0.15908001
0.11454248
0.068910605
0.02268493
-0.023382539
-0.069401316
-0.11509001
-0.15972984
-0.20294006
-0.24500425
-0.28527271
-0.32375885
-0.36153568
-0.39891836
-0.43510555
-0.47143823
-0.50731447
-0.54365276
-0.58022204
-0.61698765
0.31264425
0.32276115
0.33338667
0.34366349
0.35373981
0.36336308
0.37306464
0.38176928
0.39059497
0.39922728
0.40690804
0.41350383
0.41928075
0.42343885
0.42547129
0.42593994
0.42474321
0.4209924
0.41430939
0.40442304
0.39117134
0.37486768
0.35528218
0.33208097
0.30569157
0.27663926
0.24466973
0.20977741
0.17267207
0.13363576
0.093044532
0.051528836
0.0095388345
-0.032258883
-0.073924348
-0.11520796
-0.15551064
-0.19450543
-0.23241099
-0.26870247
-0.30336587
-0.33729607
-0.37072224
-0.4031052
-0.43549786
-0.4675146
-0.49995221
-0.53271409
-0.56576436
0.29646037
0.30485831
0.31369959
0.32214773
0.33036627
0.33814036
0.34595694
0.3528988
0.35992046
0.36674477
0.37273261
0.37776177
0.38204758
0.38491505
0.38592543
0.38552039
0.38358666
0.37936074
0.37250767
0.3627726
0.35001276
0.33444098
0.31585607
0.29400215
0.26920721
0.24193363
0.21198843
0.17938873
0.14475758
0.10835696
0.070529058
0.031827721
-0.0073597264
-0.046440117
-0.085424271
-0.12408684
-0.1619425
-0.19869617
-0.23451746
-0.26899281
-0.30212563
-0.33457388
-0.36660057
-0.39775623
-0.42892002
-0.45979737
-0.4910423
-0.52260337
-0.55452719
0.2820678
0.28880516
0.29598738
0.30282576
0.30947632
0.31573227
0.3220234
0.3275482
0.33312311
0.33849219
0.34310923
0.34685978
0.34991741
0.35170467
0.35184044
0.35067491
0.3480892
0.34342538
0.33638845
0.32674432
0.31436622
0.29940202
0.28168168
0.26101278
0.2376463
0.21198702
0.18389104
0.15339926
0.12106475
0.08713118
0.051921108
0.0159345
-0.020476838
-0.05677564
-0.092947805
-0.12878128
-0.16384945
-0.19788226
-0.23101738
-0.26289422
-0.29349294
-0.3233757
-0.35276842
-0.38129242
-0.40971446
-0.43779117
-0.46611475
-0.49465855
-0.52345099
0.26722529
0.27278885
0.27875845
0.28440025
0.28986045
0.29495205
0.300055
0.30447125
0.30890163
0.31311386
0.31663638
0.31936226
0.32143184
0.32234581
0.32177016
0.31998475
0.31686831
0.31184812
0.30466295
0.29509875
0.28303589
0.26858443
0.25158832
0.23190066
0.20972366
0.18540377
0.15883922
0.13008367
0.099627332
0.067694427
0.034584231
0.00074481899
-0.033511127
-0.06770015
-0.10179222
-0.13558924
-0.16872062
-0.2009377
-0.23235468
-0.26265966
-0.29183093
-0.32031298
-0.34833528
-0.37553991
-0.40261117
-0.42932931
-0.45621326
-0.48324924
-0.51052444
0.25357248
0.25808898
0.26298807
0.26759501
0.27204327
0.27615709
0.280268
0.28376227
0.28724193
0.29049303
0.29310521
0.29497711
0.29622114
0.29640141
0.29522325
0.29291092
0.28934338
0.28401939
0.27670698
0.26721065
0.25541702
0.24141353
0.22505346
0.20622605
0.18510175
0.1619748
0.13677756
0.10957546
0.080807087
0.050681168
0.019480557
-0.012385983
-0.044631233
-0.076812153
-0.10888599
-0.14066059
-0.17179777
-0.20206342
-0.23155209
-0.25997841
-0.28730562
-0.31391709
-0.3400211
-0.36528047
-0.39032272
-0.41493769
-0.43960435
-0.46430801
-0.48912088
0.24027464
0.24398459
0.2480432
0.25183277
0.25547331
0.25880322
0.26211182
0.2648589
0.26756287
0.27002748
0.27189281
0.27306285
0.27362702
0.27320183
0.27152547
0.26877793
0.26483992
0.25927004
0.25186134
0.24243515
0.23088448
0.21728052
0.20148421
0.18341113
0.16320942
0.14112986
0.11713092
0.091285723
0.063987662
0.035430454
0.005880104
-0.024291049
-0.054821099
-0.085305936
-0.11569683
-0.14581035
-0.17534049
-0.20406946
-0.2320788
-0.2591092
-0.28511965
-0.31042892
-0.3352379
-0.3592148
-0.38293806
-0.4062007
-0.42943635
-0.45262745
-0.47587636
0.22789602
0.23090484
0.23423308
0.23731793
0.24026684
0.24292919
0.2455562
0.24766991
0.24971708
0.25151657
0.25275084
0.25332826
0.25331882
0.25238272
0.25028584
0.24717224
0.24292539
0.23715469
0.22967463
0.22032172
0.20899561
0.19575479
0.18046905
0.1630744
0.14370184
0.12256687
0.099648641
0.07502657
0.049056006
0.021918395
-0.0061338789
-0.034758052
-0.063710826
-0.092619118
-0.1214278
-0.14995753
-0.17792335
-0.20511854
-0.23161113
-0.25715805
-0.28170939
-0.30554192
-0.32884027
-0.35128216
-0.37340749
-0.39501048
-0.41649406
-0.43783398
-0.45912503
0.21609538
0.21853763
0.22126804
0.22377434
0.22615184
0.22826118
0.23032048
0.23190589
0.23340303
0.2346448
0.23534941
0.23542945
0.23493873
0.2335744
0.23112598
0.22770825
0.22320814
0.21727838
0.20975201
0.20047926
0.18936644
0.17646183
0.16164446
0.14486609
0.12624398
0.10596488
0.084024236
0.060505861
0.035732041
0.0098731343
-0.01683147
-0.044065699
-0.071603529
-0.099100943
-0.12649993
-0.15362729
-0.18021919
-0.20608208
-0.23127512
-0.25557238
-0.27892129
-0.30155932
-0.3236602
-0.34490756
-0.36580503
-0.38614735
-0.40630505
-0.42624721
-0.44608366
0.20505298
0.20700588
0.20921829
0.21122461
0.21310935
0.2147429
0.21631418
0.21744597
0.21847133
0.21923562
0.21948753
0.21914343
0.21824343
0.21651613
0.21377128
0.21009953
0.20539165
0.19933766
0.19178661
0.18260113
0.171694
0.15910524
0.14472325
0.1285125
0.11057905
0.091086041
0.070042176
0.047534584
0.023857187
-0.00082898413
-0.026295871
-0.052250141
-0.078479641
-0.10466492
-0.13074464
-0.15654962
-0.18183182
-0.2064076
-0.23032623
-0.25337415
-0.27549438
-0.29689447
-0.31773395
-0.33770608
-0.35728247
-0.37626023
-0.39498425
-0.41341744
-0.43166689
0.19461037
0.19615594
0.19793296
0.19951809
0.20098585
0.20221598
0.203372
0.20411739
0.20474009
0.20509687
0.20496264
0.20425741
0.20300982
0.20097558
0.19798198
0.19409976
0.18922378
0.18307633
0.17552045
0.16642998
0.15572396
0.14343562
0.12946249
0.11377958
0.096483688
0.077718238
0.057502724
0.035926663
0.013259233
-0.01034671
-0.034673665
-0.059448652
-0.084472018
-0.1094469
-0.13431026
-0.15889802
-0.18297781
-0.20637709
-0.22913817
-0.25106086
-0.27208754
-0.29239964
-0.31214523
-0.33102749
-0.34948718
-0.36732473
-0.3848595
-0.40204874
-0.41900746
0.18480862
0.18600203
0.18740098
0.18862043
0.18972616
0.19060626
0.19140207
0.19181248
0.19208653
0.19209127
0.19162426
0.19060889
0.18906414
0.1867692
0.18356661
0.17951053
0.17450006
0.16828557
0.16074236
0.15175441
0.14124682
0.12924711
0.1156615
0.10047402
0.083773778
0.065687478
0.046243663
0.025533693
0.0038050979
-0.018796266
-0.042062472
-0.065738408
-0.089635061
-0.11347543
-0.13719466
-0.160633
-0.18357116
-0.20584586
-0.22749195
-0.24832017
-0.26827165
-0.28750606
-0.30615887
-0.32394559
-0.34127807
-0.35796231
-0.37429555
-0.39023111
-0.40588361
0.17556058
0.17645509
0.17753063
0.17843662
0.17923094
0.17980946
0.18029422
0.18041521
0.18038789
0.18008871
0.17933497
0.17805335
0.17625475
0.17373886
0.17036162
0.16616346
0.16104772
0.15478937
0.14727451
0.13839635
0.12808589
0.11636563
0.10315046
0.088431493
0.072291386
0.054843324
0.036122914
0.016223111
-0.0046277315
-0.026289895
-0.048564352
-0.071212035
-0.094053498
-0.11682991
-0.13947534
-0.16183491
-0.18370212
-0.20492338
-0.22552785
-0.24533787
-0.26429558
-0.28254217
-0.30020236
-0.31700504
-0.3333343
-0.34900289
-0.3642868
-0.37913596
-0.39366945
0.16685777
0.16749297
0.16828661
0.16891912
0.16944146
0.16975659
0.16996973
0.16983812
0.16954817
0.16898491
0.16798287
0.16647185
0.16445597
0.16175294
0.15823052
0.15391766
0.14872194
0.14243995
0.13496738
0.12620583
0.11609191
0.10464336
0.09178443
0.077511452
0.061901568
0.045057522
0.027019476
0.0078821003
-0.01214319
-0.032922038
-0.054263658
-0.075943326
-0.097790062
-0.11956139
-0.1411904
-0.16252684
-0.18337567
-0.20359198
-0.22319919
-0.24202998
-0.26002729
-0.27731627
-0.29401067
-0.30985404
-0.32520398
-0.33988152
-0.35414347
-0.36793802
-0.38138469
0.15864309
0.15905536
0.15960509
0.16000049
0.16028637
0.16037223
0.16034867
0.15999694
0.15947832
0.1586857
0.15746876
0.15576037
0.15355896
0.15069817
0.1470563
0.14265272
0.1373992
0.13111144
0.12369366
0.11505515
0.10513774
0.093955152
0.081440836
0.067594766
0.052489265
0.03621926
0.018828053
0.00041155805
-0.018833736
-0.038778255
-0.059238931
-0.080004018
-0.10091023
-0.12173009
-0.14239606
-0.16276286
-0.1826465
-0.20191077
-0.22057445
-0.23848083
-0.25557501
-0.27196854
-0.28776566
-0.30272532
-0.31717992
-0.33095967
-0.34430322
-0.35715759
-0.36964478
0.15089183
0.15111004
0.15144648
0.15163425
0.15171282
0.15159761
0.15136656
0.15082208
0.15010365
0.14911134
0.14770823
0.14583009
0.14347065
0.14047769
0.1367389
0.13226567
0.12697387
0.12069616
0.11334439
0.10483491
0.095114346
0.084193169
0.072013362
0.058577812
0.043954648
0.028232507
0.011457107
-0.0062749104
-0.024780252
-0.043933614
-0.063559187
-0.083456976
-0.10347068
-0.12338654
-0.14313655
-0.16258032
-0.18154414
-0.19989985
-0.21766184
-0.23468324
-0.2509113
-0.26644551
-0.28138084
-0.2954921
-0.30908755
-0.32200746
-0.33447376
-0.34643346
-0.35800898
0.14356113
0.1436113
0.143762
0.14376863
0.14366593
0.14337485
0.14296224
0.1422493
0.14135656
0.14019072
0.13862674
0.1366032
0.13410997
0.13100743
0.12719169
0.12266751
0.11735479
0.11110124
0.10382561
0.095450707
0.085927602
0.075264185
0.063410163
0.050370907
0.036210877
0.021013484
0.0048264191
-0.012253445
-0.03005451
-0.048455357
-0.067287021
-0.086360237
-0.10552515
-0.1245806
-0.1434584
-0.16202316
-0.18011107
-0.19760182
-0.21450615
-0.23068705
-0.2460946
-0.26081806
-0.27494427
-0.28826413
-0.30106319
-0.31319215
-0.32485734
-0.33600616
-0.34676224
0.13662243
0.1365262
0.13651432
0.1363622
0.13610047
0.1356551
0.13508335
0.13422309
0.13317833
0.13186191
0.13015935
0.12801193
0.12540634
0.12221426
0.1183394
0.113781
0.10846284
0.10224613
0.095055802
0.086820633
0.07749577
0.067087088
0.055551247
0.042895794
0.029181976
0.014488758
-0.0011345408
-0.017591222
-0.034720119
-0.052403353
-0.070478458
-0.088765979
-0.10712202
-0.12535706
-0.14340285
-0.16112901
-0.17838105
-0.19504604
-0.21113139
-0.22650938
-0.24113294
-0.25508221
-0.26843636
-0.28100218
-0.29304367
-0.30442221
-0.31532966
-0.3257146
-0.33570064
0.13004089
0.12981768
0.12966405
0.12937332
0.12897254
0.12839232
0.12768154
0.12669294
0.12551617
0.12406969
0.1222485
0.11999649
0.11729775
0.11403411
0.11011618
0.10553862
0.10022899
0.094060544
0.086963878
0.078873218
0.069747484
0.059590998
0.048366653
0.036083919
0.022801215
0.0085936637
-0.0064880711
-0.022347821
-0.038833751
-0.055831272
-0.073184084
-0.090721757
-0.10830597
-0.12575794
-0.14300954
-0.15993544
-0.17639005
-0.19226756
-0.20757253
-0.2221864
-0.23606526
-0.24928144
-0.26190734
-0.2737655
-0.28509971
-0.29578212
-0.30599111
-0.31567672
-0.32496277
0.12378869
0.12345528
0.12317801
0.12276628
0.12224401
0.12154611
0.12071419
0.11961421
0.11832333
0.11676522
0.11484335
0.11250412
0.10972954
0.10641061
0.10246416
0.097881124
0.092592657
0.086482877
0.079487503
0.071545789
0.06262013
0.052713665
0.041794876
0.029874921
0.017009723
0.0032710386
-0.011289389
-0.02657621
-0.042445991
-0.058787213
-0.075449459
-0.092270618
-0.10911759
-0.12582154
-0.1423146
-0.15847641
-0.17416984
-0.18929576
-0.20385621
-0.21774128
-0.23091021
-0.24342835
-0.25536182
-0.26654837
-0.27721276
-0.28723776
-0.29678921
-0.30581912
-0.3144507
0.11783648
0.11740805
0.11702356
0.11650681
0.11587905
0.11507913
0.11414234
0.11294649
0.11155781
0.10990482
0.1078986
0.10548798
0.10265332
0.099293907
0.095332264
0.090756233
0.085500467
0.07945885
0.072571779
0.064783139
0.056058525
0.046400191
0.035781623
0.024215455
0.011755381
-0.0015298288
-0.015587589
-0.030323628
-0.045602098
-0.0613144
-0.077315721
-0.093451654
-0.10959402
-0.12558319
-0.14135171
-0.15678411
-0.17175131
-0.1861605
-0.20001163
-0.21320313
-0.22569747
-0.23755398
-0.24883326
-0.25938777
-0.26942459
-0.27883687
-0.28777887
-0.29620469
-0.30423693
0.11215898
0.11164906
0.11117201
0.11056462
0.1098458
0.10895805
0.10793119
0.10665363
0.10518207
0.1034495
0.1013739
0.09890642
0.096026115
0.092639808
0.088675215
0.084117678
0.07890519
0.072940461
0.066168161
0.058536441
0.050013842
0.040601973
0.030278787
0.0190582
0.0069918864
-0.0058540584
-0.019426442
-0.033632283
-0.048342637
-0.063451688
-0.078819993
-0.094300288
-0.10976904
-0.12507516
-0.14015169
-0.15488795
-0.16916247
-0.18288836
-0.19606374
-0.2085949
-0.22044748
-0.23167539
-0.24233418
-0.25229031
-0.26173431
-0.27056935
-0.27893892
-0.28679947
-0.29427248
0.10673137
0.10615237
0.1055962
0.10491139
0.10411483
0.1031524
0.10204913
0.10070299
0.099162345
0.097364341
0.095233184
0.092722254
0.089809628
0.086408976
0.08245277
0.077924343
0.072764888
0.066885098
0.060233556
0.05276235
0.044442722
0.035275828
0.025243598
0.014361045
0.0026779947
-0.0097418982
-0.022845048
-0.036539961
-0.050703998
-0.065234042
-0.079995781
-0.094848608
-0.10967338
-0.12432694
-0.13874289
-0.15281523
-0.16642963
-0.17950482
-0.1920373
-0.2039409
-0.21518435
-0.22581686
-0.23588955
-0.2452822
-0.25417003
-0.26246587
-0.27030325
-0.27764109
-0.2845996
0.10153171
0.10089493
0.10027192
0.099521837
0.098659787
0.097634824
0.096467805
0.095065306
0.093468378
0.09161805
0.089444173
0.086902262
0.083969673
0.080566324
0.076629051
0.072139592
0.067042201
0.06125481
0.054729591
0.047422259
0.039306536
0.030383269
0.02063792
0.010086421
-0.0012231279
-0.013229323
-0.025878398
-0.039080516
-0.052718849
-0.066692903
-0.080873299
-0.09512563
-0.10933493
-0.12336536
-0.13715117
-0.15059086
-0.1635768
-0.17603291
-0.18795432
-0.19926188
-0.20992729
-0.21999553
-0.22951368
-0.23837405
-0.2467376
-0.25452634
-0.26186459
-0.26871382
-0.27519263
0.096539395
0.095855313
0.095176858
0.094372791
0.093456701
0.092380572
0.091161631
0.089714227
0.088072994
0.086182579
0.083977969
0.081416718
0.078475681
0.075080489
0.071171995
0.066730692
0.061703759
0.056015702
0.04962199
0.042481682
0.03457077
0.025889902
0.016427657
0.0062007226
-0.0047444389
-0.016348537
-0.02855783
-0.041284304
-0.054416504
-0.067856531
-0.08147974
-0.095157528
-0.10877888
-0.12221476
-0.13540008
-0.14823764
-0.16062608
-0.17249414
-0.18383574
-0.19457832
-0.20469645
-0.21423137
-0.22322663
-0.23158632
-0.23945828
-0.24677328
-0.25364711
-0.26004385
-0.26608038
0.091736242
0.091014567
0.090291191
0.089443642
0.088484181
0.087367527
0.086107729
0.08462618
0.082951869
0.081032822
0.078808699
0.076239007
0.073300285
0.069923396
0.066052896
0.061668335
0.05671968
0.051137421
0.044880059
0.037909732
0.030204505
0.021764911
0.012582262
0.002673841
-0.007915473
-0.019128402
-0.030911434
-0.043178525
-0.05582325
-0.068750271
-0.081839521
-0.094967829
-0.10802794
-0.1208971
-0.13351092
-0.14577625
-0.15759756
-0.16890799
-0.17970038
-0.18990828
-0.19950889
-0.2085401
-0.21704222
-0.22493032
-0.23234006
-0.23921044
-0.24564936
-0.25162356
-0.2572479
0.087105791
0.086355576
0.085597093
0.084715894
0.083723072
0.082575899
0.081285642
0.079780087
0.078083252
0.076146315
0.07391321
0.071345302
0.068418969
0.065069881
0.061246014
0.056926229
0.052063151
0.046592723
0.040476239
0.033678675
0.02617998
0.017980628
0.0090743084
-0.0005212477
-0.010762727
-0.021594796
-0.032964375
-0.044787543
-0.056962603
-0.069396798
-0.081974474
-0.094577579
-0.10710243
-0.11943208
-0.13150283
-0.14322534
-0.15450945
-0.1652923
-0.17556573
-0.18526894
-0.19438159
-0.20293858
-0.21097738
-0.21842328
-0.22540083
-0.23185678
-0.23789177
-0.24347525
-0.24871989
0.082633825
0.081863473
0.081078994
0.080173318
0.079156496
0.077988193
0.076677232
0.075157214
0.073447765
0.071503018
0.069270806
0.066714271
0.063809763
0.06049737
0.056728234
0.052480746
0.047710062
0.042357104
0.036385739
0.029763555
0.02247221
0.014512159
0.0058791312
-0.0034088354
-0.013309999
-0.023770929
-0.034739191
-0.04613313
-0.057855553
-0.069816302
-0.081904014
-0.094005469
-0.10602039
-0.1178372
-0.12939285
-0.14060157
-0.15137806
-0.16166307
-0.17144745
-0.18067553
-0.1893292
-0.19744057
-0.20504448
-0.21207565
-0.2186483
-0.22471642
-0.23037389
-0.23559291
-0.24048369
0.078307959
0.077525283
0.076723283
0.075801689
0.074769628
0.073589002
0.072266481
0.070740964
0.069028199
0.067085078
0.064863013
0.062326834
0.059452974
0.056185595
0.052478776
0.048310619
0.043638696
0.038408476
0.032586203
0.026141867
0.019058669
0.011337066
0.0029745127
-0.0060107872
-0.015578675
-0.025677609
-0.036256031
-0.047234701
-0.058520745
-0.070026663
-0.081645271
-0.093267945
-0.10479767
-0.11612782
-0.12719597
-0.13791963
-0.14821788
-0.15803464
-0.16735978
-0.17614228
-0.18436597
-0.19206052
-0.19925837
-0.20590307
-0.2120994
-0.21780819
-0.22311715
-0.22800123
-0.23256804
0.074117908
0.073330103
0.072518396
0.071588821
0.070549661
0.069364919
0.068039363
0.06651673
0.064809333
0.062876644
0.060673363
0.058165929
0.05533095
0.052116349
0.048478934
0.04439668
0.039829454
0.034726892
0.029057433
0.022793274
0.015919002
0.0084350963
0.00034042829
-0.00834677
-0.017587947
-0.027333458
-0.03753287
-0.048109495
-0.058974655
-0.070043581
-0.081213202
-0.092379283
-0.10344796
-0.11431718
-0.12492512
-0.13519223
-0.1450415
-0.15441955
-0.16331521
-0.17168151
-0.17950397
-0.18680983
-0.19362927
-0.19991379
-0.20575934
-0.21113309
-0.21611687
-0.22068854
-0.22495265
0.070055117
0.069268787
0.068454564
0.067524328
0.066485602
0.065304354
0.063983673
0.062471714
0.060777751
0.058863672
0.056687201
0.054216311
0.051427863
0.048273259
0.044711851
0.040721619
0.036264617
0.0312943
0.025781138
0.019699355
0.013034782
0.0057879245
-0.0020412154
-0.010434475
-0.019355027
-0.028755145
-0.038585703
-0.048772757
-0.05923173
-0.069880704
-0.080620671
-0.091351649
-0.10198283
-0.11241644
-0.12259116
-0.13243009
-0.14185962
-0.15082862
-0.15932472
-0.16730454
-0.17475496
-0.18170103
-0.18817091
-0.19412353
-0.19964694
-0.20471429
-0.20940216
-0.21369123
-0.21768299
0.06611297
0.065334064
0.064523843
0.063599611
0.062568204
0.061397427
0.060088885
0.058594774
0.056921678
0.055033749
0.052891496
0.050464354
0.047729509
0.044641585
0.041162306
0.037269776
0.032928129
0.028094326
0.02274072
0.016843393
0.010389287
0.0033789283
-0.0041868534
-0.012289982
-0.0208955
-0.029957632
-0.039428736
-0.04923788
-0.059304521
-0.069549712
-0.079878523
-0.090195132
-0.10041176
-0.1104346
-0.12020284
-0.12964187
-0.13868096
-0.14727072
-0.15539742
-0.16302059
-0.17012808
-0.17674263
-0.18289021
-0.18853627
-0.19376123
-0.19854362
-0.20295488
-0.20697874
-0.21071304
0.06228624
0.061520095
0.060719763
0.059807563
0.05878972
0.057635754
0.056345964
0.054876243
0.053230802
0.051375911
0.049274658
0.046897874
0.044223127
0.041208032
0.037816533
0.034026952
0.029805407
0.025112082
0.019921072
0.014210171
0.0079673097
0.0011930165
-0.0061112927
-0.013927684
-0.022223238
-0.03095418
-0.04007451
-0.049516545
-0.059203785
-0.069060419
-0.078995636
-0.088917771
-0.098742088
-0.10837854
-0.11776676
-0.12683411
-0.13551221
-0.14375293
-0.1515409
-0.15883805
-0.16563286
-0.17194593
-0.1778014
-0.18317091
-0.18812829
-0.19265737
-0.19682518
-0.20061826
-0.20413112
0.058571499
0.057822726
0.057037449
0.056142589
0.055143854
0.054012348
0.05274723
0.051307774
0.049696105
0.047880479
0.045826371
0.043505953
0.040897223
0.037960578
0.034662041
0.030980237
0.026883168
0.022333987
0.017308412
0.011785805
0.0057549806
-0.00078355629
-0.0078280081
-0.015360671
-0.023350785
-0.031756627
-0.040534056
-0.049618845
-0.058938604
-0.068420832
-0.077978966
-0.08752556
-0.096979013
-0.10625289
-0.11528723
-0.12401106
-0.13235782
-0.14028007
-0.14776049
-0.15476261
-0.16127493
-0.1673155
-0.17290603
-0.17802309
-0.18273372
-0.18702602
-0.19096248
-0.19453277
-0.19782734
0.054966038
0.054238656
0.053472982
0.052600135
0.051625394
0.050521333
0.049286127
0.047882139
0.046309686
0.044538879
0.042537422
0.040278771
0.037741407
0.034888312
0.031687462
0.028117851
0.024149274
0.019747619
0.014890117
0.009557578
0.0037396049
-0.0025633485
-0.0093492783
-0.016600801
-0.024289424
-0.032375521
-0.04081704
-0.04955342
-0.05851647
-0.067637241
-0.076833579
-0.08602245
-0.095125541
-0.10405995
-0.11276616
-0.12117455
-0.12921987
-0.13685484
-0.1440599
-0.15079954
-0.15706199
-0.1628629
-0.1682222
-0.17312147
-0.17762253
-0.18171813
-0.18546736
-0.18886233
-0.19199069
0.051468993
0.050766204
0.050023871
0.049176913
0.048230281
0.047157902
0.045957106
0.044593086
0.043064592
0.041343478
0.03939953
0.037207447
0.034746233
0.031981279
0.028882396
0.025428999
0.021592585
0.017341564
0.012654583
0.0075137947
0.0019095086
-0.0041578922
-0.010686355
-0.017658889
-0.025049368
-0.032820292
-0.040931934
-0.049327607
-0.057943442
-0.066714297
-0.07556271
-0.084410336
-0.093182412
-0.10179958
-0.11020282
-0.11832362
-0.12609761
-0.1334771
-0.14043973
-0.14695003
-0.15299487
-0.15858648
-0.1637417
-0.16844484
-0.17275129
-0.17665658
-0.18021562
-0.18342364
-0.18636434
0.048078992
0.047403553
0.046687762
0.045870008
0.044954985
0.043917882
0.042755319
0.041435092
0.03995462
0.038287404
0.036405189
0.034283882
0.031903052
0.029230339
0.026237277
0.022903739
0.01920283
0.015105287
0.010591089
0.005643646
0.00025391263
-0.0055778135
-0.011849561
-0.018544781
-0.025639829
-0.033099331
-0.040886107
-0.04894756
-0.057224244
-0.065655158
-0.074167853
-0.082689117
-0.091148057
-0.099468995
-0.10759355
-0.11545424
-0.12298721
-0.13014387
-0.13689874
-0.14321568
-0.14907996
-0.15450082
-0.15949322
-0.16404531
-0.16820888
-0.17198355
-0.17542229
-0.17852175
-0.18136458
0.044797162
0.044150881
0.043463846
0.042677707
0.041796921
0.040797882
0.039676596
0.038403267
0.036974177
0.035364396
0.033547511
0.031500611
0.029203872
0.026627034
0.023743242
0.020532858
0.016970492
0.013029026
0.0086896995
0.0039371213
-0.001237153
-0.0068329138
-0.01284838
-0.019267466
-0.026069123
-0.033220065
-0.040685872
-0.04841825
-0.056362276
-0.064461436
-0.07264874
-0.080856632
-0.089018506
-0.097062583
-0.10493147
-0.11255876
-0.11988092
-0.12684798
-0.13343064
-0.13959073
-0.14531007
-0.15059268
-0.15544865
-0.1598657
-0.16388834
-0.16751672
-0.17079937
-0.17373629
-0.17640616
0.041621885
0.041006502
0.04035012
0.039597662
0.038753272
0.037794547
0.036716977
0.035493033
0.034118049
0.032568617
0.030820073
0.028850674
0.026641236
0.024163469
0.021392031
0.018307778
0.014886722
0.011103707
0.0069411669
0.0023848763
-0.0025730279
-0.0079324245
-0.0136918
-0.019835518
-0.026345195
-0.033189491
-0.040336973
-0.047743874
-0.055359845
-0.06313332
-0.071003255
-0.078908439
-0.086786981
-0.094571415
-0.10220584
-0.10962533
-0.11676672
-0.12357837
-0.13002693
-0.1360716
-0.14169078
-0.14688447
-0.15166053
-0.15600964
-0.1599746
-0.16355978
-0.1668135
-0.1697357
-0.17240626
0.038556313
0.037972259
0.037347084
0.036629201
0.035822288
0.034905198
0.03387294
0.032700141
0.031381318
0.029894542
0.028216799
0.026327488
0.024208109
0.021832217
0.019175884
0.016220454
0.012943208
0.0093207659
0.0053366969
0.00097795333
-0.003762736
-0.0088853215
-0.014388606
-0.020257337
-0.026475872
-0.033014596
-0.03984525
-0.046928718
-0.054219214
-0.061670592
-0.069228364
-0.076838417
-0.084444088
-0.091982887
-0.09940135
-0.10663676
-0.11362658
-0.12031722
-0.12667039
-0.13264065
-0.13819982
-0.14333941
-0.14805848
-0.15234211
-0.15622234
-0.15970027
-0.16281767
-0.16557934
-0.16805892
0.035596713
0.035044995
0.034451773
0.033769421
0.033000893
0.032126427
0.031140618
0.030020218
0.028759072
0.027336742
0.025731784
0.023924731
0.021897782
0.019626222
0.01708743
0.014263215
0.011132006
0.0076720153
0.0038679146
-0.00029209414
-0.004814629
-0.009699675
-0.014946329
-0.020539686
-0.026467077
-0.032700454
-0.039214889
-0.045975793
-0.052941761
-0.060072564
-0.067320669
-0.074639847
-0.08197912
-0.089282026
-0.09649895
-0.10357076
-0.11043641
-0.11704069
-0.12334053
-0.12928581
-0.13484276
-0.13999742
-0.14474614
-0.14907697
-0.15302286
-0.15659051
-0.1598238
-0.16272497
-0.16537099
0.032749945
0.032229164
0.031666527
0.031018763
0.030287952
0.029455801
0.028516537
0.02744897
0.026246387
0.024889808
0.023359252
0.021636312
0.019703862
0.017538787
0.015119696
0.012428887
0.0094458377
0.0061501602
0.0025275594
-0.0014323896
-0.005735556
-0.010381916
-0.015370813
-0.020687683
-0.026322959
-0.032249768
-0.038446915
-0.044884145
-0.051524288
-0.058333598
-0.065271845
-0.072301185
-0.079376742
-0.086449467
-0.093475294
-0.10040034
-0.10716605
-0.11371615
-0.12000228
-0.12596728
-0.13156658
-0.13677184
-0.14156262
-0.14591163
-0.14983196
-0.15331945
-0.15640561
-0.15910152
-0.16147181
0.030007429
0.029517821
0.028985671
0.028372344
0.027678951
0.026888825
0.025996023
0.024981457
0.023838045
0.022548254
0.021093468
0.019456272
0.017620197
0.01556363
0.013266344
0.010711122
0.0078783177
0.0047485959
0.001308559
-0.0024506129
-0.0065339331
-0.010941431
-0.015672666
-0.02071327
-0.026056081
-0.031674102
-0.037550547
-0.043659415
-0.04996758
-0.056448859
-0.06307094
-0.06980479
-0.076612293
-0.083454134
-0.090293972
-0.097085183
-0.10377311
-0.11030171
-0.1166188
-0.12266218
-0.12838081
-0.13374046
-0.13871861
-0.14329264
-0.14748116
-0.15128863
-0.15475273
-0.15787565
-0.16073094
0.027383579
0.026920449
0.026414792
0.025832275
0.025173398
0.024423056
0.023575241
0.022612798
0.02152839
0.020305885
0.01892799
0.017378202
0.015640566
0.013694662
0.011521127
0.0091030692
0.0064215233
0.0034579854
0.00020002511
-0.003359155
-0.007223615
-0.01139348
-0.015868346
-0.020633832
-0.025684932
-0.030993861
-0.036548399
-0.042325161
-0.048294508
-0.054438684
-0.060732147
-0.067155649
-0.073678687
-0.080275128
-0.086919419
-0.093575592
-0.10019555
-0.106726
-0.11311141
-0.11928117
-0.12516794
-0.13071292
-0.13586167
-0.14055701
-0.14477739
-0.14849892
-0.15173229
-0.15449385
-0.15683223
0.024857878
0.024420864
0.023941356
0.023388671
0.022762959
0.02205072
0.021246399
0.020335054
0.01930962
0.018155422
0.016856316
0.015396305
0.013759451
0.011926011
0.0098772305
0.0075967641
0.0050668167
0.0022700318
-0.00080496032
-0.004162503
-0.0078054519