/*--------------------------------*- C++ -*----------------------------------*\
| =========                 |                                                 |
| \\      /  F ield         | OpenFOAM: The Open Source CFD Toolbox           |
|  \\    /   O peration     | Version:  v2006                                 |
|   \\  /    A nd           | Website:  www.openfoam.com                      |
|    \\/     M anipulation  |                                                 |
\*---------------------------------------------------------------------------*/
FoamFile
{
    version     2.0;
    format      ascii;
    class       volScalarField;
    location    "3000";
    object      k;
}
// * * * * * * * * * * * * * * * * * * * * * * * * * * * * * * * * * * * * * //

dimensions      [0 2 -2 0 0 0 0];


internalField   nonuniform List<scalar> 
19765
(
0.00015498543
0.00015792549
0.00016089773
0.00016390542
0.00016724901
0.00017050818
0.00017432028
0.00017746208
0.00018170296
0.00018430034
0.00018661297
0.00018938007
0.00019214498
0.00019404831
0.00019630539
0.0001989944
0.00020131656
0.00020333888
0.00020587763
0.00020871464
0.00021161071
0.0002141791
0.00021693925
0.00022007479
0.00022304272
0.00022536516
0.00022796102
0.00023095586
0.00023348688
0.00023606387
0.00023898823
0.00024232313
0.00024645179
0.00024929395
0.00025098121
0.0002535587
0.00025738165
0.00026001553
0.00026353945
0.00026871604
0.00027261939
0.00027388524
0.0002768674
0.00027704418
0.0002775272
0.00027732479
0.00027659286
0.00027508424
0.00027276803
0.00015629495
0.00015900121
0.00016261452
0.00017083842
0.00017862776
0.00018662191
0.00019359063
0.00020281967
0.00021037863
0.00022040291
0.00023148994
0.00024054633
0.00024713723
0.00025289118
0.0002567736
0.00025811474
0.00025917377
0.00026104338
0.00026335322
0.00026582607
0.00026888239
0.00027262268
0.00027614087
0.00028001537
0.00028605988
0.00029419345
0.00030168555
0.00030917347
0.00031885579
0.00032884614
0.00033823106
0.00034663621
0.00035362658
0.00036350008
0.00037500882
0.00038361743
0.00038912247
0.00039595322
0.00039927677
0.00039902102
0.00040176361
0.000404771
0.00039991611
0.00039872654
0.00039486498
0.00039034575
0.00038278484
0.00037303938
0.00036195404
1.6561214e-05
1.5921442e-05
1.557527e-05
1.6332259e-05
1.6772135e-05
1.7185336e-05
1.727268e-05
1.7762629e-05
1.7768556e-05
1.8268002e-05
1.8873126e-05
1.9054778e-05
1.8877567e-05
1.8713683e-05
1.831137e-05
1.7677248e-05
1.725289e-05
1.7001162e-05
1.6765581e-05
1.6550897e-05
1.6520427e-05
1.6723534e-05
1.6876215e-05
1.7035824e-05
1.7585345e-05
1.8665539e-05
1.9780913e-05
2.0944033e-05
2.2591519e-05
2.4455326e-05
2.6366119e-05
2.8241332e-05
2.9927548e-05
3.2421971e-05
3.5683305e-05
3.8678592e-05
4.1091933e-05
4.4211221e-05
4.6833101e-05
4.825161e-05
5.0272271e-05
5.3989824e-05
5.5915573e-05
5.9327508e-05
6.1622624e-05
6.7508066e-05
7.541368e-05
8.5249115e-05
9.3163085e-05
3.7223903e-07
3.3355381e-07
3.1371184e-07
3.1761713e-07
3.1852105e-07
3.1987609e-07
3.1670318e-07
3.1964109e-07
3.155509e-07
3.1736404e-07
3.205745e-07
3.1818946e-07
3.1105526e-07
3.0481085e-07
2.9663216e-07
2.8601151e-07
2.789621e-07
2.7548341e-07
2.7219844e-07
2.6852041e-07
2.6848694e-07
2.7275886e-07
2.7561741e-07
2.7920755e-07
2.8882548e-07
3.0644412e-07
3.2575782e-07
3.4713086e-07
3.7651684e-07
4.110161e-07
4.4891534e-07
4.8927759e-07
5.3053488e-07
5.8834624e-07
6.6425819e-07
7.4317653e-07
8.2066561e-07
9.194168e-07
1.0164182e-06
1.0987138e-06
1.207058e-06
1.3710991e-06
1.5157768e-06
1.7493418e-06
1.9794408e-06
2.3105163e-06
2.7101919e-06
3.2119539e-06
3.8033258e-06
7.4605198e-08
7.4581671e-08
7.5161101e-08
7.7075698e-08
7.8631181e-08
8.0148501e-08
8.1226099e-08
8.2773581e-08
8.3645697e-08
8.5081097e-08
8.6673922e-08
8.7748788e-08
8.8392713e-08
8.9138426e-08
8.9622308e-08
8.9779997e-08
9.0325615e-08
9.1287596e-08
9.212788e-08
9.2863534e-08
9.3910504e-08
9.5266382e-08
9.6610151e-08
9.8210716e-08
1.0053852e-07
1.0386054e-07
1.074302e-07
1.1118277e-07
1.1574954e-07
1.2075348e-07
1.2592231e-07
1.3111945e-07
1.3603529e-07
1.419836e-07
1.489546e-07
1.5557896e-07
1.6134674e-07
1.678247e-07
1.7357674e-07
1.7779791e-07
1.8268324e-07
1.8947059e-07
1.9440314e-07
2.0192498e-07
2.0833062e-07
2.1676357e-07
2.2543172e-07
2.3243294e-07
2.3813011e-07
5.3000264e-08
5.314631e-08
5.3563566e-08
5.4521685e-08
5.5279389e-08
5.6042996e-08
5.6640888e-08
5.7413396e-08
5.7908593e-08
5.8659828e-08
5.9397107e-08
5.9903763e-08
6.0269178e-08
6.0675254e-08
6.0973671e-08
6.1201386e-08
6.1629617e-08
6.2221248e-08
6.2771618e-08
6.3320269e-08
6.4003811e-08
6.4806946e-08
6.5742221e-08
6.6849839e-08
6.82611e-08
7.0128029e-08
7.2170317e-08
7.4323333e-08
7.684895e-08
7.9631515e-08
8.2548008e-08
8.5552592e-08
8.8454108e-08
9.1720666e-08
9.5472065e-08
9.9258241e-08
1.0268258e-07
1.0632987e-07
1.0984988e-07
1.1274249e-07
1.1560375e-07
1.1940892e-07
1.2251809e-07
1.2666722e-07
1.3054426e-07
1.3526752e-07
1.4046057e-07
1.4616729e-07
1.5125402e-07
4.1242821e-08
4.1234905e-08
4.1360192e-08
4.1760395e-08
4.207307e-08
4.2397209e-08
4.2653256e-08
4.3002753e-08
4.3231942e-08
4.3590166e-08
4.3953834e-08
4.4217468e-08
4.4422373e-08
4.465434e-08
4.4843848e-08
4.5007782e-08
4.5278929e-08
4.5644785e-08
4.6008299e-08
4.6386205e-08
4.6825637e-08
4.7315692e-08
4.7889754e-08
4.8578288e-08
4.9434819e-08
5.0522823e-08
5.1706251e-08
5.2966268e-08
5.4427571e-08
5.6029452e-08
5.7716124e-08
5.9462811e-08
6.1184131e-08
6.3099709e-08
6.5256665e-08
6.7436883e-08
6.9466042e-08
7.161194e-08
7.3707364e-08
7.5523604e-08
7.7346992e-08
7.9591145e-08
8.1522913e-08
8.3903892e-08
8.6145081e-08
8.8722549e-08
9.1445904e-08
9.4333478e-08
9.698167e-08
3.5115208e-08
3.5112257e-08
3.5182488e-08
3.5405619e-08
3.5579584e-08
3.5759387e-08
3.5901891e-08
3.6094324e-08
3.6223388e-08
3.6422122e-08
3.6624945e-08
3.6778718e-08
3.6906402e-08
3.7052795e-08
3.7183098e-08
3.730809e-08
3.7496432e-08
3.7741434e-08
3.7995185e-08
3.8269557e-08
3.8588545e-08
3.894477e-08
3.9362736e-08
3.9857328e-08
4.0453083e-08
4.1184683e-08
4.1980967e-08
4.2833583e-08
4.3810897e-08
4.4880883e-08
4.6013441e-08
4.7195143e-08
4.8379126e-08
4.9683314e-08
5.1136005e-08
5.2620718e-08
5.4039252e-08
5.5534823e-08
5.7019973e-08
5.8366495e-08
5.9723827e-08
6.1332744e-08
6.2788087e-08
6.4518666e-08
6.6204129e-08
6.8120198e-08
7.0174881e-08
7.2393075e-08
7.45316e-08
3.1251835e-08
3.1238475e-08
3.1268518e-08
3.1390815e-08
3.1486237e-08
3.1586999e-08
3.1668296e-08
3.1780331e-08
3.1858435e-08
3.1978565e-08
3.2103589e-08
3.2203989e-08
3.2293164e-08
3.2396433e-08
3.2494566e-08
3.2594258e-08
3.2734447e-08
3.2911585e-08
3.3099264e-08
3.3304621e-08
3.3539804e-08
3.3799208e-08
3.4098652e-08
3.4450898e-08
3.4869727e-08
3.5373218e-08
3.5920906e-08
3.6509564e-08
3.7178497e-08
3.7909083e-08
3.8684687e-08
3.949746e-08
4.0321085e-08
4.1222038e-08
4.221543e-08
4.3233987e-08
4.4222548e-08
4.5261051e-08
4.6299033e-08
4.726269e-08
4.8237323e-08
4.9353997e-08
5.0385209e-08
5.156794e-08
5.2721303e-08
5.3995777e-08
5.5335419e-08
5.6748997e-08
5.8097574e-08
2.8800929e-08
2.879647e-08
2.8817543e-08
2.8895932e-08
2.8957416e-08
2.9022424e-08
2.9075941e-08
2.9148815e-08
2.9202148e-08
2.9282115e-08
2.9366404e-08
2.9437965e-08
2.9505203e-08
2.9583293e-08
2.9661139e-08
2.9743244e-08
2.9852808e-08
2.9987784e-08
3.0132981e-08
3.029312e-08
3.0475633e-08
3.0676998e-08
3.0906411e-08
3.1172944e-08
3.1485502e-08
3.1854341e-08
3.2255153e-08
3.2686794e-08
3.3173934e-08
3.3705498e-08
3.4271575e-08
3.4867497e-08
3.5477125e-08
3.614126e-08
3.6869841e-08
3.7621632e-08
3.8361759e-08
3.9139061e-08
3.9922767e-08
4.0665813e-08
4.141933e-08
4.2267846e-08
4.3068217e-08
4.3970426e-08
4.4861977e-08
4.5839982e-08
4.6872004e-08
4.7969901e-08
4.9036544e-08
2.7133728e-08
2.7134902e-08
2.715205e-08
2.7206694e-08
2.7250763e-08
2.7297587e-08
2.7337699e-08
2.7390831e-08
2.7432551e-08
2.7492137e-08
2.7555673e-08
2.7612806e-08
2.7668978e-08
2.7733694e-08
2.7800205e-08
2.7871527e-08
2.7962099e-08
2.8070701e-08
2.8188098e-08
2.8317289e-08
2.8462903e-08
2.8622601e-08
2.880178e-08
2.900707e-08
2.9244957e-08
2.9521369e-08
2.9821e-08
3.0143715e-08
3.0505504e-08
3.0899496e-08
3.1319656e-08
3.1763117e-08
3.2219767e-08
3.2715453e-08
3.3256508e-08
3.3816441e-08
3.4372888e-08
3.4956431e-08
3.5547161e-08
3.6114241e-08
3.6690021e-08
3.7327067e-08
3.7934158e-08
3.8605194e-08
3.9268388e-08
3.9984048e-08
4.0730544e-08
4.1514227e-08
4.2270706e-08
2.5971624e-08
2.5980147e-08
2.5998448e-08
2.6041711e-08
2.6077971e-08
2.6116335e-08
2.6150676e-08
2.6194074e-08
2.6230738e-08
2.6279848e-08
2.6332478e-08
2.6382203e-08
2.6432643e-08
2.6489929e-08
2.6549834e-08
2.6614393e-08
2.6692807e-08
2.6784296e-08
2.6883057e-08
2.6991009e-08
2.7111118e-08
2.7241923e-08
2.7386566e-08
2.754961e-08
2.7736024e-08
2.7949412e-08
2.8179803e-08
2.8427551e-08
2.8703528e-08
2.9003452e-08
2.9323597e-08
2.9662294e-08
3.0013027e-08
3.0392991e-08
3.080666e-08
3.1236483e-08
3.1667298e-08
3.2119254e-08
3.2579097e-08
3.30256e-08
3.3479742e-08
3.3977448e-08
3.4456804e-08
3.4981304e-08
3.5502597e-08
3.6061933e-08
3.6645171e-08
3.7258688e-08
3.7854344e-08
2.5137718e-08
2.5152064e-08
2.5172573e-08
2.5210237e-08
2.5243307e-08
2.5278144e-08
2.5310697e-08
2.5349864e-08
2.538519e-08
2.5429544e-08
2.54771e-08
2.5523765e-08
2.5571969e-08
2.5625743e-08
2.5682346e-08
2.574311e-08
2.5813977e-08
2.5894408e-08
2.5980608e-08
2.6073751e-08
2.6175708e-08
2.6285501e-08
2.6404914e-08
2.6537082e-08
2.6685879e-08
2.68535e-08
2.703334e-08
2.7225986e-08
2.7439001e-08
2.7669701e-08
2.7915833e-08
2.8176512e-08
2.8447529e-08
2.8740574e-08
2.9058811e-08
2.9390308e-08
2.9724637e-08
3.0075299e-08
3.0433173e-08
3.0783333e-08
3.113981e-08
3.1526752e-08
3.190162e-08
3.2307174e-08
3.2710189e-08
3.3138276e-08
3.358138e-08
3.404369e-08
3.4490237e-08
2.4527205e-08
2.4546988e-08
2.4570574e-08
2.4606141e-08
2.4638699e-08
2.4672819e-08
2.4705796e-08
2.4743812e-08
2.4779841e-08
2.4822662e-08
2.4868438e-08
2.4914532e-08
2.4962568e-08
2.5015209e-08
2.5070629e-08
2.512964e-08
2.5196062e-08
2.5269474e-08
2.5347302e-08
2.5430191e-08
2.5519275e-08
2.5613812e-08
2.5714757e-08
2.5824264e-08
2.5945321e-08
2.6079266e-08
2.6221686e-08
2.6373282e-08
2.6539447e-08
2.6718569e-08
2.6909418e-08
2.7111672e-08
2.7322609e-08
2.7550383e-08
2.7797367e-08
2.8055361e-08
2.8317048e-08
2.8591773e-08
2.887319e-08
2.9150564e-08
2.9433415e-08
2.9738821e-08
3.0036537e-08
3.0356619e-08
3.0675541e-08
3.1012806e-08
3.1361275e-08
3.1724665e-08
3.2075694e-08
2.4073725e-08
2.4098079e-08
2.4124817e-08
2.4160138e-08
2.4193604e-08
2.4228559e-08
2.4263185e-08
2.4301855e-08
2.4339792e-08
2.4383048e-08
2.4429097e-08
2.447622e-08
2.4525475e-08
2.4578602e-08
2.463434e-08
2.4693105e-08
2.4757285e-08
2.4826508e-08
2.4898941e-08
2.4974832e-08
2.5054792e-08
2.5138163e-08
2.5225362e-08
2.5317862e-08
2.5417941e-08
2.5526379e-08
2.5640229e-08
2.576024e-08
2.5890308e-08
2.6029594e-08
2.6177611e-08
2.6334365e-08
2.6498073e-08
2.6674522e-08
2.6865579e-08
2.7065614e-08
2.7269505e-08
2.7483821e-08
2.7704081e-08
2.7922459e-08
2.8145516e-08
2.838524e-08
2.8619909e-08
2.8870629e-08
2.912048e-08
2.9383078e-08
2.9653097e-08
2.9933237e-08
3.0202505e-08
2.3732641e-08
2.3761122e-08
2.3791096e-08
2.3827352e-08
2.3862605e-08
2.3899352e-08
2.3936379e-08
2.3976822e-08
2.4017419e-08
2.4062356e-08
2.410999e-08
2.4159195e-08
2.4210618e-08
2.426536e-08
2.4322508e-08
2.4382166e-08
2.4445725e-08
2.451281e-08
2.4582043e-08
2.465336e-08
2.4726977e-08
2.4802245e-08
2.4879214e-08
2.4958869e-08
2.5042911e-08
2.513175e-08
2.5223441e-08
2.5318747e-08
2.5420523e-08
2.5528575e-08
2.5642912e-08
2.5763642e-08
2.5889633e-08
2.6025173e-08
2.6171887e-08
2.6325987e-08
2.6483896e-08
2.6650314e-08
2.682207e-08
2.6993408e-08
2.7168871e-08
2.7357096e-08
2.7542207e-08
2.7739362e-08
2.7936195e-08
2.8142488e-08
2.8354242e-08
2.8573734e-08
2.8784152e-08
2.3474441e-08
2.3506584e-08
2.3539717e-08
2.3577592e-08
2.361514e-08
2.3654255e-08
2.369414e-08
2.3737067e-08
2.3780814e-08
2.3828261e-08
2.3878371e-08
2.3930404e-08
2.3984696e-08
2.404189e-08
2.4101287e-08
2.4162736e-08
2.4226909e-08
2.4293401e-08
2.4361098e-08
2.4429683e-08
2.4499063e-08
2.4568546e-08
2.4637916e-08
2.4707804e-08
2.4779434e-08
2.4852965e-08
2.4927147e-08
2.5002734e-08
2.5081863e-08
2.5164933e-08
2.5252108e-08
2.5343463e-08
2.5438509e-08
2.554065e-08
2.5651366e-08
2.5768146e-08
2.5888497e-08
2.6015807e-08
2.6147836e-08
2.6280337e-08
2.6416482e-08
2.6562475e-08
2.6706645e-08
2.6859872e-08
2.7013024e-08
2.7173069e-08
2.733692e-08
2.7506318e-08
2.7667862e-08
2.3278065e-08
2.3313602e-08
2.3349869e-08
2.3389842e-08
2.3430042e-08
2.347193e-08
2.3515e-08
2.3560915e-08
2.3608175e-08
2.3658732e-08
2.3711969e-08
2.3767395e-08
2.3825111e-08
2.3885419e-08
2.3947743e-08
2.4011721e-08
2.407749e-08
2.4144592e-08
2.4212057e-08
2.4279352e-08
2.434613e-08
2.4411629e-08
2.4475427e-08
2.4537893e-08
2.4599852e-08
2.4661284e-08
2.4721434e-08
2.4781037e-08
2.4841767e-08
2.490457e-08
2.4969276e-08
2.5036171e-08
2.5105561e-08
2.5180229e-08
2.5261451e-08
2.5347584e-08
2.5436931e-08
2.5531991e-08
2.5631234e-08
2.5731556e-08
2.5835185e-08
2.5946637e-08
2.6057273e-08
2.6174982e-08
2.6292964e-08
2.6416251e-08
2.6542432e-08
2.6672943e-08
2.6796864e-08
2.3128936e-08
2.3167651e-08
2.3207012e-08
2.3249404e-08
2.3292502e-08
2.3337449e-08
2.338395e-08
2.3433225e-08
2.3484287e-08
2.3538415e-08
2.3595284e-08
2.3654564e-08
2.371617e-08
2.3780142e-08
2.3845971e-08
2.3913108e-08
2.3981281e-08
2.4049961e-08
2.4118246e-08
2.4185408e-08
2.4250885e-08
2.4313822e-08
2.4373634e-08
2.4430489e-08
2.4484872e-08
2.4536633e-08
2.4585378e-08
2.4631817e-08
2.4677378e-08
2.4723415e-08
2.4768902e-08
2.4815206e-08
2.4863212e-08
2.4914963e-08
2.4971494e-08
2.5031852e-08
2.5095002e-08
2.516286e-08
2.5234446e-08
2.5307526e-08
2.5383675e-08
2.5466164e-08
2.5548596e-08
2.5636673e-08
2.5725296e-08
2.5818066e-08
2.5913066e-08
2.6011417e-08
2.610423e-08
2.3016328e-08
2.3058109e-08
2.3100571e-08
2.3145643e-08
2.3191849e-08
2.3240097e-08
2.3290246e-08
2.3343195e-08
2.339832e-08
2.3456407e-08
2.3517334e-08
2.3580874e-08
2.3646788e-08
2.3714911e-08
2.3784756e-08
2.3855612e-08
2.3926879e-08
2.3997947e-08
2.4067925e-08
2.4135908e-08
2.4201142e-08
2.4262666e-08
2.4319754e-08
2.4372419e-08
2.4420856e-08
2.4464815e-08
2.4504168e-08
2.4539611e-08
2.4572491e-08
2.4604288e-08
2.4632938e-08
2.4662097e-08
2.469207e-08
2.4724205e-08
2.4759557e-08
2.4797818e-08
2.483851e-08
2.4883145e-08
2.4931161e-08
2.4980993e-08
2.5033751e-08
2.5091814e-08
2.515045e-08
2.5213783e-08
2.5277979e-08
2.5345614e-08
2.541515e-08
2.548749e-08
2.5555318e-08
2.2932542e-08
2.2977326e-08
2.3022917e-08
2.3070882e-08
2.312038e-08
2.3172145e-08
2.3226147e-08
2.3283048e-08
2.3342486e-08
2.3404877e-08
2.3470245e-08
2.3538419e-08
2.3609035e-08
2.3681757e-08
2.3756092e-08
2.383118e-08
2.3906153e-08
2.3980308e-08
2.4052724e-08
2.4122333e-08
2.4188204e-08
2.4249259e-08
2.430465e-08
2.4354253e-08
2.4398027e-08
2.4435637e-08
2.4467152e-08
2.4493274e-08
2.4515362e-08
2.4534557e-08
2.4548849e-08
2.456364e-08
2.4577676e-08
2.4592492e-08
2.4609348e-08
2.4628406e-08
2.4649586e-08
2.4674108e-08
2.4701736e-08
2.4731422e-08
2.4763959e-08
2.4801062e-08
2.4839264e-08
2.4881518e-08
2.492494e-08
2.4971342e-08
2.5019472e-08
2.507003e-08
2.5117e-08
2.287182e-08
2.2919606e-08
2.2968391e-08
2.301945e-08
2.3072426e-08
2.3127919e-08
2.3185983e-08
2.3247105e-08
2.3311111e-08
2.3378139e-08
2.344831e-08
2.3521484e-08
2.3597185e-08
2.3674936e-08
2.3754214e-08
2.3834021e-08
2.3913258e-08
2.3991122e-08
2.4066633e-08
2.4138563e-08
2.420582e-08
2.4267201e-08
2.4321739e-08
2.4369193e-08
2.4409327e-08
2.4441727e-08
2.4466612e-08
2.4484708e-08
2.4497373e-08
2.4504528e-08
2.4509292e-08
2.4509599e-08
2.450901e-08
2.4508498e-08
2.4509083e-08
2.4511239e-08
2.4515222e-08
2.4522067e-08
2.4531807e-08
2.4543812e-08
2.4558652e-08
2.4577561e-08
2.4598037e-08
2.4622172e-08
2.4647801e-08
2.4676179e-08
2.4706275e-08
2.4738636e-08
2.4768289e-08
2.2829934e-08
2.288076e-08
2.2932828e-08
2.2987178e-08
2.304382e-08
2.3103256e-08
2.3165604e-08
2.3231215e-08
2.3300057e-08
2.337205e-08
2.3447381e-08
2.352592e-08
2.3607093e-08
2.3690296e-08
2.3774962e-08
2.3859958e-08
2.3943984e-08
2.4026128e-08
2.4105326e-08
2.4180198e-08
2.4249492e-08
2.4311877e-08
2.4366271e-08
2.4412323e-08
2.4449638e-08
2.4477727e-08
2.4496926e-08
2.4508013e-08
2.4512216e-08
2.4505216e-08
2.4500746e-08
2.4491175e-08
2.4478327e-08
2.4464112e-08
2.4450054e-08
2.4437036e-08
2.4425599e-08
2.4416654e-08
2.4410446e-08
2.4406685e-08
2.4405793e-08
2.4408652e-08
2.4413504e-08
2.4421798e-08
2.443192e-08
2.4444705e-08
2.4459297e-08
2.4476102e-08
2.4491016e-08
2.2803709e-08
2.2857652e-08
2.2913125e-08
2.2970967e-08
2.3031479e-08
2.3095085e-08
2.3161954e-08
2.3232335e-08
2.3306295e-08
2.3383589e-08
2.3464444e-08
2.3548724e-08
2.3635764e-08
2.3724846e-08
2.3815344e-08
2.3905996e-08
2.3995317e-08
2.4082276e-08
2.4165712e-08
2.4244089e-08
2.4316e-08
2.4379981e-08
2.4434836e-08
2.4480107e-08
2.4515269e-08
2.4539761e-08
2.4554012e-08
2.4558852e-08
2.4554946e-08
2.4544557e-08
2.4527253e-08
2.4505134e-08
2.4479941e-08
2.4453006e-08
2.4425619e-08
2.4398809e-08
2.4373336e-08
2.4350047e-08
2.4329387e-08
2.4311347e-08
2.429626e-08
2.428475e-08
2.427564e-08
2.42699e-08
2.426634e-08
2.4265484e-08
2.4266611e-08
2.4270011e-08
2.4272299e-08
2.2790804e-08
2.2847972e-08
2.2906995e-08
2.296854e-08
2.3033139e-08
2.3101159e-08
2.3172805e-08
2.324825e-08
2.3327635e-08
2.3410579e-08
2.3497333e-08
2.3587745e-08
2.3681062e-08
2.3776459e-08
2.3873242e-08
2.3970019e-08
2.4065131e-08
2.4157423e-08
2.4245618e-08
2.4328025e-08
2.440308e-08
2.4469185e-08
2.4525025e-08
2.4570041e-08
2.4603593e-08
2.4625056e-08
2.4634934e-08
2.4634072e-08
2.4623327e-08
2.4603804e-08
2.4577274e-08
2.454527e-08
2.4509317e-08
2.4470739e-08
2.4430972e-08
2.439133e-08
2.4352813e-08
2.4316256e-08
2.4282275e-08
2.4251097e-08
2.4223001e-08
2.4198422e-08
2.4176641e-08
2.4158265e-08
2.4142436e-08
2.4129441e-08
2.4118666e-08
2.4110297e-08
2.4101554e-08
2.2789485e-08
2.2850017e-08
2.2912761e-08
2.2978235e-08
2.304716e-08
2.3119854e-08
2.3196558e-08
2.3277381e-08
2.3362519e-08
2.3451481e-08
2.3544528e-08
2.3641481e-08
2.3741504e-08
2.3843669e-08
2.3947203e-08
2.4050584e-08
2.4151984e-08
2.4250116e-08
2.4343576e-08
2.4430511e-08
2.4509203e-08
2.457791e-08
2.4635198e-08
2.4680408e-08
2.47128e-08
2.4731685e-08
2.4737633e-08
2.4731532e-08
2.47142e-08
2.4687092e-08
2.4651832e-08
2.4610086e-08
2.4563618e-08
2.4513847e-08
2.4462318e-08
2.4410553e-08
2.4359743e-08
2.4310732e-08
2.4264287e-08
2.4220837e-08
2.4180633e-08
2.4143981e-08
2.4110522e-08
2.4080592e-08
2.4053594e-08
2.4029634e-08
2.4008185e-08
2.3989341e-08
2.3970835e-08
2.2798513e-08
2.2862572e-08
2.2929232e-08
2.2998877e-08
2.3072384e-08
2.3150036e-08
2.3232101e-08
2.3318638e-08
2.3409883e-08
2.3505255e-08
2.3605011e-08
2.3708938e-08
2.381612e-08
2.3925526e-08
2.4036295e-08
2.4146773e-08
2.4254966e-08
2.4359445e-08
2.4458667e-08
2.4550615e-08
2.4633408e-08
2.4705161e-08
2.4764315e-08
2.4810111e-08
2.4841716e-08
2.4858384e-08
2.486074e-08
2.4849714e-08
2.482617e-08
2.4791638e-08
2.474791e-08
2.4696807e-08
2.4640255e-08
2.4579742e-08
2.4516935e-08
2.4453551e-08
2.4390971e-08
2.4330076e-08
2.4271775e-08
2.4216674e-08
2.4165021e-08
2.411703e-08
2.4072634e-08
2.4031965e-08
2.3994629e-08
2.3960595e-08
2.3929405e-08
2.3901069e-08
2.387376e-08
2.2817024e-08
2.2884799e-08
2.2955595e-08
2.3029674e-08
2.3108043e-08
2.319096e-08
2.3278715e-08
2.3371327e-08
2.3469062e-08
2.357126e-08
2.3678167e-08
2.378953e-08
2.390435e-08
2.4021494e-08
2.4140004e-08
2.4258091e-08
2.4373594e-08
2.4484935e-08
2.4590418e-08
2.4687855e-08
2.4775202e-08
2.4850419e-08
2.4911822e-08
2.4958548e-08
2.498968e-08
2.5004416e-08
2.5003434e-08
2.4987709e-08
2.4958153e-08
2.4916422e-08
2.4864447e-08
2.480419e-08
2.4737746e-08
2.4666713e-08
2.4592887e-08
2.4518182e-08
2.4444154e-08
2.4371742e-08
2.4301989e-08
2.4235658e-08
2.4173012e-08
2.4114205e-08
2.4059405e-08
2.4008593e-08
2.3961534e-08
2.3918094e-08
2.387787e-08
2.3840793e-08
2.3805418e-08
2.2844474e-08
2.2916177e-08
2.2991353e-08
2.3070147e-08
2.3153683e-08
2.3242197e-08
2.3335998e-08
2.3435076e-08
2.3539714e-08
2.3649184e-08
2.3763714e-08
2.3883004e-08
2.4005972e-08
2.413138e-08
2.4258166e-08
2.4384398e-08
2.4507747e-08
2.4626475e-08
2.4738725e-08
2.4842129e-08
2.4934471e-08
2.5013556e-08
2.5077566e-08
2.5125532e-08
2.5156456e-08
2.5169488e-08
2.5165348e-08
2.5145066e-08
2.5109617e-08
2.506078e-08
2.5000631e-08
2.4931289e-08
2.4855024e-08
2.4773557e-08
2.468883e-08
2.4602943e-08
2.4517626e-08
2.4433895e-08
2.435292e-08
2.427561e-08
2.4202254e-08
2.4132973e-08
2.4068125e-08
2.400758e-08
2.3951231e-08
2.3898863e-08
2.3850117e-08
2.3804849e-08
2.376195e-08
2.2880575e-08
2.2956443e-08
2.3036269e-08
2.3120084e-08
2.3209118e-08
2.3303588e-08
2.3403824e-08
2.3509787e-08
2.3621774e-08
2.3738995e-08
2.3861653e-08
2.3989396e-08
2.4121056e-08
2.4255287e-08
2.4390912e-08
2.4525854e-08
2.465761e-08
2.478427e-08
2.4903803e-08
2.5013659e-08
2.5111439e-08
2.5194785e-08
2.5261741e-08
2.5311229e-08
2.5342175e-08
2.5353677e-08
2.5346502e-08
2.5321737e-08
2.528043e-08
2.5224491e-08
2.5156149e-08
2.5077684e-08
2.4991548e-08
2.4899605e-08
2.4803953e-08
2.470688e-08
2.4610289e-08
2.4515285e-08
2.4423167e-08
2.4334978e-08
2.4251045e-08
2.4171474e-08
2.4096784e-08
2.4026758e-08
2.3961398e-08
2.390042e-08
2.3843502e-08
2.3790432e-08
2.3740397e-08
2.2925269e-08
2.3005563e-08
2.3090336e-08
2.3179504e-08
2.3274393e-08
2.337521e-08
2.3482301e-08
2.3595603e-08
2.3715422e-08
2.3840909e-08
2.3972238e-08
2.4108997e-08
2.4249931e-08
2.439358e-08
2.4538646e-08
2.4682895e-08
2.4823644e-08
2.4958804e-08
2.5086158e-08
2.520296e-08
2.5306624e-08
2.5394621e-08
2.5464851e-08
2.5516124e-08
2.5547288e-08
2.5557397e-08
2.5547259e-08
2.5518025e-08
2.5470826e-08
2.5407709e-08
2.5331062e-08
2.5243337e-08
2.5147176e-08
2.5044602e-08
2.4937881e-08
2.4829493e-08
2.4721514e-08
2.4615153e-08
2.4511838e-08
2.4412739e-08
2.4318229e-08
2.4228417e-08
2.4143956e-08
2.4064568e-08
2.3990339e-08
2.3920935e-08
2.3856062e-08
2.3795439e-08
2.3738523e-08
2.2978701e-08
2.3063708e-08
2.3153751e-08
2.3248631e-08
2.3349767e-08
2.3457354e-08
2.3571756e-08
2.3692888e-08
2.3821061e-08
2.395537e-08
2.4095954e-08
2.4242337e-08
2.4393169e-08
2.4546874e-08
2.4702019e-08
2.485621e-08
2.5006573e-08
2.5150828e-08
2.5286561e-08
2.541082e-08
2.5520823e-08
2.5613863e-08
2.5687689e-08
2.5740995e-08
2.5772549e-08
2.5781367e-08
2.5768296e-08
2.5734554e-08
2.5681368e-08
2.5610927e-08
2.5525784e-08
2.5428575e-08
2.5322139e-08
2.5208677e-08
2.5090635e-08
2.497069e-08
2.4851094e-08
2.4733174e-08
2.4618487e-08
2.4508327e-08
2.4403124e-08
2.4302998e-08
2.420872e-08
2.4119967e-08
2.4036895e-08
2.3959127e-08
2.3886396e-08
2.381835e-08
2.3754695e-08
2.3041206e-08
2.3131238e-08
2.3226907e-08
2.332789e-08
2.3435697e-08
2.3550514e-08
2.3672723e-08
2.3802218e-08
2.3939311e-08
2.4083044e-08
2.4233512e-08
2.4390174e-08
2.4551577e-08
2.471602e-08
2.4881929e-08
2.5046737e-08
2.5207373e-08
2.5361351e-08
2.5506047e-08
2.5638295e-08
2.5755105e-08
2.5853585e-08
2.5931325e-08
2.5986901e-08
2.6019e-08
2.60266e-08
2.6010588e-08
2.5972255e-08
2.5912932e-08
2.5834954e-08
2.5741052e-08
2.5634054e-08
2.5517009e-08
2.5392307e-08
2.5262594e-08
2.5130746e-08
2.49992e-08
2.486941e-08
2.4743068e-08
2.462159e-08
2.4505467e-08
2.4394845e-08
2.4290597e-08
2.4192367e-08
2.4100372e-08
2.4014201e-08
2.3933603e-08
2.3858162e-08
2.3787815e-08
2.3113301e-08
2.3208703e-08
2.3310386e-08
2.3417898e-08
2.3532838e-08
2.3655387e-08
2.3785942e-08
2.392438e-08
2.4071009e-08
2.4224816e-08
2.4385852e-08
2.4553497e-08
2.4726196e-08
2.4902113e-08
2.5079521e-08
2.5255669e-08
2.5427277e-08
2.5591642e-08
2.5745917e-08
2.5886708e-08
2.6010812e-08
2.6115137e-08
2.6197113e-08
2.6255188e-08
2.628797e-08
2.6294401e-08
2.6275408e-08
2.623236e-08
2.6166698e-08
2.6080915e-08
2.5977924e-08
2.5860757e-08
2.5732685e-08
2.5596308e-08
2.545448e-08
2.5310289e-08
2.5166361e-08
2.5024291e-08
2.4885909e-08
2.4752755e-08
2.4625386e-08
2.4503983e-08
2.4389511e-08
2.4281593e-08
2.4180498e-08
2.4085784e-08
2.3997217e-08
2.391431e-08
2.3837227e-08
2.3195694e-08
2.3296842e-08
2.3404965e-08
2.351947e-08
2.364205e-08
2.3772877e-08
2.3912367e-08
2.4060378e-08
2.4217212e-08
2.4381803e-08
2.4554146e-08
2.4733541e-08
2.491832e-08
2.5106502e-08
2.5296199e-08
2.5484461e-08
2.5667788e-08
2.5843245e-08
2.600775e-08
2.6157668e-08
2.6289569e-08
2.6400158e-08
2.6486693e-08
2.6547494e-08
2.6581084e-08
2.6586375e-08
2.6564333e-08
2.6516408e-08
2.6444162e-08
2.6350249e-08
2.6237775e-08
2.610999e-08
2.5970399e-08
2.5821827e-08
2.5667354e-08
2.5510289e-08
2.5353457e-08
2.5198603e-08
2.5047701e-08
2.4902415e-08
2.476338e-08
2.4630815e-08
2.4505773e-08
2.4387863e-08
2.4277399e-08
2.4173915e-08
2.407719e-08
2.3986666e-08
2.3902727e-08
2.3289291e-08
2.3396597e-08
2.3511627e-08
2.3633634e-08
2.3764406e-08
2.3904111e-08
2.4053179e-08
2.4211452e-08
2.4379223e-08
2.4555368e-08
2.4739824e-08
2.4931801e-08
2.5129509e-08
2.5330814e-08
2.553365e-08
2.5734858e-08
2.5930703e-08
2.6118003e-08
2.6293426e-08
2.6453084e-08
2.6593309e-08
2.6710595e-08
2.680202e-08
2.6865772e-08
2.6900285e-08
2.6904447e-08
2.687926e-08
2.6826264e-08
2.6747145e-08
2.6644726e-08
2.6522317e-08
2.6383396e-08
2.623172e-08
2.6070357e-08
2.5902627e-08
2.5732073e-08
2.5561725e-08
2.5393491e-08
2.5229497e-08
2.5071534e-08
2.4920317e-08
2.4776117e-08
2.4640065e-08
2.4511767e-08
2.4391578e-08
2.4279008e-08
2.4173849e-08
2.4075469e-08
2.3984474e-08
2.3395213e-08
2.3509131e-08
2.3631583e-08
2.3761652e-08
2.3901223e-08
2.4050462e-08
2.4209815e-08
2.4379104e-08
2.4558612e-08
2.4747154e-08
2.49446e-08
2.5150065e-08
2.5361624e-08
2.557698e-08
2.5793874e-08
2.6008925e-08
2.6218143e-08
2.6418087e-08
2.6605157e-08
2.6775202e-08
2.6924304e-08
2.7048734e-08
2.7145389e-08
2.7212315e-08
2.7247861e-08
2.7250889e-08
2.7222439e-08
2.7164146e-08
2.7077826e-08
2.6966476e-08
2.683362e-08
2.6682983e-08
2.6518586e-08
2.6343762e-08
2.6162084e-08
2.597734e-08
2.5792779e-08
2.5610481e-08
2.5432731e-08
2.5261451e-08
2.5097446e-08
2.4941042e-08
2.4793451e-08
2.4654281e-08
2.4523924e-08
2.4401871e-08
2.4287926e-08
2.4181377e-08
2.4083063e-08
2.3514829e-08
2.3635859e-08
2.3766302e-08
2.3905047e-08
2.4054088e-08
2.4213584e-08
2.4383998e-08
2.4565133e-08
2.4757256e-08
2.4959117e-08
2.5170514e-08
2.5390454e-08
2.5616869e-08
2.5847284e-08
2.6079231e-08
2.6309088e-08
2.6532598e-08
2.674604e-08
2.6945532e-08
2.7126646e-08
2.7285203e-08
2.7417245e-08
2.7519476e-08
2.7589803e-08
2.7626483e-08
2.7628358e-08
2.7596508e-08
2.7532662e-08
2.7438774e-08
2.7318022e-08
2.7174154e-08
2.7011157e-08
2.6833339e-08
2.6644309e-08
2.6447915e-08
2.62482e-08
2.6048641e-08
2.5851505e-08
2.5659239e-08
2.5473907e-08
2.529641e-08
2.5127138e-08
2.4967385e-08
2.4816763e-08
2.4675705e-08
2.454368e-08
2.4420508e-08
2.4305391e-08
2.4199412e-08
2.3649789e-08
2.3778486e-08
2.3917549e-08
2.4065653e-08
2.4224905e-08
2.4395457e-08
2.457779e-08
2.4771684e-08
2.4977388e-08
2.5193582e-08
2.5419982e-08
2.5655477e-08
2.5897844e-08
2.6144412e-08
2.6392489e-08
2.6638194e-08
2.6876981e-08
2.7104834e-08
2.7317572e-08
2.7510473e-08
2.7679092e-08
2.7819228e-08
2.7927394e-08
2.8001349e-08
2.8039261e-08
2.8039952e-08
2.8004542e-08
2.7934862e-08
2.7833006e-08
2.7702335e-08
2.7546837e-08
2.7370779e-08
2.7178771e-08
2.6974723e-08
2.6762768e-08
2.6547218e-08
2.6331789e-08
2.6118942e-08
2.5911302e-08
2.5711081e-08
2.5519285e-08
2.5336379e-08
2.5163738e-08
2.5000989e-08
2.4848604e-08
2.4706036e-08
2.4573118e-08
2.4448961e-08
2.4334911e-08
2.3802076e-08
2.3939056e-08
2.4087444e-08
2.4245665e-08
2.4415951e-08
2.4598447e-08
2.4793649e-08
2.5001314e-08
2.5221666e-08
2.545331e-08
2.5695868e-08
2.5948103e-08
2.6207618e-08
2.6471531e-08
2.6736906e-08
2.6999581e-08
2.7254704e-08
2.7497942e-08
2.7724798e-08
2.7930245e-08
2.8109557e-08
2.825829e-08
2.8372756e-08
2.8450569e-08
2.8489806e-08
2.8489271e-08
2.8450126e-08
2.8374307e-08
2.8264047e-08
2.8122899e-08
2.7955104e-08
2.7765227e-08
2.7558203e-08
2.7338255e-08
2.7109819e-08
2.6877484e-08
2.6645214e-08
2.6415681e-08
2.6191698e-08
2.5975636e-08
2.5768617e-08
2.5571193e-08
2.5384826e-08
2.5209163e-08
2.5044717e-08
2.4890925e-08
2.4747636e-08
2.4613863e-08
2.449124e-08
2.3974067e-08
2.4120022e-08
2.4278522e-08
2.4447711e-08
2.4629952e-08
2.4825381e-08
2.5034512e-08
2.5257071e-08
2.5493256e-08
2.5741584e-08
2.6001576e-08
2.6271849e-08
2.6549821e-08
2.6832377e-08
2.7116316e-08
2.7397173e-08
2.7669768e-08
2.7929428e-08
2.8171324e-08
2.8390112e-08
2.8580775e-08
2.8738623e-08
2.8859764e-08
2.8941665e-08
2.8982315e-08
2.8980503e-08
2.8937432e-08
2.8855147e-08
2.8736019e-08
2.8583799e-08
2.8402994e-08
2.8198491e-08
2.7975566e-08
2.7738772e-08
2.7492854e-08
2.724269e-08
2.6992503e-08
2.674519e-08
2.6503769e-08
2.6270782e-08
2.6047487e-08
2.5834532e-08
2.5633475e-08
2.5443992e-08
2.5266641e-08
2.5100845e-08
2.4946475e-08
2.4802432e-08
2.4670671e-08
2.4168615e-08
2.4324324e-08
2.4493828e-08
2.467494e-08
2.4870173e-08
2.5079649e-08
2.5303895e-08
2.5542606e-08
2.5795941e-08
2.6062324e-08
2.6341158e-08
2.6630902e-08
2.6928764e-08
2.7231378e-08
2.7535252e-08
2.7835598e-08
2.8126879e-08
2.8404064e-08
2.8661972e-08
2.889493e-08
2.9097625e-08
2.9265116e-08
2.9393311e-08
2.9479529e-08
2.9521676e-08
2.9518525e-08
2.9471327e-08
2.9382233e-08
2.9253747e-08
2.9089824e-08
2.8895259e-08
2.867528e-08
2.843552e-08
2.8180867e-08
2.7916383e-08
2.7647241e-08
2.7377939e-08
2.7111615e-08
2.6851514e-08
2.660037e-08
2.6359592e-08
2.6129944e-08
2.5913087e-08
2.5708734e-08
2.5517491e-08
2.5338773e-08
2.5172469e-08
2.5017363e-08
2.487577e-08
2.4389141e-08
2.4555492e-08
2.4737012e-08
2.4931136e-08
2.5140537e-08
2.5365319e-08
2.5606022e-08
2.5862298e-08
2.6134264e-08
2.6420232e-08
2.6719475e-08
2.7030268e-08
2.7349594e-08
2.7673807e-08
2.7999102e-08
2.8320337e-08
2.8631598e-08
2.8927474e-08
2.9202412e-08
2.9450398e-08
2.9665822e-08
2.9843491e-08
2.9979117e-08
3.0069877e-08
3.0113597e-08
3.0109042e-08
3.0057504e-08
2.9961245e-08
2.9822894e-08
2.9646615e-08
2.9437511e-08
2.9201173e-08
2.8943596e-08
2.8670005e-08
2.8385777e-08
2.809639e-08
2.7806631e-08
2.7519909e-08
2.723972e-08