/*--------------------------------*- C++ -*----------------------------------*\
| =========                 |                                                 |
| \\      /  F ield         | OpenFOAM: The Open Source CFD Toolbox           |
|  \\    /   O peration     | Version:  v2006                                 |
|   \\  /    A nd           | Website:  www.openfoam.com                      |
|    \\/     M anipulation  |                                                 |
\*---------------------------------------------------------------------------*/
FoamFile
{
    version     2.0;
    format      ascii;
    class       volScalarField;
    location    "3000";
    object      nut;
}
// * * * * * * * * * * * * * * * * * * * * * * * * * * * * * * * * * * * * * //

dimensions      [0 2 -1 0 0 0 0];


internalField   nonuniform List<scalar> 
19765
(
9.7766494e-06
9.771356e-06
9.4780272e-06
9.5306803e-06
9.5278585e-06
9.6835011e-06
9.5982643e-06
9.7722642e-06
9.741802e-06
9.5523253e-06
9.6564476e-06
1.0035579e-05
1.0257419e-05
1.0449438e-05
1.0852991e-05
1.102419e-05
1.0977477e-05
1.1133456e-05
1.1551072e-05
1.1916979e-05
1.2164538e-05
1.2290206e-05
1.2511285e-05
1.265019e-05
1.2743692e-05
1.2801626e-05
1.2831559e-05
1.2773171e-05
1.2796214e-05
1.2682444e-05
1.2456719e-05
1.2168042e-05
1.2204925e-05
1.2356433e-05
1.2218297e-05
1.1883276e-05
1.1872139e-05
1.1814574e-05
1.1541679e-05
1.1636981e-05
1.2018725e-05
1.217788e-05
1.2139201e-05
1.2457589e-05
1.2350969e-05
1.2589873e-05
1.2599156e-05
1.257257e-05
1.2443419e-05
5.4190747e-05
5.6822709e-05
5.9036755e-05
6.0822888e-05
6.2980492e-05
6.518816e-05
6.7412961e-05
6.9636139e-05
7.1927599e-05
7.3940146e-05
7.6315106e-05
7.889982e-05
8.1120237e-05
8.3106422e-05
8.5148056e-05
8.6398421e-05
8.6708264e-05
8.7310456e-05
8.8560759e-05
9.0065257e-05
9.150249e-05
9.2473408e-05
9.3307051e-05
9.4372481e-05
9.5415691e-05
9.5938294e-05
9.6181416e-05
9.6507359e-05
9.6753946e-05
9.6802885e-05
9.6738537e-05
9.66079e-05
9.6627898e-05
9.6494235e-05
9.5863934e-05
9.4942271e-05
9.4131575e-05
9.302635e-05
9.1634023e-05
9.0610441e-05
8.971136e-05
8.7686015e-05
8.5525335e-05
8.1873221e-05
7.9270988e-05
7.3113632e-05
6.6253917e-05
5.9413178e-05
5.4302753e-05
1.5985205e-05
1.5314308e-05
1.4838094e-05
1.5080461e-05
1.5200708e-05
1.5316211e-05
1.5251497e-05
1.541473e-05
1.5317465e-05
1.5464415e-05
1.5706123e-05
1.5744603e-05
1.5577937e-05
1.541067e-05
1.5123313e-05
1.4680359e-05
1.4326098e-05
1.4087473e-05
1.3906405e-05
1.3759896e-05
1.3703811e-05
1.3758374e-05
1.3783647e-05
1.3843989e-05
1.4142004e-05
1.4692366e-05
1.5201087e-05
1.5719143e-05
1.6461242e-05
1.7256082e-05
1.8027553e-05
1.8744558e-05
1.9388301e-05
2.0388631e-05
2.1636497e-05
2.267877e-05
2.3492153e-05
2.4560769e-05
2.5384476e-05
2.5810219e-05
2.6533282e-05
2.7785784e-05
2.8431122e-05
2.961466e-05
3.0404152e-05
3.2623216e-05
3.5506699e-05
3.8899153e-05
4.1253897e-05
6.2470364e-07
5.5916545e-07
5.2126222e-07
5.1584171e-07
5.0838131e-07
5.0162794e-07
4.9016244e-07
4.8622315e-07
4.7519387e-07
4.7023396e-07
4.6756312e-07
4.5955234e-07
4.4655877e-07
4.3468826e-07
4.2157197e-07
4.0628708e-07
3.9474463e-07
3.8719758e-07
3.808832e-07
3.7475478e-07
3.7216954e-07
3.7435223e-07
3.7532189e-07
3.7737799e-07
3.8559419e-07
4.0099787e-07
4.1714737e-07
4.3523806e-07
4.6054462e-07
4.89645e-07
5.2105119e-07
5.5384159e-07
5.8767297e-07
6.3556731e-07
6.9653836e-07
7.5752477e-07
8.1775939e-07
8.9388128e-07
9.6645577e-07
1.0295207e-06
1.1147172e-06
1.2360485e-06
1.3440536e-06
1.5114684e-06
1.6742568e-06
1.9088038e-06
2.1946349e-06
2.558402e-06
2.9887472e-06
1.6339811e-07
1.6288758e-07
1.6316449e-07
1.6508287e-07
1.667731e-07
1.6838256e-07
1.6945347e-07
1.7103357e-07
1.7185599e-07
1.7316605e-07
1.7477632e-07
1.7589503e-07
1.7650707e-07
1.7723185e-07
1.7772911e-07
1.7781967e-07
1.7824031e-07
1.7909766e-07
1.7984121e-07
1.8046557e-07
1.8146362e-07
1.8283848e-07
1.8411296e-07
1.8557445e-07
1.8770478e-07
1.9071391e-07
1.9384993e-07
1.9712878e-07
2.0111119e-07
2.0534391e-07
2.0959234e-07
2.1373214e-07
2.1761037e-07
2.2242726e-07
2.279121e-07
2.3277805e-07
2.3695444e-07
2.4173738e-07
2.4568115e-07
2.4851642e-07
2.522827e-07
2.5720757e-07
2.6076066e-07
2.6626383e-07
2.7084472e-07
2.7700993e-07
2.8301809e-07
2.8756333e-07
2.9192912e-07
1.4134319e-07
1.4149214e-07
1.4198107e-07
1.4314517e-07
1.4404959e-07
1.4495897e-07
1.4566097e-07
1.4657053e-07
1.47139e-07
1.4801047e-07
1.4885011e-07
1.4941295e-07
1.4981047e-07
1.5025536e-07
1.5057661e-07
1.5082568e-07
1.5131329e-07
1.5198558e-07
1.5260829e-07
1.5322845e-07
1.5398673e-07
1.5486323e-07
1.5591341e-07
1.5716393e-07
1.5874334e-07
1.6081236e-07
1.6305308e-07
1.6538111e-07
1.6806564e-07
1.7097344e-07
1.7396933e-07
1.770095e-07
1.7989767e-07
1.8308467e-07
1.8666926e-07
1.9022159e-07
1.9337791e-07
1.9668476e-07
1.9983021e-07
2.0238926e-07
2.0487905e-07
2.0815138e-07
2.1077679e-07
2.1424343e-07
2.1742581e-07
2.2125189e-07
2.2538779e-07
2.2986502e-07
2.3379919e-07
1.2425916e-07
1.2419337e-07
1.2432605e-07
1.2486093e-07
1.2526962e-07
1.2569487e-07
1.2602254e-07
1.2648403e-07
1.2677319e-07
1.2724588e-07
1.2772497e-07
1.2806078e-07
1.283128e-07
1.2860196e-07
1.288298e-07
1.2902078e-07
1.2936162e-07
1.2983361e-07
1.3030131e-07
1.3078858e-07
1.3136037e-07
1.320024e-07
1.3275109e-07
1.3364746e-07
1.3476263e-07
1.3617478e-07
1.3769486e-07
1.3929547e-07
1.4113465e-07
1.4312536e-07
1.4519209e-07
1.4730257e-07
1.4935128e-07
1.516023e-07
1.5409997e-07
1.5658218e-07
1.5885388e-07
1.612258e-07
1.6350878e-07
1.6546099e-07
1.6740052e-07
1.6976578e-07
1.7176965e-07
1.7421822e-07
1.764888e-07
1.7907129e-07
1.8176194e-07
1.8457975e-07
1.8713023e-07
1.1527109e-07
1.1522241e-07
1.1529265e-07
1.1560671e-07
1.1584334e-07
1.1608908e-07
1.162763e-07
1.1654117e-07
1.1670676e-07
1.1698067e-07
1.1725961e-07
1.174614e-07
1.1762242e-07
1.1781199e-07
1.1797628e-07
1.1813276e-07
1.1838701e-07
1.1872762e-07
1.1908136e-07
1.1946666e-07
1.1991927e-07
1.2042838e-07
1.2103174e-07
1.2174803e-07
1.2261141e-07
1.2367024e-07
1.2481642e-07
1.2603499e-07
1.2742109e-07
1.2892396e-07
1.3049759e-07
1.3212159e-07
1.3372993e-07
1.3548039e-07
1.374043e-07
1.3934377e-07
1.4117223e-07
1.430758e-07
1.4494266e-07
1.4661716e-07
1.48286e-07
1.5024024e-07
1.5198648e-07
1.5403698e-07
1.5600836e-07
1.5821892e-07
1.6055482e-07
1.6304104e-07
1.6540685e-07
1.0885256e-07
1.087874e-07
1.0879809e-07
1.0896621e-07
1.0908971e-07
1.0922257e-07
1.0932299e-07
1.0947479e-07
1.0956953e-07
1.0973448e-07
1.0990659e-07
1.1003665e-07
1.1014752e-07
1.1028131e-07
1.1040595e-07
1.1053329e-07
1.1072811e-07
1.1098384e-07
1.1125696e-07
1.1155957e-07
1.1191135e-07
1.1230368e-07
1.1276166e-07
1.133044e-07
1.1395344e-07
1.1473611e-07
1.155857e-07
1.1649526e-07
1.175244e-07
1.1864112e-07
1.1981747e-07
1.2104005e-07
1.2226771e-07
1.2359801e-07
1.2504914e-07
1.2652014e-07
1.2793175e-07
1.2939897e-07
1.3084962e-07
1.321831e-07
1.3351847e-07
1.3503315e-07
1.3641634e-07
1.3798686e-07
1.395011e-07
1.4115627e-07
1.4287568e-07
1.4467002e-07
1.4636329e-07
1.0464423e-07
1.0459491e-07
1.0459278e-07
1.0469315e-07
1.0476422e-07
1.0484171e-07
1.0489909e-07
1.0499018e-07
1.0504663e-07
1.0514961e-07
1.0525916e-07
1.053454e-07
1.0542349e-07
1.0552e-07
1.0561548e-07
1.0571853e-07
1.0586997e-07
1.0606579e-07
1.0627977e-07
1.0652052e-07
1.0680092e-07
1.0711559e-07
1.074803e-07
1.079092e-07
1.0841719e-07
1.090209e-07
1.0967805e-07
1.1038537e-07
1.1118256e-07
1.120494e-07
1.1296789e-07
1.1392909e-07
1.1490565e-07
1.1596124e-07
1.171089e-07
1.1828216e-07
1.1942664e-07
1.2061736e-07
1.2180675e-07
1.2292504e-07
1.2404885e-07
1.2530177e-07
1.264727e-07
1.2777908e-07
1.2905737e-07
1.3044464e-07
1.3189245e-07
1.3341626e-07
1.3488238e-07
1.0164371e-07
1.0160446e-07
1.0159622e-07
1.0165754e-07
1.0169991e-07
1.0174734e-07
1.0178244e-07
1.0184079e-07
1.0187785e-07
1.0194706e-07
1.0202237e-07
1.0208487e-07
1.0214489e-07
1.022198e-07
1.022973e-07
1.023836e-07
1.0250537e-07
1.0266017e-07
1.0283151e-07
1.0302533e-07
1.0325016e-07
1.0350258e-07
1.0379239e-07
1.0413046e-07
1.0452841e-07
1.0499646e-07
1.0550682e-07
1.0605826e-07
1.0667778e-07
1.073521e-07
1.0806934e-07
1.0882343e-07
1.0959613e-07
1.104299e-07
1.1133355e-07
1.1226187e-07
1.1317768e-07
1.1413053e-07
1.1508756e-07
1.1599985e-07
1.1691886e-07
1.1792656e-07
1.1887946e-07
1.1992311e-07
1.2094605e-07
1.2203978e-07
1.2317021e-07
1.2434654e-07
1.2547337e-07
9.9494995e-08
9.9468991e-08
9.9462875e-08
9.9504417e-08
9.9532963e-08
9.9565273e-08
9.9589722e-08
9.9630475e-08
9.965788e-08
9.9708046e-08
9.9763563e-08
9.9812317e-08
9.9861522e-08
9.9922806e-08
9.998826e-08
1.0006245e-07
1.001632e-07
1.0028895e-07
1.0042916e-07
1.0058803e-07
1.0077142e-07
1.0097748e-07
1.0121235e-07
1.014837e-07
1.0180095e-07
1.0217073e-07
1.0257428e-07
1.0301156e-07
1.0350153e-07
1.0403524e-07
1.0460466e-07
1.0520589e-07
1.0582672e-07
1.0649662e-07
1.0722211e-07
1.0797173e-07
1.0871885e-07
1.0949728e-07
1.1028393e-07
1.1104324e-07
1.1181006e-07
1.1264314e-07
1.134403e-07
1.1430476e-07
1.1515779e-07
1.1606513e-07
1.170034e-07
1.1798239e-07
1.1892691e-07
9.7914202e-08
9.7898616e-08
9.7896137e-08
9.7927152e-08
9.7949268e-08
9.7974359e-08
9.7994504e-08
9.8026452e-08
9.8050052e-08
9.8090212e-08
9.8135091e-08
9.8176747e-08
9.8220295e-08
9.8273685e-08
9.8331702e-08
9.8397705e-08
9.8483821e-08
9.8589045e-08
9.8706464e-08
9.8839038e-08
9.8990832e-08
9.9160904e-08
9.9353118e-08
9.9572875e-08
9.9827905e-08
1.0012255e-07
1.00444e-07
1.0079287e-07
1.0118252e-07
1.0160656e-07
1.0205971e-07
1.0253999e-07
1.0303938e-07
1.0357853e-07
1.0416196e-07
1.0476716e-07
1.0537478e-07
1.0600808e-07
1.0665041e-07
1.0727562e-07
1.079079e-07
1.0858839e-07
1.0924402e-07
1.0994729e-07
1.1064189e-07
1.1137388e-07
1.1212614e-07
1.1290555e-07
1.1365497e-07
9.6733424e-08
9.6727419e-08
9.6729892e-08
9.6756152e-08
9.6776197e-08
9.6798637e-08
9.6818011e-08
9.6846131e-08
9.6869115e-08
9.6904418e-08
9.6943882e-08
9.6982243e-08
9.7023166e-08
9.707216e-08
9.7125725e-08
9.7186318e-08
9.7262287e-08
9.7352949e-08
9.7453679e-08
9.7566562e-08
9.7694439e-08
9.7836862e-08
9.7996288e-08
9.8176515e-08
9.8383824e-08
9.8621128e-08
9.8879613e-08
9.9160291e-08
9.9472292e-08
9.9811075e-08
1.0017397e-07
1.0056062e-07
1.0096556e-07
1.0140309e-07
1.0187618e-07
1.0236845e-07
1.0286562e-07
1.0338416e-07
1.0391203e-07
1.0442974e-07
1.0495422e-07
1.0551559e-07
1.0606017e-07
1.0664067e-07
1.0721588e-07
1.0781954e-07
1.0843915e-07
1.0908108e-07
1.0969914e-07
9.5839667e-08
9.584144e-08
9.5848751e-08
9.5873276e-08
9.5893509e-08
9.5915785e-08
9.5936294e-08
9.5963494e-08
9.5987694e-08
9.6021291e-08
9.6058606e-08
9.6096108e-08
9.6136427e-08
9.6183415e-08
9.623467e-08
9.629196e-08
9.6361059e-08
9.6441469e-08
9.6530018e-08
9.6628142e-08
9.6737812e-08
9.6858806e-08
9.6992674e-08
9.7142086e-08
9.7312112e-08
9.750472e-08
9.7713863e-08
9.794066e-08
9.819075e-08
9.8461665e-08
9.8753388e-08
9.9066217e-08
9.9395487e-08
9.9750693e-08
1.0013384e-07
1.0053311e-07
1.0093813e-07
1.013608e-07
1.0179235e-07
1.0221811e-07
1.0265011e-07
1.0311015e-07
1.0355851e-07
1.0403334e-07
1.0450418e-07
1.0499535e-07
1.0549736e-07
1.0601504e-07
1.0651177e-07
9.5154776e-08
9.5163287e-08
9.517536e-08
9.5200047e-08
9.522182e-08
9.5245411e-08
9.5268153e-08
9.5296174e-08
9.5322656e-08
9.535648e-08
9.5393674e-08
9.5431853e-08
9.5472898e-08
9.5519497e-08
9.5569971e-08
9.5625548e-08
9.5690203e-08
9.5763533e-08
9.58433e-08
9.5930444e-08
9.6026297e-08
9.6130717e-08
9.624465e-08
9.6369965e-08
9.6510714e-08
9.6668242e-08
9.6838438e-08
9.7022233e-08
9.7222344e-08
9.7439666e-08
9.7676016e-08
9.7930415e-08
9.8198007e-08
9.8485472e-08
9.8794805e-08
9.9117799e-08
9.9446998e-08
9.9791157e-08
1.0014382e-07
1.0049382e-07
1.008497e-07
1.0122757e-07
1.0159758e-07
1.0198787e-07
1.0237559e-07
1.0277871e-07
1.0318999e-07
1.0361365e-07
1.040196e-07
9.4625657e-08
9.4639807e-08
9.4656265e-08
9.468214e-08
9.4706144e-08
9.4731857e-08
9.4757405e-08
9.4787279e-08
9.4816647e-08
9.4851913e-08
9.4890294e-08
9.4930165e-08
9.4972851e-08
9.5020214e-08
9.5071039e-08
9.5126132e-08
9.5188176e-08
9.525681e-08
9.5330391e-08
9.5409468e-08
9.5494885e-08
9.55865e-08
9.5684828e-08
9.5791165e-08
9.5908714e-08
9.6038398e-08
9.6177462e-08
9.6326319e-08
9.6485539e-08
9.6661293e-08
9.6854163e-08
9.7060138e-08
9.7275304e-08
9.7505705e-08
9.7753653e-08
9.8013448e-08
9.8279635e-08
9.8558621e-08
9.8845552e-08
9.9131839e-08
9.9423532e-08
9.9732443e-08
1.0003605e-07
1.0035501e-07
1.0067209e-07
1.0100043e-07
1.0133438e-07
1.0167729e-07
1.0200469e-07
9.4213555e-08
9.4232618e-08
9.425319e-08
9.4280917e-08
9.4307576e-08
9.4335913e-08
9.4364614e-08
9.4396998e-08
9.4429633e-08
9.4467146e-08
9.4507594e-08
9.4549863e-08
9.4594857e-08
9.4643834e-08
9.4695883e-08
9.4751464e-08
9.4812321e-08
9.487809e-08
9.4947507e-08
9.50208e-08
9.509843e-08
9.5180205e-08
9.5266328e-08
9.5357685e-08
9.5456751e-08
9.556417e-08
9.5678107e-08
9.5798198e-08
9.5924186e-08
9.6068731e-08
9.6225668e-08
9.6389256e-08
9.6559709e-08
9.6742752e-08
9.6940279e-08
9.7148188e-08
9.736245e-08
9.7587734e-08
9.782034e-08
9.8053609e-08
9.8291802e-08
9.8543673e-08
9.8792106e-08
9.9052428e-08
9.931155e-08
9.9579208e-08
9.9850973e-08
1.0012969e-07
1.0039509e-07
9.3891157e-08
9.3914502e-08
9.3938888e-08
9.3968843e-08
9.399838e-08
9.4029626e-08
9.406167e-08
9.4096982e-08
9.4133124e-08
9.4173432e-08
9.4216562e-08
9.4261743e-08
9.4309553e-08
9.4360801e-08
9.4414768e-08
9.447163e-08
9.4532426e-08
9.4596766e-08
9.4663615e-08
9.4732936e-08
9.480488e-08
9.4879168e-08
9.4955769e-08
9.5035276e-08
9.5119541e-08
9.5209013e-08
9.5302445e-08
9.5398743e-08
9.5498812e-08
9.5619082e-08
9.5743097e-08
9.5869367e-08
9.6003409e-08
9.6147537e-08
9.6303441e-08
9.6468485e-08
9.6639634e-08
9.6820167e-08
9.7007207e-08
9.7195595e-08
9.7388359e-08
9.7592004e-08
9.7793505e-08
9.800424e-08
9.8214216e-08
9.8430606e-08
9.8649886e-08
9.8874369e-08
9.9087303e-08
9.3638023e-08
9.3665221e-08
9.3693212e-08
9.3725659e-08
9.3758227e-08
9.3792583e-08
9.3828106e-08
9.3866647e-08
9.3906479e-08
9.394999e-08
9.3996264e-08
9.4044763e-08
9.4095805e-08
9.4149858e-08
9.420632e-08
9.4265126e-08
9.4326778e-08
9.4390839e-08
9.4456405e-08
9.4523213e-08
9.4591156e-08
9.4659844e-08
9.4729066e-08
9.47992e-08
9.4871569e-08
9.4946481e-08
9.502303e-08
9.5100368e-08
9.5183388e-08
9.5277244e-08
9.5370274e-08
9.5467834e-08
9.5573117e-08
9.5684303e-08
9.5805829e-08
9.5935487e-08
9.607054e-08
9.6213261e-08
9.6361563e-08
9.6511579e-08
9.6665534e-08
9.6828323e-08
9.6990005e-08
9.7159072e-08
9.7327848e-08
9.7501648e-08
9.7677639e-08
9.7857761e-08
9.802802e-08
9.343925e-08
9.3469967e-08
9.3501389e-08
9.3536502e-08
9.3572203e-08
9.3609809e-08
9.3648916e-08
9.369091e-08
9.3734586e-08
9.378162e-08
9.3831409e-08
9.3883563e-08
9.3938196e-08
9.3995508e-08
9.405496e-08
9.4116282e-08
9.4179554e-08
9.4244278e-08
9.4309612e-08
9.4375097e-08
9.4440405e-08
9.4505023e-08
9.4568595e-08
9.4631327e-08
9.4694115e-08
9.475714e-08
9.4819755e-08
9.4885115e-08
9.4967641e-08
9.5034978e-08
9.5090706e-08
9.5163041e-08
9.5240731e-08
9.5325849e-08
9.5419689e-08
9.5519316e-08
9.5623026e-08
9.5732933e-08
9.5847752e-08
9.5964648e-08
9.6085243e-08
9.6213179e-08
9.6340846e-08
9.6474544e-08
9.660835e-08
9.6746167e-08
9.6885688e-08
9.7028503e-08
9.7162929e-08
9.3283514e-08
9.331753e-08
9.3352279e-08
9.3390204e-08
9.3429132e-08
9.3470117e-08
9.3512911e-08
9.3558558e-08
9.3606227e-08
9.3657062e-08
9.3710682e-08
9.3766797e-08
9.3825349e-08
9.3886322e-08
9.3949206e-08
9.401355e-08
9.4079094e-08
9.414527e-08
9.421125e-08
9.4276395e-08
9.4340188e-08
9.4401991e-08
9.446132e-08
9.4518235e-08
9.4573296e-08
9.4626566e-08
9.4677863e-08
9.4727468e-08
9.4776e-08
9.4825281e-08
9.4883198e-08
9.4935976e-08
9.4993366e-08
9.5055648e-08
9.5123256e-08
9.5195503e-08
9.5271594e-08
9.5353185e-08
9.5439342e-08
9.5527891e-08
9.5619957e-08
9.571823e-08
9.5816891e-08
9.5920608e-08
9.6024809e-08
9.6132352e-08
9.6241354e-08
9.6353135e-08
9.6457902e-08
9.3162346e-08
9.3199515e-08
9.3237527e-08
9.3278391e-08
9.3320639e-08
9.3365125e-08
9.3411718e-08
9.34612e-08
9.3513018e-08
9.3567908e-08
9.3625651e-08
9.3686012e-08
9.3748793e-08
9.38138e-08
9.3880521e-08
9.3948344e-08
9.4016732e-08
9.4085035e-08
9.4152404e-08
9.4218037e-08
9.4281248e-08
9.4341273e-08
9.4397509e-08
9.4449894e-08
9.4498721e-08
9.4543955e-08
9.4585543e-08
9.4624199e-08
9.4663103e-08
9.468139e-08
9.4727915e-08
9.4769442e-08
9.4809001e-08
9.4850459e-08
9.4895877e-08
9.4945232e-08
9.4998036e-08
9.5055535e-08
9.5117119e-08
9.5181204e-08
9.5248608e-08
9.5321332e-08
9.5394967e-08
9.5472957e-08
9.5551777e-08
9.5633498e-08
9.571657e-08
9.5802072e-08
9.5881798e-08
9.3069252e-08
9.3109496e-08
9.3150757e-08
9.3194687e-08
9.3240364e-08
9.3288483e-08
9.3339002e-08
9.3392506e-08
9.3448643e-08
9.3507837e-08
9.356998e-08
9.3634869e-08
9.3702183e-08
9.3771576e-08
9.3842516e-08
9.3914245e-08
9.3985987e-08
9.4057005e-08
9.4126406e-08
9.4193234e-08
9.4256648e-08
9.4315758e-08
9.4369853e-08
9.4418762e-08
9.4462566e-08
9.4501132e-08
9.453457e-08
9.4563675e-08
9.4588836e-08
9.4615127e-08
9.4636558e-08
9.4656772e-08
9.4677784e-08
9.4701068e-08
9.4727497e-08
9.4757014e-08
9.478942e-08
9.4825778e-08
9.4865805e-08
9.4908422e-08
9.4954239e-08
9.5004744e-08
9.5056622e-08
9.5112395e-08
9.5169348e-08
9.5228963e-08
9.5289955e-08
9.5353205e-08
9.5411827e-08
9.2999299e-08
9.3042591e-08
9.3087124e-08
9.3134253e-08
9.318348e-08
9.3235376e-08
9.3289968e-08
9.3347687e-08
9.3408331e-08
9.3472077e-08
9.3538898e-08
9.3608598e-08
9.3680747e-08
9.3754871e-08
9.3830397e-08
9.3906432e-08
9.3981995e-08
9.4056254e-08
9.4128252e-08
9.4196887e-08
9.4261173e-08
9.4320099e-08
9.4372846e-08
9.4419146e-08
9.4458911e-08
9.4491919e-08
9.4518399e-08
9.4539076e-08
9.4555113e-08
9.4566681e-08
9.45758e-08
9.4583565e-08
9.4590724e-08
9.4598531e-08
9.4608125e-08
9.461995e-08
9.4634201e-08
9.4651838e-08
9.4672836e-08
9.4696508e-08
9.4723318e-08
9.4754366e-08
9.4787193e-08
9.4823624e-08
9.4861576e-08
9.4902085e-08
9.4944078e-08
9.4988264e-08
9.502887e-08
9.2948692e-08
9.2995054e-08
9.3042919e-08
9.3093391e-08
9.3146307e-08
9.3202143e-08
9.3260975e-08
9.3323116e-08
9.3388473e-08
9.3457029e-08
9.3528807e-08
9.3603608e-08
9.3680901e-08
9.3760095e-08
9.3840568e-08
9.3921295e-08
9.4001113e-08
9.4079091e-08
9.4154191e-08
9.4225172e-08
9.429091e-08
9.4350272e-08
9.4402339e-08
9.4446751e-08
9.4483282e-08
9.4511629e-08
9.4532111e-08
9.4545493e-08
9.4552643e-08
9.4554743e-08
9.4552864e-08
9.4548191e-08
9.4541904e-08
9.4535342e-08
9.4529706e-08
9.4525687e-08
9.4523719e-08
9.4524673e-08
9.4528731e-08
9.4535531e-08
9.4545442e-08
9.4559282e-08
9.4575271e-08
9.4594709e-08
9.4616007e-08
9.4639869e-08
9.4665394e-08
9.4693143e-08
9.4718286e-08
9.2914546e-08
9.2964033e-08
9.3015319e-08
9.3069293e-08
9.3126057e-08
9.3186011e-08
9.3249273e-08
9.3316057e-08
9.3386354e-08
9.3459989e-08
9.3537014e-08
9.3617214e-08
9.3699967e-08
9.3784572e-08
9.3870347e-08
9.3956143e-08
9.4040628e-08
9.4122767e-08
9.4201429e-08
9.4275237e-08
9.4342934e-08
9.4403269e-08
9.4455222e-08
9.4498349e-08
9.4532306e-08
9.455672e-08
9.4571984e-08
9.4578869e-08
9.4578262e-08
9.4571269e-08
9.4559189e-08
9.4543359e-08
9.4525073e-08
9.4505626e-08
9.4486273e-08
9.4467941e-08
9.4451298e-08
9.443718e-08
9.4425958e-08
9.4417547e-08
9.4412261e-08
9.4410712e-08
9.4411659e-08
9.4416003e-08
9.4422551e-08
9.443175e-08
9.4442843e-08
9.4456258e-08
9.4467967e-08
9.2894663e-08
9.2947364e-08
9.3002189e-08
9.3059838e-08
9.3120629e-08
9.3184901e-08
9.32528e-08
9.3324469e-08
9.3399952e-08
9.3478947e-08
9.3561522e-08
9.3647432e-08
9.373597e-08
9.3826332e-08
9.3917766e-08
9.4009001e-08
9.4098549e-08
9.4185264e-08
9.4267913e-08
9.4344987e-08
9.4415095e-08
9.447687e-08
9.4529193e-08
9.457154e-08
9.4603468e-08
9.4624541e-08
9.463521e-08
9.4636272e-08
9.4628587e-08
9.4613373e-08
9.4592014e-08
9.4565931e-08
9.4536555e-08
9.4505203e-08
9.4473215e-08
9.4441729e-08
9.4411615e-08
9.4383707e-08
9.4358538e-08
9.4336256e-08
9.4317149e-08
9.430168e-08
9.4289041e-08
9.4279833e-08
9.4273176e-08
9.4269324e-08
9.4267637e-08
9.4268428e-08
9.4268359e-08
9.2887401e-08
9.2943433e-08
9.300194e-08
9.3063453e-08
9.312847e-08
9.3197276e-08
9.3270045e-08
9.3346855e-08
9.3427793e-08
9.3512446e-08
9.3600884e-08
9.369283e-08
9.378749e-08
9.3883962e-08
9.3981416e-08
9.407846e-08
9.4173456e-08
9.4265143e-08
9.435218e-08
9.443292e-08
9.4505846e-08
9.4569473e-08
9.4622585e-08
9.4664581e-08
9.4694932e-08
9.4713144e-08
9.471972e-08
9.4715482e-08
9.4701298e-08
9.4678462e-08
9.4648457e-08
9.4612805e-08
9.4573072e-08
9.4530616e-08
9.4486866e-08
9.4443151e-08
9.4400524e-08
9.4359839e-08
9.4321779e-08
9.4286691e-08
9.4254861e-08
9.4226648e-08
9.4201591e-08
9.4180069e-08
9.4161448e-08
9.4145841e-08
9.4132701e-08
9.4122238e-08
9.4111711e-08
9.2891561e-08
9.2951065e-08
9.3013421e-08
9.3079006e-08
9.3148465e-08
9.3222045e-08
9.3299935e-08
9.3382163e-08
9.3468843e-08
9.3559469e-08
9.3654102e-08
9.3752423e-08
9.3853555e-08
9.3956499e-08
9.406034e-08
9.4163563e-08
9.4264388e-08
9.436143e-08
9.4453233e-08
9.4538015e-08
9.461413e-08
9.4679977e-08
9.4734246e-08
9.4776255e-08
9.4805402e-08
9.4821143e-08
9.4824025e-08
9.4814903e-08
9.4794659e-08
9.4764671e-08
9.472652e-08
9.4681827e-08
9.4632289e-08
9.457933e-08
9.4524474e-08
9.4469229e-08
9.4414819e-08
9.4362139e-08
9.4312008e-08
9.4264947e-08
9.4221256e-08
9.4181226e-08
9.414468e-08
9.4111825e-08
9.4082233e-08
9.4055902e-08
9.403237e-08
9.4011752e-08
9.3991823e-08
9.290631e-08
9.296945e-08
9.3035843e-08
9.3105724e-08
9.3179864e-08
9.3258473e-08
9.3341759e-08
9.3429701e-08
9.3522432e-08
9.3619364e-08
9.372054e-08
9.3825592e-08
9.3933562e-08
9.404335e-08
9.4153952e-08
9.4263731e-08
9.437076e-08
9.4473532e-08
9.4570465e-08
9.4659643e-08
9.4739291e-08
9.4807691e-08
9.4863438e-08
9.4905774e-08
9.4934029e-08
9.4947615e-08
9.494712e-08
9.4933434e-08
9.4907466e-08
9.4870677e-08
9.4824745e-08
9.4771395e-08
9.4712456e-08
9.4649431e-08
9.4583954e-08
9.45177e-08
9.4452053e-08
9.4387965e-08
9.4326385e-08
9.4267987e-08
9.42131e-08
9.4161973e-08
9.4114659e-08
9.4071242e-08
9.4031456e-08
9.3995219e-08
9.3962132e-08
9.3932229e-08
9.3903738e-08
9.2931116e-08
9.2998076e-08
9.3068719e-08
9.3143138e-08
9.3222215e-08
9.3306134e-08
9.3395109e-08
9.3489084e-08
9.3588196e-08
9.3691787e-08
9.3799872e-08
9.3912029e-08
9.4027217e-08
9.4144236e-08
9.4261984e-08
9.4378698e-08
9.4492309e-08
9.4601179e-08
9.4703597e-08
9.4797508e-08
9.4881008e-08
9.4952266e-08
9.5009777e-08
9.505271e-08
9.5080334e-08
9.509202e-08
9.5088397e-08
9.507039e-08
9.5038947e-08
9.499561e-08
9.4942154e-08
9.4880415e-08
9.4812353e-08
9.4739566e-08
9.4663806e-08
9.4586908e-08
9.4510413e-08
9.4435342e-08
9.4362766e-08
9.4293501e-08
9.4227911e-08
9.4166225e-08
9.410869e-08
9.4055298e-08
9.4005918e-08
9.3960402e-08
9.3918412e-08
9.38799e-08
9.38435e-08
9.2965714e-08
9.3036698e-08
9.3111821e-08
9.3191039e-08
9.3275334e-08
9.336486e-08
9.3459842e-08
9.3560188e-08
9.3666037e-08
9.3776659e-08
9.3892038e-08
9.4011694e-08
9.4134497e-08
9.4259146e-08
9.4384436e-08
9.4508473e-08
9.4629047e-08
9.474438e-08
9.4852628e-08
9.4951598e-08
9.5039253e-08
9.5113646e-08
9.5173179e-08
9.5216945e-08
9.5244156e-08
9.5254148e-08
9.5247588e-08
9.5225441e-08
9.5188698e-08
9.5138984e-08
9.5078173e-08
9.5008213e-08
9.4931201e-08
9.4848842e-08
9.4763015e-08
9.4675713e-08
9.4588626e-08
9.4502857e-08
9.4419596e-08
9.4339787e-08
9.4263841e-08
9.4191985e-08
9.4124625e-08
9.4061689e-08
9.4003158e-08
9.3948837e-08
9.3898436e-08
9.3851836e-08
9.380803e-08
9.3010066e-08
9.3085299e-08
9.3165156e-08
9.3249455e-08
9.3339266e-08
9.3434721e-08
9.3536052e-08
9.364313e-08
9.3756091e-08
9.3874141e-08
9.3997221e-08
9.4124788e-08
9.4255623e-08
9.4388318e-08
9.4521557e-08
9.4653315e-08
9.4781233e-08
9.4903394e-08
9.5017813e-08
9.5122155e-08
9.5214252e-08
9.5292041e-08
9.5353828e-08
9.5398633e-08
9.5425612e-08
9.5434075e-08
9.5424724e-08
9.5398564e-08
9.5356638e-08
9.530065e-08
9.5232576e-08
9.5154483e-08
9.5068606e-08
9.4976772e-08
9.4880993e-08
9.4783418e-08
9.4685883e-08
9.4589585e-08
9.4495827e-08
9.4405676e-08
9.4319595e-08
9.423782e-08
9.4160899e-08
9.4088714e-08
9.402134e-08
9.3958546e-08
9.3900087e-08
9.3845774e-08
9.379493e-08
9.3064352e-08
9.3144078e-08
9.3228942e-08
9.3318624e-08
9.3414275e-08
9.3516004e-08
9.3624048e-08
9.3738246e-08
9.3858721e-08
9.3984617e-08
9.4115827e-08
9.425174e-08
9.4391042e-08
9.4532215e-08
9.4673823e-08
9.4813708e-08
9.4949359e-08
9.5078712e-08
9.5199637e-08
9.5309657e-08
9.540647e-08
9.5487896e-08
9.5552148e-08
9.5598172e-08
9.5625073e-08
9.5632137e-08
9.5620103e-08
9.5590016e-08
9.5542972e-08
9.5480757e-08
9.5405452e-08
9.5319245e-08
9.5224516e-08
9.5123226e-08
9.5017526e-08
9.4909721e-08
9.4801792e-08
9.4695032e-08
9.4590863e-08
9.4490464e-08
9.4394357e-08
9.4302804e-08
9.421647e-08
9.4135213e-08
9.4059186e-08
9.3988137e-08
9.3921857e-08
9.3860091e-08
9.3802467e-08
9.3128951e-08
9.3213434e-08
9.3303606e-08
9.3398994e-08
9.3500831e-08
9.3609205e-08
9.3724353e-08
9.3846082e-08
9.3974499e-08
9.4108685e-08
9.424848e-08
9.4393195e-08
9.4541419e-08
9.4691519e-08
9.4841933e-08
9.499036e-08
9.5134137e-08
9.5271046e-08
9.539881e-08
9.5514803e-08
9.5616593e-08
9.5701884e-08
9.5768793e-08
9.5816196e-08
9.5843147e-08
9.5848915e-08
9.5834273e-08
9.580031e-08
9.5748174e-08
9.5679733e-08
9.5597176e-08
9.5502819e-08
9.5399194e-08
9.5288404e-08
9.5172747e-08
9.505468e-08
9.493633e-08
9.4819096e-08
9.470451e-08
9.4593866e-08
9.4487749e-08
9.4386453e-08
9.4290754e-08
9.4200494e-08
9.41159e-08
9.40367e-08
9.3962725e-08
9.3893653e-08
9.3829401e-08
9.3204448e-08
9.3293974e-08
9.3389775e-08
9.3491219e-08
9.3599616e-08
9.3715031e-08
9.38377e-08
9.39674e-08
9.4104214e-08
9.4247161e-08
9.4396019e-08
9.4550017e-08
9.4707641e-08
9.4867134e-08
9.5026804e-08
9.5184199e-08
9.5336499e-08
9.548133e-08
9.5616259e-08
9.5738514e-08
9.5845531e-08
9.5934896e-08
9.6004637e-08
9.6053559e-08
9.6080668e-08
9.6085219e-08
9.606802e-08
9.6030203e-08
9.5972969e-08
9.5898268e-08
9.5808397e-08
9.5705813e-08
9.5593201e-08
9.5472816e-08
9.5347107e-08
9.5218688e-08
9.5089826e-08
9.496203e-08
9.4836948e-08
9.4715981e-08
9.4599784e-08
9.4488697e-08
9.4383591e-08
9.428431e-08
9.4191145e-08
9.4103815e-08
9.4022184e-08
9.3945871e-08
9.3875068e-08
9.3291634e-08
9.3386513e-08
9.3488292e-08
9.3596167e-08
9.3711524e-08
9.3834406e-08
9.3965046e-08
9.4103185e-08
9.4248883e-08
9.4401089e-08
9.4559515e-08
9.4723302e-08
9.4890823e-08
9.5060195e-08
9.5229583e-08
9.5396381e-08
9.5557606e-08
9.5710721e-08
9.5853136e-08
9.5981932e-08
9.6094411e-08
9.6188047e-08
9.6260779e-08
9.6311341e-08
9.6338697e-08
9.6342092e-08
9.6322367e-08
9.6280697e-08
9.6218335e-08
9.6137309e-08
9.6040035e-08
9.592911e-08
9.5807385e-08
9.5677272e-08
9.5541376e-08
9.5402462e-08
9.5262941e-08
9.5124435e-08
9.4988707e-08
9.4857269e-08
9.4730849e-08
9.4609841e-08
9.4495207e-08
9.4386801e-08
9.4284976e-08
9.4189445e-08
9.4100108e-08
9.4016521e-08
9.3939151e-08
9.3391526e-08
9.3492093e-08
9.3600228e-08
9.371494e-08
9.3837689e-08
9.3968495e-08
9.4107586e-08
9.4254666e-08
9.4409762e-08
9.4571756e-08
9.4740284e-08
9.4914388e-08
9.5092328e-08
9.527208e-08
9.5451661e-08
9.5628304e-08
9.5798858e-08
9.5960617e-08
9.611083e-08
9.6246432e-08
9.6364594e-08
9.6462681e-08
9.6538543e-08
9.6590852e-08
9.6618529e-08
9.6620812e-08
9.6598578e-08
9.655304e-08
9.64855e-08
9.6398068e-08
9.6293277e-08
9.617388e-08
9.6042891e-08
9.5902889e-08
9.5756633e-08
9.560704e-08
9.5456663e-08
9.5307242e-08
9.5160659e-08
9.5018535e-08
9.4881681e-08
9.4750551e-08
9.46262e-08
9.4508497e-08
9.4397856e-08
9.4293993e-08
9.4196842e-08
9.4105896e-08
9.40219e-08
9.3505388e-08
9.3612007e-08
9.3726908e-08
9.3848894e-08
9.3979502e-08
9.4118724e-08
9.4266781e-08
9.4423337e-08
9.4588382e-08
9.4760723e-08
9.4939913e-08
9.5124891e-08
9.5313788e-08
9.5504438e-08
9.5694698e-08
9.5881633e-08
9.6061916e-08
9.623267e-08
9.6390982e-08
9.653364e-08
9.6657688e-08
9.6760385e-08
9.68395e-08
9.6893644e-08
9.69217e-08
9.6922905e-08
9.6898166e-08
9.6848737e-08
9.6775961e-08
9.6682029e-08
9.6569599e-08
9.6441584e-08
9.6301169e-08
9.6151096e-08
9.5994282e-08
9.5833792e-08
9.5672318e-08
9.5511726e-08
9.5354019e-08
9.5200931e-08
9.5053365e-08
9.4911844e-08
9.4777512e-08
9.4650266e-08
9.4530577e-08
9.4418167e-08
9.4313006e-08
9.4214524e-08
9.412375e-08
9.363476e-08
9.3747825e-08
9.3869943e-08
9.3999678e-08
9.413865e-08
9.4286821e-08
9.4444398e-08
9.4611004e-08
9.4786582e-08
9.4969862e-08
9.5160305e-08
9.5356733e-08
9.5557147e-08
9.5759225e-08
9.5960655e-08
9.6158326e-08
9.6348734e-08
9.6528823e-08
9.6695516e-08
9.6845458e-08
9.6975569e-08
9.7083014e-08
9.7165483e-08
9.7221532e-08
9.7250013e-08
9.7250162e-08
9.7222919e-08
9.7169571e-08
9.7091498e-08
9.699097e-08
9.6870779e-08
9.6734001e-08
9.6583994e-08
9.6423662e-08
9.6256073e-08
9.6084437e-08
9.5911586e-08
9.5739516e-08
9.5570358e-08
9.5405968e-08
9.5247347e-08
9.5095099e-08
9.4950459e-08
9.4813361e-08
9.4684338e-08
9.4563119e-08
9.4449718e-08
9.4343493e-08
9.4245776e-08
9.3781497e-08
9.3901444e-08
9.4031269e-08
9.4169274e-08
9.431716e-08
9.4474856e-08
9.4642554e-08
9.4819824e-08
9.5006561e-08
9.5201406e-08
9.540372e-08
9.56122e-08
9.5824703e-08
9.6038745e-08
9.6251837e-08
9.6460684e-08
9.6661596e-08
9.6851338e-08
9.7026668e-08
9.7184093e-08
9.7320418e-08
9.7432718e-08
9.7518617e-08
9.7576621e-08
9.7605559e-08
9.7604667e-08
9.7574918e-08
9.7517627e-08
9.7434202e-08
9.7326993e-08
9.7198931e-08
9.7053259e-08
9.6893505e-08
9.6722727e-08
9.6544134e-08
9.6361078e-08
9.6176532e-08
9.5992629e-08
9.5811637e-08
9.5635541e-08
9.5465454e-08
9.5302072e-08
9.5146722e-08
9.4999386e-08
9.4860654e-08
9.4730273e-08
9.4608295e-08
9.4494009e-08
9.4389065e-08
9.3947817e-08
9.4075127e-08
9.4213204e-08
9.436005e-08
9.4517455e-08
9.4685307e-08
9.4863774e-08
9.5052373e-08
9.5250937e-08
9.5458013e-08
9.5672845e-08
9.5893999e-08
9.6119176e-08
9.634572e-08
9.6570955e-08
9.6791397e-08
9.7003168e-08
9.7202849e-08
9.7387037e-08
9.7552105e-08
9.7694753e-08
9.781198e-08
9.7901355e-08
9.7961342e-08
9.7990754e-08
9.7988833e-08
9.795658e-08
9.7895332e-08
9.7806516e-08
9.7692561e-08
9.7556544e-08
9.7401877e-08
9.7232244e-08
9.7050845e-08
9.6861019e-08
9.666625e-08
9.6469656e-08
9.6273517e-08
9.6080253e-08
9.5891988e-08
9.5709962e-08