/*--------------------------------*- C++ -*----------------------------------*\
| =========                 |                                                 |
| \\      /  F ield         | OpenFOAM: The Open Source CFD Toolbox           |
|  \\    /   O peration     | Version:  v2006                                 |
|   \\  /    A nd           | Website:  www.openfoam.com                      |
|    \\/     M anipulation  |                                                 |
\*---------------------------------------------------------------------------*/
FoamFile
{
    version     2.0;
    format      ascii;
    class       volScalarField;
    location    "3000";
    object      nutMean;
}
// * * * * * * * * * * * * * * * * * * * * * * * * * * * * * * * * * * * * * //

dimensions      [0 2 -1 0 0 0 0];


internalField   nonuniform List<scalar> 
19765
(
9.9356945e-06
9.9189015e-06
9.6063262e-06
9.6385241e-06
9.6168417e-06
9.7561485e-06
9.6539745e-06
9.8121169e-06
9.7633958e-06
9.5586461e-06
9.6462955e-06
1.0009087e-05
1.0216486e-05
1.039621e-05
1.078769e-05
1.0948383e-05
1.0889572e-05
1.1034346e-05
1.1438225e-05
1.1788682e-05
1.2020484e-05
1.2131153e-05
1.2334815e-05
1.2456784e-05
1.2535456e-05
1.258156e-05
1.2601283e-05
1.2535048e-05
1.2550353e-05
1.2431973e-05
1.2203689e-05
1.1913486e-05
1.1941773e-05
1.2084147e-05
1.1944694e-05
1.1611775e-05
1.1594202e-05
1.1532703e-05
1.1260239e-05
1.1345096e-05
1.1710449e-05
1.1862408e-05
1.1819391e-05
1.2126338e-05
1.2020824e-05
1.2250668e-05
1.2257756e-05
1.223097e-05
1.2105579e-05
5.5784273e-05
5.8588256e-05
6.0737088e-05
6.2377976e-05
6.4408001e-05
6.648546e-05
6.8572645e-05
7.064453e-05
7.2796412e-05
7.4636181e-05
7.6819768e-05
7.9213126e-05
8.1253677e-05
8.3061168e-05
8.4934853e-05
8.6089755e-05
8.6384397e-05
8.6969092e-05
8.8140781e-05
8.950463e-05
9.0760933e-05
9.1543291e-05
9.220379e-05
9.3116994e-05
9.400547e-05
9.4367549e-05
9.4473448e-05
9.4691029e-05
9.4842536e-05
9.4802856e-05
9.4654886e-05
9.4442071e-05
9.4383969e-05
9.4180479e-05
9.3487602e-05
9.2513909e-05
9.1655874e-05
9.0508756e-05
8.9078539e-05
8.8007568e-05
8.7057247e-05
8.5032731e-05
8.2893925e-05
7.9486114e-05
7.6916961e-05
7.1151158e-05
6.4652202e-05
5.8100451e-05
5.3213894e-05
1.7173863e-05
1.6374484e-05
1.5792565e-05
1.5970998e-05
1.6015374e-05
1.6053827e-05
1.5904585e-05
1.5994317e-05
1.5810858e-05
1.5887512e-05
1.6064411e-05
1.6031602e-05
1.5795686e-05
1.5572771e-05
1.5233094e-05
1.4743958e-05
1.4369962e-05
1.413125e-05
1.3935045e-05
1.3752665e-05
1.3636371e-05
1.3623563e-05
1.3594512e-05
1.3606513e-05
1.3848309e-05
1.4331213e-05
1.4776883e-05
1.5238795e-05
1.5918949e-05
1.664987e-05
1.7358681e-05
1.8015014e-05
1.8602204e-05
1.9531155e-05
2.0693239e-05
2.1658114e-05
2.2406194e-05
2.3394785e-05
2.4146765e-05
2.4521701e-05
2.5178035e-05
2.6334203e-05
2.6920014e-05
2.8021606e-05
2.8752352e-05
3.0708471e-05
3.3289934e-05
3.6383217e-05
3.852281e-05
7.0229749e-07
6.1841389e-07
5.6781634e-07
5.5563534e-07
5.4186657e-07
5.2961702e-07
5.1282691e-07
5.0481811e-07
4.8961087e-07
4.8152977e-07
4.7620711e-07
4.6552784e-07
4.5012382e-07
4.3639451e-07
4.2165952e-07
4.0506035e-07
3.928378e-07
3.8495238e-07
3.7805665e-07
3.7120032e-07
3.6720875e-07
3.6758802e-07
3.6725721e-07
3.6831993e-07
3.7535635e-07
3.8915502e-07
4.0360689e-07
4.1997812e-07
4.431392e-07
4.6975909e-07
4.9844903e-07
5.2831392e-07
5.5904651e-07
6.0274027e-07
6.5832016e-07
7.1366344e-07
7.6813364e-07
8.3698892e-07
9.022583e-07
9.5859362e-07
1.0349374e-06
1.1438419e-06
1.2402883e-06
1.3906106e-06
1.5369881e-06
1.7483066e-06
2.0051836e-06
2.3306142e-06
2.7131736e-06
1.6372228e-07
1.6293883e-07
1.6298231e-07
1.6472356e-07
1.6624861e-07
1.6769256e-07
1.6859307e-07
1.7001057e-07
1.7065877e-07
1.7181158e-07
1.7327027e-07
1.7422815e-07
1.7468145e-07
1.7525346e-07
1.7558886e-07
1.7552186e-07
1.7580793e-07
1.7653889e-07
1.7716481e-07
1.7769253e-07
1.7852568e-07
1.7965112e-07
1.8074854e-07
1.8209721e-07
1.8409584e-07
1.8690424e-07
1.8981229e-07
1.9287115e-07
1.9660404e-07
2.0056505e-07
2.0453974e-07
2.0840802e-07
2.1202293e-07
2.1652942e-07
2.2166369e-07
2.262034e-07
2.3008103e-07
2.3452845e-07
2.3817063e-07
2.4075124e-07
2.4420382e-07
2.4874947e-07
2.5197898e-07
2.570473e-07
2.6122754e-07
2.6689918e-07
2.7248693e-07
2.7683403e-07
2.8076592e-07
1.4091928e-07
1.4094548e-07
1.4133096e-07
1.4240178e-07
1.4320885e-07
1.4402375e-07
1.4463353e-07
1.4544949e-07
1.4592661e-07
1.4670988e-07
1.4745694e-07
1.4792738e-07
1.4823658e-07
1.4859212e-07
1.4882077e-07
1.4898011e-07
1.4937994e-07
1.4996053e-07
1.5049387e-07
1.5103531e-07
1.5170451e-07
1.5246255e-07
1.5340027e-07
1.545575e-07
1.5603915e-07
1.5797504e-07
1.6006207e-07
1.6224222e-07
1.6476817e-07
1.6750275e-07
1.703213e-07
1.7318013e-07
1.7589318e-07
1.7889247e-07
1.8226549e-07
1.8560063e-07
1.8855833e-07
1.9165836e-07
1.9459816e-07
1.9697855e-07
1.9929619e-07
2.0234898e-07
2.0478536e-07
2.0801598e-07
2.1097376e-07
2.1453567e-07
2.1838778e-07
2.2255429e-07
2.2627733e-07
1.2368607e-07
1.2357778e-07
1.2366687e-07
1.2415728e-07
1.2451767e-07
1.2489282e-07
1.2516982e-07
1.2557745e-07
1.2581324e-07
1.2623223e-07
1.2665453e-07
1.2693359e-07
1.2713118e-07
1.2736534e-07
1.2753738e-07
1.2767511e-07
1.2796338e-07
1.2837984e-07
1.2879224e-07
1.2922818e-07
1.2974539e-07
1.3032102e-07
1.3100012e-07
1.3183202e-07
1.3288098e-07
1.3420761e-07
1.3563114e-07
1.371373e-07
1.3887372e-07
1.4075175e-07
1.4270191e-07
1.4469245e-07
1.4662326e-07
1.4874824e-07
1.511066e-07
1.5344733e-07
1.5558754e-07
1.5782382e-07
1.5997236e-07
1.6180469e-07
1.6362709e-07
1.6585322e-07
1.6773379e-07
1.7003953e-07
1.7217466e-07
1.7460765e-07
1.7714345e-07
1.7979771e-07
1.8220093e-07
1.146819e-07
1.146006e-07
1.1463986e-07
1.1492192e-07
1.1512658e-07
1.1534037e-07
1.1549659e-07
1.1572861e-07
1.1586271e-07
1.1610413e-07
1.1634916e-07
1.1651754e-07
1.166463e-07
1.1680277e-07
1.1693324e-07
1.1705633e-07
1.1727611e-07
1.1757974e-07
1.1789573e-07
1.1824369e-07
1.1865611e-07
1.1911863e-07
1.1967027e-07
1.203349e-07
1.2114558e-07
1.2213978e-07
1.2321388e-07
1.2436056e-07
1.2566802e-07
1.2708463e-07
1.2856836e-07
1.3009921e-07
1.3161485e-07
1.3326629e-07
1.3508107e-07
1.3690838e-07
1.3863022e-07
1.4042349e-07
1.4217954e-07
1.4375202e-07
1.4532048e-07
1.4715764e-07
1.4879597e-07
1.5072295e-07
1.5257306e-07
1.5464926e-07
1.568426e-07
1.5917672e-07
1.6139734e-07
1.0831807e-07
1.0823597e-07
1.0822895e-07
1.0837717e-07
1.0848076e-07
1.0859331e-07
1.0867398e-07
1.088045e-07
1.0887902e-07
1.0902255e-07
1.0917244e-07
1.0928084e-07
1.0937078e-07
1.0948304e-07
1.0958589e-07
1.0969155e-07
1.0986342e-07
1.1009426e-07
1.1034173e-07
1.1061836e-07
1.109425e-07
1.1130408e-07
1.11727e-07
1.1223198e-07
1.1284202e-07
1.1357833e-07
1.1437657e-07
1.1523419e-07
1.1620632e-07
1.1726062e-07
1.1837162e-07
1.1952619e-07
1.2068551e-07
1.2194299e-07
1.2331466e-07
1.2470427e-07
1.2603774e-07
1.2742444e-07
1.2879429e-07
1.3005244e-07
1.3131338e-07
1.3274395e-07
1.3404898e-07
1.3553291e-07
1.3696284e-07
1.3852737e-07
1.4015307e-07
1.4185017e-07
1.43452e-07
1.0416528e-07
1.0410488e-07
1.0409128e-07
1.0417833e-07
1.0423654e-07
1.0430102e-07
1.0434595e-07
1.0442353e-07
1.0446736e-07
1.0455665e-07
1.0465203e-07
1.0472456e-07
1.0478931e-07
1.0487191e-07
1.0495324e-07
1.050419e-07
1.0517761e-07
1.0535609e-07
1.0555186e-07
1.0577353e-07
1.0603316e-07
1.0632479e-07
1.0666305e-07
1.0706226e-07
1.0753914e-07
1.0810679e-07
1.0872418e-07
1.0939068e-07
1.1014288e-07
1.1096041e-07
1.1182694e-07
1.1273376e-07
1.1365516e-07
1.1465191e-07
1.1573549e-07
1.1684259e-07
1.1792258e-07
1.1904655e-07
1.2016834e-07
1.2122235e-07
1.2228221e-07
1.2346358e-07
1.2456659e-07
1.2579817e-07
1.2700231e-07
1.2830962e-07
1.2967366e-07
1.3110898e-07
1.3248967e-07
1.0122763e-07
1.0118161e-07
1.0116604e-07
1.0121838e-07
1.012522e-07
1.0129095e-07
1.0131783e-07
1.0136719e-07
1.0139597e-07
1.0145601e-07
1.0152187e-07
1.0157531e-07
1.0162647e-07
1.0169206e-07
1.0176006e-07
1.0183653e-07
1.0194726e-07
1.0208971e-07
1.0224791e-07
1.0242768e-07
1.0263699e-07
1.0287222e-07
1.031422e-07
1.034573e-07
1.0383075e-07
1.0427085e-07
1.0475047e-07
1.0527002e-07
1.0585435e-07
1.0649013e-07
1.0716671e-07
1.0787816e-07
1.0860736e-07
1.0939474e-07
1.1024809e-07
1.111244e-07
1.1198904e-07
1.1288896e-07
1.1379234e-07
1.1465313e-07
1.155208e-07
1.1647217e-07
1.1737126e-07
1.1835686e-07
1.193225e-07
1.2035564e-07
1.2142361e-07
1.2253519e-07
1.2360016e-07
9.9133757e-08
9.9103469e-08
9.9092666e-08
9.9128161e-08
9.9151094e-08
9.9177722e-08
9.9196854e-08
9.923173e-08
9.925381e-08
9.9297913e-08
9.9347195e-08
9.939e-08
9.9433335e-08
9.9488345e-08
9.9547347e-08
9.9614712e-08
9.9707562e-08
9.9824318e-08
9.9954784e-08
1.0010301e-07
1.0027445e-07
1.0046713e-07
1.0068644e-07
1.0093953e-07
1.0123695e-07
1.0158429e-07
1.0196323e-07
1.0237471e-07
1.0283619e-07
1.0333879e-07
1.0387532e-07
1.0444197e-07
1.0502721e-07
1.0565897e-07
1.0634305e-07
1.0704959e-07
1.0775383e-07
1.0848778e-07
1.0922912e-07
1.0994444e-07
1.106672e-07
1.1145231e-07
1.1220312e-07
1.1301783e-07
1.1382132e-07
1.1467626e-07
1.1556022e-07
1.1648238e-07
1.173719e-07
9.7602402e-08
9.7584126e-08
9.7578633e-08
9.7605526e-08
9.7623903e-08
9.7645209e-08
9.7661865e-08
9.7689915e-08
9.7710048e-08
9.774615e-08
9.7786861e-08
9.7824563e-08
9.7864172e-08
9.7913277e-08
9.796684e-08
9.8028014e-08
9.8108382e-08
9.8206939e-08
9.8317011e-08
9.8441413e-08
9.8583905e-08
9.8743412e-08
9.8923275e-08
9.9128394e-08
9.9367259e-08
9.9643717e-08
9.9945248e-08
1.0027311e-07
1.0063961e-07
1.0103854e-07
1.0146517e-07
1.0191737e-07
1.0238752e-07
1.028952e-07
1.0344446e-07
1.0401403e-07
1.04586e-07
1.0518236e-07
1.0578707e-07
1.0637558e-07
1.0697107e-07
1.0761202e-07
1.0822933e-07
1.0889197e-07
1.0954623e-07
1.1023607e-07
1.1094507e-07
1.1167975e-07
1.1238616e-07
9.6463715e-08
9.6456072e-08
9.6456679e-08
9.6480182e-08
9.6497799e-08
9.6517782e-08
9.6534931e-08
9.6560523e-08
9.6581307e-08
9.6613935e-08
9.6650642e-08
9.6686398e-08
9.6724685e-08
9.6770742e-08
9.6821202e-08
9.6878333e-08
9.695005e-08
9.7035683e-08
9.7130771e-08
9.7237263e-08
9.7357762e-08
9.749169e-08
9.764112e-08
9.7809429e-08
9.8003361e-08
9.8225667e-08
9.8467756e-08
9.8731059e-08
9.9024068e-08
9.9342424e-08
9.9683565e-08
1.0004683e-07
1.0042706e-07
1.008379e-07
1.012821e-07
1.0174425e-07
1.0221117e-07
1.0269841e-07
1.0319437e-07
1.0368077e-07
1.0417382e-07
1.047016e-07
1.0521342e-07
1.0575933e-07
1.0630008e-07
1.0686776e-07
1.0745042e-07
1.08054e-07
1.0863503e-07
9.5606134e-08
9.5606943e-08
9.5613133e-08
9.5635825e-08
9.5654503e-08
9.5675206e-08
9.5694327e-08
9.5719913e-08
9.5742752e-08
9.5774606e-08
9.5810116e-08
9.5845915e-08
9.5884478e-08
9.5929445e-08
9.5978518e-08
9.6033294e-08
9.6099202e-08
9.617576e-08
9.625991e-08
9.6352963e-08
9.6456702e-08
9.657078e-08
9.6696462e-08
9.6836071e-08
9.6994921e-08
9.7175035e-08
9.7370542e-08
9.7582893e-08
9.781745e-08
9.8071703e-08
9.8345231e-08
9.8638111e-08
9.8946176e-08
9.9278631e-08
9.963737e-08
1.0001131e-07
1.0039086e-07
1.0078725e-07
1.0119202e-07
1.0159142e-07
1.0199694e-07
1.0242888e-07
1.0284977e-07
1.0329581e-07
1.0373799e-07
1.0419947e-07
1.0467115e-07
1.051576e-07
1.0562432e-07
9.4951872e-08
9.4959878e-08
9.4971347e-08
9.4994862e-08
9.5015692e-08
9.503833e-08
9.5060263e-08
9.5087303e-08
9.5112997e-08
9.5145723e-08
9.5181767e-08
9.521886e-08
9.5258749e-08
9.5303961e-08
9.535289e-08
9.5406618e-08
9.5468844e-08
9.553918e-08
9.5615464e-08
9.5698527e-08
9.5789547e-08
9.5888267e-08
9.5995415e-08
9.6112576e-08
9.6243895e-08
9.6390901e-08
9.6549638e-08
9.6721384e-08
9.690887e-08
9.7112293e-08
9.7332838e-08
9.7569826e-08
9.7819137e-08
9.808724e-08
9.8375981e-08
9.8677677e-08
9.8985441e-08
9.9307486e-08
9.9637589e-08
9.9965278e-08
1.0029868e-07
1.0065274e-07
1.009994e-07
1.0136525e-07
1.017286e-07
1.0210653e-07
1.0249209e-07
1.0288925e-07
1.0326974e-07
9.4448812e-08
9.4462754e-08
9.447895e-08
9.4504107e-08
9.4527584e-08
9.4552765e-08
9.4577895e-08
9.4607217e-08
9.4636181e-08
9.4670791e-08
9.4708469e-08
9.4747674e-08
9.4789616e-08
9.4836029e-08
9.4885755e-08
9.493947e-08
9.4999639e-08
9.5065911e-08
9.5136696e-08
9.5212445e-08
9.5293878e-08
9.5380742e-08
9.5473389e-08
9.5572881e-08
9.5682409e-08
9.5803154e-08
9.5932519e-08
9.6071344e-08
9.6220394e-08
9.6383898e-08
9.6562636e-08
9.6753524e-08
9.6953183e-08
9.7167279e-08
9.7398002e-08
9.7640045e-08
9.7888334e-08
9.8148804e-08
9.8416766e-08
9.8684168e-08
9.895676e-08
9.9245513e-08
9.9529272e-08
9.9827566e-08
1.0012406e-07
1.0043123e-07
1.0074367e-07
1.0106453e-07
1.0137083e-07
9.405881e-08
9.4077865e-08
9.4098408e-08
9.412574e-08
9.4152162e-08
9.4180257e-08
9.4208807e-08
9.4240935e-08
9.4273424e-08
9.4310585e-08
9.4350636e-08
9.4392525e-08
9.4437057e-08
9.4485388e-08
9.4536648e-08
9.4591189e-08
9.4650576e-08
9.4714454e-08
9.4781592e-08
9.4852137e-08
9.4926446e-08
9.5004223e-08
9.5085541e-08
9.5171095e-08
9.5263288e-08
9.5363053e-08
9.5468736e-08
9.558077e-08
9.5698241e-08
9.5830885e-08
9.5975475e-08
9.6126522e-08
9.6283955e-08
9.6453347e-08
9.6636619e-08
9.6829819e-08
9.702907e-08
9.7238654e-08
9.7455038e-08
9.7672036e-08
9.7893731e-08
9.8128263e-08
9.8359591e-08
9.860219e-08
9.8843671e-08
9.9093253e-08
9.9346712e-08
9.9606706e-08
9.9854212e-08
9.3755227e-08
9.3778691e-08
9.3803199e-08
9.3832981e-08
9.3862475e-08
9.3893676e-08
9.3925745e-08
9.3960999e-08
9.3997165e-08
9.4037326e-08
9.4080267e-08
9.412526e-08
9.4172799e-08
9.422361e-08
9.4277006e-08
9.4333069e-08
9.4392694e-08
9.4455496e-08
9.4520462e-08
9.4587485e-08
9.465663e-08
9.472752e-08
9.4800022e-08
9.4874565e-08
9.4952901e-08
9.5035776e-08
9.5122165e-08
9.5212188e-08
9.5305532e-08
9.5413282e-08
9.5526904e-08
9.5643032e-08
9.5765894e-08
9.5898911e-08
9.6043183e-08
9.619584e-08
9.6354012e-08
9.6520845e-08
9.6693717e-08
9.6867901e-08
9.7046318e-08
9.7235013e-08
9.7421784e-08
9.761736e-08
9.7812282e-08
9.8013333e-08
9.821715e-08
9.8425891e-08
9.8623833e-08
9.351812e-08
9.3545519e-08
9.3573729e-08
9.3606157e-08
9.3638813e-08
9.3673255e-08
9.3708918e-08
9.3747532e-08
9.3787498e-08
9.3830999e-08
9.3877223e-08
9.3925658e-08
9.3976557e-08
9.4030317e-08
9.4086359e-08
9.4144539e-08
9.4205242e-08
9.4268032e-08
9.4332019e-08
9.439688e-08
9.4462437e-08
9.4528212e-08
9.4593908e-08
9.4659757e-08
9.4726983e-08
9.4796174e-08
9.4866576e-08
9.4937849e-08
9.5014432e-08
9.5099367e-08
9.5182755e-08
9.5271856e-08
9.5367558e-08
9.5470202e-08
9.5581686e-08
9.5700192e-08
9.5823566e-08
9.5954154e-08
9.6090076e-08
9.6227771e-08
9.6369347e-08
9.6519317e-08
9.6668375e-08
9.6824498e-08
9.6980432e-08
9.7141185e-08
9.7304056e-08
9.7470851e-08
9.7628452e-08
9.3333048e-08
9.3364011e-08
9.339571e-08
9.3430908e-08
9.346678e-08
9.3504556e-08
9.3543874e-08
9.3586024e-08
9.3629899e-08
9.3677012e-08
9.3726838e-08
9.377901e-08
9.3833583e-08
9.3890698e-08
9.3949834e-08
9.4010653e-08
9.407314e-08
9.4136796e-08
9.4200787e-08
9.4264601e-08
9.4327852e-08
9.438995e-08
9.4450465e-08
9.4509469e-08
9.4567768e-08
9.4625799e-08
9.468327e-08
9.4740999e-08
9.4814276e-08
9.4877786e-08
9.4928397e-08
9.4993201e-08
9.5063806e-08
9.5140534e-08
9.5224457e-08
9.5313868e-08
9.5407344e-08
9.5506837e-08
9.5611102e-08
9.5717486e-08
9.5827504e-08
9.5944502e-08
9.6061377e-08
9.6184035e-08
9.6306893e-08
9.6433619e-08
9.6562022e-08
9.6693577e-08
9.6817346e-08
9.3189046e-08
9.3223333e-08
9.325839e-08
9.3296467e-08
9.3335617e-08
9.3376822e-08
9.3419868e-08
9.346572e-08
9.3513623e-08
9.3564591e-08
9.3618304e-08
9.3674484e-08
9.3733025e-08
9.3793866e-08
9.3856503e-08
9.3920432e-08
9.3985313e-08
9.4050576e-08
9.4115395e-08
9.4179088e-08
9.424109e-08
9.4300693e-08
9.4357347e-08
9.4410995e-08
9.4462115e-08
9.4511007e-08
9.4557625e-08
9.4602593e-08
9.4644661e-08
9.4688032e-08
9.4740022e-08
9.4787401e-08
9.4837468e-08
9.4891698e-08
9.4951004e-08
9.5014802e-08
9.5082335e-08
9.5155107e-08
9.5232243e-08
9.5311749e-08
9.5394693e-08
9.5483549e-08
9.557291e-08
9.5667143e-08
9.5761946e-08
9.5860002e-08
9.5959519e-08
9.606172e-08
9.6157444e-08
9.3077961e-08
9.3115407e-08
9.315374e-08
9.3194795e-08
9.3237294e-08
9.3282027e-08
9.3328889e-08
9.3378602e-08
9.3430669e-08
9.3485721e-08
9.3543585e-08
9.3604037e-08
9.3666835e-08
9.3731749e-08
9.3798269e-08
9.3865739e-08
9.3933554e-08
9.4001061e-08
9.4067413e-08
9.4131769e-08
9.4193402e-08
9.4251488e-08
9.4305365e-08
9.4354868e-08
9.4400215e-08
9.4441575e-08
9.4479092e-08
9.4513361e-08
9.4547348e-08
9.4564831e-08
9.4603247e-08
9.4637533e-08
9.4670479e-08
9.4705334e-08
9.4743835e-08
9.4785961e-08
9.483133e-08
9.4881139e-08
9.4934862e-08
9.4991073e-08
9.505055e-08
9.5115129e-08
9.5180726e-08
9.5250551e-08
9.5321294e-08
9.539489e-08
9.5469865e-08
9.5547215e-08
9.561927e-08
9.299355e-08
9.3034068e-08
9.3075649e-08
9.3119793e-08
9.316573e-08
9.3214107e-08
9.3264899e-08
9.3318641e-08
9.3375028e-08
9.3434394e-08
9.3496672e-08
9.3561661e-08
9.3629004e-08
9.3698326e-08
9.3769094e-08
9.3840511e-08
9.3911747e-08
9.3982061e-08
9.4050556e-08
9.4116247e-08
9.4178255e-08
9.4235642e-08
9.428764e-08
9.4333988e-08
9.4374699e-08
9.4409821e-08
9.4439631e-08
9.4464884e-08
9.4485962e-08
9.4506976e-08
9.4523625e-08
9.4538945e-08
9.4554667e-08
9.457221e-08
9.4592503e-08
9.4615624e-08
9.4641489e-08
9.4671125e-08
9.4704307e-08
9.4740077e-08
9.4779013e-08
9.4822474e-08
9.4867402e-08
9.4916138e-08
9.4966138e-08
9.5018779e-08
9.507284e-08
9.512913e-08
9.5181219e-08
9.2931097e-08
9.2974653e-08
9.3019497e-08
9.3066847e-08
9.3116333e-08
9.3168485e-08
9.3223343e-08
9.3281297e-08
9.334218e-08
9.3406099e-08
9.3473053e-08
9.3542851e-08
9.3615032e-08
9.3689094e-08
9.3764465e-08
9.3840216e-08
9.3915323e-08
9.3988948e-08
9.4060129e-08
9.4127739e-08
9.419076e-08
9.4248139e-08
9.4299008e-08
9.4343017e-08
9.4380018e-08
9.4409941e-08
9.4433179e-08
9.4450413e-08
9.4462691e-08
9.4470341e-08
9.4475166e-08
9.4478276e-08
9.4480519e-08
9.4483156e-08
9.4487326e-08
9.4493542e-08
9.450207e-08
9.4513839e-08
9.4528871e-08
9.4546577e-08
9.4567398e-08
9.4592336e-08
9.4619139e-08
9.4649488e-08
9.4681441e-08
9.471595e-08
9.4751998e-08
9.4790229e-08
9.4825262e-08
9.2886986e-08
9.2933596e-08
9.2981755e-08
9.3032447e-08
9.3085613e-08
9.3141695e-08
9.3200779e-08
9.3263143e-08
9.3328724e-08
9.3397443e-08
9.3469347e-08
9.3544237e-08
9.3621556e-08
9.370069e-08
9.3781015e-08
9.3861476e-08
9.3940874e-08
9.4018272e-08
9.4092626e-08
9.4162673e-08
9.4227261e-08
9.4285223e-08
9.4335593e-08
9.4377943e-08
9.4411987e-08
9.4437554e-08
9.4455115e-08
9.4465394e-08
9.4469199e-08
9.4467662e-08
9.4461892e-08
9.4453097e-08
9.4442481e-08
9.4431361e-08
9.4420941e-08
9.4411976e-08
9.4404967e-08
9.4400764e-08
9.4399592e-08
9.4401169e-08
9.4405849e-08
9.4414373e-08
9.4425125e-08
9.4439292e-08
9.4455401e-08
9.4474088e-08
9.4494499e-08
9.4517138e-08
9.453751e-08
9.2858479e-08
9.2908196e-08
9.2959756e-08
9.3013941e-08
9.3070941e-08
9.3131126e-08
9.319462e-08
9.3261612e-08
9.3332112e-08
9.3405895e-08
9.3483034e-08
9.3563309e-08
9.3646078e-08
9.3730619e-08
9.3816248e-08
9.3901789e-08
9.3985881e-08
9.4067481e-08
9.4145454e-08
9.4218402e-08
9.4285045e-08
9.4344101e-08
9.439451e-08
9.4435766e-08
9.4467472e-08
9.4489363e-08
9.4501977e-08
9.450605e-08
9.4502407e-08
9.4492146e-08
9.4476575e-08
9.4457037e-08
9.4434858e-08
9.4411325e-08
9.4387704e-08
9.4364976e-08
9.4343865e-08
9.4325194e-08
9.430937e-08
9.4296372e-08
9.4286502e-08
9.4280313e-08
9.4276694e-08
9.4276461e-08
9.4278508e-08
9.4283234e-08
9.4289917e-08
9.4298937e-08
9.4306554e-08
9.2843504e-08
9.2896415e-08
9.2951492e-08
9.3009339e-08
9.3070348e-08
9.3134831e-08
9.3202942e-08
9.3274798e-08
9.3350462e-08
9.3429588e-08
9.3512259e-08
9.3598229e-08
9.3686769e-08
9.377706e-08
9.3868346e-08
9.3959333e-08
9.4048508e-08
9.4134717e-08
9.4216723e-08
9.4292997e-08
9.436213e-08
9.4422727e-08
9.4473635e-08
9.4514274e-08
9.4544153e-08
9.456292e-08
9.4571167e-08
9.4569659e-08
9.4559206e-08
9.4541016e-08
9.4516482e-08
9.4487038e-08
9.4454143e-08
9.4419114e-08
9.43833e-08
9.4347887e-08
9.4313793e-08
9.4281844e-08
9.4252605e-08
9.4226274e-08
9.4203134e-08
9.4183599e-08
9.4166967e-08
9.415377e-08
9.4143198e-08
9.4135468e-08
9.4129968e-08
9.4126969e-08
9.4123377e-08
9.2840524e-08
9.2896746e-08
9.295548e-08
9.3017177e-08
9.3082391e-08
9.3151388e-08
9.3224346e-08
9.3301322e-08
9.3382415e-08
9.3467181e-08
9.3555698e-08
9.3647685e-08
9.3742333e-08
9.3838725e-08
9.3936026e-08
9.4032826e-08
9.4127463e-08
9.4218671e-08
9.4305101e-08
9.4385093e-08
9.445711e-08
9.4519644e-08
9.457145e-08
9.4611877e-08
9.4640349e-08
9.4656441e-08
9.4660786e-08
9.4654183e-08
9.4637455e-08
9.4611889e-08
9.4578979e-08
9.4540259e-08
9.4497323e-08
9.4451531e-08
9.4404327e-08
9.4357078e-08
9.4310882e-08
9.4266589e-08
9.4224907e-08
9.4186227e-08
9.415083e-08
9.4119037e-08
9.4090473e-08
9.406546e-08
9.4043423e-08
9.4024442e-08
9.4007994e-08
9.3994254e-08
9.3980686e-08
9.2848429e-08
9.2908101e-08
9.2970661e-08
9.3036412e-08
9.3106047e-08
9.3179796e-08
9.3257851e-08
9.3340224e-08
9.3427035e-08
9.3517754e-08
9.3612447e-08
9.3710792e-08
9.3811898e-08
9.3914752e-08
9.4018434e-08
9.4121416e-08
9.4221893e-08
9.4318477e-08
9.4409705e-08
9.4493781e-08
9.4569043e-08
9.463387e-08
9.4686924e-08
9.4727482e-08
9.4754896e-08
9.4768675e-08
9.476949e-08
9.4758174e-08
9.4735574e-08
9.4703062e-08
9.466223e-08
9.4614715e-08
9.456224e-08
9.4506233e-08
9.4448236e-08
9.4389792e-08
9.433216e-08
9.4276236e-08
9.4222862e-08
9.4172594e-08
9.4125729e-08
9.4082529e-08
9.4042885e-08
9.4006961e-08
9.3974372e-08
9.3945094e-08
9.3918681e-08
9.3895218e-08
9.3872656e-08
9.286646e-08
9.2929746e-08
9.299632e-08
9.3066348e-08
9.3140643e-08
9.32194e-08
9.3302827e-08
9.3390892e-08
9.3483732e-08
9.3580738e-08
9.3681956e-08
9.3787015e-08
9.3894944e-08
9.4004633e-08
9.4115071e-08
9.4224608e-08
9.43313e-08
9.4433632e-08
9.4530017e-08
9.4618525e-08
9.4697368e-08
9.476481e-08
9.481942e-08
9.4860405e-08
9.4887052e-08
9.4898811e-08
9.4896387e-08
9.4880651e-08
9.4852485e-08
9.4813345e-08
9.4764921e-08
9.4708955e-08
9.4647302e-08
9.4581474e-08
9.4513121e-08
9.4443948e-08
9.4375373e-08
9.4308348e-08
9.4243843e-08
9.4182562e-08
9.412483e-08
9.4070876e-08
9.4020808e-08
9.3974674e-08
9.3932245e-08
9.3893418e-08
9.385781e-08
9.3825425e-08
9.3794642e-08
9.2894148e-08
9.2961234e-08
9.3032035e-08
9.3106582e-08
9.3185794e-08
9.3269839e-08
9.3358934e-08
9.345301e-08
9.355221e-08
9.3655856e-08
9.3763965e-08
9.3876113e-08
9.3991248e-08
9.4108158e-08
9.4225738e-08
9.4342211e-08
9.4455494e-08
9.456394e-08
9.4665833e-08
9.4759106e-08
9.4841843e-08
9.4912195e-08
9.4968637e-08
9.5010306e-08
9.5036428e-08
9.5046404e-08
9.5040968e-08
9.5021033e-08
9.4987524e-08
9.4941979e-08
9.4886188e-08
9.4822007e-08
9.4751419e-08
9.4676035e-08
9.4597624e-08
9.4518046e-08
9.443887e-08
9.4361121e-08
9.4285886e-08
9.4214008e-08
9.4145849e-08
9.4081623e-08
9.4021619e-08
9.3965804e-08
9.3914074e-08
9.3866267e-08
9.3822054e-08
9.3781365e-08
9.3742958e-08
9.2931282e-08
9.3002373e-08
9.3077632e-08
9.3156961e-08
9.324137e-08
9.3331002e-08
9.3426083e-08
9.352651e-08
9.3632426e-08
9.3743086e-08
9.3858474e-08
9.3978107e-08
9.4100845e-08
9.4225379e-08
9.4350497e-08
9.4474295e-08
9.4594547e-08
9.4709472e-08
9.4817216e-08
9.4915577e-08
9.5002505e-08
9.5076039e-08
9.5134561e-08
9.5177137e-08
9.5202937e-08
9.5211319e-08
9.5203045e-08
9.5179073e-08
9.5140373e-08
9.508857e-08
9.5025556e-08
9.4953299e-08
9.487392e-08
9.478914e-08
9.4700851e-08
9.461107e-08
9.452151e-08
9.443328e-08
9.4347583e-08
9.4265387e-08
9.4187101e-08
9.4112941e-08
9.404335e-08
9.3978234e-08
9.3917595e-08
9.3861229e-08
9.3808853e-08
9.3760326e-08
9.3714749e-08
9.2977872e-08
9.3053194e-08
9.3133166e-08
9.3217558e-08
9.3307464e-08
9.3403006e-08
9.3504416e-08
9.3611558e-08
9.3724568e-08
9.384264e-08
9.3965714e-08
9.4093246e-08
9.4224007e-08
9.4356581e-08
9.4489646e-08
9.4621167e-08
9.4748773e-08
9.487054e-08
9.4984475e-08
9.5088233e-08
9.5179637e-08
9.5256607e-08
9.5317434e-08
9.5361112e-08
9.5386759e-08
9.5393699e-08
9.5382718e-08
9.5354819e-08
9.5311026e-08
9.5253048e-08
9.518288e-08
9.5102612e-08
9.5014502e-08
9.4920394e-08
9.4822312e-08
9.4722426e-08
9.4622593e-08
9.4524013e-08
9.4428005e-08
9.4335653e-08
9.4247422e-08
9.416354e-08
9.4084582e-08
9.4010417e-08
9.3941135e-08
9.3876498e-08
9.3816268e-08
9.3760234e-08
9.3707811e-08
9.3034136e-08
9.3113933e-08
9.3198895e-08
9.3288653e-08
9.3384381e-08
9.348618e-08
9.3594285e-08
9.3708529e-08
9.3829037e-08
9.3954941e-08
9.4086134e-08
9.4222001e-08
9.4361222e-08
9.4502269e-08
9.4643704e-08
9.4783356e-08
9.4918704e-08
9.5047678e-08
9.5168139e-08
9.5277599e-08
9.5373748e-08
9.5454393e-08
9.5517729e-08
9.5562682e-08
9.5588319e-08
9.5593936e-08
9.5580342e-08
9.5548586e-08
9.5499749e-08
9.5435626e-08
9.5358317e-08
9.5270036e-08
9.5173187e-08
9.5069745e-08
9.4961873e-08
9.4851894e-08
9.4741808e-08
9.4632914e-08
9.4526645e-08
9.4424198e-08
9.4326096e-08
9.4232596e-08
9.4144386e-08
9.4061312e-08
9.3983543e-08
9.3910817e-08
9.3842931e-08
9.3779614e-08
9.3720569e-08
9.3100488e-08
9.3185028e-08
9.3275279e-08
9.3370729e-08
9.3472627e-08
9.3581055e-08
9.3696248e-08
9.3818008e-08
9.3946444e-08
9.4080625e-08
9.4220392e-08
9.4365054e-08
9.4513191e-08
9.4663164e-08
9.4813406e-08
9.4961607e-08
9.5105091e-08
9.5241636e-08
9.5368954e-08
9.5484412e-08
9.5585566e-08
9.5670108e-08
9.5736141e-08
9.5782521e-08
9.5808267e-08
9.5812654e-08
9.5796512e-08
9.5760937e-08
9.5707069e-08
9.5636786e-08
9.55523e-08
9.5455954e-08
9.5350301e-08
9.5237456e-08
9.511973e-08
9.4999598e-08
9.4879201e-08
9.4759946e-08
9.4643378e-08
9.4530806e-08
9.4422817e-08
9.4319705e-08
9.422226e-08
9.4130319e-08
9.4044118e-08
9.3963379e-08
9.3887936e-08
9.3817452e-08
9.3751909e-08
9.3177542e-08
9.3267112e-08
9.3362977e-08
9.3464469e-08
9.3572913e-08
9.3688367e-08
9.3811069e-08
9.3940787e-08
9.4077607e-08
9.4220539e-08
9.4369361e-08
9.45233e-08
9.4680833e-08
9.48402e-08
9.4999701e-08
9.5156877e-08
9.5308897e-08
9.5453379e-08
9.5587882e-08
9.5709625e-08
9.5816033e-08
9.590468e-08
9.5973581e-08
9.6021521e-08
9.6047477e-08
9.6050704e-08
9.6032056e-08
9.5992673e-08
9.5933756e-08
9.5857266e-08
9.5765529e-08
9.5661023e-08
9.5546455e-08
9.5424091e-08
9.5296391e-08
9.5165982e-08
9.5035152e-08
9.4905415e-08
9.4778435e-08
9.4655629e-08
9.4537654e-08
9.442485e-08
9.4318103e-08
9.4217249e-08
9.4122588e-08
9.4033832e-08
9.3950848e-08
9.3873238e-08
9.380125e-08
9.3266115e-08
9.3361026e-08
9.3462856e-08
9.3570767e-08
9.3686159e-08
9.3809069e-08
9.3939729e-08
9.4077877e-08
9.422357e-08
9.4375753e-08
9.4534138e-08
9.469786e-08
9.486529e-08
9.5034537e-08
9.5203761e-08
9.537035e-08
9.5531308e-08
9.5684092e-08
9.5826102e-08
9.5954409e-08
9.6066304e-08
9.6159252e-08
9.6231175e-08
9.6280794e-08
9.6307041e-08
9.6309163e-08
9.6288031e-08
9.6244832e-08
9.6180824e-08
9.6098054e-08
9.5998963e-08
9.5886172e-08
9.5762545e-08
9.5630505e-08
9.5492665e-08
9.5351808e-08
9.5210362e-08
9.5069962e-08
9.4932387e-08
9.4799164e-08
9.467103e-08
9.4548376e-08
9.4432179e-08
9.4322285e-08
9.4219053e-08
9.4122189e-08
9.4031594e-08
9.3946808e-08
9.3868342e-08
9.3367241e-08
9.3467831e-08
9.3576006e-08
9.3690745e-08
9.381352e-08
9.3944345e-08
9.4083448e-08
9.4230528e-08
9.4385613e-08
9.4547578e-08
9.471606e-08
9.4890099e-08
9.5067947e-08
9.5247578e-08
9.5427003e-08
9.5603447e-08
9.5773749e-08
9.5935195e-08
9.6085024e-08
9.6220162e-08
9.6337766e-08
9.6435192e-08
9.6510276e-08
9.6561675e-08
9.6588282e-08
9.6589337e-08
9.656573e-08
9.6518692e-08
9.6449536e-08
9.6360396e-08
9.6253829e-08
9.6132606e-08
9.5999752e-08
9.585785e-08
9.5709671e-08
9.5558149e-08
9.5405857e-08
9.5254553e-08
9.5106139e-08
9.4962253e-08
9.4823717e-08
9.4690985e-08
9.456512e-08
9.444599e-08
9.4334008e-08
9.4228884e-08
9.4130549e-08
9.4038483e-08
9.3953463e-08
9.3482197e-08
9.3588832e-08
9.3703767e-08
9.3825775e-08
9.3956402e-08
9.4095639e-08
9.4243702e-08
9.4400254e-08
9.4565284e-08
9.4737595e-08
9.4916738e-08
9.510165e-08
9.5290458e-08
9.5480993e-08
9.5671105e-08
9.5857853e-08
9.6037901e-08
9.6208362e-08
9.6366313e-08
9.6508531e-08
9.6632047e-08
9.673411e-08
9.6812476e-08
9.686574e-08
9.6892762e-08
9.6892777e-08
9.6866695e-08
9.6815785e-08
9.6741417e-08
9.6645806e-08
9.6531634e-08
9.6401821e-08
9.6259558e-08
9.610759e-08
9.5948844e-08
9.5786406e-08
9.5622995e-08
9.5460498e-08
9.5300943e-08
9.5146086e-08
9.499684e-08
9.4853731e-08
9.4717911e-08
9.4589273e-08
9.4468287e-08
9.4354667e-08
9.424838e-08
9.4148841e-08
9.4057101e-08
9.3612529e-08
9.3725609e-08
9.3847757e-08
9.3977513e-08
9.4116503e-08
9.4264687e-08
9.4422271e-08
9.4588873e-08
9.4764438e-08
9.4947689e-08
9.5138088e-08
9.5334454e-08
9.5534784e-08
9.5736754e-08
9.5938046e-08
9.6135545e-08
9.6325735e-08
9.6505552e-08
9.6671908e-08
9.6821435e-08
9.6951042e-08
9.705788e-08
9.7139627e-08
9.7194824e-08
9.7222302e-08
9.7221296e-08
9.7192733e-08
9.7137919e-08
9.7058272e-08
9.6956091e-08
9.6834183e-08
9.6695624e-08
9.6543769e-08
9.638152e-08
9.6211961e-08
9.6038328e-08
9.5863487e-08
9.568946e-08
9.5518411e-08
9.5352215e-08
9.5191891e-08
9.5038044e-08
9.4891916e-08
9.4753438e-08
9.4623138e-08
9.4500739e-08
9.4386246e-08
9.4279005e-08
9.418036e-08
9.3760094e-08
9.3880058e-08
9.4009915e-08
9.4147943e-08
9.4295852e-08
9.4453566e-08
9.4621276e-08
9.4798549e-08
9.498528e-08
9.5180106e-08
9.5382383e-08
9.5590811e-08
9.580324e-08
9.6017183e-08
9.6230149e-08
9.6438838e-08
9.6639551e-08
9.6829044e-08
9.7004062e-08
9.7161098e-08
9.7296946e-08
9.7408666e-08
9.7493871e-08
9.755105e-08
9.7579012e-08
9.7576997e-08
9.7545947e-08
9.74872e-08
9.7402216e-08
9.7293376e-08
9.7163617e-08
9.7016168e-08
9.6854544e-08
9.6681803e-08
9.6501175e-08
9.6316046e-08
9.612943e-08
9.5943495e-08
9.5760545e-08
9.5582589e-08
9.5410755e-08
9.5245744e-08
9.5088888e-08
9.4940163e-08
9.4800156e-08
9.4668605e-08
9.4545553e-08
9.4430278e-08
9.4324431e-08
9.3927107e-08
9.4054439e-08
9.4192554e-08
9.4339433e-08
9.449687e-08
9.4664751e-08
9.4843243e-08
9.503186e-08
9.5230434e-08
9.5437506e-08
9.5652319e-08
9.5873436e-08
9.6098554e-08
9.6325014e-08
9.6550138e-08
9.6770438e-08
9.698203e-08
9.7181485e-08
9.7365387e-08
9.7530095e-08
9.7672294e-08
9.7788969e-08
9.7877676e-08
9.7936864e-08
9.7965325e-08
9.7962309e-08
9.7928772e-08
9.7866074e-08
9.7775712e-08
9.7660148e-08
9.7522447e-08
9.7365993e-08
9.7194447e-08
9.7011012e-08
9.6819058e-08
9.6622117e-08
9.6423353e-08
9.6225092e-08