/*--------------------------------*- C++ -*----------------------------------*\
| =========                 |                                                 |
| \\      /  F ield         | OpenFOAM: The Open Source CFD Toolbox           |
|  \\    /   O peration     | Version:  v2006                                 |
|   \\  /    A nd           | Website:  www.openfoam.com                      |
|    \\/     M anipulation  |                                                 |
\*---------------------------------------------------------------------------*/
FoamFile
{
    version     2.0;
    format      ascii;
    class       volScalarField;
    location    "3000";
    object      omega;
}
// * * * * * * * * * * * * * * * * * * * * * * * * * * * * * * * * * * * * * //

dimensions      [0 0 -1 0 0 0 0];


internalField   nonuniform List<scalar> 
19765
(
15.852613
16.162085
16.975867
17.197662
17.553683
17.608112
18.161647
18.159771
18.651884
19.293767
19.325219
18.870867
18.732293
18.570215
18.087677
18.050705
18.339057
18.263769
17.823249
17.514056
17.395705
17.426812
17.339486
17.396956
17.502206
17.604417
17.765653
18.081326
18.24656
18.613436
19.185488
19.914719
20.192815
20.175235
20.541423
21.337441
21.679467
22.008033
22.833718
23.091559
22.682888
22.490388
22.807713
22.238989
22.470076
22.027609
21.953285
21.879714
21.920666
2.884163
2.7981984
2.7544624
2.808785
2.8362395
2.8628191
2.8717123
2.9125634
2.9248666
2.9808287
3.0333436
3.0487564
3.0465546
3.04298
3.0156131
2.9874937
2.989032
2.9898295
2.973701
2.9514829
2.9385254
2.9481198
2.9594856
2.9671295
2.9980381
3.0664861
3.1366304
3.2036259
3.2955327
3.3970696
3.4963425
3.5880731
3.6596737
3.7670653
3.9118864
4.0405335
4.1338145
4.2563555
4.3572983
4.403698
4.4784028
4.616141
4.6759958
4.8700483
4.9812042
5.3388916
5.7775427
6.2787313
6.6654824
1.0360339
1.0396449
1.0496813
1.0830079
1.1033785
1.1220357
1.1325236
1.1523153
1.1600194
1.1812928
1.2016413
1.2102419
1.2118143
1.2143329
1.2108042
1.2041428
1.2042979
1.2068284
1.2056014
1.2028359
1.2055353
1.2155167
1.2243651
1.2305575
1.2434832
1.2704243
1.3012828
1.3323902
1.3724068
1.4172004
1.4625457
1.5066417
1.543588
1.5901985
1.6492182
1.7054978
1.749177
1.8000748
1.8449505
1.869477
1.8946872
1.9430736
1.966703
2.0033155
2.0267832
2.0693259
2.1239282
2.1915417
2.2582857
0.595865
0.59652077
0.60183114
0.61572595
0.62653967
0.63767599
0.64611883
0.65739587
0.66404667
0.67490668
0.68562828
0.69239003
0.69656063
0.70121711
0.70363351
0.70396408
0.70669005
0.71148021
0.71465066
0.71652298
0.7214103
0.72861557
0.73434941
0.73986178
0.74904002
0.76420386
0.78091783
0.7975655
0.81754693
0.83941652
0.86155708
0.88342514
0.90277231
0.92570249
0.95365629
0.98105905
1.0035539
1.028567
1.0516966
1.0672091
1.0828379
1.1092599
1.1277652
1.157379
1.1822803
1.2104525
1.234917
1.2554532
1.2725485
0.45658544
0.45787205
0.46064618
0.46689094
0.471486
0.47599051
0.47934161
0.48396101
0.48671971
0.49132667
0.49591341
0.49887019
0.5007885
0.50294812
0.50426353
0.50489352
0.50676312
0.50970848
0.51227347
0.51457757
0.51751698
0.52104121
0.52473304
0.52922543
0.53562046
0.54458814
0.55419264
0.56401088
0.57554994
0.58805483
0.60079631
0.61347558
0.62513237
0.6383372
0.65356161
0.66835751
0.68091885
0.69424388
0.70651226
0.71543729
0.72412115
0.73664471
0.74552327
0.75836431
0.76918841
0.78251192
0.79652759
0.80828437
0.81571207
0.3749757
0.37561315
0.3772585
0.38088385
0.3837525
0.38661281
0.38885425
0.39171173
0.39356386
0.39632216
0.39903974
0.40092752
0.40230284
0.40381424
0.40493455
0.40577562
0.40729809
0.40938915
0.4113251
0.41324093
0.41564498
0.4184786
0.42165854
0.42535101
0.43000923
0.43608605
0.44261856
0.44940643
0.45725557
0.46575373
0.47449746
0.48332205
0.49169123
0.50097405
0.51145039
0.52180324
0.53099438
0.5406106
0.54971606
0.55705768
0.56425363
0.57366385
0.58126939
0.59123037
0.6004083
0.61137338
0.6231951
0.63588315
0.6469399
0.3319097
0.33202178
0.33267518
0.33445527
0.33586012
0.33730261
0.33845737
0.33998564
0.34101802
0.34256641
0.34412873
0.34528501
0.34620376
0.34722907
0.348086
0.34884134
0.35001825
0.35156372
0.35309162
0.35466557
0.35646699
0.35844568
0.36074848
0.36348082
0.36682885
0.37101454
0.3755133
0.380244
0.38564286
0.39147117
0.39751562
0.40367802
0.40966594
0.41621868
0.42346968
0.43068044
0.43729521
0.44417172
0.45078536
0.45644357
0.46204751
0.46882914
0.47460604
0.48160226
0.48810508
0.49545938
0.5031081
0.51107164
0.51825763
0.30463153
0.30473462
0.30515813
0.3062592
0.30713533
0.30803403
0.30876362
0.30971307
0.31037951
0.31135163
0.31234066
0.31311323
0.31377012
0.31450785
0.31517436
0.31581495
0.3167276
0.31788251
0.31906911
0.32033672
0.3217877
0.32338531
0.32522656
0.32737554
0.32992918
0.33302015
0.33634171
0.3398547
0.34382766
0.34811901
0.35259993
0.35720991
0.36176736
0.3667196
0.37215724
0.37763238
0.38278953
0.38814965
0.39339677
0.39808775
0.40276107
0.40823114
0.41311628
0.41885181
0.4243627
0.43054393
0.43707739
0.44401749
0.4505956
0.28710243
0.28715159
0.28739951
0.28807844
0.28862701
0.28919845
0.28967645
0.29029816
0.29075997
0.29141767
0.29209886
0.29266602
0.29318104
0.29376176
0.29431899
0.29488182
0.29562905
0.29654394
0.29750286
0.29853665
0.29969975
0.30096261
0.3023958
0.30405614
0.30599978
0.30830065
0.31077293
0.31339958
0.31634706
0.31952736
0.3228635
0.32631728
0.32977705
0.333517
0.33759073
0.34171625
0.34567297
0.34977908
0.3538339
0.35755471
0.36127829
0.36549542
0.3693488
0.37371632
0.37792751
0.38252481
0.38729768
0.39226509
0.39694089
0.2752271
0.27531426
0.27552135
0.27600595
0.27640558
0.27682135
0.27718011
0.27763374
0.27799225
0.2784805
0.27899143
0.27944235
0.27987315
0.28035721
0.28084083
0.28134371
0.28197617
0.28272813
0.28352509
0.28438765
0.28534991
0.28639153
0.28755419
0.28888124
0.29041061
0.29218563
0.29408941
0.29611527
0.29837355
0.30080926
0.30337449
0.30604562
0.30875005
0.31166672
0.3148338
0.31806684
0.32121609
0.32448945
0.32775497
0.33081798
0.33389532
0.33732842
0.34053371
0.34411287
0.34761267
0.3514133
0.35538049
0.35955064
0.3635504
0.26694942
0.26706408
0.26725454
0.26763085
0.26795267
0.26828796
0.26858954
0.26895737
0.26926905
0.26967072
0.27009443
0.27048873
0.27087969
0.2713143
0.27175893
0.27222648
0.27278667
0.27343323
0.27411926
0.27485754
0.27566932
0.27653997
0.27749413
0.2785647
0.27977999
0.28116536
0.28264524
0.28421844
0.2859593
0.28783318
0.28981074
0.29187756
0.29398636
0.2962554
0.29871057
0.30122821
0.30370731
0.30628467
0.30887057
0.31133008
0.31380757
0.31652807
0.31909765
0.32191622
0.32467691
0.32763127
0.33068503
0.33385913
0.33688987
0.26103448
0.2611884
0.26138846
0.26171412
0.26200336
0.26230365
0.26258408
0.26291226
0.26320786
0.26356798
0.26394886
0.26431811
0.26469297
0.26510393
0.26552951
0.26597781
0.26649314
0.26707125
0.26768177
0.26833221
0.26903577
0.26978216
0.27058523
0.27146834
0.27245349
0.27355595
0.27472581
0.27596468
0.27732468
0.27878488
0.28032783
0.28194518
0.28360538
0.28538927
0.2873163
0.28930242
0.29127699
0.29333382
0.2954111
0.29741206
0.29943407
0.30163797
0.30374395
0.3060354
0.30829524
0.31070429
0.31319748
0.31579871
0.31829924
0.25673209
0.2569195
0.2571355
0.25743868
0.25771818
0.25800775
0.2582869
0.25860228
0.25890032
0.2592465
0.25961254
0.2599777
0.26035321
0.26075895
0.26118073
0.26162308
0.26211389
0.26264995
0.2632108
0.26380013
0.26442558
0.26507928
0.26576835
0.26650915
0.26731883
0.2682063
0.26913843
0.27011816
0.27118321
0.27232201
0.2735245
0.2747856
0.27608405
0.27747618
0.27897719
0.28052979
0.28208493
0.28370762
0.28535449
0.28695553
0.28857767
0.29033264
0.29202166
0.29384238
0.2956402
0.29754083
0.29949644
0.30152361
0.3034644
0.2535546
0.25377486
0.25401221
0.25431086
0.25459462
0.25488809
0.25517768
0.25549613
0.25580745
0.25615614
0.25652405
0.25689787
0.25728462
0.25769705
0.25812553
0.25857179
0.25905274
0.25956557
0.2600959
0.26064453
0.26121523
0.26180125
0.26240542
0.26303911
0.26371532
0.26443894
0.265188
0.26596616
0.26680241
0.26769143
0.26862685
0.26960525
0.27061314
0.27169175
0.27285442
0.27406258
0.27528195
0.27655856
0.27786187
0.27914045
0.28044052
0.2818429
0.28320278
0.28466269
0.28611006
0.28763624
0.28920621
0.29083563
0.29239696
0.25118749
0.25143695
0.25169673
0.25200076
0.25229657
0.25260241
0.25290934
0.25324062
0.25357201
0.25393377
0.25431451
0.25470564
0.25511115
0.25553888
0.25598196
0.25643994
0.25692209
0.25742565
0.25793987
0.25846334
0.25899688
0.2595341
0.26007492
0.26062712
0.26120018
0.26179634
0.26240114
0.26301885
0.2636736
0.26436272
0.26508064
0.26582588
0.26659231
0.2674119
0.26829669
0.2692209
0.2701606
0.27114842
0.27216269
0.27316548
0.27418886
0.27529046
0.27636464
0.27751322
0.27865374
0.27985123
0.28107905
0.28234895
0.28356027
0.24941093
0.24968791
0.24997117
0.25028718
0.25060017
0.25092392
0.25125269
0.25160319
0.25195919
0.25234107
0.25274202
0.25315652
0.2535863
0.25403568
0.25449948
0.25497544
0.25546737
0.25597229
0.2564816
0.25699203
0.25750215
0.25800541
0.25849971
0.25899013
0.25948322
0.25997939
0.26046931
0.2609582
0.26146791
0.26199366
0.26253028
0.26308111
0.26364723
0.26425393
0.26491157
0.26560303
0.26631166
0.26706087
0.2678355
0.26860764
0.26939962
0.27025342
0.27109116
0.27198688
0.27287946
0.27381632
0.27477706
0.27577192
0.27671853
0.24807691
0.24837945
0.2486863
0.24901836
0.24935172
0.24969694
0.25005054
0.2504246
0.25080842
0.25121539
0.25164187
0.25208429
0.25254266
0.25301869
0.25350819
0.25400734
0.25451595
0.2550306
0.25554388
0.25605093
0.25654843
0.25702946
0.25749031
0.25793406
0.25836478
0.25878155
0.25917867
0.25956285
0.25995463
0.26034137
0.260723
0.26111094
0.26151046
0.26194006
0.26240826
0.26290419
0.2634167
0.26396277
0.26453225
0.26510491
0.26569648
0.26633735
0.26697021
0.26764854
0.26832684
0.26903914
0.26976945
0.27052569
0.27124108
0.24707766
0.2474048
0.24773558
0.24808671
0.24844284
0.24881224
0.24919299
0.24959389
0.25000811
0.25044402
0.25090014
0.25137418
0.25186476
0.25237163
0.25289107
0.25341795
0.25394896
0.25448016
0.25500467
0.25551618
0.25600979
0.256478
0.25691582
0.25732476
0.25770678
0.25805994
0.25838131
0.25867957
0.25897293
0.259237
0.25948664
0.25974027
0.26000038
0.26028026
0.26058777
0.26091669
0.26126018
0.26163115
0.26202357
0.26242334
0.26284171
0.26330089
0.26375865
0.26425382
0.26475233
0.26527878
0.26582047
0.26638396
0.26691408
0.24633774
0.24668875
0.24704371
0.2474161
0.24779685
0.24819251
0.24860232
0.24903269
0.24947952
0.24994751
0.25043669
0.25094554
0.25147156
0.25201293
0.25256611
0.25312475
0.25368312
0.25423661
0.25477842
0.25530095
0.25579785
0.25626091
0.25668407
0.25706758
0.25741159
0.25771335
0.25797217
0.25819855
0.25840508
0.25856152
0.2587017
0.25884395
0.25898259
0.25913261
0.25930012
0.25948217
0.25967609
0.25989276
0.2601296
0.2603773
0.26064383
0.26094519
0.26125043
0.26158738
0.26193047
0.26229713
0.2626771
0.26307543
0.26344678
0.24580109
0.24617578
0.24655544
0.24695097
0.24735801
0.24778183
0.24822249
0.24868466
0.2491662
0.24966907
0.25019435
0.25074096
0.25130544
0.25188472
0.25247516
0.25306933
0.25365945
0.25424022
0.25480458
0.25534371
0.25584995
0.25631424
0.25672959
0.2570952
0.25740963
0.25766953
0.25787609
0.25803907
0.25815945
0.25823887
0.25828738
0.25832886
0.2583579
0.25839353
0.25843476
0.25848431
0.2585445
0.2586249
0.25872517
0.25883934
0.25897288
0.25913713
0.2593097
0.25951033
0.2597199
0.25995062
0.26019415
0.26045445
0.26069401
0.24542729
0.24582576
0.24623075
0.24665111
0.24708599
0.24753971
0.24801298
0.24850914
0.24902746
0.24956785
0.25013207
0.25071928
0.25132519
0.25194562
0.25257671
0.25320996
0.25383591
0.25444843
0.25504001
0.25560061
0.25612135
0.25659228
0.25700551
0.25735931
0.25765094
0.25787648
0.25803855
0.2581361
0.25814437
0.25816344
0.25816244
0.25812164
0.25805845
0.25798346
0.25790639
0.25783692
0.25777877
0.25773898
0.25771846
0.25771388
0.25772905
0.25777198
0.25782692
0.2579076
0.25799985
0.25811195
0.25823702
0.258378
0.25850394
0.24518609
0.24560879
0.24603996
0.24648677
0.24695109
0.2474365
0.24794419
0.24847652
0.24903377
0.24961427
0.25022024
0.25085089
0.25150117
0.25216597
0.25284103
0.25351687
0.25418248
0.25483088
0.25545391
0.25604037
0.25658016
0.25706238
0.25747829
0.25782531
0.25809957
0.25829667
0.25841957
0.25847528
0.25847654
0.25841767
0.25831014
0.25816977
0.2580076
0.25783316
0.25765606
0.25748316
0.25731932
0.25717093
0.25704082
0.25692823
0.25683605
0.2567699
0.25671922
0.25669324
0.25668159
0.25668964
0.25671163
0.25674968
0.25677822
0.24505538
0.24550299
0.24596135
0.24643626
0.24693166
0.2474506
0.24799463
0.24856535
0.24916378
0.24978703
0.25043757
0.25111455
0.25181224
0.25252464
0.25324702
0.25396891
0.2546779
0.25536609
0.25602454
0.25664086
0.25720376
0.25770139
0.25812409
0.25846851
0.25872983
0.25890315
0.25899229
0.25900365
0.2589416
0.25881766
0.25864336
0.25842903
0.25818569
0.25792297
0.25765139
0.25738034
0.25711689
0.25686725
0.25663568
0.25642337
0.25623255
0.25606705
0.25592025
0.25579807
0.25569299
0.25560819
0.2555388
0.25548615
0.25542925
0.24501872
0.24549217
0.24597895
0.24648365
0.24701189
0.24756631
0.24814872
0.24876016
0.24940218
0.2500709
0.25076893
0.25149524
0.25224347
0.25300679
0.25377989
0.25455134
0.25530739
0.25603915
0.2567368
0.25738673
0.25797649
0.25849318
0.25892629
0.25927164
0.25952364
0.2596769
0.2597358
0.25970703
0.25959667
0.25941472
0.25917312
0.25888411
0.25856056
0.25821257
0.25785141
0.25748816
0.25713139
0.25678721
0.25646108
0.25615585
0.25587336
0.25561618
0.25538084
0.25517073
0.25498063
0.25481201
0.25466074
0.25452748
0.25439508
0.24506425
0.24556466
0.24608124
0.24661753
0.2471805
0.24777246
0.24839547
0.24905009
0.24973827
0.25045532
0.25120387
0.25198267
0.25278472
0.25360238
0.25442972
0.25525429
0.25606108
0.25684016
0.25758067
0.25826782
0.25888793
0.25942705
0.25987374
0.26022308
0.26046874
0.26060488
0.26063639
0.26057027
0.26041244
0.26017413
0.25986853
0.25950883
0.2591091
0.2586799
0.25823334
0.25778211
0.25733628
0.2569021
0.25648619
0.25609284
0.25572373
0.25538055
0.25506232
0.25477053
0.25450174
0.25425617
0.25403023
0.25382395
0.25362349
0.2451835
0.24571218
0.24626013
0.24682993
0.24742967
0.2480614
0.24872738
0.24942781
0.25016491
0.2509333
0.25173558
0.25257019
0.2534295
0.25430509
0.2551903
0.25607168
0.25693296
0.25776308
0.25855011
0.25927797
0.25993177
0.26049644
0.26095961
0.26131559
0.26155739
0.26167875
0.26168498
0.26158341
0.26138032
0.26108783
0.2607201
0.26029145
0.25981726
0.25930881
0.25877916
0.25824253
0.25771037
0.25718927
0.2566869
0.25620882
0.25575673
0.25533168
0.25493473
0.25456596
0.25422331
0.25390604
0.253611
0.25333767
0.25307505
0.24537076
0.24592922
0.24651027
0.24711563
0.24775433
0.24842824
0.24913976
0.2498888
0.25067777
0.25150072
0.25236011
0.25325405
0.25417427
0.25511154
0.25605844
0.25700047
0.25792007
0.25880503
0.25964221
0.26041425
0.26110496
0.26169815
0.26218048
0.26254544
0.26278547
0.26289389
0.26287638
0.26274066
0.26249341
0.26214767
0.26171872
0.26122202
0.26067427
0.26008761
0.25947615
0.25885555
0.2582386
0.25763239
0.25704558
0.25648489
0.25595214
0.25544803
0.25497522
0.25453275
0.25411968
0.25373452
0.25337447
0.25303849
0.25271805
0.24562255
0.24621246
0.24682855
0.24747167
0.24815171
0.24887036
0.24963019
0.25043086
0.25127489
0.25215581
0.25307591
0.25403292
0.2550179
0.25602082
0.25703342
0.25804009
0.259022
0.25996567
0.26085671
0.26167639
0.26240721
0.26303178
0.26353576
0.26391183
0.26415184
0.26424875
0.26420857
0.26403945
0.26374856
0.2633499
0.26285989
0.2622952
0.26167387
0.26100904
0.26031598
0.25961174
0.25891045
0.2582198
0.25754944
0.25690715
0.25629498
0.25571342
0.25516651
0.25465247
0.25417128
0.25372086
0.2532987
0.25290326
0.25252819
0.24593727
0.24656047
0.2472137
0.24789696
0.24862089
0.24938708
0.25019821
0.25105373
0.25195623
0.25289878
0.25388344
0.25490749
0.25596134
0.25703411
0.25811662
0.25919214
0.2602405
0.26124689
0.26219558
0.26306641
0.26384052
0.26449927
0.26502727
0.26541639
0.2656579
0.2657444
0.26568224
0.26548
0.26514544
0.26469357
0.26414199
0.26350862
0.26281291
0.26206914
0.26129377
0.26050532
0.25971918
0.2589438
0.25818979
0.25746593
0.2567746
0.25611622
0.25549595
0.25491147
0.25436346
0.25384938
0.25336696
0.25291418
0.25248665
0.24631489
0.24697342
0.24766608
0.24839204
0.24916264
0.24997937
0.25084502
0.25175886
0.25272351
0.25373161
0.25478492
0.25588028
0.25700737
0.25815443
0.25931133
0.26046013
0.26157927
0.26265254
0.2636628
0.26458837
0.26540897
0.26610468
0.26665901
0.26706298
0.26730728
0.26738422
0.26730042
0.26706495
0.26668623
0.26618033
0.26556606
0.2648627
0.26409113
0.26326688
0.26240773
0.26153362
0.26066129
0.25980001
0.25896137
0.25815512
0.25738401
0.25664853
0.25595481
0.2553001
0.25468568
0.25410866
0.25356696
0.25305806
0.25257939
0.24675686
0.24745293
0.24818753
0.24895895
0.24977922
0.25064971
0.25157337
0.25254927
0.25358004
0.25465788
0.25578424
0.25695545
0.25816046
0.25938655
0.26062258
0.26184933
0.26304381
0.26418832
0.26526419
0.2662482
0.26711857
0.26785402
0.26843694
0.26885745
0.26910569
0.26917366
0.26906829
0.26879913
0.26837537
0.26781415
0.26713557
0.2663603
0.26551076
0.26460383
0.26365868
0.26269675
0.26173612
0.26078699
0.25986194
0.25897167
0.2581194
0.25730575
0.25653768
0.25581217
0.255131
0.25449098
0.25389018
0.25332561
0.25279636
0.24726596
0.24800199
0.24878124
0.24960111
0.25047428
0.25140205
0.25238747
0.25342946
0.25453061
0.25568271
0.25688685
0.25813878
0.25942669
0.26073688
0.26205707
0.26336674
0.26464136
0.26586168
0.2670074
0.26805367
0.26897715
0.26975516
0.2703689
0.27080758
0.27106078
0.2711202
0.27099306
0.27068947
0.27021941
0.26960116
0.26885617
0.26800657
0.26707637
0.26608394
0.26504993
0.26399732
0.26294557
0.26190591
0.26089196
0.25991534
0.25897978
0.25808614
0.25724213
0.25644453
0.25569555
0.25499175
0.25433134
0.25371085
0.25313096
0.24784627
0.24862488
0.24945175
0.25032331
0.25125289
0.25224173
0.25329299
0.25440541
0.25558156
0.25681278
0.25809976
0.25943766
0.26081381
0.26221349
0.26362323
0.26502108
0.26638093
0.26768185
0.26890185
0.27001436
0.2709944
0.27181783
0.27246463
0.27292307
0.27318212
0.27323325
0.27308396
0.27274492
0.27222698
0.27154961
0.27073566
0.26980882
0.26879476
0.26771342
0.26658707
0.26544026
0.26429394
0.26316041
0.26205437
0.2609884
0.25996678
0.25899067
0.25806846
0.25719681
0.25637832
0.25560935
0.2548882
0.25421092
0.25357973
0.24850322
0.24932726
0.25020498
0.25113174
0.25212153
0.25317555
0.25429705
0.25548462
0.25674074
0.25805633
0.25943162
0.26086112
0.26233126
0.26382621
0.26533123
0.26682287
0.26827333
0.26965992
0.27095885
0.27214174
0.27318192
0.27405371
0.27473583
0.27521556
0.27548128
0.27552424
0.27535221
0.27497646
0.27440878
0.27366985
0.27278401
0.27177655
0.2706749
0.26950072
0.26827797
0.26703287
0.26578789
0.26455652
0.26335458
0.26219562
0.26108452
0.26002281
0.25901952
0.25807126
0.25718096
0.25634479
0.25556118
0.25482565
0.25414196
0.2492436
0.25011619
0.25104827
0.25203404
0.25308819
0.25421186
0.25540838
0.25667621
0.25801771
0.25942334
0.26089284
0.26242
0.26399031
0.26558674
0.26719317
0.26878456
0.27033135
0.27180895
0.27319169
0.27444929
0.27555331
0.27647649
0.27719621
0.27769877
0.27797191
0.2780067
0.27781117
0.27739725
0.27677768
0.27597444
0.27501337
0.27392149
0.27272807
0.2714566
0.27013284
0.26878478
0.26743647
0.26610269
0.26480043
0.26354422
0.26233962
0.26118858
0.26010073
0.25907269
0.25810769
0.25720177
0.25635343
0.25555767
0.25481981
0.25007573
0.25100026
0.25199055
0.2530395
0.25416251
0.25536068
0.25663745
0.25799108
0.25942382
0.26092564
0.26249573
0.2641271
0.26580423
0.26750879
0.26922321
0.27092074
0.27256991
0.27414419
0.27561587
0.27695271
0.27812442
0.27910208
0.27986173
0.28038863
0.28066989
0.28069642
0.28047649
0.28002273
0.27934888
0.27847827
0.27743829
0.27625777
0.27496794
0.27359423
0.27216434
0.27070811
0.26925124
0.26780989
0.26640228
0.26504397
0.26374126
0.26249653
0.26132005
0.26020847
0.25916533
0.25818651
0.25727063
0.2564121
0.2556179
0.25100962
0.25198981
0.25304251
0.25415918
0.255356
0.25663399
0.25799668
0.25944215
0.2609725
0.26257718
0.26425479
0.26599746
0.26778858
0.26960844
0.27143788
0.27324835
0.27500635
0.27668328
0.2782493
0.27967012
0.28091351
0.28194886
0.28275081
0.28330356
0.28359358
0.28361166
0.2833663
0.28287086
0.28214013
0.28119878
0.28007587
0.27880211
0.2774108
0.27592945
0.27438781
0.27281766
0.27124646
0.26969181
0.26817323
0.26670737
0.2653013
0.26395794
0.26268815
0.26148869
0.26036337
0.25930799
0.25832123
0.25739692
0.25654376
0.25205721
0.25309714
0.25421688
0.25540626
0.25668229
0.2580459
0.25950073
0.26104465
0.26267957
0.26439438
0.266187
0.26804866
0.2699615
0.27190438
0.2738564
0.27578706
0.27766076
0.27944665
0.28111269
0.28262242
0.28394163
0.28503796
0.28588462
0.28646474
0.28676414
0.28677349
0.28650155
0.28596242
0.28517199
0.2841563
0.28294611
0.28157415
0.28007589
0.27848106
0.27682158
0.27513126
0.2734394
0.27176513
0.27012936
0.26854987
0.26703455
0.26558694
0.26421853
0.2629262
0.26171407
0.26057782
0.25951626
0.25852255
0.25760731
0.25323271
0.25433686
0.25552875
0.25679634
0.25815752
0.25961315
0.26116694
0.26281653
0.26456362
0.26639648
0.26831228
0.27030124
0.27234421
0.2744184
0.2765011
0.27855972
0.28055638
0.2824579
0.2842299
0.2858337
0.28723301
0.28839369
0.2892875
0.28989649
0.29020584
0.29020613
0.28990636
0.28932142
0.28846828
0.28737438
0.28607228
0.28459681
0.28298577
0.28127122
0.27948736
0.27767012
0.27585072
0.27404992
0.27229007
0.27059017
0.26895903
0.26740086
0.26592781
0.26453695
0.26323272
0.26201071
0.26086987
0.25980265
0.25882173
0.25455299
0.25572634
0.25699603
0.25834791
0.25980082
0.2613555
0.26301576
0.26477897
0.26664656
0.26860612
0.27065401
0.27277932
0.27496146
0.27717592
0.27939798
0.28159284
0.28372018
0.28574435
0.28762854
0.28933173
0.29081553
0.292044
0.29298743
0.29362678
0.29394662
0.29393745
0.29360851
0.2929755
0.29205648
0.29088032
0.28948141
0.28789684
0.28616686
0.28432599
0.28241077
0.28045936
0.27850495
0.27657003
0.27467849
0.27285065
0.27109631
0.26942046
0.26783596
0.26634012
0.26493773
0.26362432
0.26239898
0.26125338
0.26020256
0.25603811
0.25728621
0.25864
0.26008292
0.26163485
0.26329641
0.26507143
0.26695702
0.26895427
0.27105003
0.27323973
0.27551121
0.27784234
0.28020671
0.28257743
0.28491733
0.28718352
0.28933771
0.29134055
0.29314862
0.2947214
0.29602112
0.29701663
0.29768781
0.29801863
0.29799953
0.29764002
0.29695662
0.29596844
0.29470577
0.29320497
0.29150548
0.28965013
0.28767599
0.28562202
0.28352864
0.2814311
0.27935372
0.27732206
0.27535785
0.27347204
0.27167049
0.26996684
0.26835872
0.26685132
0.26544012
0.2641244
0.26289499
0.26176952
0.25771198
0.259041
0.26048598
0.2620275
0.26368662
0.26546374
0.26736277
0.26938044
0.27151747
0.27375986
0.27610201
0.27853037
0.28102111
0.28354575
0.28607508
0.28856936
0.29098297
0.29327487
0.29540304
0.2973216
0.29898788
0.30036231
0.3014123
0.30211672
0.30245896
0.30242945
0.30203793
0.30130176
0.30024105
0.29888753
0.2972796
0.29545922
0.29347189
0.29135724
0.28915669
0.28691295
0.2846634
0.28243435
0.28025316
0.27814315
0.27611655
0.27418023
0.2723487
0.27062
0.26899973
0.26748338
0.26607043
0.26475079
0.26354504
0.25960307
0.26102002
0.26256417
0.26421283
0.26598829
0.26789076
0.26992413
0.27208471
0.27437277
0.27677333
0.27927961
0.28187654
0.28453838
0.28723442
0.28993295
0.29259147
0.29516148
0.29759903
0.29985934
0.30189403
0.30365829
0.3051108
0.30621759
0.30695657
0.3073106
0.30727014
0.30684518
0.30605386
0.30491725
0.30346851
0.3017482
0.29980093
0.29767487
0.29541221
0.29305676
0.29065356
0.28824225
0.28585129
0.28351008
0.28124371
0.27906588
0.2769846
0.2750154
0.27315678
0.27141486
0.26978512
0.26826735
0.2668504
0.26555824
0.26174549
0.26325834
0.26491077
0.26667625
0.26857848
0.27061735
0.27279672
0.27511238
0.27756403
0.28013558
0.28281888
0.28559715
0.28844256
0.29132195
0.29420089
0.29703398
0.29976966
0.30236096
0.30476026
0.30691666
0.30878323
0.31031698
0.31148272
0.31225742
0.31262355
0.31257158
0.31211178
0.31126303
0.31004723
0.30849898
0.30666117
0.30458111
0.30230956
0.29989111
0.2973719
0.29479934
0.29221554
0.28965133
0.28713843
0.28470393
0.28236322
0.28012561
0.27800775
0.27600869
0.27413512
0.27238255
0.2707511
0.26922846
0.26784254
0.26418033
0.26579821
0.26756938
0.2694628
0.27150371
0.2736916
0.27603022
0.27851475
0.28114413
0.283901
0.28677563
0.28974928
0.29279178
0.29586729
0.29893847
0.30195682
0.30486762
0.30762078
0.31016577
0.3124492
0.31442209
0.31603994
0.31726646
0.31807786
0.31845624
0.31839222
0.31789627
0.31698799
0.31568992
0.31403817
0.31207807
0.30985959
0.30743584
0.30485357
0.30216114
0.29940847
0.2966404
0.2938905
0.29119309
0.28857756
0.28606116
0.28365471
0.28137608
0.27922499
0.27720877
0.27532303
0.27356832
0.27193096
0.27044351
0.2669576
0.26869107
0.27059309
0.27262729
0.2748206
0.27717201
0.27968506
0.28235417
0.28517734
0.28813567
0.2912176
0.2944021
0.29765637
0.30094163
0.30421739
0.30743192
0.31052725
0.31345011
0.3161471
0.31856236
0.32064504
0.32234931
0.32363801
0.32448674
0.3248774
0.32480078
0.32426759
0.32329796
0.32191496
0.32015625
0.31806968
0.31570765
0.31312519
0.31037082
0.30749513
0.3045508
0.30158578
0.29863679
0.29574108
0.29293058
0.29022463
0.28763568
0.28518296
0.28286692
0.28069562
0.27866481
0.27677551
0.27501257
0.27341408
0.27013909
0.27200045
0.27404746
0.27623736
0.278599
0.28113068
0.28383566
0.28670733
0.28974258
0.29292063
0.29622771
0.29964016
0.30312217
0.30663166
0.31012476
0.31354637
0.31683525
0.31993503
0.32278951
0.32534053
0.32753556
0.32932775
0.33067934
0.33156558
0.33196833
0.33187864
0.33130739
0.33027514
0.32880523
0.32693696
0.32472072
0.32221081
0.31946345
0.31652862
0.31345925
0.31031122
0.30713603
0.30397397
0.30086551
0.29784534
0.29493505
0.29214891
0.28950764
0.2870126
0.28467271
0.28248393
0.280448
0.27854798
0.27682868
0.27380277
0.27580641
0.278015
0.28037805
0.28292657
0.28565799
0.28857507
0.29167
0.29493816
0.29835656
0.30190878
0.30556803
0.30929502
0.31304398
0.31676734
0.32040654
0.32389711
0.32717981
0.33019588
0.33288516
0.33519372
0.33707407
0.33848828
0.33941154
0.33982591
0.33972275
0.33911312
0.33801776
0.33646002
0.33448101
0.33213339
0.32947242
0.32655465
0.32343128
0.32015799
0.31679434
0.31339588
0.31000674
0.30667082
0.3034257
0.30029539
0.29729616
0.29445039
0.29176048
0.28923639
0.28687437
0.28467702
0.28262542
0.28077262
0.27804912
0.28021206
0.28260188
0.28515863
0.28791576
0.29086956
0.29402208
0.29736397
0.30088872
0.30457067
0.3083902
0.3123168
0.31630714
0.32031125
0.32427752
0.32814378
0.33184256
0.33531209
0.33849158
0.34131933
0.34374048
0.34570741
0.34718253
0.34814138
0.34856647
0.34844962
0.347802
0.34664423
0.34499939
0.34291055
0.34043199
0.33761855
0.33452614
0.33120732
0.32772105
0.32413111
0.32049731
0.31686773
0.31328976
0.30980401
0.30643714
0.30320768
0.30014
0.29723784
0.29451246
0.29196066
0.28958627
0.28736798
0.28536897
0.28301053
0.28535308
0.28794769
0.29072254
0.29371395
0.29691664
0.30033166
0.30394764
0.30775573
0.31172696
0.3158379
0.32005367
0.32432625
0.32860088
0.33282151
0.33692225
0.3408329
0.3444898
0.34783094
0.35079387
0.35332349
0.35537271
0.35690495
0.3578966
0.35833096
0.35820048
0.35751629
0.35629857
0.35456982
0.35237515
0.34976925
0.3468046
0.34353583
0.34001733
0.33631194
0.33248779
0.32860883
0.32472688
0.32089282
0.31715048
0.31352952
0.31005107
0.30674187
0.30360732
0.30066026
0.2978982
0.2953265
0.2929211
0.29075805
0.2888651
0.29141192
0.29423997
0.29726238
0.30051874
0.30400163
0.30771064
0.31163179
0.31575312
0.3200417
0.32446945
0.32899642
0.33356923
0.33812782
0.34261129
0.34694999
0.35107136
0.35491074
0.35840616
0.36149564
0.36412486
0.36624812
0.36783068
0.3688504
0.36929181
0.36914812
0.36843034
0.36715773
0.3653519
0.36305998
0.36033488
0.35722463
0.35378244
0.3500653
0.34614008
0.3420787
0.33794851
0.33380476
0.32970185
0.32568721
0.32179402
0.3180467
0.31447492
0.31108631
0.30789585
0.30490213
0.30211266
0.29949999
0.29715627
0.29585775
0.29863943
0.30173659
0.30504276
0.3086014
0.31240202
0.31644205
0.32070395
0.3251717
0.32980734
0.33457724
0.33943554
0.34432296
0.34917381
0.35392224
0.35849501
0.36281781
0.36682617
0.37045981
0.37365909
0.37637189
0.37855511
0.3801768
0.38121709
0.38166221
0.38150635
0.38076021
0.3794416
0.37757094
0.37519696
0.37236762
0.36912455
0.36552026
0.36161479
0.35747807
0.35318426
0.348803
0.34439255
0.34001102
0.33571
0.33152691
0.3274902
0.32363308
0.31996586
0.31650607
0.31325358
0.31021863
0.30736965
0.30482024
0.30433564
0.30739114
0.31080292
0.31443847
0.31834576
0.32250985
0.32692485
0.33156823
0.33641841
0.34143096
0.34656544
0.35176923
0.35697684
0.36211716
0.36712002
0.37190943
0.37641046
0.3805603
0.38430256
0.38758241
0.39035204
0.39257243
0.39421567
0.39526498
0.3957089
0.39554281
0.39477685
0.39342681
0.39151159
0.38908056
0.38617236
0.38282132
0.37908057
0.37501228
0.37068686
0.36617826
0.36155695
0.35688389
0.35222119
0.34762527
0.34313875
0.3387951
0.33463196
0.3306634
0.3269104
0.32337464
0.32007055
0.31696026
0.31418561
0.31481314
0.31819385
0.32198042
0.3260046
0.33031953
0.33490359
0.3397456
0.34481582
0.3500848
0.35549973
0.36101178
0.36656081
0.37207536
0.37748017
0.38270266
0.38766646
0.39229824
0.396539
0.40033882
0.40365079
0.40643413
0.40865593
0.41029363
0.41133451
0.41177004
0.411597
0.41082466
0.40946624
0.40753868
0.40509016
0.40214497
0.39873109
0.39490315
0.39072194
0.38625421
0.38157055
0.37674068
0.37182773
0.36689774
0.36201243
0.3572203
0.35256075
0.34807666
0.34378688
0.33971568
0.33586761
0.33226093
0.32884952
0.32581761
0.32810833
0.33188587
0.33613024
0.34062256
0.34542124
0.3504941
0.35582127
0.3613623
0.3670768
0.37290129
0.37877736
0.38463749
0.39040587
0.39600617
0.40136761
0.40641822
0.41109062
0.41533293
0.41910463
0.42237012
0.42509895
0.42726673
0.42885765
0.42986397
0.4302806
0.43010595
0.42934797
0.42801693
0.42612716
0.42372298
0.42080925
0.41741137
0.41358356
0.40937884
0.40485545
0.40007694
0.39511041
0.39001926
0.38487256
0.37973668
0.37466661
0.36970855
0.3649132
0.36030541
0.35591351