/*--------------------------------*- C++ -*----------------------------------*\
| =========                 |                                                 |
| \\      /  F ield         | OpenFOAM: The Open Source CFD Toolbox           |
|  \\    /   O peration     | Version:  v2006                                 |
|   \\  /    A nd           | Website:  www.openfoam.com                      |
|    \\/     M anipulation  |                                                 |
\*---------------------------------------------------------------------------*/
FoamFile
{
    version     2.0;
    format      ascii;
    class       volScalarField;
    location    "3000";
    object      p;
}
// * * * * * * * * * * * * * * * * * * * * * * * * * * * * * * * * * * * * * //

dimensions      [1 -1 -2 0 0 0 0];


internalField   nonuniform List<scalar> 
19765
(
1.0007986
1.0010987
1.0019046
1.0024672
1.0030245
1.0034431
1.003936
1.004222
1.004587
1.0048835
1.0050895
1.0052465
1.0053698
1.0054325
1.0054479
1.0054277
1.0053742
1.0052867
1.0051641
1.0050053
1.0048051
1.0045658
1.0043089
1.0040081
1.0036434
1.0032644
1.0029392
1.0025696
1.0021065
1.0016892
1.0012538
1.0007281
1.0001351
0.99935399
0.9987245
0.99827989
0.99770995
0.99684827
0.9962507
0.99558663
0.9944967
0.99355975
0.99341134
0.99258199
0.9926172
0.99235495
0.99259098
0.99295473
0.99341796
1.0018039
1.0019573
1.0021538
1.0023893
1.0026392
1.0028796
1.0031313
1.0033428
1.003564
1.003783
1.0039682
1.0041218
1.0042632
1.0043623
1.0044179
1.0044559
1.0044675
1.0044391
1.0043798
1.004284
1.0041529
1.0039944
1.0037992
1.0035693
1.0033129
1.0030323
1.0027162
1.0023709
1.0020019
1.0016056
1.0011856
1.0007467
1.0002918
0.99983492
0.99938272
0.99892663
0.99845976
0.99799886
0.99757276
0.99717304
0.99682039
0.99653019
0.99625178
0.99601423
0.9958453
0.9957011
0.99559137
0.99549113
0.99539045
1.0017629
1.0019559
1.0021738
1.0023901
1.0026045
1.0028054
1.0030027
1.0031714
1.0033382
1.0034935
1.0036309
1.0037504
1.003857
1.0039375
1.003989
1.0040213
1.0040327
1.0040143
1.0039648
1.0038831
1.0037688
1.0036243
1.003448
1.0032394
1.0030038
1.0027438
1.002454
1.0021365
1.0017969
1.0014334
1.0010504
1.0006546
1.0002527
0.99985046
0.99944068
0.99902633
0.99862003
0.99822427
0.99783708
0.99747221
0.99713336
0.9968022
0.99648703
0.99619819
0.99593524
0.9957235
0.99553617
0.99537655
0.99522908
1.0019413
1.0020673
1.0021986
1.002338
1.0024807
1.0026226
1.0027653
1.0028955
1.0030264
1.0031537
1.0032675
1.0033678
1.0034583
1.0035283
1.003574
1.0036046
1.0036192
1.0036084
1.0035701
1.003503
1.0034082
1.0032906
1.0031467
1.0029737
1.0027766
1.002559
1.0023162
1.0020484
1.0017617
1.0014558
1.0011345
1.0008042
1.0004694
1.0001359
0.99979756
0.99945749
0.99912758
0.99881187
0.99850416
0.99821807
0.99795804
0.99770451
0.99745346
0.99722837
0.9970056
0.99680046
0.99659111
0.99638588
0.99618571
1.0018578
1.0019716
1.0020877
1.0022024
1.002315
1.0024237
1.0025315
1.0026292
1.0027269
1.0028223
1.0029084
1.0029844
1.0030531
1.0031068
1.0031412
1.0031631
1.0031725
1.0031613
1.0031267
1.0030669
1.002981
1.0028723
1.0027385
1.002577
1.0023928
1.00219
1.0019654
1.0017179
1.0014535
1.0011734
1.0008804
1.0005794
1.0002741
0.99996982
0.9996643
0.99935961
0.99906251
0.99877601
0.99849692
0.99823246
0.99798333
0.9977383
0.99749512
0.99726632
0.99703655
0.99681629
0.99659816
0.99638696
0.99618199
1.0018316
1.0019139
1.0019995
1.0020846
1.0021694
1.0022518
1.0023349
1.0024104
1.0024868
1.0025619
1.0026296
1.0026892
1.0027428
1.0027842
1.0028096
1.0028243
1.0028279
1.0028137
1.0027793
1.0027231
1.0026441
1.0025456
1.0024259
1.002282
1.002118
1.0019372
1.0017372
1.0015176
1.0012834
1.001036
1.000778
1.0005136
1.0002462
0.99998022
0.99971424
0.99945004
0.99919292
0.99894529
0.99870505
0.99847727
0.99826244
0.99805201
0.99784488
0.99764713
0.99744923
0.99725586
0.99706026
0.99686303
0.99666739
1.0017421
1.0018117
1.0018836
1.0019532
1.0020212
1.0020863
1.0021517
1.0022107
1.0022704
1.0023289
1.0023815
1.0024274
1.0024684
1.0024992
1.0025169
1.0025252
1.0025237
1.0025067
1.0024721
1.0024181
1.0023439
1.0022516
1.0021396
1.0020058
1.0018531
1.0016849
1.0014992
1.0012959
1.0010791
1.0008506
1.0006125
1.0003685
1.0001213
0.99987497
0.9996289
0.9993846
0.9991459
0.99891485
0.99868993
0.99847461
0.99826882
0.99806682
0.99786693
0.99767343
0.99747916
0.99728732
0.99709302
0.99689748
0.99670089
1.0016718
1.0017258
1.0017827
1.0018376
1.0018915
1.001943
1.0019948
1.0020414
1.0020886
1.0021347
1.0021758
1.0022111
1.0022419
1.0022642
1.0022751
1.0022776
1.0022712
1.0022511
1.0022154
1.0021625
1.0020916
1.0020045
1.0018997
1.0017757
1.0016346
1.0014792
1.0013083
1.0011217
1.0009233
1.0007146
1.0004975
1.0002755
1.000051
0.99982751
0.99960472
0.99938397
0.99916846
0.99895995
0.99875727
0.99856321
0.99837786
0.99819643
0.9980177
0.99784454
0.99767134
0.99750014
0.99732669
0.99715151
0.99697478
1.0015852
1.0016301
1.0016774
1.0017226
1.0017665
1.0018081
1.0018499
1.001887
1.0019245
1.001961
1.0019931
1.0020199
1.0020429
1.0020582
1.0020636
1.0020614
1.0020511
1.0020285
1.0019918
1.0019398
1.0018716
1.0017883
1.0016889
1.0015721
1.0014395
1.0012937
1.0011335
1.0009592
1.000774
1.0005794
1.0003771
1.0001702
0.99996065
0.99975168
0.99954323
0.99933649
0.99913407
0.99893755
0.998746
0.99856166
0.99838449
0.99821099
0.99803974
0.99787314
0.99770651
0.9975414
0.99737433
0.99720557
0.99703487
1.0015083
1.0015443
1.0015827
1.0016192
1.0016548
1.0016883
1.0017219
1.0017514
1.0017813
1.00181
1.0018347
1.0018547
1.0018711
1.0018806
1.0018813
1.0018751
1.0018613
1.0018363
1.0017987
1.0017471
1.001681
1.0016009
1.0015062
1.0013957
1.0012707
1.0011335
1.0009833
1.0008202
1.0006473
1.0004659
1.0002776
1.0000852
0.99989051
0.99969641
0.999503
0.99931139
0.99912388
0.9989419
0.99876472
0.99859427
0.99843065
0.99827087
0.9981137
0.99796118
0.9978092
0.99765907
0.99750762
0.997355
0.99720104
1.0014289
1.0014586
1.0014906
1.0015207
1.0015499
1.0015771
1.0016044
1.001628
1.0016517
1.0016743
1.0016931
1.0017077
1.0017187
1.0017236
1.0017205
1.001711
1.0016943
1.0016675
1.0016291
1.0015779
1.0015134
1.0014362
1.0013453
1.00124
1.0011214
1.0009914
1.0008493
1.0006956
1.0005327
1.000362
1.0001849
1.000004
0.99982081
0.999638
0.9994557
0.99927499
0.99909783
0.99892556
0.99875757
0.99859552
0.99843954
0.99828724
0.99813741
0.99799194
0.99784718
0.99770432
0.99756057
0.997416
0.99727016
1.0013559
1.00138
1.0014062
1.0014309
1.0014547
1.0014766
1.0014986
1.0015173
1.0015359
1.0015533
1.0015673
1.0015773
1.0015839
1.0015849
1.0015786
1.0015662
1.0015472
1.0015187
1.0014796
1.0014288
1.0013657
1.0012909
1.0012034
1.0011027
1.0009898
1.0008661
1.0007314
1.0005859
1.0004321
1.000271
1.0001042
0.99993377
0.99976135
0.99958928
0.99941777
0.99924787
0.99908137
0.99891954
0.99876186
0.99860986
0.99846374
0.99832144
0.99818186
0.9980468
0.99791289
0.99778127
0.99764938
0.99751728
0.99738461
1.0012848
1.0013046
1.0013263
1.0013466
1.001366
1.0013839
1.0014015
1.0014162
1.0014307
1.0014439
1.0014538
1.0014601
1.0014631
1.0014608
1.0014519
1.0014372
1.0014161
1.0013864
1.0013467
1.0012963
1.0012346
1.0011618
1.0010774
1.0009807
1.0008727
1.0007546
1.0006263
1.0004881
1.0003422
1.0001895
1.0000314
0.99987011
0.99970686
0.99954386
0.99938135
0.99922033
0.99906243
0.99890881
0.99875904
0.99861451
0.99847543
0.9983401
0.99820744
0.99807923
0.99795238
0.99782799
0.99770375
0.99757974
0.99745543
1.0012186
1.0012347
1.0012525
1.001269
1.0012847
1.001299
1.001313
1.0013243
1.0013353
1.0013449
1.0013515
1.0013546
1.0013545
1.0013495
1.0013383
1.0013217
1.001299
1.0012681
1.0012281
1.0011781
1.0011175
1.0010467
1.000965
1.000872
1.0007684
1.0006554
1.0005328
1.0004012
1.0002623
1.0001172
0.9999672
0.99981414
0.99965933
0.99950475
0.99935071
0.99919816
0.99904862
0.9989032
0.99876154
0.99862494
0.99849366
0.99836623
0.99824165
0.99812165
0.99800334
0.99788783
0.99777295
0.99765884
0.997545
1.0011555
1.0011685
1.0011831
1.0011966
1.0012093
1.0012205
1.0012316
1.00124
1.001248
1.0012547
1.0012584
1.0012589
1.0012562
1.001249
1.0012359
1.0012176
1.0011935
1.0011618
1.0011216
1.001072
1.0010126
1.0009436
1.0008643
1.0007746
1.000675
1.0005666
1.0004493
1.0003235
1.0001911
1.0000528
0.99991
0.99976437
0.99961713
0.99947009
0.99932359
0.99917853
0.99903634
0.99889805
0.99876334
0.99863342
0.99850857
0.99838752
0.99826935
0.99815573
0.99804399
0.99793522
0.99782743
0.9977208
0.99761473
1.0010964
1.0011069
1.0011187
1.0011294
1.0011395
1.0011483
1.0011567
1.0011627
1.0011682
1.0011723
1.0011736
1.0011718
1.001167
1.0011577
1.0011431
1.0011234
1.0010983
1.0010659
1.0010255
1.0009764
1.0009181
1.0008508
1.0007739
1.0006872
1.0005913
1.000487
1.0003745
1.0002542
1.0001276
0.99999557
0.99985939
0.99972061
0.99958036
0.99944034
0.99930089
0.99916291
0.99902772
0.99889631
0.99876842
0.99864517
0.9985269
0.99841247
0.99830103
0.99819424
0.99808956
0.99798809
0.99788797
0.9977894
0.99769182
1.0010406
1.0010489
1.0010584
1.0010668
1.0010747
1.0010813
1.0010875
1.0010914
1.0010948
1.0010967
1.001096
1.0010922
1.0010855
1.0010746
1.0010586
1.0010379
1.0010118
1.0009789
1.0009385
1.0008899
1.0008327
1.000767
1.0006923
1.0006084
1.0005159
1.0004156
1.0003075
1.0001921
1.0000709
0.99994467
0.9998146
0.99968212
0.99954832
0.99941477
0.99928183
0.99915035
0.99902159
0.99889647
0.99877477
0.99865754
0.99854511
0.9984365
0.99833092
0.99822995
0.99813125
0.99803587
0.99794211
0.99785019
0.99775951
1.0009882
1.0009946
1.0010021
1.0010086
1.0010145
1.0010192
1.0010235
1.0010256
1.0010271
1.0010271
1.0010246
1.0010192
1.001011
1.0009987
1.0009816
1.0009599
1.0009331
1.0008998
1.0008595
1.0008115
1.0007553
1.0006911
1.0006185
1.0005372
1.0004479
1.0003512
1.0002473
1.0001365
1.0000203
0.99989949
0.99977509
0.99964849
0.99952071
0.99939323
0.9992664
0.99914107
0.99901842
0.99889932
0.99878357
0.9986722
0.99856552
0.99846267
0.99836293
0.99826782
0.99817514
0.99808593
0.99799859
0.99791338
0.99782969
1.0009387
1.0009435
1.0009493
1.0009541
1.0009584
1.0009615
1.0009641
1.0009647
1.0009646
1.000963
1.0009589
1.0009521
1.0009425
1.000929
1.0009109
1.0008885
1.0008611
1.0008277
1.0007875
1.00074
1.0006849
1.0006222
1.0005516
1.0004729
1.0003866
1.0002933
1.0001932
1.0000867
0.99997525
0.99985942
0.99974032
0.99961922
0.99949708
0.9993753
0.99925421
0.99913465
0.99901772
0.99890425
0.99879407
0.99868815
0.99858678
0.99848921
0.99839478
0.99830493
0.99821762
0.99813384
0.99805211
0.99797271
0.997895
1.0008922
1.0008956
1.0008999
1.0009032
1.000906
1.0009077
1.0009089
1.0009081
1.0009066
1.0009036
1.0008982
1.0008901
1.0008794
1.0008649
1.0008461
1.000823
1.0007952
1.0007616
1.0007217
1.0006748
1.0006208
1.0005595
1.0004908
1.0004145
1.000331
1.0002409
1.0001445
1.0000421
0.99993507
0.99982396
0.99970985
0.99959392
0.9994771
0.99936069
0.99924504
0.99913095
0.99901947
0.99891137
0.99880652
0.99870583
0.9986096
0.99851715
0.99842789
0.99834317
0.99826109
0.99818261
0.99810635
0.99803259
0.99796069
1.0008483
1.0008505
1.0008534
1.0008555
1.0008571
1.0008575
1.0008574
1.0008555
1.0008528
1.0008485
1.000842
1.0008329
1.0008211
1.0008058
1.0007863
1.0007628
1.0007347
1.0007011
1.0006614
1.0006152
1.0005622
1.0005024
1.0004355
1.0003614
1.0002807
1.0001937
1.0001007
1.0000022
0.99989929
0.99979265
0.99968324
0.99957221
0.99946042
0.99934909
0.99923859
0.99912969
0.99902337
0.99892036
0.99882056
0.99872481
0.99863341
0.99854575
0.99846128
0.99838129
0.998304
0.99823031
0.99815897
0.99809023
0.99802346
1.0008068
1.000808
1.0008098
1.0008108
1.0008112
1.0008106
1.0008094
1.0008065
1.0008026
1.0007973
1.0007898
1.0007798
1.0007672
1.0007512
1.0007312
1.0007072
1.0006789
1.0006454
1.0006061
1.0005606
1.0005086
1.0004502
1.0003851
1.0003132
1.000235
1.000151
1.0000613
0.99996645
0.9998675
0.99976508
0.99966014
0.99955374
0.99944673
0.99934024
0.99923463
0.99913066
0.99902926
0.99893111
0.99883613
0.99874512
0.99865834
0.99857528
0.99849542
0.99841996
0.99834727
0.99827818
0.99821152
0.99814757
0.99808568
1.0007676
1.0007679
1.0007687
1.0007687
1.0007682
1.0007666
1.0007644
1.0007606
1.0007559
1.0007496
1.0007413
1.0007304
1.0007171
1.0007005
1.0006801
1.0006559
1.0006275
1.0005941
1.0005552
1.0005104
1.0004595
1.0004024
1.0003391
1.0002693
1.0001936
1.0001124
1.0000258
0.99993448
0.99983929
0.9997409
0.99964021
0.99953822
0.99943574
0.99933385
0.99923291
0.99913364
0.99903692
0.9989434
0.99885301
0.99876649
0.9986841
0.99860537
0.99852984
0.99845861
0.99839018
0.99832532
0.99826294
0.99820333
0.99814582
1.0007305
1.00073
1.00073
1.0007291
1.0007277
1.0007254
1.0007223
1.0007177
1.0007121
1.0007051
1.000696
1.0006845
1.0006706
1.0006535
1.0006328
1.0006084
1.00058
1.0005467
1.0005083
1.0004642
1.0004144
1.0003587
1.000297
1.0002294
1.000156
1.0000775
0.99999393
0.99990594
0.99981435
0.99971979
0.99962314
0.99952536
0.9994272
0.9993297
0.99923321
0.99913842
0.99904617
0.99895706
0.99887105
0.99878882
0.99871063
0.99863604
0.99856464
0.99849744
0.99843306
0.99837221
0.99831389
0.99825836
0.99820496
1.0006953
1.0006942
1.0006933
1.0006918
1.0006896
1.0006865
1.0006827
1.0006774
1.0006712
1.0006634
1.0006537
1.0006416
1.0006272
1.0006098
1.0005888
1.0005643
1.0005359
1.000503
1.000465
1.0004217
1.0003729
1.0003186
1.0002586
1.0001929
1.0001219
1.000046
0.99996531
0.9998805
0.99979235
0.99970146
0.99960868
0.9995149
0.99942087
0.99932756
0.99923531
0.9991448
0.99905682
0.99897192
0.99889008
0.99881194
0.99873773
0.99866706
0.99859955
0.99853614
0.99847553
0.99841841
0.99836383
0.99831203
0.99826238
1.0006619
1.0006601
1.0006586
1.0006564
1.0006537
1.0006499
1.0006455
1.0006396
1.0006327
1.0006244
1.0006141
1.0006016
1.0005867
1.000569
1.0005479
1.0005234
1.0004951
1.0004624
1.000425
1.0003826
1.0003348
1.0002819
1.0002235
1.0001597
1.000091
1.0000175
0.99993963
0.99985789
0.99977304
0.99968566
0.99959656
0.99950662
0.99941653
0.99932722
0.99923903
0.99915261
0.99906869
0.99898781
0.99890995
0.99883571
0.99876529
0.99869836
0.99863455
0.99857473
0.99851771
0.9984641
0.99841303
0.99836474
0.99831859
1.0006301
1.0006278
1.0006257
1.000623
1.0006196
1.0006153
1.0006103
1.0006039
1.0005965
1.0005877
1.0005769
1.0005641
1.0005489
1.0005309
1.0005098
1.0004853
1.0004572
1.0004249
1.0003881
1.0003464
1.0002998
1.0002481
1.0001913
1.0001295
1.0000629
0.99999182
0.99991665
0.99983786
0.99975616
0.99967214
0.99958658
0.9995003
0.99941399
0.99932849
0.99924417
0.99916165
0.99908162
0.99900458
0.99893051
0.99885997
0.99879317
0.99872977
0.99866946
0.99861302
0.99855935
0.99850902
0.99846121
0.99841615
0.9983732
1.0005997
1.000597
1.0005945
1.0005912
1.0005874
1.0005826
1.0005771
1.0005703
1.0005624
1.0005532
1.0005421
1.0005289
1.0005135
1.0004954
1.0004742
1.0004498
1.0004219
1.00039
1.0003538
1.000313
1.0002674
1.0002171
1.0001619
1.0001019
1.0000374
0.9999687
0.99989612
0.99982016
0.99974151
0.99966072
0.99957854
0.99949576
0.99941305
0.99933121
0.99925059
0.99917179
0.99909547
0.99902207
0.99895162
0.99888462
0.99882124
0.9987612
0.99870421
0.99865097
0.99860047
0.99855323
0.99850848
0.99846645
0.99842649
1.0005707
1.0005676
1.0005646
1.000561
1.0005567
1.0005516
1.0005457
1.0005385
1.0005302
1.0005206
1.0005092
1.0004958
1.0004802
1.000462
1.0004409
1.0004167
1.0003891
1.0003576
1.0003221
1.0002821
1.0002376
1.0001886
1.000135
1.0000768
1.0000143
0.99994791
0.99987784
0.99980462
0.99972888
0.99965118
0.99957225
0.99949283
0.99941356
0.99933521
0.99925812
0.99918288
0.99911008
0.99904016
0.99897315
0.9989095
0.99884938
0.99879253
0.99873867
0.99868844
0.99864092
0.99859656
0.99855465
0.99851542
0.99847821
1.0005429
1.0005395
1.0005362
1.0005322
1.0005275
1.0005221
1.0005158
1.0005083
1.0004998
1.0004899
1.0004783
1.0004647
1.000449
1.0004308
1.0004097
1.0003857
1.0003585
1.0003275
1.0002926
1.0002536
1.0002102
1.0001625
1.0001104
1.0000539
0.99999346
0.99992926
0.99986162
0.99979103
0.99971811
0.99964338
0.99956756
0.99949135
0.99941537
0.99934035
0.99926663
0.99919477
0.99912533
0.99905873
0.99899498
0.99893452
0.99887749
0.99882365
0.99877276
0.99872538
0.99868066
0.99863901
0.99859978
0.99856315
0.99852851
1.0005162
1.0005126
1.0005089
1.0005046
1.0004997
1.000494
1.0004875
1.0004797
1.0004709
1.0004608
1.000449
1.0004353
1.0004196
1.0004015
1.0003806
1.0003568
1.0003299
1.0002995
1.0002653
1.0002272
1.0001849
1.0001384
1.0000878
1.0000332
0.99997463
0.99991258
0.9998473
0.99977925
0.99970903
0.99963716
0.99956432
0.99949118
0.99941834
0.9993465
0.999276
0.99920735
0.99914111
0.99907765
0.99901701
0.99895956
0.99890546
0.99885448
0.99880638
0.99876168
0.99871958
0.99868047
0.99864372
0.99860951
0.99857723
1.0004905
1.0004867
1.0004828
1.0004783
1.0004731
1.0004672
1.0004604
1.0004525
1.0004436
1.0004333
1.0004214
1.0004077
1.0003919
1.0003739
1.0003532
1.0003297
1.0003033
1.0002734
1.00024
1.0002027
1.0001615
1.0001164
1.0000673
1.0000143
0.99995767
0.99989772
0.99983471
0.99976912
0.99970151
0.99963238
0.99956239
0.99949219
0.99942236
0.99935355
0.9992861
0.99922052
0.99915731
0.99909683
0.99903912
0.99898454
0.9989332
0.99888491
0.99883945
0.99879727
0.99875765
0.99872091
0.99868648
0.99865454
0.99862446
1.0004658
1.0004618
1.0004577
1.000453
1.0004477
1.0004415
1.0004346
1.0004266
1.0004175
1.0004072
1.0003952
1.0003815
1.0003658
1.0003479
1.0003275
1.0003044
1.0002784
1.0002491
1.0002164
1.0001801
1.00014
1.0000961
1.0000485
0.99999721
0.99994245
0.99988453
0.99982374
0.99976052
0.99969541
0.99962893
0.99956167
0.99949428
0.99942731
0.99936138
0.99929684
0.99923416
0.99917382
0.99911616
0.99906123
0.99900934
0.99896062
0.99891486
0.99887188
0.99883206
0.99879475
0.99876023
0.99872796
0.99869811
0.99867006
1.0004419
1.0004377
1.0004335
1.0004287
1.0004233
1.000417
1.00041
1.0004019
1.0003927
1.0003823
1.0003704
1.0003567
1.0003412
1.0003235
1.0003033
1.0002806
1.0002551
1.0002265
1.0001946
1.0001591
1.0001202
1.0000776
1.0000314
0.99998177
0.99992883
0.99987289
0.99981424
0.99975332
0.99969064
0.99962668
0.99956205
0.99949734
0.99943309
0.99936991
0.99930812
0.99924818
0.99919056
0.99913557
0.99908325
0.9990339
0.99898763
0.99894426
0.9989036
0.998866
0.99883086
0.99879841
0.99876816
0.99874025
0.9987141
1.0004187
1.0004145
1.0004102
1.0004053
1.0003998
1.0003935
1.0003864
1.0003783
1.0003691
1.0003587
1.0003468
1.0003333
1.0003179
1.0003004
1.0002806
1.0002583
1.0002333
1.0002054
1.0001742
1.0001398
1.0001019
1.0000606
1.0000159
0.99996786
0.9999167
0.9998627
0.99980613
0.99974743
0.99968708
0.99962556
0.99956343
0.99950128
0.99943963
0.99937905
0.99931987
0.99926253
0.99920746
0.99915497
0.99910511
0.99905814
0.99901417
0.99897303
0.99893454
0.99889901
0.99886588
0.99883535
0.99880696
0.99878085
0.99875643
1.0003963
1.0003921
1.0003878
1.0003828
1.0003772
1.0003709
1.0003638
1.0003557
1.0003465
1.0003362
1.0003244
1.000311
1.0002959
1.0002787
1.0002592
1.0002374
1.000213
1.0001857
1.0001554
1.0001219
1.0000851
1.0000451
1.0000018
0.99995537
0.99990595
0.99985384
0.99979931
0.99974275
0.99968465
0.99962547
0.99956574
0.99950604
0.99944685
0.99938873
0.99933201
0.99927711
0.99922444
0.9991743
0.99912673
0.999082
0.99904017
0.9990011
0.99896464
0.99893103
0.99889978
0.99887104
0.99884439
0.99881995
0.99879715
1.0003746
1.0003704
1.000366
1.0003611
1.0003555
1.0003492
1.0003421
1.000334
1.000325
1.0003148
1.0003031
1.0002899
1.000275
1.0002581
1.0002391
1.0002177
1.0001939
1.0001673
1.0001379
1.0001053
1.0000697
1.0000309
0.99998909
0.99994421
0.99989651
0.99984624
0.99979368
0.99973921
0.99968328
0.99962634
0.99956891
0.99951153
0.99945468
0.99939889
0.99934449
0.99929188
0.99924146
0.9991935
0.99914807
0.9991054
0.99906556
0.99902842
0.99899383
0.998962
0.99893246
0.99890537
0.9988803
0.99885736
0.99883602
1.0003535
1.0003493
1.000345
1.0003401
1.0003346
1.0003283
1.0003213
1.0003133
1.0003044
1.0002943
1.0002828
1.0002698
1.0002552
1.0002387
1.0002201
1.0001993
1.0001761
1.0001502
1.0001216
1.0000901
1.0000556
1.0000181
0.99997761
0.99993428
0.99988827
0.99983981
0.99978917
0.99973672
0.99968289
0.99962811
0.99957288
0.99951771
0.99946309
0.99940949
0.99935726
0.99930679
0.99925845
0.99921252
0.99916907
0.99912831
0.9990903
0.99905493
0.99902206
0.99899187
0.99896393
0.99893836
0.99891477
0.99889326
0.99887329
1.0003331
1.000329
1.0003247
1.0003198
1.0003144
1.0003082
1.0003013
1.0002934
1.0002846
1.0002747
1.0002635
1.0002508
1.0002365
1.0002203
1.0002022
1.0001819
1.0001594
1.0001343
1.0001065
1.000076
1.0000426
1.0000064
0.99996732
0.99992553
0.99988117
0.99983448
0.99978572
0.99973523
0.99968343
0.99963072
0.9995776
0.99952454
0.99947201
0.99942049
0.99937029
0.9993218
0.9992754
0.99923133
0.99918969
0.99915067
0.99911434
0.99908058
0.99904927
0.99902056
0.99899405
0.99896984
0.99894755
0.99892727
0.99890848
1.0003132
1.0003092
1.000305
1.0003002
1.0002949
1.0002888
1.000282
1.0002743
1.0002657
1.000256
1.000245
1.0002326
1.0002187
1.000203
1.0001853
1.0001657
1.0001437
1.0001194
1.0000926
1.000063
1.0000308
0.99999581
0.99995814
0.99991786
0.99987514
0.99983019
0.99978326
0.99973468
0.99968485
0.99963414
0.99958304
0.99953199
0.99948144
0.99943185
0.99938354
0.9993369
0.99929227
0.9992499
0.99920991
0.99917246
0.99913764
0.99910534
0.99907545
0.99904809
0.9990229
0.99899995
0.9989789
0.99895981
0.99894219
1.0002939
1.00029
1.0002859
1.0002813
1.000276
1.0002701
1.0002635
1.000256
1.0002476
1.0002382
1.0002275
1.0002154
1.0002018
1.0001866
1.0001694
1.0001503
1.0001291
1.0001056
1.0000796
1.0000511
1.00002
0.99998629
0.99995001
0.99991123
0.99987012
0.99982688
0.99978175
0.99973503
0.9996871
0.99963833
0.99958916
0.99954003
0.99949135
0.99944358
0.99939702
0.99935206
0.99930904
0.99926822
0.99922969
0.99919365
0.99916017
0.99912915
0.99910049
0.9990743
0.99905023
0.99902833
0.99900828
0.99899013
0.9989734
1.0002752
1.0002715
1.0002675
1.000263
1.0002579
1.0002522
1.0002457
1.0002384
1.0002303
1.0002211
1.0002107
1.000199
1.0001858
1.000171
1.0001544
1.000136
1.0001155
1.0000927
1.0000677
1.0000402
1.0000102
0.99997777
0.99994286
0.99990558
0.99986606
0.99982451
0.99978113
0.99973624
0.99969017
0.99964327
0.99959596
0.99954865
0.99950174
0.99945566
0.99941073
0.99936731
0.99932574
0.99928628
0.99924905
0.99921424
0.99918192
0.99915202
0.99912445
0.9990993
0.99907628
0.99905539
0.99903636
0.99901921
0.99900349
1.0002571
1.0002535
1.0002496
1.0002453
1.0002404
1.0002348
1.0002286
1.0002216
1.0002136
1.0002047
1.0001947
1.0001833
1.0001706
1.0001563
1.0001403
1.0001225
1.0001027
1.0000808
1.0000566
1.0000302
1.0000014
0.99997017
0.99993664
0.99990084
0.9998629
0.99982301
0.99978138
0.99973827
0.99969401
0.99964893
0.99960341
0.99955785
0.99951262
0.99946813
0.99942468
0.99938265
0.99934237
0.9993041
0.99926798
0.99923421
0.99920285
0.99917386
0.99914717
0.99912283
0.99910056
0.99908038
0.99906199
0.99904542
0.99903022
1.0002395
1.0002361
1.0002324
1.0002282
1.0002235
1.0002182
1.0002122
1.0002053
1.0001977
1.0001891
1.0001794
1.0001684
1.0001562
1.0001424
1.000127
1.0001098
1.0000907
1.0000697
1.0000465
1.0000211
0.99999338
0.99996346
0.9999313
0.99989697
0.9998606
0.99982237
0.99978245
0.9997411
0.99969862
0.99965532
0.99961154
0.99956765
0.99952401
0.99948099
0.99943892
0.99939813
0.99935898
0.99932173
0.99928653
0.99925359
0.99922301
0.99919476
0.9991688
0.99914518
0.99912367
0.99910427
0.99908671
0.99907101
0.99905673
1.0002226
1.0002193
1.0002158
1.0002117
1.0002072
1.0002021
1.0001963
1.0001898
1.0001824
1.0001741
1.0001648
1.0001543
1.0001425
1.0001292
1.0001144
1.0000979
1.0000796
1.0000594
1.0000371
1.0000128
0.99998624
0.99995758
0.99992679
0.99989394
0.99985913
0.99982253
0.99978431
0.99974471
0.99970398
0.99966242
0.99962034
0.99957807
0.99953594
0.99949431
0.99945349
0.99941382
0.99937563
0.99933921
0.99930473
0.99927241
0.99924236
0.99921459
0.99918905
0.9991658
0.99914459
0.99912542
0.99910803
0.9990924
0.99907812
1.0002062
1.000203
1.0001997
1.0001959
1.0001915
1.0001866
1.0001811
1.0001749
1.0001678
1.0001599
1.0001509
1.0001408
1.0001294
1.0001167
1.0001025
1.0000867
1.0000692
1.0000498
1.0000285
1.0000052
0.99997988
0.99995249
0.99992306
0.99989168
0.99985843
0.99982347
0.99978694
0.99974907
0.99971008
0.99967024
0.99962983
0.99958913
0.99954847
0.99950816
0.99946849
0.9994298
0.99939242
0.99935665
0.99932268
0.99929075
0.99926103
0.99923355
0.99920831
0.99918541
0.99916466
0.99914606
0.99912939
0.99911463
0.99910137
1.0001903
1.0001874
1.0001842
1.0001806
1.0001765
1.0001718
1.0001665
1.0001605
1.0001538
1.0001462
1.0001376
1.0001279
1.0001171
1.0001049
1.0000914
1.0000763
1.0000595
1.000041
1.0000207
0.99999844
0.99997426
0.99994813
0.99992008
0.99989017
0.99985848
0.99982515
0.99979031
0.99975416
0.99971691
0.99967878
0.99964003
0.99960089
0.99956165
0.9995226
0.99948401
0.99944619
0.99940948
0.99937417
0.99934048
0.99930869
0.99927898
0.99925142
0.99922602
0.99920287
0.99918177
0.99916269
0.9991454
0.99912989
0.99911574
1.0001751
1.0001723
1.0001693
1.0001659
1.000162
1.0001575
1.0001525
1.0001468
1.0001403
1.0001331
1.0001249
1.0001157
1.0001054
1.0000938
1.0000808
1.0000665
1.0000505
1.0000329
1.0000135
0.99999234
0.99996933
0.99994449
0.99991781
0.99988938
0.99985925
0.99982756
0.99979442
0.99976
0.99972449
0.99968808
0.99965098
0.9996134
0.99957556
0.99953774
0.99950018
0.99946315
0.99942697
0.99939194
0.99935833
0.99932644
0.9992965
0.99926866
0.99924305
0.99921979
0.99919883
0.99918018
0.99916368
0.99914926
0.99913659
1.0001605
1.0001578
1.000155
1.0001517
1.000148
1.0001438
1.000139
1.0001336
1.0001275
1.0001206
1.0001128
1.000104
1.0000942
1.0000832
1.0000709
1.0000573
1.0000421
1.0000254
1.000007
0.9999869
0.99996506
0.99994149
0.9999162
0.99988924
0.99986067
0.99983063
0.99979921
0.99976655
0.99973282
0.99969816
0.99966275
0.99962674
0.99959034
0.99955376
0.99951719
0.99948087
0.99944511
0.9994102
0.99937642
0.99934411
0.99931353
0.99928487
0.99925825
0.9992338
0.9992114
0.99919104
0.99917252
0.99915582
0.99914055
1.0001464
1.0001439
1.0001412
1.0001381
1.0001346
1.0001306
1.0001261
1.0001209
1.0001151
1.0001086
1.0001012
1.0000929
1.0000836
1.0000732
1.0000616
1.0000487
1.0000343
1.0000185
1.0000011
0.99998204
0.99996137
0.99993908
0.99991515
0.99988967
0.99986266
0.99983427
0.99980457
0.99977368
0.99974176
0.99970891
0.99967526
0.99964091
0.99960603
0.99957076
0.99953523
0.99949964
0.99946424
0.99942932
0.99939518
0.99936219
0.99933071
0.99930106
0.99927353
0.99924842
0.99922586
0.99920596
0.99918867
0.9991739
0.9991614
1.0001329
1.0001306
1.000128
1.0001251
1.0001217
1.0001179
1.0001136
1.0001087
1.0001033
1.0000971
1.0000901
1.0000823
1.0000736
1.0000638
1.0000528
1.0000406
1.0000271
1.0000121
0.9999957
0.99997774
0.99995826
0.99993726
0.99991473
0.99989076
0.99986534
0.99983862
0.99981063
0.99978151
0.99975139
0.99972033
0.99968847
0.99965583
0.99962255
0.99958868
0.99955429
0.9995195
0.99948452
0.99944957
0.99941493
0.99938097
0.99934806
0.99931652
0.99928664
0.99925869
0.99923271
0.99920877
0.99918674
0.99916667
0.99914819
1.0001201
1.0001178
1.0001154
1.0001125
1.0001093
1.0001057
1.0001016
1.000097
1.0000918
1.0000861
1.0000795
1.0000722
1.000064
1.0000548
1.0000446
1.0000331
1.0000204
1.0000064
0.99999095
0.99997411
0.99995586
0.99993619
0.99991513
0.99989273
0.99986897
0.99984399
0.99981779
0.99979053
0.99976229
0.9997331
0.99970309
0.99967224
0.99964061
0.99960816
0.99957492
0.99954092
0.99950632
0.99947127
0.99943603
0.99940097
0.99936655
0.99933326
0.99930167
0.99927239
0.99924592
0.99922271
0.99920298
0.99918671
0.99917381
1.0001077
1.0001055
1.0001031
1.0001004
1.0000974
1.0000939
1.00009
1.0000857
1.0000808
1.0000754
1.0000693
1.0000625
1.0000549
1.0000464
1.0000368
1.0000262
1.0000143
1.0000012
0.99998671
0.99997093
0.99995383
0.99993542
0.99991569
0.9998947
0.99987249
0.99984926
0.99982496
0.99979975
0.99977369
0.99974675
0.99971893
0.99969028
0.99966071
0.99963009
0.99959837
0.99956548
0.99953144
0.99949631
0.99946024
0.99942351
0.99938651
0.99934969
0.99931354
0.99927853
0.99924494
0.99921305
0.9991829
0.99915483
0.99912854
1.0000961
1.0000939
1.0000915
1.0000888
1.0000858
1.0000824
1.0000787
1.0000746
1.0000701
1.000065
1.0000595
1.0000532
1.0000462
1.0000384
1.0000295
1.0000195
1.0000084
0.99999602
0.99998235
0.99996747
0.99995136
0.99993399
0.99991537
0.99989558
0.99987468
0.9998529
0.99983016
0.9998067
0.99978255
0.99975758
0.99973214
0.99970589
0.99967884
0.99965071
0.99962138
0.9995906
0.99955827
0.99952423
0.99948848
0.99945112
0.99941252
0.99937321
0.99933406
0.99929629
0.99926127
0.99923032
0.9992046
0.9991845
0.99917034
1.0000844
1.0000821
1.0000797
1.000077
1.0000742
1.0000711
1.0000677
1.000064
1.0000599
1.0000554
1.0000503
1.0000446
1.0000381
1.0000308
1.0000225
1.0000132
1.0000029
0.9999914
0.99997877
0.9999651
0.99995035
0.99993453
0.99991768
0.99989986
0.99988093
0.99986086
0.99983957
0.99981765
0.99979473
0.99977044
0.99974699
0.99972228
0.99969684
0.99967017
0.99964249
0.9996132
0.99958227
0.99954915
0.9995138
0.99947592
0.9994357
0.99939312
0.99934844
0.99930176
0.99925352
0.99920403
0.99915419
0.99910445
0.99905719
1.000074
1.0000717
1.0000693
1.0000667
1.0000638
1.0000607
1.0000573
1.0000537
1.0000498
1.0000455
1.0000407
1.0000356
1.0000299
1.0000236
1.0000165
1.0000086
0.99999978
0.99998981
0.9999786
0.99996665
0.99995413
0.99994081
0.99992674
0.99991192
0.99989613
0.99987929
0.99986126
0.9998429
0.99982325
0.99980318
0.99978217
0.99976079
0.99973756
0.99971299
0.99968687
0.99965884
0.99962866
0.99959553
0.99955924
0.99951881
0.99947453
0.99942598
0.99937461
0.99932198
0.999271
0.99922456
0.9991875
0.99915978
0.99914779
1.0000628
1.0000592
1.0000557
1.0000523
1.0000491
1.0000461
1.0000432
1.0000403
1.0000372
1.0000339
1.0000303
1.0000263
1.0000219
1.0000168
1.0000109
1.000004
0.99999574
0.99998575
0.99997428
0.99996242
0.99995008
0.99993667
0.99992219
0.99990676
0.99989075
0.99987483
0.99985872
0.99984313
0.99982705
0.99981669
0.9997963
0.99978255
0.99976461
0.99974847
0.99972902
0.99970939
0.9996863
0.99966152
0.99963236
0.99959967
0.99956086
0.99951569
0.99945902
0.99939269
0.99931274
0.99921664
0.99910461
0.99897558
0.9988448
1.0000507
1.0000481
1.0000457
1.0000443
1.0000431
1.0000418
1.0000401
1.0000381
1.0000357
1.0000327
1.000029
1.0000244
1.0000186
1.0000115