/*--------------------------------*- C++ -*----------------------------------*\
| =========                 |                                                 |
| \\      /  F ield         | OpenFOAM: The Open Source CFD Toolbox           |
|  \\    /   O peration     | Version:  v2006                                 |
|   \\  /    A nd           | Website:  www.openfoam.com                      |
|    \\/     M anipulation  |                                                 |
\*---------------------------------------------------------------------------*/
FoamFile
{
    version     2.0;
    format      ascii;
    class       surfaceScalarField;
    location    "3000";
    object      phi;
}
// * * * * * * * * * * * * * * * * * * * * * * * * * * * * * * * * * * * * * //

dimensions      [1 0 -1 0 0 0 0];
oriented        oriented;


internalField   nonuniform List<scalar> 
39234
(
-0.00063017716
-6.2562946e-06
0.00063643345
-0.00060837892
-2.179824e-05
-0.00055826904
-5.010988e-05
-0.00051443068
-4.383836e-05
-0.00047053481
-4.3895865e-05
-0.00043141277
-3.9122045e-05
-0.00038532059
-4.609218e-05
-0.00034574306
-3.9577528e-05
-0.00029952418
-4.621888e-05
-0.00025265774
-4.6866445e-05
-0.00020986398
-4.2793762e-05
-0.00016860731
-4.1256665e-05
-0.00012649838
-4.2108932e-05
-8.497942e-05
-4.1518958e-05
-4.2747785e-05
-4.2231634e-05
9.1518262e-07
-4.3662967e-05
4.5237023e-05
-4.4321839e-05
9.0885027e-05
-4.5648003e-05
0.00013820151
-4.7316479e-05
0.00018738102
-4.9179511e-05
0.00023752013
-5.0139108e-05
0.0002865218
-4.9001671e-05
0.0003365247
-5.0002896e-05
0.00038762094
-5.1096248e-05
0.00043492832
-4.7307372e-05
0.00047578257
-4.0854251e-05
0.00051625451
-4.0471938e-05
0.00055665925
-4.0404746e-05
0.00059116767
-3.4508416e-05
0.00062352404
-3.235637e-05
0.00065612706
-3.260302e-05
0.000689968
-3.3840943e-05
0.00072670251
-3.67345e-05
0.00075302234
-2.6319832e-05
0.00077082905
-1.7806714e-05
0.0007926347
-2.1805644e-05
0.0008208127
-2.8177999e-05
0.00084089095
-2.0078249e-05
0.00086675452
-2.5863573e-05
0.00090409871
-3.7344187e-05
0.00093137666
-2.7277948e-05
0.0009393739
-7.9972438e-06
0.00096115369
-2.1779791e-05
0.00095674191
4.4117831e-06
0.00095990535
-3.1634365e-06
0.00094300491
1.6900433e-05
0.00092135252
2.1652397e-05
0.0008953892
2.5963317e-05
1.9770889e-05
0.00087561831
-0.00059073646
-2.3164579e-05
0.00060764474
-0.00057118544
-4.134926e-05
-0.00054810931
-7.3186011e-05
-0.00052215454
-6.979313e-05
-0.00049505499
-7.0995412e-05
-0.00046757351
-6.6603529e-05
-0.00043942993
-7.4235751e-05
-0.00041070581
-6.8301657e-05
-0.00038073776
-7.6186921e-05
-0.00034863317
-7.8971039e-05
-0.00031492604
-7.6500897e-05
-0.0002796308
-7.6551904e-05
-0.00024204886
-7.9690873e-05
-0.00020243545
-8.1132367e-05
-0.00016062199
-8.4045086e-05
-0.0001155566
-8.8728361e-05
-6.7130171e-05
-9.2748269e-05
-1.625517e-05
-9.6523004e-05
3.6956869e-05
-0.00010052852
9.2258357e-05
-0.000104481
0.00014946523
-0.00010734598
0.00020829094
-0.00010782738
0.00026759121
-0.00010930317
0.00032667519
-0.00011018023
0.00038539067
-0.00010602285
0.00044326057
-9.872415e-05
0.00049879515
-9.6006515e-05
0.00055143692
-9.3046514e-05
0.00060118171
-8.4253208e-05
0.00064734957
-7.8524236e-05
0.00068961736
-7.4870807e-05
0.0007278625
-7.2086079e-05
0.00076170284
-7.0574843e-05
0.00079208466
-5.6701651e-05
0.00081983116
-4.5553216e-05
0.00084484366
-4.6818143e-05
0.00086697215
-5.0306484e-05
0.00088718965
-4.0295751e-05
0.00090543832
-4.4112243e-05
0.00092093639
-5.2842263e-05
0.00093419718
-4.053873e-05
0.00094736943
-2.1169493e-05
0.00095910976
-3.3520119e-05
0.00097047043
-6.9488886e-06
0.0009807851
-1.3478104e-05
0.00098956442
8.1211052e-06
0.00099694804
1.4268777e-05
0.0010030075
1.9903868e-05
1.4175371e-05
0.001008603
-0.00065524698
-3.8319756e-05
0.00067040215
-0.00063663617
-5.9960067e-05
-0.00061520328
-9.4618896e-05
-0.00059222264
-9.2773776e-05
-0.00056810836
-9.5109695e-05
-0.00054314934
-9.1562543e-05
-0.00051702798
-0.00010035712
-0.00048986482
-9.5464816e-05
-0.00046106804
-0.0001049837
-0.000430025
-0.00011001408
-0.00039671584
-0.00010981006
-0.00036099187
-0.00011227588
-0.00032243795
-0.00011824478
-0.00028106964
-0.00012250069
-0.00023672422
-0.00012839051
-0.00018868253
-0.00013677005
-0.00013669292
-0.00014473788
-8.1282047e-05
-0.00015193387
-2.2673337e-05
-0.00015913723
3.8748432e-05
-0.00016590277
0.00010260384
-0.00017120139
0.00016849004
-0.00017371358
0.0002353017
-0.00017611484
0.00030218416
-0.00017706269
0.0003687496
-0.00017258829
0.00043443339
-0.00016440793
0.00049787809
-0.00015945122
0.00055840528
-0.0001535737
0.00061585214
-0.00014170007
0.00066941495
-0.00013208705
0.00071859803
-0.00012405389
0.00076310285
-0.0001165909
0.00080276503
-0.00011023702
0.00083861706
-9.2553681e-05
0.00087093156
-7.7867718e-05
0.00089926091
-7.5147496e-05
0.00092393191
-7.4977484e-05
0.00094616266
-6.2526498e-05
0.0009654558
-6.3405385e-05
0.00098184305
-6.9229512e-05
0.00099659507
-5.5290748e-05
0.0010100956
-3.4669975e-05
0.0010209322
-4.4356771e-05
0.0010304648
-1.6481516e-05
0.0010378376
-2.0850846e-05
0.0010441063
1.852346e-06
0.0010490786
9.2965362e-06
0.0010534765
1.5505944e-05
1.0381229e-05
0.0010572706
-0.00068202588
-5.1724259e-05
0.00069543038
-0.00066771174
-7.42742e-05
-0.00065229321
-0.00011003743
-0.00063529594
-0.00010977104
-0.00061687494
-0.0001135307
-0.00059694946
-0.00011148803
-0.00057536479
-0.00012194179
-0.00055187912
-0.00011895048
-0.00052618804
-0.00013067478
-0.00049772644
-0.00013847567
-0.00046630989
-0.0001412266
-0.00043169535
-0.00014689042
-0.00039351662
-0.00015642351
-0.00035168759
-0.00016432972
-0.00030601391
-0.00017406418
-0.00025598271
-0.00018680125
-0.00020144877
-0.00019927182
-0.00014281677
-0.00021056587
-8.0342902e-05
-0.0002216111
-1.4464881e-05
-0.00023178079
5.4385339e-05
-0.00024005161
0.00012580123
-0.00024512946
0.00019863573
-0.00024894934
0.00027190885
-0.00025033581
0.00034508294
-0.00024576238
0.00041745596
-0.00023678095
0.0004875636
-0.00022955886
0.00055451916
-0.00022052926
0.00061800362
-0.00020518452
0.00067714364
-0.00019122707
0.00073135555
-0.0001782658
0.00078033253
-0.00016556789
0.00082390418
-0.00015380867
0.00086303516
-0.00013168466
0.00089796598
-0.00011279853
0.00092826594
-0.00010544746
0.00095419509
-0.00010090663
0.00097699358
-8.5324989e-05
0.00099626888
-8.2680679e-05
0.0010121345
-8.5095139e-05
0.0010261264
-6.9282607e-05
0.0010392253
-4.7768902e-05
0.0010502479
-5.5379422e-05
0.0010610406
-2.727422e-05
0.001070587
-3.0397206e-05
0.001080347
-7.9076731e-06
0.0010900508
-4.0721694e-07
0.0011000151
5.5416523e-06
3.5052074e-07
0.0011100458
-0.00072826182
-6.4453251e-05
0.00074099081
-0.00071477411
-8.7761915e-05
-0.00070031126
-0.00012450027
-0.00068465429
-0.00012542802
-0.00066769011
-0.00013049488
-0.00064921625
-0.00012996189
-0.00062895685
-0.00014220119
-0.00060661034
-0.00014129699
-0.00058181885
-0.00015546628
-0.00055401992
-0.0001662746
-0.00052290053
-0.000172346
-0.00048813882
-0.00018165213
-0.00044935328
-0.00019520905
-0.00040632286
-0.00020736015
-0.00035883133
-0.0002215557
-0.00030651204
-0.00023912054
-0.00024919144
-0.00025659242
-0.00018712293
-0.00027263438
-0.00012056785
-0.00028816618
-4.9924195e-05
-0.00030242444
2.4277269e-05
-0.00031425307
0.00010125983
-0.00032211202
0.00017987205
-0.00032756155
0.00025916374
-0.00032962751
0.00033839943
-0.00032499807
0.00041670121
-0.00031508273
0.00049265525
-0.0003055129
0.00056529807
-0.00029317207
0.00063411712
-0.00027400358
0.00069822641
-0.00025533636
0.00075701656
-0.00023705595
0.00081015914
-0.00021871047
0.00085749971
-0.00020114923
0.00089976297
-0.00017394792
0.00093714226
-0.00015017782
0.00096938251
-0.00013768771
0.00099683359
-0.00012835771
0.001020573
-0.00010906442
0.0010404873
-0.00010259495
0.0010569029
-0.00010151074
0.0010711272
-8.3506938e-05
0.0010839753
-6.0616976e-05
0.0010947392
-6.6143303e-05
0.0011049997
-3.7534785e-05
0.0011140837
-3.9481215e-05
0.0011229219
-1.674581e-05
0.0011313113
-8.796663e-06
0.0011394676
-2.6146193e-06
-7.7290625e-06
0.0011475472
-0.00077612308
-7.5384994e-05
0.00078705482
-0.00076449888
-9.9386116e-05
-0.00075177863
-0.00013722053
-0.00073776627
-0.00013944038
-0.00072225648
-0.00014600466
-0.00070500867
-0.0001472097
-0.00068566047
-0.00016154939
-0.00066392914
-0.00016302832
-0.00063937714
-0.00018001828
-0.00061149062
-0.00019416111
-0.00057993969
-0.00020389692
-0.0005443522
-0.00021723962
-0.00050431249
-0.00023524876
-0.00045956401
-0.00025210863
-0.00040986004
-0.00027125967
-0.00035484629
-0.00029413429
-0.00029437438
-0.00031706432
-0.00022868247
-0.00033832629
-0.00015806921
-0.00035877944
-8.3015132e-05
-0.00037747852
-4.0882775e-06
-0.00039317992
7.8019101e-05
-0.0004042194
0.00016216086
-0.00041170331
0.00024726838
-0.00041473503
0.00033243725
-0.00041016694
0.00041666406
-0.00039930953
0.00049851846
-0.00038736731
0.00057694719
-0.0003716008
0.00065130471
-0.0003483611
0.00072068364
-0.00032471529
0.00078444085
-0.00030081315
0.0008422112
-0.00027648082
0.00089381485
-0.00025275288
0.0009398316
-0.00021996467
0.00098046051
-0.00019080673
0.0010155772
-0.00017280435
0.0010455429
-0.00015832342
0.0010713241
-0.00013484566
0.0010929901
-0.00012426098
0.0011109327
-0.00011945329
0.0011262922
-9.8866489e-05
0.0011398908
-7.4215567e-05
0.0011513735
-7.7626021e-05
0.0011620818
-4.8243051e-05
0.0011717167
-4.9116126e-05
0.0011811788
-2.6207895e-05
0.0011905783
-1.8196188e-05
0.0012000585
-1.2094815e-05
-1.7222997e-05
0.0012095525
-0.00083046355
-8.5765918e-05
0.00084084447
-0.00081940187
-0.00011044779
-0.0008072347
-0.00014938769
-0.00079379869
-0.00015287639
-0.0007788142
-0.00016098916
-0.00076199254
-0.00016403135
-0.00074291171
-0.00018063022
-0.00072125445
-0.00018468558
-0.0006965287
-0.00020474403
-0.00066821597
-0.00022247385
-0.0006359383
-0.00023617459
-0.00059927434
-0.00025390359
-0.00055777357
-0.00027674953
-0.00051113377
-0.00029874842
-0.00045907445
-0.000323319
-0.00040125062
-0.00035195812
-0.00033752167
-0.00038079327
-0.00026809629
-0.00040775166
-0.00019327237
-0.00043360336
-0.0001135383
-0.00045721259
-2.9526326e-05
-0.0004771919
5.7992385e-05
-0.00049173811
0.0001478336
-0.00050154453
0.00023884034
-0.00050574177
0.00032999788
-0.00050132449
0.00042019326
-0.0004895049
0.00050796211
-0.00047513616
0.00059218
-0.0004558187
0.00067209012
-0.00042827121
0.00074674516
-0.00039937034
0.00081546858
-0.00036953657
0.00087786365
-0.00033887589
0.00093373663
-0.00030862586
0.00098357583
-0.00026980387
0.0010275602
-0.00023479111
0.001065628
-0.00021087217
0.0010981803
-0.00019087568
0.0011261468
-0.00016281219
0.0011496814
-0.00014779553
0.001169244
-0.00013901592
0.0011859448
-0.00011556725
0.0012005816
-8.8852427e-05
0.0012129382
-8.9982616e-05
0.001224279
-5.9583789e-05
0.0012344056
-5.9242781e-05
0.0012441736
-3.5975861e-05
0.0012536763
-2.769891e-05
0.0012631866
-2.1605125e-05
-2.6840022e-05
0.0012728036
-0.00088795879
-9.5262923e-05
0.00089745579
-0.00087766685
-0.00012073973
-0.00086613683
-0.00016091771
-0.00085321455
-0.00016579867
-0.00083859078
-0.00017561293
-0.00082195729
-0.00018066485
-0.00080285761
-0.0001997299
-0.00078096033
-0.00020658286
-0.0007557302
-0.00022997416
-0.0007266476
-0.00025155644
-0.00069330278
-0.0002695194
-0.00065523392
-0.00029197246
-0.00061195602
-0.00032002743
-0.00056313173
-0.00034757271
-0.00050845144
-0.00037799929
-0.000447567
-0.00041284256
-0.00038034429
-0.00044801598
-0.00030697855
-0.00048111741
-0.00022777595
-0.00051280597
-0.00014324872
-0.00054173982
-5.4077498e-05
-0.00056636312
3.891163e-05
-0.00058472724
0.00013452007
-0.00059715296
0.00023151249
-0.0006027342
0.00032876212
-0.00059857411
0.00042505254
-0.00058579532
0.00051886893
-0.00056895255
0.00060900672
-0.00054595649
0.00069460952
-0.00051387402
0.00077469063
-0.00047945144
0.00084853471
-0.00044338065
0.00091570916
-0.00040605034
0.00097599585
-0.00036891254
0.0010298065
-0.0003236145
0.0010773226
-0.00028230718
0.0011185486
-0.00025209819
0.0011538994
-0.00022622646
0.0011842648
-0.00019317766
0.0012098846
-0.00017341528
0.0012312524
-0.00016038374
0.0012494211
-0.000133736
0.0012651955
-0.00010462674
0.0012784932
-0.00010328033
0.0012905056
-7.1596241e-05
0.00130116
-6.9897187e-05
0.0013112862
-4.610207e-05
0.0013210646
-3.7477235e-05
0.001330811
-3.1351594e-05
-3.6653923e-05
0.0013406249
-0.00094988709
-0.00010435004
0.00095897421
-0.00093992989
-0.00013069693
-0.00092866022
-0.00017218738
-0.00091591207
-0.00017854682
-0.00090134398
-0.00019018101
-0.00088461884
-0.00019738999
-0.00086525181
-0.00021909693
-0.00084288046
-0.00022895421
-0.00081693593
-0.00025591869
-0.00078688225
-0.00028161012
-0.00075227053
-0.00030413113
-0.00071259893
-0.00033164406
-0.00066734878
-0.00036527758
-0.00061614535
-0.00039877614
-0.00055864854
-0.0004354961
-0.00049450354
-0.00047698756
-0.00042357736
-0.00051894216
-0.00034605268
-0.00055864209
-0.00026224199
-0.00059661665
-0.00017267755
-0.00063130426
-7.8078111e-05
-0.00066096256
2.0666354e-05
-0.00068347171
0.00012230512
-0.00069879173
0.0002255271
-0.00070595617
0.00032910664
-0.00070215366
0.00043172779
-0.00068841646
0.00053181839
-0.00066904315
0.00062809728
-0.00064223537
0.00071961487
-0.00060539161
0.00080533725
-0.00056517383
0.00088450862
-0.00052255201
0.00095666222
-0.00047820395
0.0010215603
-0.00043381064
0.0010795583
-0.0003816125
0.0011308298
-0.00033357867
0.001175418
-0.00029668639
0.0012137594
-0.0002645678
0.0012467292
-0.00022614753
0.0012746199
-0.00020130598
0.0012979652
-0.00018372905
0.0013178113
-0.00015358203
0.0013349614
-0.00012177689
0.0013494108
-0.00011772973
0.0013623266
-8.4511992e-05
0.0013736921
-8.1262747e-05
0.001384334
-5.6743919e-05
0.0013944522
-4.7595454e-05
0.0014043735
-4.1272925e-05
-4.6527618e-05
0.0014142472
-0.0010154753
-0.00011300677
0.0010241321
-0.0010058326
-0.0001403397
-0.00099476667
-0.00018325328
-0.00098209404
-0.00019121945
-0.00096745426
-0.00020482079
-0.00095048822
-0.00021435603
-0.00093069023
-0.00023889491
-0.00090766941
-0.00025197503
-0.0008808281
-0.00028276001
-0.00084961089
-0.00031282733
-0.00081353214
-0.00034020988
-0.00077205264
-0.00037312357
-0.00072462014
-0.00041271007
-0.00067082409
-0.0004525722
-0.00061029528
-0.00049602491
-0.00054266846
-0.00054461438
-0.00046780817
-0.00059380245
-0.00038588765
-0.00064056261
-0.00029722802
-0.00068527628
-0.00020238475
-0.00072614752
-0.00010211844
-0.00076122888
2.6225757e-06
-0.00078821272
0.00011053397
-0.00080670312
0.00022022835
-0.00081565055
0.00033038347
-0.00081230879
0.00043958371
-0.0007976167
0.00054619026
-0.0007756497
0.0006488402
-0.00074488532
0.00074649307
-0.00070304447
0.00083806403
-0.00065674479
0.00092275269
-0.00060724067
0.0010000552
-0.00055550644
0.0010697093
-0.00050346481
0.0011320212
-0.0004439244
0.0011871633
-0.00038872077
0.0012352173
-0.00034474031
0.001276634
-0.00030598453
0.0013122771
-0.00026179068
0.0013424939
-0.00023152278
0.0013678479
-0.000209083
0.00138937
-0.00017510415
0.0014078772
-0.00014028412
0.0014234393
-0.00013329183
0.0014372012
-9.8273856e-05
0.0014492101
-9.3271673e-05
0.0014602904
-6.7824219e-05
0.0014706825
-5.7987471e-05
0.0014807397
-5.1330161e-05
-5.6409222e-05
0.0014906213
-0.0010852607
-0.00012143333
0.0010936873
-0.0010757504
-0.00014985004
-0.0010647254
-0.00019427825
-0.0010519746
-0.00020397028
-0.0010371161
-0.0002196793
-0.0010197646
-0.00023170756
-0.00099939432
-0.00025926515
-0.00097557981
-0.00027578954
-0.00094769699
-0.00031064283
-0.00091516476
-0.00034535955
-0.00087745753
-0.00037791711
-0.00083399816
-0.00041658294
-0.00078420051
-0.00046250772
-0.00072761697
-0.00050915573
-0.0006638486
-0.00055979328
-0.00059251787
-0.0006159451
-0.00051348453
-0.0006728358
-0.00042691357
-0.00072713357
-0.00033313568
-0.00077905418
-0.0002327303
-0.0008265529
-0.00012649888
-0.0008674603
-1.5457393e-05
-0.0008992542
9.9034283e-05
-0.0009211948
0.00021551451
-0.00093213078
0.00033255599
-0.00092935027
0.00044864449
-0.0009137052
0.0005620684
-0.00088907361
0.00067138134
-0.00085419825
0.00077545318
-0.00080711631
0.00087314372
-0.00075443533
0.00096360606
-0.00069770301
0.0010462994
-0.00063819977
0.0011209389
-0.00057810433
0.0011877911
-0.00051077659
0.0012470253
-0.00044795501
0.0012987523
-0.00039646723
0.0013434413
-0.00035067352
0.0013819555
-0.0003003049
0.001414685
-0.00026425234
0.0014422265
-0.00023662453
0.0014656175
-0.00019849511
0.0014856854
-0.00016035202
0.0015025544
-0.00015016079
0.0015173674
-0.00011308688
0.001530211
-0.00010611529
0.0015419183
-7.9531472e-05
0.0015527489
-6.8818148e-05
0.0015630717
-6.1652929e-05
-6.6417166e-05
0.0015730797
-0.001159116
-0.00012967277
0.0011673554
-0.0011496841
-0.00015928194
-0.0011386351
-0.00020532727
-0.0011257267
-0.00021687863
-0.0011105592
-0.00023484684
-0.0010927217
-0.00024954502
-0.0010716699
-0.00028031698
-0.0010469424
-0.000300517
-0.0010178898
-0.00033969549
-0.00098390174
-0.0003793476
-0.00094441193
-0.00041740691
-0.00089880513
-0.00046218974
-0.00084646036
-0.0005148525
-0.00078689235
-0.00056872374
-0.00071967209
-0.00062701354
-0.00064440787
-0.00069120932
-0.00056095252
-0.00075629115
-0.0004694641
-0.00081862199
-0.00037028433
-0.00087823395
-0.00026401877
-0.00093281846
-0.00015151305
-0.00097996602
-3.3848166e-05
-0.0010169191
8.7551978e-05
-0.0010425949
0.0002111465
-0.0010557253
0.00033540438
-0.0010536081
0.00045870947
-0.0010370103
0.00057927011
-0.0010096343
0.00069555179
-0.00097047993
0.00080633355
-0.00091789808
0.00091041525
-0.00085851703
0.0010068998
-0.00079418753
0.0010952067
-0.00072650675
0.001175026
-0.0006579236
0.001246588
-0.00058233858
0.0013100605
-0.00051142751
0.0013655814
-0.00045198809
0.0014136366
-0.00039872878
0.0014550923
-0.00034176056
0.0014903824
-0.00029954247
0.0015201347
-0.00026637677
0.0015453921
-0.00022375256
0.0015670014
-0.00018196127
0.0015851404
-0.00016829979
0.0016009535
-0.00012889999
0.0016145698
-0.00011973162
0.0016268326
-9.1794232e-05
0.0016380273
-8.001287e-05
0.0016485416
-7.2167223e-05
-7.6453415e-05
0.0016585778
-0.0012374196
-0.00013782943
0.0012455762
-0.0012279683
-0.00016873322
-0.0012168022
-0.00021649338
-0.0012036436
-0.00023003717
-0.001188073
-0.0002504175
-0.0011696516
-0.0002679664
-0.0011478154
-0.00030215315
-0.0011220642
-0.00032626825
-0.0010917224
-0.00037003727
-0.001056147
-0.00041492301
-0.0010147284
-0.00045882553
-0.00096681181
-0.00051010632
-0.00091174025
-0.00056992406
-0.00084898934
-0.00063147465
-0.00077809902
-0.00069790386
-0.00069866195
-0.00077064639
-0.00061052253
-0.00084443057
-0.00051383279
-0.00091531173
-0.00040894671
-0.00098312002
-0.00029649799
-0.0010452672
-0.00017737912
-0.0010990849
-5.2736286e-05
-0.0011415619
7.5936076e-05
-0.0011712673
0.00020701113
-0.0011868004
0.00033885321
-0.0011854502
0.00046974068
-0.0011678978
0.00059779521
-0.0011376888
0.00072139023
-0.001094075
0.00083921233
-0.0010357202
0.00094999729
-0.000969302
0.0010527953
-0.00089698553
0.0011469856
-0.00082069705
0.001232233
-0.00074317101
0.0013087372
-0.00065884274
0.001376665
-0.00057935537
0.0014361792
-0.00051150225
0.0014877853
-0.00045033493
0.0015323592
-0.00038633441
0.0015703756
-0.00033755883
0.0016024956
-0.00029849682
0.0016297786
-0.00025103555
0.0016530902
-0.0002052729
0.0016726546
-0.00018786412
0.0016896263
-0.00014587176
0.0017041678
-0.00013427309
0.0017171372
-0.00010476368
0.0017288388
-9.1714443e-05
0.001739676
-8.3004453e-05
-8.6653167e-05
0.0017498758
-0.0013202775
-0.00014595071
0.0013283988
-0.001310756
-0.00017825464
-0.0012994171
-0.00022783233
-0.0012859451
-0.00024350919
-0.0012699006
-0.00026646194
-0.0012508163
-0.00028705069
-0.0012281077
-0.0003248618
-0.0012012335
-0.0003531424
-0.0011694916
-0.00040177923
-0.0011322026
-0.00045221194
-0.0010887121
-0.00050231606
-0.0010383244
-0.00056049406
-0.00098034465
-0.00062790376
-0.00091420808
-0.00069761122
-0.00083942252
-0.00077268943
-0.00075556342
-0.00085450548
-0.00066246549
-0.0009375285
-0.00056027542
-0.0010175018
-0.00044936084
-0.0010940346
-0.00033038574
-0.0011642423
-0.00020429222
-0.0012251784
-7.2294492e-05
-0.0012735597
6.4037446e-05
-0.0013075992
0.00020298547
-0.0013257484
0.0003428058
-0.0013252706
0.000481667
-0.001306759
0.00061759716
-0.0012736189
0.00074887257
-0.0012253504
0.00087408448
-0.0011609321
0.00099189993
-0.0010871175
0.0011013129
-0.0010063985
0.0012016597
-0.00092104393
0.0012925785
-0.00083408977
0.00137424
-0.00074050424
0.0014468106
-0.00065192593
0.0015104762
-0.00057516785
0.0015657622
-0.00050562092
0.0016135569
-0.00043412919
0.0016543766
-0.00037837848
0.0016889164
-0.00033303668
0.0017182537
-0.00028037285
0.0017432785
-0.00023029765
0.0017642616
-0.00020884724
0.0017823718
-0.00016398191
0.0017978068
-0.00014970816
0.0018114423
-0.00011839915
0.0018236041
-0.00010387625
0.0018347134
-9.41137e-05
-9.6948235e-05
0.0018450084
-0.001408031
-0.00015410189
0.0014161822
-0.0013983756
-0.00018791
-0.0013867994
-0.00023940858
-0.0013729463
-0.00025736231
-0.0013563556
-0.00028305258
-0.0013365293
-0.00030687706
-0.0013128606
-0.00034853044
-0.0012847651
-0.0003812379
-0.0012515121
-0.00043503226
-0.0012123831
-0.00049134091
-0.0011666762
-0.00054802304
-0.0011136527
-0.00061351756
-0.0010525783
-0.00068897814
-0.00098284585
-0.00076734365
-0.00090392971
-0.00085160557
-0.00081538676
-0.00094304843
-0.00071704075
-0.0010358745
-0.00060903373
-0.0011255088
-0.00049174825
-0.0012113201
-0.00036588081
-0.0012901097
-0.00023242598
-0.0013586332
-9.2669315e-05
-0.0014133163
5.1738542e-05
-0.0014520071
0.0001989825
-0.0014729923
0.00034720611
-0.0014734942
0.00049446335
-0.0014540162
0.00063868185
-0.0014178374
0.00077803568
-0.0013647042
0.00091101735
-0.0012939138
0.0010362208
-0.0012123209
0.0011525806
-0.0011227582
0.0012593887
-0.0010278521
0.0013562559
-0.00093095695
0.001443327
-0.00082757531
0.0015207689
-0.00072936782
0.0015887908
-0.0006431898
0.0016479406
-0.00056477071
0.0016991244
-0.00048531293
0.0017428999
-0.00042215407
0.0017799996
-0.0003701363
0.0018115249
-0.00031189814
0.001838392
-0.00025716479
0.0018609165
-0.0002313717
0.0018802859
-0.00018335131
0.0018967304
-0.00016615275
0.0019111458
-0.0001328145
0.0019238776
-0.00011660808
0.0019353644
-0.00010560049
-0.00010744877
0.001945865
-0.0015009035
-0.00016232452
0.0015091261
-0.0014910704
-0.00019774312
-0.0014792088
-0.00025127015
-0.0014649202
-0.00027165092
-0.0014477216
-0.00030025115
-0.0014270825
-0.00032751617
-0.0014023726
-0.00037324036
-0.0013729617
-0.0004106488
-0.001338089
-0.00046990495
-0.0012969938
-0.00053243611
-0.0012489242
-0.0005960926
-0.0011930968
-0.00066934494
-0.0011287355
-0.00075333944
-0.0010551889
-0.00084089026
-0.00097189636
-0.00093489813
-0.00087839465
-0.0010365501
-0.00077449561
-0.0011397736
-0.00066033718
-0.0012396673
-0.00053631815
-0.0013353391
-0.00040316988
-0.001423258
-0.00026194252
-0.0014998606
-0.00011399688
-0.0015612619
3.8930502e-05
-0.0016049345
0.00019492176
-0.0016289836
0.00035200253
-0.0016305749
0.00050810667
-0.0016101203
0.00066105422
-0.001570785
0.00080891132
-0.0015125613
0.00095006761
-0.00143507
0.001083039
-0.0013452923
0.0012066972
-0.0012464164
0.0013202873
-0.0011414422
0.001423391
-0.0010340606
0.0015161285
-0.00092031283
0.0015986676
-0.00081190689
0.0016712402
-0.00071576238
0.0017344174
-0.00062794797
0.0017891259
-0.00054002147
0.0018359664
-0.0004689945
0.0018757094
-0.0004098793
0.0019094836
-0.00034567239
0.0019382354
-0.00028591658
0.001962326
-0.00025546229
0.0019829654
-0.00020399073
0.0020004187
-0.00018360603
0.0020156038
-0.00014799962
0.0020288888
-0.00012989305
0.002040731
-0.00011744271
-0.00011812182
0.002051404
-0.0015992388
-0.0001706654
0.0016075797
-0.00158918
-0.00020780191
-0.001576982
-0.00026346816
-0.0015622016
-0.00028643135
-0.0015443319
-0.00031812085
-0.0015228079
-0.0003490401
-0.0014969739
-0.00039907443
-0.0014661515
-0.00044147123
-0.0014295476
-0.00050650882
-0.0013863561
-0.00057562756
-0.0013357728
-0.0006466759
-0.0012769668
-0.00072815098
-0.0012091179
-0.00082118833
-0.0011315284
-0.00091847981
-0.0010436009
-0.0010228256
-0.00094485053
-0.0011353005
-0.00083507629
-0.0012495478
-0.0007144124
-0.0013603312
-0.00058327537
-0.0014664761
-0.00044243376
-0.0015640996
-0.00029299662
-0.0016492977
-0.00013640425
-0.0017178543
2.5515498e-05
-0.0017668542
0.00019073575
-0.0017942039
0.0003571583
-0.0017969975
0.00052259091
-0.0017755529
0.00068473874
-0.0017329328
0.00084155393
-0.0016693765
0.0009913187
-0.0015848348
0.0011324661
-0.0014864397
0.0012638012
-0.0013777515
0.0013845201
-0.0012621611
0.0014941745
-0.0011437151
0.0015928616
-0.0010189999
0.0016807508
-0.00089979613
0.0017580975
-0.00079310911
0.0018254989
-0.00069534934
0.0018839063
-0.0005984289
0.001933965
-0.00051905315
0.0019764871
-0.00045240145
0.0020126335
-0.00038181879
0.0020433833
-0.00031666639
0.002069144
-0.00028122295
0.0020911518
-0.00022599855
0.0021097062
-0.00020216036
0.0021257499
-0.00016404333
0.0021396734
-0.00014381658
0.002151954
-0.00012972334
-0.00012905303
0.0021628852
-0.0017033361
-0.00017916041
0.0017118311
-0.001693013
-0.00021812506
-0.001680435
-0.00027604615
-0.0016651124
-0.00030175391
-0.0016465129
-0.00033672038
-0.0016240352
-0.00037151779
-0.0015969957
-0.00042611391
-0.0015646657
-0.00047380124
-0.0015262175
-0.00054495701
-0.0014807965
-0.00062104857
-0.0014275432
-0.00069992914
-0.0013655769
-0.00079011727
-0.0012940308
-0.00089273446
-0.0012121584
-0.0010003522
-0.0011193239
-0.0011156602
-0.0010150193
-0.0012396051
-0.00089902945
-0.0013655376
-0.00077148558
-0.001487875
-0.00063282323
-0.0016051385
-0.00048385074
-0.0017130721
-0.00032573963
-0.0018074088
-0.00016001419
-0.0018835798
1.1400738e-05
-0.0019382692
0.00018636263
-0.0019691657
0.00036264287
-0.0019732777
0.00053791668
-0.0019508268
0.00070976676
-0.0019047829
0.00087602475
-0.0018356345
0.0010348603
-0.0017436703
0.0011846183
-0.0016361977
0.0013240334
-0.0015171665
0.0014522499
-0.0013903777
0.0015687881
-0.0012602533
0.0016737226
-0.0011239344
0.0017672254
-0.00099329888
0.0018495752
-0.00087545895
0.0019213968
-0.00076717091
0.0019836692
-0.00066070126
0.0020370837
-0.00057246768
0.0020824964
-0.00049781414
0.0021211033
-0.00042042568
0.0021539198
-0.0003494829
0.0021814012
-0.00030870443
0.0022048137
-0.00024941098
0.0022244931
-0.00022183976
0.0022414097
-0.00018096
0.0022559789
-0.00015838578
0.0022686996
-0.00014244395
-0.00014023658
0.0022798831
-0.0018135626
-0.00018784679
0.001822249
-0.001802935
-0.00022875267
-0.0017899321
-0.00028904901
-0.0017740157
-0.00031767036
-0.001754626
-0.00035611003
-0.0017311235
-0.00039502031
-0.0017027946
-0.0004544428
-0.0016688574
-0.00050773844
-0.0016284472
-0.00058536723
-0.0015806576
-0.00066883816
-0.0015245711
-0.00075601562
-0.001459254
-0.00085543434
-0.0013837904
-0.00096819815
-0.0012973825
-0.0010867601
-0.0011993539
-0.0012136887
-0.0010891719
-0.0013497871
-0.00096660649
-0.001488103
-0.0008317861
-0.0016226954
-0.00068516683
-0.0017517578
-0.00052759944
-0.0018706395
-0.00036032173
-0.0019746866
-0.00018494674
-0.0020589547
-3.5026493e-06
-0.0021197133
0.0001817457
-0.0021544141
0.00036843248
-0.0021599645
0.00055409304
-0.0021364873
0.0007361798
-0.0020868697
0.00091239697
-0.0020118516
0.001080796
-0.0019120694
0.0012396285
-0.0017950302
0.0013875541
-0.0016650921
0.0015236631
-0.0015264866
0.0016474427
-0.0013840328
0.001758946
-0.0012354377
0.0018583479
-0.0010927009
0.001945952
-0.00096306301
0.0020224128
-0.00084363172
0.0020887409
-0.00072702939
0.0021456765
-0.00062940323
0.0021941226
-0.00054626023
0.002235315
-0.00046161806
0.0022703088
-0.00038447677
0.002299609
-0.00033800464
0.0023245149
-0.00027431686
0.0023454003
-0.00024272517
0.0023632654
-0.00019882508
0.0023785514
-0.00017367181
0.0023917804
-0.00015567291
-0.00015174137
0.0024032852
-0.0019302767
-0.00019675661
0.0019391865
-0.0019193088
-0.0002397206
-0.0019058395
-0.00030251834
-0.0018892797
-0.00033423012
-0.0018690407
-0.00037634898
-0.0018444424
-0.00041961869
-0.0018147388
-0.00048414636
-0.0017790922
-0.00054338506
-0.0017365981
-0.00062786131
-0.0016862952
-0.0007191411
-0.0016272046
-0.00081510623
-0.0015583369
-0.00092430201
-0.0014787238
-0.0010478112
-0.001387514
-0.0011779699
-0.0012839883
-0.0013172144
-0.0011675874
-0.0014661881
-0.0010380656
-0.0016176248
-0.00089554885
-0.0017652121
-0.0007405154
-0.0019067912
-0.00057386123
-0.0020372936
-0.00039689432
-0.0021516535
-0.00021132128
-0.0022445278
-1.9281838e-05
-0.0023117527
0.00017683101
-0.0023505269
0.00037450791
-0.0023576414
0.00057113504
-0.0023331144
0.00076402663
-0.0022797612
0.00095075221
-0.0021985772
0.001129239
-0.0020905562
0.0012976393
-0.0019634305
0.001454534
-0.0018219868
0.0015989559
-0.0016709085
0.0017303576
-0.0015154346
0.0018487711
-0.0013538512
0.0019543749
-0.0011983047
0.0020474977
-0.0010561858
0.0021288261
-0.00092496015
0.0021994054
-0.00079760869
0.0022600266
-0.00069002439
0.0023116425
-0.00059787618
0.0023555323
-0.00050550787
0.0023927944
-0.00042173881
0.0024239852
-0.00036919547
0.0024504409
-0.0003007726
0.0024725756
-0.00026485986
0.0024914221
-0.00021767153
0.0025074498
-0.00018969957
0.002521206
-0.00016942909
-0.00016358023
0.0025330449
-0.0020538827
-0.00020592228
0.0020630484
-0.0020425379
-0.00025106547
-0.0020285594
-0.00031649683
-0.0020113054
-0.00035148415
-0.0019901559
-0.00039749843
-0.0019643878
-0.00044538677
-0.0019332207
-0.00051531348
-0.0018957577
-0.00058084804
-0.001851052
-0.00067256704
-0.0017980836
-0.0007721095
-0.0017358092
-0.00087738068
-0.0016631802
-0.00099693096
-0.0015791732
-0.0011318182
-0.0014828801
-0.001274263
-0.0013735367
-0.0014265578
-0.0012505555
-0.0015891693
-0.0011136741
-0.0017545062
-0.00096301639
-0.0019158698
-0.00079908433
-0.0020707233
-0.00062282205
-0.0022135559
-0.000435612
-0.0023388635
-0.00023926
-0.0024408798
-3.6023259e-05
-0.0025149894
0.00017156869
-0.0025581189
0.00038085445
-0.0025669271
0.00058906372
-0.0025413237
0.0007933637
-0.0024840612
0.00099118147
-0.002396395
0.0011803135
-0.0022796883