/*--------------------------------*- C++ -*----------------------------------*\
| =========                 |                                                 |
| \\      /  F ield         | OpenFOAM: The Open Source CFD Toolbox           |
|  \\    /   O peration     | Version:  v2006                                 |
|   \\  /    A nd           | Website:  www.openfoam.com                      |
|    \\/     M anipulation  |                                                 |
\*---------------------------------------------------------------------------*/
FoamFile
{
    version     2.0;
    format      ascii;
    class       volScalarField;
    location    "3000";
    object      pMean;
}
// * * * * * * * * * * * * * * * * * * * * * * * * * * * * * * * * * * * * * //

dimensions      [1 -1 -2 0 0 0 0];


internalField   nonuniform List<scalar> 
19765
(
1.0003993
1.0006785
1.0015106
1.0020836
1.0026589
1.0030887
1.0036159
1.0039172
1.0043237
1.004663
1.0048982
1.0050802
1.0052358
1.0053265
1.0053681
1.0053807
1.0053608
1.005305
1.0052132
1.0050849
1.0049172
1.0047128
1.0044887
1.0042222
1.0038972
1.0035564
1.0032584
1.0029173
1.0024908
1.0021017
1.0016927
1.001199
1.000641
0.99990804
0.99931061
0.9988796
0.99833047
0.9975094
0.99693024
0.99628535
0.99524026
0.99433523
0.99416422
0.99335391
0.99335598
0.99307704
0.99326932
0.99358384
0.99399452
1.0015766
1.0017236
1.0019146
1.0021499
1.0024017
1.0026473
1.0029052
1.0031254
1.0033554
1.0035872
1.0037881
1.0039582
1.0041166
1.0042341
1.004309
1.0043669
1.0044012
1.0043975
1.0043622
1.0042904
1.0041835
1.0040493
1.0038793
1.0036746
1.003443
1.0031878
1.0028986
1.0025796
1.002236
1.0018659
1.0014712
1.0010562
1.0006242
1.0001876
0.99975484
0.99931759
0.99886816
0.99842193
0.9980083
0.99761811
0.99727018
0.9969817
0.99670704
0.99646663
0.99629196
0.99614194
0.99602424
0.9959157
0.99580565
1.0015419
1.0017333
1.0019522
1.0021727
1.002393
1.0026021
1.002808
1.0029878
1.0031652
1.0033315
1.0034816
1.0036153
1.0037366
1.0038329
1.0039013
1.0039509
1.0039801
1.003981
1.0039522
1.0038918
1.0037998
1.0036786
1.0035262
1.0033417
1.00313
1.002894
1.0026288
1.0023354
1.0020192
1.0016793
1.0013193
1.0009453
1.0005638
1.00018
0.99978867
0.99939231
0.99900167
0.99861896
0.99824441
0.99788973
0.99755761
0.9972326
0.99692404
0.99663704
0.99637611
0.99616099
0.99597063
0.99580638
0.99565482
1.0017709
1.0018983
1.0020287
1.002169
1.0023136
1.0024593
1.0026059
1.0027423
1.0028792
1.0030132
1.0031356
1.0032459
1.0033472
1.0034294
1.0034885
1.0035332
1.0035628
1.0035682
1.0035471
1.0034981
1.0034217
1.0033228
1.0031981
1.0030444
1.0028664
1.002668
1.0024448
1.0021963
1.0019283
1.0016411
1.0013379
1.0010246
1.0007054
1.0003862
1.000062
0.99973576
0.99941765
0.99911166
0.9988133
0.9985346
0.99827941
0.99803069
0.9977852
0.99756289
0.99734336
0.99714035
0.9969338
0.99673056
0.99653144
1.0017
1.0018162
1.0019339
1.0020513
1.0021673
1.0022804
1.0023927
1.0024962
1.0025998
1.0027015
1.0027951
1.0028796
1.0029575
1.0030215
1.0030673
1.0031012
1.0031233
1.0031259
1.0031061
1.003062
1.0029927
1.0029013
1.0027854
1.0026422
1.0024762
1.0022917
1.0020855
1.0018562
1.0016094
1.001347
1.0010709
1.000786
1.0004957
1.0002053
0.99991339
0.99962168
0.99933599
0.99905934
0.9987896
0.99853301
0.99829006
0.99805106
0.99781418
0.99758964
0.99736459
0.9971477
0.99693239
0.99672298
0.99651884
1.0016987
1.0017827
1.0018691
1.0019558
1.0020427
1.002128
1.0022143
1.0022942
1.0023752
1.0024552
1.002529
1.0025956
1.002657
1.0027072
1.0027425
1.0027677
1.0027824
1.0027804
1.002759
1.0027166
1.0026522
1.0025689
1.0024648
1.0023369
1.0021887
1.0020238
1.0018398
1.0016359
1.0014169
1.0011846
1.0009409
1.0006901
1.0004354
1.0001811
0.99992637
0.99967286
0.99942514
0.99918564
0.99895303
0.9987317
0.99852199
0.99831655
0.99811449
0.99792052
0.9977267
0.99753674
0.99734466
0.9971508
0.99695772
1.0016203
1.0016922
1.0017658
1.0018375
1.001908
1.0019763
1.0020448
1.0021079
1.0021717
1.0022348
1.0022928
1.0023449
1.0023927
1.0024313
1.0024576
1.0024751
1.0024835
1.0024773
1.0024543
1.0024127
1.0023516
1.002273
1.0021753
1.0020562
1.0019182
1.0017647
1.0015939
1.0014051
1.0012026
1.0009881
1.0007635
1.0005323
1.0002972
1.0000621
0.9998269
0.99959293
0.99936351
0.99914069
0.99892355
0.99871505
0.99851505
0.99831865
0.99812443
0.99793553
0.9977461
0.99755849
0.99736846
0.99717684
0.99698384
1.0015645
1.0016205
1.0016786
1.0017352
1.0017911
1.0018451
1.0018997
1.0019497
1.0020005
1.0020506
1.0020965
1.0021373
1.0021742
1.0022034
1.0022219
1.0022327
1.0022353
1.0022249
1.0021997
1.002158
1.002099
1.0020242
1.0019324
1.0018216
1.0016938
1.0015518
1.0013942
1.0012208
1.0010351
1.000839
1.000634
1.0004234
1.0002096
0.99999609
0.99978287
0.99957116
0.99936374
0.9991624
0.99896645
0.99877828
0.9985979
0.99842125
0.99824727
0.99807801
0.99790886
0.99774125
0.99757144
0.99739971
0.99722617
1.0014873
1.0015342
1.001583
1.00163
1.001676
1.00172
1.0017643
1.0018047
1.0018456
1.0018858
1.0019221
1.001954
1.0019824
1.002004
1.0020163
1.0020217
1.0020194
1.0020056
1.0019785
1.0019367
1.0018793
1.0018074
1.0017198
1.0016152
1.0014949
1.0013614
1.0012136
1.0010515
1.0008782
1.0006952
1.0005042
1.000308
1.0001085
0.99990905
0.99970972
0.99951163
0.99931707
0.99912763
0.99894279
0.99876443
0.99859249
0.99842402
0.99825776
0.99809543
0.99793318
0.99777205
0.99760898
0.99744403
0.99727691
1.0014201
1.0014579
1.0014976
1.0015358
1.0015732
1.0016088
1.0016448
1.0016772
1.0017101
1.0017422
1.0017708
1.0017954
1.0018168
1.001832
1.0018391
1.0018398
1.0018333
1.0018165
1.0017876
1.0017454
1.0016891
1.0016195
1.0015357
1.0014364
1.0013228
1.0011969
1.0010581
1.0009062
1.0007443
1.0005736
1.0003956
1.000213
1.0000276
0.99984217
0.99965707
0.99947332
0.99929293
0.99911737
0.99894622
0.99878114
0.99862219
0.99846685
0.99831405
0.99816523
0.99801703
0.99787029
0.99772224
0.99757285
0.99742192
1.0013482
1.0013797
1.001413
1.0014447
1.0014757
1.001505
1.0015345
1.0015608
1.0015874
1.001613
1.0016355
1.0016543
1.00167
1.0016801
1.0016829
1.0016797
1.0016699
1.0016505
1.0016201
1.0015776
1.0015223
1.0014546
1.0013738
1.0012789
1.0011709
1.0010514
1.0009199
1.0007766
1.0006239
1.0004632
1.0002958
1.000124
0.99994959
0.99977496
0.99960053
0.99942727
0.99925693
0.99909087
0.99892873
0.99877197
0.99862067
0.99847284
0.99832738
0.99818571
0.9980448
0.99790544
0.99776518
0.99762395
0.99748128
1.0012824
1.0013081
1.0013356
1.0013617
1.0013871
1.0014111
1.0014351
1.0014563
1.0014775
1.0014979
1.0015152
1.0015292
1.0015401
1.0015459
1.001545
1.0015385
1.0015258
1.0015042
1.0014726
1.0014298
1.0013753
1.0013094
1.0012312
1.0011402
1.0010371
1.0009232
1.0007983
1.0006626
1.0005182
1.0003665
1.0002086
1.0000468
0.99988247
0.99971802
0.99955383
0.99939083
0.99923066
0.99907457
0.99892229
0.99877515
0.99863333
0.99849509
0.99835945
0.99822779
0.99809728
0.99796874
0.99783988
0.99771067
0.99758071
1.0012174
1.0012387
1.0012616
1.0012833
1.0013044
1.001324
1.0013437
1.0013607
1.0013776
1.0013936
1.0014068
1.0014167
1.0014237
1.001426
1.001422
1.0014128
1.0013976
1.0013743
1.0013416
1.0012987
1.0012448
1.0011804
1.0011047
1.0010171
1.0009182
1.0008094
1.0006902
1.0005611
1.000424
1.00028
1.0001304
0.99997712
0.99982151
0.99966569
0.99951008
0.99935558
0.99920368
0.99905556
0.99891096
0.99877111
0.99863621
0.99850484
0.99837602
0.99825117
0.99812765
0.9980063
0.99788504
0.99776387
0.99764225
1.0011568
1.0011743
1.0011933
1.0012111
1.0012283
1.0012443
1.0012602
1.0012737
1.001287
1.0012992
1.0013088
1.0013154
1.0013191
1.0013183
1.0013118
1.0013003
1.0012831
1.0012582
1.0012248
1.0011817
1.0011285
1.0010655
1.000992
1.0009074
1.0008124
1.000708
1.0005941
1.0004709
1.0003404
1.0002034
1.0000613
0.99991577
0.99976813
0.99962031
0.99947272
0.99932628
0.99918237
0.9990421
0.99890527
0.99877304
0.99864566
0.99852189
0.99840083
0.99828389
0.99816859
0.9980558
0.99794358
0.99783196
0.99772047
1.0010987
1.001113
1.0011288
1.0011435
1.0011576
1.0011705
1.0011833
1.0011938
1.0012041
1.0012132
1.0012198
1.0012235
1.0012244
1.0012211
1.0012124
1.0011989
1.0011801
1.001154
1.0011199
1.0010768
1.0010243
1.0009626
1.000891
1.0008093
1.0007178
1.0006174
1.0005082
1.0003904
1.0002658
1.0001352
0.99999978
0.99986125
0.99972076
0.9995801
0.99943969
0.99930041
0.99916354
0.99903014
0.99890001
0.99877426
0.99865315
0.99853561
0.9984208
0.99831014
0.99820128
0.99809512
0.99798987
0.99788561
0.99778179
1.0010442
1.0010559
1.0010688
1.0010807
1.0010922
1.0011024
1.0011125
1.0011205
1.0011281
1.0011346
1.0011386
1.0011398
1.0011384
1.0011329
1.0011224
1.0011073
1.001087
1.0010599
1.0010253
1.0009823
1.0009305
1.0008701
1.0008004
1.0007211
1.0006329
1.0005362
1.0004313
1.0003185
1.0001993
1.0000745
0.99994529
0.9998132
0.99967932
0.99954531
0.99941161
0.99927905
0.99914888
0.99902208
0.99889849
0.99877917
0.9986644
0.99855324
0.99844493
0.99834086
0.99823882
0.99813972
0.99804188
0.99794543
0.99784984
1.0009925
1.0010019
1.0010124
1.0010221
1.0010312
1.0010393
1.0010471
1.0010529
1.0010583
1.0010624
1.0010643
1.0010634
1.0010599
1.0010526
1.0010405
1.001024
1.0010026
1.0009747
1.0009397
1.0008969
1.0008458
1.0007866
1.0007186
1.0006418
1.0005565
1.0004633
1.0003624
1.0002542
1.0001399
1.0000205
0.999897
0.99977083
0.99964305
0.99951519
0.99938767
0.99926132
0.99913731
0.99901655
0.99889893
0.99878542
0.99867632
0.99857082
0.99846819
0.99836981
0.9982736
0.99818046
0.99808884
0.99799891
0.99791009
1.0009439
1.0009514
1.0009598
1.0009675
1.0009746
1.0009807
1.0009865
1.0009905
1.0009939
1.000996
1.000996
1.0009933
1.0009881
1.0009792
1.0009658
1.0009481
1.0009257
1.0008972
1.000862
1.0008194
1.000769
1.000711
1.0006447
1.0005702
1.0004876
1.0003977
1.0003005
1.0001965
1.0000869
0.99997249
0.9998543
0.99973367
0.99961159
0.99948948
0.99936778
0.99924729
0.99912912
0.99901413
0.99890224
0.99879436
0.99869082
0.99859089
0.9984939
0.99840119
0.99831081
0.99822365
0.99813826
0.99805483
0.99797279
1.0008979
1.0009037
1.0009104
1.0009163
1.0009218
1.0009262
1.0009303
1.0009326
1.0009343
1.0009348
1.0009331
1.0009288
1.0009221
1.0009118
1.0008973
1.0008787
1.0008555
1.0008265
1.0007912
1.0007489
1.0006993
1.0006424
1.0005778
1.0005053
1.0004255
1.0003386
1.0002449
1.0001449
1.0000396
0.99992984
0.99981663
0.99970118
0.99958443
0.99946773
0.99935149
0.99923651
0.99912382
0.99901424
0.99890771
0.99880509
0.99870669
0.99861188
0.99852004
0.99843245
0.99834729
0.99826543
0.99818551
0.99810776
0.99803158
1.0008546
1.000859
1.0008641
1.0008685
1.0008725
1.0008754
1.000878
1.0008789
1.0008791
1.0008781
1.0008749
1.0008693
1.0008613
1.0008499
1.0008344
1.000815
1.0007912
1.0007619
1.0007265
1.0006846
1.0006357
1.00058
1.0005169
1.0004466
1.0003692
1.0002852
1.0001948
1.0000985
0.99999735
0.99989201
0.99978348
0.99967291
0.99956119
0.9994496
0.99933854
0.99922878
0.99912131
0.99901689
0.99891548
0.99881791
0.99872448
0.99863462
0.99854777
0.99846516
0.99838507
0.99830835
0.99823374
0.99816147
0.99809093
1.0008137
1.0008168
1.0008206
1.0008237
1.0008263
1.000828
1.0008292
1.0008289
1.0008278
1.0008255
1.0008211
1.0008143
1.0008052
1.0007928
1.0007765
1.0007564
1.0007321
1.0007025
1.0006672
1.0006257
1.0005776
1.000523
1.0004616
1.0003932
1.0003182
1.000237
1.0001498
1.000057
0.99995969
0.99985852
0.99975441
0.99964845
0.9995415
0.99943475
0.9993286
0.99922379
0.99912126
0.99902174
0.99892519
0.99883239
0.99874363
0.99865841
0.99857621
0.99849819
0.99842276
0.99835072
0.99828089
0.99821352
0.998148
1.000775
1.000777
1.0007796
1.0007816
1.000783
1.0007836
1.0007837
1.0007823
1.00078
1.0007765
1.0007711
1.0007633
1.0007532
1.00074
1.000723
1.0007024
1.0006777
1.000648
1.0006129
1.0005718
1.0005245
1.0004711
1.0004111
1.0003446
1.0002719
1.0001934
1.0001092
1.0000198
0.99992615
0.99982893
0.99972902
0.99962744
0.99952502
0.99942287
0.99932139
0.9992213
0.99912349
0.99902864
0.99893672
0.99884849
0.99876421
0.99868343
0.99860569
0.99853208
0.99846111
0.99839353
0.99832826
0.99826555
0.99820477
1.0007383
1.0007394
1.000741
1.000742
1.0007424
1.000742
1.000741
1.0007387
1.0007355
1.000731
1.0007245
1.0007159
1.000705
1.000691
1.0006735
1.0006525
1.0006275
1.0005978
1.0005628
1.0005223
1.0004759
1.0004235
1.0003651
1.0003005
1.00023
1.0001539
1.0000726
0.99998644
0.99989632
0.99980287
0.99970695
0.99960954
0.99951143
0.99941367
0.99931664
0.99922104
0.99912773
0.99903733
0.99894983
0.99886594
0.99878591
0.99870933
0.99863578
0.99856629
0.99849945
0.99843599
0.9983749
0.99831641
0.99825992
1.0007036
1.0007039
1.0007046
1.0007046
1.0007042
1.0007029
1.0007011
1.0006978
1.0006937
1.0006884
1.0006811
1.0006717
1.0006601
1.0006456
1.0006277
1.0006063
1.0005811
1.0005514
1.0005168
1.0004768
1.0004312
1.00038
1.000323
1.0002602
1.0001918
1.0001183
1.0000397
0.99995662
0.99986985
0.99978
0.9996879
0.99959447
0.99950047
0.99940688
0.9993141
0.99922281
0.99913378
0.99904763
0.99896436
0.99888461
0.99880864
0.99873607
0.99866652
0.99860094
0.99853804
0.99847848
0.99842133
0.99836682
0.99831434
1.0006706
1.0006702
1.0006701
1.0006694
1.0006682
1.0006661
1.0006635
1.0006595
1.0006547
1.0006485
1.0006406
1.0006306
1.0006183
1.0006033
1.000585
1.0005634
1.0005382
1.0005086
1.0004742
1.0004348
1.0003901
1.0003401
1.0002845
1.0002235
1.0001572
1.000086
1.0000101
0.99992998
0.99984642
0.99976002
0.99967156
0.99958194
0.99949186
0.99940227
0.99931356
0.99922636
0.99914143
0.99905934
0.99898009
0.99890429
0.99883217
0.99876341
0.99869764
0.99863574
0.99857651
0.99852058
0.99846707
0.99841621
0.99836739
1.0006393
1.0006382
1.0006374
1.000636
1.0006341
1.0006314
1.0006281
1.0006235
1.000618
1.0006112
1.0006026
1.000592
1.0005793
1.0005639
1.0005454
1.0005236
1.0004983
1.0004689
1.000435
1.0003962
1.0003523
1.0003035
1.0002493
1.00019
1.0001257
1.0000568
0.99998351
0.99990624
0.99982576
0.99974266
0.9996577
0.99957171
0.99948539
0.99939962
0.99931479
0.99923151
0.9991505
0.99907228
0.99899687
0.99892484
0.9988564
0.99879125
0.99872907
0.99867066
0.99861492
0.99856241
0.99851232
0.99846488
0.99841947
1.0006094
1.0006078
1.0006064
1.0006044
1.0006019
1.0005986
1.0005947
1.0005895
1.0005834
1.0005761
1.000567
1.000556
1.0005428
1.0005271
1.0005084
1.0004866
1.0004613
1.0004321
1.0003986
1.0003605
1.0003175
1.0002698
1.0002171
1.0001595
1.0000972
1.0000305
0.99995965
0.99988513
0.99980762
0.99972768
0.99964606
0.99956356
0.99948083
0.99939872
0.9993176
0.99923807
0.9991608
0.99908627
0.99901453
0.99894608
0.99888114
0.99881943
0.99876064
0.99870552
0.99865304
0.99860373
0.99855682
0.99851253
0.99847025
1.0005808
1.0005788
1.0005769
1.0005744
1.0005714
1.0005676
1.0005631
1.0005574
1.0005509
1.000543
1.0005335
1.0005221
1.0005087
1.0004927
1.0004738
1.000452
1.0004269
1.000398
1.0003649
1.0003275
1.0002855
1.0002389
1.0001876
1.0001316
1.0000713
1.0000067
0.99993828
0.99986641
0.99979176
0.99971487
0.99963646
0.99955729
0.999478
0.99939939
0.99932182
0.99924587
0.99917216
0.99910116
0.99903291
0.99896789
0.99890627
0.99884782
0.99879226
0.99874025
0.99869086
0.99864455
0.99860062
0.99855928
0.99851992
1.0005535
1.000551
1.0005487
1.0005458
1.0005423
1.0005381
1.0005332
1.0005271
1.0005201
1.0005119
1.000502
1.0004903
1.0004766
1.0004605
1.0004416
1.0004198
1.0003949
1.0003663
1.0003337
1.000297
1.0002559
1.0002105
1.0001606
1.0001062
1.0000477
0.99998531
0.9999192
0.99984989
0.99977798
0.99970402
0.99962869
0.99955272
0.99947672
0.99940145
0.99932728
0.99925474
0.99918444
0.99911681
0.99905188
0.99899011
0.99893166
0.9988763
0.99882378
0.9987747
0.99872821
0.99868471
0.99864356
0.99860495
0.99856829
1.0005273
1.0005245
1.0005218
1.0005185
1.0005146
1.00051
1.0005047
1.0004983
1.000491
1.0004824
1.0004723
1.0004603
1.0004464
1.0004302
1.0004113
1.0003897
1.000365
1.0003367
1.0003048
1.0002688
1.0002287
1.0001844
1.0001358
1.0000831
1.0000264
0.99996605
0.99990221
0.99983536
0.99976611
0.99969496
0.99962259
0.99954968
0.99947684
0.99940477
0.99933383
0.99926456
0.9991975
0.99913307
0.9990713
0.99901262
0.99895717
0.99890475
0.99885511
0.99880881
0.99876504
0.9987242
0.99868565
0.99864959
0.99861543
1.0005021
1.000499
1.000496
1.0004923
1.0004882
1.0004833
1.0004777
1.000471
1.0004634
1.0004546
1.0004442
1.0004321
1.0004181
1.0004018
1.000383
1.0003615
1.0003371
1.0003093
1.0002779
1.0002427
1.0002035
1.0001604
1.0001132
1.0000621
1.0000072
0.99994878
0.99988713
0.99982268
0.99975598
0.99968754
0.99961801
0.99954803
0.99947821
0.99940919
0.99934135
0.99927518
0.99921121
0.99914982
0.99909106
0.99903531
0.99898271
0.99893305
0.99888614
0.99884245
0.99880125
0.99876287
0.99872676
0.99869306
0.99866122
1.0004778
1.0004745
1.0004712
1.0004673
1.0004629
1.0004577
1.0004519
1.000445
1.0004372
1.0004281
1.0004176
1.0004054
1.0003913
1.0003751
1.0003564
1.0003351
1.000311
1.0002837
1.0002529
1.0002185
1.0001803
1.0001383
1.0000925
1.0000429
0.99998978
0.99993333
0.99987382
0.99981168
0.99974745
0.99968162
0.9996148
0.99954764
0.9994807
0.9994146
0.9993497
0.99928648
0.99922545
0.99916695
0.99911104
0.99905807
0.99900816
0.99896113
0.99891679
0.99887556
0.99883676
0.99880071
0.99876687
0.99873539
0.9987057
1.0004544
1.0004509
1.0004474
1.0004433
1.0004387
1.0004333
1.0004273
1.0004202
1.0004122
1.000403
1.0003924
1.0003801
1.0003661
1.00035
1.0003314
1.0003104
1.0002867
1.0002598
1.0002297
1.0001961
1.0001589
1.0001181
1.0000736
1.0000255
0.99997412
0.99991957
0.99986213
0.99980223
0.99974038
0.99967706
0.99961286
0.99954839
0.99948419
0.99942087
0.99935878
0.99929837
0.99924012
0.99918436
0.99913115
0.9990808
0.99903343
0.99898887
0.99894695
0.99890803
0.99887149
0.99883761
0.99880588
0.99877644
0.99874874
1.0004317
1.0004281
1.0004244
1.0004202
1.0004154
1.0004099
1.0004037
1.0003965
1.0003884
1.0003792
1.0003685
1.0003562
1.0003423
1.0003262
1.0003079
1.0002872
1.0002639
1.0002376
1.0002081
1.0001753
1.0001391
1.0000995
1.0000563
1.0000098
0.99996007
0.99990737
0.99985195
0.99979421
0.99973466
0.99967375
0.99961206
0.99955017
0.99948859
0.99942792
0.99936849
0.99931075
0.99925513
0.99920196
0.99915129
0.99910342
0.99905844
0.99901621
0.99897655
0.9989398
0.99890538
0.99887353
0.99884377
0.99881625
0.9987904
1.0004097
1.000406
1.0004022
1.0003979
1.000393
1.0003874
1.0003812
1.0003739
1.0003657
1.0003565
1.0003458
1.0003336
1.0003197
1.0003039
1.0002858
1.0002655
1.0002425
1.0002168
1.0001881
1.0001561
1.0001209
1.0000824
1.0000406
0.99999557
0.9999475
0.99989661
0.99984315
0.99978752
0.99973018
0.9996716
0.99961231
0.99955288
0.99949381
0.99943565
0.99937875
0.99932352
0.99927039
0.99921965
0.99917138
0.99912583
0.9990831
0.99904305
0.99900552
0.99897079
0.99893834
0.99890837
0.99888044
0.99885467
0.99883053
1.0003884
1.0003846
1.0003808
1.0003764
1.0003715
1.0003658
1.0003595
1.0003522
1.0003441
1.0003348
1.0003242
1.0003121
1.0002983
1.0002827
1.000265
1.000245
1.0002226
1.0001974
1.0001694
1.0001383
1.0001041
1.0000668
1.0000263
0.99998275
0.99993631
0.99988719
0.99983564
0.99978205
0.99972686
0.99967051
0.99961353
0.99955645
0.99949976
0.99944399
0.99938947
0.99933662
0.99928583
0.99923738
0.99919135
0.99914798
0.99910735
0.99906933
0.99903378
0.99900094
0.99897033
0.99894212
0.99891589
0.99889177
0.99886921
1.0003677
1.0003639
1.00036
1.0003556
1.0003507
1.000345
1.0003387
1.0003314
1.0003233
1.0003141
1.0003036
1.0002916
1.0002781
1.0002627
1.0002453
1.0002258
1.0002039
1.0001793
1.0001521
1.0001219
1.0000887
1.0000525
1.0000134
0.99997125
0.9999264
0.99987902
0.99982934
0.99977773
0.99972461
0.99967041
0.99961564
0.9995608
0.99950638
0.99945287
0.99940061
0.99934998
0.99930138
0.99925507
0.99921114
0.99916979
0.99913111
0.99909498
0.99906127
0.99903017
0.99900125
0.99897466
0.99894999
0.99892735
0.99890623
1.0003476
1.0003438
1.0003399
1.0003355
1.0003306
1.000325
1.0003187
1.0003115
1.0003034
1.0002943
1.000284
1.0002722
1.0002589
1.0002438
1.0002268
1.0002077
1.0001863
1.0001625
1.0001359
1.0001067
1.0000745
1.0000395
1.0000016
0.99996097
0.9999177
0.99987203
0.99982416
0.99977447
0.99972336
0.99967123
0.99961857
0.99956588
0.9995136
0.99946223
0.99941209
0.99936355
0.999317
0.99927268
0.99923068
0.99919121
0.99915434
0.99911996
0.99908794
0.99905845
0.99903111
0.99900601
0.9989828
0.99896155
0.99894179
1.000328
1.0003243
1.0003205
1.0003161
1.0003112
1.0003056
1.0002994
1.0002923
1.0002844
1.0002754
1.0002652
1.0002537
1.0002407
1.0002259
1.0002093
1.0001907
1.0001699
1.0001467
1.000121
1.0000926
1.0000615
1.0000276
0.99999107
0.99995184
0.99991013
0.99986612
0.99982004
0.99977221
0.99972304
0.99967291
0.99962228
0.99957163
0.9995214
0.99947204
0.99942388
0.9993773
0.99933264
0.99929016
0.99924994
0.9992122
0.99917697
0.99914418
0.99911371
0.99908569
0.99905976
0.999036
0.99901408
0.99899406
0.99897547
1.000309
1.0003053
1.0003016
1.0002973
1.0002925
1.000287
1.0002809
1.0002739
1.0002661
1.0002573
1.0002474
1.0002361
1.0002233
1.000209
1.0001928
1.0001747
1.0001545
1.000132
1.0001071
1.0000796
1.0000496
1.0000169
0.9999816
0.99994379
0.99990361
0.99986125
0.9998169
0.9997709
0.99972361
0.99967541
0.99962673
0.99957803
0.99952972
0.99948226
0.99943596
0.99939118
0.99934827
0.99930747
0.99926889
0.9992327
0.99919898
0.99916764
0.99913857
0.99911189
0.99908726
0.99906476
0.99904406
0.99902522
0.99900778
1.0002905
1.0002869
1.0002833
1.000279
1.0002743
1.000269
1.000263
1.0002562
1.0002486
1.00024
1.0002303
1.0002193
1.0002069
1.0001929
1.0001772
1.0001596
1.0001401
1.0001183
1.0000942
1.0000677
1.0000386
1.0000071
0.99997315
0.99993675
0.99989809
0.99985734
0.9998147
0.99977048
0.99972502
0.99967868
0.99963188
0.99958503
0.99953856
0.99949288
0.9994483
0.99940519
0.99936388
0.99932461
0.99928749
0.99925271
0.99922032
0.99919026
0.99916242
0.99913691
0.99911341
0.99909196
0.99907227
0.99905437
0.99903782
1.0002725
1.0002691
1.0002655
1.0002614
1.0002568
1.0002517
1.0002458
1.0002392
1.0002318
1.0002235
1.000214
1.0002033
1.0001913
1.0001777
1.0001625
1.0001455
1.0001265
1.0001055
1.0000822
1.0000566
1.0000287
0.99999837
0.99996567
0.99993067
0.99989351
0.99985435
0.9998134
0.99977091
0.99972724
0.9996827
0.9996377
0.99959263
0.99954789
0.99950388
0.9994609
0.99941932
0.99937945
0.99934155
0.99930574
0.99927219
0.99924098
0.99921204
0.99918531
0.99916085
0.99913839
0.99911796
0.99909927
0.99908236
0.9990668
1.000255
1.0002517
1.0002483
1.0002443
1.0002399
1.0002349
1.0002293
1.0002229
1.0002157
1.0002076
1.0001984
1.000188
1.0001764
1.0001633
1.0001486
1.0001321
1.0001139
1.0000936
1.0000712
1.0000465
1.0000197
0.9999905
0.99995909
0.99992548
0.99988982
0.99985224
0.99981293
0.99977216
0.99973023
0.99968745
0.99964419
0.99960082
0.99955772
0.99951527
0.99947378
0.99943358
0.99939502
0.99935832
0.99932364
0.99929114
0.99926092
0.99923292
0.99920708
0.99918345
0.99916178
0.99914207
0.99912406
0.99910776
0.99909275
1.0002381
1.000235
1.0002316
1.0002278
1.0002236
1.0002187
1.0002133
1.0002071
1.0002002
1.0001923
1.0001835
1.0001735
1.0001622
1.0001496
1.0001354
1.0001196
1.000102
1.0000825
1.0000609
1.0000373
1.0000115
0.99998349
0.99995336
0.99992115
0.99988696
0.99985095
0.99981328
0.99977419
0.99973397
0.9996929
0.99965133
0.9996096
0.99956807
0.99952708
0.99948696
0.99944802
0.9994106
0.99937494
0.99934121
0.99930959
0.99928018
0.99925296
0.99922787
0.99920499
0.99918409
0.99916517
0.99914799
0.99913254
0.99911844
1.0002217
1.0002187
1.0002155
1.0002119
1.0002078
1.0002032
1.0001979
1.000192
1.0001853
1.0001778
1.0001692
1.0001596
1.0001488
1.0001366
1.000123
1.0001078
1.0000909
1.0000721
1.0000515
1.0000288
1.0000041
0.99997729
0.99994845
0.99991762
0.99988491
0.99985045
0.99981441
0.99977698
0.99973845
0.99969906
0.99965914
0.999619
0.99957895
0.99953935
0.99950048
0.99946267
0.99942625
0.99939147
0.9993585
0.99932755
0.99929873
0.99927203
0.99924743
0.99922497
0.99920444
0.99918581
0.99916884
0.99915354
0.99913952
1.0002058
1.000203
1.0002
1.0001965
1.0001926
1.0001881
1.0001831
1.0001774
1.000171
1.0001638
1.0001556
1.0001464
1.000136
1.0001243
1.0001113
1.0000967
1.0000805
1.0000626
1.0000428
1.0000211
0.99999745
0.99997185
0.99994429
0.99991485
0.99988361
0.99985071
0.99981627
0.99978051
0.99974365
0.99970592
0.99966762
0.99962902
0.99959042
0.99955213
0.99951443
0.99947763
0.99944206
0.99940797
0.99937558
0.99934509
0.99931666
0.99929033
0.99926609
0.99924403
0.99922398
0.99920594
0.9991897
0.99917523
0.99916218
1.0001904
1.0001878
1.0001849
1.0001816
1.0001779
1.0001737
1.0001689
1.0001635
1.0001573
1.0001504
1.0001426
1.0001337
1.0001238
1.0001126
1.0001002
1.0000862
1.0000708
1.0000536
1.0000348
1.0000141
0.99999152
0.99996712
0.99994086
0.99991281
0.99988304
0.99985168
0.99981886
0.99978474
0.99974955
0.99971348
0.99967679
0.99963971
0.99960251
0.99956548
0.99952888
0.99949299
0.99945813
0.99942458
0.99939255
0.99936229
0.99933397
0.99930765
0.99928336
0.99926115
0.99924087
0.99922247
0.99920574
0.99919067
0.99917688
1.0001757
1.0001731
1.0001704
1.0001673
1.0001638
1.0001597
1.0001552
1.00015
1.0001442
1.0001375
1.0001301
1.0001217
1.0001122
1.0001016
1.0000897
1.0000764
1.0000617
1.0000454
1.0000274
1.0000077
0.99998628
0.99996307
0.99993811
0.99991145
0.99988316
0.99985336
0.99982215
0.99978969
0.99975617
0.99972176
0.99968667
0.99965111
0.99961531
0.99957951
0.99954394
0.99950888
0.99947462
0.99944144
0.99940958
0.99937932
0.99935089
0.99932442
0.9993
0.99927778
0.99925768
0.99923973
0.99922377
0.99920973
0.99919731
1.0001614
1.000159
1.0001565
1.0001535
1.0001501
1.0001463
1.000142
1.0001371
1.0001315
1.0001252
1.0001181
1.0001101
1.0001012
1.0000911
1.0000798
1.0000672
1.0000532
1.0000377
1.0000207
1.000002
0.99998166
0.99995966
0.99993599
0.99991073
0.99988392
0.99985568
0.99982611
0.99979532
0.9997635
0.99973078
0.99969733
0.99966331
0.99962891
0.99959435
0.99955979
0.99952549
0.99949171
0.99945874
0.99942684
0.9993963
0.99936739
0.99934025
0.99931501
0.99929178
0.99927045
0.99925102
0.99923329
0.99921726
0.99920256
1.0001477
1.0001455
1.000143
1.0001402
1.000137
1.0001334
1.0001293
1.0001246
1.0001193
1.0001134
1.0001067
1.0000991
1.0000906
1.0000811
1.0000704
1.0000585
1.0000453
1.0000307
1.0000145
0.99999685
0.99997761
0.9999568
0.99993443
0.99991056
0.99988522
0.99985856
0.99983061
0.99980152
0.99977143
0.99974044
0.99970868
0.99967627
0.99964336
0.99961009
0.9995766
0.99954306
0.99950972
0.99947685
0.99944472
0.99941366
0.99938402
0.99935607
0.99933008
0.99930633
0.99928491
0.99926595
0.99924938
0.99923513
0.99922296
1.0001345
1.0001324
1.0001301
1.0001274
1.0001244
1.0001209
1.000117
1.0001126
1.0001076
1.000102
1.0000957
1.0000886
1.0000806
1.0000716
1.0000616
1.0000504
1.0000379
1.0000241
1.0000089
0.99999225
0.99997412
0.99995452
0.99993347
0.99991102
0.99988719
0.99986209
0.99983578
0.99980838
0.99978001
0.99975074
0.9997207
0.99968995
0.99965859
0.9996267
0.99959434
0.99956164
0.99952879
0.99949599
0.99946351
0.99943168
0.99940082
0.99937125
0.99934321
0.99931695
0.99929251
0.99926994
0.99924913
0.99923013
0.99921259
1.0001219
1.0001199
1.0001176
1.0001151
1.0001122
1.0001089
1.0001052
1.000101
1.0000963
1.0000911
1.0000852
1.0000785
1.0000711
1.0000627
1.0000533
1.0000428
1.0000311
1.0000181
1.0000039
0.99998824
0.99997127
0.99995293
0.99993324
0.99991227
0.99989001
0.99986656
0.99984194
0.99981631
0.99978974
0.99976227
0.99973401
0.99970498
0.99967522
0.99964472
0.99961351
0.99958165
0.99954925
0.99951647
0.99948355
0.99945081
0.99941869
0.99938761
0.99935809
0.9993307
0.99930587
0.99928402
0.99926536
0.99924985
0.99923742
1.0001097
1.0001077
1.0001056
1.0001031
1.0001004
1.0000972
1.0000937
1.0000898
1.0000854
1.0000805
1.000075
1.0000688
1.0000619
1.0000541
1.0000454
1.0000356
1.0000247
1.0000127
0.99999931
0.99998468
0.9999688
0.99995165
0.99993323
0.9999136
0.9998928
0.999871
0.99984818
0.99982447
0.99979993
0.99977459
0.99974842
0.99972148
0.99969369
0.99966496
0.99963525
0.99960449
0.99957273
0.99953998
0.99950641
0.99947226
0.99943789
0.9994037
0.99937012
0.99933759
0.99930636
0.99927666
0.99924857
0.99922237
0.99919778
1.0000983
1.0000963
1.0000941
1.0000916
1.0000889
1.0000858
1.0000825
1.0000787
1.0000747
1.0000701
1.0000651
1.0000595
1.0000531
1.000046
1.0000379
1.0000289
1.0000187
1.0000074
0.99999481
0.99998105
0.9999661
0.99994994
0.99993258
0.99991409
0.99989453
0.99987411
0.99985276
0.99983071
0.99980797
0.9997845
0.99976054
0.99973586
0.99971044
0.99968406
0.99965661
0.99962788
0.99959777
0.99956612
0.99953294
0.99949833
0.99946259
0.99942623
0.99939003
0.99935509
0.99932267
0.99929395
0.99927
0.99925114
0.9992377
1.0000867
1.0000846
1.0000823
1.0000799
1.0000773
1.0000745
1.0000715
1.0000682
1.0000646
1.0000605
1.000056
1.0000509
1.0000451
1.0000385
1.000031
1.0000226
1.0000131
1.0000026
0.99999098
0.99997831
0.99996461
0.99994986
0.99993413
0.99991745
0.99989972
0.99988092
0.999861
0.99984044
0.99981896
0.99979638
0.99977422
0.99975095
0.99972711
0.99970217
0.99967633
0.99964904
0.9996203
0.9995896
0.9995569
0.99952192
0.99948483
0.99944561
0.99940446
0.99936145
0.99931699
0.99927136
0.99922535
0.99917947
0.99913577
1.0000765
1.0000743
1.0000721
1.0000697
1.000067
1.0000642
1.0000612
1.0000579
1.0000544
1.0000506
1.0000463
1.0000416
1.0000364
1.0000307
1.0000242
1.000017
1.0000089
0.99999978
0.99998951
0.99997844
0.99996676
0.9999543
0.99994113
0.99992723
0.99991244
0.99989665
0.99987981
0.99986256
0.9998442
0.99982547
0.99980582
0.99978568
0.999764
0.99974114
0.99971689
0.9996909
0.99966298
0.99963239
0.99959895
0.99956179
0.99952115
0.99947667
0.99942965
0.99938152
0.99933493
0.99929247
0.99925854
0.99923297
0.99922159
1.0000651
1.0000616
1.0000582
1.000055
1.000052
1.0000492
1.0000466
1.000044
1.0000414
1.0000384
1.0000352
1.0000316
1.0000276
1.0000231
1.0000178
1.0000116
1.0000044
0.99999559
0.99998535
0.99997447
0.99996303
0.99995061
0.99993721
0.99992288
0.99990795
0.999893
0.99987788
0.99986303
0.99984775
0.99983673
0.99981854
0.99980546
0.99978864
0.99977346
0.99975532
0.99973707
0.99971575
0.99969289
0.99966611
0.99963611
0.99960055
0.99955916
0.99950724
0.99944641
0.99937315
0.99928497
0.99918226
0.99906407
0.99894458
1.0000531
1.0000506
1.0000485
1.0000473
1.0000465
1.0000456
1.0000444
1.0000429
1.0000411
1.0000388
1.0000359
1.0000322
1.0000274
1.0000215
1.0000143
1.0000058
0.99999581
0.99998428
0.99997223