/*--------------------------------*- C++ -*----------------------------------*\
| =========                 |                                                 |
| \\      /  F ield         | OpenFOAM: The Open Source CFD Toolbox           |
|  \\    /   O peration     | Version:  v2006                                 |
|   \\  /    A nd           | Website:  www.openfoam.com                      |
|    \\/     M anipulation  |                                                 |
\*---------------------------------------------------------------------------*/
FoamFile
{
    version     2.0;
    format      ascii;
    class       volScalarField;
    location    "3000";
    object      rho;
}
// * * * * * * * * * * * * * * * * * * * * * * * * * * * * * * * * * * * * * //

dimensions      [1 -3 0 0 0 0 0];


internalField   nonuniform List<scalar> 
19765
(
1.0004841
1.0007139
1.0013839
1.0017988
1.0022308
1.0025382
1.0029242
1.0031197
1.0034066
1.0036316
1.0037783
1.0038932
1.0039877
1.0040317
1.0040388
1.0040207
1.0039808
1.0039148
1.0038241
1.0037067
1.0035551
1.0033726
1.0031824
1.0029611
1.0026858
1.0023954
1.0021592
1.0018925
1.0015403
1.0012325
1.0009167
1.0005269
1.0000971
0.99948895
0.99899901
0.99867666
0.99826809
0.99758091
0.99713283
0.99665916
0.99580173
0.99501127
0.99495769
0.99421046
0.99422786
0.99392282
0.99405155
0.99426026
0.99457424
1.0012288
1.0013243
1.0014551
1.0016171
1.001791
1.0019589
1.0021415
1.0022903
1.0024544
1.0026203
1.0027583
1.0028727
1.0029828
1.0030587
1.0031004
1.0031331
1.0031469
1.0031298
1.0030921
1.0030281
1.0029386
1.002831
1.002696
1.0025356
1.002357
1.0021617
1.0019388
1.0016943
1.0014337
1.0011527
1.0008542
1.0005417
1.000215
0.99988621
0.99956359
0.99923901
0.99890213
0.99856727
0.99826294
0.99797596
0.99771634
0.99751088
0.9973123
0.99714354
0.99703675
0.99694251
0.99687227
0.99680565
0.99673691
1.0012363
1.0013776
1.0015357
1.001688
1.0018392
1.0019791
1.0021182
1.0022327
1.0023496
1.0024566
1.0025506
1.0026333
1.0027089
1.0027653
1.0028014
1.0028257
1.0028349
1.0028226
1.0027885
1.0027315
1.0026509
1.0025485
1.0024238
1.0022762
1.0021088
1.0019237
1.0017173
1.0014915
1.0012506
1.0009927
1.0007214
1.0004419
1.0001585
0.99987614
0.99958862
0.99929744
0.99901225
0.99873566
0.99846454
0.99820834
0.99797171
0.99773916
0.99751355
0.99730207
0.99710977
0.99695947
0.99682358
0.99670625
0.99659548
1.0013886
1.0014761
1.001568
1.0016663
1.0017677
1.001869
1.001972
1.0020647
1.0021597
1.0022521
1.0023341
1.0024064
1.0024727
1.0025236
1.0025564
1.0025797
1.0025916
1.0025846
1.002558
1.0025106
1.0024433
1.0023606
1.0022595
1.0021372
1.0019973
1.0018432
1.0016713
1.0014811
1.0012777
1.0010606
1.0008324
1.0005981
1.0003604
1.0001244
0.99988485
0.99964395
0.99941048
0.99918858
0.9989721
0.99877127
0.9985908
0.99841589
0.99824062
0.99808721
0.99793343
0.99779359
0.99764954
0.99750902
0.99737395
1.0013194
1.0014011
1.0014846
1.0015666
1.001647
1.0017243
1.0018016
1.0018703
1.0019403
1.0020089
1.0020702
1.0021243
1.002174
1.0022125
1.0022366
1.0022527
1.0022601
1.0022524
1.002228
1.0021856
1.002124
1.0020462
1.0019504
1.0018343
1.0017017
1.0015563
1.0013953
1.0012175
1.0010276
1.0008267
1.0006162
1.0004001
1.0001804
0.99996187
0.9997426
0.99952368
0.99930979
0.99910413
0.99890338
0.99871273
0.99853354
0.99835796
0.99818168
0.99801803
0.99785197
0.99769403
0.99753732
0.99738521
0.99723617
1.0013068
1.0013649
1.0014261
1.0014866
1.0015472
1.0016059
1.0016658
1.0017192
1.0017744
1.0018286
1.001877
1.0019196
1.0019585
1.0019883
1.0020062
1.002017
1.0020201
1.0020102
1.0019858
1.0019458
1.0018894
1.0018195
1.0017346
1.0016322
1.0015152
1.0013868
1.0012447
1.0010882
1.0009215
1.0007454
1.0005615
1.0003733
1.0001827
0.99999336
0.99980413
0.99961603
0.99943286
0.9992569
0.99908606
0.99892411
0.99877186
0.99862278
0.99847541
0.99833554
0.99819489
0.99805781
0.99791882
0.99777833
0.99763896
1.0012405
1.0012901
1.0013419
1.0013916
1.0014403
1.0014866
1.0015337
1.0015753
1.0016183
1.0016604
1.001698
1.0017307
1.0017604
1.0017826
1.001795
1.0018012
1.0018006
1.0017887
1.0017642
1.0017258
1.0016727
1.001607
1.0015271
1.0014313
1.0013219
1.0012016
1.001069
1.0009233
1.0007682
1.0006046
1.000434
1.0002592
1.0000819
0.99990544
0.9997292
0.99955409
0.99938274
0.99921718
0.99905584
0.99890118
0.99875351
0.99860889
0.99846496
0.99832646
0.99818674
0.99804928
0.99790983
0.99776959
0.99762835
1.0011926
1.0012309
1.0012718
1.0013109
1.0013494
1.001386
1.0014234
1.0014563
1.0014903
1.0015235
1.0015529
1.001578
1.0016004
1.0016164
1.001624
1.0016259
1.0016217
1.0016075
1.0015821
1.0015444
1.0014938
1.0014317
1.0013571
1.0012686
1.0011678
1.0010571
1.0009354
1.0008021
1.0006606
1.0005117
1.0003567
1.0001984
1.000038
0.9998786
0.99971977
0.99956234
0.99940853
0.99925998
0.99911552
0.99897718
0.99884525
0.99871625
0.99858876
0.99846571
0.99834226
0.99822047
0.99809686
0.99797198
0.99784596
1.00113
1.0011619
1.0011961
1.0012283
1.0012598
1.0012894
1.0013196
1.0013457
1.0013728
1.0013991
1.001422
1.0014412
1.0014579
1.0014689
1.0014726
1.0014713
1.0014642
1.0014481
1.0014221
1.001385
1.0013363
1.001277
1.0012061
1.0011226
1.0010278
1.0009237
1.0008094
1.0006847
1.0005523
1.0004132
1.0002685
1.0001205
0.99997042
0.9998209
0.9996718
0.99952385
0.9993788
0.99923817
0.999101
0.99896886
0.99884193
0.99871784
0.99859486
0.99847571
0.99835614
0.99823794
0.99811819
0.99799727
0.99787476
1.001076
1.0011015
1.0011292
1.0011553
1.0011807
1.0012045
1.0012288
1.0012496
1.0012711
1.0012918
1.0013094
1.0013237
1.0013356
1.0013425
1.0013429
1.0013386
1.001329
1.0013112
1.0012845
1.0012477
1.0012004
1.0011434
1.0010758
1.0009969
1.0009076
1.0008098
1.0007026
1.0005861
1.0004626
1.0003331
1.0001986
1.0000612
0.99992198
0.99978337
0.99964531
0.9995085
0.99937451
0.99924467
0.9991182
0.99899649
0.99887976
0.99876594
0.99865363
0.99854502
0.99843652
0.99832951
0.99822144
0.99811252
0.99800259
1.0010191
1.0010401
1.0010633
1.0010848
1.0011057
1.0011251
1.0011449
1.0011615
1.0011786
1.0011948
1.0012083
1.0012187
1.0012268
1.0012304
1.0012281
1.0012214
1.0012097
1.0011906
1.0011633
1.0011268
1.0010808
1.0010257
1.0009608
1.0008856
1.0008009
1.0007081
1.0006067
1.0004968
1.0003804
1.0002584
1.0001318
1.0000025
0.99987143
0.99974073
0.99961042
0.99948119
0.99935437
0.9992312
0.99911101
0.99899499
0.99888334
0.99877452
0.99866706
0.99856311
0.99845937
0.99835717
0.99825423
0.99815074
0.99804616
1.0009673
1.0009844
1.0010034
1.0010209
1.001038
1.0010536
1.0010695
1.0010826
1.0010961
1.0011087
1.0011186
1.0011258
1.0011307
1.0011314
1.0011269
1.0011181
1.0011047
1.0010844
1.0010566
1.0010204
1.0009753
1.000922
1.0008595
1.0007876
1.0007069
1.0006187
1.0005225
1.0004186
1.0003087
1.0001936
1.0000744
0.99995267
0.99982938
0.99970643
0.99958393
0.99946255
0.99934351
0.99922795
0.9991153
0.99900668
0.9989023
0.99880083
0.99870099
0.9986047
0.99850899
0.99841509
0.99832088
0.99822656
0.99813172
1.0009165
1.0009305
1.0009463
1.0009607
1.0009747
1.0009874
1.0010002
1.0010105
1.001021
1.0010305
1.0010377
1.0010421
1.0010444
1.0010429
1.0010364
1.001026
1.0010111
1.0009899
1.0009617
1.0009257
1.0008816
1.0008298
1.0007695
1.0007005
1.0006233
1.000539
1.0004474
1.0003487
1.0002444
1.0001353
1.0000223
0.99990704
0.99979027
0.99967376
0.99955763
0.99944252
0.99932954
0.99921975
0.99911264
0.99900922
0.99890973
0.99881307
0.99871801
0.99862644
0.99853559
0.99844667
0.99835774
0.99826903
0.99817993
1.0008694
1.0008807
1.0008937
1.0009054
1.0009168
1.0009269
1.0009371
1.000945
1.0009529
1.0009599
1.0009646
1.0009668
1.0009669
1.0009634
1.0009553
1.0009435
1.0009275
1.0009055
1.000877
1.0008413
1.0007981
1.0007476
1.0006892
1.0006228
1.0005488
1.0004681
1.0003807
1.0002866
1.0001874
1.0000837
0.99997648
0.99986712
0.99975641
0.99964596
0.9995359
0.99942688
0.99931993
0.99921606
0.99911481
0.99901715
0.99892333
0.9988324
0.99874323
0.99865764
0.99857303
0.99849057
0.99840847
0.99832697
0.99824551
1.0008243
1.0008335
1.0008442
1.0008537
1.0008629
1.0008709
1.0008789
1.0008848
1.0008906
1.0008955
1.0008982
1.0008985
1.0008967
1.0008916
1.0008822
1.0008692
1.0008522
1.0008296
1.0008009
1.0007655
1.0007231
1.0006739
1.0006173
1.0005533
1.0004821
1.0004047
1.000321
1.0002311
1.0001364
1.0000376
0.99993558
0.99983153
0.99972622
0.99962114
0.99951644
0.99941276
0.99931104
0.99921222
0.9991159
0.99902297
0.99893368
0.99884725
0.99876258
0.99868147
0.99860147
0.99852374
0.99844661
0.99837038
0.99829436
1.0007822
1.0007896
1.0007982
1.0008058
1.0008131
1.0008193
1.0008254
1.0008296
1.0008337
1.0008367
1.0008376
1.0008363
1.000833
1.0008264
1.0008159
1.000802
1.0007841
1.000761
1.0007323
1.0006972
1.0006556
1.0006076
1.0005527
1.0004908
1.0004223
1.0003479
1.0002675
1.0001815
1.0000911
0.99999676
0.99989943
0.99980027
0.99969998
0.99959992
0.99950027
0.99940165
0.99930496
0.99921107
0.99911965
0.99903152
0.99894697
0.9988653
0.99878552
0.99870932
0.99863443
0.99856197
0.99849039
0.99841999
0.99835011
1.0007424
1.0007481
1.0007551
1.0007611
1.0007668
1.0007715
1.000776
1.0007787
1.0007812
1.0007827
1.0007822
1.0007795
1.0007748
1.0007671
1.0007556
1.0007409
1.0007224
1.0006989
1.0006701
1.0006354
1.0005946
1.0005477
1.0004944
1.0004345
1.0003684
1.0002968
1.0002196
1.0001372
1.0000506
0.99996039
0.99986741
0.99977275
0.99967707
0.99958164
0.99948663
0.99939265
0.99930055
0.99921115
0.99912413
0.99904029
0.9989599
0.99888235
0.99880672
0.99873465
0.99866399
0.99859585
0.99852877
0.99846309
0.99839809
1.000705
1.0007094
1.0007149
1.0007195
1.0007238
1.0007272
1.0007303
1.0007318
1.0007329
1.000733
1.0007312
1.0007274
1.0007216
1.0007128
1.0007006
1.0006852
1.0006661
1.0006424
1.0006137
1.0005794
1.0005393
1.0004935
1.0004416
1.0003836
1.0003199
1.0002508
1.0001766
1.0000974
1.0000144
0.9999281
0.99983918
0.99974872
0.99965735
0.99956625
0.99947562
0.99938603
0.99929831
0.99921321
0.99913046
0.99905082
0.99897455
0.99890114
0.99882971
0.99876185
0.99869552
0.99863182
0.99856936
0.9985085
0.99844853
1.0006697
1.000673
1.0006772
1.0006807
1.0006837
1.0006859
1.0006879
1.0006883
1.0006882
1.0006871
1.0006843
1.0006794
1.0006726
1.000663
1.0006501
1.0006342
1.0006147
1.0005909
1.0005622
1.0005283
1.000489
1.0004443
1.0003938
1.0003376
1.000276
1.0002094
1.0001379
1.0000619
0.99998222
0.99989946
0.99981433
0.9997278
0.99964047
0.99955343
0.9994669
0.99938143
0.99929781
0.99921673
0.99913796
0.9990622
0.99898972
0.99892007
0.99885243
0.99878831
0.9987258
0.99866596
0.99860749
0.99855077
0.99849505
1.0006364
1.0006388
1.0006419
1.0006443
1.0006464
1.0006475
1.0006484
1.0006479
1.0006468
1.0006447
1.0006409
1.0006352
1.0006275
1.0006173
1.0006038
1.0005874
1.0005676
1.0005437
1.0005152
1.0004818
1.0004432
1.0003995
1.0003504
1.0002959
1.0002363
1.000172
1.0001031
1.00003
0.9999535
0.99987411
0.99979255
0.99970972
0.99962619
0.999543
0.99946035
0.99937879
0.99929907
0.99922183
0.99914687
0.99907487
0.99900607
0.99894007
0.99887614
0.99881569
0.99875695
0.99870091
0.99864635
0.99859369
0.99854213
1.0006051
1.0006065
1.0006088
1.0006103
1.0006114
1.0006117
1.0006117
1.0006103
1.0006084
1.0006054
1.0006008
1.0005943
1.0005859
1.000575
1.0005611
1.0005444
1.0005244
1.0005004
1.0004721
1.0004391
1.0004013
1.0003586
1.0003109
1.000258
1.0002003
1.0001382
1.0000718
1.0000014
0.99992793
0.99985173
0.99977354
0.9996942
0.99961427
0.99953471
0.99945574
0.99937789
0.99930186
0.99922825
0.9991569
0.99908843
0.99902308
0.9989605
0.9989
0.99884292
0.99878759
0.99873497
0.99868392
0.99863484
0.99858694
1.0005755
1.0005762
1.0005776
1.0005783
1.0005786
1.0005782
1.0005774
1.0005752
1.0005726
1.0005688
1.0005635
1.0005563
1.0005474
1.000536
1.0005217
1.0005047
1.0004845
1.0004606
1.0004326
1.0004001
1.000363
1.0003213
1.0002748
1.0002235
1.0001677
1.0001077
1.0000436
0.99997589
0.9999052
0.99983202
0.99975702
0.999681
0.99960449
0.99952839
0.99945291
0.99937859
0.99930608
0.99923595
0.99916805
0.99910296
0.99904093
0.99898163
0.99892444
0.99887059
0.99881856
0.99876923
0.99872154
0.99867589
0.99863149
1.0005475
1.0005476
1.0005482
1.0005482
1.0005479
1.0005468
1.0005453
1.0005425
1.0005391
1.0005347
1.0005288
1.0005211
1.0005116
1.0004998
1.0004852
1.000468
1.0004478
1.0004239
1.0003962
1.0003642
1.0003279
1.0002872
1.000242
1.0001922
1.0001381
1.0000801
1.0000183
0.99995304
0.99988504
0.99981474
0.99974278
0.9996699
0.99959664
0.99952383
0.99945168
0.99938073
0.99931156
0.99924474
0.99918011
0.99911824
0.99905935
0.99900314
0.99894905
0.99889822
0.99884923
0.99880292
0.99875829
0.99871574
0.99867446
1.0005209
1.0005205
1.0005206
1.00052
1.000519
1.0005173
1.0005151
1.0005118
1.0005079
1.0005029
1.0004964
1.0004882
1.0004783
1.0004662
1.0004514
1.000434
1.0004138
1.0003901
1.0003627
1.0003312
1.0002957
1.000256
1.0002119
1.0001636
1.0001113
1.0000552
0.9999955
0.99993264
0.99986721
0.99979965
0.99973058
0.99966071
0.99959054
0.99952086
0.9994519
0.99938415
0.99931818
0.99925451
0.99919302
0.99913423
0.99907833
0.99902507
0.99897394
0.998926
0.99887991
0.99883647
0.99879474
0.99875511
0.99871678
1.0004958
1.0004949
1.0004944
1.0004932
1.0004917
1.0004895
1.0004869
1.0004831
1.0004786
1.0004731
1.0004662
1.0004576
1.0004473
1.0004349
1.00042
1.0004025
1.0003823
1.0003588
1.0003317
1.0003009
1.000266
1.0002273
1.0001845
1.0001376
1.0000869
1.0000326
0.99997504
0.99991446
0.99985149
0.99978655
0.99972024
0.99965324
0.99958602
0.99951933
0.99945341
0.99938872
0.9993258
0.99926514
0.99920664
0.99915076
0.99909771
0.99904726
0.99899892
0.99895367
0.99891029
0.99886951
0.99883045
0.99879349
0.99875783
1.0004719
1.0004706
1.0004696
1.000468
1.000466
1.0004634
1.0004602
1.000456
1.0004511
1.0004452
1.0004379
1.000429
1.0004184
1.0004058
1.0003907
1.0003733
1.0003531
1.0003298
1.0003031
1.0002729
1.0002388
1.000201
1.0001593
1.0001138
1.0000647
1.0000123
0.99995669
0.9998983
0.99983768
0.99977525
0.99971159
0.99964732
0.99958292
0.9995191
0.99945607
0.9993943
0.9993343
0.99927651
0.99922085
0.99916777
0.99911744
0.99906964
0.99902396
0.99898127
0.99894046
0.99890219
0.99886565
0.9988312
0.99879805
1.0004492
1.0004475
1.0004461
1.0004441
1.0004417
1.0004386
1.0004351
1.0004305
1.0004253
1.000419
1.0004113
1.0004021
1.0003914
1.0003786
1.0003635
1.000346
1.000326
1.000303
1.0002767
1.000247
1.0002137
1.0001769
1.0001364
1.0000922
1.0000446
0.99999393
0.99994026
0.99988397
0.99982562
0.9997656
0.99970446
0.99964281
0.99958111
0.99952002
0.99945976
0.99940078
0.99934356
0.99928851
0.99923556
0.99918513
0.99913738
0.99909211
0.99904893
0.99900866
0.99897025
0.99893432
0.99890011
0.99886797
0.99883711
1.0004275
1.0004254
1.0004237
1.0004214
1.0004186
1.0004152
1.0004114
1.0004065
1.0004009
1.0003943
1.0003864
1.000377
1.000366
1.0003531
1.000338
1.0003206
1.0003008
1.000278
1.0002522
1.0002231
1.0001906
1.0001547
1.0001153
1.0000725
1.0000264
0.99997741
0.99992559
0.99987133
0.99981515
0.99975743
0.99969871
0.99963957
0.99958045
0.99952197
0.99946436
0.99940804
0.99935347
0.99930103
0.99925067
0.99920277
0.99915747
0.9991146
0.9990738
0.99903581
0.99899968
0.99896595
0.99893392
0.99890395
0.99887523
1.0004067
1.0004044
1.0004024
1.0003998
1.0003967
1.0003931
1.0003889
1.0003837
1.0003779
1.000371
1.0003629
1.0003533
1.0003423
1.0003293
1.0003142
1.000297
1.0002773
1.0002549
1.0002295
1.000201
1.0001693
1.0001343
1.0000961
1.0000545
1.0000099
0.99996255
0.99991252
0.99986022
0.99980612
0.99975062
0.99969422
0.99963748
0.99958082
0.99952484
0.99946975
0.99941597
0.99936393
0.99931398
0.99926608
0.99922058
0.99917761
0.99913701
0.99909846
0.99906262
0.99902861
0.99899694
0.99896695
0.99893898
0.99891223
1.0003868
1.0003843
1.000382
1.0003791
1.0003759
1.000372
1.0003675
1.0003622
1.0003561
1.0003491
1.0003408
1.0003311
1.0003199
1.000307
1.0002919
1.0002748
1.0002554
1.0002334
1.0002085
1.0001806
1.0001497
1.0001156
1.0000785
1.0000382
0.99999504
0.99994922
0.99990093
0.99985051
0.99979842
0.99974505
0.99969087
0.99963643
0.99958212
0.99952852
0.99947585
0.99942449
0.99937485
0.99932727
0.9992817
0.99923848
0.99919772
0.99915928
0.99912285
0.99908904
0.99905704
0.99902731
0.99899923
0.99897312
0.99894821
1.0003677
1.0003651
1.0003625
1.0003595
1.000356
1.0003519
1.0003472
1.0003417
1.0003355
1.0003283
1.0003199
1.0003101
1.0002989
1.000286
1.0002711
1.0002542
1.000235
1.0002133
1.000189
1.0001617
1.0001316
1.0000985
1.0000624
1.0000233
0.99998158
0.99993729
0.99989069
0.99984209
0.99979194
0.9997406
0.99968856
0.99963631
0.99958426
0.99953294
0.99948256
0.9994335
0.99938615
0.99934081
0.99929746
0.9992564
0.99921773
0.99918133
0.9991469
0.999115
0.99908488
0.99905696
0.99903065
0.99900627
0.99898305
1.0003494
1.0003466
1.0003439
1.0003406
1.000337
1.0003327
1.0003279
1.0003222
1.0003159
1.0003086
1.0003001
1.0002903
1.0002791
1.0002663
1.0002515
1.0002348
1.0002159
1.0001947
1.0001708
1.0001442
1.0001149
1.0000827
1.0000477
1.0000099
0.99996945
0.99992667
0.99988169
0.99983485
0.99978657
0.99973719
0.99968719
0.99963705
0.99958715
0.99953799
0.9994898
0.99944293
0.99939774
0.99935453
0.99931328
0.99927427
0.99923758
0.99920309
0.99917055
0.99914045
0.9991121
0.99908587
0.99906123
0.99903847
0.99901683
1.0003317
1.0003287
1.0003259
1.0003225
1.0003188
1.0003144
1.0003095
1.0003037
1.0002973
1.0002899
1.0002814
1.0002716
1.0002605
1.0002477
1.0002331
1.0002167
1.0001981
1.0001773
1.000154
1.0001281
1.0000995
1.0000682
1.0000342
0.99999764
0.99995857
0.99991724
0.99987384
0.9998287
0.99978222
0.99973473
0.99968669
0.99963855
0.9995907
0.9995436
0.99949749
0.99945269
0.99940956
0.99936837
0.9993291
0.99929201
0.99925718
0.9992245
0.99919374
0.99916532
0.99913862
0.99911398
0.99909088
0.99906961
0.99904942
1.0003146
1.0003116
1.0003086
1.0003051
1.0003013
1.0002968
1.0002918
1.000286
1.0002795
1.0002721
1.0002636
1.0002539
1.0002428
1.0002302
1.0002158
1.0001997
1.0001815
1.0001611
1.0001383
1.0001131
1.0000853
1.0000549
1.000022
0.9999866
0.99994883
0.99990892
0.99986706
0.99982356
0.99977881
0.99973313
0.99968697
0.99964075
0.99959485
0.99954972
0.99950557
0.99946273
0.99942154
0.99938224
0.99934484
0.99930957
0.99927649
0.99924551
0.99921641
0.99918957
0.99916443
0.99914126
0.99911961
0.99909973
0.9990809
1.000298
1.000295
1.0002919
1.0002884
1.0002845
1.00028
1.000275
1.0002691
1.0002626
1.0002552
1.0002468
1.0002371
1.0002261
1.0002137
1.0001996
1.0001837
1.0001659
1.000146
1.0001238
1.0000992
1.0000722
1.0000428
1.0000109
0.99997665
0.99994016
0.99990163
0.99986127
0.99981936
0.99977627
0.99973234
0.99968797
0.99964359
0.99959954
0.99955626
0.99951398
0.99947299
0.99943363
0.99939611
0.99936046
0.99932689
0.99929545
0.99926606
0.99923852
0.99921315
0.99918945
0.99916765
0.99914733
0.99912873
0.99911114
1.000282
1.0002789
1.0002758
1.0002723
1.0002683
1.0002638
1.0002588
1.000253
1.0002465
1.0002391
1.0002307
1.0002212
1.0002104
1.0001981
1.0001843
1.0001687
1.0001513
1.0001319
1.0001103
1.0000864
1.0000602
1.0000317
1.0000008
0.99996772
0.99993247
0.9998953
0.99985639
0.99981602
0.99977454
0.99973228
0.99968964
0.999647
0.99960472
0.9995632
0.99952266
0.99948342
0.99944576
0.99940992
0.99937591
0.99934393
0.99931403
0.99928612
0.99926003
0.99923603
0.99921367
0.99919316
0.99917408
0.99915667
0.99914025
1.0002664
1.0002633
1.0002603
1.0002567
1.0002528
1.0002483
1.0002432
1.0002375
1.000231
1.0002237
1.0002155
1.000206
1.0001954
1.0001834
1.0001698
1.0001546
1.0001377
1.0001187
1.0000977
1.0000746
1.0000492
1.0000216
0.99999172
0.99995973
0.99992572
0.99988987
0.99985236
0.99981348
0.99977357
0.99973292
0.99969192
0.99965094
0.99961033
0.99957047
0.99953158
0.99949397
0.99945792
0.99942364
0.99939116
0.99936065
0.99933217
0.99930564
0.99928089
0.99925817
0.99923704
0.9992177
0.99919976
0.99918342
0.99916805
1.0002513
1.0002483
1.0002452
1.0002417
1.0002378
1.0002333
1.0002283
1.0002226
1.0002163
1.0002091
1.0002009
1.0001917
1.0001813
1.0001695
1.0001563
1.0001414
1.0001249
1.0001065
1.0000861
1.0000636
1.000039
1.0000123
0.99998351
0.99995263
0.99991983
0.99988527
0.99984914
0.99981171
0.9997733
0.9997342
0.99969477
0.99965538
0.99961634
0.99957805
0.99954071
0.99950462
0.99947006
0.99943723
0.99940616
0.99937702
0.99934986
0.99932461
0.9993011
0.99927955
0.99925958
0.99924133
0.99922445
0.99920914
0.99919476
1.0002367
1.0002337
1.0002307
1.0002272
1.0002233
1.0002189
1.000214
1.0002084
1.0002021
1.0001951
1.0001871
1.000178
1.0001678
1.0001564
1.0001434
1.000129
1.0001129
1.0000951
1.0000753
1.0000535
1.0000298
1.000004
0.99997615
0.99994637
0.99991475
0.99988147
0.99984668
0.99981065
0.99977369
0.99973608
0.99969816
0.99966027
0.99962273
0.9995859
0.99955001
0.99951534
0.99948216
0.99945067
0.99942091
0.99939303
0.99936708
0.99934299
0.99932061
0.99930013
0.99928119
0.99926391
0.99924797
0.99923354
0.99922001
1.0002224
1.0002195
1.0002166
1.0002131
1.0002093
1.000205
1.0002002
1.0001947
1.0001886
1.0001817
1.0001738
1.000165
1.0001551
1.0001439
1.0001314
1.0001173
1.0001017
1.0000844
1.0000653
1.0000443
1.0000213
0.9999964
0.99996957
0.99994088
0.99991044
0.9998784
0.99984492
0.99981027
0.99977472
0.99973854
0.99970206
0.99966559
0.99962946
0.99959401
0.99955947
0.99952612
0.99949422
0.99946397
0.99943541
0.99940867
0.99938382
0.99936079
0.99933944
0.99931993
0.99930195
0.99928559
0.99927055
0.99925698
0.9992443
1.0002086
1.0002058
1.0002029
1.0001996
1.0001959
1.0001917
1.000187
1.0001816
1.0001756
1.0001689
1.0001612
1.0001526
1.000143
1.0001321
1.00012
1.0001064
1.0000913
1.0000745
1.000056
1.0000357
1.0000136
0.99998958
0.99996375
0.99993613
0.99990685
0.99987603
0.99984384
0.99981052
0.99977634
0.99974155
0.99970644
0.99967133
0.99963653
0.99960238
0.9995691
0.99953698
0.99950625
0.99947713
0.99944964
0.99942394
0.99940006
0.99937796
0.99935751
0.99933885
0.99932167
0.99930607
0.99929174
0.99927883
0.99926679
1.0001953
1.0001926
1.0001898
1.0001865
1.0001829
1.0001788
1.0001742
1.000169
1.0001632
1.0001566
1.0001492
1.0001409
1.0001315
1.000121
1.0001092
1.0000961
1.0000815
1.0000653
1.0000475
1.0000279
1.0000066
0.99998347
0.99995862
0.99993208
0.99990394
0.99987433
0.99984341
0.99981139
0.99977854
0.99974509
0.9997113
0.99967748
0.99964394
0.99961101
0.99957891
0.99954792
0.99951827
0.99949015
0.99946362
0.99943883
0.9994158
0.99939451
0.99937486
0.99935695
0.99934053
0.99932567
0.99931208
0.9992999
0.9992886
1.0001824
1.0001798
1.000177
1.0001739
1.0001704
1.0001664
1.000162
1.000157
1.0001513
1.0001449
1.0001378
1.0001297
1.0001206
1.0001104
1.000099
1.0000864
1.0000723
1.0000567
1.0000395
1.0000207
1.0000002
0.99997802
0.99995416
0.99992869
0.99990168
0.99987327
0.99984358
0.99981285
0.99978131
0.99974914
0.99971662
0.99968405
0.9996517
0.99961992
0.99958893
0.99955897
0.99953029
0.99950306
0.99947736
0.99945332
0.999431
0.99941036
0.99939133
0.99937399
0.99935811
0.99934372
0.99933058
0.99931879
0.99930784
1.0001699
1.0001674
1.0001648
1.0001618
1.0001584
1.0001546
1.0001503
1.0001454
1.0001399
1.0001338
1.0001268
1.000119
1.0001103
1.0001005
1.0000895
1.0000773
1.0000637
1.0000487
1.0000322
1.0000142
0.99999449
0.99997321
0.99995033
0.99992592
0.99990003
0.9998728
0.99984435
0.99981488
0.99978461
0.9997537
0.99972241
0.99969103
0.99965984
0.99962916
0.99959919
0.99957019
0.99954235
0.99951588
0.99949085
0.99946741
0.99944564
0.99942552
0.999407
0.99939017
0.99937483
0.99936101
0.99934847
0.99933732
0.99932707
1.0001579
1.0001555
1.000153
1.0001501
1.0001469
1.0001432
1.0001391
1.0001344
1.0001291
1.0001232
1.0001164
1.0001089
1.0001005
1.000091
1.0000805
1.0000687
1.0000557
1.0000414
1.0000255
1.0000082
0.99998936
0.99996899
0.99994709
0.99992374
0.99989897
0.99987292
0.99984569
0.99981747
0.99978845
0.99975877
0.99972868
0.99969846
0.99966839
0.99963876
0.99960976
0.9995816
0.99955448
0.99952861
0.99950408
0.99948106
0.99945965
0.99943984
0.9994216
0.999405
0.99938983
0.99937613
0.99936366
0.99935251
0.99934219
1.0001464
1.0001441
1.0001417
1.0001389
1.0001358
1.0001323
1.0001283
1.0001238
1.0001187
1.000113
1.0001066
1.0000993
1.0000912
1.0000821
1.000072
1.0000607
1.0000483
1.0000345
1.0000194
1.0000028
0.99998479
0.99996532
0.99994441
0.99992211
0.99989847
0.99987359
0.99984757
0.9998206
0.99979282
0.99976435
0.99973544
0.99970637
0.99967741
0.9996488
0.99962068
0.99959325
0.99956671
0.99954128
0.99951708
0.99949431
0.99947308
0.99945345
0.9994354
0.99941903
0.9994042
0.99939092
0.99937901
0.99936852
0.99935901
1.0001352
1.000133
1.0001308
1.0001281
1.0001252
1.0001218
1.000118
1.0001137
1.0001089
1.0001034
1.0000972
1.0000902
1.0000824
1.0000737
1.000064
1.0000532
1.0000413
1.0000282
1.0000137
0.99999792
0.99998074
0.99996219
0.99994226
0.99992102
0.9998985
0.99987479
0.99984998
0.99982425
0.9997977
0.99977043
0.99974271
0.99971481
0.99968695
0.99965931
0.99963199
0.99960518
0.99957909
0.99955393
0.99952987
0.99950714
0.99948587
0.99946614
0.99944794
0.99943135
0.99941621
0.99940252
0.99939008
0.99937896
0.99936869
1.0001244
1.0001223
1.0001202
1.0001177
1.0001149
1.0001117
1.0001081
1.000104
1.0000994
1.0000942
1.0000883
1.0000816
1.0000741
1.0000658
1.0000565
1.0000462
1.0000348
1.0000223
1.0000086
0.99999353
0.9999772
0.99995956
0.99994063
0.99992045
0.99989905
0.99987652
0.99985292
0.99982843
0.99980311
0.99977705
0.99975054
0.99972382
0.99969706
0.99967035
0.99964376
0.99961746
0.99959167
0.99956665
0.99954258
0.99951972
0.99949826
0.99947832
0.99945996
0.99944332
0.99942832
0.99941502
0.99940326
0.99939304
0.99938403
1.0001139
1.000112
1.00011
1.0001076
1.000105
1.000102
1.0000986
1.0000947
1.0000903
1.0000854
1.0000797
1.0000734
1.0000663
1.0000583
1.0000495
1.0000396
1.0000288
1.0000169
1.0000039
0.99998961
0.99997412
0.9999574
0.99993946
0.99992034
0.99990007
0.99987872
0.99985635
0.99983313
0.99980906
0.99978423
0.99975898
0.9997335
0.99970784
0.99968201
0.99965607
0.99963019
0.99960461
0.99957958
0.99955535
0.99953217
0.99951023
0.99948968
0.99947058
0.99945303
0.99943694
0.9994223
0.99940893
0.99939689
0.99938574
1.0001037
1.0001019
1.0001
1.0000978
1.0000953
1.0000925
1.0000893
1.0000856
1.0000815
1.0000768
1.0000716
1.0000656
1.0000589
1.0000513
1.0000429
1.0000336
1.0000233
1.0000119
0.99999958
0.9999861
0.99997145
0.99995564
0.99993868
0.99992062
0.99990147
0.99988131
0.99986017
0.99983823
0.99981542
0.99979189
0.99976798
0.9997438
0.99971927
0.99969433
0.99966902
0.99964354
0.99961814
0.99959306
0.99956855
0.99954489
0.99952233
0.9995011
0.9994814
0.99946347
0.99944738
0.99943325
0.99942102
0.99941064
0.99940192
1.0000938
1.0000921
1.0000903
1.0000882
1.0000859
1.0000832
1.0000802
1.0000768
1.0000729
1.0000686
1.0000637
1.0000581
1.0000518
1.0000447
1.0000368
1.0000279
1.0000181
1.0000074
0.99999569
0.99998299
0.99996919
0.99995431
0.99993836
0.99992139
0.99990339
0.99988442
0.9998645
0.99984382
0.99982226
0.99980001
0.99977751
0.99975465
0.99973123
0.99970716
0.99968254
0.99965754
0.99963239
0.9996073
0.99958247
0.99955814
0.99953457
0.99951198
0.99949057
0.99947051
0.99945182
0.99943454
0.99941856
0.99940397
0.99939034
1.0000844
1.0000828
1.000081
1.000079
1.0000768
1.0000742
1.0000714
1.0000682
1.0000646
1.0000605
1.000056
1.0000508
1.000045
1.0000384
1.000031
1.0000227
1.0000134
1.0000033
0.99999228
0.99998037
0.99996747
0.99995356
0.99993867
0.99992285
0.99990604
0.99988833
0.99986971
0.99985036
0.99983009
0.99980924
0.99978821
0.99976664
0.99974426
0.99972102
0.99969707
0.99967258
0.9996477
0.99962256
0.99959733
0.99957227
0.99954769
0.99952393
0.99950141
0.99948058
0.9994618
0.99944541
0.99943162
0.99942033
0.99941167
1.0000753
1.0000737
1.000072
1.0000701
1.000068
1.0000656
1.0000628
1.0000598
1.0000564
1.0000527
1.0000484
1.0000437
1.0000384
1.0000324
1.0000256
1.0000179
1.0000092
0.99999963
0.99998924
0.99997806
0.999966
0.99995299
0.99993905
0.99992424
0.99990854
0.9998921
0.99987486
0.999857
0.99983827
0.99981918
0.99979991
0.99977987
0.99975879
0.9997367
0.99971378
0.99969007
0.99966562
0.99964044
0.99961461
0.99958832
0.99956186
0.99953551
0.9995096
0.99948446
0.99946025
0.99943715
0.99941513
0.99939456
0.99937488
1.0000668
1.0000653
1.0000636
1.0000616
1.0000595
1.0000571
1.0000545
1.0000516
1.0000485
1.000045
1.0000411
1.0000368
1.000032
1.0000266
1.0000204
1.0000132
1.0000051
0.99999596
0.99998603
0.99997544
0.99996406
0.99995175
0.99993856
0.99992456
0.99990976
0.99989431
0.99987816
0.9998615
0.9998441
0.99982657
0.99980916
0.99979066
0.99977122
0.99975088
0.99972979
0.99970773
0.99968465
0.99966037
0.9996349
0.99960829
0.9995808
0.99955281
0.99952497
0.99949818
0.9994735
0.99945187
0.99943424
0.99942075
0.99941191
1.0000584
1.0000568
1.000055
1.0000531
1.0000511
1.0000489
1.0000466
1.000044
1.0000411
1.0000379
1.0000344
1.0000304
1.000026
1.0000209
1.0000153
1.0000087
1.0000012
0.99999273
0.99998346
0.99997369
0.99996331
0.99995214
0.99994027
0.99992774
0.9999144
0.99990016
0.99988499
0.99986934
0.99985265
0.99983561
0.99981955
0.99980163
0.99978311
0.99976364
0.99974371
0.99972263
0.99970055
0.99967689
0.99965176
0.99962485
0.99959638
0.99956627
0.99953469
0.99950156
0.99946715
0.99943136
0.9993949
0.9993578
0.99932201
1.0000512
1.0000496
1.0000479
1.000046
1.0000439
1.0000417
1.0000392
1.0000366
1.0000338
1.0000307
1.0000273
1.0000237
1.0000198
1.0000155
1.0000108
1.0000055
0.99999939
0.99999216
0.99998391
0.99997541
0.99996677
0.99995761
0.99994796
0.99993784
0.99992702
0.99991535
0.99990278
0.9998899
0.99987579
0.99986239
0.99984791
0.99983204
0.99981507
0.99979701
0.99977809
0.99975762
0.99973583
0.99971174
0.99968563
0.99965641
0.99962473
0.99958998
0.99955355
0.99951652
0.99948092
0.99944872
0.99942446
0.99940637
0.99940298
1.0000432
1.0000405
1.0000379
1.0000354
1.000033
1.0000308
1.0000287
1.0000266
1.0000245
1.0000221
1.0000195
1.0000168
1.0000138
1.0000104
1.0000065
1.000002
0.99999653
0.99998937
0.99998075
0.99997208
0.99996341
0.99995401
0.99994385
0.99993301
0.99992182
0.99991074
0.99989963
0.99988881
0.99987762
0.99987284
0.99985795
0.99984826
0.99983542
0.99982443
0.99981085
0.99979725
0.9997811
0.99976384
0.99974358
0.99972092
0.99969415
0.999663
0.99962295
0.99957603
0.99951718
0.99944678
0.99936335
0.99926543
0.99916802
1.0000355
1.0000339
1.0000322
1.0000314
1.0000306
1.0000298
1.0000286
1.0000272
1.0000254
1.0000231
1.0000202
1.0000167
1.0000121