/*--------------------------------*- C++ -*----------------------------------*\
| =========                 |                                                 |
| \\      /  F ield         | OpenFOAM: The Open Source CFD Toolbox           |
|  \\    /   O peration     | Version:  v2006                                 |
|   \\  /    A nd           | Website:  www.openfoam.com                      |
|    \\/     M anipulation  |                                                 |
\*---------------------------------------------------------------------------*/
FoamFile
{
    version     2.0;
    format      ascii;
    class       volScalarField;
    location    "3000";
    object      T;
}
// * * * * * * * * * * * * * * * * * * * * * * * * * * * * * * * * * * * * * //

dimensions      [0 0 0 1 0 0 0];


internalField   nonuniform List<scalar> 
19765
(
1.0003133
1.0003834
1.0005189
1.0006662
1.0007909
1.0009016
1.0010077
1.0010979
1.0011754
1.0012464
1.0013052
1.0013471
1.0013756
1.0013942
1.0014025
1.0014004
1.001387
1.0013656
1.001334
1.0012928
1.0012447
1.0011883
1.0011221
1.001043
1.0009541
1.000866
1.0007775
1.0006749
1.0005645
1.0004553
1.0003359
1.0002003
1.0000372
0.99986418
0.99972443
0.99960192
0.99944012
0.99926482
0.99911458
0.99892312
0.99868872
0.99854047
0.99844507
0.99836132
0.99837925
0.99842179
0.99852993
0.99868617
0.99883662
1.0005734
1.0006311
1.0006966
1.00077
1.0008456
1.0009179
1.0009867
1.0010491
1.0011059
1.0011586
1.0012055
1.0012445
1.0012756
1.0012987
1.0013124
1.0013177
1.0013155
1.0013042
1.0012828
1.0012511
1.0012097
1.0011592
1.0010993
1.0010301
1.0009527
1.0008678
1.0007751
1.0006746
1.0005665
1.0004514
1.0003302
1.000204
1.0000759
0.99994783
0.99981818
0.99968651
0.99955629
0.99942992
0.99930777
0.9991946
0.99910116
0.99901602
0.99893577
0.9988666
0.99880416
0.99875393
0.99871423
0.9986804
0.99864827
1.000525
1.0005765
1.0006361
1.0006999
1.0007628
1.0008237
1.0008816
1.0009357
1.0009853
1.0010333
1.0010765
1.0011132
1.001144
1.001168
1.0011833
1.0011913
1.0011934
1.0011874
1.0011721
1.0011475
1.001114
1.0010722
1.0010208
1.0009601
1.0008922
1.0008176
1.0007345
1.0006431
1.0005448
1.0004393
1.0003278
1.0002118
1.0000933
0.99997345
0.99985113
0.99972783
0.99960654
0.99948711
0.99937072
0.9992617
0.9991591
0.99906007
0.99897007
0.99889229
0.99882122
0.99875942
0.99870764
0.99866505
0.99862808
1.000551
1.0005893
1.0006287
1.0006695
1.0007107
1.0007512
1.0007907
1.0008281
1.0008639
1.0008985
1.0009303
1.0009581
1.0009821
1.0010013
1.001014
1.0010213
1.001024
1.0010202
1.0010085
1.0009889
1.0009616
1.0009269
1.0008843
1.0008338
1.0007768
1.0007135
1.0006429
1.0005655
1.0004824
1.0003938
1.000301
1.0002051
1.0001081
1.0000107
0.9999118
0.99981258
0.99971605
0.99962211
0.9995307
0.99944523
0.99936547
0.99928661
0.99921058
0.99913863
0.99906937
0.99900381
0.9989382
0.99887318
0.99880776
1.0005367
1.0005688
1.0006012
1.0006338
1.0006659
1.0006972
1.0007276
1.0007565
1.000784
1.0008108
1.0008355
1.0008572
1.0008762
1.0008914
1.0009015
1.0009074
1.0009094
1.0009059
1.0008957
1.0008785
1.0008543
1.0008234
1.0007855
1.0007404
1.000689
1.0006318
1.0005683
1.0004989
1.0004245
1.0003456
1.0002631
1.0001784
1.0000928
1.000007
0.99992078
0.99983497
0.99975166
0.9996707
0.99959221
0.99951823
0.9994481
0.99937845
0.99931131
0.99924592
0.99918196
0.99911936
0.99905765
0.99899826
0.99894202
1.0005232
1.0005473
1.0005716
1.0005961
1.0006202
1.0006439
1.000667
1.000689
1.0007102
1.0007311
1.0007502
1.0007671
1.0007818
1.0007933
1.0008008
1.0008047
1.0008052
1.000801
1.000791
1.0007748
1.0007523
1.0007238
1.0006892
1.0006479
1.0006009
1.0005487
1.0004909
1.000428
1.0003607
1.0002895
1.0002154
1.0001393
1.0000626
0.99998595
0.99990919
0.99983304
0.99975902
0.99968726
0.99961775
0.99955179
0.99948906
0.99942755
0.99936762
0.99930956
0.9992521
0.9991956
0.99913877
0.99908178
0.99902525
1.0004999
1.0005199
1.0005399
1.0005598
1.0005791
1.0005978
1.0006161
1.0006334
1.0006501
1.0006664
1.0006814
1.0006945
1.0007057
1.0007144
1.0007196
1.0007217
1.0007208
1.0007158
1.0007057
1.0006902
1.0006691
1.0006426
1.0006107
1.0005727
1.0005296
1.0004817
1.0004288
1.0003713
1.0003098
1.0002449
1.0001775
1.0001083
1.0000384
0.99996862
0.99989877
0.99982953
0.99976211
0.99969654
0.99963285
0.99957206
0.99951381
0.99945628
0.99940016
0.99934498
0.99929024
0.99923567
0.99918059
0.99912505
0.99906945
1.0004776
1.0004934
1.0005092
1.0005251
1.0005403
1.0005552
1.0005696
1.0005833
1.0005964
1.0006093
1.000621
1.0006311
1.0006395
1.0006458
1.0006491
1.0006496
1.0006475
1.0006416
1.0006313
1.0006162
1.000596
1.000571
1.0005409
1.0005055
1.0004653
1.0004207
1.0003716
1.0003184
1.0002616
1.0002019
1.0001398
1.0000762
1.0000121
0.99994798
0.999884
0.99982064
0.99975888
0.99969884
0.99964052
0.9995847
0.99953117
0.99947861
0.99942724
0.99937698
0.99932706
0.99927748
0.99922746
0.99917696
0.99912605
1.0004537
1.0004667
1.0004797
1.0004927
1.0005051
1.0005171
1.0005286
1.0005396
1.00055
1.0005602
1.0005693
1.0005769
1.0005832
1.0005875
1.0005891
1.0005883
1.0005851
1.0005785
1.000568
1.0005531
1.0005336
1.0005097
1.0004813
1.000448
1.0004104
1.0003687
1.000323
1.0002734
1.0002207
1.0001652
1.0001077
1.0000488
0.99998931
0.99992984
0.99987047
0.99981164
0.9997542
0.99969824
0.99964378
0.99959147
0.99954113
0.99949159
0.99944319
0.99939561
0.99934839
0.99930133
0.99925384
0.99920581
0.99915742
1.0004308
1.0004413
1.0004519
1.0004625
1.0004725
1.0004822
1.0004915
1.0005003
1.0005085
1.0005165
1.0005236
1.0005293
1.0005337
1.0005364
1.0005367
1.0005348
1.0005306
1.0005235
1.0005126
1.0004979
1.000479
1.000456
1.000429
1.0003974
1.0003618
1.0003226
1.0002795
1.0002331
1.0001837
1.0001319
1.0000781
1.0000231
0.9999676
0.9999121
0.99985672
0.99980187
0.99974829
0.99969609
0.99964529
0.99959646
0.99954948
0.99950341
0.99945843
0.9994144
0.9993708
0.99932753
0.99928401
0.99924014
0.99919594
1.0004084
1.0004171
1.0004258
1.0004345
1.0004427
1.0004506
1.0004581
1.0004651
1.0004716
1.0004779
1.0004832
1.0004874
1.0004903
1.0004917
1.0004909
1.000488
1.0004831
1.0004753
1.0004643
1.0004497
1.0004313
1.0004091
1.0003831
1.0003531
1.0003193
1.0002822
1.0002415
1.0001978
1.0001513
1.0001026
1.0000522
1.0000006
0.99994844
0.99989632
0.9998443
0.99979277
0.99974237
0.99969321
0.99964533
0.99959922
0.99955479
0.99951122
0.99946872
0.9994271
0.99938596
0.99934516
0.99930422
0.99926299
0.99922157
1.0003872
1.0003943
1.0004014
1.0004086
1.0004153
1.0004216
1.0004277
1.0004332
1.0004384
1.0004432
1.0004472
1.00045
1.0004517
1.000452
1.0004503
1.0004466
1.000441
1.0004328
1.0004216
1.0004071
1.0003891
1.0003676
1.0003426
1.0003139
1.0002817
1.0002463
1.0002078
1.0001663
1.0001224
1.0000764
1.0000288
0.99998017
0.99993103
0.99988188
0.99983284
0.99978428
0.99973677
0.99969043
0.99964532
0.99960187
0.99956003
0.99951912
0.99947928
0.9994404
0.99940209
0.99936426
0.99932645
0.99928855
0.99925058
1.000367
1.0003728
1.0003787
1.0003845
1.00039
1.0003951
1.0004
1.0004044
1.0004083
1.000412
1.0004148
1.0004166
1.0004173
1.0004166
1.0004141
1.0004098
1.0004036
1.0003951
1.0003837
1.0003693
1.0003517
1.0003308
1.0003067
1.0002791
1.0002483
1.0002145
1.0001779
1.0001385
1.0000968
1.0000532
1.0000082
0.99996214
0.99991564
0.99986912
0.99982272
0.99977676
0.99973179
0.9996879
0.99964517
0.99960397
0.99956431
0.99952554
0.99948786
0.99945112
0.99941502
0.99937945
0.99934402
0.9993086
0.99927326
1.0003479
1.0003527
1.0003575
1.0003623
1.0003667
1.0003708
1.0003746
1.000378
1.000381
1.0003837
1.0003855
1.0003864
1.0003863
1.0003848
1.0003816
1.0003768
1.0003702
1.0003613
1.0003499
1.0003356
1.0003183
1.000298
1.0002746
1.0002481
1.0002185
1.0001862
1.0001512
1.0001136
1.000074
1.0000326
0.99998978
0.99994608
0.99990196
0.99985782
0.9998138
0.99977022
0.99972758
0.99968598
0.99964549
0.99960648
0.99956895
0.99953236
0.99949686
0.99946237
0.99942858
0.99939543
0.99936255
0.99932984
0.99929734
1.0003299
1.0003338
1.0003377
1.0003416
1.0003451
1.0003484
1.0003514
1.000354
1.0003561
1.0003579
1.000359
1.0003591
1.0003582
1.0003561
1.0003524
1.0003471
1.0003401
1.000331
1.0003195
1.0003053
1.0002883
1.0002685
1.0002459
1.0002203
1.0001919
1.0001609
1.0001273
1.0000915
1.0000537
1.0000142
0.99997348
0.9999319
0.99988994
0.99984796
0.99980612
0.99976471
0.99972418
0.99968466
0.9996462
0.99960915
0.99957352
0.99953882
0.99950523
0.99947265
0.99944083
0.99940969
0.99937894
0.99934844
0.99931829
1.000313
1.0003161
1.0003193
1.0003224
1.0003252
1.0003277
1.00033
1.0003318
1.0003333
1.0003344
1.0003348
1.0003342
1.0003327
1.0003301
1.0003259
1.0003202
1.0003129
1.0003037
1.0002921
1.000278
1.0002614
1.0002421
1.0002201
1.0001953
1.000168
1.0001382
1.000106
1.0000717
1.0000356
0.99999786
0.99995902
0.99991939
0.99987941
0.99983943
0.99979959
0.99976019
0.99972164
0.99968406
0.99964753
0.99961235
0.99957856
0.99954572
0.99951401
0.99948333
0.99945347
0.99942436
0.99939575
0.9993675
0.9993397
1.000297
1.0002995
1.000302
1.0003045
1.0003067
1.0003086
1.0003102
1.0003115
1.0003123
1.0003128
1.0003126
1.0003115
1.0003095
1.0003064
1.0003018
1.0002958
1.0002883
1.0002789
1.0002673
1.0002534
1.000237
1.0002182
1.0001968
1.0001729
1.0001465
1.0001178
1.0000869
1.000054
1.0000194
0.99998334
0.99994624
0.99990841
0.99987027
0.99983213
0.99979416
0.99975662
0.99971991
0.99968415
0.9996494
0.99961596
0.99958386
0.99955272
0.9995227
0.99949373
0.99946562
0.9994383
0.99941155
0.99938524
0.99935948
1.0002821
1.000284
1.000286
1.0002879
1.0002895
1.0002909
1.000292
1.0002927
1.000293
1.000293
1.0002922
1.0002907
1.0002882
1.0002847
1.0002798
1.0002736
1.0002658
1.0002563
1.0002447
1.000231
1.0002149
1.0001965
1.0001758
1.0001526
1.0001271
1.0000994
1.0000697
1.0000381
1.000005
0.99997045
0.99993496
0.9998988
0.99986237
0.99982597
0.99978974
0.99975396
0.99971898
0.99968493
0.99965187
0.99962009
0.99958962
0.99956012
0.99953174
0.99950443
0.99947801
0.99945244
0.99942749
0.99940307
0.99937927
1.0002679
1.0002694
1.0002709
1.0002723
1.0002735
1.0002744
1.000275
1.0002753
1.0002752
1.0002747
1.0002735
1.0002715
1.0002687
1.0002648
1.0002597
1.0002532
1.0002453
1.0002357
1.0002242
1.0002106
1.0001949
1.0001769
1.0001567
1.0001342
1.0001096
1.0000829
1.0000543
1.0000239
0.99999209
0.99995902
0.99992503
0.99989045
0.99985563
0.99982085
0.99978626
0.99975213
0.99971878
0.99968634
0.99965489
0.99962466
0.99959572
0.99956775
0.9995409
0.99951511
0.99949024
0.99946624
0.99944292
0.99942017
0.99939812
1.0002546
1.0002557
1.0002568
1.0002578
1.0002585
1.000259
1.0002593
1.0002591
1.0002586
1.0002577
1.0002562
1.0002539
1.0002507
1.0002465
1.0002412
1.0002345
1.0002265
1.0002169
1.0002054
1.000192
1.0001766
1.000159
1.0001394
1.0001176
1.0000937
1.000068
1.0000404
1.0000112
0.99998063
0.9999489
0.99991634
0.99988323
0.99984992
0.99981667
0.99978364
0.99975106
0.99971927
0.99968837
0.99965843
0.99962969
0.99960221
0.9995757
0.99955031
0.99952599
0.9995026
0.9994801
0.99945833
0.99943718
0.99941678
1.0002421
1.0002428
1.0002435
1.0002442
1.0002446
1.0002447
1.0002446
1.0002441
1.0002433
1.000242
1.0002401
1.0002375
1.0002341
1.0002297
1.0002241
1.0002174
1.0002093
1.0001996
1.0001883
1.000175
1.0001599
1.0001427
1.0001236
1.0001025
1.0000794
1.0000545
1.0000279
0.99999982
0.99997042
0.99993997
0.99990874
0.99987703
0.99984515
0.99981335
0.99978179
0.9997507
0.99972038
0.99969093
0.99966244
0.99963511
0.99960901
0.99958389
0.99955986
0.99953691
0.99951489
0.99949377
0.99947342
0.99945372
0.99943479
1.0002303
1.0002307
1.0002311
1.0002314
1.0002315
1.0002313
1.0002309
1.0002301
1.000229
1.0002274
1.0002253
1.0002224
1.0002187
1.0002141
1.0002084
1.0002015
1.0001934
1.0001838
1.0001725
1.0001595
1.0001446
1.0001279
1.0001092
1.0000887
1.0000664
1.0000423
1.0000167
0.99998962
0.99996135
0.9999321
0.99990215
0.99987176
0.99984124
0.99981082
0.99978066
0.99975098
0.99972205
0.99969399
0.99966688
0.9996409
0.99961612
0.99959231
0.99956959
0.99954793
0.99952722
0.99950742
0.9994884
0.99947005
0.99945251
1.0002191
1.0002193
1.0002194
1.0002194
1.0002192
1.0002188
1.0002181
1.0002171
1.0002156
1.0002138
1.0002114
1.0002083
1.0002044
1.0001997
1.0001938
1.0001869
1.0001787
1.0001691
1.000158
1.0001451
1.0001306
1.0001143
1.0000961
1.0000762
1.0000546
1.0000313
1.0000066
0.9999805
0.9999533
0.9999252
0.99989646
0.99986733
0.9998381
0.99980899
0.99978016
0.99975182
0.99972423
0.9996975
0.99967169
0.999647
0.99962347
0.9996009
0.99957942
0.99955898
0.99953948
0.99952089
0.99950311
0.999486
0.99946972
1.0002085
1.0002085
1.0002083
1.0002081
1.0002077
1.000207
1.0002061
1.0002048
1.0002032
1.0002011
1.0001985
1.0001952
1.0001912
1.0001863
1.0001803
1.0001733
1.0001652
1.0001556
1.0001446
1.000132
1.0001177
1.0001018
1.0000841
1.0000648
1.0000438
1.0000214
0.99999748
0.99997235
0.99994618
0.99991918
0.99989159
0.99986366
0.99983565
0.9998078
0.99978024
0.99975318
0.99972686
0.99970139
0.99967683
0.99965336
0.99963103
0.99960965
0.99958934
0.99957005
0.99955171
0.99953427
0.99951763
0.99950169
0.99948659
1.0001985
1.0001982
1.0001979
1.0001975
1.0001968
1.0001959
1.0001948
1.0001933
1.0001915
1.0001892
1.0001864
1.000183
1.0001788
1.0001738
1.0001678
1.0001608
1.0001526
1.0001432
1.0001323
1.0001199
1.0001059
1.0000904
1.0000732
1.0000544
1.0000341
1.0000124
0.99998932
0.9999651
0.99993991
0.99991395
0.99988746
0.99986067
0.99983384
0.99980718
0.99978084
0.999755
0.99972989
0.99970562
0.99968226
0.99965995
0.99963875
0.9996185
0.99959929
0.9995811
0.99956383
0.99954746
0.9995319
0.99951703
0.999503
1.000189
1.0001885
1.000188
1.0001874
1.0001866
1.0001855
1.0001842
1.0001825
1.0001805
1.0001781
1.0001752
1.0001716
1.0001673
1.0001622
1.0001562
1.0001491
1.000141
1.0001316
1.0001209
1.0001087
1.0000951
1.0000799
1.0000632
1.0000449
1.0000253
1.0000043
0.999982
0.99995865
0.9999344
0.99990944
0.999884
0.9998583
0.9998326
0.99980708
0.99978189
0.99975721
0.99973327
0.99971015
0.99968792
0.99966672
0.99964661
0.99962743
0.99960927
0.99959211
0.99957586
0.99956049
0.99954593
0.99953206
0.99951903
1.0001799
1.0001793
1.0001786
1.0001779
1.0001769
1.0001757
1.0001742
1.0001724
1.0001702
1.0001677
1.0001646
1.0001609
1.0001565
1.0001514
1.0001453
1.0001383
1.0001302
1.0001209
1.0001104
1.0000984
1.0000851
1.0000703
1.000054
1.0000363
1.0000173
0.99999694
0.99997544
0.99995293
0.99992958
0.99990558
0.99988114
0.9998565
0.99983186
0.99980743
0.99978335
0.99975979
0.99973695
0.99971492
0.99969377
0.99967364
0.99965455
0.99963639
0.99961922
0.99960303
0.99958774
0.99957331
0.99955968
0.99954673
0.99953462
1.0001712
1.0001705
1.0001697
1.0001688
1.0001677
1.0001663
1.0001647
1.0001628
1.0001605
1.0001578
1.0001546
1.0001509
1.0001464
1.0001412
1.0001351
1.0001281
1.0001201
1.000111
1.0001006
1.0000889
1.0000759
1.0000614
1.0000456
1.0000285
1.00001
0.99999034
0.99996959
0.99994788
0.9999254
0.99990231
0.99987884
0.99985519
0.99983159
0.9998082
0.99978517
0.99976267
0.99974089
0.9997199
0.99969979
0.99968066
0.99966255
0.99964535
0.99962913
0.99961385
0.99959946
0.99958592
0.99957316
0.99956108
0.99954981
1.000163
1.0001621
1.0001612
1.0001602
1.000159
1.0001575
1.0001558
1.0001537
1.0001513
1.0001486
1.0001453
1.0001414
1.000137
1.0001317
1.0001257
1.0001187
1.0001108
1.0001018
1.0000916
1.0000801
1.0000674
1.0000533
1.000038
1.0000213
1.0000034
0.99998441
0.99996437
0.99994344
0.99992179
0.99989959
0.99987704
0.99985435
0.99983172
0.99980933
0.99978731
0.99976582
0.99974504
0.99972505
0.99970592
0.99968774
0.99967057
0.99965428
0.99963895
0.99962454
0.999611
0.99959828
0.99958634
0.99957505
0.99956457
1.000155
1.0001541
1.0001531
1.000152
1.0001507
1.0001491
1.0001473
1.0001451
1.0001427
1.0001398
1.0001365
1.0001326
1.0001281
1.0001228
1.0001168
1.0001099
1.0001021
1.0000932
1.0000832
1.000072
1.0000595
1.0000459
1.0000309
1.0000148
0.99999747
0.99997909
0.99995975
0.99993957
0.99991872
0.99989736
0.9998757
0.99985392
0.99983223
0.99981079
0.99978973
0.9997692
0.99974938
0.99973034
0.99971213
0.99969487
0.99967858
0.99966316
0.99964867
0.99963508
0.99962233
0.99961039
0.99959921
0.99958867
0.99957892
1.0001474
1.0001465
1.0001454
1.0001442
1.0001427
1.0001411
1.0001392
1.000137
1.0001345
1.0001316
1.0001282
1.0001242
1.0001197
1.0001145
1.0001085
1.0001017
1.0000939
1.0000852
1.0000754
1.0000645
1.0000523
1.000039
1.0000245
1.0000089
0.9999921
0.99997434
0.99995566
0.9999362
0.99991612
0.99989558
0.99987477
0.99985386
0.99983306
0.99981253
0.99979238
0.99977277
0.99975386
0.99973572
0.9997184
0.999702
0.99968654
0.99967195
0.99965825
0.99964543
0.99963344
0.99962223
0.99961175
0.99960191
0.99959283
1.0001401
1.0001391
1.0001379
1.0001367
1.0001352
1.0001335
1.0001315
1.0001293
1.0001267
1.0001237
1.0001203
1.0001164
1.0001118
1.0001066
1.0001007
1.000094
1.0000864
1.0000778
1.0000682
1.0000575
1.0000457
1.0000327
1.0000187
1.0000035
0.99998727
0.9999701
0.99995207
0.99993331
0.99991397
0.99989421
0.99987421
0.99985414
0.99983419
0.99981452
0.99979525
0.99977651
0.99975846
0.99974118
0.9997247
0.99970911
0.99969445
0.99968062
0.99966768
0.99965559
0.9996443
0.99963377
0.99962396
0.99961477
0.99960632
1.0001331
1.000132
1.0001308
1.0001295
1.0001279
1.0001262
1.0001242
1.0001219
1.0001193
1.0001163
1.0001129
1.0001089
1.0001044
1.0000993
1.0000934
1.0000868
1.0000793
1.0000709
1.0000615
1.0000511
1.0000396
1.000027
1.0000133
0.99999862
0.99998293
0.99996634
0.99994894
0.99993085
0.99991223
0.99989322
0.99987399
0.99985472
0.99983559
0.99981674
0.99979829
0.99978039
0.99976316
0.99974668
0.99973099
0.99971618
0.99970227
0.99968917
0.99967693
0.99966552
0.99965489
0.999645
0.99963581
0.99962722
0.99961935
1.0001263
1.0001252
1.0001239
1.0001226
1.000121
1.0001192
1.0001172
1.0001149
1.0001122
1.0001092
1.0001058
1.0001019
1.0000974
1.0000923
1.0000865
1.00008
1.0000727
1.0000644
1.0000553
1.0000451
1.0000339
1.0000217
1.0000085
0.99999422
0.99997905
0.99996302
0.99994623
0.9999288
0.99991086
0.99989257
0.99987409
0.99985558
0.99983722
0.99981915
0.99980149
0.99978437
0.99976792
0.99975221
0.99973727
0.99972319
0.99970997
0.99969756
0.99968599
0.99967522
0.9996652
0.99965591
0.9996473
0.99963926
0.99963193
1.0001197
1.0001186
1.0001173
1.0001159
1.0001143
1.0001125
1.0001105
1.0001081
1.0001055
1.0001025
1.0000991
1.0000952
1.0000908
1.0000858
1.0000801
1.0000737
1.0000665
1.0000584
1.0000495
1.0000396
1.0000287
1.0000169
1.000004
0.99999026
0.99997559
0.99996011
0.99994391
0.99992712
0.99990984
0.99989224
0.99987447
0.99985669
0.99983906
0.99982174
0.99980483
0.99978845
0.99977274
0.99975774
0.99974351
0.99973011
0.99971755
0.99970578
0.99969482
0.99968465
0.99967521
0.99966647
0.99965839
0.99965087
0.99964403
1.0001134
1.0001122
1.0001109
1.0001095
1.0001079
1.0001061
1.0001041
1.0001017
1.0000991
1.0000961
1.0000927
1.0000889
1.0000845
1.0000796
1.000074
1.0000677
1.0000607
1.0000528
1.0000441
1.0000345
1.000024
1.0000125
1
0.9999867
0.99997253
0.99995759
0.99994197
0.99992578
0.99990914
0.9998922
0.99987511
0.99985803
0.99984111
0.99982449
0.99980829
0.99979261
0.99977758
0.99976326
0.99974969
0.99973692
0.99972498
0.99971381
0.99970342
0.9996938
0.99968489
0.99967666
0.99966908
0.99966204
0.99965565
1.0001072
1.0001061
1.0001048
1.0001033
1.0001017
1.0000999
1.0000979
1.0000956
1.000093
1.00009
1.0000867
1.0000829
1.0000786
1.0000737
1.0000683
1.0000621
1.0000553
1.0000476
1.0000392
1.0000298
1.0000196
1.0000084
0.99999641
0.99998353
0.99996984
0.99995542
0.99994036
0.99992476
0.99990874
0.99989244
0.999876
0.99985958
0.99984333
0.99982738
0.99981185
0.99979683
0.99978245
0.99976876
0.9997558
0.99974362
0.99973224
0.99972162
0.99971176
0.99970264
0.99969422
0.99968646
0.99967932
0.99967271
0.99966674
1.0001012
1.0001001
1.0000988
1.0000974
1.0000958
1.000094
1.000092
1.0000897
1.0000871
1.0000842
1.0000809
1.0000772
1.000073
1.0000682
1.0000629
1.0000569
1.0000502
1.0000428
1.0000345
1.0000255
1.0000156
1.0000048
0.99999315
0.9999807
0.99996749
0.99995358
0.99993907
0.99992405
0.99990862
0.99989293
0.99987711
0.99986133
0.99984572
0.99983041
0.9998155
0.99980111
0.99978732
0.99977421
0.99976181
0.99975017
0.99973931
0.99972918
0.99971981
0.99971115
0.99970317
0.99969584
0.99968911
0.9996829
0.99967731
1.0000954
1.0000943
1.000093
1.0000916
1.0000901
1.0000883
1.0000863
1.0000841
1.0000815
1.0000787
1.0000754
1.0000718
1.0000677
1.000063
1.0000578
1.000052
1.0000455
1.0000383
1.0000303
1.0000215
1.0000119
1.0000015
0.99999023
0.99997821
0.99996547
0.99995207
0.99993809
0.99992362
0.99990877
0.99989366
0.99987845
0.99986327
0.99984827
0.99983356
0.99981924
0.99980542
0.99979218
0.99977959
0.9997677
0.99975654
0.99974615
0.99973647
0.99972753
0.99971929
0.99971171
0.99970475
0.99969839
0.99969254
0.99968727
1.0000898
1.0000887
1.0000874
1.0000861
1.0000845
1.0000828
1.0000809
1.0000787
1.0000762
1.0000734
1.0000702
1.0000666
1.0000626
1.0000581
1.000053
1.0000474
1.000041
1.000034
1.0000263
1.0000178
1.0000085
0.99999846
0.99998762
0.99997603
0.99996375
0.99995084
0.99993738
0.99992346
0.99990916
0.99989463
0.99987999
0.9998654
0.99985098
0.99983683
0.99982305
0.99980975
0.999797
0.99978488
0.99977344
0.99976272
0.99975273
0.99974346
0.9997349
0.99972703
0.99971981
0.99971321
0.99970719
0.99970166
0.99969671
1.0000843
1.0000832
1.000082
1.0000807
1.0000792
1.0000775
1.0000756
1.0000735
1.000071
1.0000683
1.0000652
1.0000618
1.0000579
1.0000535
1.0000485
1.000043
1.0000369
1.0000301
1.0000226
1.0000144
1.0000055
0.99999576
0.99998531
0.99997415
0.99996232
0.9999499
0.99993695
0.99992355
0.9999098
0.99989581
0.99988174
0.99986771
0.99985383
0.9998402
0.99982692
0.99981407
0.99980177
0.99979006
0.99977901
0.99976866
0.99975904
0.99975011
0.99974189
0.99973435
0.99972744
0.99972114
0.9997154
0.99971015
0.99970545
1.0000789
1.0000779
1.0000768
1.0000755
1.000074
1.0000724
1.0000705
1.0000685
1.0000661
1.0000635
1.0000605
1.0000571
1.0000533
1.0000491
1.0000443
1.000039
1.000033
1.0000265
1.0000193
1.0000113
1.0000027
0.99999335
0.99998329
0.99997255
0.99996117
0.99994922
0.99993677
0.99992389
0.99991066
0.99989722
0.99988369
0.99987019
0.99985682
0.99984367
0.99983082
0.99981838
0.99980645
0.9997951
0.99978438
0.99977436
0.99976505
0.99975643
0.99974851
0.99974126
0.99973464
0.99972862
0.99972316
0.99971818
0.99971375
1.0000737
1.0000727
1.0000716
1.0000704
1.000069
1.0000674
1.0000656
1.0000636
1.0000614
1.0000588
1.0000559
1.0000527
1.000049
1.0000449
1.0000403
1.0000351
1.0000294
1.0000231
1.0000161
1.0000085
1.0000002
0.9999912
0.99998153
0.9999712
0.99996027
0.99994879
0.99993684
0.99992446
0.99991175
0.99989884
0.99988583
0.99987284
0.99985994
0.99984722
0.99983476
0.99982267
0.99981105
0.9998
0.99978957
0.99977983
0.99977078
0.99976242
0.99975475
0.99974774
0.99974135
0.99973555
0.9997303
0.99972551
0.99972125
1.0000686
1.0000677
1.0000666
1.0000654
1.0000641
1.0000626
1.0000609
1.000059
1.0000568
1.0000543
1.0000516
1.0000485
1.0000449
1.000041
1.0000365
1.0000316
1.0000261
1.00002
1.0000133
1.0000059
0.99999794
0.9999893
0.99998002
0.99997011
0.99995962
0.99994861
0.99993715
0.99992527
0.99991306
0.99990066
0.99988817
0.99987566
0.99986319
0.99985084
0.99983871
0.99982692
0.99981559
0.99980479
0.99979461
0.9997851
0.99977629
0.99976815
0.99976069
0.9997539
0.99974773
0.99974215
0.99973712
0.99973257
0.99972854
1.0000637
1.0000628
1.0000618
1.0000606
1.0000594
1.0000579
1.0000563
1.0000545
1.0000524
1.00005
1.0000474
1.0000444
1.000041
1.0000372
1.000033
1.0000282
1.0000229
1.0000171
1.0000106
1.0000036
0.99999593
0.99998765
0.99997875
0.99996925
0.99995921
0.99994866
0.99993767
0.99992629
0.99991459
0.9999027
0.9998907
0.99987864
0.99986656
0.99985454
0.99984271
0.99983118
0.99982009
0.99980953
0.99979957
0.99979025
0.99978161
0.99977364
0.99976634
0.99975969
0.99975365
0.99974817
0.99974324
0.99973877
0.99973481
1.0000588
1.000058
1.000057
1.000056
1.0000547
1.0000534
1.0000518
1.0000501
1.0000481
1.0000459
1.0000433
1.0000405
1.0000373
1.0000337
1.0000296
1.0000251
1.00002
1.0000144
1.0000082
1.0000015
0.99999414
0.99998621
0.9999777
0.99996862
0.99995901
0.99994892
0.99993842
0.99992753
0.99991633
0.99990495
0.99989343
0.99988178
0.99987005
0.99985833
0.99984677
0.9998355
0.99982464
0.99981429
0.99980451
0.99979535
0.99978685
0.999779
0.9997718
0.99976526
0.99975935
0.99975402
0.99974926
0.99974499
0.99974123
1.0000542
1.0000534
1.0000525
1.0000515
1.0000503
1.000049
1.0000475
1.0000458
1.000044
1.0000418
1.0000394
1.0000367
1.0000337
1.0000303
1.0000264
1.0000221
1.0000173
1.0000119
1.000006
0.99999956
0.99999256
0.99998499
0.99997686
0.9999682
0.99995903
0.9999494
0.99993938
0.99992898
0.99991828
0.99990741
0.99989635
0.99988508
0.99987368
0.99986225
0.99985097
0.99983996
0.99982933
0.99981917
0.99980953
0.99980047
0.99979202
0.99978419
0.99977699
0.99977042
0.99976446
0.99975906
0.99975421
0.99974981
0.99974594
1.0000498
1.000049
1.0000481
1.0000472
1.0000461
1.0000448
1.0000434
1.0000418
1.00004
1.000038
1.0000357
1.0000331
1.0000303
1.000027
1.0000234
1.0000193
1.0000147
1.0000096
1.000004
0.99999785
0.99999118
0.99998397
0.99997623
0.99996798
0.99995925
0.99995008
0.99994055
0.99993063
0.99992045
0.99991007
0.99989946
0.99988856
0.99987747
0.99986636
0.99985538
0.99984465
0.99983426
0.99982425
0.9998147
0.99980565
0.99979717
0.99978927
0.99978201
0.99977539
0.99976942
0.99976407
0.99975932
0.99975512
0.99975145
1.0000456
1.0000449
1.0000441
1.0000431
1.0000421
1.0000408
1.0000395
1.0000379
1.0000362
1.0000343
1.0000321
1.0000297
1.0000269
1.0000239
1.0000205
1.0000167
1.0000124
1.0000075
1.0000022
0.99999633
0.99998999
0.99998314
0.99997579
0.99996795
0.99995966
0.99995096
0.99994191
0.99993248
0.99992282
0.99991296
0.99990277
0.99989222
0.99988148
0.99987073
0.9998601
0.99984967
0.99983949
0.9998296
0.99982005
0.99981091
0.99980226
0.99979415
0.99978662
0.9997797
0.99977339
0.99976766
0.99976251
0.99975784
0.99975372
1.0000418
1.0000411
1.0000403
1.0000394
1.0000383
1.0000372
1.0000358
1.0000343
1.0000327
1.0000308
1.0000287
1.0000264
1.0000238
1.0000209
1.0000177
1.0000142
1.0000101
1.0000056
1.0000005
0.99999499
0.99998897
0.99998248
0.99997552
0.99996809
0.99996024
0.99995201
0.99994345
0.99993452
0.99992538
0.99991604
0.99990626
0.99989609
0.99988576
0.99987545
0.99986523
0.99985511
0.99984511
0.99983526
0.99982562
0.99981629
0.99980736
0.99979893
0.99979109
0.99978391
0.99977742
0.99977164
0.99976658
0.99976218
0.99975839
1.0000382
1.0000375
1.0000367
1.0000359
1.0000349
1.0000337
1.0000325
1.000031
1.0000294
1.0000276
1.0000255
1.0000233
1.0000208
1.0000181
1.0000151
1.0000118
1.000008
1.0000038
0.99999905
0.9999938
0.99998812
0.99998199
0.99997542
0.99996841
0.999961
0.99995325
0.99994517
0.99993675
0.99992816
0.99991932
0.99990995
0.99990019
0.99989036
0.99988057
0.9998708
0.999861
0.99985114
0.99984128
0.99983147
0.99982183
0.99981248
0.99980351
0.99979504
0.99978714
0.99977985
0.99977317
0.99976711
0.99976161
0.99975676
1.0000348
1.0000341
1.0000334
1.0000325
1.0000316
1.0000305
1.0000293
1.0000279
1.0000263
1.0000246
1.0000226
1.0000204
1.000018
1.0000154
1.0000126
1.0000095
1.000006
1.0000021
0.99999772
0.99999279
0.99998744
0.99998168
0.99997551
0.99996893
0.99996197
0.9999547
0.99994713
0.99993922
0.99993121
0.99992287
0.9999139
0.99990464
0.99989541
0.99988621
0.99987689
0.99986738
0.99985764
0.99984772
0.9998377
0.9998277
0.99981785
0.99980831
0.99979923
0.99979078
0.99978308
0.99977624
0.9997703
0.9997653
0.99976106
1.0000315
1.0000308
1.0000301
1.0000293
1.0000284
1.0000274
1.0000262
1.0000249
1.0000235
1.0000218
1.0000199
1.0000178
1.0000155
1.000013
1.0000103
1.0000074
1.0000042
1.0000006
0.99999652
0.99999191
0.99998688
0.99998148
0.99997569
0.99996951
0.999963
0.99995621
0.99994915
0.99994179
0.9999344
0.99992659
0.99991807
0.99990948
0.999901
0.99989246
0.99988363
0.99987443
0.99986484
0.99985488
0.99984463
0.99983418
0.99982364
0.99981317
0.99980291
0.99979303
0.99978364
0.99977484
0.9997667
0.9997592
0.99975257
1.0000283
1.0000277
1.000027
1.0000262
1.0000253
1.0000243
1.0000232
1.000022
1.0000206
1.0000191
1.0000174
1.0000154
1.0000133
1.0000108
1.0000082
1.0000054
1.0000024
0.9999991
0.99999537
0.99999108
0.99998635
0.99998128
0.99997585
0.99997007
0.99996397
0.99995763
0.99995104
0.99994421
0.99993743
0.99993005
0.99992206
0.99991433
0.99990669
0.99989887
0.99989061
0.99988188
0.99987263
0.99986287
0.99985258
0.99984183
0.99983071
0.99981937
0.99980805
0.99979706
0.99978672
0.99977738
0.99976928
0.99976267
0.99975733
1.000025
1.0000244
1.0000237
1.0000229
1.0000221
1.0000212
1.0000202
1.0000191
1.0000179
1.0000165
1.000015
1.0000132
1.0000112
1.0000089
1.0000063
1.0000036
1.0000007
0.99999771
0.99999435
0.99999045
0.9999861
0.99998143
0.99997646
0.99997117
0.99996558
0.99995974
0.99995362
0.99994732
0.99994108
0.99993395
0.99992653
0.99991972
0.99991278
0.99990556
0.9998978
0.99988958
0.99988073
0.99987127
0.99986104
0.99985007
0.9998383
0.99982583
0.99981273
0.99979916
0.99978532
0.99977161
0.9997582
0.99974562
0.999734
1.0000218
1.0000212
1.0000205
1.0000197
1.0000189
1.0000181
1.0000171
1.0000161
1.000015
1.0000138
1.0000124
1.0000109
1.0000091
1.0000071
1.0000048
1.0000022
0.99999944
0.99999669
0.99999373
0.99999029
0.9999864
0.99998224
0.99997782
0.99997312
0.99996816
0.99996297
0.99995752
0.99995201
0.9999465
0.99993996
0.99993341
0.99992778
0.99992151
0.999915
0.99990779
0.99990023
0.99989185
0.99988281
0.99987261
0.9998614
0.99984879
0.99983498
0.99982003
0.99980442
0.99978903
0.99977475
0.99976201
0.99975229
0.99974364
1.0000186
1.0000178
1.0000168
1.000016
1.0000151
1.0000143
1.0000135
1.0000127
1.0000118
1.0000109
1.0000098
1.0000086
1.0000071
1.0000055
1.0000034
1.000001
0.99999825
0.99999542
0.99999257
0.99998938
0.99998572
0.99998171
0.99997739
0.99997279
0.99996798
0.99996313
0.99995816
0.9999533
0.99994841
0.99994272
0.99993771
0.9999334
0.99992817
0.99992303
0.99991718
0.99991116
0.99990422
0.9998967
0.99988779
0.99987777
0.99986572
0.99985168
0.99983506
0.99981564
0.99979452
0.99976876
0.99974018
0.99970892
0.99967552
1.0000143
1.0000132
1.0000126
1.000012
1.0000115
1.000011
1.0000105
1.00001
1.0000094
1.0000087
1.0000078
1.0000068
1.0000055
1.0000038
1.0000018
0.99999933
0.99999631
0.99999307