/*--------------------------------*- C++ -*----------------------------------*\
| =========                 |                                                 |
| \\      /  F ield         | OpenFOAM: The Open Source CFD Toolbox           |
|  \\    /   O peration     | Version:  v2006                                 |
|   \\  /    A nd           | Website:  www.openfoam.com                      |
|    \\/     M anipulation  |                                                 |
\*---------------------------------------------------------------------------*/
FoamFile
{
    version     2.0;
    format      ascii;
    class       volScalarField;
    location    "3000";
    object      TMean;
}
// * * * * * * * * * * * * * * * * * * * * * * * * * * * * * * * * * * * * * //

dimensions      [0 0 0 1 0 0 0];


internalField   nonuniform List<scalar> 
19765
(
1.0001958
1.0002477
1.0003912
1.0005408
1.0006682
1.0007825
1.0008951
1.0009918
1.0010796
1.0011634
1.0012316
1.0012827
1.0013219
1.0013501
1.0013672
1.0013754
1.0013735
1.0013629
1.0013421
1.0013118
1.0012736
1.0012278
1.0011732
1.0011068
1.001031
1.0009547
1.0008767
1.0007856
1.0006872
1.0005884
1.0004797
1.0003562
1.0002073
1.0000497
0.99992079
0.99980546
0.99965371
0.99949071
0.99934859
0.99916732
0.99894755
0.99880964
0.99871342
0.9986277
0.99863412
0.99866719
0.99875974
0.99889662
0.99902814
1.0004773
1.0005343
1.0005997
1.0006737
1.0007514
1.0008268
1.0008993
1.0009661
1.0010278
1.0010858
1.0011388
1.0011844
1.0012226
1.0012531
1.0012746
1.0012879
1.0012942
1.001292
1.0012798
1.0012578
1.0012261
1.0011854
1.0011358
1.0010771
1.0010106
1.0009367
1.0008548
1.0007655
1.0006686
1.0005648
1.0004547
1.0003394
1.0002216
1.0001032
0.99998314
0.99986082
0.99973923
0.9996207
0.99950569
0.99939832
0.99930823
0.99922635
0.99914889
0.99908134
0.99901934
0.9989689
0.9989278
0.9988924
0.99885891
1.0004401
1.0004917
1.0005519
1.0006169
1.0006819
1.0007456
1.0008068
1.0008646
1.0009185
1.0009707
1.0010187
1.0010607
1.0010971
1.0011271
1.0011488
1.0011635
1.0011725
1.0011739
1.0011664
1.0011498
1.0011243
1.0010908
1.001048
1.0009961
1.0009371
1.0008712
1.0007969
1.0007148
1.000626
1.0005303
1.0004286
1.0003221
1.0002127
1.0001017
0.99998828
0.99987368
0.99976024
0.99964816
0.99953872
0.99943553
0.99933788
0.99924383
0.99915788
0.99908286
0.99901503
0.99895527
0.99890456
0.99886211
0.99882516
1.0004865
1.0005257
1.0005658
1.0006075
1.00065
1.0006922
1.0007336
1.0007733
1.0008116
1.0008488
1.0008838
1.0009153
1.0009433
1.0009669
1.0009845
1.000997
1.0010052
1.0010073
1.001002
1.000989
1.0009685
1.0009408
1.0009054
1.0008622
1.0008124
1.0007564
1.0006933
1.0006235
1.0005482
1.0004674
1.0003822
1.0002938
1.0002038
1.0001131
1.0000209
0.99992825
0.99983762
0.99974909
0.99966284
0.99958182
0.99950581
0.99943079
0.99935848
0.99928975
0.99922355
0.99916074
0.99909815
0.9990361
0.99897375
1.0004808
1.0005137
1.0005469
1.0005804
1.0006137
1.0006465
1.0006786
1.0007095
1.0007392
1.0007683
1.0007957
1.0008206
1.0008429
1.0008618
1.0008761
1.0008863
1.0008929
1.0008944
1.0008895
1.0008779
1.0008594
1.0008346
1.0008031
1.0007645
1.0007197
1.0006693
1.0006127
1.0005502
1.0004828
1.0004108
1.0003352
1.0002571
1.0001778
1.0000981
1.0000177
0.99993757
0.99985943
0.99978323
0.99970924
0.99963923
0.99957259
0.99950644
0.99944264
0.99938024
0.9993192
0.99925923
0.99919994
0.99914249
0.99908775
1.0004747
1.0004997
1.0005247
1.0005501
1.0005752
1.0006001
1.0006245
1.0006483
1.0006713
1.000694
1.0007155
1.000735
1.0007526
1.0007674
1.0007785
1.0007862
1.0007908
1.000791
1.0007857
1.0007745
1.0007573
1.0007343
1.0007053
1.0006699
1.0006289
1.0005828
1.0005313
1.0004746
1.0004135
1.0003485
1.0002805
1.0002103
1.0001391
1.0000678
0.9999962
0.99992501
0.99985555
0.99978798
0.99972243
0.99966002
0.99960045
0.99954205
0.99948512
0.99942977
0.99937501
0.99932103
0.99926672
0.99921217
0.99915775
1.0004566
1.0004775
1.0004983
1.000519
1.0005393
1.0005593
1.0005788
1.0005976
1.0006159
1.000634
1.000651
1.0006664
1.0006802
1.0006917
1.0007
1.0007055
1.0007082
1.0007071
1.0007013
1.0006902
1.0006738
1.0006523
1.0006255
1.0005929
1.0005553
1.000513
1.0004658
1.0004139
1.0003582
1.000299
1.000237
1.0001732
1.0001085
1.0000435
0.99997847
0.99991382
0.99985064
0.99978902
0.99972909
0.99967172
0.99961658
0.99956214
0.99950901
0.99945663
0.99940465
0.99935274
0.99930031
0.99924733
0.99919414
1.0004391
1.0004557
1.0004723
1.0004889
1.0005051
1.000521
1.0005365
1.0005516
1.0005661
1.0005806
1.0005941
1.0006062
1.0006169
1.0006258
1.0006319
1.0006355
1.0006366
1.0006343
1.0006279
1.0006168
1.0006009
1.0005804
1.0005551
1.0005245
1.0004893
1.0004499
1.0004061
1.0003581
1.0003065
1.0002519
1.0001949
1.0001362
1.0000767
1.0000171
0.99995748
0.99989827
0.99984037
0.99978392
0.999729
0.9996763
0.99962561
0.99957584
0.99952716
0.99947941
0.99943198
0.99938479
0.99933714
0.99928896
0.99924026
1.000419
1.0004328
1.0004466
1.0004603
1.0004736
1.0004865
1.0004991
1.0005113
1.0005231
1.0005346
1.0005454
1.0005549
1.0005632
1.0005698
1.0005741
1.0005761
1.0005758
1.0005725
1.0005654
1.0005542
1.0005387
1.000519
1.0004949
1.0004661
1.0004331
1.0003962
1.0003553
1.0003106
1.0002626
1.000212
1.0001591
1.0001047
1.0000496
0.99999425
0.99993892
0.99988398
0.99983016
0.9997776
0.99972638
0.99967706
0.9996295
0.99958268
0.99953691
0.99949182
0.99944707
0.99940239
0.99935728
0.99931159
0.99926543
1.0003995
1.0004108
1.0004221
1.0004333
1.0004442
1.0004547
1.000465
1.0004749
1.0004844
1.0004937
1.0005023
1.0005097
1.000516
1.0005208
1.0005235
1.0005241
1.0005227
1.0005185
1.0005109
1.0004996
1.0004843
1.0004652
1.0004421
1.0004147
1.0003835
1.0003486
1.0003101
1.0002681
1.0002232
1.0001758
1.0001264
1.0000756
1.0000241
0.99997244
0.99992081
0.99986955
0.99981933
0.99977027
0.99972247
0.99967641
0.99963199
0.99958842
0.99954585
0.99950408
0.99946271
0.99942159
0.9993802
0.99933842
0.99929623
1.00038
1.0003894
1.0003988
1.0004081
1.0004171
1.0004258
1.0004342
1.0004423
1.00045
1.0004574
1.0004642
1.0004699
1.0004746
1.0004779
1.0004793
1.0004788
1.0004764
1.0004714
1.0004633
1.0004519
1.0004369
1.0004183
1.000396
1.0003698
1.0003401
1.000307
1.0002706
1.000231
1.0001887
1.0001441
1.0000977
1.00005
1.0000017
0.99995317
0.99990466
0.9998565
0.99980926
0.99976308
0.99971805
0.99967458
0.99963261
0.99959144
0.99955126
0.99951183
0.99947286
0.99943414
0.99939527
0.99935608
0.99931662
1.0003614
1.0003691
1.0003769
1.0003847
1.0003921
1.0003992
1.0004061
1.0004127
1.0004189
1.0004248
1.0004301
1.0004345
1.0004378
1.0004399
1.0004402
1.0004387
1.0004355
1.0004298
1.0004214
1.0004098
1.0003949
1.0003768
1.0003552
1.0003301
1.0003017
1.0002702
1.0002355
1.000198
1.000158
1.0001158
1.000072
1.000027
0.99998142
0.99993565
0.9998899
0.99984449
0.99979994
0.9997564
0.99971394
0.99967296
0.99963342
0.99959474
0.99955705
0.99952019
0.99948386
0.99944793
0.999412
0.99937593
0.99933973
1.0003434
1.0003499
1.0003564
1.0003628
1.0003689
1.0003748
1.0003805
1.0003858
1.0003907
1.0003955
1.0003995
1.0004027
1.0004049
1.0004059
1.0004053
1.000403
1.0003991
1.0003929
1.0003841
1.0003725
1.0003578
1.00034
1.0003191
1.0002949
1.0002676
1.0002375
1.0002045
1.0001688
1.0001308
1.0000908
1.0000493
1.0000067
0.9999635
0.99992017
0.99987686
0.99983387
0.99979169
0.99975044
0.99971022
0.99967138
0.9996339
0.99959726
0.99956162
0.99952682
0.9994926
0.99945884
0.9994252
0.99939154
0.99935788
1.0003265
1.0003318
1.0003371
1.0003425
1.0003475
1.0003524
1.000357
1.0003612
1.0003651
1.0003688
1.0003718
1.000374
1.0003753
1.0003754
1.000374
1.0003711
1.0003666
1.0003599
1.0003509
1.0003392
1.0003246
1.0003072
1.0002869
1.0002635
1.0002373
1.0002084
1.0001768
1.0001427
1.0001065
1.0000685
1.000029
0.99998855
0.99994756
0.99990642
0.99986531
0.99982452
0.99978451
0.99974539
0.99970727
0.99967047
0.999635
0.99960039
0.99956681
0.9995341
0.99950206
0.99947058
0.99943934
0.99940822
0.99937725
1.0003103
1.0003147
1.0003191
1.0003236
1.0003277
1.0003316
1.0003353
1.0003387
1.0003418
1.0003445
1.0003467
1.000348
1.0003485
1.0003479
1.0003458
1.0003423
1.0003373
1.0003303
1.000321
1.0003093
1.0002949
1.0002779
1.0002581
1.0002354
1.0002101
1.0001823
1.0001521
1.0001195
1.0000849
1.0000486
1.000011
0.9999725
0.99993349
0.99989435
0.99985525
0.99981647
0.99977843
0.99974126
0.99970504
0.99967008
0.99963641
0.9996036
0.99957181
0.99954093
0.99951075
0.9994812
0.99945199
0.99942299
0.99939428
1.000295
1.0002987
1.0003023
1.0003059
1.0003093
1.0003125
1.0003154
1.000318
1.0003203
1.0003223
1.0003237
1.0003244
1.0003242
1.0003229
1.0003203
1.0003163
1.0003109
1.0003036
1.0002941
1.0002824
1.0002682
1.0002514
1.0002321
1.0002102
1.0001858
1.000159
1.0001299
1.0000987
1.0000656
1.0000309
0.99999504
0.99995829
0.9999211
0.9998838
0.99984655
0.99980964
0.99977344
0.99973808
0.99970366
0.99967045
0.9996385
0.99960744
0.99957741
0.99954832
0.99951999
0.99949235
0.99946515
0.99943828
0.99941179
1.0002806
1.0002836
1.0002865
1.0002895
1.0002922
1.0002947
1.000297
1.000299
1.0003006
1.000302
1.0003027
1.0003027
1.0003019
1.0003001
1.0002971
1.0002927
1.0002869
1.0002793
1.0002698
1.000258
1.000244
1.0002276
1.0002088
1.0001875
1.0001638
1.000138
1.00011
1.00008
1.0000483
1.0000152
0.99998085
0.99994575
0.99991025
0.99987465
0.99983913
0.99980395
0.99976946
0.99973579
0.99970305
0.99967147
0.99964112
0.99961166
0.99958323
0.99955576
0.99952909
0.99950314
0.99947772
0.9994527
0.99942815
1.000267
1.0002694
1.0002718
1.0002741
1.0002763
1.0002782
1.00028
1.0002814
1.0002824
1.0002832
1.0002834
1.0002829
1.0002816
1.0002793
1.0002759
1.0002711
1.0002651
1.0002573
1.0002477
1.000236
1.0002221
1.000206
1.0001876
1.0001669
1.0001441
1.0001191
1.0000922
1.0000633
1.0000329
1.0000011
0.99996828
0.99993471
0.99990078
0.99986678
0.99983288
0.99979932
0.99976644
0.99973438
0.99970321
0.9996732
0.99964437
0.99961645
0.99958957
0.99956366
0.99953859
0.99951429
0.99949057
0.99946733
0.99944466
1.0002542
1.0002561
1.0002579
1.0002598
1.0002614
1.0002629
1.0002641
1.0002651
1.0002656
1.0002659
1.0002656
1.0002647
1.0002629
1.0002603
1.0002565
1.0002514
1.0002451
1.0002372
1.0002275
1.0002159
1.0002022
1.0001864
1.0001685
1.0001484
1.0001262
1.0001021
1.0000761
1.0000484
1.0000191
0.99998863
0.99995716
0.99992503
0.99989258
0.99986008
0.99982769
0.99979566
0.99976431
0.99973376
0.99970409
0.99967554
0.99964815
0.99962167
0.99959623
0.99957177
0.99954816
0.99952535
0.99950318
0.99948154
0.99946052
1.000242
1.0002435
1.0002449
1.0002464
1.0002476
1.0002486
1.0002494
1.0002499
1.0002501
1.0002499
1.0002492
1.0002478
1.0002457
1.0002427
1.0002386
1.0002333
1.0002268
1.0002188
1.0002091
1.0001975
1.000184
1.0001685
1.000151
1.0001315
1.00011
1.0000867
1.0000616
1.0000349
1.0000068
0.99997752
0.99994735
0.99991657
0.99988551
0.99985443
0.99982348
0.99979291
0.999763
0.99973388
0.99970564
0.99967848
0.99965247
0.99962737
0.9996033
0.99958022
0.99955801
0.99953663
0.99951593
0.9994958
0.99947635
1.0002306
1.0002317
1.0002327
1.0002338
1.0002346
1.0002352
1.0002357
1.0002358
1.0002356
1.000235
1.000234
1.0002323
1.0002298
1.0002265
1.0002222
1.0002167
1.00021
1.0002019
1.0001922
1.0001807
1.0001674
1.0001523
1.0001352
1.0001162
1.0000953
1.0000728
1.0000486
1.0000228
0.9999958
0.99996767
0.99993872
0.99990922
0.99987948
0.99984974
0.99982016
0.99979096
0.99976243
0.99973467
0.99970778
0.99968196
0.99965725
0.99963345
0.99961068
0.99958888
0.99956798
0.9995479
0.99952855
0.99950979
0.99949175
1.0002197
1.0002205
1.0002212
1.0002219
1.0002224
1.0002227
1.0002228
1.0002226
1.0002221
1.0002212
1.0002198
1.0002178
1.0002151
1.0002116
1.000207
1.0002014
1.0001946
1.0001864
1.0001767
1.0001653
1.0001522
1.0001374
1.0001207
1.0001022
1.000082
1.0000602
1.0000368
1.000012
0.99998597
0.99995894
0.99993115
0.99990287
0.99987438
0.99984592
0.99981764
0.99978975
0.99976253
0.99973607
0.99971048
0.99968592
0.99966245
0.99963989
0.99961835
0.99959779
0.99957812
0.99955929
0.99954119
0.99952372
0.999507
1.0002095
1.00021
1.0002104
1.0002108
1.000211
1.000211
1.0002108
1.0002103
1.0002095
1.0002083
1.0002067
1.0002044
1.0002014
1.0001977
1.0001929
1.0001872
1.0001803
1.0001721
1.0001624
1.0001512
1.0001383
1.0001238
1.0001075
1.0000895
1.0000699
1.0000488
1.0000262
1.0000023
0.99997721
0.99995122
0.99992454
0.99989742
0.99987012
0.99984288
0.99981584
0.99978921
0.99976323
0.99973802
0.99971365
0.9996903
0.99966802
0.99964664
0.99962626
0.99960685
0.99958833
0.99957065
0.99955373
0.99953744
0.99952192
1.0001997
1.0002
1.0002002
1.0002003
1.0002003
1.0002
1.0001995
1.0001988
1.0001977
1.0001963
1.0001944
1.0001919
1.0001887
1.0001848
1.0001799
1.000174
1.0001671
1.0001589
1.0001493
1.0001382
1.0001256
1.0001113
1.0000954
1.0000779
1.0000589
1.0000385
1.0000166
0.99999356
0.99996942
0.99994443
0.9999188
0.99989279
0.99986663
0.99984055
0.99981469
0.99978925
0.99976447
0.99974044
0.99971725
0.99969505
0.9996739
0.99965364
0.99963437
0.99961606
0.99959862
0.99958204
0.99956621
0.99955102
0.99953662
1.0001905
1.0001905
1.0001905
1.0001904
1.0001901
1.0001896
1.000189
1.000188
1.0001867
1.000185
1.0001829
1.0001802
1.0001769
1.0001728
1.0001678
1.0001619
1.0001549
1.0001467
1.0001372
1.0001262
1.0001138
1.0000999
1.0000844
1.0000674
1.0000489
1.0000291
1.000008
0.99998575
0.99996251
0.99993847
0.99991385
0.99988889
0.99986382
0.99983885
0.99981413
0.99978983
0.99976619
0.99974329
0.99972122
0.99970012
0.99968004
0.99966085
0.99964263
0.99962534
0.99960894
0.99959336
0.99957855
0.99956439
0.999551
1.0001817
1.0001815
1.0001813
1.000181
1.0001805
1.0001799
1.000179
1.0001778
1.0001763
1.0001745
1.0001722
1.0001693
1.0001658
1.0001616
1.0001565
1.0001505
1.0001435
1.0001354
1.000126
1.0001152
1.000103
1.0000894
1.0000743
1.0000577
1.0000398
1.0000206
1.0000003
0.99997878
0.99995639
0.99993326
0.99990962
0.99988566
0.99986164
0.99983773
0.99981409
0.99979088
0.99976833
0.99974651
0.99972551
0.99970546
0.99968641
0.99966822
0.999651
0.99963469
0.99961925
0.99960463
0.99959077
0.99957756
0.99956513
1.0001733
1.000173
1.0001726
1.0001721
1.0001714
1.0001706
1.0001695
1.0001682
1.0001665
1.0001646
1.0001621
1.0001591
1.0001555
1.0001512
1.000146
1.00014
1.000133
1.0001249
1.0001156
1.000105
1.000093
1.0000797
1.000065
1.0000489
1.0000315
1.000013
0.99999328
0.99997256
0.99995099
0.99992874
0.99990602
0.99988304
0.99986001
0.99983712
0.99981451
0.99979235
0.99977083
0.99975005
0.99973007
0.99971102
0.99969294
0.99967572
0.99965943
0.99964405
0.99962952
0.99961579
0.99960282
0.99959049
0.99957893
1.0001653
1.0001648
1.0001643
1.0001636
1.0001628
1.0001618
1.0001606
1.0001591
1.0001573
1.0001552
1.0001526
1.0001495
1.0001458
1.0001414
1.0001362
1.0001302
1.0001232
1.0001151
1.000106
1.0000955
1.0000838
1.0000708
1.0000565
1.0000409
1.000024
1.0000061
0.99998702
0.99996703
0.99994625
0.99992485
0.99990302
0.99988096
0.99985888
0.99983697
0.99981535
0.99979419
0.99977366
0.99975386
0.99973485
0.99971676
0.99969961
0.9996833
0.99966791
0.9996534
0.99963972
0.99962684
0.99961469
0.99960318
0.99959244
1.0001576
1.000157
1.0001563
1.0001556
1.0001546
1.0001535
1.0001522
1.0001506
1.0001486
1.0001464
1.0001437
1.0001405
1.0001367
1.0001322
1.000127
1.000121
1.000114
1.0001061
1.000097
1.0000868
1.0000754
1.0000627
1.0000487
1.0000335
1.0000172
0.99999981
0.99998141
0.99996213
0.99994211
0.99992152
0.99990054
0.99987937
0.99985821
0.99983723
0.99981655
0.99979634
0.99977676
0.9997579
0.99973982
0.99972263
0.99970636
0.99969093
0.99967638
0.99966269
0.99964982
0.99963773
0.99962636
0.99961561
0.99960561
1.0001502
1.0001495
1.0001487
1.0001479
1.0001468
1.0001456
1.0001441
1.0001424
1.0001404
1.000138
1.0001353
1.000132
1.0001281
1.0001236
1.0001184
1.0001124
1.0001055
1.0000977
1.0000888
1.0000787
1.0000675
1.0000551
1.0000416
1.0000268
1.000011
0.99999418
0.99997641
0.99995781
0.99993852
0.99991871
0.99989855
0.99987824
0.99985795
0.99983785
0.99981808
0.99979878
0.9997801
0.99976214
0.99974494
0.99972861
0.99971318
0.99969857
0.99968482
0.99967191
0.9996598
0.99964844
0.9996378
0.99962777
0.99961847
1.0001431
1.0001423
1.0001415
1.0001405
1.0001394
1.000138
1.0001365
1.0001347
1.0001326
1.0001301
1.0001273
1.0001239
1.0001201
1.0001156
1.0001104
1.0001044
1.0000976
1.0000898
1.0000811
1.0000712
1.0000603
1.0000482
1.000035
1.0000207
1.0000054
0.99998912
0.99997195
0.99995401
0.99993543
0.99991637
0.999897
0.9998775
0.99985805
0.9998388
0.99981989
0.99980145
0.99978364
0.99976653
0.99975017
0.99973466
0.99972002
0.99970619
0.9996932
0.99968102
0.99966963
0.99965896
0.999649
0.99963962
0.99963097
1.0001363
1.0001354
1.0001345
1.0001335
1.0001322
1.0001308
1.0001292
1.0001273
1.0001252
1.0001227
1.0001198
1.0001164
1.0001125
1.000108
1.0001028
1.0000969
1.0000901
1.0000825
1.0000739
1.0000643
1.0000536
1.0000419
1.0000291
1.0000152
1.0000003
0.99998457
0.999968
0.99995069
0.9999328
0.99991446
0.99989585
0.99987713
0.99985847
0.99984004
0.99982195
0.99980434
0.99978735
0.99977104
0.99975548
0.99974075
0.99972686
0.99971376
0.99970149
0.99969001
0.99967928
0.99966927
0.99965994
0.99965118
0.99964312
1.0001297
1.0001288
1.0001278
1.0001267
1.0001254
1.0001239
1.0001222
1.0001203
1.0001181
1.0001155
1.0001126
1.0001092
1.0001053
1.0001008
1.0000957
1.0000898
1.0000832
1.0000757
1.0000673
1.0000579
1.0000475
1.000036
1.0000236
1.0000101
0.99999574
0.99998052
0.99996451
0.99994782
0.99993059
0.99991295
0.99989506
0.99987708
0.9998592
0.99984154
0.99982423
0.9998074
0.99979119
0.99977565
0.99976084
0.99974684
0.99973367
0.99972127
0.99970967
0.99969884
0.99968874
0.99967934
0.99967059
0.99966241
0.99965491
1.0001233
1.0001223
1.0001213
1.0001201
1.0001188
1.0001173
1.0001156
1.0001136
1.0001114
1.0001088
1.0001058
1.0001024
1.0000985
1.0000941
1.000089
1.0000832
1.0000767
1.0000693
1.0000611
1.0000519
1.0000418
1.0000307
1.0000186
1.0000055
0.99999161
0.9999769
0.99996145
0.99994537
0.99992877
0.99991179
0.9998946
0.99987734
0.99986018
0.99984326
0.9998267
0.99981062
0.99979514
0.99978033
0.99976623
0.99975293
0.99974043
0.99972868
0.99971771
0.99970749
0.99969798
0.99968915
0.99968096
0.99967331
0.99966632
1.0001171
1.0001161
1.000115
1.0001139
1.0001125
1.000111
1.0001092
1.0001072
1.0001049
1.0001023
1.0000994
1.000096
1.0000921
1.0000877
1.0000827
1.000077
1.0000706
1.0000634
1.0000553
1.0000464
1.0000365
1.0000257
1.000014
1.0000014
0.99998792
0.9999737
0.9999588
0.99994329
0.99992731
0.99991097
0.99989444
0.99987787
0.99986141
0.99984519
0.99982934
0.99981396
0.99979918
0.99978505
0.99977163
0.99975898
0.99974711
0.99973597
0.99972559
0.99971594
0.99970698
0.99969867
0.99969099
0.99968384
0.99967732
1.0001111
1.0001101
1.000109
1.0001078
1.0001064
1.0001048
1.0001031
1.0001011
1.0000988
1.0000962
1.0000932
1.0000899
1.000086
1.0000817
1.0000767
1.0000711
1.0000649
1.0000578
1.00005
1.0000413
1.0000317
1.0000212
1.0000099
0.99999763
0.99998461
0.99997089
0.99995651
0.99994156
0.99992617
0.99991046
0.99989457
0.99987865
0.99986285
0.9998473
0.99983212
0.99981741
0.99980328
0.9997898
0.99977701
0.99976496
0.99975368
0.99974311
0.99973328
0.99972416
0.99971572
0.9997079
0.9997007
0.999694
0.99968792
1.0001052
1.0001042
1.0001031
1.0001019
1.0001005
1.000099
1.0000972
1.0000952
1.0000929
1.0000903
1.0000874
1.0000841
1.0000803
1.000076
1.0000711
1.0000657
1.0000595
1.0000527
1.000045
1.0000365
1.0000272
1.0000171
1.0000061
0.99999425
0.99998168
0.99996843
0.99995456
0.99994017
0.99992535
0.99991023
0.99989495
0.99987965
0.99986449
0.99984958
0.99983503
0.99982094
0.99980743
0.99979455
0.99978234
0.99977086
0.99976013
0.99975009
0.99974077
0.99973214
0.99972416
0.99971679
0.99971002
0.99970374
0.99969806
1.0000996
1.0000986
1.0000974
1.0000962
1.0000948
1.0000933
1.0000915
1.0000895
1.0000873
1.0000847
1.0000818
1.0000785
1.0000748
1.0000706
1.0000658
1.0000605
1.0000545
1.0000478
1.0000404
1.0000322
1.0000231
1.0000133
1.0000026
0.99999122
0.99997909
0.99996631
0.99995294
0.99993908
0.99992481
0.99991026
0.99989557
0.99988087
0.99986631
0.999852
0.99983805
0.99982455
0.99981161
0.99979928
0.99978761
0.99977666
0.99976642
0.99975687
0.99974801
0.99973983
0.99973228
0.99972534
0.99971896
0.99971307
0.99970775
1.000094
1.000093
1.0000919
1.0000907
1.0000893
1.0000878
1.0000861
1.0000841
1.0000819
1.0000794
1.0000765
1.0000733
1.0000696
1.0000655
1.0000609
1.0000556
1.0000498
1.0000433
1.0000361
1.0000281
1.0000194
1.0000098
0.99999956
0.99998853
0.99997682
0.9999645
0.99995162
0.99993827
0.99992454
0.99991055
0.99989642
0.9998823
0.9998683
0.99985456
0.99984117
0.99982821
0.9998158
0.99980398
0.9997928
0.99978231
0.99977253
0.99976342
0.99975499
0.99974721
0.99974005
0.99973348
0.99972746
0.99972192
0.99971692
1.0000886
1.0000877
1.0000866
1.0000854
1.000084
1.0000825
1.0000808
1.0000789
1.0000767
1.0000742
1.0000714
1.0000683
1.0000647
1.0000607
1.0000561
1.0000511
1.0000454
1.0000391
1.0000321
1.0000244
1.0000159
1.0000067
0.99999678
0.99998614
0.99997485
0.99996298
0.99995059
0.99993774
0.99992453
0.99991107
0.99989748
0.99988391
0.99987046
0.99985725
0.99984437
0.99983191
0.99981998
0.99980862
0.99979788
0.99978782
0.99977844
0.99976972
0.99976167
0.99975426
0.99974747
0.99974124
0.99973555
0.99973033
0.99972564
1.0000834
1.0000824
1.0000814
1.0000802
1.0000789
1.0000774
1.0000757
1.0000738
1.0000717
1.0000693
1.0000666
1.0000635
1.00006
1.0000561
1.0000517
1.0000468
1.0000413
1.0000351
1.0000284
1.0000209
1.0000127
1.0000039
0.99999429
0.99998404
0.99997317
0.99996174
0.99994982
0.99993747
0.99992476
0.99991181
0.99989875
0.9998857
0.99987277
0.99986005
0.99984765
0.99983564
0.99982413
0.99981318
0.99980284
0.99979315
0.99978414
0.99977577
0.99976805
0.99976097
0.99975448
0.99974854
0.99974314
0.99973819
0.99973376
1.0000782
1.0000773
1.0000763
1.0000752
1.0000739
1.0000724
1.0000708
1.000069
1.0000669
1.0000646
1.0000619
1.0000589
1.0000556
1.0000518
1.0000475
1.0000427
1.0000374
1.0000315
1.0000249
1.0000177
1.0000098
1.0000013
0.99999208
0.99998221
0.99997175
0.99996077
0.99994931
0.99993743
0.99992522
0.99991277
0.99990022
0.99988767
0.99987522
0.99986296
0.99985099
0.99983939
0.99982826
0.99981767
0.99980767
0.99979831
0.9997896
0.99978154
0.99977413
0.99976733
0.99976113
0.99975547
0.99975034
0.99974566
0.99974148
1.0000732
1.0000724
1.0000714
1.0000703
1.000069
1.0000676
1.0000661
1.0000643
1.0000623
1.00006
1.0000575
1.0000546
1.0000513
1.0000476
1.0000435
1.0000389
1.0000338
1.000028
1.0000217
1.0000148
1.0000072
0.99999899
0.99999012
0.99998064
0.99997059
0.99996004
0.99994904
0.99993763
0.9999259
0.99991394
0.99990188
0.99988981
0.99987781
0.99986598
0.99985439
0.99984314
0.99983235
0.99982207
0.99981236
0.99980329
0.99979486
0.99978706
0.9997799
0.99977334
0.99976737
0.99976193
0.999757
0.99975251
0.99974851
1.0000683
1.0000675
1.0000666
1.0000655
1.0000643
1.000063
1.0000615
1.0000598
1.0000578
1.0000557
1.0000532
1.0000504
1.0000473
1.0000437
1.0000398
1.0000353
1.0000304
1.0000249
1.0000188
1.0000121
1.0000048
0.99999693
0.99998841
0.99997931
0.99996967
0.99995955
0.999949
0.99993806
0.99992679
0.99991532
0.99990374
0.99989212
0.99988055
0.99986909
0.99985784
0.99984691
0.99983641
0.9998264
0.99981696
0.99980812
0.99979993
0.99979235
0.9997854
0.99977906
0.9997733
0.99976808
0.99976337
0.9997591
0.99975532
1.0000636
1.0000628
1.0000619
1.0000609
1.0000597
1.0000585
1.000057
1.0000554
1.0000535
1.0000514
1.0000491
1.0000464
1.0000434
1.00004
1.0000362
1.0000319
1.0000272
1.0000219
1.0000161
1.0000097
1.0000027
0.9999951
0.99998694
0.99997821
0.99996898
0.99995929
0.99994919
0.9999387
0.9999279
0.9999169
0.99990579
0.99989461
0.99988342
0.9998723
0.99986136
0.99985071
0.99984047
0.9998307
0.99982148
0.99981285
0.99980483
0.99979743
0.99979064
0.99978444
0.99977881
0.99977371
0.99976911
0.99976492
0.99976122
1.000059
1.0000582
1.0000573
1.0000564
1.0000553
1.0000541
1.0000527
1.0000511
1.0000493
1.0000474
1.0000451
1.0000426
1.0000397
1.0000365
1.0000328
1.0000287
1.0000242
1.0000191
1.0000135
1.0000074
1.0000007
0.99999348
0.99998568
0.99997734
0.99996851
0.99995924
0.99994959
0.99993955
0.99992922
0.99991869
0.99990804
0.99989726
0.99988643
0.99987563
0.99986497
0.99985458
0.99984458
0.99983502
0.99982598
0.99981751
0.99980963
0.99980235
0.99979567
0.9997896
0.99978409
0.99977913
0.9997747
0.9997707
0.99976719
1.0000545
1.0000538
1.000053
1.0000521
1.000051
1.0000498
1.0000485
1.000047
1.0000453
1.0000434
1.0000413
1.0000389
1.0000361
1.0000331
1.0000296
1.0000257
1.0000214
1.0000166
1.0000112
1.0000054
0.99999899
0.99999207
0.99998462
0.99997666
0.99996824
0.9999594
0.99995019
0.9999406
0.99993074
0.99992069
0.99991048
0.99990009
0.99988958
0.99987908
0.99986871
0.99985858
0.99984879
0.99983943
0.99983053
0.99982215
0.99981434
0.99980709
0.99980043
0.99979435
0.99978883
0.99978383
0.99977933
0.99977525
0.99977166
1.0000503
1.0000496
1.0000488
1.0000479
1.0000469
1.0000458
1.0000445
1.0000431
1.0000415
1.0000397
1.0000376
1.0000353
1.0000327
1.0000298
1.0000266
1.0000229
1.0000188
1.0000142
1.0000091
1.0000035
0.99999744
0.99999086
0.99998376
0.99997619
0.99996817
0.99995976
0.99995099
0.99994185
0.99993246
0.9999229
0.99991311
0.99990308
0.9998929
0.99988271
0.99987263
0.99986276
0.99985319
0.99984397
0.99983516
0.99982682
0.99981899
0.99981171
0.99980501
0.99979891
0.9997934
0.99978846
0.99978407
0.99978018
0.99977678
1.0000463
1.0000456
1.0000449
1.000044
1.0000431
1.000042
1.0000407
1.0000394
1.0000378
1.0000361
1.0000341
1.0000319
1.0000295
1.0000267
1.0000236
1.0000202
1.0000163
1.000012
1.0000072
1.0000019
0.99999608
0.99998982
0.99998309
0.99997589
0.99996828
0.9999603
0.99995198
0.9999433
0.9999344
0.99992531
0.99991593
0.99990626
0.99989642
0.99988657
0.99987681
0.99986722
0.99985784
0.99984872
0.99983993
0.99983153
0.99982358
0.99981614
0.99980924
0.9998029
0.99979712
0.99979188
0.99978716
0.99978289
0.99977912
1.0000425
1.0000419
1.0000411
1.0000403
1.0000394
1.0000384
1.0000372
1.0000358
1.0000343
1.0000327
1.0000308
1.0000287
1.0000263
1.0000237
1.0000209
1.0000176
1.000014
1.0000099
1.0000054
1.0000003
0.99999488
0.99998896
0.99998258
0.99997577
0.99996856
0.99996101
0.99995314
0.99994492
0.99993652
0.99992791
0.99991893
0.99990963
0.99990017
0.99989072
0.99988133
0.99987201
0.99986281
0.99985375
0.9998449
0.99983636
0.9998282
0.99982051
0.99981336
0.99980681
0.9998009
0.99979563
0.99979101
0.99978699
0.99978351
1.0000389
1.0000383
1.0000376
1.0000368
1.0000359
1.0000349
1.0000338
1.0000325
1.0000311
1.0000295
1.0000276
1.0000256
1.0000234
1.0000209
1.0000182
1.0000152
1.0000118
1.000008
1.0000037
0.999999
0.99999384
0.99998825
0.99998224
0.99997581
0.99996901
0.9999619
0.99995448
0.99994674
0.99993884
0.9999307
0.99992211
0.9999132
0.9999042
0.99989521
0.99988622
0.99987719
0.99986814
0.9998591
0.99985014
0.99984137
0.99983287
0.99982474
0.99981707
0.99980992
0.99980333
0.9997973
0.99979183
0.99978687
0.99978249
1.0000354
1.0000349
1.0000342
1.0000335
1.0000326
1.0000317
1.0000306
1.0000294
1.000028
1.0000265
1.0000247
1.0000228
1.0000206
1.0000183
1.0000157
1.0000129
1.0000097
1.0000062
1.0000023
0.99999781
0.99999296
0.99998771
0.99998207
0.99997603
0.99996965
0.99996298
0.99995603
0.99994877
0.99994141
0.99993373
0.99992552
0.99991708
0.99990863
0.99990015
0.99989156
0.99988282
0.99987391
0.99986487
0.99985577
0.99984671
0.99983782
0.99982921
0.99982102
0.9998134
0.99980646
0.99980029
0.99979492
0.9997904
0.99978655
1.0000321
1.0000316
1.0000309
1.0000302
1.0000294
1.0000285
1.0000275
1.0000263
1.000025
1.0000236
1.000022
1.0000201
1.0000181
1.0000158
1.0000134
1.0000107
1.0000078
1.0000046
1.0000009
0.99999675
0.9999922
0.99998729
0.99998199
0.99997634
0.99997037
0.99996414
0.99995766
0.99995091
0.99994411
0.9999369
0.99992913
0.99992131
0.9999135
0.99990561
0.99989748
0.99988906
0.99988033
0.99987131
0.99986205
0.99985263
0.99984315
0.99983374
0.99982454
0.99981568
0.99980728
0.99979939
0.99979212
0.99978541
0.99977951
1.0000289
1.0000284
1.0000277
1.000027
1.0000262
1.0000254
1.0000244
1.0000233
1.0000221
1.0000208
1.0000193
1.0000176
1.0000157
1.0000136
1.0000112
1.0000087
1.000006
1.000003
0.99999961
0.99999577
0.99999151
0.99998691
0.99998195
0.99997666
0.99997107
0.99996526
0.99995922
0.99995296
0.99994671
0.99993989
0.99993263
0.99992556
0.99991848
0.99991124
0.99990366
0.99989571
0.99988733
0.99987851
0.99986925
0.99985959
0.99984961
0.99983945
0.99982932
0.9998195
0.99981025
0.9998019
0.99979464
0.99978871
0.9997839
1.0000257
1.0000251
1.0000245
1.0000238
1.000023
1.0000222
1.0000213
1.0000203
1.0000193
1.0000181
1.0000168
1.0000153
1.0000135
1.0000116
1.0000093
1.0000069
1.0000043
1.0000015
0.99999846
0.99999496
0.99999104
0.99998681
0.99998226
0.99997741
0.99997229
0.99996694
0.99996134
0.99995558
0.99994981
0.99994327
0.99993658
0.99993029
0.99992383
0.99991717
0.99991009
0.99990264
0.99989466
0.99988614
0.99987695
0.99986711
0.99985658
0.99984543
0.99983373
0.99982163
0.9998093
0.9997971
0.99978518
0.99977398
0.99976378
1.0000226
1.000022
1.0000213
1.0000206
1.0000199
1.0000191
1.0000183
1.0000174
1.0000164
1.0000154
1.0000142
1.0000128
1.0000113
1.0000096
1.0000075
1.0000053
1.0000028
1.0000003
0.99999754
0.99999443
0.99999094
0.99998716
0.99998311
0.99997879
0.99997424
0.99996948
0.99996449
0.99995943
0.9999543
0.99994833
0.99994246
0.99993718
0.99993134
0.9999254
0.99991888
0.99991206
0.99990453
0.99989641
0.99988728
0.99987727
0.99986602
0.99985374
0.99984044
0.99982658
0.99981292
0.99980025
0.99978887
0.99978025
0.99977244
1.0000193
1.0000185
1.0000176
1.0000168
1.000016
1.0000153
1.0000146
1.0000139
1.0000132
1.0000123
1.0000114
1.0000103
1.0000091
1.0000077
1.0000059
1.0000039
1.0000015
0.99999897
0.99999637
0.99999349
0.99999021
0.9999866
0.99998269
0.9999785
0.99997411
0.99996965
0.99996508
0.99996058
0.99995598
0.99995078
0.99994613
0.99994196
0.99993716
0.99993246
0.99992715
0.99992168
0.99991542
0.99990864
0.99990066
0.99989169
0.99988093
0.9998684
0.99985364
0.99983637
0.99981762
0.99979478
0.99976942
0.99974191
0.99971238
1.0000147
1.0000137
1.0000131
1.0000126
1.0000123
1.0000119
1.0000115
1.0000112
1.0000108
1.0000103
1.0000097
1.0000089
1.0000078
1.0000065
1.0000048
1.0000028
1.0000002
0.99999743
0.99999468
0.99999177