/*--------------------------------*- C++ -*----------------------------------*\
| =========                 |                                                 |
| \\      /  F ield         | OpenFOAM: The Open Source CFD Toolbox           |
|  \\    /   O peration     | Version:  v2006                                 |
|   \\  /    A nd           | Website:  www.openfoam.com                      |
|    \\/     M anipulation  |                                                 |
\*---------------------------------------------------------------------------*/
FoamFile
{
    version     2.0;
    format      ascii;
    class       volVectorField;
    location    "3000";
    object      U;
}
// * * * * * * * * * * * * * * * * * * * * * * * * * * * * * * * * * * * * * //

dimensions      [0 1 -1 0 0 0 0];


internalField   nonuniform List<vector> 
19765
(
(0.087541431 0.028533112 -9.1867879e-20)
(0.084738657 0.031449645 9.2432813e-20)
(0.077880685 0.033229993 -9.4811531e-20)
(0.070140149 0.033427678 0)
(0.063492477 0.032606894 0)
(0.057457021 0.030942093 2.3316596e-19)
(0.051261125 0.028484747 -1.862347e-19)
(0.045681024 0.025706516 0)
(0.040247676 0.022371364 4.7107159e-19)
(0.034395351 0.018290352 4.0114465e-20)
(0.02959186 0.014018187 -8.0796295e-19)
(0.0258139 0.0094896089 8.0462629e-19)
(0.022451938 0.0047540449 -9.0759985e-19)
(0.019625087 -0.00012495627 -1.0499876e-18)
(0.017576875 -0.0051342883 1.2366263e-18)
(0.015984536 -0.010402647 0)
(0.014639814 -0.015507013 -2.2814299e-20)
(0.013714461 -0.02061449 1.8005788e-20)
(0.013205716 -0.025855702 -9.4175164e-19)
(0.013110531 -0.031193119 7.9005952e-19)
(0.013425847 -0.036674385 -3.393964e-19)
(0.014114233 -0.042029362 5.8780362e-19)
(0.015193184 -0.047238516 -2.6606336e-19)
(0.016738177 -0.052691576 1.122145e-20)
(0.01871294 -0.058129777 -5.4810576e-20)
(0.020874036 -0.062771638 4.3186789e-20)
(0.023224557 -0.066915801 -1.9068845e-19)
(0.0260252 -0.071418152 1.8128108e-19)
(0.029108195 -0.07576751 0)
(0.032301322 -0.079587793 3.3407623e-19)
(0.035868161 -0.083477792 -3.1849157e-19)
(0.040012198 -0.0875174 6.108245e-19)
(0.045352607 -0.091781227 -5.8931061e-19)
(0.051193609 -0.095530171 2.8403496e-19)
(0.056108287 -0.097824909 -2.7985508e-19)
(0.0607309 -0.099594562 -2.6545129e-19)
(0.066850089 -0.10181306 1.8809417e-22)
(0.07342651 -0.10358304 5.1601234e-19)
(0.079457955 -0.10440351 -2.7219832e-19)
(0.0871617 -0.10528942 -2.4701831e-19)
(0.096112379 -0.10570967 2.4169119e-19)
(0.1022032 -0.10420604 -1.5063601e-20)
(0.10759495 -0.10182183 -2.97083e-20)
(0.11283856 -0.098696295 1.1930784e-19)
(0.1159437 -0.094644145 -2.7020684e-19)
(0.11837691 -0.089828037 1.2080666e-19)
(0.11837359 -0.084412041 0)
(0.11720384 -0.078947591 -1.2703297e-19)
(0.11587791 -0.074034719 0)
(0.07901975 0.016514061 1.4979305e-19)
(0.075990985 0.019131422 1.4423357e-19)
(0.072441834 0.021233322 -6.8544868e-20)
(0.068606491 0.022027616 6.8052251e-20)
(0.064723396 0.021916583 -3.3622194e-19)
(0.061023398 0.021101841 2.665316e-19)
(0.057440064 0.019769246 -3.2588405e-20)
(0.054142829 0.018047793 2.5854941e-19)
(0.051004381 0.015941582 3.1548452e-20)
(0.047859097 0.013601614 -2.9578143e-19)
(0.044940892 0.010899672 1.5760737e-20)
(0.042432945 0.0077770061 4.7830957e-19)
(0.040207641 0.0042925447 -7.7342227e-19)
(0.038297824 0.00057243141 2.3079285e-19)
(0.036874953 -0.0033413891 -2.7048956e-19)
(0.035743217 -0.007443236 3.1201416e-19)
(0.034737312 -0.011702923 -1.808727e-20)
(0.034074996 -0.016076808 0)
(0.033858066 -0.020541033 1.9592081e-20)
(0.03404871 -0.025059474 -2.9780684e-19)
(0.034605106 -0.02958108 2.5986958e-19)
(0.03542622 -0.034136927 2.0251522e-20)
(0.036585183 -0.038667711 7.5929791e-21)
(0.038160909 -0.043084223 -1.0698988e-20)
(0.040000492 -0.047404713 -2.7005242e-20)
(0.041946517 -0.051723636 2.2572186e-20)
(0.044109053 -0.055960844 9.2358185e-20)
(0.046595077 -0.060006558 -2.9495618e-19)
(0.04933312 -0.063919567 3.645818e-19)
(0.05230385 -0.067678354 -1.7599523e-19)
(0.055565655 -0.071185095 1.0610781e-20)
(0.059187364 -0.074347392 0)
(0.063152167 -0.077032404 1.690491e-19)
(0.06726858 -0.079317197 -7.1513186e-23)
(0.071427122 -0.081351384 -1.5655827e-19)
(0.075723256 -0.083095927 -1.7331783e-19)
(0.080219906 -0.084365555 6.9987446e-23)
(0.084820263 -0.085127562 -1.3333017e-19)
(0.08947906 -0.085380678 1.4230191e-19)
(0.094207861 -0.084949909 1.5080036e-19)
(0.098858589 -0.083682107 1.7327217e-19)
(0.1033952 -0.081628157 -3.1913766e-19)
(0.10783126 -0.079193749 1.8232508e-19)
(0.11211272 -0.07610207 -2.1156628e-20)
(0.11603356 -0.072995571 -8.7079252e-20)
(0.11954357 -0.069764234 1.801268e-19)
(0.12257923 -0.066626323 -1.3989755e-19)
(0.12513242 -0.063937488 -4.8121513e-20)
(0.1273373 -0.061394335 9.911193e-20)
(0.08280109 0.01573926 8.1490911e-20)
(0.080511245 0.015873947 4.2883164e-24)
(0.077850834 0.015841649 1.5883886e-19)
(0.074962057 0.015688962 -1.9985073e-24)
(0.072092885 0.015153043 -2.4949123e-19)
(0.069266826 0.014325777 3.4316585e-19)
(0.066532894 0.013190159 -8.7268794e-20)
(0.063913863 0.011866914 0)
(0.061447254 0.010246388 0)
(0.05897021 0.0084584331 4.7924688e-20)
(0.05666639 0.006390813 0)
(0.05461083 0.0039868821 5.3237246e-20)
(0.052751869 0.0012907691 5.0763147e-19)
(0.051144905 -0.0016252074 6.0662878e-19)
(0.049894777 -0.0047475571 -1.0535912e-18)
(0.048880223 -0.0080645941 -3.0747326e-23)
(0.048016182 -0.011543134 4.0395092e-20)
(0.047426596 -0.015162581 -7.4344155e-19)
(0.047167617 -0.018918186 8.280697e-19)
(0.047255063 -0.022755656 0)
(0.047670517 -0.026623107 5.0787495e-20)
(0.048314381 -0.030576073 -1.4828709e-23)
(0.049312502 -0.034522882 -1.7777968e-20)
(0.050678593 -0.038395991 -3.0827334e-20)
(0.052265266 -0.042190425 1.0878509e-19)
(0.053979521 -0.045979705 -1.2396773e-20)
(0.055982588 -0.049690457 -1.6889357e-19)
(0.058310472 -0.053235152 5.1773032e-19)
(0.060843163 -0.056670343 -3.096511e-19)
(0.063617058 -0.059949365 3.6307397e-20)
(0.066646111 -0.062988885 2.5682696e-19)
(0.069904215 -0.065737171 -5.5296541e-19)
(0.073380475 -0.068098992 -2.6394326e-19)
(0.07690723 -0.070220701 4.8310865e-19)
(0.080484312 -0.072171837 4.6950194e-19)
(0.084181019 -0.073806419 -4.2494636e-19)
(0.087988599 -0.074996921 0)
(0.091788389 -0.075906938 1.8870815e-19)
(0.095617205 -0.076455782 -2.1039407e-19)
(0.099424655 -0.076519081 2.3084626e-19)
(0.10310175 -0.07629705 -2.3028638e-19)
(0.1066111 -0.076003085 0)
(0.1100206 -0.075316444 0)
(0.11313956 -0.074358675 2.5663253e-20)
(0.1160511 -0.073203884 0)
(0.11862477 -0.072019533 -5.1109212e-20)
(0.12094911 -0.070725952 2.0190825e-19)
(0.12307076 -0.06934701 -9.9883264e-20)
(0.12502782 -0.067825606 0)
(0.08185444 0.011118518 -8.5756296e-20)
(0.080197151 0.011230446 -2.5473379e-19)
(0.078483151 0.011164376 8.2687023e-20)
(0.076680126 0.010975888 -4.2306213e-19)
(0.07485659 0.01049995 3.4518058e-19)
(0.073040288 0.0098036954 3.5588642e-19)
(0.071251316 0.0088632726 -2.7111779e-19)
(0.069524861 0.0077826241 3.7573811e-19)
(0.06784353 0.0064465937 4.8938626e-23)
(0.066162961 0.0050054368 -8.9103216e-19)
(0.064571821 0.0033604786 5.1818533e-19)
(0.06312017 0.0014499635 0)
(0.061784864 -0.00069684455 -5.7230521e-20)
(0.060620722 -0.0030107806 -1.0362507e-18)
(0.05969948 -0.0055229388 1.1785793e-18)
(0.058948261 -0.0082319778 1.0641437e-18)
(0.058319892 -0.011069147 -2.5055523e-18)
(0.057907611 -0.014030221 1.4181087e-18)
(0.057770667 -0.017146426 -8.2758104e-19)
(0.057921332 -0.020338187 1.0105425e-18)
(0.058356918 -0.023548805 0)
(0.059002416 -0.026863829 -5.7352788e-19)
(0.05992405 -0.030171325 6.6934714e-19)
(0.061129061 -0.033431586 -3.6755097e-19)
(0.062540235 -0.036638153 6.1756367e-20)
(0.064106366 -0.039842971 -7.3354505e-24)
(0.065920815 -0.042969674 -1.9481686e-19)
(0.067995452 -0.045939397 5.3424531e-19)
(0.070250285 -0.048790425 -3.3202659e-19)
(0.072701875 -0.05147906 -3.5051995e-19)
(0.07534187 -0.053936909 2.9477407e-19)
(0.078135526 -0.056133003 6.6726238e-19)
(0.081052759 -0.05800473 -1.7936663e-22)
(0.083994254 -0.059660416 -5.9291616e-19)
(0.086980479 -0.061148365 4.5109642e-19)
(0.090036751 -0.06237068 -5.0119382e-19)
(0.093111629 -0.063241214 4.8814899e-19)
(0.096136918 -0.063878336 -9.6587235e-19)
(0.099149253 -0.064242956 5.030306e-19)
(0.10208296 -0.064263238 2.0279578e-19)
(0.10488097 -0.06405441 -2.3161504e-19)
(0.10762534 -0.063748238 -5.8239016e-20)
(0.11036763 -0.063166539 2.2834154e-19)
(0.11297134 -0.062465648 -2.3171194e-19)
(0.11554873 -0.06154051 0)
(0.1180268 -0.060453807 1.151894e-19)
(0.12049156 -0.059255529 -5.6957248e-20)
(0.12290149 -0.057999712 0)
(0.12526535 -0.056739273 0)
(0.082815992 0.0089453695 -8.0081995e-20)
(0.08148915 0.0085673479 -2.3734626e-19)
(0.080125564 0.0081456341 3.0788606e-19)
(0.078730089 0.0077305722 7.836683e-20)
(0.077343776 0.0071636106 2.3863433e-19)
(0.075973533 0.0064804331 -2.4440839e-19)
(0.074628032 0.0056424759 2.469852e-19)
(0.07332846 0.0047143498 -4.2434871e-19)
(0.07206446 0.0035986126 -8.6087526e-20)
(0.070802067 0.0023971696 1.7626028e-19)
(0.069606183 0.0010293239 -8.2177555e-19)
(0.068508421 -0.00055371132 8.5291725e-19)
(0.067495812 -0.0023346825 9.8466608e-20)
(0.066609644 -0.004268439 8.2745283e-19)
(0.065902123 -0.0063813555 -1.0935084e-19)
(0.065327201 -0.0086667504 -9.3034813e-19)
(0.064857294 -0.011073773 0)
(0.064562402 -0.013608482 0)
(0.064491548 -0.016296088 0)
(0.064659134 -0.01908633 -5.3916418e-19)
(0.065066401 -0.021937757 8.0544079e-19)
(0.065669723 -0.024865893 -8.2238664e-19)
(0.066512645 -0.027783256 5.1734876e-19)
(0.0676104 -0.030673112 -6.2231722e-20)
(0.068907428 -0.033521177 1.0484258e-23)
(0.07035779 -0.036356243 2.4274758e-20)
(0.072019545 -0.03910969 4.3926849e-20)
(0.073899413 -0.041726214 -8.0739825e-20)
(0.07593626 -0.044235176 2.267422e-19)
(0.078132211 -0.046592064 -2.8530977e-19)
(0.080474355 -0.048745869 0)
(0.082930623 -0.05067771 -5.8474074e-19)
(0.085472283 -0.052339696 1.0027979e-18)
(0.088023031 -0.053823647 -4.3008807e-19)
(0.090587871 -0.055161575 -4.2222505e-19)
(0.093181555 -0.056275744 1.4186505e-22)
(0.09576946 -0.057107197 9.2263109e-19)
(0.098299456 -0.057767967 -4.5782063e-19)
(0.10079384 -0.058224532 0)
(0.10321856 -0.058425591 0)
(0.10553795 -0.058485491 -1.6628237e-19)
(0.10779559 -0.058537386 2.2340953e-19)
(0.11003726 -0.058383585 5.4953352e-20)
(0.11217775 -0.058230164 3.347653e-19)
(0.11430527 -0.057937961 -5.5249787e-20)
(0.11636007 -0.057626655 -2.7923354e-19)
(0.11838177 -0.057253747 5.579771e-20)
(0.12036701 -0.056734195 0)
(0.12231281 -0.05603109 -3.6339517e-23)
(0.083590851 0.0066615058 4.2234077e-24)
(0.08260473 0.0062893947 -5.8075037e-24)
(0.081599547 0.0058605795 0)
(0.080571742 0.0054155641 -3.6201636e-19)
(0.079553866 0.0048518806 7.3126465e-20)
(0.078545295 0.0041965276 2.2354327e-19)
(0.077547465 0.003422935 7.4970929e-20)
(0.076579141 0.0025750546 1.5359788e-19)
(0.075629373 0.0015823763 7.7519171e-20)
(0.074675255 0.0005130365 -1.5767099e-19)
(0.073769677 -0.00069166603 0)
(0.072937994 -0.0020685001 -2.5019741e-19)
(0.072171406 -0.0036082385 -8.5902192e-20)
(0.071503348 -0.0052813559 1.784822e-19)
(0.070976734 -0.007106566 0)
(0.070559942 -0.0090799553 -1.9569631e-19)
(0.070234876 -0.01116726 1.0385283e-18)
(0.070058533 -0.013371527 -8.9577734e-19)
(0.070073491 -0.015706181 0)
(0.07029497 -0.018130718 9.6429851e-19)
(0.070732433 -0.020610172 -1.2767124e-18)
(0.071353235 -0.023149744 7.8418788e-19)
(0.072178455 -0.025691631 -4.5343036e-19)
(0.073228855 -0.028222283 1.1000814e-19)
(0.074461339 -0.030716969 -9.6568558e-20)
(0.075839068 -0.033191893 -1.3013145e-19)
(0.077399711 -0.03559183 1.184555e-19)
(0.079145857 -0.037870044 3.6477711e-19)
(0.081030759 -0.040043644 -6.1736999e-19)
(0.083048775 -0.042078017 1.3151517e-22)
(0.08518349 -0.043933742 4.9699391e-19)
(0.087406098 -0.045595631 4.7828442e-19)
(0.089689426 -0.047028818 -4.634196e-19)
(0.091976892 -0.048297866 -1.1384523e-19)
(0.094268809 -0.049428379 0)
(0.096569134 -0.050370567 4.3950361e-19)
(0.098848779 -0.051086272 -1.0855011e-22)
(0.10107124 -0.051650687 -4.2926796e-19)
(0.10325173 -0.052046474 0)
(0.10536606 -0.05224401 0)
(0.10739429 -0.052316136 -1.0460763e-19)
(0.1093678 -0.052342262 5.2691491e-20)
(0.1113321 -0.052208405 -5.1945209e-20)
(0.11322419 -0.052030667 -5.2712571e-19)
(0.11512292 -0.051728183 4.6989326e-19)
(0.11699025 -0.051359861 0)
(0.11887642 -0.05089898 -5.269213e-20)
(0.12077442 -0.050346052 0)
(0.12267908 -0.049665657 2.0762569e-19)
(0.08466531 0.0051453667 6.9328433e-20)
(0.083862166 0.0046833217 -1.3662307e-19)
(0.083048842 0.0041992638 -2.6561661e-19)
(0.082229516 0.0037192847 5.3678872e-19)
(0.081427859 0.0031582768 -4.0552199e-19)
(0.080640588 0.0025326176 0)
(0.079864791 0.0018184275 5.5028119e-19)
(0.079114812 0.0010443631 -7.0094348e-20)
(0.078380407 0.0001552033 3.3053069e-23)
(0.077643572 -0.00080218823 -9.2726934e-19)
(0.076946803 -0.0018737421 -2.8664322e-23)
(0.076309838 -0.0030887232 5.9579721e-19)
(0.075726514 -0.0044422583 6.0912613e-19)
(0.075223984 -0.0059139818 -1.4122489e-18)
(0.074837313 -0.0075184885 6.4969407e-19)
(0.074544645 -0.0092537454 8.4358249e-19)
(0.07433484 -0.011094855 -1.5920602e-18)
(0.074254116 -0.013043325 1.9271546e-23)
(0.074337693 -0.015107549 6.0793228e-19)
(0.074599299 -0.017255698 -8.8994221e-19)
(0.075046792 -0.019461742 7.5154609e-19)
(0.075657621 -0.02172158 5.1620758e-19)
(0.076446943 -0.02398502 2.2687287e-19)
(0.077436585 -0.026241814 -1.943121e-19)
(0.078591352 -0.028469942 1.340426e-21)
(0.079882035 -0.030678418 -7.7494356e-20)
(0.081334956 -0.032819704 0)
(0.082948835 -0.034854912 1.3175867e-19)
(0.08468501 -0.036797348 -1.2444775e-19)
(0.086535155 -0.038617063 1.1848222e-19)
(0.088482521 -0.040281922 0)
(0.090501715 -0.041781007 0)
(0.092567498 -0.043086183 4.2766966e-19)
(0.094634114 -0.044252501 -4.2159708e-19)
(0.096698617 -0.045301081 -4.1626208e-19)
(0.098761654 -0.046191077 8.1892089e-19)
(0.10079959 -0.046891793 -9.4478122e-23)
(0.10278585 -0.047471092 -1.0057443e-19)
(0.10473064 -0.047913871 -3.977778e-19)
(0.1066171 -0.048193161 -3.9304401e-19)
(0.10843159 -0.048375033 4.4349332e-19)
(0.11020092 -0.048538672 0)
(0.11195522 -0.048570382 -1.9611116e-19)
(0.11365727 -0.048593565 1.9888765e-19)
(0.1153615 -0.048520625 -1.9711291e-19)
(0.11704636 -0.048421775 9.9576384e-20)
(0.11874581 -0.048265168 0)
(0.12045959 -0.04804566 1.9828829e-19)
(0.12219714 -0.047706883 -1.9603196e-19)
(0.085656398 0.003765961 -1.9381951e-19)
(0.085026907 0.0033230687 1.2725241e-19)
(0.084388246 0.0028564601 2.4742199e-19)
(0.083744338 0.0023861283 -1.2466287e-19)
(0.083116713 0.0018500221 -3.7582225e-19)
(0.08250128 0.0012598855 7.6036265e-19)
(0.081894683 0.00059742177 -8.8716342e-19)
(0.081309147 -0.00011760044 5.1467015e-19)
(0.080736173 -0.00092726318 -1.2890772e-19)
(0.080161589 -0.0017993931 -1.2992682e-19)
(0.079621402 -0.0027690698 -5.2799536e-19)
(0.079131776 -0.0038592897 9.6069355e-24)
(0.078688315 -0.0050680651 -1.4458883e-23)
(0.07831357 -0.0063813151 8.3736543e-19)
(0.078036975 -0.007809771 0)
(0.077842965 -0.0093528354 -2.9541229e-19)
(0.07772492 -0.010992851 0)
(0.077721588 -0.012729744 3.2247348e-19)
(0.077862815 -0.014567795 -1.715169e-19)
(0.078161402 -0.016480996 0)
(0.078625001 -0.018448056 -4.8452189e-23)
(0.079239253 -0.020462019 -2.1713215e-19)
(0.080014252 -0.02248081 0)
(0.080968013 -0.024495424 -1.7226931e-19)
(0.082072662 -0.026485664 7.5324644e-20)
(0.083304217 -0.028455118 3.4727965e-20)
(0.084680703 -0.030363244 0)
(0.086198781 -0.032175946 -1.1928995e-19)
(0.087826313 -0.033901874 -1.130885e-19)
(0.08955329 -0.035516253 -1.0815619e-19)
(0.091362797 -0.036992516 0)
(0.093231779 -0.038321605 -2.0232327e-19)
(0.095136989 -0.039481108 0)
(0.097041204 -0.040513923 -9.7577649e-20)
(0.098940333 -0.041437582 8.5993814e-23)
(0.10083197 -0.042222157 8.3275914e-23)
(0.10269557 -0.042845019 3.7712317e-19)
(0.10451051 -0.043358168 4.703923e-19)
(0.10628436 -0.043751862 -7.4140222e-23)
(0.10800326 -0.044006925 -6.9850533e-23)
(0.10965793 -0.044172229 -7.4231652e-19)
(0.1112698 -0.044305414 6.7800037e-23)
(0.1128663 -0.044325748 3.7010073e-19)
(0.11441688 -0.044318782 1.8750034e-19)
(0.11597035 -0.04422294 -1.8608208e-19)
(0.11750937 -0.044083352 9.3913873e-20)
(0.11906668 -0.043875425 9.3808012e-20)
(0.12064439 -0.043592886 -1.8706185e-19)
(0.1222523 -0.043198991 2.7751035e-19)
(0.086665121 0.0027458353 1.2052301e-19)
(0.086151281 0.0023021947 -4.153539e-19)
(0.085630546 0.0018435631 0)
(0.085108691 0.0013838778 -4.6437899e-19)
(0.084603645 0.00087212991 9.3128282e-19)
(0.084111345 0.00031588409 -4.6973795e-19)
(0.08362797 -0.00030046015 -1.1719844e-19)
(0.08316386 -0.00096327634 1.1855396e-19)
(0.082711717 -0.0017061426 2.3691352e-19)
(0.08226018 -0.0025062237 0)
(0.081839795 -0.0033914112 0)
(0.081463998 -0.0043803414 -1.2168968e-19)
(0.081129627 -0.005472569 0)
(0.080855731 -0.0066579668 -2.5051862e-19)
(0.080667258 -0.0079448035 0)
(0.080552939 -0.0093332971 -7.8502839e-19)
(0.080509121 -0.010810287 5.3945624e-19)
(0.080568609 -0.012374624 -5.619524e-19)
(0.080756779 -0.014028143 8.8788426e-19)
(0.081085125 -0.015749343 6.3217586e-19)
(0.081560345 -0.01752071 -5.1577633e-19)
(0.082172951 -0.019334425 1.8585458e-19)
(0.082930459 -0.021153699 -1.7652529e-19)
(0.083847762 -0.022969219 1.4611273e-23)
(0.08490277 -0.024763845 6.8466417e-20)
(0.086075525 -0.026538351 -6.2429495e-20)
(0.087378778 -0.028257668 0)
(0.088807799 -0.029892126 1.0818006e-19)
(0.09033515 -0.031448165 1.0296836e-19)
(0.091950365 -0.032904722 0)
(0.093637159 -0.034239431 -1.9120741e-19)
(0.095374862 -0.035445204 3.7258934e-19)
(0.097142186 -0.036503627 0)
(0.098907979 -0.037451068 -9.0415044e-19)
(0.10066741 -0.038302503 7.1818722e-19)
(0.10241675 -0.039033299 0)
(0.10413798 -0.039624729 3.5216883e-19)
(0.10581502 -0.04012221 -3.5217648e-19)
(0.10745312 -0.040517385 0)
(0.10904085 -0.040793227 2.6062148e-19)
(0.11057108 -0.040992714 -3.4912449e-19)
(0.11206342 -0.041169364 0)
(0.11353667 -0.041247723 8.7174504e-20)
(0.11497149 -0.041310678 -3.5315141e-19)
(0.11640431 -0.041298477 3.5078956e-19)
(0.11782495 -0.041258088 3.5392079e-19)
(0.11925927 -0.041166066 -4.4187723e-19)
(0.12071057 -0.041019078 4.4065355e-19)
(0.12218832 -0.040772181 -4.3597481e-19)
(0.087607807 0.0018580464 -5.6290056e-20)
(0.087193759 0.0014407226 1.1086158e-19)
(0.086773104 0.0010084037 2.1571787e-19)
(0.086351162 0.00057135763 5.4150079e-19)
(0.085944502 9.0002179e-05 -5.4196976e-19)
(0.085549329 -0.0004307186 -4.3637154e-19)
(0.085162462 -0.0010034751 9.7788385e-19)
(0.084792879 -0.0016188789 -5.4795024e-19)
(0.084434829 -0.0023034574 -5.4613719e-19)
(0.084079073 -0.0030412621 8.7470808e-19)
(0.083752142 -0.0038543287 -4.4066825e-19)
(0.083465519 -0.0047577316 2.2201432e-19)
(0.083217028 -0.0057520119 2.2351923e-19)
(0.083023 -0.0068298355 9.0525322e-19)
(0.082904928 -0.0079973968 -9.1923093e-19)
(0.082854591 -0.0092554213 0)
(0.082870352 -0.010594134 0)
(0.082980414 -0.012011607 4.4787456e-23)
(0.083206608 -0.013507905 0)
(0.083559276 -0.015064953 5.4744144e-19)
(0.084044599 -0.016667577 -5.8876613e-19)
(0.084656698 -0.018307912 6.4462301e-19)
(0.085401407 -0.019954152 -3.1390384e-19)
(0.086290509 -0.021596166 4.8009343e-19)
(0.087306499 -0.023219366 -6.1524522e-20)
(0.088432165 -0.024822537 -1.1261779e-19)
(0.089676406 -0.026374961 -1.0452727e-19)
(0.091033743 -0.027850263 -2.9514536e-19)
(0.092480504 -0.029252728 -5.6362856e-19)
(0.094006052 -0.030564346 1.8102876e-19)
(0.095594726 -0.031765877 1.7569866e-19)
(0.097227664 -0.03285125 -1.7174875e-19)
(0.098885241 -0.033805068 -6.7522469e-19)
(0.10054094 -0.034657091 1.3412807e-18)
(0.10218952 -0.035420007 -6.6743039e-19)
(0.10382602 -0.036074272 0)
(0.10543405 -0.036604877 -4.936159e-19)
(0.1070003 -0.037049001 4.945211e-19)
(0.10852848 -0.037400643 1.6418462e-19)
(0.11000826 -0.03764644 -2.4506462e-19)
(0.11143405 -0.037820817 -1.6423893e-19)
(0.11282263 -0.037966788 0)
(0.11419011 -0.038024972 -8.2181388e-20)
(0.11552015 -0.038059986 -2.4963397e-19)
(0.11684512 -0.038025142 5.7911872e-19)
(0.11815633 -0.037955692 -2.5039482e-19)
(0.11947766 -0.037832499 -1.6677976e-19)
(0.12081251 -0.037651546 -2.4947117e-19)
(0.12217054 -0.037377185 -1.6463822e-19)
(0.088509905 0.00116681 5.2648893e-19)
(0.088170588 0.00076932894 2.0735868e-19)
(0.087825503 0.00035913954 -5.046456e-19)
(0.087480162 -5.6387807e-05 4.0470553e-19)
(0.087149178 -0.00050978477 -8.0886675e-19)
(0.086829237 -0.00099812118 3.0462781e-19)
(0.086517572 -0.0015321847 3.0290312e-19)
(0.086222098 -0.0021055504 -4.062356e-19)
(0.085938183 -0.0027397506 0)
(0.085658373 -0.0034234835 -8.066733e-19)
(0.085405808 -0.0041745473 8.100056e-19)
(0.085190461 -0.0050053506 -8.1315659e-19)
(0.085010929 -0.0059169607 6.1175975e-19)
(0.084881412 -0.0069039274 -4.1116474e-19)
(0.084820596 -0.0079709407 1.2466332e-18)
(0.084822485 -0.0091189584 8.4153416e-19)
(0.084886827 -0.010340494 -1.2858208e-18)
(0.085038078 -0.011633072 2.2030994e-19)
(0.085295143 -0.012995594 1.3713343e-18)
(0.085667273 -0.014412688 -9.5984947e-19)
(0.08616024 -0.015870789 -5.1138465e-19)
(0.086770205 -0.017362532 5.5551064e-19)
(0.087501917 -0.018860396 -9.6536836e-19)
(0.088364732 -0.020353162 2.4641592e-19)
(0.089344605 -0.021828622 -5.5488857e-20)
(0.090426615 -0.023284642 1.019464e-19)
(0.091616912 -0.024693911 9.4969421e-20)
(0.092909543 -0.026033043 5.3810338e-19)
(0.094283802 -0.027305025 -1.7181916e-19)
(0.09572921 -0.028494363 4.9801355e-19)
(0.097230881 -0.029584431 0)
(0.098771619 -0.030570219 0)
(0.10033334 -0.031438817 0)
(0.10189317 -0.032215576 3.1106346e-19)
(0.10344574 -0.032911583 -3.1023741e-19)
(0.10498546 -0.033510679 3.0871598e-19)
(0.1064973 -0.034000338 -3.0754989e-19)
(0.10797033 -0.034412877 1.5427621e-19)
(0.10940695 -0.034743456 -6.1600567e-19)
(0.11079779 -0.034980568 4.6057623e-19)
(0.11213819 -0.035154165 -1.5444817e-19)
(0.11344375 -0.035302935 3.1171155e-19)
(0.11472559 -0.035373577 0)
(0.11597269 -0.035425358 -7.8392351e-20)
(0.11721055 -0.035415567 1.5600765e-19)
(0.11843387 -0.035377861 -1.5729029e-19)
(0.11966232 -0.035294837 3.1441272e-19)
(0.12090004 -0.035164509 1.568058e-19)
(0.12215498 -0.034949767 -2.274272e-23)
(0.089350522 0.00057888354 -2.9578448e-19)
(0.089073937 0.00020796442 0)
(0.08879209 -0.00017563999 -7.7615536e-24)
(0.088509868 -0.00056668401 0)
(0.088240749 -0.00099123608 -3.7780443e-19)
(0.087981834 -0.0014477944 9.4672792e-20)
(0.087731027 -0.0019454089 5.640092e-19)
(0.087495356 -0.0024798275 1.8865856e-19)
(0.087271302 -0.003068502 -5.6172703e-19)
(0.087052817 -0.0037036234 -7.4589552e-19)
(0.086860325 -0.0043995752 7.4670089e-19)
(0.086702637 -0.0051666045 0)
(0.086578997 -0.0060060838 3.7349628e-19)
(0.086501896 -0.0069139233 -3.7512154e-19)
(0.086487758 -0.0078935994 7.5511217e-19)
(0.086532262 -0.0089461593 -7.6142641e-19)
(0.086636135 -0.010065807 5.377824e-23)
(0.08682078 -0.011249682 7.8945534e-19)
(0.087102695 -0.012495852 -1.221707e-18)
(0.087490215 -0.013791042 8.4950533e-19)
(0.087988813 -0.015122929 -1.1231008e-18)
(0.088595824 -0.016484642 -2.4185676e-19)
(0.08931544 -0.017852301 0)
(0.090155208 -0.019213847 0)
(0.091103377 -0.020558907 0)
(0.092147082 -0.021884803 0)
(0.093290354 -0.023167032 0)
(0.094526989 -0.024384626 1.6391504e-19)
(0.095838708 -0.025539434 -6.2967431e-19)
(0.097215284 -0.026617965 3.0513278e-19)
(0.098642566 -0.0276056 5.9582333e-19)
(0.10010472 -0.028497975 -5.8592511e-19)
(0.10158496 -0.029284044 5.7913314e-19)
(0.10306326 -0.029985127 -5.7774557e-19)
(0.10453412 -0.030610803 2.8868678e-19)
(0.10599136 -0.031147746 -2.8797109e-19)
(0.10742095 -0.031585527 4.3131572e-19)
(0.10881343 -0.031951582 5.7785412e-19)
(0.11017018 -0.03224234 -2.8906829e-19)
(0.11148236 -0.032448403 -1.4031782e-24)
(0.11274592 -0.032594867 0)
(0.11397476 -0.032714453 -1.4671797e-19)
(0.11517777 -0.032762955 1.4602384e-19)
(0.11634572 -0.032789546 2.9559782e-19)
(0.11750105 -0.032758975 -3.6806018e-19)
(0.11863919 -0.03269871 -3.7105498e-19)
(0.11977795 -0.032594034 2.9675889e-19)
(0.12092108 -0.032443064 0)
(0.12207593 -0.032213725 1.4676275e-19)
(0.090141378 0.00010954067 -2.7718523e-19)
(0.089914628 -0.00023829489 -2.7293572e-19)
(0.089683268 -0.00059820921 2.6596278e-19)
(0.089451866 -0.00096653245 0)
(0.089232609 -0.0013647479 -2.6502303e-19)
(0.089023058 -0.0017924046 -6.2733211e-24)
(0.088821619 -0.0022572701 5.2590015e-19)
(0.088634612 -0.002756655 -5.2650301e-19)
(0.088459373 -0.003304929 5.2168138e-19)
(0.088291051 -0.0038967628 0)
(0.088147752 -0.0045439264 0)
(0.088037352 -0.0052549717 0)
(0.087959621 -0.0060314102 -3.4319643e-19)
(0.08792566 -0.0068701184 -6.8691386e-19)
(0.087950015 -0.0077736426 1.377948e-18)
(0.088029647 -0.0087430138 -1.3842596e-18)
(0.088165971 -0.0097736368 3.495146e-19)
(0.088377844 -0.01086239 2.4623551e-23)
(0.088679754 -0.01200676 7.3046669e-19)
(0.089079233 -0.013195136 3.788858e-19)
(0.089581418 -0.014416243 -1.9767912e-23)
(0.090184395 -0.015663672 0)
(0.090891947 -0.016916552 2.1693359e-19)
(0.091710197 -0.018162421 -2.0123591e-19)
(0.092629071 -0.019392283 0)
(0.093637423 -0.020603175 -8.4310033e-20)
(0.094737688 -0.02177304 0)
(0.095923534 -0.022883025 1.5012124e-19)
(0.097178656 -0.02393418 -2.8913814e-19)
(0.098493159 -0.02491472 -5.6167806e-19)
(0.099853615 -0.02581176 8.7918558e-23)
(0.10124539 -0.026621574 8.1314808e-19)
(0.10265288 -0.027334746 -5.3716249e-19)
(0.10405836 -0.027969596 2.6846331e-19)
(0.10545636 -0.028534627 0)
(0.10684039 -0.02901877 -8.0619122e-19)
(0.1081973 -0.02941332 4.063998e-23)
(0.10951896 -0.029742277 -5.4128778e-19)
(0.11080598 -0.03000301 4.0687833e-19)
(0.11205001 -0.030187634 -4.0695971e-19)
(0.11324746 -0.030318037 7.4974809e-23)
(0.11441127 -0.030423347 6.9063717e-19)
(0.11554739 -0.030464687 1.3764088e-19)
(0.11664929 -0.030486041 -2.7868299e-19)
(0.11773529 -0.030456097 -2.7778873e-19)
(0.11880246 -0.030399971 3.5010089e-19)
(0.11986587 -0.030304539 7.0012778e-20)
(0.12092949 -0.030169142 1.3975006e-19)
(0.12199896 -0.02996239 -2.079862e-19)
(0.090877705 -0.0002825971 0)
(0.090692781 -0.00060644567 -8.533996e-20)
(0.090503882 -0.00094237084 0)
(0.090314973 -0.0012879507 0)
(0.090137289 -0.0016606929 0)
(0.089968769 -0.002060913 0)
(0.08980834 -0.0024952578 -6.5469318e-19)
(0.08966171 -0.002962203 6.5411581e-19)
(0.08952698 -0.003473605 6.4711816e-19)
(0.089400274 -0.0040260056 -1.2835449e-18)
(0.089297756 -0.0046290613 6.3912552e-19)
(0.089226547 -0.0052899391 0)
(0.089186853 -0.0060101971 6.3231669e-19)
(0.089188629 -0.0067874206 -3.1547953e-19)
(0.089244855 -0.007623411 -3.1542484e-19)
(0.089353496 -0.0085191229 1.2631785e-18)
(0.089516458 -0.0094708439 -6.3558065e-19)
(0.089750459 -0.010475275 -6.4446737e-19)
(0.090068299 -0.011529492 1.7261145e-23)
(0.090476811 -0.012623207 3.4010386e-19)
(0.090980795 -0.01374604 -3.5562547e-19)
(0.091578879 -0.014891959 -3.7763117e-19)
(0.092274496 -0.016042545 3.8863726e-19)
(0.093072635 -0.017185301 0)
(0.093964523 -0.018312253 8.3125862e-20)
(0.094940417 -0.019420237 -3.5167344e-25)
(0.09600152 -0.020489307 0)
(0.097141472 -0.021502407 0)
(0.09834561 -0.022459929 0)
(0.09960439 -0.023351478 1.0359198e-18)
(0.10090506 -0.024165584 -5.1497089e-23)
(0.10223401 -0.024898972 -7.5323347e-19)
(0.10357666 -0.025543515 4.9883305e-19)
(0.10491714 -0.026114903 0)
(0.10624999 -0.026620638 -2.5049134e-19)
(0.10756845 -0.027051475 2.509746e-19)
(0.10886006 -0.027400108 -2.5162288e-19)
(0.11011759 -0.027687378 7.6101191e-19)
(0.11134099 -0.027911474 0)
(0.11252224 -0.028065923 0)
(0.11365803 -0.028169568 5.1491963e-19)
(0.11476013 -0.028247707 -5.2038486e-19)
(0.11583281 -0.028267318 5.192939e-19)
(0.11687074 -0.028266066 -3.9428851e-19)
(0.11788987 -0.028217448 0)
(0.11888776 -0.028142853 -6.6103091e-20)
(0.11987787 -0.028030998 -6.6125374e-20)
(0.1208638 -0.027881564 -1.9810464e-19)
(0.12185033 -0.027666381 -1.3107636e-19)
(0.091566977 -0.0005975125 -3.2536588e-19)
(0.0914164 -0.00089983016 8.0101765e-20)
(0.091262506 -0.0012140195 1.5627603e-19)
(0.091108827 -0.0015385925 0)
(0.090965641 -0.0018880135 0)
(0.090831254 -0.0022631519 1.546537e-19)
(0.090705002 -0.0026697653 1.5298597e-19)
(0.090592088 -0.0031071825 0)
(0.090491214 -0.0035852801 0)
(0.090399335 -0.0041019687 2.9840139e-19)
(0.090330934 -0.004665229 0)
(0.0902925 -0.005281108 0)
(0.090284596 -0.0059511477 -5.8390465e-19)
(0.090316216 -0.0066734534 2.905032e-19)
(0.090399008 -0.0074492403 0)
(0.090531729 -0.0082793513 -5.7833489e-19)
(0.090716629 -0.0091607166 -5.800869e-19)
(0.090968606 -0.010089927 5.8625524e-19)
(0.091299031 -0.011063772 1.1941304e-18)
(0.091714118 -0.012073039 -6.1400781e-19)
(0.092218332 -0.013108129 -6.3894432e-19)
(0.092810699 -0.014163326 3.3751436e-19)
(0.093494316 -0.015222238 -3.5002242e-19)
(0.094273229 -0.016272574 -8.3319471e-20)
(0.095139725 -0.017307139 7.7151559e-20)
(0.096085208 -0.018322648 0)
(0.097109914 -0.019301008 2.6569413e-19)
(0.098207511 -0.020226739 0)
(0.099364704 -0.02109974 4.9034373e-19)
(0.1005723 -0.021910811 -2.917922e-23)
(0.10181819 -0.022649716 -4.7050668e-19)
(0.10308965 -0.02331361 -6.8304188e-23)
(0.10437303 -0.023895501 -4.6362935e-19)
(0.10565399 -0.024409003 -4.6489988e-19)
(0.10692714 -0.024860868 -1.1679614e-18)
(0.1081856 -0.025243419 9.3812227e-19)
(0.10941758 -0.025550603 0)
(0.11061665 -0.025800836 -2.3781475e-19)
(0.11178225 -0.025993029 0)
(0.11290675 -0.02612191 4.8000093e-19)
(0.11398712 -0.026204054 2.4234715e-19)
(0.11503424 -0.026261973 -5.8857234e-23)
(0.11605068 -0.026266935 -4.898823e-19)
(0.11703251 -0.026252321 4.4973564e-24)
(0.11799312 -0.026194958 -2.4763859e-19)
(0.11893088 -0.026114052 2.496951e-19)
(0.11985736 -0.025999656 -2.498596e-19)
(0.12077617 -0.025852216 5.6167243e-19)
(0.12169068 -0.025644907 6.1965881e-20)
(0.092209506 -0.00085520831 -3.0559403e-19)
(0.092087983 -0.0011368065 7.523131e-20)
(0.091963811 -0.0014302129 2.9371794e-19)
(0.091840005 -0.0017347006 7.3176178e-19)
(0.091726057 -0.0020621556 -5.8160827e-19)
(0.091620573 -0.002413847 -1.4486369e-19)
(0.091523267 -0.0027947674 -1.4315524e-19)
(0.091438895 -0.0032048802 -5.7005029e-19)
(0.091366673 -0.0036524386 8.4356165e-19)