/*--------------------------------*- C++ -*----------------------------------*\
| =========                 |                                                 |
| \\      /  F ield         | OpenFOAM: The Open Source CFD Toolbox           |
|  \\    /   O peration     | Version:  v2006                                 |
|   \\  /    A nd           | Website:  www.openfoam.com                      |
|    \\/     M anipulation  |                                                 |
\*---------------------------------------------------------------------------*/
FoamFile
{
    version     2.0;
    format      ascii;
    class       volVectorField;
    location    "3000";
    object      UMean;
}
// * * * * * * * * * * * * * * * * * * * * * * * * * * * * * * * * * * * * * //

dimensions      [0 1 -1 0 0 0 0];


internalField   nonuniform List<vector> 
19765
(
(0.090651385 0.030489359 -8.9076718e-20)
(0.088099442 0.033741907 8.9433593e-20)
(0.081295996 0.035824814 -9.1486166e-20)
(0.073532211 0.03630279 0)
(0.066877197 0.035771001 0)
(0.060833902 0.034399266 2.228755e-19)
(0.054561876 0.032215127 -1.773394e-19)
(0.048951526 0.029667352 0)
(0.043401793 0.026543409 4.4479156e-19)
(0.037321844 0.022633476 3.7709428e-20)
(0.03234201 0.018538434 -7.5485301e-19)
(0.028428564 0.014147766 7.4672948e-19)
(0.024915523 0.0095066505 -8.3555025e-19)
(0.021942704 0.0047335451 -9.5718867e-19)
(0.019769879 -0.00012948373 1.1133573e-18)
(0.017996439 -0.0052667863 0)
(0.016404277 -0.010333018 -2.1430046e-20)
(0.015240613 -0.015353294 1.8539307e-20)
(0.014553674 -0.020514094 -1.0176529e-18)
(0.014302277 -0.025769754 8.7935914e-19)
(0.014467592 -0.031153256 -3.8443739e-19)
(0.014989318 -0.036441653 6.7221946e-19)
(0.015884746 -0.041592436 -3.056439e-19)
(0.017238591 -0.046956291 1.2861449e-20)
(0.019004826 -0.052314813 -6.2105329e-20)
(0.020944245 -0.056956522 4.8188569e-20)
(0.023076231 -0.061136711 -2.1021355e-19)
(0.025652178 -0.065647634 1.9796313e-19)
(0.028507105 -0.070019071 0)
(0.031486236 -0.073892127 3.5977827e-19)
(0.034843263 -0.077827531 -3.4120858e-19)
(0.038769306 -0.081895736 6.5155603e-19)
(0.0438487 -0.086169346 -6.2623197e-19)
(0.049424116 -0.089957924 3.0085673e-19)
(0.05414367 -0.092363219 -2.9554716e-19)
(0.058609266 -0.094259323 -2.7959945e-19)
(0.064521284 -0.096576289 1.8736235e-22)
(0.070888627 -0.098463218 5.4102775e-19)
(0.076752462 -0.099433454 -2.848167e-19)
(0.08423729 -0.10045978 -2.5801055e-19)
(0.092943055 -0.10102813 2.5199994e-19)
(0.098924026 -0.099738202 -1.5678995e-20)
(0.10423636 -0.097595421 -3.086462e-20)
(0.10943325 -0.094745309 1.2388227e-19)
(0.11256284 -0.090972068 -2.7979182e-19)
(0.11506687 -0.086475307 1.2508681e-19)
(0.11520917 -0.081393994 0)
(0.11423468 -0.076261511 -1.3102092e-19)
(0.11310309 -0.07165111 0)
(0.081900417 0.017759143 1.4553325e-19)
(0.078870544 0.020625425 1.4007614e-19)
(0.075302088 0.023061148 -6.6535916e-20)
(0.071434672 0.024131113 6.6052134e-20)
(0.067495583 0.024274715 -3.2635623e-19)
(0.063718703 0.02369477 2.5880202e-19)
(0.060045811 0.022588582 -3.1648802e-20)
(0.056647014 0.02106889 2.5128496e-19)
(0.053404534 0.019157388 3.0672778e-20)
(0.050158509 0.016993277 -2.8769473e-19)
(0.047125962 0.014436771 1.5341282e-20)
(0.04449022 0.011439794 4.659237e-19)
(0.04213315 0.0080776758 -7.5365806e-19)
(0.040087343 0.0044740533 2.2497843e-19)
(0.03851651 0.00066307812 -2.6372438e-19)
(0.037231654 -0.0033349187 3.0393511e-19)
(0.036060328 -0.0074820396 -1.7589748e-20)
(0.035205393 -0.011755744 0)
(0.034786371 -0.016146631 1.9270714e-20)
(0.034776047 -0.020608823 -3.0042286e-19)
(0.035134761 -0.025086005 2.668744e-19)
(0.035762582 -0.029599988 2.1027586e-20)
(0.036724707 -0.034090988 7.9383559e-21)
(0.038095783 -0.038479693 -1.1222585e-20)
(0.039725391 -0.042778937 -2.8325559e-20)
(0.041460864 -0.047071837 2.3643963e-20)
(0.043415805 -0.05128516 9.6653394e-20)
(0.045696233 -0.05532364 -3.0834072e-19)
(0.048226876 -0.059239588 3.8066472e-19)
(0.05099178 -0.063005733 -1.835825e-19)
(0.054053229 -0.066530981 1.105924e-20)
(0.05747621 -0.069725458 0)
(0.06124428 -0.072462528 1.7595376e-19)
(0.065164291 -0.074819078 -7.0609722e-23)
(0.069126255 -0.076931733 -1.627786e-19)
(0.073232887 -0.078758818 -1.8016719e-19)
(0.077551804 -0.080125017 6.9810499e-23)
(0.081979672 -0.081002923 -1.3854329e-19)
(0.086471153 -0.081383275 1.4785287e-19)
(0.091046998 -0.081097204 1.5667939e-19)
(0.095556798 -0.080005093 1.8000792e-19)
(0.099949173 -0.078166778 -3.3149498e-19)
(0.10425198 -0.075954149 1.8933165e-19)
(0.10841607 -0.073069646 -2.196976e-20)
(0.11224302 -0.070182019 -9.0300607e-20)
(0.11567964 -0.067135827 1.8707541e-19)
(0.11866479 -0.06417483 -1.4518913e-19)
(0.12120014 -0.061630242 -4.990267e-20)
(0.12338914 -0.059271449 1.0269522e-19)
(0.085180588 0.017394296 7.9324918e-20)
(0.082895989 0.017685355 6.4076691e-24)
(0.080239155 0.017795685 1.5442928e-19)
(0.077337289 0.017782304 4.9003653e-25)
(0.074435215 0.017375712 -2.4212737e-19)
(0.071561029 0.016672504 3.3279391e-19)
(0.068769522 0.015653731 -8.4553183e-20)
(0.066078544 0.014445148 0)
(0.063534093 0.012932716 0)
(0.060980089 0.011259107 4.6299016e-20)
(0.058587451 0.0092988197 0)
(0.05643262 0.0069910889 5.1314122e-20)
(0.054470595 0.004387716 4.8836871e-19)
(0.052750146 0.0015626886 5.8237538e-19)
(0.051373539 -0.0014775534 -1.008747e-18)
(0.050228538 -0.0047116913 -2.8796683e-23)
(0.049225635 -0.008097969 3.8289929e-20)
(0.048482634 -0.011631017 -6.9983459e-19)
(0.04806587 -0.015317699 7.7235612e-19)
(0.047991125 -0.019099258 0)
(0.048242687 -0.022920071 5.2158286e-20)
(0.048727347 -0.026825241 -1.6413385e-23)
(0.049555343 -0.030725573 -1.9365409e-20)
(0.050742334 -0.034564569 -3.3690632e-20)
(0.052149346 -0.03833342 1.1792372e-19)
(0.053686581 -0.042097072 -1.3298454e-20)
(0.05550984 -0.045785772 -1.7988621e-19)
(0.057655832 -0.049322493 5.4837047e-19)
(0.060008223 -0.052756786 -3.2649849e-19)
(0.062601428 -0.056038961 3.815345e-20)
(0.065452238 -0.059091826 2.691889e-19)
(0.068536694 -0.061864231 -5.7834364e-19)
(0.071844643 -0.064264024 -2.7558855e-19)
(0.07521136 -0.066427554 5.0361093e-19)
(0.078631014 -0.068417345 4.8886473e-19)
(0.082174455 -0.070097398 -4.4210682e-19)
(0.085839875 -0.071349973 0)
(0.089507144 -0.07232692 1.9605094e-19)
(0.093207313 -0.072949021 -2.1846823e-19)
(0.096899403 -0.073101379 2.3959032e-19)
(0.10047615 -0.07297378 -2.3886405e-19)
(0.1038871 -0.072765733 0)
(0.10721011 -0.072179627 0)
(0.11025541 -0.071342689 2.6574397e-20)
(0.11310238 -0.070292036 0)
(0.11562579 -0.069215874 -5.3008168e-20)
(0.11790124 -0.068036675 2.097827e-19)
(0.11997045 -0.066775932 -1.0385759e-19)
(0.12188624 -0.065383698 0)
(0.08380244 0.012410673 -8.4166045e-20)
(0.082118486 0.012666211 -2.4990785e-19)
(0.080381628 0.012731533 8.1044245e-20)
(0.07855458 0.012671395 -4.1434602e-19)
(0.076697071 0.01231745 3.3779144e-19)
(0.074838458 0.011738022 3.4801113e-19)
(0.073004274 0.010908446 -2.64824e-19)
(0.071221301 0.0099338162 3.6671951e-19)
(0.069482451 0.0086976361 4.9880652e-23)
(0.067743067 0.0073569605 -8.67148e-19)
(0.066081079 0.0058078917 5.0364854e-19)
(0.064547652 0.0039869727 0)
(0.063125552 0.0019266073 -5.5428073e-20)
(0.061865242 -0.00030526933 -1.0014902e-18)
(0.060836807 -0.0027436463 1.1361385e-18)
(0.05997473 -0.0053810457 1.0218938e-18)
(0.059230136 -0.008145245 -2.3945962e-18)
(0.058689331 -0.011039123 1.3477403e-18)
(0.05841367 -0.014096554 -7.8062999e-19)
(0.058417307 -0.017242585 9.4304651e-19)
(0.058699325 -0.020424975 0)
(0.059192682 -0.023707115 -6.0080457e-19)
(0.05995403 -0.026979643 7.2331396e-19)
(0.060996221 -0.030219149 -3.9925666e-19)
(0.062245312 -0.033415139 6.6442427e-20)
(0.063650671 -0.036612288 -8.6864719e-24)
(0.065303364 -0.039732772 -2.0564984e-19)
(0.067216482 -0.042706881 5.6082259e-19)
(0.069312151 -0.045570961 -3.4701831e-19)
(0.071605668 -0.048276909 -3.6517099e-19)
(0.074091174 -0.050760465 3.0631755e-19)
(0.076736242 -0.052991715 6.9200445e-19)
(0.079511728 -0.05490803 -1.7621491e-22)
(0.08231889 -0.056614135 -6.1291529e-19)
(0.085172627 -0.058153628 4.6574666e-19)
(0.088099949 -0.059431961 -5.170191e-19)
(0.091056019 -0.060367494 5.0319881e-19)
(0.09397173 -0.061074792 -9.948805e-19)
(0.096878375 -0.061512992 5.1786949e-19)
(0.099717135 -0.061613307 2.0868368e-19)
(0.10243165 -0.061489067 -2.382079e-19)
(0.10509117 -0.061267575 -5.986678e-20)
(0.107749 -0.060775444 2.3467343e-19)
(0.11027675 -0.060167302 -2.3804726e-19)
(0.11277953 -0.059342852 0)
(0.11518531 -0.05836622 1.1838275e-19)
(0.11757712 -0.057274155 -5.8608592e-20)
(0.11992092 -0.056118792 0)
(0.12222516 -0.054937744 0)
(0.084516412 0.010310752 -7.8861947e-20)
(0.083173114 0.010016819 -2.3356358e-19)
(0.081794091 0.0096768687 3.0270048e-19)
(0.080380088 0.0093458011 7.7000397e-20)
(0.078966822 0.0088600467 2.3431309e-19)
(0.077562566 0.0082569185 -2.3984327e-19)
(0.076178831 0.0074969949 2.4216579e-19)
(0.074832345 0.006646126 -4.1583066e-19)
(0.073518594 0.0056055337 -8.4269559e-20)
(0.072204349 0.0044811091 1.7236122e-19)
(0.070946985 0.0031891708 -8.0291481e-19)
(0.069778189 0.0016797025 8.3250417e-19)
(0.068688633 -2.8776703e-05 9.597669e-20)
(0.067716892 -0.0018923388 8.0540217e-19)
(0.066914075 -0.0039397131 -1.0624863e-19)
(0.066239514 -0.0061608924 -9.0168875e-19)
(0.065665585 -0.0085032947 0)
(0.065258072 -0.010977037 0)
(0.065066643 -0.013608527 0)
(0.065106706 -0.016348043 -5.1328884e-19)
(0.065380939 -0.019158745 7.7906458e-19)
(0.065849182 -0.022049596 -8.37264e-19)
(0.066549051 -0.024932889 5.4777906e-19)
(0.067501922 -0.027799872 -6.6434025e-20)
(0.068653622 -0.030633642 9.817397e-24)
(0.069958495 -0.033457739 2.5532102e-20)
(0.071473604 -0.036203615 4.5940399e-20)
(0.073207625 -0.038821828 -8.4082354e-20)
(0.07510147 -0.041339334 2.3533339e-19)
(0.077156497 -0.043709257 -2.9536148e-19)
(0.079361662 -0.045883449 0)
(0.081686708 -0.04784305 -6.0319481e-19)
(0.084103767 -0.049539985 1.0330842e-18)
(0.086537388 -0.051062203 -4.4251393e-19)
(0.088989188 -0.052438732 -4.3399134e-19)
(0.09147474 -0.05359532 1.391624e-22)
(0.093963381 -0.054476266 9.4708382e-19)
(0.096402802 -0.055188786 -4.6963631e-19)
(0.09881167 -0.055699099 0)
(0.10115961 -0.055958849 0)
(0.10341165 -0.056078666 -1.7033814e-19)
(0.10560405 -0.056185803 2.2873762e-19)
(0.10778268 -0.056091782 5.6246872e-20)
(0.109868 -0.055995696 3.4248826e-19)
(0.11194184 -0.055763605 -5.650766e-20)
(0.11394965 -0.055511572 -2.8549367e-19)
(0.11592921 -0.055200355 5.7029726e-20)
(0.11787609 -0.054760704 0)
(0.11979018 -0.054145176 -3.4382283e-23)
(0.085073771 0.0078935512 2.8938588e-24)
(0.084064984 0.0076025326 -4.4780285e-24)
(0.083041716 0.0072508398 0)
(0.081993845 0.0068816281 -3.5673954e-19)
(0.080950703 0.0063908744 7.2021596e-20)
(0.079911628 0.0058065602 2.2007597e-19)
(0.078880382 0.0051020617 7.3757495e-20)
(0.077871724 0.0043220233 1.5105152e-19)
(0.076878962 0.0033955093 7.6169783e-20)
(0.075879692 0.0023934926 -1.5480941e-19)
(0.074920815 0.0012552011 0)
(0.074027327 -5.7016546e-05 -2.4533674e-19)
(0.07319308 -0.0015330171 -8.4148037e-20)
(0.072449556 -0.0031442279 1.7466905e-19)
(0.071838439 -0.0049114314 0)
(0.071332141 -0.0068284344 -1.9094199e-19)
(0.070912983 -0.0088594876 1.0110848e-18)
(0.07063469 -0.011010683 -8.7000329e-19)
(0.070539881 -0.013296909 0)
(0.070644489 -0.015678166 9.2981936e-19)
(0.070957746 -0.018122944 -1.2238183e-18)
(0.071451227 -0.020631857 7.7798606e-19)
(0.072143659 -0.023145353 -4.7260766e-19)
(0.073058305 -0.025655735 1.1589795e-19)
(0.074153743 -0.028138757 -1.0132586e-19)
(0.075394028 -0.030606501 -1.3568969e-19)
(0.076816898 -0.033003514 1.2298183e-19)
(0.078426684 -0.035287411 3.7749881e-19)
(0.080177931 -0.037473502 -6.3722037e-19)
(0.082064736 -0.039525027 1.2664411e-22)
(0.084072441 -0.041404471 5.1119348e-19)
(0.086173702 -0.043096548 4.9136046e-19)
(0.088342084 -0.044565863 -4.7561434e-19)
(0.090521182 -0.045874806 -1.1672799e-19)
(0.092708639 -0.047046629 0)
(0.094909442 -0.048033065 4.5006736e-19)
(0.097097585 -0.048797577 -1.0688174e-22)
(0.099236039 -0.049413243 -4.3918465e-19)
(0.1013373 -0.049861662 0)
(0.10337993 -0.050114223 0)
(0.10534389 -0.050242705 -1.0692842e-19)
(0.10725504 -0.050324906 5.3841778e-20)
(0.10915847 -0.050249066 -5.3071509e-20)
(0.11099522 -0.050130839 -5.3836947e-19)
(0.11283895 -0.049890009 4.7984895e-19)
(0.11465432 -0.049585673 0)
(0.11648868 -0.049191343 -5.3789762e-20)
(0.11833729 -0.048706413 0)
(0.12019913 -0.048100539 2.1190156e-19)
(0.085997497 0.0063507383 6.8549811e-20)
(0.085171615 0.0059461377 -1.3502435e-19)
(0.084338339 0.0055182816 -2.6234482e-19)
(0.083498237 0.0050953573 5.2999311e-19)
(0.082671526 0.0045900889 -4.0023377e-19)
(0.081855249 0.004019851 0)
(0.081047788 0.0033605332 5.4266877e-19)
(0.080260683 0.0026414313 -6.9103713e-20)
(0.079486421 0.0018067713 3.4851215e-23)
(0.078707627 0.00090558468 -9.1312626e-19)
(0.077961981 -0.00010969665 -3.1360764e-23)
(0.077268798 -0.0012690325 5.8619331e-19)
(0.076623847 -0.002566995 5.9888114e-19)
(0.076052768 -0.0039840849 -1.3875538e-18)
(0.075589538 -0.0055365863 6.3781181e-19)
(0.075215388 -0.0072209225 8.2704758e-19)
(0.074919637 -0.0090112355 -1.5583784e-18)
(0.074746019 -0.010911429 1.130221e-23)
(0.074729755 -0.012931145 5.927519e-19)
(0.074885312 -0.01503895 -8.6523689e-19)
(0.075220568 -0.017210961 7.2774029e-19)
(0.075716062 -0.01944129 5.1152008e-19)
(0.076385517 -0.021678694 2.3377546e-19)
(0.07725139 -0.023915902 -2.0282739e-19)
(0.078280849 -0.026131716 1.3956766e-21)
(0.079445642 -0.028332351 -8.029735e-20)
(0.080772383 -0.030470216 0)
(0.082261481 -0.032509564 1.3571897e-19)
(0.083875495 -0.034461845 -1.2792245e-19)
(0.085606034 -0.036295576 1.2160043e-19)
(0.087437819 -0.03798005 0)
(0.089346605 -0.039503979 0)
(0.091307812 -0.040838817 4.376573e-19)
(0.093275907 -0.042037303 -4.3110748e-19)
(0.095245969 -0.043118608 -4.2540601e-19)
(0.097219415 -0.044043487 8.3659464e-19)
(0.099174913 -0.044782767 -9.2582732e-23)
(0.10108534 -0.045401715 -1.0267105e-19)
(0.10295884 -0.045884776 -4.0600118e-19)
(0.10478054 -0.046206409 -4.0110451e-19)
(0.10653666 -0.046430914 4.5246022e-19)
(0.10824955 -0.046634552 0)
(0.1099494 -0.046708146 -2.0000082e-19)
(0.11160163 -0.046771681 2.0277757e-19)
(0.11325687 -0.046740587 -2.0094975e-19)
(0.11489555 -0.046683127 1.0149551e-19)
(0.11654982 -0.046568944 0)
(0.11822013 -0.046393515 2.0206012e-19)
(0.1199171 -0.046103293 -1.9974539e-19)
(0.086839626 0.0048908171 -1.9194382e-19)
(0.086188144 0.0045003271 1.2596868e-19)
(0.08553042 0.0040841842 2.4479533e-19)
(0.084866656 0.003664131 -1.2330581e-19)
(0.084215813 0.0031768702 -3.7161819e-19)
(0.083573793 0.0026350807 7.5168914e-19)
(0.082938281 0.002020459 -8.7669227e-19)
(0.082319147 0.0013533564 5.0850417e-19)
(0.081709918 0.00059133605 -1.2730165e-19)
(0.081096915 -0.00023165494 -1.282544e-19)
(0.080512215 -0.0011519879 -5.2106199e-19)
(0.079971531 -0.0021932181 5.5190245e-24)
(0.079471932 -0.0033529295 -1.7554777e-23)
(0.07903477 -0.0046177193 8.2525423e-19)
(0.0786885 -0.0059997663 0)
(0.078419966 -0.0074973518 -2.9067604e-19)
(0.078222974 -0.0090920552 0)
(0.078134283 -0.010785754 3.1653227e-19)
(0.078183667 -0.012583913 -1.6808738e-19)
(0.078384486 -0.014460991 0)
(0.078744518 -0.01639716 -4.7271371e-23)
(0.079251598 -0.018384624 -2.1482171e-19)
(0.079915337 -0.020380835 0)
(0.080753851 -0.022378167 -1.7856181e-19)
(0.081741389 -0.024357591 7.796761e-20)
(0.082855024 -0.026320942 3.5808447e-20)
(0.084113395 -0.028227527 0)
(0.085514734 -0.030045697 -1.2242092e-19)
(0.087027946 -0.031782564 -1.1586025e-19)
(0.088643131 -0.033412051 -1.1067051e-19)
(0.090344702 -0.034908615 0)
(0.092110592 -0.036262792 -2.066722e-19)
(0.093918158 -0.037451721 0)
(0.095730294 -0.038516581 -9.9558767e-20)
(0.09754131 -0.039473275 8.372749e-23)
(0.099349497 -0.040292808 8.1310487e-23)
(0.10113616 -0.040953486 3.8440918e-19)
(0.10288012 -0.041505636 4.7935731e-19)
(0.10458729 -0.041938886 -7.2953341e-23)
(0.10624539 -0.042234823 -6.8969629e-23)
(0.10784486 -0.04244145 -7.5614448e-19)
(0.10940358 -0.042615014 6.7075987e-23)
(0.11094867 -0.042676811 3.7690317e-19)
(0.11245189 -0.042711558 1.909111e-19)
(0.11395855 -0.042658729 -1.8945857e-19)
(0.11545303 -0.042563315 9.5607187e-20)
(0.1169662 -0.042401555 9.5491105e-20)
(0.1185008 -0.042167716 -1.9040891e-19)
(0.12006785 -0.04182579 2.8246916e-19)
(0.087734931 0.0038224756 1.1949181e-19)
(0.087199163 0.0034201496 -4.1166006e-19)
(0.086658778 0.0030019381 0)
(0.086116923 0.0025833329 -4.5995806e-19)
(0.085589086 0.0021119117 9.2220635e-19)
(0.085071273 0.0015960788 -4.650902e-19)
(0.084560302 0.001020159 -1.1600337e-19)
(0.084064663 0.00039829269 1.173339e-19)
(0.083578472 -0.00030346346 2.3438696e-19)
(0.083090801 -0.001060839 0)
(0.082628932 -0.0019028047 0)
(0.082205862 -0.0028484671 -1.203099e-19)
(0.08181954 -0.0038970928 0)
(0.081488025 -0.0050391521 -2.4749448e-19)
(0.081235402 -0.0062841482 0)
(0.0810523 -0.0076314974 -7.746305e-19)
(0.080935434 -0.0090675075 5.3182187e-19)
(0.080916009 -0.010592672 -5.5348882e-19)
(0.081019319 -0.012209897 8.7344112e-19)
(0.081257337 -0.013898167 6.209165e-19)
(0.081637082 -0.01564091 -5.0549008e-19)
(0.082150643 -0.017430003 1.8347258e-19)
(0.082805407 -0.01922888 -1.7876528e-19)
(0.083616107 -0.021028621 1.5286426e-23)
(0.084562497 -0.022813075 7.0550206e-20)
(0.085625734 -0.024581991 -6.4127375e-20)
(0.08681931 -0.026300103 0)
(0.088139965 -0.027939633 1.1069389e-19)
(0.089561221 -0.029505595 1.0521647e-19)
(0.091072802 -0.030975859 0)
(0.092659584 -0.032328806 -1.9503235e-19)
(0.094301727 -0.033556864 3.7981717e-19)
(0.095978487 -0.034641195 0)
(0.097658816 -0.035616536 -9.2083046e-19)
(0.099336601 -0.03649645 7.3117079e-19)
(0.10100869 -0.037257139 0)
(0.10265852 -0.037880689 3.5842322e-19)
(0.1042695 -0.038410829 -3.5836086e-19)
(0.10584553 -0.038838813 0)
(0.10737643 -0.039148443 2.651721e-19)
(0.1088548 -0.039381644 -3.5517113e-19)
(0.1102972 -0.039590182 0)
(0.11172248 -0.039701334 8.8671541e-20)
(0.11311277 -0.039796026 -3.5917124e-19)
(0.11450192 -0.039816382 3.5676575e-19)
(0.11588094 -0.039808319 3.599174e-19)
(0.11727425 -0.039749437 -4.4935092e-19)
(0.11868569 -0.039636788 4.4809168e-19)
(0.12012554 -0.03942736 -4.4333475e-19)
(0.08857026 0.002873435 -5.5868084e-20)
(0.088135675 0.0024927658 1.0999688e-19)
(0.087696443 0.0020961318 2.1395755e-19)
(0.087255485 0.0016951279 5.3699869e-19)
(0.086827383 0.0012491345 -5.3737158e-19)
(0.086408323 0.00076386522 -4.3262648e-19)
(0.085995615 0.00022664425 9.6926512e-19)
(0.085596693 -0.00035267112 -5.4309025e-19)
(0.085206867 -0.0010008971 -5.4113925e-19)
(0.084817249 -0.001700878 8.6651715e-19)
(0.084451648 -0.0024755431 -4.3649606e-19)
(0.08412113 -0.003340362 2.1987965e-19)
(0.083824384 -0.0042956567 2.2130836e-19)
(0.083576922 -0.005334592 8.9608417e-19)
(0.083399474 -0.0064644286 -9.0963174e-19)
(0.083285338 -0.007685299 0)
(0.083233192 -0.0089870282 0)
(0.083269926 -0.010369088 4.3558459e-23)
(0.083417281 -0.011832525 0)
(0.083686013 -0.013359754 5.3946543e-19)
(0.084082708 -0.014936281 -5.792137e-19)
(0.084602528 -0.016554177 6.3385575e-19)
(0.085251456 -0.018182201 -3.15179e-19)
(0.086041125 -0.019810196 4.9283041e-19)
(0.086955427 -0.021424366 -6.3169137e-20)
(0.087978421 -0.023023026 -1.1532922e-19)
(0.089119831 -0.024575218 -1.0684945e-19)
(0.090375532 -0.026056079 -3.0128255e-19)
(0.09172273 -0.027468663 -5.7469003e-19)
(0.09315105 -0.028794056 1.8442469e-19)
(0.094645878 -0.030013571 1.7888454e-19)
(0.096189087 -0.031120663 -1.7477872e-19)
(0.097761561 -0.032099537 -6.8688411e-19)
(0.099336866 -0.032978597 1.3639224e-18)
(0.10090873 -0.033769321 -6.7850925e-19)
(0.10247269 -0.03445274 0)
(0.10401357 -0.035014417 -5.0171083e-19)
(0.10551762 -0.035490229 5.0256155e-19)
(0.10698739 -0.03587376 1.6685215e-19)
(0.10841361 -0.036152203 -2.4904256e-19)
(0.10979041 -0.036359283 -1.6689171e-19)
(0.11113205 -0.036536874 0)
(0.1124545 -0.036627297 -8.3505061e-20)
(0.11374276 -0.036694252 -2.5362982e-19)
(0.11502682 -0.036692091 5.8839987e-19)
(0.11629905 -0.036655772 -2.5439371e-19)
(0.11758194 -0.036566882 -1.6944114e-19)
(0.11887934 -0.036421873 -2.5345328e-19)
(0.12020155 -0.036186049 -1.6726968e-19)
(0.089383692 0.0021328838 5.2297516e-19)
(0.089024476 0.0017659835 2.0592659e-19)
(0.088661067 0.0013858755 -5.010052e-19)
(0.088297103 0.0010011033 4.0174508e-19)
(0.087945385 0.00057810663 -8.0285203e-19)
(0.087602592 0.00012049613 3.0234451e-19)
(0.087266268 -0.00038254641 3.0058263e-19)
(0.086943054 -0.00092418367 -4.0311698e-19)
(0.086629087 -0.0015262241 0)
(0.086317206 -0.0021763571 -8.0019188e-19)
(0.086028239 -0.0028931482 8.0345487e-19)
(0.085771773 -0.003689352 -8.0651277e-19)
(0.085547076 -0.004565885 6.0663408e-19)
(0.085367652 -0.0055177375 -4.0765431e-19)
(0.085251512 -0.0065505302 1.2357041e-18)
(0.085193889 -0.0076647891 8.337695e-19)
(0.085194791 -0.0088527466 -1.2732497e-18)
(0.085277589 -0.01011314 2.1803213e-19)
(0.085461106 -0.011445762 1.3561546e-18)
(0.08575497 -0.012835701 -9.482966e-19)
(0.086165372 -0.014269974 -5.045623e-19)
(0.086689212 -0.015741214 5.4709334e-19)
(0.087331526 -0.017222614 -9.6726673e-19)
(0.088101544 -0.018702861 2.5206485e-19)
(0.088986221 -0.020170249 -5.6808088e-20)
(0.089972025 -0.021622486 1.0414371e-19)
(0.091065962 -0.023032073 9.686787e-20)
(0.092263337 -0.02437681 5.4821734e-19)
(0.093544264 -0.025658571 -1.7487639e-19)
(0.094898566 -0.026861079 5.0652669e-19)
(0.096312297 -0.027968101 0)
(0.097768905 -0.028974137 0)
(0.099250774 -0.029865889 0)
(0.1007351 -0.030667463 3.1590801e-19)
(0.10221567 -0.031388866 -3.1500455e-19)
(0.1036873 -0.032014406 3.1343617e-19)
(0.10513598 -0.032532014 -3.1224246e-19)
(0.10655035 -0.032972791 1.5661887e-19)
(0.10793186 -0.033331573 -6.253647e-19)
(0.10927201 -0.03359737 4.6759109e-19)
(0.11056586 -0.033799424 -1.5679501e-19)
(0.11182681 -0.033975241 3.164312e-19)
(0.11306602 -0.034073336 0)
(0.11427336 -0.034151716 -7.9581069e-20)
(0.11547252 -0.034168929 1.5838017e-19)
(0.11665889 -0.034158005 -1.5967967e-19)
(0.1178511 -0.034102297 3.1919301e-19)
(0.11905351 -0.03400012 1.5919355e-19)
(0.12027472 -0.033815798 -2.2580768e-23)
(0.090142606 0.0014935619 -2.9403308e-19)
(0.089847359 0.0011496178 0)
(0.089548124 0.00079256303 -7.1199697e-24)
(0.089248142 0.00042866303 0)
(0.088959348 3.100407e-05 -3.7534113e-19)
(0.088678807 -0.00039830083 9.4051887e-20)
(0.088404646 -0.00086831155 5.6024568e-19)
(0.088142814 -0.0013744064 1.8740419e-19)
(0.087890375 -0.0019342753 -5.5789897e-19)
(0.087641514 -0.0025392506 -7.407426e-19)
(0.087414692 -0.0032043718 7.4153222e-19)
(0.087218364 -0.0039401883 0)
(0.087052301 -0.0047479636 3.7084208e-19)
(0.086928403 -0.0056239917 -3.7241283e-19)
(0.086862497 -0.0065725658 7.4954244e-19)
(0.086851267 -0.0075944166 -7.5552514e-19)
(0.086895655 -0.0086835481 5.223003e-23)
(0.087016157 -0.0098381619 7.8264613e-19)
(0.0872292 -0.011057131 -1.2104401e-18)
(0.08754346 -0.012327619 8.4101707e-19)
(0.087964787 -0.013637837 -1.1106796e-18)
(0.08849113 -0.01498093 -2.3882831e-19)
(0.089126979 -0.016333741 0)
(0.089879759 -0.017684219 0)
(0.090738483 -0.019022254 0)
(0.09169167 -0.020345193 0)
(0.09274424 -0.021628418 0)
(0.093891174 -0.0228519 1.6672046e-19)
(0.095114953 -0.024016506 -6.3993035e-19)
(0.096405686 -0.025108065 3.0991412e-19)
(0.097750079 -0.026112245 6.0490969e-19)
(0.099132874 -0.027024209 -5.9466588e-19)
(0.10053773 -0.027832549 5.8764373e-19)
(0.10194469 -0.028557504 -5.8609715e-19)
(0.10334754 -0.029207708 2.9281665e-19)
(0.10474051 -0.029770179 -2.9207972e-19)
(0.10611038 -0.030234832 4.3746552e-19)
(0.10744736 -0.030628084 5.8607251e-19)
(0.10875202 -0.030946054 -2.9318868e-19)
(0.11001625 -0.031179732 1.1533208e-25)
(0.11123574 -0.03135366 0)
(0.11242252 -0.031499653 -1.4881524e-19)
(0.11358545 -0.031574853 1.4812347e-19)
(0.1147161 -0.031627609 2.9984313e-19)
(0.11583521 -0.031623557 -3.7336997e-19)
(0.1169389 -0.031589845 -3.7640924e-19)
(0.11804394 -0.031512353 3.0105039e-19)
(0.11915429 -0.031389524 0)
(0.12027781 -0.031190287 1.4889847e-19)
(0.090862676 0.00097856756 -2.7572122e-19)
(0.090618113 0.00065396002 -2.7145174e-19)
(0.090369938 0.00031708123 2.6446202e-19)
(0.090121376 -2.7495067e-05 0)
(0.089883225 -0.0004020419 -2.6350285e-19)
(0.089653011 -0.00080556777 -6.8898138e-24)
(0.089429273 -0.0012458607 5.2283787e-19)
(0.089217418 -0.0017199057 -5.2346176e-19)
(0.089015209 -0.0022422954 5.1860761e-19)
(0.088817983 -0.0028069706 0)
(0.088642156 -0.0034262755 0)
(0.088495277 -0.0041090335 0)
(0.088377531 -0.0048566858 -3.4112346e-19)
(0.088299505 -0.0056664528 -6.827207e-19)
(0.088275215 -0.0065416051 1.3693764e-18)
(0.088302451 -0.0074829473 -1.3752449e-18)
(0.088382807 -0.0084857521 3.4711215e-19)
(0.088534374 -0.0095478358 1.9844565e-23)
(0.088771584 -0.010667419 7.2483843e-19)
(0.089102274 -0.011833299 3.7572892e-19)
(0.089531925 -0.013034704 -1.655024e-23)
(0.090059171 -0.014265241 0)
(0.090688061 -0.015504723 2.1720537e-19)
(0.091424583 -0.01674082 -2.047126e-19)
(0.092259284 -0.017964623 0)
(0.093182344 -0.019173292 -8.5804597e-20)
(0.094197107 -0.020344714 0)
(0.095298363 -0.021460777 1.5248013e-19)
(0.09647053 -0.022521652 -2.934716e-19)
(0.097704066 -0.023514947 -5.698157e-19)
(0.098986323 -0.024427972 8.4320043e-23)
(0.10030319 -0.025256534 8.2441152e-19)
(0.10163947 -0.025990868 -5.4451021e-19)
(0.10297751 -0.026648304 2.7208246e-19)
(0.10431124 -0.027236494 0)
(0.10563451 -0.027744629 -8.1697531e-19)
(0.1069349 -0.028164256 3.9324374e-23)
(0.10820392 -0.028518451 -5.4854014e-19)
(0.10944152 -0.028804305 4.1235344e-19)
(0.11063995 -0.029014264 -4.124737e-19)
(0.1117954 -0.029169695 7.3610233e-23)
(0.11291914 -0.029298865 7.0001857e-19)
(0.11401717 -0.02936418 1.3952458e-19)
(0.11508351 -0.029408737 -2.8249864e-19)
(0.11613514 -0.029402126 -2.8161659e-19)
(0.1171696 -0.029369044 3.5493261e-19)
(0.11820113 -0.029296939 7.098263e-20)
(0.11923377 -0.029185376 1.4169524e-19)
(0.12027372 -0.029004129 -2.108932e-19)
(0.091534353 0.00054172765 0)
(0.091332664 0.00023843932 -8.4927224e-20)
(0.091127769 -7.7032231e-05 0)
(0.090922466 -0.0004014701 0)
(0.090726779 -0.00075306402 0)
(0.090538599 -0.0011316482 0)
(0.090356935 -0.0015438842 -6.5136805e-19)
(0.090186711 -0.001987959 6.5083188e-19)
(0.090026347 -0.002475929 6.4382193e-19)
(0.089872114 -0.0030037102 -1.2769716e-18)
(0.089738721 -0.0035814613 6.3587806e-19)
(0.089632986 -0.0042165934 0)
(0.089555446 -0.0049106217 6.2907635e-19)
(0.089515606 -0.0056614399 -3.1384865e-19)
(0.08952598 -0.0064714942 -3.137708e-19)
(0.089585217 -0.0073415817 1.2562672e-18)
(0.089695371 -0.0082679084 -6.3192177e-19)
(0.089872514 -0.0092480107 -6.4057165e-19)
(0.090129403 -0.01027963 1.8850091e-23)
(0.090473146 -0.011352865 3.3773524e-19)
(0.090908855 -0.012457812 -3.5288727e-19)
(0.091435655 -0.013588451 -3.7434564e-19)
(0.092057212 -0.014727 3.8893559e-19)
(0.092778365 -0.015861192 0)
(0.093590856 -0.016983018 8.4595129e-20)
(0.094486182 -0.018089503 8.9783171e-26)
(0.095466475 -0.019160697 0)
(0.096526445 -0.020180127 0)
(0.097652116 -0.021147401 0)
(0.098834308 -0.022051586 1.0498557e-18)
(0.10006099 -0.022881337 -5.1179139e-23)
(0.10131901 -0.023632934 -7.6297586e-19)
(0.1025942 -0.024297919 5.0521151e-19)
(0.10387073 -0.024891102 0)
(0.10514267 -0.025419223 -2.5364088e-19)
(0.10640354 -0.025873228 2.5413627e-19)
(0.10764154 -0.026246002 -2.5480389e-19)
(0.10884912 -0.026557579 7.7064437e-19)
(0.11002564 -0.026805887 0)
(0.11116363 -0.026984719 0)
(0.11225956 -0.027112474 5.2155867e-19)
(0.11332376 -0.027213737 -5.2710946e-19)
(0.11436052 -0.027256522 5.2606491e-19)
(0.11536497 -0.027277814 -3.994391e-19)
(0.11635188 -0.027251818 0)
(0.11731921 -0.027199642 -6.6975947e-20)
(0.11827964 -0.027110482 -6.7002857e-20)
(0.11923682 -0.026984236 -2.0074387e-19)
(0.12019602 -0.026793682 -1.3283347e-19)
(0.092166092 0.00018563739 -3.2399639e-19)
(0.091999606 -9.863036e-05 7.9756949e-20)
(0.091830371 -0.00039475124 1.5558244e-19)
(0.091660942 -0.00070052947 0)
(0.091500512 -0.0010310515 0)
(0.091347337 -0.0013867607 1.539726e-19)
(0.091200791 -0.0017734342 1.5230804e-19)
(0.091065395 -0.0021901467 0)
(0.090940084 -0.0026469612 0)
(0.090821928 -0.0031412516 2.970876e-19)
(0.090724144 -0.0036814444 0)
(0.090652944 -0.0042738104 0)
(0.09060915 -0.0049198726 -5.8136877e-19)
(0.090601358 -0.005618017 2.8923657e-19)
(0.090640807 -0.006370038 0)
(0.09072682 -0.0071766754 -5.7567858e-19)
(0.090861772 -0.0080348186 -5.7729211e-19)
(0.091060009 -0.0089418068 5.8328871e-19)
(0.091332874 -0.0098950378 1.187696e-18)
(0.091686829 -0.010885662 -6.1042752e-19)
(0.092126624 -0.011904527 -6.3482761e-19)
(0.092651744 -0.012945934 3.3505509e-19)
(0.093265488 -0.013994073 -3.5008828e-19)
(0.093971747 -0.015036956 -8.4386606e-20)
(0.094763226 -0.016067271 7.8403833e-20)
(0.095632473 -0.017081955 0)
(0.096580674 -0.018062959 2.6944635e-19)
(0.097602523 -0.018995254 0)
(0.098685385 -0.019878039 4.9668265e-19)
(0.099820437 -0.020701623 -3.1391729e-23)
(0.10099622 -0.02145584 -4.762918e-19)
(0.10220045 -0.022137413 -6.570919e-23)
(0.10341984 -0.022739032 -4.6919959e-19)
(0.10464012 -0.023273505 -4.7043766e-19)
(0.10585548 -0.023746893 -1.1818255e-18)
(0.1070593 -0.024151649 9.4928946e-19)
(0.10824036 -0.024481851 0)
(0.10939192 -0.024755181 -2.4067265e-19)
(0.11051296 -0.024970309 0)
(0.11159627 -0.025122172 4.8587054e-19)
(0.11263863 -0.025226939 2.4532728e-19)
(0.11364965 -0.02530647 -5.7783778e-23)
(0.11463192 -0.025332966 -4.9599066e-19)
(0.1155819 -0.025339153 3.5255624e-24)
(0.11651194 -0.02530252 -2.5076503e-19)
(0.11742072 -0.025241975 2.5286109e-19)
(0.11831915 -0.025148012 -2.5304779e-19)
(0.11921086 -0.025021234 5.6888027e-19)
(0.12009967 -0.024835797 6.2766999e-20)
(0.092756084 -0.00011151845 -3.0444526e-19)
(0.092619549 -0.00037703589 7.4942944e-20)
(0.092480764 -0.00065427732 2.925613e-19)
(0.092341897 -0.0009418878 7.2889117e-19)
(0.092211483 -0.001252303 -5.7933278e-19)
(0.092088072 -0.0015864133 -1.4430444e-19)
(0.091971383 -0.0019492303 -1.4260178e-19)
(0.091865578 -0.0023404932 -5.6789711e-19)