/*--------------------------------*- C++ -*----------------------------------*\
| =========                 |                                                 |
| \\      /  F ield         | OpenFOAM: The Open Source CFD Toolbox           |
|  \\    /   O peration     | Version:  v2006                                 |
|   \\  /    A nd           | Website:  www.openfoam.com                      |
|    \\/     M anipulation  |                                                 |
\*---------------------------------------------------------------------------*/
FoamFile
{
    version     2.0;
    format      ascii;
    class       volVectorField;
    location    "3000";
    object      wallShearStress;
}
// * * * * * * * * * * * * * * * * * * * * * * * * * * * * * * * * * * * * * //

dimensions      [1 -1 -2 0 0 0 0];


internalField   uniform (0 0 0);

boundaryField
{
    Side
    {
        type            empty;
    }
    Inlet
    {
        type            calculated;
        value           uniform (0 0 0);
    }
    Wing
    {
        type            calculated;
        value           nonuniform List<vector> 
139
(
(-3.0074395e-05 -1.0263858e-05 3.1914345e-23)
(-2.9144312e-05 -1.0473182e-05 -3.1784222e-23)
(-2.6608468e-05 -9.4377407e-06 3.1750957e-23)
(-2.2642187e-05 -8.9330472e-06 1.4693679e-39)
(-1.9637204e-05 -8.1731339e-06 -2.9387359e-39)
(-1.67998e-05 -7.2561756e-06 -6.4975823e-23)
(-1.456786e-05 -5.9275018e-06 4.8566857e-23)
(-1.2059586e-05 -4.6994909e-06 2.3509887e-38)
(-1.0409178e-05 -3.2339865e-06 -1.0506164e-22)
(-8.5611838e-06 -1.8907504e-06 -8.0287886e-24)
(-6.9837955e-06 -8.9722153e-07 1.4640629e-22)
(-5.8622366e-06 -1.8481916e-07 -1.294895e-22)
(-4.8638672e-06 3.9679844e-07 1.3059472e-22)
(-4.16027e-06 8.64831e-07 1.3746834e-22)
(-3.8386502e-06 1.3068576e-06 -1.5357446e-22)
(-3.7389611e-06 1.8858667e-06 -5.8774718e-39)
(-3.7763575e-06 2.5828623e-06 3.0697648e-24)
(-3.8341519e-06 3.4383377e-06 -2.6333174e-24)
(-3.9829868e-06 4.4279924e-06 1.5071258e-22)
(-4.2994436e-06 5.5761422e-06 -1.3808733e-22)
(-4.646657e-06 6.9057044e-06 6.4867148e-23)
(-4.960638e-06 8.3164863e-06 -1.2206224e-22)
(-5.6629142e-06 9.7821594e-06 5.9460865e-23)
(-6.5609704e-06 1.1474389e-05 -2.7090722e-24)
(-7.0376378e-06 1.3313111e-05 1.4172345e-23)
(-7.3164137e-06 1.5087953e-05 -1.1787665e-23)
(-8.5012038e-06 1.6703616e-05 5.4986616e-23)
(-9.9578604e-06 1.8626303e-05 -5.5167294e-23)
(-1.0854893e-05 2.0690359e-05 0)
(-1.2364509e-05 2.266833e-05 -1.1238583e-22)
(-1.4445355e-05 2.4695268e-05 1.1236299e-22)
(-1.7012919e-05 2.6826648e-05 -2.2813192e-22)
(-2.0283796e-05 2.9854197e-05 2.2920628e-22)
(-2.2123328e-05 3.3340096e-05 -1.1491595e-22)
(-2.3915778e-05 3.6356194e-05 1.1626228e-22)
(-2.7129664e-05 3.8280723e-05 1.1422541e-22)
(-3.133088e-05 4.0556897e-05 2.053909e-25)
(-3.4342992e-05 4.3470207e-05 -2.3496737e-22)
(-3.8658099e-05 4.5326121e-05 1.2743461e-22)
(-4.43626e-05 4.6784789e-05 1.1914747e-22)
(-4.8735602e-05 4.9164305e-05 -1.1872021e-22)
(-5.0556522e-05 5.0534319e-05 7.4355104e-24)
(-5.4560848e-05 4.9481374e-05 1.4880668e-23)
(-5.559205e-05 4.9889272e-05 -5.9554023e-23)
(-5.7392533e-05 4.771207e-05 1.3482802e-22)
(-5.7198371e-05 4.6075329e-05 -5.9499589e-23)
(-5.6153195e-05 4.2979789e-05 0)
(-5.4476841e-05 3.9686728e-05 6.0665331e-23)
(-5.3145398e-05 3.6387582e-05 1.4693679e-39)
(-1.6567056e-05 -1.4784889e-06 -4.0121179e-21)
(-1.3797754e-05 -8.4242614e-07 -1.3665122e-37)
(-1.3188461e-05 -5.3871649e-08 -2.2566999e-22)
(-1.5012035e-05 3.3993878e-07 -6.3286172e-23)
(-1.805182e-05 5.197663e-07 1.0163261e-21)
(-2.0452175e-05 4.5356486e-07 -4.7907387e-22)
(-2.2009858e-05 3.3840051e-07 1.3775324e-39)
(-2.3251748e-05 1.866411e-07 3.2223616e-23)
(-2.4237486e-05 2.0885832e-08 9.6792595e-23)
(-2.5080278e-05 -1.4599992e-07 1.0696498e-27)
(-2.5804344e-05 -3.3031705e-07 3.2500962e-23)
(-2.6360558e-05 -4.9419042e-07 3.252259e-23)
(-2.6897368e-05 -6.5506601e-07 -4.9361631e-28)
(-2.7388843e-05 -8.2757828e-07 -3.2728449e-23)
(-2.7727443e-05 -9.9127608e-07 2.6230617e-22)
(-2.7879847e-05 -1.1314039e-06 1.3160469e-22)
(-2.7975239e-05 -1.2418447e-06 -1.3183474e-22)
(-2.820967e-05 -1.3699846e-06 2.8698593e-42)
(-2.8572371e-05 -1.5482401e-06 -1.315434e-22)
(-2.9054928e-05 -1.8061213e-06 -2.7550649e-40)
(-2.960084e-05 -2.1507656e-06 -1.644354e-23)
(-3.0005658e-05 -2.5424449e-06 1.6481991e-23)
(-3.0153182e-05 -2.9441977e-06 1.3226034e-22)
(-2.9944001e-05 -3.3071829e-06 -1.3218025e-22)
(-2.9672284e-05 -3.6698007e-06 1.3481827e-22)
(-2.9419771e-05 -4.0443256e-06 -1.3498527e-22)
(-2.8971894e-05 -4.3999351e-06 1.8367099e-40)
(-2.8522029e-05 -4.7747011e-06 -6.672242e-23)
(-2.8046588e-05 -5.1443274e-06 -1.6667537e-23)
(-2.7714939e-05 -5.6289392e-06 1.6653618e-23)
(-2.7556819e-05 -6.1922114e-06 -3.314219e-23)
(-2.7652856e-05 -7.0448427e-06 -7.3468397e-40)
(-2.8261707e-05 -8.1743748e-06 0)
(-2.9420131e-05 -9.6722175e-06 -1.102026e-39)
(-5.2380289e-05 -9.5519276e-07 2.8789679e-23)
(-5.0502538e-05 -1.3693858e-06 3.0869726e-23)
(-4.9053038e-05 -1.6858772e-06 -5.2484602e-27)
(-4.7780031e-05 -1.9650729e-06 -6.6177319e-23)
(-4.6587527e-05 -2.2296659e-06 3.9039254e-24)
(-4.5369208e-05 -2.4919147e-06 5.8669676e-23)
(-4.3919832e-05 -2.7597532e-06 1.2533608e-22)
(-4.2420356e-05 -2.9945694e-06 1.256728e-22)
(-4.1123576e-05 -3.1911527e-06 5.0786246e-22)
(-4.003064e-05 -3.3734086e-06 -2.5241291e-22)
(-3.9038045e-05 -3.5617185e-06 -2.5254015e-22)
(-3.8073428e-05 -3.761439e-06 2.6035823e-22)
(-3.6947323e-05 -3.9812445e-06 -5.1139127e-22)
(-3.5669257e-05 -4.1902149e-06 -7.8587915e-24)
(-3.4443337e-05 -4.3736621e-06 -9.9673638e-22)
(-3.3285672e-05 -4.5685556e-06 1.0024963e-21)
(-3.1910191e-05 -4.7494954e-06 -2.2040519e-38)
(-3.0408694e-05 -4.8960629e-06 -4.4082395e-27)
(-2.9001541e-05 -5.0249574e-06 1.9759701e-21)
(-2.7396938e-05 -5.1375707e-06 -1.9592879e-21)
(-2.5517435e-05 -5.1724644e-06 1.898145e-24)
(-2.3463648e-05 -5.1615787e-06 3.84908e-21)
(-2.0818313e-05 -4.9611724e-06 -3.6832765e-24)
(-1.9328261e-05 -4.9022093e-06 1.4694357e-23)
(-1.1592095e-05 -3.9234936e-06 -6.5536103e-21)
(-5.2281075e-05 3.3671289e-05 2.9387359e-39)
(-5.2097383e-05 3.145452e-05 -6.3220925e-23)
(-5.2322784e-05 2.981528e-05 -2.9387359e-39)
(-5.272158e-05 2.8459555e-05 3.2031686e-23)
(-5.3543621e-05 2.7353869e-05 3.2009665e-23)
(-5.4489002e-05 2.6469594e-05 -1.5984179e-23)
(-5.6088495e-05 2.5705104e-05 1.5915081e-23)
(-5.7283811e-05 2.5186231e-05 -7.3468397e-40)
(-5.8345882e-05 2.4401322e-05 6.3370472e-23)
(-5.9677582e-05 2.3812108e-05 -6.3139749e-23)
(-6.1042464e-05 2.3180395e-05 0)
(-6.284024e-05 2.2586617e-05 6.2420179e-23)
(-6.4114519e-05 2.1977595e-05 6.2227589e-23)
(-6.5558078e-05 2.11442e-05 -1.4693679e-39)
(-6.6610803e-05 2.0401051e-05 -1.9237871e-24)
(-6.7783324e-05 1.9381763e-05 1.9070239e-24)
(-6.8951512e-05 1.850665e-05 -1.1479437e-41)
(-6.9660187e-05 1.7362847e-05 3.6734198e-40)
(-7.0466181e-05 1.6222049e-05 6.0762055e-23)
(-7.0700515e-05 1.4968833e-05 -1.2058561e-22)
(-7.1774034e-05 1.3611032e-05 5.9566421e-23)
(-7.2069706e-05 1.2377522e-05 5.5101298e-40)
(-7.1574789e-05 1.0691665e-05 9.2935543e-25)
(-7.0897391e-05 9.221928e-06 -6.0133377e-23)
(-6.9190761e-05 7.5332209e-06 -1.8367099e-40)
(-6.8320062e-05 5.9865859e-06 2.9731481e-23)
(-6.6320513e-05 4.7020154e-06 -1.4877583e-23)
(-6.3499795e-05 3.0400052e-06 -1.9773535e-24)
(-6.0747571e-05 1.7285945e-06 2.3265568e-25)
(-5.7520626e-05 5.2908991e-07 9.3921375e-25)
(-5.4616543e-05 -3.4746324e-07 9.4773259e-25)
)
;
    }
    Outlet
    {
        type            calculated;
        value           uniform (0 0 0);
    }
    Ground
    {
        type            calculated;
        value           uniform (0 0 0);
    }
}


// ************************************************************************* //
