/*--------------------------------*- C++ -*----------------------------------*\
| =========                 |                                                 |
| \\      /  F ield         | OpenFOAM: The Open Source CFD Toolbox           |
|  \\    /   O peration     | Version:  v2006                                 |
|   \\  /    A nd           | Website:  www.openfoam.com                      |
|    \\/     M anipulation  |                                                 |
\*---------------------------------------------------------------------------*/
FoamFile
{
    version     2.0;
    format      ascii;
    class       volScalarField;
    location    "3000";
    object      yPlus;
}
// * * * * * * * * * * * * * * * * * * * * * * * * * * * * * * * * * * * * * //

dimensions      [0 0 0 0 0 0 0];


internalField   uniform 0;

boundaryField
{
    Side
    {
        type            empty;
    }
    Inlet
    {
        type            calculated;
        value           uniform 0;
    }
    Wing
    {
        type            calculated;
        value           nonuniform List<scalar> 
139
(
88.866938
86.740587
79.341653
73.519779
67.82653
63.229808
56.846142
52.138585
46.242712
39.425658
34.358378
30.615178
26.830483
23.998059
23.313565
24.221052
26.219289
29.712079
34.594669
39.964144
45.47559
50.698672
56.230689
61.772789
67.21402
71.877996
75.951365
79.893816
84.219031
87.302966
89.726962
91.823801
96.363807
101.7428
103.93952
104.01287
107.15475
110.07178
110.31002
114.10107
121.06998
124.42068
125.09613
129.14123
127.9086
129.24036
127.04236
124.02459
120.51237
60.987088
56.304884
55.916517
60.086912
65.916557
70.027181
72.530733
74.463862
75.93797
77.184545
78.227694
79.015178
79.785257
80.473525
80.939185
81.147504
81.321051
81.712628
82.282582
83.025988
83.837193
84.415959
84.640244
84.36076
84.112085
83.862939
83.379296
82.965054
82.530174
82.459727
82.683859
83.551835
85.32282
88.057663
110.40749
108.39081
106.81727
105.41264
104.08554
102.69047
101.00605
99.265174
97.74844
96.456545
95.263637
94.085291
92.672803
91.072384
89.530173
88.06066
86.256481
84.315696
82.476697
80.308509
77.726786
74.794074
70.830125
68.66247
53.432574
117.73895
115.5926
114.49378
113.7475
113.46321
113.69794
114.29675
115.59374
115.96236
117.01651
118.05704
119.46962
120.99919
122.02483
123.45656
124.27211
125.72913
126.46991
127.35706
127.82128
128.66536
129.52463
129.08151
128.75752
127.27884
126.48696
124.83706
122.07027
119.24557
115.87992
112.81501
)
;
    }
    Outlet
    {
        type            calculated;
        value           uniform 0;
    }
    Ground
    {
        type            calculated;
        value           nonuniform List<scalar> 
154
(
81.640203
84.681824
87.75746
90.715519
93.558663
96.307243
98.961144
101.51935
103.98364
106.35649
108.6368
110.83262
112.93015
114.96619
116.86311
118.78303
120.43858
122.27146
123.9874
125.68154
127.28061
129.02905
130.59192
132.11548
133.59693
135.01708
136.38748
137.71499
139.0026
140.25357
141.471
142.65748
143.81534
144.94667
146.05338
147.13725
148.19989
149.24281
150.26743
151.27507
152.26696
153.24425
154.20803
155.15932
156.09907
157.02818
157.94751
158.85786
159.75998
160.6546
161.54239
162.424
163.30005
164.17112
165.03775
165.90049
166.75983
167.61626
168.47023
169.32219
170.17254
171.02166
171.86991
172.7176
173.56493
174.41213
175.25902
176.10579
176.95077
177.7961
178.62912
179.48422
180.22083
181.35469
57.248858
54.114184
51.468104
49.257296
47.529002
46.341281
45.724518
45.673528
46.153147
47.110255
48.47728
50.181457
52.152458
54.326754
56.649666
59.075695
61.567881
64.096492
66.638373
69.173813
71.692059
74.168366
76.63639
78.950103
130.81137
130.02212
129.1254
128.09969
126.95116
125.66526
124.22263
122.6061
120.79753
118.77882
116.53574
114.05135
111.34093
108.3634
105.12477
101.62288
97.864154
93.860298
89.6221
85.184641
80.551418
75.751683
70.817322
65.748597
60.707513
475.52578
400.96466
342.19303
305.89699
277.76336
253.8144
234.3703
218.79457
206.02595
195.1783
186.0952
178.36635
171.73767
166.02674
161.0947
156.80601
153.07063
149.80895
146.95223
144.45228
142.25212
140.3358
138.65556
137.20411
135.94894
134.85861
133.9368
133.1644
132.54749
132.00791
131.66319
)
;
    }
}


// ************************************************************************* //
