# Force coefficients
# dragDir       : (1.00000000e+00 0.00000000e+00 0.00000000e+00)
# sideDir       : (0.00000000e+00 0.00000000e+00 -1.00000000e+00)
# liftDir       : (0.00000000e+00 1.00000000e+00 0.00000000e+00)
# rollAxis      : (1.00000000e+00 0.00000000e+00 0.00000000e+00)
# pitchAxis     : (0.00000000e+00 0.00000000e+00 -1.00000000e+00)
# yawAxis       : (0.00000000e+00 1.00000000e+00 0.00000000e+00)
# magUInf       : 1.03413075e-01
# lRef          : 1.00000000e+00
# Aref          : 1.00000000e+00
# CofR          : (0.00000000e+00 0.00000000e+00 0.00000000e+00)
#
# Time          	Cd              	Cs              	Cl              	CmRoll          	CmPitch         	CmYaw           	Cd(f)           	Cd(r)           	Cs(f)           	Cs(r)           	Cl(f)           	Cl(r)           
1               	3.17840630e+01	5.92983328e-19	-7.57711054e+01	3.78855527e+01	4.97588338e+01	1.58920315e+01	5.37775842e+01	-2.19935212e+01	1.58920315e+01	-1.58920315e+01	1.18732811e+01	-8.76443865e+01
2               	4.49864943e+00	5.43709519e-19	-3.98813498e+00	1.99406749e+00	5.03938986e+00	2.24932472e+00	4.24339220e+00	2.55257227e-01	2.24932472e+00	-2.24932472e+00	3.04532237e+00	-7.03345734e+00
3               	-4.49602336e+00	5.40041425e-19	6.97871707e+00	-3.48935854e+00	-2.22874702e+00	-2.24801168e+00	-5.73737022e+00	1.24134686e+00	-2.24801168e+00	2.24801168e+00	1.26061152e+00	5.71810556e+00
4               	-1.38768041e+00	5.27406058e-19	9.28341723e+00	-4.64170861e+00	-3.19235619e+00	-6.93840207e-01	-5.33554882e+00	3.94786841e+00	-6.93840207e-01	6.93840207e-01	1.44935243e+00	7.83406480e+00
5               	2.63084093e-01	5.34745983e-19	1.65414673e+00	-8.27073367e-01	-8.20624291e-01	1.31542046e-01	-6.95531321e-01	9.58615414e-01	1.31542046e-01	-1.31542046e-01	6.44907656e-03	1.64769766e+00
6               	3.80796191e-01	5.35212498e-19	-2.17186654e+00	1.08593327e+00	4.74575104e-01	1.90398096e-01	1.27633136e+00	-8.95535172e-01	1.90398096e-01	-1.90398096e-01	-6.11358165e-01	-1.56050837e+00
7               	-1.54456041e-01	5.34488283e-19	-3.31276948e+00	1.65638474e+00	5.79787152e-01	-7.72280203e-02	1.57915672e+00	-1.73361276e+00	-7.72280203e-02	7.72280203e-02	-1.07659759e+00	-2.23617189e+00
8               	-4.00918038e-01	5.34765457e-19	-3.07791969e+00	1.53895984e+00	3.80264997e-01	-2.00459019e-01	1.33850083e+00	-1.73941886e+00	-2.00459019e-01	2.00459019e-01	-1.15869485e+00	-1.91922484e+00
9               	-3.72815666e-01	5.31141278e-19	-1.38039623e+00	6.90198116e-01	-7.60555820e-02	-1.86407833e-01	5.03790283e-01	-8.76605949e-01	-1.86407833e-01	1.86407833e-01	-7.66253698e-01	-6.14142534e-01
10              	-1.11389869e-01	5.29222367e-19	-5.89609205e-01	2.94804602e-01	-4.53622548e-02	-5.56949347e-02	2.39109668e-01	-3.50499537e-01	-5.56949347e-02	5.56949347e-02	-3.40166857e-01	-2.49442348e-01
11              	7.98738380e-02	5.28652457e-19	3.20435853e-01	-1.60217926e-01	-1.07496566e-01	3.99369190e-02	-1.20281007e-01	2.00154845e-01	3.99369190e-02	-3.99369190e-02	5.27213600e-02	2.67714493e-01
12              	2.22930759e-01	5.29090959e-19	4.24967285e-01	-2.12483642e-01	3.41894776e-02	1.11465380e-01	-1.01018263e-01	3.23949022e-01	1.11465380e-01	-1.11465380e-01	2.46673120e-01	1.78294165e-01
13              	2.40900843e-01	5.28616986e-19	4.98579032e-01	-2.49289516e-01	5.58498727e-02	1.20450421e-01	-1.28839095e-01	3.69739937e-01	1.20450421e-01	-1.20450421e-01	3.05139389e-01	1.93439643e-01
14              	2.30017651e-01	5.28112651e-19	8.36214279e-02	-4.18107139e-02	1.85958948e-01	1.15008825e-01	7.31981114e-02	1.56819539e-01	1.15008825e-01	-1.15008825e-01	2.27769662e-01	-1.44148234e-01
15              	1.63938771e-01	5.26933922e-19	-2.06725826e-01	1.03362913e-01	2.08174397e-01	8.19693855e-02	1.85332298e-01	-2.13935274e-02	8.19693855e-02	-8.19693855e-02	1.04811484e-01	-3.11537310e-01
16              	1.12142345e-01	5.26000518e-19	-5.97922541e-01	2.98961270e-01	2.65103280e-01	5.60711727e-02	3.55032443e-01	-2.42890098e-01	5.60711727e-02	-5.60711727e-02	-3.38579900e-02	-5.64064551e-01
17              	5.01297540e-02	5.24840585e-19	-7.11601274e-01	3.55800637e-01	2.22181459e-01	2.50648770e-02	3.80865514e-01	-3.30735760e-01	2.50648770e-02	-2.50648770e-02	-1.33619178e-01	-5.77982097e-01
18              	2.77613747e-02	5.24006029e-19	-8.59806243e-01	4.29903122e-01	2.35198966e-01	1.38806874e-02	4.43783809e-01	-4.16022434e-01	1.38806874e-02	-1.38806874e-02	-1.94704156e-01	-6.65102087e-01
19              	9.24263254e-03	5.23082624e-19	-7.46721017e-01	3.73360509e-01	1.78251506e-01	4.62131627e-03	3.77981825e-01	-3.68739192e-01	4.62131627e-03	-4.62131627e-03	-1.95109003e-01	-5.51612014e-01
20              	2.53920187e-02	5.22466605e-19	-7.49251907e-01	3.74625953e-01	1.97004602e-01	1.26960093e-02	3.87321963e-01	-3.61929944e-01	1.26960093e-02	-1.26960093e-02	-1.77621351e-01	-5.71630556e-01
21              	3.51897452e-02	5.21688664e-19	-5.43438911e-01	2.71719455e-01	1.50973098e-01	1.75948726e-02	2.89314328e-01	-2.54124583e-01	1.75948726e-02	-1.75948726e-02	-1.20746357e-01	-4.22692553e-01
22              	5.87168777e-02	5.21210641e-19	-5.40241728e-01	2.70120864e-01	1.82403623e-01	2.93584388e-02	2.99479303e-01	-2.40762425e-01	2.93584388e-02	-2.93584388e-02	-8.77172415e-02	-4.52524487e-01
23              	6.96197881e-02	5.20406263e-19	-4.26155907e-01	2.13077954e-01	1.69189554e-01	3.48098941e-02	2.47887848e-01	-1.78268060e-01	3.48098941e-02	-3.48098941e-02	-4.38883994e-02	-3.82267508e-01
24              	8.87088055e-02	5.19316881e-19	-4.55081795e-01	2.27540897e-01	2.06694942e-01	4.43544027e-02	2.71895300e-01	-1.83186495e-01	4.43544027e-02	-4.43544027e-02	-2.08459553e-02	-4.34235839e-01
25              	8.72449156e-02	5.18535395e-19	-4.34147503e-01	2.17073752e-01	2.02214040e-01	4.36224578e-02	2.60696209e-01	-1.73451294e-01	4.36224578e-02	-4.36224578e-02	-1.48597119e-02	-4.19287791e-01
26              	9.16612485e-02	5.17859384e-19	-4.72968312e-01	2.36484156e-01	2.20138229e-01	4.58306243e-02	2.82314780e-01	-1.90653532e-01	4.58306243e-02	-4.58306243e-02	-1.63459273e-02	-4.56622385e-01
27              	8.50059963e-02	5.17054698e-19	-5.14104176e-01	2.57052088e-01	2.25388124e-01	4.25029981e-02	2.99555086e-01	-2.14549090e-01	4.25029981e-02	-4.25029981e-02	-3.16639637e-02	-4.82440212e-01
28              	8.17900452e-02	5.16362363e-19	-5.71358490e-01	2.85679245e-01	2.38940628e-01	4.08950226e-02	3.26574268e-01	-2.44784223e-01	4.08950226e-02	-4.08950226e-02	-4.67386175e-02	-5.24619873e-01
29              	7.62570220e-02	5.15669254e-19	-6.02972783e-01	3.01486392e-01	2.41494556e-01	3.81285110e-02	3.39614903e-01	-2.63357881e-01	3.81285110e-02	-3.81285110e-02	-5.99918352e-02	-5.42980948e-01
30              	7.33670775e-02	5.15028913e-19	-6.29772864e-01	3.14886432e-01	2.46161041e-01	3.66835387e-02	3.51569971e-01	-2.78202893e-01	3.66835387e-02	-3.66835387e-02	-6.87253904e-02	-5.61047473e-01
31              	7.08582082e-02	5.14399574e-19	-6.37940821e-01	3.18970411e-01	2.46386077e-01	3.54291041e-02	3.54399515e-01	-2.83541306e-01	3.54291041e-02	-3.54291041e-02	-7.25843331e-02	-5.65356488e-01
32              	7.13379715e-02	5.13825273e-19	-6.38359320e-01	3.19179660e-01	2.48271672e-01	3.56689858e-02	3.54848646e-01	-2.83510674e-01	3.56689858e-02	-3.56689858e-02	-7.09079873e-02	-5.67451332e-01
33              	7.22445013e-02	5.13224738e-19	-6.24644691e-01	3.12322345e-01	2.46755516e-01	3.61222506e-02	3.48444596e-01	-2.76200095e-01	3.61222506e-02	-3.61222506e-02	-6.55668293e-02	-5.59077862e-01
34              	7.39671921e-02	5.12700477e-19	-6.20194913e-01	3.10097456e-01	2.49223581e-01	3.69835960e-02	3.47081053e-01	-2.73113860e-01	3.69835960e-02	-3.69835960e-02	-6.08738757e-02	-5.59321037e-01
35              	7.57341388e-02	5.12443013e-19	-6.08329245e-01	3.04164622e-01	2.49483175e-01	3.78670694e-02	3.42031692e-01	-2.66297553e-01	3.78670694e-02	-3.78670694e-02	-5.46814476e-02	-5.53647797e-01
36              	7.75460772e-02	5.12228381e-19	-5.99960218e-01	2.99980109e-01	2.50231434e-01	3.87730386e-02	3.38753148e-01	-2.61207070e-01	3.87730386e-02	-3.87730386e-02	-4.97486747e-02	-5.50211543e-01
37              	7.91539011e-02	5.12044802e-19	-5.96366491e-01	2.98183245e-01	2.52476484e-01	3.95769506e-02	3.37760196e-01	-2.58606295e-01	3.95769506e-02	-3.95769506e-02	-4.57067611e-02	-5.50659729e-01
38              	8.19360295e-02	5.11850510e-19	-5.99145289e-01	2.99572645e-01	2.58145175e-01	4.09680148e-02	3.40540659e-01	-2.58604630e-01	4.09680148e-02	-4.09680148e-02	-4.14274691e-02	-5.57717820e-01
39              	8.34778281e-02	5.11669615e-19	-6.10091962e-01	3.05045981e-01	2.64418430e-01	4.17389140e-02	3.46784895e-01	-2.63307067e-01	4.17389140e-02	-4.17389140e-02	-4.06275508e-02	-5.69464411e-01
40              	8.47692735e-02	5.11486265e-19	-6.19369817e-01	3.09684908e-01	2.69486436e-01	4.23846368e-02	3.52069545e-01	-2.67300272e-01	4.23846368e-02	-4.23846368e-02	-4.01984725e-02	-5.79171344e-01
41              	8.49706317e-02	5.11311131e-19	-6.30899643e-01	3.15449822e-01	2.73545998e-01	4.24853159e-02	3.57935137e-01	-2.72964506e-01	4.24853159e-02	-4.24853159e-02	-4.19038240e-02	-5.88995819e-01
42              	8.40111810e-02	5.11150530e-19	-6.44886008e-01	3.22443004e-01	2.76570480e-01	4.20055905e-02	3.64448595e-01	-2.80437414e-01	4.20055905e-02	-4.20055905e-02	-4.58725240e-02	-5.99013484e-01
43              	8.26729595e-02	5.10985324e-19	-6.53760492e-01	3.26880246e-01	2.77278455e-01	4.13364797e-02	3.68216726e-01	-2.85543766e-01	4.13364797e-02	-4.13364797e-02	-4.96017914e-02	-6.04158701e-01
44              	8.13572562e-02	5.10828427e-19	-6.61396601e-01	3.30698301e-01	2.78031219e-01	4.06786281e-02	3.71376929e-01	-2.90019672e-01	4.06786281e-02	-4.06786281e-02	-5.26670818e-02	-6.08729519e-01
45              	8.08608415e-02	5.10687522e-19	-6.67023426e-01	3.33511713e-01	2.79751999e-01	4.04304207e-02	3.73942134e-01	-2.93081292e-01	4.04304207e-02	-4.04304207e-02	-5.37597141e-02	-6.13263712e-01
46              	8.11098375e-02	5.10566474e-19	-6.69007170e-01	3.34503585e-01	2.81510821e-01	4.05549187e-02	3.75058504e-01	-2.93948666e-01	4.05549187e-02	-4.05549187e-02	-5.29927643e-02	-6.16014405e-01
47              	8.19043471e-02	5.10462190e-19	-6.66212317e-01	3.33106159e-01	2.82450740e-01	4.09521736e-02	3.74058332e-01	-2.92153985e-01	4.09521736e-02	-4.09521736e-02	-5.06554187e-02	-6.15556899e-01
48              	8.30299683e-02	5.10363717e-19	-6.61581708e-01	3.30790854e-01	2.83153432e-01	4.15149842e-02	3.72305838e-01	-2.89275870e-01	4.15149842e-02	-4.15149842e-02	-4.76374220e-02	-6.13944285e-01
49              	8.41418015e-02	5.10274345e-19	-6.56315897e-01	3.28157948e-01	2.83361111e-01	4.20709008e-02	3.70228849e-01	-2.86087048e-01	4.20709008e-02	-4.20709008e-02	-4.47968375e-02	-6.11519059e-01
50              	8.50528486e-02	5.10181263e-19	-6.51927173e-01	3.25963587e-01	2.83445201e-01	4.25264243e-02	3.68490011e-01	-2.83437162e-01	4.25264243e-02	-4.25264243e-02	-4.25183855e-02	-6.09408788e-01
51              	8.58729072e-02	5.10078078e-19	-6.52087570e-01	3.26043785e-01	2.84975785e-01	4.29364536e-02	3.68980239e-01	-2.83107332e-01	4.29364536e-02	-4.29364536e-02	-4.10680000e-02	-6.11019570e-01
52              	8.65679184e-02	5.09961600e-19	-6.57925941e-01	3.28962971e-01	2.88277858e-01	4.32839592e-02	3.72246930e-01	-2.85679011e-01	4.32839592e-02	-4.32839592e-02	-4.06851127e-02	-6.17240829e-01
53              	8.68434004e-02	5.09832104e-19	-6.65583649e-01	3.32791824e-01	2.91488480e-01	4.34217002e-02	3.76213525e-01	-2.89370124e-01	4.34217002e-02	-4.34217002e-02	-4.13033445e-02	-6.24280304e-01
54              	8.67537982e-02	5.09707785e-19	-6.72651107e-01	3.36325553e-01	2.93935024e-01	4.33768991e-02	3.79702452e-01	-2.92948654e-01	4.33768991e-02	-4.33768991e-02	-4.23905289e-02	-6.30260578e-01
55              	8.64113897e-02	5.09603874e-19	-6.78598358e-01	3.39299179e-01	2.95536811e-01	4.32056949e-02	3.82504874e-01	-2.96093484e-01	4.32056949e-02	-4.32056949e-02	-4.37623681e-02	-6.34835989e-01
56              	8.59296421e-02	5.09518248e-19	-6.81679116e-01	3.40839558e-01	2.95862326e-01	4.29648211e-02	3.83804379e-01	-2.97874737e-01	4.29648211e-02	-4.29648211e-02	-4.49772320e-02	-6.36701884e-01
57              	8.56631847e-02	5.09446859e-19	-6.83359240e-01	3.41679620e-01	2.96064488e-01	4.28315923e-02	3.84511212e-01	-2.98848028e-01	4.28315923e-02	-4.28315923e-02	-4.56151320e-02	-6.37744108e-01
58              	8.57909111e-02	5.09382974e-19	-6.84870562e-01	3.42435281e-01	2.96926213e-01	4.28954555e-02	3.85330736e-01	-2.99539825e-01	4.28954555e-02	-4.28954555e-02	-4.55090682e-02	-6.39361493e-01
59              	8.62611798e-02	5.09313394e-19	-6.86309234e-01	3.43154617e-01	2.98302298e-01	4.31305899e-02	3.86285207e-01	-3.00024027e-01	4.31305899e-02	-4.31305899e-02	-4.48523195e-02	-6.41456915e-01
60              	8.68431594e-02	5.09230295e-19	-6.87220322e-01	3.43610161e-01	2.99764298e-01	4.34215797e-02	3.87031740e-01	-3.00188581e-01	4.34215797e-02	-4.34215797e-02	-4.38458630e-02	-6.43374459e-01
61              	8.73525564e-02	5.09131460e-19	-6.87325349e-01	3.43662674e-01	3.00885540e-01	4.36762782e-02	3.87338953e-01	-2.99986396e-01	4.36762782e-02	-4.36762782e-02	-4.27771348e-02	-6.44548214e-01
62              	8.77382862e-02	5.09022124e-19	-6.86841932e-01	3.43420966e-01	3.01599473e-01	4.38691431e-02	3.87290109e-01	-2.99551823e-01	4.38691431e-02	-4.38691431e-02	-4.18214930e-02	-6.45020439e-01
63              	8.79240946e-02	5.08903560e-19	-6.86469753e-01	3.43234876e-01	3.02034773e-01	4.39620473e-02	3.87196924e-01	-2.99272829e-01	4.39620473e-02	-4.39620473e-02	-4.12001034e-02	-6.45269649e-01
64              	8.80940870e-02	5.08789968e-19	-6.87690648e-01	3.43845324e-01	3.02991411e-01	4.40470435e-02	3.87892367e-01	-2.99798280e-01	4.40470435e-02	-4.40470435e-02	-4.08539129e-02	-6.46836735e-01
65              	8.82869739e-02	5.08687231e-19	-6.90650379e-01	3.45325190e-01	3.04542787e-01	4.41434869e-02	3.89468676e-01	-3.01181703e-01	4.41434869e-02	-4.41434869e-02	-4.07824024e-02	-6.49867977e-01
66              	8.84468220e-02	5.08601171e-19	-6.93898818e-01	3.46949409e-01	3.06087547e-01	4.42234110e-02	3.91172820e-01	-3.02725998e-01	4.42234110e-02	-4.42234110e-02	-4.08618618e-02	-6.53036956e-01
67              	8.85346605e-02	5.08531104e-19	-6.96702374e-01	3.48351187e-01	3.07380300e-01	4.42673302e-02	3.92618517e-01	-3.04083857e-01	4.42673302e-02	-4.42673302e-02	-4.09708873e-02	-6.55731487e-01
68              	8.85723226e-02	5.08466715e-19	-6.98970915e-01	3.49485457e-01	3.08410631e-01	4.42861613e-02	3.93771619e-01	-3.05199296e-01	4.42861613e-02	-4.42861613e-02	-4.10748260e-02	-6.57896089e-01
69              	8.85698048e-02	5.08398882e-19	-7.00495160e-01	3.50247580e-01	3.09072647e-01	4.42849024e-02	3.94532482e-01	-3.05962677e-01	4.42849024e-02	-4.42849024e-02	-4.11749323e-02	-6.59320227e-01
70              	8.86040863e-02	5.08318114e-19	-7.01910168e-01	3.50955084e-01	3.09720362e-01	4.43020431e-02	3.95257127e-01	-3.06653041e-01	4.43020431e-02	-4.43020431e-02	-4.12347222e-02	-6.60675445e-01
71              	8.87352402e-02	5.08220760e-19	-7.03704893e-01	3.51852447e-01	3.10648959e-01	4.43676201e-02	3.96220067e-01	-3.07484826e-01	4.43676201e-02	-4.43676201e-02	-4.12034880e-02	-6.62501405e-01
72              	8.89662381e-02	5.08105251e-19	-7.05786326e-01	3.52893163e-01	3.11832394e-01	4.44831190e-02	3.97376282e-01	-3.08410044e-01	4.44831190e-02	-4.44831190e-02	-4.10607690e-02	-6.64725557e-01
73              	8.92243094e-02	5.07975666e-19	-7.07658830e-01	3.53829415e-01	3.13015479e-01	4.46121547e-02	3.98441570e-01	-3.09217261e-01	4.46121547e-02	-4.46121547e-02	-4.08139364e-02	-6.66844894e-01
74              	8.94571051e-02	5.07844249e-19	-7.09092611e-01	3.54546305e-01	3.14050425e-01	4.47285526e-02	3.99274858e-01	-3.09817753e-01	4.47285526e-02	-4.47285526e-02	-4.04958802e-02	-6.68596730e-01
75              	8.96392809e-02	5.07716131e-19	-7.10249251e-01	3.55124626e-01	3.14967602e-01	4.48196404e-02	3.99944266e-01	-3.10304985e-01	4.48196404e-02	-4.48196404e-02	-4.01570235e-02	-6.70092228e-01
76              	8.97376060e-02	5.07596134e-19	-7.10977604e-01	3.55488802e-01	3.15630209e-01	4.48688030e-02	4.00357605e-01	-3.10619999e-01	4.48688030e-02	-4.48688030e-02	-3.98585933e-02	-6.71119011e-01
77              	8.97861705e-02	5.07481215e-19	-7.11514643e-01	3.55757321e-01	3.16155550e-01	4.48930853e-02	4.00650407e-01	-3.10864236e-01	4.48930853e-02	-4.48930853e-02	-3.96017715e-02	-6.71912871e-01
78              	8.98220427e-02	5.07396315e-19	-7.12200300e-01	3.56100150e-01	3.16721013e-01	4.49110214e-02	4.01011171e-01	-3.11189129e-01	4.49110214e-02	-4.49110214e-02	-3.93791372e-02	-6.72821163e-01
79              	8.98924067e-02	5.07349697e-19	-7.13301903e-01	3.56650952e-01	3.17444351e-01	4.49462033e-02	4.01597155e-01	-3.11704748e-01	4.49462033e-02	-4.49462033e-02	-3.92066009e-02	-6.74095302e-01
80              	8.99833018e-02	5.07323085e-19	-7.14667342e-01	3.57333671e-01	3.18258060e-01	4.49916509e-02	4.02325322e-01	-3.12342020e-01	4.49916509e-02	-4.49916509e-02	-3.90756105e-02	-6.75591731e-01
81              	9.00951161e-02	5.07297904e-19	-7.16254903e-01	3.58127451e-01	3.19131655e-01	4.50475580e-02	4.03175009e-01	-3.13079893e-01	4.50475580e-02	-4.50475580e-02	-3.89957964e-02	-6.77259106e-01
82              	9.02084428e-02	5.07262645e-19	-7.17913843e-01	3.58956921e-01	3.19994992e-01	4.51042214e-02	4.04061143e-01	-3.13852700e-01	4.51042214e-02	-4.51042214e-02	-3.89619293e-02	-6.78951914e-01
83              	9.03167067e-02	5.07218784e-19	-7.19595807e-01	3.59797903e-01	3.20836450e-01	4.51583533e-02	4.04956257e-01	-3.14639550e-01	4.51583533e-02	-4.51583533e-02	-3.89614537e-02	-6.80634353e-01
84              	9.04219967e-02	5.07172065e-19	-7.21024713e-01	3.60512356e-01	3.21580742e-01	4.52109984e-02	4.05723355e-01	-3.15301358e-01	4.52109984e-02	-4.52109984e-02	-3.89316143e-02	-6.82093099e-01
85              	9.05225020e-02	5.07125837e-19	-7.22141689e-01	3.61070844e-01	3.22239980e-01	4.52612510e-02	4.06332095e-01	-3.15809593e-01	4.52612510e-02	-4.52612510e-02	-3.88308649e-02	-6.83310824e-01
86              	9.06314735e-02	5.07083379e-19	-7.23194107e-01	3.61597054e-01	3.22914083e-01	4.53157367e-02	4.06912790e-01	-3.16281317e-01	4.53157367e-02	-4.53157367e-02	-3.86829704e-02	-6.84511137e-01
87              	9.07432845e-02	5.07044790e-19	-7.24213564e-01	3.62106782e-01	3.23584207e-01	4.53716422e-02	4.07478424e-01	-3.16735140e-01	4.53716422e-02	-4.53716422e-02	-3.85225754e-02	-6.85690989e-01
88              	9.08174503e-02	5.07009703e-19	-7.25095883e-01	3.62547941e-01	3.24182377e-01	4.54087251e-02	4.07956667e-01	-3.17139216e-01	4.54087251e-02	-4.54087251e-02	-3.83655647e-02	-6.86730318e-01
89              	9.08649767e-02	5.06973403e-19	-7.25909476e-01	3.62954738e-01	3.24742114e-01	4.54324883e-02	4.08387227e-01	-3.17522250e-01	4.54324883e-02	-4.54324883e-02	-3.82126245e-02	-6.87696852e-01
90              	9.08824050e-02	5.06934957e-19	-7.26556604e-01	3.63278302e-01	3.25221208e-01	4.54412025e-02	4.08719505e-01	-3.17837100e-01	4.54412025e-02	-4.54412025e-02	-3.80570941e-02	-6.88499510e-01
91              	9.08997434e-02	5.06890578e-19	-7.27102204e-01	3.63551102e-01	3.25649119e-01	4.54498717e-02	4.09000974e-01	-3.18101230e-01	4.54498717e-02	-4.54498717e-02	-3.79019831e-02	-6.89200221e-01
92              	9.09043283e-02	5.06841100e-19	-7.27425671e-01	3.63712835e-01	3.25974374e-01	4.54521641e-02	4.09164999e-01	-3.18260671e-01	4.54521641e-02	-4.54521641e-02	-3.77384613e-02	-6.89687209e-01
93              	9.09223364e-02	5.06787704e-19	-7.27646100e-01	3.63823050e-01	3.26282785e-01	4.54611682e-02	4.09284218e-01	-3.18361882e-01	4.54611682e-02	-4.54611682e-02	-3.75402648e-02	-6.90105835e-01
94              	9.09619748e-02	5.06733416e-19	-7.27953643e-01	3.63976822e-01	3.26641869e-01	4.54809874e-02	4.09457809e-01	-3.18495834e-01	4.54809874e-02	-4.54809874e-02	-3.73349530e-02	-6.90618690e-01
95              	9.10296772e-02	5.06681770e-19	-7.28442174e-01	3.64221087e-01	3.27070658e-01	4.55148386e-02	4.09735925e-01	-3.18706248e-01	4.55148386e-02	-4.55148386e-02	-3.71504289e-02	-6.91291745e-01
96              	9.10960644e-02	5.06632824e-19	-7.29126659e-01	3.64563329e-01	3.27558159e-01	4.55480322e-02	4.10111361e-01	-3.19015297e-01	4.55480322e-02	-4.55480322e-02	-3.70051705e-02	-6.92121488e-01
97              	9.11409670e-02	5.06586729e-19	-7.29857928e-01	3.64928964e-01	3.28025570e-01	4.55704835e-02	4.10499448e-01	-3.19358481e-01	4.55704835e-02	-4.55704835e-02	-3.69033939e-02	-6.92954534e-01
98              	9.11763903e-02	5.06541054e-19	-7.30637378e-01	3.65318689e-01	3.28487160e-01	4.55881952e-02	4.10906884e-01	-3.19730494e-01	4.55881952e-02	-4.55881952e-02	-3.68315289e-02	-6.93805849e-01
99              	9.11749632e-02	5.06493380e-19	-7.31390019e-01	3.65695010e-01	3.28918647e-01	4.55874816e-02	4.11282491e-01	-3.20107528e-01	4.55874816e-02	-4.55874816e-02	-3.67763627e-02	-6.94613656e-01
100             	9.11439656e-02	5.06444810e-19	-7.31976550e-01	3.65988275e-01	3.29279510e-01	4.55719828e-02	4.11560258e-01	-3.20416292e-01	4.55719828e-02	-4.55719828e-02	-3.67087652e-02	-6.95267785e-01
101             	9.11060644e-02	5.06396126e-19	-7.32433387e-01	3.66216693e-01	3.29605101e-01	4.55530322e-02	4.11769725e-01	-3.20663661e-01	4.55530322e-02	-4.55530322e-02	-3.66115922e-02	-6.95821794e-01
102             	9.10710027e-02	5.06347395e-19	-7.32850170e-01	3.66425085e-01	3.29939570e-01	4.55355014e-02	4.11960586e-01	-3.20889583e-01	4.55355014e-02	-4.55355014e-02	-3.64855152e-02	-6.96364654e-01
103             	9.10321916e-02	5.06301882e-19	-7.33128917e-01	3.66564458e-01	3.30242857e-01	4.55160958e-02	4.12080554e-01	-3.21048363e-01	4.55160958e-02	-4.55160958e-02	-3.63216014e-02	-6.96807315e-01
104             	9.09781311e-02	5.06257330e-19	-7.33132415e-01	3.66566208e-01	3.30435246e-01	4.54890656e-02	4.12055273e-01	-3.21077142e-01	4.54890656e-02	-4.54890656e-02	-3.61309619e-02	-6.97001453e-01
105             	9.09092252e-02	5.06213552e-19	-7.32856525e-01	3.66428262e-01	3.30518867e-01	4.54546126e-02	4.11882875e-01	-3.20973650e-01	4.54546126e-02	-4.54546126e-02	-3.59093950e-02	-6.96947130e-01
106             	9.08300194e-02	5.06171573e-19	-7.32502801e-01	3.66251400e-01	3.30565128e-01	4.54150097e-02	4.11666410e-01	-3.20836391e-01	4.54150097e-02	-4.54150097e-02	-3.56862721e-02	-6.96816529e-01
107             	9.07582773e-02	5.06131319e-19	-7.32208117e-01	3.66104059e-01	3.30634645e-01	4.53791386e-02	4.11483197e-01	-3.20724920e-01	4.53791386e-02	-4.53791386e-02	-3.54694134e-02	-6.96738704e-01
108             	9.06956341e-02	5.06089560e-19	-7.32058788e-01	3.66029394e-01	3.30774413e-01	4.53478171e-02	4.11377211e-01	-3.20681577e-01	4.53478171e-02	-4.53478171e-02	-3.52549813e-02	-6.96803807e-01
109             	9.06474114e-02	5.06050499e-19	-7.32169980e-01	3.66084990e-01	3.31016793e-01	4.53237057e-02	4.11408696e-01	-3.20761284e-01	4.53237057e-02	-4.53237057e-02	-3.50681967e-02	-6.97101783e-01
110             	9.05892767e-02	5.06014965e-19	-7.32433353e-01	3.66216676e-01	3.31287862e-01	4.52946384e-02	4.11511315e-01	-3.20922038e-01	4.52946384e-02	-4.52946384e-02	-3.49288147e-02	-6.97504538e-01
111             	9.04862543e-02	5.05982696e-19	-7.32509351e-01	3.66254675e-01	3.31435362e-01	4.52431271e-02	4.11497802e-01	-3.21011548e-01	4.52431271e-02	-4.52431271e-02	-3.48193131e-02	-6.97690038e-01
112             	9.03836892e-02	5.05952832e-19	-7.32634714e-01	3.66317357e-01	3.31583777e-01	4.51918446e-02	4.11509202e-01	-3.21125513e-01	4.51918446e-02	-4.51918446e-02	-3.47335806e-02	-6.97901134e-01
113             	9.02659016e-02	5.05921734e-19	-7.32695012e-01	3.66347506e-01	3.31697055e-01	4.51329508e-02	4.11480457e-01	-3.21214555e-01	4.51329508e-02	-4.51329508e-02	-3.46504513e-02	-6.98044561e-01
114             	9.01627681e-02	5.05889048e-19	-7.32807579e-01	3.66403790e-01	3.31846916e-01	4.50813841e-02	4.11485174e-01	-3.21322405e-01	4.50813841e-02	-4.50813841e-02	-3.45568734e-02	-6.98250706e-01
115             	9.00628220e-02	5.05858787e-19	-7.32860906e-01	3.66430453e-01	3.31994809e-01	4.50314110e-02	4.11461864e-01	-3.21399042e-01	4.50314110e-02	-4.50314110e-02	-3.44356441e-02	-6.98425262e-01
116             	8.99746526e-02	5.05829088e-19	-7.32815398e-01	3.66407699e-01	3.32130174e-01	4.49873263e-02	4.11395025e-01	-3.21420373e-01	4.49873263e-02	-4.49873263e-02	-3.42775246e-02	-6.98537874e-01
117             	8.98840228e-02	5.05800826e-19	-7.32539134e-01	3.66269567e-01	3.32192637e-01	4.49420114e-02	4.11211578e-01	-3.21327555e-01	4.49420114e-02	-4.49420114e-02	-3.40769293e-02	-6.98462204e-01
118             	8.97841589e-02	5.05781964e-19	-7.32054726e-01	3.66027363e-01	3.32170263e-01	4.48920795e-02	4.10919442e-01	-3.21135283e-01	4.48920795e-02	-4.48920795e-02	-3.38571003e-02	-6.98197625e-01
119             	8.96876754e-02	5.05764344e-19	-7.31492800e-01	3.65746400e-01	3.32122004e-01	4.48438377e-02	4.10590238e-01	-3.20902562e-01	4.48438377e-02	-4.48438377e-02	-3.36243961e-02	-6.97868404e-01
120             	8.95930888e-02	5.05744902e-19	-7.30901171e-01	3.65450586e-01	3.32056418e-01	4.47965444e-02	4.10247130e-01	-3.20654041e-01	4.47965444e-02	-4.47965444e-02	-3.33941679e-02	-6.97507003e-01
121             	8.95086762e-02	5.05725582e-19	-7.30438218e-01	3.65219109e-01	3.32038473e-01	4.47543381e-02	4.09973447e-01	-3.20464771e-01	4.47543381e-02	-4.47543381e-02	-3.31806360e-02	-6.97257582e-01
122             	8.94265551e-02	5.05703950e-19	-7.30124084e-01	3.65062042e-01	3.32063378e-01	4.47132775e-02	4.09775319e-01	-3.20348764e-01	4.47132775e-02	-4.47132775e-02	-3.29986633e-02	-6.97125420e-01
123             	8.93289101e-02	5.05681925e-19	-7.29833969e-01	3.64916984e-01	3.32068613e-01	4.46644550e-02	4.09581439e-01	-3.20252529e-01	4.46644550e-02	-4.46644550e-02	-3.28483710e-02	-6.96985598e-01
124             	8.92303745e-02	5.05659611e-19	-7.29671181e-01	3.64835591e-01	3.32101008e-01	4.46151872e-02	4.09450778e-01	-3.20220403e-01	4.46151872e-02	-4.46151872e-02	-3.27345821e-02	-6.96936599e-01
125             	8.91351606e-02	5.05641310e-19	-7.29633604e-01	3.64816802e-01	3.32175284e-01	4.45675803e-02	4.09384382e-01	-3.20249222e-01	4.45675803e-02	-4.45675803e-02	-3.26415185e-02	-6.96992086e-01
126             	8.90466686e-02	5.05624431e-19	-7.29668358e-01	3.64834179e-01	3.32277826e-01	4.45233343e-02	4.09357513e-01	-3.20310845e-01	4.45233343e-02	-4.45233343e-02	-3.25563524e-02	-6.97112005e-01
127             	8.89686892e-02	5.05612244e-19	-7.29726271e-01	3.64863136e-01	3.32398467e-01	4.44843446e-02	4.09347480e-01	-3.20378791e-01	4.44843446e-02	-4.44843446e-02	-3.24646685e-02	-6.97261603e-01
128             	8.88863642e-02	5.05600361e-19	-7.29613324e-01	3.64806662e-01	3.32460129e-01	4.44431821e-02	4.09249844e-01	-3.20363480e-01	4.44431821e-02	-4.44431821e-02	-3.23465332e-02	-6.97266791e-01
129             	8.88048938e-02	5.05587746e-19	-7.29336789e-01	3.64668395e-01	3.32470929e-01	4.44024469e-02	4.09070841e-01	-3.20265948e-01	4.44024469e-02	-4.44024469e-02	-3.21974658e-02	-6.97139323e-01
130             	8.87084292e-02	5.05570375e-19	-7.28791966e-01	3.64395983e-01	3.32378330e-01	4.43542146e-02	4.08750197e-01	-3.20041768e-01	4.43542146e-02	-4.43542146e-02	-3.20176528e-02	-6.96774313e-01
131             	8.86036136e-02	5.05552201e-19	-7.28043028e-01	3.64021514e-01	3.32209524e-01	4.43018068e-02	4.08323321e-01	-3.19719707e-01	4.43018068e-02	-4.43018068e-02	-3.18119901e-02	-6.96231038e-01
132             	8.84981952e-02	5.05534431e-19	-7.27216935e-01	3.63608468e-01	3.32006822e-01	4.42490976e-02	4.07857565e-01	-3.19359370e-01	4.42490976e-02	-4.42490976e-02	-3.16016459e-02	-6.95615289e-01
133             	8.83872291e-02	5.05517055e-19	-7.26366086e-01	3.63183043e-01	3.31785494e-01	4.41936145e-02	4.07376657e-01	-3.18989428e-01	4.41936145e-02	-4.41936145e-02	-3.13975493e-02	-6.94968536e-01
134             	8.82876071e-02	5.05500923e-19	-7.25701116e-01	3.62850558e-01	3.31638925e-01	4.41438036e-02	4.06994361e-01	-3.18706754e-01	4.41438036e-02	-4.41438036e-02	-3.12116326e-02	-6.94489483e-01
135             	8.81915236e-02	5.05486749e-19	-7.25221875e-01	3.62610937e-01	3.31553633e-01	4.40957618e-02	4.06706699e-01	-3.18515176e-01	4.40957618e-02	-4.40957618e-02	-3.10573045e-02	-6.94164570e-01
136             	8.81093219e-02	5.05475594e-19	-7.25029796e-01	3.62514898e-01	3.31576806e-01	4.40546609e-02	4.06569559e-01	-3.18460237e-01	4.40546609e-02	-4.40546609e-02	-3.09380925e-02	-6.94091704e-01
137             	8.80360777e-02	5.05462593e-19	-7.25020568e-01	3.62510284e-01	3.31653878e-01	4.40180389e-02	4.06528323e-01	-3.18492245e-01	4.40180389e-02	-4.40180389e-02	-3.08564063e-02	-6.94164162e-01
138             	8.79641973e-02	5.05450126e-19	-7.25094341e-01	3.62547170e-01	3.31754997e-01	4.39820987e-02	4.06529269e-01	-3.18565072e-01	4.39820987e-02	-4.39820987e-02	-3.07921732e-02	-6.94302168e-01
139             	8.78934386e-02	5.05436468e-19	-7.25146257e-01	3.62573129e-01	3.31844997e-01	4.39467193e-02	4.06519848e-01	-3.18626409e-01	4.39467193e-02	-4.39467193e-02	-3.07281314e-02	-6.94418126e-01
140             	8.78046165e-02	5.05419423e-19	-7.24993227e-01	3.62496613e-01	3.31847783e-01	4.39023082e-02	4.06398922e-01	-3.18594305e-01	4.39023082e-02	-4.39023082e-02	-3.06488308e-02	-6.94344396e-01
141             	8.77113943e-02	5.05403633e-19	-7.24667874e-01	3.62333937e-01	3.31791291e-01	4.38556972e-02	4.06189634e-01	-3.18478240e-01	4.38556972e-02	-4.38556972e-02	-3.05426458e-02	-6.94125228e-01
142             	8.76101777e-02	5.05387119e-19	-7.24224992e-01	3.62112496e-01	3.31686007e-01	4.38050888e-02	4.05917585e-01	-3.18307407e-01	4.38050888e-02	-4.38050888e-02	-3.04264894e-02	-6.93798503e-01
143             	8.74996510e-02	5.05371802e-19	-7.23647320e-01	3.61823660e-01	3.31533459e-01	4.37498255e-02	4.05573485e-01	-3.18073834e-01	4.37498255e-02	-4.37498255e-02	-3.02902013e-02	-6.93357118e-01
144             	8.73937804e-02	5.05358888e-19	-7.23087065e-01	3.61543532e-01	3.31388174e-01	4.36968902e-02	4.05240423e-01	-3.17846642e-01	4.36968902e-02	-4.36968902e-02	-3.01553580e-02	-6.92931707e-01