/*--------------------------------*- C++ -*----------------------------------*\
| =========                 |                                                 |
| \\      /  F ield         | OpenFOAM: The Open Source CFD Toolbox           |
|  \\    /   O peration     | Version:  v2006                                 |
|   \\  /    A nd           | Website:  www.openfoam.com                      |
|    \\/     M anipulation  |                                                 |
\*---------------------------------------------------------------------------*/
FoamFile
{
    version     2.0;
    format      ascii;
    class       volScalarField;
    location    "4500";
    object      alphat;
}
// * * * * * * * * * * * * * * * * * * * * * * * * * * * * * * * * * * * * * //

dimensions      [1 -1 -1 0 0 0 0];


internalField   nonuniform List<scalar> 
19765
(
9.7812609e-06
9.7782237e-06
9.4910548e-06
9.5477533e-06
9.549064e-06
9.7080638e-06
9.6263172e-06
9.8027587e-06
9.7750131e-06
9.5870544e-06
9.6929887e-06
1.0074722e-05
1.0298412e-05
1.0491669e-05
1.0896939e-05
1.1068643e-05
1.1021294e-05
1.1177172e-05
1.1595388e-05
1.196131e-05
1.2207957e-05
1.2331842e-05
1.2551302e-05
1.2687864e-05
1.2778146e-05
1.2832527e-05
1.2859509e-05
1.2797595e-05
1.2816181e-05
1.2698335e-05
1.2468399e-05
1.2174713e-05
1.2206378e-05
1.2350394e-05
1.2206341e-05
1.1867821e-05
1.1851854e-05
1.1786271e-05
1.1508864e-05
1.1598391e-05
1.1968569e-05
1.2117434e-05
1.2078301e-05
1.2385786e-05
1.2279996e-05
1.2513688e-05
1.2524539e-05
1.2500735e-05
1.2376229e-05
5.4255573e-05
5.6896384e-05
5.9121027e-05
6.0919839e-05
6.3092081e-05
6.5314835e-05
6.7556513e-05
6.9795028e-05
7.2103752e-05
7.4133772e-05
7.6525812e-05
7.9127014e-05
8.136297e-05
8.3361589e-05
8.5413205e-05
8.667035e-05
8.6982308e-05
8.7584845e-05
8.8835849e-05
9.033943e-05
9.1773077e-05
9.2737164e-05
9.3560808e-05
9.4614201e-05
9.5643242e-05
9.6148551e-05
9.6370926e-05
9.667405e-05
9.6895965e-05
9.6917891e-05
9.6824689e-05
9.6663843e-05
9.6652393e-05
9.6487069e-05
9.5825992e-05
9.4873974e-05
9.4032234e-05
9.2897114e-05
9.1478933e-05
9.0431168e-05
8.9510663e-05
8.74719e-05
8.529957e-05
8.1643197e-05
7.9039866e-05
7.2893436e-05
6.6049621e-05
5.9225934e-05
5.4127808e-05
1.6004131e-05
1.533461e-05
1.4860165e-05
1.5105264e-05
1.5228085e-05
1.5346014e-05
1.5283372e-05
1.5448787e-05
1.5353179e-05
1.5502203e-05
1.5746054e-05
1.5786012e-05
1.5620151e-05
1.5453349e-05
1.5165786e-05
1.4721977e-05
1.4366838e-05
1.4127333e-05
1.3945295e-05
1.3797654e-05
1.3740379e-05
1.379374e-05
1.3817417e-05
1.387592e-05
1.4172311e-05
1.4721194e-05
1.5227835e-05
1.5743307e-05
1.648263e-05
1.7274104e-05
1.8041536e-05
1.8753904e-05
1.9392509e-05
2.0387336e-05
2.1628943e-05
2.2664291e-05
2.3470491e-05
2.4531367e-05
2.534725e-05
2.5765794e-05
2.6481381e-05
2.772502e-05
2.836256e-05
2.9537024e-05
3.0318646e-05
3.2526759e-05
3.5397043e-05
3.8774521e-05
4.1117184e-05
6.2552808e-07
5.5995813e-07
5.2205434e-07
5.1668025e-07
5.0926298e-07
5.0255211e-07
4.9111934e-07
4.872203e-07
4.7621645e-07
4.7129176e-07
4.6865541e-07
4.6066121e-07
4.4766762e-07
4.3579097e-07
4.2265629e-07
4.0734229e-07
3.9577471e-07
3.8820519e-07
3.8186482e-07
3.757037e-07
3.7308909e-07
3.7524758e-07
3.7618295e-07
3.7819878e-07
3.8638019e-07
4.0175501e-07
4.178649e-07
4.3590554e-07
4.6115899e-07
4.901938e-07
5.2151823e-07
5.5421031e-07
5.8792656e-07
6.3569395e-07
6.9651323e-07
7.5731793e-07
8.1734813e-07
8.9323681e-07
9.6555332e-07
1.028356e-06
1.113259e-06
1.2342207e-06
1.3418355e-06
1.5087483e-06
1.6709896e-06
1.9048152e-06
2.1897394e-06
2.5523453e-06
2.9812805e-06
1.6361538e-07
1.6311766e-07
1.6340876e-07
1.6534367e-07
1.6705009e-07
1.6867536e-07
1.6976135e-07
1.713562e-07
1.7219232e-07
1.7351693e-07
1.7514131e-07
1.76272e-07
1.7689427e-07
1.776276e-07
1.7813044e-07
1.7822423e-07
1.7864731e-07
1.795054e-07
1.8024639e-07
1.808646e-07
1.8185391e-07
1.8321779e-07
1.8447747e-07
1.8592042e-07
1.8803001e-07
1.9101688e-07
1.9412697e-07
1.9737573e-07
2.0132524e-07
2.0552149e-07
2.0972976e-07
2.1382635e-07
2.1765873e-07
2.2242833e-07
2.2786348e-07
2.3267766e-07
2.3680178e-07
2.4153214e-07
2.4542345e-07
2.4820855e-07
2.5192516e-07
2.5679815e-07
2.6029987e-07
2.6575005e-07
2.7027744e-07
2.7638635e-07
2.8233662e-07
2.8682717e-07
2.9113863e-07
1.4152985e-07
1.416873e-07
1.4218566e-07
1.4336017e-07
1.4427474e-07
1.4519411e-07
1.4590603e-07
1.4682502e-07
1.4740264e-07
1.4828375e-07
1.4913222e-07
1.4970256e-07
1.5010676e-07
1.5055708e-07
1.5088177e-07
1.5113308e-07
1.5162226e-07
1.5229452e-07
1.5291489e-07
1.5353027e-07
1.5428148e-07
1.5514902e-07
1.5618797e-07
1.5742465e-07
1.5898822e-07
1.6103996e-07
1.6326089e-07
1.6556623e-07
1.6822596e-07
1.7110664e-07
1.7407308e-07
1.7708193e-07
1.7993716e-07
1.8309036e-07
1.8663992e-07
1.9015608e-07
1.9327605e-07
1.965467e-07
1.9965594e-07
2.0218011e-07
2.0463626e-07
2.0787383e-07
2.104648e-07
2.1389651e-07
2.1704332e-07
2.2083253e-07
2.2492946e-07
2.2936555e-07
2.3325841e-07
1.2441495e-07
1.2435526e-07
1.2449458e-07
1.2503641e-07
1.254518e-07
1.2588353e-07
1.2621765e-07
1.2668515e-07
1.2698025e-07
1.2745912e-07
1.2794386e-07
1.2828449e-07
1.2854081e-07
1.288334e-07
1.2906331e-07
1.292555e-07
1.2959696e-07
1.3006833e-07
1.3053375e-07
1.3101693e-07
1.3158282e-07
1.3221733e-07
1.3295667e-07
1.3384166e-07
1.3494377e-07
1.3634156e-07
1.3784538e-07
1.394276e-07
1.4124678e-07
1.432158e-07
1.4525921e-07
1.4734506e-07
1.49368e-07
1.5159264e-07
1.5406312e-07
1.5651744e-07
1.587611e-07
1.6110505e-07
1.6336004e-07
1.6528499e-07
1.6719782e-07
1.6953578e-07
1.715123e-07
1.7393319e-07
1.7617549e-07
1.7872888e-07
1.8138915e-07
1.8417541e-07
1.8669403e-07
1.1541003e-07
1.1536571e-07
1.1544077e-07
1.1575977e-07
1.1600119e-07
1.1625152e-07
1.1644337e-07
1.1671247e-07
1.1688228e-07
1.1716051e-07
1.1744335e-07
1.1764844e-07
1.1781239e-07
1.1800417e-07
1.1816967e-07
1.1832668e-07
1.1858089e-07
1.1892043e-07
1.1927178e-07
1.1965324e-07
1.2010054e-07
1.2060301e-07
1.2119824e-07
1.2190475e-07
1.2275693e-07
1.2380342e-07
1.2493574e-07
1.261388e-07
1.2750813e-07
1.2899295e-07
1.3054731e-07
1.3215112e-07
1.3373847e-07
1.3546754e-07
1.3736956e-07
1.392867e-07
1.4109281e-07
1.4297416e-07
1.4481886e-07
1.4647175e-07
1.4811946e-07
1.5005223e-07
1.5177701e-07
1.5380584e-07
1.5575512e-07
1.5794294e-07
1.6025503e-07
1.6271638e-07
1.6505675e-07
1.0897677e-07
1.0891501e-07
1.0892943e-07
1.0910127e-07
1.0922837e-07
1.0936464e-07
1.0946849e-07
1.0962337e-07
1.0972122e-07
1.0988929e-07
1.1006418e-07
1.1019656e-07
1.1030945e-07
1.1044469e-07
1.1056995e-07
1.1069736e-07
1.1089173e-07
1.1114609e-07
1.1141675e-07
1.117157e-07
1.1206256e-07
1.1244878e-07
1.1289937e-07
1.1343332e-07
1.1407231e-07
1.1484392e-07
1.1568118e-07
1.1657705e-07
1.1759145e-07
1.1869239e-07
1.1985199e-07
1.2105709e-07
1.2226665e-07
1.2357854e-07
1.2501087e-07
1.2646279e-07
1.2785529e-07
1.2930352e-07
1.3073524e-07
1.3205017e-07
1.3336732e-07
1.3486362e-07
1.3622838e-07
1.3778038e-07
1.3927575e-07
1.4091165e-07
1.4261106e-07
1.4438466e-07
1.4605673e-07
1.0475785e-07
1.0471114e-07
1.0471191e-07
1.0481511e-07
1.0488894e-07
1.0496902e-07
1.0502902e-07
1.051224e-07
1.0518119e-07
1.0528649e-07
1.0539806e-07
1.0548593e-07
1.0556539e-07
1.0566278e-07
1.0575846e-07
1.0586122e-07
1.0601186e-07
1.062061e-07
1.0641755e-07
1.0665472e-07
1.0693046e-07
1.0723942e-07
1.075973e-07
1.0801814e-07
1.0851697e-07
1.0911062e-07
1.0975662e-07
1.1045166e-07
1.1123568e-07
1.1208849e-07
1.1299217e-07
1.1393798e-07
1.1489869e-07
1.1593821e-07
1.1706955e-07
1.1822631e-07
1.1935432e-07
1.2052874e-07
1.2170192e-07
1.2280437e-07
1.2391267e-07
1.2515003e-07
1.2630542e-07
1.2759628e-07
1.2885882e-07
1.3023008e-07
1.3166134e-07
1.3316804e-07
1.3461669e-07
1.0174814e-07
1.0171099e-07
1.0170509e-07
1.0176866e-07
1.0181321e-07
1.0186266e-07
1.0189981e-07
1.0195992e-07
1.0199877e-07
1.0206973e-07
1.0214651e-07
1.0221017e-07
1.0227111e-07
1.0234649e-07
1.0242386e-07
1.025096e-07
1.0263035e-07
1.027834e-07
1.0295216e-07
1.0314247e-07
1.0336283e-07
1.0360984e-07
1.0389322e-07
1.0422377e-07
1.0461322e-07
1.0507194e-07
1.0557202e-07
1.0611221e-07
1.0671969e-07
1.0738123e-07
1.0808504e-07
1.0882522e-07
1.0958362e-07
1.1040291e-07
1.1129189e-07
1.1220542e-07
1.1310648e-07
1.1404473e-07
1.1498728e-07
1.1588538e-07
1.1679049e-07
1.1778432e-07
1.1872337e-07
1.1975324e-07
1.2076225e-07
1.2184192e-07
1.229579e-07
1.241194e-07
1.2523111e-07
9.9591956e-08
9.9567617e-08
9.9563382e-08
9.9606707e-08
9.963698e-08
9.9670878e-08
9.9696938e-08
9.9739044e-08
9.9767823e-08
9.9819302e-08
9.9875885e-08
9.9925416e-08
9.9975179e-08
1.0003662e-07
1.001017e-07
1.0017513e-07
1.0027466e-07
1.0039853e-07
1.0053612e-07
1.0069153e-07
1.0087059e-07
1.0107147e-07
1.0130024e-07
1.0156451e-07
1.018738e-07
1.0223485e-07
1.0262883e-07
1.0305568e-07
1.0353455e-07
1.0405651e-07
1.0461362e-07
1.0520214e-07
1.0580994e-07
1.0646668e-07
1.0717888e-07
1.0791515e-07
1.0864898e-07
1.0941432e-07
1.1018801e-07
1.1093466e-07
1.1168911e-07
1.1250992e-07
1.1329487e-07
1.1414728e-07
1.1498816e-07
1.1588333e-07
1.1680917e-07
1.1777547e-07
1.1870711e-07
9.8004543e-08
9.7990308e-08
9.7989369e-08
9.8021823e-08
9.8045329e-08
9.8071683e-08
9.8093106e-08
9.8126097e-08
9.8150752e-08
9.8191894e-08
9.8237526e-08
9.8279672e-08
9.8323502e-08
9.8376804e-08
9.8434258e-08
9.8499319e-08
9.8584073e-08
9.8687328e-08
9.8802094e-08
9.8931256e-08
9.9078838e-08
9.9243928e-08
9.9430312e-08
9.9643349e-08
9.989084e-08
1.0017725e-07
1.0048971e-07
1.0082883e-07
1.0120811e-07
1.0162122e-07
1.0206295e-07
1.0253146e-07
1.030188e-07
1.0354581e-07
1.04117e-07
1.0470992e-07
1.0530535e-07
1.0592664e-07
1.065571e-07
1.0717073e-07
1.077917e-07
1.0846101e-07
1.0910555e-07
1.0979791e-07
1.1048156e-07
1.1120264e-07
1.1194382e-07
1.12712e-07
1.1345005e-07
9.6818034e-08
9.6813114e-08
9.6816841e-08
9.6844256e-08
9.6865414e-08
9.6888853e-08
9.6909233e-08
9.6938147e-08
9.6961926e-08
9.6997943e-08
9.7037908e-08
9.7076527e-08
9.7117507e-08
9.7166214e-08
9.7219058e-08
9.7278573e-08
9.7353061e-08
9.7441679e-08
9.7539736e-08
9.7649248e-08
9.7773019e-08
9.7910623e-08
9.8064449e-08
9.823826e-08
9.8438401e-08
9.8667892e-08
9.8917883e-08
9.918938e-08
9.9491647e-08
9.9820189e-08
1.0017241e-07
1.0054808e-07
1.0094182e-07
1.0136806e-07
1.0182981e-07
1.0231073e-07
1.0279666e-07
1.0330415e-07
1.0382115e-07
1.0432825e-07
1.0484243e-07
1.0539366e-07
1.0592821e-07
1.064989e-07
1.0706432e-07
1.0765828e-07
1.0826811e-07
1.0890018e-07
1.0950832e-07
9.5919105e-08
9.5921756e-08
9.5930092e-08
9.5955549e-08
9.5976676e-08
9.5999739e-08
9.6021036e-08
9.6048828e-08
9.6073614e-08
9.6107709e-08
9.6145322e-08
9.6182893e-08
9.6223088e-08
9.6269627e-08
9.6320032e-08
9.6376132e-08
9.6443656e-08
9.6521965e-08
9.6607828e-08
9.6702622e-08
9.680828e-08
9.6924599e-08
9.7053069e-08
9.7196329e-08
9.735951e-08
9.7544673e-08
9.7745746e-08
9.7963853e-08
9.8204749e-08
9.8466011e-08
9.8747689e-08
9.9050208e-08
9.9368971e-08
9.9713617e-08
1.0008616e-07
1.0047485e-07
1.0086941e-07
1.0128182e-07
1.0170328e-07
1.0211921e-07
1.0254167e-07
1.0299236e-07
1.0343149e-07
1.0389735e-07
1.0435925e-07
1.0484162e-07
1.053348e-07
1.0584364e-07
1.0633149e-07
9.5229582e-08
9.5238793e-08
9.5251698e-08
9.5277128e-08
9.5299609e-08
9.532381e-08
9.5347156e-08
9.5375602e-08
9.5402492e-08
9.5436634e-08
9.5473957e-08
9.5512048e-08
9.5552814e-08
9.5598832e-08
9.5648349e-08
9.5702644e-08
9.5765648e-08
9.5836833e-08
9.591391e-08
9.5997763e-08
9.608969e-08
9.6189567e-08
9.6298281e-08
9.6417681e-08
9.6551871e-08
9.670228e-08
9.6864782e-08
9.704032e-08
9.7231712e-08
9.7439892e-08
9.7666749e-08
9.7911421e-08
9.8169121e-08
9.8446661e-08
9.874605e-08
9.905914e-08
9.9378565e-08
9.9713159e-08
1.0005643e-07
1.0039732e-07
1.0074437e-07
1.0111362e-07
1.0147516e-07
1.0185725e-07
1.0223684e-07
1.0263201e-07
1.0303535e-07
1.0345111e-07
1.038492e-07
9.4696225e-08
9.471093e-08
9.472806e-08
9.4754523e-08
9.4779081e-08
9.4805256e-08
9.4831255e-08
9.4861414e-08
9.4891042e-08
9.4926475e-08
9.4964842e-08
9.5004494e-08
9.5046774e-08
9.5093443e-08
9.5143223e-08
9.5196959e-08
9.5257291e-08
9.5323749e-08
9.5394642e-08
9.5470468e-08
9.555204e-08
9.5639231e-08
9.5732505e-08
9.5833142e-08
9.5944391e-08
9.6067248e-08
9.6198955e-08
9.6339941e-08
9.6490861e-08
9.6657926e-08
9.6841791e-08
9.7038556e-08
9.7244374e-08
9.746541e-08
9.7703987e-08
9.7954464e-08
9.8211469e-08
9.8481483e-08
9.8759626e-08
9.9037393e-08
9.9320855e-08
9.9621756e-08
9.9917502e-08
1.0022889e-07
1.005385e-07
1.0085956e-07
1.0118628e-07
1.0152204e-07
1.0184234e-07
9.4280252e-08
9.4299745e-08
9.432085e-08
9.4349032e-08
9.4376114e-08
9.4404786e-08
9.4433807e-08
9.4466355e-08
9.4499124e-08
9.4536674e-08
9.4576988e-08
9.4618925e-08
9.4663405e-08
9.4711594e-08
9.4762525e-08
9.4816687e-08
9.4875784e-08
9.4939354e-08
9.5006089e-08
9.5076173e-08
9.5150037e-08
9.5227501e-08
9.5308721e-08
9.5394575e-08
9.5487579e-08
9.5588437e-08
9.5695323e-08
9.5807893e-08
9.5925955e-08
9.606222e-08
9.6210594e-08
9.6365443e-08
9.6527039e-08
9.6701217e-08
9.6889884e-08
9.7088998e-08
9.7294609e-08
9.7511458e-08
9.7735819e-08
9.7961113e-08
9.8191622e-08
9.8436041e-08
9.8677186e-08
9.8930522e-08
9.9182777e-08
9.9443781e-08
9.9708973e-08
9.998123e-08
1.0024025e-07
9.3954276e-08
9.3977947e-08
9.4002749e-08
9.4033047e-08
9.4062894e-08
9.4094367e-08
9.4126618e-08
9.4161992e-08
9.4198158e-08
9.4238393e-08
9.4281285e-08
9.4326039e-08
9.4373244e-08
9.4423625e-08
9.4476412e-08
9.4531805e-08
9.4590803e-08
9.4652929e-08
9.4717109e-08
9.4783264e-08
9.4851518e-08
9.4921601e-08
9.4993441e-08
9.5067629e-08
9.514605e-08
9.5229207e-08
9.5315869e-08
9.5404965e-08
9.5497448e-08
9.5609812e-08
9.5725673e-08
9.5843631e-08
9.5969258e-08
9.6104968e-08
9.6252471e-08
9.640919e-08
9.6572167e-08
9.6744746e-08
9.6924028e-08
9.7104924e-08
9.7290484e-08
9.7487162e-08
9.7681869e-08
9.7886116e-08
9.8089736e-08
9.8299997e-08
9.8513252e-08
9.8731847e-08
9.893898e-08
9.3697833e-08
9.3725266e-08
9.3753572e-08
9.3786263e-08
9.3819044e-08
9.3853533e-08
9.3889166e-08
9.3927678e-08
9.3967441e-08
9.4010783e-08
9.4056731e-08
9.4104721e-08
9.415508e-08
9.4208199e-08
9.426343e-08
9.4320726e-08
9.4380553e-08
9.4442392e-08
9.4505305e-08
9.4568991e-08
9.4633318e-08
9.4697903e-08
9.4762498e-08
9.4827486e-08
9.4894215e-08
9.496304e-08
9.5033078e-08
9.5103502e-08
9.5179254e-08
9.5265556e-08
9.5350812e-08
9.5440446e-08
9.5537714e-08
9.5640888e-08
9.5754437e-08
9.5876207e-08
9.600353e-08
9.613874e-08
9.627973e-08
9.6422698e-08
9.6569891e-08
9.672616e-08
9.6881504e-08
9.7044541e-08
9.7207432e-08
9.7375585e-08
9.7546051e-08
9.7720807e-08
9.78858e-08
9.3495978e-08
9.3526851e-08
9.3558502e-08
9.3593775e-08
9.3629604e-08
9.3667263e-08
9.3706393e-08
9.3748282e-08
9.3791807e-08
9.383859e-08
9.3887975e-08
9.393955e-08
9.3993434e-08
9.4049756e-08
9.4107935e-08
9.4167716e-08
9.4229141e-08
9.4291642e-08
9.4354344e-08
9.4416752e-08
9.4478515e-08
9.4539129e-08
9.4598204e-08
9.4655951e-08
9.4713291e-08
9.4770443e-08
9.4826789e-08
9.4885473e-08
9.4961053e-08
9.5021165e-08
9.5069465e-08
9.5134231e-08
9.5204273e-08
9.5281765e-08
9.5368024e-08
9.5460166e-08
9.5556552e-08
9.5659352e-08
9.5767266e-08
9.5877517e-08
9.5991748e-08
9.6113565e-08
9.6235299e-08
9.6363371e-08
9.6491706e-08
9.6624293e-08
9.6758719e-08
9.6896611e-08
9.7026224e-08
9.3337366e-08
9.3371471e-08
9.3406371e-08
9.3444383e-08
9.3483366e-08
9.3524332e-08
9.3567076e-08
9.361255e-08
9.3659996e-08
9.3710509e-08
9.376366e-08
9.3819135e-08
9.3876881e-08
9.3936818e-08
9.3998395e-08
9.4061172e-08
9.4124856e-08
9.4188812e-08
9.4252184e-08
9.4314299e-08
9.437462e-08
9.4432513e-08
9.4487468e-08
9.4539553e-08
9.4589346e-08
9.4636943e-08
9.4682197e-08
9.4725415e-08
9.4767267e-08
9.4809616e-08
9.4860411e-08
9.4905956e-08
9.495605e-08
9.5011065e-08
9.5071455e-08
9.5136588e-08
9.520573e-08
9.5280591e-08
9.536022e-08
9.5442499e-08
9.5528575e-08
9.56211e-08
9.5714205e-08
9.5812669e-08
9.5911778e-08
9.6014475e-08
9.6118776e-08
9.6226037e-08
9.6326403e-08
9.3213503e-08
9.3250701e-08
9.3288799e-08
9.3329685e-08
9.3371924e-08
9.3416329e-08
9.3462806e-08
9.3512057e-08
9.356359e-08
9.3618097e-08
9.3675313e-08
9.3734983e-08
9.379691e-08
9.3860842e-08
9.3926229e-08
9.3992468e-08
9.4058988e-08
9.4125079e-08
9.4189866e-08
9.4252517e-08
9.4312327e-08
9.4368535e-08
9.4420516e-08
9.4468218e-08
9.451195e-08
9.4551701e-08
9.4587459e-08
9.4619962e-08
9.4652448e-08
9.4664111e-08
9.4703803e-08
9.4738403e-08
9.477099e-08
9.4805512e-08
9.4844055e-08
9.4886644e-08
9.4932851e-08
9.4983972e-08
9.503938e-08
9.5097545e-08
9.5159302e-08
9.5226622e-08
9.5295044e-08
9.5368119e-08
9.5442189e-08
9.5519405e-08
9.5598122e-08
9.5679457e-08
9.5755137e-08
9.3117876e-08
9.3158098e-08
9.3199387e-08
9.3243283e-08
9.3288894e-08
9.3336878e-08
9.3387225e-08
9.3440446e-08
9.3496244e-08
9.3555001e-08
9.3616568e-08
9.3680723e-08
9.3747142e-08
9.3815429e-08
9.3885015e-08
9.3955146e-08
9.4025017e-08
9.4093836e-08
9.4160685e-08
9.422458e-08
9.4284663e-08
9.4340048e-08
9.4390003e-08
9.443437e-08
9.4473241e-08
9.4506504e-08
9.4534316e-08
9.4557497e-08
9.4576488e-08
9.4596395e-08
9.4611289e-08
9.4624878e-08
9.4639228e-08
9.4655891e-08
9.4675765e-08
9.4698843e-08
9.4724981e-08
9.475529e-08
9.4789473e-08
9.4826497e-08
9.4866989e-08
9.4912411e-08
9.4959398e-08
9.5010572e-08
9.5063093e-08
9.5118518e-08
9.5175474e-08
9.523488e-08
9.528978e-08
9.3045535e-08
9.3088761e-08
9.3133271e-08
9.3180318e-08
9.3229429e-08
9.3281143e-08
9.3335514e-08
9.3392904e-08
9.3453163e-08
9.3516426e-08
9.3582629e-08
9.3651557e-08
9.3722779e-08
9.379577e-08
9.3869928e-08
9.3944358e-08
9.4018051e-08
9.4090128e-08
9.4159606e-08
9.4225359e-08
9.4286383e-08
9.4341672e-08
9.4390392e-08
9.4432286e-08
9.4467274e-08
9.4495152e-08
9.4516197e-08
9.4531165e-08
9.4541266e-08
9.4546706e-08
9.4549556e-08
9.4550974e-08
9.4551758e-08
9.4553239e-08
9.455658e-08
9.4562272e-08
9.4570565e-08
9.4582462e-08
9.4597925e-08
9.4616312e-08
9.46381e-08
9.4664363e-08
9.4692599e-08
9.4724723e-08
9.4758536e-08
9.4795143e-08
9.483339e-08
9.487402e-08
9.4911192e-08
9.2992671e-08
9.3038929e-08
9.3086726e-08
9.3137074e-08
9.3189832e-08
9.3245444e-08
9.3304011e-08
9.3365785e-08
9.3430716e-08
9.349875e-08
9.3569875e-08
9.3643873e-08
9.3720212e-08
9.3798253e-08
9.3877346e-08
9.3956466e-08
9.4034421e-08
9.4110237e-08
9.4182851e-08
9.4251001e-08
9.4313547e-08
9.436936e-08
9.4417507e-08
9.4457644e-08
9.4489547e-08
9.4512929e-08
9.4528161e-08
9.4536039e-08
9.4537476e-08
9.4533687e-08
9.4525792e-08
9.4515038e-08
9.450265e-08
9.4490039e-08
9.4478434e-08
9.4468571e-08
9.4460936e-08
9.4456439e-08
9.4455254e-08
9.4457056e-08
9.446223e-08
9.4471567e-08
9.4483248e-08
9.4498651e-08
9.4516086e-08
9.4536315e-08
9.4558364e-08
9.4582826e-08
9.4604801e-08
9.2956386e-08
9.3005736e-08
9.3056916e-08
9.3110728e-08
9.3167297e-08
9.3226992e-08
9.3289951e-08
9.3356336e-08
9.3426172e-08
9.349925e-08
9.3575593e-08
9.3654965e-08
9.3736741e-08
9.3820179e-08
9.3904569e-08
9.3988758e-08
9.4071391e-08
9.4151389e-08
9.4227603e-08
9.4298632e-08
9.4363207e-08
9.4420079e-08
9.4468218e-08
9.4507195e-08
9.4536669e-08
9.4556276e-08
9.4566466e-08
9.4568043e-08
9.4561936e-08
9.4549282e-08
9.4531429e-08
9.4509768e-08
9.448564e-08
9.4460408e-08
9.4435353e-08
9.4411449e-08
9.438941e-08
9.4370113e-08
9.435392e-08
9.4340781e-08
9.4331022e-08
9.4325234e-08
9.4322135e-08
9.4322701e-08
9.4325642e-08
9.4331459e-08
9.4339324e-08
9.4349698e-08
9.4358484e-08
9.2934469e-08
9.2987005e-08
9.3041691e-08
9.3099146e-08
9.315971e-08
9.3223691e-08
9.3291257e-08
9.3362498e-08
9.3437491e-08
9.3515901e-08
9.3597768e-08
9.3682831e-08
9.3770375e-08
9.385956e-08
9.3949607e-08
9.4039241e-08
9.412695e-08
9.421155e-08
9.429179e-08
9.4366137e-08
9.4433192e-08
9.449159e-08
9.4540202e-08
9.4578521e-08
9.4606105e-08
9.4622524e-08
9.4628288e-08
9.462423e-08
9.4611249e-08
9.4590592e-08
9.456369e-08
9.4532015e-08
9.4497043e-08
9.4460156e-08
9.4422718e-08
9.4385915e-08
9.435066e-08
9.4317826e-08
9.428794e-08
9.426118e-08
9.4237848e-08
9.4218385e-08
9.4201946e-08
9.4189199e-08
9.4179174e-08
9.4172175e-08
9.4167495e-08
9.4165477e-08
9.4162711e-08
9.2925269e-08
9.2981112e-08
9.3039452e-08
9.3100745e-08
9.3165506e-08
9.3233997e-08
9.3306405e-08
9.3382763e-08
9.3463185e-08
9.354723e-08
9.3634942e-08
9.3726024e-08
9.3819678e-08
9.3914967e-08
9.4011036e-08
9.4106488e-08
9.4199662e-08
9.4289262e-08
9.4373929e-08
9.4451998e-08
9.452194e-08
9.4582273e-08
9.4631777e-08
9.4669862e-08
9.4696002e-08
9.4709708e-08
9.4711542e-08
9.4702366e-08
9.4683081e-08
9.4655011e-08
9.4619684e-08
9.4578668e-08
9.4533574e-08
9.4485819e-08
9.4436859e-08
9.4388066e-08
9.4340538e-08
9.4295163e-08
9.4252621e-08
9.4213288e-08
9.417746e-08
9.4145479e-08
9.411685e-08
9.4092009e-08
9.4070242e-08
9.4051703e-08
9.4035786e-08
9.4022728e-08
9.4009714e-08
9.2927578e-08
9.2986873e-08
9.3049038e-08
9.311438e-08
9.3183561e-08
9.3256802e-08
9.3334309e-08
9.3416065e-08
9.350221e-08
9.3592209e-08
9.36861e-08
9.3783546e-08
9.3883665e-08
9.3985423e-08
9.4087884e-08
9.4189528e-08
9.428855e-08
9.4383536e-08
9.4473011e-08
9.4555177e-08
9.4628377e-08
9.4691015e-08
9.4741773e-08
9.4779986e-08
9.4805052e-08
9.4816431e-08
9.4814729e-08
9.4800842e-08
9.4775685e-08
9.4740664e-08
9.4697401e-08
9.4647563e-08
9.4592888e-08
9.4534855e-08
9.4475018e-08
9.4414922e-08
9.4355837e-08
9.4298688e-08
9.4244294e-08
9.4193203e-08
9.4145725e-08
9.4102134e-08
9.4062222e-08
9.4026251e-08
9.3993714e-08
9.3964652e-08
9.393854e-08
9.3915524e-08
9.3893306e-08
9.2940553e-08
9.3003467e-08
9.306965e-08
9.3139269e-08
9.3213111e-08
9.3291365e-08
9.3374248e-08
9.3461704e-08
9.3553883e-08
9.3650175e-08
9.3750597e-08
9.3854767e-08
9.3961719e-08
9.4070324e-08
9.4179555e-08
9.4287769e-08
9.4393018e-08
9.4493766e-08
9.4588415e-08
9.4675033e-08
9.4751835e-08
9.4817108e-08
9.4869441e-08
9.4908092e-08
9.4932392e-08
9.4941756e-08
9.493683e-08
9.4918546e-08
9.4887847e-08
9.4846218e-08
9.4795376e-08
9.473709e-08
9.4673228e-08
9.4605346e-08
9.4535104e-08
9.4464217e-08
9.4394108e-08
9.4325761e-08
9.4260122e-08
9.4197895e-08
9.4139414e-08
9.4084914e-08
9.4034422e-08
9.3988071e-08
9.3945524e-08
9.3906734e-08
9.3871247e-08
9.3839124e-08
9.3808519e-08
9.2963657e-08
9.3030378e-08
9.3100793e-08
9.3174935e-08
9.32537e-08
9.3337249e-08
9.3425807e-08
9.3519283e-08
9.3617832e-08
9.3720772e-08
9.3828095e-08
9.3939367e-08
9.4053536e-08
9.4169377e-08
9.4285765e-08
9.4400933e-08
9.451279e-08
9.461967e-08
9.4719849e-08
9.4811258e-08
9.4891982e-08
9.4960193e-08
9.5014386e-08
9.5053743e-08
9.5077534e-08
9.5085135e-08
9.5077228e-08
9.5054786e-08
9.5018785e-08
9.4970792e-08
9.491262e-08
9.4846146e-08
9.4773366e-08
9.4695929e-08
9.4615613e-08
9.4534291e-08
9.4453538e-08
9.4374407e-08
9.4297967e-08
9.4225059e-08
9.4156055e-08
9.4091172e-08
9.4030631e-08
9.3974469e-08
9.392249e-08
9.3874581e-08
9.3830351e-08
9.3789778e-08
9.3751422e-08
9.2996616e-08
9.3067351e-08
9.3142235e-08
9.3221164e-08
9.3305134e-08
9.3394279e-08
9.3488834e-08
9.3588672e-08
9.3693949e-08
9.3803913e-08
9.3918527e-08
9.4037297e-08
9.4159085e-08
9.4282564e-08
9.4406509e-08
9.4529021e-08
9.4647867e-08
9.4761248e-08
9.4867304e-08
9.4963828e-08
9.5048777e-08
9.5120205e-08
9.5176513e-08
9.5216809e-08
9.5240305e-08
9.5246346e-08
9.5235646e-08
9.5209219e-08
9.5168086e-08
9.5113893e-08
9.5048551e-08
9.4974048e-08
9.4892514e-08
9.4805704e-08
9.4715523e-08
9.4623997e-08
9.453285e-08
9.4443213e-08
9.4356274e-08
9.4273e-08
9.419381e-08
9.4118918e-08
9.404871e-08
9.3983154e-08
9.3922172e-08
9.3865598e-08
9.3813097e-08
9.3764573e-08
9.3718948e-08
9.3039388e-08
9.3114365e-08
9.3193973e-08
9.3277974e-08
9.3367452e-08
9.3462519e-08
9.3563414e-08
9.366998e-08
9.3782364e-08
9.3899752e-08
9.4022067e-08
9.4148751e-08
9.4278577e-08
9.4410113e-08
9.4542024e-08
9.467228e-08
9.4798501e-08
9.4918748e-08
9.5031023e-08
9.5132978e-08
9.5222438e-08
9.5297342e-08
9.5355997e-08
9.5397435e-08
9.5420815e-08
9.5425458e-08
9.5412106e-08
9.5381817e-08
9.533566e-08
9.5275362e-08
9.5202935e-08
9.5120481e-08
9.5030269e-08
9.4934175e-08
9.4834235e-08
9.4732628e-08
9.4631225e-08
9.4531244e-08
9.4433989e-08
9.4340545e-08
9.4251383e-08
9.4166729e-08
9.4087109e-08
9.4012442e-08
9.3942751e-08
9.3877833e-08
9.3817398e-08
9.3761282e-08
9.3708737e-08
9.3092147e-08
9.3171612e-08
9.3256222e-08
9.33456e-08
9.3440912e-08
9.3542249e-08
9.3649853e-08
9.3763536e-08
9.3883432e-08
9.4008666e-08
9.4139113e-08
9.4274149e-08
9.4412451e-08
9.4552479e-08
9.4692781e-08
9.4831188e-08
9.4965174e-08
9.5092654e-08
9.5211485e-08
9.5319176e-08
9.5413422e-08
9.5492044e-08
9.5553254e-08
9.5596013e-08
9.5619429e-08
9.5622801e-08
9.56069e-08
9.5572827e-08
9.5521705e-08
9.5455342e-08
9.5375851e-08
9.5285456e-08
9.5186571e-08
9.5081202e-08
9.4971523e-08
9.4859871e-08
9.4748257e-08
9.4637994e-08
9.4530501e-08
9.4426977e-08
9.4327948e-08
9.4233666e-08
9.4144778e-08
9.4061172e-08
9.3982956e-08
9.39099e-08
9.3841757e-08
9.3778294e-08
9.3719074e-08
9.3155268e-08
9.323949e-08
9.3329402e-08
9.3424484e-08
9.352598e-08
9.363396e-08
9.3748666e-08
9.386988e-08
9.399772e-08
9.4131247e-08
9.4270284e-08
9.4414131e-08
9.4561368e-08
9.4710339e-08
9.4859469e-08
9.5006447e-08
9.5148592e-08
9.5283671e-08
9.540939e-08
9.5523115e-08
9.5622408e-08
9.5704974e-08
9.5768931e-08
9.5813167e-08
9.5836745e-08
9.5838946e-08
9.5820568e-08
9.5782756e-08
9.5726688e-08
9.5654253e-08
9.5567669e-08
9.5469288e-08
9.5361674e-08
9.5246974e-08
9.5127509e-08
9.500577e-08
9.4883908e-08
9.476334e-08
9.4645598e-08
9.4531991e-08
9.4423106e-08
9.4319229e-08
9.4221117e-08
9.412864e-08
9.4041981e-08
9.396089e-08
9.388516e-08
9.3814492e-08
9.3748741e-08
9.3229334e-08
9.3318599e-08
9.3414139e-08
9.3515276e-08
9.3623332e-08
9.3738354e-08
9.3860583e-08
9.3989771e-08
9.4126012e-08
9.4268305e-08
9.4416414e-08
9.4569556e-08
9.4726207e-08
9.4884591e-08
9.5043001e-08
9.5198976e-08
9.5349681e-08
9.5492724e-08
9.562566e-08
9.5745709e-08
9.5850298e-08
9.5937018e-08
9.6003896e-08
9.6049749e-08
9.6073592e-08
9.60747e-08
9.605389e-08
9.6012355e-08
9.5951327e-08
9.5872777e-08
9.5779031e-08
9.5672576e-08
9.5556131e-08
9.5431992e-08
9.5302637e-08
9.5170705e-08
9.5038491e-08
9.490752e-08
9.4779438e-08
9.465566e-08
9.4536844e-08
9.4423318e-08
9.4315937e-08
9.4214568e-08
9.4119461e-08
9.4030354e-08
9.3947075e-08
9.3869263e-08
9.3797052e-08
9.3315132e-08
9.3409753e-08
9.3511272e-08
9.3618842e-08
9.373386e-08
9.3856352e-08
9.3986555e-08
9.4124189e-08
9.426932e-08
9.442088e-08
9.4578568e-08
9.4741512e-08
9.4908078e-08
9.5076363e-08
9.5244517e-08
9.5409927e-08
9.5569595e-08
9.5720967e-08
9.5861442e-08
9.5988092e-08
9.6098214e-08
9.6189284e-08
9.6259241e-08
9.6306831e-08
9.6331027e-08
9.6331099e-08
9.6307885e-08
9.6262621e-08
9.6196596e-08
9.6111859e-08
9.6010852e-08
9.5896201e-08
9.5770787e-08
9.5637065e-08
9.5497666e-08
9.5355386e-08
9.5212657e-08
9.5071119e-08
9.4932534e-08
9.4798425e-08
9.4669523e-08
9.4546209e-08
9.4429433e-08
9.4319065e-08
9.421542e-08
9.4118227e-08
9.4027352e-08
9.3942367e-08
9.3863685e-08
9.3413679e-08
9.3513991e-08
9.3621869e-08
9.373628e-08
9.3858694e-08
9.3989116e-08
9.4127776e-08
9.4274359e-08
9.4428896e-08
9.4590255e-08
9.4758058e-08
9.4931336e-08
9.5108339e-08
9.5287028e-08
9.5465404e-08
9.5640693e-08
9.5809728e-08
9.596979e-08
9.6118117e-08
9.6251635e-08
9.6367511e-08
9.6463111e-08
9.6536286e-08
9.6585717e-08
9.6610338e-08
9.6609416e-08
9.658381e-08
9.6534796e-08
9.6463719e-08
9.6372707e-08
9.6264318e-08
9.6141328e-08
9.6006785e-08
9.5863305e-08
9.5713679e-08
9.5560851e-08
9.5407396e-08
9.525507e-08
9.5105755e-08
9.4961083e-08
9.4821869e-08
9.4688555e-08
9.456218e-08
9.4442631e-08
9.4330284e-08
9.4224867e-08
9.4126281e-08
9.4034035e-08
9.3948819e-08
9.3526236e-08
9.3632605e-08
9.3747255e-08
9.3868945e-08
9.3999224e-08
9.413807e-08
9.4285704e-08
9.4441772e-08
9.4606269e-08
9.4777987e-08
9.4956468e-08
9.5140637e-08
9.5328619e-08
9.5518231e-08
9.5707316e-08
9.5892932e-08
9.6071738e-08
9.6240842e-08
9.6397323e-08
9.653796e-08
9.6659792e-08
9.6760081e-08
9.6836596e-08
9.6887956e-08
9.6913059e-08
9.6911173e-08
9.6883176e-08
9.6830383e-08
9.675419e-08
9.6656803e-08
9.6540903e-08
9.6409423e-08
9.6265577e-08
9.6112149e-08
9.5952085e-08
9.5788477e-08
9.5624041e-08
9.5460655e-08
9.5300324e-08
9.5144795e-08
9.4994973e-08
9.4851372e-08
9.4715121e-08
9.4586131e-08
9.4464841e-08
9.4350979e-08
9.4244486e-08
9.4144803e-08
9.4052905e-08
9.3654342e-08
9.3767167e-08
9.3889038e-08
9.4018485e-08
9.4157136e-08
9.4304938e-08
9.4462102e-08
9.4628231e-08
9.4803275e-08
9.4985946e-08
9.5175695e-08
9.5371336e-08
9.5570857e-08
9.5771924e-08
9.5972211e-08
9.61686e-08
9.6357573e-08
9.6536061e-08
9.6700978e-08
9.6848962e-08
9.697693e-08
9.7082045e-08
9.7162001e-08
9.7215359e-08
9.7240988e-08
9.7238157e-08
9.7207766e-08
9.7151162e-08
9.7069786e-08
9.6965925e-08
9.6842387e-08
9.6702266e-08
9.6548946e-08
9.6385374e-08
9.6214646e-08
9.6040001e-08
9.586429e-08
9.5689524e-08
9.5517836e-08
9.5351094e-08
9.5190302e-08
9.5036059e-08
9.4889585e-08
9.4750827e-08
9.4620285e-08
9.4497697e-08
9.4383043e-08
9.4275695e-08
9.417693e-08
9.3799856e-08
9.391957e-08
9.4049157e-08
9.4186882e-08
9.4334455e-08
9.4491793e-08
9.4659087e-08
9.4835894e-08
9.5022109e-08
9.5216362e-08
9.5418e-08
9.5625714e-08
9.5837349e-08
9.6050409e-08
9.6262391e-08
9.6469993e-08
9.6669513e-08
9.6857704e-08
9.7031315e-08
9.7186845e-08
9.7321099e-08
9.7431148e-08
9.7514621e-08
9.7570028e-08
9.7596212e-08
9.7592451e-08
9.7559661e-08
9.7499218e-08
9.7412601e-08
9.7302176e-08
9.7170887e-08
9.7021991e-08
9.6859038e-08
9.6685128e-08
9.6503505e-08
9.6317542e-08
9.6130231e-08
9.5943718e-08
9.5760276e-08
9.5581903e-08
9.5409716e-08
9.5244406e-08
9.5087291e-08
9.4938362e-08
9.4798182e-08
9.4666502e-08
9.4543347e-08
9.4428014e-08
9.4322101e-08
9.3964994e-08
9.4092079e-08
9.4229926e-08
9.4376502e-08
9.4533605e-08
9.4701109e-08
9.4879185e-08
9.5067334e-08
9.5265391e-08
9.5471891e-08
9.5686067e-08
9.5906476e-08
9.6130811e-08
9.6356402e-08
9.6580561e-08
9.6799798e-08
9.7010222e-08
9.7208402e-08
9.7390928e-08
9.7554166e-08
9.7694814e-08
9.780987e-08
9.7896905e-08
9.7954389e-08
9.7981144e-08
9.7976462e-08
9.7941274e-08
9.7876975e-08
9.7785075e-08
9.7668021e-08
9.7528897e-08
9.7371123e-08
9.7198403e-08
9.7013981e-08
9.6821228e-08
9.662365e-08
9.6424379e-08
9.6225707e-08