/*--------------------------------*- C++ -*----------------------------------*\
| =========                 |                                                 |
| \\      /  F ield         | OpenFOAM: The Open Source CFD Toolbox           |
|  \\    /   O peration     | Version:  v2006                                 |
|   \\  /    A nd           | Website:  www.openfoam.com                      |
|    \\/     M anipulation  |                                                 |
\*---------------------------------------------------------------------------*/
FoamFile
{
    version     2.0;
    format      ascii;
    class       volScalarField;
    location    "4500";
    object      Cp;
}
// * * * * * * * * * * * * * * * * * * * * * * * * * * * * * * * * * * * * * //

dimensions      [0 0 0 0 0 0 0];


internalField   nonuniform List<scalar> 
19765
(
0.14940934
0.20552593
0.35624266
0.46146709
0.5656713
0.64397103
0.73612906
0.78961951
0.85787567
0.91332055
0.95183419
0.98120453
1.0042434
1.0159703
1.0188528
1.01507
1.0050553
0.98867998
0.96575786
0.93604502
0.89859985
0.85384807
0.80579877
0.74952827
0.68131702
0.61043208
0.5496191
0.48048052
0.39388305
0.3158339
0.23440114
0.13607804
0.025178087
-0.12091619
-0.23864688
-0.32179785
-0.42838752
-0.58954265
-0.70130033
-0.82549527
-1.0293374
-1.2045671
-1.2323174
-1.3874217
-1.3808311
-1.4298738
-1.3857242
-1.3176864
-1.2310473
0.33738586
0.3660763
0.40282535
0.44688037
0.49360259
0.53856911
0.58563597
0.62518181
0.66656172
0.70751374
0.7421416
0.77085769
0.79731409
0.81584384
0.8262307
0.83332541
0.83549889
0.83018068
0.81908065
0.80116544
0.77664092
0.74700575
0.7104865
0.66748812
0.61954795
0.5670587
0.50794621
0.44336274
0.37433686
0.30022326
0.22167813
0.13958531
0.054520901
-0.030935146
-0.1155067
-0.20080656
-0.28812007
-0.3743191
-0.45400864
-0.52876469
-0.5947151
-0.64898768
-0.70105673
-0.74548113
-0.77707264
-0.8040383
-0.82455774
-0.84330419
-0.86212974
0.3297316
0.36581313
0.40656548
0.4470254
0.48710875
0.52468486
0.56157274
0.59313002
0.62432874
0.65335729
0.67904943
0.7014079
0.72133702
0.73638765
0.74601138
0.75206299
0.75417947
0.75074348
0.74148463
0.72619277
0.70480918
0.67778578
0.64481535
0.60579656
0.56172775
0.51310503
0.45890229
0.39952362
0.33600782
0.26801657
0.19638418
0.12237653
0.047202833
-0.028024476
-0.10466412
-0.18215655
-0.25814342
-0.33215849
-0.40457262
-0.47281014
-0.53618048
-0.59811469
-0.65705705
-0.71107431
-0.76025054
-0.79984867
-0.83488188
-0.86473378
-0.89231124
0.36308968
0.38663557
0.41119916
0.43726192
0.46394795
0.49049881
0.51718462
0.54153682
0.56601047
0.58980602
0.61109573
0.62984409
0.64677008
0.65986655
0.66839936
0.67412263
0.67684832
0.67482661
0.66766659
0.65510645
0.63737948
0.61538777
0.58847718
0.55612414
0.51925811
0.47856042
0.43314221
0.38305759
0.32943316
0.27222904
0.21213761
0.15036186
0.087747947
0.025378838
-0.037905648
-0.10150657
-0.16320542
-0.22225035
-0.27979909
-0.33330403
-0.3819343
-0.42934857
-0.47629925
-0.51839602
-0.56005856
-0.59842248
-0.63757613
-0.67595626
-0.71339219
0.34746115
0.3687477
0.39045645
0.41191203
0.43297011
0.45330025
0.47346058
0.49172249
0.50998579
0.52783718
0.5439409
0.55814098
0.57099137
0.58102681
0.58745733
0.59155804
0.59331452
0.59122254
0.58474304
0.57356631
0.55748685
0.53715115
0.5121253
0.48193114
0.44747347
0.40954615
0.36753033
0.32125773
0.27179227
0.21941767
0.16461143
0.10832266
0.051227713
-0.0056857615
-0.062825213
-0.11980823
-0.17537199
-0.22895447
-0.28114985
-0.33060933
-0.37720266
-0.42302645
-0.46850761
-0.51129748
-0.55426813
-0.59545996
-0.6362551
-0.67575298
-0.71408579
0.34256825
0.3579466
0.37395036
0.38987899
0.40572865
0.42113959
0.43667315
0.45080302
0.4650973
0.47913777
0.49180028
0.50293263
0.51295749
0.52069208
0.52545559
0.52820034
0.52886698
0.52621677
0.5197754
0.50925936
0.49447696
0.4760644
0.45367136
0.42676617
0.39607959
0.36226401
0.32486269
0.28379984
0.23999327
0.19373016
0.145463
0.096021038
0.046009234
-0.0037334021
-0.053477173
-0.10288982
-0.1509759
-0.19728783
-0.2422178
-0.28481727
-0.32499538
-0.36434894
-0.40308788
-0.44006991
-0.47708219
-0.51324574
-0.54982599
-0.5867124
-0.62329959
0.32581186
0.3388288
0.35227311
0.36529112
0.37801468
0.39019697
0.40242134
0.41345448
0.42461276
0.43556307
0.44539951
0.45397834
0.46163414
0.46740656
0.47070363
0.47225219
0.4719701
0.46880339
0.4623184
0.45222733
0.43833649
0.42107281
0.4001372
0.37510606
0.3465524
0.3150823
0.28035937
0.24232746
0.2017927
0.15905589
0.11451618
0.068882253
0.022654646
-0.023414611
-0.069435119
-0.11512545
-0.15976674
-0.20297824
-0.24504365
-0.28531316
-0.32380019
-0.36157788
-0.39896144
-0.43514933
-0.47148277
-0.50735966
-0.5436986
-0.58026847
-0.61703465
0.31266122
0.32277777
0.33340302
0.34367949
0.35375542
0.36337822
0.37307927
0.38178329
0.39060834
0.39923993
0.40691986
0.41351471
0.41929058
0.42344751
0.42547865
0.42594591
0.42474769
0.42099526
0.4143105
0.40442231
0.39116865
0.37486295
0.35527536
0.33207201
0.30568048
0.27662602
0.24465434
0.2097599
0.1726525
0.13361418
0.093021006
0.051503488
0.0095117822
-0.032287505
-0.073954476
-0.1152395
-0.15554344
-0.19453934
-0.23244593
-0.26873831
-0.30340246
-0.33733339
-0.3707603
-0.40314385
-0.43553715
-0.46755446
-0.49999265
-0.53275508
-0.56580586
0.29647593
0.3048735
0.31371448
0.32216228
0.33038043
0.33815408
0.34597018
0.35291148
0.35993255
0.36675621
0.37274331
0.37777161
0.38205648
0.3849229
0.38593212
0.38552582
0.38359073
0.37936334
0.37250869
0.36277193
0.3500103
0.33443665
0.31584982
0.29399391
0.26919699
0.24192142
0.21197421
0.17937254
0.14473947
0.10833696
0.070507234
0.031804174
-0.0073848953
-0.046466794
-0.085452396
-0.12411634
-0.16197323
-0.198728
-0.23455033
-0.26902661
-0.30216023
-0.33460925
-0.36663673
-0.39779305
-0.42895753
-0.45983551
-0.49108106
-0.52264274
-0.55456712
0.28208194
0.28881897
0.29600093
0.302839
0.30948922
0.31574476
0.32203548
0.32755976
0.33313413
0.33850262
0.34311899
0.34686875
0.34992552
0.35171182
0.35184653
0.35067986
0.3480929
0.34342774
0.33638935
0.32674368
0.31436392
0.299398
0.28167588
0.26100515
0.23763685
0.21197573
0.18387791
0.15338432
0.12104803
0.087112722
0.051900982
0.015912796
-0.020500025
-0.056800202
-0.092973679
-0.12880839
-0.16387766
-0.19791147
-0.23104751
-0.26292517
-0.2935246
-0.32340803
-0.35280142
-0.38132598
-0.40974861
-0.43782585
-0.46614996
-0.49469428
-0.5234872
0.26723829
0.27280154
0.27877087
0.28441238
0.28987225
0.29496348
0.30006604
0.30448181
0.3089117
0.31312338
0.31664527
0.31937044
0.32143923
0.32235232
0.32177569
0.31998922
0.31687164
0.31185021
0.3046637
0.29509806
0.28303369
0.26858064
0.25158287
0.23189351
0.2097148
0.1853932
0.15882693
0.13006968
0.099611694
0.067677165
0.034565406
0.00072451132
-0.033532835
-0.067723161
-0.10181648
-0.13561468
-0.16874712
-0.20096516
-0.23238305
-0.26268884
-0.29186083
-0.32034357
-0.34836655
-0.37557177
-0.40264363
-0.42936231
-0.45624682
-0.48328332
-0.51055903
0.2535844
0.25810062
0.26299947
0.26760614
0.27205409
0.27616758
0.28027812
0.28377195
0.28725115
0.29050175
0.29311334
0.29498457
0.29622787
0.29640734
0.29522827
0.29291495
0.28934636
0.28402121
0.27670756
0.2672099
0.25541486
0.24140989
0.22504827
0.20621928
0.1850934
0.16196484
0.13676601
0.10956233
0.080792414
0.050664983
0.019462918
-0.012405002
-0.044651554
-0.076833687
-0.10890868
-0.14068436
-0.17182253
-0.20208907
-0.23157856
-0.26000562
-0.28733348
-0.31394557
-0.34005019
-0.36531008
-0.39035284
-0.41496829
-0.43963543
-0.46433954
-0.48915283
0.24028565
0.24399533
0.24805371
0.25184301
0.25548327
0.25881285
0.26212111
0.26486779
0.26757133
0.27003546
0.27190025
0.27306966
0.27363315
0.27320721
0.27153
0.26878155
0.26484255
0.2592716
0.25186175
0.24243432
0.23088233
0.21727698
0.20147923
0.18340468
0.16320147
0.14112042
0.11711998
0.091273312
0.063973806
0.035415181
0.0058634671
-0.024308984
-0.05484026
-0.085326242
-0.11571823
-0.14583278
-0.17536385
-0.20409367
-0.2321038
-0.25913493
-0.28514602
-0.31045589
-0.33526546
-0.35924287
-0.38296666
-0.40622977
-0.42946589
-0.45265744
-0.47590678
0.22790617
0.23091474
0.23424277
0.23732737
0.24027602
0.24293806
0.24556475
0.24767808
0.24972484
0.25152389
0.25275765
0.25333449
0.25332441
0.2523876
0.25028993
0.24717547
0.24292771
0.237156
0.22967486
0.22032078
0.20899344
0.19575133
0.18046424
0.1630682
0.14369425
0.12255788
0.099638244
0.075014791
0.049042874
0.021903935
-0.0061496178
-0.034775009
-0.063728933
-0.0926383
-0.121448
-0.1499787
-0.17794538
-0.20514138
-0.23163471
-0.25718229
-0.28173422
-0.30556731
-0.3288662
-0.35130855
-0.37343434
-0.39503776
-0.41652174
-0.43786206
-0.45915347
0.21610476
0.21854678
0.22127699
0.22378306
0.22616031
0.22826936
0.23032836
0.23191341
0.23341016
0.23465151
0.23535564
0.23543513
0.23494382
0.23357882
0.23112966
0.22771113
0.22321014
0.21727944
0.20975206
0.20047822
0.18936424
0.17645842
0.16163978
0.14486011
0.12623669
0.10595626
0.08401431
0.060494637
0.035719546
0.0098593914
-0.016846416
-0.044081792
-0.071620707
-0.099119137
-0.12651909
-0.15364736
-0.18024009
-0.20610373
-0.23129747
-0.25559537
-0.27894485
-0.30158342
-0.32368482
-0.34493263
-0.36583054
-0.38617327
-0.40633137
-0.4262739
-0.4461107
0.20506166
0.20701435
0.20922657
0.21123267
0.21311717
0.21475046
0.21632144
0.21745289
0.21847789
0.21924178
0.21949323
0.21914862
0.21824805
0.21652012
0.21377457
0.21010206
0.20539336
0.19933848
0.19178647
0.18259997
0.17169176
0.15910186
0.14471868
0.1285067
0.110572
0.091077764
0.070032665
0.047523855
0.023845262
-0.00084208351
-0.026310104
-0.052265454
-0.078495976
-0.10468221
-0.13076284
-0.15656867
-0.18185165
-0.20642814
-0.23034744
-0.25339596
-0.27551672
-0.29691731
-0.31775727
-0.33772981
-0.35730661
-0.37628474
-0.3950091
-0.41344262
-0.43169239
0.19461843
0.19616379
0.19794063
0.19952554
0.20099308
0.20222296
0.2033787
0.20412377
0.20474613
0.20510252
0.20496786
0.20426214
0.20301401
0.20097917
0.19798491
0.19410197
0.18922521
0.18307692
0.17552014
0.16642871
0.15572167
0.14343225
0.129458
0.11377393
0.096476868
0.077710256
0.057493583
0.035916374
0.013247818
-0.01035923
-0.034687255
-0.059463261
-0.084487593
-0.10946338
-0.13432759
-0.15891616
-0.18299669
-0.20639664
-0.22915835
-0.25108161
-0.2721088
-0.29242137
-0.31216743
-0.33105009
-0.34951016
-0.36734805
-0.38488316
-0.40207271
-0.41903172
0.18481609
0.18600931
0.18740808
0.18862733
0.18973285
0.19061271
0.19140825
0.19181835
0.19209208
0.19209645
0.19162903
0.19061319
0.18906793
0.18677242
0.1835692
0.17951244
0.17450124
0.16828595
0.16074188
0.15175302
0.14124446
0.12924374
0.11565707
0.10046849
0.083767154
0.065679757
0.046234851
0.025523801
0.0037941434
-0.018808263
-0.042075477
-0.065752376
-0.089649941
-0.11349116
-0.1372112
-0.16065029
-0.18358915
-0.20586448
-0.22751117
-0.24833993
-0.26829189
-0.28752675
-0.30617999
-0.32396707
-0.34129991
-0.35798447
-0.37431802
-0.39025385
-0.4059066
0.1755675
0.17646184
0.17753721
0.17844301
0.17923713
0.17981541
0.18029993
0.18042062
0.18039298
0.18009345
0.17933932
0.17805726
0.17625817
0.17374173
0.1703639
0.16616509
0.16104865
0.15478954
0.14727387
0.13839484
0.12808347
0.11636226
0.10314609
0.088426082
0.072284935
0.054835836
0.036114398
0.016213575
-0.0046382702
-0.026301418
-0.048576827
-0.071225419
-0.094067744
-0.11684496
-0.13949115
-0.16185143
-0.1837193
-0.20494116
-0.22554619
-0.24535673
-0.26431489
-0.28256191
-0.3002225
-0.31702553
-0.33335514
-0.34902403
-0.36430822
-0.37915764
-0.39369137
0.1668642
0.16749923
0.16829272
0.16892504
0.16944719
0.16976209
0.16997499
0.1698431
0.16955284
0.16898925
0.16798683
0.16647539
0.16445904
0.16175549
0.1582325
0.15391902
0.14872264
0.14243993
0.13496658
0.12620421
0.11608942
0.10463997
0.091780098
0.077506138
0.061895272
0.045050242
0.027011225
0.0078728849
-0.012153353
-0.032933131
-0.054275651
-0.075956178
-0.097803727
-0.11957582
-0.14120554
-0.16254265
-0.1833921
-0.20360898
-0.22321672
-0.24204799
-0.26004573
-0.27733511
-0.29402989
-0.3098736
-0.32522384
-0.33990167
-0.35416388
-0.36795866
-0.38140554
0.15864906
0.15906117
0.15961075
0.16000597
0.16029167
0.16037731
0.16035352
0.16000152
0.15948261
0.15868966
0.15747237
0.15576356
0.15356171
0.15070042
0.14705801
0.14265383
0.13739968
0.13111123
0.12369272
0.11505343
0.1051352
0.093951746
0.081436538
0.067589537
0.052483106
0.036212167
0.018820041
0.0004026318
-0.018843559
-0.038788959
-0.059250485
-0.080016385
-0.10092336
-0.12174394
-0.14241059
-0.16277802
-0.18266224
-0.20192704
-0.22059121
-0.23849805
-0.25559265
-0.27198656
-0.28778403
-0.30274402
-0.31719891
-0.33097892
-0.34432272
-0.35717731
-0.36966469
0.15089738
0.15111544
0.15145173
0.15163933
0.15171772
0.15160231
0.15137103
0.15082629
0.15010758
0.14911495
0.1477115
0.14583296
0.1434731
0.14047967
0.13674036
0.13226655
0.12697415
0.12069579
0.11334331
0.10483309
0.095111741
0.084189745
0.072009091
0.058572659
0.043948611
0.028225582
0.01144931
-0.006283575
-0.024789767
-0.043943963
-0.063570341
-0.083468899
-0.10348333
-0.12339986
-0.14315051
-0.16259486
-0.18155923
-0.19991544
-0.2176779
-0.23469973
-0.25092818
-0.26646275
-0.28139842
-0.29550998
-0.30910571
-0.32202586
-0.33449239
-0.34645229
-0.35802799
0.14356628
0.14361631
0.14376687
0.14377333
0.14367046
0.14337918
0.14296635
0.14225317
0.14136015
0.14019401
0.1386297
0.13660578
0.13411214
0.13100914
0.1271929
0.12266818
0.11735488
0.1111007
0.1038244
0.095448792
0.085924941
0.075260743
0.063405916
0.050365823
0.036204952
0.021006711
0.0048188172
-0.012261873
-0.030063747
-0.048465384
-0.067297811
-0.086371752
-0.10553734
-0.12459343
-0.14347183
-0.16203714
-0.18012556
-0.19761679
-0.21452156
-0.23070286
-0.24611077
-0.26083457
-0.2749611
-0.28828125
-0.30108057
-0.31320977
-0.32487517
-0.33602418
-0.34678043
0.13662722
0.13653085
0.13651883
0.13636655
0.13610465
0.1356591
0.13508713
0.13422663
0.13318161
0.1318649
0.13016201
0.12801424
0.12540825
0.12221574
0.1183404
0.11378148
0.10846276
0.10224544
0.09505448
0.086818633
0.077493057
0.067083631
0.055547022
0.042890773
0.029176154
0.014482124
-0.0011419656
-0.017599434
-0.034729101
-0.052413086
-0.070488914
-0.08877712
-0.10713381
-0.12536945
-0.14341579
-0.16114246
-0.17839498
-0.19506042
-0.21114617
-0.22652454
-0.24114845
-0.25509804
-0.26845249
-0.28101858
-0.29306032
-0.30443909
-0.31534674
-0.32573185
-0.33571805
0.13004534
0.129822
0.12966823
0.12937735
0.1289764
0.12839599
0.12768502
0.12669618
0.12551916
0.1240724
0.1222509
0.11999854
0.11729942
0.11403536
0.11011697
0.10553892
0.10022875
0.094059728
0.08696245
0.078871141
0.069744726
0.059587528
0.04836245
0.036078956
0.022795487
0.0085871584
-0.0064953336
-0.022355837
-0.0388425
-0.055840736
-0.073194232
-0.090732553
-0.10831737
-0.1257699
-0.14302203
-0.1599484
-0.17640346
-0.19228137
-0.20758673
-0.22220095
-0.23608013
-0.24929662
-0.26192281
-0.27378123
-0.28511568
-0.29579831
-0.30600748
-0.31569326
-0.32497946
0.12379282
0.12345928
0.12318188
0.12277
0.12224757
0.12154949
0.12071738
0.11961718
0.11832606
0.11676768
0.1148455
0.11250593
0.10973099
0.10641165
0.10246477
0.097881251
0.092592271
0.08648194
0.079485979
0.071543643
0.062617332
0.052710185
0.041790694
0.029870016
0.017004083
0.0032646525
-0.011296502
-0.026584045
-0.042454526
-0.058796428
-0.075459324
-0.092281095
-0.10912864
-0.12583311
-0.14232666
-0.15848891
-0.17418276
-0.18930905
-0.20386985
-0.21775526
-0.23092449
-0.24344292
-0.25537666
-0.26656345
-0.27722808
-0.28725328
-0.29680492
-0.30583499
-0.31446671
0.11784031
0.11741176
0.11702714
0.11651026
0.11588234
0.11508224
0.11414526
0.11294919
0.11156028
0.10990703
0.10790052
0.10548958
0.10265456
0.099294763
0.095332696
0.090756207
0.085499949
0.079457804
0.07257017
0.064780933
0.056055693
0.046396707
0.035777464
0.024210606
0.011749824
-0.0015361026
-0.015594564
-0.030331295
-0.045610436
-0.061323387
-0.077325325
-0.093461838
-0.10960474
-0.1255944
-0.14136337
-0.15679618
-0.17176376
-0.18617329
-0.20002474
-0.21321654
-0.22571117
-0.23756795
-0.24884749
-0.25940223
-0.26943928
-0.27885176
-0.28779395
-0.29621992
-0.30425231
0.11216254
0.1116525
0.11117532
0.1105678
0.10984882
0.10896091
0.10793386
0.10665609
0.10518431
0.10345149
0.10137561
0.098907814
0.096027169
0.092640489
0.088675488
0.084117512
0.078904552
0.072939316
0.066166475
0.058534184
0.050010983
0.040598489
0.030274653
0.019053405
0.006986409
-0.0058602252
-0.019433287
-0.033639792
-0.048350792
-0.063460465
-0.078829358
-0.094310202
-0.10977946
-0.12508604
-0.14016298
-0.15489963
-0.16917448
-0.18290069
-0.19607636
-0.2086078
-0.22046063
-0.23168878
-0.24234782
-0.25230417
-0.26174837
-0.27058361
-0.27895336
-0.28681407
-0.29428723
0.10673466
0.10615555
0.10559926
0.10491432
0.10411761
0.10315502
0.10205157
0.10070523
0.099164363
0.097366116
0.095234688
0.092723459
0.089810506
0.086409495
0.082452898
0.077924049
0.072764141
0.066883865
0.060231804
0.052760049
0.044439843
0.035272349
0.025239493
0.014356307
0.0026725941
-0.0097479617
-0.02285177
-0.036547323
-0.050711983
-0.065242625
-0.080004929
-0.094858279
-0.10968353
-0.12433752
-0.13875386
-0.15282655
-0.16644126
-0.17951672
-0.19204947
-0.2039533
-0.21519698
-0.2258297
-0.23590261
-0.24529547
-0.25418348
-0.26247951
-0.27031707
-0.27765505
-0.28461371
0.10153476
0.10089786
0.10027474
0.099524531
0.098662339
0.097637219
0.096470027
0.095067334
0.093470193
0.091619629
0.089445491
0.086903293
0.083970388
0.080566694
0.076629046
0.072139182
0.067041356
0.061253498
0.054727782
0.047419922
0.039303644
0.030379801
0.020633845
0.01008174
-0.0012284533
-0.013235285
-0.025885003
-0.039087738
-0.052726677
-0.06670131
-0.080882251
-0.095135085
-0.10934484
-0.12337568
-0.13716186
-0.15060187
-0.16358808
-0.17604445
-0.18796609
-0.19927385
-0.20993945
-0.22000787
-0.22952621
-0.23838675
-0.24675046
-0.25453938
-0.26187778
-0.26872715
-0.27520609
0.096542211
0.095858022
0.095179456
0.094375264
0.093459038
0.092382758
0.091163649
0.089716057
0.088074618
0.086183976
0.083979114
0.081417585
0.078476245
0.075080721
0.071171867
0.066730176
0.061702825
0.056014321
0.049620132
0.042479318
0.034567872
0.02588645
0.016423617
0.0061961019
-0.0047496893
-0.016354397
-0.028564321
-0.041291391
-0.054424186
-0.067864779
-0.08148852
-0.095166796
-0.10878859
-0.12222486
-0.13541053
-0.14824839
-0.16063709
-0.17250537
-0.18384717
-0.19458993
-0.20470821
-0.21424329
-0.22323869
-0.23159852
-0.23947061
-0.24678575
-0.2536597
-0.26005656
-0.2660932
0.091738837
0.09101706
0.090293577
0.089445908
0.088486316
0.087369515
0.086109554
0.084627824
0.082953315
0.081034047
0.078809682
0.076239723
0.073300709
0.069923501
0.066052655
0.061667722
0.056718667
0.051135979
0.044878159
0.037907347
0.030201607
0.021761481
0.012578262
0.0026692835
-0.0079206471
-0.019134158
-0.030917813
-0.043185481
-0.055830794
-0.068758376
-0.08184815
-0.094976938
-0.10803748
-0.12090702
-0.13352117
-0.14578679
-0.15760834
-0.16891898
-0.17971155
-0.18991961
-0.19952035
-0.20855168
-0.21705392
-0.22494211
-0.23235195
-0.23922242
-0.24566142
-0.25163571
-0.25726011
0.087108178
0.086357865
0.085599278
0.084717965
0.083725015
0.0825777
0.081287286
0.079781557
0.078084529
0.076147381
0.073914042
0.071345877
0.068419264
0.06506987
0.06124567
0.056925528
0.052062067
0.046591228
0.040474305
0.033676276
0.026177088
0.017977226
0.0090703535
-0.00052573844
-0.010767822
-0.021600444
-0.03297064
-0.044794369
-0.056970015
-0.069404772
-0.081982971
-0.094586551
-0.10711183
-0.11944185
-0.13151291
-0.14323572
-0.15452006
-0.16530312
-0.17557672
-0.18528007
-0.19439285
-0.20294994
-0.21098882
-0.2184348
-0.2254124
-0.2318684
-0.23790343
-0.24348695
-0.2487316
0.082636015
0.081865569
0.081080991
0.080175203
0.079158258
0.077989819
0.076678707
0.075158519
0.073448886
0.071503934
0.069271498
0.066714716
0.063809937
0.060497251
0.056727797
0.052479966
0.047708914
0.042355562
0.036383778
0.029761148
0.02246933
0.01450879
0.0058752272
-0.0034132551
-0.01331501
-0.023776464
-0.034745339
-0.046139825
-0.057862838
-0.069824152
-0.081912392
-0.094014321
-0.10602966
-0.11784683
-0.1294028
-0.14061181
-0.15138854
-0.16167375
-0.17145831
-0.18068655
-0.18934033
-0.19745181
-0.2050558
-0.21208703
-0.21865972
-0.22472785
-0.23038532
-0.23560434
-0.24049508
0.078309963
0.077527197
0.0767251
0.0758034
0.07477122
0.073590462
0.072267795
0.070742115
0.069029173
0.067085854
0.064863573
0.062327157
0.059453038
0.056185377
0.052478253
0.048309769
0.043637492
0.038406895
0.032584221
0.026139457
0.019055805
0.011333735
0.0029706657
-0.0060151312
-0.015583595
-0.025683024
-0.036262057
-0.047241261
-0.0585279
-0.070034392
-0.081653534
-0.093276681
-0.10480682
-0.11613732
-0.12720579
-0.13792973
-0.14822823
-0.15804521
-0.16737054
-0.1761532
-0.18437703
-0.19207169
-0.19926965
-0.20591441
-0.21211078
-0.2178196
-0.22312855
-0.2280126
-0.23257934
0.074119735
0.073331844
0.072520045
0.071590367
0.070551093
0.069366223
0.068040527
0.066517737
0.064810168
0.062877291
0.060673802
0.05816614
0.055330913
0.052116041
0.048478334
0.044395766
0.039828202
0.034725278
0.029055435
0.022790867
0.015916161
0.0084318085
0.00033664409
-0.0083510337
-0.017592768
-0.027338746
-0.037538766
-0.048115915
-0.058981675
-0.070051182
-0.081221343
-0.092387896
-0.10345697
-0.11432654
-0.12493478
-0.13520217
-0.14505168
-0.15442997
-0.16332583
-0.17169231
-0.17951493
-0.18682093
-0.19364051
-0.19992512
-0.20577076
-0.21114455
-0.21612835
-0.2207
-0.22496407
0.070056777
0.069270365
0.068456053
0.067525719
0.066486883
0.065305512
0.063984696
0.062472587
0.060778458
0.058864198
0.056687528
0.054216418
0.051427732
0.048272869
0.044711181
0.040720648
0.036263323
0.03129266
0.02577913
0.019696957
0.013031968
0.0057846844
-0.0020449317
-0.010438654
-0.019359739
-0.028760299
-0.038591459
-0.048779029
-0.059238599
-0.069888159
-0.080628668
-0.091360115
-0.10199169
-0.11242562
-0.12260063
-0.13243982
-0.14186959
-0.15083882
-0.15933513
-0.16731515
-0.17476575
-0.18171199
-0.18818204
-0.1941348
-0.19965834
-0.20472578
-0.20941373
-0.21370284
-0.21769462
0.066114474
0.065335489
0.064525183
0.063600856
0.062569342
0.061398448
0.060089776
0.058595521
0.056922266
0.055034163
0.052891718
0.050464367
0.047729293
0.044641121
0.041161574
0.037268755
0.032926799
0.028092665
0.022738707
0.016841007
0.010386502
0.0033757404
-0.0041904982
-0.012294071
-0.020900094
-0.029962649
-0.039434341
-0.049243992
-0.059311218
-0.069556993
-0.079886345
-0.09020342
-0.10042043
-0.11044358
-0.12021208
-0.12965135
-0.13869066
-0.14728064
-0.15540754
-0.16303091
-0.17013858
-0.1767533
-0.18290108
-0.18854732
-0.19377246
-0.198555
-0.20296641
-0.20699038
-0.21072479
0.062287597
0.061521376
0.060720963
0.059808671
0.058790726
0.057636648
0.056346733
0.054876873
0.05323128
0.051376222
0.049274785
0.046897801
0.044222835
0.041207501
0.037815746
0.034025889
0.029804047
0.025110405
0.019919059
0.014207801
0.0079645582
0.0011898843
-0.0061148638
-0.013931678
-0.022227706
-0.030959058
-0.04007995
-0.049522482
-0.059210281
-0.069067488
-0.079003243
-0.088925843
-0.098750538
-0.10838729
-0.11777574
-0.12684331
-0.13552161
-0.14376251
-0.15155066
-0.15884798
-0.16564296
-0.17195621
-0.17781185
-0.18318155
-0.18813913
-0.19266841
-0.19683643
-0.20062968
-0.20414274
0.058572719
0.057823873
0.057038517
0.05614357
0.055144736
0.054013122
0.052747885
0.051308296
0.049696482
0.047880695
0.045826412
0.043505801
0.040896861
0.037959988
0.034661205
0.030979137
0.026881784
0.022332299
0.017306402
0.011783455
0.0057522641
-0.00078662885
-0.0078315052
-0.015364566
-0.023355121
-0.031761367
-0.040539318
-0.049624592
-0.058944865
-0.068427653
-0.077986321
-0.08753339
-0.096987229
-0.1062614
-0.11529597
-0.12401999
-0.13236691
-0.14028931
-0.14776988
-0.15477214
-0.1612846
-0.1673253
-0.17291597
-0.17803319
-0.18274399
-0.18703649
-0.19097316
-0.19454366
-0.19783848
0.054967129
0.054239677
0.053473928
0.052600996
0.051626161
0.050521997
0.049286676
0.047882561
0.046309969
0.044539008
0.042537382
0.040278547
0.037740982
0.034887668
0.031686583
0.028116719
0.02414787
0.019745924
0.014888114
0.0095552517
0.0037369253
-0.0025663589
-0.0093527028
-0.016604594
-0.024293625
-0.032380127
-0.04082211
-0.04955896
-0.05852247
-0.067643782
-0.076840662
-0.08603003
-0.095133533
-0.10406826
-0.11277469
-0.12118325
-0.12922872
-0.13686382
-0.14406899
-0.15080874
-0.15707129
-0.16287228
-0.16823166
-0.17313103
-0.17763221
-0.18172794
-0.18547734
-0.18887249
-0.19200106
0.051469964
0.050767109
0.050024703
0.049177664
0.048230942
0.047158463
0.045957557
0.044593415
0.043064788
0.041343526
0.039399417
0.037207158
0.034745751
0.031980588
0.02888148
0.02542784
0.021591166
0.017339866
0.012652592
0.0075114945
0.0019068665
-0.0041608376
-0.010689711
-0.017662576
-0.025053435
-0.032824773
-0.0409368
-0.049332933
-0.057949159
-0.066720554
-0.075569523
-0.084417689
-0.093190222
-0.10180774
-0.11021123
-0.1183322
-0.12610633
-0.13348594
-0.14044867
-0.14695905
-0.15300396
-0.15859562
-0.16375085
-0.16845402
-0.17276049
-0.17666582
-0.18022493
-0.18343305
-0.18637385
0.048079852
0.04740435
0.046688488
0.045870657
0.044955547
0.043918349
0.042755681
0.041435337
0.039954737
0.03828738
0.03640501
0.034283533
0.031902519
0.029229606
0.026236327
0.022902558
0.0192014
0.01510359
0.010589111
0.005641374
0.00025130894
-0.0055806928
-0.011852852
-0.018548361
-0.025643766
-0.033103698
-0.040890764
-0.048952673
-0.05722969
-0.065661148
-0.074174437
-0.082696291
-0.091155746
-0.099477081
-0.10760192
-0.11546281
-0.12299593
-0.13015272
-0.13690768
-0.14322471
-0.14908904
-0.15450993
-0.15950231
-0.16405437
-0.16821789
-0.17199251
-0.1754312
-0.17853065
-0.18137346
0.044797919
0.044151577
0.043464475
0.042678261
0.041797393
0.040798261
0.039676875
0.038403434
0.036974221
0.035364304
0.033547271
0.03150021
0.029203293
0.026626263
0.023742265
0.020531658
0.016969054
0.013027332
0.008687738
0.0039348792
-0.0012397185
-0.0068357252
-0.012851614
-0.01927094
-0.026072942
-0.033224332
-0.040690321
-0.048423175
-0.056367476
-0.06446722
-0.072655155
-0.080863691
-0.089026134
-0.097070657
-0.10493986
-0.11256739
-0.11988973
-0.12685693
-0.13343972
-0.13959991
-0.14531931
-0.15060196
-0.15545791
-0.15987491
-0.16389745
-0.16752572
-0.17080824
-0.17374506
-0.17641478
0.041622547
0.041007105
0.040350658
0.039598129
0.038753659
0.037794847
0.036717179
0.035493128
0.034118026
0.032568464
0.030819779
0.028850223
0.026640616
0.024162665
0.021391028
0.018306562
0.014885278
0.011102019
0.006939223
0.0023826649
-0.0025755549
-0.0079351691
-0.013694983
-0.019838885
-0.026348911
-0.033193673
-0.040341233
-0.047748644
-0.055364871
-0.063138965
-0.071009575
-0.078915433
-0.086794579
-0.094579494
-0.10221428
-0.10963404
-0.11677564
-0.12358746
-0.13003617
-0.13608096
-0.14170023
-0.14689399
-0.15167006
-0.15601914
-0.15998403
-0.16356909
-0.16682268
-0.16974473
-0.17241512
0.038556888
0.037972777
0.03734754
0.036629588
0.035822599
0.034905424
0.033873072
0.03270017
0.031381233
0.029894333
0.028216453
0.026326994
0.024207452
0.021831384
0.01917486
0.016219225
0.012941761
0.0093190843
0.005334772
0.00097577331
-0.0037652249
-0.008887999
-0.014391744
-0.020260601
-0.026479504
-0.033018709
-0.039849348
-0.046933398
-0.054224136
-0.061676181
-0.069234632
-0.076845357
-0.084451638
-0.091990933
-0.09940978
-0.10664548
-0.11363554
-0.12032637
-0.1266797
-0.13265011
-0.13820941
-0.14334909
-0.14806822
-0.15235187
-0.15623207
-0.15970994
-0.16282723
-0.16558878
-0.16806823
0.035597208
0.035045434
0.034452152
0.033769733
0.033001132
0.032126584
0.031140686
0.030020185
0.028758931
0.027336481
0.025731392
0.023924196
0.021897092
0.019625362
0.017086387
0.014261977
0.011130557
0.0076703422
0.0038660091
-0.00029424287
-0.0048170791
-0.0097022882
-0.014949426
-0.020542848
-0.026470647
-0.032704508
-0.03921887
-0.045980443
-0.052946672
-0.06007814
-0.067326896
-0.074646696
-0.081986554
-0.08928995
-0.096507263
-0.10357938
-0.11044527
-0.11704975
-0.12334976
-0.12929521
-0.1348523
-0.14000708
-0.14475591
-0.14908681
-0.15303276
-0.15660044
-0.15983374
-0.16273487
-0.16538087
0.032750364
0.032229528
0.031666834
0.031019006
0.030288124
0.029455894
0.028516544
0.027448881
0.026246193
0.024889499
0.023358817
0.021635739
0.01970314
0.017537903
0.015118637
0.012427639
0.0094443894
0.006148496
0.0025256743
-0.0014345066
-0.0057379667
-0.010384465
-0.015373871
-0.020690746
-0.026326484
-0.032253765
-0.038450824
-0.044888835
-0.051529248
-0.058339183
-0.065277988
-0.072307864
-0.079383967
-0.086457158
-0.093483364
-0.10040871
-0.10717467
-0.11372497
-0.12001128
-0.12597644
-0.13157589
-0.1367813
-0.14157221
-0.14592135
-0.1498418
-0.15332939
-0.15641564
-0.1591116
-0.16148196
0.030007777
0.029518116
0.028985912
0.028372522
0.027679061
0.026888859
0.025995973
0.024981315
0.023837802
0.0225479
0.021092993
0.019455665
0.017619447
0.015562725
0.013265271
0.010709869
0.0078768708
0.0047469422
0.0013066948
-0.0024526979
-0.0065363015
-0.010943919
-0.015675679
-0.020716236
-0.026059574
-0.031678029
-0.03755443
-0.043664173
-0.049972622
-0.056454385
-0.063076932
-0.069811214
-0.076619211
-0.083461494
-0.090301693
-0.097093206
-0.10378138
-0.11031019
-0.11662746
-0.122671
-0.1283898
-0.13374961
-0.13872792
-0.14330213
-0.14749084
-0.15129848
-0.15476277
-0.15788586
-0.16074134
0.027383859
0.026920679
0.026414968
0.025832392
0.025173449
0.024423034
0.023575139
0.022612607
0.021528102
0.020305491
0.018927479
0.017377563
0.01563979
0.013693737
0.01152004
0.0091018103
0.0064200793
0.0034563419
0.00019818185
-0.0033612082
-0.0072259399
-0.011395908
-0.015871309
-0.020636701
-0.025688399
-0.030997705
-0.036552299
-0.042330002
-0.048299569
-0.05444405
-0.060737893
-0.067161764
-0.073685255
-0.080282091
-0.086926725
-0.093583207
-0.10020344
-0.10673412
-0.11311972
-0.11928965
-0.1251766
-0.13072175
-0.1358707
-0.14056624
-0.14478683
-0.14850857
-0.15174216
-0.15450393
-0.15684252
0.024858098
0.024421036
0.023941475
0.023388732
0.022762956
0.022050647
0.021246249
0.020334818
0.01930929
0.01815499
0.016855771
0.015395637
0.01375865
0.011925066
0.0098761315
0.0075954999
0.0050653749
0.0022683991
-0.0008067825
-0.0041645239