/*--------------------------------*- C++ -*----------------------------------*\
| =========                 |                                                 |
| \\      /  F ield         | OpenFOAM: The Open Source CFD Toolbox           |
|  \\    /   O peration     | Version:  v2006                                 |
|   \\  /    A nd           | Website:  www.openfoam.com                      |
|    \\/     M anipulation  |                                                 |
\*---------------------------------------------------------------------------*/
FoamFile
{
    version     2.0;
    format      ascii;
    class       volScalarField;
    location    "4500";
    object      nutMean;
}
// * * * * * * * * * * * * * * * * * * * * * * * * * * * * * * * * * * * * * //

dimensions      [0 2 -1 0 0 0 0];


internalField   nonuniform List<scalar> 
19765
(
9.8814551e-06
9.8685849e-06
9.5625743e-06
9.6017488e-06
9.5865002e-06
9.7313831e-06
9.6349823e-06
9.7985352e-06
9.7560416e-06
9.5565011e-06
9.6497693e-06
1.0018134e-05
1.0230459e-05
1.0414377e-05
1.0809976e-05
1.0974253e-05
1.0919563e-05
1.1068159e-05
1.1476723e-05
1.183245e-05
1.2069626e-05
1.2185411e-05
1.2395013e-05
1.2522758e-05
1.2606487e-05
1.2656626e-05
1.2679831e-05
1.2616272e-05
1.2634216e-05
1.2517408e-05
1.2289997e-05
1.2000314e-05
1.2031533e-05
1.2177022e-05
1.2038018e-05
1.1704381e-05
1.1689004e-05
1.1628846e-05
1.1356235e-05
1.1444655e-05
1.1815598e-05
1.1970011e-05
1.1928473e-05
1.2239323e-05
1.2133431e-05
1.2366365e-05
1.2374202e-05
1.2347484e-05
1.222081e-05
5.5240722e-05
5.7986118e-05
6.0157161e-05
6.1847608e-05
6.3921162e-05
6.6043045e-05
6.8177183e-05
7.0300685e-05
7.2500189e-05
7.4398909e-05
7.66478e-05
7.9106456e-05
8.1208365e-05
8.307681e-05
8.500778e-05
8.6195238e-05
8.6495046e-05
8.708569e-05
8.8284201e-05
8.9696033e-05
9.1014061e-05
9.1860749e-05
9.2580319e-05
9.3545458e-05
9.4486725e-05
9.4903567e-05
9.5056277e-05
9.5310825e-05
9.549477e-05
9.5485321e-05
9.5365877e-05
9.5181095e-05
9.5149638e-05
9.4969972e-05
9.4298443e-05
9.33425e-05
9.2500614e-05
9.1367787e-05
8.9950495e-05
8.8895687e-05
8.7962843e-05
8.593804e-05
8.3791769e-05
8.0300623e-05
7.7720179e-05
7.1820815e-05
6.5198798e-05
5.8548459e-05
5.358553e-05
1.676852e-05
1.6012942e-05
1.546707e-05
1.566731e-05
1.5737562e-05
1.5802295e-05
1.5681882e-05
1.5796683e-05
1.5642622e-05
1.5743253e-05
1.594226e-05
1.5933767e-05
1.5721469e-05
1.5517533e-05
1.5195698e-05
1.4722309e-05
1.4355036e-05
1.4116345e-05
1.3925302e-05
1.3755163e-05
1.3659406e-05
1.3669576e-05
1.3659054e-05
1.3687545e-05
1.3948519e-05
1.4454434e-05
1.4921613e-05
1.5402679e-05
1.6103965e-05
1.6856693e-05
1.7586881e-05
1.8263914e-05
1.8870396e-05
1.9823698e-05
2.1015048e-05
2.2006328e-05
2.2776687e-05
2.379258e-05
2.4569031e-05
2.4961301e-05
2.5640403e-05
2.6829439e-05
2.7435559e-05
2.8565114e-05
2.9315908e-05
3.1361736e-05
3.4046233e-05
3.724157e-05
3.9454552e-05
6.7584013e-07
5.9821183e-07
5.5194279e-07
5.4206703e-07
5.3044935e-07
5.2007399e-07
5.050996e-07
4.9847856e-07
4.8469608e-07
4.7767939e-07
4.7326109e-07
4.6349184e-07
4.4890977e-07
4.3581426e-07
4.2163117e-07
4.0548007e-07
3.9348928e-07
3.8571911e-07
3.7902161e-07
3.7241355e-07
3.6890183e-07
3.6989612e-07
3.700089e-07
3.7141051e-07
3.7884944e-07
3.9319568e-07
4.0822673e-07
4.251846e-07
4.4907766e-07
4.7654383e-07
5.0616046e-07
5.3702345e-07
5.6881324e-07
6.1394009e-07
6.7135926e-07
7.2862778e-07
7.8506461e-07
8.5639902e-07
9.241607e-07
9.8279198e-07
1.0621561e-06
1.1753004e-06
1.2756904e-06
1.4318444e-06
1.5838206e-06
1.8030635e-06
2.0698187e-06
2.4083287e-06
2.8071912e-06
1.6361219e-07
1.6292181e-07
1.630449e-07
1.6484656e-07
1.6642794e-07
1.6792833e-07
1.6888696e-07
1.7035991e-07
1.7106752e-07
1.7227396e-07
1.7378434e-07
1.7479707e-07
1.7530452e-07
1.7592862e-07
1.7631923e-07
1.7630597e-07
1.7663793e-07
1.7741201e-07
1.7807805e-07
1.7863874e-07
1.7952816e-07
1.8073869e-07
1.8189652e-07
1.832837e-07
1.8532728e-07
1.8820419e-07
1.9119002e-07
1.9432396e-07
1.98142e-07
2.0219572e-07
2.062638e-07
2.1022472e-07
2.1392947e-07
2.1854185e-07
2.2379572e-07
2.2844673e-07
2.3242627e-07
2.3698815e-07
2.4073321e-07
2.4340069e-07
2.4696029e-07
2.5163532e-07
2.5497522e-07
2.6019189e-07
2.6450883e-07
2.7034887e-07
2.7607998e-07
2.8049468e-07
2.8457462e-07
1.4106423e-07
1.4113229e-07
1.4155305e-07
1.4265568e-07
1.4349595e-07
1.4434307e-07
1.449843e-07
1.4583218e-07
1.4634045e-07
1.4715379e-07
1.4793243e-07
1.4843438e-07
1.487737e-07
1.4915971e-07
1.4941994e-07
1.4960988e-07
1.5003966e-07
1.5065153e-07
1.5121535e-07
1.5178365e-07
1.5248325e-07
1.5328172e-07
1.542578e-07
1.5544686e-07
1.5696187e-07
1.589432e-07
1.6108268e-07
1.633133e-07
1.6589337e-07
1.6868706e-07
1.7156612e-07
1.7448682e-07
1.7725962e-07
1.8032294e-07
1.8376815e-07
1.8717738e-07
1.9020284e-07
1.9337342e-07
1.9638338e-07
1.9882472e-07
2.0120109e-07
2.0432877e-07
2.0682964e-07
2.1014078e-07
2.1317519e-07
2.1682723e-07
2.2077616e-07
2.2504869e-07
2.2884369e-07
1.2388179e-07
1.2378799e-07
1.2389195e-07
1.2439752e-07
1.2477439e-07
1.2516662e-07
1.254609e-07
1.2588689e-07
1.2614088e-07
1.2657818e-07
1.2701985e-07
1.2731826e-07
1.2753442e-07
1.2778733e-07
1.2797841e-07
1.281343e-07
1.284405e-07
1.288759e-07
1.2930717e-07
1.2976062e-07
1.3029645e-07
1.3089474e-07
1.3159758e-07
1.3245148e-07
1.3352303e-07
1.3487885e-07
1.3633533e-07
1.3787373e-07
1.3964522e-07
1.415617e-07
1.4355163e-07
1.455831e-07
1.4755413e-07
1.4972211e-07
1.52128e-07
1.54517e-07
1.5670206e-07
1.5898462e-07
1.6117902e-07
1.6305225e-07
1.6491461e-07
1.6718821e-07
1.6911084e-07
1.7146531e-07
1.7364665e-07
1.7613064e-07
1.7871927e-07
1.8142933e-07
1.838828e-07
1.1488307e-07
1.1481288e-07
1.1486271e-07
1.1515569e-07
1.1537124e-07
1.1559593e-07
1.1576271e-07
1.1600594e-07
1.1615077e-07
1.1640327e-07
1.1665987e-07
1.1683963e-07
1.169794e-07
1.1714715e-07
1.1728916e-07
1.1742364e-07
1.1765518e-07
1.1797142e-07
1.183003e-07
1.1866099e-07
1.1908713e-07
1.1956555e-07
1.2013483e-07
1.2081708e-07
1.2164574e-07
1.2266201e-07
1.2376071e-07
1.2493193e-07
1.2626622e-07
1.2771227e-07
1.2922667e-07
1.307893e-07
1.3233657e-07
1.3402179e-07
1.3587381e-07
1.3773938e-07
1.394976e-07
1.413285e-07
1.4312235e-07
1.4472964e-07
1.4633234e-07
1.4820944e-07
1.498846e-07
1.5185371e-07
1.537452e-07
1.5586724e-07
1.5810922e-07
1.6049523e-07
1.6276538e-07
1.0850053e-07
1.0842421e-07
1.0842322e-07
1.0857822e-07
1.086886e-07
1.0880808e-07
1.0889548e-07
1.0903326e-07
1.0911467e-07
1.092655e-07
1.0942297e-07
1.0953876e-07
1.0963583e-07
1.0975544e-07
1.0986572e-07
1.0997878e-07
1.1015848e-07
1.1039781e-07
1.1065403e-07
1.1093952e-07
1.112731e-07
1.1164517e-07
1.1208005e-07
1.1259791e-07
1.1322125e-07
1.1397339e-07
1.1478916e-07
1.156645e-07
1.1665609e-07
1.1773169e-07
1.1886498e-07
1.2004276e-07
1.2122539e-07
1.2250772e-07
1.239065e-07
1.2532387e-07
1.2668401e-07
1.2809818e-07
1.2949559e-07
1.3077944e-07
1.3206578e-07
1.3352505e-07
1.3485674e-07
1.3637021e-07
1.3782891e-07
1.3942436e-07
1.4108203e-07
1.4281231e-07
1.4444534e-07
1.0432876e-07
1.0427214e-07
1.0426245e-07
1.0435404e-07
1.0441663e-07
1.0448555e-07
1.0453472e-07
1.0461691e-07
1.0466504e-07
1.0475899e-07
1.0485921e-07
1.0493641e-07
1.0500571e-07
1.0509306e-07
1.0517922e-07
1.0527279e-07
1.0541386e-07
1.0559826e-07
1.0580025e-07
1.0602843e-07
1.0629514e-07
1.0659463e-07
1.0694191e-07
1.0735125e-07
1.0783874e-07
1.084187e-07
1.0904966e-07
1.0973009e-07
1.1049765e-07
1.1133201e-07
1.1221626e-07
1.1314163e-07
1.1408185e-07
1.1509868e-07
1.1620412e-07
1.1733379e-07
1.1843578e-07
1.1958253e-07
1.2072739e-07
1.2180333e-07
1.2288501e-07
1.2409079e-07
1.2521697e-07
1.2647408e-07
1.2770352e-07
1.2903811e-07
1.3043073e-07
1.3189623e-07
1.3330608e-07
1.0136964e-07
1.0132594e-07
1.0131286e-07
1.0136826e-07
1.0140499e-07
1.0144671e-07
1.0147638e-07
1.0152881e-07
1.0156041e-07
1.0162358e-07
1.0169266e-07
1.0174919e-07
1.0180337e-07
1.0187214e-07
1.0194338e-07
1.020232e-07
1.0213771e-07
1.0228437e-07
1.0244705e-07
1.0263162e-07
1.0284623e-07
1.0308732e-07
1.0336406e-07
1.0368699e-07
1.040688e-07
1.0451844e-07
1.0500855e-07
1.0553899e-07
1.0613533e-07
1.0678426e-07
1.0747471e-07
1.0820071e-07
1.0894475e-07
1.0974795e-07
1.1061847e-07
1.1151252e-07
1.1239462e-07
1.133126e-07
1.1423428e-07
1.1511265e-07
1.1599783e-07
1.1696842e-07
1.1788588e-07
1.1889127e-07
1.1987647e-07
1.2093028e-07
1.2201956e-07
1.2315323e-07
1.242393e-07
9.925705e-08
9.9228221e-08
9.9219014e-08
9.925657e-08
9.9281415e-08
9.9309979e-08
9.9330922e-08
9.9367801e-08
9.9391696e-08
9.9437866e-08
9.9489274e-08
9.9534108e-08
9.9579445e-08
9.9636596e-08
9.9697799e-08
9.9767496e-08
9.9863042e-08
9.9982868e-08
1.0011666e-07
1.0026852e-07
1.0044404e-07
1.0064128e-07
1.008659e-07
1.0112521e-07
1.0142939e-07
1.0178439e-07
1.0217173e-07
1.0259201e-07
1.0306322e-07
1.0357644e-07
1.0412419e-07
1.0470264e-07
1.0530001e-07
1.0594479e-07
1.06643e-07
1.0736423e-07
1.080831e-07
1.0883223e-07
1.0958903e-07
1.1031937e-07
1.1105716e-07
1.1185863e-07
1.1262526e-07
1.1345694e-07
1.1427733e-07
1.1515015e-07
1.1605263e-07
1.1699419e-07
1.1790247e-07
9.7708818e-08
9.7691456e-08
9.768699e-08
9.7715287e-08
9.7734938e-08
9.7757533e-08
9.7775378e-08
9.7804756e-08
9.7826071e-08
9.7863556e-08
9.7905689e-08
9.7944739e-08
9.7985692e-08
9.803626e-08
9.8091343e-08
9.8154166e-08
9.8236496e-08
9.8337329e-08
9.844991e-08
9.8577101e-08
9.8722767e-08
9.8885879e-08
9.9069953e-08
9.9280059e-08
9.9524434e-08
9.98071e-08
1.0011543e-07
1.0045047e-07
1.0082487e-07
1.0123236e-07
1.0166804e-07
1.0212982e-07
1.0260995e-07
1.0312836e-07
1.0368928e-07
1.0427101e-07
1.0485514e-07
1.054641e-07
1.0608165e-07
1.0668268e-07
1.0729072e-07
1.0794516e-07
1.0857555e-07
1.0925205e-07
1.0992007e-07
1.1062429e-07
1.1134805e-07
1.1209799e-07
1.1281908e-07
9.6555762e-08
9.6548676e-08
9.6549918e-08
9.657436e-08
9.6592804e-08
9.6613624e-08
9.663153e-08
9.6657984e-08
9.6679518e-08
9.6713058e-08
9.6750706e-08
9.678735e-08
9.6826537e-08
9.6873597e-08
9.6925117e-08
9.698343e-08
9.7056599e-08
9.714395e-08
9.7240964e-08
9.7349637e-08
9.7472654e-08
9.760948e-08
9.7762318e-08
9.7934686e-08
9.8133176e-08
9.8360599e-08
9.8608286e-08
9.8877522e-08
9.9177014e-08
9.950234e-08
9.9850903e-08
1.0022215e-07
1.006108e-07
1.0103074e-07
1.014848e-07
1.0195723e-07
1.0243447e-07
1.0293239e-07
1.0343924e-07
1.0393632e-07
1.044401e-07
1.0497934e-07
1.0550234e-07
1.0606005e-07
1.0661256e-07
1.0719251e-07
1.0778778e-07
1.0840444e-07
1.089981e-07
9.5685833e-08
9.568697e-08
9.569354e-08
9.5716856e-08
9.5736064e-08
9.5757303e-08
9.5776896e-08
9.5803032e-08
9.5826336e-08
9.5858784e-08
9.589491e-08
9.593129e-08
9.5970453e-08
9.601611e-08
9.6065928e-08
9.6121563e-08
9.6188561e-08
9.6266435e-08
9.6352086e-08
9.6446871e-08
9.6552634e-08
9.666907e-08
9.6797542e-08
9.6940488e-08
9.7103145e-08
9.7287522e-08
9.7487685e-08
9.7704969e-08
9.794483e-08
9.8204769e-08
9.8484503e-08
9.8784186e-08
9.9099482e-08
9.9439696e-08
9.9806763e-08
1.0018934e-07
1.0057759e-07
1.0098295e-07
1.0139686e-07
1.0180526e-07
1.0221981e-07
1.0266134e-07
1.0309161e-07
1.0354747e-07
1.0399943e-07
1.0447104e-07
1.0495306e-07
1.0545017e-07
1.0592712e-07
9.5021116e-08
9.5029294e-08
9.5040968e-08
9.5064881e-08
9.5086032e-08
9.5108995e-08
9.5131204e-08
9.5158578e-08
9.518454e-08
9.5217641e-08
9.5254078e-08
9.5291542e-08
9.5331826e-08
9.5377512e-08
9.5426969e-08
9.5481329e-08
9.5544385e-08
9.5615743e-08
9.5693217e-08
9.5777673e-08
9.5870342e-08
9.5971006e-08
9.6080465e-08
9.6200401e-08
9.6334931e-08
9.6485527e-08
9.6648177e-08
9.682404e-08
9.7015837e-08
9.7224002e-08
9.7449936e-08
9.769286e-08
9.7948404e-08
9.8223111e-08
9.8518878e-08
9.8827843e-08
9.9142923e-08
9.9472518e-08
9.9810321e-08
1.0014563e-07
1.004867e-07
1.0084889e-07
1.0120352e-07
1.015777e-07
1.0194937e-07
1.0233589e-07
1.0273023e-07
1.0313643e-07
1.0352561e-07
9.4509162e-08
9.4523174e-08
9.4539459e-08
9.4564861e-08
9.4588516e-08
9.4613879e-08
9.4639151e-08
9.4668662e-08
9.4697763e-08
9.4732597e-08
9.4770516e-08
9.4809949e-08
9.4852145e-08
9.4898883e-08
9.4948985e-08
9.500317e-08
9.5063981e-08
9.5131059e-08
9.5202799e-08
9.5279684e-08
9.5362476e-08
9.545096e-08
9.5545542e-08
9.5647363e-08
9.5759621e-08
9.5883416e-08
9.6016093e-08
9.6158347e-08
9.6310871e-08
9.6478553e-08
9.6662108e-08
9.6858138e-08
9.7063085e-08
9.7282743e-08
9.7519344e-08
9.7767446e-08
9.8021844e-08
9.8288636e-08
9.8563073e-08
9.8836922e-08
9.9116035e-08
9.9411669e-08
9.9702202e-08
1.0000755e-07
1.0031107e-07
1.0062546e-07
1.0094524e-07
1.0127362e-07
1.0158712e-07
9.4111618e-08
9.4130675e-08
9.4151227e-08
9.4178693e-08
9.4205196e-08
9.4233374e-08
9.4261975e-08
9.4294191e-08
9.432673e-08
9.4364011e-08
9.4404198e-08
9.4446217e-08
9.4490907e-08
9.4539459e-08
9.4590989e-08
9.4645886e-08
9.4705775e-08
9.4770299e-08
9.4838215e-08
9.4909698e-08
9.498514e-08
9.506428e-08
9.5147234e-08
9.5234762e-08
9.5329294e-08
9.543167e-08
9.5540173e-08
9.5654963e-08
9.5775342e-08
9.5912043e-08
9.6060841e-08
9.6216164e-08
9.6378037e-08
9.6552086e-08
9.6740221e-08
9.6938441e-08
9.7142816e-08
9.7357759e-08
9.7579681e-08
9.7802234e-08
9.8029562e-08
9.8270014e-08
9.8507181e-08
9.875583e-08
9.9003332e-08
9.9259082e-08
9.9518787e-08
9.9785168e-08
1.0003878e-07
9.3801613e-08
9.3825037e-08
9.3849502e-08
9.3879343e-08
9.3908852e-08
9.3940068e-08
9.3972129e-08
9.4007403e-08
9.4043561e-08
9.4083773e-08
9.4126779e-08
9.4171836e-08
9.4219468e-08
9.4270429e-08
9.432402e-08
9.4380356e-08
9.4440382e-08
9.4503709e-08
9.4569318e-08
9.4637125e-08
9.4707225e-08
9.4779273e-08
9.4853171e-08
9.4929402e-08
9.5009756e-08
9.5094881e-08
9.5183677e-08
9.5275849e-08
9.5371487e-08
9.5483505e-08
9.5600669e-08
9.5720256e-08
9.584693e-08
9.5983736e-08
9.6131975e-08
9.6288858e-08
9.6451459e-08
9.6622969e-08
9.6800679e-08
9.6979713e-08
9.716303e-08
9.7356828e-08
9.7548629e-08
9.774938e-08
9.7949441e-08
9.8155727e-08
9.8364822e-08
9.8578934e-08
9.8781991e-08
9.3559037e-08
9.3586367e-08
9.3614502e-08
9.3646937e-08
9.3679563e-08
9.3713975e-08
9.3749591e-08
9.378818e-08
9.3828101e-08
9.3871605e-08
9.3917847e-08
9.3966304e-08
9.4017253e-08
9.4071113e-08
9.4127299e-08
9.4185693e-08
9.424672e-08
9.4309944e-08
9.437447e-08
9.4439996e-08
9.4506367e-08
9.4573134e-08
9.4640031e-08
9.4707337e-08
9.4776313e-08
9.4847456e-08
9.491996e-08
9.4993307e-08
9.5072086e-08
9.5160063e-08
9.524674e-08
9.5338724e-08
9.5437692e-08
9.5543245e-08
9.5658153e-08
9.5780464e-08
9.5907824e-08
9.6042555e-08
9.6182705e-08
9.6324607e-08
9.6470411e-08
9.6624758e-08
9.6778127e-08
9.6938669e-08
9.7098987e-08
9.7264194e-08
9.7431543e-08
9.7602887e-08
9.7764806e-08
9.3369289e-08
9.3400168e-08
9.3431773e-08
9.3466942e-08
9.3502755e-08
9.3540474e-08
9.357972e-08
9.3621817e-08
9.3665624e-08
9.371271e-08
9.3762524e-08
9.3814691e-08
9.3869284e-08
9.3926467e-08
9.3985711e-08
9.4046702e-08
9.4109457e-08
9.4173478e-08
9.4237928e-08
9.4302312e-08
9.4366264e-08
9.4429222e-08
9.4490777e-08
9.4551049e-08
9.4610876e-08
9.4670611e-08
9.4729841e-08
9.4790169e-08
9.4866607e-08
9.4931425e-08
9.4983782e-08
9.5051152e-08
9.5124168e-08
9.5203755e-08
9.5291059e-08
9.5383956e-08
9.5480926e-08
9.5583974e-08
9.5691843e-08
9.5801818e-08
9.5915448e-08
9.6036181e-08
9.6156741e-08
9.6283168e-08
9.6409763e-08
9.6540276e-08
9.6672474e-08
9.6807872e-08
9.6935278e-08
9.3221283e-08
9.3255478e-08
9.329043e-08
9.3328455e-08
9.3367529e-08
9.340866e-08
9.345162e-08
9.3497402e-08
9.3545226e-08
9.3596148e-08
9.364983e-08
9.3705987e-08
9.3764533e-08
9.3825419e-08
9.3888141e-08
9.3952211e-08
9.4017319e-08
9.4082894e-08
9.4148109e-08
9.4212298e-08
9.4274911e-08
9.4335264e-08
9.4392828e-08
9.4447588e-08
9.450005e-08
9.4550435e-08
9.4598653e-08
9.4645209e-08
9.4689484e-08
9.4734871e-08
9.478888e-08
9.4838098e-08
9.4890658e-08
9.4947631e-08
9.5009767e-08
9.5076447e-08
9.5146901e-08
9.5222684e-08
9.5302901e-08
9.5385496e-08
9.5471556e-08
9.5563627e-08
9.5656163e-08
9.5753634e-08
9.5851645e-08
9.5952939e-08
9.6055693e-08
9.6161164e-08
9.6259974e-08
9.3106757e-08
9.3144109e-08
9.3182332e-08
9.3223322e-08
9.3265736e-08
9.3310385e-08
9.3357155e-08
9.340679e-08
9.3458772e-08
9.3513769e-08
9.3571592e-08
9.3632013e-08
9.3694805e-08
9.3759751e-08
9.382634e-08
9.389393e-08
9.3961941e-08
9.402972e-08
9.4096419e-08
9.4161211e-08
9.4223383e-08
9.4282129e-08
9.433681e-08
9.4387294e-08
9.4433827e-08
9.4476508e-08
9.4515417e-08
9.4551187e-08
9.4586854e-08
9.4604618e-08
9.4645795e-08
9.4682545e-08
9.4717741e-08
9.4754844e-08
9.4795702e-08
9.4840294e-08
9.48882e-08
9.4940636e-08
9.4997045e-08
9.5055945e-08
9.511813e-08
9.5185491e-08
9.5253832e-08
9.5326444e-08
9.5399943e-08
9.5476312e-08
9.555405e-08
9.5634182e-08
9.5708854e-08
9.3019384e-08
9.3059808e-08
9.310128e-08
9.3145351e-08
9.31912e-08
9.3239488e-08
9.3290188e-08
9.3343849e-08
9.340015e-08
9.3459458e-08
9.352169e-08
9.3586645e-08
9.3653978e-08
9.3723324e-08
9.3794152e-08
9.3865675e-08
9.3937084e-08
9.4007638e-08
9.4076443e-08
9.4142522e-08
9.420501e-08
9.4262984e-08
9.4315697e-08
9.4362917e-08
9.4404682e-08
9.4440978e-08
9.447203e-08
9.4498601e-08
9.4521075e-08
9.4543888e-08
9.4562167e-08
9.4579152e-08
9.4596673e-08
9.4616171e-08
9.4638554e-08
9.4663856e-08
9.4691954e-08
9.4723886e-08
9.4759408e-08
9.4797518e-08
9.4838805e-08
9.4884672e-08
9.4931973e-08
9.4983111e-08
9.5035483e-08
9.5090503e-08
9.5146928e-08
9.5205593e-08
9.525991e-08
9.2954371e-08
9.2997838e-08
9.3042575e-08
9.308985e-08
9.3139248e-08
9.3191312e-08
9.324608e-08
9.3303954e-08
9.3364755e-08
9.3428615e-08
9.3495524e-08
9.3565289e-08
9.3637459e-08
9.3711542e-08
9.3786966e-08
9.3862814e-08
9.3938077e-08
9.4011919e-08
9.4083378e-08
9.4151338e-08
9.4214792e-08
9.4272698e-08
9.4324207e-08
9.4368998e-08
9.4406941e-08
9.4437915e-08
9.4462262e-08
9.4480675e-08
9.4494238e-08
9.4503225e-08
9.4509512e-08
9.4514206e-08
9.451812e-08
9.4522516e-08
9.4528534e-08
9.4536662e-08
9.4547144e-08
9.4560919e-08
9.4577991e-08
9.4597738e-08
9.4620606e-08
9.4647632e-08
9.4676492e-08
9.4708918e-08
9.4742917e-08
9.4779473e-08
9.4817548e-08
9.4857809e-08
9.4894742e-08
9.2908044e-08
9.2954569e-08
9.3002628e-08
9.3053245e-08
9.3106326e-08
9.3162323e-08
9.3221322e-08
9.328361e-08
9.3349114e-08
9.3417778e-08
9.3489639e-08
9.3564499e-08
9.3641809e-08
9.3720964e-08
9.3801339e-08
9.3881891e-08
9.3961433e-08
9.4039029e-08
9.4113637e-08
9.4184003e-08
9.4248984e-08
9.4307423e-08
9.4358372e-08
9.4401427e-08
9.4436319e-08
9.4462832e-08
9.4481393e-08
9.4492734e-08
9.4497683e-08
9.4497387e-08
9.4492942e-08
9.4485549e-08
9.4476404e-08
9.4466833e-08
9.4458042e-08
9.4450763e-08
9.4445475e-08
9.4443036e-08
9.4443653e-08
9.4447019e-08
9.445349e-08
9.4463832e-08
9.4476374e-08
9.4492341e-08
9.4510221e-08
9.4530673e-08
9.4552828e-08
9.4577208e-08
9.4599204e-08
9.2877612e-08
9.2927251e-08
9.2978717e-08
9.3032831e-08
9.3089751e-08
9.3149857e-08
9.3213271e-08
9.3280193e-08
9.3350623e-08
9.3424356e-08
9.3501456e-08
9.3581705e-08
9.3664469e-08
9.3749032e-08
9.3834711e-08
9.3920339e-08
9.4004565e-08
9.4086349e-08
9.4164557e-08
9.42378e-08
9.4304803e-08
9.4364295e-08
9.441523e-08
9.4457126e-08
9.4489601e-08
9.451235e-08
9.452587e-08
9.4530906e-08
9.4528301e-08
9.4519156e-08
9.4504774e-08
9.4486496e-08
9.4465639e-08
9.4443494e-08
9.4421324e-08
9.4400095e-08
9.4380509e-08
9.4363396e-08
9.4349148e-08
9.4337722e-08
9.4329424e-08
9.4324824e-08
9.4322768e-08
9.43241e-08
9.4327684e-08
9.4333937e-08
9.4342124e-08
9.4352641e-08
9.4361652e-08
9.2860962e-08
9.2913802e-08
9.2968793e-08
9.3026572e-08
9.3087507e-08
9.3151918e-08
9.3219957e-08
9.3291749e-08
9.3367351e-08
9.3446433e-08
9.3529071e-08
9.361502e-08
9.370356e-08
9.3793876e-08
9.3885212e-08
9.3976284e-08
9.4065586e-08
9.4151968e-08
9.4234194e-08
9.4310741e-08
9.4380207e-08
9.4441206e-08
9.4492597e-08
9.4533821e-08
9.4564399e-08
9.4583951e-08
9.4593025e-08
9.4592397e-08
9.4582892e-08
9.4565717e-08
9.4542265e-08
9.4513962e-08
9.4482261e-08
9.444848e-08
9.4413966e-08
9.437989e-08
9.4347154e-08
9.4316588e-08
9.4288743e-08
9.4263802e-08
9.4242045e-08
9.4223906e-08
9.4208643e-08
9.4196812e-08
9.418758e-08
9.4181176e-08
9.4176978e-08
9.4175272e-08
9.417288e-08
9.2856522e-08
9.2912678e-08
9.2971335e-08
9.3032969e-08
9.3098116e-08
9.3167049e-08
9.3239942e-08
9.3316861e-08
9.3397901e-08
9.3482629e-08
9.3571119e-08
9.3663092e-08
9.3757744e-08
9.3854163e-08
9.3951517e-08
9.40484e-08
9.414316e-08
9.4234532e-08
9.4321169e-08
9.4401416e-08
9.4473743e-08
9.4536651e-08
9.4588903e-08
9.4629867e-08
9.4658981e-08
9.4675793e-08
9.46809e-08
9.4675108e-08
9.465925e-08
9.4634617e-08
9.4602696e-08
9.4565018e-08
9.4523168e-08
9.4478507e-08
9.4432475e-08
9.4386427e-08
9.4341448e-08
9.4298388e-08
9.4257947e-08
9.42205e-08
9.4186328e-08
9.4155766e-08
9.4128407e-08
9.4104592e-08
9.4083727e-08
9.4065902e-08
9.4050587e-08
9.4037966e-08
9.4025436e-08
9.2863149e-08
9.2922764e-08
9.2985254e-08
9.3050948e-08
9.3120523e-08
9.3194214e-08
9.3272213e-08
9.3354536e-08
9.3441303e-08
9.3531991e-08
9.3626663e-08
9.3725e-08
9.3826115e-08
9.3928999e-08
9.4032736e-08
9.41358e-08
9.4236396e-08
9.4333137e-08
9.4424561e-08
9.4508878e-08
9.4584431e-08
9.4649607e-08
9.4703075e-08
9.4744131e-08
9.4772138e-08
9.4786582e-08
9.4788102e-08
9.4777538e-08
9.4755746e-08
9.4724097e-08
9.4684178e-08
9.4637621e-08
9.4586141e-08
9.4531166e-08
9.4474234e-08
9.4416875e-08
9.4360339e-08
9.4305522e-08
9.4253257e-08
9.4204089e-08
9.4158315e-08
9.4116206e-08
9.4077628e-08
9.4042759e-08
9.4011201e-08
9.3982936e-08
9.3957512e-08
9.3935024e-08
9.3913364e-08
9.2880059e-08
9.2943296e-08
9.3009808e-08
9.3079786e-08
9.3154028e-08
9.3232735e-08
9.3316114e-08
9.3404137e-08
9.349694e-08
9.3593921e-08
9.3695124e-08
9.3800181e-08
9.3908124e-08
9.4017847e-08
9.4128342e-08
9.4237961e-08
9.4344768e-08
9.444725e-08
9.4543822e-08
9.4632559e-08
9.4711676e-08
9.4779445e-08
9.4834444e-08
9.4875893e-08
9.490309e-08
9.4915468e-08
9.4913702e-08
9.4898669e-08
9.4871257e-08
9.4832921e-08
9.4785346e-08
9.4730269e-08
9.4669535e-08
9.4604655e-08
9.4537275e-08
9.4469091e-08
9.4401509e-08
9.4335484e-08
9.4271977e-08
9.4211684e-08
9.4154928e-08
9.4101946e-08
9.4052825e-08
9.4007627e-08
9.3966109e-08
9.3928174e-08
9.3893435e-08
9.3861903e-08
9.3831908e-08
9.2906765e-08
9.2973808e-08
9.3044554e-08
9.3119058e-08
9.3198224e-08
9.3282225e-08
9.337128e-08
9.3465321e-08
9.3564492e-08
9.3668119e-08
9.3776219e-08
9.3888371e-08
9.4003524e-08
9.4120472e-08
9.4238109e-08
9.4354664e-08
9.4468059e-08
9.457665e-08
9.4678722e-08
9.4772213e-08
9.485521e-08
9.4925871e-08
9.4982679e-08
9.5024782e-08
9.5051418e-08
9.5061973e-08
9.5057155e-08
9.5037881e-08
9.5005081e-08
9.4960293e-08
9.4905299e-08
9.4841948e-08
9.4772216e-08
9.469771e-08
9.4620194e-08
9.4541523e-08
9.4463254e-08
9.4386414e-08
9.4312085e-08
9.4241098e-08
9.4173818e-08
9.4110463e-08
9.4051307e-08
9.3996326e-08
9.3945405e-08
9.3898389e-08
9.3854943e-08
9.3815006e-08
9.3777292e-08
9.2943033e-08
9.3014088e-08
9.30893e-08
9.3168592e-08
9.3252961e-08
9.3342557e-08
9.3437605e-08
9.3538004e-08
9.3643897e-08
9.3754545e-08
9.3869929e-08
9.398957e-08
9.4112331e-08
9.4236904e-08
9.436208e-08
9.4485961e-08
9.4606322e-08
9.4721386e-08
9.4829303e-08
9.4927871e-08
9.5015047e-08
9.5088874e-08
9.5147742e-08
9.5190727e-08
9.5217009e-08
9.5225937e-08
9.5218247e-08
9.5194901e-08
9.5156874e-08
9.5105788e-08
9.5043527e-08
9.4972052e-08
9.4893475e-08
9.4809514e-08
9.4722057e-08
9.4633113e-08
9.4544389e-08
9.4456992e-08
9.4372122e-08
9.4290738e-08
9.4213249e-08
9.4139876e-08
9.4071048e-08
9.4006679e-08
9.3946765e-08
9.3891103e-08
9.3839409e-08
9.3791548e-08
9.3746584e-08
9.2988859e-08
9.3064151e-08
9.3144084e-08
9.3228444e-08
9.3318318e-08
9.341383e-08
9.3515213e-08
9.3622334e-08
9.3735327e-08
9.3853391e-08
9.3976468e-08
9.4104012e-08
9.4234798e-08
9.4367413e-08
9.4500537e-08
9.463214e-08
9.4759852e-08
9.4881753e-08
9.4995853e-08
9.5099811e-08
9.5191451e-08
9.52687e-08
9.5329855e-08
9.537392e-08
9.5400023e-08
9.5407479e-08
9.5397053e-08
9.5369752e-08
9.5326602e-08
9.5269308e-08
9.5199857e-08
9.512033e-08
9.5032978e-08
9.493964e-08
9.4842337e-08
9.4743233e-08
9.4644177e-08
9.4546369e-08
9.4451123e-08
9.4359517e-08
9.4272015e-08
9.4188849e-08
9.4110584e-08
9.4037094e-08
9.3968465e-08
9.390446e-08
9.3844839e-08
9.3789399e-08
9.3737521e-08
9.3044448e-08
9.3124221e-08
9.320915e-08
9.3298882e-08
9.3394584e-08
9.3496359e-08
9.3604443e-08
9.3718672e-08
9.3839168e-08
9.3965069e-08
9.4096269e-08
9.4232152e-08
9.43714e-08
9.451249e-08
9.4653985e-08
9.4793716e-08
9.4929167e-08
9.505827e-08
9.5178889e-08
9.528854e-08
9.5384915e-08
9.5465827e-08
9.5529476e-08
9.5574796e-08
9.5600866e-08
9.5606973e-08
9.559391e-08
9.5562729e-08
9.5514511e-08
9.5451045e-08
9.5374422e-08
9.5286849e-08
9.5190721e-08
9.5088009e-08
9.4980874e-08
9.4871632e-08
9.4762277e-08
9.4654106e-08
9.4548547e-08
9.4446794e-08
9.4349367e-08
9.4256526e-08
9.4168951e-08
9.4086493e-08
9.4009316e-08
9.3937161e-08
9.3869824e-08
9.3807038e-08
9.3748482e-08
9.3110202e-08
9.3194723e-08
9.3284947e-08
9.3380376e-08
9.3482253e-08
9.3590663e-08
9.370584e-08
9.382759e-08
9.3956019e-08
9.4090202e-08
9.4229979e-08
9.4374659e-08
9.4522826e-08
9.4672842e-08
9.4823143e-08
9.4971421e-08
9.5115005e-08
9.5251674e-08
9.5379144e-08
9.5494784e-08
9.5596155e-08
9.5680952e-08
9.5747284e-08
9.5794015e-08
9.5820174e-08
9.5825029e-08
9.5809397e-08
9.5774377e-08
9.5721108e-08
9.5651461e-08
9.5567636e-08
9.547197e-08
9.5367008e-08
9.5254862e-08
9.5137839e-08
9.5018409e-08
9.4898709e-08
9.478014e-08
9.4664245e-08
9.4552327e-08
9.4444971e-08
9.4342473e-08
9.4245617e-08
9.4154244e-08
9.4068586e-08
9.3988367e-08
9.3913421e-08
9.3843418e-08
9.3778315e-08
9.3186725e-08
9.327628e-08
9.3372123e-08
9.3473599e-08
9.3582026e-08
9.3697468e-08
9.3820158e-08
9.394987e-08
9.4086689e-08
9.4229626e-08
9.437846e-08
9.4532419e-08
9.4689983e-08
9.4849393e-08
9.5008952e-08
9.5166202e-08
9.5318318e-08
9.5462919e-08
9.5597567e-08
9.5719485e-08
9.5826099e-08
9.5914992e-08
9.5984179e-08
9.6032456e-08
9.6058806e-08
9.6062483e-08
9.6044327e-08
9.6005484e-08
9.5947149e-08
9.5871277e-08
9.578018e-08
9.5676332e-08
9.5562431e-08
9.5440741e-08
9.531372e-08
9.518399e-08
9.5053832e-08
9.4924758e-08
9.4798425e-08
9.4676244e-08
9.4558873e-08
9.444665e-08
9.4340458e-08
9.4240134e-08
9.4145977e-08
9.4057701e-08
9.3975173e-08
9.3898001e-08
9.3826413e-08
9.3274824e-08
9.3369725e-08
9.3471537e-08
9.3579436e-08
9.3694817e-08
9.3817717e-08
9.394837e-08
9.4086515e-08
9.423221e-08
9.4384401e-08
9.45428e-08
9.4706544e-08
9.4874005e-08
9.5043295e-08
9.5212575e-08
9.5379235e-08
9.5540284e-08
9.5693181e-08
9.5835328e-08
9.5963802e-08
9.6075896e-08
9.6169078e-08
9.6241277e-08
9.6291219e-08
9.6317845e-08
9.6320401e-08
9.6299746e-08
9.6257073e-08
9.6193634e-08
9.6111467e-08
9.6013e-08
9.5900847e-08
9.5777869e-08
9.5646486e-08
9.550931e-08
9.5369118e-08
9.5228332e-08
9.508858e-08
9.4951638e-08
9.4819025e-08
9.4691475e-08
9.4569381e-08
9.4453715e-08
9.4344325e-08
9.4241567e-08
9.4145153e-08
9.4054981e-08
9.3970598e-08
9.38925e-08
9.3375529e-08
9.3476112e-08
9.3584273e-08
9.3699003e-08
9.3821769e-08
9.3952588e-08
9.4091686e-08
9.4238766e-08
9.4393855e-08
9.4555831e-08
9.4724328e-08
9.4898389e-08
9.5076268e-08
9.5255941e-08
9.5435419e-08
9.5611931e-08
9.5782319e-08
9.5943871e-08
9.6093831e-08
9.6229127e-08
9.6346921e-08
9.6444572e-08
9.6519921e-08
9.6571631e-08
9.6598604e-08
9.6600078e-08
9.6576937e-08
9.6530413e-08
9.6461816e-08
9.6373265e-08
9.6267309e-08
9.6146709e-08
9.6014491e-08
9.5873237e-08
9.5725715e-08
9.5574854e-08
9.5423219e-08
9.5272562e-08
9.5124776e-08
9.4981494e-08
9.4843535e-08
9.4711351e-08
9.4586002e-08
9.4467358e-08
9.4355832e-08
9.4251135e-08
9.4153201e-08
9.4061512e-08
9.3976836e-08
9.3490112e-08
9.3596741e-08
9.3711666e-08
9.3833665e-08
9.3964286e-08
9.4103518e-08
9.425158e-08
9.4408133e-08
9.4573168e-08
9.4745489e-08
9.4924648e-08
9.5109582e-08
9.5298421e-08
9.5488995e-08
9.5679157e-08
9.5865969e-08
9.6046097e-08
9.6216658e-08
9.6374732e-08
9.65171e-08
9.6640796e-08
9.6743076e-08
9.6821697e-08
9.6875261e-08
9.6902636e-08
9.6903058e-08
9.687743e-08
9.6827027e-08
9.6753208e-08
9.6658176e-08
9.6544602e-08
9.6415403e-08
9.6273769e-08
9.6122446e-08
9.5964359e-08
9.5802589e-08
9.5639842e-08
9.5477999e-08
9.5319078e-08
9.5164828e-08
9.5016159e-08
9.4873596e-08
9.4738286e-08
9.4610125e-08
9.4489583e-08
9.4376377e-08
9.4270474e-08
9.4171294e-08
9.4079881e-08
9.3620116e-08
9.3733192e-08
9.3855329e-08
9.3985078e-08
9.4124062e-08
9.4272241e-08
9.4429823e-08
9.4596426e-08
9.4771996e-08
9.4955257e-08
9.5145671e-08
9.5342058e-08
9.5542417e-08
9.5744423e-08
9.5945763e-08
9.614332e-08
9.6333584e-08
9.6513494e-08
9.6679964e-08
9.6829633e-08
9.6959412e-08
9.7066456e-08
9.7148449e-08
9.7203936e-08
9.7231756e-08
9.7231146e-08
9.7203028e-08
9.7148713e-08
9.7069607e-08
9.6967996e-08
9.6846678e-08
9.6708726e-08
9.6557498e-08
9.6395901e-08
9.6227014e-08
9.6054064e-08
9.5879904e-08
9.5706547e-08
9.5536145e-08
9.5370568e-08
9.5210828e-08
9.5057531e-08
9.4911915e-08
9.4773913e-08
9.4644052e-08
9.452206e-08
9.4407943e-08
9.4301051e-08
9.4202724e-08
9.3767398e-08
9.3887357e-08
9.4017203e-08
9.4155223e-08
9.4303125e-08
9.4460833e-08
9.4628538e-08
9.480581e-08
9.4992544e-08
9.5187376e-08
9.5389666e-08
9.5598111e-08
9.5810565e-08
9.6024543e-08
9.6237551e-08
9.6446294e-08
9.6647074e-08
9.6836652e-08
9.7011776e-08
9.7168945e-08
9.7304956e-08
9.7416873e-08
9.7502314e-08
9.7559774e-08
9.7588067e-08
9.7586439e-08
9.7555826e-08
9.7497571e-08
9.7413122e-08
9.7304844e-08
9.7175667e-08
9.7028824e-08
9.6867834e-08
9.669576e-08
9.6515826e-08
9.6331405e-08
9.6145495e-08
9.5960254e-08
9.5777972e-08
9.5600651e-08
9.5429415e-08
9.5264962e-08
9.5108623e-08
9.4960377e-08
9.482081e-08
9.4689665e-08
9.4566985e-08
9.4452052e-08
9.4346518e-08
9.3934175e-08
9.40615e-08
9.4199602e-08
9.4346469e-08
9.4503896e-08
9.4671766e-08
9.485025e-08
9.5038861e-08
9.5237432e-08
9.5444505e-08
9.5659325e-08
9.5880454e-08
9.6105592e-08
9.6332081e-08
9.6557243e-08
9.6777591e-08
9.6989244e-08
9.7188776e-08
9.7372775e-08
9.7537605e-08
9.7679958e-08
9.779682e-08
9.7885754e-08
9.7945214e-08
9.7973998e-08
9.797136e-08
9.7938252e-08
9.787604e-08
9.7786207e-08
9.7671197e-08
9.7534076e-08
9.7378232e-08
9.7207335e-08
9.7024592e-08
9.6833364e-08
9.6637165e-08
9.6439141e-08
9.6241602e-08
9.6046993e-08