/*--------------------------------*- C++ -*----------------------------------*\
| =========                 |                                                 |
| \\      /  F ield         | OpenFOAM: The Open Source CFD Toolbox           |
|  \\    /   O peration     | Version:  v2006                                 |
|   \\  /    A nd           | Website:  www.openfoam.com                      |
|    \\/     M anipulation  |                                                 |
\*---------------------------------------------------------------------------*/
FoamFile
{
    version     2.0;
    format      ascii;
    class       volScalarField;
    location    "4500";
    object      p;
}
// * * * * * * * * * * * * * * * * * * * * * * * * * * * * * * * * * * * * * //

dimensions      [1 -1 -2 0 0 0 0];


internalField   nonuniform List<scalar> 
19765
(
1.0007989
1.001099
1.0019049
1.0024675
1.0030247
1.0034434
1.0039362
1.0042222
1.0045872
1.0048836
1.0050896
1.0052466
1.0053698
1.0054325
1.0054479
1.0054277
1.0053742
1.0052866
1.005164
1.0050052
1.0048049
1.0045656
1.0043087
1.0040078
1.0036431
1.0032641
1.0029389
1.0025692
1.0021061
1.0016888
1.0012534
1.0007276
1.0001346
0.99935345
0.99872392
0.9982793
0.99770936
0.99684764
0.99625005
0.99558597
0.994496
0.99355902
0.99341064
0.99258127
0.99261651
0.99235428
0.99259035
0.99295416
0.99341743
1.001804
1.0019575
1.002154
1.0023895
1.0026394
1.0028798
1.0031315
1.0033429
1.0035642
1.0037832
1.0039683
1.0041219
1.0042633
1.0043624
1.004418
1.0044559
1.0044675
1.0044391
1.0043797
1.0042839
1.0041528
1.0039943
1.0037991
1.0035691
1.0033128
1.0030321
1.0027161
1.0023707
1.0020016
1.0016053
1.0011853
1.0007464
1.0002915
0.99983459
0.99938237
0.99892626
0.99845938
0.99799847
0.99757236
0.99717263
0.99681998
0.99652978
0.99625136
0.99601381
0.99584489
0.9957007
0.99559098
0.99549074
0.99539008
1.0017631
1.0019561
1.002174
1.0023903
1.0026046
1.0028056
1.0030028
1.0031715
1.0033384
1.0034936
1.003631
1.0037505
1.0038571
1.0039376
1.003989
1.0040214
1.0040327
1.0040143
1.0039648
1.003883
1.0037687
1.0036242
1.0034479
1.0032393
1.0030036
1.0027436
1.0024538
1.0021363
1.0017967
1.0014331
1.0010501
1.0006544
1.0002524
0.99985015
0.99944035
0.99902598
0.99861967
0.9982239
0.9978367
0.99747182
0.99713297
0.9968018
0.99648663
0.99619779
0.99593484
0.9957231
0.99553578
0.99537615
0.99522869
1.0019415
1.0020674
1.0021987
1.0023381
1.0024808
1.0026228
1.0027655
1.0028957
1.0030265
1.0031538
1.0032676
1.0033679
1.0034584
1.0035284
1.003574
1.0036046
1.0036192
1.0036084
1.0035701
1.0035029
1.0034082
1.0032906
1.0031467
1.0029737
1.0027765
1.0025589
1.0023161
1.0020483
1.0017615
1.0014556
1.0011343
1.000804
1.0004692
1.0001357
0.99979731
0.99945723
0.99912732
0.9988116
0.99850388
0.99821778
0.99795775
0.99770422
0.99745317
0.99722807
0.99700529
0.99680016
0.9965908
0.99638557
0.9961854
1.0018579
1.0019717
1.0020878
1.0022025
1.0023151
1.0024239
1.0025317
1.0026293
1.002727
1.0028224
1.0029085
1.0029845
1.0030532
1.0031068
1.0031412
1.0031631
1.0031725
1.0031613
1.0031267
1.0030669
1.002981
1.0028722
1.0027384
1.0025769
1.0023927
1.0021899
1.0019652
1.0017178
1.0014533
1.0011733
1.0008802
1.0005792
1.0002739
0.9999696
0.99966407
0.99935937
0.99906226
0.99877575
0.99849665
0.99823219
0.99798305
0.99773802
0.99749483
0.99726602
0.99703626
0.996816
0.99659786
0.99638666
0.99618169
1.0018318
1.001914
1.0019996
1.0020847
1.0021695
1.0022519
1.0023349
1.0024105
1.0024869
1.002562
1.0026297
1.0026892
1.0027429
1.0027842
1.0028097
1.0028244
1.0028279
1.0028138
1.0027793
1.0027231
1.002644
1.0025456
1.0024258
1.002282
1.0021179
1.0019371
1.0017371
1.0015175
1.0012833
1.0010359
1.0007778
1.0005134
1.000246
0.99998004
0.99971405
0.99944983
0.99919271
0.99894508
0.99870483
0.99847704
0.99826221
0.99805178
0.99784464
0.99764689
0.99744898
0.99725561
0.99706001
0.99686277
0.99666713
1.0017422
1.0018118
1.0018837
1.0019533
1.0020213
1.0020864
1.0021518
1.0022108
1.0022705
1.002329
1.0023816
1.0024275
1.0024684
1.0024993
1.0025169
1.0025252
1.0025237
1.0025068
1.0024721
1.0024181
1.0023438
1.0022515
1.0021396
1.0020057
1.0018531
1.0016848
1.0014991
1.0012958
1.001079
1.0008505
1.0006123
1.0003683
1.0001211
0.9998748
0.99962872
0.99938441
0.99914571
0.99891465
0.99868972
0.99847439
0.9982686
0.9980666
0.9978667
0.9976732
0.99747892
0.99728708
0.99709277
0.99689723
0.99670063
1.0016718
1.0017259
1.0017827
1.0018377
1.0018916
1.001943
1.0019949
1.0020414
1.0020886
1.0021348
1.0021759
1.0022111
1.002242
1.0022642
1.0022751
1.0022776
1.0022712
1.0022511
1.0022154
1.0021625
1.0020916
1.0020044
1.0018997
1.0017756
1.0016345
1.0014792
1.0013082
1.0011216
1.0009232
1.0007145
1.0004974
1.0002754
1.0000509
0.99982735
0.99960456
0.9993838
0.99916829
0.99895977
0.99875708
0.99856302
0.99837767
0.99819623
0.9980175
0.99784434
0.99767113
0.99749992
0.99732647
0.99715129
0.99697456
1.0015853
1.0016302
1.0016775
1.0017226
1.0017666
1.0018082
1.0018499
1.0018871
1.0019246
1.0019611
1.0019931
1.00202
1.0020429
1.0020582
1.0020636
1.0020615
1.0020511
1.0020285
1.0019919
1.0019398
1.0018716
1.0017883
1.0016889
1.001572
1.0014394
1.0012936
1.0011335
1.0009591
1.0007739
1.0005793
1.000377
1.0001701
0.99996051
0.99975154
0.99954307
0.99933633
0.99913391
0.99893738
0.99874583
0.99856148
0.99838431
0.9982108
0.99803955
0.99787295
0.99770631
0.9975412
0.99737412
0.99720536
0.99703466
1.0015083
1.0015444
1.0015828
1.0016193
1.0016549
1.0016883
1.001722
1.0017515
1.0017813
1.00181
1.0018347
1.0018548
1.0018711
1.0018806
1.0018814
1.0018751
1.0018613
1.0018364
1.0017987
1.0017471
1.0016809
1.0016009
1.0015062
1.0013956
1.0012707
1.0011335
1.0009832
1.0008202
1.0006473
1.0004658
1.0002775
1.0000851
0.99989038
0.99969628
0.99950286
0.99931124
0.99912372
0.99894174
0.99876456
0.9985941
0.99843049
0.99827069
0.99811352
0.997961
0.99780902
0.99765889
0.99750743
0.9973548
0.99720084
1.001429
1.0014587
1.0014906
1.0015208
1.00155
1.0015772
1.0016045
1.0016281
1.0016518
1.0016743
1.0016931
1.0017077
1.0017188
1.0017237
1.0017206
1.001711
1.0016944
1.0016675
1.0016291
1.0015779
1.0015134
1.0014361
1.0013452
1.00124
1.0011214
1.0009913
1.0008493
1.0006955
1.0005326
1.0003619
1.0001848
1.0000039
0.9998207
0.99963788
0.99945557
0.99927485
0.99909769
0.99892541
0.99875742
0.99859537
0.99843938
0.99828708
0.99813724
0.99799177
0.99784701
0.99770414
0.99756039
0.99741582
0.99726997
1.0013559
1.0013801
1.0014063
1.0014309
1.0014547
1.0014767
1.0014987
1.0015174
1.001536
1.0015534
1.0015673
1.0015773
1.001584
1.0015849
1.0015786
1.0015663
1.0015472
1.0015187
1.0014796
1.0014288
1.0013657
1.0012909
1.0012034
1.0011027
1.0009897
1.000866
1.0007313
1.0005858
1.000432
1.0002709
1.0001041
0.99993367
0.99976124
0.99958916
0.99941765
0.99924774
0.99908124
0.9989194
0.99876172
0.99860972
0.99846359
0.99832129
0.99818171
0.99804664
0.99791273
0.99778111
0.99764921
0.99751712
0.99738444
1.0012848
1.0013047
1.0013264
1.0013466
1.0013661
1.0013839
1.0014016
1.0014163
1.0014307
1.0014439
1.0014539
1.0014601
1.0014632
1.0014609
1.0014519
1.0014372
1.0014161
1.0013864
1.0013467
1.0012963
1.0012346
1.0011618
1.0010773
1.0009807
1.0008727
1.0007546
1.0006263
1.0004881
1.0003421
1.0001894
1.0000314
0.99987002
0.99970676
0.99954375
0.99938124
0.99922021
0.99906231
0.99890868
0.99875891
0.99861437
0.99847529
0.99833995
0.99820729
0.99807908
0.99795223
0.99782784
0.99770359
0.99757958
0.99745526
1.0012186
1.0012347
1.0012525
1.001269
1.0012848
1.001299
1.0013131
1.0013244
1.0013353
1.0013449
1.0013515
1.0013546
1.0013546
1.0013495
1.0013383
1.0013217
1.001299
1.0012681
1.0012281
1.0011781
1.0011175
1.0010467
1.000965
1.0008719
1.0007684
1.0006553
1.0005328
1.0004011
1.0002622
1.0001171
0.99996712
0.99981405
0.99965923
0.99950465
0.9993506
0.99919804
0.9990485
0.99890308
0.99876142
0.99862481
0.99849353
0.99836609
0.99824151
0.99812151
0.9980032
0.99788768
0.9977728
0.99765869
0.99754485
1.0011555
1.0011686
1.0011832
1.0011966
1.0012093
1.0012206
1.0012316
1.0012401
1.0012481
1.0012547
1.0012585
1.0012589
1.0012563
1.001249
1.0012359
1.0012176
1.0011935
1.0011618
1.0011216
1.001072
1.0010126
1.0009435
1.0008643
1.0007746
1.000675
1.0005666
1.0004492
1.0003235
1.000191
1.0000527
0.99990992
0.99976429
0.99961703
0.99947
0.99932349
0.99917843
0.99903623
0.99889794
0.99876322
0.9986333
0.99850845
0.99838739
0.99826921
0.9981556
0.99804386
0.99793508
0.99782729
0.99772066
0.99761459
1.0010965
1.0011069
1.0011188
1.0011295
1.0011396
1.0011483
1.0011567
1.0011627
1.0011682
1.0011723
1.0011737
1.0011718
1.001167
1.0011578
1.0011431
1.0011234
1.0010983
1.0010659
1.0010255
1.0009764
1.0009181
1.0008507
1.0007738
1.0006871
1.0005912
1.000487
1.0003745
1.0002541
1.0001275
0.9999955
0.99985932
0.99972053
0.99958027
0.99944025
0.99930079
0.99916281
0.99902762
0.9988962
0.9987683
0.99864506
0.99852678
0.99841234
0.99830091
0.99819411
0.99808943
0.99798796
0.99788783
0.99778927
0.99769168
1.0010407
1.0010489
1.0010584
1.0010669
1.0010747
1.0010813
1.0010875
1.0010915
1.0010948
1.0010967
1.001096
1.0010922
1.0010855
1.0010747
1.0010587
1.0010379
1.0010118
1.0009789
1.0009385
1.0008899
1.0008327
1.000767
1.0006922
1.0006084
1.0005159
1.0004155
1.0003074
1.000192
1.0000708
0.99994461
0.99981452
0.99968204
0.99954823
0.99941468
0.99928173
0.99915025
0.99902149
0.99889637
0.99877466
0.99865743
0.998545
0.99843638
0.9983308
0.99822983
0.99813112
0.99803574
0.99794198
0.99785006
0.99775938
1.0009882
1.0009946
1.0010021
1.0010086
1.0010145
1.0010192
1.0010235
1.0010257
1.0010271
1.0010272
1.0010247
1.0010192
1.001011
1.0009987
1.0009816
1.0009599
1.0009331
1.0008998
1.0008595
1.0008114
1.0007553
1.0006911
1.0006184
1.0005372
1.0004479
1.0003512
1.0002472
1.0001365
1.0000203
0.99989943
0.99977502
0.99964841
0.99952063
0.99939315
0.99926631
0.99914098
0.99901832
0.99889922
0.99878347
0.99867209
0.99856541
0.99846256
0.99836282
0.99826771
0.99817502
0.99808581
0.99799847
0.99791326
0.99782956
1.0009388
1.0009436
1.0009493
1.0009542
1.0009584
1.0009615
1.0009641
1.0009647
1.0009646
1.000963
1.000959
1.0009521
1.0009425
1.000929
1.000911
1.0008885
1.0008611
1.0008277
1.0007875
1.00074
1.0006849
1.0006222
1.0005515
1.0004728
1.0003865
1.0002932
1.0001931
1.0000867
0.9999752
0.99985936
0.99974025
0.99961915
0.99949701
0.99937521
0.99925412
0.99913456
0.99901763
0.99890415
0.99879397
0.99868805
0.99858667
0.9984891
0.99839467
0.99830482
0.99821751
0.99813372
0.998052
0.99797259
0.99789488
1.0008922
1.0008956
1.0008999
1.0009033
1.0009061
1.0009077
1.0009089
1.0009082
1.0009066
1.0009036
1.0008982
1.0008902
1.0008794
1.0008649
1.0008461
1.000823
1.0007952
1.0007616
1.0007217
1.0006748
1.0006207
1.0005595
1.0004908
1.0004144
1.000331
1.0002409
1.0001444
1.0000421
0.99993501
0.9998239
0.99970978
0.99959385
0.99947703
0.99936061
0.99924496
0.99913086
0.99901938
0.99891128
0.99880643
0.99870574
0.9986095
0.99851705
0.99842778
0.99834306
0.99826099
0.9981825
0.99810624
0.99803248
0.99796057
1.0008483
1.0008505
1.0008535
1.0008556
1.0008571
1.0008576
1.0008574
1.0008555
1.0008528
1.0008485
1.000842
1.0008329
1.0008211
1.0008058
1.0007863
1.0007628
1.0007347
1.0007011
1.0006614
1.0006152
1.0005622
1.0005024
1.0004355
1.0003614
1.0002806
1.0001936
1.0001006
1.0000022
0.99989924
0.99979259
0.99968318
0.99957214
0.99946035
0.99934902
0.99923851
0.9991296
0.99902328
0.99892027
0.99882047
0.99872472
0.99863331
0.99854565
0.99846118
0.99838119
0.9983039
0.99823021
0.99815886
0.99809013
0.99802335
1.0008069
1.000808
1.0008098
1.0008108
1.0008113
1.0008106
1.0008094
1.0008065
1.0008026
1.0007973
1.0007898
1.0007798
1.0007672
1.0007512
1.0007312
1.0007072
1.0006789
1.0006454
1.0006061
1.0005606
1.0005086
1.0004502
1.000385
1.0003132
1.000235
1.0001509
1.0000612
0.9999664
0.99986745
0.99976503
0.99966008
0.99955368
0.99944666
0.99934016
0.99923456
0.99913058
0.99902918
0.99893103
0.99883605
0.99874503
0.99865825
0.99857519
0.99849533
0.99841987
0.99834717
0.99827809
0.99821143
0.99814747
0.99808558
1.0007677
1.0007679
1.0007687
1.0007688
1.0007682
1.0007667
1.0007645
1.0007606
1.0007559
1.0007496
1.0007413
1.0007304
1.0007171
1.0007005
1.0006801
1.0006559
1.0006275
1.0005941
1.0005552
1.0005104
1.0004595
1.0004024
1.000339
1.0002693
1.0001936
1.0001123
1.0000258
0.99993443
0.99983925
0.99974085
0.99964015
0.99953816
0.99943568
0.99933378
0.99923284
0.99913357
0.99903684
0.99894332
0.99885292
0.9987664
0.99868401
0.99860528
0.99852975
0.99845852
0.99839008
0.99832523
0.99826285
0.99820323
0.99814572
1.0007306
1.00073
1.00073
1.0007292
1.0007278
1.0007254
1.0007223
1.0007177
1.0007121
1.0007051
1.000696
1.0006845
1.0006706
1.0006535
1.0006328
1.0006084
1.00058
1.0005467
1.0005083
1.0004642
1.0004144
1.0003587
1.000297
1.0002293
1.000156
1.0000774
0.99999389
0.99990589
0.9998143
0.99971974
0.99962309
0.9995253
0.99942714
0.99932963
0.99923314
0.99913835
0.9990461
0.99895699
0.99887097
0.99878874
0.99871055
0.99863596
0.99856455
0.99849736
0.99843297
0.99837212
0.9983138
0.99825827
0.99820487
1.0006954
1.0006942
1.0006934
1.0006918
1.0006897
1.0006866
1.0006827
1.0006775
1.0006712
1.0006634
1.0006537
1.0006416
1.0006272
1.0006098
1.0005888
1.0005643
1.0005359
1.0005029
1.000465
1.0004217
1.0003729
1.0003186
1.0002586
1.0001929
1.0001219
1.0000459
0.99996527
0.99988046
0.9997923
0.99970141
0.99960862
0.99951484
0.99942081
0.99932749
0.99923524
0.99914473
0.99905675
0.99897185
0.99889001
0.99881186
0.99873765
0.99866698
0.99859946
0.99853606
0.99847545
0.99841833
0.99836374
0.99831195
0.99826229
1.0006619
1.0006602
1.0006587
1.0006565
1.0006537
1.0006499
1.0006455
1.0006396
1.0006327
1.0006244
1.0006141
1.0006016
1.0005867
1.000569
1.0005479
1.0005234
1.0004951
1.0004624
1.000425
1.0003826
1.0003348
1.0002818
1.0002235
1.0001597
1.0000909
1.0000175
0.9999396
0.99985785
0.99977299
0.99968561
0.99959651
0.99950656
0.99941647
0.99932715
0.99923896
0.99915254
0.99906862
0.99898774
0.99890988
0.99883563
0.99876522
0.99869828
0.99863447
0.99857465
0.99851762
0.99846402
0.99841294
0.99836466
0.9983185
1.0006301
1.0006278
1.0006258
1.000623
1.0006196
1.0006154
1.0006103
1.000604
1.0005965
1.0005877
1.000577
1.0005641
1.0005489
1.0005309
1.0005098
1.0004853
1.0004572
1.0004249
1.000388
1.0003464
1.0002997
1.0002481
1.0001913
1.0001295
1.0000628
0.99999179
0.99991661
0.99983781
0.99975611
0.9996721
0.99958653
0.99950025
0.99941393
0.99932843
0.99924411
0.99916159
0.99908156
0.99900451
0.99893044
0.9988599
0.99879309
0.99872969
0.99866938
0.99861294
0.99855927
0.99850894
0.99846113
0.99841607
0.99837312
1.0005997
1.000597
1.0005945
1.0005912
1.0005874
1.0005826
1.0005771
1.0005703
1.0005624
1.0005532
1.0005421
1.0005289
1.0005135
1.0004954
1.0004742
1.0004498
1.0004219
1.00039
1.0003538
1.000313
1.0002674
1.0002171
1.0001619
1.0001019
1.0000374
0.99996866
0.99989609
0.99982012
0.99974146
0.99966067
0.99957849
0.99949571
0.99941299
0.99933115
0.99925053
0.99917173
0.9990954
0.99902201
0.99895155
0.99888455
0.99882117
0.99876113
0.99870413
0.9986509
0.9986004
0.99855315
0.9985084
0.99846637
0.99842641
1.0005707
1.0005676
1.0005647
1.000561
1.0005567
1.0005516
1.0005457
1.0005385
1.0005302
1.0005206
1.0005092
1.0004958
1.0004802
1.000462
1.0004409
1.0004167
1.0003891
1.0003576
1.0003221
1.0002821
1.0002376
1.0001886
1.000135
1.0000768
1.0000143
0.99994788
0.99987781
0.99980458
0.99972884
0.99965114
0.9995722
0.99949278
0.99941351
0.99933515
0.99925806
0.99918282
0.99911002
0.9990401
0.99897309
0.99890943
0.99884931
0.99879246
0.9987386
0.99868837
0.99864085
0.99859649
0.99855458
0.99851534
0.99847813
1.0005429
1.0005395
1.0005362
1.0005322
1.0005276
1.0005221
1.0005158
1.0005083
1.0004998
1.0004899
1.0004783
1.0004647
1.000449
1.0004308
1.0004097
1.0003857
1.0003585
1.0003275
1.0002926
1.0002536
1.0002102
1.0001624
1.0001103
1.0000539
0.99999343
0.99992923
0.99986159
0.99979099
0.99971806
0.99964334
0.99956751
0.9994913
0.99941532
0.99934029
0.99926658
0.99919471
0.99912527
0.99905867
0.99899492
0.99893446
0.99887743
0.99882359
0.99877269
0.99872531
0.99868059
0.99863894
0.9985997
0.99856308
0.99852844
1.0005162
1.0005126
1.0005089
1.0005046
1.0004997
1.000494
1.0004875
1.0004797
1.0004709
1.0004608
1.000449
1.0004354
1.0004196
1.0004015
1.0003806
1.0003568
1.0003299
1.0002995
1.0002653
1.0002271
1.0001848
1.0001384
1.0000878
1.0000331
0.9999746
0.99991255
0.99984726
0.99977921
0.99970899
0.99963712
0.99956427
0.99949113
0.99941829
0.99934645
0.99927594
0.9992073
0.99914105
0.99907759
0.99901694
0.9989595
0.9989054
0.99885441
0.99880631
0.99876161
0.99871952
0.9986804
0.99864365
0.99860944
0.99857716
1.0004905
1.0004867
1.0004828
1.0004783
1.0004731
1.0004672
1.0004604
1.0004525
1.0004436
1.0004333
1.0004214
1.0004077
1.0003919
1.0003739
1.0003532
1.0003297
1.0003033
1.0002734
1.00024
1.0002027
1.0001615
1.0001164
1.0000673
1.0000143
0.99995765
0.99989769
0.99983468
0.99976908
0.99970147
0.99963234
0.99956235
0.99949215
0.99942231
0.99935349
0.99928604
0.99922046
0.99915725
0.99909677
0.99903906
0.99898447
0.99893314
0.99888485
0.99883938
0.9987972
0.99875758
0.99872085
0.99868642
0.99865447
0.9986244
1.0004658
1.0004618
1.0004577
1.000453
1.0004477
1.0004416
1.0004347
1.0004266
1.0004175
1.0004072
1.0003952
1.0003815
1.0003658
1.0003479
1.0003275
1.0003044
1.0002784
1.0002491
1.0002164
1.0001801
1.00014
1.0000961
1.0000485
0.99999719
0.99994242
0.9998845
0.9998237
0.99976048
0.99969537
0.99962888
0.99956163
0.99949423
0.99942726
0.99936133
0.99929678
0.9992341
0.99917376
0.9991161
0.99906117
0.99900928
0.99896056
0.9989148
0.99887181
0.998832
0.99879469
0.99876017
0.9987279
0.99869804
0.99867
1.0004419
1.0004377
1.0004336
1.0004287
1.0004233
1.000417
1.00041
1.0004019
1.0003927
1.0003823
1.0003704
1.0003567
1.0003412
1.0003235
1.0003033
1.0002806
1.0002551
1.0002265
1.0001945
1.0001591
1.0001201
1.0000776
1.0000314
0.99998175
0.9999288
0.99987286
0.99981421
0.99975328
0.9996906
0.99962664
0.999562
0.99949729
0.99943305
0.99936986
0.99930807
0.99924813
0.99919051
0.99913551
0.99908319
0.99903385
0.99898757
0.9989442
0.99890354
0.99886594
0.9988308
0.99879835
0.9987681
0.99874019
0.99871404
1.0004187
1.0004145
1.0004103
1.0004053
1.0003998
1.0003935
1.0003864
1.0003783
1.0003691
1.0003587
1.0003468
1.0003333
1.0003179
1.0003004
1.0002806
1.0002583
1.0002333
1.0002054
1.0001742
1.0001398
1.0001019
1.0000606
1.0000159
0.99996784
0.99991667
0.99986267
0.9998061
0.99974739
0.99968704
0.99962552
0.99956339
0.99950124
0.99943958
0.999379
0.99931981
0.99926247
0.9992074
0.99915491
0.99910505
0.99905809
0.99901411
0.99897297
0.99893448
0.99889895
0.99886582
0.99883529
0.9988069
0.99878079
0.99875637
1.0003963
1.0003921
1.0003878
1.0003828
1.0003772
1.0003709
1.0003638
1.0003557
1.0003465
1.0003362
1.0003244
1.000311
1.0002959
1.0002787
1.0002592
1.0002374
1.000213
1.0001857
1.0001554
1.0001219
1.0000851
1.0000451
1.0000018
0.99995535
0.99990593
0.99985382
0.99979928
0.99974272
0.99968462
0.99962543
0.9995657
0.99950599
0.9994468
0.99938868
0.99933196
0.99927706
0.99922439
0.99917424
0.99912668
0.99908194
0.99904011
0.99900104
0.99896458
0.99893097
0.99889972
0.99887098
0.99884433
0.99881989
0.99879709
1.0003746
1.0003704
1.000366
1.0003611
1.0003555
1.0003492
1.0003421
1.000334
1.000325
1.0003148
1.0003031
1.0002899
1.000275
1.0002581
1.0002391
1.0002177
1.0001939
1.0001673
1.0001378
1.0001053
1.0000697
1.0000309
0.99998907
0.99994418
0.99989648
0.99984621
0.99979365
0.99973917
0.99968324
0.9996263
0.99956887
0.99951149
0.99945464
0.99939885
0.99934444
0.99929183
0.9992414
0.99919344
0.99914801
0.99910534
0.9990655
0.99902836
0.99899377
0.99896194
0.9989324
0.9989053
0.99888024
0.9988573
0.99883596
1.0003535
1.0003494
1.000345
1.0003401
1.0003346
1.0003283
1.0003213
1.0003133
1.0003044
1.0002943
1.0002828
1.0002698
1.0002552
1.0002387
1.0002201
1.0001993
1.0001761
1.0001502
1.0001216
1.0000901
1.0000555
1.0000181
0.99997759
0.99993426
0.99988824
0.99983979
0.99978914
0.99973669
0.99968286
0.99962807
0.99957284
0.99951767
0.99946304
0.99940944
0.99935721
0.99930674
0.9992584
0.99921247
0.99916902
0.99912825
0.99909025
0.99905488
0.999022
0.99899181
0.99896387
0.9989383
0.99891471
0.9988932
0.99887323
1.0003331
1.000329
1.0003247
1.0003198
1.0003144
1.0003082
1.0003013
1.0002934
1.0002846
1.0002747
1.0002635
1.0002508
1.0002365
1.0002203
1.0002022
1.0001819
1.0001594
1.0001343
1.0001065
1.000076
1.0000426
1.0000064
0.9999673
0.99992551
0.99988115
0.99983446
0.99978569
0.9997352
0.99968339
0.99963069
0.99957756
0.9995245
0.99947197
0.99942044
0.99937024
0.99932175
0.99927535
0.99923128
0.99918964
0.99915062
0.99911429
0.99908053
0.99904922
0.9990205
0.998994
0.99896978
0.99894749
0.99892721
0.99890842
1.0003132
1.0003092
1.000305
1.0003002
1.0002949
1.0002888
1.000282
1.0002744
1.0002657
1.000256
1.000245
1.0002326
1.0002187
1.000203
1.0001853
1.0001656
1.0001437
1.0001194
1.0000925
1.000063
1.0000308
0.99999579
0.99995812
0.99991784
0.99987512
0.99983017
0.99978323
0.99973465
0.99968481
0.99963411
0.999583
0.99953195
0.9994814
0.99943181
0.9993835
0.99933685
0.99929222
0.99924985
0.99920985
0.99917241
0.99913759
0.99910529
0.9990754
0.99904803
0.99902284
0.99899989
0.99897884
0.99895975
0.99894213
1.0002939
1.00029
1.0002859
1.0002813
1.0002761
1.0002701
1.0002635
1.000256
1.0002476
1.0002382
1.0002275
1.0002154
1.0002018
1.0001865
1.0001694
1.0001503
1.0001291
1.0001056
1.0000796
1.0000511
1.00002
0.99998628
0.99994999
0.99991121
0.9998701
0.99982686
0.99978172
0.999735
0.99968707
0.9996383
0.99958912
0.99953999
0.99949131
0.99944353
0.99939698
0.99935202
0.999309
0.99926817
0.99922964
0.99919361
0.99916012
0.9991291
0.99910044
0.99907425
0.99905018
0.99902828
0.99900823
0.99899007
0.99897335
1.0002752
1.0002715
1.0002675
1.000263
1.0002579
1.0002522
1.0002457
1.0002384
1.0002303
1.0002211
1.0002107
1.000199
1.0001858
1.000171
1.0001544
1.000136
1.0001155
1.0000927
1.0000677
1.0000402
1.0000102
0.99997775
0.99994284
0.99990556
0.99986604
0.99982448
0.99978111
0.99973621
0.99969014
0.99964324
0.99959592
0.99954861
0.9995017
0.99945562
0.99941069
0.99936726
0.99932569
0.99928623
0.999249
0.99921419
0.99918187
0.99915197
0.9991244
0.99909925
0.99907623
0.99905534
0.99903631
0.99901916
0.99900343
1.0002571
1.0002535
1.0002496
1.0002453
1.0002404
1.0002348
1.0002286
1.0002216
1.0002136
1.0002047
1.0001947
1.0001833
1.0001706
1.0001563
1.0001403
1.0001225
1.0001027
1.0000808
1.0000566
1.0000302
1.0000013
0.99997016
0.99993662
0.99990082
0.99986288
0.99982299
0.99978135
0.99973824
0.99969399
0.9996489
0.99960338
0.99955781
0.99951258
0.99946808
0.99942464
0.99938261
0.99934232
0.99930406
0.99926794
0.99923416
0.9992028
0.99917382
0.99914712
0.99912278
0.99910052
0.99908033
0.99906195
0.99904537
0.99903017
1.0002395
1.0002361
1.0002324
1.0002282
1.0002235
1.0002182
1.0002122
1.0002053
1.0001977
1.0001891
1.0001794
1.0001684
1.0001562
1.0001424
1.000127
1.0001098
1.0000907
1.0000697
1.0000465
1.000021
0.99999337
0.99996345
0.99993128
0.99989696
0.99986058
0.99982235
0.99978242
0.99974107
0.9996986
0.99965529
0.9996115
0.99956761
0.99952397
0.99948095
0.99943887
0.99939809
0.99935893
0.99932168
0.99928648
0.99925354
0.99922296
0.99919471
0.99916875
0.99914513
0.99912362
0.99910422
0.99908667
0.99907096
0.99905669
1.0002226
1.0002193
1.0002158
1.0002117
1.0002072
1.0002021
1.0001963
1.0001898
1.0001824
1.0001741
1.0001648
1.0001543
1.0001425
1.0001292
1.0001144
1.0000979
1.0000796
1.0000594
1.0000371
1.0000127
0.99998623
0.99995757
0.99992677
0.99989392
0.99985911
0.99982251
0.99978429
0.99974468
0.99970396
0.99966239
0.9996203
0.99957803
0.9995359
0.99949427
0.99945345
0.99941377
0.99937559
0.99933916
0.99930468
0.99927236
0.99924231
0.99921454
0.999189
0.99916575
0.99914454
0.99912537
0.99910798
0.99909235
0.99907807
1.0002062
1.000203
1.0001997
1.0001959
1.0001915
1.0001866
1.0001811
1.0001749
1.0001678
1.0001598
1.0001509
1.0001408
1.0001294
1.0001167
1.0001025
1.0000867
1.0000692
1.0000498
1.0000285
1.0000052
0.99997987
0.99995247
0.99992305
0.99989166
0.99985841
0.99982344
0.99978692
0.99974904
0.99971006
0.99967021
0.99962979
0.9995891
0.99954843
0.99950811
0.99946844
0.99942975
0.99939238
0.9993566
0.99932263
0.9992907
0.99926098
0.99923349
0.99920826
0.99918535
0.99916461
0.99914601
0.99912934
0.99911457
0.99910132
1.0001903
1.0001874
1.0001842
1.0001806
1.0001765
1.0001718
1.0001665
1.0001605
1.0001538
1.0001462
1.0001376
1.0001279
1.0001171
1.0001049
1.0000914
1.0000763
1.0000595
1.000041
1.0000207
0.99999843
0.99997424
0.99994812
0.99992006
0.99989015
0.99985846
0.99982512
0.99979029
0.99975414
0.99971689
0.99967875
0.99963999
0.99960085
0.99956161
0.99952255
0.99948396
0.99944615
0.99940943
0.99937412
0.99934043
0.99930864
0.99927893
0.99925136
0.99922597
0.99920281
0.99918171
0.99916264
0.99914535
0.99912984
0.99911569
1.0001751
1.0001723
1.0001693
1.0001659
1.000162
1.0001575
1.0001525
1.0001468
1.0001403
1.0001331
1.0001249
1.0001157
1.0001054
1.0000938
1.0000808
1.0000665
1.0000505
1.0000329
1.0000135
0.99999233
0.99996932
0.99994447
0.99991779
0.99988936
0.99985923
0.99982753
0.9997944
0.99975997
0.99972447
0.99968805
0.99965095
0.99961336
0.99957552
0.9995377
0.99950013
0.9994631
0.99942692
0.9993919
0.99935828
0.99932639
0.99929645
0.99926861
0.99924299
0.99921974
0.99919878
0.99918013
0.99916362
0.99914921
0.99913653
1.0001605
1.0001578
1.000155
1.0001517
1.000148
1.0001438
1.000139
1.0001336
1.0001275
1.0001206
1.0001128
1.000104
1.0000942
1.0000832
1.0000709
1.0000573
1.0000421
1.0000254
1.000007
0.99998689
0.99996505
0.99994148
0.99991618
0.99988923
0.99986066
0.99983061
0.99979919
0.99976652
0.99973279
0.99969813
0.99966272
0.99962671
0.99959031
0.99955372
0.99951714
0.99948083
0.99944507
0.99941016
0.99937638
0.99934406
0.99931348
0.99928482
0.9992582
0.99923374
0.99921135
0.99919099
0.99917246
0.99915576
0.99914049
1.0001464
1.0001439
1.0001412
1.0001381
1.0001346
1.0001306
1.0001261
1.0001209
1.0001151
1.0001086
1.0001012
1.0000929
1.0000836
1.0000732
1.0000616
1.0000487
1.0000343
1.0000185
1.0000011
0.99998203
0.99996136
0.99993906
0.99991513
0.99988965
0.99986264
0.99983425
0.99980455
0.99977366
0.99974174
0.99970888
0.99967523
0.99964088
0.999606
0.99957072
0.99953519
0.9994996
0.9994642
0.99942928
0.99939513
0.99936214
0.99933066
0.99930101
0.99927348
0.99924837
0.99922581
0.99920591
0.99918861
0.99917385
0.99916134
1.0001329
1.0001306
1.000128
1.0001251
1.0001217
1.0001179
1.0001136
1.0001087
1.0001032
1.0000971
1.0000901
1.0000823
1.0000736
1.0000638
1.0000528
1.0000406
1.0000271
1.0000121
0.99999569
0.99997773
0.99995825
0.99993725
0.99991472
0.99989075
0.99986533
0.9998386
0.99981061
0.99978148
0.99975136
0.9997203
0.99968844
0.9996558
0.99962252
0.99958865
0.99955426
0.99951946
0.99948448
0.99944953
0.99941489
0.99938093
0.99934801
0.99931647
0.9992866
0.99925864
0.99923266
0.99920872
0.99918669
0.99916662
0.99914813
1.0001201
1.0001178
1.0001154
1.0001125
1.0001093
1.0001057
1.0001016
1.000097
1.0000918
1.000086
1.0000795
1.0000722
1.000064
1.0000548
1.0000445
1.0000331
1.0000204
1.0000064
0.99999094
0.9999741
0.99995585
0.99993618
0.99991511
0.99989271
0.99986895
0.99984397
0.99981777
0.9997905
0.99976227
0.99973307
0.99970306
0.99967221
0.99964058
0.99960812
0.99957488
0.99954088
0.99950628
0.99947123
0.99943599
0.99940093
0.99936651
0.99933322
0.99930162
0.99927234
0.99924587
0.99922265
0.99920293
0.99918665
0.99917375
1.0001077
1.0001055
1.0001031
1.0001004
1.0000974
1.0000939
1.00009
1.0000857
1.0000808
1.0000754
1.0000693
1.0000625
1.0000549
1.0000464
1.0000368
1.0000262
1.0000143
1.0000012
0.9999867
0.99997092
0.99995382
0.99993541
0.99991567
0.99989469
0.99987247
0.99984925
0.99982494
0.99979972
0.99977366
0.99974672
0.9997189
0.99969025
0.99966068
0.99963006
0.99959834
0.99956544
0.99953141
0.99949627
0.9994602
0.99942346
0.99938647
0.99934965
0.99931349
0.99927848
0.99924489
0.99921299
0.99918285
0.99915478
0.99912848
1.0000961
1.0000939
1.0000915
1.0000888
1.0000858
1.0000824
1.0000787
1.0000746
1.0000701
1.000065
1.0000595
1.0000532
1.0000462
1.0000383
1.0000295
1.0000195
1.0000084
0.99999601
0.99998234
0.99996746
0.99995135
0.99993398
0.99991536
0.99989557
0.99987466
0.99985288
0.99983014
0.99980667
0.99978253
0.99975756
0.99973211
0.99970587
0.99967881
0.99965068
0.99962135
0.99959056
0.99955824
0.9995242
0.99948844
0.99945108
0.99941247
0.99937316
0.99933401
0.99929624
0.99926122
0.99923027
0.99920455
0.99918444
0.99917028
1.0000844
1.0000821
1.0000797
1.000077
1.0000741
1.0000711
1.0000677
1.000064
1.0000599
1.0000554
1.0000503
1.0000446
1.0000381
1.0000308
1.0000225
1.0000132
1.0000029
0.99999139
0.99997876
0.99996509
0.99995034
0.99993452
0.99991767
0.99989985
0.99988091
0.99986084
0.99983956
0.99981763
0.9997947
0.9997704
0.99974695
0.99972225
0.99969681
0.99967015
0.99964246
0.99961317
0.99958224
0.99954912
0.99951377
0.99947588
0.99943566
0.99939308
0.9993484
0.99930171
0.99925347
0.99920398
0.99915413
0.99910439
0.99905712
1.000074
1.0000717
1.0000693
1.0000667
1.0000638
1.0000607
1.0000573
1.0000537
1.0000498
1.0000455
1.0000407
1.0000356
1.0000299
1.0000235
1.0000165
1.0000086
0.99999977
0.9999898
0.99997859
0.99996664
0.99995412
0.9999408
0.99992673
0.99991191
0.99989612
0.99987928
0.99986126
0.99984288
0.99982321
0.99980315
0.99978212
0.99976076
0.99973754
0.99971296
0.99968685
0.99965881
0.99962863
0.9995955
0.9995592
0.99951878
0.99947449
0.99942594
0.99937456
0.99932193
0.99927094
0.9992245
0.99918745
0.99915972
0.99914773
1.0000628
1.0000592
1.0000557
1.0000523
1.0000491
1.0000461
1.0000432
1.0000403
1.0000372
1.0000339
1.0000303
1.0000263
1.0000219
1.0000168
1.0000109
1.0000039
0.99999574
0.99998574
0.99997427
0.99996241
0.99995007
0.99993666
0.99992218
0.99990675
0.99989074
0.99987483
0.9998587
0.99984311
0.99982703
0.99981676
0.99979635
0.99978254
0.99976459
0.99974845
0.999729
0.99970937
0.99968628
0.99966149
0.99963233
0.99959965
0.99956082
0.99951565
0.99945898
0.99939265
0.99931269
0.99921658
0.99910455
0.99897551
0.99884473
1.0000507
1.0000481
1.0000457
1.0000443
1.0000431
1.0000418
1.0000401
1.0000381
1.0000357
1.0000327
1.000029
1.0000244
1.0000185
1.0000115
1.0000031
0.99999332
0.99998186