/*--------------------------------*- C++ -*----------------------------------*\
| =========                 |                                                 |
| \\      /  F ield         | OpenFOAM: The Open Source CFD Toolbox           |
|  \\    /   O peration     | Version:  v2006                                 |
|   \\  /    A nd           | Website:  www.openfoam.com                      |
|    \\/     M anipulation  |                                                 |
\*---------------------------------------------------------------------------*/
FoamFile
{
    version     2.0;
    format      ascii;
    class       surfaceScalarField;
    location    "4500";
    object      phi;
}
// * * * * * * * * * * * * * * * * * * * * * * * * * * * * * * * * * * * * * //

dimensions      [1 0 -1 0 0 0 0];
oriented        oriented;


internalField   nonuniform List<scalar> 
39234
(
-0.00063015662
-6.2583886e-06
0.00063641501
-0.00060835686
-2.1799761e-05
-0.00055824636
-5.0110497e-05
-0.0005144072
-4.383916e-05
-0.00047051056
-4.3896646e-05
-0.00043138747
-3.9123087e-05
-0.00038529467
-4.6092802e-05
-0.00034571616
-3.9578503e-05
-0.00029949691
-4.6219248e-05
-0.00025263023
-4.6866687e-05
-0.00020983591
-4.2794321e-05
-0.00016857873
-4.1257177e-05
-0.00012646941
-4.2109323e-05
-8.4949847e-05
-4.1519558e-05
-4.2717442e-05
-4.2232405e-05
9.459933e-07
-4.3663435e-05
4.5268261e-05
-4.4322267e-05
9.0916912e-05
-4.5648651e-05
0.00013823407
-4.7317159e-05
0.0001874143
-4.918023e-05
0.00023755403
-5.0139724e-05
0.00028655602
-4.9001996e-05
0.00033655928
-5.0003262e-05
0.00038765594
-5.1096658e-05
0.00043496337
-4.7307428e-05
0.00047581721
-4.085384e-05
0.00051628879
-4.0471578e-05
0.00055669324
-4.0404451e-05
0.00059120108
-3.4507844e-05
0.00062355686
-3.2355778e-05
0.0006561594
-3.2602537e-05
0.00069
-3.3840597e-05
0.00072673435
-3.6734352e-05
0.00075305361
-2.6319262e-05
0.00077085945
-1.7805835e-05
0.00079266443
-2.1804988e-05
0.00082084206
-2.8177628e-05
0.00084091965
-2.0077592e-05
0.00086678281
-2.5863155e-05
0.00090412699
-3.7344178e-05
0.00093140457
-2.7277581e-05
0.00093940082
-7.9962486e-06
0.00096118006
-2.1779243e-05
0.00095676693
4.4131303e-06
0.00095992925
-3.1623208e-06
0.00094302715
1.6902105e-05
0.00092137295
2.1654199e-05
0.00089540781
2.5965137e-05
1.9772414e-05
0.00087563539
-0.00059071771
-2.3167095e-05
0.00060762642
-0.00057116621
-4.1351263e-05
-0.00054808955
-7.318716e-05
-0.00052213434
-6.9794372e-05
-0.0004950344
-7.0996582e-05
-0.00046755258
-6.6604904e-05
-0.00043940865
-7.4236739e-05
-0.00041068415
-6.8303005e-05
-0.00038071564
-7.6187752e-05
-0.00034861064
-7.8971687e-05
-0.00031490312
-7.6501837e-05
-0.00027960726
-7.6553037e-05
-0.0002420247
-7.9691889e-05
-0.00020241066
-8.11336e-05
-0.00016059655
-8.4046507e-05
-0.00011553057
-8.8729423e-05
-6.7103732e-05
-9.2749102e-05
-1.6228368e-05
-9.6524014e-05
3.6984089e-05
-0.00010052962
9.2286026e-05
-0.00010448217
0.00014949338
-0.00010734707
0.00020831959
-0.00010782821
0.0002676203
-0.00010930398
0.00032670466
-0.00011018101
0.0003854205
-0.00010602327
0.00044329078
-9.8724115e-05
0.00049882564
-9.6006444e-05
0.00055146761
-9.3046416e-05
0.00060121256
-8.4252795e-05
0.00064738052
-7.8523736e-05
0.00068964832
-7.4870336e-05
0.00072789339
-7.208567e-05
0.00076173358
-7.0574538e-05
0.00079211524
-5.6700922e-05
0.00081986159
-4.5552193e-05
0.00084487392
-4.6817315e-05
0.00086700219
-5.0305895e-05
0.00088721949
-4.0294893e-05
0.00090546794
-4.4111602e-05
0.00092096572
-5.2841967e-05
0.00093422622
-4.0538077e-05
0.00094739826
-2.1168285e-05
0.00095913836
-3.3519343e-05
0.00097049883
-6.9473417e-06
0.00098081326
-1.3476752e-05
0.00098959233
8.1230361e-06
0.00099697561
1.4270917e-05
0.0010030347
1.9906077e-05
1.417732e-05
0.0010086298
-0.00065522943
-3.8322786e-05
0.00067038512
-0.00063661806
-5.9962632e-05
-0.00061518475
-9.4620476e-05
-0.00059220374
-9.2775383e-05
-0.00056808912
-9.5111203e-05
-0.00054312982
-9.1564199e-05
-0.00051700813
-0.00010035843
-0.00048984471
-9.5466429e-05
-0.00046104758
-0.00010498488
-0.00043000415
-0.00011001511
-0.00039669463
-0.00010981136
-0.00036097031
-0.00011227736
-0.00032241601
-0.00011824619
-0.00028104732
-0.00012250229
-0.00023670154
-0.00012839229
-0.00018865941
-0.00013677155
-0.00013666933
-0.00014473918
-8.1258054e-05
-0.00015193529
-2.2648943e-05
-0.00015913873
3.8773197e-05
-0.00016590431
0.00010262895
-0.00017120283
0.00016851549
-0.00017371474
0.00023532745
-0.00017611594
0.00030221014
-0.00017706371
0.00036877582
-0.00017258895
0.00043445984
-0.00016440813
0.00049790471
-0.00015945132
0.000558432
-0.00015357371
0.00061587896
-0.00014169975
0.00066944182
-0.0001320866
0.0007186249
-0.00012405341
0.00076312966
-0.00011659044
0.00080279172
-0.00011023659
0.00083864366
-9.2552869e-05
0.0008709581
-7.7866629e-05
0.00089928732
-7.5146538e-05
0.00092395813
-7.4976704e-05
0.00094618872
-6.2525479e-05
0.00096548165
-6.3404529e-05
0.00098186861
-6.9228931e-05
0.00099662038
-5.5289847e-05
0.0010101207
-3.4668556e-05
0.001020957
-4.4355661e-05
0.0010304894
-1.6479736e-05
0.0010378618
-2.084921e-05
0.0010441304
1.8545015e-06
0.0010491025
9.2988216e-06
0.0010535002
1.5508326e-05
1.0383452e-05
0.0010572941
-0.0006820107
-5.1727534e-05
0.00069541545
-0.00066769636
-7.4276969e-05
-0.00065227752
-0.00011003932
-0.00063527997
-0.00010977293
-0.00061685868
-0.00011353249
-0.00059693293
-0.00011148994
-0.00057534794
-0.00012194341
-0.000551862
-0.00011895237
-0.00052617056
-0.00013067633
-0.00049770856
-0.00013847711
-0.00046629162
-0.00014122829
-0.00043167668
-0.0001468923
-0.00039349753
-0.00015642534
-0.00035166809
-0.00016433173
-0.00030599403
-0.00017406634
-0.00025596242
-0.00018680316
-0.00020142806
-0.00019927354
-0.00014279569
-0.00021056766
-8.0321488e-05
-0.00022161293
-1.4443189e-05
-0.00023178261
5.4407307e-05
-0.00024005332
0.00012582352
-0.00024513096
0.00019865833
-0.00024895074
0.00027193172
-0.0002503371
0.00034510606
-0.0002457633
0.00041747934
-0.00023678141
0.00048758719
-0.00022955916
0.00055454291
-0.00022052943
0.00061802751
-0.00020518435
0.00067716765
-0.00019122673
0.00073137963
-0.00017826539
0.00078035663
-0.00016556744
0.00082392825
-0.00015380821
0.00086305922
-0.00013168384
0.00089799004
-0.00011279745
0.00092828997
-0.00010544647
0.00095421905
-0.00010090578
0.00097701749
-8.532392e-05
0.0009962927
-8.2679742e-05
0.0010121582
-8.509443e-05
0.00102615
-6.9281617e-05
0.0010392489
-4.7767464e-05
0.0010502715
-5.5378251e-05
0.0010610642
-2.7272445e-05
0.0010706105
-3.0395573e-05
0.0010803706
-7.9055849e-06
0.0010900745
-4.050066e-07
0.0011000388
5.5439386e-06
3.5269039e-07
0.0011100696
-0.00072824726
-6.445671e-05
0.00074097644
-0.00071475936
-8.7764869e-05
-0.00070029627
-0.00012450242
-0.00068463905
-0.00012543015
-0.00066767463
-0.00013049692
-0.00064920053
-0.00012996404
-0.00062894086
-0.00014220309
-0.0006065941
-0.00014129914
-0.0005818023
-0.00015546813
-0.00055400304
-0.00016627637
-0.00052288332
-0.00017234801
-0.00048812129
-0.00018165433
-0.0004493354
-0.00019521122
-0.00040630463
-0.0002073625
-0.00035881276
-0.00022155822
-0.00030649308
-0.00023912284
-0.00024917207
-0.00025659455
-0.00018710317
-0.00027263657
-0.00012054769
-0.00028816841
-4.9903635e-05
-0.00030242666
2.4298183e-05
-0.00031425514
0.00010128105
-0.00032211382
0.00017989356
-0.00032756326
0.00025918552
-0.00032962905
0.00033842145
-0.00032499923
0.00041672346
-0.00031508342
0.00049267769
-0.0003055134
0.00056532065
-0.00029317239
0.00063413983
-0.00027400353
0.00069824921
-0.00025533611
0.0007570394
-0.00023705558
0.00081018198
-0.00021871002
0.0008575225
-0.00020114874
0.00089978571
-0.00017394706
0.00093716496
-0.00015017669
0.00096940512
-0.00013768663
0.00099685607
-0.00012835673
0.0010205954
-0.00010906323
0.0010405095
-0.00010259385
0.0010569249
-0.00010150983
0.001071149
-8.350577e-05
0.001083997
-6.06154e-05
0.0010947607
-6.6141952e-05
0.0011050211
-3.7532886e-05
0.0011141049
-3.947941e-05
0.0011229429
-1.6743568e-05
0.0011313322
-8.7942923e-06
0.0011394883
-2.6121619e-06
-7.726776e-06
0.0011475678
-0.00077610965
-7.5388588e-05
0.00078704153
-0.00076448529
-9.9389233e-05
-0.0007517648
-0.00013722291
-0.00073775221
-0.00013944274
-0.00072224218
-0.00014600695
-0.00070499413
-0.00014721209
-0.00068564565
-0.00016155157
-0.00066391404
-0.00016303074
-0.00063936173
-0.00018002044
-0.00061147487
-0.00019416323
-0.00057992361
-0.00020389927
-0.00054433578
-0.00021724216
-0.00050429571
-0.00023525129
-0.00045954688
-0.00025211133
-0.00040984257
-0.00027126253
-0.00035482845
-0.00029413696
-0.00029435615
-0.00031706684
-0.00022866386
-0.00033832886
-0.00015805024
-0.00035878203
-8.299582e-05
-0.00037748108
-4.0686123e-06
-0.00039318235
7.8039121e-05
-0.00040422156
0.00016218119
-0.00041170533
0.00024728899
-0.00041473686
0.00033245813
-0.00041016836
0.00041668519
-0.00039931048
0.00049853981
-0.00038736802
0.00057696872
-0.0003716013
0.0006513264
-0.00034836121
0.00072070546
-0.00032471517
0.00078446275
-0.00030081288
0.00084223316
-0.00027648043
0.00089383682
-0.0002527524
0.00093985359
-0.00021996382
0.00098048251
-0.00019080561
0.0010155991
-0.00017280325
0.0010455648
-0.00015832239
0.001071346
-0.00013484442
0.0010930119
-0.00012425981
0.0011109544
-0.00011945228
0.0011263139
-9.8865236e-05
0.0011399124
-7.4213936e-05
0.001151395
-7.7624596e-05
0.0011621033
-4.8241122e-05
0.0011717382
-4.9114287e-05
0.0011812002
-2.6205659e-05
0.0011905998
-1.8193831e-05
0.00120008
-1.2092352e-05
-1.7220667e-05
0.0012095739
-0.00083045057
-8.5769592e-05
0.00084083158
-0.00081938878
-0.00011045102
-0.00080722143
-0.00014939026
-0.00079378523
-0.00015287894
-0.00077880053
-0.00016099165
-0.00076197867
-0.00016403395
-0.00074289759
-0.00018063265
-0.0007212401
-0.00018468823
-0.00069651406
-0.00020474648
-0.00066820102
-0.00022247627
-0.00063592304
-0.00023617725
-0.00059925876
-0.00025390643
-0.00055775766
-0.00027675239
-0.00051111753
-0.00029875147
-0.00045905787
-0.00032332219
-0.00040123367
-0.00035196116
-0.00033750433
-0.00038079619
-0.00026807856
-0.00040775462
-0.00019325426
-0.00043360634
-0.00011351981
-0.00045721553
-2.9507464e-05
-0.00047719469
5.8011617e-05
-0.00049174064
0.00014785316
-0.00050154688
0.00023886021
-0.0005057439
0.00033001805
-0.0005013262
0.00042021369
-0.00048950613
0.00050798278
-0.00047513711
0.00059220087
-0.00045581938
0.00067211115
-0.0004282715
0.00074676634
-0.00039937036
0.00081548986
-0.0003695364
0.00087788501
-0.00033887557
0.00093375803
-0.00030862542
0.00098359727
-0.00026980306
0.0010275817
-0.00023479002
0.0010656495
-0.00021087107
0.0010982017
-0.00019087462
0.0011261682
-0.00016281091
0.0011497027
-0.00014779429
0.0011692652
-0.00013901482
0.0011859659
-0.00011556592
0.0012006027
-8.8850739e-05
0.0012129592
-8.9981111e-05
0.0012242999
-5.9581817e-05
0.0012344265
-5.924089e-05
0.0012441945
-3.5973602e-05
0.0012536972
-2.7696537e-05
0.0012632075
-2.1602662e-05
-2.6837654e-05
0.0012728245
-0.00088794649
-9.5266679e-05
0.00089744357
-0.00087765444
-0.00012074307
-0.00086612424
-0.00016092045
-0.00085320178
-0.0001658014
-0.00083857781
-0.00017561562
-0.00082194411
-0.00018066765
-0.00080284419
-0.00019973256
-0.00078094667
-0.00020658575
-0.00075571626
-0.00022997689
-0.00072663336
-0.00025155917
-0.00069328824
-0.00026952237
-0.00065521906
-0.00029197561
-0.00061194083
-0.00032003062
-0.00056311621
-0.00034757609
-0.00050843558
-0.00037800281
-0.00044755077
-0.00041284597
-0.00038032768
-0.00044801928
-0.00030696155
-0.00048112076
-0.00022775856
-0.00051280932
-0.00014323095
-0.00054174314
-5.4059344e-05
-0.0005663663
3.8930164e-05
-0.00058473014
0.00013453896
-0.00059715567
0.00023153172
-0.00060273666
0.00032878166
-0.00059857614
0.00042507237
-0.00058579683
0.00051888901
-0.00056895375
0.00060902701
-0.00054595739
0.00069463001
-0.0005138745
0.00077471128
-0.00047945162
0.00084855549
-0.00044338061
0.00091573004
-0.00040605012
0.0009760168
-0.00036891218
0.0010298275
-0.00032361376
0.0010773436
-0.00028230614
0.0011185697
-0.00025209712
0.0011539205
-0.00022622539
0.0011842859
-0.00019317638
0.0012099057
-0.00017341403
0.0012312734
-0.00016038259
0.0012494421
-0.00013373462
0.0012652164
-0.00010462503
0.0012785141
-0.00010327879
0.0012905266
-7.1594264e-05
0.0013011809
-6.9895288e-05
0.0013113072
-4.6099832e-05
0.0013210855
-3.7474897e-05
0.0013308321
-3.1349178e-05
-3.665161e-05
0.001340646
-0.00094987519
-0.00010435385
0.00095896236
-0.0009399179
-0.00013070036
-0.00092864808
-0.00017219027
-0.00091589977
-0.00017854972
-0.0009013315
-0.00019018388
-0.00088460617
-0.00019739299
-0.00086523892
-0.00021909981
-0.00084286734
-0.00022895733
-0.00081692255
-0.00025592168
-0.00078686859
-0.00028161314
-0.00075225657
-0.00030413438
-0.00071258467
-0.00033164752
-0.0006673342
-0.00036528109
-0.00061613044
-0.00039877985
-0.00055863328
-0.00043549997
-0.00049448792
-0.00047699133
-0.00042356135
-0.00051894586
-0.00034603627
-0.00055864584
-0.00026222518
-0.00059662041
-0.00017266034
-0.00063130798
-7.8060505e-05
-0.00066096614
2.0684359e-05
-0.00068347501
0.00012232351
-0.00069879482
0.00022554584
-0.000705959
0.00032912572
-0.00070215602
0.00043174718
-0.00068841829
0.00053183806
-0.00066904463
0.00062811718
-0.00064223651
0.00071963498
-0.0006053923
0.00080535755
-0.00056517419
0.00088452907
-0.00052255213
0.0009566828
-0.00047820385
0.001021581
-0.00043381037
0.0010795791
-0.00038161185
0.0011308507
-0.00033357772
0.0011754389
-0.00029668538
0.0012137803
-0.00026456676
0.0012467502
-0.00022614627
0.0012746409
-0.00020130473
0.0012979862
-0.00018372788
0.0013178322
-0.00015358063
0.0013349823
-0.00012177518
0.0013494317
-0.00011772817
0.0013623475
-8.4510022e-05
0.001373713
-8.126085e-05
0.0013843549
-5.6741707e-05
0.0013944732
-4.7593151e-05
0.0014043945
-4.1270554e-05
-4.6525348e-05
0.0014142683
-0.0010154639
-0.00011301063
0.0010241207
-0.001005821
-0.00014034323
-0.00099475499
-0.00018325631
-0.0009820822
-0.00019122251
-0.00096744224
-0.00020482384
-0.00095047601
-0.00021435921
-0.00093067782
-0.00023889801
-0.00090765678
-0.00025197837
-0.00088081521
-0.00028276325
-0.00084959773
-0.00031283062
-0.00081351869
-0.00034021342
-0.00077203889
-0.00037312732
-0.00072460607
-0.00041271391
-0.00067080969
-0.00045257623
-0.00061028054
-0.00049602912
-0.00054265335
-0.00054461852
-0.00046779267
-0.00059380654
-0.00038587174
-0.00064056676
-0.0002972117
-0.00068528045
-0.00020236803
-0.00072615165
-0.0001021013
-0.00076123287
2.6401295e-06
-0.00078821643
0.00011055193
-0.00080670662
0.00022024668
-0.00081565376
0.00033040217
-0.00081231151
0.00043960275
-0.00079761887
0.00054620959
-0.00077565147
0.00064885979
-0.00074488671
0.00074651288
-0.00070304539
0.00083808404
-0.00065674536
0.00092277287
-0.00060724096
0.0010000755
-0.00055550649
0.0010697298
-0.00050346467
0.0011320418
-0.00044392387
0.001187184
-0.00038871992
0.001235238
-0.00034473938
0.0012766548
-0.00030598355
0.001312298
-0.00026178947
0.0013425148
-0.00023152155
0.0013678688
-0.00020908183
0.0013893909
-0.00017510276
0.0014078981
-0.00014028242
0.0014234602
-0.00013329027
0.0014372221
-9.8271908e-05
0.0014492311
-9.3269794e-05
0.0014603114
-6.7822048e-05
0.0014707035
-5.7985219e-05
0.0014807608
-5.1327852e-05
-5.6407015e-05
0.0014906424
-0.0010852496
-0.00012143724
0.0010936762
-0.0010757392
-0.00014985364
-0.0010647141
-0.00019428141
-0.0010519631
-0.00020397348
-0.0010371045
-0.00021968251
-0.0010197528
-0.00023171091
-0.00099938231
-0.00025926845
-0.00097556759
-0.00027579309
-0.00094768453
-0.00031064632
-0.00091515203
-0.00034536312
-0.00087744452
-0.00037792093
-0.00083398486
-0.00041658698
-0.00078418689
-0.00046251188
-0.00072760302
-0.0005091601
-0.0006638343
-0.00055979784
-0.00059250321
-0.00061594962
-0.00051346946
-0.00067284028
-0.0004268981
-0.00072713813
-0.00033311979
-0.00077905877
-0.00023271398
-0.00082655745
-0.00012648213
-0.00086746472
-1.5440215e-05
-0.00089925835
9.9051889e-05
-0.00092119872
0.00021553252
-0.00093213439
0.00033257439
-0.00092935338
0.00044866324
-0.00091370772
0.00056208747
-0.0008890757
0.00067140068
-0.00085419992
0.00077547277
-0.00080711748
0.00087316353
-0.00075443612
0.00096362607
-0.0006977035
0.0010463196
-0.0006382
0.0011209593
-0.00057810434
0.0011878116
-0.0005107762
0.001247046
-0.0004479543
0.001298773
-0.0003964664
0.0013434621
-0.00035067262
0.0013819763
-0.00030030375
0.0014147059
-0.00026425115
0.0014422475
-0.00023662338
0.0014656385
-0.00019849374
0.0014857064
-0.00016035036
0.0015025754
-0.00015015925
0.0015173885
-0.00011308497
0.0015302321
-0.00010611345
0.0015419394
-7.9529356e-05
0.0015527702
-6.8815959e-05
0.001563093
-6.1650692e-05
-6.6415033e-05
0.001573101
-0.0011591052
-0.00012967672
0.0011673447
-0.0011496732
-0.00015928562
-0.0011386241
-0.00020533056
-0.0011257156
-0.00021688197
-0.0011105479
-0.00023485021
-0.0010927103
-0.00024954853
-0.0010716583
-0.00028032048
-0.0010469306
-0.00030052075
-0.0010178777
-0.00033969922
-0.00098388939
-0.00037935142
-0.00094439931
-0.00041741101
-0.00089879222
-0.00046219407
-0.00084644714
-0.00051485696
-0.0007868788
-0.00056872844
-0.00071965819
-0.00062701844
-0.0006443936
-0.00069121421
-0.00056093785
-0.00075629604
-0.00046944901
-0.00081862697
-0.00037026881
-0.00087823896
-0.00026400282
-0.00093282345
-0.00015149666
-0.00097997088
-3.383132e-05
-0.0010169237
8.7569269e-05
-0.0010425993
0.00021116422
-0.0010557293
0.00033542251
-0.0010536117
0.00045872798
-0.0010370132
0.00057928896
-0.0010096367
0.00069557093
-0.00097048189
0.00080635297
-0.00091789951
0.00091043491
-0.00085851806
0.0010069196
-0.00079418824
0.0010952268
-0.00072650718
0.0011750463
-0.00065792379
0.0012466084
-0.00058233836
0.0013100811
-0.00051142695
0.0013656021
-0.00045198739
0.0014136574
-0.00039872799
0.0014551132
-0.0003417595
0.0014904034
-0.00029954136
0.0015201557
-0.00026637567
0.0015454132
-0.00022375123
0.0015670225
-0.00018195966
0.0015851615
-0.00016829829
0.0016009747
-0.00012889813
0.001614591
-0.00011972983
0.0016268539
-9.1792181e-05
0.0016380487
-8.0010755e-05
0.001648563
-7.2165068e-05
-7.6451365e-05
0.0016585994
-0.001237409
-0.00013783341
0.0012455657
-0.0012279577
-0.00016873696
-0.0012167915
-0.00021649678
-0.0012036328
-0.00023004063
-0.001188062
-0.00025042101
-0.0011696405
-0.00026797007
-0.0011478041
-0.00030215683
-0.0011220527
-0.00032627219
-0.0010917107
-0.00037004122
-0.001056135
-0.00041492709
-0.0010147161
-0.00045882989
-0.00096679925
-0.00051011094
-0.00091172738
-0.00056992883
-0.00084897614
-0.00063147968
-0.00077808548
-0.00069790911
-0.00069864803
-0.00077065166
-0.0006105082
-0.00084443586
-0.00051381804
-0.00091531713
-0.00040893153
-0.00098312547
-0.00029648236
-0.0010452726
-0.00017736303
-0.0010990902
-5.2719735e-05
-0.001141567
7.5953088e-05
-0.0011712721
0.0002070286
-0.0011868049
0.00033887111
-0.0011854542
0.00046975899
-0.0011679011
0.00059781388
-0.0011376916
0.00072140922
-0.0010940772
0.00083923161
-0.0010357219
0.00095001683
-0.00096930329
0.0010528151
-0.00089698648
0.0011470056
-0.00082069769
0.0012322532
-0.0007431714
0.0013087576
-0.00065884272
0.0013766856
-0.000579355
0.0014361999
-0.00051150171
0.0014878062
-0.00045033426
0.0015323802
-0.00038633347
0.0015703966
-0.00033755781
0.0016025168
-0.0002984958
0.0016297998
-0.00025103429
0.0016531115
-0.00020527136
0.0016726759
-0.00018786267
0.0016896477
-0.00014586998
0.0017041893
-0.00013427136
0.0017171588
-0.00010476171
0.0017288605
-9.1712418e-05
0.0017396978
-8.3002395e-05
-8.6651216e-05
0.0017498976
-0.0013202672
-0.00014595473
0.0013283885
-0.0013107457
-0.00017825844
-0.0012994067
-0.00022783584
-0.0012859345
-0.00024351278
-0.0012698899
-0.0002664656
-0.0012508055
-0.00028705452
-0.0012280967
-0.00032486566
-0.0012012223
-0.00035314653
-0.0011694801
-0.00040178341
-0.0011321909
-0.00045221628
-0.0010887001
-0.00050232069
-0.0010383121
-0.00056049896
-0.0009803321
-0.00062790885
-0.00091419521
-0.00069761657
-0.00083940929
-0.00077269502
-0.00075554982
-0.00085451113
-0.00066245148
-0.0009375342
-0.00056026098
-0.0010175076
-0.00044934595
-0.0010940405
-0.0003303704
-0.0011642482
-0.00020427642
-0.0012251842
-7.2278214e-05
-0.0012735652
6.40542e-05
-0.0013076045
0.0002030027
-0.0013257534
0.00034282349
-0.001325275
0.00048168513
-0.0013067627
0.00061761567
-0.0012736221
0.00074889143
-0.001225353
0.00087410365
-0.0011609341
0.00099191939
-0.001087119
0.0011013326
-0.0010063997
0.0012016797
-0.00092104482
0.0012925987
-0.00083409039
0.0013742604
-0.00074050443
0.0014468312
-0.00065192576
0.001510497
-0.0005751675
0.0015657831
-0.0005056204
0.001613578
-0.00043412839
0.0016543978
-0.00037837757
0.0016889377
-0.00033303574
0.0017182751
-0.00028037167
0.0017432999
-0.00023029619
0.0017642831
-0.00020884586
0.0017823934
-0.00016398021
0.0017978285
-0.00014970651
0.0018114641
-0.00011839727
0.001823626
-0.00010387432
0.0018347353
-9.411175e-05
-9.6946393e-05
0.0018450305
-0.001408021
-0.00015410594
0.0014161722
-0.0013983656
-0.00018791386
-0.0013867892
-0.00023941218
-0.001372936
-0.00025736601
-0.0013563452
-0.00028305637
-0.0013365187
-0.00030688103
-0.0013128499
-0.00034853448
-0.0012847542
-0.00038124222
-0.001251501
-0.00043503666
-0.0012123718
-0.00049134549
-0.0011666645
-0.00054802794
-0.0011136407
-0.00061352275
-0.001052566
-0.00068898353
-0.00098283327
-0.00076734934
-0.00090391678
-0.00085161151
-0.00081537345
-0.00094305447
-0.00071702703
-0.0010358806
-0.00060901957
-0.0011255151
-0.00049173365
-0.0012113264
-0.00036586575
-0.0012901161
-0.00023241044
-0.0013586395
-9.2653293e-05
-0.0014133223
5.1755052e-05
-0.0014520129
0.00019899949
-0.0014729978
0.0003472236
-0.0014734991
0.0004944813
-0.0014540204
0.00063870022
-0.001417841
0.00077805443
-0.0013647072
0.00091103644
-0.0012939161
0.0010362402
-0.0012123228
0.0011526003
-0.0011227597
0.0012594087
-0.0010278533
0.0013562761
-0.00093095781
0.0014433474
-0.00082757575
0.0015207896
-0.00072936788
0.0015888117
-0.00064318964
0.0016479617
-0.00056477037
0.0016991456
-0.00048531229
0.0017429213
-0.0004221533
0.001780021
-0.00037013547
0.0018115464
-0.00031189706
0.0018384137
-0.00025716343
0.0018609382
-0.00023137041
0.0018803077
-0.00018334971
0.0018967524
-0.0001661512
0.0019111678
-0.00013281274
0.0019238998
-0.00011660627
0.0019353867
-0.00010559867
-0.00010744705
0.0019458874
-0.0015008937
-0.00016232859
0.0015091164
-0.0014910605
-0.00019774703
-0.0014791989
-0.00025127384
-0.0014649102
-0.00027165473
-0.0014477115
-0.00030025507
-0.0014270722
-0.00032752029
-0.0014023621
-0.00037324457
-0.001372951
-0.00041065331
-0.0013380781
-0.00046990956
-0.0012969827
-0.00053244093
-0.0012489128
-0.00059609776
-0.0011930852
-0.00066935041
-0.0011287236
-0.00075334515
-0.0010551766
-0.00084089628
-0.00097188371
-0.00093490443
-0.00087838162
-0.0010365566
-0.00077448216
-0.0011397801
-0.00066032329
-0.001239674
-0.00053630381
-0.0013353459
-0.00040315507
-0.0014232648
-0.00026192723
-0.0014998673
-0.00011398111
-0.0015612685
3.8946776e-05
-0.0016049408
0.00019493854
-0.0016289896
0.00035201982
-0.0016305804
0.00050812446
-0.001610125
0.00066107247
-0.0015707891
0.00080892998
-0.0015125647
0.00095008665
-0.0014350728
0.0010830584
-0.0013452945
0.0012067169
-0.0012464182
0.0013203073
-0.0011414437
0.0014234113
-0.0010340618
0.001516149
-0.00092031354
0.0015986884
-0.00081190721
0.0016712612
-0.00071576245
0.0017344386
-0.00062794782
0.0017891473
-0.00054002099
0.0018359879
-0.00046899386
0.001875731
-0.00040987857
0.0019095054
-0.00034567142
0.0019382573
-0.00028591533
0.0019623479
-0.00025546108
0.0019829874
-0.00020398923
0.0020004408
-0.00018360457
0.0020156261
-0.00014799797
0.0020289111
-0.00012989136
0.0020407535
-0.00011744102
-0.00011812024
0.0020514267
-0.0015992292
-0.00017066948
0.0016075701
-0.0015891704
-0.00020780587
-0.0015769723
-0.00026347194
-0.0015621918
-0.00028643526
-0.001544322
-0.00031812489
-0.0015227979
-0.00034904436
-0.0014969637
-0.0003990788
-0.0014661411
-0.00044147592
-0.001429537
-0.00050651365
-0.0013863453
-0.00057563263
-0.0013357617
-0.00064668131
-0.0012769554
-0.00072815673
-0.0012091062
-0.00082119435
-0.0011315163
-0.00091848616
-0.0010435885
-0.0010228323
-0.00094483774
-0.0011353073
-0.00083506309
-0.0012495547
-0.00071439876
-0.0013603383
-0.00058326128
-0.0014664834
-0.0004424192
-0.0015641069
-0.00029298158
-0.001649305
-0.00013638871
-0.0017178613
2.5531542e-05
-0.001766861
0.0001907523
-0.0017942103
0.00035717539
-0.0017970034
0.00052260854
-0.0017755582
0.00068475688
-0.0017329374
0.00084157253
-0.0016693804
0.00099133772
-0.001584838
0.0011324855
-0.0014864423
0.0012638209
-0.0013777537
0.0013845402
-0.0012621629
0.0014941949
-0.0011437165
0.0015928823
-0.0010190009
0.0016807718
-0.00089979673
0.0017581188
-0.00079310942
0.0018255203
-0.00069534941
0.0018839279
-0.0005984286
0.0019339868
-0.00051905267
0.001976509
-0.00045240085
0.0020126555
-0.00038181793
0.0020434054
-0.00031666524
0.0020691662
-0.00028122183
0.0020911741
-0.00022599715
0.0021097286
-0.00020215901
0.0021257724
-0.00016404179
0.002139696
-0.00014381503
0.0021519768
-0.00012972179
-0.00012905159
0.0021629082
-0.0017033268
-0.00017916451
0.0017118218
-0.0016930036
-0.00021812906
-0.0016804255
-0.00027605002
-0.0016651028
-0.00030175792
-0.0016465032
-0.00033672454
-0.0016240254
-0.00037152219
-0.0015969857
-0.00042611846
-0.0015646555
-0.00047380611
-0.0015262071
-0.00054496206
-0.0014807859
-0.00062105387
-0.0014275324
-0.00069993481
-0.0013655658
-0.00079012331
-0.0012940193
-0.00089274079
-0.0012121466
-0.0010003589
-0.0011193117
-0.0011156672
-0.0010150067
-0.0012396123
-0.00089901647
-0.001365545
-0.00077147217
-0.0014878826
-0.00063280936
-0.0016051462
-0.0004838364
-0.0017130798
-0.00032572481
-0.0018074165
-0.00015999888
-0.0018835873
1.1416557e-05
-0.0019382765
0.00018637897
-0.0019691727
0.00036265977
-0.0019732843
0.00053793417
-0.0019508326
0.0007097848
-0.001904788
0.0008760433
-0.0018356389
0.0010348793
-0.001743674
0.0011846378
-0.0016362008
0.0013240532
-0.0015171691
0.0014522701
-0.0013903798
0.0015688087
-0.0012602551
0.0016737436
-0.0011239358
0.0017672466
-0.00099329979
0.0018495967
-0.00087545954
0.0019214185
-0.0007671712
0.0019836911
-0.00066070116
0.0020371058
-0.00057246735
0.0020825186
-0.00049781365
0.0021211256
-0.00042042492
0.0021539422
-0.00034948185
0.0021814237
-0.00030870339
0.0022048362
-0.00024940968
0.0022245157
-0.00022183851
0.0022414325
-0.00018095858
0.0022560018
-0.00015838435
0.0022687226
-0.00014244254
-0.00014023529
0.0022799063
-0.0018135535
-0.00018785091
0.0018222399
-0.0018029258
-0.00022875672
-0.0017899229
-0.00028905296
-0.0017740063
-0.00031767447
-0.0017546166
-0.00035611431
-0.0017311139
-0.00039502484
-0.0017027849
-0.00045444751
-0.0016688475
-0.0005077435
-0.0016284371
-0.00058537248
-0.0015806472
-0.00066884371
-0.0015245605
-0.00075602156
-0.0014592431
-0.00085544067
-0.0013837791
-0.0009682048
-0.0012973709
-0.0010867671
-0.0011993419
-0.0012136961
-0.0010891595
-0.0013497947
-0.00096659371
-0.0014881108
-0.00083177289
-0.0016227034
-0.00068515316
-0.0017517659
-0.00052758531
-0.0018706477
-0.00036030712
-0.0019746947
-0.00018493165
-0.0020589627
-3.4870524e-06
-0.0021197211
0.00018176182
-0.0021544216
0.00036844919
-0.0021599716
0.00055411037
-0.0021364938
0.00073619774
-0.0020868754
0.00091241548
-0.0020118566
0.0010808151
-0.0019120736
0.001239648
-0.0017950337
0.0013875741
-0.0016650952
0.0015236835
-0.0015264893
0.0016474635
-0.0013840351
0.0017589672
-0.0012354394
0.0018583695
-0.0010927021
0.0019459739
-0.0009630639
0.0020224349
-0.00084363227
0.0020887633
-0.0007270295
0.002145699
-0.00062940306
0.0021941452
-0.00054625986
0.0022353377
-0.00046161738
0.0022703316
-0.0003844758
0.0022996319
-0.00033800368
0.0023245378
-0.00027431564
0.0023454233
-0.000242724
0.0023632885
-0.00019882376
0.0023785747
-0.00017367049
0.0023918037
-0.00015567163
-0.00015174023
0.0024033087
-0.0019302678
-0.00019676073
0.0019391776
-0.0019192999
-0.00023972469
-0.0019058305
-0.00030252236
-0.0018892706
-0.00033423432
-0.0018690315
-0.00037635338
-0.001844433
-0.00041962336
-0.0018147293
-0.00048415124
-0.0017790825
-0.0005433903
-0.0017365882
-0.00062786679
-0.001686285
-0.0007191469
-0.0016271941
-0.00081511244
-0.0015583261
-0.00092430863
-0.0014787128
-0.0010478182
-0.0013875026
-0.0011779773
-0.0012839765
-0.0013172222
-0.0011675752
-0.0014661961
-0.001038053
-0.001617633
-0.00089553582
-0.0017652206
-0.00074050192
-0.0019067998
-0.00057384729
-0.0020373023
-0.00039687992
-0.0021516621
-0.00021130639
-0.0022445363
-1.9266461e-05
-0.002311761
0.00017684691
-0.002350535
0.00037452443
-0.0023576491
0.00057115222
-0.0023331216
0.00076404448
-0.0022797677
0.0009507707
-0.0021985828
0.0011292581
-0.002090561
0.001297659
-0.0019634346
0.0014545542
-0.0018219904
0.0015989765
-0.0016709116
0.0017303787
-0.0015154373
0.0018487926
-0.0013538533
0.0019543968
-0.0011983063
0.00204752
-0.0010561871
0.0021288487
-0.00092496098
0.0021994282
-0.00079760903
0.0022600495
-0.00069002439
0.0023116656
-0.00059787593
0.0023555555
-0.00050550728
0.0023928176
-0.0004217379
0.0024240085
-0.00036919455
0.0024504643
-0.00030077144
0.002472599
-0.00026485874
0.0024914456
-0.00021767028
0.0025074734
-0.00018969835
0.0025212297
-0.00016942792
-0.00016357921
0.0025330687
-0.0020538741
-0.00020592642
0.0020630398
-0.0020425292
-0.0002510696
-0.0020285506
-0.00031650093
-0.0020112965
-0.00035148845
-0.0019901469
-0.00039750295
-0.0019643787
-0.00044539159
-0.0019332114
-0.00051531853
-0.0018957482
-0.00058085347
-0.0018510423
-0.00067257274
-0.0017980736
-0.00077211555
-0.0017357989
-0.00087738717
-0.0016631696
-0.00099693788
-0.0015791623
-0.0011318255
-0.0014828688
-0.0012742707
-0.0013735251
-0.001426566
-0.0012505435
-0.0015891776
-0.0011136616
-0.0017545149
-0.00096300352
-0.0019158787
-0.00079907103
-0.0020707323
-0.0006228083
-0.0022135651
-0.00043559779
-0.0023388726
-0.00023924532
-0.0024408887
-3.6008101e-05
-0.0025149982
0.00017158437
-0.0025581275
0.00038087076
-0.0025669355
0.00058908075
-0.0025413316
0.00079338145
-0.0024840684
0.00099119991