/*--------------------------------*- C++ -*----------------------------------*\
| =========                 |                                                 |
| \\      /  F ield         | OpenFOAM: The Open Source CFD Toolbox           |
|  \\    /   O peration     | Version:  v2006                                 |
|   \\  /    A nd           | Website:  www.openfoam.com                      |
|    \\/     M anipulation  |                                                 |
\*---------------------------------------------------------------------------*/
FoamFile
{
    version     2.0;
    format      ascii;
    class       volScalarField;
    location    "4500";
    object      pMean;
}
// * * * * * * * * * * * * * * * * * * * * * * * * * * * * * * * * * * * * * //

dimensions      [1 -1 -2 0 0 0 0];


internalField   nonuniform List<scalar> 
19765
(
1.0005355
1.0008218
1.0016449
1.0022145
1.0027836
1.0032095
1.003725
1.0040211
1.0044135
1.0047382
1.0049634
1.0051369
1.0052815
1.0053626
1.0053953
1.0053967
1.0053654
1.0052987
1.0051964
1.0050577
1.004879
1.0046627
1.0044273
1.0041492
1.0038106
1.0034568
1.0031495
1.0027987
1.0023597
1.001961
1.001543
1.0010384
1.0004684
0.99971905
0.99911069
0.99867504
0.99811882
0.99728389
0.99669846
0.99604703
0.99498664
0.99407072
0.99390742
0.99309062
0.993104
0.99283074
0.99303795
0.99336927
0.99379786
1.0016541
1.0018033
1.0019961
1.0022316
1.0024827
1.0027265
1.0029823
1.0031996
1.0034266
1.003654
1.0038495
1.004014
1.0041666
1.0042779
1.0043461
1.0043973
1.0044238
1.0044116
1.0043682
1.0042882
1.0041731
1.0040306
1.003852
1.0036387
1.0033987
1.0031347
1.0028364
1.0025084
1.0021561
1.0017771
1.0013738
1.0009506
1.0005109
1.0000673
0.99962791
0.99918424
0.99872887
0.99827763
0.99785975
0.99746631
0.99711677
0.9968277
0.99655176
0.99631232
0.99613961
0.99599158
0.9958766
0.99577089
0.99566403
1.0016173
1.0018092
1.0020277
1.0022469
1.0024651
1.0026715
1.0028744
1.0030504
1.0032242
1.0033867
1.0035325
1.0036614
1.0037777
1.0038686
1.0039312
1.0039749
1.003998
1.0039924
1.0039565
1.0038888
1.0037892
1.0036601
1.0034996
1.0033068
1.0030869
1.0028428
1.0025691
1.0022676
1.0019434
1.0015954
1.0012276
1.0008461
1.0004577
1.0000676
0.99966998
0.99926748
0.9988715
0.99848434
0.99810547
0.99774732
0.99741291
0.99708579
0.99677498
0.99648736
0.99622574
0.99601178
0.99582245
0.99565977
0.99550961
1.0018291
1.0019559
1.0020867
1.0022266
1.0023706
1.002515
1.0026603
1.0027945
1.0029294
1.0030611
1.0031806
1.0032874
1.0033851
1.0034631
1.0035176
1.0035576
1.003582
1.0035819
1.003555
1.0034997
1.0034171
1.0033118
1.0031806
1.0030203
1.0028358
1.0026308
1.002401
1.0021459
1.0018714
1.0015779
1.0012686
1.0009494
1.0006249
1.0003008
0.99997183
0.99964085
0.99931871
0.99900941
0.99870786
0.99842664
0.9981698
0.99791944
0.99767205
0.99744879
0.99722816
0.99702442
0.99681691
0.996613
0.99641352
1.0017538
1.0018692
1.0019863
1.0021029
1.0022177
1.0023293
1.0024401
1.0025416
1.0026431
1.0027427
1.0028337
1.0029153
1.0029901
1.0030506
1.0030925
1.0031223
1.0031401
1.003138
1.0031131
1.0030637
1.0029887
1.0028914
1.0027694
1.00262
1.0024478
1.002257
1.0020445
1.0018091
1.0015562
1.0012878
1.0010059
1.0007155
1.0004201
1.000125
0.99982843
0.99953229
0.99924271
0.9989627
0.99868977
0.9984305
0.99818544
0.99794439
0.99770535
0.99747936
0.9972527
0.99703466
0.99681839
0.99660837
0.99640395
1.001744
1.0018274
1.0019135
1.0019997
1.0020859
1.0021702
1.0022554
1.0023338
1.0024133
1.0024916
1.0025633
1.0026275
1.0026863
1.0027334
1.0027654
1.002787
1.0027979
1.0027918
1.0027659
1.0027188
1.0026495
1.002561
1.0024515
1.0023182
1.0021646
1.0019942
1.0018048
1.0015956
1.0013714
1.0011339
1.0008853
1.0006299
1.0003709
1.0001126
0.99985402
0.99959686
0.99934593
0.99910366
0.99886845
0.99864492
0.99843346
0.99822632
0.99802253
0.99782728
0.99763206
0.99744094
0.99724766
0.99705265
0.9968587
1.0016618
1.001733
1.0018059
1.001877
1.0019466
1.0020138
1.0020813
1.002143
1.0022054
1.0022669
1.0023231
1.0023731
1.0024185
1.0024545
1.0024778
1.0024922
1.0024972
1.0024874
1.0024604
1.0024146
1.002349
1.0022657
1.0021632
1.002039
1.001896
1.0017375
1.0015616
1.0013678
1.0011605
1.0009412
1.000712
1.0004764
1.0002372
0.99999826
0.99975937
0.99952187
0.99928929
0.99906366
0.99884387
0.99863304
0.99843106
0.99823276
0.9980366
0.99784614
0.99765505
0.997466
0.99727451
0.99708156
0.99688733
1.0016011
1.0016564
1.0017141
1.0017702
1.0018254
1.0018785
1.0019321
1.001981
1.0020305
1.0020793
1.0021235
1.0021624
1.0021973
1.0022241
1.0022401
1.002248
1.0022475
1.0022338
1.002205
1.0021595
1.0020965
1.0020175
1.0019213
1.0018059
1.0016736
1.001527
1.0013649
1.001187
1.000997
1.0007965
1.0005875
1.000373
1.0001555
0.99993859
0.99972211
0.99950731
0.99929714
0.99909335
0.99889511
0.99870493
0.99852285
0.99834457
0.99816897
0.99799838
0.99782785
0.99765901
0.99748796
0.99731505
0.99714043
1.0015207
1.0015669
1.0016152
1.0016616
1.0017068
1.00175
1.0017935
1.0018328
1.0018725
1.0019114
1.0019463
1.0019765
1.002003
1.0020225
1.0020325
1.0020352
1.0020302
1.0020134
1.0019831
1.0019377
1.0018766
1.0018009
1.0017093
1.0016005
1.001476
1.0013383
1.0011863
1.00102
1.0008426
1.0006557
1.0004609
1.000261
1.0000581
0.99985537
0.99965293
0.9994519
0.99925466
0.9990628
0.99887567
0.99869527
0.99852155
0.99835136
0.9981834
0.99801962
0.99785587
0.99769338
0.99752895
0.9973627
0.99719436
1.0014502
1.0014873
1.0015266
1.0015642
1.001601
1.0016359
1.0016711
1.0017025
1.0017344
1.0017653
1.0017926
1.0018156
1.0018353
1.0018486
1.0018535
1.0018518
1.0018429
1.0018233
1.0017914
1.001746
1.0016863
1.0016132
1.0015256
1.0014225
1.001305
1.0011753
1.0010326
1.0008769
1.0007112
1.0005368
1.0003554
1.0001694
0.99998084
0.99979246
0.99960452
0.99941809
0.99923527
0.99905752
0.99888431
0.9987174
0.99855686
0.99840001
0.99824572
0.99809563
0.99794614
0.99779825
0.99764904
0.99749854
0.99734658
1.0013757
1.0014066
1.0014394
1.0014707
1.001501
1.0015296
1.0015584
1.0015838
1.0016093
1.0016339
1.0016552
1.0016725
1.0016866
1.001695
1.0016957
1.0016904
1.0016782
1.0016563
1.0016232
1.0015777
1.0015192
1.0014483
1.0013641
1.0012657
1.001154
1.0010309
1.0008959
1.000749
1.0005928
1.0004287
1.000258
1.0000831
0.99990567
0.99972825
0.99955114
0.99937533
0.99920266
0.99903448
0.99887035
0.99871179
0.99855889
0.99840954
0.99826258
0.99811962
0.9979774
0.99783684
0.99769539
0.99755302
0.99740927
1.0013075
1.0013327
1.0013597
1.0013853
1.0014102
1.0014334
1.0014568
1.0014771
1.0014975
1.0015168
1.001533
1.0015456
1.0015551
1.0015592
1.0015565
1.001548
1.0015331
1.0015092
1.001475
1.0014295
1.001372
1.0013031
1.0012217
1.0011274
1.0010209
1.0009038
1.0007755
1.0006364
1.0004889
1.0003339
1.000173
1.0000082
0.99984116
0.99967411
0.99950742
0.99934207
0.99917974
0.99902169
0.99886757
0.99871878
0.99857548
0.99843587
0.99829888
0.99816606
0.99803439
0.9979048
0.99777491
0.99764471
0.99751383
1.0012404
1.0012612
1.0012837
1.0013049
1.0013254
1.0013444
1.0013634
1.0013796
1.0013957
1.0014107
1.0014228
1.0014315
1.0014372
1.0014379
1.0014322
1.0014211
1.001404
1.0013784
1.0013434
1.0012979
1.0012413
1.0011741
1.0010954
1.0010047
1.0009027
1.0007907
1.0006684
1.0005362
1.0003961
1.0002491
1.0000967
0.99994062
0.99978241
0.99962414
0.99946618
0.99930945
0.99915551
0.99900551
0.99885915
0.9987177
0.99858137
0.99844865
0.99831852
0.99819253
0.99806787
0.99794548
0.99782321
0.99770107
0.99757853
1.0011779
1.0011949
1.0012135
1.0012308
1.0012476
1.0012629
1.0012782
1.001291
1.0013035
1.0013148
1.0013234
1.0013287
1.0013312
1.001329
1.0013208
1.0013076
1.0012885
1.0012616
1.0012259
1.0011805
1.0011248
1.0010591
1.0009828
1.0008953
1.0007974
1.0006901
1.0005732
1.0004471
1.0003137
1.000174
1.0000292
0.99988111
0.99973102
0.99958089
0.99943111
0.99928258
0.99913675
0.99899473
0.99885625
0.99872253
0.99859382
0.9984688
0.99834653
0.99822855
0.99811223
0.99799851
0.99788538
0.99777292
0.99766062
1.0011181
1.001132
1.0011473
1.0011616
1.0011752
1.0011876
1.0011997
1.0012096
1.0012191
1.0012273
1.001233
1.0012355
1.0012353
1.0012306
1.0012204
1.0012053
1.0011846
1.0011567
1.0011204
1.0010752
1.0010203
1.0009561
1.0008819
1.0007974
1.0007032
1.0006001
1.0004881
1.0003676
1.0002403
1.0001071
0.99996916
0.99982821
0.99968541
0.99954258
0.99940009
0.99925884
0.99912016
0.99898509
0.9988534
0.99872623
0.99860384
0.9984851
0.99836915
0.99825748
0.99814764
0.99804058
0.99793447
0.9978294
0.99772481
1.001062
1.0010733
1.0010858
1.0010973
1.0011083
1.0011181
1.0011276
1.0011349
1.0011418
1.0011474
1.0011506
1.0011507
1.0011481
1.0011414
1.0011294
1.0011128
1.0010908
1.001062
1.0010254
1.0009803
1.0009263
1.0008635
1.0007913
1.0007096
1.0006187
1.0005195
1.000412
1.0002966
1.0001748
1.0000476
0.99991599
0.99978162
0.99964557
0.99950951
0.99937385
0.99923944
0.99910756
0.99897918
0.99885413
0.99873347
0.9986175
0.99850523
0.99839585
0.99829085
0.99818791
0.998088
0.99798938
0.99789222
0.99779594
1.0010089
1.0010179
1.0010281
1.0010374
1.0010461
1.0010536
1.0010608
1.0010661
1.0010707
1.0010741
1.0010751
1.0010732
1.0010686
1.0010601
1.0010467
1.0010287
1.0010057
1.0009762
1.0009393
1.0008945
1.0008413
1.0007799
1.0007096
1.0006304
1.0005427
1.000447
1.0003437
1.000233
1.0001164
0.99999463
0.99986889
0.99974058
0.99961074
0.99948094
0.99935157
0.99922348
0.99909784
0.9989756
0.99885658
0.9987418
0.99863157
0.99852501
0.99842137
0.99832211
0.99822505
0.99813114
0.9980388
0.99794819
0.99785873
1.000959
1.0009661
1.0009742
1.0009815
1.0009882
1.0009938
1.0009991
1.0010025
1.0010052
1.0010067
1.0010058
1.0010021
1.0009959
1.0009858
1.0009711
1.0009521
1.0009282
1.0008981
1.0008612
1.0008167
1.0007643
1.0007042
1.0006358
1.0005589
1.0004741
1.0003819
1.0002824
1.0001761
1.0000642
0.99994759
0.99982729
0.99970462
0.99958059
0.99945666
0.9993332
0.99921107
0.99909136
0.99897497
0.99886176
0.9987527
0.99864808
0.99854715
0.99844923
0.9983557
0.99826454
0.99817668
0.99809062
0.99800659
0.99792398
1.0009119
1.0009173
1.0009237
1.0009292
1.0009343
1.0009382
1.0009418
1.0009436
1.0009446
1.0009444
1.0009419
1.0009367
1.000929
1.0009177
1.000902
1.000882
1.0008574
1.0008269
1.0007899
1.0007459
1.0006944
1.0006355
1.0005688
1.0004943
1.0004122
1.0003231
1.0002273
1.000125
1.0000176
0.99990583
0.9997906
0.99967322
0.99955464
0.9994362
0.99931831
0.99920177
0.99908763
0.99897673
0.99886895
0.9987652
0.99866579
0.99857004
0.99847732
0.99838896
0.99830307
0.99822055
0.99814001
0.9980617
0.99798499
1.0008674
1.0008715
1.0008763
1.0008804
1.0008839
1.0008864
1.0008885
1.0008889
1.0008885
1.0008868
1.0008829
1.0008764
1.0008675
1.000855
1.0008384
1.0008177
1.0007926
1.0007618
1.0007249
1.0006812
1.0006306
1.000573
1.000508
1.0004356
1.0003562
1.0002701
1.0001777
1.0000793
0.99997611
0.9998688
0.99975837
0.99964597
0.99953251
0.99941928
0.99930665
0.99919541
0.99908657
0.9989809
0.99887832
0.99877969
0.9986853
0.99859455
0.99850688
0.99842355
0.99834279
0.99826546
0.99819029
0.99811751
0.99804651
1.0008255
1.0008283
1.0008318
1.0008346
1.0008368
1.0008381
1.0008388
1.000838
1.0008363
1.0008333
1.0008282
1.0008206
1.0008106
1.0007972
1.0007798
1.0007586
1.000733
1.000702
1.0006653
1.0006221
1.0005724
1.000516
1.0004527
1.0003824
1.0003054
1.0002222
1.000133
1.0000383
0.99993909
0.99983605
0.99973013
0.99962245
0.99951385
0.99940554
0.9992979
0.99919169
0.99908787
0.99898716
0.9988895
0.9987957
0.99870604
0.99861998
0.99853701
0.99845832
0.99838225
0.99830965
0.99823931
0.99817147
0.99810552
1.0007858
1.0007876
1.0007899
1.0007916
1.0007927
1.0007928
1.0007924
1.0007905
1.0007877
1.0007836
1.0007775
1.0007689
1.000758
1.0007438
1.0007258
1.0007041
1.0006781
1.0006471
1.0006105
1.000568
1.0005191
1.000464
1.0004022
1.0003339
1.0002593
1.0001789
1.0000928
1.0000016
0.99990614
0.99980715
0.99970553
0.9996023
0.99949832
0.99939468
0.9992918
0.99919038
0.99909135
0.99899537
0.99890242
0.99881323
0.9987281
0.99864655
0.99856808
0.99849384
0.99842228
0.99835419
0.99828845
0.99822531
0.99816416
1.0007483
1.0007491
1.0007505
1.0007511
1.0007512
1.0007504
1.000749
1.0007462
1.0007424
1.0007373
1.0007302
1.0007209
1.0007091
1.0006943
1.0006758
1.0006537
1.0006275
1.0005965
1.0005602
1.0005182
1.0004703
1.0004163
1.0003562
1.0002898
1.0002176
1.0001398
1.0000566
0.99996872
0.99987687
0.99978173
0.99968419
0.99958522
0.99948562
0.99938644
0.99928808
0.99919123
0.99909676
0.99900529
0.99891681
0.99883202
0.99875118
0.99867387
0.99859965
0.99852956
0.99846218
0.99839825
0.99833672
0.99827785
0.998221
1.0007128
1.0007128
1.0007132
1.000713
1.0007122
1.0007106
1.0007083
1.0007046
1.0007
1.0006941
1.0006862
1.0006761
1.0006637
1.0006483
1.0006294
1.000607
1.0005807
1.0005498
1.0005139
1.0004725
1.0004254
1.0003727
1.0003141
1.0002497
1.0001796
1.0001044
1.0000241
0.99993933
0.99985092
0.99975946
0.99966581
0.9995709
0.99947548
0.99938056
0.99928651
0.99919403
0.9991039
0.99901674
0.99893253
0.99885194
0.99877521
0.99870195
0.99863177
0.99856564
0.99850223
0.99844224
0.99838469
0.99832983
0.99827704
1.0006791
1.0006784
1.000678
1.000677
1.0006755
1.0006731
1.00067
1.0006656
1.0006603
1.0006536
1.0006451
1.0006343
1.0006214
1.0006055
1.0005863
1.0005637
1.0005374
1.0005067
1.0004711
1.0004304
1.0003843
1.0003328
1.0002757
1.0002131
1.0001452
1.0000723
0.99999482
0.99991311
0.99982798
0.99974005
0.99965011
0.99955907
0.99946765
0.99937679
0.99928687
0.99919854
0.99911257
0.99902952
0.99894939
0.99887279
0.99879996
0.99873055
0.99866418
0.99860177
0.99854207
0.99848574
0.99843186
0.99838068
0.99833157
1.000647
1.0006457
1.0006447
1.000643
1.0006408
1.0006377
1.000634
1.000629
1.000623
1.0006157
1.0006065
1.0005953
1.0005818
1.0005656
1.0005462
1.0005235
1.0004972
1.0004667
1.0004316
1.0003915
1.0003464
1.0002961
1.0002405
1.0001797
1.0001139
1.0000434
0.99996854
0.99988975
0.99980778
0.99972322
0.99963684
0.99954951
0.9994619
0.99937493
0.99928895
0.9992046
0.9991226
0.99904347
0.99896723
0.99889444
0.99882533
0.99875957
0.99869683
0.99863794
0.99858176
0.99852888
0.99847846
0.99843073
0.99838506
1.0006164
1.0006146
1.000613
1.0006107
1.000608
1.0006043
1.0006
1.0005944
1.0005879
1.00058
1.0005704
1.0005587
1.0005449
1.0005284
1.0005088
1.0004861
1.0004599
1.0004296
1.000395
1.0003557
1.0003115
1.0002624
1.0002083
1.0001493
1.0000855
1.0000173
0.99994498
0.999869
0.99979007
0.99970874
0.99962578
0.99954198
0.99945803
0.99937477
0.99929256
0.99921201
0.99913379
0.99905841
0.99898587
0.99891672
0.99885114
0.99878885
0.99872954
0.99867397
0.99862109
0.99857143
0.99852421
0.99847966
0.99843715
1.0005873
1.000585
1.0005829
1.0005801
1.0005768
1.0005727
1.0005679
1.0005618
1.0005548
1.0005465
1.0005364
1.0005244
1.0005103
1.0004936
1.000474
1.0004513
1.0004252
1.0003953
1.0003611
1.0003226
1.0002793
1.0002315
1.0001788
1.0001215
1.0000597
0.99999375
0.9999239
0.99985064
0.99977462
0.9996964
0.9996167
0.9995363
0.99945585
0.99937613
0.99929752
0.9992206
0.999146
0.99907419
0.99900519
0.99893949
0.99887727
0.99881828
0.99876223
0.9987098
0.99866003
0.99861341
0.9985692
0.99852762
0.99848806
1.0005594
1.0005567
1.0005541
1.000551
1.0005472
1.0005427
1.0005374
1.000531
1.0005236
1.0005149
1.0005045
1.0004922
1.0004778
1.000461
1.0004413
1.0004187
1.0003929
1.0003633
1.0003298
1.0002919
1.0002497
1.000203
1.0001518
1.0000962
1.0000363
0.99997255
0.9999051
0.99983445
0.99976123
0.999686
0.99960944
0.99953229
0.99945518
0.99937886
0.99930369
0.99923023
0.99915908
0.99909067
0.99902503
0.99896262
0.99890359
0.99884773
0.99879475
0.99874528
0.99869844
0.99865465
0.99861324
0.99857442
0.99853756
1.0005326
1.0005296
1.0005267
1.0005231
1.000519
1.0005141
1.0005085
1.0005017
1.000494
1.000485
1.0004743
1.0004618
1.0004473
1.0004304
1.0004108
1.0003883
1.0003628
1.0003336
1.0003006
1.0002636
1.0002224
1.0001769
1.0001271
1.0000732
1.0000152
0.9999535
0.99988837
0.99982024
0.99974974
0.99967737
0.99960382
0.99952979
0.99945587
0.9993828
0.99931091
0.99924075
0.99917288
0.99910771
0.99904527
0.99898598
0.99892999
0.99887709
0.99882702
0.99878036
0.99873626
0.99869514
0.99865636
0.99862011
0.99858579
1.0005069
1.0005036
1.0005004
1.0004965
1.0004921
1.0004869
1.000481
1.000474
1.000466
1.0004567
1.0004458
1.0004332
1.0004186
1.0004017
1.0003822
1.0003599
1.0003346
1.0003059
1.0002736
1.0002374
1.0001971
1.0001529
1.0001046
1.0000522
0.99999607
0.99993643
0.99987355
0.99980787
0.99973997
0.99967036
0.99959969
0.99952864
0.99945779
0.99938781
0.99931906
0.99925204
0.9991873
0.9991252
0.9990658
0.99900948
0.99895636
0.99890625
0.99885894
0.9988149
0.9987734
0.99873477
0.99869843
0.99866457
0.99863257
1.0004821
1.0004786
1.0004752
1.0004711
1.0004664
1.000461
1.0004548
1.0004476
1.0004393
1.0004299
1.0004189
1.0004062
1.0003915
1.0003747
1.0003553
1.0003333
1.0003084
1.0002802
1.0002485
1.0002131
1.0001739
1.0001308
1.0000839
1.0000332
0.99997883
0.99992119
0.99986048
0.99979716
0.99973178
0.99966482
0.99959693
0.99952873
0.9994608
0.99939377
0.99932801
0.99926398
0.99920221
0.99914303
0.99908651
0.99903299
0.99898259
0.99893513
0.99889041
0.99884885
0.99880978
0.99877349
0.99873945
0.99870781
0.99867799
1.0004583
1.0004546
1.0004509
1.0004466
1.0004417
1.0004361
1.0004298
1.0004224
1.000414
1.0004044
1.0003934
1.0003806
1.000366
1.0003493
1.0003301
1.0003084
1.0002838
1.0002562
1.0002252
1.0001906
1.0001524
1.0001106
1.000065
1.0000159
0.99996332
0.99990762
0.99984904
0.999788
0.99972504
0.99966064
0.9995954
0.99952993
0.99946479
0.99940058
0.99933765
0.99927647
0.99921751
0.9991611
0.9991073
0.99905643
0.9990086
0.99896363
0.99892134
0.99888212
0.99884532
0.99881122
0.9987793
0.99874972
0.99872191
1.0004352
1.0004314
1.0004275
1.0004231
1.0004181
1.0004123
1.0004059
1.0003984
1.0003899
1.0003803
1.0003692
1.0003564
1.0003419
1.0003253
1.0003064
1.000285
1.0002609
1.0002338
1.0002035
1.0001698
1.0001327
1.000092
1.0000478
1.0000002
0.99994941
0.99989561
0.99983909
0.99978026
0.99971964
0.9996577
0.999595
0.99953215
0.99946966
0.99940814
0.9993479
0.99928941
0.99923311
0.99917931
0.99912808
0.99907971
0.99903429
0.99899167
0.99895167
0.99891463
0.99887996
0.99884791
0.99881798
0.99879033
0.99876438
1.0004128
1.0004089
1.000405
1.0004004
1.0003953
1.0003895
1.000383
1.0003754
1.0003669
1.0003572
1.0003461
1.0003335
1.0003191
1.0003027
1.000284
1.000263
1.0002394
1.0002129
1.0001833
1.0001506
1.0001144
1.000075
1.0000322
0.99998612
0.99993699
0.99988504
0.99983053
0.99977384
0.99971548
0.9996559
0.99959564
0.99953528
0.99947533
0.99941635
0.99935866
0.99930271
0.99924892
0.99919759
0.99914877
0.99910275
0.99905959
0.99901917
0.99898131
0.9989463
0.99891362
0.99888346
0.99885538
0.99882949
0.99880525
1.0003911
1.0003872
1.0003832
1.0003786
1.0003734
1.0003676
1.000361
1.0003534
1.0003449
1.0003353
1.0003243
1.0003117
1.0002975
1.0002813
1.000263
1.0002424
1.0002193
1.0001934
1.0001646
1.0001327
1.0000977
1.0000594
1.000018
0.99997341
0.99992596
0.99987582
0.99982325
0.99976865
0.99971247
0.99965515
0.99959723
0.99953925
0.99948171
0.99942514
0.99936987
0.99931632
0.99926489
0.99921586
0.99916931
0.99912547
0.99908443
0.99904606
0.9990102
0.99897709
0.99894626
0.99891787
0.99889151
0.99886727
0.99884463
1.00037
1.0003661
1.0003621
1.0003575
1.0003523
1.0003464
1.0003399
1.0003323
1.0003239
1.0003143
1.0003034
1.000291
1.000277
1.0002612
1.0002432
1.000223
1.0002005
1.0001752
1.0001472
1.0001162
1.0000822
1.0000452
1.0000051
0.99996203
0.99991621
0.99986784
0.99981718
0.99976459
0.99971051
0.99965538
0.9995997
0.999544
0.99948875
0.99943446
0.99938146
0.99933016
0.99928094
0.99923407
0.99918962
0.99914783
0.99910875
0.99907228
0.99903826
0.99900692
0.99897779
0.99895102
0.99892622
0.99890348
0.99888228
1.0003496
1.0003457
1.0003417
1.0003371
1.0003319
1.0003261
1.0003196
1.0003121
1.0003038
1.0002943
1.0002836
1.0002714
1.0002576
1.0002421
1.0002245
1.0002048
1.0001828
1.0001583
1.0001311
1.000101
1.000068
1.0000322
0.99999344
0.99995187
0.99990767
0.99986104
0.99981223
0.99976159
0.99970956
0.99965652
0.99960299
0.99954945
0.99949637
0.99944424
0.99939339
0.99934419
0.99929703
0.99925216
0.99920967
0.99916976
0.9991325
0.99909778
0.99906547
0.99903574
0.9990082
0.99898293
0.99895959
0.99893826
0.99891842
1.0003297
1.0003259
1.0003219
1.0003174
1.0003123
1.0003065
1.0003001
1.0002927
1.0002845
1.0002752
1.0002646
1.0002527
1.0002392
1.000224
1.0002069
1.0001877
1.0001663
1.0001425
1.000116
1.0000869
1.000055
1.0000204
0.99998297
0.99994287
0.99990025
0.99985533
0.99980833
0.9997596
0.99970953
0.99965852
0.99960704
0.99955557
0.99950455
0.99945446
0.9994056
0.99935837
0.99931311
0.99927009
0.99922939
0.99919121
0.99915561
0.99912249
0.99909173
0.99906347
0.99903735
0.99901343
0.99899139
0.99897128
0.99895262
1.0003104
1.0003067
1.0003027
1.0002983
1.0002933
1.0002876
1.0002813
1.0002741
1.000266
1.0002569
1.0002466
1.0002349
1.0002218
1.0002069
1.0001903
1.0001716
1.0001508
1.0001277
1.0001021
1.000074
1.0000431
1.0000097
0.9999736
0.99993495
0.9998939
0.99985066
0.99980543
0.99975855
0.99971039
0.99966134
0.99961183
0.99956233
0.99951326
0.99946507
0.99941808
0.99937267
0.99932917
0.99928784
0.99924877
0.99921216
0.99917806
0.99914639
0.99911704
0.99909013
0.99906531
0.99904265
0.99902184
0.99900291
0.99898541
1.0002916
1.000288
1.0002842
1.0002798
1.0002749
1.0002694
1.0002632
1.0002562
1.0002483
1.0002394
1.0002293
1.000218
1.0002052
1.0001907
1.0001746
1.0001565
1.0001363
1.0001139
1.0000892
1.000062
1.0000323
1
0.99996526
0.99992805
0.99988855
0.99984695
0.99980346
0.99975839
0.99971209
0.99966492
0.99961731
0.99956968
0.99952246
0.99947606
0.99943081
0.99938707
0.99934517
0.99930537
0.99926778
0.99923256
0.9991998
0.99916942
0.9991413
0.99911555
0.99909186
0.99907026
0.99905044
0.99903246
0.99901585
1.0002734
1.0002699
1.0002662
1.0002619
1.0002572
1.0002518
1.0002458
1.000239
1.0002313
1.0002226
1.0002129
1.0002018
1.0001894
1.0001754
1.0001597
1.0001422
1.0001228
1.0001011
1.0000773
1.000051
1.0000224
0.99999134
0.99995789
0.99992211
0.99988415
0.99984418
0.99980239
0.99975909
0.9997146
0.99966925
0.99962346
0.99957763
0.99953215
0.99948743
0.99944379
0.99940158
0.99936113
0.9993227
0.9992864
0.99925242
0.99922083
0.99919157
0.99916455
0.99913986
0.9991172
0.99909662
0.99907781
0.99906082
0.99904521
1.0002557
1.0002523
1.0002488
1.0002447
1.0002401
1.0002349
1.0002291
1.0002224
1.000215
1.0002066
1.0001971
1.0001864
1.0001744
1.0001609
1.0001457
1.0001288
1.00011
1.0000892
1.0000662
1.000041
1.0000134
0.99998357
0.99995143
0.99991708
0.99988064
0.99984227
0.99980217
0.9997606
0.99971788
0.99967431
0.99963028
0.99958617
0.99954234
0.99949919
0.99945703
0.99941621
0.99937706
0.99933983
0.99930465
0.99927172
0.99924111
0.99921278
0.99918664
0.99916277
0.9991409
0.99912103
0.99910289
0.9990865
0.99907143
1.0002386
1.0002353
1.0002319
1.000228
1.0002236
1.0002185
1.0002129
1.0002065
1.0001993
1.0001912
1.0001821
1.0001718
1.0001602
1.0001471
1.0001325
1.0001162
1.0000982
1.0000781
1.000056
1.0000317
1.0000053
0.99997666
0.99994584
0.99991291
0.99987797
0.9998412
0.99980277
0.99976291
0.99972192
0.99968009
0.99963776
0.99959529
0.99955304
0.99951136
0.99947057
0.999431
0.99939299
0.99935679
0.99932256
0.99929049
0.99926068
0.9992331
0.99920772
0.99918459
0.99916348
0.99914439
0.99912709
0.99911155
0.99909739
1.000222
1.0002189
1.0002156
1.0002118
1.0002076
1.0002028
1.0001974
1.0001912
1.0001843
1.0001765
1.0001677
1.0001578
1.0001466
1.0001341
1.0001201
1.0001044
1.000087
1.0000678
1.0000466
1.0000233
0.99999799
0.99997057
0.99994106
0.99990955
0.99987612
0.99984093
0.99980414
0.99976598
0.9997267
0.99968657
0.99964591
0.99960504
0.99956428
0.99952399
0.99948445
0.99944601
0.99940898
0.99937364
0.99934016
0.99930874
0.9992795
0.99925244
0.99922752
0.99920479
0.99918402
0.99916521
0.9991481
0.99913269
0.99911857
1.0002059
1.000203
1.0001999
1.0001963
1.0001922
1.0001876
1.0001825
1.0001766
1.0001699
1.0001624
1.000154
1.0001445
1.0001338
1.0001217
1.0001083
1.0000933
1.0000766
1.0000582
1.0000379
1.0000157
0.99999146
0.99996525
0.99993705
0.99990695
0.99987503
0.99984142
0.99980627
0.99976978
0.9997322
0.99969375
0.99965473
0.99961542
0.99957611
0.99953713
0.99949876
0.99946131
0.99942513
0.99939047
0.99935753
0.99932656
0.99929769
0.99927096
0.99924638
0.99922403
0.99920375
0.99918551
0.99916913
0.99915456
0.99914143
1.0001904
1.0001877
1.0001847
1.0001813
1.0001774
1.000173
1.0001681
1.0001625
1.0001561
1.000149
1.0001409
1.0001317
1.0001215
1.00011
1.0000972
1.0000828
1.0000669
1.0000493
1.00003
1.0000087
0.99998564
0.99996064
0.99993377
0.99990509
0.99987466
0.99984263
0.99980912
0.99977431
0.99973842
0.99970165
0.99966425
0.99962647
0.99958857
0.99955086
0.99951357
0.99947703
0.99944154
0.99940738
0.99937479
0.99934401
0.99931521
0.99928847
0.9992638
0.99924127
0.99922071
0.99920208
0.99918516
0.99916993
0.99915602
1.0001755
1.0001729
1.0001701
1.0001668
1.0001632
1.000159
1.0001543
1.0001489
1.0001429
1.000136
1.0001283
1.0001196
1.0001099
1.0000989
1.0000867
1.000073
1.0000579
1.0000411
1.0000227
1.0000025
0.9999805
0.99995673
0.99993118
0.99990392
0.99987501
0.99984456
0.99981269
0.99977957
0.99974537
0.99971027
0.9996745
0.99963825
0.99960175
0.99956526
0.99952901
0.99949328
0.99945836
0.99942455
0.9993921
0.99936128
0.99933234
0.9993054
0.99928057
0.999258
0.99923761
0.99921942
0.99920327
0.99918911
0.9991766
1.0001611
1.0001586
1.000156
1.0001529
1.0001494
1.0001455
1.000141
1.0001359
1.0001301
1.0001236
1.0001163
1.0001081
1.0000988
1.0000884
1.0000768
1.0000638
1.0000494
1.0000335
1.000016
0.99999685
0.999976
0.99995346
0.99992924
0.9999034
0.99987599
0.99984714
0.99981693
0.99978551
0.99975303
0.99971966
0.99968554
0.99965084
0.99961576
0.9995805
0.99954526
0.99951027
0.99947582
0.99944219
0.99940964
0.9993785
0.99934902
0.99932136
0.99929565
0.999272
0.99925031
0.99923056
0.99921256
0.9991963
0.99918141
1.0001473
1.0001449
1.0001424
1.0001395
1.0001362
1.0001324
1.0001282
1.0001234
1.0001179
1.0001118
1.0001048
1.000097
1.0000882
1.0000784
1.0000674
1.0000552
1.0000416
1.0000265
1.0000099
0.9999918
0.99997207
0.99995076
0.99992785
0.99990343
0.99987753
0.99985027
0.99982173
0.99979203
0.99976131
0.99972969
0.99969728
0.99966421
0.99963063
0.99959668
0.99956249
0.99952825
0.99949421
0.99946064
0.99942782
0.99939611
0.99936584
0.99933731
0.99931079
0.99928658
0.99926477
0.99924549
0.99922867
0.99921425
0.99920196
1.0001339
1.0001318
1.0001294
1.0001266
1.0001235
1.0001199
1.0001159
1.0001113
1.0001061
1.0001003
1.0000938
1.0000865
1.0000782
1.000069
1.0000586
1.0000471
1.0000342
1.00002
1.0000044
0.9999873
0.99996871
0.99994863
0.99992708
0.99990411
0.99987974
0.99985409
0.9998272
0.99979921
0.99977025
0.99974037
0.99970971
0.99967831
0.9996463
0.99961373
0.99958068
0.99954727
0.99951369
0.99948016
0.99944694
0.99941438
0.99938283
0.99935258
0.99932391
0.99929708
0.99927211
0.99924907
0.99922785
0.99920848
0.99919062
1.0001213
1.0001192
1.0001169
1.0001142
1.0001112
1.0001078
1.000104
1.0000997
1.0000948
1.0000894
1.0000833
1.0000764
1.0000687
1.00006
1.0000503
1.0000395
1.0000275
1.0000141
0.99999946
0.99998342
0.99996601
0.99994722
0.99992707
0.99990561
0.99988283
0.99985886
0.9998337
0.99980752
0.99978038
0.99975233
0.99972346
0.99969381
0.99966341
0.99963225
0.99960035
0.99956776
0.99953461
0.99950105
0.99946734
0.99943381
0.9994009
0.99936907
0.99933885
0.99931081
0.99928542
0.99926311
0.99924409
0.99922831
0.99921572
1.000109
1.000107
1.0001047
1.0001022
1.0000993
1.0000961
1.0000925
1.0000884
1.0000839
1.0000788
1.0000731
1.0000667
1.0000595
1.0000515
1.0000425
1.0000324
1.0000212
1.0000088
0.99999501
0.99997999
0.9999637
0.99994611
0.99992725
0.99990716
0.99988588
0.99986359
0.99984026
0.99981604
0.99979098
0.9997651
0.99973836
0.99971084
0.99968244
0.99965307
0.99962267
0.99959119
0.99955865
0.99952509
0.99949066
0.99945563
0.99942036
0.99938528
0.99935082
0.99931744
0.99928541
0.99925496
0.99922617
0.99919933
0.99917416
1.0000975
1.0000955
1.0000932
1.0000907
1.0000878
1.0000847
1.0000812
1.0000773
1.0000731
1.0000684
1.0000632
1.0000573
1.0000508
1.0000434
1.0000351
1.0000257
1.0000152
1.0000035
0.99999056
0.99997642
0.99996108
0.9999445
0.99992671
0.99990778
0.99988776
0.99986687
0.99984506
0.99982252
0.9997993
0.99977532
0.99975085
0.99972564
0.99969966
0.99967268
0.99964459
0.99961516
0.9995843
0.99955183
0.99951778
0.99948223
0.99944551
0.99940815
0.99937094
0.99933504
0.99930173
0.99927225
0.99924769
0.99922841
0.99921472
1.0000859
1.0000837
1.0000814
1.0000789
1.0000762
1.0000733
1.0000702
1.0000668
1.000063
1.0000588
1.0000541
1.0000487
1.0000427
1.0000359
1.0000281
1.0000194
1.0000096
0.99999879
0.99998682
0.9999738
0.99995975
0.99994463
0.99992852
0.99991145
0.99989332
0.99987408
0.9998537
0.99983267
0.99981069
0.99978754
0.99976493
0.99974117
0.99971678
0.99969126
0.99966479
0.99963682
0.99960733
0.9995758
0.9995422
0.99950623
0.99946807
0.99942771
0.99938535
0.99934109
0.99929534
0.9992484
0.99920108
0.99915389
0.99910896
1.0000756
1.0000735
1.0000712
1.0000686
1.0000659
1.000063
1.0000599
1.0000565
1.0000528
1.0000488
1.0000444
1.0000396
1.0000342
1.0000282
1.0000216
1.0000141
1.0000058
0.99999638
0.99998579
0.99997442
0.99996245
0.9999497
0.99993622
0.99992201
0.99990688
0.99989073
0.99987349
0.99985586
0.99983705
0.99981788
0.99979777
0.99977718
0.99975498
0.99973154
0.99970665
0.99967996
0.99965127
0.99961982
0.99958541
0.99954713
0.99950525
0.99945938
0.99941087
0.99936121
0.99931312
0.9992693
0.99923431
0.999208
0.99919641
1.0000643
1.0000607
1.0000574
1.000054
1.000051
1.0000481
1.0000454
1.0000427
1.0000399
1.0000369
1.0000335
1.0000298
1.0000256
1.0000209
1.0000154
1.000009
1.0000014
0.99999224
0.99998157
0.99997036
0.99995862
0.99994585
0.99993209
0.99991738
0.99990209
0.9998868
0.99987136
0.99985623
0.99984066
0.99982985
0.99981102
0.99979766
0.99978043
0.99976493
0.99974635
0.99972763
0.99970571
0.99968219
0.9996546
0.99962368
0.99958701
0.99954433
0.99949079
0.99942809
0.99935255
0.99926166
0.99915578
0.99903388
0.99891053
1.0000523
1.0000498
1.0000476
1.0000463
1.0000453
1.0000443
1.0000429
1.0000413
1.0000393
1.0000367
1.0000335
1.0000295
1.0000244
1.0000181
1.0000105
1.0000016
0.99999105
0.99997907
0.99996671
0.99995354
0.99993817