/*--------------------------------*- C++ -*----------------------------------*\
| =========                 |                                                 |
| \\      /  F ield         | OpenFOAM: The Open Source CFD Toolbox           |
|  \\    /   O peration     | Version:  v2006                                 |
|   \\  /    A nd           | Website:  www.openfoam.com                      |
|    \\/     M anipulation  |                                                 |
\*---------------------------------------------------------------------------*/
FoamFile
{
    version     2.0;
    format      ascii;
    class       volScalarField;
    location    "4500";
    object      TMean;
}
// * * * * * * * * * * * * * * * * * * * * * * * * * * * * * * * * * * * * * //

dimensions      [0 0 0 1 0 0 0];


internalField   nonuniform List<scalar> 
19765
(
1.0002359
1.000294
1.0004347
1.0005836
1.00071
1.0008231
1.0009335
1.0010279
1.0011123
1.0011917
1.0012567
1.0013047
1.0013402
1.0013651
1.0013793
1.0013839
1.0013781
1.0013638
1.0013393
1.0013053
1.0012637
1.0012143
1.0011558
1.001085
1.0010048
1.0009244
1.0008428
1.0007478
1.0006453
1.000543
1.0004307
1.000303
1.0001493
0.99998641
0.99985381
0.99973603
0.99958085
0.99941366
0.99926877
0.99908403
0.99885927
0.99871782
0.99862189
0.99853684
0.99854719
0.99858349
0.99868136
0.99882484
0.99896282
1.0005101
1.0005673
1.0006328
1.0007066
1.0007835
1.0008579
1.0009291
1.0009944
1.0010545
1.0011107
1.0011615
1.0012049
1.0012407
1.0012686
1.0012875
1.0012981
1.0013015
1.0012961
1.0012808
1.0012555
1.0012205
1.0011765
1.0011233
1.0010611
1.0009908
1.0009132
1.0008276
1.0007345
1.0006338
1.0005261
1.0004123
1.0002932
1.0001719
1.0000502
0.99992688
0.99980136
0.99967683
0.99955563
0.99943818
0.99932883
0.9992376
0.99915461
0.99907619
0.9990081
0.99894594
0.99889558
0.99885495
0.99882009
0.99878707
1.000469
1.0005206
1.0005806
1.0006452
1.0007095
1.0007722
1.0008323
1.0008888
1.0009413
1.0009921
1.0010384
1.0010786
1.0011131
1.0011411
1.0011605
1.001173
1.0011796
1.0011785
1.0011684
1.001149
1.0011208
1.0010845
1.0010387
1.0009838
1.0009218
1.0008529
1.0007756
1.0006904
1.0005983
1.0004993
1.0003942
1.0002845
1.000172
1.0000579
0.9999415
0.99982393
0.99970781
0.99959323
0.99948142
0.99937623
0.9992769
0.99918115
0.99909382
0.99901786
0.99894892
0.99888847
0.99883739
0.99879489
0.99875794
1.0005085
1.0005474
1.0005872
1.0006287
1.0006707
1.0007123
1.0007531
1.000792
1.0008294
1.0008658
1.0008996
1.0009299
1.0009566
1.0009786
1.0009946
1.0010053
1.0010116
1.0010117
1.0010042
1.000989
1.0009661
1.000936
1.0008982
1.0008525
1.0008002
1.0007418
1.0006761
1.0006037
1.0005257
1.0004423
1.0003545
1.0002635
1.0001711
1.0000782
0.99998371
0.9998888
0.99979616
0.99970578
0.99961777
0.99953523
0.99945794
0.99938162
0.99930804
0.99923821
0.99917096
0.99910721
0.99904359
0.99898053
0.99891713
1.0004999
1.0005325
1.0005654
1.0005986
1.0006315
1.0006638
1.0006953
1.0007255
1.0007545
1.0007828
1.0008093
1.0008331
1.0008542
1.0008719
1.0008848
1.0008935
1.0008985
1.0008983
1.0008916
1.0008781
1.0008577
1.0008308
1.0007971
1.0007563
1.0007092
1.0006565
1.0005975
1.0005327
1.0004629
1.0003886
1.0003107
1.0002302
1.0001488
1.000067
0.99998465
0.99990257
0.99982268
0.99974485
0.99966933
0.99959796
0.99953013
0.99946279
0.99939784
0.99933443
0.99927239
0.99921153
0.9991514
0.9990933
0.99903805
1.0004913
1.0005159
1.0005407
1.0005658
1.0005906
1.000615
1.000639
1.0006622
1.0006846
1.0007067
1.0007273
1.000746
1.0007625
1.0007762
1.0007861
1.0007925
1.0007957
1.0007944
1.0007875
1.0007746
1.0007556
1.0007307
1.0006998
1.0006624
1.0006193
1.0005712
1.0005176
1.0004587
1.0003955
1.0003284
1.0002583
1.0001861
1.000113
1.0000399
0.99996652
0.99989364
0.99982263
0.99975363
0.99968672
0.9996231
0.99956246
0.999503
0.99944504
0.99938877
0.99933309
0.99927825
0.99922308
0.9991677
0.99911256
1.0004714
1.000492
1.0005125
1.0005329
1.0005529
1.0005724
1.0005915
1.0006098
1.0006276
1.0006451
1.0006614
1.000676
1.0006889
1.0006994
1.0007067
1.000711
1.0007125
1.0007101
1.0007028
1.0006902
1.0006722
1.000649
1.0006205
1.000586
1.0005465
1.0005023
1.0004532
1.0003994
1.0003417
1.0002805
1.0002167
1.000151
1.0000846
1.000018
0.99995129
0.99988507
0.99982045
0.99975748
0.99969626
0.99963772
0.99958153
0.99952603
0.99947189
0.99941855
0.99936563
0.99931281
0.99925947
0.99920562
0.99915161
1.0004522
1.0004685
1.0004849
1.0005012
1.0005171
1.0005326
1.0005478
1.0005624
1.0005765
1.0005904
1.0006032
1.0006147
1.0006246
1.0006326
1.0006377
1.0006403
1.0006403
1.0006368
1.000629
1.0006166
1.0005992
1.0005772
1.0005503
1.000518
1.0004811
1.00044
1.0003943
1.0003445
1.0002912
1.0002349
1.0001761
1.0001158
1.0000547
0.99999354
0.99993242
0.99987179
0.99981258
0.9997549
0.99969883
0.99964506
0.9995934
0.99954268
0.99949308
0.99944447
0.9993962
0.99934819
0.99929973
0.99925076
0.9992013
1.0004308
1.0004444
1.0004579
1.0004713
1.0004843
1.0004969
1.0005092
1.0005209
1.0005323
1.0005434
1.0005535
1.0005624
1.00057
1.0005758
1.0005792
1.0005802
1.000579
1.0005745
1.0005663
1.0005538
1.000537
1.0005158
1.0004903
1.0004599
1.0004253
1.0003868
1.0003442
1.0002979
1.0002483
1.000196
1.0001416
1.0000856
1.000029
0.99997228
0.99991557
0.9998593
0.99980426
0.99975053
0.99969821
0.99964787
0.99959936
0.99955161
0.99950494
0.999459
0.99941341
0.99936792
0.999322
0.99927551
0.99922859
1.0004102
1.0004212
1.0004323
1.0004433
1.0004538
1.0004641
1.0004741
1.0004835
1.0004926
1.0005015
1.0005095
1.0005164
1.0005221
1.0005261
1.000528
1.0005278
1.0005254
1.0005202
1.0005115
1.000499
1.0004825
1.0004621
1.0004376
1.0004088
1.0003761
1.0003397
1.0002997
1.0002562
1.0002097
1.0001608
1.0001099
1.0000577
1.0000048
0.99995186
0.99989895
0.99984647
0.9997951
0.99974497
0.99969615
0.99964914
0.99960384
0.99955942
0.99951603
0.9994735
0.99943136
0.99938951
0.9993474
0.9993049
0.99926202
1.0003897
1.0003988
1.000408
1.0004171
1.0004258
1.0004342
1.0004424
1.0004501
1.0004573
1.0004644
1.0004707
1.0004759
1.00048
1.0004826
1.0004833
1.000482
1.0004787
1.0004728
1.0004637
1.0004511
1.0004349
1.0004151
1.0003916
1.0003641
1.000333
1.0002985
1.0002607
1.0002197
1.000176
1.00013
1.0000822
1.0000332
0.99998352
0.99993378
0.99988407
0.99983476
0.99978645
0.99973925
0.99969325
0.99964887
0.99960607
0.99956408
0.99952311
0.99948293
0.99944322
0.9994038
0.99936421
0.99932433
0.9992842
1.0003702
1.0003777
1.0003853
1.0003928
1.0004
1.0004069
1.0004135
1.0004197
1.0004255
1.0004311
1.0004359
1.0004398
1.0004426
1.000444
1.0004436
1.0004414
1.0004374
1.0004309
1.0004214
1.0004089
1.0003929
1.0003737
1.0003509
1.0003246
1.0002949
1.000262
1.0002261
1.0001872
1.0001459
1.0001024
1.0000573
1.000011
0.99996424
0.99991731
0.99987044
0.99982395
0.9997784
0.9997339
0.99969054
0.99964871
0.99960839
0.99956895
0.99953052
0.99949298
0.99945597
0.99941939
0.99938282
0.99934613
0.99930932
1.0003515
1.0003577
1.000364
1.0003702
1.0003761
1.0003818
1.0003871
1.0003921
1.0003967
1.0004011
1.0004047
1.0004074
1.0004091
1.0004096
1.0004083
1.0004053
1.0004006
1.0003937
1.000384
1.0003714
1.0003557
1.0003369
1.0003149
1.0002895
1.000261
1.0002297
1.0001954
1.0001584
1.0001192
1.000078
1.0000353
0.99999149
0.99994718
0.99990276
0.99985839
0.99981439
0.99977126
0.99972911
0.99968803
0.99964839
0.99961017
0.9995728
0.99953647
0.999501
0.99946614
0.99943177
0.99939751
0.99936325
0.99932902
1.0003338
1.0003389
1.0003441
1.0003492
1.0003541
1.0003587
1.000363
1.000367
1.0003705
1.0003739
1.0003765
1.0003782
1.000379
1.0003786
1.0003766
1.000373
1.0003678
1.0003604
1.0003505
1.0003379
1.0003224
1.0003041
1.0002827
1.0002582
1.0002309
1.0002008
1.000168
1.0001328
1.0000954
1.0000562
1.0000156
0.99997407
0.999932
0.99988984
0.99984774
0.999806
0.99976509
0.99972513
0.9996862
0.99964865
0.99961247
0.99957719
0.99954295
0.99950964
0.999477
0.99944495
0.99941315
0.99938149
0.99935
1.000317
1.0003212
1.0003255
1.0003297
1.0003336
1.0003374
1.0003408
1.0003439
1.0003466
1.0003491
1.0003509
1.0003518
1.0003518
1.0003507
1.0003481
1.000344
1.0003383
1.0003306
1.0003205
1.0003079
1.0002927
1.0002747
1.0002539
1.0002303
1.0002039
1.000175
1.0001436
1.0001099
1.0000742
1.0000369
0.99999822
0.99995866
0.99991864
0.99987853
0.99983849
0.99979882
0.99975993
0.99972195
0.99968497
0.9996493
0.99961496
0.99958151
0.9995491
0.99951764
0.9994869
0.99945681
0.99942707
0.99939757
0.99936836
1.0003012
1.0003046
1.0003081
1.0003115
1.0003147
1.0003177
1.0003204
1.0003227
1.0003247
1.0003264
1.0003275
1.0003277
1.0003271
1.0003253
1.0003222
1.0003177
1.0003116
1.0003036
1.0002934
1.0002809
1.0002658
1.0002482
1.000228
1.0002051
1.0001797
1.0001519
1.0001218
1.0000895
1.0000553
1.0000196
0.99998275
0.99994502
0.99990688
0.99986866
0.99983054
0.99979277
0.99975577
0.99971966
0.99968451
0.99965064
0.99961806
0.99958639
0.99955579
0.99952616
0.9994973
0.99946916
0.99944148
0.99941414
0.99938721
1.0002862
1.000289
1.0002918
1.0002946
1.0002971
1.0002995
1.0003015
1.0003032
1.0003046
1.0003057
1.0003061
1.0003057
1.0003045
1.0003023
1.0002987
1.0002938
1.0002874
1.0002792
1.0002689
1.0002564
1.0002416
1.0002244
1.0002047
1.0001825
1.0001579
1.0001311
1.0001021
1.0000712
1.0000385
1.0000043
0.99996905
0.99993302
0.99989661
0.99986015
0.99982379
0.99978781
0.99975256
0.99971818
0.99968475
0.99965254
0.99962159
0.99959156
0.99956259
0.99953461
0.99950744
0.99948103
0.99945515
0.99942969
0.99940473
1.0002721
1.0002744
1.0002766
1.0002788
1.0002808
1.0002825
1.0002841
1.0002852
1.0002861
1.0002865
1.0002864
1.0002856
1.0002839
1.0002812
1.0002772
1.000272
1.0002653
1.000257
1.0002467
1.0002343
1.0002196
1.0002028
1.0001836
1.000162
1.0001383
1.0001124
1.0000845
1.0000547
1.0000234
0.99999066
0.99995692
0.99992247
0.99988768
0.99985286
0.99981816
0.99978385
0.99975026
0.99971751
0.9996857
0.99965508
0.9996257
0.99959724
0.99956985
0.99954346
0.99951793
0.99949319
0.99946906
0.99944541
0.99942236
1.0002589
1.0002606
1.0002624
1.0002641
1.0002655
1.0002668
1.0002678
1.0002685
1.0002689
1.0002689
1.0002683
1.000267
1.0002649
1.0002618
1.0002576
1.000252
1.0002452
1.0002367
1.0002264
1.0002141
1.0001997
1.0001832
1.0001645
1.0001435
1.0001205
1.0000956
1.0000687
1.00004
1.0000099
0.99997853
0.99994621
0.99991324
0.99987998
0.9998467
0.99981356
0.99978082
0.99974879
0.99971759
0.99968731
0.99965819
0.99963027
0.99960328
0.99957736
0.99955244
0.9995284
0.99950519
0.99948263
0.99946061
0.99943924
1.0002463
1.0002477
1.000249
1.0002503
1.0002513
1.0002522
1.0002528
1.0002531
1.000253
1.0002526
1.0002516
1.0002499
1.0002474
1.000244
1.0002395
1.0002337
1.0002267
1.0002182
1.0002078
1.0001956
1.0001815
1.0001653
1.0001471
1.0001267
1.0001045
1.0000803
1.0000544
1.0000268
0.99999788
0.99996776
0.99993677
0.9999052
0.99987337
0.99984155
0.99980989
0.99977864
0.99974809
0.99971836
0.99968954
0.99966184
0.99963533
0.99960975
0.99958523
0.99956173
0.99953911
0.99951735
0.99949628
0.99947581
0.99945603
1.0002345
1.0002355
1.0002364
1.0002373
1.000238
1.0002385
1.0002387
1.0002386
1.0002382
1.0002374
1.0002361
1.0002341
1.0002313
1.0002276
1.0002228
1.0002169
1.0002098
1.0002011
1.0001909
1.0001788
1.0001648
1.000149
1.0001312
1.0001115
1.0000899
1.0000665
1.0000415
1.000015
0.99998714
0.99995822
0.9999285
0.99989824
0.99986777
0.99983733
0.99980707
0.99977723
0.99974809
0.99971975
0.99969232
0.99966598
0.9996408
0.99961654
0.99959335
0.99957116
0.99954987
0.99952944
0.99950974
0.99949066
0.99947232
1.0002233
1.000224
1.0002246
1.0002252
1.0002255
1.0002257
1.0002256
1.0002252
1.0002244
1.0002233
1.0002217
1.0002194
1.0002163
1.0002124
1.0002075
1.0002014
1.0001942
1.0001855
1.0001753
1.0001633
1.0001496
1.0001341
1.0001168
1.0000976
1.0000767
1.0000541
1.0000299
1.0000044
0.99997757
0.99994978
0.99992126
0.99989226
0.99986308
0.99983395
0.99980503
0.99977653
0.99974872
0.99972172
0.99969561
0.99967056
0.99964665
0.99962366
0.99960172
0.99958079
0.99956076
0.9995416
0.99952319
0.99950542
0.99948842
1.0002127
1.0002131
1.0002135
1.0002137
1.0002138
1.0002137
1.0002133
1.0002126
1.0002116
1.0002102
1.0002083
1.0002057
1.0002025
1.0001984
1.0001932
1.0001871
1.0001798
1.0001711
1.0001609
1.0001491
1.0001357
1.0001205
1.0001036
1.000085
1.0000647
1.0000428
1.0000195
0.99999485
0.99996906
0.99994235
0.99991497
0.99988716
0.9998592
0.99983132
0.99980367
0.99977646
0.99974993
0.9997242
0.99969934
0.99967553
0.99965282
0.99963104
0.99961028
0.99959052
0.99957167
0.99955368
0.99953646
0.9995199
0.99950412
1.0002027
1.0002029
1.000203
1.000203
1.0002028
1.0002024
1.0002018
1.0002009
1.0001996
1.000198
1.0001958
1.000193
1.0001896
1.0001853
1.0001801
1.0001738
1.0001664
1.0001578
1.0001477
1.0001361
1.0001229
1.0001081
1.0000916
1.0000735
1.0000538
1.0000326
1.0000101
0.99998632
0.9999615
0.99993582
0.99990952
0.99988285
0.99985607
0.99982938
0.99980294
0.99977695
0.99975165
0.99972712
0.99970346
0.99968083
0.99965928
0.99963864
0.99961901
0.99960037
0.99958262
0.99956575
0.99954964
0.9995342
0.99951956
1.0001932
1.0001931
1.000193
1.0001928
1.0001924
1.0001918
1.0001909
1.0001898
1.0001883
1.0001865
1.0001841
1.0001812
1.0001775
1.0001731
1.0001678
1.0001615
1.0001541
1.0001455
1.0001355
1.0001241
1.0001111
1.0000966
1.0000806
1.0000629
1.0000439
1.0000234
1.0000016
0.99997871
0.9999548
0.99993011
0.99990485
0.99987927
0.9998536
0.99982805
0.99980277
0.99977795
0.99975381
0.99973044
0.99970793
0.99968642
0.99966596
0.99964641
0.99962785
0.99961026
0.99959355
0.99957771
0.99956264
0.99954823
0.99953463
1.0001842
1.0001839
1.0001836
1.0001832
1.0001826
1.0001818
1.0001808
1.0001794
1.0001777
1.0001757
1.0001732
1.0001701
1.0001663
1.0001618
1.0001564
1.00015
1.0001427
1.0001341
1.0001242
1.000113
1.0001003
1.0000861
1.0000705
1.0000534
1.0000349
1.0000151
0.99999403
0.99997191
0.99994889
0.99992514
0.99990088
0.99987633
0.99985173
0.99982728
0.99980311
0.9997794
0.99975637
0.99973411
0.99971269
0.99969225
0.99967283
0.99965431
0.99963677
0.99962017
0.99960445
0.99958958
0.99957548
0.99956204
0.9995494
1.0001755
1.0001751
1.0001746
1.0001741
1.0001733
1.0001723
1.0001711
1.0001696
1.0001678
1.0001656
1.0001629
1.0001597
1.0001558
1.0001512
1.0001458
1.0001394
1.000132
1.0001235
1.0001138
1.0001027
1.0000903
1.0000765
1.0000612
1.0000446
1.0000267
1.0000075
0.9999872
0.99996587
0.99994369
0.99992084
0.99989754
0.99987399
0.99985041
0.999827
0.99980388
0.99978125
0.99975928
0.99973807
0.99971769
0.99969827
0.99967985
0.99966231
0.99964572
0.99963006
0.99961527
0.99960131
0.99958811
0.99957557
0.99956382
1.0001673
1.0001668
1.0001661
1.0001654
1.0001645
1.0001634
1.000162
1.0001604
1.0001584
1.0001561
1.0001533
1.00015
1.000146
1.0001413
1.0001358
1.0001295
1.0001221
1.0001137
1.0001041
1.0000933
1.0000811
1.0000676
1.0000528
1.0000366
1.0000192
1.0000007
0.99998107
0.9999605
0.99993914
0.99991716
0.99989477
0.99987217
0.99984958
0.99982716
0.99980506
0.99978344
0.99976248
0.99974228
0.99972289
0.99970444
0.99968697
0.99967036
0.99965468
0.99963991
0.99962599
0.99961288
0.99960053
0.99958882
0.9995779
1.0001594
1.0001588
1.000158
1.0001572
1.0001561
1.0001549
1.0001534
1.0001516
1.0001496
1.0001471
1.0001442
1.0001408
1.0001368
1.0001321
1.0001266
1.0001202
1.0001129
1.0001046
1.0000952
1.0000845
1.0000726
1.0000595
1.000045
1.0000294
1.0000125
0.99999456
0.9999756
0.99995576
0.99993518
0.99991404
0.99989253
0.99987084
0.99984918
0.99982772
0.99980658
0.99978593
0.99976595
0.9997467
0.99972826
0.99971073
0.99969415
0.99967843
0.99966361
0.99964968
0.99963658
0.99962427
0.99961271
0.99960178
0.99959162
1.0001519
1.0001511
1.0001502
1.0001493
1.0001481
1.0001468
1.0001452
1.0001434
1.0001412
1.0001386
1.0001357
1.0001322
1.0001281
1.0001234
1.0001179
1.0001115
1.0001043
1.0000961
1.0000869
1.0000764
1.0000648
1.000052
1.0000379
1.0000227
1.0000064
0.99998903
0.99997072
0.99995159
0.99993177
0.99991143
0.99989076
0.99986994
0.99984918
0.99982862
0.99980841
0.99978869
0.99976962
0.99975129
0.99973375
0.9997171
0.99970138
0.99968649
0.99967249
0.99965935
0.99964702
0.99963547
0.99962464
0.99961443
0.99960498
1.0001446
1.0001438
1.0001428
1.0001418
1.0001405
1.0001391
1.0001374
1.0001355
1.0001332
1.0001306
1.0001276
1.000124
1.0001199
1.0001152
1.0001097
1.0001035
1.0000963
1.0000883
1.0000791
1.0000689
1.0000576
1.0000451
1.0000315
1.0000167
1.0000009
0.99998408
0.99996639
0.99994794
0.99992885
0.99990928
0.99988942
0.99986944
0.99984953
0.99982984
0.99981051
0.99979167
0.99977349
0.99975602
0.99973933
0.99972352
0.9997086
0.99969451
0.99968128
0.99966888
0.99965728
0.99964643
0.99963629
0.99962676
0.99961796
1.0001376
1.0001367
1.0001357
1.0001345
1.0001332
1.0001317
1.00013
1.000128
1.0001257
1.000123
1.0001199
1.0001164
1.0001123
1.0001075
1.0001021
1.0000959
1.0000888
1.0000809
1.000072
1.000062
1.0000509
1.0000388
1.0000255
1.0000112
0.99999587
0.99997964
0.99996256
0.99994476
0.99992638
0.99990756
0.99988847
0.99986929
0.99985019
0.99983134
0.99981285
0.99979485
0.9997775
0.99976086
0.99974498
0.99972996
0.99971581
0.99970246
0.99968996
0.99967827
0.99966735
0.99965716
0.99964766
0.99963876
0.99963057
1.0001308
1.0001299
1.0001288
1.0001276
1.0001263
1.0001247
1.0001229
1.0001208
1.0001185
1.0001158
1.0001127
1.0001091
1.000105
1.0001003
1.0000949
1.0000888
1.0000818
1.0000741
1.0000653
1.0000556
1.0000448
1.0000329
1.0000201
1.0000062
0.99999137
0.99997568
0.9999592
0.99994204
0.99992433
0.99990622
0.99988787
0.99986946
0.99985115
0.99983308
0.99981539
0.99979819
0.99978163
0.99976577
0.99975067
0.99973639
0.99972296
0.99971032
0.9996985
0.99968747
0.99967719
0.99966762
0.99965873
0.9996504
0.99964278
1.0001243
1.0001233
1.0001222
1.000121
1.0001196
1.000118
1.0001161
1.000114
1.0001116
1.0001089
1.0001058
1.0001022
1.0000981
1.0000935
1.0000881
1.0000821
1.0000753
1.0000677
1.0000591
1.0000496
1.0000391
1.0000276
1.0000151
1.0000017
0.99998733
0.99997217
0.99995626
0.99993972
0.99992266
0.99990524
0.9998876
0.99986992
0.99985235
0.99983504
0.99981811
0.99980167
0.99978586
0.99977074
0.99975636
0.99974279
0.99973005
0.99971807
0.99970689
0.99969648
0.9996868
0.99967781
0.99966947
0.99966169
0.99965459
1.000118
1.000117
1.0001158
1.0001146
1.0001131
1.0001115
1.0001096
1.0001075
1.0001051
1.0001024
1.0000993
1.0000957
1.0000917
1.000087
1.0000818
1.0000758
1.0000692
1.0000617
1.0000533
1.0000441
1.0000339
1.0000227
1.0000106
0.99999759
0.99998371
0.99996907
0.99995372
0.99993777
0.99992135
0.99990458
0.99988763
0.99987065
0.99985379
0.9998372
0.99982098
0.99980527
0.99979017
0.99977574
0.99976205
0.99974914
0.99973703
0.99972568
0.9997151
0.99970527
0.99969615
0.99968769
0.99967987
0.99967259
0.99966597
1.0001119
1.0001108
1.0001096
1.0001084
1.0001069
1.0001053
1.0001034
1.0001013
1.0000989
1.0000962
1.0000931
1.0000895
1.0000855
1.000081
1.0000758
1.00007
1.0000634
1.0000561
1.000048
1.000039
1.0000291
1.0000182
1.0000065
0.9999939
0.99998049
0.99996635
0.99995155
0.99993618
0.99992037
0.99990423
0.99988793
0.99987162
0.99985544
0.99983953
0.999824
0.99980896
0.99979452
0.99978076
0.9997677
0.99975541
0.9997439
0.99973313
0.99972311
0.99971381
0.99970521
0.99969725
0.99968992
0.9996831
0.99967691
1.0001059
1.0001049
1.0001037
1.0001024
1.0001009
1.0000993
1.0000974
1.0000953
1.0000929
1.0000902
1.0000872
1.0000837
1.0000797
1.0000752
1.0000702
1.0000645
1.0000581
1.0000509
1.000043
1.0000342
1.0000246
1.0000141
1.0000028
0.99999059
0.99997764
0.99996399
0.99994972
0.99993491
0.99991969
0.99990416
0.99988849
0.99987281
0.99985728
0.99984202
0.99982713
0.99981273
0.99979892
0.99978576
0.9997733
0.99976158
0.99975062
0.99974039
0.99973088
0.99972208
0.99971395
0.99970645
0.99969956
0.99969316
0.99968738
1.0001001
1.0000991
1.0000979
1.0000966
1.0000952
1.0000935
1.0000917
1.0000896
1.0000872
1.0000845
1.0000815
1.0000781
1.0000742
1.0000698
1.0000648
1.0000593
1.000053
1.0000461
1.0000384
1.0000299
1.0000205
1.0000104
0.99999941
0.99998763
0.99997513
0.99996197
0.99994821
0.99993395
0.99991929
0.99990435
0.99988928
0.99987421
0.99985929
0.99984464
0.99983036
0.99981656
0.99980333
0.99979074
0.99977882
0.99976763
0.99975718
0.99974743
0.9997384
0.99973005
0.99972236
0.99971528
0.99970879
0.99970279
0.99969738
1.0000945
1.0000935
1.0000923
1.000091
1.0000896
1.000088
1.0000861
1.0000841
1.0000818
1.0000791
1.0000761
1.0000728
1.000069
1.0000647
1.0000598
1.0000544
1.0000483
1.0000416
1.0000341
1.0000258
1.0000168
1.000007
0.99999637
0.99998501
0.99997295
0.99996026
0.99994701
0.99993327
0.99991916
0.99990479
0.99989029
0.99987581
0.99986148
0.9998474
0.99983369
0.99982044
0.99980774
0.99979566
0.99978424
0.99977353
0.99976353
0.99975423
0.99974562
0.99973769
0.99973039
0.99972369
0.99971755
0.9997119
0.99970682
1.000089
1.000088
1.0000869
1.0000856
1.0000842
1.0000826
1.0000808
1.0000788
1.0000765
1.0000739
1.000071
1.0000677
1.000064
1.0000598
1.0000551
1.0000498
1.0000439
1.0000374
1.0000301
1.0000221
1.0000134
1.0000039
0.99999365
0.99998269
0.99997106
0.99995884
0.99994608
0.99993287
0.99991929
0.99990546
0.99989152
0.9998776
0.99986382
0.99985029
0.9998371
0.99982435
0.99981214
0.99980052
0.99978954
0.99977925
0.99976967
0.99976076
0.99975254
0.99974497
0.99973803
0.99973168
0.99972588
0.99972055
0.99971577
1.0000837
1.0000827
1.0000816
1.0000804
1.000079
1.0000774
1.0000757
1.0000737
1.0000715
1.000069
1.0000661
1.0000629
1.0000593
1.0000552
1.0000506
1.0000455
1.0000398
1.0000334
1.0000264
1.0000187
1.0000103
1.0000011
0.99999123
0.99998066
0.99996947
0.9999577
0.99994543
0.99993272
0.99991965
0.99990636
0.99989295
0.99987956
0.9998663
0.99985328
0.99984057
0.99982828
0.9998165
0.99980529
0.9997947
0.99978479
0.99977557
0.99976701
0.99975912
0.99975188
0.99974525
0.99973919
0.99973368
0.99972862
0.9997241
1.0000785
1.0000775
1.0000765
1.0000753
1.0000739
1.0000724
1.0000707
1.0000688
1.0000666
1.0000642
1.0000614
1.0000583
1.0000548
1.0000508
1.0000464
1.0000414
1.0000359
1.0000298
1.000023
1.0000155
1.0000074
0.99999859
0.99998908
0.99997891
0.99996814
0.99995683
0.99994503
0.99993281
0.99992025
0.99990746
0.99989458
0.9998817
0.99986894
0.99985638
0.9998441
0.99983222
0.99982081
0.99980996
0.99979972
0.99979013
0.99978122
0.99977297
0.99976538
0.99975843
0.99975209
0.99974631
0.99974107
0.99973628
0.99973202
1.0000734
1.0000725
1.0000715
1.0000703
1.000069
1.0000676
1.0000659
1.0000641
1.000062
1.0000596
1.0000569
1.0000539
1.0000505
1.0000467
1.0000424
1.0000376
1.0000323
1.0000264
1.0000198
1.0000127
1.0000048
0.99999633
0.99998719
0.99997742
0.99996707
0.9999562
0.99994488
0.99993314
0.99992107
0.99990878
0.9998964
0.99988401
0.99987171
0.99985957
0.99984768
0.99983615
0.99982508
0.99981454
0.99980459
0.99979528
0.99978664
0.99977865
0.99977131
0.9997646
0.99975849
0.99975293
0.99974789
0.9997433
0.99973921
1.0000684
1.0000676
1.0000666
1.0000655
1.0000642
1.0000628
1.0000613
1.0000595
1.0000575
1.0000552
1.0000526
1.0000497
1.0000465
1.0000428
1.0000387
1.000034
1.0000289
1.0000232
1.0000169
1.00001
1.0000025
0.99999433
0.99998555
0.99997617
0.99996624
0.99995582
0.99994496
0.99993369
0.9999221
0.99991031
0.99989842
0.9998865
0.99987462
0.99986286
0.99985131
0.99984009
0.99982931
0.99981903
0.99980934
0.99980027
0.99979186
0.9997841
0.99977698
0.99977048
0.99976458
0.99975923
0.99975442
0.99975005
0.99974619
1.0000636
1.0000628
1.0000618
1.0000608
1.0000596
1.0000583
1.0000568
1.0000551
1.0000531
1.000051
1.0000485
1.0000457
1.0000426
1.0000391
1.0000351
1.0000307
1.0000257
1.0000202
1.0000142
1.0000076
1.0000004
0.99999256
0.99998414
0.99997516
0.99996565
0.99995566
0.99994526
0.99993446
0.99992335
0.99991205
0.99990064
0.99988916
0.99987767
0.99986625
0.999855
0.99984406
0.99983353
0.99982349
0.99981401
0.99980515
0.99979692
0.99978932
0.99978236
0.999776
0.99977023
0.999765
0.99976028
0.999756
0.99975221
1.0000589
1.0000581
1.0000572
1.0000562
1.0000551
1.0000538
1.0000524
1.0000508
1.0000489
1.0000468
1.0000445
1.0000419
1.0000389
1.0000355
1.0000317
1.0000275
1.0000228
1.0000175
1.0000117
1.0000054
0.99999848
0.999991
0.99998295
0.99997436
0.99996527
0.99995572
0.99994578
0.99993544
0.99992481
0.999914
0.99990305
0.99989198
0.99988085
0.99986974
0.99985877
0.99984809
0.99983779
0.99982797
0.99981867
0.99980997
0.99980187
0.99979439
0.99978754
0.9997813
0.99977566
0.99977057
0.99976602
0.99976193
0.99975834
1.0000544
1.0000537
1.0000528
1.0000519
1.0000508
1.0000496
1.0000482
1.0000466
1.0000449
1.0000429
1.0000407
1.0000381
1.0000353
1.0000321
1.0000285
1.0000245
1.00002
1.000015
1.0000094
1.0000034
0.9999968
0.99998966
0.99998198
0.99997377
0.99996509
0.99995599
0.9999465
0.99993663
0.99992648
0.99991615
0.99990565
0.99989497
0.99988417
0.99987336
0.99986267
0.99985224
0.99984217
0.99983253
0.99982338
0.99981477
0.99980673
0.99979929
0.99979244
0.99978619
0.99978052
0.99977538
0.99977076
0.99976658
0.99976289
1.0000501
1.0000494
1.0000486
1.0000477
1.0000466
1.0000455
1.0000441
1.0000426
1.000041
1.0000391
1.000037
1.0000346
1.0000319
1.0000289
1.0000255
1.0000217
1.0000174
1.0000126
1.0000074
1.0000016
0.99999531
0.99998851
0.99998119
0.99997339
0.99996512
0.99995646
0.99994742
0.99993802
0.99992835
0.99991852
0.99990846
0.99989814
0.99988766
0.99987715
0.99986676
0.9998566
0.99984674
0.99983726
0.99982819
0.9998196
0.99981155
0.99980406
0.99979717
0.99979089
0.99978522
0.99978014
0.99977563
0.99977163
0.99976814
1.000046
1.0000454
1.0000446
1.0000437
1.0000427
1.0000416
1.0000403
1.0000389
1.0000373
1.0000354
1.0000334
1.0000311
1.0000286
1.0000258
1.0000226
1.000019
1.000015
1.0000105
1.0000055
0.99999997
0.999994
0.99998754
0.9999806
0.99997318
0.99996534
0.99995711
0.99994854
0.9999396
0.99993044
0.99992109
0.99991145
0.99990149
0.99989134
0.99988118
0.99987112
0.99986124
0.99985158
0.9998422
0.99983315
0.99982449
0.99981631
0.99980863
0.99980152
0.99979498
0.99978902
0.99978362
0.99977875
0.99977434
0.99977045
1.0000422
1.0000416
1.0000408
1.00004
1.000039
1.000038
1.0000367
1.0000353
1.0000338
1.000032
1.0000301
1.0000279
1.0000255
1.0000228
1.0000198
1.0000164
1.0000127
1.0000084
1.0000037
0.99999852
0.99999286
0.99998675
0.99998017
0.99997315
0.99996572
0.99995794
0.99994983
0.99994137
0.99993272
0.99992387
0.99991463
0.99990503
0.99989527
0.99988551
0.99987583
0.99986624
0.99985677
0.99984744
0.99983832
0.99982951
0.99982109
0.99981314
0.99980576
0.999799
0.99979289
0.99978745
0.99978267
0.99977852
0.99977494
1.0000386
1.000038
1.0000373
1.0000365
1.0000356
1.0000345
1.0000333
1.000032
1.0000305
1.0000288
1.0000269
1.0000248
1.0000225
1.00002
1.0000171
1.000014
1.0000105
1.0000066
1.0000021
0.99999723
0.99999189
0.99998612
0.99997991
0.99997329
0.99996628
0.99995895
0.9999513
0.99994332
0.9999352
0.99992683
0.99991798
0.99990877
0.99989948
0.99989021
0.99988095
0.99987166
0.99986233
0.99985301
0.99984377
0.9998347
0.99982591
0.99981749
0.99980955
0.99980214
0.99979531
0.99978906
0.9997834
0.99977825
0.99977371
1.0000352
1.0000346
1.0000339
1.0000332
1.0000323
1.0000313
1.0000301
1.0000289
1.0000274
1.0000258
1.000024
1.000022
1.0000198
1.0000173
1.0000146
1.0000117
1.0000085
1.0000048
1.0000007
0.9999961
0.99999107
0.99998566
0.99997983
0.99997361
0.99996703
0.99996016
0.99995299
0.99994551
0.99993794
0.99993004
0.99992157
0.99991284
0.99990411
0.99989538
0.99988655
0.99987754
0.99986835
0.99985901
0.9998496
0.99984022
0.999831
0.99982207
0.99981358
0.99980568
0.99979848
0.99979208
0.99978652
0.99978183
0.99977785
1.0000319
1.0000313
1.0000307
1.0000299
1.0000291
1.0000281
1.0000271
1.0000259
1.0000245
1.000023
1.0000213
1.0000193
1.0000172
1.0000149
1.0000123
1.0000096
1.0000066
1.0000032
0.9999994
0.9999951
0.99999039
0.99998531
0.99997984
0.99997401
0.99996785
0.99996143
0.99995475
0.9999478
0.99994082
0.99993339
0.99992535
0.99991726
0.99990922
0.99990111
0.99989275
0.99988406
0.99987504
0.9998657
0.9998561
0.99984633
0.99983649
0.99982672
0.99981716
0.99980795
0.99979921
0.99979101
0.99978345
0.99977647
0.99977032
1.0000287
1.0000281
1.0000275
1.0000267
1.0000259
1.000025
1.000024
1.0000229
1.0000216
1.0000202
1.0000187
1.0000169
1.0000149
1.0000126
1.0000102
1.0000076
1.0000047
1.0000017
0.99999816
0.99999417
0.99998975
0.99998499
0.99997987
0.99997441
0.99996865
0.99996266
0.99995643
0.99994999
0.99994356
0.99993654
0.99992901
0.99992171
0.99991445
0.99990701
0.99989921
0.99989099
0.99988231
0.99987317
0.99986356
0.99985353
0.99984316
0.9998326
0.99982206
0.99981184
0.99980222
0.99979353
0.99978599
0.99977982
0.99977484
1.0000255
1.0000249
1.0000242
1.0000235
1.0000227
1.0000218
1.0000209
1.0000199
1.0000188
1.0000176
1.0000162
1.0000146
1.0000127
1.0000106
1.0000083
1.0000057
1.000003
1.0000002
0.99999706
0.99999342
0.99998935
0.99998497
0.99998028
0.99997528
0.99997
0.99996448
0.99995871
0.99995278
0.99994684
0.99994008
0.99993313
0.99992667
0.99992005
0.99991321
0.9999059
0.99989819
0.99988991
0.99988107
0.99987152
0.99986129
0.99985034
0.99983874
0.99982656
0.99981397
0.99980112
0.9997884
0.99977598
0.99976429
0.99975364
1.0000223
1.0000217
1.000021
1.0000203
1.0000196
1.0000187
1.0000179
1.000017
1.0000159
1.0000148
1.0000136
1.0000122
1.0000106
1.0000087
1.0000066
1.0000042
1.0000017
0.99999904
0.99999624
0.99999302
0.99998939
0.99998548
0.9999813
0.99997686
0.99997216
0.99996726
0.99996212
0.99995691
0.99995164
0.99994545
0.99993935
0.99993396
0.99992799
0.99992186
0.9999151
0.99990803
0.9999002
0.99989177
0.99988228
0.99987186
0.99986015
0.99984734
0.99983348
0.99981902
0.99980477
0.99979155
0.9997797
0.99977072
0.99976263
1.0000191
1.0000182
1.0000173
1.0000165
1.0000157
1.000015
1.0000142
1.0000135
1.0000127
1.0000118
1.0000109
1.0000097
1.0000084
1.0000069
1.0000051
1.0000029
1.0000004
0.99999776
0.99999508
0.99999209
0.99998868
0.99998493
0.99998089
0.99997655
0.99997202
0.99996742
0.99996273
0.99995811
0.9999534
0.99994803
0.99994322
0.99993903
0.9999341
0.99992925
0.99992375
0.9999181
0.9999116
0.99990457
0.99989627
0.99988694
0.99987574
0.9998627
0.9998473
0.9998293
0.99980974
0.99978591
0.99975944
0.99973068
0.99969981
1.0000146
1.0000136
1.0000129
1.0000124
1.000012
1.0000116
1.0000112
1.0000108
1.0000103
1.0000097
1.000009
1.0000082
1.000007
1.0000056
1.0000038
1.0000016
0.9999989
0.99999594
0.9999931
0.9999901