/*--------------------------------*- C++ -*----------------------------------*\
| =========                 |                                                 |
| \\      /  F ield         | OpenFOAM: The Open Source CFD Toolbox           |
|  \\    /   O peration     | Version:  v2006                                 |
|   \\  /    A nd           | Website:  www.openfoam.com                      |
|    \\/     M anipulation  |                                                 |
\*---------------------------------------------------------------------------*/
FoamFile
{
    version     2.0;
    format      ascii;
    class       volVectorField;
    location    "4500";
    object      U;
}
// * * * * * * * * * * * * * * * * * * * * * * * * * * * * * * * * * * * * * //

dimensions      [0 1 -1 0 0 0 0];


internalField   nonuniform List<vector> 
19765
(
(0.087538836 0.028531537 -9.1870482e-20)
(0.084735869 0.031447807 9.243572e-20)
(0.077877861 0.033227898 -9.4814797e-20)
(0.07013734 0.033425346 0)
(0.063489674 0.032604303 0)
(0.05745422 0.030939237 2.3317653e-19)
(0.051258391 0.028481645 -1.8624403e-19)
(0.045678288 0.025703211 0)
(0.040245061 0.022367856 4.7110039e-19)
(0.034392963 0.018286641 4.0117171e-20)
(0.029589521 0.01401423 -8.0802462e-19)
(0.025811615 0.0094858884 8.0469593e-19)
(0.022449774 0.0047501334 -9.0768948e-19)
(0.019623047 -0.0001289356 -1.0501084e-18)
(0.017574939 -0.0051383703 1.2367965e-18)
(0.015982745 -0.010406853 0)
(0.014638324 -0.015511346 -2.2810029e-20)
(0.013713192 -0.020619048 1.800307e-20)
(0.013204542 -0.025860255 -9.4163255e-19)
(0.013109451 -0.031197729 7.8997356e-19)
(0.013424881 -0.036679083 -3.3936392e-19)
(0.01411341 -0.042034121 5.8775342e-19)
(0.015192524 -0.04724333 -2.660428e-19)
(0.016737688 -0.052696469 1.1220657e-20)
(0.018712636 -0.058134742 -5.4807002e-20)
(0.020873925 -0.062776609 4.3184179e-20)
(0.023224634 -0.066920745 -1.9067769e-19)
(0.02602547 -0.071423092 1.8127148e-19)
(0.02910866 -0.075772436 0)
(0.032301971 -0.079592677 3.3406048e-19)
(0.03586899 -0.083482641 -3.1847731e-19)
(0.040013213 -0.087522228 6.1079841e-19)
(0.045353848 -0.091786049 -5.8928655e-19)
(0.051195079 -0.09553496 2.8402383e-19)
(0.056109927 -0.097829604 -2.7984456e-19)
(0.060732675 -0.099599147 -2.654417e-19)
(0.066852043 -0.10181756 1.8809457e-22)
(0.073428645 -0.10358743 5.1599503e-19)
(0.079460234 -0.10440777 -2.7218951e-19)
(0.087164172 -0.10529356 -2.4701057e-19)
(0.09611506 -0.10571368 2.4168387e-19)
(0.10220598 -0.10420987 -1.5063161e-20)
(0.10759779 -0.10182545 -2.9707469e-20)
(0.11284144 -0.098699668 1.1930449e-19)
(0.11594655 -0.094647277 -2.7019986e-19)
(0.1183797 -0.089830889 1.2080355e-19)
(0.11837625 -0.084414592 0)
(0.11720631 -0.078949849 -1.2703004e-19)
(0.11588022 -0.074036712 0)
(0.07901738 0.016513027 1.4979695e-19)
(0.075988617 0.01913021 1.4423746e-19)
(0.072439483 0.021231754 -6.8546758e-20)
(0.068604159 0.022025819 6.8054129e-20)
(0.064721109 0.02191457 -3.3623111e-19)
(0.061021174 0.021099627 2.6653869e-19)
(0.057437917 0.019766839 -3.2589255e-20)
(0.054140767 0.018045215 2.5855587e-19)
(0.051002407 0.015938841 3.1549215e-20)
(0.047857222 0.013598732 -2.9578828e-19)
(0.044939123 0.010896678 1.5761078e-20)
(0.04243128 0.0077738923 4.7831933e-19)
(0.040206077 0.0042893151 -7.7343761e-19)
(0.038296367 0.00056909242 2.3079733e-19)
(0.036873611 -0.0033448284 -2.7049477e-19)
(0.035741999 -0.0074467673 3.1202049e-19)
(0.034736253 -0.011706535 -1.8087671e-20)
(0.034074122 -0.016080487 0)
(0.033857363 -0.020544759 1.9591902e-20)
(0.034048173 -0.025063245 -2.9779438e-19)
(0.034604732 -0.029584894 2.5985896e-19)
(0.035426005 -0.034140783 2.0250712e-20)
(0.036585129 -0.038671608 7.5926806e-21)
(0.038161025 -0.043088151 -1.0698576e-20)
(0.040000786 -0.047408664 -2.7004227e-20)
(0.041946991 -0.051727614 2.2571355e-20)
(0.044109702 -0.055964847 9.2354833e-20)
(0.046595901 -0.060010572 -2.9494566e-19)
(0.049334122 -0.063923583 3.6456905e-19)
(0.052305027 -0.067682368 -1.7598917e-19)
(0.055567003 -0.071189099 1.0610421e-20)
(0.059188883 -0.074351374 0)
(0.063153855 -0.077036346 1.6904348e-19)
(0.067270438 -0.079321083 -7.1513527e-23)
(0.07142915 -0.081355207 -1.5655316e-19)
(0.075725448 -0.083099683 -1.7331219e-19)
(0.080222253 -0.08436923 6.9987286e-23)
(0.084822759 -0.085131139 -1.3332587e-19)
(0.089481702 -0.085384147 1.4229733e-19)
(0.094210636 -0.084953254 1.5079552e-19)
(0.098861485 -0.0836853 1.7326664e-19)
(0.10339822 -0.081631163 -3.1912756e-19)
(0.10783439 -0.079196562 1.8231939e-19)
(0.11211595 -0.076104726 -2.1155967e-20)
(0.11603687 -0.072998038 -8.7076664e-20)
(0.11954694 -0.06976654 1.8012123e-19)
(0.12258262 -0.066628512 -1.3989335e-19)
(0.12513582 -0.0639395 -4.8120111e-20)
(0.12734073 -0.061396198 9.9109102e-20)
(0.082799077 0.015737919 8.14929e-20)
(0.080509221 0.015872435 4.2863783e-24)
(0.0778488 0.015840007 1.5884302e-19)
(0.074960041 0.015687196 -2.000698e-24)
(0.072090896 0.015151158 -2.4949821e-19)
(0.069264879 0.014323779 3.431757e-19)
(0.066530998 0.013188054 -8.7271385e-20)
(0.063912028 0.011864708 0)
(0.061445485 0.010244087 0)
(0.058968506 0.008456038 4.7926252e-20)
(0.056664756 0.0063883366 0)
(0.054609274 0.0039843341 5.3239107e-20)
(0.052750402 0.001288143 5.0765029e-19)
(0.051143534 -0.0016279114 6.0665275e-19)
(0.049893517 -0.004750335 -1.0536362e-18)
(0.048879081 -0.0080674512 -3.0748987e-23)
(0.048015167 -0.011546076 4.039734e-20)
(0.047425713 -0.015165594 -7.4348998e-19)
(0.047166863 -0.018921251 8.2813441e-19)
(0.047254443 -0.022758767 0)
(0.047670033 -0.026626265 5.0783058e-20)
(0.048314034 -0.030579274 -1.4827019e-23)
(0.049312295 -0.03452612 -1.7776838e-20)
(0.050678537 -0.038399257 -3.0825598e-20)
(0.052265363 -0.042193712 1.087796e-19)
(0.053979769 -0.045983016 -1.2396202e-20)
(0.05598299 -0.049693788 -1.6888635e-19)
(0.05831103 -0.053238491 5.1770959e-19)
(0.060843875 -0.056673686 -3.0963941e-19)
(0.063617925 -0.059952708 3.630609e-20)
(0.066647131 -0.06299222 2.5681805e-19)
(0.069905384 -0.06574049 -5.5294686e-19)
(0.073381789 -0.068102283 -2.6393465e-19)
(0.076908683 -0.070223961 4.830933e-19)
(0.080485901 -0.072175072 4.6948729e-19)
(0.08418274 -0.073809623 -4.2493327e-19)
(0.087990444 -0.075000079 0)
(0.09179035 -0.075910046 1.8870247e-19)
(0.095619277 -0.076458833 -2.1038779e-19)
(0.099426828 -0.076522061 2.3083943e-19)
(0.10310401 -0.076299955 -2.3027963e-19)
(0.10661345 -0.07600592 0)
(0.11002302 -0.075319189 0)
(0.11314204 -0.074361318 2.5662528e-20)
(0.11605365 -0.073206444 0)
(0.11862737 -0.072021992 -5.1107607e-20)
(0.12095176 -0.070728305 2.0190186e-19)
(0.12307346 -0.069349259 -9.9880098e-20)
(0.12503055 -0.067827728 0)
(0.081852792 0.011117394 -8.5757738e-20)
(0.080195519 0.011229197 -2.5473824e-19)
(0.078481537 0.011163008 8.2688552e-20)
(0.076678532 0.010974408 -4.2307028e-19)
(0.074855026 0.010498363 3.4518752e-19)
(0.073038762 0.0098020086 3.5589385e-19)
(0.071249831 0.0088614918 -2.7112376e-19)
(0.069523427 0.0077807544 3.7574668e-19)
(0.067842149 0.0064446407 4.8937347e-23)
(0.066161633 0.0050033999 -8.9105518e-19)
(0.064570555 0.0033583618 5.1819944e-19)
(0.063118973 0.0014477724 0)
(0.06178374 -0.00069910693 -5.7232304e-20)
(0.060619679 -0.0030131108 -1.0362855e-18)
(0.059698527 -0.0055253296 1.1786223e-18)
(0.058947404 -0.0082344267 1.0641873e-18)
(0.058319138 -0.011071655 -2.5056694e-18)
(0.057906971 -0.014032782 1.418185e-18)
(0.05777015 -0.017149034 -8.276337e-19)
(0.057920945 -0.020340825 1.0106221e-18)
(0.058356664 -0.023551461 0)
(0.059002294 -0.026866515 -5.7348352e-19)
(0.059924063 -0.03017404 6.6930514e-19)
(0.061129212 -0.033434314 -3.6753149e-19)
(0.062540524 -0.036640888 6.1753534e-20)
(0.064106792 -0.039845711 -7.3343659e-24)
(0.065921377 -0.042972415 -1.948097e-19)
(0.067996151 -0.045942131 5.3422726e-19)
(0.07025112 -0.048793146 -3.3201619e-19)
(0.072702845 -0.051481764 -3.5050962e-19)
(0.075342972 -0.053939589 2.9476582e-19)
(0.078136756 -0.056135651 6.6724451e-19)
(0.08105411 -0.05800734 -1.7936875e-22)
(0.083995722 -0.059662984 -5.9290143e-19)
(0.086982061 -0.06115089 4.5108554e-19)
(0.090038445 -0.06237316 -5.0118198e-19)
(0.093113427 -0.063243642 4.8813765e-19)
(0.096138811 -0.063880709 -9.6585036e-19)
(0.099151238 -0.064245272 5.0301929e-19)
(0.10208503 -0.064265493 2.0279127e-19)
(0.10488311 -0.0640566 -2.3160996e-19)
(0.10762756 -0.063750365 -5.8237755e-20)
(0.11036993 -0.063168596 2.2833661e-19)
(0.1129737 -0.062467635 -2.3170699e-19)
(0.11555116 -0.061542406 0)
(0.1180293 -0.060455622 1.1518672e-19)
(0.12049412 -0.059257264 -5.695592e-20)
(0.12290411 -0.058001368 0)
(0.12526802 -0.056740873 0)
(0.08281452 0.0089442052 -8.0083126e-20)
(0.081487694 0.0085661064 -2.3734977e-19)
(0.080124123 0.008144319 3.078909e-19)
(0.078728666 0.0077291822 7.8368107e-20)
(0.077342378 0.0071621489 2.3863837e-19)
(0.075972167 0.0064789014 -2.4441267e-19)
(0.0746267 0.0056408766 2.4698974e-19)
(0.07332717 0.0047126845 -4.2435674e-19)
(0.072063215 0.0035968838 -8.6089248e-20)
(0.070800867 0.0023953767 1.7626399e-19)
(0.069605038 0.0010274683 -8.2179356e-19)
(0.068507338 -0.00055562769 8.5293682e-19)
(0.067494795 -0.0023366591 9.846901e-20)
(0.066608702 -0.0042704743 8.2747424e-19)
(0.065901263 -0.0063834459 -1.0935388e-19)
(0.065326427 -0.0086688955 -9.3037652e-19)
(0.06485661 -0.011075973 0)
(0.064561816 -0.013610734 0)
(0.064491066 -0.016298388 0)
(0.064658763 -0.019088674 -5.3919211e-19)
(0.065066143 -0.021940133 8.0543544e-19)
(0.065669579 -0.0248683 -8.2233282e-19)
(0.066512624 -0.027785692 5.1732112e-19)
(0.067610501 -0.030675563 -6.2228901e-20)
(0.06890765 -0.033523637 1.0484693e-23)
(0.070358135 -0.036358711 2.4273911e-20)
(0.072020013 -0.039112161 4.3925459e-20)
(0.073900004 -0.041728681 -8.0737473e-20)
(0.075936973 -0.044237633 2.2673607e-19)
(0.078133045 -0.046594506 -2.8530251e-19)
(0.080475306 -0.048748291 0)
(0.082931687 -0.050680106 -5.8472717e-19)
(0.085473455 -0.052342061 1.0027755e-18)
(0.088024303 -0.053825978 -4.3007881e-19)
(0.090589241 -0.055163874 -4.2221623e-19)
(0.093183017 -0.056278008 1.4186703e-22)
(0.095771007 -0.05710942 9.2261261e-19)
(0.09830108 -0.057770149 -4.5781167e-19)
(0.10079553 -0.058226673 0)
(0.10322032 -0.058427687 0)
(0.10553976 -0.058487542 -1.6627928e-19)
(0.10779746 -0.058539397 2.2340546e-19)
(0.11003919 -0.05838555 5.4952362e-20)
(0.11217972 -0.058232086 3.3475939e-19)
(0.11430728 -0.057939838 -5.5248823e-20)
(0.11636211 -0.057628485 -2.7922875e-19)
(0.11838385 -0.05725552 5.5796768e-20)
(0.12036912 -0.056735898 0)
(0.12231494 -0.056032717 -3.6341055e-23)
(0.083589576 0.0066604371 4.2245153e-24)
(0.082603473 0.0062882539 -5.8086021e-24)
(0.081598306 0.0058593704 0)
(0.080570519 0.0054142886 -3.6202122e-19)
(0.079552665 0.0048505418 7.3127486e-20)
(0.078544121 0.0041951279 2.2354648e-19)
(0.077546321 0.0034214767 7.4972056e-20)
(0.076578033 0.0025735393 1.5360025e-19)
(0.075628302 0.0015808059 7.752043e-20)
(0.074674224 0.00051141023 -1.5767367e-19)
(0.073768692 -0.0006933472 0)
(0.072937063 -0.0020702345 -2.5020199e-19)
(0.072170533 -0.0036100254 -8.5903851e-20)
(0.07150254 -0.005283194 1.7848583e-19)
(0.070976 -0.0071084523 0)
(0.070559285 -0.0090818886 -1.9570089e-19)
(0.070234301 -0.01116924 1.0385549e-18)
(0.070058047 -0.013373553 -8.9580266e-19)
(0.070073101 -0.015708247 0)
(0.070294683 -0.01813282 9.643335e-19)
(0.070732254 -0.020612301 -1.2767676e-18)
(0.071353165 -0.023151899 7.8418366e-19)
(0.0721785 -0.025693812 -4.5340995e-19)
(0.073229015 -0.028224478 1.1000391e-19)
(0.074461613 -0.03071917 -9.6565314e-20)
(0.075839458 -0.033194097 -1.3012755e-19)
(0.077400217 -0.035594033 1.1845226e-19)
(0.07914648 -0.037872238 3.6476789e-19)
(0.081031497 -0.040045824 -6.1735544e-19)
(0.083049626 -0.042080177 1.3151878e-22)
(0.085184451 -0.043935877 4.9698334e-19)
(0.087407165 -0.045597735 4.7827461e-19)
(0.089690594 -0.047030888 -4.634104e-19)
(0.091978153 -0.048299897 -1.1384304e-19)
(0.094270162 -0.049430372 0)
(0.096570572 -0.050372522 4.3949553e-19)
(0.098850296 -0.051088185 -1.0855129e-22)
(0.10107283 -0.051652558 -4.2926031e-19)
(0.10325339 -0.052048303 0)
(0.10536777 -0.052245797 0)
(0.10739606 -0.052317881 -1.0460583e-19)
(0.10936962 -0.052343965 5.2690596e-20)
(0.11133397 -0.052210067 -5.1944333e-20)
(0.11322611 -0.052032286 -5.2711695e-19)
(0.11512489 -0.051729756 4.698855e-19)
(0.11699227 -0.051361387 0)
(0.11887848 -0.050900455 -5.2691274e-20)
(0.12077652 -0.050347477 0)
(0.12268121 -0.049667009 2.0762236e-19)
(0.084664154 0.0051443282 6.9329144e-20)
(0.083861031 0.0046822314 -1.3662454e-19)
(0.083047724 0.0041981234 -2.6561961e-19)
(0.082228418 0.003718094 5.3679496e-19)
(0.081426783 0.0031570375 -4.0552685e-19)
(0.080639538 0.0025313305 0)
(0.079863769 0.0018170936 5.502882e-19)
(0.079113822 0.0010429827 -7.0095262e-20)
(0.078379453 0.00015377716 3.3051193e-23)
(0.077642655 -0.00080366135 -9.2728244e-19)
(0.076945928 -0.0018752621 -2.8661618e-23)
(0.076309012 -0.0030902898 5.9580614e-19)
(0.075725741 -0.0044438715 6.0913569e-19)
(0.07522327 -0.005915641 -1.412272e-18)
(0.074836666 -0.007520192 6.4970523e-19)
(0.074544069 -0.0092554925 8.435981e-19)
(0.074334339 -0.011096646 -1.5920922e-18)
(0.074253695 -0.013045158 1.9279441e-23)
(0.07433736 -0.01510942 6.0794697e-19)
(0.074599058 -0.017257605 -8.8996643e-19)
(0.075046649 -0.019463677 7.5156988e-19)
(0.075657577 -0.021723541 5.1620491e-19)
(0.076447002 -0.023987004 2.2686411e-19)
(0.077436747 -0.026243812 -1.9430564e-19)
(0.078591618 -0.028471948 1.3403868e-21)
(0.079882406 -0.030680428 -7.7492326e-20)
(0.081335433 -0.032821715 0)
(0.082949418 -0.034856916 1.3175574e-19)
(0.084685698 -0.036799339 -1.2444515e-19)
(0.086535946 -0.038619038 1.1847988e-19)
(0.088483413 -0.040283874 0)
(0.090502704 -0.041782933 0)
(0.092568579 -0.043088079 4.2766202e-19)
(0.094635281 -0.044254365 -4.2158978e-19)
(0.096699867 -0.045302914 -4.1625503e-19)
(0.098762981 -0.046192878 8.1890722e-19)
(0.10080099 -0.04689356 -9.4479531e-23)
(0.10278731 -0.047472826 -1.005728e-19)
(0.10473216 -0.047915573 -3.977714e-19)
(0.10661867 -0.048194831 -3.9303774e-19)
(0.10843321 -0.048376672 4.4348633e-19)
(0.11020258 -0.048540285 0)
(0.11195693 -0.048571966 -1.9610813e-19)
(0.11365903 -0.048595122 1.9888462e-19)
(0.11536329 -0.048522155 -1.9710992e-19)
(0.11704819 -0.048423277 9.9574893e-20)
(0.11874768 -0.04826664 0)
(0.12046149 -0.0480471 1.9828537e-19)
(0.12219908 -0.047708288 -1.9602909e-19)
(0.085655372 0.0037649848 -1.9382121e-19)
(0.085025899 0.0033220458 1.2725358e-19)
(0.084387255 0.0028553928 2.4742439e-19)
(0.083743365 0.0023850171 -1.2466411e-19)
(0.08311576 0.0018488689 -3.7582609e-19)
(0.082500351 0.0012586912 7.6037059e-19)
(0.081893779 0.0005961872 -8.8717301e-19)
(0.081308272 -0.00011887507 5.146758e-19)
(0.08073533 -0.00092857742 -1.289092e-19)
(0.080160779 -0.0018007482 -1.2992836e-19)
(0.079620631 -0.002770466 -5.2800175e-19)
(0.079131049 -0.0038607268 9.6106565e-24)
(0.078687636 -0.0050695435 -1.4455865e-23)
(0.078312946 -0.0063828347 8.3737665e-19)
(0.078036412 -0.0078113304 0)
(0.077842466 -0.0093544342 -2.9541671e-19)
(0.07772449 -0.01099449 0)
(0.077721233 -0.012731421 3.2247908e-19)
(0.07786254 -0.014569507 -1.7152015e-19)
(0.078161213 -0.01648274 0)
(0.078624903 -0.018449826 -4.8452978e-23)
(0.079239248 -0.020463812 -2.1713107e-19)
(0.080014341 -0.022482624 0)
(0.080968199 -0.024497252 -1.7226431e-19)
(0.082072945 -0.026487499 7.5322711e-20)
(0.083304598 -0.028456956 3.4727163e-20)
(0.084681182 -0.03036508 0)
(0.08619936 -0.032177774 -1.1928758e-19)
(0.08782699 -0.033903688 -1.1308639e-19)
(0.089554064 -0.035518048 -1.0815427e-19)
(0.091363667 -0.036994288 0)
(0.09323274 -0.038323348 -2.0231992e-19)
(0.095138037 -0.03948282 0)
(0.097042334 -0.040515602 -9.7576111e-20)
(0.098941541 -0.041439226 8.5995527e-23)
(0.10083325 -0.042223768 8.3277381e-23)
(0.10269692 -0.042846595 3.7711747e-19)
(0.10451191 -0.04335971 4.7038527e-19)
(0.10628582 -0.043753371 -7.4141066e-23)
(0.10800477 -0.044008402 -6.9851137e-23)
(0.10965949 -0.044173675 -7.4230566e-19)
(0.1112714 -0.044306832 6.7800546e-23)
(0.11286794 -0.044327138 3.7009539e-19)
(0.11441857 -0.044320144 1.8749766e-19)
(0.11597207 -0.044224273 -1.8607944e-19)
(0.11751112 -0.044084655 9.3912546e-20)
(0.11906847 -0.043876695 9.3806695e-20)
(0.12064622 -0.043594121 -1.8705924e-19)
(0.12225416 -0.043200187 2.7750649e-19)
(0.086664189 0.0027449022 1.2052395e-19)
(0.086150367 0.0023012247 -4.1535725e-19)
(0.08562965 0.0018425574 0)
(0.085107813 0.0013828363 -4.6438302e-19)
(0.084602787 0.00087105377 9.3129109e-19)
(0.084110509 0.00031477362 -4.6974219e-19)
(0.083627158 -0.00030160464 -1.1719954e-19)
(0.083163075 -0.00096445512 1.1855507e-19)
(0.082710963 -0.0017073557 2.3691583e-19)
(0.082259457 -0.0025074725 0)
(0.081839107 -0.0033926963 0)
(0.081463352 -0.0043816632 -1.2169095e-19)
(0.081129026 -0.005473928 0)
(0.08085518 -0.0066593634 -2.505214e-19)
(0.080666763 -0.0079462367 0)
(0.080552504 -0.0093347668 -7.8503799e-19)
(0.080508751 -0.010811793 5.3946332e-19)
(0.080568308 -0.012376166 -5.6196027e-19)
(0.080756552 -0.014029717 8.8789777e-19)
(0.081084978 -0.015750947 6.3218647e-19)
(0.081560282 -0.01752234 -5.1578613e-19)
(0.082172973 -0.019336076 1.8585367e-19)
(0.082930569 -0.021155369 -1.7652011e-19)
(0.08384796 -0.022970902 1.4610624e-23)
(0.084903057 -0.024765536 6.8464854e-20)
(0.086075902 -0.026540045 -6.2428207e-20)
(0.087379245 -0.028259362 0)
(0.088808357 -0.029893812 1.0817813e-19)
(0.090335799 -0.031449838 1.0296662e-19)
(0.091951106 -0.032906377 0)
(0.093637988 -0.034241064 -1.9120444e-19)
(0.095375777 -0.035446812 3.7258371e-19)
(0.097143183 -0.036505206 0)
(0.098909052 -0.037452616 -9.0413736e-19)
(0.10066855 -0.038304021 7.1817701e-19)
(0.10241797 -0.039034786 0)
(0.10413925 -0.039626186 3.5216389e-19)
(0.10581635 -0.040123638 -3.5217159e-19)
(0.1074545 -0.040518785 0)
(0.10904228 -0.040794601 2.6061789e-19)
(0.11057255 -0.040994062 -3.4911972e-19)
(0.11206493 -0.041170691 0)
(0.11353822 -0.041249029 8.7173324e-20)
(0.11497308 -0.041311965 -3.5314667e-19)
(0.11640592 -0.041299745 3.5078486e-19)
(0.1178266 -0.041259336 3.5391608e-19)
(0.11926096 -0.041167294 -4.4187138e-19)
(0.12071229 -0.041020284 4.4064774e-19)
(0.12219007 -0.040773361 -4.3596907e-19)
(0.087606966 0.0018571628 -5.6290438e-20)
(0.087192936 0.0014398066 1.1086237e-19)
(0.086772297 0.0010074566 2.1571947e-19)
(0.086350371 0.00057037955 5.4150489e-19)
(0.08594373 8.8994116e-05 -5.4197395e-19)
(0.085548577 -0.0004317564 -4.3637495e-19)
(0.085161733 -0.0010045425 9.7789171e-19)
(0.084792176 -0.0016199763 -5.4795467e-19)
(0.084434153 -0.0023045851 -5.4614176e-19)
(0.084078426 -0.0030424213 8.7471557e-19)
(0.08375153 -0.0038555204 -4.4067206e-19)
(0.083464945 -0.0047589562 2.2201627e-19)
(0.083216495 -0.0057532702 2.2352125e-19)
(0.083022514 -0.006831128 9.0526162e-19)
(0.082904494 -0.0079987229 -9.1923973e-19)
(0.082854213 -0.0092567808 0)
(0.082870034 -0.010595527 0)
(0.082980161 -0.012013033 4.4788312e-23)
(0.083206425 -0.013509361 0)
(0.083559167 -0.015066437 5.4744887e-19)
(0.084044568 -0.016669084 -5.8877511e-19)
(0.084656747 -0.01830944 6.4461995e-19)
(0.085401537 -0.019955696 -3.1389566e-19)
(0.086290723 -0.021597723 4.8008243e-19)
(0.087306795 -0.02322093 -6.1523263e-20)
(0.088432544 -0.024824104 -1.126157e-19)
(0.089676869 -0.026376527 -1.0452547e-19)
(0.09103429 -0.027851821 -2.951406e-19)
(0.092481137 -0.029254272 -5.6361994e-19)
(0.09400677 -0.030565873 1.8102611e-19)
(0.095595529 -0.031767382 1.7569616e-19)
(0.097228548 -0.032852729 -1.7174637e-19)
(0.098886203 -0.033806517 -6.7521551e-19)
(0.10054197 -0.03465851 1.3412628e-18)
(0.10219062 -0.035421395 -6.6742161e-19)
(0.10382719 -0.036075629 0)
(0.10543527 -0.036606203 -4.9360947e-19)
(0.10700158 -0.037050298 4.9451471e-19)
(0.10852981 -0.037401913 1.641825e-19)
(0.11000963 -0.037647682 -2.4506146e-19)
(0.11143546 -0.037822035 -1.6423683e-19)
(0.11282407 -0.037967984 0)
(0.1141916 -0.038026146 -8.218034e-20)
(0.11552167 -0.03806114 -2.4963081e-19)
(0.11684667 -0.038026275 5.7911139e-19)
(0.11815792 -0.037956805 -2.5039167e-19)
(0.11947927 -0.037833591 -1.6677766e-19)
(0.12081415 -0.037652614 -2.4946805e-19)
(0.12217222 -0.037378226 -1.6463616e-19)
(0.088509138 0.0011659688 5.2649212e-19)
(0.088169838 0.00076846076 2.0735998e-19)
(0.087824769 0.00035824532 -5.0464891e-19)
(0.087479444 -5.7308219e-05 4.0470822e-19)
(0.087148479 -0.00051073074 -8.0887223e-19)
(0.086828557 -0.00099909276 3.0462989e-19)
(0.086516914 -0.001533182 3.0290523e-19)
(0.086221464 -0.002106574 -4.0623844e-19)
(0.085937575 -0.0027408011 0)
(0.085657793 -0.0034245624 -8.0667922e-19)
(0.08540526 -0.0041756554 8.1001158e-19)
(0.085189948 -0.0050064886 -8.1316265e-19)
(0.085010456 -0.0059181295 6.1176443e-19)
(0.084880983 -0.0069051276 -4.1116795e-19)
(0.084820216 -0.007972172 1.2466432e-18)
(0.084822157 -0.0091202207 8.4154126e-19)
(0.084886555 -0.010341787 -1.2858323e-18)
(0.085037867 -0.011634396 2.2031203e-19)
(0.085294997 -0.012996946 1.3713483e-18)
(0.085667197 -0.014414065 -9.5986014e-19)
(0.086160238 -0.015872189 -5.1139099e-19)
(0.086770277 -0.01736395 5.5551855e-19)
(0.087502066 -0.018861829 -9.6536423e-19)
(0.088364957 -0.020354607 2.4641084e-19)
(0.089344907 -0.021830073 -5.5487829e-20)
(0.090426993 -0.023286096 1.0194468e-19)
(0.091617367 -0.024695364 9.4967932e-20)
(0.092910075 -0.026034489 5.3809544e-19)
(0.094284415 -0.027306459 -1.7181676e-19)
(0.095729903 -0.02849578 4.9800685e-19)
(0.097231654 -0.029585826 0)
(0.098772469 -0.030571589 0)
(0.10033427 -0.03144016 0)
(0.10189416 -0.03221689 3.110596e-19)
(0.1034468 -0.032912868 -3.102336e-19)
(0.10498658 -0.033511935 3.0871221e-19)
(0.10649847 -0.034001566 -3.0754614e-19)
(0.10797155 -0.034414078 1.5427433e-19)
(0.10940821 -0.034744632 -6.1599818e-19)
(0.1107991 -0.03498172 4.6057063e-19)
(0.11213954 -0.035155295 -1.544463e-19)
(0.11344513 -0.035304046 3.1170779e-19)
(0.114727 -0.035374671 0)
(0.11597413 -0.035426437 -7.8391407e-20)
(0.11721203 -0.03541663 1.5600577e-19)
(0.11843538 -0.03537891 -1.572884e-19)
(0.11966386 -0.035295871 3.1440895e-19)
(0.12090161 -0.035165526 1.5680393e-19)
(0.12215658 -0.034950764 -2.274285e-23)
(0.089349823 0.00057808497 -2.9578607e-19)
(0.089073254 0.0002071425 0)
(0.088791423 -0.00017648447 -7.7620842e-24)
(0.088509216 -0.00056755122 0)
(0.088240115 -0.00099212555 -3.7780668e-19)
(0.087981219 -0.0014487064 9.4673359e-20)
(0.087730433 -0.0019463435 5.6401263e-19)
(0.087494784 -0.0024807855 1.8865971e-19)
(0.087270755 -0.0030694841 -5.6173052e-19)
(0.087052296 -0.0037046311 -7.4590023e-19)
(0.086859834 -0.0044006095 7.467056e-19)
(0.08670218 -0.0051676662 0)
(0.086578577 -0.0060071738 3.734987e-19)
(0.086501517 -0.0069150422 -3.7512401e-19)
(0.086487425 -0.007894747 7.5511725e-19)
(0.086531979 -0.0089473356 -7.6143179e-19)
(0.086635905 -0.010067012 5.3779357e-23)
(0.086820608 -0.011250915 7.8946156e-19)
(0.087102584 -0.01249711 -1.2217173e-18)
(0.087490169 -0.013792324 8.4951313e-19)
(0.087988835 -0.015124231 -1.1231123e-18)
(0.088595917 -0.016485962 -2.4185957e-19)
(0.089315604 -0.017853635 0)
(0.090155445 -0.019215191 0)
(0.091103685 -0.020560257 0)
(0.092147459 -0.021886156 0)
(0.093290802 -0.023168384 0)
(0.09452751 -0.024385971 1.6391282e-19)
(0.095839304 -0.025540767 -6.2966621e-19)
(0.097215955 -0.026619281 3.05129e-19)
(0.098643313 -0.027606896 5.9581613e-19)
(0.10010554 -0.028499246 -5.8591817e-19)
(0.10158585 -0.029285287 5.7912636e-19)
(0.10306421 -0.029986342 -5.777389e-19)
(0.10453514 -0.030611989 2.8868347e-19)
(0.10599244 -0.031148904 -2.8796779e-19)
(0.10742208 -0.031586657 4.3131079e-19)
(0.1088146 -0.031952685 5.7784752e-19)
(0.1101714 -0.032243419 -2.8906498e-19)
(0.11148362 -0.032449458 -1.4045063e-24)
(0.11274722 -0.0325959 0)
(0.11397609 -0.032715467 -1.4671629e-19)
(0.11517913 -0.032763951 1.4602216e-19)
(0.11634711 -0.032790526 2.9559444e-19)
(0.11750246 -0.03275994 -3.6805596e-19)
(0.11864063 -0.03269966 -3.7105073e-19)
(0.11977942 -0.032594968 2.9675549e-19)
(0.12092258 -0.032443981 0)
(0.12207746 -0.032214624 1.4676107e-19)
(0.090140739 0.0001087813 -2.7718657e-19)
(0.089914005 -0.00023907403 -2.7293708e-19)
(0.089682659 -0.00059900759 2.6596415e-19)
(0.089451273 -0.00096735041 0)
(0.089232032 -0.0013655852 -2.6502442e-19)
(0.089022499 -0.0017932616 -6.2727224e-24)
(0.088821079 -0.0022581473 5.2590295e-19)
(0.088634094 -0.0027575531 -5.2650579e-19)
(0.088458879 -0.003305849 5.2168419e-19)
(0.088290582 -0.003897706 0)
(0.088147311 -0.004544894 0)
(0.088036944 -0.0052559645 0)
(0.087959248 -0.0060324291 -3.4319832e-19)
(0.087925327 -0.006871164 -6.8691768e-19)
(0.087949724 -0.0077747149 1.3779558e-18)
(0.088029403 -0.0087441127 -1.3842678e-18)
(0.088165778 -0.0097747621 3.4951679e-19)
(0.088377705 -0.01086354 2.4627954e-23)
(0.088679674 -0.012007935 7.3047182e-19)
(0.089079213 -0.013196332 3.7888869e-19)
(0.089581463 -0.014417458 -1.9770927e-23)
(0.090184507 -0.015664902 0)
(0.090892126 -0.016917794 2.1693269e-19)
(0.091710444 -0.018163673 -2.0123247e-19)
(0.092629383 -0.019393541 0)
(0.093637799 -0.020604435 -8.430884e-20)
(0.094738129 -0.0217743 0)
(0.095924042 -0.022884278 1.5011936e-19)
(0.097179235 -0.023935422 -2.891347e-19)
(0.098493809 -0.024915946 -5.616716e-19)
(0.099854337 -0.025812966 8.7921496e-23)
(0.10124618 -0.026622755 8.131391e-19)
(0.10265374 -0.027335902 -5.3715662e-19)
(0.10405928 -0.027970724 2.6846041e-19)
(0.10545734 -0.028535727 0)
(0.10684143 -0.029019844 -8.0618253e-19)
(0.10819839 -0.029414367 4.0641004e-23)
(0.10952009 -0.029743299 -5.4128193e-19)
(0.11080715 -0.030004009 4.0687392e-19)
(0.11205122 -0.03018861 -4.0695528e-19)
(0.1132487 -0.030318994 7.4975821e-23)
(0.11441254 -0.030424286 6.9062965e-19)
(0.11554869 -0.03046561 1.3763937e-19)
(0.11665062 -0.03048695 -2.7867995e-19)
(0.11773665 -0.030456993 -2.7778568e-19)
(0.11880385 -0.030400855 3.5009705e-19)
(0.11986728 -0.030305411 7.001201e-20)
(0.12093092 -0.030170001 1.3974852e-19)
(0.12200043 -0.029963235 -2.0798391e-19)
(0.09087712 -0.00028331818 0)
(0.090692211 -0.0006071838 -8.5340339e-20)
(0.090503327 -0.00094312565 0)
(0.090314432 -0.0012887226 0)
(0.090136764 -0.0016614818 0)
(0.089968261 -0.0020617195 0)
(0.08980785 -0.0024960823 -6.5469623e-19)
(0.089661242 -0.0029630465 6.5411882e-19)
(0.089526534 -0.0034744684 6.4712118e-19)
(0.089399852 -0.0040268904 -1.283551e-18)
(0.089297362 -0.0046299686 6.3912849e-19)
(0.089226183 -0.0052908696 0)
(0.089186522 -0.0060111518 6.3231964e-19)
(0.089188336 -0.0067884001 -3.1548102e-19)
(0.089244603 -0.0076244151 -3.1542634e-19)
(0.089353288 -0.0085201516 1.2631848e-18)
(0.089516298 -0.0094718971 -6.3558397e-19)
(0.08975035 -0.010476352 -6.444709e-19)
(0.090068245 -0.011530591 1.7259537e-23)
(0.090476815 -0.012624325 3.4010601e-19)
(0.09098086 -0.013747175 -3.5562797e-19)
(0.091579007 -0.014893107 -3.7763418e-19)
(0.092274687 -0.016043705 3.8863568e-19)
(0.09307289 -0.017186469 0)
(0.093964839 -0.018313426 8.3124678e-20)
(0.094940792 -0.019421412 -3.5205158e-25)
(0.096001955 -0.020490481 0)
(0.097141969 -0.021503576 0)
(0.098346173 -0.022461087 0)
(0.09960502 -0.023352621 1.0359088e-18)
(0.10090576 -0.024166707 -5.149724e-23)
(0.10223477 -0.024900072 -7.5322569e-19)
(0.10357749 -0.025544589 4.9882794e-19)
(0.10491803 -0.02611595 0)
(0.10625094 -0.026621658 -2.504888e-19)
(0.10756944 -0.027052469 2.5097205e-19)
(0.10886111 -0.027401076 -2.5162031e-19)
(0.11011868 -0.027688322 7.6100413e-19)
(0.11134212 -0.027912394 0)
(0.1125234 -0.028066822 0)
(0.11365923 -0.028170448 5.1491429e-19)
(0.11476136 -0.028248569 -5.2037946e-19)
(0.11583407 -0.028268164 5.1928847e-19)
(0.11687202 -0.028266898 -3.9428439e-19)
(0.11789118 -0.028218266 0)
(0.11888909 -0.028143658 -6.6102396e-20)
(0.11987923 -0.028031791 -6.6124678e-20)
(0.12086518 -0.027882344 -1.9810254e-19)
(0.12185173 -0.027667147 -1.3107497e-19)
(0.091566441 -0.00059819738 -3.2536714e-19)
(0.091415878 -0.00090052961 8.0102082e-20)
(0.091261998 -0.0012147333 1.5627667e-19)
(0.091108333 -0.0015393213 0)
(0.090965163 -0.0018887573 0)
(0.090830792 -0.0022639114 1.5465433e-19)
(0.090704558 -0.0026705412 1.5298659e-19)
(0.090591664 -0.0031079757 0)
(0.090490812 -0.0035860917 0)
(0.090398955 -0.0041028 2.9840259e-19)
(0.090330581 -0.0046660811 0)
(0.090292176 -0.0052819817 0)
(0.090284304 -0.0059520438 -5.8390697e-19)
(0.090315959 -0.0066743725 2.9050435e-19)
(0.09039879 -0.0074501822 0)
(0.090531553 -0.0082803161 -5.783373e-19)
(0.090716499 -0.0091617038 -5.8008943e-19)
(0.090968524 -0.010090936 5.8625792e-19)
(0.091299001 -0.011064801 1.1941362e-18)
(0.091714143 -0.012074086 -6.1401105e-19)
(0.092218415 -0.01310919 -6.3894805e-19)
(0.092810841 -0.014164399 3.3751661e-19)
(0.093494517 -0.015223321 -3.5002101e-19)
(0.094273491 -0.016273663 -8.3318264e-20)
(0.095140045 -0.017308233 7.7150543e-20)
(0.096085583 -0.018323744 0)
(0.097110344 -0.019302103 2.6569112e-19)
(0.098207998 -0.02022783 0)
(0.099365252 -0.021100822 4.9033868e-19)
(0.10057292 -0.021911879 -2.9177186e-23)
(0.10181887 -0.022650765 -4.7050207e-19)
(0.10309039 -0.023314636 -6.8306314e-23)
(0.10437383 -0.023896502 -4.6362488e-19)
(0.10565485 -0.024409978 -4.6489542e-19)
(0.10692806 -0.024861816 -1.1679502e-18)
(0.10818656 -0.025244342 9.3811323e-19)
(0.10941859 -0.025551501 0)
(0.1106177 -0.025801711 -2.3781243e-19)
(0.11178334 -0.025993882 0)
(0.11290787 -0.026122742 4.799962e-19)
(0.11398827 -0.026204867 2.4234475e-19)
(0.11503542 -0.02626277 -5.8858044e-23)
(0.11605188 -0.026267716 -4.8987741e-19)
(0.11703374 -0.026253088 4.4981952e-24)
(0.11799438 -0.026195713 -2.476361e-19)
(0.11893216 -0.026114796 2.4969258e-19)
(0.11985866 -0.026000388 -2.4985707e-19)
(0.12077749 -0.025852937 5.6166671e-19)
(0.12169202 -0.025645616 6.1965246e-20)
(0.092209015 -0.00085585812 -3.055951e-19)
(0.092087506 -0.0011374688 7.5231577e-20)
(0.091963347 -0.0014308878 2.9371901e-19)
(0.091839554 -0.0017353888 7.3176444e-19)
(0.091725621 -0.0020628573 -5.8161037e-19)
(0.091620153 -0.0024145629 -1.4486421e-19)
(0.091522864 -0.0027954983 -1.4315575e-19)
(0.091438511 -0.0032056271 -5.7005228e-19)
(0.09136631 -0.0036532025 8.4356461e-19)