/*--------------------------------*- C++ -*----------------------------------*\
| =========                 |                                                 |
| \\      /  F ield         | OpenFOAM: The Open Source CFD Toolbox           |
|  \\    /   O peration     | Version:  v2006                                 |
|   \\  /    A nd           | Website:  www.openfoam.com                      |
|    \\/     M anipulation  |                                                 |
\*---------------------------------------------------------------------------*/
FoamFile
{
    version     2.0;
    format      ascii;
    class       volVectorField;
    location    "4500";
    object      UMean;
}
// * * * * * * * * * * * * * * * * * * * * * * * * * * * * * * * * * * * * * //

dimensions      [0 1 -1 0 0 0 0];


internalField   nonuniform List<vector> 
19765
(
(0.089590705 0.029822177 -9.0028741e-20)
(0.086953218 0.032960129 9.0456613e-20)
(0.080131178 0.034939844 -9.2620445e-20)
(0.072375321 0.035322224 0)
(0.065722811 0.034691866 0)
(0.059682189 0.033220173 2.263857e-19)
(0.053436129 0.030942849 -1.8037375e-19)
(0.047836089 0.028316473 0)
(0.042326056 0.025120489 4.5375649e-19)
(0.03632375 0.021152192 3.852988e-20)
(0.031404033 0.016996714 -7.7297141e-19)
(0.027536781 0.012559106 7.6648158e-19)
(0.024075265 0.0078857473 -8.6013154e-19)
(0.021152231 0.0030765307 -9.8885053e-19)
(0.019021906 -0.001836391 1.1554178e-18)
(0.017310231 -0.0070183958 0)
(0.015802487 -0.01209766 -2.1900685e-20)
(0.014720107 -0.017147718 1.8356729e-20)
(0.014093928 -0.022335924 -9.9175104e-19)
(0.013895799 -0.027619465 8.4889969e-19)
(0.01411227 -0.033036312 -3.6907719e-19)
(0.014690838 -0.038347418 6.4343426e-19)
(0.015648861 -0.043518111 -2.9214803e-19)
(0.017067901 -0.048912392 1.2302271e-20)
(0.018905259 -0.054298091 -5.9618078e-20)
(0.020920285 -0.058939853 4.6483098e-20)
(0.023126806 -0.063107756 -2.0355586e-19)
(0.025779389 -0.067615757 1.9227476e-19)
(0.028712101 -0.071979665 0)
(0.031764219 -0.075834723 3.5101394e-19)
(0.035192806 -0.079754643 -3.3346204e-19)
(0.039193199 -0.083813095 6.3766638e-19)
(0.044361617 -0.08808337 -6.1364149e-19)
(0.050027616 -0.091858431 2.9512033e-19)
(0.054813721 -0.094226018 -2.9019596e-19)
(0.05933287 -0.096078995 -2.7477471e-19)
(0.065315548 -0.098362375 1.8761189e-22)
(0.071754201 -0.10020942 5.3249702e-19)
(0.077675203 -0.10112857 -2.8051357e-19)
(0.085234698 -0.10210701 -2.5426195e-19)
(0.094023995 -0.10262485 2.4848441e-19)
(0.10004243 -0.10126203 -1.546913e-20)
(0.10538185 -0.099036907 -3.0470284e-20)
(0.11059468 -0.096092856 1.2232225e-19)
(0.11371592 -0.09222449 -2.7652307e-19)
(0.1161958 -0.08761881 1.2362716e-19)
(0.11628843 -0.082423344 0)
(0.11524734 -0.077177638 -1.2966091e-19)
(0.11404947 -0.072464072 0)
(0.080917949 0.017334498 1.4698613e-19)
(0.077888454 0.020115891 1.4149413e-19)
(0.074326583 0.02243774 -6.722112e-20)
(0.070470104 0.023413686 6.6734325e-20)
(0.066550112 0.023470442 -3.2972117e-19)
(0.062799454 0.022810417 2.6143837e-19)
(0.059157107 0.02162701 -3.1969274e-20)
(0.055792949 0.020038505 2.5376265e-19)
(0.05258595 0.018060597 3.0971443e-20)
(0.049374287 0.01583651 -2.9045282e-19)
(0.046380741 0.013230405 1.5484341e-20)
(0.043788584 0.010190556 4.7014802e-19)
(0.041476451 0.0067867083 -7.6039886e-19)
(0.039477023 0.0031433522 2.2696152e-19)
(0.037956651 -0.00070270336 -2.6603176e-19)
(0.036724018 -0.0047361208 3.0669065e-19)
(0.035609116 -0.0089216298 -1.7759442e-20)
(0.034819882 -0.013229497 0)
(0.034469785 -0.017645393 1.9380216e-20)
(0.034528003 -0.022126768 -2.9952815e-19)
(0.034954137 -0.026619104 2.6448432e-19)
(0.035647882 -0.031147367 2.0762881e-20)
(0.036677139 -0.035651937 7.8205678e-21)
(0.038118012 -0.040050128 -1.1044027e-20)
(0.039819235 -0.04435662 -2.7875308e-20)
(0.04162652 -0.048658397 2.3278468e-20)
(0.043652264 -0.052879867 9.5188648e-20)
(0.046002813 -0.056920815 -3.0377633e-19)
(0.048604193 -0.060835762 3.7518011e-19)
(0.051439297 -0.064599398 -1.8099508e-19)
(0.05456908 -0.068118336 1.0906306e-20)
(0.058059841 -0.071301838 0)
(0.061895009 -0.074021155 1.735991e-19)
(0.065882007 -0.076353233 -7.0917824e-23)
(0.069911018 -0.078439126 -1.606573e-19)
(0.074082283 -0.080238061 -1.7783138e-19)
(0.078461819 -0.081571324 6.9870836e-23)
(0.082948518 -0.082409702 -1.3676548e-19)
(0.087497066 -0.082746659 1.4595984e-19)
(0.09212508 -0.082411238 1.5467447e-19)
(0.096682946 -0.081259206 1.7771084e-19)
(0.10112451 -0.079347346 -3.2728079e-19)
(0.10547277 -0.077059076 1.8694222e-19)
(0.10967689 -0.074103917 -2.1692459e-20)
(0.11353587 -0.07114164 -8.9202038e-20)
(0.11699752 -0.0680323 1.8470573e-19)
(0.11999989 -0.065010973 -1.4338454e-19)
(0.12254132 -0.062417173 -4.9295242e-20)
(0.12473574 -0.059995504 1.014732e-19)
(0.084369029 0.016829842 8.0063688e-20)
(0.08208264 0.017067559 5.6848006e-24)
(0.079424584 0.017129241 1.5593332e-19)
(0.076527184 0.017068348 -3.5873275e-25)
(0.073636332 0.016617645 -2.4463909e-19)
(0.070778561 0.015872124 3.3633165e-19)
(0.068006691 0.014813497 -8.547945e-20)
(0.065340252 0.013565807 0)
(0.06282235 0.012016507 0)
(0.060294594 0.0103039 4.6853523e-20)
(0.057932247 0.0083070075 0)
(0.055811273 0.0059664687 5.1970095e-20)
(0.053884399 0.0033314653 4.9493925e-19)
(0.052202656 0.00047541781 5.9064833e-19)
(0.050869188 -0.0025928298 -1.0240438e-18)
(0.04976868 -0.0058552446 -2.946199e-23)
(0.04881314 -0.0092729918 3.9008059e-20)
(0.048122464 -0.012835507 -7.1471067e-19)
(0.047759513 -0.016545695 7.9136306e-19)
(0.047740085 -0.020346323 0)
(0.048047543 -0.024183046 5.1689892e-20)
(0.048586502 -0.028104518 -1.587283e-23)
(0.04947252 -0.032020701 -1.8824058e-20)
(0.050720595 -0.035871331 -3.2714268e-20)
(0.052188882 -0.039648908 1.1480753e-19)
(0.053786492 -0.043421301 -1.2990981e-20)
(0.055671077 -0.047117522 -1.7613767e-19)
(0.057879106 -0.050656962 5.3792189e-19)
(0.06029299 -0.054091561 -3.2075331e-19)
(0.062947822 -0.05737266 3.7523916e-20)
(0.065859424 -0.060420973 2.6497325e-19)
(0.069003106 -0.063185152 -5.6968914e-19)
(0.07236846 -0.065571994 -2.7161725e-19)
(0.07578976 -0.067721259 4.9661917e-19)
(0.079263108 -0.069697867 4.8226155e-19)
(0.082858823 -0.071362412 -4.3625466e-19)
(0.086572729 -0.072593817 0)
(0.090285197 -0.073547937 1.9354685e-19)
(0.094029243 -0.074145055 -2.1571472e-19)
(0.097760679 -0.074267039 2.3660835e-19)
(0.10137165 -0.074107234 -2.3593881e-19)
(0.10481616 -0.073869886 0)
(0.10816867 -0.073249493 0)
(0.11123909 -0.072371346 2.6263667e-20)
(0.11410809 -0.071285178 0)
(0.11664865 -0.070172117 -5.2360537e-20)
(0.11894078 -0.068953907 2.0709722e-19)
(0.12102787 -0.06765285 -1.0250221e-19)
(0.12295774 -0.06621656 0)
(0.08313805 0.01196996 -8.4708446e-20)
(0.081463189 0.012176517 -2.515539e-19)
(0.079734127 0.012197025 8.1604573e-20)
(0.077915271 0.012093111 -4.1731897e-19)
(0.07606935 0.011697558 3.4031178e-19)
(0.074225168 0.011078285 3.5069731e-19)
(0.072406404 0.010210904 -2.6697075e-19)
(0.070642708 0.0092001151 3.6979568e-19)
(0.068923477 0.00792988 4.9559239e-23)
(0.067204154 0.006554934 -8.7529476e-19)
(0.06556633 0.0049731607 5.0860699e-19)
(0.064060794 0.0031216836 0)
(0.062668296 0.0010318356 -5.6042891e-20)
(0.061440786 -0.0012280288 -1.0133472e-18)
(0.06044891 -0.0036915701 1.1506154e-18)
(0.059624644 -0.0063534033 1.0363058e-18)
(0.058919691 -0.0091424899 -2.4324456e-18)
(0.058422723 -0.012059286 1.371745e-18)
(0.058194374 -0.015136762 -7.9664681e-19)
(0.058248159 -0.018298388 9.6607309e-19)
(0.058582554 -0.021490404 0)
(0.059127801 -0.024783761 -5.9149564e-19)
(0.059943816 -0.028068215 7.0490884e-19)
(0.061041538 -0.031314799 -3.8844502e-19)
(0.062345909 -0.034514396 6.4844492e-20)
(0.063806101 -0.037714161 -8.2257072e-24)
(0.065513963 -0.040836765 -2.0195565e-19)
(0.067482168 -0.043809377 5.5175928e-19)
(0.069632122 -0.046669004 -3.4190582e-19)
(0.071979551 -0.049369047 -3.6017464e-19)
(0.074517748 -0.051843833 3.0238092e-19)
(0.077213494 -0.054063091 6.8356672e-19)
(0.080037325 -0.055964197 -1.7728971e-22)
(0.082890304 -0.057653104 -6.0609497e-19)
(0.085789227 -0.059175016 4.6075046e-19)
(0.08876053 -0.060434242 -5.1162215e-19)
(0.091757122 -0.061347606 4.980663e-19)
(0.094710206 -0.062030969 -9.8498769e-19)
(0.097652899 -0.062444072 5.1280889e-19)
(0.10052404 -0.062517091 2.0667569e-19)
(0.10326703 -0.062364002 -2.3595948e-19)
(0.1059555 -0.06211363 -5.9311648e-20)
(0.10864213 -0.061590953 2.32514e-19)
(0.11119579 -0.06095118 -2.3588665e-19)
(0.11372402 -0.060092388 0)
(0.11615445 -0.059078219 1.1729364e-19)
(0.11857115 -0.057949933 -5.8045405e-20)
(0.1209375 -0.056760312 0)
(0.12326208 -0.055552191 0)
(0.083936454 0.0098450705 -7.9278088e-20)
(0.082598768 0.0095224568 -2.348538e-19)
(0.081225011 0.0091546193 3.0446921e-19)
(0.079817328 0.0087949037 7.746647e-20)
(0.078413255 0.008281452 2.3578701e-19)
(0.0770206 0.0076510215 -2.4140038e-19)
(0.075649906 0.006864483 2.4380964e-19)
(0.074319421 0.0059872642 -4.1873608e-19)
(0.073022639 0.0049210424 -8.488965e-20)
(0.071726079 0.0037703496 1.7369115e-19)
(0.070489684 0.0024525218 -8.0934806e-19)
(0.069345116 0.00091796223 8.3946694e-19)
(0.068281805 -0.00081524182 9.6825988e-20)
(0.06733925 -0.0027027453 8.1292358e-19)
(0.066568936 -0.0047724743 -1.0730679e-19)
(0.065928359 -0.0070155562 -9.1146452e-19)
(0.065389909 -0.0093799987 0)
(0.065020807 -0.011874535 0)
(0.064870503 -0.014525165 0)
(0.06495406 -0.017281982 -5.2211562e-19)
(0.065273667 -0.020106574 7.8805293e-19)
(0.06578798 -0.023010142 -8.3217851e-19)
(0.066536639 -0.025905055 5.3739984e-19)
(0.067538924 -0.028779838 -6.500097e-20)
(0.068740188 -0.031618483 1.0044804e-23)
(0.070094682 -0.034446321 2.5103327e-20)
(0.071659805 -0.037194778 4.5253736e-20)
(0.073443568 -0.039812415 -8.2942469e-20)
(0.075386185 -0.042327006 2.3240356e-19)
(0.077489276 -0.044692482 -2.9193355e-19)
(0.079741159 -0.04685972 0)
(0.08211096 -0.048809852 -5.9690138e-19)
(0.084570516 -0.050494865 1.0227556e-18)
(0.087044085 -0.05200403 -4.3827629e-19)
(0.089534439 -0.053367392 -4.2997862e-19)
(0.092056871 -0.054509511 1.4008409e-22)
(0.094579368 -0.055373575 9.3874455e-19)
(0.097049682 -0.056068444 -4.6560673e-19)
(0.099487715 -0.056560425 0)
(0.10186185 -0.056800157 0)
(0.10413685 -0.056899538 -1.6895497e-19)
(0.1063515 -0.056987835 2.2692053e-19)
(0.10855164 -0.056873425 5.580573e-20)
(0.11065577 -0.056757786 3.3985442e-19)
(0.11274792 -0.056505195 -5.6078674e-20)
(0.11477175 -0.056232948 -2.8335871e-19)
(0.11676569 -0.055900691 5.6609558e-20)
(0.11872565 -0.05543379 0)
(0.12065055 -0.054788395 -3.50498e-23)
(0.084567997 0.0074733414 3.3473133e-24)
(0.08356694 0.0071546646 -4.9314551e-24)
(0.08254984 0.0067766678 0)
(0.081508813 0.0063816019 -3.5853938e-19)
(0.080474289 0.0058659743 7.239845e-20)
(0.079445618 0.0052574312 2.2125861e-19)
(0.078425769 0.0045293671 7.417138e-20)
(0.077430868 0.0037261902 1.5192005e-19)
(0.07645277 0.0027771098 7.6630041e-20)
(0.0754689 0.0017521314 -1.5578546e-19)
(0.074528202 0.00059118921 0)
(0.073655794 -0.0007430671 -2.4699466e-19)
(0.072844623 -0.0022408068 -8.4746361e-20)
(0.072126838 -0.0038731321 1.7596968e-19)
(0.071544543 -0.0056601202 0)
(0.071068773 -0.007596355 -1.9256366e-19)
(0.070681707 -0.009646594 1.0204457e-18)
(0.070438187 -0.011815891 -8.7879482e-19)
(0.070380817 -0.014118634 0)
(0.070525286 -0.016514652 9.4158053e-19)
(0.070880906 -0.018971257 -1.2418614e-18)
(0.071417812 -0.021490626 7.8009864e-19)
(0.072155533 -0.024013806 -4.660658e-19)
(0.073116479 -0.026531101 1.1388935e-19)
(0.074258657 -0.029018101 -9.9703528e-20)
(0.075545819 -0.031488293 -1.3379419e-19)
(0.077015676 -0.033886303 1.2143822e-19)
(0.078671969 -0.036168261 3.7316032e-19)
(0.0804688 -0.038350091 -6.3045073e-19)
(0.082400356 -0.040395765 1.2830532e-22)
(0.084451379 -0.042267118 5.0635093e-19)
(0.086594027 -0.043948897 4.8690106e-19)
(0.088801614 -0.045405889 -4.7145549e-19)
(0.091017673 -0.046701223 -1.1574486e-19)
(0.093240758 -0.047858954 0)
(0.095475505 -0.048830296 4.4646471e-19)
(0.097694857 -0.04957816 -1.074507e-22)
(0.099861962 -0.050176344 -4.3580266e-19)
(0.10199025 -0.050606811 0)
(0.10405733 -0.050840604 0)
(0.10604321 -0.050949864 -1.0613693e-19)
(0.10797563 -0.05101294 5.3449481e-20)
(0.10989982 -0.050917313 -5.2687392e-20)
(0.11175545 -0.050778789 -5.3453486e-19)
(0.11361794 -0.050516933 4.7645362e-19)
(0.11545103 -0.050190776 0)
(0.11730306 -0.04977375 -5.341542e-20)
(0.11916851 -0.049265631 0)
(0.12104496 -0.04863434 2.104433e-19)
(0.08554313 0.0059396281 6.8815384e-20)
(0.084725004 0.0055154348 -1.3556965e-19)
(0.083898533 0.00506841 -2.6346077e-19)
(0.083065517 0.0046260261 5.3231097e-19)
(0.082247351 0.0041017467 -4.0203749e-19)
(0.081440967 0.0035126064 0)
(0.080644306 0.0028345733 5.4526524e-19)
(0.079869864 0.0020967254 -6.9441603e-20)
(0.079109196 0.0012434771 3.4237847e-23)
(0.078344713 0.00032312057 -9.1795025e-19)
(0.077615737 -0.0007113538 -3.0441e-23)
(0.076941729 -0.0018896689 5.8946906e-19)
(0.076317797 -0.0032065858 6.0237557e-19)
(0.075770098 -0.00464231 -1.395977e-18)
(0.075332981 -0.0062125493 6.418647e-19)
(0.074986622 -0.0079142535 8.3268746e-19)
(0.074720185 -0.009721892 -1.5698669e-18)
(0.07457825 -0.011638552 1.4020574e-23)
(0.07459604 -0.013673448 5.9792987e-19)
(0.074787767 -0.015795013 -8.7366387e-19)
(0.075161304 -0.017978631 7.3586058e-19)
(0.075696134 -0.020219025 5.1311697e-19)
(0.076406472 -0.022465309 2.3142042e-19)
(0.077314557 -0.024709197 -1.9992333e-19)
(0.078386753 -0.026929211 1.3768346e-21)
(0.079594481 -0.02913252 -7.934144e-20)
(0.080964256 -0.031271552 0)
(0.082495911 -0.033309488 1.3436837e-19)
(0.084151589 -0.03525841 -1.2673745e-19)
(0.08592292 -0.037087361 1.20537e-19)
(0.087794125 -0.038765143 0)
(0.089740568 -0.040280598 0)
(0.091737442 -0.041605317 4.3425112e-19)
(0.093739139 -0.04279283 -4.2786406e-19)
(0.095741413 -0.043862971 -4.2228756e-19)
(0.097745416 -0.044775951 8.3056716e-19)
(0.099729031 -0.045502075 -9.3229133e-23)
(0.10166532 -0.046107498 -1.0195601e-19)
(0.10356314 -0.046576819 -4.0319666e-19)
(0.10540692 -0.046884009 -3.9835554e-19)
(0.10718295 -0.047093972 4.4940211e-19)
(0.10891509 -0.047283968 0)
(0.11063351 -0.047343277 -1.9867427e-19)
(0.11230273 -0.04739305 2.0145094e-19)
(0.11397468 -0.047347685 -1.9964122e-19)
(0.11562912 -0.04727611 1.00841e-19)
(0.11729879 -0.04714746 0)
(0.11898393 -0.046957 2.0077376e-19)
(0.12069474 -0.046650221 -1.9847895e-19)
(0.086436065 0.0045071662 -1.9258358e-19)
(0.085792083 0.0040988034 1.2640654e-19)
(0.08514086 0.0036654483 2.4569124e-19)
(0.084483869 0.0032282467 -1.2376868e-19)
(0.083840945 0.0027243264 -3.7305211e-19)
(0.083207993 0.0021660473 7.5464752e-19)
(0.082582343 0.0015351082 -8.8026379e-19)
(0.081974669 0.00085166172 5.1060728e-19)
(0.081377805 7.3391943e-05 -1.2784945e-19)
(0.080777905 -0.000766359 -1.2882484e-19)
(0.080208388 -0.0017035218 -5.2342685e-19)
(0.079685118 -0.0027614613 6.9133283e-24)
(0.079204666 -0.0039379073 -1.6498776e-23)
(0.078788793 -0.0052192259 8.2938517e-19)
(0.078466288 -0.006617102 0)
(0.078223172 -0.0081301995 -2.9229151e-19)
(0.078053107 -0.0097403581 0)
(0.077993529 -0.011448789 3.1855875e-19)
(0.078074238 -0.013260554 -1.6925716e-19)
(0.078308404 -0.015149953 0)
(0.078703759 -0.017096658 -4.7674052e-23)
(0.079247392 -0.01909316 -2.1560888e-19)
(0.079949078 -0.021097072 0)
(0.080826898 -0.023100298 -1.7641574e-19)
(0.081854377 -0.025083411 7.706627e-20)
(0.083008229 -0.027048843 3.5439963e-20)
(0.084306883 -0.028955954 0)
(0.085748036 -0.030772259 -1.2135313e-19)
(0.087300237 -0.032505395 -1.1491497e-19)
(0.08895355 -0.034129728 -1.0981302e-19)
(0.090691933 -0.035619368 0)
(0.092492985 -0.036964987 -2.0518903e-19)
(0.094333854 -0.038143878 0)
(0.096177396 -0.039197806 -9.8883122e-20)
(0.098018465 -0.04014323 8.4500408e-23)
(0.099855114 -0.040950838 8.198078e-23)
(0.10166802 -0.041598616 3.8192433e-19)
(0.10343619 -0.042137461 4.7629985e-19)
(0.1051661 -0.042557218 -7.3358099e-23)
(0.10684494 -0.042839213 -6.9270031e-23)
(0.10846323 -0.043031744 -7.5142852e-19)
(0.11004008 -0.043191536 6.7322894e-23)
(0.11160271 -0.043239191 3.7458322e-19)
(0.11312208 -0.043259711 1.8974787e-19)
(0.1146447 -0.043192214 -1.8830703e-19)
(0.11615437 -0.043081734 9.5029689e-20)
(0.1176826 -0.04290423 9.4917093e-20)
(0.1192319 -0.042653783 -1.8926741e-19)
(0.12081289 -0.042294135 2.8077798e-19)
(0.087370052 0.00345527 1.1984353e-19)
(0.086841762 0.0030388528 -4.1291996e-19)
(0.08630808 0.0026068554 0)
(0.085773046 0.0021742391 -4.6146596e-19)
(0.085252982 0.0016890638 9.2530216e-19)
(0.084743871 0.0011594473 -4.6667546e-19)
(0.084242312 0.0005697399 -1.1641099e-19)
(0.083757427 -6.6093284e-05 1.1775004e-19)
(0.083282848 -0.00078187103 2.3524873e-19)
(0.082807502 -0.0015538124 0)
(0.082359782 -0.0024105201 0)
(0.081952836 -0.0033709403 -1.2078052e-19)
(0.081584233 -0.0044344379 0)
(0.081272371 -0.0055912792 -2.4852596e-19)
(0.081041628 -0.0068505464 0)
(0.080881986 -0.0082119294 -7.7817704e-19)
(0.080790034 -0.0096619169 5.3442583e-19)
(0.080797525 -0.011200442 -5.5637562e-19)
(0.080929779 -0.012830046 8.7836748e-19)
(0.081198605 -0.014529547 6.2475694e-19)
(0.081610913 -0.016282054 -5.0899863e-19)
(0.082158256 -0.018079544 1.8428419e-19)
(0.082848062 -0.019885378 -1.7800039e-19)
(0.08369512 -0.0216905 1.5056136e-23)
(0.084678554 -0.023478424 6.9839554e-20)
(0.085779142 -0.025249246 -6.3548328e-20)
(0.087010124 -0.02696777 0)
(0.088367737 -0.028605569 1.0983657e-19)
(0.089825176 -0.030168148 1.0444976e-19)
(0.091372102 -0.031633736 0)
(0.092992994 -0.032980462 -1.9372788e-19)
(0.094667729 -0.034200919 3.7735217e-19)
(0.096375378 -0.035276412 0)
(0.098084856 -0.036242235 -9.1514184e-19)
(0.099790487 -0.037112433 7.2674282e-19)
(0.10148893 -0.037862925 0)
(0.10316311 -0.038475517 3.5629019e-19)
(0.10479662 -0.038994516 -3.5625171e-19)
(0.10639382 -0.039411308 0)
(0.1079441 -0.039709412 2.6362013e-19)
(0.10944016 -0.039931113 -3.5310895e-19)
(0.1108996 -0.040128774 0)
(0.11234124 -0.040228741 8.8160981e-20)
(0.11374671 -0.040312609 -3.5711819e-19)
(0.11515075 -0.040321861 3.5472759e-19)
(0.11654397 -0.040302775 3.5787227e-19)
(0.11795127 -0.040232592 -4.4680204e-19)
(0.1193763 -0.040108233 4.4555493e-19)
(0.12082908 -0.039886028 -4.4082467e-19)
(0.088241996 0.0025271195 -5.601201e-20)
(0.087814415 0.0021339487 1.1029181e-19)
(0.087381519 0.0017251438 2.1455796e-19)
(0.086947047 0.0013118472 5.3853427e-19)
(0.086526259 0.00085379293 -5.3893993e-19)
(0.086115346 0.00035643229 -4.3390385e-19)
(0.085711452 -0.00019290877 9.7220481e-19)
(0.085322536 -0.00078453295 -5.447479e-19)
(0.084943548 -0.0014451579 -5.4284395e-19)
(0.08456548 -0.0021580396 8.6931092e-19)
(0.084213068 -0.0029458027 -4.3791911e-19)
(0.083897522 -0.003823782 2.2060774e-19)
(0.083617234 -0.004792374 2.2206244e-19)
(0.083387997 -0.0058445736 8.9921156e-19)
(0.083230801 -0.0069872776 -9.1290583e-19)
(0.083138425 -0.0082208206 0)
(0.083109441 -0.0095351642 0)
(0.083171185 -0.010929302 4.397758e-23)
(0.08334543 -0.012403948 0)
(0.08364279 -0.013941348 5.4218592e-19)
(0.084069714 -0.015526775 -5.8247191e-19)
(0.084621007 -0.017152324 6.3752472e-19)
(0.085302603 -0.01878656 -3.1474214e-19)
(0.086126185 -0.020419337 4.8848622e-19)
(0.087075168 -0.022036586 -6.2608254e-20)
(0.088133178 -0.023636785 -1.1440451e-19)
(0.089309658 -0.025189057 -1.0605748e-19)
(0.090600021 -0.026668022 -2.9918949e-19)
(0.091981175 -0.028077155 -5.7091757e-19)
(0.093442654 -0.02939785 1.8326653e-19)
(0.09496949 -0.030611231 1.7779801e-19)
(0.096543302 -0.031710914 -1.7374537e-19)
(0.098144802 -0.032681241 -6.8290772e-19)
(0.099747526 -0.033551078 1.3562005e-18)
(0.10134556 -0.034332315 -6.7473086e-19)
(0.10293426 -0.035005789 0)
(0.10449804 -0.035556865 -4.9895009e-19)
(0.10602331 -0.036021867 4.9981938e-19)
(0.107513 -0.036394519 1.659424e-19)
(0.10895749 -0.036661825 -2.4768589e-19)
(0.110351 -0.03685775 -1.6598699e-19)
(0.11170865 -0.037024556 0)
(0.11304646 -0.037103983 -8.3053625e-20)
(0.11434896 -0.037160044 -2.5226704e-19)
(0.11564697 -0.037146736 5.8523455e-19)
(0.1169325 -0.037099118 -2.530299e-19)
(0.1182285 -0.03699853 -1.6853348e-19)
(0.11953867 -0.036841264 -2.5209519e-19)
(0.1208731 -0.036592299 -1.6637223e-19)
(0.089085669 0.0018033881 5.2417364e-19)
(0.08873324 0.0014260578 2.0641505e-19)
(0.08837608 0.00103569 -5.0224687e-19)
(0.088018468 0.00064042833 4.0275483e-19)
(0.087673822 0.00020706316 -8.0490354e-19)
(0.087338823 -0.000261027 3.031233e-19)
(0.08701091 -0.00077464992 3.013741e-19)
(0.086697156 -0.001327109 -4.0418068e-19)
(0.08639344 -0.0019401185 0)
(0.086092497 -0.0026017117 -8.0240256e-19)
(0.085815946 -0.0033301927 8.0568919e-19)
(0.085573505 -0.0041381979 -8.0877884e-19)
(0.085364213 -0.0050266953 6.0838234e-19)
(0.085201811 -0.0059905248 -4.0885165e-19)
(0.085104541 -0.0070349897 1.2394318e-18)
(0.085067216 -0.0081607633 8.3641786e-19)
(0.085089756 -0.0093601736 -1.2775375e-18)
(0.085195902 -0.010631545 2.1880904e-19)
(0.085404504 -0.011974365 1.3613321e-18)
(0.085725063 -0.013373565 -9.5223707e-19)
(0.086163625 -0.014815965 -5.0688929e-19)
(0.086716839 -0.016294197 5.4996436e-19)
(0.087389644 -0.017781212 -9.6661855e-19)
(0.088191311 -0.019265729 2.5013812e-19)
(0.089108456 -0.02073587 -5.6358171e-20)
(0.090127071 -0.022189397 1.0339432e-19)
(0.09125387 -0.023598876 9.622041e-20)
(0.092483731 -0.024941702 5.4476801e-19)
(0.093796489 -0.026220128 -1.7383373e-19)
(0.095181862 -0.027418145 5.0362331e-19)
(0.096625585 -0.028519385 0)
(0.098110887 -0.029518514 0)
(0.099619993 -0.030402368 0)
(0.10113007 -0.031195477 3.1425579e-19)
(0.1026352 -0.031908216 -3.1337873e-19)
(0.10413005 -0.032524734 3.1182637e-19)
(0.10560028 -0.033032808 -3.1064207e-19)
(0.10703465 -0.033463951 1.5581991e-19)
(0.10843496 -0.033813112 -6.2217282e-19)
(0.1097924 -0.034069123 4.6519868e-19)
(0.11110212 -0.034261469 -1.5599462e-19)
(0.11237829 -0.03442806 3.1482157e-19)
(0.11363204 -0.034516792 0)
(0.11485294 -0.0345861 -7.9175658e-20)
(0.1160653 -0.034594103 1.5757102e-19)
(0.11726427 -0.034574046 -1.5886478e-19)
(0.11846884 -0.034509023 3.175627e-19)
(0.1196833 -0.034397247 1.5837922e-19)
(0.12091601 -0.034202551 -2.2635998e-23)
(0.089872448 0.0011815952 -2.9463045e-19)
(0.089583566 0.00082845104 0)
(0.089290262 0.00046234117 -7.3387872e-24)
(0.088996338 8.9183338e-05 0)
(0.088714254 -0.00031764796 -3.7618132e-19)
(0.088441089 -0.00075624818 9.4263666e-20)
(0.088174893 -0.0012356738 5.6152935e-19)
(0.087921984 -0.0017514292 1.8783203e-19)
(0.087679227 -0.0023211232 -5.5920464e-19)
(0.087440727 -0.0029363808 -7.4250016e-19)
(0.087225614 -0.003612018 7.4329514e-19)
(0.087042464 -0.0043584808 0)
(0.086890871 -0.0051770701 3.7174737e-19)
(0.086782934 -0.0060639487 -3.7333671e-19)
(0.086734686 -0.0070231313 7.5144215e-19)
(0.086742465 -0.0080554565 -7.5753793e-19)
(0.086807142 -0.0091549964 5.2758025e-23)
(0.086949522 -0.010319591 7.849686e-19)
(0.087186055 -0.011547837 -1.214283e-18)
(0.087525302 -0.01282675 8.4391224e-19)
(0.087972984 -0.014144358 -1.1149162e-18)
(0.08852684 -0.015493801 -2.3986126e-19)
(0.089191259 -0.016851676 0)
(0.089973708 -0.018205928 0)
(0.090862938 -0.019546359 0)
(0.091846996 -0.020870307 0)
(0.092930499 -0.022153193 0)
(0.094108024 -0.023374668 1.6576367e-19)
(0.095361794 -0.024535932 -6.3643256e-19)
(0.096681804 -0.025623049 3.0828346e-19)
(0.098054466 -0.026621586 6.0181082e-19)
(0.099464326 -0.027526868 -5.9168488e-19)
(0.1008949 -0.028327612 5.8474123e-19)
(0.10232618 -0.029044423 -5.8324887e-19)
(0.10375224 -0.02968626 2.9140817e-19)
(0.10516712 -0.030240022 -2.9067848e-19)
(0.10655737 -0.030695507 4.3536814e-19)
(0.10791328 -0.03107948 5.8326964e-19)
(0.1092357 -0.031388167 -2.9178343e-19)
(0.11051629 -0.031612424 -4.0258592e-25)
(0.11175081 -0.031776984 0)
(0.11295194 -0.031913969 -1.4809997e-19)
(0.11412853 -0.031980062 1.4740739e-19)
(0.1152719 -0.032023894 2.9839527e-19)
(0.11640337 -0.032010797 -3.7155907e-19)
(0.1175188 -0.03196803 -3.7458317e-19)
(0.11863535 -0.031881268 2.9958677e-19)
(0.11975688 -0.031748843 0)
(0.12089108 -0.031539341 1.4817009e-19)
(0.090616661 0.00068217133 -2.7622057e-19)
(0.090378174 0.00034964166 -2.719579e-19)
(0.090135733 4.9063519e-06 2.649739e-19)
(0.089893025 -0.00034776916 0)
(0.089661318 -0.0007303886 -2.6402136e-19)
(0.089438151 -0.0011421448 -6.6795338e-24)
(0.089222019 -0.0015908188 5.2388235e-19)
(0.089018639 -0.0020735068 -5.2449907e-19)
(0.088825629 -0.0026047253 5.1965601e-19)
(0.088638261 -0.003178664 0)
(0.088473528 -0.0038074712 0)
(0.088339092 -0.0044998778 0)
(0.088234994 -0.0052573488 -3.4183051e-19)
(0.088171998 -0.0060769874 -6.8415089e-19)
(0.0881643 -0.006961817 1.3723e-18)
(0.088209407 -0.0079127195 -1.3783196e-18)
(0.088308852 -0.0089250124 3.4793157e-19)
(0.088480988 -0.0099961921 2.1474603e-23)
(0.088740266 -0.011124229 7.267581e-19)
(0.089094418 -0.012297781 3.7680566e-19)
(0.089548808 -0.013505906 -1.7647749e-23)
(0.090101883 -0.014742203 0)
(0.090757602 -0.015986254 2.1711249e-19)
(0.091521999 -0.017225684 -2.035267e-19)
(0.092385408 -0.018451553 0)
(0.093337556 -0.01966098 -8.5294877e-20)
(0.094381479 -0.020831872 0)
(0.095511583 -0.021945863 1.5167563e-19)
(0.096712041 -0.023003424 -2.9199368e-19)
(0.09797319 -0.02399237 -5.6704038e-19)
(0.099282116 -0.024899944 8.5547349e-23)
(0.10062453 -0.025722111 8.2057017e-19)
(0.1019851 -0.026449226 -5.420043e-19)
(0.10334614 -0.027098958 2.7084816e-19)
(0.10470179 -0.027679248 0)
(0.10604579 -0.028179197 -8.1329742e-19)
(0.10736546 -0.028590269 3.9773068e-23)
(0.10865243 -0.028935854 -5.4606673e-19)
(0.10990688 -0.029213138 4.1048616e-19)
(0.11112087 -0.029414454 -4.1059316e-19)
(0.11229064 -0.029561347 7.4075605e-23)
(0.11342805 -0.029682377 6.9681904e-19)
(0.11453907 -0.029739514 1.3888214e-19)
(0.11561754 -0.029776157 -2.8119731e-19)
(0.1166809 -0.029761588 -2.803111e-19)
(0.11772651 -0.029720648 3.5328475e-19)
(0.11876891 -0.029640588 7.0651863e-20)
(0.11981212 -0.029520898 1.4103184e-19)
(0.12086213 -0.029330954 -2.0990178e-19)
(0.091310388 0.00026057801 0)
(0.091114417 -4.972252e-05 -8.5068001e-20)
(0.090914978 -0.00037216997 0)
(0.090715266 -0.00070381861 0)
(0.09052572 -0.0010626256 0)
(0.090344245 -0.0014485892 0)
(0.090169824 -0.0018683661 -6.5250219e-19)
(0.090007648 -0.0023202416 6.5195196e-19)
(0.089856026 -0.002816204 6.4494621e-19)
(0.089711182 -0.0033523828 -1.2792136e-18)
(0.08958832 -0.0039387651 6.3698569e-19)
(0.089494361 -0.0045826789 0)
(0.089429729 -0.005285654 6.3018156e-19)
(0.089404084 -0.0060454788 -3.144049e-19)
(0.089430097 -0.0068643796 -3.1433495e-19)
(0.089506184 -0.0077432071 1.2586245e-18)
(0.089634351 -0.0086781951 -6.3316972e-19)
(0.089830886 -0.0096665952 -6.4190039e-19)
(0.090108564 -0.010705922 1.8308094e-23)
(0.090474398 -0.011786141 3.3854312e-19)
(0.090933393 -0.012897187 -3.5382121e-19)
(0.091484506 -0.014033037 -3.7546626e-19)
(0.092131322 -0.015175691 3.8883348e-19)
(0.092878732 -0.016312802 0)
(0.093718303 -0.017436377 8.4094036e-20)
(0.094641107 -0.018543373 -6.0781924e-26)
(0.095648959 -0.019613844 0)
(0.096736205 -0.020631116 0)
(0.097888636 -0.021595066 0)
(0.099096948 -0.022494942 1.0451029e-18)
(0.10034886 -0.023319358 -5.1287555e-23)
(0.10163107 -0.024064745 -7.5965325e-19)
(0.10292927 -0.024722757 5.0303616e-19)
(0.10422762 -0.025308505 0)
(0.10552033 -0.02582899 -2.5256674e-19)
(0.10680084 -0.026275091 2.5305799e-19)
(0.10805713 -0.026639629 -2.5371901e-19)
(0.10928175 -0.026942913 7.6735923e-19)
(0.11047426 -0.027182961 0)
(0.111627 -0.027353475 0)
(0.11273653 -0.027473005 5.1929442e-19)
(0.11381365 -0.02756638 -5.2481603e-19)
(0.11486267 -0.02760126 5.2375565e-19)
(0.11587854 -0.027614862 -3.9768249e-19)
(0.11687643 -0.02758115 0)
(0.11785418 -0.027521329 -6.667826e-20)
(0.11882474 -0.027424429 -6.6703592e-20)
(0.11979172 -0.027290276 -1.9984376e-19)
(0.12076024 -0.027091324 -1.3223421e-19)
(0.09196175 -8.1468496e-05 -3.244635e-19)
(0.09180069 -0.00037189227 7.987456e-20)
(0.091636687 -0.00067417558 1.5581901e-19)
(0.09147263 -0.0009863641 0)
(0.091318082 -0.0013233321 0)
(0.091171315 -0.0016856682 1.5420491e-19)
(0.09103169 -0.0020791429 1.5253927e-19)
(0.090903962 -0.0025029175 0)
(0.090786987 -0.0029669916 0)
(0.090677792 -0.003468922 2.9753571e-19)
(0.090590031 -0.0040169831 0)
(0.090530006 -0.0046173693 0)
(0.090498453 -0.0052716101 -5.822337e-19)
(0.090504104 -0.0059779957 2.8966859e-19)
(0.090558337 -0.0067381229 0)
(0.090660281 -0.0075527666 -5.7658458e-19)
(0.090812269 -0.0084188301 -5.7824534e-19)
(0.091028835 -0.0093333974 5.8430052e-19)
(0.091321332 -0.010293659 1.1898906e-18)
(0.091696137 -0.011290641 -6.1164867e-19)
(0.092157904 -0.012315038 -6.3623172e-19)
(0.092705959 -0.013361148 3.3589389e-19)
(0.093343535 -0.014412959 -3.5006545e-19)
(0.094074574 -0.015458383 -8.4022569e-20)
(0.094891639 -0.016490148 7.7976744e-20)
(0.095786887 -0.017505114 0)
(0.096761179 -0.018485217 2.6816665e-19)
(0.09780886 -0.019415275 0)
(0.098917071 -0.020294724 4.9452077e-19)
(0.10007686 -0.021114043 -3.0637085e-23)
(0.10127655 -0.021863038 -4.743188e-19)
(0.10250371 -0.022538582 -6.6594248e-23)
(0.10374493 -0.023133472 -4.6729987e-19)
(0.10498591 -0.023660792 -4.6854901e-19)
(0.10622098 -0.024126838 -1.1770972e-18)
(0.10744343 -0.024524018 9.454809e-19)
(0.10864186 -0.024846368 0)
(0.10980963 -0.025111818 -2.3969796e-19)
(0.11094587 -0.025319121 0)
(0.11204323 -0.025463144 4.838687e-19)
(0.11309855 -0.025560193 2.443109e-19)
(0.11412188 -0.025632352 -5.8149868e-23)
(0.11511581 -0.025651502 -4.939074e-19)
(0.11607665 -0.025650594 3.8570081e-24)
(0.11701712 -0.025606891 -2.4969876e-19)
(0.11793578 -0.025539402 2.5178133e-19)
(0.11884378 -0.02543847 -2.5196046e-19)
(0.11974473 -0.025304646 5.6642205e-19)
(0.1206423 -0.025111751 6.2493779e-20)
(0.09256966 -0.00036516546 -3.0483709e-19)
(0.092438245 -0.00063616733 7.5041301e-20)
(0.092304445 -0.00091892205 2.9295581e-19)
(0.092170714 -0.0012122889 7.2987028e-19)
(0.092045916 -0.001528516 -5.8010891e-19)
(0.09192862 -0.001868623 -1.4449519e-19)
(0.091818542 -0.0022376149 -1.4279055e-19)
(0.091720047 -0.0026353075 -5.6863152e-19)
(0.091632466 -0.0030700662 8.4145014e-19)