/*--------------------------------*- C++ -*----------------------------------*\
| =========                 |                                                 |
| \\      /  F ield         | OpenFOAM: The Open Source CFD Toolbox           |
|  \\    /   O peration     | Version:  v2006                                 |
|   \\  /    A nd           | Website:  www.openfoam.com                      |
|    \\/     M anipulation  |                                                 |
\*---------------------------------------------------------------------------*/
FoamFile
{
    version     2.0;
    format      ascii;
    class       volVectorField;
    location    "4500";
    object      wallShearStress;
}
// * * * * * * * * * * * * * * * * * * * * * * * * * * * * * * * * * * * * * //

dimensions      [1 -1 -2 0 0 0 0];


internalField   uniform (0 0 0);

boundaryField
{
    Side
    {
        type            empty;
    }
    Inlet
    {
        type            calculated;
        value           uniform (0 0 0);
    }
    Wing
    {
        type            calculated;
        value           nonuniform List<vector> 
139
(
(-3.0072867e-05 -1.0262991e-05 3.1914526e-23)
(-2.9142659e-05 -1.0472203e-05 -3.1784424e-23)
(-2.6606795e-05 -9.4367371e-06 3.1751154e-23)
(-2.2640604e-05 -8.9319901e-06 0)
(-1.9635703e-05 -8.1720403e-06 0)
(-1.6798402e-05 -7.2550553e-06 -6.4976142e-23)
(-1.4566551e-05 -5.926418e-06 4.8567086e-23)
(-1.2058386e-05 -4.6983784e-06 0)
(-1.0408096e-05 -3.2329781e-06 -1.0506208e-22)
(-8.5603263e-06 -1.8898519e-06 -8.028838e-24)
(-6.9831439e-06 -8.9640564e-07 1.4640689e-22)
(-5.8614262e-06 -1.8423812e-07 -1.2949099e-22)
(-4.8632185e-06 3.9728757e-07 1.3059799e-22)
(-4.1597842e-06 8.6526633e-07 1.3747634e-22)
(-3.8383558e-06 1.3072978e-06 -1.5359226e-22)
(-3.7388351e-06 1.8863698e-06 5.8774718e-39)
(-3.7763882e-06 2.5835075e-06 3.0693639e-24)
(-3.8340271e-06 3.4392226e-06 -2.6331163e-24)
(-3.9829324e-06 4.429025e-06 1.5070486e-22)
(-4.2994486e-06 5.5773098e-06 -1.3808232e-22)
(-4.6466942e-06 6.9070095e-06 6.4865394e-23)
(-4.960691e-06 8.3179148e-06 -1.2205964e-22)
(-5.6630347e-06 9.7837078e-06 5.9459838e-23)
(-6.561171e-06 1.1476076e-05 -2.7090351e-24)
(-7.0378609e-06 1.3314937e-05 1.4172175e-23)
(-7.3166423e-06 1.5089894e-05 -1.178754e-23)
(-8.5015366e-06 1.6705639e-05 5.4986133e-23)
(-9.958314e-06 1.8628431e-05 -5.5166859e-23)
(-1.0855407e-05 2.06926e-05 -1.4693679e-39)
(-1.2365134e-05 2.2670663e-05 -1.1238518e-22)
(-1.4446126e-05 2.4697689e-05 1.1236238e-22)
(-1.7013859e-05 2.6829155e-05 -2.2813089e-22)
(-2.0284953e-05 2.985686e-05 2.2920519e-22)
(-2.2124582e-05 3.3342944e-05 -1.1491543e-22)
(-2.3917115e-05 3.6359164e-05 1.1626173e-22)
(-2.7131163e-05 3.8283713e-05 1.1422489e-22)
(-3.1332595e-05 4.0559927e-05 2.0540549e-25)
(-3.4344831e-05 4.3473318e-05 -2.3496622e-22)
(-3.8660125e-05 4.5329227e-05 1.2743397e-22)
(-4.4364887e-05 4.6787888e-05 1.1914683e-22)
(-4.873805e-05 4.9167447e-05 -1.1871951e-22)
(-5.0558968e-05 5.0537434e-05 7.4354663e-24)
(-5.4563406e-05 4.948432e-05 1.4880578e-23)
(-5.5594555e-05 4.9892111e-05 -5.9553574e-23)
(-5.739502e-05 4.771469e-05 1.3482719e-22)
(-5.7200731e-05 4.6077735e-05 -5.9499181e-23)
(-5.6155396e-05 4.2981927e-05 5.8774718e-39)
(-5.447885e-05 3.9688596e-05 6.0664972e-23)
(-5.3147243e-05 3.6389193e-05 2.9387359e-39)
(-1.6566837e-05 -1.4784414e-06 -4.0120943e-21)
(-1.3797655e-05 -8.4243172e-07 -1.0432512e-37)
(-1.3188362e-05 -5.387049e-08 -2.2567058e-22)
(-1.501193e-05 3.3993556e-07 -6.3286323e-23)
(-1.8051692e-05 5.1976175e-07 1.0163284e-21)
(-2.0452031e-05 4.5356043e-07 -4.7907495e-22)
(-2.2009703e-05 3.3839647e-07 5.5101298e-40)
(-2.3251584e-05 1.8663849e-07 3.2223687e-23)
(-2.4237314e-05 2.0884349e-08 9.679281e-23)
(-2.5080098e-05 -1.4600012e-07 1.0696012e-27)
(-2.5804155e-05 -3.303157e-07 3.2501034e-23)
(-2.636036e-05 -4.9418752e-07 3.2522663e-23)
(-2.6897159e-05 -6.5506134e-07 -4.935076e-28)
(-2.7388623e-05 -8.2757153e-07 -3.2728521e-23)
(-2.7727213e-05 -9.9126705e-07 2.6230675e-22)
(-2.7879606e-05 -1.1313923e-06 1.3160498e-22)
(-2.7974984e-05 -1.2418302e-06 -1.3183504e-22)
(-2.8209397e-05 -1.3699661e-06 2.8698593e-42)
(-2.8572074e-05 -1.5482162e-06 -1.3154373e-22)
(-2.9054601e-05 -1.8060897e-06 -3.2142424e-40)
(-2.9600478e-05 -2.1507237e-06 -1.6443586e-23)
(-3.0005259e-05 -2.5423904e-06 1.6482039e-23)
(-3.0152746e-05 -2.9441286e-06 1.3226074e-22)
(-2.9943531e-05 -3.3070978e-06 -1.3218057e-22)
(-2.9671778e-05 -3.669697e-06 1.3481861e-22)
(-2.9419223e-05 -4.0441996e-06 -1.3498562e-22)
(-2.8971308e-05 -4.3997841e-06 1.8367099e-40)
(-2.8521399e-05 -4.774518e-06 -6.6722612e-23)
(-2.8045903e-05 -5.1440959e-06 -1.6667588e-23)
(-2.7714179e-05 -5.6286617e-06 1.6653708e-23)
(-2.7555957e-05 -6.1918715e-06 -3.3142389e-23)
(-2.7651881e-05 -7.0444073e-06 1.8367099e-40)
(-2.8260576e-05 -8.1738077e-06 0)
(-2.9418796e-05 -9.6714825e-06 -3.3060779e-39)
(-5.2381518e-05 -9.5523598e-07 2.8789557e-23)
(-5.0503716e-05 -1.3694378e-06 3.0869596e-23)
(-4.9054182e-05 -1.685939e-06 -5.2484943e-27)
(-4.7781151e-05 -1.9651411e-06 -6.6177038e-23)
(-4.6588627e-05 -2.2297399e-06 3.9039087e-24)
(-4.537029e-05 -2.4919945e-06 5.8669422e-23)
(-4.3920893e-05 -2.7598392e-06 1.2533553e-22)
(-4.2421397e-05 -2.9946612e-06 1.2567223e-22)
(-4.1124607e-05 -3.1912502e-06 5.078601e-22)
(-4.003167e-05 -3.3735121e-06 -2.5241171e-22)
(-3.9039081e-05 -3.5618291e-06 -2.525389e-22)
(-3.8074475e-05 -3.7615577e-06 2.6035689e-22)
(-3.6948378e-05 -3.981372e-06 -5.1138852e-22)
(-3.5670317e-05 -4.1903519e-06 -7.8587472e-24)
(-3.4444405e-05 -4.3738094e-06 -9.9673051e-22)
(-3.3286754e-05 -4.5687143e-06 1.0024901e-21)
(-3.1911281e-05 -4.749668e-06 -2.9387359e-38)
(-3.0409789e-05 -4.8962483e-06 -4.4078362e-27)
(-2.9002648e-05 -5.025156e-06 1.9759559e-21)
(-2.7398051e-05 -5.1377849e-06 -1.9592732e-21)
(-2.5518546e-05 -5.1726941e-06 1.8981302e-24)
(-2.3464753e-05 -5.1618254e-06 3.8490472e-21)
(-2.0819397e-05 -4.9614316e-06 -3.6832465e-24)
(-1.9329326e-05 -4.9024831e-06 1.4694222e-23)
(-1.1592965e-05 -3.9237783e-06 -6.5535819e-21)
(-5.2282786e-05 3.3672675e-05 5.8774718e-39)
(-5.2099e-05 3.1455726e-05 -6.3220603e-23)
(-5.2324332e-05 2.9816348e-05 -5.8774718e-39)
(-5.2723075e-05 2.8460512e-05 3.2031534e-23)
(-5.354509e-05 2.7354739e-05 3.2009526e-23)
(-5.4490458e-05 2.6470393e-05 -1.598411e-23)
(-5.608997e-05 2.5705848e-05 1.5915011e-23)
(-5.7285295e-05 2.5186935e-05 -1.4693679e-39)
(-5.8347378e-05 2.4401984e-05 6.3370191e-23)
(-5.9679102e-05 2.3812736e-05 -6.3139468e-23)
(-6.1044011e-05 2.3180993e-05 -1.4693679e-39)
(-6.2841834e-05 2.2587191e-05 6.2419894e-23)
(-6.4116141e-05 2.1978146e-05 6.2227306e-23)
(-6.555974e-05 2.1144725e-05 -7.3468397e-40)
(-6.6612488e-05 2.0401553e-05 -1.9237782e-24)
(-6.7785041e-05 1.9382236e-05 1.9070151e-24)
(-6.8953258e-05 1.8507099e-05 0)
(-6.966195e-05 1.7363264e-05 0)
(-7.0467965e-05 1.6222435e-05 6.0761774e-23)
(-7.0702301e-05 1.4969185e-05 -1.2058506e-22)
(-7.1775851e-05 1.3611348e-05 5.9566146e-23)
(-7.2071528e-05 1.2377807e-05 3.6734198e-40)
(-7.1576596e-05 1.0691907e-05 9.2935118e-25)
(-7.0899174e-05 9.2221322e-06 -6.01331e-23)
(-6.9192489e-05 7.5333811e-06 -1.8367099e-40)
(-6.8321762e-05 5.986706e-06 2.9731347e-23)
(-6.6322149e-05 4.7021039e-06 -1.4877515e-23)
(-6.3501348e-05 3.0400531e-06 -1.9773447e-24)
(-6.0749041e-05 1.7286116e-06 2.3265465e-25)
(-5.7522001e-05 5.2907958e-07 9.3920965e-25)
(-5.4617834e-05 -3.4749317e-07 9.4772852e-25)
)
;
    }
    Outlet
    {
        type            calculated;
        value           uniform (0 0 0);
    }
    Ground
    {
        type            calculated;
        value           uniform (0 0 0);
    }
}


// ************************************************************************* //
