/*--------------------------------*- C++ -*----------------------------------*\
| =========                 |                                                 |
| \\      /  F ield         | OpenFOAM: The Open Source CFD Toolbox           |
|  \\    /   O peration     | Version:  v2006                                 |
|   \\  /    A nd           | Website:  www.openfoam.com                      |
|    \\/     M anipulation  |                                                 |
\*---------------------------------------------------------------------------*/
FoamFile
{
    version     2.0;
    format      ascii;
    class       volScalarField;
    location    "4500";
    object      yPlus;
}
// * * * * * * * * * * * * * * * * * * * * * * * * * * * * * * * * * * * * * //

dimensions      [0 0 0 0 0 0 0];


internalField   uniform 0;

boundaryField
{
    Side
    {
        type            empty;
    }
    Inlet
    {
        type            calculated;
        value           uniform 0;
    }
    Wing
    {
        type            calculated;
        value           nonuniform List<scalar> 
139
(
88.86451
86.73793
79.338932
73.516942
67.823579
63.226692
56.842978
52.135264
46.239397
39.422471
34.355151
30.612131
26.827794
23.996154
23.312865
24.221833
26.22134
29.715032
34.598061
39.96785
45.479517
50.702718
56.234846
61.777035
67.218329
71.882306
75.955639
79.898047
84.223242
87.307099
89.73099
91.827719
96.367724
101.74674
103.94338
104.01655
107.15839
110.07535
110.31345
114.10447
121.07344
124.42409
125.09942
129.14446
127.91165
129.24328
127.04507
124.02707
120.51462
60.986674
56.304688
55.916307
60.0867
65.916323
70.026934
72.530477
74.4636
75.9377
77.184267
78.227408
79.014882
79.784948
80.473202
80.93885
81.147154
81.320683
81.712234
82.282155
83.025522
83.83668
84.415396
84.639629
84.360094
84.111362
83.862151
83.37844
82.96412
82.52914
82.458563
82.682518
83.550286
85.321005
88.055526
110.40879
108.39207
106.81851
105.41388
104.08677
102.6917
101.00727
99.266396
97.749671
96.457792
95.264907
94.086591
92.674134
91.073743
89.531568
88.062098
86.257962
84.317222
82.478277
80.310146
77.728484
74.795841
70.831974
68.66437
53.434576
117.74101
115.59449
114.49555
113.74916
113.46481
113.69949
114.29827
115.59525
115.96385
117.018
118.05853
119.47113
121.00071
122.02637
123.45812
124.27367
125.73072
126.4715
127.35866
127.82288
128.66698
129.52626
129.08313
128.75913
127.28043
126.48853
124.8386
122.07176
119.24702
115.8813
112.81635
)
;
    }
    Outlet
    {
        type            calculated;
        value           uniform 0;
    }
    Ground
    {
        type            calculated;
        value           nonuniform List<scalar> 
154
(
81.657887
84.699806
87.775741
90.734089
93.577519
96.326387
98.980573
101.53907
104.00363
106.37675
108.65732
110.8534
112.95117
114.98744
116.88456
118.80469
120.46045
122.29371
124.0098
125.70421
127.30339
129.05232
130.61515
132.13892
133.62055
135.04085
136.41142
137.7391
139.02689
140.27805
141.49566
142.68234
143.8404
144.97193
146.07886
147.16293
148.22578
149.26892
150.29376
151.30161
152.29371
153.2712
154.23518
155.18667
156.12661
157.05592
157.97543
158.88596
159.78826
160.68304
161.57101
162.45279
163.32901
164.20025
165.06705
165.92996
166.78948
167.64609
168.50024
169.35238
170.20291
171.05223
171.90066
172.74854
173.59607
174.44345
175.29054
176.1375
176.98267
177.82819
178.6614
179.51669
180.25347
181.38755
57.247502
54.113417
51.468137
49.258295
47.531244
46.344936
45.729705
45.680254
46.161359
47.119841
48.488091
50.193333
52.165245
54.340314
56.663881
59.090466
61.58313
64.112158
66.654406
69.190176
71.708724
74.18531
76.653599
78.967556
130.81559
130.02627
129.12947
128.10364
126.95498
125.66893
124.22612
122.6094
120.80061
118.78165
116.53831
114.05362
111.34288
108.36501
105.12602
101.62375
97.864628
93.860362
89.62175
85.183882
80.550272
75.750197
70.815576
65.746736
60.705715
475.55274
400.98825
342.21357
305.91346
277.77701
253.82673
234.38194
218.80533
206.03553
195.18689
186.10301
178.37358
171.74446
166.03314
161.10076
156.81175
153.0761
149.8142
146.95729
144.4572
142.25692
140.34051
138.66019
137.20868
135.95344
134.86307
133.94121
133.16878
132.55182
132.01222
131.66746
)
;
    }
}


// ************************************************************************* //
