# Force coefficients
# dragDir       : (1.00000000e+00 0.00000000e+00 0.00000000e+00)
# sideDir       : (0.00000000e+00 0.00000000e+00 -1.00000000e+00)
# liftDir       : (0.00000000e+00 1.00000000e+00 0.00000000e+00)
# rollAxis      : (1.00000000e+00 0.00000000e+00 0.00000000e+00)
# pitchAxis     : (0.00000000e+00 0.00000000e+00 -1.00000000e+00)
# yawAxis       : (0.00000000e+00 1.00000000e+00 0.00000000e+00)
# magUInf       : 1.03413075e-01
# lRef          : 1.00000000e+00
# Aref          : 1.00000000e+00
# CofR          : (0.00000000e+00 0.00000000e+00 0.00000000e+00)
#
# Time          	Cd              	Cs              	Cl              	CmRoll          	CmPitch         	CmYaw           	Cd(f)           	Cd(r)           	Cs(f)           	Cs(r)           	Cl(f)           	Cl(r)           
1               	3.17840630e+01	5.92983328e-19	-7.57711054e+01	3.78855527e+01	4.97588338e+01	1.58920315e+01	5.37775842e+01	-2.19935212e+01	1.58920315e+01	-1.58920315e+01	1.18732811e+01	-8.76443865e+01
2               	4.52993616e+00	5.43700204e-19	-4.03079389e+00	2.01539694e+00	5.07029378e+00	2.26496808e+00	4.28036502e+00	2.49571136e-01	2.26496808e+00	-2.26496808e+00	3.05489684e+00	-7.08569072e+00
3               	-4.28386068e+00	5.40959612e-19	7.07833072e+00	-3.53916536e+00	-2.24383077e+00	-2.14193034e+00	-5.68109570e+00	1.39723502e+00	-2.14193034e+00	2.14193034e+00	1.29533459e+00	5.78299613e+00
4               	-1.30751158e+00	5.28370919e-19	9.33479653e+00	-4.66739826e+00	-3.19519839e+00	-6.53755792e-01	-5.32115406e+00	4.01364247e+00	-6.53755792e-01	6.53755792e-01	1.47219987e+00	7.86259666e+00
5               	2.42061785e-01	5.35348163e-19	1.69543045e+00	-8.47715227e-01	-8.28374094e-01	1.21030893e-01	-7.26684335e-01	9.68746120e-01	1.21030893e-01	-1.21030893e-01	1.93411330e-02	1.67608932e+00
6               	3.42782462e-01	5.35840551e-19	-2.18443275e+00	1.09221637e+00	4.80343722e-01	1.71391231e-01	1.26360760e+00	-9.20825142e-01	1.71391231e-01	-1.71391231e-01	-6.11872651e-01	-1.57256009e+00
7               	-1.91931518e-01	5.34968699e-19	-3.31001646e+00	1.65500823e+00	5.73728858e-01	-9.59657590e-02	1.55904247e+00	-1.75097399e+00	-9.59657590e-02	9.59657590e-02	-1.08127937e+00	-2.22873709e+00
8               	-4.30942874e-01	5.35129342e-19	-3.08094063e+00	1.54047032e+00	3.73919691e-01	-2.15471437e-01	1.32499888e+00	-1.75594175e+00	-2.15471437e-01	2.15471437e-01	-1.16655063e+00	-1.91439001e+00
9               	-3.66359467e-01	5.31321754e-19	-1.38729699e+00	6.93648495e-01	-7.98864905e-02	-1.83179733e-01	5.10468762e-01	-8.76828229e-01	-1.83179733e-01	1.83179733e-01	-7.73534986e-01	-6.13762005e-01
10              	-1.06205415e-01	5.29324813e-19	-5.97113272e-01	2.98556636e-01	-4.54840982e-02	-5.31027076e-02	2.45453929e-01	-3.51659344e-01	-5.31027076e-02	5.31027076e-02	-3.44040734e-01	-2.53072538e-01
11              	8.17453915e-02	5.28632521e-19	3.19221476e-01	-1.59610738e-01	-1.08072609e-01	4.08726957e-02	-1.18738042e-01	2.00483434e-01	4.08726957e-02	-4.08726957e-02	5.15381284e-02	2.67683347e-01
12              	2.23116344e-01	5.28910350e-19	4.21646060e-01	-2.10823030e-01	3.57080116e-02	1.11558172e-01	-9.92648582e-02	3.22381202e-01	1.11558172e-01	-1.11558172e-01	2.46531042e-01	1.75115019e-01
13              	2.40071326e-01	5.28416816e-19	4.99562695e-01	-2.49781347e-01	5.57888372e-02	1.20035663e-01	-1.29745684e-01	3.69817010e-01	1.20035663e-01	-1.20035663e-01	3.05570185e-01	1.93992510e-01
14              	2.30206171e-01	5.27860072e-19	8.29685493e-02	-4.14842746e-02	1.86642932e-01	1.15103085e-01	7.36188108e-02	1.56587360e-01	1.15103085e-01	-1.15103085e-01	2.28127206e-01	-1.45158657e-01
15              	1.64308422e-01	5.26724674e-19	-2.06298138e-01	1.03149069e-01	2.07945612e-01	8.21542109e-02	1.85303280e-01	-2.09948584e-02	8.21542109e-02	-8.21542109e-02	1.04796543e-01	-3.11094681e-01
16              	1.12502258e-01	5.25822176e-19	-5.98719499e-01	2.99359750e-01	2.65228391e-01	5.62511292e-02	3.55610879e-01	-2.43108621e-01	5.62511292e-02	-5.62511292e-02	-3.41313584e-02	-5.64588141e-01
17              	5.04264536e-02	5.24685660e-19	-7.10706287e-01	3.55353143e-01	2.21257816e-01	2.52132268e-02	3.80566370e-01	-3.30139917e-01	2.52132268e-02	-2.52132268e-02	-1.34095328e-01	-5.76610959e-01
18              	2.83581067e-02	5.23849780e-19	-8.59527587e-01	4.29763793e-01	2.34538467e-01	1.41790534e-02	4.43942847e-01	-4.15584740e-01	1.41790534e-02	-1.41790534e-02	-1.95225327e-01	-6.64302260e-01
19              	9.74930889e-03	5.22922313e-19	-7.44706300e-01	3.72353150e-01	1.76615769e-01	4.87465444e-03	3.77227804e-01	-3.67478495e-01	4.87465444e-03	-4.87465444e-03	-1.95737381e-01	-5.48968919e-01
20              	2.60441993e-02	5.22308882e-19	-7.48568003e-01	3.74284002e-01	1.95922833e-01	1.30220997e-02	3.87306101e-01	-3.61261902e-01	1.30220997e-02	-1.30220997e-02	-1.78361169e-01	-5.70206834e-01
21              	3.56206090e-02	5.21539040e-19	-5.43558120e-01	2.71779060e-01	1.50140776e-01	1.78103045e-02	2.89589364e-01	-2.53968755e-01	1.78103045e-02	-1.78103045e-02	-1.21638284e-01	-4.21919836e-01
22              	5.91572171e-02	5.21080613e-19	-5.42235326e-01	2.71117663e-01	1.82440766e-01	2.95786086e-02	3.00696272e-01	-2.41539055e-01	2.95786086e-02	-2.95786086e-02	-8.86768971e-02	-4.53558429e-01
23              	6.98987692e-02	5.20384284e-19	-4.28696923e-01	2.14348461e-01	1.69275874e-01	3.49493846e-02	2.49297846e-01	-1.79399077e-01	3.49493846e-02	-3.49493846e-02	-4.50725870e-02	-3.83624336e-01
24              	8.92517218e-02	5.19472691e-19	-4.58998183e-01	2.29499091e-01	2.07858733e-01	4.46258609e-02	2.74124952e-01	-1.84873230e-01	4.46258609e-02	-4.46258609e-02	-2.16403583e-02	-4.37357824e-01
25              	8.80677732e-02	5.18454217e-19	-4.40317083e-01	2.20158541e-01	2.04981839e-01	4.40338866e-02	2.64192428e-01	-1.76124655e-01	4.40338866e-02	-4.40338866e-02	-1.51767019e-02	-4.25140381e-01
26              	9.25045965e-02	5.17789695e-19	-4.78752797e-01	2.39376398e-01	2.22886238e-01	4.62522983e-02	2.85628697e-01	-1.93124100e-01	4.62522983e-02	-4.62522983e-02	-1.64901608e-02	-4.62262636e-01
27              	8.56534979e-02	5.17023376e-19	-5.17274703e-01	2.58637351e-01	2.26856677e-01	4.28267490e-02	3.01464100e-01	-2.15810603e-01	4.28267490e-02	-4.28267490e-02	-3.17806748e-02	-4.85494028e-01
28              	8.26118914e-02	5.16356547e-19	-5.73714291e-01	2.86857145e-01	2.40138706e-01	4.13059457e-02	3.28163091e-01	-2.45551200e-01	4.13059457e-02	-4.13059457e-02	-4.67184398e-02	-5.26995851e-01
29              	7.72138908e-02	5.15701408e-19	-6.05163297e-01	3.02581648e-01	2.42704870e-01	3.86069454e-02	3.41188594e-01	-2.63974703e-01	3.86069454e-02	-3.86069454e-02	-5.98767781e-02	-5.45286518e-01
30              	7.44251684e-02	5.15113649e-19	-6.32158820e-01	3.16079410e-01	2.47503780e-01	3.72125842e-02	3.53291994e-01	-2.78866826e-01	3.72125842e-02	-3.72125842e-02	-6.85756298e-02	-5.63583190e-01
31              	7.19119767e-02	5.14539433e-19	-6.40174681e-01	3.20087341e-01	2.47645976e-01	3.59559884e-02	3.56043329e-01	-2.84131352e-01	3.59559884e-02	-3.59559884e-02	-7.24413645e-02	-5.67733317e-01
32              	7.24096492e-02	5.14009703e-19	-6.40842267e-01	3.20421133e-01	2.49606334e-01	3.62048246e-02	3.56625958e-01	-2.84216309e-01	3.62048246e-02	-3.62048246e-02	-7.08147990e-02	-5.70027468e-01
33              	7.32710635e-02	5.13457923e-19	-6.28038472e-01	3.14019236e-01	2.48463678e-01	3.66355318e-02	3.50654768e-01	-2.77383704e-01	3.66355318e-02	-3.66355318e-02	-6.55555584e-02	-5.62482914e-01
34              	7.51139486e-02	5.12935737e-19	-6.23951236e-01	3.11975618e-01	2.51220660e-01	3.75569743e-02	3.49532592e-01	-2.74418644e-01	3.75569743e-02	-3.75569743e-02	-6.07549581e-02	-5.63196278e-01
35              	7.70962019e-02	5.12683735e-19	-6.13779402e-01	3.06889701e-01	2.52546252e-01	3.85481009e-02	3.45437802e-01	-2.68341600e-01	3.85481009e-02	-3.85481009e-02	-5.43434490e-02	-5.59435953e-01
36              	7.91290747e-02	5.12457794e-19	-6.06459958e-01	3.03229979e-01	2.54117953e-01	3.95645374e-02	3.42794516e-01	-2.63665442e-01	3.95645374e-02	-3.95645374e-02	-4.91120261e-02	-5.57347932e-01
37              	8.06634193e-02	5.12249769e-19	-6.01821453e-01	3.00910726e-01	2.55676599e-01	4.03317096e-02	3.41242436e-01	-2.60579017e-01	4.03317096e-02	-4.03317096e-02	-4.52341275e-02	-5.56587326e-01
38              	8.33559411e-02	5.12045220e-19	-6.02862965e-01	3.01431483e-01	2.60609333e-01	4.16779706e-02	3.43109453e-01	-2.59753512e-01	4.16779706e-02	-4.16779706e-02	-4.08221494e-02	-5.62040816e-01
39              	8.50425552e-02	5.11869324e-19	-6.13835731e-01	3.06917865e-01	2.67049761e-01	4.25212776e-02	3.49439143e-01	-2.64396588e-01	4.25212776e-02	-4.25212776e-02	-3.98681046e-02	-5.73967626e-01
40              	8.63877753e-02	5.11697852e-19	-6.23882147e-01	3.11941074e-01	2.72497303e-01	4.31938877e-02	3.55134961e-01	-2.68747186e-01	4.31938877e-02	-4.31938877e-02	-3.94437701e-02	-5.84438377e-01
41              	8.67788549e-02	5.11548232e-19	-6.35737337e-01	3.17868668e-01	2.76993459e-01	4.33894274e-02	3.61258096e-01	-2.74479241e-01	4.33894274e-02	-4.33894274e-02	-4.08752093e-02	-5.94862127e-01
42              	8.60318492e-02	5.11414716e-19	-6.51444319e-01	3.25722159e-01	2.81030707e-01	4.30159246e-02	3.68738084e-01	-2.82706235e-01	4.30159246e-02	-4.30159246e-02	-4.46914526e-02	-6.06752866e-01
43              	8.48306961e-02	5.11279564e-19	-6.61181881e-01	3.30590941e-01	2.82274834e-01	4.24153481e-02	3.73006289e-01	-2.88175593e-01	4.24153481e-02	-4.24153481e-02	-4.83161064e-02	-6.12865775e-01
44              	8.35023560e-02	5.11153726e-19	-6.68115270e-01	3.34057635e-01	2.82637326e-01	4.17511780e-02	3.75808813e-01	-2.92306457e-01	4.17511780e-02	-4.17511780e-02	-5.14203091e-02	-6.16694961e-01
45              	8.29680690e-02	5.11047765e-19	-6.73366448e-01	3.36683224e-01	2.84058543e-01	4.14840345e-02	3.78167259e-01	-2.95199190e-01	4.14840345e-02	-4.14840345e-02	-5.26246812e-02	-6.20741767e-01
46              	8.32642628e-02	5.10962200e-19	-6.75532536e-01	3.37766268e-01	2.85885732e-01	4.16321314e-02	3.79398400e-01	-2.96134137e-01	4.16321314e-02	-4.16321314e-02	-5.18805360e-02	-6.23652000e-01
47              	8.41519625e-02	5.10890436e-19	-6.73309214e-01	3.36654607e-01	2.87106386e-01	4.20759813e-02	3.78730588e-01	-2.94578626e-01	4.20759813e-02	-4.20759813e-02	-4.95482211e-02	-6.23760993e-01
48              	8.53950996e-02	5.10845960e-19	-6.69313123e-01	3.34656561e-01	2.88161004e-01	4.26975498e-02	3.77354111e-01	-2.91959012e-01	4.26975498e-02	-4.26975498e-02	-4.64955570e-02	-6.22817566e-01
49              	8.67533141e-02	5.10806999e-19	-6.65311705e-01	3.32655852e-01	2.89248870e-01	4.33766570e-02	3.76032509e-01	-2.89279195e-01	4.33766570e-02	-4.33766570e-02	-4.34069828e-02	-6.21904722e-01
50              	8.77996152e-02	5.10767358e-19	-6.61547751e-01	3.30773875e-01	2.89711357e-01	4.38998076e-02	3.74673683e-01	-2.86874068e-01	4.38998076e-02	-4.38998076e-02	-4.10625183e-02	-6.20485232e-01
51              	8.86400363e-02	5.10719707e-19	-6.60955594e-01	3.30477797e-01	2.90857302e-01	4.43200181e-02	3.74797815e-01	-2.86157779e-01	4.43200181e-02	-4.43200181e-02	-3.96204954e-02	-6.21335098e-01
52              	8.93697352e-02	5.10663217e-19	-6.65610039e-01	3.32805019e-01	2.93674088e-01	4.46848676e-02	3.77489887e-01	-2.88120152e-01	4.46848676e-02	-4.46848676e-02	-3.91309312e-02	-6.26479107e-01
53              	8.97280094e-02	5.10598665e-19	-6.73285055e-01	3.36642528e-01	2.96958495e-01	4.48640047e-02	3.81506532e-01	-2.91778523e-01	4.48640047e-02	-4.48640047e-02	-3.96840327e-02	-6.33601023e-01
54              	8.97349031e-02	5.10524051e-19	-6.80728287e-01	3.40364144e-01	2.99550623e-01	4.48674516e-02	3.85231595e-01	-2.95496692e-01	4.48674516e-02	-4.48674516e-02	-4.08135208e-02	-6.39914766e-01
55              	8.95225923e-02	5.10454691e-19	-6.87148348e-01	3.43574174e-01	3.01404314e-01	4.47612962e-02	3.88335470e-01	-2.98812878e-01	4.47612962e-02	-4.47612962e-02	-4.21698607e-02	-6.44978488e-01
56              	8.92906833e-02	5.10405001e-19	-6.91579332e-01	3.45789666e-01	3.02526073e-01	4.46453416e-02	3.90435008e-01	-3.01144324e-01	4.46453416e-02	-4.46453416e-02	-4.32635925e-02	-6.48315739e-01
57              	8.91069732e-02	5.10366119e-19	-6.93544877e-01	3.46772438e-01	3.02865963e-01	4.45534866e-02	3.91325925e-01	-3.02218952e-01	4.45534866e-02	-4.45534866e-02	-4.39064757e-02	-6.49638401e-01
58              	8.91545030e-02	5.10327878e-19	-6.94349339e-01	3.47174669e-01	3.03261508e-01	4.45772515e-02	3.91751921e-01	-3.02597418e-01	4.45772515e-02	-4.45772515e-02	-4.39131614e-02	-6.50436177e-01
59              	8.95544712e-02	5.10289505e-19	-6.94959428e-01	3.47479714e-01	3.04164469e-01	4.47772356e-02	3.92256950e-01	-3.02702478e-01	4.47772356e-02	-4.47772356e-02	-4.33152453e-02	-6.51644183e-01
60              	9.01753585e-02	5.10255321e-19	-6.95205731e-01	3.47602866e-01	3.05285855e-01	4.50876792e-02	3.92690545e-01	-3.02515186e-01	4.50876792e-02	-4.50876792e-02	-4.23170107e-02	-6.52888721e-01
61              	9.07981256e-02	5.10200578e-19	-6.95237021e-01	3.47618511e-01	3.06396675e-01	4.53990628e-02	3.93017573e-01	-3.02219448e-01	4.53990628e-02	-4.53990628e-02	-4.12218358e-02	-6.54015185e-01
62              	9.13032052e-02	5.10124800e-19	-6.95064550e-01	3.47532275e-01	3.07301522e-01	4.56516026e-02	3.93183878e-01	-3.01880673e-01	4.56516026e-02	-4.56516026e-02	-4.02307533e-02	-6.54833797e-01
63              	9.16909249e-02	5.10031156e-19	-6.95224677e-01	3.47612339e-01	3.08143702e-01	4.58454624e-02	3.93457801e-01	-3.01766876e-01	4.58454624e-02	-4.58454624e-02	-3.94686363e-02	-6.55756041e-01
64              	9.19442021e-02	5.09933714e-19	-6.96085356e-01	3.48042678e-01	3.08973967e-01	4.59721011e-02	3.94014779e-01	-3.02070577e-01	4.59721011e-02	-4.59721011e-02	-3.90687111e-02	-6.57016645e-01
65              	9.20943439e-02	5.09875337e-19	-6.97810544e-01	3.48905272e-01	3.09901100e-01	4.60471720e-02	3.94952444e-01	-3.02858100e-01	4.60471720e-02	-4.60471720e-02	-3.90041722e-02	-6.58806372e-01
66              	9.22246314e-02	5.09825262e-19	-7.00215231e-01	3.50107615e-01	3.10990692e-01	4.61123157e-02	3.96219931e-01	-3.03995300e-01	4.61123157e-02	-4.61123157e-02	-3.91169239e-02	-6.61098307e-01
67              	9.23281211e-02	5.09785652e-19	-7.02503381e-01	3.51251691e-01	3.11981488e-01	4.61640605e-02	3.97415751e-01	-3.05087630e-01	4.61640605e-02	-4.61640605e-02	-3.92702024e-02	-6.63233179e-01
68              	9.24327469e-02	5.09744374e-19	-7.04495320e-01	3.52247660e-01	3.12837521e-01	4.62163735e-02	3.98464034e-01	-3.06031287e-01	4.62163735e-02	-4.62163735e-02	-3.94101388e-02	-6.65085182e-01
69              	9.25466242e-02	5.09698557e-19	-7.06292562e-01	3.53146281e-01	3.13633526e-01	4.62733121e-02	3.99419593e-01	-3.06872969e-01	4.62733121e-02	-4.62733121e-02	-3.95127549e-02	-6.66779807e-01
70              	9.26901298e-02	5.09657735e-19	-7.07915363e-01	3.53957682e-01	3.14407006e-01	4.63450649e-02	4.00302747e-01	-3.07612617e-01	4.63450649e-02	-4.63450649e-02	-3.95506756e-02	-6.68364688e-01
71              	9.28668643e-02	5.09593851e-19	-7.09440034e-01	3.54720017e-01	3.15196590e-01	4.64334322e-02	4.01153449e-01	-3.08286585e-01	4.64334322e-02	-4.64334322e-02	-3.95234268e-02	-6.69916608e-01
72              	9.30808292e-02	5.09511376e-19	-7.10796329e-01	3.55398164e-01	3.15994582e-01	4.65404146e-02	4.01938579e-01	-3.08857750e-01	4.65404146e-02	-4.65404146e-02	-3.94035827e-02	-6.71392746e-01
73              	9.33137712e-02	5.09412896e-19	-7.11746163e-01	3.55873082e-01	3.16700970e-01	4.66568856e-02	4.02529967e-01	-3.09216196e-01	4.66568856e-02	-4.66568856e-02	-3.91721120e-02	-6.72574051e-01
74              	9.35623598e-02	5.09332181e-19	-7.12537355e-01	3.56268677e-01	3.17411265e-01	4.67811799e-02	4.03049857e-01	-3.09487498e-01	4.67811799e-02	-4.67811799e-02	-3.88574125e-02	-6.73679942e-01
75              	9.37993209e-02	5.09252538e-19	-7.13286363e-01	3.56643181e-01	3.18127916e-01	4.68996605e-02	4.03542842e-01	-3.09743521e-01	4.68996605e-02	-4.68996605e-02	-3.85152654e-02	-6.74771097e-01
76              	9.39974268e-02	5.09178615e-19	-7.14004471e-01	3.57002236e-01	3.18818098e-01	4.69987134e-02	4.04000949e-01	-3.10003522e-01	4.69987134e-02	-4.69987134e-02	-3.81841377e-02	-6.75820333e-01
77              	9.41413524e-02	5.09116757e-19	-7.14585300e-01	3.57292650e-01	3.19401522e-01	4.70706762e-02	4.04363326e-01	-3.10221974e-01	4.70706762e-02	-4.70706762e-02	-3.78911280e-02	-6.76694172e-01
78              	9.42397785e-02	5.09058678e-19	-7.15115989e-01	3.57557995e-01	3.19908559e-01	4.71198892e-02	4.04677884e-01	-3.10438105e-01	4.71198892e-02	-4.71198892e-02	-3.76494361e-02	-6.77466553e-01
79              	9.43314936e-02	5.09000514e-19	-7.15869619e-01	3.57934809e-01	3.20469000e-01	4.71657468e-02	4.05100556e-01	-3.10769063e-01	4.71657468e-02	-4.71657468e-02	-3.74658091e-02	-6.78403810e-01
80              	9.44575697e-02	5.08930715e-19	-7.17018507e-01	3.58509253e-01	3.21174169e-01	4.72287848e-02	4.05738038e-01	-3.11280469e-01	4.72287848e-02	-4.72287848e-02	-3.73350843e-02	-6.79683422e-01
81              	9.46093849e-02	5.08852436e-19	-7.18500357e-01	3.59250178e-01	3.21995210e-01	4.73046924e-02	4.06554871e-01	-3.11945486e-01	4.73046924e-02	-4.73046924e-02	-3.72549682e-02	-6.81245388e-01
82              	9.47748836e-02	5.08769318e-19	-7.20138586e-01	3.60069293e-01	3.22843987e-01	4.73874418e-02	4.07456735e-01	-3.12681851e-01	4.73874418e-02	-4.73874418e-02	-3.72253061e-02	-6.82913280e-01
83              	9.49647319e-02	5.08681200e-19	-7.21986446e-01	3.60993223e-01	3.23769267e-01	4.74823659e-02	4.08475589e-01	-3.13510857e-01	4.74823659e-02	-4.74823659e-02	-3.72239556e-02	-6.84762490e-01
84              	9.51652538e-02	5.08593469e-19	-7.23766641e-01	3.61883321e-01	3.24699743e-01	4.75826269e-02	4.09465948e-01	-3.14300694e-01	4.75826269e-02	-4.75826269e-02	-3.71835780e-02	-6.86583063e-01
85              	9.53648442e-02	5.08510235e-19	-7.25253845e-01	3.62626923e-01	3.25566097e-01	4.76824221e-02	4.10309345e-01	-3.14944501e-01	4.76824221e-02	-4.76824221e-02	-3.70608255e-02	-6.88193020e-01
86              	9.55496165e-02	5.08436128e-19	-7.26488342e-01	3.63244171e-01	3.26350685e-01	4.77748083e-02	4.11018979e-01	-3.15469363e-01	4.77748083e-02	-4.77748083e-02	-3.68934857e-02	-6.89594856e-01
87              	9.57153715e-02	5.08370689e-19	-7.27633928e-01	3.63816964e-01	3.27113932e-01	4.78576857e-02	4.11674650e-01	-3.15959278e-01	4.78576857e-02	-4.78576857e-02	-3.67030319e-02	-6.90930897e-01
88              	9.58594741e-02	5.08310927e-19	-7.28794758e-01	3.64397379e-01	3.27881723e-01	4.79297371e-02	4.12327116e-01	-3.16467642e-01	4.79297371e-02	-4.79297371e-02	-3.65156563e-02	-6.92279101e-01
89              	9.59842148e-02	5.08253065e-19	-7.29964983e-01	3.64982492e-01	3.28634572e-01	4.79921074e-02	4.12974599e-01	-3.16990384e-01	4.79921074e-02	-4.79921074e-02	-3.63479199e-02	-6.93617064e-01
90              	9.61022246e-02	5.08192275e-19	-7.31146633e-01	3.65573317e-01	3.29390358e-01	4.80511123e-02	4.13624429e-01	-3.17522204e-01	4.80511123e-02	-4.80511123e-02	-3.61829592e-02	-6.94963674e-01
91              	9.62056647e-02	5.08127165e-19	-7.32210624e-01	3.66105312e-01	3.30091047e-01	4.81028323e-02	4.14208144e-01	-3.18002480e-01	4.81028323e-02	-4.81028323e-02	-3.60142649e-02	-6.96196359e-01
92              	9.63362827e-02	5.08061983e-19	-7.33314546e-01	3.66657273e-01	3.30824538e-01	4.81681414e-02	4.14825415e-01	-3.18489132e-01	4.81681414e-02	-4.81681414e-02	-3.58327350e-02	-6.97481811e-01
93              	9.64649635e-02	5.07996390e-19	-7.34205518e-01	3.67102759e-01	3.31485764e-01	4.82324817e-02	4.15335241e-01	-3.18870277e-01	4.82324817e-02	-4.82324817e-02	-3.56169954e-02	-6.98588523e-01
94              	9.66247415e-02	5.07934297e-19	-7.35232378e-01	3.67616189e-01	3.32220863e-01	4.83123707e-02	4.15928560e-01	-3.19303818e-01	4.83123707e-02	-4.83123707e-02	-3.53953265e-02	-6.99837052e-01
95              	9.67812896e-02	5.07876016e-19	-7.36331258e-01	3.68165629e-01	3.32962228e-01	4.83906448e-02	4.16556274e-01	-3.19774984e-01	4.83906448e-02	-4.83906448e-02	-3.52034004e-02	-7.01127857e-01
96              	9.69258305e-02	5.07820694e-19	-7.37540871e-01	3.68770436e-01	3.33717957e-01	4.84629152e-02	4.17233351e-01	-3.20307520e-01	4.84629152e-02	-4.84629152e-02	-3.50524789e-02	-7.02488392e-01
97              	9.70446048e-02	5.07768015e-19	-7.38789866e-01	3.69394933e-01	3.34442300e-01	4.85223024e-02	4.17917236e-01	-3.20872631e-01	4.85223024e-02	-4.85223024e-02	-3.49526330e-02	-7.03837233e-01
98              	9.71370720e-02	5.07715395e-19	-7.39953961e-01	3.69976980e-01	3.35093748e-01	4.85685360e-02	4.18545516e-01	-3.21408444e-01	4.85685360e-02	-4.85685360e-02	-3.48832323e-02	-7.05070729e-01
99              	9.72183882e-02	5.07661203e-19	-7.41220009e-01	3.70610005e-01	3.35774119e-01	4.86091941e-02	4.19219199e-01	-3.22000811e-01	4.86091941e-02	-4.86091941e-02	-3.48358859e-02	-7.06384124e-01
100             	9.72842590e-02	5.07606389e-19	-7.42368382e-01	3.71184191e-01	3.36414071e-01	4.86421295e-02	4.19826321e-01	-3.22542062e-01	4.86421295e-02	-4.86421295e-02	-3.47701204e-02	-7.07598262e-01
101             	9.73600501e-02	5.07550586e-19	-7.43583703e-01	3.71791852e-01	3.37107057e-01	4.86800250e-02	4.20471877e-01	-3.23111827e-01	4.86800250e-02	-4.86800250e-02	-3.46847945e-02	-7.08898909e-01
102             	9.74107013e-02	5.07495672e-19	-7.44478800e-01	3.72239400e-01	3.37668021e-01	4.87053507e-02	4.20944751e-01	-3.23534049e-01	4.87053507e-02	-4.87053507e-02	-3.45713786e-02	-7.09907421e-01
103             	9.74609414e-02	5.07443327e-19	-7.45311430e-01	3.72655715e-01	3.38220448e-01	4.87304707e-02	4.21386186e-01	-3.23925244e-01	4.87304707e-02	-4.87304707e-02	-3.44352673e-02	-7.10876163e-01
104             	9.74772810e-02	5.07393871e-19	-7.45748170e-01	3.72874085e-01	3.38598783e-01	4.87386405e-02	4.21612726e-01	-3.24135445e-01	4.87386405e-02	-4.87386405e-02	-3.42753018e-02	-7.11472868e-01
105             	9.74919629e-02	5.07346154e-19	-7.46013584e-01	3.73006792e-01	3.38908593e-01	4.87459815e-02	4.21752774e-01	-3.24260811e-01	4.87459815e-02	-4.87459815e-02	-3.40981991e-02	-7.11915385e-01
106             	9.75036962e-02	5.07301299e-19	-7.46161615e-01	3.73080807e-01	3.39167525e-01	4.87518481e-02	4.21832655e-01	-3.24328959e-01	4.87518481e-02	-4.87518481e-02	-3.39132823e-02	-7.12248332e-01
107             	9.75172459e-02	5.07255618e-19	-7.46323707e-01	3.73161853e-01	3.39428150e-01	4.87586230e-02	4.21920476e-01	-3.24403230e-01	4.87586230e-02	-4.87586230e-02	-3.37337034e-02	-7.12590003e-01
108             	9.75428205e-02	5.07208530e-19	-7.46633509e-01	3.73316754e-01	3.39750017e-01	4.87714102e-02	4.22088165e-01	-3.24545344e-01	4.87714102e-02	-4.87714102e-02	-3.35667370e-02	-7.13066772e-01
109             	9.75754608e-02	5.07163447e-19	-7.47129687e-01	3.73564843e-01	3.40138524e-01	4.87877304e-02	4.22352574e-01	-3.24777113e-01	4.87877304e-02	-4.87877304e-02	-3.34263192e-02	-7.13703367e-01
110             	9.76105379e-02	5.07118289e-19	-7.47839149e-01	3.73919575e-01	3.40591263e-01	4.88052690e-02	4.22724844e-01	-3.25114306e-01	4.88052690e-02	-4.88052690e-02	-3.33283115e-02	-7.14510838e-01
111             	9.76258622e-02	5.07075761e-19	-7.48551475e-01	3.74275737e-01	3.41007579e-01	4.88129311e-02	4.23088668e-01	-3.25462806e-01	4.88129311e-02	-4.88129311e-02	-3.32681581e-02	-7.15283317e-01
112             	9.76181821e-02	5.07034665e-19	-7.49199417e-01	3.74599708e-01	3.41366117e-01	4.88090910e-02	4.23408800e-01	-3.25790617e-01	4.88090910e-02	-4.88090910e-02	-3.32335917e-02	-7.15965825e-01
113             	9.75878215e-02	5.06993105e-19	-7.49703700e-01	3.74851850e-01	3.41645364e-01	4.87939108e-02	4.23645761e-01	-3.26057939e-01	4.87939108e-02	-4.87939108e-02	-3.32064854e-02	-7.16497214e-01
114             	9.75611783e-02	5.06951609e-19	-7.50219157e-01	3.75109578e-01	3.41938469e-01	4.87805892e-02	4.23890167e-01	-3.26328989e-01	4.87805892e-02	-4.87805892e-02	-3.31711094e-02	-7.17048047e-01
115             	9.75403138e-02	5.06912499e-19	-7.50774746e-01	3.75387373e-01	3.42267949e-01	4.87701569e-02	4.24157530e-01	-3.26617216e-01	4.87701569e-02	-4.87701569e-02	-3.31194245e-02	-7.17655322e-01
116             	9.75260037e-02	5.06873253e-19	-7.51217026e-01	3.75608513e-01	3.42573847e-01	4.87630018e-02	4.24371515e-01	-3.26845511e-01	4.87630018e-02	-4.87630018e-02	-3.30346658e-02	-7.18182360e-01
117             	9.74941988e-02	5.06835800e-19	-7.51278662e-01	3.75639331e-01	3.42730905e-01	4.87470994e-02	4.24386430e-01	-3.26892231e-01	4.87470994e-02	-4.87470994e-02	-3.29084259e-02	-7.18370236e-01
118             	9.74574174e-02	5.06800984e-19	-7.51165637e-01	3.75582819e-01	3.42819463e-01	4.87287087e-02	4.24311527e-01	-3.26854110e-01	4.87287087e-02	-4.87287087e-02	-3.27633552e-02	-7.18402282e-01
119             	9.74173945e-02	5.06768560e-19	-7.50948409e-01	3.75474204e-01	3.42871765e-01	4.87086972e-02	4.24182902e-01	-3.26765507e-01	4.87086972e-02	-4.87086972e-02	-3.26024393e-02	-7.18345970e-01
120             	9.73855973e-02	5.06734875e-19	-7.50726977e-01	3.75363488e-01	3.42930568e-01	4.86927986e-02	4.24056287e-01	-3.26670690e-01	4.86927986e-02	-4.86927986e-02	-3.24329202e-02	-7.18294057e-01
121             	9.73654992e-02	5.06701840e-19	-7.50590821e-01	3.75295410e-01	3.43028157e-01	4.86827496e-02	4.23978160e-01	-3.26612661e-01	4.86827496e-02	-4.86827496e-02	-3.22672530e-02	-7.18323568e-01
122             	9.73628725e-02	5.06667511e-19	-7.50748723e-01	3.75374362e-01	3.43231503e-01	4.86814362e-02	4.24055798e-01	-3.26692925e-01	4.86814362e-02	-4.86814362e-02	-3.21428590e-02	-7.18605864e-01
123             	9.73425420e-02	5.06634254e-19	-7.50929130e-01	3.75464565e-01	3.43408600e-01	4.86712710e-02	4.24135836e-01	-3.26793294e-01	4.86712710e-02	-4.86712710e-02	-3.20559654e-02	-7.18873165e-01
124             	9.73127292e-02	5.06603528e-19	-7.51187106e-01	3.75593553e-01	3.43588068e-01	4.86563646e-02	4.24249918e-01	-3.26937189e-01	4.86563646e-02	-4.86563646e-02	-3.20054850e-02	-7.19181621e-01
125             	9.72844136e-02	5.06573699e-19	-7.51588872e-01	3.75794436e-01	3.43811709e-01	4.86422068e-02	4.24436643e-01	-3.27152229e-01	4.86422068e-02	-4.86422068e-02	-3.19827277e-02	-7.19606145e-01
126             	9.72530403e-02	5.06545065e-19	-7.52037825e-01	3.76018912e-01	3.44046704e-01	4.86265201e-02	4.24645432e-01	-3.27392392e-01	4.86265201e-02	-4.86265201e-02	-3.19722082e-02	-7.20065616e-01
127             	9.72290256e-02	5.06518166e-19	-7.52522680e-01	3.76261340e-01	3.44306764e-01	4.86145128e-02	4.24875853e-01	-3.27646827e-01	4.86145128e-02	-4.86145128e-02	-3.19545760e-02	-7.20568104e-01
128             	9.72103484e-02	5.06494277e-19	-7.52915670e-01	3.76457835e-01	3.44541451e-01	4.86051742e-02	4.25063009e-01	-3.27852661e-01	4.86051742e-02	-4.86051742e-02	-3.19163838e-02	-7.20999286e-01
129             	9.71799403e-02	5.06468630e-19	-7.53070205e-01	3.76535103e-01	3.44687181e-01	4.85899701e-02	4.25125073e-01	-3.27945132e-01	4.85899701e-02	-4.85899701e-02	-3.18479214e-02	-7.21222284e-01
130             	9.71453060e-02	5.06442097e-19	-7.53021203e-01	3.76510601e-01	3.44756802e-01	4.85726530e-02	4.25083254e-01	-3.27937948e-01	4.85726530e-02	-4.85726530e-02	-3.17537997e-02	-7.21267403e-01
131             	9.71078773e-02	5.06414244e-19	-7.52820459e-01	3.76410229e-01	3.44780118e-01	4.85539387e-02	4.24964168e-01	-3.27856291e-01	4.85539387e-02	-4.85539387e-02	-3.16301118e-02	-7.21190347e-01
132             	9.70704136e-02	5.06385936e-19	-7.52533921e-01	3.76266960e-01	3.44767490e-01	4.85352068e-02	4.24802167e-01	-3.27731754e-01	4.85352068e-02	-4.85352068e-02	-3.14994707e-02	-7.21034450e-01
133             	9.70249821e-02	5.06361386e-19	-7.52194310e-01	3.76097155e-01	3.44722811e-01	4.85124910e-02	4.24609646e-01	-3.27584664e-01	4.85124910e-02	-4.85124910e-02	-3.13743444e-02	-7.20819966e-01
134             	9.69809895e-02	5.06338161e-19	-7.51960006e-01	3.75980003e-01	3.44715806e-01	4.84904948e-02	4.24470498e-01	-3.27489508e-01	4.84904948e-02	-4.84904948e-02	-3.12641966e-02	-7.20695809e-01
135             	9.69508421e-02	5.06315125e-19	-7.51938907e-01	3.75969453e-01	3.44783055e-01	4.84754211e-02	4.24444874e-01	-3.27494032e-01	4.84754211e-02	-4.84754211e-02	-3.11863988e-02	-7.20752508e-01
136             	9.69287137e-02	5.06296677e-19	-7.52123143e-01	3.76061571e-01	3.44918463e-01	4.84643568e-02	4.24525928e-01	-3.27597215e-01	4.84643568e-02	-4.84643568e-02	-3.11431088e-02	-7.20980034e-01
137             	9.69167844e-02	5.06278925e-19	-7.52553697e-01	3.76276848e-01	3.45139855e-01	4.84583922e-02	4.24735241e-01	-3.27818456e-01	4.84583922e-02	-4.84583922e-02	-3.11369937e-02	-7.21416703e-01
138             	9.69079631e-02	5.06259736e-19	-7.53030391e-01	3.76515195e-01	3.45371606e-01	4.84539816e-02	4.24969177e-01	-3.28061214e-01	4.84539816e-02	-4.84539816e-02	-3.11435897e-02	-7.21886801e-01
139             	9.69037805e-02	5.06241721e-19	-7.53568543e-01	3.76784272e-01	3.45625873e-01	4.84518902e-02	4.25236162e-01	-3.28332381e-01	4.84518902e-02	-4.84518902e-02	-3.11583985e-02	-7.22410145e-01
140             	9.68820263e-02	5.06220797e-19	-7.53763282e-01	3.76881641e-01	3.45738506e-01	4.84410132e-02	4.25322654e-01	-3.28440628e-01	4.84410132e-02	-4.84410132e-02	-3.11431354e-02	-7.22620147e-01
141             	9.68562000e-02	5.06203491e-19	-7.53804243e-01	3.76902122e-01	3.45799170e-01	4.84281000e-02	4.25330222e-01	-3.28474022e-01	4.84281000e-02	-4.84281000e-02	-3.11029513e-02	-7.22701292e-01
142             	9.68252873e-02	5.06183165e-19	-7.53741303e-01	3.76870652e-01	3.45821181e-01	4.84126436e-02	4.25283295e-01	-3.28458008e-01	4.84126436e-02	-4.84126436e-02	-3.10494705e-02	-7.22691833e-01
143             	9.67860992e-02	5.06161988e-19	-7.53591722e-01	3.76795861e-01	3.45808039e-01	4.83930496e-02	4.25188911e-01	-3.28402811e-01	4.83930496e-02	-4.83930496e-02	-3.09878216e-02	-7.22603900e-01
144             	9.67377184e-02	5.06143795e-19	-7.53402503e-01	3.76701251e-01	3.45771110e-01	4.83688592e-02	4.25070111e-01	-3.28332392e-01	4.83688592e-02	-4.83688592e-02	-3.09301411e-02	-7.22472362e-01