# y+ ()         
# Time          	patch           	min             	max             	average         
100             	Ground	6.98446755e-02	3.46698076e+00	1.19617922e+00
100             	Airfoil	4.68463367e-01	4.33114550e+00	2.26229018e+00
200             	Ground	1.49746708e-01	3.85755905e+00	1.39495232e+00
200             	Airfoil	3.70337720e-01	4.90346154e+00	2.18169865e+00
300             	Ground	1.67712191e-01	3.34789180e+00	1.46034110e+00
300             	Airfoil	2.47183669e-01	4.55617472e+00	2.08544422e+00
400             	Ground	2.59051999e-01	2.92826830e+00	1.52117644e+00
400             	Airfoil	2.72904658e-01	5.02787333e+00	2.04998538e+00
500             	Ground	4.59940254e-02	3.05819827e+00	1.58098241e+00
500             	Airfoil	2.93537383e-01	4.85529986e+00	2.04430150e+00
600             	Ground	7.85205490e-02	3.14702791e+00	1.61377204e+00
600             	Airfoil	2.93745579e-01	4.82393896e+00	2.06240637e+00
700             	Ground	1.32108568e-01	2.99695412e+00	1.62235202e+00
700             	Airfoil	1.62316751e-01	4.78945399e+00	2.08559427e+00
800             	Ground	2.77857002e-01	2.85311734e+00	1.59872424e+00
800             	Airfoil	2.83360605e-01	4.83500085e+00	2.13151152e+00
900             	Ground	1.55995590e-01	2.99122123e+00	1.57795379e+00
900             	Airfoil	2.88566385e-01	4.92744612e+00	2.14720289e+00
1000            	Ground	2.77826070e-01	2.66051530e+00	1.54110418e+00
1000            	Airfoil	2.74657921e-01	4.99545926e+00	2.15223479e+00
1100            	Ground	2.62179837e-01	2.16802822e+00	1.51996039e+00
1100            	Airfoil	2.87256452e-01	5.04541065e+00	2.17002807e+00
1200            	Ground	1.64996433e-01	2.29723849e+00	1.50222679e+00
1200            	Airfoil	2.90535765e-01	5.08547929e+00	2.18514229e+00
1300            	Ground	7.03771393e-02	2.14518240e+00	1.48838517e+00
1300            	Airfoil	2.87758188e-01	5.11763829e+00	2.19233388e+00
1400            	Ground	1.59515672e-01	1.94415898e+00	1.47586637e+00
1400            	Airfoil	2.84927212e-01	5.14157115e+00	2.19850975e+00
1500            	Ground	2.05425556e-01	2.01776578e+00	1.46756992e+00
1500            	Airfoil	2.89557802e-01	5.15934024e+00	2.20302209e+00
1600            	Ground	2.34465268e-01	1.94408524e+00	1.46147201e+00
1600            	Airfoil	2.92358295e-01	5.17348137e+00	2.20618501e+00
1700            	Ground	2.55395476e-01	1.89659237e+00	1.45944941e+00
1700            	Airfoil	2.92001011e-01	5.18474167e+00	2.20937302e+00
1800            	Ground	2.81838307e-01	1.93180206e+00	1.45936685e+00
1800            	Airfoil	2.89691605e-01	5.19439532e+00	2.21170750e+00
1900            	Ground	3.06445236e-01	1.90962065e+00	1.46134593e+00
1900            	Airfoil	2.47160456e-01	5.20333294e+00	2.21461418e+00
2000            	Ground	3.12210984e-01	1.90754483e+00	1.46428646e+00
2000            	Airfoil	1.88691469e-01	5.21183425e+00	2.21774464e+00
2100            	Ground	2.89760801e-01	1.93702175e+00	1.46753628e+00
2100            	Airfoil	1.52369272e-01	5.22040864e+00	2.21995357e+00
2200            	Ground	2.67127869e-01	1.93039543e+00	1.47008514e+00
2200            	Airfoil	2.00477702e-01	5.22888665e+00	2.22244229e+00
2300            	Ground	2.42992498e-01	1.92667413e+00	1.47167360e+00
2300            	Airfoil	2.56067223e-01	5.23710251e+00	2.22512908e+00
2400            	Ground	2.15947364e-01	1.94942737e+00	1.47311281e+00
2400            	Airfoil	2.87844944e-01	5.24535594e+00	2.22724159e+00
2500            	Ground	1.86147626e-01	1.95107960e+00	1.47404013e+00
2500            	Airfoil	2.87189929e-01	5.25361980e+00	2.22952465e+00
2600            	Ground	1.51345412e-01	1.94926152e+00	1.47502867e+00
2600            	Airfoil	2.86995641e-01	5.26184434e+00	2.23192594e+00
2700            	Ground	1.07350589e-01	1.96268088e+00	1.47611888e+00
2700            	Airfoil	2.86943268e-01	5.26988924e+00	2.23389578e+00
2800            	Ground	4.73448171e-02	1.96624142e+00	1.47728630e+00
2800            	Airfoil	2.87086490e-01	5.27753512e+00	2.23597483e+00
2900            	Ground	9.77603998e-02	1.96519383e+00	1.47879662e+00
2900            	Airfoil	2.87434894e-01	5.28486738e+00	2.23813634e+00
3000            	Ground	1.38406071e-01	1.97336491e+00	1.47994446e+00
3000            	Airfoil	2.87767231e-01	5.29210356e+00	2.23994819e+00
3100            	Ground	1.67036845e-01	1.97432053e+00	1.48074616e+00
3100            	Airfoil	2.88077765e-01	5.29916361e+00	2.24183678e+00
3200            	Ground	1.89823522e-01	1.97288212e+00	1.48161327e+00
3200            	Airfoil	2.88490982e-01	5.30593930e+00	2.24376667e+00
3300            	Ground	2.11130489e-01	1.97806022e+00	1.48237304e+00
3300            	Airfoil	2.88759015e-01	5.31252579e+00	2.24540220e+00
3400            	Ground	2.34653660e-01	1.97823336e+00	1.48323232e+00
3400            	Airfoil	2.89050544e-01	5.31880266e+00	2.24706462e+00
3500            	Ground	2.55154754e-01	1.97621225e+00	1.48427246e+00
3500            	Airfoil	2.89567169e-01	5.32476609e+00	2.24872815e+00
3600            	Ground	2.73566124e-01	1.97961283e+00	1.48517263e+00
3600            	Airfoil	2.90015106e-01	5.33049643e+00	2.25014968e+00
3700            	Ground	2.89922693e-01	1.97933711e+00	1.48583924e+00
3700            	Airfoil	2.90206956e-01	5.33596643e+00	2.25157428e+00
3800            	Ground	3.04611007e-01	1.97760819e+00	1.48639102e+00
3800            	Airfoil	2.90364626e-01	5.34112861e+00	2.25299884e+00
3900            	Ground	3.18094039e-01	1.97976832e+00	1.48708780e+00
3900            	Airfoil	2.90603646e-01	5.34605571e+00	2.25422691e+00
4000            	Ground	3.30329144e-01	1.97942808e+00	1.48794480e+00
4000            	Airfoil	2.90925404e-01	5.35074244e+00	2.25544474e+00
4100            	Ground	3.22232079e-01	1.97818853e+00	1.48855616e+00
4100            	Airfoil	2.91311708e-01	5.35515516e+00	2.25665153e+00
4200            	Ground	3.12582845e-01	1.97960980e+00	1.48917997e+00
4200            	Airfoil	2.91384545e-01	5.35936316e+00	2.25769083e+00
4300            	Ground	3.03186651e-01	1.97927879e+00	1.48945948e+00
4300            	Airfoil	2.91510086e-01	5.36334783e+00	2.25872937e+00
4400            	Ground	2.94075870e-01	1.97857632e+00	1.49000977e+00
4400            	Airfoil	2.91877656e-01	5.36711879e+00	2.25973818e+00
4500            	Ground	2.85216660e-01	1.97939735e+00	1.49084989e+00
4500            	Airfoil	2.92200883e-01	5.37069378e+00	2.26064856e+00
4600            	Ground	2.76630550e-01	1.97922919e+00	1.49141278e+00
4600            	Airfoil	2.92472302e-01	5.37408264e+00	2.26150126e+00
4700            	Ground	2.68218589e-01	1.97859275e+00	1.49190891e+00
4700            	Airfoil	2.92489180e-01	5.37728019e+00	2.26234289e+00
4800            	Ground	2.59983045e-01	1.97928307e+00	1.49234819e+00
4800            	Airfoil	2.92825682e-01	5.38032450e+00	2.26311581e+00
4900            	Ground	2.52098885e-01	1.97905895e+00	1.49289554e+00
4900            	Airfoil	2.93059161e-01	5.38320914e+00	2.26384943e+00
5000            	Ground	2.44308781e-01	1.97880521e+00	1.49340582e+00
5000            	Airfoil	2.93226312e-01	5.38592069e+00	2.26455799e+00
5100            	Ground	2.36751883e-01	1.97910137e+00	1.49362391e+00
5100            	Airfoil	2.93227755e-01	5.38850884e+00	2.26521045e+00
5200            	Ground	2.29420374e-01	1.97903007e+00	1.49403806e+00
5200            	Airfoil	2.93422332e-01	5.39096981e+00	2.26581863e+00
5300            	Ground	2.22308220e-01	1.97887509e+00	1.49456174e+00
5300            	Airfoil	2.93631120e-01	5.39325955e+00	2.26642034e+00
5400            	Ground	2.15382500e-01	1.97904277e+00	1.49502217e+00
5400            	Airfoil	2.93758480e-01	5.39544732e+00	2.26697409e+00
5500            	Ground	2.08599136e-01	1.97896442e+00	1.49532058e+00
5500            	Airfoil	2.93968232e-01	5.39751974e+00	2.26748705e+00
5600            	Ground	2.02051884e-01	1.97894339e+00	1.49566605e+00
5600            	Airfoil	2.94019136e-01	5.39947602e+00	2.26799607e+00
5700            	Ground	1.95628611e-01	1.97895537e+00	1.49608804e+00
5700            	Airfoil	2.94273500e-01	5.40132746e+00	2.26846961e+00
5800            	Ground	1.89468546e-01	1.97893049e+00	1.49644215e+00
5800            	Airfoil	2.94238540e-01	5.40307889e+00	2.26890508e+00
5900            	Ground	1.83389276e-01	1.97887814e+00	1.49663168e+00
5900            	Airfoil	2.94237733e-01	5.40473639e+00	2.26930112e+00
6000            	Ground	1.77512667e-01	1.97879841e+00	1.49685472e+00
6000            	Airfoil	2.94419530e-01	5.40630317e+00	2.26968227e+00
6100            	Ground	1.71962619e-01	1.97883764e+00	1.49727493e+00
6100            	Airfoil	2.94613740e-01	5.40777792e+00	2.27007513e+00
6200            	Ground	1.66387804e-01	1.97873423e+00	1.49759863e+00
6200            	Airfoil	2.94617041e-01	5.40916196e+00	2.27039377e+00
6300            	Ground	1.61015071e-01	1.97873407e+00	1.49782039e+00
6300            	Airfoil	2.94819816e-01	5.41047908e+00	2.27074168e+00
6400            	Ground	1.55847521e-01	1.97869389e+00	1.49813575e+00
6400            	Airfoil	2.94889675e-01	5.41171019e+00	2.27104433e+00
6500            	Ground	1.50709479e-01	1.97865809e+00	1.49839995e+00
6500            	Airfoil	2.94933576e-01	5.41288237e+00	2.27131351e+00
6600            	Ground	1.45716941e-01	1.97863471e+00	1.49846130e+00
6600            	Airfoil	2.94962649e-01	5.41398446e+00	2.27159230e+00
6700            	Ground	1.40890801e-01	1.97864562e+00	1.49853355e+00
6700            	Airfoil	2.94959550e-01	5.41502733e+00	2.27186447e+00
6800            	Ground	1.36364081e-01	1.97860662e+00	1.49890063e+00
6800            	Airfoil	2.94886135e-01	5.41600747e+00	2.27211092e+00
6900            	Ground	1.31840529e-01	1.97858467e+00	1.49927548e+00
6900            	Airfoil	2.95196510e-01	5.41692388e+00	2.27233363e+00
7000            	Ground	1.27468160e-01	1.97850050e+00	1.49949307e+00
7000            	Airfoil	2.95251618e-01	5.41779307e+00	2.27253925e+00
7100            	Ground	1.23202633e-01	1.97848236e+00	1.49967987e+00
7100            	Airfoil	2.95292098e-01	5.41860509e+00	2.27273688e+00
7200            	Ground	1.19108016e-01	1.97847301e+00	1.49989083e+00
7200            	Airfoil	2.95361482e-01	5.41936695e+00	2.27291291e+00
7300            	Ground	1.15053502e-01	1.97846465e+00	1.50004657e+00
7300            	Airfoil	2.95461032e-01	5.42009367e+00	2.27307363e+00
7400            	Ground	1.10962913e-01	1.97838482e+00	1.49991515e+00
7400            	Airfoil	2.95151703e-01	5.42077503e+00	2.27322621e+00
7500            	Ground	1.07421840e-01	1.97840078e+00	1.50028250e+00
7500            	Airfoil	2.95202611e-01	5.42140661e+00	2.27338005e+00
7600            	Ground	1.03790802e-01	1.97842215e+00	1.50058525e+00
7600            	Airfoil	2.95518065e-01	5.42200553e+00	2.27354076e+00
7700            	Ground	1.00255960e-01	1.97827562e+00	1.50070930e+00
7700            	Airfoil	2.95554897e-01	5.42256367e+00	2.27365930e+00
7800            	Ground	9.67827541e-02	1.97835163e+00	1.50082909e+00
7800            	Airfoil	2.95524725e-01	5.42309024e+00	2.27376375e+00
8000            	Ground	9.03363635e-02	1.97823620e+00	1.50108724e+00
8000            	Airfoil	2.95516793e-01	5.42404353e+00	2.27399804e+00
9000            	Ground	6.49041344e-02	1.97802212e+00	1.50237773e+00
9000            	Airfoil	2.95600804e-01	5.42723627e+00	2.27468469e+00
10000           	Ground	5.17975693e-02	1.97788410e+00	1.50316924e+00
10000           	Airfoil	2.87502913e-01	5.42867078e+00	2.27493371e+00
