/*--------------------------------*- C++ -*----------------------------------*\
| =========                 |                                                 |
| \\      /  F ield         | OpenFOAM: The Open Source CFD Toolbox           |
|  \\    /   O peration     | Version:  v2006                                 |
|   \\  /    A nd           | Website:  www.openfoam.com                      |
|    \\/     M anipulation  |                                                 |
\*---------------------------------------------------------------------------*/
FoamFile
{
    version     2.0;
    format      ascii;
    class       volScalarField;
    location    "1500";
    object      alphat;
}
// * * * * * * * * * * * * * * * * * * * * * * * * * * * * * * * * * * * * * //

dimensions      [1 -1 -1 0 0 0 0];


internalField   nonuniform List<scalar> 
19765
(
9.7947858e-06
9.7903447e-06
9.5011682e-06
9.5558439e-06
9.554878e-06
9.7103904e-06
9.6283784e-06
9.8024607e-06
9.772864e-06
9.5833881e-06
9.6874851e-06
1.0067335e-05
1.028928e-05
1.0481119e-05
1.0885023e-05
1.1055842e-05
1.1007485e-05
1.1162689e-05
1.1579711e-05
1.1944159e-05
1.2189267e-05
1.2311735e-05
1.2529582e-05
1.2664658e-05
1.2753668e-05
1.2807057e-05
1.2833126e-05
1.2770511e-05
1.2788422e-05
1.2670233e-05
1.2440172e-05
1.2146472e-05
1.2177316e-05
1.2320529e-05
1.2176536e-05
1.1838376e-05
1.1821817e-05
1.175599e-05
1.1478713e-05
1.1567111e-05
1.1935685e-05
1.2084009e-05
1.2044473e-05
1.2350827e-05
1.2245289e-05
1.2478086e-05
1.2488717e-05
1.2464903e-05
1.2340794e-05
5.4405344e-05
5.7034355e-05
5.9265588e-05
6.1046582e-05
6.3204996e-05
6.541395e-05
6.7640855e-05
6.9863524e-05
7.2158045e-05
7.41683e-05
7.6535413e-05
7.9112375e-05
8.1331862e-05
8.3314078e-05
8.5349601e-05
8.6599534e-05
8.6916256e-05
8.7525095e-05
8.8768563e-05
9.025841e-05
9.1673232e-05
9.2617312e-05
9.342304e-05
9.4460714e-05
9.5473894e-05
9.5963088e-05
9.6171798e-05
9.6463814e-05
9.6675717e-05
9.6688602e-05
9.6587076e-05
9.6418023e-05
9.6398428e-05
9.6225118e-05
9.5557071e-05
9.4599702e-05
9.375331e-05
9.2614212e-05
9.119229e-05
9.0141202e-05
8.9217322e-05
8.7179355e-05
8.5010488e-05
8.1389822e-05
7.8791525e-05
7.2684192e-05
6.5874754e-05
5.9078613e-05
5.4002032e-05
1.6094538e-05
1.5421095e-05
1.4939457e-05
1.5178895e-05
1.5295131e-05
1.5406301e-05
1.5336171e-05
1.5494782e-05
1.5390995e-05
1.5532854e-05
1.5769626e-05
1.580207e-05
1.5629593e-05
1.5457782e-05
1.5165639e-05
1.4718211e-05
1.4363293e-05
1.4126876e-05
1.3944016e-05
1.3791155e-05
1.3727533e-05
1.3775567e-05
1.379426e-05
1.3847788e-05
1.4138326e-05
1.4680026e-05
1.5179558e-05
1.5688362e-05
1.6420329e-05
1.7204236e-05
1.7964246e-05
1.8669446e-05
1.9301202e-05
2.0288434e-05
2.1520625e-05
2.2547322e-05
2.3346302e-05
2.43984e-05
2.5206277e-05
2.5619766e-05
2.6327133e-05
2.7559546e-05
2.8190671e-05
2.9355575e-05
3.0130708e-05
3.2307206e-05
3.514498e-05
3.8494075e-05
4.0817611e-05
6.3042686e-07
5.6376386e-07
5.2507176e-07
5.1927734e-07
5.1145378e-07
5.0437189e-07
4.9255024e-07
4.8833775e-07
4.7699792e-07
4.7180482e-07
4.6892905e-07
4.6070054e-07
4.4750916e-07
4.3548834e-07
4.2223571e-07
4.0684069e-07
3.9526613e-07
3.8772439e-07
3.8134584e-07
3.7510809e-07
3.7229039e-07
3.743315e-07
3.7515314e-07
3.7705993e-07
3.8510054e-07
4.002863e-07
4.161908e-07
4.340151e-07
4.5899811e-07
4.8772004e-07
5.1869985e-07
5.5101883e-07
5.8433739e-07
6.3156731e-07
6.9169707e-07
7.5177691e-07
8.1106297e-07
8.8601298e-07
9.5738145e-07
1.0193057e-06
1.10305e-06
1.2223865e-06
1.3284812e-06
1.4931719e-06
1.653457e-06
1.8844724e-06
2.1656505e-06
2.523291e-06
2.9462313e-06
1.6350164e-07
1.6298457e-07
1.6325847e-07
1.6517841e-07
1.6687076e-07
1.684816e-07
1.6955297e-07
1.7113326e-07
1.7195434e-07
1.7326487e-07
1.7487537e-07
1.7599158e-07
1.7659985e-07
1.7731955e-07
1.7780777e-07
1.7788726e-07
1.7829807e-07
1.7914482e-07
1.7987636e-07
1.8048864e-07
1.8145726e-07
1.8279551e-07
1.8403518e-07
1.8546715e-07
1.8756238e-07
1.9052774e-07
1.9361346e-07
1.9683793e-07
2.0075943e-07
2.0492506e-07
2.0910222e-07
2.1316785e-07
2.1697011e-07
2.2170387e-07
2.2709847e-07
2.3187494e-07
2.3596438e-07
2.4065552e-07
2.4451147e-07
2.4726654e-07
2.5094578e-07
2.5577303e-07
2.5923513e-07
2.6463135e-07
2.6910886e-07
2.7515796e-07
2.8107397e-07
2.8553481e-07
2.8978779e-07
1.4138289e-07
1.4153269e-07
1.4202378e-07
1.431906e-07
1.4409732e-07
1.4500889e-07
1.4571326e-07
1.4662412e-07
1.4719407e-07
1.4806728e-07
1.4890756e-07
1.4947006e-07
1.4986692e-07
1.5030979e-07
1.5062677e-07
1.508704e-07
1.5135169e-07
1.5201542e-07
1.5262747e-07
1.5323635e-07
1.5397905e-07
1.5482967e-07
1.558577e-07
1.5708775e-07
1.5864209e-07
1.6067945e-07
1.6288333e-07
1.6517177e-07
1.6781323e-07
1.7067406e-07
1.736202e-07
1.7660833e-07
1.7944365e-07
1.8257535e-07
1.8610057e-07
1.8959178e-07
1.92689e-07
1.9593583e-07
1.9902146e-07
2.0152528e-07
2.0396169e-07
2.0717376e-07
2.0974298e-07
2.1314701e-07
2.1626765e-07
2.2002533e-07
2.2408998e-07
2.2848635e-07
2.3237086e-07
1.242898e-07
1.2422771e-07
1.2436418e-07
1.2490232e-07
1.2531381e-07
1.2574137e-07
1.2607135e-07
1.2653419e-07
1.2682483e-07
1.2729886e-07
1.2777846e-07
1.2811415e-07
1.2836582e-07
1.2865371e-07
1.2887895e-07
1.2906674e-07
1.2940371e-07
1.2987023e-07
1.3033091e-07
1.3081007e-07
1.3137143e-07
1.3199882e-07
1.327304e-07
1.3360939e-07
1.347047e-07
1.3609315e-07
1.375863e-07
1.3915789e-07
1.4096545e-07
1.429218e-07
1.4495207e-07
1.4702438e-07
1.4903402e-07
1.5124436e-07
1.5369899e-07
1.5613724e-07
1.5836598e-07
1.6069447e-07
1.6293417e-07
1.6484551e-07
1.6674499e-07
1.6906694e-07
1.7102932e-07
1.7343361e-07
1.7566017e-07
1.7819603e-07
1.8083787e-07
1.8360487e-07
1.861038e-07
1.1529721e-07
1.1525137e-07
1.1532472e-07
1.1564135e-07
1.1588051e-07
1.161285e-07
1.1631814e-07
1.165847e-07
1.1675222e-07
1.1702782e-07
1.1730791e-07
1.1751041e-07
1.1767189e-07
1.178611e-07
1.1802396e-07
1.1817831e-07
1.1842958e-07
1.1876583e-07
1.191138e-07
1.19492e-07
1.1993556e-07
1.2043263e-07
1.2102217e-07
1.2172398e-07
1.2257088e-07
1.2361022e-07
1.2473443e-07
1.259293e-07
1.2728964e-07
1.2876462e-07
1.3030871e-07
1.3190187e-07
1.3347866e-07
1.3519639e-07
1.3708588e-07
1.3899016e-07
1.4078406e-07
1.4265273e-07
1.444847e-07
1.4612592e-07
1.4776211e-07
1.4968132e-07
1.5139366e-07
1.534081e-07
1.5534329e-07
1.5751539e-07
1.598108e-07
1.6225436e-07
1.6457768e-07
1.0888406e-07
1.0882161e-07
1.0883512e-07
1.0900547e-07
1.0913117e-07
1.0926597e-07
1.0936844e-07
1.0952171e-07
1.0961811e-07
1.0978449e-07
1.0995762e-07
1.1008837e-07
1.1019973e-07
1.1033335e-07
1.1045701e-07
1.105828e-07
1.107753e-07
1.1102754e-07
1.11296e-07
1.1159276e-07
1.1193723e-07
1.1232023e-07
1.1276694e-07
1.1329726e-07
1.1393228e-07
1.1469875e-07
1.1553027e-07
1.1642029e-07
1.1742825e-07
1.1852215e-07
1.1967437e-07
1.2087183e-07
1.2207376e-07
1.233775e-07
1.2480092e-07
1.262437e-07
1.2762744e-07
1.2906659e-07
1.304892e-07
1.3179566e-07
1.3310441e-07
1.3459114e-07
1.3594705e-07
1.3748916e-07
1.3897493e-07
1.4060045e-07
1.422891e-07
1.4405151e-07
1.4571308e-07
1.0467908e-07
1.046321e-07
1.0463244e-07
1.0473478e-07
1.0480784e-07
1.0488711e-07
1.0494637e-07
1.0503885e-07
1.0509687e-07
1.0520119e-07
1.0531173e-07
1.0539868e-07
1.0547727e-07
1.055737e-07
1.0566841e-07
1.0577015e-07
1.0591956e-07
1.0611234e-07
1.0632222e-07
1.0655772e-07
1.068316e-07
1.071382e-07
1.0749318e-07
1.0791107e-07
1.0840668e-07
1.0899631e-07
1.0963787e-07
1.1032829e-07
1.1110718e-07
1.1195441e-07
1.1285226e-07
1.1379203e-07
1.1474664e-07
1.1577961e-07
1.1690374e-07
1.1805301e-07
1.1917369e-07
1.2034046e-07
1.2150589e-07
1.2260096e-07
1.237019e-07
1.2493099e-07
1.2607855e-07
1.2736075e-07
1.2861472e-07
1.2997671e-07
1.3139826e-07
1.328947e-07
1.3433348e-07
1.0168256e-07
1.0164532e-07
1.016392e-07
1.0170223e-07
1.0174631e-07
1.0179527e-07
1.0183199e-07
1.0189156e-07
1.0192996e-07
1.0200032e-07
1.0207648e-07
1.0213959e-07
1.0220001e-07
1.022748e-07
1.0235159e-07
1.0243668e-07
1.025566e-07
1.0270865e-07
1.0287631e-07
1.0306541e-07
1.0328438e-07
1.0352968e-07
1.0381095e-07
1.0413914e-07
1.04526e-07
1.0498166e-07
1.0547832e-07
1.060149e-07
1.066184e-07
1.0727569e-07
1.0797509e-07
1.0871067e-07
1.0946433e-07
1.1027846e-07
1.1116174e-07
1.120693e-07
1.1296446e-07
1.1389659e-07
1.1483294e-07
1.1572509e-07
1.1662429e-07
1.1761163e-07
1.1854452e-07
1.1956773e-07
1.205702e-07
1.2164294e-07
1.227518e-07
1.2390592e-07
1.2501061e-07
9.9536713e-08
9.9512412e-08
9.9508129e-08
9.9551146e-08
9.9581181e-08
9.9614823e-08
9.9640671e-08
9.9682485e-08
9.9711048e-08
9.9762186e-08
9.9818417e-08
9.9867648e-08
9.9917119e-08
9.9978215e-08
1.0004294e-07
1.0011595e-07
1.0021492e-07
1.0033808e-07
1.0047487e-07
1.0062937e-07
1.0080735e-07
1.0100693e-07
1.0123405e-07
1.0149639e-07
1.0180357e-07
1.021622e-07
1.0255343e-07
1.0297733e-07
1.0345305e-07
1.0397173e-07
1.0452538e-07
1.0511016e-07
1.0571396e-07
1.0636626e-07
1.0707356e-07
1.0780472e-07
1.0853348e-07
1.0929358e-07
1.1006198e-07
1.1080352e-07
1.1155289e-07
1.1236816e-07
1.1314779e-07
1.1399448e-07
1.1482969e-07
1.1571884e-07
1.1663846e-07
1.1759825e-07
1.1852361e-07
9.7958033e-08
9.7943883e-08
9.794297e-08
9.7975252e-08
9.7998645e-08
9.8024873e-08
9.8046206e-08
9.8079051e-08
9.8103617e-08
9.8144575e-08
9.8190018e-08
9.8232012e-08
9.8275689e-08
9.8328796e-08
9.8386042e-08
9.8450842e-08
9.8535205e-08
9.8637953e-08
9.8752128e-08
9.8880596e-08
9.9027345e-08
9.919142e-08
9.9376518e-08
9.9587988e-08
9.9833767e-08
1.0011824e-07
1.0042843e-07
1.0076518e-07
1.0114207e-07
1.0155268e-07
1.0199161e-07
1.0245689e-07
1.0294069e-07
1.0346383e-07
1.0403088e-07
1.0461956e-07
1.0521082e-07
1.0582785e-07
1.0645402e-07
1.0706348e-07
1.0768029e-07
1.0834513e-07
1.0898534e-07
1.0967311e-07
1.1035222e-07
1.1106854e-07
1.1180484e-07
1.1256798e-07
1.1330121e-07
9.6778609e-08
9.6773808e-08
9.6777612e-08
9.6804952e-08
9.6826083e-08
9.6849486e-08
9.6869858e-08
9.6898722e-08
9.6922494e-08
9.6958432e-08
9.6998312e-08
9.7036873e-08
9.707779e-08
9.7126397e-08
9.7179126e-08
9.7238478e-08
9.7312695e-08
9.7400945e-08
9.749856e-08
9.7607538e-08
9.7730654e-08
9.7867451e-08
9.802024e-08
9.8192767e-08
9.8391496e-08
9.8619404e-08
9.8867462e-08
9.9137116e-08
9.9437642e-08
9.9764156e-08
1.0011382e-07
1.0048649e-07
1.0087703e-07
1.0129997e-07
1.0175831e-07
1.022358e-07
1.0271834e-07
1.0322234e-07
1.0373577e-07
1.0423937e-07
1.0475001e-07
1.0529746e-07
1.0582831e-07
1.0639508e-07
1.0695661e-07
1.0754649e-07
1.0815214e-07
1.0877987e-07
1.0938383e-07
9.5885556e-08
9.5888334e-08
9.5896771e-08
9.5922211e-08
9.594336e-08
9.596644e-08
9.5987776e-08
9.6015577e-08
9.6040405e-08
9.6074485e-08
9.6112078e-08
9.6149649e-08
9.6189836e-08
9.6236335e-08
9.6286686e-08
9.6342688e-08
9.6410025e-08
9.6488064e-08
9.6573592e-08
9.6667969e-08
9.6773106e-08
9.6888775e-08
9.7016402e-08
9.7158607e-08
9.7320616e-08
9.7504464e-08
9.7703877e-08
9.7920689e-08
9.8160309e-08
9.8419653e-08
9.8698795e-08
9.8998551e-08
9.9314666e-08
9.9656741e-08
1.0002665e-07
1.0041261e-07
1.0080439e-07
1.0121388e-07
1.0163233e-07
1.020453e-07
1.0246477e-07
1.0291228e-07
1.0334831e-07
1.0381092e-07
1.0426959e-07
1.0474862e-07
1.0523838e-07
1.0574371e-07
1.0622822e-07
9.5200873e-08
9.5210213e-08
9.5223233e-08
9.5248684e-08
9.527122e-08
9.5295471e-08
9.5318885e-08
9.5347376e-08
9.5374337e-08
9.5408504e-08
9.544585e-08
9.5483975e-08
9.5524768e-08
9.5570785e-08
9.5620285e-08
9.5674526e-08
9.5737399e-08
9.5808386e-08
9.5885206e-08
9.596873e-08
9.6060237e-08
9.6159583e-08
9.6267605e-08
9.6386131e-08
9.6519339e-08
9.6668636e-08
9.6829713e-08
9.7004532e-08
9.719478e-08
9.7400838e-08
9.7625237e-08
9.7867682e-08
9.8123473e-08
9.8399094e-08
9.8696336e-08
9.9007083e-08
9.9324082e-08
9.965615e-08
9.9996855e-08
1.0033521e-07
1.0067974e-07
1.0104631e-07
1.0140523e-07
1.0178457e-07
1.0216144e-07
1.0255378e-07
1.0295424e-07
1.0336703e-07
1.0376227e-07
9.4671541e-08
9.468637e-08
9.4703618e-08
9.4730126e-08
9.4754755e-08
9.4781e-08
9.4807082e-08
9.4837308e-08
9.4867022e-08
9.4902504e-08
9.4940919e-08
9.4980626e-08
9.5022953e-08
9.5069645e-08
9.5119433e-08
9.5173142e-08
9.5233385e-08
9.5299694e-08
9.5370388e-08
9.5445951e-08
9.5527182e-08
9.5613935e-08
9.5706636e-08
9.5806546e-08
9.5916963e-08
9.6038867e-08
9.6169383e-08
9.6310211e-08
9.645966e-08
9.6624368e-08
9.6806256e-08
9.7001609e-08
9.7206107e-08
9.7425467e-08
9.7662059e-08
9.791045e-08
9.8165403e-08
9.8433352e-08
9.8709415e-08
9.8985128e-08
9.9266509e-08
9.9565195e-08
9.9858758e-08
1.0016786e-07
1.0047518e-07
1.0079388e-07
1.011182e-07
1.014515e-07
1.0176945e-07
9.4258918e-08
9.4278529e-08
9.4299751e-08
9.4327992e-08
9.4355155e-08
9.4383907e-08
9.4413018e-08
9.4445645e-08
9.4478507e-08
9.4516122e-08
9.4556497e-08
9.4598501e-08
9.4643039e-08
9.4691264e-08
9.4742218e-08
9.4796372e-08
9.4855408e-08
9.4918866e-08
9.4985445e-08
9.5055317e-08
9.51289e-08
9.5205999e-08
9.5286741e-08
9.5371986e-08
9.5464278e-08
9.556431e-08
9.5670254e-08
9.5783104e-08
9.589892e-08
9.6033016e-08
9.6180344e-08
9.6334459e-08
9.6494713e-08
9.6667122e-08
9.6854051e-08
9.7051568e-08
9.7255655e-08
9.7470911e-08
9.7693587e-08
9.7917147e-08
9.8145856e-08
9.8388347e-08
9.8627577e-08
9.8878911e-08
9.9129172e-08
9.9388127e-08
9.9651247e-08
9.9921386e-08
1.0017838e-07
9.3935749e-08
9.3959529e-08
9.3984444e-08
9.4014808e-08
9.404474e-08
9.4076297e-08
9.4108641e-08
9.4144098e-08
9.4180359e-08
9.4220666e-08
9.4263627e-08
9.4308453e-08
9.435572e-08
9.4406145e-08
9.4458964e-08
9.451436e-08
9.4573317e-08
9.4635358e-08
9.4699414e-08
9.4765397e-08
9.4833417e-08
9.4903194e-08
9.4974631e-08
9.5048305e-08
9.5126112e-08
9.5208551e-08
9.5294527e-08
9.5383989e-08
9.5473434e-08
9.5584551e-08
9.5700208e-08
9.5817545e-08
9.5941229e-08
9.607551e-08
9.6222001e-08
9.6377694e-08
9.6539461e-08
9.671061e-08
9.6888315e-08
9.706758e-08
9.725147e-08
9.7446405e-08
9.7639397e-08
9.7841885e-08
9.8043766e-08
9.8252261e-08
9.8463744e-08
9.8680541e-08
9.8885968e-08
9.3681666e-08
9.3709199e-08
9.3737611e-08
9.3770372e-08
9.3803238e-08
9.3837812e-08
9.3873536e-08
9.3912133e-08
9.3951988e-08
9.3995405e-08
9.4041424e-08
9.4089486e-08
9.413991e-08
9.4193076e-08
9.4248342e-08
9.430565e-08
9.4365448e-08
9.4427222e-08
9.4490036e-08
9.4553579e-08
9.4617711e-08
9.4682036e-08
9.4746291e-08
9.4810838e-08
9.4877034e-08
9.4945241e-08
9.5014816e-08
9.5084739e-08
9.5158185e-08
9.5244238e-08
9.5328965e-08
9.5417977e-08
9.5513043e-08
9.5616057e-08
9.5729054e-08
9.584972e-08
9.5975655e-08
9.6109358e-08
9.6248818e-08
9.6390287e-08
9.6536001e-08
9.6690762e-08
9.6844637e-08
9.7006178e-08
9.7167594e-08
9.7334253e-08
9.7503222e-08
9.767646e-08
9.7840018e-08
9.3481804e-08
9.3512769e-08
9.3544518e-08
9.3579862e-08
9.3615773e-08
9.3653514e-08
9.3692733e-08
9.3734705e-08
9.3778318e-08
9.3825175e-08
9.3874631e-08
9.3926277e-08
9.3980224e-08
9.4036593e-08
9.4094809e-08
9.4154604e-08
9.4216011e-08
9.4278461e-08
9.4341082e-08
9.440337e-08
9.4464969e-08
9.4525361e-08
9.4584145e-08
9.4641512e-08
9.4698386e-08
9.4755011e-08
9.4810985e-08
9.4865278e-08
9.4945675e-08
9.5005684e-08
9.505133e-08
9.5114647e-08
9.5184611e-08
9.5261577e-08
9.5346339e-08
9.5436962e-08
9.5531967e-08
9.5633476e-08
9.5740145e-08
9.5849188e-08
9.5962218e-08
9.6082796e-08
9.6203311e-08
9.6330134e-08
9.6457232e-08
9.6588564e-08
9.6721733e-08
9.685835e-08
9.6986763e-08
9.3324882e-08
9.3359071e-08
9.3394063e-08
9.3432143e-08
9.3471204e-08
9.3512249e-08
9.3555076e-08
9.3600629e-08
9.3648159e-08
9.3698743e-08
9.3751963e-08
9.3807505e-08
9.386531e-08
9.3925294e-08
9.3986907e-08
9.40497e-08
9.4113372e-08
9.4177288e-08
9.4240591e-08
9.4302605e-08
9.4362785e-08
9.4420488e-08
9.4475192e-08
9.4526946e-08
9.4576332e-08
9.4623477e-08
9.4668143e-08
9.4711577e-08
9.4752176e-08
9.4793212e-08
9.4844082e-08
9.4888946e-08
9.493812e-08
9.4992149e-08
9.5051608e-08
9.5115838e-08
9.5184072e-08
9.5257983e-08
9.5336624e-08
9.5417901e-08
9.5502955e-08
9.559442e-08
9.5686474e-08
9.5783863e-08
9.5881908e-08
9.5983528e-08
9.6086752e-08
9.6192925e-08
9.6292267e-08
9.3202459e-08
9.3239733e-08
9.3277914e-08
9.3318866e-08
9.3361179e-08
9.3405658e-08
9.3452213e-08
9.3501538e-08
9.3553148e-08
9.3607723e-08
9.3665003e-08
9.3724737e-08
9.3786719e-08
9.3850694e-08
9.3916115e-08
9.3982371e-08
9.4048882e-08
9.411494e-08
9.417967e-08
9.4242234e-08
9.4301922e-08
9.4357965e-08
9.4409728e-08
9.445714e-08
9.4500512e-08
9.453986e-08
9.4575206e-08
9.4607086e-08
9.4639194e-08
9.4649607e-08
9.4689215e-08
9.4723321e-08
9.4755265e-08
9.4789083e-08
9.4826869e-08
9.4868656e-08
9.491403e-08
9.4964283e-08
9.50188e-08
9.5076069e-08
9.5136923e-08
9.5203314e-08
9.5270822e-08
9.5342967e-08
9.5416119e-08
9.549241e-08
9.5570207e-08
9.5650616e-08
9.5725427e-08
9.3108062e-08
9.3148353e-08
9.3189718e-08
9.3233676e-08
9.3279356e-08
9.3327409e-08
9.3377828e-08
9.3431117e-08
9.3486987e-08
9.3545806e-08
9.3607434e-08
9.3671646e-08
9.3738116e-08
9.3806443e-08
9.387606e-08
9.3946207e-08
9.4016071e-08
9.4084863e-08
9.4151662e-08
9.4215481e-08
9.4275458e-08
9.4330698e-08
9.4380462e-08
9.4424572e-08
9.4463125e-08
9.4496036e-08
9.4523455e-08
9.4546247e-08
9.4564755e-08
9.4584284e-08
9.4598617e-08
9.46116e-08
9.4625336e-08
9.4641363e-08
9.4660566e-08
9.4682942e-08
9.4708357e-08
9.4737915e-08
9.4771328e-08
9.4807578e-08
9.4847289e-08
9.4891909e-08
9.4938105e-08
9.4988477e-08
9.5040208e-08
9.509484e-08
9.515101e-08
9.5209626e-08
9.5263786e-08
9.3036776e-08
9.3080064e-08
9.3124644e-08
9.3171748e-08
9.3220923e-08
9.3272701e-08
9.3327137e-08
9.3384591e-08
9.3444914e-08
9.3508235e-08
9.3574493e-08
9.3643474e-08
9.3714741e-08
9.3787769e-08
9.3861954e-08
9.3936398e-08
9.4010086e-08
9.4082139e-08
9.4151573e-08
9.4217258e-08
9.427819e-08
9.4333351e-08
9.4381901e-08
9.4423567e-08
9.4458272e-08
9.4485837e-08
9.4506541e-08
9.4521131e-08
9.4530832e-08
9.4535816e-08
9.4538198e-08
9.4539131e-08
9.4539406e-08
9.4540342e-08
9.4543101e-08
9.4548183e-08
9.4555843e-08
9.4567084e-08
9.4581874e-08
9.4599583e-08
9.4620686e-08
9.464625e-08
9.4673796e-08
9.4705223e-08
9.4738351e-08
9.4774273e-08
9.4811843e-08
9.4851797e-08
9.4888339e-08
9.2984822e-08
9.3031134e-08
9.3078995e-08
9.3129396e-08
9.3182211e-08
9.3237882e-08
9.3296509e-08
9.3358341e-08
9.3423331e-08
9.3491417e-08
9.3562591e-08
9.3636637e-08
9.3713016e-08
9.379109e-08
9.3870207e-08
9.3949338e-08
9.4027289e-08
9.4103082e-08
9.4175657e-08
9.4243747e-08
9.430621e-08
9.4361909e-08
9.4409906e-08
9.4449838e-08
9.4481488e-08
9.4504591e-08
9.4519517e-08
9.4527063e-08
9.4528136e-08
9.4523959e-08
9.4515651e-08
9.4504459e-08
9.4491613e-08
9.4478519e-08
9.44664e-08
9.4456002e-08
9.4447812e-08
9.444274e-08
9.4440963e-08
9.444217e-08
9.4446743e-08
9.4455467e-08
9.4466543e-08
9.4481338e-08
9.4498175e-08
9.451781e-08
9.4539273e-08
9.4563152e-08
9.4584586e-08
9.2949321e-08
9.2998721e-08
9.3049957e-08
9.3103818e-08
9.316044e-08
9.3220188e-08
9.3283201e-08
9.3349639e-08
9.3419527e-08
9.3492652e-08
9.3569039e-08
9.3648453e-08
9.3730266e-08
9.3813732e-08
9.3898142e-08
9.3982341e-08
9.4064968e-08
9.4144946e-08
9.4221124e-08
9.4292099e-08
9.4356599e-08
9.4413369e-08
9.4461372e-08
9.4500164e-08
9.4529411e-08
9.4548768e-08
9.4558684e-08
9.455996e-08
9.4553525e-08
9.4540519e-08
9.4522293e-08
9.4500242e-08
9.4475709e-08
9.445005e-08
9.4424545e-08
9.440017e-08
9.4377643e-08
9.435784e-08
9.4341127e-08
9.4327463e-08
9.4317175e-08
9.4310847e-08
9.4307215e-08
9.4307247e-08
9.4309662e-08
9.4314959e-08
9.4322314e-08
9.4332182e-08
9.4340499e-08
9.2928085e-08
9.2980665e-08
9.3035402e-08
9.3092902e-08
9.3153513e-08
9.3217543e-08
9.3285157e-08
9.3356444e-08
9.3431484e-08
9.3509937e-08
9.3591843e-08
9.3676942e-08
9.3764518e-08
9.3853727e-08
9.3943791e-08
9.4033432e-08
9.4121135e-08
9.4205716e-08
9.4285922e-08
9.436022e-08
9.4427206e-08
9.4485511e-08
9.4534e-08
9.4572152e-08
9.459953e-08
9.4615724e-08
9.462124e-08
9.4616909e-08
9.4603629e-08
9.4582653e-08
9.4555414e-08
9.4523389e-08
9.4488055e-08
9.4450788e-08
9.4412951e-08
9.4375731e-08
9.4340047e-08
9.4306766e-08
9.4276422e-08
9.4249199e-08
9.4225398e-08
9.4205458e-08
9.4188548e-08
9.4175329e-08
9.416484e-08
9.4157383e-08
9.4152253e-08
9.4149791e-08
9.4146616e-08
9.2919477e-08
9.2975359e-08
9.3033744e-08
9.3095078e-08
9.3159882e-08
9.3228415e-08
9.3300867e-08
9.3377267e-08
9.345773e-08
9.3541813e-08
9.3629559e-08
9.3720673e-08
9.3814354e-08
9.3909663e-08
9.4005746e-08
9.4101202e-08
9.419437e-08
9.4283951e-08
9.4368587e-08
9.4446609e-08
9.4516488e-08
9.4576736e-08
9.4626127e-08
9.466406e-08
9.4690014e-08
9.4703515e-08
9.4705123e-08
9.4695696e-08
9.4676137e-08
9.4647775e-08
9.461214e-08
9.4570807e-08
9.4525386e-08
9.4477291e-08
9.4427976e-08
9.4378813e-08
9.4330904e-08
9.4285135e-08
9.4242188e-08
9.4202445e-08
9.4166203e-08
9.4133801e-08
9.4104754e-08
9.4079495e-08
9.4057317e-08
9.4038372e-08
9.4022056e-08
9.4008605e-08
9.399523e-08
9.2922301e-08
9.2981631e-08
9.3043836e-08
9.3109214e-08
9.3178434e-08
9.3251714e-08
9.3329259e-08
9.3411053e-08
9.3497234e-08
9.3587266e-08
9.3681187e-08
9.377866e-08
9.3878801e-08
9.3980577e-08
9.4083048e-08
9.4184695e-08
9.4283709e-08
9.4378677e-08
9.4468122e-08
9.4550244e-08
9.4623386e-08
9.4685944e-08
9.4736599e-08
9.4774673e-08
9.4799569e-08
9.481076e-08
9.4808851e-08
9.4794732e-08
9.4769322e-08
9.473403e-08
9.4690484e-08
9.4640355e-08
9.4585383e-08
9.4527042e-08
9.4466885e-08
9.440646e-08
9.4347034e-08
9.4289535e-08
9.4234783e-08
9.4183329e-08
9.4135485e-08
9.4091522e-08
9.4051241e-08
9.4014899e-08
9.3981998e-08
9.3952575e-08
9.392611e-08
9.3902744e-08
9.3880202e-08
9.2935726e-08
9.2998671e-08
9.306489e-08
9.3134542e-08
9.3208418e-08
9.3286707e-08
9.3369624e-08
9.3457112e-08
9.3549324e-08
9.3645644e-08
9.3746092e-08
9.3850285e-08
9.3957256e-08
9.4065874e-08
9.4175113e-08
9.4283328e-08
9.4388569e-08
9.4489298e-08
9.4583919e-08
9.4670496e-08
9.4747242e-08
9.4812442e-08
9.4864679e-08
9.4903203e-08
9.4927347e-08
9.4936537e-08
9.4931419e-08
9.4912919e-08
9.4881983e-08
9.4840101e-08
9.4788996e-08
9.4730441e-08
9.4666305e-08
9.4598141e-08
9.4527609e-08
9.4456423e-08
9.4386008e-08
9.4317348e-08
9.425139e-08
9.4188841e-08
9.4130036e-08
9.4075209e-08
9.4024392e-08
9.3977714e-08
9.3934845e-08
9.3895735e-08
9.3859935e-08
9.38275e-08
9.3796606e-08
9.2959223e-08
9.3025972e-08
9.309642e-08
9.3170591e-08
9.3249387e-08
9.3332965e-08
9.3421554e-08
9.3515059e-08
9.3613637e-08
9.3716601e-08
9.3823946e-08
9.3935238e-08
9.4049423e-08
9.4165274e-08
9.4281668e-08
9.4396834e-08
9.4508681e-08
9.4615543e-08
9.4715694e-08
9.4807064e-08
9.4887736e-08
9.4955879e-08
9.5009982e-08
9.5049221e-08
9.5072869e-08
9.5080307e-08
9.5072221e-08
9.5049576e-08
9.5013353e-08
9.4965123e-08
9.4906703e-08
9.4839976e-08
9.476694e-08
9.4689242e-08
9.4608658e-08
9.4527061e-08
9.444603e-08
9.4366615e-08
9.4289889e-08
9.4216693e-08
9.4147402e-08
9.408223e-08
9.4021403e-08
9.3964955e-08
9.3912694e-08
9.3864504e-08
9.3819997e-08
9.3779149e-08
9.3740537e-08
9.2992527e-08
9.3063286e-08
9.3138199e-08
9.3217154e-08
9.3301152e-08
9.3390324e-08
9.3484906e-08
9.358477e-08
9.3690071e-08
9.3800057e-08
9.391469e-08
9.4033477e-08
9.4155278e-08
9.4278765e-08
9.4402713e-08
9.4525221e-08
9.4644057e-08
9.4757419e-08
9.4863448e-08
9.4959935e-08
9.5044834e-08
9.5116198e-08
9.5172423e-08
9.5212609e-08
9.5235973e-08
9.524186e-08
9.5230992e-08
9.5204374e-08
9.516303e-08
9.5108612e-08
9.5043035e-08
9.4968292e-08
9.4886516e-08
9.479946e-08
9.4709026e-08
9.4617243e-08
9.4525837e-08
9.4435939e-08
9.4348739e-08
9.4265206e-08
9.4185759e-08
9.4110611e-08
9.4040152e-08
9.3974346e-08
9.3913117e-08
9.3856299e-08
9.3803558e-08
9.3754792e-08
9.3708942e-08
9.3035602e-08
9.31106e-08
9.3190233e-08
9.3274258e-08
9.3363761e-08
9.3458852e-08
9.3559771e-08
9.366636e-08
9.3778765e-08
9.3896173e-08
9.4018504e-08
9.4145202e-08
9.4275039e-08
9.4406581e-08
9.4538494e-08
9.4668744e-08
9.4794954e-08
9.4915182e-08
9.502743e-08
9.5129349e-08
9.5218763e-08
9.5293606e-08
9.5352183e-08
9.5393518e-08
9.5416775e-08
9.5421271e-08
9.540776e-08
9.537729e-08
9.5330933e-08
9.527042e-08
9.5197768e-08
9.5115084e-08
9.502464e-08
9.492831e-08
9.4828128e-08
9.4726277e-08
9.4624628e-08
9.4524401e-08
9.4426903e-08
9.4333221e-08
9.4243825e-08
9.4158941e-08
9.4079098e-08
9.4004212e-08
9.3934306e-08
9.3869177e-08
9.3808535e-08
9.375221e-08
9.3699471e-08
9.3088626e-08
9.316811e-08
9.3252743e-08
9.3342142e-08
9.3437476e-08
9.3538834e-08
9.3646459e-08
9.3760162e-08
9.3880078e-08
9.4005329e-08
9.4135791e-08
9.4270839e-08
9.440915e-08
9.4549183e-08
9.4689485e-08
9.4827887e-08
9.496186e-08
9.5089321e-08
9.5208125e-08
9.5315782e-08
9.5409983e-08
9.5488547e-08
9.5549684e-08
9.5592347e-08
9.5615647e-08
9.5618878e-08
9.5602825e-08
9.5568581e-08
9.5517269e-08
9.54507e-08
9.5370992e-08
9.5280375e-08
9.5181264e-08
9.5075665e-08
9.4965752e-08
9.4853863e-08
9.4742011e-08
9.4631512e-08
9.4523788e-08
9.4420039e-08
9.4320793e-08
9.42263e-08
9.4137209e-08
9.4053408e-08
9.3975003e-08
9.3901763e-08
9.3833441e-08
9.3769801e-08
9.3710414e-08
9.3151983e-08
9.323622e-08
9.3326153e-08
9.3421253e-08
9.3522768e-08
9.3630767e-08
9.3745492e-08
9.3866724e-08
9.3994581e-08
9.4128123e-08
9.4267174e-08
9.4411032e-08
9.4558277e-08
9.4707252e-08
9.4856381e-08
9.5003352e-08
9.5145486e-08
9.5280545e-08
9.5406238e-08
9.551993e-08
9.561918e-08
9.570169e-08
9.5765578e-08
9.5809725e-08
9.5833193e-08
9.5835257e-08
9.5816734e-08
9.577876e-08
9.572251e-08
9.5649877e-08
9.5563082e-08
9.5464485e-08
9.535665e-08
9.5241725e-08
9.512203e-08
9.5000057e-08
9.4877962e-08
9.4757164e-08
9.4639198e-08
9.4525374e-08
9.4416282e-08
9.4312207e-08
9.4213906e-08
9.4121249e-08
9.403442e-08
9.3953166e-08
9.3877279e-08
9.3806458e-08
9.3740564e-08
9.3226258e-08
9.3315537e-08
9.3411094e-08
9.3512247e-08
9.3620319e-08
9.3735358e-08
9.3857603e-08
9.3986808e-08
9.4123064e-08
9.4265371e-08
9.4413492e-08
9.4566643e-08
9.4723302e-08
9.488169e-08
9.5040098e-08
9.5196068e-08
9.534676e-08
9.5489784e-08
9.5622695e-08
9.574271e-08
9.5847258e-08
9.5933926e-08
9.6000738e-08
9.6046506e-08
9.6070246e-08
9.607122e-08
9.6050272e-08
9.6008583e-08
9.5947383e-08
9.5868641e-08
9.577469e-08
9.5668022e-08
9.555136e-08
9.5426999e-08
9.5297416e-08
9.5165254e-08
9.503281e-08
9.4901612e-08
9.4773309e-08
9.464932e-08
9.4530302e-08
9.4416584e-08
9.4309023e-08
9.4207482e-08
9.4112216e-08
9.4022957e-08
9.3939536e-08
9.3861588e-08
9.3789251e-08
9.3312246e-08
9.3406877e-08
9.3508411e-08
9.3615995e-08
9.3731026e-08
9.3853532e-08
9.3983749e-08
9.4121397e-08
9.426654e-08
9.4418113e-08
9.4575812e-08
9.4738765e-08
9.4905339e-08
9.5073627e-08
9.5241781e-08
9.5407185e-08
9.5566841e-08
9.5718195e-08
9.5858644e-08
9.5985263e-08
9.6095345e-08
9.6186365e-08
9.6256258e-08
9.6303768e-08
9.6327867e-08
9.6327807e-08
9.630446e-08
9.6259052e-08
9.6192863e-08
9.6107942e-08
9.6006732e-08
9.5891872e-08
9.5766243e-08
9.5632302e-08
9.5492678e-08
9.535017e-08
9.5207214e-08
9.5065452e-08
9.4926651e-08
9.4792333e-08
9.4663233e-08
9.4539731e-08
9.4422777e-08
9.4312242e-08
9.4208441e-08
9.4111102e-08
9.4020091e-08
9.3934978e-08
9.385618e-08
9.3410967e-08
9.3511288e-08
9.3619177e-08
9.3733598e-08
9.3856023e-08
9.3986456e-08
9.4125127e-08
9.427172e-08
9.4426269e-08
9.4587638e-08
9.475545e-08
9.4928737e-08
9.5105747e-08
9.528444e-08
9.5462817e-08
9.5638101e-08
9.5807126e-08
9.596717e-08
9.6115473e-08
9.624896e-08
9.6364797e-08
9.6460349e-08
9.6533463e-08
9.6582819e-08
9.6607347e-08
9.6606295e-08
9.6580562e-08
9.6531414e-08
9.6460181e-08
9.636899e-08
9.6260402e-08
9.6137204e-08
9.6002448e-08
9.5858751e-08
9.5708902e-08
9.5555848e-08
9.5402169e-08
9.5249624e-08
9.5100096e-08
9.4955221e-08
9.4815811e-08
9.4682311e-08
9.4555761e-08
9.4436046e-08
9.4323543e-08
9.4217981e-08
9.411926e-08
9.4026888e-08
9.3941557e-08
9.3523689e-08
9.3630064e-08
9.3744722e-08
9.3866419e-08
9.3996706e-08
9.4135559e-08
9.42832e-08
9.4439276e-08
9.460378e-08
9.4775506e-08
9.4953994e-08
9.5138171e-08
9.532616e-08
9.5515777e-08
9.5704864e-08
9.5890477e-08
9.6069274e-08
9.6238362e-08
9.639482e-08
9.6535426e-08
9.6657221e-08
9.6757464e-08
9.6833921e-08
9.6885209e-08
9.6910222e-08
9.6908208e-08
9.688009e-08
9.6827173e-08
9.6750832e-08
9.665327e-08
9.6537173e-08
9.6405484e-08
9.6261427e-08
9.6107783e-08
9.5947497e-08
9.5783667e-08
9.561901e-08
9.5455409e-08
9.5294871e-08
9.5139144e-08
9.4989131e-08
9.4845348e-08
9.4708923e-08
9.4579769e-08
9.4458323e-08
9.4344315e-08
9.4237685e-08
9.4137873e-08
9.4045859e-08
9.3651955e-08
9.3764782e-08
9.3886659e-08
9.401611e-08
9.4154764e-08
9.430257e-08
9.4459738e-08
9.462587e-08
9.4800917e-08
9.4983593e-08
9.5173346e-08
9.5368992e-08
9.5568518e-08
9.576959e-08
9.5969881e-08
9.6166269e-08
9.6355235e-08
9.6533709e-08
9.6698605e-08
9.684656e-08
9.6974491e-08
9.7079562e-08
9.7159462e-08
9.7212752e-08
9.7238294e-08
9.7235338e-08
9.7204831e-08
9.7148113e-08
9.7066596e-08
9.6962563e-08
9.6838827e-08
9.6698495e-08
9.6544962e-08
9.6381173e-08
9.6210225e-08
9.6035359e-08
9.5859431e-08
9.5684454e-08
9.5512564e-08
9.5345628e-08
9.5184652e-08
9.5030231e-08
9.4883588e-08
9.4744667e-08
9.4613971e-08
9.4491236e-08
9.4376444e-08
9.4268966e-08
9.417008e-08
9.3797622e-08
9.3917336e-08
9.4046926e-08
9.4184652e-08
9.4332227e-08
9.4489565e-08
9.4656859e-08
9.4833665e-08
9.501988e-08
9.5214132e-08
9.541577e-08
9.5623485e-08
9.5835123e-08
9.6048186e-08
9.6260172e-08
9.6467775e-08
9.6667292e-08
9.6855472e-08
9.7029063e-08
9.7184566e-08
9.7318784e-08
9.7428791e-08
9.751221e-08
9.7567551e-08
9.7593652e-08
9.7589767e-08
9.7556867e-08
9.7496319e-08
9.7409568e-08
9.7298973e-08
9.7167482e-08
9.701837e-08
9.6855199e-08
9.6681071e-08
9.6499225e-08
9.631304e-08
9.6125512e-08
9.593879e-08
9.575515e-08
9.5576588e-08
9.5404221e-08
9.5238739e-08
9.5081459e-08
9.4932371e-08
9.4792039e-08
9.4660215e-08
9.4536923e-08
9.442146e-08
9.4315426e-08
9.3962904e-08
9.4089988e-08
9.4227837e-08
9.4374413e-08
9.4531515e-08
9.4699017e-08
9.487709e-08
9.5065236e-08
9.5263289e-08
9.5469783e-08
9.5683955e-08
9.590436e-08
9.6128693e-08
9.6354285e-08
9.6578447e-08
9.6797686e-08
9.7008108e-08
9.7206282e-08
9.7388791e-08
9.7552003e-08
9.7692617e-08
9.7807632e-08
9.7894615e-08
9.7952034e-08
9.797871e-08
9.7973906e-08
9.7938613e-08
9.7874218e-08
9.778219e-08
9.7664964e-08
9.7525631e-08
9.7367633e-08
9.7194689e-08
9.7010042e-08
9.6817061e-08
9.6619255e-08
9.6419764e-08
9.6220883e-08
9.6025039e-08
9.5834371e-08