/*--------------------------------*- C++ -*----------------------------------*\
| =========                 |                                                 |
| \\      /  F ield         | OpenFOAM: The Open Source CFD Toolbox           |
|  \\    /   O peration     | Version:  v2006                                 |
|   \\  /    A nd           | Website:  www.openfoam.com                      |
|    \\/     M anipulation  |                                                 |
\*---------------------------------------------------------------------------*/
FoamFile
{
    version     2.0;
    format      ascii;
    class       volScalarField;
    location    "1500";
    object      Cp;
}
// * * * * * * * * * * * * * * * * * * * * * * * * * * * * * * * * * * * * * //

dimensions      [0 0 0 0 0 0 0];


internalField   nonuniform List<scalar> 
19765
(
0.14242535
0.198277
0.34949533
0.45499757
0.55960072
0.63818843
0.7310424
0.7849037
0.85398054
0.91030165
0.94918843
0.97898136
1.002743
1.0150709
1.0185467
1.0154081
1.0060701
0.99035674
0.96800508
0.93891353
0.90215307
0.85812689
0.81073304
0.75515499
0.6877622
0.61764919
0.55733686
0.48873772
0.40286251
0.32534796
0.24440948
0.14670748
0.036495357
-0.10862156
-0.22572957
-0.30865973
-0.41487273
-0.57522458
-0.68665274
-0.81051616
-1.0134862
-1.1881034
-1.2163995
-1.3711588
-1.3653115
-1.4147659
-1.3715807
-1.3046394
-1.2191175
0.33319903
0.3617922
0.39852164
0.44259016
0.48937388
0.53447155
0.58170107
0.62143559
0.66303441
0.70431726
0.73928575
0.76824236
0.79504381
0.81393939
0.82470515
0.83221513
0.83490836
0.83011246
0.81945713
0.80198823
0.77792025
0.748741
0.71270385
0.67018599
0.62271737
0.57071935
0.51213487
0.44806314
0.37953166
0.30593066
0.22788305
0.14625697
0.061639534
-0.023424822
-0.10762014
-0.1925542
-0.27952926
-0.36544787
-0.44490231
-0.51948122
-0.58535713
-0.639619
-0.69162452
-0.73613161
-0.76787986
-0.79498195
-0.81570405
-0.83460277
-0.85365276
0.32570811
0.36177236
0.40260619
0.44317521
0.48340433
0.52116131
0.5582411
0.5900247
0.62144712
0.65071464
0.67667545
0.6993215
0.71954857
0.73491558
0.74487365
0.75126898
0.75374682
0.7507021
0.74186193
0.72699648
0.706062
0.67951262
0.64701508
0.60846746
0.56486571
0.51671238
0.46299233
0.40408653
0.34102696
0.27349766
0.20231404
0.12872806
0.053950013
-0.02092323
-0.097207996
-0.17435397
-0.25004394
-0.32382009
-0.39600112
-0.46405712
-0.52732287
-0.58916218
-0.64798878
-0.70199875
-0.75115456
-0.79082602
-0.825939
-0.85587749
-0.88357189
0.35993102
0.38351118
0.40807229
0.43416919
0.46091122
0.48755162
0.51433334
0.53882113
0.56343282
0.58738053
0.60885095
0.62780619
0.64495755
0.65830334
0.6671095
0.6731222
0.67615612
0.67446496
0.66765324
0.65545469
0.63807976
0.61644967
0.58991263
0.55792365
0.52141987
0.48109101
0.43605281
0.38633929
0.33307347
0.27623157
0.21649036
0.15504048
0.092727526
0.030629533
-0.032380988
-0.095714967
-0.15718802
-0.21604991
-0.27342049
-0.32678636
-0.37532935
-0.42265639
-0.46949855
-0.51154925
-0.55314509
-0.59146305
-0.63057584
-0.66892951
-0.7063545
0.34453289
0.36588098
0.38763956
0.40916322
0.43030056
0.45072815
0.47098925
0.48937589
0.50776573
0.52575225
0.5420116
0.55638778
0.56942799
0.57967223
0.58633169
0.5906746
0.59268823
0.59087426
0.5846929
0.57383394
0.55808678
0.53809845
0.5134295
0.48358783
0.44948264
0.41191135
0.37025654
0.32433849
0.27521824
0.22318733
0.16871284
0.1127362
0.05593375
-0.00071071275
-0.0575863
-0.11431762
-0.16966208
-0.22305782
-0.27507594
-0.32438855
-0.37087086
-0.41658658
-0.46195163
-0.5046711
-0.54755728
-0.58870561
-0.6294625
-0.66893386
-0.70727075
0.3400705
0.35548946
0.37151925
0.38748875
0.40339037
0.41886993
0.4344768
0.4487022
0.46309573
0.47724529
0.49003635
0.50131681
0.51150392
0.51941937
0.52438309
0.52734134
0.52823541
0.52583081
0.51965238
0.50941348
0.49492202
0.47680786
0.45472158
0.42812481
0.39774246
0.36423348
0.32714188
0.28638178
0.24286902
0.19689666
0.14890865
0.099728321
0.049960126
0.00044067943
-0.049085792
-0.098292371
-0.14619873
-0.19235637
-0.23714108
-0.27961873
-0.31970156
-0.35896188
-0.39760444
-0.43451641
-0.47145127
-0.5075515
-0.54406203
-0.58088865
-0.6174312
0.32351788
0.33658787
0.35007399
0.36314272
0.37592282
0.38817276
0.40046736
0.41158732
0.42283516
0.43388277
0.44383225
0.45254036
0.46033757
0.46626769
0.4697398
0.47147564
0.47139384
0.46844444
0.46219321
0.45234992
0.43872256
0.42173195
0.40107863
0.37633418
0.34806518
0.31688191
0.28244814
0.24470024
0.20444254
0.16197971
0.11770416
0.072320148
0.026328043
-0.01952252
-0.065330688
-0.11081934
-0.15528058
-0.19833316
-0.24024822
-0.28038682
-0.3187642
-0.35643582
-0.39371131
-0.42981363
-0.46605612
-0.50185539
-0.53811562
-0.57461527
-0.61131404
0.31062088
0.32077902
0.33143623
0.34175301
0.35187529
0.36155467
0.37131554
0.38009421
0.38899738
0.39771492
0.40549504
0.41220479
0.41810694
0.42240514
0.42459338
0.42522927
0.42421182
0.42065555
0.41418171
0.40451741
0.39150173
0.37544261
0.35610936
0.33316514
0.30703106
0.27823538
0.24652363
0.21188404
0.17502473
0.13623056
0.095871956
0.054575806
0.012791862
-0.028815252
-0.070297057
-0.11140728
-0.15155545
-0.19041391
-0.22819138
-0.26437151
-0.29894173
-0.33278217
-0.36611836
-0.39842875
-0.43074508
-0.46269489
-0.4950641
-0.52776121
-0.56075249
0.29460433
0.30304571
0.31192223
0.32041156
0.32867532
0.33650254
0.34437471
0.35138427
0.35847674
0.36537868
0.37145635
0.37658811
0.38098669
0.38398032
0.38513109
0.38487714
0.3831058
0.37905636
0.37239333
0.36286062
0.35031595
0.33496829
0.31661577
0.29499946
0.27044133
0.24340589
0.21369986
0.1813353
0.1469338
0.11075936
0.073149557
0.034655379
-0.0043360985
-0.043233471
-0.082040883
-0.12053575
-0.15823943
-0.19485644
-0.23054844
-0.26490865
-0.29794136
-0.33029337
-0.362224
-0.39329865
-0.42437873
-0.45518096
-0.4863502
-0.51783969
-0.54969668
0.28038321
0.28715811
0.29437117
0.30124595
0.3079369
0.31424047
0.32058195
0.32616791
0.33180733
0.33724749
0.34194663
0.34579082
0.34895154
0.3508541
0.35111817
0.35009096
0.34765412
0.34315206
0.33628936
0.32683112
0.31465048
0.29989243
0.28238597
0.2619358
0.23878757
0.2133475
0.18547153
0.15519603
0.12307264
0.089346497
0.054336185
0.018539208
-0.017693001
-0.053824787
-0.089836562
-0.12551856
-0.16044969
-0.19435948
-0.22737904
-0.25915338
-0.28966345
-0.31946173
-0.34877132
-0.37722538
-0.40557595
-0.43358877
-0.46184813
-0.49033104
-0.51906674
0.26567547
0.27127557
0.27727599
0.28295314
0.28845193
0.29358827
0.29873845
0.30321132
0.30770154
0.31197965
0.31557791
0.31838992
0.32055432
0.32157426
0.32111645
0.31945827
0.31647896
0.31160778
0.30458315
0.29519046
0.28330921
0.26904835
0.25225043
0.23276586
0.21079268
0.18667687
0.16031713
0.1317632
0.10150398
0.069764793
0.036841533
0.0031802347
-0.030906719
-0.064937283
-0.09887691
-0.13252941
-0.16552866
-0.19762572
-0.22892934
-0.25913225
-0.28821328
-0.31660923
-0.34454689
-0.37167847
-0.39867576
-0.42532678
-0.45214378
-0.47911605
-0.50633085
0.25215088
0.25670042
0.26162788
0.26626737
0.27075132
0.27490647
0.27906128
0.28260792
0.28614323
0.28945574
0.2921383
0.29409008
0.29542207
0.29570056
0.29463151
0.2924371
0.28899674
0.2838109
0.27664732
0.26731006
0.25568477
0.24185846
0.22568252
0.20704379
0.18610953
0.16317269
0.13816611
0.11115176
0.082566987
0.052621292
0.021594575
-0.010106199
-0.042194169
-0.07422762
-0.10616005
-0.13780098
-0.16881601
-0.19897083
-0.22835539
-0.25668826
-0.28393319
-0.31046688
-0.33649534
-0.36168986
-0.38666718
-0.41122376
-0.4358326
-0.46048161
-0.48524319
0.23896222
0.24270351
0.24678953
0.2506102
0.25428463
0.25765347
0.26100349
0.26379957
0.26655575
0.26907797
0.2710091
0.27225362
0.27289979
0.27256605
0.2709912
0.26835344
0.26453389
0.25909264
0.2518225
0.2425444
0.2311505
0.21771162
0.20208711
0.1841903
0.16416646
0.14226485
0.1184443
0.092774903
0.065648905
0.037260572
0.007873342
-0.022141999
-0.052523872
-0.082869344
-0.11312653
-0.14311341
-0.17252713
-0.20114972
-0.22905885
-0.25599852
-0.28192807
-0.30716077
-0.33189543
-0.3558076
-0.37946644
-0.40267068
-0.42584879
-0.44898547
-0.47218278
0.22668496
0.22972271
0.2330767
0.23619071
0.23917148
0.24187033
0.24453637
0.24669599
0.24879229
0.25064606
0.25194213
0.25258935
0.25265677
0.25180627
0.24980429
0.24679337
0.24265736
0.23700695
0.2296564
0.22044189
0.20926234
0.19617581
0.18105081
0.16382131
0.14461558
0.1236475
0.1008965
0.076439287
0.050630143
0.023650861
-0.0042484449
-0.032726401
-0.061540055
-0.090317428
-0.11900075
-0.14741194
-0.17526874
-0.20236437
-0.22876352
-0.254226
-0.27870223
-0.30246423
-0.32569479
-0.34807792
-0.37014541
-0.39169642
-0.41312925
-0.43442163
-0.45566809
0.21497413
0.21744365
0.22019871
0.22273279
0.22514059
0.22728448
0.22938081
0.23100953
0.23255313
0.23384623
0.23460912
0.23475485
0.23433644
0.23305254
0.23069317
0.22737182
0.22297577
0.21715889
0.20975397
0.20061099
0.1896356
0.1768756
0.16220905
0.14558587
0.12712065
0.10699851
0.085215088
0.061851775
0.037229855
0.011519893
-0.01504073
-0.042137179
-0.06954376
-0.096917459
-0.12419801
-0.15121332
-0.17770184
-0.20346995
-0.22857394
-0.25279036
-0.27606688
-0.29863692
-0.32067255
-0.34186291
-0.36270453
-0.38299647
-0.40310523
-0.42300161
-0.44279492
0.20401466
0.20599302
0.2082288
0.21026142
0.21217488
0.21384113
0.21544756
0.21662029
0.21768971
0.21850268
0.21880974
0.21852767
0.21769593
0.21604446
0.21338346
0.20980249
0.20519263
0.19924487
0.19180806
0.18274461
0.1719667
0.15951383
0.14527368
0.1292091
0.11142352
0.092078435
0.071182679
0.048821203
0.02528697
0.00074112855
-0.024590097
-0.050414454
-0.076520164
-0.10258867
-0.12855678
-0.15425625
-0.17944107
-0.20392756
-0.22776255
-0.25073461
-0.27278701
-0.29412378
-0.31490298
-0.33482264
-0.35434813
-0.37328035
-0.39196052
-0.41035312
-0.42856469
0.19364714
0.19521672
0.19701608
0.19862629
0.20012145
0.20138268
0.20257221
0.20335644
0.20402105
0.20442414
0.20434224
0.20369576
0.20251279
0.20055025
0.19763585
0.19383936
0.18905594
0.18300874
0.17556061
0.16658518
0.15600097
0.14384064
0.13000116
0.1144562
0.097300007
0.078674234
0.05859852
0.037160411
0.014628197
-0.0088452921
-0.033044127
-0.057696394
-0.082602715
-0.10746714
-0.13222495
-0.15671299
-0.18070056
-0.20401516
-0.22669691
-0.2485475
-0.26950947
-0.28976126
-0.30944955
-0.32828177
-0.34669311
-0.36448738
-0.38198069
-0.39913169
-0.41605467
0.1839148
0.1851308
0.18655104
0.18779437
0.18892623
0.18983592
0.19066371
0.19111105
0.19142504
0.19147393
0.19105669
0.1900971
0.1886137
0.18638672
0.1832591
0.1792842
0.17436136
0.1682417
0.16080034
0.15192109
0.14152859
0.12964978
0.11619043
0.10113337
0.084565257
0.066611049
0.047299389
0.026719891
0.0051191707
-0.017356951
-0.040502052
-0.064061893
-0.087847856
-0.11158367
-0.13520316
-0.15854729
-0.18139836
-0.20359303
-0.22516437
-0.24592467
-0.26581528
-0.28499319
-0.30359273
-0.32133301
-0.33862106
-0.35526578
-0.37156154
-0.38746283
-0.40308363
0.17473041
0.17564629
0.17674222
0.17767104
0.17849035
0.17909712
0.17961249
0.17976868
0.1797795
0.17952249
0.17881619
0.17758766
0.1758474
0.17339608
0.17009
0.16596885
0.16093624
0.15476778
0.14734941
0.13857415
0.12837263
0.11676666
0.10367094
0.089075446
0.073060538
0.055737742
0.037142489
0.017366273
-0.0033634242
-0.024907023
-0.047066789
-0.069604549
-0.092341135
-0.1150185
-0.13756948
-0.15983996
-0.18162469
-0.20277015
-0.22330384
-0.24304956
-0.26194951
-0.28014263
-0.29775252
-0.31451133
-0.3307988
-0.34643028
-0.36167916
-0.37649649
-0.39100055
0.16608665
0.16674205
0.1675552
0.16820954
0.1687558
0.16909792
0.16934038
0.16924238
0.16898892
0.168466
0.16750926
0.16604886
0.16408859
0.16144701
0.15799224
0.1537526
0.14863588
0.14243927
0.13505827
0.12639433
0.11638371
0.10504346
0.092297789
0.078141862
0.062650714
0.045925568
0.028006227
0.0089860841
-0.010924305
-0.031590734
-0.05282365
-0.074399085
-0.096146413
-0.11782382
-0.13936339
-0.16061552
-0.18138633
-0.20153091
-0.22107132
-0.23984142
-0.25778431
-0.27502307
-0.29167054
-0.30747306
-0.3227844
-0.33742788
-0.35165797
-0.36542383
-0.37884421
0.15792658
0.15835802
0.15892646
0.15934278
0.1596516
0.15976331
0.15976788
0.15944831
0.15896465
0.15821067
0.15703707
0.155377
0.15322868
0.1504265
0.14684905
0.14251519
0.13733689
0.13113035
0.12379962
0.11525386
0.10543454
0.094354775
0.081947957
0.068212998
0.053220289
0.037063281
0.01978482
0.0014796671
-0.017656495
-0.037494314
-0.057851808
-0.078517977
-0.099329845
-0.12006057
-0.14064177
-0.16092871
-0.18073844
-0.19993477
-0.21853525
-0.23638424
-0.25342693
-0.26977309
-0.28552605
-0.30044732
-0.31486581
-0.32861378
-0.34192779
-0.35475573
-0.36721877
0.15022615
0.15046258
0.15081696
0.15102479
0.15112537
0.15103496
0.15083092
0.15031724
0.14963234
0.1486771
0.14731549
0.14548357
0.14317488
0.14023789
0.13656056
0.13215382
0.12693374
0.1207334
0.11346452
0.10504328
0.095416017
0.084592608
0.072514967
0.059185026
0.044669145
0.029054511
0.012386325
-0.0052398111
-0.023641395
-0.042693349
-0.062220895
-0.082024711
-0.10194881
-0.12178002
-0.14144961
-0.1608177
-0.1797115
-0.19800288
-0.21570513
-0.23267236
-0.24885183
-0.26434153
-0.27923558
-0.29331102
-0.30687303
-0.31976369
-0.33220302
-0.34413884
-0.35569271
0.14294274
0.14301025
0.14317818
0.14320408
0.14312255
0.14285526
0.14246863
0.14178523
0.1409247
0.13979445
0.13827027
0.13629099
0.13384633
0.1307973
0.12704027
0.1225796
0.11733535
0.11115562
0.103959
0.095668191
0.086233937
0.075663606
0.0639068
0.050968043
0.036910178
0.021815184
0.005730192
-0.011248877
-0.028951173
-0.047255552
-0.065993977
-0.084977828
-0.10405755
-0.12303255
-0.141834
-0.160327
-0.17834852
-0.19577831
-0.21262613
-0.22875579
-0.24411743
-0.25879894
-0.27288641
-0.28617267
-0.29894056
-0.31104234
-0.32268263
-0.33380956
-0.3445459
0.13604821
0.13596849
0.13597318
0.13583958
0.1355982
0.13517571
0.13462895
0.13379705
0.13278326
0.13150105
0.12983668
0.12773169
0.12517266
0.12203181
0.11821309
0.11371542
0.10846271
0.1023165
0.095201602
0.087046654
0.077806511
0.067486565
0.056043339
0.04348363
0.029867209
0.015271626
-0.00025439217
-0.016615009
-0.033649801
-0.051241156
-0.069227496
-0.087429955
-0.10570494
-0.12386346
-0.14183671
-0.15949476
-0.17668383
-0.19329104
-0.20932291
-0.2246525
-0.23923273
-0.25314254
-0.26646042
-0.27899487
-0.29100745
-0.30236093
-0.31324562
-0.32361074
-0.33357906
0.12950791
0.12930047
0.12916279
0.12888988
0.12850869
0.12795047
0.12726377
0.12630242
0.12515545
0.12374188
0.12195738
0.11974608
0.11709199
0.11387746
0.11001328
0.10549385
0.10024685
0.094145819
0.087121237
0.079107195
0.070062333
0.059990531
0.048854512
0.036663088
0.023473329
0.0093589662
-0.0056299588
-0.021398068
-0.037794232
-0.05470417
-0.071972381
-0.089429009
-0.10693604
-0.12431514
-0.14149778
-0.15835898
-0.17475383
-0.19057651
-0.20583087
-0.22039894
-0.23423686
-0.24741587
-0.26000775
-0.27183652
-0.28314382
-0.29380299
-0.30399102
-0.31365854
-0.32292851
0.12329433
0.12297599
0.12271409
0.1223195
0.12181612
0.12113939
0.12033068
0.11925692
0.11799472
0.1164683
0.1145817
0.11228157
0.10954986
0.10627802
0.1023831
0.097855751
0.092627271
0.086582019
0.079655599
0.071787136
0.062938756
0.05311319
0.042278724
0.03044594
0.017669522
0.0040198657
-0.010451932
-0.025651237
-0.04143532
-0.057692955
-0.0742745
-0.091018371
-0.10779176
-0.12442629
-0.14085371
-0.15695403
-0.17259068
-0.18766456
-0.20217706
-0.21601882
-0.22914908
-0.24163222
-0.2535338
-0.26469288
-0.27533229
-0.28533584
-0.29486811
-0.30388164
-0.31249878
0.11737831
0.11696431
0.11659462
0.1160944
0.11548484
0.11470532
0.11379091
0.11262028
0.11125924
0.10963677
0.10766449
0.10529145
0.10249798
0.099183776
0.095271548
0.090748926
0.085550665
0.079570867
0.072749817
0.065031275
0.056380575
0.046799599
0.036261608
0.024778737
0.012403538
-0.00079653701
-0.014769578
-0.029421965
-0.044618528
-0.060250992
-0.076175245
-0.092237397
-0.10830956
-0.12423251
-0.13993851
-0.15531239
-0.17022561
-0.18458537
-0.19839104
-0.21154152
-0.22399929
-0.2358228
-0.24707215
-0.25760094
-0.26761449
-0.2770069
-0.28593127
-0.29434217
-0.30236136
0.11173477
0.11123868
0.11077589
0.11018443
0.10948317
0.10861509
0.10760981
0.10635655
0.10491163
0.10320847
0.10116554
0.098734202
0.095893497
0.092550622
0.088633463
0.08412718
0.078969862
0.073064403
0.066355368
0.058790785
0.050338944
0.04100111
0.030754992
0.01961407
0.0076289706
-0.0051354921
-0.018626821
-0.03275262
-0.047384629
-0.062417332
-0.077711973
-0.093121766
-0.10852346
-0.12376637
-0.13878327
-0.15346381
-0.16768694
-0.18136584
-0.19449807
-0.20699037
-0.21880834
-0.23000514
-0.24063583
-0.25056789
-0.25999024
-0.26880692
-0.27716033
-0.28500738
-0.29246869
0.10633905
0.1057733
0.1052309
0.10456146
0.10378184
0.10283837
0.10175593
0.10043321
0.098918248
0.097148598
0.095048905
0.092572755
0.089698223
0.086339321
0.082428677
0.077949469
0.072842977
0.067020055
0.060429182
0.053022326
0.044770488
0.035674509
0.025716052
0.014909755
0.0033044767
-0.0090373621
-0.022062892
-0.035681152
-0.049770165
-0.064227139
-0.078918387
-0.09370377
-0.10846443
-0.12305757
-0.1374166
-0.1514358
-0.16500124
-0.17803169
-0.19052319
-0.20238991
-0.21360058
-0.22420371
-0.23424999
-0.24362005
-0.25248771
-0.26076652
-0.26858904
-0.27591458
-0.28286253
0.10116937
0.1005453
0.09993558
0.099200316
0.098354628
0.097347951
0.096201048
0.094821122
0.093248966
0.091425981
0.08928242
0.086773993
0.083878066
0.080514869
0.076621384
0.072179218
0.067132703
0.061399909
0.054932908
0.047687299
0.039636571
0.030781277
0.021106603
0.010628154
-0.00060685977
-0.012538222
-0.025112903
-0.038241539
-0.05180797
-0.065712004
-0.07982488
-0.094012623
-0.10816054
-0.12213316
-0.13586456
-0.14925351
-0.16219274
-0.17460622
-0.18648865
-0.19776119
-0.20839551
-0.21843598
-0.22792928
-0.23676846
-0.2451132
-0.25288617
-0.26021077
-0.26704885
-0.27351818
0.09620523
0.095533368
0.094867738
0.094077975
0.093177684
0.092119201
0.090919682
0.089494046
0.087876713
0.086012675
0.083837283
0.081308279
0.07840254
0.075045981
0.07117959
0.066783752
0.061805715
0.056170104
0.049832292
0.042751223
0.034902665
0.026286998
0.016892509
0.0067356054
-0.0041380708
-0.015670368
-0.027808294
-0.040464266
-0.053527477
-0.066900348
-0.080458798
-0.094074655
-0.10763718
-0.12101765
-0.1341509
-0.14693994
-0.15928376
-0.17111112
-0.18241559
-0.19312487
-0.20321347
-0.21272211
-0.22169394
-0.2300337
-0.2378881
-0.24518843
-0.25204968
-0.25843627
-0.26446424
0.091428599
0.090718669
0.090007674
0.089173934
0.08822973
0.087130106
0.085889065
0.084428511
0.082777263
0.080883664
0.078687709
0.076149083
0.073244355
0.069904651
0.066074651
0.061733816
0.056832174
0.051300318
0.045096657
0.038183217
0.030537848
0.022160833
0.013043185
0.0032019476
-0.007318757
-0.01846274
-0.030177252
-0.042376633
-0.054955105
-0.067817632
-0.080844704
-0.093913549
-0.10691718
-0.11973318
-0.13229706
-0.14451592
-0.15629452
-0.16756604
-0.178323
-0.18849917
-0.19807171
-0.20707801
-0.21555803
-0.22342737
-0.2308207
-0.23767745
-0.24410478
-0.25006977
-0.25568642
0.086823112
0.08608419
0.085337661
0.084469795
0.083491707
0.082360972
0.08108883
0.079603529
0.077928951
0.07601657
0.073810625
0.07127265
0.068379066
0.065065779
0.061280882
0.057003164
0.052185306
0.046763337
0.040698465
0.033955555
0.026514349
0.018375095
0.0095311723
1.0875848e-07
-0.010175477
-0.020941294
-0.032245028
-0.044003111
-0.056114467
-0.068486662
-0.081004547
-0.093550473
-0.10602103
-0.11829956
-0.13032234
-0.14200025
-0.1532434
-0.16398897
-0.17422852
-0.18390144
-0.19298734
-0.20152067
-0.20953857
-0.21696679
-0.22392896
-0.23037222
-0.23639652
-0.24197158
-0.24720931
0.082374651
0.081615161
0.080842225
0.079949419
0.078946828
0.077794393
0.076500926
0.075000447
0.07331248
0.071391427
0.069185407
0.066657719
0.063784763
0.060506847
0.056775219
0.052568213
0.047841037
0.042534684
0.036612941
0.030043287
0.022807182
0.014904872
0.0063317749
-0.0028942472
-0.012732085
-0.023129308
-0.034034242
-0.045365556
-0.057026667
-0.068927722
-0.080957865
-0.093004247
-0.10496686
-0.11673444
-0.1282439
-0.13940971
-0.15014681
-0.16039601
-0.17014791
-0.179347
-0.18797511
-0.19606396
-0.20364807
-0.21066255
-0.21722079
-0.22327709
-0.22892471
-0.2341361
-0.23902069
0.078070912
0.077298688
0.076507831
0.075598665
0.074580345
0.073415036
0.072109408
0.070602742
0.06891071
0.066990453
0.064793646
0.06228527
0.059441814
0.05620764
0.052536929
0.048407737
0.043777682
0.038592296
0.032817745
0.026423915
0.019393814
0.011727714
0.0034227488
-0.0055030242
-0.015010017
-0.025047654
-0.035565113
-0.046483477
-0.057710428
-0.069158808
-0.080721888
-0.092291422
-0.10377066
-0.11505327
-0.12607685
-0.1367591
-0.14701937
-0.15680163
-0.16609551
-0.17485016
-0.18304936
-0.19072238
-0.19790141
-0.20453029
-0.21071307
-0.21641082
-0.22171068
-0.2265878
-0.23114908
0.073901696
0.073123948
0.072322999
0.071405418
0.070379527
0.069209568
0.067900323
0.066395875
0.064708485
0.062797858
0.060618934
0.058138299
0.055332618
0.05215
0.048547349
0.044502604
0.039975675
0.034916251
0.029292695
0.023077107
0.016253889
0.0088233497
0.00078404436
-0.0078459215
-0.017028511
-0.026715015
-0.036855693
-0.047374186
-0.058182332
-0.069195705
-0.080311687
-0.091426396
-0.10244623
-0.11326945
-0.12383423
-0.13406127
-0.14387378
-0.15321846
-0.16208392
-0.17042336
-0.17822222
-0.18550742
-0.19230888
-0.19857835
-0.20441113
-0.20977454
-0.21474993
-0.21931529
-0.22357453
0.069858513
0.069081858
0.06827802
0.06735936
0.066333443
0.06516646
0.063861525
0.062367108
0.060692448
0.058799655
0.056646672
0.05420161
0.051441395
0.048317598
0.044789661
0.040835538
0.036417324
0.031488516
0.026019516
0.019984451
0.013368973
0.0061734448
-0.0016024644
-0.0099406804
-0.018804842
-0.02814813
-0.037922043
-0.048053017
-0.058456901
-0.069052171
-0.079740227
-0.090421444
-0.10100528
-0.11139423
-0.12152705
-0.13132706
-0.14072088
-0.14965745
-0.15812424
-0.166078
-0.17350557
-0.18043168
-0.18688426
-0.19282245
-0.19833369
-0.20339128
-0.20807131
-0.21235459
-0.21634198
0.06593482
0.065165215
0.064365019
0.063451953
0.062432907
0.061275891
0.059982545
0.058505351
0.056850878
0.054983481
0.052863874
0.050461625
0.047753985
0.044695734
0.041248682
0.037390913
0.0330866
0.028292741
0.022981621
0.017129233
0.010722345
0.0037613628
-0.0037532235
-0.011803392
-0.020354619
-0.029362006
-0.038778438
-0.048533432
-0.058546785
-0.068739977
-0.079018475
-0.089286789
-0.0994574
-0.10943679
-0.11916421
-0.1285653
-0.13756954
-0.14612764
-0.15422573
-0.16182349
-0.16890869
-0.17550381
-0.18163462
-0.18726674
-0.19248002
-0.19725312
-0.20165703
-0.20567558
-0.20940598
0.06212544
0.06136823
0.060577574
0.059676139
0.058670223
0.057529527
0.056254399
0.054800987
0.053173508
0.051338419
0.049258997
0.046906202
0.044257667
0.041271151
0.037910679
0.03415456
0.029968948
0.025314055
0.020163919
0.014496245
0.0082987953
0.0015720044
-0.0056830664
-0.013448489
-0.021691765
-0.030369961
-0.039437482
-0.048827199
-0.058462826
-0.068269055
-0.078155421
-0.088030595
-0.097810093
-0.10740414
-0.11675246
-0.12578267
-0.13442661
-0.14263626
-0.15039616
-0.15766834
-0.16444126
-0.17073528
-0.17657431
-0.18193016
-0.18687615
-0.19139621
-0.19555691
-0.19934492
-0.20285407
0.058427001
0.0576868
0.05691086
0.056026373
0.055039141
0.053920426
0.05266945
0.051245712
0.049651365
0.04785483
0.045821765
0.04352446
0.040940983
0.038031861
0.034763194
0.031113597
0.027051106
0.022538899
0.017552639
0.012071606
0.0060844527
-0.00040838902
-0.0074054878
-0.014889093
-0.022828864
-0.031183886
-0.039910274
-0.048944483
-0.058214212
-0.067647518
-0.07715816
-0.086659006
-0.096068693
-0.10530107
-0.11429627
-0.1229836
-0.13129672
-0.13918832
-0.14664101
-0.15361845
-0.16010912
-0.16613083
-0.17170512
-0.17680871
-0.18150812
-0.1857916
-0.18972116
-0.19328662
-0.19657773
0.054836819
0.054117654
0.053360991
0.052498134
0.051534484
0.05044275
0.049221181
0.047832339
0.046276583
0.044524178
0.042542998
0.040306614
0.037793575
0.034966984
0.031794885
0.028256269
0.024320961
0.019954869
0.015135173
0.0098426098
0.0040666205
-0.0021923816
-0.0089327862
-0.016137094
-0.023777244
-0.031814379
-0.040206544
-0.048894014
-0.057808529
-0.066881782
-0.076031883
-0.085176104
-0.094236368
-0.10313003
-0.11179772
-0.12017006
-0.12818209
-0.13578665
-0.14296414
-0.14967921
-0.15592005
-0.16170213
-0.16704521
-0.17193097
-0.17642078
-0.18050747
-0.18424969
-0.18763971
-0.19076442
0.051354068
0.050659153
0.049925509
0.049088169
0.048152229
0.047091726
0.045904077
0.044554647
0.043042246
0.041338865
0.039414451
0.037243815
0.034806028
0.032066592
0.028995381
0.025571809
0.021767396
0.01755057
0.012899931
0.0077975656
0.0022336276
-0.003791517
-0.010276229
-0.01720333
-0.024547154
-0.03227092
-0.040334832
-0.048683204
-0.05725195
-0.065976613
-0.074779963
-0.083583931
-0.092313977
-0.10089103
-0.10925619
-0.11734125
-0.1250821
-0.13243121
-0.13936625
-0.14585189
-0.151875
-0.15744766
-0.16258655
-0.16727609
-0.17157125
-0.17546761
-0.1790197
-0.18222286
-0.18516007
0.04797736
0.047309482
0.046602065
0.04579358
0.044888864
0.043863208
0.042713319
0.041407149
0.039942183
0.038292052
0.036428651
0.034327994
0.031969721
0.029321573
0.02635514
0.023050296
0.019380163
0.015315487
0.010836205
0.0059256744
0.00057469526
-0.0052164235
-0.011446153
-0.018097676
-0.025147846
-0.032561947
-0.040302572
-0.048318301
-0.056549296
-0.064935293
-0.073404011
-0.081882497
-0.090300095
-0.098581374
-0.10666815
-0.11449321
-0.12199299
-0.1291191
-0.13584611
-0.14213807
-0.14798027
-0.15338183
-0.15835757
-0.1628957
-0.16704761
-0.17081296
-0.17424431
-0.17733842
-0.18017725
0.044707865
0.044068865
0.04338989
0.042612688
0.041741839
0.040753836
0.039644771
0.038384986
0.036970837
0.035377513
0.033578741
0.031551719
0.029276691
0.026723493
0.023865324
0.020682541
0.017149764
0.013239878
0.0089340784
0.0042169345
-0.00092014154
-0.0064769127
-0.012452055
-0.018829146
-0.025587671
-0.032694929
-0.040116144
-0.04780435
-0.055704075
-0.063759531
-0.07190387
-0.080069764
-0.088190846
-0.096195611
-0.10402683
-0.11161841
-0.11890712
-0.12584319
-0.13239749
-0.13853202
-0.14422868
-0.14949145
-0.15433029
-0.15873298
-0.16274371
-0.16636264
-0.16963795
-0.17256966
-0.17523586
0.041543923
0.040935603
0.040286977
0.03954316
0.038708356
0.037760286
0.036694502
0.035483618
0.034123031
0.03258945
0.030858341
0.028908064
0.026719513
0.024264486
0.021517693
0.018459986
0.015067373
0.011314689
0.0071843181
0.002662013
-0.0022602193
-0.007582214
-0.01330293
-0.01940633
-0.0258746
-0.0326769
-0.039781354
-0.047145628
-0.05471868
-0.062449612
-0.070277518
-0.078141391
-0.085979602
-0.093724923
-0.10132166
-0.10870515
-0.11581257
-0.12259255
-0.12901192
-0.13503014
-0.14062571
-0.14579863
-0.15055667
-0.15489052
-0.1588427
-0.16241752
-0.16566295
-0.16857893
-0.17124479
0.038488832
0.037911656
0.037293928
0.036584402
0.035786737
0.034879934
0.033859047
0.032698845
0.031393895
0.029922387
0.028261419
0.026390495
0.024291191
0.021937156
0.019304516
0.016374609
0.0131247
0.0095313803
0.0055781529
0.0012519694
-0.0034545461
-0.0085413016
-0.014007558
-0.019837638
-0.026016476
-0.03251487
-0.039304089
-0.046346468
-0.05359544
-0.061005378
-0.06852201
-0.076091385
-0.083657106
-0.091156917
-0.098537502
-0.10573645
-0.11269155
-0.11934955
-0.1256724
-0.13161498
-0.13714929
-0.1422669
-0.14696686
-0.15123434
-0.15510116
-0.1585684
-0.16167753
-0.1644333
-0.16690886
0.035538844
0.034993859
0.034407806
0.033733551
0.032973953
0.032109425
0.031134589
0.030026344
0.02877857
0.027370945
0.025782125
0.023992738
0.021985066
0.019734491
0.017218454
0.014418766
0.011313828
0.0078817952
0.0041072346
-2.162265e-05
-0.0045114653
-0.0093622418
-0.014573481
-0.020129862
-0.026019256
-0.032213955
-0.038688592
-0.045409939
-0.052335787
-0.059426197
-0.066634036
-0.073913164
-0.081212861
-0.088476827
-0.095655596
-0.1026903
-0.10952027
-0.11609067
-0.12235872
-0.12827469
-0.13380503
-0.13893591
-0.14366371
-0.14797655
-0.15190718
-0.1554622
-0.15868518
-0.1615783
-0.16421803
0.032701155
0.032186907
0.031631157
0.030991206
0.030268996
0.029446425
0.028517735
0.027461886
0.026272186
0.02492977
0.023414738
0.021708768
0.019794811
0.017649855
0.015252585
0.012585315
0.009627496
0.0063586553
0.0027643126
-0.0011658899
-0.0054378379
-0.010051499
-0.01500658
-0.020288168
-0.02588714
-0.031776925
-0.037935978
-0.044335166
-0.050936627
-0.057706549
-0.064605448
-0.071595416
-0.078631781
-0.085665604
-0.092652901
-0.099540081
-0.10626898
-0.1127837
-0.11903627
-0.12496993
-0.1305405
-0.13571985
-0.14048774
-0.1448171
-0.14872096
-0.15219518
-0.15527106
-0.15795958
-0.16032492
0.029967028
0.029483734
0.028958253
0.028352465
0.027667369
0.026886473
0.026003857
0.025000578
0.023869576
0.022593422
0.021153573
0.019532677
0.017714328
0.015677015
0.013400601
0.010867919
0.0080593241
0.0049553715
0.0015423354
-0.0021884917
-0.0062420562
-0.010618414
-0.015317395
-0.02032442
-0.025632596
-0.03121527
-0.03705542
-0.043127773
-0.04939879
-0.055841711
-0.062425517
-0.069120811
-0.075889593
-0.08269257
-0.089493491
-0.096245992
-0.10289581
-0.10938729
-0.11566866
-0.12167819
-0.12736529
-0.13269604
-0.13764814
-0.1421992
-0.14636773
-0.15015815
-0.15360787
-0.15671906
-0.15956467
0.027351291
0.026894125
0.026394896
0.025819591
0.025168685
0.024427202
0.023589178
0.022637579
0.021565105
0.020355715
0.018992179
0.017458045
0.015737403
0.013809918
0.011656323
0.0092598166
0.0066014948
0.0036627359
0.00043055163
-0.0031016686
-0.0069378035
-0.011078072
-0.015522202
-0.020255816
-0.025273915
-0.030549195
-0.036069294
-0.041811056
-0.047744902
-0.053851845
-0.060108372
-0.066494384
-0.072979348
-0.079537125
-0.086142217
-0.09275891
-0.099339424
-0.10583083
-0.11217802
-0.11831097
-0.12416292
-0.12967561
-0.13479512
-0.13946477
-0.14366321
-0.14736677
-0.15058609
-0.15333742
-0.15566897
0.024832684
0.024401366
0.023928159
0.023382442
0.022764445
0.022060741
0.021265846
0.020364917
0.019350949
0.018209352
0.016924056
0.015479113
0.013858615
0.012042865
0.010013169
0.0077532691
0.0052455214
0.0024725295
-0.0005779384
-0.0039099465
-0.0075260478
-0.011426372