/*--------------------------------*- C++ -*----------------------------------*\
| =========                 |                                                 |
| \\      /  F ield         | OpenFOAM: The Open Source CFD Toolbox           |
|  \\    /   O peration     | Version:  v2006                                 |
|   \\  /    A nd           | Website:  www.openfoam.com                      |
|    \\/     M anipulation  |                                                 |
\*---------------------------------------------------------------------------*/
FoamFile
{
    version     2.0;
    format      ascii;
    class       volScalarField;
    location    "1500";
    object      k;
}
// * * * * * * * * * * * * * * * * * * * * * * * * * * * * * * * * * * * * * //

dimensions      [0 2 -2 0 0 0 0];


internalField   nonuniform List<scalar> 
19765
(
0.00015541971
0.00015832363
0.00016124695
0.00016419024
0.00016746024
0.00017059903
0.00017440296
0.0001774602
0.00018163166
0.00018416723
0.00018640931
0.00018911092
0.00019181221
0.00019366547
0.00019588266
0.00019854
0.00020081653
0.00020281544
0.0002053235
0.00020811771
0.00021096313
0.00021347987
0.00021618685
0.00021926719
0.00022218417
0.00022446497
0.00022701927
0.0002299711
0.00023246667
0.00023500928
0.00023789566
0.00024118742
0.00024526534
0.00024807269
0.00024973845
0.0002522834
0.00025605927
0.00025865941
0.0002621382
0.00026724557
0.00027109714
0.00027234817
0.00027529246
0.00027545364
0.00027593412
0.00027572308
0.00027498959
0.0002734891
0.00027119123
0.00015710338
0.00015969605
0.00016331652
0.00017145303
0.00017916022
0.00018706942
0.00019393982
0.00020306934
0.00021052038
0.00022042131
0.00023135207
0.00024023859
0.00024670634
0.00025235219
0.00025613888
0.00025741722
0.00025846933
0.00026035362
0.00026260793
0.00026499962
0.00026794603
0.00027156089
0.0002749605
0.00027872163
0.00028464018
0.00029263517
0.00030000542
0.00030738437
0.0003169463
0.00032681626
0.00033608506
0.00034437664
0.0003512616
0.00036100606
0.00037236911
0.00038085376
0.0003862597
0.00039297725
0.00039620756
0.00039588926
0.00039854045
0.00040146011
0.00039659498
0.00039537327
0.00039149913
0.00038705758
0.00037959313
0.0003699765
0.00035902843
1.6669142e-05
1.602325e-05
1.56668e-05
1.6417412e-05
1.6848358e-05
1.7252232e-05
1.7328255e-05
1.7807789e-05
1.780067e-05
1.8288595e-05
1.888133e-05
1.9049343e-05
1.8860052e-05
1.8686537e-05
1.8275319e-05
1.7634556e-05
1.7209957e-05
1.6962626e-05
1.6725745e-05
1.650371e-05
1.6463327e-05
1.6655793e-05
1.6798e-05
1.6947826e-05
1.7485758e-05
1.8550284e-05
1.9649032e-05
2.0795314e-05
2.2421902e-05
2.4262166e-05
2.6148171e-05
2.7997903e-05
2.9659707e-05
3.2121588e-05
3.5341232e-05
3.8295705e-05
4.0673546e-05
4.3748744e-05
4.6329544e-05
4.7719829e-05
4.9705581e-05
5.3366077e-05
5.5259521e-05
5.8619532e-05
6.0874713e-05
6.6643119e-05
7.4408837e-05
8.4090619e-05
9.1878744e-05
3.7520163e-07
3.3578158e-07
3.1541657e-07
3.1904379e-07
3.1965641e-07
3.2073733e-07
3.1728222e-07
3.1997891e-07
3.1563104e-07
3.1722712e-07
3.2023028e-07
3.1764616e-07
3.1035041e-07
3.0398142e-07
2.9570028e-07
2.8501439e-07
2.7795136e-07
2.7447687e-07
2.7115988e-07
2.6743872e-07
2.6722181e-07
2.7132593e-07
2.7404324e-07
2.7752273e-07
2.8698932e-07
3.0437419e-07
3.2341414e-07
3.4448636e-07
3.7347995e-07
4.0750809e-07
4.4487441e-07
4.8464715e-07
5.2527648e-07
5.822268e-07
6.5699033e-07
7.3465571e-07
8.1085871e-07
9.0795633e-07
1.0032425e-06
1.0839826e-06
1.1902953e-06
1.351289e-06
1.4931319e-06
1.7222437e-06
1.9483549e-06
2.2738362e-06
2.6663231e-06
3.1586841e-06
3.7384767e-06
7.4491196e-08
7.4455221e-08
7.5022469e-08
7.6924254e-08
7.8466498e-08
7.9969617e-08
8.1032796e-08
8.2564521e-08
8.3421035e-08
8.4840253e-08
8.6415498e-08
8.7472578e-08
8.8099798e-08
8.8828532e-08
8.9294971e-08
8.943684e-08
8.9967867e-08
9.0914549e-08
9.1740843e-08
9.2466979e-08
9.349514e-08
9.4821556e-08
9.6142392e-08
9.77286e-08
1.0003603e-07
1.0332632e-07
1.0685861e-07
1.1057259e-07
1.1509453e-07
1.2004851e-07
1.2516501e-07
1.3030841e-07
1.3517163e-07
1.4105783e-07
1.4795609e-07
1.5450859e-07
1.6021045e-07
1.6661441e-07
1.7229671e-07
1.7646042e-07
1.8128029e-07
1.8798115e-07
1.9284213e-07
2.0026286e-07
2.0657699e-07
2.1489076e-07
2.2347517e-07
2.3040564e-07
2.3601537e-07
5.2889973e-08
5.3029611e-08
5.3440429e-08
5.4391062e-08
5.5141368e-08
5.5897522e-08
5.6488361e-08
5.7253046e-08
5.7741136e-08
5.848466e-08
5.9213907e-08
5.9713071e-08
6.00716e-08
6.0470564e-08
6.0761773e-08
6.0982468e-08
6.1403216e-08
6.198653e-08
6.2528785e-08
6.3070522e-08
6.3744273e-08
6.4531006e-08
6.545406e-08
6.6552785e-08
6.7952279e-08
6.9801803e-08
7.1823683e-08
7.3955824e-08
7.6457889e-08
7.9214162e-08
8.2102922e-08
8.5078547e-08
8.7951588e-08
9.1186406e-08
9.4900958e-08
9.8648742e-08
1.0203741e-07
1.0564652e-07
1.0912834e-07
1.1198799e-07
1.1481661e-07
1.185789e-07
1.2165111e-07
1.2575225e-07
1.2958312e-07
1.3425004e-07
1.3938305e-07
1.4501751e-07
1.5007437e-07
4.1158264e-08
4.114855e-08
4.1271598e-08
4.1668669e-08
4.1978144e-08
4.2298869e-08
4.2551581e-08
4.289724e-08
4.3122856e-08
4.3477053e-08
4.3836449e-08
4.4096047e-08
4.4297185e-08
4.4525268e-08
4.4710948e-08
4.4871233e-08
4.5138463e-08
4.549995e-08
4.5859143e-08
4.6233237e-08
4.6668362e-08
4.71519e-08
4.7719002e-08
4.8401709e-08
4.9251424e-08
5.0330126e-08
5.1502865e-08
5.2751853e-08
5.4200763e-08
5.5788872e-08
5.7460957e-08
5.9192349e-08
6.0898355e-08
6.2797054e-08
6.4934891e-08
6.7095343e-08
6.9105773e-08
7.123187e-08
7.3307447e-08
7.5105888e-08
7.691148e-08
7.9133943e-08
8.1046333e-08
8.340406e-08
8.5622853e-08
8.817488e-08
9.0871052e-08
9.3729706e-08
9.634898e-08
3.504534e-08
3.5041334e-08
3.5110308e-08
3.5331607e-08
3.5503842e-08
3.5681852e-08
3.5822675e-08
3.6013154e-08
3.6140468e-08
3.6337158e-08
3.6537839e-08
3.6689613e-08
3.6815406e-08
3.6959797e-08
3.708808e-08
3.7211034e-08
3.7397062e-08
3.7639426e-08
3.7890444e-08
3.8162114e-08
3.8477996e-08
3.8829965e-08
3.9243316e-08
3.9733825e-08
4.0324938e-08
4.1050381e-08
4.1839667e-08
4.268504e-08
4.3654245e-08
4.471523e-08
4.5838218e-08
4.7009826e-08
4.8183592e-08
4.9476565e-08
5.091662e-08
5.2388137e-08
5.3793906e-08
5.527597e-08
5.6747397e-08
5.80812e-08
5.9425739e-08
6.1019383e-08
6.2460554e-08
6.4174396e-08
6.5843235e-08
6.7740375e-08
6.9774557e-08
7.1970451e-08
7.4087222e-08
3.1197204e-08
3.1183362e-08
3.1212739e-08
3.1333961e-08
3.1428372e-08
3.1528072e-08
3.1608374e-08
3.1719243e-08
3.1796312e-08
3.1915206e-08
3.2038943e-08
3.2138153e-08
3.2226198e-08
3.2328266e-08
3.24252e-08
3.2523668e-08
3.2662435e-08
3.2837938e-08
3.3023904e-08
3.3227524e-08
3.346079e-08
3.3717713e-08
3.4014204e-08
3.4363605e-08
3.4779284e-08
3.5278747e-08
3.5821925e-08
3.6405903e-08
3.7069618e-08
3.7794431e-08
3.8563884e-08
3.9370159e-08
4.0187152e-08
4.108088e-08
4.2066241e-08
4.3076443e-08
4.4056845e-08
4.5086774e-08
4.6116047e-08
4.7071506e-08
4.8037883e-08
4.9145058e-08
5.0167351e-08
5.1339958e-08
5.248333e-08
5.3746818e-08
5.5074882e-08
5.6476201e-08
5.7813051e-08
2.8756294e-08
2.875161e-08
2.8772341e-08
2.88501e-08
2.8911017e-08
2.8975428e-08
2.9028397e-08
2.9100611e-08
2.9153372e-08
2.9232623e-08
2.9316166e-08
2.9387041e-08
2.9453616e-08
2.9530983e-08
2.9608097e-08
2.9689429e-08
2.9798061e-08
2.9931946e-08
3.0075969e-08
3.0234854e-08
3.0415968e-08
3.0615602e-08
3.0842931e-08
3.110731e-08
3.1417508e-08
3.178344e-08
3.2181028e-08
3.2609304e-08
3.3092688e-08
3.3620098e-08
3.4181734e-08
3.4772948e-08
3.5377731e-08
3.6036595e-08
3.675934e-08
3.7505021e-08
3.8239101e-08
3.9010038e-08
3.9787226e-08
4.0524018e-08
4.1271208e-08
4.211253e-08
4.290601e-08
4.3800469e-08
4.468425e-08
4.5653712e-08
4.6676634e-08
4.7764768e-08
4.8821861e-08
2.7097452e-08
2.7098509e-08
2.7115457e-08
2.7169695e-08
2.7213408e-08
2.7259857e-08
2.7299631e-08
2.7352352e-08
2.7393722e-08
2.7452857e-08
2.7515925e-08
2.757263e-08
2.7628383e-08
2.7692637e-08
2.7758675e-08
2.7829485e-08
2.7919424e-08
2.8027275e-08
2.8143852e-08
2.8272141e-08
2.8416732e-08
2.8575205e-08
2.8752899e-08
2.8956541e-08
2.9192638e-08
2.9466932e-08
2.9764226e-08
3.0084483e-08
3.0443535e-08
3.0834509e-08
3.1251443e-08
3.1691478e-08
3.2144585e-08
3.2636429e-08
3.3173262e-08
3.3728781e-08
3.4280831e-08
3.4859765e-08
3.5445781e-08
3.6008301e-08
3.6579473e-08
3.7211395e-08
3.7813553e-08
3.8479174e-08
3.9136971e-08
3.9846828e-08
4.0587258e-08
4.1364563e-08
4.2114876e-08
2.5941557e-08
2.5950036e-08
2.5968238e-08
2.601125e-08
2.6047299e-08
2.6085439e-08
2.6119583e-08
2.6162732e-08
2.619919e-08
2.6248019e-08
2.6300355e-08
2.6349812e-08
2.6399985e-08
2.6456968e-08
2.6516556e-08
2.6580762e-08
2.6658724e-08
2.6749672e-08
2.6847828e-08
2.6955103e-08
2.707443e-08
2.720431e-08
2.7347826e-08
2.7509566e-08
2.7694571e-08
2.7906339e-08
2.8134945e-08
2.8380802e-08
2.8654678e-08
2.8952291e-08
2.9269958e-08
2.9606014e-08
2.9953996e-08
3.033098e-08
3.0741383e-08
3.1167785e-08
3.1595167e-08
3.2043525e-08
3.2499675e-08
3.2942569e-08
3.3393056e-08
3.3886733e-08
3.436217e-08
3.4882396e-08
3.5399398e-08
3.5954127e-08
3.6532531e-08
3.7140929e-08
3.7731589e-08
2.5112635e-08
2.5126966e-08
2.5147422e-08
2.5184922e-08
2.5217861e-08
2.5252557e-08
2.5284989e-08
2.5324e-08
2.53592e-08
2.5403373e-08
2.5450738e-08
2.549723e-08
2.5545257e-08
2.5598824e-08
2.5655208e-08
2.5715719e-08
2.5786255e-08
2.5866281e-08
2.5952024e-08
2.6044645e-08
2.6145994e-08
2.625507e-08
2.6373605e-08
2.6504732e-08
2.6652406e-08
2.6818758e-08
2.69972e-08
2.7188362e-08
2.7399736e-08
2.7628634e-08
2.787283e-08
2.8131439e-08
2.8400292e-08
2.8691002e-08
2.9006698e-08
2.9335537e-08
2.966719e-08
3.0015056e-08
3.0370065e-08
3.0717413e-08
3.1071046e-08
3.1454895e-08
3.1826748e-08
3.2229064e-08
3.2628842e-08
3.3053505e-08
3.349306e-08
3.3951664e-08
3.4394625e-08
2.4506029e-08
2.4525817e-08
2.4549384e-08
2.4584847e-08
2.4617327e-08
2.4651362e-08
2.4684268e-08
2.4722188e-08
2.4758143e-08
2.4800847e-08
2.4846498e-08
2.4892478e-08
2.4940395e-08
2.4992891e-08
2.5048152e-08
2.5106976e-08
2.5173145e-08
2.5246247e-08
2.5323718e-08
2.5406194e-08
2.5494793e-08
2.5588755e-08
2.5688993e-08
2.5797651e-08
2.5917794e-08
2.6050716e-08
2.619201e-08
2.6342411e-08
2.650726e-08
2.6684933e-08
2.687422e-08
2.7074805e-08
2.7283995e-08
2.750989e-08
2.7754836e-08
2.8010697e-08
2.8270227e-08
2.8542702e-08
2.8821808e-08
2.9096901e-08
2.9377443e-08
2.9680356e-08
2.9975628e-08
3.0293101e-08
3.0609407e-08
3.0943914e-08
3.1289524e-08
3.1649923e-08
3.1998051e-08
2.4055702e-08
2.4080069e-08
2.4106803e-08
2.4142057e-08
2.4175476e-08
2.421038e-08
2.4244965e-08
2.4283576e-08
2.4321469e-08
2.4364649e-08
2.4410614e-08
2.4457661e-08
2.4506831e-08
2.4559853e-08
2.4615473e-08
2.4674093e-08
2.4738076e-08
2.4807052e-08
2.48792e-08
2.4954756e-08
2.503432e-08
2.511722e-08
2.520384e-08
2.529564e-08
2.5394962e-08
2.5502559e-08
2.5615485e-08
2.573452e-08
2.5863512e-08
2.6001611e-08
2.6148352e-08
2.6303747e-08
2.6466032e-08
2.6640954e-08
2.6830358e-08
2.7028667e-08
2.7230808e-08
2.7443301e-08
2.7661693e-08
2.7878224e-08
2.8099412e-08
2.8337139e-08
2.8569848e-08
2.8818495e-08
2.9066277e-08
2.9326713e-08
2.9594511e-08
2.987235e-08
3.01394e-08
2.3717161e-08
2.3745659e-08
2.377564e-08
2.3811853e-08
2.384708e-08
2.3883799e-08
2.3920805e-08
2.396121e-08
2.4001783e-08
2.4046669e-08
2.4094246e-08
2.4143398e-08
2.419476e-08
2.4249422e-08
2.4306478e-08
2.436602e-08
2.442942e-08
2.4496305e-08
2.4565303e-08
2.4636342e-08
2.470963e-08
2.4784505e-08
2.486099e-08
2.4940061e-08
2.5023465e-08
2.51116e-08
2.5202519e-08
2.5297015e-08
2.5397891e-08
2.5504955e-08
2.5618241e-08
2.573785e-08
2.586266e-08
2.5996931e-08
2.6142279e-08
2.6294955e-08
2.645142e-08
2.6616339e-08
2.678656e-08
2.6956374e-08
2.7130295e-08
2.7316882e-08
2.750038e-08
2.7695839e-08
2.7890977e-08
2.8095505e-08
2.8305451e-08
2.8523071e-08
2.8731686e-08
2.346104e-08
2.3493201e-08
2.3526345e-08
2.3564194e-08
2.3601729e-08
2.3640828e-08
2.3680703e-08
2.3723607e-08
2.3767341e-08
2.3814753e-08
2.3864823e-08
2.3916817e-08
2.3971063e-08
2.4028194e-08
2.4087516e-08
2.4148869e-08
2.421291e-08
2.4279235e-08
2.4346735e-08
2.4415085e-08
2.4484184e-08
2.4553334e-08
2.4622295e-08
2.4691689e-08
2.4762774e-08
2.4835706e-08
2.4909235e-08
2.4984138e-08
2.5062502e-08
2.5144751e-08
2.5231054e-08
2.5321466e-08
2.5415512e-08
2.5516588e-08
2.562617e-08
2.5741774e-08
2.5860933e-08
2.5987008e-08
2.611777e-08
2.6249011e-08
2.6383881e-08
2.6528525e-08
2.6671368e-08
2.6823208e-08
2.6974977e-08
2.7133594e-08
2.7295991e-08
2.7463893e-08
2.7624004e-08
2.3266373e-08
2.3301927e-08
2.3338208e-08
2.3378166e-08
2.341836e-08
2.3460239e-08
2.3503306e-08
2.3549207e-08
2.359646e-08
2.3646993e-08
2.37002e-08
2.3755596e-08
2.3813275e-08
2.387353e-08
2.3935791e-08
2.3999687e-08
2.4065343e-08
2.4132301e-08
2.4199597e-08
2.4266689e-08
2.4333226e-08
2.4398437e-08
2.4461884e-08
2.4523928e-08
2.4585416e-08
2.464633e-08
2.4705923e-08
2.4764938e-08
2.4825012e-08
2.4887137e-08
2.4951098e-08
2.5017176e-08
2.5085713e-08
2.5159492e-08
2.5239776e-08
2.5324935e-08
2.5413289e-08
2.5507316e-08
2.5605496e-08
2.5704756e-08
2.5807311e-08
2.5917633e-08
2.6027155e-08
2.6143708e-08
2.6260537e-08
2.6382639e-08
2.6507619e-08
2.6636897e-08
2.675964e-08
2.311866e-08
2.3157391e-08
2.3196766e-08
2.3239149e-08
2.3282245e-08
2.3327189e-08
2.3373689e-08
2.3422956e-08
2.3474013e-08
2.3528123e-08
2.3584968e-08
2.3644224e-08
2.3705797e-08
2.3769724e-08
2.3835496e-08
2.3902561e-08
2.3970634e-08
2.4039189e-08
2.4107325e-08
2.4174311e-08
2.4239576e-08
2.4302261e-08
2.4361767e-08
2.4418258e-08
2.4472229e-08
2.4523538e-08
2.4571801e-08
2.4617726e-08
2.4662727e-08
2.4708208e-08
2.475302e-08
2.4798612e-08
2.4845912e-08
2.4896931e-08
2.4952681e-08
2.5012216e-08
2.5074519e-08
2.5141494e-08
2.5212174e-08
2.528435e-08
2.5359585e-08
2.5441122e-08
2.5522616e-08
2.5609725e-08
2.5697388e-08
2.5789177e-08
2.5883187e-08
2.5980528e-08
2.6072382e-08
2.3007233e-08
2.3049027e-08
2.3091502e-08
2.3136569e-08
2.3182775e-08
2.3231022e-08
2.3281172e-08
2.3334116e-08
2.3389237e-08
2.3447308e-08
2.3508216e-08
2.3571733e-08
2.3637617e-08
2.3705699e-08
2.3775492e-08
2.3846282e-08
2.391746e-08
2.3988416e-08
2.4058261e-08
2.4126087e-08
2.4191134e-08
2.4252434e-08
2.4309253e-08
2.4361599e-08
2.4409671e-08
2.4453231e-08
2.4492163e-08
2.4527151e-08
2.4559561e-08
2.4590889e-08
2.4618889e-08
2.4647472e-08
2.4676875e-08
2.4708391e-08
2.4743063e-08
2.4780605e-08
2.4820559e-08
2.4864432e-08
2.4911673e-08
2.4960732e-08
2.5012713e-08
2.506997e-08
2.5127813e-08
2.5190332e-08
2.5253721e-08
2.5320535e-08
2.5389246e-08
2.5460747e-08
2.552778e-08
2.2924438e-08
2.2969232e-08
2.3014834e-08
2.3062796e-08
2.3112295e-08
2.3164059e-08
2.3218062e-08
2.3274958e-08
2.3334392e-08
2.3396769e-08
2.3462119e-08
2.3530272e-08
2.3600858e-08
2.3673541e-08
2.3747828e-08
2.3822854e-08
2.3897745e-08
2.3971799e-08
2.4044094e-08
2.411356e-08
2.4179263e-08
2.4240118e-08
2.429527e-08
2.434459e-08
2.4388039e-08
2.4425294e-08
2.4456436e-08
2.4482156e-08
2.4503848e-08
2.4522613e-08
2.4536318e-08
2.4550686e-08
2.4564221e-08
2.457847e-08
2.4594717e-08
2.4613146e-08
2.463369e-08
2.4657561e-08
2.4684528e-08
2.4713557e-08
2.4745433e-08
2.4781853e-08
2.4819384e-08
2.4860952e-08
2.4903694e-08
2.4949408e-08
2.4996848e-08
2.504671e-08
2.5093022e-08
2.2864551e-08
2.2912344e-08
2.2961138e-08
2.3012195e-08
2.3065171e-08
2.3120663e-08
2.3178728e-08
2.3239844e-08
2.3303845e-08
2.3370859e-08
2.3441012e-08
2.3514164e-08
2.3589837e-08
2.3667549e-08
2.3746781e-08
2.3826528e-08
2.3905688e-08
2.3983459e-08
2.4058858e-08
2.4130658e-08
2.4197761e-08
2.4258961e-08
2.4313284e-08
2.4360485e-08
2.4400327e-08
2.4432408e-08
2.4456959e-08
2.4474709e-08
2.4487019e-08
2.4493711e-08
2.4498224e-08
2.4498038e-08
2.4496937e-08
2.4495911e-08
2.4495971e-08
2.4497591e-08
2.4501031e-08
2.450732e-08
2.4516494e-08
2.4527934e-08
2.4542207e-08
2.4560533e-08
2.4580436e-08
2.4603986e-08
2.4629038e-08
2.4656833e-08
2.4686349e-08
2.4718125e-08
2.4747226e-08
2.2823372e-08
2.2874203e-08
2.2926279e-08
2.2980625e-08
2.3037267e-08
2.3096701e-08
2.3159047e-08
2.3224652e-08
2.3293487e-08
2.3365465e-08
2.3440778e-08
2.3519295e-08
2.3600439e-08
2.3683603e-08
2.3768223e-08
2.3853162e-08
2.3937115e-08
2.401917e-08
2.4098264e-08
2.4173014e-08
2.4242167e-08
2.4304386e-08
2.4358586e-08
2.4404408e-08
2.4441458e-08
2.4469259e-08
2.4488157e-08
2.4498931e-08
2.4502816e-08
2.4495262e-08
2.4490542e-08
2.448062e-08
2.4467375e-08
2.4452733e-08
2.4438224e-08
2.4424741e-08
2.4412831e-08
2.4403402e-08
2.4396704e-08
2.4392455e-08
2.4391074e-08
2.4393431e-08
2.4397791e-08
2.4405585e-08
2.4415214e-08
2.4427506e-08
2.4441606e-08
2.4457918e-08
2.4472369e-08
2.279775e-08
2.2851695e-08
2.2907173e-08
2.2965011e-08
2.3025521e-08
2.3089124e-08
2.3155989e-08
2.3226362e-08
2.3300314e-08
2.3377592e-08
2.3458427e-08
2.3542684e-08
2.3629693e-08
2.3718737e-08
2.3809189e-08
2.3899785e-08
2.3989034e-08
2.4075909e-08
2.4159247e-08
2.423751e-08
2.4309289e-08
2.4373117e-08
2.4427793e-08
2.4472855e-08
2.4507775e-08
2.4532003e-08
2.4545981e-08
2.4550538e-08
2.4546329e-08
2.4535656e-08
2.4518012e-08
2.4495528e-08
2.4469961e-08
2.4442642e-08
2.4414854e-08
2.4387635e-08
2.4361747e-08
2.4338036e-08
2.4316949e-08
2.4298486e-08
2.4282974e-08
2.4271032e-08
2.4261498e-08
2.4255329e-08
2.4251347e-08
2.4250069e-08
2.4250778e-08
2.425376e-08
2.4255657e-08
2.2785359e-08
2.2842528e-08
2.2901553e-08
2.2963093e-08
2.302769e-08
2.3095704e-08
2.3167345e-08
2.324278e-08
2.3322154e-08
2.3405081e-08
2.3491814e-08
2.35822e-08
2.3675485e-08
2.3770843e-08
2.386758e-08
2.3964301e-08
2.4059344e-08
2.4151555e-08
2.4239657e-08
2.4321955e-08
2.4396886e-08
2.4462848e-08
2.4518522e-08
2.4563345e-08
2.4596675e-08
2.4617895e-08
2.4627522e-08
2.4626402e-08
2.4615386e-08
2.4595569e-08
2.4568734e-08
2.4536415e-08
2.4500136e-08
2.4461217e-08
2.4421097e-08
2.4381093e-08
2.434221e-08
2.4305283e-08
2.4270928e-08
2.4239381e-08
2.4210915e-08
2.4185961e-08
2.4163813e-08
2.4145067e-08
2.4128876e-08
2.4115519e-08
2.4104387e-08
2.4095661e-08
2.4086587e-08
2.2784484e-08
2.2845013e-08
2.2907758e-08
2.2973226e-08
2.3042145e-08
2.3114833e-08
2.3191528e-08
2.327234e-08
2.3357465e-08
2.3446408e-08
2.3539433e-08
2.3636358e-08
2.3736348e-08
2.3838473e-08
2.394196e-08
2.4045285e-08
2.4146618e-08
2.4244671e-08
2.433804e-08
2.4424872e-08
2.4503446e-08
2.4572018e-08
2.4629151e-08
2.4674182e-08
2.4706368e-08
2.4725027e-08
2.4730743e-08
2.4724403e-08
2.470682e-08
2.467945e-08
2.4643914e-08
2.460188e-08
2.4555115e-08
2.4505035e-08
2.4453189e-08
2.44011e-08
2.4349966e-08
2.4300627e-08
2.4253853e-08
2.4210078e-08
2.4169551e-08
2.4132572e-08
2.4098794e-08
2.4068545e-08
2.4041233e-08
2.4016962e-08
2.3995207e-08
2.3976058e-08
2.3957269e-08
2.2793892e-08
2.2857947e-08
2.2924606e-08
2.2994244e-08
2.3067744e-08
2.3145387e-08
2.3227442e-08
2.3313965e-08
2.3405195e-08
2.3500546e-08
2.3600278e-08
2.3704176e-08
2.3811324e-08
2.3920688e-08
2.4031409e-08
2.414183e-08
2.4249957e-08
2.4354359e-08
2.4453494e-08
2.4545342e-08
2.4628022e-08
2.4699647e-08
2.4758655e-08
2.4804283e-08
2.4835695e-08
2.4852152e-08
2.4854292e-08
2.4843043e-08
2.4819267e-08
2.4784491e-08
2.4740509e-08
2.4689143e-08
2.4632319e-08
2.4571527e-08
2.4508432e-08
2.4444758e-08
2.4381887e-08
2.43207e-08
2.4262107e-08
2.4206719e-08
2.4154781e-08
2.4106504e-08
2.4061828e-08
2.4020882e-08
2.3983274e-08
2.3948971e-08
2.3917518e-08
2.388892e-08
2.3861369e-08
2.2812734e-08
2.2880503e-08
2.2951295e-08
2.3025365e-08
2.3103726e-08
2.3186632e-08
2.3274375e-08
2.3366972e-08
2.346469e-08
2.3566865e-08
2.3673746e-08
2.3785078e-08
2.3899862e-08
2.4016964e-08
2.4135425e-08
2.4253455e-08
2.4368892e-08
2.4480157e-08
2.4585554e-08
2.4682895e-08
2.4770132e-08
2.4845227e-08
2.4906492e-08
2.4953059e-08
2.4984009e-08
2.4998547e-08
2.499736e-08
2.4981426e-08
2.4951653e-08
2.4909695e-08
2.4857484e-08
2.4796984e-08
2.473029e-08
2.4659001e-08
2.4584913e-08
2.4509944e-08
2.4435653e-08
2.4362978e-08
2.4292964e-08
2.4226377e-08
2.4163478e-08
2.4104419e-08
2.4049373e-08
2.3998318e-08
2.3951022e-08
2.3907349e-08
2.3866897e-08
2.3829595e-08
2.3794012e-08
2.284047e-08
2.2912165e-08
2.2987336e-08
2.306612e-08
2.3149646e-08
2.3238147e-08
2.3331935e-08
2.3430995e-08
2.3535614e-08
2.364506e-08
2.3759562e-08
2.3878819e-08
2.400175e-08
2.4127114e-08
2.4253849e-08
2.4380024e-08
2.4503308e-08
2.4621961e-08
2.4734126e-08
2.4837437e-08
2.4929674e-08
2.5008641e-08
2.5072517e-08
2.5120332e-08
2.5151085e-08
2.5163928e-08
2.5159594e-08
2.5139114e-08
2.510346e-08
2.505441e-08
2.4994041e-08
2.4924472e-08
2.4847975e-08
2.4766271e-08
2.4681302e-08
2.4595173e-08
2.4509616e-08
2.4425646e-08
2.4344435e-08
2.4266895e-08
2.4193312e-08
2.4123807e-08
2.4058742e-08
2.3997982e-08
2.3941426e-08
2.3888854e-08
2.3839909e-08
2.3794446e-08
2.3751369e-08
2.287682e-08
2.2952679e-08
2.3032498e-08
2.3116302e-08
2.3205324e-08
2.329978e-08
2.34e-08
2.3505944e-08
2.361791e-08
2.3735105e-08
2.3857734e-08
2.3985443e-08
2.4117063e-08
2.425125e-08
2.4386824e-08
2.4521708e-08
2.4653398e-08
2.4779984e-08
2.4899435e-08
2.5009198e-08
2.5106875e-08
2.5190107e-08
2.5256935e-08
2.5306279e-08
2.5337061e-08
2.5348383e-08
2.5341023e-08
2.5316068e-08
2.5274566e-08
2.5218426e-08
2.5149875e-08
2.5071197e-08
2.4984844e-08
2.4892679e-08
2.4796803e-08
2.4699506e-08
2.4602693e-08
2.4507469e-08
2.4415136e-08
2.4326738e-08
2.42426e-08
2.4162827e-08
2.4087943e-08
2.4017726e-08
2.3952182e-08
2.3891025e-08
2.3833935e-08
2.3780695e-08
2.3730504e-08
2.2921732e-08
2.3002015e-08
2.3086779e-08
2.3175934e-08
2.3270811e-08
2.3371612e-08
2.3478686e-08
2.3591967e-08
2.3711763e-08
2.3837223e-08
2.3968521e-08
2.4105245e-08
2.4246139e-08
2.4389742e-08
2.4534756e-08
2.4678946e-08
2.481963e-08
2.4954716e-08
2.5081988e-08
2.5198699e-08
2.5302263e-08
2.5390149e-08
2.5460255e-08
2.5511389e-08
2.5542396e-08
2.5552333e-08
2.5542016e-08
2.5512599e-08
2.5465213e-08
2.5401904e-08
2.5325059e-08
2.5237132e-08
2.5140765e-08
2.5037982e-08
2.4931051e-08
2.4822454e-08
2.4714268e-08
2.4607703e-08
2.4504189e-08
2.4404897e-08
2.4310201e-08
2.4220206e-08
2.4135569e-08
2.405601e-08
2.3981617e-08
2.3912054e-08
2.3847029e-08
2.3786257e-08
2.3729205e-08
2.2975354e-08
2.3060348e-08
2.3150382e-08
2.3245248e-08
2.334637e-08
2.3453939e-08
2.3568323e-08
2.3689433e-08
2.3817582e-08
2.3951863e-08
2.4092414e-08
2.4238761e-08
2.4389552e-08
2.4543209e-08
2.4698302e-08
2.4852434e-08
2.5002731e-08
2.5146913e-08
2.5282565e-08
2.5406734e-08
2.5516639e-08
2.5609571e-08
2.5683275e-08
2.5736447e-08
2.576785e-08
2.5776501e-08
2.5763257e-08
2.5729338e-08
2.5675972e-08
2.5605345e-08
2.5520013e-08
2.542261e-08
2.5315979e-08
2.5202318e-08
2.5084077e-08
2.4963933e-08
2.4844143e-08
2.4726032e-08
2.461116e-08
2.4500821e-08
2.4395445e-08
2.4295151e-08
2.4200713e-08
2.4111804e-08
2.4028584e-08
2.3950674e-08
2.3877807e-08
2.3809629e-08
2.3745854e-08
2.3038024e-08
2.3128043e-08
2.3223701e-08
2.3324669e-08
2.3432461e-08
2.354726e-08
2.3669449e-08
2.3798922e-08
2.3935989e-08
2.4079693e-08
2.4230128e-08
2.4386751e-08
2.4548112e-08
2.4712508e-08
2.4878364e-08
2.5043113e-08
2.5203682e-08
2.5357587e-08
2.5502203e-08
2.5634362e-08
2.5751076e-08
2.5849449e-08
2.5927072e-08
2.5982517e-08
2.6014469e-08
2.6021907e-08
2.6005726e-08
2.5967221e-08
2.5907722e-08
2.5829565e-08
2.573548e-08
2.5628295e-08
2.5511061e-08
2.5386169e-08
2.5256265e-08
2.5124228e-08
2.4992498e-08
2.4862527e-08
2.4736011e-08
2.4614365e-08
2.4498082e-08
2.4387304e-08
2.4282907e-08
2.4184534e-08
2.4092404e-08
2.4006104e-08
2.3925384e-08
2.3849824e-08
2.377937e-08
2.3110264e-08
2.3205652e-08
2.3307322e-08
2.3414819e-08
2.3529743e-08
2.3652273e-08
2.3782807e-08
2.3921221e-08
2.4067824e-08
2.4221601e-08
2.4382603e-08
2.455021e-08
2.4722866e-08
2.4898735e-08
2.5076089e-08
2.5252178e-08
2.5423719e-08
2.5588011e-08
2.5742207e-08
2.5882911e-08
2.6006919e-08
2.611114e-08
2.6193e-08
2.6250947e-08
2.6283585e-08
2.6289859e-08
2.6270701e-08
2.6227484e-08
2.616165e-08
2.6075692e-08
2.5972522e-08
2.5855174e-08
2.5726918e-08
2.5590356e-08
2.5448344e-08
2.5303971e-08
2.5159866e-08
2.5017624e-08
2.4879077e-08
2.4745764e-08
2.4618244e-08
2.4496696e-08
2.4382085e-08
2.4274036e-08
2.4172816e-08
2.4077983e-08
2.3989304e-08
2.390629e-08
2.382911e-08
2.3192783e-08
2.3293917e-08
2.3402026e-08
2.3516515e-08
2.3639077e-08
2.3769885e-08
2.3909353e-08
2.4057339e-08
2.4214147e-08
2.4378707e-08
2.4551015e-08
2.4730373e-08
2.4915108e-08
2.5103243e-08
2.5292885e-08
2.5481088e-08
2.5664349e-08
2.5839734e-08
2.6004159e-08
2.6153991e-08
2.6285798e-08
2.6396284e-08
2.6482705e-08
2.654338e-08
2.657683e-08
2.6581967e-08
2.6559761e-08
2.651167e-08
2.6439255e-08
2.6345169e-08
2.623252e-08
2.6104556e-08
2.5964784e-08
2.5816031e-08
2.5661378e-08
2.5504136e-08
2.5347133e-08
2.5192113e-08
2.5041053e-08
2.4895617e-08
2.4756438e-08
2.4623737e-08
2.4498564e-08
2.4380532e-08
2.4269952e-08
2.4166358e-08
2.406953e-08
2.3978908e-08
2.3894879e-08
2.3286491e-08
2.3393782e-08
2.3508797e-08
2.3630788e-08
2.3761541e-08
2.3901225e-08
2.4050271e-08
2.4208519e-08
2.4376263e-08
2.4552377e-08
2.4736798e-08
2.4928737e-08
2.5126402e-08
2.5327659e-08
2.5530441e-08
2.5731591e-08
2.592737e-08
2.6114598e-08
2.6289942e-08
2.6449514e-08
2.6589647e-08
2.670683e-08
2.6798144e-08
2.6861771e-08
2.6896147e-08
2.6900157e-08
2.6874809e-08
2.6821648e-08
2.6742362e-08
2.6639772e-08
2.6517188e-08
2.6378089e-08
2.6226234e-08
2.6064691e-08
2.5896783e-08
2.5726054e-08
2.5555538e-08
2.5387144e-08
2.5222997e-08
2.5064889e-08
2.4913536e-08
2.4769205e-08
2.4633031e-08
2.4504618e-08
2.4384321e-08
2.4271649e-08
2.4166395e-08
2.4067923e-08
2.3976846e-08
2.3392513e-08
2.3506414e-08
2.3628851e-08
2.3758901e-08
2.3898453e-08
2.404767e-08
2.4207e-08
2.4376264e-08
2.4555744e-08
2.4744254e-08
2.4941665e-08
2.5147092e-08
2.5358609e-08
2.5573918e-08
2.579076e-08
2.6005752e-08
2.6214905e-08
2.6414778e-08
2.6601769e-08
2.6771729e-08
2.6920739e-08
2.7045069e-08
2.7141613e-08
2.7208417e-08
2.7243826e-08
2.7246705e-08
2.7218096e-08
2.7159637e-08
2.707315e-08
2.696163e-08
2.6828599e-08
2.6677784e-08
2.6513207e-08
2.6338201e-08
2.6156345e-08
2.5971427e-08
2.5786699e-08
2.5604244e-08
2.5426343e-08
2.5254923e-08
2.5090786e-08
2.4934259e-08
2.4786552e-08
2.4647274e-08
2.4516816e-08
2.4394667e-08
2.4280634e-08
2.4174001e-08
2.4075609e-08
2.3512219e-08
2.3633232e-08
2.3763657e-08
2.3902383e-08
2.4051404e-08
2.4210877e-08
2.4381266e-08
2.4562374e-08
2.4754468e-08
2.4956298e-08
2.5167659e-08
2.5387561e-08
2.5613936e-08
2.5844304e-08
2.6076199e-08
2.6305999e-08
2.6529445e-08
2.6742817e-08
2.6942233e-08
2.7123262e-08
2.7281728e-08
2.741367e-08
2.7515792e-08
2.7585998e-08
2.7622543e-08
2.762427e-08
2.759226e-08
2.7528249e-08
2.7434194e-08
2.7313271e-08
2.7169226e-08
2.7006049e-08
2.6828046e-08
2.6638832e-08
2.6442257e-08
2.6242367e-08
2.6042641e-08
2.5845347e-08
2.5652933e-08
2.5467464e-08
2.5289839e-08
2.5120448e-08
2.4960584e-08
2.4809859e-08
2.4668705e-08
2.4536592e-08
2.4413337e-08
2.4298142e-08
2.4192091e-08
2.3647265e-08
2.3775943e-08
2.3914988e-08
2.4063071e-08
2.42223e-08
2.4392827e-08
2.4575134e-08
2.4769e-08
2.4974674e-08
2.5190835e-08
2.5417199e-08
2.5652656e-08
2.5894982e-08
2.6141505e-08
2.6389532e-08
2.6635182e-08
2.6873907e-08
2.7101691e-08
2.7314353e-08
2.7507171e-08
2.7675699e-08
2.7815737e-08
2.7923795e-08
2.7997629e-08
2.8035408e-08
2.8035952e-08
2.8000382e-08
2.7930537e-08
2.7828511e-08
2.7697667e-08
2.754199e-08
2.7365746e-08
2.7173549e-08
2.6969312e-08
2.6757172e-08
2.6541444e-08
2.6325845e-08
2.611284e-08
2.5905052e-08
2.5704694e-08
2.5512771e-08
2.5329749e-08
2.5157e-08
2.4994153e-08
2.4841677e-08
2.4699025e-08
2.4566029e-08
2.4441799e-08
2.4327683e-08
2.3799637e-08
2.3936597e-08
2.4084964e-08
2.4243163e-08
2.4413424e-08
2.4595893e-08
2.4791066e-08
2.49987e-08
2.521902e-08
2.5450629e-08
2.569315e-08
2.5945346e-08
2.620482e-08
2.6468689e-08
2.6734016e-08
2.6996638e-08
2.7251702e-08
2.7494873e-08
2.7721653e-08
2.7927018e-08
2.8106241e-08
2.8254877e-08
2.8369236e-08
2.8446929e-08
2.8486034e-08
2.8485352e-08
2.8446047e-08
2.8370061e-08
2.825963e-08
2.8118306e-08
2.7950326e-08
2.7760258e-08
2.7553038e-08
2.7332895e-08
2.7104267e-08
2.687175e-08
2.6639307e-08
2.6409613e-08
2.618548e-08
2.596928e-08
2.5762134e-08
2.5564595e-08
2.5378122e-08
2.5202362e-08
2.5037828e-08
2.4883956e-08
2.4740593e-08
2.4606752e-08
2.4484067e-08
2.3971716e-08
2.4117649e-08
2.4276127e-08
2.444529e-08
2.4627504e-08
2.4822904e-08
2.5032004e-08
2.5254529e-08
2.5490678e-08
2.5738967e-08
2.599892e-08
2.6269152e-08
2.6547082e-08
2.6829594e-08
2.7113486e-08
2.7394293e-08
2.7666831e-08
2.7926427e-08
2.816825e-08
2.8386957e-08
2.8577533e-08
2.8735284e-08
2.8856319e-08
2.8938101e-08
2.8978619e-08
2.897666e-08
2.8933428e-08
2.8850974e-08
2.8731673e-08
2.8579271e-08
2.8398276e-08
2.8193574e-08
2.7970446e-08
2.7733449e-08
2.7487334e-08
2.7236982e-08
2.6986618e-08
2.673914e-08
2.6497565e-08
2.6264438e-08
2.6041014e-08
2.5827942e-08
2.5626778e-08
2.5437199e-08
2.525976e-08
2.5093886e-08
2.4939444e-08
2.4795336e-08
2.4663516e-08
2.4166354e-08
2.432204e-08
2.4491519e-08
2.4672605e-08
2.4867809e-08
2.5077253e-08
2.5301465e-08
2.5540138e-08
2.5793434e-08
2.6059774e-08
2.6338565e-08
2.6628264e-08
2.6926082e-08
2.722865e-08
2.7532478e-08
2.7832775e-08
2.8124002e-08
2.8401126e-08
2.8658965e-08
2.8891844e-08
2.9094452e-08
2.9261848e-08
2.9389938e-08
2.9476038e-08
2.9518053e-08
2.9514756e-08
2.9467395e-08
2.9378129e-08
2.9249467e-08
2.9085358e-08
2.8890595e-08
2.8670408e-08
2.8430435e-08
2.8175572e-08
2.7910884e-08
2.7641549e-08
2.7372064e-08
2.710557e-08
2.684531e-08
2.6594022e-08
2.6353111e-08
2.6123341e-08
2.5906375e-08
2.5701923e-08
2.5510592e-08
2.5331795e-08
2.516542e-08
2.501025e-08
2.4868598e-08
2.4386968e-08
2.4553295e-08
2.4734791e-08
2.4928887e-08
2.5138258e-08
2.5363007e-08
2.5603673e-08
2.5859909e-08
2.6131832e-08
2.6417754e-08
2.6716948e-08
2.7027692e-08
2.7346969e-08
2.7671133e-08
2.799638e-08
2.8317567e-08
2.8628778e-08
2.8924596e-08
2.9199469e-08
2.9447378e-08
2.9662717e-08
2.9840292e-08
2.9975814e-08
3.0066457e-08
3.0110045e-08
3.0105343e-08
3.0053642e-08
2.9957208e-08
2.9818676e-08
2.9642206e-08
2.9432895e-08
2.9196339e-08
2.893854e-08
2.8664731e-08
2.8380293e-08
2.8090706e-08
2.7800758e-08
2.751386e-08
2.7233505e-08
2.6962651e-08
2.6702877e-08