/*--------------------------------*- C++ -*----------------------------------*\
| =========                 |                                                 |
| \\      /  F ield         | OpenFOAM: The Open Source CFD Toolbox           |
|  \\    /   O peration     | Version:  v2006                                 |
|   \\  /    A nd           | Website:  www.openfoam.com                      |
|    \\/     M anipulation  |                                                 |
\*---------------------------------------------------------------------------*/
FoamFile
{
    version     2.0;
    format      ascii;
    class       volScalarField;
    location    "1500";
    object      nut;
}
// * * * * * * * * * * * * * * * * * * * * * * * * * * * * * * * * * * * * * //

dimensions      [0 2 -1 0 0 0 0];


internalField   nonuniform List<scalar> 
19765
(
9.7904041e-06
9.7837255e-06
9.4883622e-06
9.5390005e-06
9.5339036e-06
9.6860908e-06
9.6005497e-06
9.7722093e-06
9.7398779e-06
9.5488536e-06
9.6511465e-06
1.0028409e-05
1.0248492e-05
1.0439081e-05
1.0841255e-05
1.1011551e-05
1.0963789e-05
1.111907e-05
1.1535473e-05
1.1899884e-05
1.2145869e-05
1.2270085e-05
1.2489528e-05
1.2626916e-05
1.2719099e-05
1.277599e-05
1.2804983e-05
1.2745864e-05
1.276818e-05
1.2654034e-05
1.2428158e-05
1.2139432e-05
1.2175449e-05
1.232607e-05
1.2187945e-05
1.1853282e-05
1.1841527e-05
1.1783647e-05
1.151087e-05
1.1605013e-05
1.1985046e-05
1.2143586e-05
1.2104549e-05
1.2421708e-05
1.2315398e-05
1.2553397e-05
1.2562521e-05
1.2535998e-05
1.2407331e-05
5.433961e-05
5.6960055e-05
5.9180662e-05
6.0949256e-05
6.3093267e-05
6.5287352e-05
6.7497609e-05
6.9705176e-05
7.198265e-05
7.3975656e-05
7.6326e-05
7.8886851e-05
8.1090986e-05
8.3060914e-05
8.5086567e-05
8.6329678e-05
8.6643994e-05
8.725219e-05
8.849494e-05
8.9985758e-05
9.1404279e-05
9.2355315e-05
9.3171111e-05
9.4220853e-05
9.5248233e-05
9.5754726e-05
9.5984108e-05
9.6298829e-05
9.653528e-05
9.6575017e-05
9.6502174e-05
9.6363169e-05
9.6374857e-05
9.6233066e-05
9.5595659e-05
9.4668502e-05
9.3853002e-05
9.2743679e-05
9.1347529e-05
9.032056e-05
8.9418095e-05
8.739356e-05
8.5236308e-05
8.1619888e-05
7.9022792e-05
7.2904484e-05
6.6079146e-05
5.9265916e-05
5.4177035e-05
1.6074971e-05
1.5400177e-05
1.491683e-05
1.5153593e-05
1.526732e-05
1.5376128e-05
1.5303997e-05
1.5460492e-05
1.5355128e-05
1.5494985e-05
1.5729685e-05
1.5760725e-05
1.5587503e-05
1.5415265e-05
1.5123357e-05
1.4676798e-05
1.4322723e-05
1.4087121e-05
1.3905221e-05
1.375354e-05
1.3691161e-05
1.374044e-05
1.3760764e-05
1.3816165e-05
1.4108366e-05
1.4651591e-05
1.5153242e-05
1.566466e-05
1.6399432e-05
1.7186732e-05
1.7950798e-05
1.8660647e-05
1.9297537e-05
2.0290279e-05
2.1528742e-05
2.2562365e-05
2.3368519e-05
2.442836e-05
2.524406e-05
2.5664737e-05
2.6379593e-05
2.7620894e-05
2.8259802e-05
2.9433806e-05
3.0216851e-05
3.2404487e-05
3.5255612e-05
3.8619819e-05
4.0955514e-05
6.2956215e-07
5.6294134e-07
5.2425767e-07
5.1842128e-07
5.1055884e-07
5.0343828e-07
4.9158777e-07
4.8733816e-07
4.7597615e-07
4.7075042e-07
4.6784245e-07
4.5959941e-07
4.4640953e-07
4.3439571e-07
4.2116198e-07
4.0579614e-07
3.9424602e-07
3.8672583e-07
3.8037315e-07
3.7416837e-07
3.7138203e-07
3.7344835e-07
3.7430514e-07
3.7625289e-07
3.8432928e-07
3.9954539e-07
4.1549103e-07
4.3336688e-07
4.5840494e-07
4.8719456e-07
5.1825833e-07
5.5067791e-07
5.8411383e-07
6.3147395e-07
6.9175966e-07
7.5202526e-07
8.1151966e-07
8.8670815e-07
9.5833957e-07
1.0205305e-06
1.1045747e-06
1.2242904e-06
1.3307835e-06
1.4959896e-06
1.6568322e-06
1.8885839e-06
2.1706891e-06
2.5295184e-06
2.9539035e-06
1.6328852e-07
1.627588e-07
1.6301869e-07
1.6492225e-07
1.6659854e-07
1.681937e-07
1.692501e-07
1.7081575e-07
1.7162322e-07
1.7291929e-07
1.7451576e-07
1.7562005e-07
1.7621815e-07
1.7692933e-07
1.77412e-07
1.7748828e-07
1.7789663e-07
1.787426e-07
1.7947662e-07
1.8009488e-07
1.8107223e-07
1.8242148e-07
1.8367586e-07
1.8512616e-07
1.8724201e-07
1.902296e-07
1.9334122e-07
1.9659573e-07
2.0055011e-07
2.0475218e-07
2.0896943e-07
2.1307819e-07
2.1692618e-07
2.2170715e-07
2.2715137e-07
2.3197948e-07
2.3612105e-07
2.4086468e-07
2.4477296e-07
2.4757808e-07
2.5130693e-07
2.5618607e-07
2.5969948e-07
2.6514878e-07
2.6967983e-07
2.757854e-07
2.8175913e-07
2.8627448e-07
2.9058195e-07
1.4120007e-07
1.4134146e-07
1.4182322e-07
1.4297972e-07
1.4387637e-07
1.4477801e-07
1.4547252e-07
1.4637401e-07
1.4693484e-07
1.4779844e-07
1.4862991e-07
1.4918492e-07
1.495751e-07
1.5001252e-07
1.5032604e-07
1.5056741e-07
1.5104711e-07
1.5171083e-07
1.5232517e-07
1.5293874e-07
1.5368844e-07
1.54548e-07
1.5558713e-07
1.5683085e-07
1.584009e-07
1.6045552e-07
1.6267918e-07
1.649903e-07
1.6765656e-07
1.7054449e-07
1.7352005e-07
1.7653946e-07
1.7940766e-07
1.8257311e-07
1.8613333e-07
1.8966067e-07
1.9279419e-07
1.9607719e-07
1.9919898e-07
2.0173763e-07
2.0420767e-07
2.074545e-07
2.1005813e-07
2.1349714e-07
2.1665337e-07
2.2044798e-07
2.2455166e-07
2.2898929e-07
2.3291486e-07
1.2413719e-07
1.24069e-07
1.2419885e-07
1.2473006e-07
1.2513486e-07
1.2555597e-07
1.258795e-07
1.2633635e-07
1.2662105e-07
1.2708891e-07
1.2756287e-07
1.2789373e-07
1.2814109e-07
1.2842554e-07
1.2864868e-07
1.2883522e-07
1.2917154e-07
1.2963863e-07
1.3010153e-07
1.305847e-07
1.3115187e-07
1.3178669e-07
1.3252749e-07
1.3341771e-07
1.3452596e-07
1.3592871e-07
1.3743807e-07
1.3902801e-07
1.4085554e-07
1.4283352e-07
1.4488706e-07
1.4698395e-07
1.4901929e-07
1.5125595e-07
1.5373772e-07
1.562038e-07
1.5846052e-07
1.6081693e-07
1.6308457e-07
1.6502312e-07
1.6694925e-07
1.6929849e-07
1.7128817e-07
1.7372014e-07
1.7597494e-07
1.7853989e-07
1.8121209e-07
1.8401063e-07
1.8654144e-07
1.1516101e-07
1.1511081e-07
1.1517934e-07
1.1549105e-07
1.1572542e-07
1.1596881e-07
1.1615382e-07
1.1641616e-07
1.1657943e-07
1.168507e-07
1.1712688e-07
1.1732605e-07
1.1748459e-07
1.1767154e-07
1.1783316e-07
1.1798694e-07
1.182382e-07
1.1857548e-07
1.1892578e-07
1.1930775e-07
1.1975653e-07
1.2026017e-07
1.2085773e-07
1.2156918e-07
1.2242717e-07
1.234788e-07
1.2461682e-07
1.2582716e-07
1.2720425e-07
1.2869725e-07
1.3026056e-07
1.3187387e-07
1.3347159e-07
1.3521068e-07
1.3712203e-07
1.3904861e-07
1.4086484e-07
1.4275572e-07
1.4460984e-07
1.4627266e-07
1.4792998e-07
1.4987067e-07
1.5160449e-07
1.5364062e-07
1.5559794e-07
1.5779281e-07
1.6011206e-07
1.6258052e-07
1.6492931e-07
1.0876215e-07
1.0869629e-07
1.0870605e-07
1.0887269e-07
1.0899478e-07
1.0912616e-07
1.0922518e-07
1.0937536e-07
1.0946864e-07
1.0963187e-07
1.098022e-07
1.0993061e-07
1.1003992e-07
1.1017207e-07
1.1029506e-07
1.1042074e-07
1.1061365e-07
1.1086721e-07
1.1113806e-07
1.1143842e-07
1.1178773e-07
1.1217675e-07
1.1263074e-07
1.1316972e-07
1.1381468e-07
1.1459214e-07
1.1543594e-07
1.1633961e-07
1.1736226e-07
1.1847189e-07
1.1964082e-07
1.208557e-07
1.2207568e-07
1.2339778e-07
1.2483995e-07
1.2630178e-07
1.277046e-07
1.2916272e-07
1.3060425e-07
1.3192924e-07
1.3325619e-07
1.347613e-07
1.3613564e-07
1.3769627e-07
1.3920091e-07
1.408457e-07
1.4255437e-07
1.4433751e-07
1.4602026e-07
1.0456744e-07
1.0451783e-07
1.0451526e-07
1.0461475e-07
1.0468505e-07
1.0476171e-07
1.0481833e-07
1.0490849e-07
1.0496415e-07
1.0506613e-07
1.0517465e-07
1.0525993e-07
1.0533711e-07
1.0543264e-07
1.0552712e-07
1.056291e-07
1.0577925e-07
1.0597357e-07
1.0618592e-07
1.0642494e-07
1.0670342e-07
1.0701563e-07
1.0737735e-07
1.0780317e-07
1.0830783e-07
1.0890746e-07
1.0956011e-07
1.1026276e-07
1.1105479e-07
1.1191601e-07
1.1282861e-07
1.1378372e-07
1.1475413e-07
1.1580313e-07
1.1694356e-07
1.181093e-07
1.1924643e-07
1.204295e-07
1.2161112e-07
1.2272204e-07
1.2383849e-07
1.2508315e-07
1.2624626e-07
1.27544e-07
1.2881374e-07
1.3019177e-07
1.3162989e-07
1.3314347e-07
1.3459973e-07
1.0157982e-07
1.0154047e-07
1.01532e-07
1.0159276e-07
1.0163465e-07
1.0168157e-07
1.0171622e-07
1.0177401e-07
1.0181059e-07
1.0187919e-07
1.0195385e-07
1.0201578e-07
1.0207525e-07
1.0214954e-07
1.0222641e-07
1.0231202e-07
1.0243293e-07
1.0258667e-07
1.0275686e-07
1.0294941e-07
1.0317278e-07
1.0342342e-07
1.0371101e-07
1.040466e-07
1.0444187e-07
1.0490679e-07
1.0541367e-07
1.0596145e-07
1.0657695e-07
1.0724697e-07
1.0795975e-07
1.0870919e-07
1.0947711e-07
1.1030567e-07
1.1120358e-07
1.1212591e-07
1.130358e-07
1.139825e-07
1.1493333e-07
1.1583966e-07
1.1675275e-07
1.1775397e-07
1.1870071e-07
1.1973771e-07
1.2075411e-07
1.2184093e-07
1.2296424e-07
1.241332e-07
1.2525301e-07
9.9441221e-08
9.9415237e-08
9.9409059e-08
9.9450279e-08
9.9478572e-08
9.9510608e-08
9.9534828e-08
9.9575269e-08
9.9602436e-08
9.9652242e-08
9.9707384e-08
9.9755812e-08
9.9804695e-08
9.9865603e-08
9.9930664e-08
1.0000441e-07
1.0010454e-07
1.0022954e-07
1.0036889e-07
1.0052679e-07
1.0070904e-07
1.0091372e-07
1.0114685e-07
1.0141616e-07
1.017312e-07
1.0209849e-07
1.0249923e-07
1.0293351e-07
1.034203e-07
1.0395068e-07
1.045166e-07
1.0511405e-07
1.0573083e-07
1.0639624e-07
1.071168e-07
1.0786129e-07
1.0860331e-07
1.0937649e-07
1.1015785e-07
1.1091205e-07
1.1167378e-07
1.1250133e-07
1.1329317e-07
1.1415193e-07
1.1499929e-07
1.1590063e-07
1.1683269e-07
1.1780518e-07
1.1874343e-07
9.7868976e-08
9.7853457e-08
9.7850989e-08
9.7881819e-08
9.7903806e-08
9.7928754e-08
9.7948793e-08
9.7980575e-08
9.8004066e-08
9.8044024e-08
9.8088691e-08
9.8130169e-08
9.8173537e-08
9.8226701e-08
9.8284473e-08
9.8350176e-08
9.8435861e-08
9.8540532e-08
9.865731e-08
9.8789132e-08
9.8940029e-08
9.9109016e-08
9.9299859e-08
9.9517944e-08
9.977116e-08
1.000638e-07
1.0038292e-07
1.0072938e-07
1.0111661e-07
1.015381e-07
1.0198841e-07
1.0246542e-07
1.0296121e-07
1.0349645e-07
1.040757e-07
1.0467663e-07
1.0528006e-07
1.0590908e-07
1.0654711e-07
1.0716816e-07
1.0779627e-07
1.0847229e-07
1.0912361e-07
1.0982229e-07
1.1051234e-07
1.1123958e-07
1.1198697e-07
1.1276135e-07
1.1350595e-07
9.6695127e-08
9.6689224e-08
9.6691762e-08
9.6717933e-08
9.6737936e-08
9.6760325e-08
9.6779675e-08
9.6807728e-08
9.6830687e-08
9.6865892e-08
9.6905249e-08
9.6943527e-08
9.698436e-08
9.7033224e-08
9.7086639e-08
9.7147032e-08
9.722269e-08
9.7312941e-08
9.7413179e-08
9.7525474e-08
9.7652636e-08
9.7794183e-08
9.7952492e-08
9.8131334e-08
9.8337134e-08
9.8572786e-08
9.8829291e-08
9.9108086e-08
9.941831e-08
9.9755026e-08
1.0011532e-07
1.0049892e-07
1.0090061e-07
1.0133479e-07
1.0180444e-07
1.0229325e-07
1.0278701e-07
1.0330204e-07
1.0382634e-07
1.0434054e-07
1.048615e-07
1.0541909e-07
1.0595999e-07
1.0653658e-07
1.071079e-07
1.0770749e-07
1.0832293e-07
1.0896053e-07
1.0957442e-07
9.5807118e-08
9.5809003e-08
9.5816402e-08
9.5840897e-08
9.5861139e-08
9.5883417e-08
9.5903951e-08
9.5931143e-08
9.5955368e-08
9.5988931e-08
9.6026206e-08
9.6063683e-08
9.610397e-08
9.6150888e-08
9.6202055e-08
9.6259212e-08
9.6328084e-08
9.6408181e-08
9.6496347e-08
9.6594002e-08
9.6703094e-08
9.6823372e-08
9.6956322e-08
9.7104583e-08
9.7273345e-08
9.7464573e-08
9.7672009e-08
9.7897476e-08
9.8146256e-08
9.8415216e-08
9.8704354e-08
9.9014369e-08
9.9340937e-08
9.9693526e-08
1.00074e-07
1.0047051e-07
1.0087274e-07
1.0129248e-07
1.0172103e-07
1.0214382e-07
1.0257283e-07
1.030297e-07
1.0347497e-07
1.0394656e-07
1.0441418e-07
1.0490202e-07
1.0540062e-07
1.059148e-07
1.0640818e-07
9.5126958e-08
9.5135584e-08
9.514776e-08
9.5172457e-08
9.5194272e-08
9.5217901e-08
9.5240697e-08
9.5268748e-08
9.5295283e-08
9.5329116e-08
9.5366312e-08
9.5404503e-08
9.5445549e-08
9.5492119e-08
9.5542543e-08
9.5598031e-08
9.5662517e-08
9.5735607e-08
9.5815071e-08
9.5901835e-08
9.5997213e-08
9.6101041e-08
9.621421e-08
9.6338562e-08
9.6478242e-08
9.6634595e-08
9.6803323e-08
9.6986368e-08
9.7185305e-08
9.7400464e-08
9.7634304e-08
9.7886421e-08
9.8152052e-08
9.8437553e-08
9.8744706e-08
9.9065334e-08
9.9392093e-08
9.973372e-08
1.0008381e-07
1.0043129e-07
1.0078465e-07
1.0115984e-07
1.0152725e-07
1.0191481e-07
1.0229981e-07
1.0270012e-07
1.0310852e-07
1.0352922e-07
1.0393234e-07
9.4601771e-08
9.4616033e-08
9.4632599e-08
9.4658508e-08
9.4682572e-08
9.4708342e-08
9.4733961e-08
9.4763887e-08
9.4793325e-08
9.4828624e-08
9.4867033e-08
9.4906937e-08
9.4949645e-08
9.4997003e-08
9.5047804e-08
9.5102836e-08
9.5164754e-08
9.52332e-08
9.5306537e-08
9.5385303e-08
9.5470325e-08
9.5561443e-08
9.5659131e-08
9.5764659e-08
9.5881295e-08
9.6009966e-08
9.6147798e-08
9.6296471e-08
9.6454189e-08
9.6627542e-08
9.6818382e-08
9.702289e-08
9.7236687e-08
9.7465373e-08
9.7711302e-08
9.7968987e-08
9.8233105e-08
9.8510016e-08
9.8794864e-08
9.90791e-08
9.9368718e-08
9.9675425e-08
9.9976859e-08
1.0029354e-07
1.0060835e-07
1.0093434e-07
1.012659e-07
1.0160636e-07
1.0193142e-07
9.4192941e-08
9.4212111e-08
9.423279e-08
9.4260566e-08
9.4287296e-08
9.4315701e-08
9.4344481e-08
9.437693e-08
9.4409643e-08
9.4447203e-08
9.4487694e-08
9.4530008e-08
9.4575035e-08
9.4624021e-08
9.4676063e-08
9.4731603e-08
9.4792362e-08
9.4857981e-08
9.4927199e-08
9.5000233e-08
9.5077532e-08
9.5158887e-08
9.5244467e-08
9.5335141e-08
9.5433422e-08
9.5539956e-08
9.5652913e-08
9.5773262e-08
9.5896969e-08
9.6039299e-08
9.6195137e-08
9.6357943e-08
9.652701e-08
9.6708244e-08
9.6903996e-08
9.7110278e-08
9.7322994e-08
9.7546673e-08
9.7777588e-08
9.8009125e-08
9.8245525e-08
9.8495478e-08
9.8742008e-08
9.9000344e-08
9.9257486e-08
9.9523112e-08
9.9792818e-08
1.0006943e-07
1.0033282e-07
9.3873282e-08
9.3896728e-08
9.3921216e-08
9.3951229e-08
9.3980841e-08
9.401216e-08
9.4044285e-08
9.4079667e-08
9.4115889e-08
9.4156252e-08
9.4199432e-08
9.4244664e-08
9.4292513e-08
9.4343778e-08
9.4397747e-08
9.445458e-08
9.45153e-08
9.4579518e-08
9.4646202e-08
9.4715306e-08
9.4786969e-08
9.4860897e-08
9.4937035e-08
9.5015961e-08
9.5099544e-08
9.5188244e-08
9.5280954e-08
9.53776e-08
9.547459e-08
9.5593568e-08
9.5717334e-08
9.5842939e-08
9.5974995e-08
9.6117648e-08
9.6272498e-08
9.6436481e-08
9.6606396e-08
9.6785484e-08
9.6970943e-08
9.7157701e-08
9.7348801e-08
9.7550712e-08
9.775051e-08
9.7959501e-08
9.8167752e-08
9.8382394e-08
9.8599918e-08
9.8822618e-08
9.9033858e-08
9.3622449e-08
9.364974e-08
9.3677828e-08
9.3710337e-08
9.374298e-08
9.377741e-08
9.3813014e-08
9.3851625e-08
9.3891536e-08
9.3935104e-08
9.3981432e-08
9.4029982e-08
9.4081065e-08
9.413514e-08
9.4191608e-08
9.4250394e-08
9.4311984e-08
9.4375944e-08
9.4441371e-08
9.4507994e-08
9.4575697e-08
9.4644075e-08
9.4712899e-08
9.4782534e-08
9.4854309e-08
9.4928549e-08
9.5004601e-08
9.5081418e-08
9.516209e-08
9.5255659e-08
9.5348127e-08
9.5445019e-08
9.5548052e-08
9.5659024e-08
9.5779954e-08
9.5908475e-08
9.6042116e-08
9.6183317e-08
9.6330082e-08
9.6478599e-08
9.663108e-08
9.6792369e-08
9.6952592e-08
9.7120176e-08
9.728749e-08
9.7459812e-08
9.7634322e-08
9.7812943e-08
9.798178e-08
9.3425618e-08
9.3456419e-08
9.3487933e-08
9.3523108e-08
9.3558882e-08
9.359656e-08
9.3635744e-08
9.3677808e-08
9.3721558e-08
9.376865e-08
9.3818491e-08
9.3870696e-08
9.3925369e-08
9.3982703e-08
9.4042164e-08
9.4103471e-08
9.4166692e-08
9.423133e-08
9.4296545e-08
9.436187e-08
9.442697e-08
9.4491319e-08
9.4554548e-08
9.4616847e-08
9.4679116e-08
9.4741562e-08
9.4803773e-08
9.4864687e-08
9.4952017e-08
9.5019224e-08
9.5072267e-08
9.5143105e-08
9.5220663e-08
9.5305205e-08
9.5397508e-08
9.5495583e-08
9.559789e-08
9.570649e-08
9.5820057e-08
9.5935742e-08
9.6055137e-08
9.618184e-08
9.6308295e-08
9.6440754e-08
9.6573334e-08
9.6709909e-08
9.6848186e-08
9.6989741e-08
9.7122979e-08
9.3271527e-08
9.330562e-08
9.3340452e-08
9.3378439e-08
9.3417436e-08
9.345849e-08
9.3501357e-08
9.354707e-08
9.3594808e-08
9.3645698e-08
9.3699369e-08
9.3755531e-08
9.3814121e-08
9.3875116e-08
9.3938008e-08
9.4002339e-08
9.4067841e-08
9.4133942e-08
9.4199818e-08
9.4264824e-08
9.4328435e-08
9.4390004e-08
9.4449033e-08
9.4505571e-08
9.4560176e-08
9.4612943e-08
9.466362e-08
9.4713421e-08
9.4760675e-08
9.4808609e-08
9.486656e-08
9.4918613e-08
9.4975033e-08
9.5036283e-08
9.5102916e-08
9.5174227e-08
9.5249385e-08
9.533001e-08
9.5415171e-08
9.5502714e-08
9.5593761e-08
9.5690976e-08
9.5788592e-08
9.5891241e-08
9.5994384e-08
9.610086e-08
9.6208796e-08
9.6319501e-08
9.6423255e-08
9.3151759e-08
9.3188996e-08
9.3227085e-08
9.3268007e-08
9.3310321e-08
9.3354871e-08
9.3401531e-08
9.3451075e-08
9.3502956e-08
9.3557899e-08
9.3615688e-08
9.3676093e-08
9.3738908e-08
9.3803935e-08
9.3870663e-08
9.3938475e-08
9.4006825e-08
9.4075062e-08
9.4142339e-08
9.4207849e-08
9.42709e-08
9.4330717e-08
9.438669e-08
9.4438745e-08
9.448717e-08
9.4531952e-08
9.4573094e-08
9.4611103e-08
9.4649605e-08
9.4666634e-08
9.4713026e-08
9.4754009e-08
9.4792874e-08
9.483358e-08
9.4878199e-08
9.4926719e-08
9.4978666e-08
9.5035284e-08
9.5095969e-08
9.5159157e-08
9.522566e-08
9.5297459e-08
9.5370183e-08
9.5447248e-08
9.5525154e-08
9.5605957e-08
9.5688115e-08
9.5772698e-08
9.5851561e-08
9.3059859e-08
9.3100164e-08
9.3141495e-08
9.318548e-08
9.3231217e-08
9.3279395e-08
9.3329976e-08
9.3383536e-08
9.3439731e-08
9.3498973e-08
9.3561159e-08
9.3626087e-08
9.369343e-08
9.3762841e-08
9.3833787e-08
9.3905504e-08
9.3977212e-08
9.4048171e-08
9.4117489e-08
9.4184207e-08
9.4247477e-08
9.4306404e-08
9.4360266e-08
9.4408884e-08
9.4452331e-08
9.4490495e-08
9.4523507e-08
9.4552202e-08
9.4576858e-08
9.4602742e-08
9.4623577e-08
9.4643141e-08
9.4663493e-08
9.4686094e-08
9.4711811e-08
9.4740593e-08
9.4772253e-08
9.4807848e-08
9.4847101e-08
9.4888945e-08
9.4933985e-08
9.4983694e-08
9.5034786e-08
9.5089763e-08
9.5145929e-08
9.5204754e-08
9.5264962e-08
9.5327426e-08
9.5385309e-08
9.2990928e-08
9.3034275e-08
9.3078872e-08
9.3126051e-08
9.3175333e-08
9.3227284e-08
9.3281931e-08
9.3339701e-08
9.3400397e-08
9.3464186e-08
9.3531045e-08
9.3600779e-08
9.3672954e-08
9.3747093e-08
9.3822623e-08
9.3898646e-08
9.3974176e-08
9.4048382e-08
9.4120304e-08
9.4188839e-08
9.4252996e-08
9.4311757e-08
9.4364297e-08
9.4410339e-08
9.4449786e-08
9.4482431e-08
9.4508537e-08
9.4528814e-08
9.4544431e-08
9.4555519e-08
9.4564136e-08
9.4571374e-08
9.4577975e-08
9.4585191e-08
9.4594162e-08
9.4605343e-08
9.4618941e-08
9.4635911e-08
9.4656234e-08
9.4679234e-08
9.4705368e-08
9.4735725e-08
9.4767871e-08
9.4803614e-08
9.4840885e-08
9.4880713e-08
9.4922032e-08
9.4965541e-08
9.5005515e-08
9.2941201e-08
9.2987611e-08
9.3035533e-08
9.3086051e-08
9.3139018e-08
9.3194902e-08
9.3253784e-08
9.3315971e-08
9.3381374e-08
9.3449969e-08
9.3521781e-08
9.359661e-08
9.3673925e-08
9.3753131e-08
9.3833605e-08
9.3914319e-08
9.3994106e-08
9.4072034e-08
9.4147064e-08
9.4217953e-08
9.4283573e-08
9.4342787e-08
9.4394668e-08
9.443885e-08
9.4475096e-08
9.4503114e-08
9.4523256e-08
9.4536284e-08
9.4543052e-08
9.4544741e-08
9.4542417e-08
9.4537267e-08
9.4530475e-08
9.4523381e-08
9.451719e-08
9.4512601e-08
9.4510058e-08
9.4510427e-08
9.4513894e-08
9.4520107e-08
9.4529431e-08
9.4542673e-08
9.4558072e-08
9.4576913e-08
9.4597624e-08
9.4620898e-08
9.4645842e-08
9.4673009e-08
9.4697608e-08
9.2907813e-08
9.2957343e-08
9.300868e-08
9.3062695e-08
9.3119505e-08
9.3179503e-08
9.3242808e-08
9.3309634e-08
9.3379972e-08
9.345364e-08
9.3530694e-08
9.3610919e-08
9.3693689e-08
9.3778303e-08
9.3864077e-08
9.3949858e-08
9.4034313e-08
9.4116404e-08
9.4195001e-08
9.4268724e-08
9.4336313e-08
9.4396512e-08
9.4448297e-08
9.4491217e-08
9.4524917e-08
9.4549031e-08
9.4563985e-08
9.4570549e-08
9.4569597e-08
9.456223e-08
9.454975e-08
9.4533491e-08
9.4514753e-08
9.4494831e-08
9.4474983e-08
9.4456145e-08
9.443899e-08
9.4424356e-08
9.4412616e-08
9.4403691e-08
9.4397892e-08
9.4395823e-08
9.4396257e-08
9.4400086e-08
9.4406127e-08
9.4414819e-08
9.4425412e-08
9.4438325e-08
9.4449568e-08
9.2888585e-08
9.2941325e-08
9.2996195e-08
9.3053881e-08
9.3114713e-08
9.3179023e-08
9.3246962e-08
9.3318667e-08
9.3394185e-08
9.3473209e-08
9.3555808e-08
9.3641739e-08
9.3730291e-08
9.3820658e-08
9.3912089e-08
9.4003308e-08
9.4092826e-08
9.4179495e-08
9.4262083e-08
9.4339077e-08
9.4409084e-08
9.4470734e-08
9.4522904e-08
9.4565064e-08
9.459676e-08
9.4617556e-08
9.4627941e-08
9.4628709e-08
9.4620711e-08
9.4605159e-08
9.4583438e-08
9.4556967e-08
9.4527182e-08
9.4495402e-08
9.4462967e-08
9.4431026e-08
9.4400454e-08
9.4372086e-08
9.4346458e-08
9.4323722e-08
9.4304165e-08
9.4288242e-08
9.4275158e-08
9.4265504e-08
9.4258408e-08
9.425412e-08
9.4252002e-08
9.4252363e-08
9.4251893e-08
9.2881892e-08
9.2937958e-08
9.2996505e-08
9.3058052e-08
9.3123104e-08
9.3191945e-08
9.3264749e-08
9.334159e-08
9.3422557e-08
9.3507235e-08
9.3595694e-08
9.3687656e-08
9.3782326e-08
9.38788e-08
9.3976248e-08
9.4073275e-08
9.4168241e-08
9.4259884e-08
9.4346862e-08
9.4427527e-08
9.4500359e-08
9.456387e-08
9.4616842e-08
9.4658667e-08
9.4688806e-08
9.4706762e-08
9.4713074e-08
9.4708567e-08
9.4694096e-08
9.4670952e-08
9.4640618e-08
9.4604613e-08
9.4564508e-08
9.4521663e-08
9.4477508e-08
9.4433379e-08
9.4390337e-08
9.4349237e-08
9.4310766e-08
9.4275273e-08
9.4243044e-08
9.4214432e-08
9.4188986e-08
9.4167076e-08
9.4148075e-08
9.4132092e-08
9.4118582e-08
9.4107751e-08
9.4096879e-08
9.2886547e-08
9.2946081e-08
9.3008472e-08
9.3074087e-08
9.3143577e-08
9.3217187e-08
9.3295108e-08
9.3377363e-08
9.3464068e-08
9.3554715e-08
9.3649365e-08
9.3747698e-08
9.3848837e-08
9.395178e-08
9.4055612e-08
9.4158817e-08
9.4259611e-08
9.4356611e-08
9.4448357e-08
9.4533068e-08
9.4609094e-08
9.4674834e-08
9.4728971e-08
9.4770824e-08
9.4799777e-08
9.4815279e-08
9.4817916e-08
9.4808545e-08
9.4788037e-08
9.4757767e-08
9.4719314e-08
9.4674299e-08
9.4624421e-08
9.4571103e-08
9.4515877e-08
9.4460253e-08
9.4405464e-08
9.4352405e-08
9.43019e-08
9.4254474e-08
9.4210425e-08
9.417004e-08
9.4133149e-08
9.4099954e-08
9.4070031e-08
9.4043375e-08
9.4019523e-08
9.399859e-08
9.3978368e-08
9.2901726e-08
9.2964892e-08
9.3031317e-08
9.3101224e-08
9.3175391e-08
9.3254028e-08
9.3337339e-08
9.3425305e-08
9.3518057e-08
9.3615007e-08
9.3716196e-08
9.3821257e-08
9.392923e-08
9.4039015e-08
9.4149606e-08
9.4259365e-08
9.4366364e-08
9.4469093e-08
9.4565972e-08
9.4655082e-08
9.4734646e-08
9.4802945e-08
9.4858569e-08
9.490076e-08
9.4928837e-08
9.4942199e-08
9.4941475e-08
9.4927556e-08
9.4901345e-08
9.4864297e-08
9.4818086e-08
9.476444e-08
9.4705187e-08
9.4641832e-08
9.4576013e-08
9.4509409e-08
9.4443411e-08
9.4378975e-08
9.4317051e-08
9.4258319e-08
9.4203105e-08
9.4151657e-08
9.4104033e-08
9.4060313e-08
9.4020236e-08
9.3983713e-08
9.395035e-08
9.3920175e-08
9.3891432e-08
9.2926909e-08
9.2993891e-08
9.3064561e-08
9.3139004e-08
9.3218106e-08
9.3302047e-08
9.3391044e-08
9.3485039e-08
9.358417e-08
9.3687775e-08
9.3795869e-08
9.3908033e-08
9.4023221e-08
9.4140234e-08
9.425797e-08
9.4374663e-08
9.4488243e-08
9.4597072e-08
9.4699437e-08
9.4793283e-08
9.4876703e-08
9.4947864e-08
9.500526e-08
9.5048059e-08
9.5075517e-08
9.5086993e-08
9.5083154e-08
9.506493e-08
9.5033261e-08
9.4989683e-08
9.4935971e-08
9.4873956e-08
9.4805603e-08
9.473251e-08
9.4656432e-08
9.457921e-08
9.4502389e-08
9.4426995e-08
9.43541e-08
9.4284524e-08
9.4218633e-08
9.4156652e-08
9.4098834e-08
9.4045168e-08
9.3995524e-08
9.3949755e-08
9.3907521e-08
9.3868773e-08
9.3832156e-08
9.2961835e-08
9.3032839e-08
9.3107986e-08
9.3187225e-08
9.327154e-08
9.3361086e-08
9.3456088e-08
9.3556451e-08
9.3662314e-08
9.3772948e-08
9.3888334e-08
9.4007994e-08
9.4130796e-08
9.4255437e-08
9.4380712e-08
9.4504728e-08
9.462527e-08
9.4740562e-08
9.4848759e-08
9.4947665e-08
9.5035244e-08
9.5109546e-08
9.5168971e-08
9.521261e-08
9.5239665e-08
9.524946e-08
9.5242695e-08
9.5220344e-08
9.5183391e-08
9.5133453e-08
9.5072402e-08
9.5002186e-08
9.4924902e-08
9.4842258e-08
9.4756135e-08
9.4668531e-08
9.4581141e-08
9.449507e-08
9.4411512e-08
9.4331414e-08
9.4255187e-08
9.4183055e-08
9.4115433e-08
9.4052244e-08
9.3993471e-08
9.3938919e-08
9.3888299e-08
9.3841488e-08
9.379749e-08
9.3006475e-08
9.3081725e-08
9.3161602e-08
9.3245919e-08
9.3335749e-08
9.3431222e-08
9.3532569e-08
9.3639662e-08
9.3752635e-08
9.3870694e-08
9.3993779e-08
9.4121348e-08
9.4252179e-08
9.4384865e-08
9.4518088e-08
9.4649823e-08
9.477771e-08
9.489983e-08
9.5014199e-08
9.511848e-08
9.5210504e-08
9.5288206e-08
9.534989e-08
9.5394575e-08
9.5421408e-08
9.5429684e-08
9.5420138e-08
9.5393787e-08
9.5351663e-08
9.5295465e-08
9.5227166e-08
9.5148832e-08
9.5062699e-08
9.4970597e-08
9.4874542e-08
9.4776686e-08
9.4678869e-08
9.458229e-08
9.4488255e-08
9.4397834e-08
9.4311489e-08
9.4229458e-08
9.415229e-08
9.4079868e-08
9.4012269e-08
9.3949261e-08
9.38906e-08
9.3836093e-08
9.3785074e-08
9.3061013e-08
9.3140753e-08
9.3225636e-08
9.3315333e-08
9.3411e-08
9.3512745e-08
9.3620802e-08
9.3735012e-08
9.3855497e-08
9.39814e-08
9.4112615e-08
9.4248527e-08
9.4387824e-08
9.4528987e-08
9.467058e-08
9.4810441e-08
9.494606e-08
9.5075373e-08
9.519625e-08
9.530621e-08
9.5402953e-08
9.5484295e-08
9.5548449e-08
9.5594359e-08
9.5621122e-08
9.5628009e-08
9.5615788e-08
9.558552e-08
9.5538289e-08
9.5475876e-08
9.5400357e-08
9.5313921e-08
9.5218949e-08
9.5117406e-08
9.5011447e-08
9.4903378e-08
9.4795186e-08
9.4688165e-08
9.4583738e-08
9.4483089e-08
9.4386736e-08
9.4294943e-08
9.4208378e-08
9.4126898e-08
9.405066e-08
9.3979409e-08
9.3912939e-08
9.3850992e-08
9.3793205e-08
9.3125835e-08
9.3210329e-08
9.3300517e-08
9.3395918e-08
9.3497769e-08
9.3606156e-08
9.3721315e-08
9.3843054e-08
9.3971479e-08
9.4105671e-08
9.4245468e-08
9.4390183e-08
9.4538402e-08
9.4688491e-08
9.4838888e-08
9.4987292e-08
9.5131037e-08
9.5267908e-08
9.5395623e-08
9.551156e-08
9.5613282e-08
9.5698492e-08
9.5765306e-08
9.58126e-08
9.5839419e-08
9.584502e-08
9.5830199e-08
9.5796061e-08
9.5743748e-08
9.5675118e-08
9.5592356e-08
9.5497779e-08
9.5393921e-08
9.5282889e-08
9.5166984e-08
9.5048669e-08
9.4930073e-08
9.4812595e-08
9.4697771e-08
9.4586895e-08
9.448055e-08
9.4379033e-08
9.4283119e-08
9.4192651e-08
9.4107859e-08
9.4028469e-08
9.3954314e-08
9.3885071e-08
9.3820664e-08
9.3201529e-08
9.3291065e-08
9.3386878e-08
9.3488333e-08
9.3596741e-08
9.3712167e-08
9.3834846e-08
9.3964553e-08
9.4101375e-08
9.4244326e-08
9.4393186e-08
9.4547182e-08
9.47048e-08
9.4864283e-08
9.5023936e-08
9.5181309e-08
9.5333578e-08
9.5478371e-08
9.5613252e-08
9.5735453e-08
9.5842403e-08
9.5931691e-08
9.6001342e-08
9.6050158e-08
9.6077141e-08
9.6081533e-08
9.6064161e-08
9.6026176e-08
9.5968771e-08
9.5893888e-08
9.5803818e-08
9.5701019e-08
9.558818e-08
9.546756e-08
9.5341613e-08
9.5212956e-08
9.5083861e-08
9.4955837e-08
9.4830532e-08
9.470935e-08
9.4592944e-08
9.4481652e-08
9.4376348e-08
9.4276875e-08
9.4183527e-08
9.409602e-08
9.4014221e-08
9.3937746e-08
9.3866796e-08
9.3288893e-08
9.3383779e-08
9.3485568e-08
9.3593452e-08
9.3708818e-08
9.3831708e-08
9.3962355e-08
9.41005e-08
9.4246202e-08
9.4398411e-08
9.4556839e-08
9.4720623e-08
9.4888139e-08
9.5057502e-08
9.5226874e-08
9.539365e-08
9.5554845e-08
9.5707923e-08
9.5850293e-08
9.5979035e-08
9.609145e-08
9.6185012e-08
9.6257655e-08
9.6308116e-08
9.6335351e-08
9.6338595e-08
9.6318702e-08
9.6276867e-08
9.6214339e-08
9.6133136e-08
9.6035666e-08
9.5924529e-08
9.5802579e-08
9.5672234e-08
9.5536104e-08
9.5396959e-08
9.5257213e-08
9.5118489e-08
9.4982552e-08
9.4850911e-08
9.4724298e-08
9.4603101e-08
9.4488286e-08
9.4379705e-08
9.4277711e-08
9.4182019e-08
9.4092527e-08
9.400879e-08
9.3931283e-08
9.3388949e-08
9.348952e-08
9.3597663e-08
9.371238e-08
9.3835135e-08
9.3965946e-08
9.4105042e-08
9.4252125e-08
9.4407224e-08
9.4569219e-08
9.4737747e-08
9.4911849e-08
9.5089783e-08
9.5269527e-08
9.5449094e-08
9.5625717e-08
9.5796242e-08
9.5957965e-08
9.6108135e-08
9.6243685e-08
9.6361785e-08
9.64598e-08
9.6535577e-08
9.6587787e-08
9.6615346e-08
9.6617487e-08
9.6595088e-08
9.6549388e-08
9.6481685e-08
9.6394078e-08
9.6289093e-08
9.6169483e-08
9.6038269e-08
9.5898034e-08
9.5751545e-08
9.5601724e-08
9.5451126e-08
9.5301492e-08
9.5154706e-08
9.5012388e-08
9.4875351e-08
9.4744045e-08
9.4619526e-08
9.4501663e-08
9.4390869e-08
9.4286859e-08
9.4189568e-08
9.4098486e-08
9.4014364e-08
9.3502966e-08
9.3609585e-08
9.3724492e-08
9.384648e-08
9.397709e-08
9.4116315e-08
9.4264373e-08
9.442093e-08
9.4585974e-08
9.4758314e-08
9.4937502e-08
9.5122477e-08
9.5311369e-08
9.5502011e-08
9.5692258e-08
9.5879175e-08
9.6059433e-08
9.6230153e-08
9.6388423e-08
9.6531031e-08
9.6655019e-08
9.6757647e-08
9.683668e-08
9.6890726e-08
9.6918669e-08
9.6919737e-08
9.6894837e-08
9.6845246e-08
9.6772308e-08
9.6678202e-08
9.6565578e-08
9.6437348e-08
9.6296705e-08
9.6146397e-08
9.5989347e-08
9.5828628e-08
9.5666933e-08
9.5506129e-08
9.534822e-08
9.5194942e-08
9.5047198e-08
9.4905508e-08
9.4771016e-08
9.464362e-08
9.4523791e-08
9.4411247e-08
9.430596e-08
9.4207356e-08
9.4116468e-08
9.3632486e-08
9.374555e-08
9.386767e-08
9.3997404e-08
9.4136376e-08
9.4284545e-08
9.444212e-08
9.4608722e-08
9.4784297e-08
9.4967573e-08
9.515801e-08
9.5354434e-08
9.5554841e-08
9.5756911e-08
9.595833e-08
9.6155986e-08
9.6346371e-08
9.652643e-08
9.6693083e-08
9.6842976e-08
9.6973031e-08
9.7080409e-08
9.7162799e-08
9.7218752e-08
9.7247122e-08
9.724714e-08
9.7219737e-08
9.7166226e-08
9.7087992e-08
9.6987291e-08
9.6866904e-08
9.6729909e-08
9.657967e-08
9.6419099e-08
9.6251272e-08
9.6079403e-08
9.5906329e-08
9.5734044e-08
9.5564682e-08
9.54001e-08
9.5241299e-08
9.5088883e-08
9.4944086e-08
9.4806844e-08
9.4677686e-08
9.4556343e-08
9.4442825e-08
9.433649e-08
9.423867e-08
9.3779365e-08
9.389931e-08
9.4029135e-08
9.4167137e-08
9.431502e-08
9.4472711e-08
9.4640403e-08
9.4817666e-08
9.5004395e-08
9.5199232e-08
9.5401537e-08
9.5610009e-08
9.5822503e-08
9.6036537e-08
9.6249619e-08
9.6458452e-08
9.6659345e-08
9.6849059e-08
9.7024353e-08
9.7181732e-08
9.7318002e-08
9.7430238e-08
9.751606e-08
9.7573971e-08
9.76028e-08
9.7601782e-08
9.7571875e-08
9.7514418e-08
9.7430831e-08
9.7323448e-08
9.719519e-08
9.7049298e-08
9.6889308e-08
9.6718288e-08
9.6539456e-08
9.6356166e-08
9.6171393e-08
9.598727e-08
9.5806069e-08
9.5629775e-08
9.5459503e-08
9.5295948e-08
9.5140439e-08
9.4992957e-08
9.4854091e-08
9.4723588e-08
9.4601499e-08
9.4487109e-08
9.4382069e-08
9.3945819e-08
9.4073125e-08
9.42112e-08
9.4358043e-08
9.4515443e-08
9.4683288e-08
9.4861748e-08
9.5050337e-08
9.524889e-08
9.5455953e-08
9.5670772e-08
9.5891913e-08
9.6117078e-08
9.6343611e-08
9.6568835e-08
9.6789266e-08
9.700102e-08
9.7200679e-08
9.7384833e-08
9.7549857e-08
9.7692454e-08
9.7809619e-08
9.7898919e-08
9.7958816e-08
9.798812e-08
9.7986078e-08
9.7953668e-08
9.7892251e-08
9.7803271e-08
9.7689143e-08
9.7552929e-08
9.7398041e-08
9.7228171e-08
9.7046528e-08
9.6856462e-08
9.6661457e-08
9.6464633e-08
9.6268269e-08
9.6074788e-08
9.5886318e-08