/*--------------------------------*- C++ -*----------------------------------*\
| =========                 |                                                 |
| \\      /  F ield         | OpenFOAM: The Open Source CFD Toolbox           |
|  \\    /   O peration     | Version:  v2006                                 |
|   \\  /    A nd           | Website:  www.openfoam.com                      |
|    \\/     M anipulation  |                                                 |
\*---------------------------------------------------------------------------*/
FoamFile
{
    version     2.0;
    format      ascii;
    class       volScalarField;
    location    "1500";
    object      nutMean;
}
// * * * * * * * * * * * * * * * * * * * * * * * * * * * * * * * * * * * * * //

dimensions      [0 2 -1 0 0 0 0];


internalField   nonuniform List<scalar> 
19765
(
1.010305e-05
1.0074241e-05
9.7414925e-06
9.7522194e-06
9.710831e-06
9.8333935e-06
9.7131374e-06
9.8548107e-06
9.7869359e-06
9.5661655e-06
9.6365674e-06
9.9822606e-06
1.017457e-05
1.0341435e-05
1.0720295e-05
1.0869981e-05
1.0798256e-05
1.0931232e-05
1.132068e-05
1.1654924e-05
1.1870196e-05
1.196512e-05
1.2150484e-05
1.2254643e-05
1.2317718e-05
1.2351379e-05
1.2360368e-05
1.2285887e-05
1.2293059e-05
1.216982e-05
1.1938827e-05
1.1646999e-05
1.1666266e-05
1.1799046e-05
1.1658179e-05
1.1327433e-05
1.1303099e-05
1.1237452e-05
1.0965423e-05
1.1039342e-05
1.1387504e-05
1.1531887e-05
1.1484301e-05
1.1779257e-05
1.167486e-05
1.1895197e-05
1.1899967e-05
1.1872954e-05
1.1751487e-05
5.7458943e-05
6.0449526e-05
6.2527134e-05
6.4016216e-05
6.5912509e-05
6.7853418e-05
6.9796331e-05
7.1709526e-05
7.3714915e-05
7.5373847e-05
7.7357783e-05
7.9551328e-05
8.1402724e-05
8.3022283e-05
8.4719417e-05
8.5773495e-05
8.6050755e-05
8.661541e-05
8.7704628e-05
8.8920823e-05
8.9987376e-05
9.0572046e-05
9.1050915e-05
9.180441e-05
9.2530514e-05
9.2724085e-05
9.2685919e-05
9.2789801e-05
9.28416e-05
9.2708932e-05
9.2473176e-05
9.2174095e-05
9.2034087e-05
9.1757507e-05
9.0999095e-05
8.9970816e-05
8.9063073e-05
8.7871936e-05
8.6401926e-05
8.5280894e-05
8.4276392e-05
8.2252588e-05
8.0136468e-05
7.6982588e-05
7.4447775e-05
6.9092976e-05
6.2973077e-05
5.6725014e-05
5.2073649e-05
1.8427426e-05
1.7491296e-05
1.6797706e-05
1.6908867e-05
1.6873385e-05
1.6830759e-05
1.6592586e-05
1.660505e-05
1.6331023e-05
1.6333918e-05
1.6442914e-05
1.6335352e-05
1.6026668e-05
1.57452e-05
1.5350424e-05
1.4812542e-05
1.4417322e-05
1.4177889e-05
1.3965715e-05
1.3746075e-05
1.3566664e-05
1.348285e-05
1.3396686e-05
1.3357972e-05
1.3540801e-05
1.3952979e-05
1.4332626e-05
1.4735815e-05
1.5351175e-05
1.601523e-05
1.6658493e-05
1.7251352e-05
1.7779402e-05
1.8633496e-05
1.970568e-05
2.0589468e-05
2.1269116e-05
2.2173833e-05
2.2850661e-05
2.3172228e-05
2.3758812e-05
2.4814146e-05
2.5337539e-05
2.6353343e-05
2.7022491e-05
2.8703681e-05
3.0968555e-05
3.3747407e-05
3.5660605e-05
7.8433981e-07
6.8104378e-07
6.1702019e-07
5.9768878e-07
5.7725083e-07
5.5919437e-07
5.3678506e-07
5.2448494e-07
5.0487521e-07
4.9350878e-07
4.8539717e-07
4.7191006e-07
4.5396666e-07
4.3827701e-07
4.2183302e-07
4.038431e-07
3.908939e-07
3.8264154e-07
3.7513301e-07
3.6751456e-07
3.620608e-07
3.6053376e-07
3.5883442e-07
3.5885641e-07
3.6465903e-07
3.7677851e-07
3.8945543e-07
4.0403052e-07
4.2495047e-07
4.4897928e-07
4.7483225e-07
5.0164198e-07
5.2913897e-07
5.6844629e-07
6.1839641e-07
6.6784739e-07
7.1629933e-07
7.7756805e-07
8.3521151e-07
8.8452261e-07
9.516267e-07
1.0475609e-06
1.1319448e-06
1.2644232e-06
1.3936296e-06
1.5806531e-06
1.8073003e-06
2.0927091e-06
2.4253418e-06
1.6409166e-07
1.630201e-07
1.628173e-07
1.6437208e-07
1.6572326e-07
1.6699306e-07
1.6771424e-07
1.6896074e-07
1.6942562e-07
1.7041307e-07
1.717124e-07
1.7250117e-07
1.7278752e-07
1.7319888e-07
1.7336412e-07
1.7313151e-07
1.7327614e-07
1.7387422e-07
1.7437623e-07
1.7480178e-07
1.754628e-07
1.7632662e-07
1.7723868e-07
1.7846887e-07
1.8032943e-07
1.8292736e-07
1.8559634e-07
1.8842467e-07
1.9189619e-07
1.9557261e-07
1.9926064e-07
2.0284462e-07
2.0618384e-07
2.103654e-07
2.1513273e-07
2.1933098e-07
2.2289592e-07
2.2699222e-07
2.303188e-07
2.3263294e-07
2.3575736e-07
2.3990641e-07
2.4279762e-07
2.4741143e-07
2.5117293e-07
2.5632833e-07
2.6147268e-07
2.6561347e-07
2.6909256e-07
1.4049507e-07
1.4039146e-07
1.4066772e-07
1.416403e-07
1.423448e-07
1.4306022e-07
1.4357288e-07
1.4429037e-07
1.4467135e-07
1.4536188e-07
1.4601158e-07
1.4638479e-07
1.4660101e-07
1.4686249e-07
1.4699365e-07
1.4705856e-07
1.4736611e-07
1.4785036e-07
1.4828979e-07
1.4874835e-07
1.4932401e-07
1.4995882e-07
1.5077846e-07
1.5183719e-07
1.5321609e-07
1.5501238e-07
1.5693838e-07
1.5896367e-07
1.6132361e-07
1.6387683e-07
1.6650969e-07
1.6917865e-07
1.7170831e-07
1.7451108e-07
1.7766262e-07
1.8077038e-07
1.8352011e-07
1.8640361e-07
1.8912811e-07
1.913214e-07
1.9345876e-07
1.9628172e-07
1.9852017e-07
2.0150376e-07
2.0422642e-07
2.0751196e-07
2.1106681e-07
2.1490881e-07
2.184072e-07
1.2309779e-07
1.2294452e-07
1.2298756e-07
1.2343116e-07
1.2374069e-07
1.2406309e-07
1.2428677e-07
1.2463772e-07
1.2481736e-07
1.2517989e-07
1.2554249e-07
1.2576187e-07
1.259022e-07
1.2607848e-07
1.261918e-07
1.2627346e-07
1.2650641e-07
1.2686446e-07
1.2721867e-07
1.2760054e-07
1.2806028e-07
1.2856635e-07
1.2917263e-07
1.2993678e-07
1.3091626e-07
1.3215327e-07
1.3347562e-07
1.3488285e-07
1.3651164e-07
1.3827166e-07
1.4009972e-07
1.4196464e-07
1.4377199e-07
1.4576498e-07
1.4797747e-07
1.5017005e-07
1.5217255e-07
1.542668e-07
1.5627455e-07
1.5798132e-07
1.5968105e-07
1.6176149e-07
1.6351293e-07
1.6566914e-07
1.6766246e-07
1.6993895e-07
1.7231274e-07
1.7479573e-07
1.770456e-07
1.1407398e-07
1.1395807e-07
1.1396455e-07
1.1421287e-07
1.1438379e-07
1.1456391e-07
1.1468741e-07
1.1488481e-07
1.1498572e-07
1.1519294e-07
1.1540226e-07
1.1553543e-07
1.156302e-07
1.1575179e-07
1.1584663e-07
1.1593456e-07
1.1611807e-07
1.1638281e-07
1.1665911e-07
1.1696781e-07
1.1733801e-07
1.1775182e-07
1.1824931e-07
1.1885965e-07
1.1961503e-07
1.2054152e-07
1.2154012e-07
1.2261154e-07
1.2383664e-07
1.2516292e-07
1.2655255e-07
1.2798587e-07
1.2940446e-07
1.3095223e-07
1.3265277e-07
1.3436265e-07
1.3597286e-07
1.3765064e-07
1.3929068e-07
1.4075631e-07
1.4221966e-07
1.4393424e-07
1.454596e-07
1.4725726e-07
1.4898041e-07
1.5091599e-07
1.529601e-07
1.5513502e-07
1.5720368e-07
1.077646e-07
1.0766453e-07
1.0763877e-07
1.07766e-07
1.0784859e-07
1.0793974e-07
1.0799956e-07
1.0810767e-07
1.0816086e-07
1.0828185e-07
1.0840833e-07
1.084939e-07
1.0856177e-07
1.0865134e-07
1.0873121e-07
1.0881402e-07
1.0896173e-07
1.0916639e-07
1.0938687e-07
1.0963615e-07
1.0993123e-07
1.1026061e-07
1.1064684e-07
1.1111219e-07
1.1168132e-07
1.1236906e-07
1.1311353e-07
1.1391674e-07
1.1482918e-07
1.1581811e-07
1.1686066e-07
1.17944e-07
1.1903174e-07
1.2021293e-07
1.215014e-07
1.2280574e-07
1.2405738e-07
1.2535975e-07
1.2664494e-07
1.2782418e-07
1.2900717e-07
1.3034965e-07
1.3157281e-07
1.3296605e-07
1.3430767e-07
1.3577727e-07
1.3730485e-07
1.3890013e-07
1.404062e-07
1.0366844e-07
1.0359626e-07
1.0357048e-07
1.0364348e-07
1.0368809e-07
1.0373884e-07
1.0377061e-07
1.0383394e-07
1.0386444e-07
1.0393928e-07
1.0401973e-07
1.0407779e-07
1.0412845e-07
1.0419639e-07
1.0426278e-07
1.0433626e-07
1.044554e-07
1.0461564e-07
1.0479226e-07
1.0499387e-07
1.0523166e-07
1.0549915e-07
1.0580973e-07
1.0617783e-07
1.0662209e-07
1.0715198e-07
1.0772772e-07
1.0835148e-07
1.0905659e-07
1.0982248e-07
1.1063458e-07
1.1148443e-07
1.1234804e-07
1.1328315e-07
1.1429963e-07
1.1533747e-07
1.1634993e-07
1.1740403e-07
1.1845506e-07
1.1944177e-07
1.2043468e-07
1.2154115e-07
1.2257304e-07
1.2372631e-07
1.2485281e-07
1.260764e-07
1.2735275e-07
1.2869541e-07
1.2998666e-07
1.0079542e-07
1.0074219e-07
1.0071884e-07
1.0076168e-07
1.0078645e-07
1.0081605e-07
1.0083423e-07
1.0087409e-07
1.0089412e-07
1.0094447e-07
1.0100036e-07
1.0104422e-07
1.0108603e-07
1.0114177e-07
1.0119973e-07
1.0126582e-07
1.0136493e-07
1.0149438e-07
1.0163874e-07
1.0180374e-07
1.0199676e-07
1.0221397e-07
1.0246318e-07
1.0275424e-07
1.0310204e-07
1.0351285e-07
1.0396028e-07
1.0444644e-07
1.049939e-07
1.0558931e-07
1.0622325e-07
1.0689003e-07
1.0757365e-07
1.0831247e-07
1.0911316e-07
1.0993505e-07
1.1074614e-07
1.1159065e-07
1.1243786e-07
1.1324476e-07
1.1405865e-07
1.1495104e-07
1.1579379e-07
1.1671859e-07
1.1762423e-07
1.185939e-07
1.1959646e-07
1.2064022e-07
1.2164039e-07
9.8758156e-08
9.8723285e-08
9.8707487e-08
9.8736587e-08
9.8753574e-08
9.8774185e-08
9.8787683e-08
9.8816342e-08
9.8832779e-08
9.8870472e-08
9.8913164e-08
9.8949673e-08
9.8986796e-08
9.9035171e-08
9.9087348e-08
9.9147497e-08
9.9232022e-08
9.9339308e-08
9.9459521e-08
9.9596561e-08
9.9755461e-08
9.9934097e-08
1.0013714e-07
1.0037112e-07
1.0064779e-07
1.0097162e-07
1.0132478e-07
1.0170925e-07
1.0214088e-07
1.0261084e-07
1.0311289e-07
1.0364332e-07
1.0419132e-07
1.0478321e-07
1.0542398e-07
1.0608546e-07
1.0674484e-07
1.0743224e-07
1.0812614e-07
1.087954e-07
1.0947201e-07
1.1020688e-07
1.1090916e-07
1.1167177e-07
1.1242338e-07
1.1322344e-07
1.1405051e-07
1.1491316e-07
1.1574509e-07
9.727795e-08
9.7256784e-08
9.7248072e-08
9.7270598e-08
9.7285009e-08
9.7302302e-08
9.7315251e-08
9.733917e-08
9.7355621e-08
9.7387426e-08
9.7423724e-08
9.7457232e-08
9.7492664e-08
9.753723e-08
9.7586077e-08
9.7642145e-08
9.7716449e-08
9.7807984e-08
9.7910327e-08
9.802614e-08
9.8158865e-08
9.8307299e-08
9.8474239e-08
9.8664057e-08
9.8886009e-08
9.9143409e-08
9.9424097e-08
9.9729949e-08
1.0007215e-07
1.0044472e-07
1.0084356e-07
1.0126642e-07
1.0170604e-07
1.0218082e-07
1.0269434e-07
1.0322664e-07
1.0376126e-07
1.0431893e-07
1.0488423e-07
1.0543427e-07
1.0599123e-07
1.0659075e-07
1.071679e-07
1.0778798e-07
1.0839999e-07
1.0904567e-07
1.0970936e-07
1.1039718e-07
1.1105854e-07
9.6182881e-08
9.6173468e-08
9.6172071e-08
9.6192649e-08
9.6207682e-08
9.6225053e-08
9.623983e-08
9.6262734e-08
9.6281174e-08
9.6310962e-08
9.6344744e-08
9.6377728e-08
9.6413215e-08
9.6456155e-08
9.6503324e-08
9.655679e-08
9.662402e-08
9.6704355e-08
9.6793507e-08
9.6893282e-08
9.7006036e-08
9.713106e-08
9.7270035e-08
9.7425897e-08
9.7605837e-08
9.781243e-08
9.8037374e-08
9.8282439e-08
9.8555465e-08
9.8852409e-08
9.9170846e-08
9.9509726e-08
9.986415e-08
1.0024706e-07
1.0066099e-07
1.0109159e-07
1.015268e-07
1.0198123e-07
1.0244375e-07
1.0289735e-07
1.0335747e-07
1.0385006e-07
1.0432759e-07
1.0483727e-07
1.0534192e-07
1.0587193e-07
1.0641588e-07
1.069793e-07
1.0752155e-07
9.5362833e-08
9.5362591e-08
9.5367568e-08
9.5388311e-08
9.5405328e-08
9.5424353e-08
9.5441987e-08
9.546585e-08
9.5487231e-08
9.5517228e-08
9.5550815e-08
9.5584798e-08
9.5621489e-08
9.5664308e-08
9.5711063e-08
9.5763175e-08
9.5825715e-08
9.5898216e-08
9.5977737e-08
9.6065461e-08
9.6162975e-08
9.6269805e-08
9.6386927e-08
9.6516303e-08
9.6663468e-08
9.6830493e-08
9.7011752e-08
9.7208875e-08
9.7427085e-08
9.7663967e-08
9.7918578e-08
9.819064e-08
9.847649e-08
9.8785067e-08
9.9118195e-08
9.9465578e-08
9.9818451e-08
1.0018731e-07
1.0056405e-07
1.0093586e-07
1.0131365e-07
1.0171616e-07
1.021083e-07
1.0252417e-07
1.0293634e-07
1.0336671e-07
1.0380664e-07
1.0426037e-07
1.0469564e-07
9.4740376e-08
9.4747822e-08
9.475863e-08
9.4780891e-08
9.4800708e-08
9.4822322e-08
9.4843382e-08
9.4869368e-08
9.4894209e-08
9.492576e-08
9.4960573e-08
9.4996502e-08
9.5035156e-08
9.5078888e-08
9.5126174e-08
9.5177942e-08
9.5237603e-08
9.5304784e-08
9.5377404e-08
9.5456179e-08
9.5542128e-08
9.5634874e-08
9.5734929e-08
9.5843583e-08
9.5965044e-08
9.6101029e-08
9.6247796e-08
9.6406756e-08
9.6581036e-08
9.6770088e-08
9.6974174e-08
9.7192887e-08
9.7422964e-08
9.7670732e-08
9.7937903e-08
9.8217321e-08
9.8502675e-08
9.8801593e-08
9.910809e-08
9.9412417e-08
9.972227e-08
1.0005141e-07
1.0037358e-07
1.0071382e-07
1.0105166e-07
1.0140317e-07
1.017618e-07
1.0213119e-07
1.02485e-07
9.4264398e-08
9.4278096e-08
9.4293994e-08
9.4318379e-08
9.4341284e-08
9.4365886e-08
9.4390555e-08
9.441928e-08
9.4447798e-08
9.4481699e-08
9.451862e-08
9.4557106e-08
9.4598248e-08
9.4643646e-08
9.46922e-08
9.4744453e-08
9.4802642e-08
9.4866426e-08
9.4934268e-08
9.5006522e-08
9.5083775e-08
9.5165663e-08
9.525237e-08
9.5344721e-08
9.5445865e-08
9.5557252e-08
9.5676478e-08
9.5804565e-08
9.594318e-08
9.6094034e-08
9.6257906e-08
9.6432857e-08
9.6616212e-08
9.6813269e-08
9.7026029e-08
9.7249542e-08
9.7479115e-08
9.7720194e-08
9.7968271e-08
9.8215866e-08
9.8468424e-08
9.8736037e-08
9.899898e-08
9.9275609e-08
9.9550529e-08
9.9835497e-08
1.001254e-07
1.0042316e-07
1.0070734e-07
9.3897375e-08
9.3916402e-08
9.3936895e-08
9.3963797e-08
9.3989952e-08
9.4017779e-08
9.4046151e-08
9.4077994e-08
9.4110312e-08
9.4147087e-08
9.4186706e-08
9.4228179e-08
9.427221e-08
9.4319848e-08
9.4370266e-08
9.4423701e-08
9.4481536e-08
9.4543422e-08
9.4608163e-08
9.4675822e-08
9.4746647e-08
9.4820235e-08
9.4896533e-08
9.4976034e-08
9.5061043e-08
9.5152797e-08
9.5249834e-08
9.5353174e-08
9.5462199e-08
9.5582329e-08
9.5713775e-08
9.5851599e-08
9.5995482e-08
9.6150707e-08
9.6319115e-08
9.6496903e-08
9.668039e-08
9.6873478e-08
9.7072826e-08
9.7272744e-08
9.747713e-08
9.7693483e-08
9.7906878e-08
9.8130903e-08
9.8353895e-08
9.8584534e-08
9.8818813e-08
9.9059191e-08
9.9287943e-08
9.3613365e-08
9.3636938e-08
9.3661557e-08
9.3691145e-08
9.372058e-08
9.375172e-08
9.3783799e-08
9.3818979e-08
9.3855155e-08
9.3895149e-08
9.3937879e-08
9.3982659e-08
9.4029901e-08
9.4080243e-08
9.4133027e-08
9.4188241e-08
9.424663e-08
9.4307812e-08
9.4370797e-08
9.4435407e-08
9.4501615e-08
9.4568947e-08
9.4637165e-08
9.4706529e-08
9.477867e-08
9.4854641e-08
9.4933626e-08
9.5016877e-08
9.5103847e-08
9.519803e-08
9.5300619e-08
9.5406185e-08
9.5517568e-08
9.5639001e-08
9.5771016e-08
9.5910607e-08
9.6055122e-08
9.6207571e-08
9.6365591e-08
9.6524896e-08
9.6688289e-08
9.6861327e-08
9.7032672e-08
9.721237e-08
9.7391524e-08
9.7576505e-08
9.7764123e-08
9.7956371e-08
9.8138606e-08
9.3392939e-08
9.3420534e-08
9.344896e-08
9.3481358e-08
9.3514094e-08
9.3548615e-08
9.3584413e-08
9.3623091e-08
9.3663185e-08
9.3706665e-08
9.3752824e-08
9.3801183e-08
9.3851921e-08
9.3905365e-08
9.3960956e-08
9.401847e-08
9.4078171e-08
9.4139622e-08
9.4201948e-08
9.4264765e-08
9.432782e-08
9.4390544e-08
9.4452555e-08
9.4513932e-08
9.4575782e-08
9.4638988e-08
9.4702902e-08
9.4767823e-08
9.4838019e-08
9.4913223e-08
9.4986628e-08
9.5066862e-08
9.5152735e-08
9.5246237e-08
9.5347073e-08
9.5453867e-08
9.5565029e-08
9.5682939e-08
9.5805924e-08
9.5930732e-08
9.6059355e-08
9.6195905e-08
9.6331742e-08
9.6474306e-08
9.6616784e-08
9.6763866e-08
9.6912989e-08
9.7065818e-08
9.7210152e-08
9.322213e-08
9.325334e-08
9.328532e-08
9.3320596e-08
9.3356638e-08
9.3394583e-08
9.3434112e-08
9.3476416e-08
9.352049e-08
9.3567676e-08
9.3617534e-08
9.3669715e-08
9.3724215e-08
9.3781117e-08
9.3839914e-08
9.3900199e-08
9.3961857e-08
9.4024388e-08
9.4086966e-08
9.4149025e-08
9.421012e-08
9.426958e-08
9.4326898e-08
9.4382009e-08
9.4435616e-08
9.448842e-08
9.4540461e-08
9.45909e-08
9.4652712e-08
9.4712964e-08
9.4758593e-08
9.4815531e-08
9.4878512e-08
9.494638e-08
9.5020013e-08
9.5098817e-08
9.5181631e-08
9.5270245e-08
9.5363465e-08
9.5458839e-08
9.5557776e-08
9.5663313e-08
9.5768877e-08
9.5879963e-08
9.5991344e-08
9.6106446e-08
9.6223195e-08
9.6342947e-08
9.6455543e-08
9.3090349e-08
9.312491e-08
9.3160282e-08
9.3198509e-08
9.3237885e-08
9.3279314e-08
9.3322615e-08
9.3368674e-08
9.3416816e-08
9.3467914e-08
9.3521717e-08
9.3577959e-08
9.3636482e-08
9.3697177e-08
9.375955e-08
9.3823038e-08
9.3887219e-08
9.395152e-08
9.4015119e-08
9.4077288e-08
9.4137411e-08
9.4194711e-08
9.4248568e-08
9.4298803e-08
9.4345802e-08
9.4390112e-08
9.443184e-08
9.4471784e-08
9.4507301e-08
9.4544526e-08
9.4590112e-08
9.4631872e-08
9.4674322e-08
9.472016e-08
9.477079e-08
9.4825739e-08
9.4884302e-08
9.4947828e-08
9.5015508e-08
9.5085535e-08
9.5158917e-08
9.5237904e-08
9.5317518e-08
9.540181e-08
9.5486765e-08
9.5574877e-08
9.5664453e-08
9.5756613e-08
9.5842858e-08
9.2989766e-08
9.3027497e-08
9.3066159e-08
9.3107408e-08
9.3150163e-08
9.3195148e-08
9.3242287e-08
9.3292235e-08
9.3344557e-08
9.3399772e-08
9.3457758e-08
9.3518299e-08
9.3581111e-08
9.3645921e-08
9.3712226e-08
9.377932e-08
9.3846532e-08
9.3913202e-08
9.3978484e-08
9.4041499e-08
9.4101477e-08
9.4157533e-08
9.4208943e-08
9.4255431e-08
9.4297138e-08
9.4334447e-08
9.4367689e-08
9.4397388e-08
9.4426163e-08
9.4443056e-08
9.4472825e-08
9.4499477e-08
9.4525488e-08
9.4553433e-08
9.4584698e-08
9.461926e-08
9.4656845e-08
9.4698601e-08
9.4744089e-08
9.4792049e-08
9.4843219e-08
9.4899265e-08
9.4956439e-08
9.5017708e-08
9.5079988e-08
9.514507e-08
9.521156e-08
9.5280367e-08
9.5344383e-08
9.2914404e-08
9.2955205e-08
9.2997115e-08
9.3041477e-08
9.3087683e-08
9.3136323e-08
9.3187397e-08
9.3241385e-08
9.3298027e-08
9.335757e-08
9.3419983e-08
9.3485073e-08
9.3552443e-08
9.3621686e-08
9.369227e-08
9.3763356e-08
9.3834059e-08
9.3903632e-08
9.3971177e-08
9.4035673e-08
9.4096208e-08
9.4151788e-08
9.4201593e-08
9.424526e-08
9.4282735e-08
9.4314255e-08
9.4340263e-08
9.4361463e-08
9.4378269e-08
9.4393711e-08
9.4405362e-08
9.4415577e-08
9.4425777e-08
9.4437322e-08
9.44512e-08
9.4467627e-08
9.4486644e-08
9.4509236e-08
9.4535245e-08
9.4563838e-08
9.4595561e-08
9.4631639e-08
9.4669283e-08
9.4710643e-08
9.4753358e-08
9.4798692e-08
9.4845491e-08
9.4894489e-08
9.4939734e-08
9.2859769e-08
9.2903598e-08
9.2948761e-08
9.2996339e-08
9.3046093e-08
9.3098509e-08
9.3153641e-08
9.3211838e-08
9.3272968e-08
9.3337063e-08
9.3404155e-08
9.3474053e-08
9.3546263e-08
9.3620257e-08
9.3695462e-08
9.3770913e-08
9.3845538e-08
9.3918496e-08
9.398882e-08
9.4055353e-08
9.411705e-08
9.4172807e-08
9.4221709e-08
9.4263319e-08
9.4297424e-08
9.4324124e-08
9.4343963e-08
9.4357584e-08
9.4365914e-08
9.4369462e-08
9.4369792e-08
9.436803e-08
9.4365132e-08
9.4362362e-08
9.436086e-08
9.4361205e-08
9.4363742e-08
9.4369361e-08
9.4378137e-08
9.4389587e-08
9.4404128e-08
9.4422659e-08
9.4443145e-08
9.4467121e-08
9.4492786e-08
9.4521011e-08
9.455083e-08
9.4582824e-08
9.461202e-08
9.2822429e-08
9.2869297e-08
9.291776e-08
9.2968679e-08
9.3022105e-08
9.307844e-08
9.3137785e-08
9.3200381e-08
9.3266192e-08
9.3335079e-08
9.3407113e-08
9.3482094e-08
9.3559437e-08
9.3638506e-08
9.3718672e-08
9.3798853e-08
9.3877809e-08
9.3954597e-08
9.4028168e-08
9.4097234e-08
9.4160618e-08
9.4217112e-08
9.4265705e-08
9.4305891e-08
9.433733e-08
9.4359992e-08
9.4374493e-08
9.4381516e-08
9.4381808e-08
9.4376455e-08
9.4366609e-08
9.4353501e-08
9.4338361e-08
9.4322477e-08
9.4307057e-08
9.4292917e-08
9.4280629e-08
9.427102e-08
9.4264363e-08
9.426046e-08
9.4259651e-08
9.4262596e-08
9.4267853e-08
9.4276495e-08
9.4287162e-08
9.4300426e-08
9.4315478e-08
9.4332765e-08
9.434814e-08
9.2799804e-08
9.284976e-08
9.2901603e-08
9.2956007e-08
9.3013252e-08
9.3073676e-08
9.3137411e-08
9.3204618e-08
9.3275327e-08
9.3349265e-08
9.3426519e-08
9.3506872e-08
9.3589655e-08
9.3674127e-08
9.37596e-08
9.3844873e-08
9.3928551e-08
9.4009585e-08
9.4086834e-08
9.415888e-08
9.4224419e-08
9.4282134e-08
9.4330925e-08
9.4370217e-08
9.4399564e-08
9.4418822e-08
9.442866e-08
9.442978e-08
9.4422948e-08
9.440926e-08
9.4390031e-08
9.4366614e-08
9.4340365e-08
9.4312563e-08
9.4284481e-08
9.4257156e-08
9.4231367e-08
9.4207924e-08
9.4187272e-08
9.4169457e-08
9.4154773e-08
9.414371e-08
9.4135298e-08
9.413026e-08
9.4127585e-08
9.412762e-08
9.4129679e-08
9.4134094e-08
9.4137424e-08
9.2789949e-08
9.2843078e-08
9.2898415e-08
9.2956469e-08
9.3017704e-08
9.3082407e-08
9.3150737e-08
9.3222788e-08
9.3298638e-08
9.33779e-08
9.3460671e-08
9.3546701e-08
9.3635242e-08
9.3725457e-08
9.3816585e-08
9.3907311e-08
9.3996093e-08
9.4081771e-08
9.4163102e-08
9.4238537e-08
9.4306649e-08
9.4366012e-08
9.4415436e-08
9.4454281e-08
9.4482009e-08
9.4498373e-08
9.4504084e-08
9.4499877e-08
9.4486517e-08
9.4465202e-08
9.4437341e-08
9.4404379e-08
9.4367807e-08
9.4328937e-08
9.4289127e-08
9.424961e-08
9.4211352e-08
9.417517e-08
9.414166e-08
9.4111077e-08
9.4083698e-08
9.405989e-08
9.403906e-08
9.402167e-08
9.4006986e-08
9.3995184e-08
9.3985681e-08
9.3978707e-08
9.3971423e-08
9.2791437e-08
9.2847854e-08
9.2906826e-08
9.2968712e-08
9.3034132e-08
9.3103328e-08
9.3176481e-08
9.325363e-08
9.3334885e-08
9.3419767e-08
9.3508364e-08
9.3600394e-08
9.3695029e-08
9.3791335e-08
9.3888475e-08
9.3985017e-08
9.4079278e-08
9.4169982e-08
9.4255777e-08
9.4334983e-08
9.4406049e-08
9.4467438e-08
9.4517874e-08
9.455665e-08
9.458315e-08
9.4597033e-08
9.4599046e-08
9.4589958e-08
9.4570556e-08
9.4542123e-08
9.4506166e-08
9.4464234e-08
9.441795e-08
9.4368677e-08
9.4317867e-08
9.4266931e-08
9.4217005e-08
9.4168934e-08
9.4123455e-08
9.4081004e-08
9.4041856e-08
9.40063e-08
9.3974045e-08
9.3945359e-08
9.3919728e-08
9.3897198e-08
9.3877273e-08
9.3860089e-08
9.3843328e-08
9.280325e-08
9.2863095e-08
9.2925868e-08
9.299179e-08
9.306161e-08
9.3135534e-08
9.3213761e-08
9.3296283e-08
9.3383232e-08
9.3474047e-08
9.3568802e-08
9.3667171e-08
9.3768248e-08
9.3871006e-08
9.3974523e-08
9.4077248e-08
9.4177361e-08
9.4273465e-08
9.436409e-08
9.4447426e-08
9.4521795e-08
9.4585553e-08
9.4637333e-08
9.4676363e-08
9.4701958e-08
9.4713695e-08
9.4712348e-08
9.4698727e-08
9.4673649e-08
9.4638484e-08
9.4594839e-08
9.4544368e-08
9.4488823e-08
9.4429637e-08
9.4368366e-08
9.4306586e-08
9.4245592e-08
9.4186277e-08
9.4129507e-08
9.4075875e-08
9.4025676e-08
9.3979144e-08
9.3936239e-08
9.3897083e-08
9.3861338e-08
9.3828955e-08
9.3799508e-08
9.3773048e-08
9.3747715e-08
9.2824705e-08
9.2888144e-08
9.2954906e-08
9.3025087e-08
9.3099543e-08
9.3178454e-08
9.3262029e-08
9.3350221e-08
9.3443175e-08
9.3540256e-08
9.3641516e-08
9.3746582e-08
9.3854468e-08
9.3964052e-08
9.4074319e-08
9.4183602e-08
9.4289939e-08
9.439181e-08
9.4487621e-08
9.4575427e-08
9.4653427e-08
9.4719864e-08
9.4773282e-08
9.4812846e-08
9.4837804e-08
9.4847663e-08
9.4843222e-08
9.4825332e-08
9.4794851e-08
9.4753236e-08
9.4702194e-08
9.4643487e-08
9.4578998e-08
9.4510246e-08
9.4438897e-08
9.4366686e-08
9.429506e-08
9.4224971e-08
9.4157408e-08
9.4093108e-08
9.4032394e-08
9.3975472e-08
9.3922507e-08
9.3873513e-08
9.3828299e-08
9.3786741e-08
9.3748472e-08
9.3713468e-08
9.3680267e-08
9.2855402e-08
9.292262e-08
9.2993585e-08
9.3068266e-08
9.3147617e-08
9.3231793e-08
9.3321013e-08
9.3415194e-08
9.3514486e-08
9.3618188e-08
9.3726322e-08
9.3838461e-08
9.3953539e-08
9.4070335e-08
9.4187739e-08
9.4303959e-08
9.4416897e-08
9.4524899e-08
9.4626242e-08
9.4718847e-08
9.4800785e-08
9.4870188e-08
9.4925509e-08
9.4965846e-08
9.4990391e-08
9.4998589e-08
9.4991259e-08
9.4969297e-08
9.4933607e-08
9.4885736e-08
9.4827491e-08
9.4760748e-08
9.4687521e-08
9.4609429e-08
9.4528255e-08
9.4445889e-08
9.4363923e-08
9.4283384e-08
9.4205377e-08
9.4130769e-08
9.4059923e-08
9.3993036e-08
9.3930442e-08
9.387208e-08
9.3817876e-08
9.3767653e-08
9.3721095e-08
9.3678104e-08
9.3637576e-08
9.2895185e-08
9.2966387e-08
9.3041788e-08
9.3121232e-08
9.3205759e-08
9.3295501e-08
9.3390686e-08
9.3491197e-08
9.3597183e-08
9.3707882e-08
9.3823278e-08
9.3942887e-08
9.4065557e-08
9.418997e-08
9.4314907e-08
9.4438455e-08
9.4558371e-08
9.4672867e-08
9.4780085e-08
9.4877807e-08
9.4963975e-08
9.5036609e-08
9.509407e-08
9.5135393e-08
9.5159711e-08
9.516642e-08
9.5156356e-08
9.5130461e-08
9.5089695e-08
9.5035688e-08
9.4970355e-08
9.4895688e-08
9.4813834e-08
9.4726526e-08
9.4635672e-08
9.4543312e-08
9.445118e-08
9.4360387e-08
9.4272155e-08
9.418747e-08
9.4106743e-08
9.4030177e-08
9.395825e-08
9.3890849e-08
9.3827999e-08
9.376948e-08
9.3715022e-08
9.366446e-08
9.361701e-08
9.2944112e-08
9.3019526e-08
9.3099619e-08
9.3184107e-08
9.3274112e-08
9.3369745e-08
9.3471237e-08
9.3578445e-08
9.3691506e-08
9.3809599e-08
9.3932668e-08
9.4060163e-08
9.4190846e-08
9.4323293e-08
9.4456176e-08
9.4587449e-08
9.4714728e-08
9.4836082e-08
9.4949511e-08
9.5052659e-08
9.5143336e-08
9.521945e-08
9.5279269e-08
9.5321761e-08
9.534601e-08
9.5351366e-08
9.5338683e-08
9.530895e-08
9.5263183e-08
9.5203103e-08
9.5130729e-08
9.5048176e-08
9.495773e-08
9.4861245e-08
9.4760761e-08
9.4658467e-08
9.4556241e-08
9.4455286e-08
9.4356935e-08
9.4262292e-08
9.417182e-08
9.4085743e-08
9.4004661e-08
9.3928427e-08
9.3857151e-08
9.3790583e-08
9.372849e-08
9.3670644e-08
9.3616556e-08
9.3002442e-08
9.3082315e-08
9.3167377e-08
9.3257215e-08
9.3353023e-08
9.3454895e-08
9.3563064e-08
9.3677356e-08
9.3797897e-08
9.3923808e-08
9.4054983e-08
9.4190803e-08
9.4329937e-08
9.4470854e-08
9.4612107e-08
9.4751516e-08
9.4886548e-08
9.5015123e-08
9.5135098e-08
9.5243974e-08
9.5339428e-08
9.5419255e-08
9.5481631e-08
9.5525456e-08
9.5549766e-08
9.5553877e-08
9.5538655e-08
9.5505138e-08
9.5454404e-08
9.5388262e-08
9.5308842e-08
9.5218382e-08
9.5119311e-08
9.5013617e-08
9.4903475e-08
9.4791228e-08
9.4678891e-08
9.4567771e-08
9.4459312e-08
9.435473e-08
9.425455e-08
9.4159023e-08
9.4068861e-08
9.3983896e-08
9.3904311e-08
9.3829835e-08
9.376027e-08
9.3695326e-08
9.3634789e-08
9.3070627e-08
9.3155225e-08
9.324556e-08
9.3341073e-08
9.3443035e-08
9.3551519e-08
9.3666759e-08
9.3788552e-08
9.3917006e-08
9.4051182e-08
9.419092e-08
9.4335525e-08
9.4483572e-08
9.4633412e-08
9.4783474e-08
9.4931437e-08
9.5074616e-08
9.521078e-08
9.5337633e-08
9.545253e-08
9.555302e-08
9.5636778e-08
9.5701893e-08
9.5747196e-08
9.5771678e-08
9.5774625e-08
9.5756918e-08
9.5719643e-08
9.566394e-08
9.5591708e-08
9.5505188e-08
9.540675e-08
9.529897e-08
9.5183974e-08
9.5064083e-08
9.4941789e-08
9.4819251e-08
9.4697881e-08
9.457924e-08
9.4464653e-08
9.4354711e-08
9.4249705e-08
9.4150444e-08
9.4056754e-08
9.3968882e-08
9.3886542e-08
9.380957e-08
9.3737614e-08
9.3670722e-08
9.3149309e-08
9.3238923e-08
9.3334856e-08
9.3436397e-08
9.354489e-08
9.3660386e-08
9.378312e-08
9.3912857e-08
9.4049684e-08
9.41926e-08
9.4341384e-08
9.449526e-08
9.4652699e-08
9.4811932e-08
9.4971257e-08
9.5128204e-08
9.5279932e-08
9.5424049e-08
9.5558108e-08
9.5679315e-08
9.5785085e-08
9.5872982e-08
9.5941003e-08
9.5987912e-08
9.6012657e-08
9.6014503e-08
9.5994343e-08
9.595331e-08
9.5892607e-08
9.5814226e-08
9.5720519e-08
9.5613994e-08
9.5497375e-08
9.5372937e-08
9.524315e-08
9.5110656e-08
9.4977759e-08
9.4845986e-08
9.4717014e-08
9.4592277e-08
9.4472441e-08
9.4357842e-08
9.4249382e-08
9.414689e-08
9.4050672e-08
9.3960434e-08
9.3876043e-08
9.3797086e-08
9.3723865e-08
9.323933e-08
9.3334274e-08
9.3436158e-08
9.3544107e-08
9.3659536e-08
9.3782475e-08
9.3913156e-08
9.4051311e-08
9.4197001e-08
9.434916e-08
9.45075e-08
9.4671155e-08
9.4838489e-08
9.5007605e-08
9.5176658e-08
9.5343028e-08
9.5503708e-08
9.5656146e-08
9.5797732e-08
9.5925528e-08
9.6036813e-08
9.6129041e-08
9.6200119e-08
9.6248747e-08
9.6273831e-08
9.6274622e-08
9.6252023e-08
9.6207213e-08
9.6141461e-08
9.6056847e-08
9.5955841e-08
9.5841088e-08
9.5715469e-08
9.558141e-08
9.5441533e-08
9.5298636e-08
9.5155167e-08
9.5012774e-08
9.4873254e-08
9.4738153e-08
9.4608216e-08
9.4483835e-08
9.4365999e-08
9.425455e-08
9.4149848e-08
9.4051595e-08
9.3959689e-08
9.3873658e-08
9.3794054e-08
9.3341744e-08
9.3442358e-08
9.3550577e-08
9.3665345e-08
9.3788147e-08
9.3918992e-08
9.4058107e-08
9.4205187e-08
9.4360261e-08
9.4522197e-08
9.469063e-08
9.4864599e-08
9.5042352e-08
9.5221856e-08
9.5401117e-08
9.5577354e-08
9.5747393e-08
9.5908512e-08
9.6057941e-08
9.6192592e-08
9.6309614e-08
9.6406349e-08
9.648062e-08
9.6531064e-08
9.655655e-08
9.6556319e-08
9.6531282e-08
9.6482665e-08
9.64118e-08
9.6320853e-08
9.6212417e-08
9.6089278e-08
9.5954472e-08
9.5810582e-08
9.5660388e-08
9.5506841e-08
9.5352536e-08
9.519925e-08
9.5048906e-08
9.4903163e-08
9.4762853e-08
9.4628432e-08
9.4500975e-08
9.4380344e-08
9.4266954e-08
9.4160508e-08
9.4060935e-08
9.3967701e-08
9.3881613e-08
9.345784e-08
9.3564494e-08
9.3679466e-08
9.3801497e-08
9.3932146e-08
9.4071397e-08
9.4219469e-08
9.4376017e-08
9.4541032e-08
9.4713311e-08
9.4892405e-08
9.5077248e-08
9.5265964e-08
9.5456377e-08
9.5646334e-08
9.5832887e-08
9.601269e-08
9.6182845e-08
9.6340419e-08
9.6482176e-08
9.6605137e-08
9.6706538e-08
9.6784121e-08
9.6836463e-08
9.6862401e-08
9.6861169e-08
9.6833689e-08
9.6781228e-08
9.6705176e-08
9.6607792e-08
9.6491787e-08
9.6360091e-08
9.6215897e-08
9.6061948e-08
9.590118e-08
9.57367e-08
9.5571253e-08
9.5406753e-08
9.5245253e-08
9.508853e-08
9.4937511e-08
9.4792727e-08
9.4655336e-08
9.4525229e-08
9.4402874e-08
9.428798e-08
9.4180506e-08
9.4079856e-08
9.3987103e-08
9.3589172e-08
9.3702269e-08
9.382445e-08
9.3954228e-08
9.409324e-08
9.4241438e-08
9.4399031e-08
9.456563e-08
9.4741183e-08
9.4924406e-08
9.5114758e-08
9.5311061e-08
9.5511304e-08
9.5713159e-08
9.5914308e-08
9.6111625e-08
9.6301588e-08
9.6481121e-08
9.6647125e-08
9.6796219e-08
9.6925298e-08
9.7031501e-08
9.7112495e-08
9.7166801e-08
9.7193228e-08
9.719101e-08
9.7161076e-08
9.7104731e-08
9.7023423e-08
9.6919498e-08
9.6795785e-08
9.6655362e-08
9.6501576e-08
9.6337327e-08
9.6165709e-08
9.5989985e-08
9.5813054e-08
9.5636974e-08
9.5463935e-08
9.5295841e-08
9.5133721e-08
9.4978189e-08
9.4830491e-08
9.4690554e-08
9.4558902e-08
9.4435253e-08
9.4319604e-08
9.4211288e-08
9.4111662e-08
9.3737595e-08
9.3857579e-08
9.3987471e-08
9.4125526e-08
9.4273461e-08
9.4431195e-08
9.459892e-08
9.47762e-08
9.4962927e-08
9.5157733e-08
9.5359976e-08
9.5568349e-08
9.57807e-08
9.5994542e-08
9.6207376e-08
9.6415899e-08
9.6616404e-08
9.6805636e-08
9.6980328e-08
9.713696e-08
9.7272308e-08
9.7383422e-08
9.7467901e-08
9.7524219e-08
9.7551161e-08
9.7547964e-08
9.7515566e-08
9.7455304e-08
9.7368679e-08
9.7258119e-08
9.7126575e-08
9.6977267e-08
9.681369e-08
9.66389e-08
9.6456145e-08
9.6268845e-08
9.6080058e-08
9.5891993e-08
9.5706988e-08
9.552708e-08
9.535341e-08
9.5186686e-08
9.5028243e-08
9.4878054e-08
9.4736698e-08
9.4603907e-08
9.4479715e-08
9.4363388e-08
9.4256582e-08
9.3905324e-08
9.4032682e-08
9.4170839e-08
9.4317754e-08
9.4475227e-08
9.4643141e-08
9.4821663e-08
9.5010303e-08
9.520889e-08
9.5415961e-08
9.5630758e-08
9.5851838e-08
9.6076896e-08
9.6303269e-08
9.6528278e-08
9.674843e-08
9.6959833e-08
9.7159052e-08
9.7342656e-08
9.7506987e-08
9.7648717e-08
9.7764814e-08
9.7852823e-08
9.7911178e-08
9.7938647e-08
9.7934478e-08
9.7899612e-08
9.7835412e-08
9.7743427e-08
9.7626163e-08
9.748669e-08
9.7328363e-08
9.7154818e-08
9.6969256e-08
9.6775076e-08
9.6575857e-08
9.6374818e-08
9.6174333e-08
9.5976896e-08
9.5784686e-08