/*--------------------------------*- C++ -*----------------------------------*\
| =========                 |                                                 |
| \\      /  F ield         | OpenFOAM: The Open Source CFD Toolbox           |
|  \\    /   O peration     | Version:  v2006                                 |
|   \\  /    A nd           | Website:  www.openfoam.com                      |
|    \\/     M anipulation  |                                                 |
\*---------------------------------------------------------------------------*/
FoamFile
{
    version     2.0;
    format      ascii;
    class       volScalarField;
    location    "1500";
    object      omega;
}
// * * * * * * * * * * * * * * * * * * * * * * * * * * * * * * * * * * * * * //

dimensions      [0 0 -1 0 0 0 0];


internalField   nonuniform List<scalar> 
19765
(
15.874698
16.182346
16.994181
17.21252
17.564708
17.612784
18.165935
18.159681
18.648248
19.286842
19.314732
18.85752
18.71614
18.551966
18.068263
18.030157
18.316344
18.240324
17.799314
17.489054
17.369126
17.398402
17.309449
17.365063
17.468546
17.569282
17.728979
18.042802
18.206719
18.571885
19.141667
19.868097
20.144254
20.125855
20.490611
21.283844
21.623838
21.950708
22.7731
23.02846
22.619616
22.427326
22.742893
22.175182
22.40562
21.964022
21.889682
21.816301
21.857338
2.8911392
2.8036498
2.7596264
2.8130455
2.8396092
2.865324
2.8732843
2.9132605
2.9245989
2.9796465
3.0311043
3.0453565
3.0423399
3.0381581
3.0103327
2.981793
2.9831188
2.9839208
2.9674909
2.9449062
2.9314386
2.9403927
2.9511347
2.9581735
2.9884038
3.0560912
3.1255739
3.1919845
3.2832173
3.3840663
3.4826683
3.5737372
3.6447432
3.7513723
3.8952512
4.0230251
4.1155817
4.2372402
4.3373649
4.3831577
4.4570448
4.5937036
4.6528879
4.84408
4.9542558
5.3091053
5.7445223
6.2426521
6.6269486
1.0369625
1.0404588
1.0502767
1.0834006
1.103557
1.122014
1.1322699
1.1518255
1.1592655
1.1802912
1.2003629
1.208659
1.2099469
1.21221
1.2084168
1.2015261
1.2015841
1.2041229
1.2028392
1.1999609
1.2024785
1.2121732
1.2207171
1.2266665
1.2393894
1.2660935
1.2966883
1.3275305
1.3672365
1.41168
1.4566579
1.5003715
1.5369685
1.5831023
1.6415837
1.6973267
1.7405274
1.7908998
1.8352652
1.8593539
1.8842437
1.9320909
1.9554108
1.9915716
2.0145949
2.0566016
2.110553
2.1773955
2.2433791
0.59597235
0.59647704
0.60164417
0.61541415
0.62609123
0.63709366
0.64542334
0.65658497
0.66312364
0.67387538
0.68448317
0.69113701
0.69521456
0.69977997
0.70210582
0.70235856
0.70502007
0.70974538
0.7128786
0.71475502
0.71953351
0.72654204
0.73213859
0.73759629
0.74672769
0.76180129
0.77839018
0.79490697
0.81473807
0.83643809
0.85840282
0.88009187
0.89927075
0.92201237
0.94973785
0.97690297
0.99918555
1.023963
1.0468549
1.0621757
1.077605
1.1037324
1.1219946
1.1512404
1.1759518
1.20399
1.2283303
1.2487294
1.2656056
0.45619371
0.45745742
0.46020779
0.46642738
0.4709915
0.47546143
0.47877546
0.48335427
0.4860708
0.49063499
0.49517302
0.49807854
0.49994736
0.50205657
0.50331979
0.50390281
0.50573116
0.50863393
0.51115764
0.51343479
0.51634168
0.51979382
0.52343511
0.52790269
0.5342606
0.54316638
0.55269441
0.56243637
0.57389412
0.58631126
0.59896326
0.61155209
0.62312274
0.63623494
0.6513546
0.66604424
0.67850983
0.69173452
0.70390417
0.71274655
0.72135015
0.73376803
0.74255879
0.75528484
0.7660083
0.77919557
0.79314261
0.8048417
0.8122162
0.37457469
0.37518794
0.37681016
0.38041103
0.3832552
0.38609124
0.38830949
0.39114217
0.39297104
0.39570553
0.39839831
0.40026212
0.40161497
0.40310344
0.40419993
0.40501772
0.406517
0.40858342
0.41049542
0.41239074
0.41476296
0.41754668
0.42069071
0.4243603
0.42898921
0.43502276
0.44150508
0.44824347
0.45603877
0.46447799
0.47316101
0.48192369
0.49023318
0.49945146
0.50985473
0.52013284
0.5292556
0.53880065
0.54783583
0.55511702
0.56225415
0.57158991
0.57913066
0.58901141
0.59811266
0.60898739
0.62071705
0.63329383
0.64433147
0.33155466
0.3316586
0.33230257
0.33407079
0.33546321
0.33689254
0.33803423
0.33954788
0.34056625
0.3420995
0.34364582
0.34478662
0.34569071
0.34670105
0.34754299
0.3482839
0.34944589
0.35097525
0.35248735
0.35404788
0.35583452
0.35778955
0.36006872
0.36278324
0.36611092
0.37026855
0.37473506
0.37943328
0.38479681
0.39058668
0.39659137
0.402713
0.40866089
0.4151708
0.42237449
0.4295372
0.4361072
0.44293762
0.44950572
0.45512342
0.46068778
0.46742262
0.47315779
0.48010587
0.48656276
0.49386656
0.50146242
0.50937115
0.51650174
0.30431601
0.30441394
0.30483164
0.30592507
0.30679381
0.30768489
0.30840721
0.30934841
0.31000725
0.31097083
0.31195092
0.31271497
0.3133637
0.31409292
0.31475078
0.31538266
0.31628578
0.3174301
0.3186058
0.31986283
0.32130185
0.32288301
0.32470671
0.32684126
0.32937898
0.33244882
0.33574654
0.3392355
0.34318228
0.34744512
0.35189637
0.35647567
0.36100259
0.36592203
0.37132341
0.37676132
0.38188314
0.3872067
0.39241726
0.39707487
0.40171533
0.40714692
0.41199674
0.41769159
0.42316264
0.4292995
0.43578578
0.44267572
0.44920591
0.2868388
0.28688525
0.28712973
0.28780368
0.28834749
0.28891397
0.28938725
0.29000356
0.29046047
0.2911125
0.29178781
0.29234945
0.29285916
0.29343432
0.29398596
0.29454311
0.29528393
0.29619163
0.29714306
0.29816938
0.29932434
0.30057665
0.30199752
0.30364663
0.30557818
0.30786357
0.31031864
0.31292785
0.31585636
0.31901601
0.3223305
0.32576169
0.32919869
0.33291426
0.33696138
0.34105966
0.34499028
0.34906957
0.3530976
0.35679359
0.3604927
0.36468227
0.36851005
0.37284929
0.37703295
0.38160069
0.386343
0.39127877
0.39592485
0.27500238
0.27508809
0.27529322
0.27577468
0.27617141
0.27658415
0.27694009
0.27739042
0.27774598
0.27823069
0.27873795
0.27918544
0.2796129
0.28009338
0.28057336
0.28107243
0.28170042
0.28244727
0.28323876
0.28409556
0.28505149
0.28608532
0.28723871
0.28855654
0.29007606
0.29183896
0.29372944
0.29574176
0.29798524
0.30040473
0.30295271
0.30560565
0.30829156
0.31118843
0.31433403
0.31754502
0.32067291
0.32392427
0.32716765
0.33020978
0.3332664
0.33667629
0.33985965
0.34341457
0.3468904
0.35066512
0.35460513
0.35874662
0.36271885
0.26676018
0.26687398
0.26706317
0.26743731
0.26775718
0.26809044
0.26839015
0.26875578
0.26906554
0.26946482
0.26988608
0.27027809
0.27066681
0.27109898
0.27154113
0.27200601
0.27256298
0.27320581
0.27388781
0.27462169
0.27542856
0.27629337
0.27724055
0.27830358
0.27951088
0.28088681
0.28235642
0.28391913
0.2856484
0.28750939
0.28947309
0.29152528
0.29361924
0.29587264
0.29831109
0.30081165
0.30327411
0.30583435
0.30840299
0.31084605
0.31330716
0.31600967
0.31856214
0.32136221
0.32410468
0.32703976
0.33007367
0.33322724
0.33623844
0.26087327
0.26102675
0.26122607
0.2615503
0.26183829
0.26213727
0.26241652
0.26274327
0.26303764
0.26339617
0.2637754
0.26414313
0.26451646
0.26492573
0.26534955
0.26579591
0.26630884
0.26688412
0.26749152
0.2681385
0.26883813
0.26957991
0.27037744
0.27125428
0.27223281
0.27332764
0.27448933
0.27571974
0.27707015
0.27851949
0.2800508
0.2816561
0.28330428
0.28507567
0.28698937
0.28896174
0.29092269
0.29296537
0.29502823
0.29701524
0.29902325
0.30121185
0.3033031
0.30557868
0.30782276
0.31021512
0.312691
0.31527415
0.31775728
0.25659444
0.25678159
0.25699711
0.25729929
0.25757794
0.25786662
0.25814498
0.25845939
0.25875661
0.25910169
0.25946659
0.25983069
0.26020512
0.26060963
0.26103012
0.26147101
0.26195997
0.26249383
0.26305222
0.26363877
0.26426103
0.26491101
0.2655956
0.26633119
0.26713537
0.26801658
0.26894217
0.26991491
0.27097167
0.27210115
0.27329408
0.27454569
0.27583486
0.27721726
0.27870768
0.28024915
0.28179306
0.28340398
0.28503885
0.28662817
0.28823859
0.28998094
0.29165778
0.2934656
0.29525066
0.29713798
0.29907997
0.3010931
0.30302047
0.25343603
0.25365616
0.25389323
0.25419119
0.25447438
0.25476725
0.25505633
0.25537412
0.25568488
0.25603281
0.25639992
0.25677298
0.25715893
0.25757045
0.25799794
0.25844306
0.25892253
0.2594336
0.25996193
0.26050829
0.26107634
0.26165928
0.26225972
0.26288903
0.26356059
0.26427899
0.26502274
0.26579477
0.26662352
0.26750465
0.26843264
0.26940395
0.27040465
0.27147527
0.27262892
0.27382743
0.27503697
0.27630337
0.2775963
0.27886476
0.2801547
0.28154631
0.28289573
0.28434461
0.28578104
0.28729583
0.28885412
0.29047145
0.29202118
0.2510847
0.25133409
0.2515937
0.25189724
0.25219267
0.25249809
0.25280466
0.25313548
0.25346648
0.25382769
0.25420784
0.25459841
0.25500332
0.25543033
0.25587263
0.25632968
0.25681063
0.25731273
0.2578253
0.25834685
0.25887817
0.25941278
0.25995046
0.26049893
0.26106804
0.26165979
0.26226024
0.26287215
0.26352011
0.26420316
0.2649159
0.26565586
0.26641618
0.26722852
0.26810518
0.26902088
0.2699521
0.27093127
0.27193682
0.27293108
0.27394594
0.27503854
0.27610394
0.27724336
0.2783748
0.27956291
0.28078119
0.28204131
0.28324327
0.24932113
0.24959808
0.24988124
0.25019689
0.25050962
0.25083307
0.25116159
0.25151176
0.25186748
0.25224894
0.25264945
0.25306351
0.25349281
0.25394161
0.25440476
0.25487994
0.25537086
0.25587455
0.25638245
0.25689125
0.25739945
0.25790048
0.25839208
0.25887931
0.259369
0.25986138
0.26034767
0.26083062
0.26133469
0.26185661
0.26238975
0.26293586
0.26349587
0.26409567
0.26474614
0.26543044
0.26613204
0.26687402
0.26764128
0.26840613
0.26919076
0.27003681
0.27086698
0.27175481
0.27263958
0.27356839
0.27452096
0.27550746
0.27644606
0.24799789
0.24830042
0.2486072
0.248939
0.24927216
0.24961717
0.24997058
0.25034439
0.250728
0.25113465
0.25156077
0.25200283
0.2524608
0.25293634
0.25342527
0.25392375
0.25443149
0.25494507
0.25545713
0.25596275
0.25645859
0.25693766
0.25739618
0.25783717
0.25826491
0.25867841
0.25907234
0.2594502
0.2598384
0.26022344
0.26060189
0.26098445
0.26137781
0.26180157
0.26226413
0.26275431
0.26326088
0.26380067
0.26436364
0.26492985
0.26551495
0.26614911
0.26677542
0.26744701
0.26811867
0.2688242
0.26954769
0.27029699
0.27100577
0.24700761
0.24733473
0.24766547
0.24801639
0.24837238
0.24874161
0.24912222
0.24952292
0.24993697
0.25037261
0.25082843
0.25130217
0.25179239
0.25229883
0.25281777
0.25334404
0.25387428
0.25440454
0.25492796
0.25543821
0.25593035
0.25639683
0.2568326
0.25723913
0.25761851
0.25796883
0.2582872
0.25857883
0.2588717
0.25913492
0.25938004
0.25962754
0.25988284
0.26015871
0.26046166
0.26078532
0.26112318
0.26148832
0.2618749
0.26226901
0.2626818
0.26313525
0.26358746
0.26407694
0.26456984
0.26509058
0.26562652
0.26618416
0.26670873
0.24627519
0.24662618
0.2469811
0.24735332
0.24773395
0.24812948
0.24853917
0.24896937
0.24941605
0.24988381
0.25037272
0.2508813
0.25140699
0.25194797
0.25250069
0.25305878
0.25361644
0.25416908
0.25470991
0.2552313
0.25572688
0.2561884
0.25660974
0.25699112
0.25733277
0.257632
0.25788786
0.25810805
0.25831719
0.25847145
0.25860541
0.25874219
0.25887901
0.25902559
0.25918805
0.25936466
0.2595534
0.25976513
0.2599972
0.2602403
0.26050228
0.26079893
0.26109956
0.26143177
0.26177016
0.26213203
0.26250719
0.26290063
0.26326736
0.24574484
0.2461195
0.24649912
0.24689452
0.24730145
0.24772515
0.2481657
0.24862772
0.24910911
0.24961177
0.25013681
0.25068316
0.25124734
0.25182624
0.25241625
0.25300989
0.25359937
0.25417935
0.25474282
0.25528091
0.25578594
0.25624883
0.25666254
0.25702625
0.25733856
0.25759618
0.25779976
0.25795946
0.25808135
0.25815673
0.25820003
0.25823739
0.25826665
0.25829649
0.25833237
0.25837764
0.25843411
0.25851086
0.25860741
0.25871781
0.2588475
0.25900771
0.25917628
0.2593728
0.25957829
0.25980489
0.26004427
0.26030038
0.26053599
0.24537636
0.24577479
0.24617974
0.24659997
0.24703475
0.24748836
0.24796152
0.24845754
0.24897571
0.2495159
0.2500799
0.25066685
0.25127246
0.25189253
0.2525232
0.25315596
0.25378129
0.25439308
0.25498382
0.25554347
0.2560631
0.25653275
0.25694448
0.25729657
0.25758626
0.25780971
0.25796901
0.2580745
0.25806558
0.25808054
0.25808071
0.25803957
0.25797154
0.25789222
0.25781299
0.2577412
0.25768027
0.2576373
0.25761337
0.25760531
0.25761696
0.25765626
0.25770764
0.25778471
0.2578734
0.25798192
0.25810342
0.25824082
0.25836339
0.24513966
0.24556232
0.24599343
0.24644013
0.24690435
0.24738965
0.24789723
0.24842942
0.24898652
0.24956682
0.25017257
0.25080296
0.25145295
0.25211739
0.25279204
0.2534674
0.25413242
0.25478014
0.25540238
0.25598794
0.25652669
0.25700773
0.25742227
0.25776771
0.2580402
0.25823537
0.25835648
0.25840803
0.25840908
0.25834902
0.25823878
0.2580952
0.25793028
0.25775326
0.25757329
0.25739732
0.25723033
0.25707875
0.25694545
0.25682971
0.2567344
0.25666509
0.25661131
0.25658221
0.25656748
0.25657245
0.25659139
0.25662638
0.25665205
0.24501279
0.24546034
0.24591865
0.24639344
0.24688874
0.24740757
0.24795147
0.24852205
0.24912032
0.24974337
0.25039369
0.25107041
0.2517678
0.25247985
0.25320182
0.25392324
0.25463167
0.2553192
0.2559769
0.25659236
0.2571543
0.25765081
0.25807225
0.25841521
0.25867489
0.25884644
0.25893366
0.2589435
0.25887922
0.25875286
0.25857628
0.25835973
0.25811408
0.25784889
0.25757471
0.25730101
0.25703489
0.25678255
0.25654825
0.25633324
0.25613972
0.25597147
0.25582199
0.2556971
0.25558937
0.25550192
0.25542991
0.25537464
0.25531529
0.24497942
0.24545279
0.24593951
0.24644409
0.24697223
0.24752652
0.24810881
0.2487201
0.24936196
0.25003047
0.25072827
0.25145432
0.25220225
0.25296521
0.25373791
0.25450888
0.25526438
0.25599551
0.25669243
0.25734155
0.2579304
0.25844604
0.25887796
0.25922195
0.25947242
0.25962403
0.25968123
0.25965062
0.25953842
0.2593546
0.25911102
0.2588199
0.25849417
0.25814394
0.25778046
0.25741484
0.25705569
0.25670909
0.25638052
0.25607288
0.255788
0.25552841
0.25529071
0.25507823
0.25488581
0.2547149
0.25456136
0.25442584
0.25429133
0.24502777
0.24552809
0.24604459
0.24658077
0.24714363
0.24773546
0.24835833
0.2490128
0.2497008
0.25041764
0.25116595
0.25194448
0.25274622
0.25356352
0.25439045
0.25521456
0.25602081
0.25679926
0.25753908
0.25822545
0.25884468
0.2593828
0.25982838
0.26017643
0.26042065
0.26055526
0.26058516
0.26051741
0.26035786
0.26011775
0.25981028
0.25944865
0.25904695
0.25861572
0.25816707
0.2577137
0.25726572
0.25682938
0.2564113
0.25601581
0.25564459
0.25529927
0.25497896
0.2546851
0.25441429
0.25416671
0.2539388
0.25373058
0.2535283
0.24514944
0.24567803
0.2462259
0.24679558
0.24739519
0.24802679
0.24869263
0.24939289
0.2501298
0.25089798
0.2517
0.25253434
0.25339333
0.25426855
0.25515336
0.25603428
0.25689502
0.25772453
0.25851088
0.25923798
0.25989093
0.26045465
0.26091676
0.26127152
0.26151196
0.26163188
0.2616366
0.26153348
0.26132878
0.26103461
0.26066516
0.26023473
0.25975872
0.2592484
0.25871685
0.25817828
0.25764417
0.25712112
0.2566168
0.2561368
0.25568282
0.25525587
0.25485708
0.25448647
0.25414204
0.25382302
0.25352626
0.25325125
0.25298705
0.24533881
0.24589717
0.24647813
0.24708336
0.24772194
0.24839569
0.24910706
0.24985593
0.25064471
0.25146743
0.25232656
0.25322021
0.2541401
0.255077
0.25602349
0.25696505
0.25788413
0.25876848
0.259605
0.2603763
0.2610662
0.26165847
0.26213978
0.26250358
0.26274231
0.26284936
0.26283042
0.26269323
0.26244446
0.26209714
0.26166657
0.26116821
0.26061877
0.26003038
0.25941716
0.25879479
0.25817607
0.25756808
0.25697951
0.25641708
0.25588263
0.25537681
0.25490236
0.25445826
0.25404361
0.25365691
0.25329535
0.2529579
0.25263609
0.24559244
0.24618224
0.24679822
0.24744121
0.24812111
0.24883961
0.24959928
0.25039976
0.25124358
0.25212427
0.25304411
0.25400081
0.25498547
0.25598801
0.25700019
0.25800639
0.25898778
0.25993085
0.26082124
0.2616402
0.26237022
0.26299391
0.26349689
0.26387185
0.26411063
0.26420622
0.26416469
0.26399416
0.26370181
0.26330166
0.26281012
0.26224386
0.26162094
0.2609545
0.2602598
0.25955393
0.25885101
0.25815873
0.25748676
0.25684289
0.25622917
0.25564608
0.25509767
0.25458218
0.25409958
0.25364779
0.2532243
0.25282756
0.25245129
0.24590875
0.24653184
0.24718495
0.24786807
0.24859186
0.24935789
0.25016885
0.25102417
0.25192646
0.25286877
0.25385315
0.2548769
0.25593041
0.2570028
0.25808489
0.25915994
0.26020777
0.26121357
0.26216162
0.26303174
0.26380507
0.26446296
0.26499
0.26537805
0.26561836
0.26570361
0.26564014
0.26543654
0.26510058
0.26464728
0.26409423
0.26345937
0.26276216
0.26201687
0.26123998
0.26045
0.25966235
0.25888546
0.25812997
0.25740466
0.25671191
0.25605214
0.25543052
0.25484472
0.25429543
0.25378012
0.25329652
0.25284258
0.25241399
0.24628776
0.24694618
0.24763871
0.24836453
0.24913499
0.24995154
0.25081701
0.25173065
0.25269508
0.25370293
0.25475596
0.255851
0.25697776
0.25812443
0.2592809
0.26042923
0.26154784
0.26262054
0.26363015
0.26455502
0.26537486
0.26606973
0.26662313
0.26702605
0.2672692
0.26734492
0.26725986
0.26702306
0.266643
0.26613571
0.26552003
0.26481524
0.26404223
0.26321655
0.26235595
0.26148041
0.26060666
0.25974398
0.25890397
0.25809637
0.25732396
0.2565872
0.25589224
0.25523632
0.25462075
0.25404262
0.25349985
0.25298991
0.25251029
0.24673096
0.24742691
0.24816137
0.24893265
0.24975276
0.25062308
0.25154655
0.25252224
0.25355278
0.25463036
0.25575645
0.25692733
0.25813199
0.2593577
0.26059329
0.26181957
0.26301352
0.26415746
0.2652327
0.26621602
0.26708564
0.26782026
0.26840227
0.26882176
0.26906888
0.26913567
0.26902906
0.26875862
0.26833353
0.26777096
0.26709102
0.26631437
0.26546345
0.26455513
0.26360861
0.26264532
0.26168335
0.26073289
0.25980657
0.25891505
0.25806156
0.25724673
0.25647752
0.2557509
0.25506868
0.25442763
0.25382586
0.25326035
0.25273025
0.24724113
0.24797702
0.24875615
0.24957587
0.25044887
0.25137647
0.2523617
0.25340347
0.25450439
0.25565623
0.25686008
0.25811169
0.25939924
0.26070903
0.26202879
0.26333799
0.26461209
0.26583183
0.26697693
0.26802252
0.26894526
0.26972245
0.2703353
0.27077299
0.27102508
0.27108336
0.27095501
0.27065016
0.27017879
0.26955922
0.26881289
0.26796195
0.26703041
0.26603663
0.26500129
0.26394737
0.26289434
0.26185343
0.26083826
0.25986047
0.25892379
0.25802905
0.25718398
0.25638536
0.2556354
0.25493067
0.25426937
0.25364802
0.25306734
0.24782238
0.24860086
0.24942759
0.250299
0.25122841
0.25221707
0.25326813
0.25438034
0.25555625
0.2567872
0.25807389
0.25941146
0.26078726
0.26218655
0.26359585
0.26499322
0.26635255
0.26765291
0.26887229
0.26998412
0.27096344
0.27178607
0.27243199
0.27288945
0.27314742
0.27319742
0.27304694
0.27270665
0.27218742
0.27150875
0.27069348
0.26976532
0.26874993
0.26766728
0.26653963
0.26539155
0.26424399
0.26310925
0.26200206
0.26093498
0.25991229
0.25893515
0.25801196
0.25713937
0.25631998
0.25555014
0.25482817
0.2541501
0.25351819
0.24848016
0.24930406
0.25018164
0.25110824
0.25209786
0.2531517
0.254273
0.25546035
0.25671624
0.25803156
0.25940656
0.26083573
0.26230551
0.26380008
0.26530466
0.26679582
0.26824577
0.26963179
0.27093011
0.27211233
0.27315179
0.27402279
0.27470404
0.27518281
0.27544747
0.27548932
0.27531611
0.27493912
0.27437015
0.27362993
0.27274278
0.27173401
0.27063105
0.26945557
0.26823153
0.26698518
0.26573898
0.26450644
0.26330338
0.26214334
0.26103123
0.25996855
0.25896434
0.2580152
0.25712406
0.25628709
0.25550273
0.25476647
0.25408211
0.24922126
0.25009371
0.25102565
0.25201126
0.25306524
0.25418872
0.25538505
0.25665265
0.25799391
0.25939928
0.26086849
0.26239532
0.26396528
0.26556132
0.26716732
0.26875825
0.27030452
0.27178156
0.27316369
0.27442064
0.27552394
0.27644634
0.2771652
0.27766681
0.2779389
0.2779726
0.2777759
0.27736073
0.27673988
0.27593535
0.27497298
0.27387979
0.27268505
0.27141227
0.27008723
0.26873792
0.2673884
0.26605345
0.26475009
0.26349283
0.26228726
0.26113528
0.26004656
0.25901769
0.25805191
0.25714524
0.25629621
0.25549978
0.2547613
0.25005404
0.25097843
0.25196857
0.25301735
0.25414019
0.25533818
0.25661475
0.25796815
0.25940065
0.2609022
0.26247201
0.26410307
0.26577984
0.26748403
0.26919802
0.27089509
0.27254375
0.27411747
0.27558855
0.27692474
0.27809574
0.27907263
0.27983144
0.2803574
0.28063762
0.28066306
0.28044197
0.27998696
0.27931183
0.27843991
0.27739862
0.27621678
0.27492563
0.2735506
0.2721194
0.27066191
0.26920382
0.2677613
0.26635259
0.26499325
0.26368957
0.26244394
0.26126661
0.26015425
0.25911036
0.25813085
0.25721432
0.25635517
0.2555604
0.25098851
0.25196855
0.2530211
0.2541376
0.25533424
0.25661204
0.25797453
0.25941978
0.26094989
0.26255431
0.26423163
0.265974
0.26776477
0.26958427
0.27141329
0.27322331
0.27498081
0.27665719
0.27822262
0.27964279
0.28088548
0.28192007
0.28272119
0.283273
0.283562
0.28357899
0.28333247
0.28283577
0.28210375
0.28116109
0.28003685
0.27876175
0.27736909
0.2758864
0.27434343
0.27277198
0.27119954
0.26964371
0.26812402
0.26665713
0.26525008
0.26390583
0.26263521
0.26143499
0.26030896
0.25925291
0.25826554
0.25734065
0.25648696
0.25203664
0.25307641
0.254196
0.25538521
0.25666105
0.25802447
0.25947909
0.26102278
0.26265746
0.26437201
0.26616435
0.2680257
0.26993822
0.27188074
0.27383236
0.27576258
0.2776358
0.27942114
0.2810866
0.28259569
0.28391421
0.28500979
0.28585562
0.28643482
0.2867332
0.28674147
0.28646836
0.28592797
0.28513623
0.28411921
0.28290767
0.28153433
0.28003469
0.27843848
0.27677763
0.27508599
0.27339285
0.27171739
0.27008048
0.26849994
0.26698365
0.26553515
0.26416591
0.26287282
0.26165999
0.2605231
0.25946095
0.2584667
0.25755095
0.25321267
0.25431666
0.25550838
0.25677579
0.25813678
0.25959221
0.26114578
0.26279513
0.26454198
0.26637457
0.26829009
0.27027875
0.27232139
0.27439524
0.27647756
0.27853576
0.28053195
0.28243295
0.28420438
0.28580754
0.28720617
0.28836611
0.2892591
0.28986718
0.29017552
0.29017472
0.28987377
0.28928756
0.2884331
0.28733785
0.28603437
0.28455748
0.28294501
0.28122904
0.27944376
0.27762516
0.27580445
0.27400242
0.27224142
0.27054044
0.26890832
0.26734924
0.26587536
0.26448374
0.26317881
0.26195617
0.26081475
0.259747
0.2587656
0.2545335
0.25570669
0.2569762
0.25832788
0.25978059
0.26133506
0.26299508
0.26475804
0.26662537
0.26858465
0.27063226
0.27275726
0.27493908
0.27715321
0.27937491
0.28156936
0.28369626
0.28571993
0.28760356
0.28930612
0.29078925
0.29201699
0.29295961
0.29359806
0.29391689
0.29390662
0.2935765
0.29294222
0.29202186
0.29084432
0.28944399
0.28785795
0.28612648
0.28428413
0.28236745
0.28041464
0.27845888
0.2765227
0.27462998
0.27280104
0.2710457
0.26936893
0.26778358
0.26628696
0.26488387
0.26356982
0.2623439
0.26119778
0.26014647
0.25601922
0.25726714
0.25862075
0.26006346
0.26161518
0.26327649
0.26505127
0.26693658
0.26893355
0.27102901
0.2732184
0.27548957
0.27782038
0.28018441
0.28255479
0.2848943
0.28716007
0.28931379
0.29131609
0.29312355
0.29469567
0.29599467
0.29698938
0.29765966
0.29798948
0.29796928
0.29760858
0.2969239
0.29593436
0.29467027
0.29316799
0.29146698
0.28961008
0.28763439
0.28557892
0.28348409
0.28138516
0.27930649
0.27727362
0.27530828
0.27342144
0.27161894
0.26991442
0.26830551
0.2667974
0.26538554
0.26406923
0.26283929
0.26171333
0.25769372
0.25902256
0.26046735
0.26200865
0.26366753
0.26544441
0.26734316
0.26936054
0.27149727
0.27373933
0.27608114
0.27850917
0.28099956
0.28352386
0.28605285
0.28854677
0.29095999
0.29325144
0.29537909
0.29729706
0.2989627
0.30033641
0.30138562
0.30208915
0.30243039
0.30239976
0.30200705
0.30126959
0.3002075
0.29885252
0.29724305
0.29542107
0.29343212
0.29131586
0.28911375
0.2868685
0.28461753
0.28238714
0.2802047
0.27809353
0.27606587
0.27412856
0.27229614
0.27056662
0.26894562
0.26742859
0.26601503
0.26469484
0.26348859
0.25958545
0.26100222
0.26254618
0.26419461
0.26596984
0.26787205
0.26990513
0.27206541
0.27435314
0.27675334
0.27925925
0.2818558
0.28451727
0.28721295
0.28991113
0.29256929
0.29513893
0.29757607
0.29983589
0.30187003
0.30363366
0.30508545
0.30619147
0.30692957
0.30728261
0.30724103
0.30681487
0.30602226
0.30488424
0.30343398
0.30171206
0.29976311
0.29763535
0.29537101
0.29301393
0.29060917
0.28819638
0.28580403
0.28346151
0.28119393
0.27901498
0.27693268
0.27496255
0.27310307
0.27136037
0.26972993
0.26821153
0.26679401
0.26550133
0.26172843
0.26324111
0.26489335
0.26665862
0.26856063
0.27059925
0.27277834
0.2750937
0.27754501
0.28011618
0.28279909
0.28557695
0.28842194
0.29130093
0.2941795
0.29701222
0.29974755
0.30233847
0.30473732
0.30689319
0.30875915
0.31029221
0.31145718
0.31223102
0.31259615
0.31254305
0.31208205
0.311232
0.31001476
0.30846494
0.30662543
0.30454358
0.30227025
0.29985005
0.29732915
0.29475496
0.2921696
0.28960393
0.28708964
0.28465386
0.28231195
0.28007325
0.27795439
0.27595443
0.27408003
0.27232673
0.27069462
0.26917139
0.26778491
0.26416361
0.26578134
0.26755236
0.2694456
0.27148632
0.27367399
0.27601237
0.27849662
0.2811257
0.28388221
0.28675645
0.28972967
0.29277172
0.29584678
0.29891754
0.3019355
0.30484595
0.30759875
0.31014334
0.31242627
0.31439858
0.31601576
0.31724152
0.31805206
0.31842947
0.3183643
0.31786715
0.31695756
0.31565801
0.3140046
0.3120427
0.30982234
0.30739672
0.30481262
0.30211842
0.29936405
0.29659432
0.29384284
0.29114394
0.28852701
0.28600931
0.28360168
0.28132197
0.27916991
0.27715281
0.27526628
0.27351086
0.27187287
0.27038485
0.26694087
0.26867423
0.27057614
0.27261021
0.27480339
0.27715465
0.27966753
0.28233644
0.28515938
0.28811742
0.291199
0.2943831
0.29763692
0.3009217
0.30419699
0.30741109
0.31050604
0.31342857
0.31612519
0.31854001
0.32062212
0.32232574
0.3236137
0.32446158
0.32485128
0.32477351
0.3242391
0.32326817
0.32188364
0.32012316
0.31803468
0.31567068
0.31308626
0.31032998
0.30745243
0.30450628
0.30153947
0.29858876
0.29569142
0.29287938
0.29017199
0.28758174
0.28512782
0.28281072
0.28063847
0.2786068
0.27671674
0.27495313
0.27335402
0.27012194
0.27198323
0.27403017
0.27622001
0.27858158
0.28111321
0.28381811
0.2866897
0.28972483
0.29290272
0.29620958
0.29962173
0.30310334
0.30661236
0.31010496
0.31352608
0.31681454
0.31991398
0.32276813
0.32531876
0.32751327
0.32930482
0.33065569
0.3315411
0.3319429
0.33185204
0.33127958
0.33024602
0.3287745
0.32690436
0.32468611
0.32217414
0.31942474
0.31648791
0.31341657
0.31026656
0.30708942
0.30392545
0.30081518
0.29779329
0.2948814
0.2920938
0.28945121
0.28695498
0.28461402
0.2824243
0.28038753
0.27848678
0.2767668
0.27378484
0.27578845
0.27799701
0.28036005
0.28290857
0.28564
0.28855711
0.29165207
0.29492027
0.29833868
0.30189087
0.30554999
0.30927674
0.31302532
0.31674821
0.32038688
0.32387698
0.3271593
0.33017507
0.33286401
0.33517209
0.33705184
0.33846535
0.33938779
0.33980121
0.33969689
0.33908605
0.33798936
0.33642992
0.33444892
0.33209919
0.32943611
0.32651623
0.32339076
0.32011534
0.31674952
0.31334889
0.30995763
0.30661966
0.30337261
0.30024051
0.29723963
0.29439237
0.29170113
0.28917584
0.28681276
0.28461448
0.28256207
0.28070851
0.2780303
0.28019321
0.28258302
0.28513977
0.28789693
0.29085079
0.29400341
0.29734542
0.30087034
0.30455247
0.30837216
0.31229887
0.31628921
0.32029314
0.32425906
0.32812483
0.3318231
0.3352922
0.33847139
0.34129884
0.34371958
0.34568593
0.34716038
0.34811842
0.34854258
0.34842458
0.34777573
0.3466166
0.34496995
0.34287901
0.3403983
0.3375827
0.33448811
0.33116704
0.32767843
0.32408608
0.32044986
0.3168179
0.31323763
0.30974971
0.30638082
0.30314949
0.3000801
0.2971764
0.29444966
0.29189664
0.28952117
0.28730195
0.28530208
0.28299105
0.28533355
0.28792812
0.29070295
0.29369437
0.2968971
0.30031221
0.30392834
0.30773664
0.31170815
0.31581942
0.32003553
0.32430839
0.32858315
0.33280367
0.33690406
0.3408142
0.34447061
0.34781143
0.3507741
0.35330337
0.35535206
0.35688366
0.35787452
0.35830796
0.35817633
0.3574909
0.35627178
0.3545411
0.35234427
0.34973622
0.34676939
0.34349832
0.33997737
0.33626938
0.33244254
0.32856087
0.32467625
0.3208396
0.3170948
0.3134715
0.3099909
0.30667973
0.30354338
0.30059472
0.29783124
0.29525829
0.2928518
0.29068776
0.28884543
0.29139217
0.29422015
0.29724248
0.3004988
0.30398167
0.3076907
0.31161193
0.31573342
0.32002226
0.32445039
0.32897783
0.33355116
0.3381102
0.34259391
0.34693253
0.35105351
0.35489239
0.35838743
0.36147668
0.36410561
0.3662284
0.36781034
0.3688293
0.36926981
0.36912497
0.36840593
0.36713186
0.36532401
0.36302991
0.36030272
0.35719025
0.35374559
0.35002574
0.34609761
0.34203322
0.3379
0.33375325
0.32964741
0.32562994
0.32173404
0.31798418
0.31441006
0.31101931
0.30782693
0.30483149
0.3020405
0.29942651
0.29708159
0.29583841
0.29861999
0.30171704
0.30502311
0.30858164
0.31238218
0.31642214
0.32068402
0.32515181
0.3297876
0.33455777
0.33941651
0.34430453
0.34915607
0.3539051
0.35847818
0.36280086
0.36680878
0.37044199
0.37364105
0.37635363
0.37853642
0.38015754
0.3811971
0.38164134
0.38148436
0.38073692
0.37941678
0.37754403
0.37516795
0.37233661
0.36909124
0.36548422
0.36157571
0.35743576
0.35313863
0.34875399
0.34434014
0.33995524
0.3356509
0.33146462
0.32742487
0.3235649
0.31989508
0.31643292
0.31317832
0.31014151
0.30729091
0.30474002
0.30431691
0.30737231
0.31078399
0.31441945
0.31832662
0.32249061
0.32690551
0.33154881
0.33639892
0.34141148
0.34654606
0.35175012
0.35695822
0.36209926
0.36710296
0.37189308
0.37639439
0.38054399
0.38428583
0.38756545
0.3903349
0.39255494
0.39419765
0.39524627
0.39568933
0.39552216
0.39475484
0.39340323
0.39148593
0.38905294
0.38614283
0.3827893
0.3790455
0.37497385
0.3706449
0.36613264
0.36150754
0.3568306
0.35216397
0.34756412
0.34307373
0.33872636
0.33455969
0.33058785
0.32683184
0.32329337
0.31998686
0.31687448
0.31409789
0.31479491
0.31817556
0.32196209
0.32598622
0.33030111
0.33488512
0.33972709
0.34479726
0.3500662
0.3554811
0.36099314
0.36654226
0.37205708
0.37746242
0.38268574
0.38765052
0.39228302
0.3965239
0.40032339
0.40363511
0.40641832
0.40863982
0.41027705
0.41131729
0.41175199
0.41157793
0.41080417
0.40944415
0.40751464
0.40506436
0.40211727
0.39870063
0.39486932
0.39068448
0.38621295
0.38152526
0.37669114
0.3717737
0.36683907
0.36194902
0.35715214
0.35248793
0.34799934
0.34370531
0.33963016
0.3357785
0.33216858
0.32875434
0.32571985
0.32809015
0.33186771
0.33611213
0.34060451
0.34540327
0.35047623
0.35580352
0.36134467
0.36705928
0.37288387
0.37876002
0.3846202
0.39038869
0.39598925
0.40135127
0.40640283
0.41107627
0.41531915
0.41909073
0.42235601
0.42508474
0.42725228
0.42884279
0.42984853
0.43026437
0.43008877
0.42932931
0.42799675
0.42610525
0.42369948
0.42078379
0.41738285
0.41355143
0.40934293
0.4048155
0.40003258
0.39506125
0.3899649
0.38481268
0.37967103
0.37459503
0.36963098
0.3648297
0.36021613
0.3558187
0.35164931