/*--------------------------------*- C++ -*----------------------------------*\
| =========                 |                                                 |
| \\      /  F ield         | OpenFOAM: The Open Source CFD Toolbox           |
|  \\    /   O peration     | Version:  v2006                                 |
|   \\  /    A nd           | Website:  www.openfoam.com                      |
|    \\/     M anipulation  |                                                 |
\*---------------------------------------------------------------------------*/
FoamFile
{
    version     2.0;
    format      ascii;
    class       volScalarField;
    location    "1500";
    object      p;
}
// * * * * * * * * * * * * * * * * * * * * * * * * * * * * * * * * * * * * * //

dimensions      [1 -1 -2 0 0 0 0];


internalField   nonuniform List<scalar> 
19765
(
1.0007616
1.0010602
1.0018688
1.0024329
1.0029923
1.0034125
1.003909
1.004197
1.0045663
1.0048675
1.0050754
1.0052347
1.0053618
1.0054277
1.0054463
1.0054295
1.0053796
1.0052956
1.0051761
1.0050205
1.0048239
1.0045885
1.0043351
1.0040379
1.0036776
1.0033027
1.0029802
1.0026133
1.0021542
1.0017397
1.0013069
1.0007845
1.0001951
0.99941919
0.99879299
0.99834956
0.99778162
0.9969242
0.99632838
0.99566606
0.99458076
0.99364705
0.99349575
0.99266823
0.9926995
0.99243506
0.99266598
0.99302392
0.99348122
1.0017817
1.0019346
1.0021309
1.0023666
1.0026167
1.0028579
1.0031104
1.0033229
1.0035453
1.0037661
1.0039531
1.0041079
1.0042512
1.0043522
1.0044098
1.00445
1.0044644
1.0044387
1.0043817
1.0042883
1.0041596
1.0040036
1.0038109
1.0035836
1.0033298
1.0030517
1.0027385
1.0023959
1.0020294
1.0016359
1.0012185
1.0007821
1.0003296
0.99987474
0.99942454
0.99897039
0.99850532
0.9980459
0.99762105
0.99722227
0.99687002
0.99657987
0.99630179
0.99606381
0.99589405
0.99574913
0.99563832
0.99553727
0.99543541
1.0017416
1.0019344
1.0021528
1.0023697
1.0025848
1.0027867
1.002985
1.0031549
1.003323
1.0034795
1.0036183
1.0037394
1.0038475
1.0039297
1.0039829
1.0040171
1.0040304
1.0040141
1.0039668
1.0038873
1.0037754
1.0036334
1.0034597
1.0032536
1.0030204
1.0027629
1.0024757
1.0021607
1.0018235
1.0014624
1.0010818
1.0006883
1.0002885
0.99988812
0.99948022
0.99906771
0.99866298
0.99826849
0.99788253
0.99751863
0.99718033
0.99684967
0.99653512
0.99624632
0.99598348
0.99577135
0.9955836
0.99542351
0.99527542
1.0019246
1.0020507
1.002182
1.0023216
1.0024646
1.002607
1.0027502
1.0028811
1.0030127
1.0031408
1.0032556
1.003357
1.0034487
1.00352
1.0035671
1.0035993
1.0036155
1.0036065
1.00357
1.0035048
1.0034119
1.0032962
1.0031543
1.0029833
1.0027881
1.0025725
1.0023316
1.0020658
1.001781
1.001477
1.0011576
1.000829
1.0004958
1.0001638
0.99982685
0.9994882
0.99915949
0.99884475
0.99853798
0.99825263
0.99799306
0.99774
0.99748953
0.99726468
0.99704226
0.99683737
0.99662823
0.99642315
0.99622303
1.0018423
1.0019564
1.0020728
1.0021878
1.0023009
1.0024101
1.0025184
1.0026168
1.0027151
1.0028113
1.0028982
1.0029751
1.0030448
1.0030996
1.0031352
1.0031584
1.0031692
1.0031595
1.0031264
1.0030684
1.0029842
1.0028773
1.0027454
1.0025858
1.0024034
1.0022025
1.0019798
1.0017343
1.0014716
1.0011934
1.0009021
1.0006028
1.0002991
0.9999962
0.99969208
0.99938873
0.99909279
0.99880728
0.99852913
0.99826545
0.9980169
0.99777246
0.99752988
0.99730146
0.99707214
0.99685211
0.99663418
0.99642312
0.99621813
1.0018184
1.0019008
1.0019866
1.002072
1.002157
1.0022398
1.0023232
1.0023993
1.0024762
1.0025519
1.0026203
1.0026806
1.0027351
1.0027774
1.0028039
1.0028198
1.0028245
1.0028117
1.0027786
1.0027239
1.0026464
1.0025496
1.0024315
1.0022892
1.0021268
1.0019476
1.0017493
1.0015313
1.0012987
1.0010528
1.0007962
1.0005333
1.0002671
1.0000024
0.99973753
0.99947442
0.99921826
0.99897145
0.99873198
0.99850484
0.99829051
0.99808058
0.99787396
0.99767658
0.99747909
0.99728606
0.99709083
0.99689391
0.99669851
1.0017299
1.0017998
1.0018719
1.0019418
1.0020101
1.0020756
1.0021414
1.0022008
1.002261
1.00232
1.0023732
1.0024198
1.0024615
1.0024932
1.0025118
1.002521
1.0025206
1.0025048
1.0024714
1.0024188
1.0023459
1.0022551
1.0021446
1.0020123
1.0018612
1.0016944
1.0015103
1.0013084
1.0010932
1.0008661
1.0006294
1.0003867
1.0001408
0.99989561
0.99965067
0.99940743
0.99916969
0.99893949
0.99871536
0.99850073
0.99829553
0.99809409
0.99789477
0.99770173
0.99750794
0.99731651
0.99712262
0.99692746
0.99673122
1.0016609
1.0017152
1.0017722
1.0018274
1.0018815
1.0019333
1.0019855
1.0020324
1.00208
1.0021266
1.0021682
1.0022041
1.0022357
1.0022587
1.0022704
1.0022738
1.0022683
1.0022493
1.0022147
1.002163
1.0020934
1.0020075
1.0019042
1.0017815
1.0016417
1.0014878
1.0013182
1.001133
1.0009359
1.0007284
1.0005126
1.0002918
1.0000684
0.99984592
0.99962411
0.99940429
0.99918961
0.99898183
0.99877983
0.99858637
0.99840152
0.99822057
0.99804232
0.99786955
0.99769675
0.99752591
0.99735283
0.99717799
0.99700158
1.0015753
1.0016204
1.0016679
1.0017133
1.0017575
1.0017993
1.0018414
1.0018789
1.0019168
1.0019537
1.0019862
1.0020137
1.0020372
1.0020532
1.0020593
1.002058
1.0020485
1.0020269
1.0019912
1.0019403
1.0018732
1.0017911
1.001693
1.0015774
1.0014461
1.0013015
1.0011427
1.0009696
1.0007857
1.0005922
1.0003911
1.0001853
0.99997681
0.99976882
0.99956132
0.99935548
0.99915387
0.99895808
0.99876723
0.9985835
0.99840687
0.99823388
0.99806314
0.99789698
0.99773079
0.99756609
0.99739942
0.99723104
0.9970607
1.0014992
1.0015355
1.001574
1.0016108
1.0016466
1.0016803
1.0017142
1.0017441
1.0017742
1.0018033
1.0018284
1.001849
1.0018659
1.0018761
1.0018775
1.001872
1.001859
1.0018349
1.0017982
1.0017476
1.0016825
1.0016036
1.00151
1.0014006
1.0012768
1.0011408
1.0009917
1.0008299
1.0006581
1.0004777
1.0002905
1.0000991
0.99990539
0.99971219
0.99951963
0.99932884
0.99914205
0.99896073
0.99878417
0.99861427
0.99845113
0.9982918
0.99813507
0.99798293
0.99783133
0.99768154
0.99753044
0.99737814
0.99722448
1.0014206
1.0014505
1.0014826
1.001513
1.0015424
1.0015699
1.0015974
1.0016213
1.0016453
1.0016682
1.0016874
1.0017025
1.001714
1.0017195
1.0017171
1.0017082
1.0016923
1.0016662
1.0016286
1.0015784
1.0015149
1.0014386
1.0013488
1.0012446
1.0011271
1.0009982
1.0008572
1.0007046
1.0005428
1.000373
1.000197
1.000017
0.99983474
0.99965277
0.99947129
0.99929135
0.9991149
0.99894327
0.99877588
0.99861439
0.99845889
0.99830705
0.99815766
0.99801259
0.99786823
0.99772572
0.99758233
0.9974381
0.99729258
1.0013483
1.0013726
1.001399
1.0014238
1.0014477
1.00147
1.0014922
1.0015111
1.00153
1.0015478
1.0015621
1.0015725
1.0015797
1.0015811
1.0015754
1.0015637
1.0015453
1.0015176
1.0014793
1.0014293
1.0013672
1.0012932
1.0012068
1.0011071
1.0009952
1.0008725
1.0007388
1.0005943
1.0004415
1.0002814
1.0001155
0.99994596
0.99977438
0.9996031
0.99943235
0.99926316
0.99909732
0.99893608
0.99877895
0.99862745
0.99848177
0.99833989
0.99820072
0.998066
0.99793244
0.99780113
0.99766955
0.99753774
0.99740534
1.0012778
1.0012978
1.0013196
1.00134
1.0013597
1.0013777
1.0013956
1.0014106
1.0014253
1.0014388
1.0014491
1.0014558
1.0014592
1.0014574
1.001449
1.0014349
1.0014145
1.0013854
1.0013465
1.0012969
1.001236
1.0011641
1.0010806
1.0009849
1.0008778
1.0007607
1.0006333
1.0004961
1.000351
1.0001992
1.0000421
0.9998816
0.99971915
0.99955689
0.9993951
0.99923475
0.99907747
0.99892443
0.99877519
0.99863114
0.99849249
0.99835757
0.99822531
0.99809745
0.99797094
0.99784687
0.99772293
0.99759922
0.99747518
1.0012121
1.0012284
1.0012463
1.0012629
1.0012789
1.0012933
1.0013076
1.0013191
1.0013303
1.0013402
1.0013472
1.0013506
1.001351
1.0013464
1.0013357
1.0013196
1.0012975
1.0012673
1.001228
1.0011787
1.001119
1.001049
1.0009681
1.000876
1.0007733
1.0006612
1.0005395
1.0004087
1.0002707
1.0001265
0.99997728
0.99982501
0.99967094
0.99951706
0.99936369
0.99921177
0.99906281
0.99891793
0.99877677
0.99864062
0.99850974
0.99838268
0.99825847
0.99813878
0.99802078
0.99790555
0.99779094
0.99767709
0.99756348
1.0011495
1.0011627
1.0011774
1.001191
1.0012039
1.0012153
1.0012265
1.0012352
1.0012435
1.0012504
1.0012545
1.0012553
1.001253
1.0012462
1.0012335
1.0012158
1.0011923
1.0011612
1.0011216
1.0010727
1.001014
1.0009458
1.0008674
1.0007785
1.0006797
1.0005721
1.0004557
1.0003307
1.0001991
1.0000616
0.99991958
0.99977469
0.99962814
0.99948177
0.9993359
0.99919144
0.9990498
0.99891202
0.99877778
0.9986483
0.99852383
0.99840315
0.99828532
0.99817201
0.99806057
0.99795207
0.99784454
0.99773815
0.99763232
1.0010909
1.0011015
1.0011134
1.0011243
1.0011345
1.0011434
1.001152
1.0011583
1.001164
1.0011684
1.00117
1.0011685
1.001164
1.0011552
1.001141
1.0011218
1.0010972
1.0010654
1.0010256
1.0009772
1.0009195
1.0008529
1.0007768
1.0006909
1.0005958
1.0004924
1.0003806
1.0002611
1.0001352
1.000004
0.99986851
0.99973043
0.99959084
0.99945144
0.99931259
0.99917517
0.9990405
0.99890957
0.99878212
0.99865929
0.99854137
0.99842728
0.99831617
0.99820966
0.99810525
0.99800402
0.99790414
0.99780579
0.99770841
1.0010355
1.0010438
1.0010535
1.0010621
1.0010701
1.0010768
1.0010832
1.0010874
1.0010909
1.0010931
1.0010926
1.0010892
1.0010829
1.0010724
1.0010568
1.0010365
1.0010109
1.0009786
1.0009387
1.0008908
1.0008342
1.0007691
1.0006951
1.000612
1.0005203
1.0004207
1.0003133
1.0001987
1.0000782
0.9999527
0.99982331
0.99969149
0.99955831
0.99942536
0.99929298
0.99916203
0.99903377
0.9989091
0.99878782
0.99867098
0.9985589
0.99845061
0.99834533
0.99824463
0.99814619
0.99805104
0.9979575
0.99786579
0.9977753
1.0009834
1.0009899
1.0009975
1.0010042
1.0010102
1.0010151
1.0010195
1.0010219
1.0010236
1.0010238
1.0010216
1.0010165
1.0010085
1.0009966
1.0009799
1.0009587
1.0009323
1.0008996
1.0008598
1.0008123
1.0007568
1.0006933
1.0006213
1.0005408
1.0004522
1.0003562
1.0002529
1.0001429
1.0000274
0.99990719
0.99978343
0.99965745
0.99953027
0.99940335
0.99927705
0.99915223
0.99903004
0.99891136
0.99879602
0.99868501
0.99857865
0.9984761
0.99837665
0.99828179
0.99818935
0.99810035
0.99801321
0.99792819
0.99784466
1.0009343
1.0009392
1.0009451
1.00095
1.0009544
1.0009577
1.0009604
1.0009612
1.0009613
1.0009599
1.0009562
1.0009496
1.0009403
1.0009272
1.0009095
1.0008875
1.0008605
1.0008276
1.0007879
1.000741
1.0006864
1.0006244
1.0005543
1.0004763
1.0003907
1.000298
1.0001986
1.0000929
0.99998202
0.99986682
0.99974833
0.99962782
0.99950624
0.99938498
0.9992644
0.99914531
0.99902883
0.99891576
0.99880596
0.99870038
0.99859932
0.99850204
0.99840788
0.99831827
0.99823118
0.99814759
0.99806605
0.99798682
0.99790927
1.0008881
1.0008916
1.0008959
1.0008994
1.0009024
1.0009042
1.0009055
1.000905
1.0009036
1.0009008
1.0008957
1.0008879
1.0008774
1.0008633
1.0008448
1.0008221
1.0007948
1.0007616
1.0007222
1.0006758
1.0006223
1.0005617
1.0004935
1.0004178
1.000335
1.0002456
1.0001498
1.000048
0.99994159
0.99983108
0.99971754
0.99960218
0.99948589
0.99936998
0.99925481
0.99914117
0.9990301
0.99892239
0.9988179
0.99871754
0.99862159
0.99852942
0.9984404
0.9983559
0.99827403
0.99819573
0.99811964
0.99804603
0.99797427
1.0008445
1.0008468
1.0008498
1.000852
1.0008537
1.0008543
1.0008543
1.0008526
1.00085
1.000846
1.0008397
1.0008308
1.0008193
1.0008044
1.0007852
1.000762
1.0007344
1.0007012
1.000662
1.0006163
1.0005638
1.0005045
1.0004382
1.0003647
1.0002846
1.0001982
1.0001058
1.0000079
0.99990559
0.99979951
0.99969066
0.99958015
0.99946887
0.99935802
0.99924797
0.99913949
0.99903357
0.99893092
0.99883146
0.99873602
0.99864489
0.99855749
0.99847325
0.99839347
0.99831637
0.99824286
0.99817167
0.99810307
0.99803643
1.0008033
1.0008045
1.0008064
1.0008075
1.0008081
1.0008076
1.0008065
1.0008038
1.0008001
1.000795
1.0007877
1.0007779
1.0007656
1.0007499
1.0007302
1.0007066
1.0006787
1.0006456
1.0006067
1.0005617
1.0005102
1.0004523
1.0003877
1.0003165
1.0002389
1.0001554
1.0000662
0.99997198
0.99987359
0.99977171
0.9996673
0.9995614
0.99945487
0.99934883
0.99924365
0.99914009
0.99903906
0.99894125
0.9988466
0.99875587
0.99866936
0.99858653
0.99850689
0.99843163
0.99835911
0.99829018
0.99822367
0.99815984
0.99809806
1.0007643
1.0007647
1.0007656
1.0007657
1.0007653
1.0007639
1.0007618
1.0007581
1.0007535
1.0007475
1.0007393
1.0007288
1.0007157
1.0006994
1.0006793
1.0006554
1.0006274
1.0005944
1.0005559
1.0005116
1.0004611
1.0004046
1.0003417
1.0002725
1.0001974
1.0001166
1.0000306
0.99993985
0.99984519
0.99974732
0.99964712
0.99954561
0.99944359
0.99934213
0.99924159
0.99914271
0.99904635
0.99895315
0.99886306
0.99877681
0.99869467
0.99861617
0.99854084
0.9984698
0.99840153
0.99833682
0.99827457
0.99821508
0.99815767
1.0007275
1.000727
1.0007271
1.0007264
1.0007251
1.0007228
1.0007199
1.0007154
1.00071
1.0007032
1.0006943
1.000683
1.0006693
1.0006525
1.0006321
1.0006081
1.00058
1.0005471
1.0005091
1.0004654
1.000416
1.0003609
1.0002997
1.0002325
1.0001597
1.0000817
0.99999864
0.99991116
0.99982007
0.99972601
0.99962983
0.9995325
0.99943478
0.99933769
0.99924158
0.99914716
0.99905525
0.99896645
0.99888072
0.99879875
0.99872079
0.99864641
0.9985752
0.99850818
0.99844394
0.99838324
0.99832503
0.99826961
0.99821631
1.0006925
1.0006914
1.0006907
1.0006892
1.0006872
1.0006842
1.0006805
1.0006754
1.0006692
1.0006617
1.0006521
1.0006403
1.0006261
1.0006089
1.0005883
1.0005641
1.000536
1.0005034
1.0004658
1.000423
1.0003746
1.0003208
1.0002612
1.000196
1.0001255
1.00005
0.9999699
0.99988558
0.99979791
0.99970749
0.99961515
0.99952181
0.9994282
0.99933527
0.99924339
0.99915323
0.99906557
0.99898096
0.9988994
0.9988215
0.9987475
0.99867703
0.9986097
0.99854645
0.99848599
0.998429
0.99837452
0.99832283
0.99827326
1.0006593
1.0006576
1.0006562
1.0006541
1.0006514
1.0006477
1.0006434
1.0006377
1.0006309
1.0006228
1.0006127
1.0006004
1.0005858
1.0005683
1.0005475
1.0005232
1.0004953
1.000463
1.0004259
1.0003839
1.0003365
1.000284
1.0002261
1.0001628
1.0000945
1.0000215
0.99994411
0.99986284
0.99977844
0.99969151
0.99960284
0.99951331
0.99942362
0.99933468
0.99924684
0.99916075
0.99907713
0.99899653
0.99891893
0.99884492
0.99877471
0.99870796
0.99864432
0.99858465
0.99852776
0.99847427
0.9984233
0.9983751
0.99832903
1.0006276
1.0006254
1.0006234
1.0006208
1.0006175
1.0006133
1.0006085
1.0006022
1.0005949
1.0005862
1.0005757
1.000563
1.0005481
1.0005303
1.0005094
1.0004852
1.0004575
1.0004255
1.000389
1.0003477
1.0003015
1.0002502
1.0001939
1.0001325
1.0000663
0.99999574
0.99992103
0.99984268
0.99976142
0.99967783
0.99959268
0.99950679
0.99942085
0.99933571
0.99925173
0.99916952
0.99908978
0.999013
0.99893918
0.99886886
0.99880225
0.99873902
0.99867887
0.99862257
0.99856903
0.99851881
0.99847109
0.99842611
0.99838323
1.0005975
1.0005948
1.0005923
1.0005892
1.0005854
1.0005808
1.0005754
1.0005687
1.000561
1.0005519
1.0005409
1.0005279
1.0005128
1.0004949
1.0004739
1.0004498
1.0004223
1.0003907
1.0003548
1.0003144
1.0002692
1.0002192
1.0001645
1.0001049
1.0000408
0.99997254
0.9999004
0.99982487
0.99974663
0.99966625
0.99958446
0.99950207
0.99941971
0.9993382
0.99925791
0.99917941
0.99910336
0.99903021
0.99895999
0.9988932
0.99883
0.99877013
0.99871329
0.99866018
0.9986098
0.99856265
0.99851799
0.99847603
0.99843613
1.0005686
1.0005656
1.0005627
1.0005591
1.0005549
1.0005499
1.0005441
1.000537
1.0005289
1.0005195
1.0005082
1.000495
1.0004796
1.0004617
1.0004408
1.0004168
1.0003895
1.0003584
1.0003231
1.0002835
1.0002394
1.0001908
1.0001375
1.0000797
1.0000177
0.99995168
0.99988203
0.99980921
0.99973387
0.99965657
0.99957801
0.99949895
0.99942003
0.99934199
0.99926522
0.99919025
0.99911772
0.99904804
0.99898125
0.99891779
0.99885785
0.99880115
0.99874743
0.99869733
0.99864991
0.99860565
0.99856382
0.99852465
0.9984875
1.000541
1.0005376
1.0005344
1.0005304
1.0005259
1.0005205
1.0005144
1.000507
1.0004986
1.0004889
1.0004774
1.000464
1.0004485
1.0004305
1.0004097
1.000386
1.000359
1.0003283
1.0002937
1.000255
1.0002119
1.0001646
1.0001129
1.0000568
0.99999676
0.99993296
0.99986572
0.99979552
0.99972298
0.99964863
0.99957317
0.9994973
0.99942165
0.99934694
0.99927351
0.99920192
0.99913273
0.99906636
0.99900282
0.99894254
0.99888568
0.99883199
0.99878123
0.99873397
0.99868935
0.99864778
0.99860862
0.99857205
0.99853746
1.0005144
1.0005108
1.0005073
1.000503
1.0004982
1.0004926
1.0004862
1.0004785
1.0004699
1.0004599
1.0004483
1.0004348
1.0004192
1.0004013
1.0003806
1.0003571
1.0003305
1.0003003
1.0002665
1.0002286
1.0001866
1.0001406
1.0000903
1.000036
0.99997787
0.99991621
0.99985131
0.99978363
0.99971378
0.99964228
0.99956978
0.99949697
0.99942445
0.9993529
0.99928268
0.99921429
0.99914829
0.99908505
0.9990246
0.99896734
0.99891339
0.99886255
0.99881457
0.99876998
0.99872798
0.99868895
0.99865226
0.99861811
0.99858587
1.0004889
1.0004851
1.0004813
1.0004768
1.0004718
1.0004659
1.0004593
1.0004515
1.0004426
1.0004325
1.0004208
1.0004072
1.0003916
1.0003738
1.0003533
1.0003301
1.0003039
1.0002743
1.0002411
1.0002042
1.0001633
1.0001185
1.0000697
1.0000171
0.99996087
0.99990128
0.99983864
0.99977341
0.99970615
0.99963737
0.99956771
0.99949783
0.9994283
0.99935977
0.99929259
0.99922725
0.99916427
0.999104
0.99904648
0.99899207
0.99894088
0.99889273
0.99884738
0.9988053
0.99876577
0.99872911
0.99869474
0.99866284
0.99863281
1.0004643
1.0004603
1.0004563
1.0004517
1.0004464
1.0004404
1.0004336
1.0004257
1.0004167
1.0004065
1.0003947
1.0003811
1.0003656
1.0003479
1.0003277
1.0003048
1.000279
1.00025
1.0002176
1.0001816
1.0001418
1.0000983
1.000051
1
0.99994559
0.99988802
0.99982758
0.99976471
0.99969995
0.99963379
0.99956686
0.99949977
0.99943309
0.99936744
0.99930315
0.99924071
0.99918059
0.99912313
0.99906838
0.99901665
0.99896807
0.99892244
0.99887957
0.99883985
0.99880262
0.99876817
0.99873596
0.99870615
0.99867814
1.0004405
1.0004364
1.0004323
1.0004275
1.0004221
1.000416
1.0004091
1.000401
1.000392
1.0003817
1.0003699
1.0003564
1.0003411
1.0003235
1.0003036
1.0002811
1.0002558
1.0002274
1.0001958
1.0001606
1.000122
1.0000797
1.0000339
0.99998452
0.99993192
0.99987632
0.99981801
0.99975742
0.99969507
0.99963143
0.99956711
0.99950269
0.99943873
0.99937581
0.99931426
0.99925456
0.99919715
0.99914234
0.9990902
0.99904101
0.99899487
0.99895162
0.99891107
0.99887356
0.99883849
0.99880611
0.99877591
0.99874804
0.99872192
1.0004175
1.0004133
1.0004091
1.0004042
1.0003988
1.0003926
1.0003856
1.0003775
1.0003685
1.0003582
1.0003465
1.000333
1.0003178
1.0003005
1.0002809
1.0002588
1.0002341
1.0002064
1.0001755
1.0001413
1.0001037
1.0000627
1.0000183
0.99997057
0.99991974
0.99986607
0.99980983
0.99975145
0.99969141
0.9996302
0.99956837
0.99950651
0.99944512
0.99938479
0.99932585
0.99926873
0.99921387
0.99916156
0.99911187
0.99906505
0.99902121
0.99898018
0.9989418
0.99890635
0.99887329
0.99884282
0.99881448
0.99878841
0.99876402
1.0003952
1.000391
1.0003867
1.0003818
1.0003763
1.0003701
1.0003631
1.000355
1.000346
1.0003358
1.0003241
1.0003109
1.0002959
1.0002789
1.0002596
1.000238
1.0002138
1.0001867
1.0001566
1.0001234
1.0000869
1.0000472
1.0000042
0.99995805
0.99990895
0.99985715
0.99980293
0.99974668
0.99968889
0.99963
0.99957056
0.99951113
0.99945221
0.99939433
0.99933784
0.99928316
0.99923069
0.99918072
0.99913332
0.99908872
0.99904702
0.99900807
0.9989717
0.99893818
0.99890699
0.99887831
0.9988517
0.99882729
0.99880452
1.0003735
1.0003694
1.0003651
1.0003602
1.0003547
1.0003485
1.0003415
1.0003335
1.0003245
1.0003144
1.0003029
1.0002898
1.0002751
1.0002584
1.0002395
1.0002184
1.0001947
1.0001684
1.0001391
1.0001069
1.0000715
1.000033
0.99999143
0.99994685
0.99989945
0.99984949
0.99979723
0.99974305
0.99968742
0.99963077
0.99957362
0.9995165
0.99945991
0.99940436
0.99935018
0.99929778
0.99924755
0.99919976
0.99915449
0.99911196
0.99907224
0.99903521
0.99900071
0.99896895
0.99893948
0.99891244
0.99888742
0.99886451
0.99884319
1.0003526
1.0003484
1.0003442
1.0003393
1.0003338
1.0003277
1.0003207
1.0003128
1.000304
1.000294
1.0002827
1.0002698
1.0002553
1.000239
1.0002206
1.0001999
1.0001769
1.0001513
1.0001229
1.0000916
1.0000573
1.0000201
0.99997993
0.99993689
0.99989116
0.999843
0.99979265
0.99974049
0.99968694
0.99963244
0.99957748
0.99952257
0.99946819
0.99941483
0.99936281
0.99931254
0.9992644
0.99921864
0.99917533
0.99913471
0.99909682
0.99906156
0.99902878
0.99899866
0.99897078
0.99894526
0.99892171
0.99890023
0.99888028
1.0003322
1.0003281
1.0003239
1.0003191
1.0003137
1.0003076
1.0003008
1.000293
1.0002843
1.0002745
1.0002634
1.0002508
1.0002367
1.0002207
1.0002027
1.0001826
1.0001602
1.0001354
1.0001078
1.0000775
1.0000444
1.0000084
0.99996961
0.99992809
0.99988401
0.99983761
0.99978912
0.99973891
0.99968739
0.99963496
0.99958209
0.99952929
0.999477
0.9994257
0.99937571
0.99932742
0.9992812
0.99923731
0.99919581
0.99915693
0.99912071
0.99908706
0.99905583
0.9990272
0.99900075
0.99897658
0.99895433
0.99893408
0.99891531
1.0003124
1.0003085
1.0003043
1.0002996
1.0002943
1.0002883
1.0002816
1.000274
1.0002655
1.0002559
1.000245
1.0002327
1.0002189
1.0002034
1.0001859
1.0001664
1.0001446
1.0001205
1.0000939
1.0000645
1.0000325
0.99999782
0.9999604
0.99992039
0.99987793
0.99983326
0.99978659
0.99973829
0.99968872
0.99963828
0.99958743
0.99953662
0.99948631
0.99943694
0.99938884
0.99934239
0.99929794
0.99925574
0.99921589
0.99917858
0.99914388
0.99911168
0.99908187
0.99905458
0.99902945
0.99900655
0.99898554
0.99896647
0.99894887
1.0002932
1.0002894
1.0002853
1.0002807
1.0002756
1.0002697
1.0002632
1.0002558
1.0002474
1.0002381
1.0002275
1.0002155
1.0002021
1.000187
1.00017
1.0001511
1.00013
1.0001067
1.0000809
1.0000526
1.0000217
0.99998828
0.99995224
0.99991371
0.99987286
0.99982988
0.99978501
0.99973856
0.99969089
0.99964237
0.99959345
0.99954455
0.99949611
0.99944855
0.9994022
0.99935743
0.99931459
0.99927393
0.99923555
0.99919965
0.99916627
0.99913536
0.99910679
0.99908066
0.99905665
0.9990348
0.99901479
0.99899667
0.99897996
1.0002746
1.0002709
1.000267
1.0002625
1.0002575
1.0002518
1.0002455
1.0002382
1.0002302
1.000221
1.0002108
1.0001991
1.0001861
1.0001715
1.000155
1.0001367
1.0001164
1.0000938
1.000069
1.0000417
1.0000119
0.99997973
0.99994505
0.99990801
0.99986874
0.99982744
0.99978432
0.99973968
0.99969387
0.99964721
0.99960014
0.99955307
0.99950638
0.99946052
0.99941579
0.99937256
0.99933117
0.99929187
0.99925479
0.99922011
0.9991879
0.99915811
0.99913063
0.99910555
0.99908259
0.99906175
0.99904276
0.99902563
0.99900992
1.0002565
1.000253
1.0002492
1.0002449
1.00024
1.0002345
1.0002284
1.0002214
1.0002136
1.0002048
1.0001948
1.0001836
1.0001709
1.0001568
1.0001409
1.0001233
1.0001036
1.0000819
1.0000579
1.0000317
1.0000031
0.99997211
0.9999388
0.99990323
0.99986553
0.99982589
0.9997845
0.99974164
0.99969762
0.99965278
0.9996075
0.99956216
0.99951715
0.99947287
0.99942963
0.99938779
0.99934769
0.99930958
0.99927361
0.99923997
0.99920873
0.99917985
0.99915324
0.99912898
0.99910677
0.99908664
0.99906829
0.99905175
0.99903657
1.0002391
1.0002356
1.000232
1.0002279
1.0002232
1.0002179
1.000212
1.0002052
1.0001977
1.0001892
1.0001795
1.0001687
1.0001565
1.0001429
1.0001276
1.0001106
1.0000917
1.0000708
1.0000478
1.0000225
0.99999508
0.99996537
0.99993342
0.99989932
0.99986318
0.99982518
0.99978549
0.99974438
0.99970214
0.99965907
0.99961552
0.99957186
0.99952843
0.99948563
0.99944375
0.99940316
0.99936419
0.9993271
0.99929205
0.99925925
0.99922879
0.99920065
0.99917478
0.99915123
0.99912979
0.99911044
0.99909292
0.99907725
0.99906299
1.0002221
1.0002189
1.0002154
1.0002114
1.000207
1.0002019
1.0001962
1.0001897
1.0001825
1.0001743
1.000165
1.0001546
1.0001429
1.0001297
1.0001151
1.0000987
1.0000806
1.0000605
1.0000384
1.0000142
0.99998791
0.99995946
0.99992887
0.99989623
0.99986165
0.99982527
0.99978728
0.99974791
0.99970741
0.99966607
0.99962422
0.99958217
0.99954026
0.99949884
0.99945822
0.99941874
0.99938073
0.99934448
0.99931016
0.99927798
0.99924806
0.9992204
0.99919495
0.99917178
0.99915065
0.99913153
0.99911418
0.99909859
0.99908433
1.0002058
1.0002027
1.0001994
1.0001956
1.0001914
1.0001865
1.000181
1.0001748
1.0001679
1.00016
1.0001511
1.0001411
1.0001299
1.0001173
1.0001032
1.0000876
1.0000702
1.000051
1.0000298
1.0000067
0.99998153
0.99995433
0.9999251
0.99989393
0.99986089
0.99982614
0.99978984
0.99975218
0.99971342
0.9996738
0.9996336
0.99959313
0.99955267
0.99951257
0.99947311
0.99943461
0.99939742
0.99936182
0.99932801
0.99929624
0.99926664
0.99923928
0.99921415
0.99919133
0.99917065
0.99915211
0.99913549
0.99912075
0.99910752
1.00019
1.0001871
1.000184
1.0001804
1.0001763
1.0001717
1.0001665
1.0001606
1.0001539
1.0001464
1.0001379
1.0001283
1.0001176
1.0001055
1.0000921
1.0000771
1.0000605
1.0000421
1.000022
0.99999988
0.99997588
0.99994994
0.99992207
0.99989236
0.99986087
0.99982775
0.99979313
0.99975719
0.99972015
0.99968224
0.9996437
0.99960478
0.99956574
0.9995269
0.99948852
0.9994509
0.99941438
0.99937925
0.99934573
0.9993141
0.99928453
0.99925709
0.99923181
0.99920875
0.99918773
0.99916872
0.99915149
0.99913602
0.9991219
1.0001749
1.0001721
1.0001691
1.0001657
1.0001619
1.0001575
1.0001525
1.0001468
1.0001405
1.0001333
1.0001252
1.0001161
1.0001058
1.0000944
1.0000816
1.0000673
1.0000515
1.000034
1.0000148
0.99999377
0.99997092
0.99994625
0.99991976
0.99989152
0.99986158
0.99983008
0.99979715
0.99976293
0.99972764
0.99969144
0.99965455
0.99961717
0.99957955
0.99954193
0.99950457
0.99946775
0.99943177
0.99939693
0.9993635
0.99933177
0.99930198
0.99927429
0.99924879
0.99922564
0.99920477
0.99918619
0.99916975
0.99915537
0.99914272
1.0001602
1.0001577
1.0001548
1.0001516
1.0001479
1.0001438
1.000139
1.0001337
1.0001276
1.0001208
1.0001131
1.0001044
1.0000947
1.0000838
1.0000717
1.0000581
1.0000431
1.0000265
1.0000082
0.9999883
0.99996662
0.99994322
0.9999181
0.99989132
0.99986294
0.99983309
0.99980186
0.99976939
0.99973586
0.99970141
0.9996662
0.9996304
0.99959421
0.99955783
0.99952147
0.99948536
0.9994498
0.99941509
0.9993815
0.99934937
0.99931896
0.99929046
0.99926398
0.99923964
0.99921735
0.99919708
0.99917864
0.999162
0.99914679
1.0001463
1.0001438
1.0001411
1.0001381
1.0001346
1.0001306
1.0001261
1.000121
1.0001153
1.0001088
1.0001016
1.0000934
1.0000841
1.0000738
1.0000623
1.0000495
1.0000353
1.0000196
1.0000023
0.99998341
0.9999629
0.99994076
0.999917
0.99989169
0.99986486
0.99983665
0.99980713
0.99977643
0.9997447
0.99971205
0.99967859
0.99964445
0.99960977
0.9995747
0.99953939
0.99950401
0.99946882
0.99943411
0.99940017
0.99936738
0.99933608
0.99930661
0.99927923
0.99925426
0.99923181
0.99921201
0.9991948
0.99918008
0.99916762
1.0001328
1.0001305
1.0001279
1.000125
1.0001217
1.000118
1.0001137
1.0001089
1.0001035
1.0000974
1.0000905
1.0000828
1.0000741
1.0000644
1.0000535
1.0000415
1.000028
1.0000132
0.99999691
0.99997909
0.99995976
0.9999389
0.99991653
0.99989272
0.99986747
0.99984092
0.9998131
0.99978416
0.99975422
0.99972336
0.99969168
0.99965924
0.99962616
0.9995925
0.99955832
0.99952374
0.99948897
0.99945424
0.99941982
0.99938608
0.99935337
0.99932203
0.99929234
0.99926456
0.99923873
0.99921493
0.99919301
0.99917304
0.99915465
1.00012
1.0001178
1.0001153
1.0001125
1.0001094
1.0001058
1.0001017
1.0000972
1.0000921
1.0000864
1.0000799
1.0000727
1.0000646
1.0000555
1.0000453
1.0000339
1.0000214
1.0000075
0.99999214
0.99997543
0.99995731
0.99993779
0.99991687
0.99989462
0.99987102
0.9998462
0.99982016
0.99979307
0.99976501
0.999736
0.99970617
0.99967551
0.99964407
0.99961183
0.9995788
0.99954502
0.99951064
0.99947582
0.99944081
0.99940599
0.9993718
0.99933874
0.99930736
0.99927827
0.99925197
0.99922889
0.99920928
0.99919309
0.99918024
1.0001076
1.0001055
1.0001031
1.0001004
1.0000974
1.000094
1.0000902
1.0000859
1.0000811
1.0000757
1.0000697
1.000063
1.0000554
1.000047
1.0000375
1.000027
1.0000153
1.0000022
0.99998788
0.99997221
0.99995525
0.99993697
0.99991737
0.99989653
0.99987447
0.99985139
0.99982725
0.99980219
0.99977628
0.99974952
0.99972187
0.99969339
0.99966401
0.99963359
0.99960208
0.9995694
0.9995356
0.99950071
0.99946489
0.99942842
0.99939169
0.99935514
0.99931924
0.99928448
0.99925112
0.99921943
0.99918949
0.99916159
0.99913545
1.000096
1.0000939
1.0000915
1.0000888
1.0000859
1.0000825
1.0000789
1.0000748
1.0000703
1.0000654
1.0000599
1.0000537
1.0000468
1.000039
1.0000302
1.0000204
1.0000093
0.99999707
0.99998351
0.99996874
0.99995276
0.99993551
0.99991703
0.99989737
0.99987661
0.99985498
0.99983238
0.99980907
0.99978506
0.99976026
0.99973497
0.99970889
0.999682
0.99965405
0.99962492
0.99959435
0.99956225
0.99952845
0.99949296
0.99945588
0.99941757
0.99937856
0.9993397
0.99930222
0.99926747
0.99923675
0.99921122
0.99919125
0.99917718
1.0000844
1.0000821
1.0000797
1.0000771
1.0000743
1.0000712
1.0000679
1.0000642
1.0000602
1.0000557
1.0000507
1.000045
1.0000387
1.0000314
1.0000233
1.0000141
1.0000038
0.99999244
0.99997991
0.99996633
0.9999517
0.99993599
0.99991926
0.99990157
0.99988276
0.99986282
0.99984168
0.9998199
0.99979711
0.999773
0.99974969
0.99972513
0.99969988
0.99967339
0.99964589
0.99961681
0.9995861
0.99955323
0.99951816
0.99948056
0.99944066
0.99939842
0.9993541
0.99930778
0.9992599
0.99921078
0.9991613
0.99911191
0.99906499
1.000074
1.0000718
1.0000694
1.0000668
1.0000639
1.0000609
1.0000575
1.000054
1.0000501
1.0000458
1.0000412
1.000036
1.0000304
1.0000241
1.0000172
1.0000093
1.0000006
0.99999077
0.99997965
0.99996776
0.99995532
0.99994209
0.99992812
0.9999134
0.99989773
0.99988099
0.9998631
0.99984485
0.9998253
0.9998054
0.99978452
0.99976326
0.99974021
0.99971582
0.99968989
0.99966206
0.99963212
0.99959925
0.99956325
0.99952315
0.99947924
0.99943111
0.99938018
0.99932801
0.99927748
0.99923146
0.99919474
0.99916726
0.99915535
1.0000628
1.0000592
1.0000558
1.0000524
1.0000492
1.0000463
1.0000434
1.0000405
1.0000375
1.0000343
1.0000306
1.0000267
1.0000223
1.0000173
1.0000115
1.0000047
0.99999659
0.99998679
0.99997537
0.99996353
0.9999513
0.999938
0.99992364
0.99990832
0.99989244
0.99987661
0.99986064
0.99984508
0.99982905
0.99981874
0.99979865
0.99978486
0.99976697
0.99975096
0.99973166
0.99971218
0.99968928
0.9996647
0.99963578
0.99960337
0.99956489
0.9995201
0.99946389
0.99939809
0.99931879
0.99922343
0.99911228
0.99898428
0.99885456
1.0000508
1.0000482
1.0000459
1.0000445
1.0000433
1.000042
1.0000404
1.0000385
1.0000361
1.0000332
1.0000296
1.0000252
1.0000194
1.0000124
1.0000042
0.99999452
0.99998324