/*--------------------------------*- C++ -*----------------------------------*\
| =========                 |                                                 |
| \\      /  F ield         | OpenFOAM: The Open Source CFD Toolbox           |
|  \\    /   O peration     | Version:  v2006                                 |
|   \\  /    A nd           | Website:  www.openfoam.com                      |
|    \\/     M anipulation  |                                                 |
\*---------------------------------------------------------------------------*/
FoamFile
{
    version     2.0;
    format      ascii;
    class       surfaceScalarField;
    location    "1500";
    object      phi;
}
// * * * * * * * * * * * * * * * * * * * * * * * * * * * * * * * * * * * * * //

dimensions      [1 0 -1 0 0 0 0];
oriented        oriented;


internalField   nonuniform List<scalar> 
39234
(
-0.00063263839
-6.0068899e-06
0.00063864528
-0.00061102093
-2.1617469e-05
-0.00056098409
-5.003684e-05
-0.00051724065
-4.3743437e-05
-0.00047343758
-4.3803072e-05
-0.00043443967
-3.8997913e-05
-0.00038842157
-4.6018096e-05
-0.00034896034
-3.9461246e-05
-0.00030278526
-4.6175073e-05
-0.00025594738
-4.6837891e-05
-0.00021322037
-4.2727005e-05
-0.00017202705
-4.1193326e-05
-0.00012996759
-4.2059448e-05
-8.8523972e-05
-4.1443628e-05
-4.6389177e-05
-4.2134778e-05
-2.7742559e-06
-4.3614927e-05
4.1508338e-05
-4.4282575e-05
8.7078413e-05
-4.5570083e-05
0.00013431225
-4.7233828e-05
0.0001834044
-4.9092151e-05
0.00023346841
-5.006401e-05
0.00028242985
-4.8961445e-05
0.0003323877
-4.9957838e-05
0.00038343378
-5.1046087e-05
0.0004307334
-4.7299615e-05
0.0004716359
-4.0902513e-05
0.00051215007
-4.0514159e-05
0.00055258934
-4.0439277e-05
0.00058716555
-3.4576199e-05
0.00061959194
-3.2426394e-05
0.00065225206
-3.2660115e-05
0.0006861336
-3.3881551e-05
0.0007228851
-3.6751492e-05
0.00074927224
-2.6387137e-05
0.00076718319
-1.7910953e-05
0.00078906627
-2.1883083e-05
0.00081728756
-2.8221279e-05
0.00083744319
-2.0155636e-05
0.00086335554
-2.5912348e-05
0.00090069951
-3.7343971e-05
0.00092802005
-2.7320539e-05
0.00093613529
-8.1152357e-06
0.00095797965
-2.1844356e-05
0.00095372795
4.251703e-06
0.00095702355
-3.2955973e-06
0.00094032226
1.6701288e-05
0.00091888411
2.1438153e-05
0.00089313856
2.5745554e-05
1.95873e-05
0.00087355126
-0.00059297571
-2.2866402e-05
0.00060983522
-0.0005734808
-4.1112378e-05
-0.00055046696
-7.3050678e-05
-0.00052456389
-6.9646518e-05
-0.00049750966
-7.0857297e-05
-0.00047006691
-6.6440664e-05
-0.00044196634
-7.4118668e-05
-0.0004132863
-6.8141288e-05
-0.00038337357
-7.6087804e-05
-0.00035131801
-7.8893448e-05
-0.00031765709
-7.6387925e-05
-0.00028243494
-7.6415477e-05
-0.00024492639
-7.9567996e-05
-0.00020538673
-8.0983289e-05
-0.00016364811
-8.3873399e-05
-0.00011866268
-8.8600356e-05
-7.0296974e-05
-9.2648279e-05
-1.946585e-05
-9.6401207e-05
3.3696008e-05
-0.00010039568
8.8944009e-05
-0.00010434015
0.00014609374
-0.00010721374
0.0002048599
-0.0001077276
0.00026410782
-0.00010920576
0.00032314766
-0.00011008593
0.00038181959
-0.00010597154
0.00043964522
-9.8728148e-05
0.00049514605
-9.6014975e-05
0.00054776507
-9.3058301e-05
0.00059749173
-8.4302859e-05
0.00064364973
-7.8584394e-05
0.00068591704
-7.4927422e-05
0.00072417064
-7.213515e-05
0.00075803046
-7.0611311e-05
0.0007884319
-5.6788573e-05
0.00081619574
-4.5674792e-05
0.0008412286
-4.6915947e-05
0.00086338272
-5.0375396e-05
0.00088362328
-4.0396197e-05
0.00090189734
-4.4186408e-05
0.00091742828
-5.2874902e-05
0.00093072141
-4.0613674e-05
0.00094391657
-2.1310391e-05
0.00095568179
-3.3609575e-05
0.0009670631
-7.1296066e-06
0.00097740205
-1.363455e-05
0.00098620751
7.8958332e-06
0.0009936261
1.4019562e-05
0.00099972602
1.9645638e-05
1.3945844e-05
0.0010053675
-0.0006573465
-3.7961509e-05
0.0006724416
-0.00063880215
-5.9656723e-05
-0.00061741968
-9.443315e-05
-0.00059448182
-9.2584377e-05
-0.00057040756
-9.4931555e-05
-0.00054548189
-9.1366338e-05
-0.00051939868
-0.00010020188
-0.00049226746
-9.5272511e-05
-0.00046351304
-0.00010484222
-0.00043251731
-0.00010988919
-0.00039925212
-0.00010965311
-0.00036357118
-0.00011209643
-0.00032506526
-0.00011807391
-0.00028374338
-0.00012230517
-0.00023944318
-0.0001281736
-0.00019145569
-0.00013658784
-0.00013952412
-0.00014457984
-8.4164432e-05
-0.0001517609
-2.5605678e-05
-0.00015895443
3.5769885e-05
-0.00016571572
9.958265e-05
-0.0001710265
0.00016542667
-0.00017357163
0.00023220222
-0.0001759813
0.00029905498
-0.0001769387
0.00036559186
-0.00017250842
0.00043124719
-0.00016438349
0.00049467211
-0.00015943989
0.00055518754
-0.00015357374
0.00061262449
-0.00014173981
0.0006661834
-0.00013214331
0.00071536993
-0.00012411396
0.00075988553
-0.00011665075
0.00079956608
-0.00011029186
0.00083543267
-9.2655165e-05
0.00086776007
-7.8002183e-05
0.00089610971
-7.5265594e-05
0.0009208079
-7.5073581e-05
0.00094306195
-6.2650252e-05
0.00096238414
-6.3508591e-05
0.00097880809
-6.9298863e-05
0.00099359132
-5.5396901e-05
0.0010071172
-3.4836303e-05
0.001017993
-4.4485364e-05
0.0010275521
-1.6688667e-05
0.0010349569
-2.1039334e-05
0.0010412492
1.6035508e-06
0.0010462354
9.033307e-06
0.0010506487
1.5232315e-05
1.0124994e-05
0.0010544696
-0.00068384126
-5.1336605e-05
0.00069721636
-0.00066955135
-7.3946637e-05
-0.00065417007
-0.00010981443
-0.0006372067
-0.00010954775
-0.00061882012
-0.00011331813
-0.0005989262
-0.00011126026
-0.00057738
-0.00012174807
-0.00055392865
-0.00011872387
-0.00052828126
-0.0001304896
-0.00049986838
-0.00013830207
-0.0004684994
-0.00014102209
-0.00043393284
-0.00014666299
-0.00039580585
-0.0001562009
-0.00035402677
-0.00016408426
-0.00030840069
-0.00017379967
-0.00025842147
-0.00018656707
-0.00020394031
-0.000199061
-0.00014535509
-0.00021034612
-8.292229e-05
-0.00022138723
-1.7079001e-05
-0.00023155902
5.1737027e-05
-0.00023984252
0.00012311295
-0.00024494756
0.00019590975
-0.0002487781
0.00026914995
-0.0002501789
0.00034229233
-0.00024565079
0.00041463331
-0.00023672448
0.00048471458
-0.00022952115
0.00055164999
-0.00022050915
0.00061511649
-0.00020520631
0.00067424356
-0.00019127038
0.00072844886
-0.00017831925
0.00077742567
-0.00016562756
0.00082100387
-0.00015387006
0.00086014008
-0.00013179138
0.00089507525
-0.00011293735
0.00092538433
-0.00010557468
0.00095132756
-0.0001010168
0.00097413755
-8.5460254e-05
0.00099342787
-8.2798901e-05
0.0010093136
-8.5184594e-05
0.0010233207
-6.9403982e-05
0.0010364261
-4.7941695e-05
0.0010474592
-5.5518533e-05
0.0010582537
-2.7483094e-05
0.0010678012
-3.0586856e-05
0.0010775539
-8.1491288e-06
0.0010872482
-6.6102105e-07
0.0010972
5.2805009e-06
1.037582e-07
0.0011072213
-0.00073000293
-6.4043719e-05
0.00074271004
-0.00071653722
-8.741234e-05
-0.0007021047
-0.00012424695
-0.00068647683
-0.00012517562
-0.00066954238
-0.00013025258
-0.00065109687
-0.00012970577
-0.00063087066
-0.00014197427
-0.00060855519
-0.00014103935
-0.00058380126
-0.00015524352
-0.00055604341
-0.00016605993
-0.00052496396
-0.00017210154
-0.00049024216
-0.00018138479
-0.0004514996
-0.00019494345
-0.0004085118
-0.00020707207
-0.00036106266
-0.0002212488
-0.00030879062
-0.00023883911
-0.0002515204
-0.00025633122
-0.00018950072
-0.00027236581
-0.00012299338
-0.00028789456
-5.239854e-05
-0.00030215387
2.1759891e-05
-0.00031400095
9.8705334e-05
-0.00032189301
0.00017728122
-0.00032735398
0.00025654073
-0.00032943841
0.00033574571
-0.00032485577
0.0004140176
-0.00031499638
0.00048994697
-0.00030545052
0.00056257063
-0.00029313281
0.00063137347
-0.00027400914
0.00069547175
-0.00025536867
0.00075425712
-0.00023710462
0.00080740111
-0.00021877155
0.00085474915
-0.0002012181
0.00089702037
-0.0001740626
0.00093440891
-0.00015032589
0.0009666639
-0.00013782968
0.00099413487
-0.00012848776
0.0010178938
-0.00010921922
0.0010378314
-0.0001027365
0.0010542747
-0.00010162782
0.0010685237
-8.3653037e-05
0.0010813914
-6.0809393e-05
0.001092179
-6.6306098e-05
0.0011024559
-3.776002e-05
0.0011115614
-3.9692349e-05
0.0011204183
-1.7006038e-05
0.0011288266
-9.0693015e-06
0.0011370022
-2.8950939e-06
-7.9873771e-06
0.0011450933
-0.00077772908
-7.4959352e-05
0.00078864472
-0.0007661244
-9.9017026e-05
-0.0007534326
-0.00013693875
-0.00073944839
-0.00013915983
-0.00072396824
-0.00014573273
-0.00070674962
-0.0001469244
-0.00068743532
-0.00016128858
-0.00066573652
-0.00016273814
-0.00064122304
-0.000179757
-0.00061337842
-0.00019390455
-0.00058186866
-0.0002036113
-0.00054632221
-0.00021693123
-0.00050632583
-0.00023493983
-0.00046162002
-0.00025177789
-0.00041195795
-0.00027091087
-0.00035698952
-0.00029380754
-0.00029656513
-0.00031675561
-0.00023091915
-0.00033801179
-0.00016034972
-0.00035846399
-8.5336428e-05
-0.00037716717
-6.4517662e-06
-0.00039288562
7.5613353e-05
-0.00040395813
0.00015971768
-0.00041145831
0.00024479074
-0.00041451148
0.00032992602
-0.00040999105
0.00041411967
-0.00039919004
0.00049594513
-0.00038727598
0.00057434965
-0.00037153733
0.00064868572
-0.00034834521
0.00071804771
-0.00032473066
0.00078179335
-0.00030085026
0.00083955756
-0.00027653577
0.0008911605
-0.00025282103
0.00093717767
-0.00022007977
0.00097780841
-0.00019095663
0.0010129311
-0.00017295242
0.0010429071
-0.00015846367
0.0010686985
-0.00013501071
0.0010903775
-0.00012441544
0.001108336
-0.00011958632
0.0011237095
-9.902655e-05
0.001137318
-7.4417934e-05
0.0011488124
-7.780047e-05
0.0011595266
-4.8474251e-05
0.0011691673
-4.9333004e-05
0.0011786296
-2.6468372e-05
0.0011880279
-1.8467635e-05
0.0011975085
-1.2375602e-05
-1.7484896e-05
0.001207006
-0.00083201549
-8.533061e-05
0.00084238675
-0.00082096744
-0.00011006507
-0.00080882222
-0.00014908397
-0.00079540905
-0.000152573
-0.00078044946
-0.00016069232
-0.00076365313
-0.00016372073
-0.00074460207
-0.00018033964
-0.00072297412
-0.00018436609
-0.00069828306
-0.00020444807
-0.00067000829
-0.00022217933
-0.00063776854
-0.00023585105
-0.00060114296
-0.00025355681
-0.00055968303
-0.00027639976
-0.00051308413
-0.00029837679
-0.00046106573
-0.00032292927
-0.00040328626
-0.00035158702
-0.0003396041
-0.00038043777
-0.00027022491
-0.00040739099
-0.00019544623
-0.00043324267
-0.00011575615
-0.00045685725
-3.1787739e-05
-0.00047685402
5.5687756e-05
-0.00049143363
0.00014548944
-0.00050125999
0.00023645926
-0.0005054813
0.00032758074
-0.00050111254
0.00041774079
-0.0004893501
0.00050547825
-0.00047501344
0.00058966906
-0.00045572814
0.00066955482
-0.00042823097
0.00074418986
-0.0003993657
0.00081289839
-0.0003695588
0.00087528376
-0.00033892114
0.00093115217
-0.00030868944
0.00098098827
-0.00026991587
0.0010249715
-0.00023493986
0.0010630428
-0.00021102369
0.0010956028
-0.00019102367
0.0011235777
-0.00016298563
0.0011471237
-0.00014796145
0.001166701
-0.00013916361
0.0011834149
-0.00011574041
0.0011980616
-8.9064666e-05
0.0012104301
-9.0168978e-05
0.0012217779
-5.9822066e-05
0.0012319121
-5.9467219e-05
0.0012416837
-3.6239959e-05
0.0012511887
-2.7972582e-05
0.0012606987
-2.1885632e-05
-2.7105275e-05
0.0012703191
-0.00088942942
-9.4818001e-05
0.00089891681
-0.00087915125
-0.00012034325
-0.00086764265
-0.00016059256
-0.00085474282
-0.00016547284
-0.00084014357
-0.00017529156
-0.00082353524
-0.00018032907
-0.00080446484
-0.00019941004
-0.00078259668
-0.00020623425
-0.00075740052
-0.00022964423
-0.00072835492
-0.00025122493
-0.00069504727
-0.0002691587
-0.00065701615
-0.00029158793
-0.00061377828
-0.00031963763
-0.00056499425
-0.00034716082
-0.00051035442
-0.0003775691
-0.00044951357
-0.00041242787
-0.00038233675
-0.00044761458
-0.0003090166
-0.00048071113
-0.000229859
-0.00051240027
-0.00014537585
-0.0005413404
-5.6247987e-05
-0.00056598188
3.6697657e-05
-0.00058437928
0.0001322648
-0.00059682713
0.00022921818
-0.00060243468
0.0003264296
-0.00059832396
0.00042268245
-0.00058560295
0.0005164647
-0.00056879568
0.00060657222
-0.00054583568
0.00069214739
-0.00051380613
0.00077220486
-0.00047942318
0.00084603006
-0.00044338399
0.00091319046
-0.00040608154
0.00097346795
-0.00036896693
0.0010272712
-0.00032371913
0.001074782
-0.00028245063
0.0011160068
-0.00025224855
0.0011513603
-0.00022637716
0.0011817294
-0.00019335468
0.0012073554
-0.00017358746
0.0012287323
-0.00016054048
0.001246909
-0.00013391719
0.0012626887
-0.00010484438
0.0012759934
-0.0001034736
0.0012880085
-7.1837226e-05
0.0012986655
-7.0124193e-05
0.0013087905
-4.6364918e-05
0.0013185654
-3.7747534e-05
0.0013283065
-3.1626754e-05
-3.6912946e-05
0.0013381142
-0.00095130985
-0.00010389869
0.00096039054
-0.00094136343
-0.00013028967
-0.00093011184
-0.00017184414
-0.00091738332
-0.00017820137
-0.00090283724
-0.00018983764
-0.00088613518
-0.00019703113
-0.00086679525
-0.00021874997
-0.00084445132
-0.00022857818
-0.00081853881
-0.00025555674
-0.00078852017
-0.00028124358
-0.00075394405
-0.00030373482
-0.00071430898
-0.000331223
-0.00066909773
-0.00036484888
-0.00061793382
-0.00039832473
-0.00056047712
-0.00043502581
-0.00049637532
-0.00047652967
-0.0004254947
-0.0005184952
-0.00034801571
-0.00055819012
-0.00026425056
-0.00059616542
-0.00017473122
-0.00063085975
-8.017657e-05
-0.00066053653
1.8522982e-05
-0.00068307883
0.00012011867
-0.00069842282
0.00022329936
-0.00070561537
0.00032683831
-0.00070186291
0.00042941945
-0.00068818409
0.00052947311
-0.00066884935
0.00062571857
-0.00064208114
0.00071720523
-0.00060529278
0.00080290047
-0.00056511842
0.00088204915
-0.00052253266
0.00095418464
-0.00047821703
0.0010190692
-0.00043385152
0.0010770557
-0.00038170557
0.0011283179
-0.00033371283
0.0011729009
-0.00029683161
0.001211241
-0.00026471727
0.0012442108
-0.00022632448
0.0012721043
-0.00020148096
0.0012954553
-0.00018389148
0.0013153063
-0.00015376821
0.0013324594
-0.00012199742
0.0013469134
-0.00011792758
0.0013598301
-8.4753961e-05
0.0013711968
-8.1490935e-05
0.0013818366
-5.7004696e-05
0.0013919512
-4.7862124e-05
0.0014018674
-4.154297e-05
-4.6781263e-05
0.0014117357
-0.0010168437
-0.00011254888
0.0010254939
-0.0010072117
-0.00013992167
-0.00099616329
-0.00018289256
-0.0009835097
-0.00019085495
-0.00096889128
-0.00020445606
-0.00095194777
-0.00021397464
-0.00093217608
-0.00023852166
-0.00090918208
-0.00025157218
-0.00088237185
-0.00028236696
-0.00085118862
-0.00031242681
-0.00081514461
-0.00033977883
-0.00077370093
-0.00037266668
-0.00072630663
-0.00041224319
-0.00067254962
-0.00045208174
-0.00061206069
-0.00049551473
-0.00054447676
-0.0005441136
-0.00046966178
-0.00059331018
-0.00038778701
-0.0006400649
-0.00029917331
-0.00068477911
-0.0002043759
-0.00072565717
-0.00010415547
-0.00076075696
5.3964984e-07
-0.00078777395
0.00010840651
-0.00080628969
0.00021805753
-0.00081526638
0.00032816991
-0.0008119753
0.0004373279
-0.00079734209
0.00054389493
-0.00077541638
0.00064650858
-0.00074469479
0.00074412753
-0.00070291173
0.00083566816
-0.00065665905
0.0009203307
-0.00060719521
0.00099761147
-0.0005554978
0.0010672484
-0.00050348844
0.0011295452
-0.0004440024
0.0011846747
-0.0003888423
0.00123272
-0.00034487693
0.001274132
-0.00030612922
0.0013097718
-0.00026196428
0.001339988
-0.00023169721
0.0013653443
-0.00020924773
0.0013868684
-0.00017529238
0.0014053761
-0.00014050509
0.0014209402
-0.00013349172
0.0014347011
-9.8514813e-05
0.0014467091
-9.3498985e-05
0.0014577856
-6.8081188e-05
0.0014681722
-5.8248711e-05
0.0014782224
-5.159313e-05
-5.6655255e-05
0.0014880964
-0.0010865889
-0.0001209703
0.0010950103
-0.001077088
-0.00014942262
-0.0010660788
-0.00019390176
-0.0010533455
-0.00020358822
-0.001038507
-0.00021929458
-0.0010211768
-0.00023130478
-0.0010008316
-0.00025886687
-0.00097704296
-0.00027536086
-0.00094919006
-0.00031021986
-0.00091669063
-0.00034492624
-0.0008790172
-0.00037745225
-0.00083559295
-0.00041609093
-0.00078583285
-0.00046200329
-0.00072928797
-0.00050862662
-0.00066555935
-0.00055924335
-0.00059427141
-0.00061540154
-0.00051528331
-0.00067229828
-0.00042875834
-0.00072658987
-0.00033502693
-0.00077851053
-0.00023466822
-0.00082601588
-0.00012848358
-0.00086694161
-1.7490029e-05
-0.0008987675
9.6954748e-05
-0.00092073447
0.00021338999
-0.00093170163
0.00033038659
-0.0009289719
0.00044643053
-0.00091338602
0.00055981228
-0.00088879814
0.00066908595
-0.00085396846
0.00077312075
-0.00080694654
0.00087077761
-0.00075431591
0.00096121025
-0.00069762785
0.0010438781
-0.00063816561
0.0011184963
-0.00057810671
0.0011853295
-0.00051083561
0.0012445473
-0.00044806007
0.0012962617
-0.00039659135
0.001340942
-0.00035080951
0.0013794491
-0.0003004714
0.0014121745
-0.00026442256
0.0014397147
-0.00023678792
0.0014631043
-0.000198682
0.0014831697
-0.00016057044
0.0015000378
-0.00015035985
0.0015148474
-0.00011332442
0.001527688
-0.00010633955
0.0015393896
-7.9782863e-05
0.0015502135
-6.9072521e-05
0.001560528
-6.1907718e-05
-6.6654537e-05
0.0015705273
-0.0011604039
-0.00012920459
0.0011686382
-0.0011509812
-0.00015884528
-0.0011399474
-0.00020493559
-0.0011270561
-0.00021647957
-0.0011119079
-0.00023444274
-0.0010940913
-0.00024912141
-0.0010730638
-0.00027989439
-0.0010483616
-0.00030006307
-0.001019338
-0.00033924337
-0.00098538195
-0.00037888233
-0.00094592528
-0.00041690892
-0.00090035308
-0.00046166314
-0.00084804537
-0.00051431099
-0.00078851575
-0.00056815624
-0.0007213352
-0.0006264239
-0.00064611374
-0.00069062301
-0.00056270369
-0.00075570832
-0.00047126161
-0.00081803196
-0.00037212897
-0.00087764316
-0.00026591106
-0.00093223379
-0.00015345349
-0.00097939918
-3.5837565e-05
-0.0010163834
8.5514268e-05
-0.0010420863
0.00020906162
-0.001055249
0.00033327238
-0.0010531827
0.00045653058
-0.0010366442
0.00057704647
-0.001009314
0.00069328604
-0.00097020804
0.0008040278
-0.0009176883
0.00090807267
-0.00085836078
0.0010045242
-0.00079407935
0.0010928022
-0.00072644361
0.0011725967
-0.0006579012
0.0012441363
-0.00058237524
0.0013075891
-0.00051151289
0.0013630943
-0.00045209653
0.0014111377
-0.0003988529
0.0014525833
-0.00034191707
0.0014878665
-0.00029970568
0.0015176147
-0.00026653612
0.0015428684
-0.00022393579
0.0015644732
-0.00018217524
0.0015826096
-0.00016849622
0.001598418
-0.00012913277
0.00161203
-0.00011995159
0.0016242863
-9.2039148e-05
0.0016354734
-8.025962e-05
0.0016459788
-7.2413146e-05
-7.6681524e-05
0.0016560058
-0.0012386739
-0.00013735666
0.001246826
-0.0012292312
-0.00016828795
-0.0012180794
-0.00021608745
-0.001204937
-0.00022962196
-0.0011893849
-0.00024999485
-0.0011709836
-0.00026752268
-0.001149171
-0.00030170706
-0.0011234443
-0.00032578971
-0.0010931309
-0.00036955677
-0.0010575867
-0.00041442656
-0.0010162006
-0.00045829502
-0.00096831815
-0.00050954558
-0.00091328327
-0.00056934588
-0.00085057056
-0.00063086895
-0.00077971997
-0.00069727449
-0.00070032572
-0.00077001726
-0.00061223178
-0.00084380226
-0.00051558879
-0.00091467495
-0.00041075055
-0.0009824814
-0.00029835046
-0.0010446339
-0.00017928104
-0.0010984686
-5.4688584e-05
-0.0011409759
7.3933756e-05
-0.0011707086
0.00020495954
-0.0011862748
0.00033675227
-0.0011849754
0.00046759048
-0.0011674824
0.00059559764
-0.0011373212
0.00071914766
-0.0010937581
0.00083692671
-0.0010354673
0.00094767162
-0.00096910569
0.0010504332
-0.00089684091
0.0011445909
-0.00082060136
0.0012298099
-0.00074312013
0.0013062881
-0.00065885343
0.0013741927
-0.00057941752
0.0014336876
-0.00051159141
0.0014852783
-0.00045044358
0.0015298387
-0.00038647747
0.0015678446
-0.00033771162
0.0015999573
-0.00029864878
0.0016272334
-0.00025121197
0.0016505378
-0.00020547959
0.0016700968
-0.00018805519
0.0016870614
-0.00014609742
0.0017015964
-0.00013448659
0.0017145576
-0.0001050003
0.00172625
-9.1952027e-05
0.0017370771
-8.3240233e-05
-8.687082e-05
0.0017472664
-0.0013214997
-0.00014547337
0.0013296164
-0.0013119867
-0.00017780092
-0.0013006615
-0.00022741263
-0.0012872052
-0.0002430783
-0.0012711788
-0.00026602125
-0.0012521141
-0.00028658732
-0.0012294284
-0.00032439278
-0.0012025784
-0.00035263971
-0.0011708642
-0.00040127095
-0.0011336058
-0.00045168494
-0.0010901473
-0.00050175351
-0.0010397934
-0.00055989954
-0.00098185007
-0.0006272892
-0.00091575158
-0.00069696744
-0.00084100583
-0.00077202024
-0.00075718968
-0.0008538334
-0.00066413747
-0.00093685447
-0.00056199464
-0.0010168178
-0.00045112864
-0.0010933474
-0.0003322032
-0.0011635593
-0.00020616041
-0.0012245114
-7.4214501e-05
-0.0012729218
6.2065684e-05
-0.0013069888
0.00020096236
-0.0013251715
0.00034073111
-0.0013247441
0.0004795407
-0.001306292
0.00061542087
-0.0012732013
0.00074664843
-0.0012249856
0.00087181429
-0.0011606332
0.00098958653
-0.0010868779
0.0010989597
-0.0010062141
0.0011992707
-0.00092091229
0.0012901575
-0.00083400695
0.0013717896
-0.0007404856
0.0014443338
-0.00065196164
0.0015079769
-0.00057523458
0.0015632444
-0.00050571102
0.0016110229
-0.00043425596
0.0016518294
-0.00037851815
0.0016863593
-0.00033317867
0.0017156875
-0.00028054023
0.0017407032
-0.0002304952
0.0017616792
-0.00020903125
0.001779781
-0.00016419918
0.0017952085
-0.00014991411
0.0018088349
-0.00011862671
0.001820987
-0.00010410411
0.0018320857
-9.4338958e-05
-9.7155224e-05
0.0018423701
-0.0014092246
-0.00015362019
0.0014173715
-0.0013995774
-0.00018744814
-0.0013880144
-0.00023897568
-0.0013741764
-0.00025691627
-0.0013576033
-0.00028259439
-0.0013377961
-0.00030639451
-0.0013141498
-0.00034803907
-0.001286078
-0.00038071152
-0.0012528522
-0.00043449674
-0.0012137532
-0.00049078391
-0.0011680778
-0.00054742888
-0.0011150878
-0.00061288955
-0.0010540496
-0.00068832742
-0.00098435519
-0.00076666185
-0.00090547899
-0.00085089644
-0.00081697919
-0.00094233321
-0.00071867921
-0.0010351545
-0.00061071997
-0.001124777
-0.00049348386
-0.0012105835
-0.00036766714
-0.001289376
-0.00023426435
-0.0013579142
-9.4561024e-05
-0.0014126251
4.9793277e-05
-0.0014513431
0.0001969838
-0.001472362
0.00034515357
-0.0014729139
0.00049235681
-0.0014534953
0.00063652267
-0.0014173672
0.00077582575
-0.0013642887
0.00090875833
-0.0012935658
0.0010339153
-0.0012120349
0.001150232
-0.0011225308
0.0012570008
-0.0010276811
0.0013538325
-0.00093083865
0.0014408708
-0.0008275239
0.0015182829
-0.00072937371
0.001586279
-0.00064323072
0.0016454069
-0.00056483891
0.0016965712
-0.00048542021
0.0017403305
-0.0004222775
0.0017774171
-0.00037026525
0.0018089305
-0.00031205362
0.0018357859
-0.00025735062
0.0018583008
-0.00023154617
0.0018776597
-0.00018355803
0.0018940947
-0.00016634916
0.0019084993
-0.00013303134
0.00192122
-0.00011682479
0.0019326951
-0.00010581404
-0.00010764402
0.0019431839
-0.00150207
-0.00016183843
0.0015102882
-0.0014922449
-0.00019727323
-0.0014803962
-0.00025082443
-0.0014661223
-0.00027119011
-0.0014489408
-0.00029977586
-0.0014283205
-0.00032701482
-0.0014036325
-0.00037272708
-0.0013742449
-0.0004100991
-0.001339399
-0.00046934265
-0.0012983334
-0.00053184957
-0.0012502951
-0.00059546718
-0.0011945009
-0.00066868368
-0.0011301756
-0.00075265273
-0.001056667
-0.00084017045
-0.00097341457
-0.0009341489
-0.00087995626
-0.0010357915
-0.0007761036
-0.0011390071
-0.00066199354
-0.0012388871
-0.00053802472
-0.0013345523
-0.00040492825
-0.0014224725
-0.00026375426
-0.0014990882
-0.00011586353
-0.0015605158
3.7008473e-05
-0.0016042151
0.00019294419
-0.0016282977
0.00034996885
-0.0016299386
0.00050601656
-0.001609543
0.0006589088
-0.0015702595
0.00080671223
-0.0015120921
0.00094781638
-0.0014346699
0.0010807382
-0.0013449567
0.0012043499
-0.0012461426
0.0013178972
-0.0011412284
0.001420962
-0.0010339034
0.0015136634
-0.00092022528
0.0015961694
-0.00081187973
0.001668713
-0.00071577431
0.0017318653
-0.00062799118
0.0017865514
-0.00054010637
0.0018333729
-0.00046909895
0.0018731003
-0.00040999263
0.0019068603
-0.0003458137
0.0019355985
-0.00028608875
0.0019596778
-0.00025562546
0.0019803053
-0.00020418551
0.0019977478
-0.00018379172
0.0020129213
-0.00014820486
0.0020261945
-0.00013009799
0.0020380246
-0.00011764413
-0.00011830512
0.0020486857
-0.0016003803
-0.00017017497
0.0016087168
-0.0015903293
-0.00020732416
-0.0015781438
-0.00026301001
-0.0015633777
-0.00028595615
-0.0015455247
-0.00031762886
-0.0015240192
-0.0003485203
-0.0014982067
-0.00039853967
-0.0014674072
-0.00044089855
-0.0014308297
-0.00050592016
-0.0013876674
-0.00057501189
-0.0013371151
-0.00064601951
-0.0012783421
-0.00072745665
-0.0012105291
-0.00082046575
-0.0011329776
-0.00091772195
-0.0010450904
-0.0010220361
-0.00094638372
-0.0011344982
-0.00083665628
-0.0012487345
-0.0007160414
-0.001359502
-0.00058495544
-0.0014656383
-0.00044416676
-0.0015632612
-0.00029478435
-0.0016484706
-0.00013824847
-0.0017170517
2.361402e-05
-0.0017660776
0.00018877661
-0.0017934603
0.00035514074
-0.0017963027
0.00052051446
-0.0017749167
0.00068260425
-0.0017323492
0.00083936282
-0.0016688507
0.00098907237
-0.0015843795
0.0011301669
-0.0014860513
0.0012614522
-0.0013774279
0.0013821249
-0.001261901
0.0014917369
-0.0011435154
0.0015903844
-0.0010188728
0.0016782372
-0.00089973258
0.0017555517
-0.00079308878
0.0018229249
-0.00069536434
0.0018813068
-0.00059848836
0.0019313436
-0.00051913566
0.0019738472
-0.0004524963
0.0020099768
-0.00038194326
0.0020407105
-0.0003168225
0.0020664576
-0.00028137253
0.0020884515
-0.0002261794
0.0021069933
-0.00020233351
0.0021230239
-0.00016423544
0.0021369343
-0.00014400844
0.0021492017
-0.00012991155
-0.00012922342
0.00216012
-0.0017044536
-0.00017866561
0.0017129443
-0.0016941383
-0.00021763953
-0.0016815724
-0.00027557586
-0.001666264
-0.00030126462
-0.0016476808
-0.00033621202
-0.0016252213
-0.00037097985
-0.0015982029
-0.00042555804
-0.0015658956
-0.00047320588
-0.0015274734
-0.00054434233
-0.0014820812
-0.00062040411
-0.0014288586
-0.00069924203
-0.0013669253
-0.00078939003
-0.0012954149
-0.00089197609
-0.0012135806
-0.00099955622
-0.0011207867
-0.0011148301
-0.001016526
-0.0012387588
-0.00090058343
-0.0013646771
-0.00077308922
-0.0014869962
-0.00063447884
-0.0016042487
-0.00048556042
-0.0017121796
-0.00032750544
-0.0018065256
-0.00016183815
-0.001882719
9.517646e-06
-0.0019374334
0.00018441975
-0.0019683624
0.00036063922
-0.0019725222
0.00053585161
-0.0019501291
0.00070764088
-0.0019041385
0.00087383926
-0.0018350491
0.0010326164
-0.0017431567
0.0011823183
-0.0016357532
0.0013216802
-0.0015167898
0.001449847
-0.0013900678
0.0015663393
-0.0012600077
0.0016712309
-0.0011237644
0.001764694
-0.00099319566
0.0018470083
-0.00087540312
0.0019187985
-0.00076715456
0.0019810425
-0.00066073235
0.0020344323
-0.00057252547
0.0020798239
-0.00049788789
0.0021184116
-0.00042053095
0.00215121
-0.0003496209
0.0021786761
-0.00030883858
0.0022020731
-0.00024957639
0.0022217386
-0.00022199907
0.0022386412
-0.00018113798
0.0022531965
-0.00015856379
0.0022659034
-0.00014261842
-0.00014039374
0.0022770737
-0.0018146575
-0.00018734762
0.0018233395
-0.0018040375
-0.00022825946
-0.0017910465
-0.00028856687
-0.0017751439
-0.00031716726
-0.0017557703
-0.0003555856
-0.0017322856
-0.00039446451
-0.0017039775
-0.00045386616
-0.0016700627
-0.00050712067
-0.0016296782
-0.00058472686
-0.0015819171
-0.00066816523
-0.0015258611
-0.00075529801
-0.0014605768
-0.0008546743
-0.0013851489
-0.00096740403
-0.0012987792
-0.0010859259
-0.0012007914
-0.0012128179
-0.0010906537
-0.0013488965
-0.00096813603
-0.0014871948
-0.00083336599
-0.0016217662
-0.00068679959
-0.0017508151
-0.00052928744
-0.0018696918
-0.00036206725
-0.0019737457
-0.00018675197
-0.0020580343
-5.3691092e-06
-0.0021188163
0.00017981714
-0.0021535486
0.0003664409
-0.0021591459
0.00055203749
-0.0021357257
0.00073406061
-0.0020861616
0.00091021513
-0.0020112036
0.0010785526
-0.0019114942
0.0012373256
-0.0017945262
0.0013851946
-0.0016646588
0.0015212503
-0.0015261236
0.0016449804
-0.0013837378
0.0017564373
-0.0012352212
0.0018557962
-0.0010925546
0.0019433615
-0.00096296839
0.0020197877
-0.00084358082
0.0020860845
-0.00072702908
0.0021429924
-0.00062943339
0.0021914146
-0.00054631009
0.0022325852
-0.00046170156
0.0022675586
-0.00038459434
0.0022968413
-0.00033812118
0.0023217298
-0.00027446494
0.0023425997
-0.00024286891
0.0023604491
-0.00019898748
0.0023757201
-0.00017383474
0.0023889343
-0.00015583261
-0.00015188444
0.002400425
-0.0019313496
-0.00019625301
0.001940255
-0.0019203893
-0.00023921976
-0.0019069316
-0.00030202458
-0.0018903854
-0.00033371347
-0.0018701623
-0.00037580877
-0.0018455815
-0.00041904528
-0.0018158984
-0.00048354925
-0.0017802739
-0.00054274512
-0.0017378053
-0.00062719554
-0.0016875305
-0.00071843998
-0.0016284702
-0.00081435831
-0.0015596353
-0.00092350927
-0.0014800579
-0.0010469814
-0.0013888864
-0.0011770974
-0.0012854017
-0.0013163026
-0.0011690455
-0.0014652528
-0.0010395719
-0.0016166684
-0.00089710624
-0.0017642319
-0.0007421266
-0.0019057947
-0.00057552884
-0.0020362895
-0.0003986209
-0.0021506537
-0.0002131093
-0.0022435459
-2.1132987e-05
-0.0023107926
0.00017491562
-0.0023495972
0.00037252705
-0.0023567574
0.00056908755
-0.0023322862
0.00076191261
-0.0022789867
0.0009485724
-0.0021978634
0.0011269944
-0.0020899161
0.0012953318
-0.0019628636
0.0014521663
-0.0018214933
0.0015965313
-0.0016704886
0.0017278799
-0.0015150864
0.0018462434
-0.0013535847
0.0019518007
-0.0011981119
0.0020448814
-0.0010560491
0.0021261721
-0.00092487149
0.002196717
-0.00079757397
0.0022573077
-0.00069002409
0.0023088971
-0.00059789948
0.0023527627
-0.00050556719
0.0023900022
-0.00042183382
0.0024211735
-0.00036929245
0.0024476103
-0.00030090172
0.002469728
-0.00026498662
0.0024885577
-0.00021781722
0.0025045695
-0.00018984654
0.0025183102
-0.00016957336
-0.00016370872
0.0025301345
-0.0020549345
-0.00020541423
0.0020640957
-0.0020435972
-0.00025055708
-0.0020296301
-0.00031599169
-0.0020123893
-0.00035095418
-0.0019912554
-0.00039694269
-0.0019655047
-0.000444796
-0.0019343578
-0.00051469618
-0.0018969167
-0.00058018615
-0.0018522361
-0.00067187613
-0.0017992957
-0.00077138044
-0.0017370514
-0.00087660262
-0.001664455
-0.0009961056
-0.0015804837
-0.0011309527
-0.0014842291
-0.0012733521
-0.001374927
-0.0014256047
-0.0012519909
-0.0015881889
-0.0011151581
-0.0017535011
-0.00096455222
-0.0019148378
-0.00080067491
-0.002069672
-0.00062447024
-0.0022124942
-0.0004373206
-0.0023378033
-0.00024103173
-0.0024398348
-3.7860079e-05
-0.0025139642
0.0001696654
-0.0025571227
0.00037888319
-0.0025659751
0.00058702313
-0.0025404261
0.0007912536
-0.0024832172
0.00098900236
-0.0023956122
0.0011780662