/*--------------------------------*- C++ -*----------------------------------*\
| =========                 |                                                 |
| \\      /  F ield         | OpenFOAM: The Open Source CFD Toolbox           |
|  \\    /   O peration     | Version:  v2006                                 |
|   \\  /    A nd           | Website:  www.openfoam.com                      |
|    \\/     M anipulation  |                                                 |
\*---------------------------------------------------------------------------*/
FoamFile
{
    version     2.0;
    format      ascii;
    class       volScalarField;
    location    "1500";
    object      pMean;
}
// * * * * * * * * * * * * * * * * * * * * * * * * * * * * * * * * * * * * * //

dimensions      [1 -1 -2 0 0 0 0];


internalField   nonuniform List<scalar> 
19765
(
0.99997971
1.0002368
1.0010964
1.0016802
1.0022745
1.0027157
1.0032789
1.0035961
1.0040462
1.0044304
1.0046963
1.0049047
1.0050941
1.005214
1.0052831
1.0053299
1.0053453
1.0053226
1.0052631
1.0051669
1.0050333
1.0048653
1.0046755
1.0044451
1.0041616
1.0038608
1.0035912
1.0032803
1.002892
1.0025325
1.0021512
1.001691
1.0011697
1.0004872
0.99992344
0.99950673
0.99897946
0.99820095
0.99764113
0.99701641
0.99601832
0.99514678
0.9949522
0.99416188
0.99412932
0.99383297
0.99397951
0.99424257
0.99459825
1.0013381
1.0014783
1.0016633
1.0018985
1.0021523
1.0024032
1.0026676
1.002897
1.0031361
1.0033811
1.0035984
1.003786
1.0039623
1.004099
1.0041941
1.004273
1.0043309
1.004353
1.0043429
1.0042964
1.0042149
1.0041062
1.0039626
1.0037843
1.0035787
1.0033501
1.0030892
1.0027976
1.0024807
1.002138
1.00177
1.00138
1.000972
1.0005566
1.0001443
0.99972679
0.99929565
0.9988648
0.99846426
0.99808408
0.99774112
0.99745445
0.99718375
0.99694036
0.99675973
0.99660362
0.99647762
0.99636038
0.99624054
1.0013098
1.0014995
1.0017194
1.0019443
1.0021708
1.0023885
1.0026033
1.0027947
1.0029831
1.0031611
1.0033246
1.0034731
1.0036098
1.0037226
1.0038087
1.0038764
1.0039243
1.0039454
1.0039382
1.0039003
1.0038315
1.0037348
1.0036075
1.0034482
1.0032615
1.0030507
1.0028112
1.0025432
1.0022516
1.0019364
1.0016005
1.0012492
1.0008891
1.0005248
1.0001528
0.99977527
0.99940106
0.99903205
0.99867077
0.99832681
0.99800175
0.99768322
0.99738162
0.99709657
0.99683778
0.99661914
0.99642562
0.99625651
0.9961007
1.0015921
1.001721
1.0018504
1.0019916
1.0021382
1.0022877
1.0024384
1.0025812
1.0027245
1.0028657
1.0029969
1.0031177
1.0032303
1.0033253
1.0033985
1.003458
1.0035031
1.0035255
1.0035225
1.0034924
1.0034353
1.0033561
1.0032515
1.003118
1.00296
1.0027818
1.0025793
1.0023509
1.0021025
1.001835
1.0015508
1.0012552
1.0009525
1.0006481
1.0003389
1.0000271
0.99972136
0.99942557
0.99913704
0.99886609
0.99861598
0.99837232
0.99813264
0.99791325
0.99769713
0.99749633
0.99729274
0.9970916
0.99689361
1.0015344
1.001653
1.0017724
1.0018927
1.0020122
1.0021298
1.0022469
1.0023566
1.0024662
1.0025746
1.0026759
1.0027694
1.002857
1.0029317
1.0029895
1.003036
1.0030714
1.0030884
1.003084
1.0030564
1.0030045
1.0029312
1.0028342
1.0027102
1.0025632
1.0023978
1.002211
1.0020008
1.0017725
1.0015285
1.0012702
1.0010021
1.0007276
1.0004518
1.0001741
0.99989601
0.99962229
0.99935598
0.99909605
0.99884773
0.99861126
0.99837859
0.99814832
0.99792827
0.99770817
0.99749483
0.9972825
0.99707499
0.99687175
1.0015591
1.0016449
1.0017322
1.0018206
1.0019096
1.0019981
1.0020877
1.0021722
1.0022579
1.0023432
1.0024233
1.0024973
1.0025668
1.0026262
1.0026718
1.002708
1.0027344
1.0027451
1.0027374
1.0027096
1.0026605
1.002593
1.0025052
1.002394
1.0022625
1.0021143
1.001947
1.0017596
1.0015566
1.00134
1.0011115
1.0008749
1.0006335
1.0003913
1.0001485
0.99990621
0.99966833
0.99943736
0.99921276
0.99899819
0.99879385
0.99859364
0.99839691
0.99820691
0.99801738
0.99783099
0.9976426
0.99745228
0.9972619
1.0014926
1.0015669
1.0016422
1.0017162
1.0017893
1.0018607
1.0019325
1.0019999
1.0020681
1.002136
1.0021996
1.0022583
1.0023132
1.0023599
1.0023952
1.0024224
1.0024412
1.0024463
1.0024354
1.0024068
1.0023595
1.0022953
1.0022125
1.0021087
1.0019862
1.0018481
1.0016928
1.0015193
1.0013317
1.0011319
1.0009215
1.0007037
1.0004813
1.000258
1.0000342
0.99981109
0.99959138
0.9993772
0.99916823
0.99896688
0.99877295
0.99858243
0.99839415
0.99821008
0.99802573
0.99784257
0.99765701
0.99746952
0.99728027
1.001452
1.0015099
1.0015694
1.0016278
1.0016858
1.0017424
1.0017998
1.0018534
1.001908
1.0019624
1.0020132
1.0020597
1.0021031
1.0021394
1.0021661
1.0021856
1.0021974
1.0021973
1.002183
1.002153
1.0021065
1.0020448
1.0019664
1.0018695
1.0017557
1.0016277
1.0014841
1.0013244
1.0011522
1.0009692
1.0007769
1.0005783
1.0003758
1.0001726
0.99996946
0.99976722
0.99956828
0.99937447
0.99918558
0.99900358
0.99882841
0.99865678
0.99848779
0.99832261
0.99815772
0.99799386
0.99782789
0.99765977
0.99748957
1.0013845
1.0014335
1.0014839
1.0015328
1.0015809
1.0016275
1.0016746
1.0017183
1.0017627
1.0018067
1.0018476
1.0018847
1.0019189
1.001947
1.0019667
1.0019799
1.0019861
1.0019815
1.0019644
1.0019332
1.0018872
1.0018272
1.001752
1.0016601
1.0015528
1.0014322
1.0012974
1.001148
1.0009871
1.0008164
1.0006372
1.0004522
1.0002634
1.0000739
0.99988409
0.99969508
0.99950876
0.99932675
0.99914893
0.99897684
0.99881039
0.99864719
0.99848618
0.99832832
0.99817067
0.9980137
0.99785482
0.99769387
0.99753051
1.0013276
1.0013672
1.0014083
1.0014482
1.0014875
1.0015254
1.0015638
1.0015993
1.0016354
1.001671
1.0017038
1.0017332
1.0017598
1.001781
1.0017947
1.0018026
1.0018039
1.0017955
1.0017758
1.0017434
1.0016975
1.0016389
1.0015664
1.0014789
1.0013772
1.0012633
1.0011363
1.0009962
1.0008457
1.0006863
1.0005192
1.0003469
1.0001712
0.99999484
0.99981846
0.99964294
0.99947003
0.9993012
0.99913637
0.99897692
0.99882287
0.99867219
0.99852397
0.99837904
0.99823479
0.99809161
0.99794713
0.99780113
0.99765338
1.0012636
1.0012968
1.0013316
1.001365
1.0013978
1.0014293
1.0014612
1.0014903
1.0015198
1.0015488
1.0015751
1.0015983
1.0016189
1.0016345
1.0016434
1.0016468
1.0016441
1.0016325
1.0016106
1.0015771
1.0015314
1.0014739
1.0014036
1.0013196
1.0012227
1.0011142
1.0009939
1.0008614
1.0007194
1.0005692
1.0004119
1.0002498
1.0000845
0.99991844
0.99975225
0.9995868
0.99942361
0.99926405
0.99910806
0.99895684
0.99881045
0.9986673
0.99852643
0.99838875
0.99825187
0.99811618
0.99797958
0.99784185
0.99770251
1.0012054
1.0012327
1.0012615
1.0012892
1.0013163
1.0013423
1.0013685
1.0013923
1.0014163
1.0014397
1.0014607
1.0014786
1.0014941
1.001505
1.0015098
1.0015094
1.0015033
1.001489
1.0014652
1.0014308
1.0013852
1.0013286
1.0012603
1.0011794
1.0010866
1.0009831
1.0008685
1.0007429
1.0006085
1.0004664
1.000318
1.0001651
1.0000094
0.9998529
0.99969637
0.99954061
0.99938707
0.99923701
0.9990904
0.99894835
0.99881103
0.99867706
0.99854554
0.99841745
0.99829051
0.99816519
0.99803952
0.99791334
0.99778623
1.0011467
1.0011696
1.0011938
1.001217
1.0012397
1.0012612
1.0012829
1.0013024
1.001322
1.0013409
1.0013574
1.0013711
1.0013823
1.0013893
1.0013907
1.0013872
1.0013782
1.0013616
1.0013362
1.0013011
1.0012555
1.0011999
1.0011333
1.0010551
1.0009659
1.0008666
1.0007571
1.0006375
1.0005097
1.0003749
1.0002341
1.0000892
0.99994162
0.99979334
0.99964496
0.9994973
0.99935169
0.99920932
0.99907014
0.99893521
0.9988047
0.99867748
0.99855269
0.99843135
0.99831133
0.99819315
0.99807503
0.99795683
0.99783803
1.0010921
1.001111
1.0011312
1.0011504
1.0011692
1.001187
1.0012048
1.0012206
1.0012364
1.0012514
1.0012641
1.0012742
1.0012819
1.0012855
1.001284
1.0012778
1.0012664
1.0012479
1.0012212
1.0011854
1.00114
1.0010852
1.0010202
1.0009445
1.0008585
1.0007631
1.0006582
1.0005439
1.0004221
1.0002937
1.0001599
1.0000222
0.99988213
0.99974138
0.99960058
0.99946054
0.99932253
0.99918765
0.99905589
0.99892824
0.99880495
0.99868502
0.99856764
0.99845392
0.99834178
0.99823184
0.9981224
0.9980134
0.99790437
1.0010392
1.0010548
1.0010718
1.0010878
1.0011034
1.0011181
1.0011327
1.0011454
1.001158
1.0011697
1.0011793
1.0011863
1.001191
1.0011918
1.0011878
1.0011793
1.0011659
1.0011458
1.001118
1.0010818
1.0010366
1.0009826
1.000919
1.0008455
1.0007625
1.0006706
1.0005699
1.0004605
1.000344
1.0002215
1.0000938
0.99996276
0.99982936
0.99969538
0.99956136
0.99942812
0.99929684
0.99916856
0.99904324
0.99892186
0.99880467
0.99869082
0.99857953
0.99847196
0.99836613
0.99826271
0.99816012
0.99805835
0.99795689
1.0009895
1.0010024
1.0010164
1.0010297
1.0010425
1.0010544
1.0010662
1.0010763
1.0010862
1.0010951
1.0011019
1.0011063
1.0011084
1.0011068
1.0011007
1.0010903
1.0010752
1.0010537
1.001025
1.0009885
1.0009436
1.0008903
1.0008281
1.0007567
1.0006764
1.0005878
1.0004908
1.0003859
1.0002744
1.0001572
1.0000353
0.99991022
0.99978302
0.99965532
0.99952764
0.99940078
0.99927586
0.99915388
0.99903482
0.9989196
0.99880851
0.99870079
0.99859575
0.99849453
0.99839526
0.99829864
0.9982032
0.99810898
0.99801546
1.0009421
1.0009527
1.0009643
1.0009752
1.0009857
1.0009953
1.0010047
1.0010126
1.00102
1.0010265
1.0010311
1.0010332
1.001033
1.0010294
1.0010215
1.0010095
1.0009929
1.0009703
1.0009409
1.0009042
1.0008596
1.0008071
1.0007463
1.0006768
1.000599
1.0005134
1.00042
1.0003192
1.0002122
1.0000999
0.99998335
0.99986381
0.99974233
0.99962043
0.9994986
0.99937763
0.99925859
0.99914241
0.99902906
0.99891945
0.99881385
0.99871161
0.99861207
0.9985164
0.99842281
0.99833201
0.99824265
0.9981548
0.99806792
1.0008975
1.0009061
1.0009156
1.0009244
1.0009328
1.0009404
1.0009478
1.0009536
1.0009591
1.0009635
1.000966
1.0009661
1.0009641
1.0009587
1.0009492
1.0009358
1.000918
1.0008945
1.0008646
1.0008277
1.0007835
1.0007318
1.0006723
1.0006047
1.0005292
1.0004465
1.0003564
1.0002594
1.0001567
1.000049
0.99993733
0.99982295
0.99970683
0.99959037
0.99947404
0.99935863
0.99924515
0.99913448
0.99902662
0.99892241
0.99882216
0.99872528
0.99863118
0.99854099
0.99845302
0.998368
0.99828465
0.99820309
0.99812279
1.0008552
1.000862
1.0008697
1.0008768
1.0008834
1.0008893
1.0008949
1.000899
1.0009026
1.0009052
1.000906
1.0009044
1.0009007
1.0008938
1.000883
1.0008684
1.0008496
1.0008253
1.0007951
1.0007582
1.0007143
1.0006635
1.0006052
1.0005394
1.0004662
1.0003861
1.0002992
1.0002058
1.000107
1.0000037
0.99989661
0.99978708
0.99967598
0.99956462
0.99945347
0.99934328
0.99923504
0.99912955
0.99902682
0.99892767
0.99883239
0.99874047
0.99865134
0.99856613
0.99848323
0.99840337
0.99832535
0.99824933
0.99817474
1.0008153
1.0008206
1.0008267
1.0008322
1.0008373
1.0008416
1.0008456
1.0008483
1.0008503
1.0008513
1.0008505
1.0008475
1.0008424
1.0008341
1.0008222
1.0008066
1.0007869
1.0007621
1.0007315
1.0006948
1.0006514
1.0006014
1.0005443
1.0004802
1.0004092
1.0003316
1.0002476
1.0001576
1.0000626
0.99996335
0.99986066
0.9997557
0.99964934
0.99954281
0.99943656
0.99933134
0.99922806
0.99912751
0.9990297
0.9989354
0.99884491
0.99875775
0.99867344
0.99859304
0.99851504
0.99844016
0.99836728
0.99829657
0.99822747
1.0007774
1.0007815
1.0007862
1.0007903
1.0007941
1.0007971
1.0007997
1.000801
1.0008017
1.0008013
1.0007991
1.0007949
1.0007885
1.0007791
1.0007662
1.0007498
1.0007294
1.0007041
1.0006734
1.0006367
1.0005939
1.0005447
1.0004889
1.0004265
1.0003575
1.0002824
1.0002012
1.0001144
1.000023
0.99992757
0.99982901
0.99972837
0.9996265
0.99952455
0.99942295
0.99932244
0.99922389
0.99912802
0.99903487
0.99894516
0.99885918
0.99877651
0.99869668
0.99862074
0.99854726
0.99847693
0.99840871
0.99834277
0.99827856
1.0007416
1.0007445
1.000748
1.000751
1.0007535
1.0007554
1.0007568
1.0007569
1.0007564
1.0007548
1.0007514
1.0007461
1.0007386
1.0007282
1.0007145
1.0006974
1.0006764
1.0006508
1.00062
1.0005836
1.0005413
1.000493
1.0004384
1.0003776
1.0003106
1.0002378
1.0001594
1.0000757
0.99998764
0.99989587
0.99980122
0.9997047
0.9996071
0.9995095
0.99941234
0.99931632
0.99922227
0.99913088
0.99904218
0.99895686
0.9988752
0.99879682
0.9987213
0.99864962
0.99858045
0.99851445
0.99845065
0.99838923
0.99832963
1.0007077
1.0007096
1.000712
1.0007139
1.0007154
1.0007162
1.0007166
1.0007157
1.0007141
1.0007114
1.000707
1.0007007
1.0006923
1.0006811
1.0006667
1.000649
1.0006275
1.0006017
1.0005709
1.0005348
1.000493
1.0004457
1.0003924
1.0003331
1.0002681
1.0001975
1.0001217
1.0000409
0.9999561
0.99986784
0.99977693
0.99968432
0.99959079
0.99949735
0.99940442
0.99931268
0.99922293
0.9991358
0.99905135
0.9989702
0.99889264
0.99881832
0.99874686
0.99867917
0.99861401
0.99855202
0.99849227
0.99843497
0.99837954
1.0006754
1.0006765
1.000678
1.000679
1.0006796
1.0006794
1.0006788
1.000677
1.0006745
1.0006709
1.0006656
1.0006584
1.0006492
1.0006373
1.0006223
1.0006041
1.0005824
1.0005564
1.0005257
1.0004899
1.0004488
1.0004023
1.0003502
1.0002925
1.0002294
1.000161
1.0000877
1.0000098
0.99992805
0.99984313
0.99975579
0.99966693
0.99957728
0.99948781
0.99939892
0.99931128
0.99922563
0.99914259
0.99906218
0.99898503
0.99891139
0.99884094
0.99877334
0.99870945
0.9986481
0.9985899
0.99853398
0.99848054
0.99842902
1.0006448
1.0006451
1.0006458
1.000646
1.0006457
1.0006448
1.0006433
1.0006408
1.0006374
1.000633
1.0006269
1.000619
1.0006091
1.0005966
1.0005811
1.0005625
1.0005406
1.0005145
1.0004839
1.0004486
1.0004081
1.0003626
1.0003117
1.0002555
1.0001942
1.000128
1.0000571
0.99998187
0.99990313
0.99982142
0.9997375
0.99965223
0.9995663
0.99948062
0.9993956
0.99931187
0.99923015
0.999151
0.99907446
0.99900112
0.9989312
0.99886443
0.99880048
0.99874016
0.99868238
0.9986277
0.99857532
0.99852543
0.99847748
1.0006156
1.0006153
1.0006152
1.0006147
1.0006137
1.0006121
1.0006099
1.0006066
1.0006026
1.0005974
1.0005907
1.0005821
1.0005716
1.0005586
1.0005427
1.0005239
1.0005018
1.0004757
1.0004454
1.0004105
1.0003707
1.0003261
1.0002765
1.0002218
1.0001622
1.0000981
1.0000295
0.99995694
0.99988106
0.99980244
0.9997218
0.99963996
0.99955759
0.99947554
0.99939423
0.99931425
0.99923628
0.99916085
0.99908801
0.99901829
0.99895193
0.99888866
0.99882819
0.99877125
0.99871684
0.99866549
0.99861643
0.99856987
0.99852524
1.0005877
1.0005868
1.0005862
1.000585
1.0005834
1.0005811
1.0005783
1.0005744
1.0005698
1.000564
1.0005566
1.0005475
1.0005365
1.0005231
1.000507
1.0004879
1.0004657
1.0004397
1.0004097
1.0003753
1.0003362
1.0002926
1.0002442
1.000191
1.0001332
1.0000711
1.0000047
0.9999347
0.99986158
0.99978593
0.99970844
0.99962989
0.99955093
0.99947237
0.9993946
0.9993182
0.99924381
0.99917194
0.99910262
0.99903637
0.99897339
0.99891344
0.99885626
0.99880251
0.99875128
0.99870303
0.99865707
0.99861358
0.998572
1.0005611
1.0005597
1.0005585
1.0005568
1.0005546
1.0005518
1.0005484
1.000544
1.0005388
1.0005325
1.0005246
1.0005151
1.0005037
1.0004899
1.0004736
1.0004544
1.0004322
1.0004063
1.0003766
1.0003427
1.0003045
1.0002618
1.0002146
1.0001628
1.0001068
1.0000466
0.9999825
0.99991492
0.99984446
0.99977166
0.9996972
0.99962181
0.99954611
0.99947089
0.99939651
0.99932354
0.99925258
0.9991841
0.99911815
0.9990552
0.99899544
0.99893865
0.99888459
0.99883387
0.99878563
0.99874031
0.99869724
0.99865663
0.9986179
1.0005355
1.0005337
1.0005321
1.0005299
1.0005273
1.000524
1.0005201
1.0005152
1.0005095
1.0005027
1.0004945
1.0004846
1.0004728
1.0004589
1.0004423
1.0004231
1.0004009
1.0003753
1.000346
1.0003126
1.0002751
1.0002335
1.0001874
1.0001372
1.0000828
1.0000245
0.99996258
0.99989737
0.99982948
0.99975943
0.99968788
0.99961552
0.99954296
0.99947093
0.9993998
0.99933011
0.99926242
0.99919718
0.99913444
0.99907463
0.99901793
0.99896414
0.99891303
0.99886516
0.99881973
0.99877715
0.99873679
0.99869884
0.99866274
1.000511
1.0005088
1.0005067
1.0005042
1.0005011
1.0004974
1.0004932
1.0004879
1.0004818
1.0004746
1.000466
1.0004558
1.0004438
1.0004297
1.0004131
1.0003939
1.0003718
1.0003464
1.0003175
1.0002848
1.0002481
1.0002074
1.0001626
1.0001137
1.000061
1.0000046
0.99994478
0.99988187
0.99981646
0.99974906
0.99968031
0.99961086
0.9995413
0.99947233
0.9994043
0.99933774
0.99927318
0.99921102
0.99915134
0.99909452
0.99904073
0.99898978
0.99894147
0.99889629
0.99885352
0.99881352
0.9987757
0.99874023
0.99870658
1.0004874
1.0004849
1.0004825
1.0004795
1.0004762
1.0004721
1.0004675
1.0004619
1.0004555
1.000448
1.0004392
1.0004287
1.0004165
1.0004023
1.0003856
1.0003665
1.0003446
1.0003195
1.0002911
1.000259
1.0002231
1.0001834
1.0001398
1.0000924
1.0000413
0.99998675
0.99992892
0.99986824
0.99980523
0.99974039
0.99967432
0.99960767
0.99954099
0.99947494
0.99940988
0.99934631
0.99928472
0.9992255
0.99916872
0.99911475
0.99906371
0.99901546
0.99896979
0.99892715
0.99888688
0.99884928
0.99881383
0.99878068
0.99874928
1.0004645
1.0004618
1.0004591
1.0004559
1.0004523
1.0004479
1.000443
1.0004372
1.0004305
1.0004228
1.0004137
1.0004031
1.0003908
1.0003764
1.0003598
1.0003408
1.0003192
1.0002945
1.0002665
1.0002351
1.0002
1.0001614
1.000119
1.000073
1.0000235
0.9999707
0.99991485
0.99985632
0.99979564
0.99973326
0.99966978
0.9996058
0.99954188
0.99947863
0.9994164
0.99935567
0.99929692
0.99924049
0.99918647
0.99913519
0.99908677
0.99904106
0.99899789
0.99895765
0.99891973
0.9988844
0.99885116
0.99882017
0.99879088
1.0004425
1.0004395
1.0004366
1.0004332
1.0004293
1.0004248
1.0004196
1.0004136
1.0004067
1.0003988
1.0003895
1.0003788
1.0003664
1.0003521
1.0003356
1.0003168
1.0002954
1.0002711
1.0002436
1.0002129
1.0001787
1.0001411
1.0000999
1.0000553
1.0000074
0.99995634
0.99990242
0.99984599
0.99978755
0.99972755
0.99966655
0.99960515
0.99954386
0.99948328
0.99942375
0.99936573
0.99930966
0.99925589
0.99920448
0.99915575
0.9991098
0.9990665
0.99902568
0.99898769
0.99895197
0.99891875
0.99888758
0.99885859
0.99883125
1.0004211
1.000418
1.0004149
1.0004113
1.0004072
1.0004025
1.0003972
1.000391
1.000384
1.0003759
1.0003666
1.0003558
1.0003434
1.0003292
1.0003128
1.0002942
1.0002731
1.0002492
1.0002224
1.0001924
1.000159
1.0001224
1.0000825
1.0000392
0.99999285
0.99994354
0.9998915
0.99983711
0.99978084
0.99972313
0.99966452
0.99960558
0.99954681
0.99948878
0.99943182
0.99937636
0.99932285
0.99927159
0.99922265
0.99917632
0.9991327
0.99909167
0.99905306
0.99901719
0.99898354
0.99895231
0.99892307
0.99889594
0.99887042
1.0004003
1.0003971
1.0003939
1.0003902
1.000386
1.0003811
1.0003757
1.0003694
1.0003623
1.0003541
1.0003448
1.000334
1.0003216
1.0003075
1.0002913
1.000273
1.0002522
1.0002288
1.0002026
1.0001733
1.0001409
1.0001053
1.0000665
1.0000247
0.99997982
0.99993219
0.99988199
0.99982958
0.9997754
0.9997199
0.99966358
0.999607
0.99955064
0.99949503
0.99944051
0.9993875
0.9993364
0.9992875
0.99924089
0.99919683
0.9991554
0.99911649
0.99907996
0.99904607
0.99901434
0.99898495
0.9989575
0.9989321
0.99890825
1.0003801
1.0003769
1.0003736
1.0003697
1.0003654
1.0003605
1.000355
1.0003487
1.0003415
1.0003333
1.000324
1.0003132
1.000301
1.000287
1.0002711
1.000253
1.0002327
1.0002098
1.0001842
1.0001556
1.0001241
1.0000896
1.000052
1.0000115
0.99996816
0.99992219
0.99987377
0.99982328
0.99977114
0.99971776
0.99966366
0.99960933
0.99955526
0.99950196
0.99944975
0.99939904
0.99935021
0.99930355
0.99925913
0.99921719
0.99917781
0.9991409
0.9991063
0.99907426
0.99904433
0.99901666
0.99899088
0.99896709
0.9989448
1.0003605
1.0003572
1.0003538
1.00035
1.0003456
1.0003407
1.0003352
1.0003288
1.0003216
1.0003135
1.0003042
1.0002935
1.0002814
1.0002676
1.0002519
1.0002342
1.0002143
1.000192
1.000167
1.0001393
1.0001087
1.0000752
1.0000388
0.99999964
0.99995778
0.99991343
0.99986676
0.99981814
0.99976797
0.99971664
0.99966465
0.99961249
0.9995606
0.99950949
0.99945947
0.99941093
0.99936424
0.99931966
0.99927729
0.99923733
0.99919987
0.9991648
0.99913201
0.99910168
0.99907341
0.99904733
0.99902308
0.99900075
0.99897987
1.0003414
1.0003381
1.0003347
1.0003308
1.0003265
1.0003215
1.000316
1.0003097
1.0003025
1.0002945
1.0002852
1.0002747
1.0002628
1.0002492
1.0002339
1.0002166
1.0001971
1.0001753
1.000151
1.0001241
1.0000944
1.000062
1.0000268
0.99998899
0.9999486
0.99990583
0.99986088
0.99981408
0.99976581
0.99971647
0.99966651
0.99961641
0.9995666
0.99951756
0.9994696
0.9994231
0.99937841
0.99933578
0.99929531
0.99925719
0.99922151
0.99918816
0.99915703
0.99912829
0.99910157
0.99907696
0.99905414
0.99903319
0.99901364
1.0003227
1.0003195
1.0003161
1.0003123
1.0003079
1.000303
1.0002976
1.0002913
1.0002842
1.0002762
1.0002672
1.0002568
1.0002451
1.0002318
1.0002168
1.0001999
1.000181
1.0001598
1.0001362
1.00011
1.0000813
1.00005
1.000016
0.99997947
0.99994053
0.99989932
0.99985605
0.99981102
0.9997646
0.99971717
0.99966916
0.99962103
0.99957321
0.99952613
0.99948011
0.99943551
0.99939268
0.99935186
0.99931315
0.99927673
0.99924267
0.9992109
0.99918129
0.999154
0.99912867
0.9991054
0.99908386
0.99906411
0.99904573
1.0003046
1.0003014
1.0002981
1.0002942
1.00029
1.0002852
1.0002798
1.0002736
1.0002666
1.0002588
1.0002499
1.0002397
1.0002283
1.0002153
1.0002007
1.0001842
1.0001658
1.0001452
1.0001223
1.0000971
1.0000693
1.000039
1.0000062
0.99997101
0.9999335
0.99989384
0.9998522
0.9998089
0.99976428
0.9997187
0.99967257
0.99962633
0.99958038
0.99953515
0.99949095
0.99944813
0.99940702
0.99936786
0.99933076
0.99929589
0.99926332
0.99923298
0.99920477
0.99917881
0.99915478
0.99913274
0.99911241
0.99909382
0.99907657
1.0002869
1.0002838
1.0002805
1.0002768
1.0002726
1.0002679
1.0002626
1.0002565
1.0002497
1.0002421
1.0002333
1.0002234
1.0002123
1.0001996
1.0001854
1.0001694
1.0001515
1.0001316
1.0001095
1.000085
1.0000582
1.000029
0.99999745
0.99996355
0.99992745
0.99988931
0.99984929
0.99980768
0.99976481
0.99972101
0.99967669
0.99963225
0.99958808
0.9995446
0.99950209
0.99946092
0.9994214
0.99938376
0.99934812
0.99931465
0.99928342
0.99925436
0.99922738
0.99920259
0.99917968
0.9991587
0.99913938
0.99912174
0.99910539
1.0002697
1.0002666
1.0002635
1.0002599
1.0002558
1.0002512
1.000246
1.0002401
1.0002335
1.000226
1.0002175
1.0002079
1.000197
1.0001848
1.0001709
1.0001555
1.0001382
1.0001189
1.0000975
1.0000739
1.0000481
1.00002
0.99998961
0.99995701
0.99992232
0.99988568
0.99984725
0.9998073
0.99976614
0.99972408
0.9996815
0.99963878
0.9995963
0.99955446
0.99951354
0.99947388
0.9994358
0.99939954
0.99936521
0.99933298
0.99930293
0.99927501
0.99924914
0.99922541
0.99920354
0.99918358
0.99916525
0.9991486
0.99913321
1.0002529
1.00025
1.0002469
1.0002434
1.0002395
1.000235
1.00023
1.0002243
1.0002179
1.0002106
1.0002024
1.000193
1.0001825
1.0001706
1.0001573
1.0001423
1.0001256
1.000107
1.0000864
1.0000637
1.0000389
1.0000119
0.99998266
0.99995136
0.99991807
0.99988291
0.99984605
0.99980773
0.99976823
0.99972786
0.99968696
0.99964591
0.99960504
0.99956474
0.99952529
0.99948702
0.99945025
0.9994152
0.99938202
0.99935087
0.99932184
0.99929488
0.99926993
0.99924705
0.999226
0.99920679
0.99918916
0.99917314
0.99915835
1.0002366
1.0002338
1.0002309
1.0002275
1.0002237
1.0002194
1.0002146
1.0002091
1.0002028
1.0001958
1.0001878
1.0001788
1.0001687
1.0001572
1.0001443
1.0001299
1.0001138
1.0000959
1.0000761
1.0000543
1.0000305
1.0000045
0.99997653
0.99994653
0.99991463
0.99988095
0.99984564
0.99980892
0.99977106
0.99973234
0.99969308
0.99965362
0.99961429
0.99957544
0.99953736
0.99950036
0.99946475
0.99943077
0.99939858
0.99936834
0.99934016
0.99931401
0.99928985
0.99926774
0.99924748
0.99922906
0.99921226
0.99919709
0.99918317
1.0002208
1.0002182
1.0002154
1.0002121
1.0002085
1.0002044
1.0001997
1.0001944
1.0001884
1.0001816
1.0001739
1.0001652
1.0001555
1.0001444
1.0001321
1.0001182
1.0001027
1.0000856
1.0000666
1.0000457
1.0000228
0.99999799
0.99997119
0.99994249
0.99991197
0.99987976
0.99984599
0.99981086
0.99977462
0.99973752
0.99969985
0.99966194
0.99962408
0.9995866
0.99954978
0.99951393
0.99947935
0.99944629
0.99941491
0.9993854
0.99935786
0.9993323
0.99930868
0.99928706
0.99926722
0.99924916
0.99923265
0.99921769
0.99920393
1.0002055
1.000203
1.0002003
1.0001972
1.0001937
1.0001898
1.0001853
1.0001802
1.0001745
1.000168
1.0001606
1.0001523
1.0001429
1.0001323
1.0001204
1.0001072
1.0000924
1.0000759
1.0000577
1.0000377
1.0000159
0.99999218
0.99996658
0.99993918
0.99991005
0.9998793
0.99984706
0.9998135
0.99977886
0.99974337
0.99970728
0.99967087
0.99963443
0.99959826
0.99956262
0.99952781
0.99949413
0.99946182
0.99943108
0.99940211
0.99937504
0.99934991
0.99932672
0.99930554
0.99928622
0.99926877
0.99925297
0.99923882
0.99922598
1.0001906
1.0001883
1.0001857
1.0001828
1.0001795
1.0001757
1.0001715
1.0001666
1.0001611
1.0001549
1.0001478
1.0001399
1.0001309
1.0001208
1.0001094
1.0000967
1.0000826
1.0000669
1.0000496
1.0000305
1.0000097
0.99998706
0.99996267
0.99993657
0.99990882
0.99987954
0.99984882
0.99981684
0.9997838
0.99974989
0.99971536
0.99968044
0.99964539
0.99961048
0.99957595
0.99954209
0.99950917
0.99947747
0.99944717
0.99941852
0.99939166
0.99936665
0.99934352
0.99932231
0.99930287
0.99928518
0.99926904
0.99925444
0.99924102
1.0001763
1.0001741
1.0001717
1.0001689
1.0001657
1.0001621
1.0001581
1.0001534
1.0001482
1.0001423
1.0001356
1.000128
1.0001194
1.0001098
1.000099
1.0000869
1.0000735
1.0000585
1.000042
1.0000239
1.0000041
0.99998259
0.99995942
0.99993462
0.99990827
0.99988045
0.99985126
0.99982086
0.99978941
0.9997571
0.99972412
0.99969068
0.99965701
0.99962333
0.99958986
0.99955686
0.9995246
0.99949336
0.99946334
0.99943481
0.99940796
0.99938291
0.99935976
0.99933862
0.99931943
0.99930221
0.99928681
0.99927317
0.99926102
1.0001624
1.0001603
1.0001581
1.0001554
1.0001524
1.000149
1.0001452
1.0001408
1.0001358
1.0001302
1.0001238
1.0001166
1.0001085
1.0000994
1.0000891
1.0000777
1.0000649
1.0000507
1.0000351
1.0000179
0.9999991
0.99997873
0.99995677
0.99993329
0.99990832
0.99988198
0.99985434
0.99982552
0.9997957
0.99976501
0.99973361
0.99970167
0.99966938
0.99963693
0.99960449
0.9995723
0.99954061
0.99950967
0.99947973
0.99945106
0.99942389
0.99939835
0.99937456
0.99935261
0.99933241
0.99931395
0.99929706
0.99928172
0.99926761
1.0001491
1.0001471
1.000145
1.0001425
1.0001396
1.0001364
1.0001327
1.0001286
1.0001238
1.0001185
1.0001125
1.0001057
1.000098
1.0000894
1.0000797
1.0000689
1.0000569
1.0000435
1.0000287
1.0000124
0.99999467
0.99997542
0.99995467
0.99993249
0.99990891
0.99988404
0.99985795
0.99983074
0.99980256
0.99977352
0.99974375
0.99971337
0.99968253
0.99965136
0.99961999
0.99958861
0.99955744
0.99952672
0.99949669
0.99946767
0.99943995
0.99941379
0.99938942
0.99936708
0.99934687
0.99932889
0.99931308
0.99929938
0.99928755
1.0001362
1.0001343
1.0001323
1.0001299
1.0001272
1.0001241
1.0001207
1.0001167
1.0001123
1.0001073
1.0001016
1.0000952
1.000088
1.0000799
1.0000708
1.0000607
1.0000493
1.0000367
1.0000228
1.0000075
0.99999077
0.99997265
0.99995314
0.99993229
0.99991012
0.99988674
0.99986218
0.99983657
0.99981004
0.99978265
0.99975452
0.99972574
0.99969641
0.99966658
0.99963636
0.99960585
0.99957523
0.9995447
0.99951449
0.99948488
0.99945619
0.99942867
0.99940256
0.99937807
0.99935524
0.99933411
0.99931459
0.99929671
0.99928016
1.0001239
1.0001221
1.0001201
1.0001178
1.0001152
1.0001123
1.000109
1.0001053
1.0001011
1.0000964
1.0000911
1.0000852
1.0000785
1.0000709
1.0000624
1.0000529
1.0000423
1.0000305
1.0000174
1.0000031
0.99998745
0.9999705
0.99995227
0.99993279
0.99991209
0.99989025
0.9998673
0.99984337
0.99981854
0.99979287
0.99976645
0.99973932
0.99971153
0.99968308
0.99965401
0.99962437
0.99959429
0.9995639
0.9995334
0.99950311
0.99947338
0.99944462
0.99941728
0.99939187
0.99936877
0.99934835
0.99933081
0.9993161
0.99930416
1.0001119
1.0001101
1.0001082
1.000106
1.0001035
1.0001008
1.0000977
1.0000942
1.0000903
1.0000859
1.000081
1.0000754
1.0000692
1.0000622
1.0000544
1.0000456
1.0000357
1.0000247
1.0000125
0.99999914
0.99998452
0.99996869
0.99995164
0.99993344
0.99991412
0.99989382
0.99987255
0.99985042
0.99982749
0.99980379
0.99977935
0.99975421
0.99972829
0.99970154
0.99967394
0.99964543
0.99961604
0.9995858
0.99955485
0.9995234
0.99949179
0.99946035
0.99942948
0.99939955
0.99937079
0.99934341
0.99931747
0.99929323
0.99927045
1.0001006
1.0000988
1.0000969
1.0000946
1.0000922
1.0000894
1.0000864
1.0000831
1.0000795
1.0000755
1.000071
1.000066
1.0000604
1.000054
1.0000468
1.0000387
1.0000296
1.0000193
1.0000079
0.99999531
0.99998159
0.99996669
0.99995066
0.99993353
0.99991538
0.99989637
0.99987649
0.99985591
0.99983466
0.99981274
0.99979034
0.99976729
0.99974359
0.99971904
0.99969358
0.99966699
0.9996392
0.99961007
0.99957959
0.99954785
0.99951513
0.99948187
0.99944875
0.99941679
0.99938709
0.99936071
0.99933862
0.99932107
0.99930837
1.0000891
1.0000871
1.0000851
1.0000829
1.0000806
1.0000781
1.0000755
1.0000726
1.0000695
1.000066
1.000062
1.0000576
1.0000524
1.0000466
1.00004
1.0000324
1.0000239
1.0000144
1.0000038
0.99999219
0.99997958
0.99996597
0.99995139
0.99993591
0.99991945
0.99990198
0.99988349
0.99986435
0.9998444
0.99982357
0.9998028
0.99978106
0.99975886
0.99973573
0.99971182
0.99968665
0.99966019
0.99963203
0.9996021
0.99957017
0.99953638
0.99950067
0.99946322
0.99942407
0.99938358
0.99934199
0.99930003
0.99925816
0.99921826
1.000079
1.0000771
1.0000751
1.0000729
1.0000705
1.000068
1.0000653
1.0000624
1.0000593
1.0000559
1.0000522
1.000048
1.0000433
1.0000381
1.0000323
1.0000258
1.0000184
1.0000102
1.000001
0.99999081
0.99998002
0.99996848
0.99995624
0.99994331
0.99992956
0.99991489
0.99989927
0.99988319
0.99986619
0.99984881
0.9998306
0.99981182
0.99979175
0.99977068
0.99974837
0.99972454
0.99969898
0.99967106
0.99964062
0.99960688
0.99957006
0.99952984
0.99948738
0.99944398
0.99940199
0.99936371
0.99933303
0.99930975
0.99929901
1.0000675
1.0000641
1.0000609
1.0000578
1.000055
1.0000525
1.0000502
1.000048
1.0000457
1.0000432
1.0000404
1.0000372
1.0000336
1.0000296
1.000025
1.0000197
1.0000134
1.0000059
0.99999696
0.99998713
0.99997664
0.99996525
0.99995298
0.99993979
0.99992599
0.99991207
0.99989796
0.99988395
0.99986954
0.99985788
0.99984165
0.99982945
0.99981388
0.99979969
0.99978292
0.99976612
0.99974665
0.9997258
0.99970152
0.99967433
0.9996422
0.99960476
0.99955782
0.99950278
0.99943654
0.99935669
0.99926375
0.99915698
0.99904936
1.0000557
1.0000534
1.0000514
1.0000506
1.00005
1.0000496
1.0000489
1.000048
1.0000468
1.0000452
1.000043
1.0000403
1.0000367
1.000032
1.0000261
1.000019
1.0000104
1.0000003
0.99998927
0.9999775
0.99996401
0.99994888
0.99993218
0.99991422