/*--------------------------------*- C++ -*----------------------------------*\
| =========                 |                                                 |
| \\      /  F ield         | OpenFOAM: The Open Source CFD Toolbox           |
|  \\    /   O peration     | Version:  v2006                                 |
|   \\  /    A nd           | Website:  www.openfoam.com                      |
|    \\/     M anipulation  |                                                 |
\*---------------------------------------------------------------------------*/
FoamFile
{
    version     2.0;
    format      ascii;
    class       volScalarField;
    location    "1500";
    object      rho;
}
// * * * * * * * * * * * * * * * * * * * * * * * * * * * * * * * * * * * * * //

dimensions      [1 -3 0 0 0 0 0];


internalField   nonuniform List<scalar> 
19765
(
1.0004475
1.0006766
1.0013496
1.0017657
1.0022
1.0025087
1.0028987
1.0030957
1.0033867
1.0036166
1.0037652
1.0038816
1.0039799
1.004027
1.0040372
1.0040222
1.0039855
1.0039229
1.0038349
1.0037206
1.0035731
1.0033944
1.0032069
1.002989
1.0027179
1.0024317
1.0021979
1.0019337
1.0015853
1.0012801
1.0009667
1.0005799
1.0001534
0.99955049
0.99906389
0.99874244
0.99833551
0.99765287
0.99720639
0.99673403
0.99588143
0.99509393
0.99503692
0.99429377
0.99430727
0.99400079
0.99412505
0.99432873
0.99463732
1.0012097
1.0013044
1.001435
1.0015968
1.0017709
1.0019391
1.0021222
1.0022717
1.0024366
1.0026041
1.0027437
1.0028588
1.0029704
1.0030479
1.0030914
1.0031259
1.0031423
1.0031278
1.003092
1.0030299
1.0029425
1.0028368
1.0027039
1.0025457
1.0023692
1.002176
1.0019554
1.0017133
1.0014548
1.0011761
1.0008798
1.0005693
1.0002446
0.99991741
0.99959633
0.99927326
0.99893778
0.99860403
0.99830057
0.99801421
0.99775468
0.99754897
0.99735066
0.99718125
0.99707342
0.99697834
0.99690686
0.99683962
0.9967698
1.0012172
1.0013583
1.0015169
1.0016697
1.0018216
1.0019623
1.0021024
1.0022179
1.0023358
1.002444
1.0025392
1.0026233
1.0027002
1.0027581
1.0027958
1.0028216
1.0028326
1.0028221
1.0027899
1.002735
1.0026566
1.0025565
1.0024342
1.0022888
1.0021236
1.0019407
1.0017367
1.0015131
1.0012742
1.0010185
1.0007492
1.0004715
1.0001899
0.99990904
0.99962299
0.99933326
0.99904928
0.99877355
0.9985033
0.99824777
0.99801136
0.99777894
0.99755375
0.99734214
0.99714916
0.99699791
0.99686198
0.99674406
0.99663286
1.0013735
1.0014611
1.0015529
1.0016513
1.0017529
1.0018545
1.0019579
1.0020511
1.0021467
1.0022398
1.0023226
1.0023958
1.0024633
1.0025153
1.0025494
1.0025741
1.0025875
1.0025821
1.0025572
1.0025115
1.0024459
1.0023649
1.0022655
1.002145
1.0020068
1.0018544
1.0016842
1.0014958
1.001294
1.0010786
1.0008519
1.0006191
1.0003827
1.0001478
0.99990952
0.99966976
0.99943724
0.99921602
0.99900022
0.99879989
0.99861962
0.99844489
0.99826997
0.9981165
0.99796285
0.99782296
0.99767882
0.9975381
0.9974027
1.0013052
1.0013871
1.0014709
1.0015532
1.001634
1.0017117
1.0017895
1.0018588
1.0019293
1.0019985
1.0020606
1.0021155
1.0021661
1.0022055
1.0022308
1.002248
1.0022566
1.0022503
1.0022273
1.0021864
1.0021264
1.0020504
1.0019563
1.0018419
1.001711
1.0015673
1.0014081
1.001232
1.0010437
1.0008444
1.0006354
1.0004208
1.0002025
0.99998521
0.99976715
0.99954939
0.9993365
0.99913166
0.99893169
0.99874167
0.99856292
0.99838775
0.99821197
0.99804851
0.99788277
0.99772491
0.99756827
0.99741619
0.99726702
1.0012947
1.001353
1.0014142
1.0014749
1.0015357
1.0015947
1.0016549
1.0017087
1.0017643
1.001819
1.0018681
1.0019113
1.001951
1.0019816
1.0020005
1.0020123
1.0020165
1.0020077
1.0019846
1.0019459
1.0018909
1.0018225
1.001739
1.0016381
1.0015226
1.0013956
1.0012549
1.0010999
1.0009345
1.0007598
1.0005772
1.0003901
1.0002006
1.0000123
0.999824
0.9996368
0.99945441
0.99927908
0.99910883
0.99894736
0.99879545
0.99864671
0.99849969
0.99836003
0.99821965
0.99808275
0.99794398
0.99780365
0.99766442
1.0012294
1.0012792
1.0013312
1.0013811
1.00143
1.0014766
1.001524
1.001566
1.0016094
1.001652
1.0016901
1.0017234
1.0017538
1.0017767
1.0017899
1.001797
1.0017974
1.0017865
1.0017631
1.0017259
1.0016741
1.0016096
1.0015311
1.0014367
1.0013287
1.0012098
1.0010785
1.0009342
1.0007803
1.0006181
1.0004487
1.0002751
1.0000989
0.99992337
0.99974809
0.9995739
0.99940336
0.99923849
0.99907781
0.99892372
0.99877649
0.99863229
0.99848881
0.99835063
0.99821126
0.99807407
0.99793491
0.9977949
0.99765389
1.0011827
1.0012211
1.0012622
1.0013014
1.0013401
1.001377
1.0014147
1.0014478
1.0014822
1.0015158
1.0015456
1.0015713
1.0015943
1.0016109
1.0016192
1.001622
1.0016186
1.0016053
1.0015809
1.0015443
1.0014949
1.001434
1.0013606
1.0012734
1.0011738
1.0010643
1.0009438
1.0008117
1.0006713
1.0005235
1.0003697
1.0002123
1.0000529
0.99989435
0.99973634
0.99957969
0.99942655
0.99927858
0.99913466
0.99899677
0.9988652
0.99873654
0.9986094
0.9984866
0.99836343
0.99824186
0.99811849
0.99799382
0.99786799
1.0011209
1.001153
1.0011873
1.0012197
1.0012514
1.0012812
1.0013116
1.0013381
1.0013655
1.0013921
1.0014154
1.0014351
1.0014523
1.0014639
1.0014683
1.0014677
1.0014614
1.0014462
1.0014211
1.001385
1.0013373
1.0012791
1.0012093
1.0011269
1.0010333
1.0009303
1.0008171
1.0006936
1.0005622
1.0004242
1.0002805
1.0001335
0.99998431
0.99983563
0.99968733
0.99954014
0.99939578
0.99925574
0.99911914
0.9989875
0.99886097
0.99873728
0.9986147
0.99849586
0.99837662
0.9982587
0.99813923
0.99801857
0.99789631
1.0010677
1.0010933
1.0011212
1.0011474
1.001173
1.001197
1.0012215
1.0012426
1.0012644
1.0012854
1.0013034
1.0013182
1.0013305
1.001338
1.001339
1.0013353
1.0013264
1.0013094
1.0012835
1.0012476
1.0012013
1.0011453
1.0010788
1.0010009
1.0009127
1.0008159
1.0007097
1.0005942
1.0004718
1.0003432
1.0002096
1.000073
0.99993469
0.99979683
0.99965949
0.99952336
0.99938997
0.99926066
0.99913468
0.9990134
0.99889702
0.99878352
0.99867155
0.99856319
0.99845496
0.99834818
0.99824033
0.99813162
0.99802188
1.0010114
1.0010326
1.0010559
1.0010775
1.0010987
1.0011182
1.0011382
1.001155
1.0011724
1.001189
1.0012028
1.0012136
1.0012222
1.0012262
1.0012245
1.0012184
1.0012074
1.001189
1.0011624
1.0011268
1.0010816
1.0010275
1.0009636
1.0008894
1.0008056
1.0007138
1.0006133
1.0005044
1.0003889
1.0002678
1.0001421
1.0000136
0.99988332
0.99975333
0.99962371
0.99949513
0.9993689
0.99924625
0.99912655
0.99901097
0.99889969
0.99879122
0.99868411
0.99858044
0.99847699
0.99837504
0.99827235
0.9981691
0.99806474
1.0009603
1.0009775
1.0009966
1.0010142
1.0010315
1.0010473
1.0010634
1.0010767
1.0010904
1.0011033
1.0011136
1.0011211
1.0011264
1.0011276
1.0011236
1.0011154
1.0011026
1.001083
1.0010559
1.0010204
1.0009762
1.0009237
1.0008621
1.0007912
1.0007114
1.000624
1.0005288
1.0004257
1.0003166
1.0002024
1.000084
0.99996303
0.99984046
0.99971818
0.99959632
0.99947553
0.99935703
0.99924194
0.99912974
0.99902151
0.99891747
0.99881631
0.99871676
0.99862071
0.99852526
0.99843156
0.99833756
0.99824343
0.99814876
1.00091
1.0009241
1.00094
1.0009546
1.0009687
1.0009815
1.0009945
1.0010051
1.0010158
1.0010256
1.001033
1.0010378
1.0010405
1.0010394
1.0010334
1.0010235
1.0010092
1.0009886
1.0009611
1.0009258
1.0008825
1.0008315
1.000772
1.0007038
1.0006275
1.0005441
1.0004533
1.0003554
1.0002519
1.0001436
1.0000314
0.99991679
0.99980071
0.99968482
0.99956929
0.99945475
0.99934228
0.99923295
0.99912628
0.99902324
0.99892408
0.99882774
0.99873297
0.99864165
0.99855105
0.99846234
0.99837363
0.99828512
0.9981962
1.0008633
1.0008748
1.0008879
1.0008997
1.0009112
1.0009215
1.0009318
1.0009399
1.0009481
1.0009553
1.0009604
1.0009629
1.0009634
1.0009602
1.0009526
1.0009413
1.0009258
1.0009043
1.0008765
1.0008415
1.0007989
1.0007492
1.0006916
1.000626
1.0005528
1.0004729
1.0003862
1.0002929
1.0001945
1.0000915
0.99998502
0.99987633
0.99976625
0.99965638
0.99954688
0.99943839
0.99933193
0.99922848
0.99912764
0.99903033
0.99893681
0.99884617
0.99875727
0.9986719
0.9985875
0.99850523
0.99842331
0.99834197
0.99826066
1.0008187
1.000828
1.0008388
1.0008484
1.0008577
1.0008659
1.0008741
1.0008802
1.0008862
1.0008913
1.0008943
1.0008949
1.0008935
1.0008887
1.0008797
1.0008672
1.0008506
1.0008286
1.0008005
1.0007658
1.000724
1.0006755
1.0006197
1.0005563
1.000486
1.0004093
1.0003263
1.0002371
1.0001432
1.0000451
0.99994368
0.99984025
0.99973554
0.99963102
0.99952685
0.99942367
0.99932241
0.99922399
0.99912806
0.99903546
0.99894647
0.99886031
0.99877591
0.99869501
0.99861522
0.99853768
0.99846073
0.99838465
0.99830878
1.000777
1.0007844
1.0007932
1.0008009
1.0008083
1.0008147
1.000821
1.0008253
1.0008296
1.0008328
1.000834
1.000833
1.00083
1.0008238
1.0008137
1.0008002
1.0007828
1.0007602
1.000732
1.0006975
1.0006565
1.0006092
1.000555
1.0004938
1.000426
1.0003523
1.0002726
1.0001873
1.0000975
1.0000038
0.99990713
0.99980856
0.99970883
0.9996093
0.99951015
0.99941199
0.99931573
0.99922223
0.99913116
0.99904336
0.99895908
0.99887766
0.99879812
0.99872212
0.99864742
0.99857512
0.99850369
0.99843342
0.99836367
1.0007375
1.0007434
1.0007505
1.0007566
1.0007624
1.0007672
1.0007719
1.0007748
1.0007774
1.0007791
1.0007788
1.0007764
1.0007721
1.0007647
1.0007536
1.0007393
1.0007212
1.0006982
1.0006699
1.0006358
1.0005955
1.0005493
1.0004966
1.0004374
1.000372
1.000301
1.0002245
1.0001427
1.0000567
0.99996715
0.99987476
0.99978066
0.99968551
0.99959057
0.99949603
0.9994025
0.9993108
0.99922176
0.99913509
0.99905155
0.99897142
0.99889411
0.99881871
0.99874683
0.99867635
0.99860837
0.99854143
0.99847587
0.99841099
1.0007004
1.000705
1.0007106
1.0007153
1.0007197
1.0007232
1.0007265
1.0007281
1.0007294
1.0007297
1.0007282
1.0007246
1.000719
1.0007106
1.0006988
1.0006837
1.0006651
1.0006419
1.0006136
1.0005798
1.0005403
1.0004951
1.0004438
1.0003865
1.0003233
1.0002549
1.0001813
1.0001028
1.0000203
0.99993458
0.99984621
0.99975628
0.99966541
0.99957478
0.99948459
0.99939542
0.99930808
0.99922332
0.9991409
0.99906154
0.99898551
0.99891232
0.99884111
0.99877342
0.99870726
0.99864369
0.99858135
0.99852061
0.99846073
1.0006654
1.0006688
1.0006732
1.0006767
1.0006799
1.0006822
1.0006843
1.0006849
1.000685
1.0006841
1.0006815
1.0006768
1.0006703
1.0006611
1.0006485
1.0006329
1.0006138
1.0005904
1.0005622
1.0005289
1.00049
1.0004459
1.000396
1.0003404
1.0002794
1.0002133
1.0001425
1.000067
0.99998789
0.99990568
0.99982108
0.99973504
0.99964819
0.99956159
0.99947548
0.99939041
0.99930714
0.99922639
0.99914792
0.99907243
0.99900018
0.99893074
0.9988633
0.99879934
0.99873699
0.99867728
0.99861892
0.99856231
0.99850667
1.0006325
1.0006349
1.0006382
1.0006407
1.0006428
1.0006441
1.0006451
1.0006447
1.0006439
1.0006419
1.0006383
1.0006328
1.0006255
1.0006155
1.0006023
1.0005863
1.0005669
1.0005433
1.0005153
1.0004823
1.0004442
1.0004011
1.0003526
1.0002986
1.0002396
1.0001758
1.0001075
1.0000349
0.99995897
0.9998801
0.99979903
0.99971667
0.9996336
0.99955082
0.99946857
0.99938739
0.999308
0.99923107
0.99915639
0.99908464
0.99901606
0.99895026
0.99888651
0.99882621
0.99876761
0.99871168
0.99865724
0.99860465
0.99855318
1.0006014
1.000603
1.0006053
1.0006068
1.0006081
1.0006085
1.0006086
1.0006074
1.0006056
1.0006028
1.0005984
1.0005921
1.000584
1.0005734
1.0005598
1.0005434
1.0005237
1.0005002
1.0004723
1.0004398
1.0004024
1.0003603
1.000313
1.0002607
1.0002035
1.000142
1.0000761
1.0000062
0.99993321
0.9998575
0.99977978
0.99970089
0.99962139
0.99954223
0.99946363
0.99938613
0.99931042
0.99923711
0.99916602
0.99909779
0.99903265
0.99897025
0.99890992
0.99885298
0.99879778
0.99874527
0.99869431
0.99864531
0.99859748
1.000572
1.0005729
1.0005744
1.0005751
1.0005756
1.0005752
1.0005745
1.0005725
1.00057
1.0005664
1.0005613
1.0005544
1.0005457
1.0005345
1.0005205
1.0005038
1.000484
1.0004605
1.0004328
1.0004008
1.0003642
1.000323
1.000277
1.0002262
1.0001709
1.0001113
1.0000478
0.99998052
0.99991031
0.9998376
0.99976305
0.99968745
0.99961134
0.99953562
0.9994605
0.99938651
0.9993143
0.99924444
0.99917679
0.99911193
0.99905009
0.99899096
0.99893393
0.99888021
0.9988283
0.99877907
0.99873147
0.99868588
0.99864154
1.0005443
1.0005445
1.0005452
1.0005453
1.000545
1.000544
1.0005426
1.00054
1.0005368
1.0005325
1.0005268
1.0005193
1.00051
1.0004985
1.0004842
1.0004673
1.0004474
1.0004239
1.0003965
1.000365
1.0003291
1.0002889
1.0002441
1.0001948
1.0001412
1.0000837
1.0000223
0.99995754
0.99989
0.99982014
0.9997486
0.99967613
0.99960325
0.99953079
0.99945899
0.99938834
0.99931947
0.9992529
0.99918851
0.99912685
0.99906814
0.99901209
0.99895815
0.99890744
0.99885857
0.99881234
0.99876779
0.99872529
0.99868407
1.000518
1.0005176
1.0005177
1.0005172
1.0005163
1.0005147
1.0005127
1.0005095
1.0005057
1.0005009
1.0004946
1.0004866
1.0004769
1.000465
1.0004505
1.0004334
1.0004135
1.0003901
1.0003631
1.0003321
1.0002969
1.0002576
1.000214
1.0001662
1.0001143
1.0000586
0.99999944
0.99993702
0.99987202
0.99980489
0.99973622
0.99966673
0.99959692
0.99952759
0.99945894
0.99939149
0.99932579
0.99926237
0.9992011
0.9991425
0.99908678
0.99903367
0.99898268
0.99893484
0.99888886
0.9988455
0.99880384
0.99876426
0.99872597
1.000493
1.0004922
1.0004918
1.0004907
1.0004893
1.0004872
1.0004846
1.0004809
1.0004766
1.0004713
1.0004645
1.0004561
1.0004461
1.0004339
1.0004192
1.000402
1.0003821
1.0003589
1.0003322
1.0003017
1.0002673
1.000229
1.0001866
1.0001401
1.0000898
1.000036
0.99997889
0.99991872
0.99985617
0.99979163
0.9997257
0.99965906
0.99959219
0.99952583
0.99946021
0.9993958
0.99933314
0.99927271
0.99921442
0.99915873
0.99910584
0.99905553
0.99900731
0.99896217
0.99891888
0.99887817
0.99883917
0.99880226
0.99876664
1.0004693
1.0004681
1.0004672
1.0004656
1.0004638
1.0004612
1.0004582
1.0004541
1.0004493
1.0004435
1.0004364
1.0004276
1.0004173
1.0004049
1.0003901
1.0003729
1.000353
1.00033
1.0003037
1.0002738
1.0002401
1.0002027
1.0001614
1.0001164
1.0000677
1.0000156
0.99996045
0.99990246
0.99984224
0.99978019
0.99971689
0.99965297
0.9995889
0.99952538
0.99946265
0.99940114
0.99934138
0.99928381
0.99922836
0.99917545
0.99912526
0.9990776
0.99903204
0.99898945
0.99894872
0.99891051
0.99887402
0.99883962
0.9988065
1.0004468
1.0004451
1.0004438
1.0004419
1.0004396
1.0004366
1.0004332
1.0004287
1.0004236
1.0004175
1.00041
1.000401
1.0003904
1.0003778
1.0003629
1.0003457
1.000326
1.0003033
1.0002773
1.000248
1.000215
1.0001786
1.0001384
1.0000947
1.0000475
0.99999722
0.99994394
0.99988804
0.99983006
0.9997704
0.99970961
0.99964829
0.9995869
0.9995261
0.99946612
0.99940739
0.99935041
0.99929556
0.99924281
0.99919254
0.99914493
0.99909979
0.99905672
0.99901653
0.9989782
0.99894233
0.99890816
0.99887606
0.99884522
1.0004252
1.0004233
1.0004216
1.0004193
1.0004167
1.0004134
1.0004096
1.0004048
1.0003994
1.0003929
1.0003852
1.0003759
1.0003652
1.0003525
1.0003376
1.0003205
1.0003009
1.0002784
1.0002529
1.0002241
1.000192
1.0001564
1.0001174
1.000075
1.0000293
0.99998063
0.99992919
0.9998753
0.99981948
0.99976211
0.99970372
0.99964489
0.99958607
0.99952787
0.99947052
0.99941444
0.99936009
0.99930785
0.99925767
0.99920992
0.99916476
0.99912201
0.99908131
0.9990434
0.99900733
0.99897366
0.99894168
0.99891173
0.99888303
1.0004046
1.0004024
1.0004004
1.0003979
1.0003949
1.0003913
1.0003873
1.0003822
1.0003765
1.0003698
1.0003618
1.0003524
1.0003415
1.0003288
1.0003139
1.0002969
1.0002775
1.0002553
1.0002303
1.0002021
1.0001707
1.0001361
1.0000981
1.000057
1.0000128
0.99996572
0.99991605
0.9998641
0.99981035
0.99975518
0.9996991
0.99964266
0.99958629
0.99953057
0.99947573
0.99942218
0.99937035
0.99932059
0.99927285
0.9992275
0.99918465
0.99914417
0.99910571
0.99906994
0.999036
0.99900438
0.99897443
0.99894647
0.99891974
1.0003849
1.0003825
1.0003802
1.0003774
1.0003742
1.0003704
1.0003661
1.0003608
1.0003549
1.0003479
1.0003398
1.0003303
1.0003193
1.0003065
1.0002917
1.0002748
1.0002557
1.0002339
1.0002093
1.0001817
1.0001511
1.0001174
1.0000805
1.0000406
0.9999978
0.99995233
0.99990439
0.99985431
0.99980255
0.99974949
0.99969562
0.99964147
0.99958744
0.99953409
0.99948166
0.99943052
0.99938108
0.99933367
0.99928827
0.99924518
0.99920454
0.9991662
0.99912986
0.99909612
0.99906418
0.99903449
0.99900644
0.99898035
0.99895545
1.000366
1.0003634
1.0003609
1.0003579
1.0003545
1.0003504
1.0003459
1.0003405
1.0003343
1.0003273
1.000319
1.0003094
1.0002984
1.0002856
1.0002709
1.0002542
1.0002353
1.0002139
1.0001898
1.0001628
1.000133
1.0001002
1.0000644
1.0000257
0.99998431
0.99994036
0.99989408
0.99984581
0.99979598
0.99974495
0.9996932
0.99964123
0.99958944
0.99953836
0.99948821
0.99943936
0.9993922
0.99934703
0.99930383
0.9992629
0.99922434
0.99918803
0.99915369
0.99912185
0.99909179
0.9990639
0.99903762
0.99901326
0.99899005
1.0003477
1.000345
1.0003423
1.0003391
1.0003356
1.0003314
1.0003267
1.0003211
1.0003149
1.0003077
1.0002993
1.0002897
1.0002787
1.000266
1.0002514
1.0002349
1.0002163
1.0001953
1.0001717
1.0001454
1.0001163
1.0000844
1.0000497
1.0000122
0.99997215
0.99992969
0.99988503
0.9998385
0.99979051
0.99974144
0.99969172
0.99964184
0.99959219
0.99954326
0.99949529
0.99944862
0.99940362
0.99936057
0.99931947
0.99928057
0.99924399
0.99920959
0.99917713
0.99914709
0.99911879
0.99909259
0.99906798
0.99904522
0.99902359
1.0003302
1.0003273
1.0003245
1.0003212
1.0003175
1.0003132
1.0003084
1.0003027
1.0002964
1.0002891
1.0002807
1.0002711
1.0002601
1.0002475
1.0002331
1.0002169
1.0001985
1.0001779
1.0001549
1.0001292
1.0001009
1.0000699
1.0000363
0.99999999
0.99996123
0.99992021
0.99987712
0.99983228
0.99978608
0.99973888
0.99969111
0.99964323
0.99959562
0.99954875
0.99950284
0.99945824
0.99941528
0.99937424
0.99933511
0.99929814
0.99926341
0.99923082
0.99920013
0.99917176
0.99914511
0.99912049
0.99909742
0.99907615
0.99905596
1.0003132
1.0003102
1.0003073
1.0003039
1.0003001
1.0002957
1.0002908
1.0002851
1.0002787
1.0002714
1.000263
1.0002534
1.0002425
1.0002301
1.0002159
1.0001999
1.0001819
1.0001618
1.0001393
1.0001143
1.0000867
1.0000567
1.000024
0.99998892
0.99995146
0.99991185
0.99987028
0.99982707
0.99978259
0.99973719
0.99969129
0.99964532
0.99959965
0.99955473
0.99951078
0.99946813
0.99942711
0.99938796
0.99935069
0.99931553
0.99928255
0.99925165
0.99922262
0.99919583
0.99917072
0.99914759
0.99912595
0.99910607
0.99908724
1.0002967
1.0002937
1.0002908
1.0002873
1.0002834
1.000279
1.0002741
1.0002683
1.0002619
1.0002546
1.0002463
1.0002367
1.0002259
1.0002137
1.0001997
1.000184
1.0001664
1.0001467
1.0001247
1.0001004
1.0000737
1.0000445
1.0000129
0.99997895
0.99994275
0.99990451
0.99986443
0.99982279
0.99977998
0.99973631
0.99969219
0.99964805
0.99960423
0.99956116
0.99951907
0.99947826
0.99943905
0.99940168
0.99936616
0.99933269
0.99930135
0.99927204
0.99924456
0.99921924
0.99919557
0.9991738
0.99915349
0.99913489
0.9991173
1.0002808
1.0002778
1.0002748
1.0002713
1.0002674
1.0002629
1.000258
1.0002522
1.0002458
1.0002386
1.0002303
1.0002209
1.0002102
1.0001981
1.0001844
1.0001691
1.0001519
1.0001326
1.0001113
1.0000876
1.0000617
1.0000334
1.0000028
0.99996999
0.99993503
0.99989814
0.99985949
0.99981939
0.99977818
0.99973617
0.99969377
0.99965136
0.9996093
0.99956798
0.99952763
0.99948856
0.99945106
0.99941536
0.99938147
0.99934959
0.99931977
0.99929194
0.99926591
0.99924196
0.99921963
0.99919914
0.99918008
0.99916267
0.99914624
1.0002653
1.0002623
1.0002593
1.0002558
1.0002519
1.0002475
1.0002425
1.0002368
1.0002305
1.0002233
1.0002151
1.0002058
1.0001954
1.0001835
1.0001701
1.0001551
1.0001383
1.0001195
1.0000988
1.0000758
1.0000507
1.0000233
0.99999371
0.99996198
0.99992824
0.99989266
0.99985542
0.99981679
0.99977713
0.99973672
0.99969596
0.99965521
0.99961481
0.99957514
0.99953644
0.99949899
0.99946309
0.99942894
0.99939658
0.99936617
0.99933778
0.99931132
0.99928662
0.99926394
0.99924285
0.99922353
0.9992056
0.99918927
0.99917388
1.0002503
1.0002473
1.0002443
1.0002409
1.000237
1.0002326
1.0002277
1.0002221
1.0002158
1.0002087
1.0002007
1.0001915
1.0001813
1.0001696
1.0001565
1.0001419
1.0001255
1.0001073
1.0000871
1.0000649
1.0000405
1.0000141
0.99998548
0.99995486
0.99992231
0.99988802
0.99985214
0.99981496
0.99977679
0.99973792
0.99969872
0.99965955
0.99962072
0.99958261
0.99954545
0.99950953
0.99947511
0.99944241
0.99941146
0.99938242
0.99935534
0.99933015
0.9993067
0.99928519
0.99926525
0.99924702
0.99923016
0.99921484
0.99920045
1.0002358
1.0002328
1.0002299
1.0002264
1.0002226
1.0002183
1.0002134
1.0002079
1.0002017
1.0001948
1.0001869
1.0001779
1.0001679
1.0001565
1.0001438
1.0001295
1.0001136
1.0000959
1.0000764
1.0000548
1.0000313
1.0000057
0.9999781
0.99994857
0.9999172
0.99988416
0.99984962
0.99981384
0.99977711
0.99973973
0.99970203
0.99966435
0.99962701
0.99959037
0.99955465
0.99952014
0.9994871
0.99945574
0.99942609
0.99939831
0.99937244
0.99934842
0.99932609
0.99930565
0.99928674
0.99926948
0.99925355
0.99923912
0.99922558
1.0002216
1.0002188
1.0002158
1.0002125
1.0002087
1.0002045
1.0001997
1.0001943
1.0001883
1.0001814
1.0001737
1.000165
1.0001552
1.0001441
1.0001317
1.0001179
1.0001024
1.0000853
1.0000664
1.0000455
1.0000228
0.99999811
0.99997151
0.99994305
0.99991285
0.99988105
0.99984781
0.99981339
0.99977807
0.99974211
0.99970585
0.99966959
0.99963365
0.99959838
0.99956401
0.99953082
0.99949907
0.99946894
0.99944048
0.99941385
0.99938908
0.99936611
0.99934482
0.99932535
0.9993074
0.99929105
0.99927602
0.99926244
0.99924976
1.0002079
1.0002051
1.0002023
1.000199
1.0001953
1.0001912
1.0001865
1.0001813
1.0001753
1.0001687
1.0001612
1.0001527
1.0001431
1.0001324
1.0001204
1.0001069
1.000092
1.0000754
1.0000571
1.000037
1.0000151
0.99999128
0.99996566
0.99993828
0.99990922
0.99987864
0.99984668
0.99981358
0.99977963
0.99974505
0.99971015
0.99967525
0.99964063
0.99960666
0.99957355
0.99954158
0.999511
0.999482
0.99945462
0.99942902
0.99940523
0.99938319
0.9993628
0.99934417
0.99932703
0.99931144
0.99929713
0.99928422
0.99927217
1.0001947
1.000192
1.0001892
1.000186
1.0001824
1.0001784
1.0001739
1.0001687
1.000163
1.0001565
1.0001492
1.000141
1.0001317
1.0001213
1.0001096
1.0000967
1.0000822
1.0000662
1.0000485
1.0000292
1.000008
0.99998515
0.99996051
0.9999342
0.99990627
0.99987689
0.99984619
0.99981439
0.99978176
0.99974851
0.99971493
0.99968131
0.99964796
0.9996152
0.99958327
0.99955243
0.99952293
0.99949494
0.99946852
0.99944382
0.99942088
0.99939966
0.99938007
0.9993622
0.99934582
0.99933096
0.99931739
0.9993052
0.9992939
1.0001819
1.0001793
1.0001766
1.0001735
1.00017
1.0001661
1.0001617
1.0001568
1.0001512
1.0001449
1.0001378
1.0001298
1.0001208
1.0001108
1.0000995
1.000087
1.0000731
1.0000576
1.0000406
1.000022
1.0000017
0.99997969
0.99995603
0.99993077
0.99990397
0.99987578
0.99984631
0.99981579
0.99978445
0.99975249
0.99972018
0.99968779
0.99965564
0.99962403
0.9995932
0.9995634
0.99953487
0.99950777
0.99948218
0.99945824
0.99943601
0.99941545
0.99939647
0.99937918
0.99936333
0.99934897
0.99933584
0.99932405
0.99931309
1.0001695
1.000167
1.0001644
1.0001614
1.0001581
1.0001543
1.0001501
1.0001453
1.0001399
1.0001338
1.0001269
1.0001192
1.0001105
1.0001008
1.00009
1.0000779
1.0000645
1.0000497
1.0000334
1.0000154
0.99999595
0.99997486
0.99995217
0.99992796
0.99990229
0.99987527
0.99984702
0.99981776
0.99978769
0.99975698
0.99972589
0.99969469
0.99966369
0.99963318
0.99960339
0.99957453
0.99954685
0.99952051
0.9994956
0.99947227
0.99945059
0.99943055
0.99941209
0.99939531
0.99938
0.9993662
0.99935368
0.99934253
0.99933227
1.0001575
1.0001552
1.0001527
1.0001499
1.0001467
1.000143
1.0001389
1.0001343
1.0001291
1.0001232
1.0001166
1.0001091
1.0001008
1.0000914
1.000081
1.0000694
1.0000565
1.0000423
1.0000266
1.0000095
0.99999081
0.99997061
0.99994891
0.99992575
0.99990118
0.99987533
0.9998483
0.99982028
0.99979146
0.99976198
0.99973208
0.99970204
0.99967216
0.9996427
0.99961387
0.99958586
0.9995589
0.99953317
0.99950877
0.99948587
0.99946455
0.99944482
0.99942665
0.9994101
0.99939498
0.9993813
0.99936885
0.99935771
0.99934739
1.000146
1.0001438
1.0001414
1.0001387
1.0001357
1.0001322
1.0001283
1.0001238
1.0001188
1.0001131
1.0001068
1.0000996
1.0000916
1.0000826
1.0000725
1.0000614
1.0000491
1.0000355
1.0000205
1.0000041
0.99998622
0.99996693
0.9999462
0.99992409
0.99990063
0.99987595
0.99985012
0.99982334
0.99979575
0.99976748
0.99973875
0.99970987
0.99968109
0.99965265
0.9996247
0.99959744
0.99957106
0.99954577
0.99952171
0.99949905
0.99947793
0.99945839
0.99944041
0.9994241
0.99940931
0.99939607
0.99938418
0.99937369
0.99936418
1.0001349
1.0001328
1.0001305
1.000128
1.0001251
1.0001217
1.000118
1.0001138
1.000109
1.0001035
1.0000974
1.0000905
1.0000828
1.0000742
1.0000646
1.0000539
1.0000421
1.0000291
1.0000148
0.99999918
0.99998216
0.99996377
0.99994402
0.99992296
0.99990062
0.99987709
0.99985247
0.99982692
0.99980056
0.99977348
0.99974594
0.99971822
0.99969053
0.99966307
0.99963593
0.9996093
0.99958336
0.99955836
0.99953444
0.99951184
0.99949068
0.99947105
0.99945293
0.9994364
0.99942132
0.99940767
0.99939527
0.99938416
0.99937389
1.0001241
1.0001221
1.00012
1.0001176
1.0001148
1.0001117
1.0001081
1.0001041
1.0000995
1.0000944
1.0000885
1.000082
1.0000746
1.0000663
1.0000571
1.0000469
1.0000357
1.0000233
1.0000097
0.99999478
0.99997859
0.99996111
0.99994234
0.99992234
0.99990111
0.99987876
0.99985534
0.99983103
0.9998059
0.99978002
0.99975368
0.99972714
0.99970055
0.99967402
0.99964762
0.99962149
0.99959588
0.99957101
0.99954709
0.99952437
0.99950304
0.9994832
0.99946493
0.99944837
0.99943343
0.99942017
0.99940844
0.99939823
0.99938922
1.0001136
1.0001117
1.0001097
1.0001074
1.0001049
1.0001019
1.0000985
1.0000947
1.0000904
1.0000856
1.00008
1.0000738
1.0000668
1.0000589
1.0000501
1.0000404
1.0000297
1.0000179
1.0000049
0.99999084
0.9999755
0.99995892
0.99994114
0.99992219
0.99990208
0.9998809
0.99985871
0.99983566
0.99981176
0.99978711
0.99976202
0.99973671
0.99971124
0.9996856
0.99965984
0.99963414
0.99960873
0.99958388
0.99955981
0.99953677
0.99951497
0.99949454
0.99947555
0.9994581
0.99944208
0.99942751
0.99941418
0.99940219
0.99939106
1.0001034
1.0001017
1.0000998
1.0000976
1.0000952
1.0000924
1.0000892
1.0000857
1.0000816
1.000077
1.0000718
1.000066
1.0000594
1.0000519
1.0000436
1.0000343
1.0000241
1.0000129
1.0000007
0.99998731
0.99997281
0.99995714
0.99994033
0.99992243
0.99990343
0.99988343
0.99986246
0.99984068
0.99981804
0.99979467
0.99977092
0.99974692
0.99972257
0.99969781
0.9996727
0.9996474
0.99962218
0.99959728
0.99957295
0.99954945
0.99952704
0.99950595
0.99948638
0.99946855
0.99945255
0.99943849
0.9994263
0.99941595
0.99940723
1.0000936
1.0000919
1.0000902
1.0000881
1.0000858
1.0000832
1.0000802
1.0000768
1.000073
1.0000688
1.0000639
1.0000585
1.0000523
1.0000453
1.0000374
1.0000287
1.000019
1.0000083
0.99999676
0.99998418
0.99997052
0.99995578
0.99993997
0.99992315
0.99990529
0.99988647
0.99986672
0.99984619
0.99982479
0.9998027
0.99978036
0.99975767
0.99973443
0.99971055
0.99968611
0.9996613
0.99963634
0.99961144
0.99958679
0.99956265
0.99953925
0.99951684
0.99949557
0.99947565
0.99945708
0.99943991
0.99942401
0.9994095
0.99939592
1.0000842
1.0000826
1.0000809
1.0000789
1.0000767
1.0000742
1.0000714
1.0000682
1.0000647
1.0000607
1.0000562
1.0000512
1.0000455
1.000039
1.0000317
1.0000235
1.0000143
1.0000042
0.99999333
0.99998154
0.99996877
0.99995498
0.99994023
0.99992454
0.99990788
0.99989031
0.99987184
0.99985264
0.99983252
0.99981181
0.99979093
0.99976955
0.99974735
0.99972429
0.99970053
0.99967623
0.99965155
0.99962661
0.99960159
0.99957673
0.99955234
0.99952878
0.99950643
0.99948575
0.99946711
0.99945083
0.99943711
0.99942588
0.99941723
1.0000751
1.0000736
1.000072
1.0000701
1.000068
1.0000656
1.0000629
1.0000599
1.0000566
1.0000529
1.0000487
1.0000441
1.0000388
1.0000329
1.0000262
1.0000186
1.0000101
1.0000006
0.99999028
0.99997921
0.99996727
0.99995437
0.99994056
0.99992588
0.99991032
0.99989401
0.99987691
0.99985919
0.9998406
0.99982163
0.99980252
0.99978265
0.99976174
0.99973983
0.9997171
0.99969358
0.99966934
0.99964437
0.99961877
0.99959271
0.99956647
0.99954035
0.99951466
0.99948973
0.99946571
0.99944279
0.99942093
0.9994005
0.99938095
1.0000668
1.0000652
1.0000636
1.0000617
1.0000596
1.0000572
1.0000546
1.0000518
1.0000487
1.0000452
1.0000414
1.0000372
1.0000324
1.0000271
1.000021
1.000014
1.000006
0.99999696
0.99998709
0.99997658
0.99996532
0.99995313
0.99994006
0.99992618
0.99991151
0.99989619
0.99988017
0.99986365
0.99984637
0.99982896
0.9998117
0.99979336
0.99977407
0.9997539
0.99973297
0.9997111
0.99968822
0.99966416
0.99963892
0.99961255
0.99958531
0.99955759
0.99953
0.99950346
0.99947899
0.99945756
0.99944007
0.99942668
0.99941788
1.0000584
1.0000568
1.0000551
1.0000532
1.0000512
1.000049
1.0000467
1.0000442
1.0000414
1.0000382
1.0000347
1.0000308
1.0000264
1.0000215
1.0000159
1.0000095
1.0000021
0.99999374
0.99998451
0.99997481
0.99996453
0.99995347
0.9999417
0.99992928
0.99991606
0.99990194
0.9998869
0.99987138
0.9998548
0.99983787
0.99982201
0.99980425
0.99978587
0.99976656
0.9997468
0.99972591
0.99970403
0.99968059
0.9996557
0.99962905
0.99960086
0.99957104
0.99953976
0.99950694
0.99947285
0.99943738
0.99940123
0.99936445
0.99932896
1.0000513
1.0000496
1.000048
1.0000461
1.0000441
1.0000418
1.0000394
1.0000369
1.0000341
1.000031
1.0000277
1.0000241
1.0000202
1.000016
1.0000113
1.0000061
1.0000001
0.99999309
0.99998489
0.99997639
0.99996783
0.99995875
0.99994919
0.99993915
0.99992842
0.99991686
0.9999044
0.99989162
0.99987758
0.99986429
0.99984996
0.99983428
0.99981746
0.99979955
0.99978081
0.99976054
0.99973895
0.9997151
0.99968926
0.99966034
0.99962899
0.99959462
0.99955857
0.99952195
0.99948674
0.99945491
0.99943091
0.99941301
0.99940962
1.0000432
1.0000405
1.000038
1.0000355
1.0000332
1.000031
1.0000289
1.0000269
1.0000247
1.0000224
1.0000198
1.0000171
1.0000141
1.0000108
1.000007
1.0000025
0.99999725
0.99999037
0.9999818
0.99997309
0.9999645
0.99995521
0.99994515
0.99993443
0.99992334
0.99991236
0.99990132
0.9998906
0.99987948
0.99987487
0.99985981
0.99985025
0.99983754
0.99982666
0.9998132
0.99979973
0.99978374
0.99976666
0.99974662
0.9997242
0.99969771
0.9996669
0.99962724
0.99958077
0.99952253
0.99945281
0.99937019
0.99927325
0.99917685
1.0000356
1.000034
1.0000323
1.0000315
1.0000308
1.00003
1.000029
1.0000276
1.0000258
1.0000236
1.0000209
1.0000174
1.0000129
1.0000077
1.0000014