/*--------------------------------*- C++ -*----------------------------------*\
| =========                 |                                                 |
| \\      /  F ield         | OpenFOAM: The Open Source CFD Toolbox           |
|  \\    /   O peration     | Version:  v2006                                 |
|   \\  /    A nd           | Website:  www.openfoam.com                      |
|    \\/     M anipulation  |                                                 |
\*---------------------------------------------------------------------------*/
FoamFile
{
    version     2.0;
    format      ascii;
    class       volScalarField;
    location    "1500";
    object      T;
}
// * * * * * * * * * * * * * * * * * * * * * * * * * * * * * * * * * * * * * //

dimensions      [0 0 0 1 0 0 0];


internalField   nonuniform List<scalar> 
19765
(
1.0003012
1.0003705
1.0005065
1.0006545
1.0007797
1.0008911
1.0009982
1.0010893
1.0011683
1.0012406
1.0013001
1.0013432
1.0013729
1.0013926
1.0014019
1.0014012
1.0013891
1.0013689
1.0013384
1.0012985
1.0012511
1.001196
1.0011314
1.0010537
1.0009663
1.0008794
1.0007919
1.0006904
1.0005813
1.0004732
1.0003548
1.0002204
1.0000587
0.9998873
0.99974859
0.99962665
0.99946575
0.99929164
0.99914207
0.99895151
0.99871849
0.9985715
0.99847554
0.99839087
0.99840751
0.99844886
0.99855492
0.99870874
0.99885693
1.0005642
1.000622
1.0006875
1.0007611
1.000837
1.0009097
1.000979
1.0010419
1.0010994
1.0011527
1.0012004
1.0012401
1.001272
1.0012959
1.0013105
1.0013167
1.0013154
1.0013052
1.0012848
1.0012542
1.0012139
1.0011643
1.0011056
1.0010375
1.0009612
1.0008774
1.0007858
1.0006865
1.0005796
1.0004657
1.0003456
1.0002205
1.0000935
0.99996634
0.99983764
0.9997069
0.99957752
0.9994519
0.99933041
0.99921777
0.99912467
0.99903977
0.99895967
0.99889053
0.99882797
0.99877759
0.99873768
0.99870345
0.99867095
1.0005167
1.0005682
1.0006279
1.000692
1.0007552
1.0008165
1.0008747
1.0009293
1.0009794
1.0010279
1.0010717
1.001109
1.0011404
1.0011651
1.0011811
1.0011899
1.0011927
1.0011875
1.0011731
1.0011494
1.0011167
1.0010758
1.0010253
1.0009656
1.0008986
1.0008251
1.0007429
1.0006526
1.0005552
1.0004507
1.0003402
1.0002252
1.0001076
0.99998862
0.99986718
0.99974474
0.9996242
0.99950547
0.99938973
0.99928122
0.99917904
0.99908043
0.99899078
0.99891314
0.99884259
0.99878117
0.99872874
0.99868632
0.99864891
1.0005446
1.000583
1.0006224
1.0006634
1.0007047
1.0007455
1.0007853
1.000823
1.0008591
1.0008941
1.0009262
1.0009545
1.000979
1.0009986
1.0010119
1.0010198
1.0010231
1.0010199
1.001009
1.0009901
1.0009635
1.0009296
1.0008877
1.000838
1.0007818
1.0007193
1.0006495
1.0005729
1.0004906
1.0004028
1.0003107
1.0002155
1.0001192
1.0000225
0.99992425
0.99982567
0.9997297
0.99963626
0.99954534
0.99946028
0.99938084
0.99930234
0.99922665
0.99915499
0.99908599
0.99902071
0.99895538
0.99889065
0.99882552
1.0005309
1.0005631
1.0005957
1.0006284
1.0006607
1.0006922
1.0007228
1.0007519
1.0007798
1.0008068
1.0008318
1.000854
1.0008733
1.0008889
1.0008996
1.0009059
1.0009084
1.0009055
1.0008959
1.0008794
1.0008558
1.0008256
1.0007884
1.000744
1.0006932
1.0006368
1.000574
1.0005053
1.0004316
1.0003534
1.0002717
1.0001876
1.0001026
1.0000175
0.99993179
0.99984652
0.9997637
0.99968318
0.9996051
0.99953148
0.99946164
0.99939229
0.99932543
0.99926028
0.99919655
0.99913414
0.99907258
0.99901332
0.99895716
1.0005182
1.0005424
1.0005668
1.0005914
1.0006157
1.0006395
1.0006628
1.000685
1.0007065
1.0007275
1.000747
1.0007642
1.0007792
1.0007911
1.000799
1.0008033
1.0008043
1.0008006
1.0007911
1.0007755
1.0007536
1.0007257
1.0006917
1.000651
1.0006046
1.0005531
1.000496
1.0004337
1.000367
1.0002965
1.000223
1.0001475
1.0000713
0.99999517
0.99991891
0.99984324
0.99976965
0.99969828
0.99962913
0.99956349
0.99950104
0.99943981
0.99938014
0.99932231
0.99926509
0.9992088
0.99915219
0.99909541
0.99903903
1.0004954
1.0005155
1.0005356
1.0005556
1.000575
1.0005939
1.0006123
1.0006299
1.0006467
1.0006633
1.0006785
1.0006919
1.0007034
1.0007124
1.0007179
1.0007204
1.0007199
1.0007154
1.0007058
1.0006908
1.0006702
1.0006443
1.0006129
1.0005755
1.000533
1.0004857
1.0004334
1.0003764
1.0003155
1.0002513
1.0001844
1.0001157
1.0000463
0.99997701
0.99990763
0.99983884
0.99977183
0.99970662
0.99964329
0.99958281
0.99952484
0.99946759
0.99941174
0.9993568
0.9993023
0.99924796
0.99919311
0.99913778
0.99908239
1.0004735
1.0004894
1.0005054
1.0005213
1.0005367
1.0005517
1.0005662
1.0005801
1.0005934
1.0006065
1.0006184
1.0006287
1.0006374
1.000644
1.0006476
1.0006485
1.0006467
1.0006413
1.0006314
1.0006167
1.000597
1.0005725
1.000543
1.000508
1.0004683
1.0004243
1.0003758
1.0003231
1.0002669
1.0002076
1.0001461
1.000083
1.0000193
0.99995564
0.99989208
0.99982912
0.99976773
0.99970802
0.99965003
0.99959449
0.99954122
0.99948891
0.99943778
0.99938774
0.99933804
0.99928868
0.99923886
0.99918856
0.99913784
1.00045
1.0004631
1.0004763
1.0004893
1.0005018
1.0005139
1.0005256
1.0005367
1.0005473
1.0005576
1.0005669
1.0005748
1.0005813
1.0005859
1.0005878
1.0005873
1.0005844
1.0005782
1.0005681
1.0005536
1.0005345
1.0005111
1.0004832
1.0004504
1.0004132
1.000372
1.0003268
1.0002778
1.0002255
1.0001706
1.0001135
1.000055
0.99999598
0.99993693
0.99987795
0.9998195
0.99976242
0.99970677
0.99965262
0.99960059
0.99955051
0.99950122
0.99945306
0.99940571
0.99935872
0.99931187
0.99926459
0.99921677
0.99916857
1.0004275
1.0004381
1.0004488
1.0004594
1.0004696
1.0004793
1.0004888
1.0004977
1.0005061
1.0005142
1.0005215
1.0005274
1.000532
1.000535
1.0005355
1.0005339
1.0005301
1.0005232
1.0005127
1.0004984
1.0004799
1.0004574
1.0004307
1.0003996
1.0003645
1.0003257
1.0002831
1.0002371
1.0001882
1.0001368
1.0000835
1.0000289
0.99997381
0.99991868
0.99986367
0.99980917
0.99975592
0.99970401
0.9996535
0.99960493
0.99955818
0.99951234
0.99946758
0.99942376
0.99938036
0.99933728
0.99929395
0.99925026
0.99920624
1.0004054
1.0004141
1.0004229
1.0004317
1.00044
1.000448
1.0004556
1.0004627
1.0004694
1.0004758
1.0004813
1.0004857
1.0004888
1.0004904
1.0004898
1.0004873
1.0004826
1.0004752
1.0004644
1.0004502
1.0004321
1.0004104
1.0003848
1.0003552
1.0003218
1.0002851
1.0002449
1.0002016
1.0001555
1.0001072
1.0000572
1.000006
0.99995425
0.99990249
0.99985081
0.99979961
0.99974952
0.99970065
0.99965304
0.99960718
0.99956298
0.99951963
0.99947735
0.99943593
0.99939499
0.99935438
0.99931363
0.99927259
0.99923134
1.0003844
1.0003916
1.0003988
1.000406
1.0004128
1.0004193
1.0004254
1.0004311
1.0004363
1.0004413
1.0004454
1.0004485
1.0004504
1.0004508
1.0004493
1.0004459
1.0004406
1.0004327
1.0004218
1.0004076
1.0003899
1.0003688
1.0003442
1.0003158
1.000284
1.0002491
1.0002109
1.0001699
1.0001264
1.0000808
1.0000336
0.99998528
0.9999365
0.99988768
0.99983896
0.99979071
0.99974349
0.99969742
0.99965257
0.99960935
0.99956772
0.99952702
0.99948738
0.99944869
0.99941056
0.9993729
0.99933526
0.99929752
0.9992597
1.0003644
1.0003703
1.0003763
1.0003822
1.0003877
1.000393
1.0003979
1.0004024
1.0004065
1.0004103
1.0004132
1.0004152
1.0004161
1.0004156
1.0004133
1.0004092
1.0004033
1.000395
1.0003839
1.0003698
1.0003525
1.000332
1.0003082
1.000281
1.0002505
1.0002172
1.0001809
1.0001419
1.0001006
1.0000574
1.0000127
0.99996697
0.9999208
0.9998746
0.9998285
0.99978284
0.99973813
0.9996945
0.99965201
0.99961104
0.99957158
0.99953302
0.99949553
0.99945897
0.99942304
0.99938764
0.99935237
0.99931711
0.99928193
1.0003456
1.0003504
1.0003553
1.0003601
1.0003646
1.0003688
1.0003728
1.0003763
1.0003793
1.0003821
1.0003841
1.0003851
1.0003852
1.0003839
1.0003809
1.0003763
1.0003699
1.0003613
1.0003501
1.0003361
1.0003191
1.0002991
1.0002761
1.0002499
1.0002207
1.0001887
1.000154
1.0001169
1.0000776
1.0000365
0.99999404
0.99995066
0.99990685
0.99986301
0.99981928
0.99977597
0.99973359
0.99969223
0.99965197
0.99961317
0.99957583
0.99953943
0.99950411
0.99946978
0.99943616
0.99940316
0.99937043
0.99933786
0.9993055
1.0003278
1.0003317
1.0003357
1.0003396
1.0003432
1.0003466
1.0003497
1.0003523
1.0003546
1.0003565
1.0003577
1.0003579
1.0003572
1.0003553
1.0003518
1.0003467
1.0003399
1.000331
1.0003197
1.0003058
1.0002891
1.0002697
1.0002473
1.000222
1.0001939
1.0001633
1.0001301
1.0000946
1.0000571
1.0000179
0.99997752
0.99993626
0.99989459
0.9998529
0.99981132
0.99977017
0.99972989
0.99969059
0.99965235
0.9996155
0.99958006
0.99954554
0.99951212
0.9994797
0.99944803
0.99941704
0.99938643
0.99935607
0.99932605
1.000311
1.0003142
1.0003174
1.0003206
1.0003235
1.0003261
1.0003284
1.0003304
1.0003319
1.0003331
1.0003336
1.0003332
1.0003319
1.0003293
1.0003254
1.0003199
1.0003128
1.0003037
1.0002924
1.0002786
1.0002622
1.0002432
1.0002215
1.000197
1.00017
1.0001405
1.0001086
1.0000746
1.0000388
1.0000014
0.99996288
0.99992354
0.99988384
0.99984413
0.99980455
0.99976539
0.99972707
0.99968971
0.99965338
0.99961839
0.99958478
0.99955211
0.99952055
0.99949002
0.9994603
0.99943134
0.99940285
0.99937473
0.99934705
1.0002952
1.0002978
1.0003003
1.0003028
1.0003051
1.0003071
1.0003088
1.0003101
1.0003111
1.0003116
1.0003115
1.0003106
1.0003087
1.0003057
1.0003013
1.0002955
1.0002882
1.000279
1.0002676
1.0002539
1.0002378
1.0002193
1.0001982
1.0001745
1.0001484
1.00012
1.0000894
1.0000568
1.0000225
0.99998676
0.99994993
0.99991238
0.9998745
0.99983662
0.99979889
0.99976159
0.9997251
0.99968954
0.99965498
0.99962172
0.99958979
0.99955881
0.99952894
0.99950011
0.99947213
0.99944494
0.99941831
0.99939212
0.99936648
1.0002804
1.0002824
1.0002844
1.0002863
1.000288
1.0002895
1.0002906
1.0002915
1.0002919
1.0002919
1.0002913
1.0002898
1.0002875
1.0002841
1.0002794
1.0002733
1.0002658
1.0002565
1.0002451
1.0002316
1.0002157
1.0001976
1.0001771
1.0001542
1.000129
1.0001016
1.0000722
1.0000409
1.000008
0.99997372
0.9999385
0.99990261
0.99986643
0.99983026
0.99979427
0.9997587
0.99972393
0.99969007
0.99965721
0.99962559
0.99959528
0.99956593
0.9995377
0.99951052
0.99948422
0.99945876
0.99943393
0.99940962
0.99938593
1.0002664
1.0002679
1.0002694
1.0002709
1.0002721
1.0002731
1.0002738
1.0002742
1.0002741
1.0002737
1.0002726
1.0002708
1.0002681
1.0002643
1.0002593
1.000253
1.0002453
1.0002359
1.0002246
1.0002112
1.0001957
1.000178
1.000158
1.0001358
1.0001114
1.000085
1.0000566
1.0000266
0.99999498
0.99996217
0.99992844
0.9998941
0.99985952
0.99982496
0.9997906
0.99975667
0.99972352
0.99969127
0.99965999
0.99962992
0.99960113
0.9995733
0.99954658
0.99952093
0.99949617
0.99947228
0.99944907
0.99942643
0.99940447
1.0002532
1.0002543
1.0002554
1.0002565
1.0002573
1.0002579
1.0002582
1.0002581
1.0002577
1.0002569
1.0002554
1.0002532
1.0002502
1.0002461
1.0002409
1.0002344
1.0002266
1.0002171
1.0002059
1.0001926
1.0001774
1.0001601
1.0001407
1.0001191
1.0000955
1.00007
1.0000427
1.0000137
0.99998341
0.99995193
0.99991961
0.99988674
0.99985365
0.99982062
0.9997878
0.99975542
0.99972381
0.99969308
0.99966331
0.99963473
0.99960739
0.99958102
0.99955575
0.99953155
0.99950827
0.99948588
0.99946421
0.99944315
0.99942283
1.0002408
1.0002416
1.0002423
1.000243
1.0002434
1.0002436
1.0002436
1.0002432
1.0002424
1.0002412
1.0002394
1.0002369
1.0002336
1.0002293
1.0002239
1.0002173
1.0002093
1.0001999
1.0001887
1.0001757
1.0001607
1.0001438
1.0001249
1.0001039
1.0000811
1.0000565
1.0000301
1.0000023
0.99997311
0.99994289
0.9999119
0.99988041
0.99984875
0.99981715
0.99978579
0.99975489
0.99972474
0.99969546
0.99966712
0.99963994
0.99961398
0.99958898
0.99956507
0.99954223
0.99952032
0.9994993
0.99947904
0.99945942
0.99944058
1.0002291
1.0002295
1.00023
1.0002303
1.0002304
1.0002303
1.00023
1.0002293
1.0002282
1.0002267
1.0002246
1.0002219
1.0002183
1.0002138
1.0002082
1.0002015
1.0001935
1.000184
1.0001729
1.0001601
1.0001454
1.0001289
1.0001105
1.0000902
1.000068
1.0000442
1.0000188
0.99999198
0.99996395
0.99993492
0.99990519
0.99987502
0.9998447
0.99981448
0.99978451
0.999755
0.99972624
0.99969834
0.99967137
0.99964554
0.99962088
0.99959719
0.99957459
0.99955303
0.99953242
0.99951271
0.99949378
0.99947551
0.99945805
1.000218
1.0002182
1.0002183
1.0002184
1.0002183
1.0002179
1.0002173
1.0002163
1.0002149
1.0002132
1.0002109
1.0002079
1.0002041
1.0001994
1.0001937
1.0001869
1.0001789
1.0001694
1.0001584
1.0001458
1.0001314
1.0001153
1.0000973
1.0000776
1.0000562
1.0000332
1.0000086
0.99998279
0.99995582
0.99992793
0.9998994
0.99987047
0.99984144
0.99981252
0.99978387
0.9997557
0.99972827
0.99970168
0.99967601
0.99965145
0.99962804
0.99960559
0.99958421
0.99956387
0.99954447
0.99952597
0.99950826
0.99949123
0.99947503
1.0002075
1.0002074
1.0002074
1.0002072
1.0002068
1.0002062
1.0002053
1.0002041
1.0002025
1.0002006
1.000198
1.0001948
1.0001909
1.0001861
1.0001803
1.0001734
1.0001653
1.000156
1.0001451
1.0001326
1.0001186
1.0001028
1.0000853
1.0000662
1.0000454
1.0000232
0.9999995
0.99997458
0.99994862
0.99992182
0.99989443
0.9998667
0.99983888
0.9998112
0.99978382
0.99975692
0.99973075
0.99970542
0.99968099
0.99965765
0.99963543
0.99961416
0.99959395
0.99957476
0.9995565
0.99953914
0.99952258
0.99950671
0.99949167
1.0001975
1.0001973
1.000197
1.0001966
1.000196
1.0001952
1.0001941
1.0001927
1.0001909
1.0001887
1.000186
1.0001827
1.0001786
1.0001737
1.0001678
1.0001609
1.0001528
1.0001435
1.0001328
1.0001205
1.0001067
1.0000914
1.0000744
1.0000558
1.0000357
1.0000141
0.99999128
0.99996726
0.99994227
0.99991651
0.99989021
0.99986361
0.99983696
0.99981047
0.99978429
0.9997586
0.99973364
0.9997095
0.99968626
0.99966408
0.99964299
0.99962284
0.99960373
0.99958562
0.99956844
0.99955214
0.99953665
0.99952184
0.99950787
1.0001881
1.0001877
1.0001872
1.0001866
1.0001858
1.0001848
1.0001836
1.000182
1.00018
1.0001777
1.0001748
1.0001713
1.0001671
1.0001621
1.0001562
1.0001492
1.0001412
1.000132
1.0001214
1.0001094
1.0000959
1.0000809
1.0000643
1.0000463
1.0000268
1.000006
0.99998391
0.99996075
0.99993669
0.99991192
0.99988666
0.99986115
0.99983561
0.99981026
0.99978522
0.99976069
0.99973689
0.99971389
0.99969178
0.9996707
0.99965069
0.99963161
0.99961354
0.99959646
0.99958028
0.99956499
0.99955049
0.99953669
0.99952371
1.0001791
1.0001785
1.0001779
1.0001771
1.0001762
1.000175
1.0001736
1.0001719
1.0001698
1.0001673
1.0001643
1.0001606
1.0001564
1.0001513
1.0001453
1.0001384
1.0001304
1.0001213
1.0001109
1.0000991
1.0000859
1.0000712
1.0000552
1.0000376
1.0000188
0.99999861
0.9999773
0.99995498
0.99993181
0.99990799
0.99988373
0.99985925
0.99983478
0.99981051
0.99978657
0.99976315
0.99974044
0.99971854
0.9996975
0.99967747
0.99965848
0.99964041
0.99962333
0.99960722
0.999592
0.99957764
0.99956407
0.99955118
0.99953912
1.0001705
1.0001698
1.000169
1.0001682
1.0001671
1.0001658
1.0001642
1.0001623
1.0001601
1.0001575
1.0001544
1.0001507
1.0001463
1.0001412
1.0001352
1.0001283
1.0001204
1.0001114
1.0001011
1.0000896
1.0000767
1.0000624
1.0000468
1.0000298
1.0000115
0.99999198
0.9999714
0.99994987
0.99992757
0.99990466
0.99988136
0.99985787
0.99983441
0.99981118
0.99978829
0.99976592
0.99974426
0.99972339
0.99970338
0.99968435
0.99966634
0.99964923
0.99963309
0.99961789
0.99960356
0.99959009
0.99957739
0.99956536
0.99955414
1.0001623
1.0001615
1.0001606
1.0001596
1.0001584
1.000157
1.0001553
1.0001533
1.000151
1.0001483
1.0001451
1.0001413
1.0001369
1.0001317
1.0001258
1.0001189
1.0001111
1.0001022
1.0000921
1.0000808
1.0000682
1.0000543
1.0000391
1.0000226
1.0000049
0.99998601
0.99996614
0.99994539
0.9999239
0.99990187
0.99987948
0.99985695
0.99983446
0.99981221
0.99979033
0.99976896
0.9997483
0.99972843
0.99970939
0.99969131
0.99967423
0.99965802
0.99964277
0.99962843
0.99961495
0.99960229
0.99959041
0.99957918
0.99956874
1.0001544
1.0001535
1.0001525
1.0001515
1.0001501
1.0001486
1.0001469
1.0001448
1.0001424
1.0001396
1.0001363
1.0001325
1.000128
1.0001229
1.0001169
1.0001101
1.0001024
1.0000936
1.0000837
1.0000727
1.0000604
1.0000468
1.000032
1.000016
0.99999888
0.99998066
0.99996148
0.99994146
0.99992077
0.99989958
0.99987807
0.99985644
0.99983489
0.99981358
0.99979265
0.99977224
0.99975254
0.9997336
0.99971549
0.99969832
0.99968211
0.99966677
0.99965235
0.99963883
0.99962614
0.99961426
0.99960313
0.99959264
0.99958294
1.0001469
1.0001459
1.0001448
1.0001437
1.0001423
1.0001407
1.0001388
1.0001367
1.0001342
1.0001313
1.000128
1.0001241
1.0001197
1.0001146
1.0001086
1.0001019
1.0000943
1.0000857
1.000076
1.0000651
1.0000531
1.00004
1.0000256
1.0000101
0.99999348
0.99997587
0.99995735
0.99993805
0.99991812
0.99989773
0.99987707
0.99985631
0.99983564
0.99981524
0.99979522
0.99977573
0.99975692
0.99973888
0.99972165
0.99970534
0.99968996
0.99967544
0.99966181
0.99964905
0.99963711
0.99962596
0.99961553
0.99960574
0.9995967
1.0001396
1.0001386
1.0001375
1.0001362
1.0001348
1.0001331
1.0001312
1.000129
1.0001264
1.0001235
1.0001202
1.0001163
1.0001118
1.0001067
1.0001009
1.0000942
1.0000867
1.0000783
1.0000688
1.0000582
1.0000465
1.0000337
1.0000197
1.0000047
0.99998862
0.9999716
0.99995372
0.99993511
0.99991592
0.99989631
0.99987645
0.99985652
0.9998367
0.99981715
0.999798
0.99977938
0.99976143
0.99974424
0.99972785
0.99971235
0.99969776
0.999684
0.99967112
0.99965909
0.99964785
0.99963737
0.99962761
0.99961846
0.99961005
1.0001326
1.0001316
1.0001304
1.0001291
1.0001276
1.0001258
1.0001239
1.0001216
1.0001191
1.0001161
1.0001128
1.0001089
1.0001044
1.0000994
1.0000936
1.000087
1.0000797
1.0000714
1.0000621
1.0000517
1.0000404
1.0000279
1.0000144
0.9999998
0.99998425
0.9999678
0.99995055
0.99993261
0.99991413
0.99989526
0.99987617
0.99985703
0.99983803
0.9998193
0.99980097
0.99978317
0.99976604
0.99974966
0.99973406
0.99971932
0.99970548
0.99969245
0.99968027
0.99966892
0.99965834
0.99964849
0.99963934
0.99963079
0.99962295
1.0001259
1.0001248
1.0001235
1.0001222
1.0001207
1.0001189
1.0001169
1.0001146
1.000112
1.0001091
1.0001057
1.0001019
1.0000975
1.0000924
1.0000867
1.0000803
1.000073
1.0000649
1.0000559
1.0000458
1.0000347
1.0000226
1.0000095
0.99999539
0.99998034
0.99996445
0.9999478
0.99993051
0.99991271
0.99989456
0.99987621
0.99985783
0.99983959
0.99982164
0.9998041
0.99978708
0.99977073
0.9997551
0.99974025
0.99972624
0.9997131
0.99970075
0.99968923
0.99967851
0.99966855
0.9996593
0.99965072
0.99964272
0.99963542
1.0001193
1.0001182
1.000117
1.0001156
1.000114
1.0001123
1.0001102
1.000108
1.0001054
1.0001024
1.0000991
1.0000952
1.0000909
1.0000859
1.0000803
1.000074
1.0000669
1.0000589
1.0000501
1.0000403
1.0000295
1.0000178
1.0000051
0.9999914
0.99997686
0.99996151
0.99994545
0.99992878
0.99991165
0.99989418
0.99987653
0.99985888
0.99984138
0.99982417
0.99980737
0.99979109
0.99977547
0.99976056
0.99974641
0.99973308
0.9997206
0.99970889
0.99969799
0.99968786
0.99967846
0.99966976
0.99966172
0.99965423
0.99964742
1.000113
1.0001119
1.0001106
1.0001092
1.0001077
1.0001059
1.0001039
1.0001016
1.000099
1.0000961
1.0000927
1.0000889
1.0000846
1.0000797
1.0000742
1.000068
1.0000611
1.0000533
1.0000447
1.0000352
1.0000247
1.0000134
1.000001
0.99998782
0.99997377
0.99995896
0.99994346
0.9999274
0.9999109
0.99989409
0.99987712
0.99986016
0.99984336
0.99982686
0.99981076
0.99979518
0.99978025
0.99976601
0.99975252
0.99973982
0.99972795
0.99971684
0.9997065
0.99969693
0.99968806
0.99967987
0.99967232
0.99966531
0.99965895
1.0001069
1.0001058
1.0001045
1.0001031
1.0001015
1.0000997
1.0000977
1.0000955
1.0000929
1.00009
1.0000867
1.0000829
1.0000787
1.0000739
1.0000685
1.0000625
1.0000557
1.0000481
1.0000397
1.0000305
1.0000203
1.0000093
0.9999974
0.99998462
0.99997106
0.99995676
0.99994182
0.99992635
0.99991046
0.99989428
0.99987796
0.99986166
0.99984552
0.99982969
0.99981425
0.99979934
0.99978504
0.99977143
0.99975855
0.99974644
0.99973513
0.99972457
0.99971476
0.99970569
0.99969731
0.99968959
0.99968248
0.9996759
0.99966995
1.0001009
1.0000998
1.0000986
1.0000972
1.0000956
1.0000939
1.0000919
1.0000896
1.0000871
1.0000842
1.000081
1.0000773
1.0000731
1.0000684
1.0000631
1.0000572
1.0000506
1.0000433
1.0000351
1.0000261
1.0000163
1.0000056
0.99999412
0.99998178
0.99996868
0.99995489
0.9999405
0.99992559
0.99991029
0.99989472
0.99987903
0.99986336
0.99984786
0.99983265
0.99981784
0.99980354
0.99978984
0.99977681
0.99976448
0.99975291
0.99974211
0.99973205
0.99972272
0.99971412
0.99970618
0.99969889
0.9996922
0.99968602
0.99968045
1.0000952
1.0000941
1.0000928
1.0000915
1.0000899
1.0000882
1.0000862
1.000084
1.0000815
1.0000787
1.0000755
1.0000719
1.0000678
1.0000632
1.0000581
1.0000523
1.0000459
1.0000387
1.0000308
1.0000221
1.0000126
1.0000023
0.99999118
0.99997927
0.99996664
0.99995334
0.99993948
0.99992513
0.9999104
0.99989541
0.99988031
0.99986525
0.99985035
0.99983574
0.99982151
0.99980777
0.99979462
0.99978211
0.99977029
0.9997592
0.99974887
0.99973925
0.99973036
0.99972217
0.99971463
0.99970772
0.99970139
0.99969557
0.99969033
1.0000895
1.0000885
1.0000873
1.0000859
1.0000844
1.0000827
1.0000808
1.0000786
1.0000762
1.0000734
1.0000703
1.0000668
1.0000628
1.0000583
1.0000533
1.0000477
1.0000415
1.0000345
1.0000269
1.0000185
1.0000093
0.9999993
0.99998855
0.99997707
0.99996489
0.99995209
0.99993874
0.99992493
0.99991075
0.99989633
0.9998818
0.99986731
0.99985299
0.99983894
0.99982525
0.99981203
0.99979936
0.99978732
0.99977595
0.99976529
0.99975537
0.99974615
0.99973765
0.99972982
0.99972265
0.99971609
0.9997101
0.99970461
0.99969968
1.0000841
1.000083
1.0000819
1.0000806
1.0000791
1.0000774
1.0000755
1.0000734
1.000071
1.0000684
1.0000653
1.0000619
1.000058
1.0000537
1.0000488
1.0000434
1.0000373
1.0000306
1.0000232
1.0000151
1.0000062
0.99999659
0.99998623
0.99997516
0.99996344
0.99995112
0.99993827
0.99992498
0.99991134
0.99989746
0.9998835
0.99986956
0.99985578
0.99984224
0.99982904
0.99981628
0.99980405
0.99979242
0.99978144
0.99977116
0.99976159
0.99975272
0.99974455
0.99973706
0.9997302
0.99972393
0.99971823
0.99971301
0.99970834
1.0000787
1.0000777
1.0000766
1.0000753
1.0000739
1.0000723
1.0000705
1.0000684
1.0000661
1.0000635
1.0000606
1.0000573
1.0000535
1.0000493
1.0000446
1.0000393
1.0000335
1.000027
1.0000198
1.000012
1.0000034
0.99999416
0.99998418
0.99997353
0.99996226
0.99995041
0.99993806
0.99992528
0.99991216
0.99989882
0.99988539
0.99987198
0.9998587
0.99984564
0.99983289
0.99982053
0.99980868
0.9997974
0.99978675
0.99977679
0.99976754
0.99975898
0.9997511
0.99974389
0.99973732
0.99973133
0.99972591
0.99972096
0.99971655
1.0000735
1.0000726
1.0000715
1.0000703
1.0000689
1.0000673
1.0000656
1.0000636
1.0000614
1.0000589
1.000056
1.0000528
1.0000492
1.0000451
1.0000406
1.0000355
1.0000298
1.0000236
1.0000167
1.0000091
1.0000009
0.99999199
0.9999824
0.99997217
0.99996133
0.99994995
0.99993809
0.99992581
0.9999132
0.99990038
0.99988747
0.99987457
0.99986177
0.99984914
0.99983677
0.99982476
0.99981323
0.99980226
0.9997919
0.99978222
0.99977323
0.99976492
0.99975729
0.99975032
0.99974397
0.9997382
0.99973298
0.99972822
0.99972399
1.0000685
1.0000675
1.0000665
1.0000653
1.000064
1.0000625
1.0000609
1.000059
1.0000568
1.0000544
1.0000517
1.0000486
1.0000451
1.0000412
1.0000368
1.0000319
1.0000265
1.0000204
1.0000138
1.0000066
0.99999864
0.99999008
0.99998087
0.99997105
0.99996065
0.99994973
0.99993836
0.99992657
0.99991446
0.99990215
0.99988975
0.99987734
0.99986497
0.99985272
0.99984068
0.99982898
0.99981773
0.99980702
0.99979691
0.99978746
0.9997787
0.99977061
0.9997632
0.99975644
0.99975031
0.99974476
0.99973976
0.99973523
0.99973122
1.0000635
1.0000626
1.0000616
1.0000605
1.0000593
1.0000579
1.0000563
1.0000544
1.0000524
1.0000501
1.0000475
1.0000445
1.0000412
1.0000375
1.0000333
1.0000286
1.0000233
1.0000175
1.0000112
1.0000042
0.99999661
0.99998841
0.99997958
0.99997017
0.99996021
0.99994975
0.99993886
0.99992755
0.99991594
0.99990414
0.99989224
0.99988027
0.9998683
0.99985638
0.99984464
0.99983321
0.99982221
0.99981173
0.99980183
0.99979258
0.999784
0.99977608
0.99976882
0.9997622
0.9997562
0.99975075
0.99974585
0.99974139
0.99973746
1.0000587
1.0000579
1.0000569
1.0000559
1.0000547
1.0000533
1.0000518
1.0000501
1.0000481
1.0000459
1.0000434
1.0000406
1.0000375
1.0000339
1.0000299
1.0000254
1.0000204
1.0000149
1.0000087
1.0000021
0.99999481
0.99998696
0.99997851
0.99996951
0.99995998
0.99994998
0.99993957
0.99992875
0.99991763
0.99990634
0.99989492
0.99988338
0.99987176
0.99986015
0.99984868
0.9998375
0.99982673
0.99981646
0.99980675
0.99979765
0.99978921
0.9997814
0.99977426
0.99976776
0.99976187
0.99975658
0.99975184
0.99974759
0.99974386
1.0000541
1.0000533
1.0000524
1.0000514
1.0000503
1.000049
1.0000475
1.0000458
1.000044
1.0000419
1.0000395
1.0000369
1.0000339
1.0000305
1.0000267
1.0000225
1.0000177
1.0000124
1.0000065
1.0000001
0.99999321
0.99998572
0.99997766
0.99996906
0.99995997
0.99995043
0.99994049
0.99993015
0.99991953
0.99990875
0.99989781
0.99988666
0.99987536
0.99986404
0.99985284
0.99984191
0.99983137
0.99982129
0.99981172
0.99980273
0.99979434
0.99978656
0.99977941
0.99977289
0.99976696
0.9997616
0.99975678
0.99975241
0.99974856
1.0000497
1.000049
1.0000481
1.0000471
1.000046
1.0000448
1.0000434
1.0000418
1.00004
1.000038
1.0000358
1.0000333
1.0000304
1.0000273
1.0000237
1.0000197
1.0000151
1.0000101
1.0000045
0.99999843
0.99999182
0.99998468
0.999977
0.99996882
0.99996016
0.99995108
0.99994162
0.99993176
0.99992165
0.99991139
0.99990089
0.99989011
0.99987912
0.99986809
0.9998572
0.99984655
0.99983623
0.99982631
0.99981683
0.99980785
0.99979943
0.9997916
0.99978439
0.99977782
0.99977189
0.99976658
0.99976187
0.9997577
0.99975406
1.0000456
1.0000449
1.0000441
1.0000431
1.0000421
1.0000409
1.0000395
1.000038
1.0000363
1.0000344
1.0000322
1.0000298
1.0000271
1.0000241
1.0000208
1.000017
1.0000127
1.000008
1.0000027
0.99999689
0.99999061
0.99998383
0.99997654
0.99996876
0.99996054
0.99995192
0.99994294
0.99993357
0.99992399
0.99991424
0.99990418
0.99989374
0.99988308
0.9998724
0.99986184
0.99985149
0.99984139
0.99983158
0.99982211
0.99981305
0.99980447
0.99979642
0.99978896
0.9997821
0.99977584
0.99977016
0.99976505
0.99976042
0.99975633
1.0000418
1.0000411
1.0000403
1.0000394
1.0000384
1.0000372
1.0000359
1.0000344
1.0000328
1.0000309
1.0000288
1.0000265
1.000024
1.0000211
1.000018
1.0000145
1.0000105
1.000006
1.000001
0.99999553
0.99998957
0.99998315
0.99997624
0.99996888
0.99996109
0.99995294
0.99994444
0.99993556
0.99992652
0.9999173
0.99990764
0.99989755
0.99988727
0.99987702
0.99986688
0.99985684
0.99984693
0.99983717
0.99982761
0.99981836
0.99980951
0.99980116
0.99979339
0.99978627
0.99977984
0.99977412
0.9997691
0.99976475
0.99976099
1.0000382
1.0000375
1.0000368
1.0000359
1.0000349
1.0000338
1.0000326
1.0000311
1.0000295
1.0000277
1.0000257
1.0000235
1.000021
1.0000183
1.0000154
1.0000121
1.0000084
1.0000042
0.99999953
0.99999434
0.9999887
0.99998264
0.99997612
0.99996917
0.99996183
0.99995414
0.99994613
0.99993775
0.99992928
0.99992055
0.99991127
0.99990157
0.99989177
0.99988204
0.99987236
0.99986264
0.99985289
0.99984311
0.99983339
0.99982384
0.99981458
0.9998057
0.99979731
0.99978949
0.99978226
0.99977565
0.99976966
0.99976421
0.99975941
1.0000348
1.0000342
1.0000334
1.0000326
1.0000317
1.0000306
1.0000294
1.000028
1.0000265
1.0000248
1.0000228
1.0000207
1.0000183
1.0000157
1.0000129
1.0000098
1.0000064
1.0000026
0.99999819
0.99999331
0.999988
0.9999823
0.99997618
0.99996966
0.99996276
0.99995555
0.99994804
0.99994019
0.9999323
0.99992406
0.99991514
0.99990592
0.99989673
0.99988759
0.99987837
0.99986895
0.99985931
0.99984949
0.99983956
0.99982966
0.99981991
0.99981046
0.99980148
0.99979311
0.99978549
0.99977872
0.99977284
0.99976789
0.9997637
1.0000315
1.0000309
1.0000302
1.0000294
1.0000285
1.0000275
1.0000263
1.0000251
1.0000236
1.000022
1.0000201
1.0000181
1.0000158
1.0000133
1.0000106
1.0000076
1.0000045
1.000001
0.99999697
0.99999241
0.99998742
0.99998208
0.99997634
0.99997022
0.99996376
0.99995703
0.99995002
0.99994273
0.99993546
0.99992771
0.99991921
0.99991065
0.99990222
0.99989377
0.99988504
0.99987594
0.99986644
0.99985658
0.99984644
0.99983609
0.99982566
0.99981529
0.99980515
0.99979537
0.99978609
0.99977737
0.99976932
0.9997619
0.99975534
1.0000283
1.0000277
1.000027
1.0000262
1.0000254
1.0000244
1.0000233
1.0000221
1.0000208
1.0000193
1.0000176
1.0000157
1.0000135
1.0000111
1.0000085
1.0000057
1.0000027
0.99999948
0.9999958
0.99999157
0.99998688
0.99998187
0.99997648
0.99997075
0.9999647
0.99995843
0.99995189
0.99994514
0.99993846
0.9999311
0.9999231
0.9999154
0.99990785
0.99990013
0.99989197
0.99988333
0.99987417
0.9998645
0.99985432
0.99984368
0.99983267
0.99982146
0.99981026
0.9997994
0.99978917
0.99977993
0.99977192
0.99976538
0.9997601
1.000025
1.0000244
1.0000237
1.0000229
1.0000221
1.0000212
1.0000203
1.0000192
1.000018
1.0000167
1.0000151
1.0000134
1.0000114
1.0000092
1.0000066
1.0000039
1.000001
0.99999806
0.99999477
0.99999092
0.99998661
0.99998199
0.99997706
0.99997182
0.99996627
0.99996049
0.99995443
0.99994821
0.99994205
0.99993488
0.99992748
0.99992074
0.9999139
0.99990678
0.9998991
0.99989096
0.9998822
0.99987283
0.99986271
0.99985185
0.99984021
0.99982788
0.99981492
0.99980151
0.99978782
0.99977426
0.99976099
0.99974855
0.99973706
1.0000218
1.0000212
1.0000205
1.0000198
1.000019
1.0000181
1.0000172
1.0000162
1.0000151
1.0000139
1.0000126
1.0000111
1.0000094
1.0000074
1.0000051
1.0000025
0.99999976
0.99999702
0.99999411
0.99999072
0.99998687
0.99998275
0.99997836
0.99997371
0.99996879
0.99996365
0.99995825
0.99995281
0.99994734
0.99994074
0.99993423
0.99992872
0.99992255
0.99991611
0.99990897
0.99990148
0.99989318
0.99988424
0.99987415
0.99986307
0.9998506
0.99983695
0.99982218
0.99980675
0.99979155
0.99977744
0.99976485
0.99975524
0.9997467
1.0000186
1.0000178
1.0000169
1.000016
1.0000152
1.0000144
1.0000136
1.0000128
1.0000119
1.000011
1.0000099
1.0000087
1.0000073
1.0000057
1.0000037
1.0000013
0.99999862
0.99999578
0.99999295
0.99998981
0.99998618
0.99998221
0.99997794
0.99997339
0.99996862
0.99996381
0.99995889
0.9999541
0.99994922
0.99994354
0.9999384
0.99993427
0.99992915
0.99992405
0.99991824
0.99991227
0.9999054
0.99989796
0.99988915
0.99987923
0.99986732
0.99985344
0.99983701
0.9998178
0.99979692
0.99977145
0.99974319
0.99971229
0.9996793
1.0000143
1.0000133
1.0000126
1.000012
1.0000116
1.0000111
1.0000106
1.0000101
1.0000095
1.0000088
1.000008
1.000007
1.0000057