/*--------------------------------*- C++ -*----------------------------------*\
| =========                 |                                                 |
| \\      /  F ield         | OpenFOAM: The Open Source CFD Toolbox           |
|  \\    /   O peration     | Version:  v2006                                 |
|   \\  /    A nd           | Website:  www.openfoam.com                      |
|    \\/     M anipulation  |                                                 |
\*---------------------------------------------------------------------------*/
FoamFile
{
    version     2.0;
    format      ascii;
    class       volScalarField;
    location    "1500";
    object      TMean;
}
// * * * * * * * * * * * * * * * * * * * * * * * * * * * * * * * * * * * * * //

dimensions      [0 0 0 1 0 0 0];


internalField   nonuniform List<scalar> 
19765
(
1.0000726
1.0001052
1.0002571
1.0004091
1.0005393
1.0006573
1.0007766
1.00088
1.0009786
1.0010758
1.0011538
1.0012146
1.0012649
1.0013032
1.0013296
1.0013484
1.0013587
1.0013593
1.0013499
1.0013309
1.0013033
1.0012685
1.001226
1.0011727
1.0011107
1.0010467
1.0009798
1.0009008
1.0008149
1.000727
1.0006296
1.0005187
1.0003848
1.0002434
1.0001259
1.0000181
0.99987689
0.9997268
0.99959324
0.99942269
0.99921828
0.99909117
0.99899419
0.99890657
0.99890094
0.99892412
0.99900042
0.9991171
0.99922883
1.0003764
1.0004326
1.0004978
1.0005725
1.0006523
1.0007309
1.0008075
1.0008788
1.0009456
1.0010091
1.0010684
1.001121
1.0011666
1.0012049
1.0012346
1.0012563
1.0012714
1.0012786
1.0012763
1.0012643
1.0012428
1.0012125
1.0011735
1.0011259
1.0010706
1.0010084
1.0009379
1.0008604
1.0007751
1.0006831
1.0005847
1.0004807
1.0003737
1.0002656
1.0001556
1.0000431
0.99993054
0.99982025
0.99971274
0.99961147
0.9995249
0.99944645
0.99937194
0.99930613
0.99924462
0.99919399
0.99915143
0.99911444
0.99907958
1.000351
1.0004028
1.0004635
1.0005297
1.0005969
1.0006635
1.0007281
1.0007899
1.0008481
1.0009048
1.0009578
1.0010053
1.0010477
1.0010839
1.0011123
1.001134
1.0011503
1.0011595
1.0011601
1.0011518
1.0011349
1.00111
1.0010762
1.0010335
1.0009838
1.000927
1.000862
1.0007896
1.0007107
1.0006253
1.0005338
1.0004373
1.0003375
1.0002357
1.0001317
1.0000262
0.99992101
0.99981666
0.99971452
0.99961745
0.99952501
0.99943621
0.99935452
0.99928244
0.99921793
0.99916034
0.99911086
0.99906855
0.99903168
1.0004188
1.000459
1.0004999
1.0005425
1.0005862
1.0006302
1.0006735
1.0007157
1.0007565
1.0007966
1.0008348
1.0008702
1.0009025
1.0009307
1.0009535
1.0009714
1.0009852
1.0009936
1.0009949
1.0009888
1.0009754
1.0009551
1.0009273
1.0008917
1.0008493
1.000801
1.0007458
1.0006841
1.0006168
1.0005443
1.0004671
1.0003864
1.0003039
1.0002202
1.0001351
1.0000493
0.99996487
0.99988201
0.99980118
0.99972483
0.99965277
0.99958179
0.9995134
0.99944803
0.99938506
0.99932514
0.99926573
0.99920679
0.99914767
1.0004222
1.0004559
1.0004899
1.0005243
1.0005589
1.0005933
1.0006272
1.0006602
1.0006922
1.0007237
1.0007539
1.000782
1.0008078
1.0008306
1.0008493
1.0008641
1.0008755
1.0008821
1.0008827
1.000877
1.0008646
1.0008462
1.0008213
1.0007895
1.0007516
1.0007083
1.000659
1.0006038
1.0005436
1.000479
1.0004106
1.0003394
1.0002667
1.0001933
1.0001191
1.0000449
0.99997224
0.99990104
0.99983178
0.99976593
0.99970296
0.99964051
0.99958022
0.99952098
0.99946301
0.99940582
0.99934908
0.99929369
0.99924053
1.000424
1.0004498
1.0004756
1.0005017
1.0005279
1.0005541
1.00058
1.0006055
1.0006304
1.0006552
1.000679
1.0007013
1.0007218
1.00074
1.0007549
1.0007666
1.0007755
1.0007803
1.00078
1.0007741
1.0007624
1.0007451
1.0007221
1.0006928
1.0006581
1.0006185
1.0005735
1.0005233
1.0004687
1.0004103
1.0003486
1.0002845
1.0002192
1.0001534
1.0000873
1.0000213
0.99995661
0.99989345
0.99983206
0.99977338
0.99971715
0.99966201
0.99960824
0.99955575
0.99950382
0.99945249
0.99940084
0.99934886
0.99929666
1.0004112
1.000433
1.0004546
1.0004763
1.0004976
1.0005188
1.0005396
1.0005601
1.0005801
1.0006
1.000619
1.0006369
1.0006533
1.0006678
1.0006794
1.0006885
1.0006949
1.0006979
1.0006965
1.0006901
1.0006787
1.0006624
1.000641
1.0006139
1.000582
1.0005456
1.0005044
1.0004585
1.0004087
1.0003554
1.0002993
1.0002411
1.0001817
1.0001219
1.0000619
1.0000021
0.99994335
0.99988588
0.99982989
0.99977611
0.99972425
0.99967306
0.99962307
0.99957363
0.99952457
0.99947545
0.9994258
0.99937553
0.99932486
1.0003987
1.0004162
1.0004336
1.000451
1.0004681
1.0004851
1.0005018
1.0005183
1.0005343
1.0005504
1.0005658
1.0005801
1.0005932
1.0006047
1.0006138
1.0006206
1.0006251
1.0006266
1.0006241
1.0006173
1.000606
1.0005902
1.0005698
1.0005444
1.0005144
1.0004804
1.0004421
1.0003996
1.0003535
1.0003043
1.0002526
1.000199
1.0001444
1.0000895
1.0000344
0.99997957
0.99992572
0.99987303
0.9998217
0.99977227
0.99972458
0.99967773
0.99963189
0.99958678
0.99954197
0.99949728
0.99945213
0.99940639
0.99936
1.0003826
1.0003972
1.0004118
1.0004263
1.0004405
1.0004545
1.0004682
1.0004817
1.0004948
1.0005079
1.0005203
1.0005318
1.0005423
1.0005513
1.0005582
1.0005631
1.000566
1.000566
1.0005626
1.0005553
1.0005439
1.0005285
1.000509
1.0004849
1.0004568
1.0004249
1.000389
1.0003494
1.0003065
1.0002608
1.0002129
1.0001632
1.0001126
1.0000617
1.0000106
0.99995974
0.99990973
0.99986074
0.99981292
0.99976675
0.99972209
0.99967813
0.99963513
0.99959266
0.9995505
0.99950833
0.99946572
0.99942249
0.99937869
1.0003667
1.0003788
1.0003908
1.0004028
1.0004144
1.0004259
1.0004373
1.0004483
1.0004591
1.0004698
1.0004799
1.0004891
1.0004975
1.0005045
1.0005096
1.0005129
1.0005144
1.0005133
1.000509
1.0005013
1.0004899
1.0004748
1.0004558
1.0004328
1.0004061
1.0003759
1.000342
1.0003048
1.0002646
1.0002218
1.0001769
1.0001305
1.0000832
1.0000356
0.99998793
0.99994044
0.99989374
0.999848
0.99980335
0.99976019
0.99971846
0.99967751
0.99963748
0.99959809
0.99955907
0.99952021
0.99948107
0.99944149
0.99940141
1.0003503
1.0003604
1.0003704
1.0003805
1.0003903
1.0003999
1.0004092
1.0004184
1.0004272
1.000436
1.0004442
1.0004516
1.0004582
1.0004635
1.0004672
1.0004691
1.0004694
1.0004673
1.0004623
1.0004542
1.0004427
1.0004278
1.0004094
1.0003873
1.0003618
1.000333
1.000301
1.0002658
1.0002278
1.0001876
1.0001454
1.0001018
1.0000574
1.0000127
0.99996789
0.99992326
0.99987935
0.9998363
0.99979425
0.99975356
0.99971417
0.99967553
0.99963779
0.99960066
0.99956396
0.99952744
0.99949074
0.99945369
0.99941629
1.0003344
1.0003428
1.0003512
1.0003596
1.0003678
1.0003757
1.0003835
1.0003911
1.0003984
1.0004056
1.0004122
1.0004181
1.0004232
1.0004271
1.0004295
1.0004304
1.0004296
1.0004266
1.0004211
1.0004126
1.000401
1.0003863
1.0003684
1.0003471
1.0003226
1.0002951
1.0002646
1.0002311
1.0001952
1.0001571
1.0001173
1.0000761
1.0000342
0.99999198
0.99994968
0.99990757
0.99986613
0.99982552
0.99978585
0.99974747
0.99971035
0.999674
0.99963857
0.99960383
0.99956958
0.99953566
0.9995017
0.99946757
0.99943322
1.0003188
1.0003259
1.000333
1.0003401
1.0003469
1.0003536
1.00036
1.0003663
1.0003723
1.0003781
1.0003835
1.0003881
1.0003919
1.0003947
1.000396
1.0003959
1.0003943
1.0003906
1.0003845
1.0003758
1.0003641
1.0003496
1.0003321
1.0003114
1.0002879
1.0002615
1.0002323
1.0002005
1.0001663
1.0001301
1.0000923
1.0000533
1.0000136
0.99997365
0.99993358
0.9998937
0.99985446
0.99981598
0.9997784
0.99974203
0.99970686
0.99967245
0.99963895
0.99960618
0.99957395
0.9995421
0.99951033
0.99947851
0.99944662
1.000304
1.0003099
1.0003158
1.0003218
1.0003275
1.000333
1.0003384
1.0003436
1.0003485
1.0003532
1.0003574
1.000361
1.0003638
1.0003656
1.000366
1.0003651
1.0003627
1.0003584
1.0003519
1.0003429
1.0003312
1.0003169
1.0002997
1.0002797
1.0002569
1.0002316
1.0002036
1.0001731
1.0001405
1.0001061
1.0000701
1.000033
0.99999532
0.99995734
0.99991928
0.99988142
0.99984417
0.99980767
0.99977203
0.99973755
0.99970424
0.99967172
0.99964014
0.99960932
0.99957911
0.99954938
0.99951987
0.99949043
0.99946106
1.0002897
1.0002947
1.0002997
1.0003047
1.0003094
1.0003141
1.0003185
1.0003228
1.0003267
1.0003305
1.0003338
1.0003364
1.0003383
1.0003392
1.0003389
1.0003373
1.0003343
1.0003295
1.0003227
1.0003135
1.0003018
1.0002876
1.0002708
1.0002513
1.0002292
1.0002048
1.0001779
1.0001487
1.0001176
1.0000847
1.0000504
1.000015
0.99997912
0.99994296
0.99990674
0.99987072
0.9998353
0.99980059
0.99976672
0.99973396
0.99970234
0.99967151
0.99964162
0.99961252
0.99958408
0.99955618
0.99952859
0.99950117
0.99947396
1.0002762
1.0002804
1.0002845
1.0002887
1.0002927
1.0002965
1.0003001
1.0003036
1.0003067
1.0003097
1.0003122
1.000314
1.0003152
1.0003154
1.0003144
1.0003122
1.0003087
1.0003035
1.0002963
1.0002869
1.0002752
1.0002612
1.0002447
1.0002257
1.0002044
1.0001808
1.0001549
1.0001269
1.000097
1.0000655
1.0000328
0.99999905
0.99996478
0.99993029
0.99989577
0.99986146
0.99982773
0.9997947
0.9997625
0.99973137
0.99970135
0.99967215
0.9996439
0.99961647
0.99958976
0.99956365
0.99953794
0.99951252
0.99948741
1.0002634
1.0002669
1.0002703
1.0002738
1.000277
1.0002802
1.0002831
1.0002859
1.0002884
1.0002906
1.0002924
1.0002936
1.000294
1.0002936
1.0002921
1.0002894
1.0002854
1.0002798
1.0002724
1.0002629
1.0002513
1.0002374
1.0002213
1.0002027
1.000182
1.0001592
1.0001343
1.0001073
1.0000786
1.0000485
1.0000171
0.99998488
0.99995215
0.99991921
0.99988626
0.99985355
0.99982139
0.99978994
0.99975928
0.99972967
0.99970116
0.99967345
0.9996467
0.9996208
0.99959564
0.99957114
0.99954712
0.99952344
0.99950018
1.0002513
1.0002541
1.0002569
1.0002598
1.0002625
1.000265
1.0002674
1.0002695
1.0002714
1.000273
1.0002742
1.0002748
1.0002747
1.0002737
1.0002717
1.0002686
1.0002642
1.0002584
1.0002507
1.0002412
1.0002296
1.0002159
1.0002
1.000182
1.0001618
1.0001398
1.0001157
1.0000898
1.0000622
1.0000332
1.0000032
0.99997235
0.99994103
0.99990955
0.99987809
0.99984686
0.9998162
0.99978622
0.99975704
0.99972887
0.99970178
0.99967552
0.99965021
0.99962577
0.99960211
0.99957915
0.99955673
0.99953473
0.99951323
1.0002397
1.0002421
1.0002444
1.0002467
1.0002489
1.0002509
1.0002527
1.0002543
1.0002557
1.0002568
1.0002574
1.0002575
1.0002569
1.0002555
1.0002531
1.0002496
1.0002449
1.0002387
1.0002309
1.0002213
1.0002098
1.0001963
1.0001808
1.0001631
1.0001436
1.0001222
1.0000989
1.000074
1.0000474
1.0000196
0.99999083
0.99996127
0.9999313
0.99990119
0.99987112
0.9998413
0.99981205
0.99978347
0.99975568
0.99972888
0.99970313
0.99967822
0.99965426
0.99963118
0.9996089
0.99958735
0.99956638
0.9995459
0.99952598
1.0002288
1.0002307
1.0002326
1.0002344
1.0002361
1.0002377
1.0002391
1.0002402
1.0002411
1.0002417
1.0002419
1.0002415
1.0002405
1.0002387
1.0002359
1.0002321
1.0002271
1.0002208
1.0002129
1.0002033
1.0001918
1.0001785
1.0001632
1.0001461
1.0001271
1.0001063
1.0000838
1.0000597
1.0000342
1.0000075
0.99997986
0.99995152
0.99992282
0.99989401
0.99986525
0.99983677
0.99980885
0.9997816
0.99975513
0.99972964
0.99970518
0.99968155
0.99965888
0.9996371
0.99961613
0.99959591
0.99957633
0.99955727
0.99953882
1.0002185
1.00022
1.0002214
1.0002229
1.0002242
1.0002253
1.0002263
1.0002271
1.0002275
1.0002278
1.0002275
1.0002268
1.0002254
1.0002232
1.0002201
1.000216
1.0002108
1.0002043
1.0001963
1.0001867
1.0001753
1.0001622
1.0001473
1.0001305
1.000112
1.0000919
1.0000702
1.000047
1.0000224
0.9999967
0.99997014
0.99994296
0.99991546
0.99988788
0.99986038
0.99983317
0.99980652
0.99978054
0.99975533
0.99973107
0.99970783
0.99968542
0.99966396
0.9996434
0.99962365
0.99960468
0.99958636
0.9995686
0.99955149
1.0002087
1.0002098
1.0002109
1.000212
1.000213
1.0002138
1.0002144
1.0002148
1.0002149
1.0002148
1.0002142
1.0002131
1.0002113
1.0002089
1.0002055
1.0002012
1.0001958
1.0001892
1.0001811
1.0001715
1.0001603
1.0001474
1.0001327
1.0001164
1.0000984
1.0000789
1.0000579
1.0000355
1.0000118
0.99998706
0.99996155
0.99993547
0.99990912
0.99988271
0.9998564
0.99983041
0.99980497
0.9997802
0.99975619
0.99973312
0.99971104
0.9996898
0.99966949
0.99965008
0.99963149
0.99961369
0.99959656
0.99958002
0.99956416
1.0001994
1.0002002
1.000201
1.0002018
1.0002024
1.0002029
1.0002032
1.0002033
1.0002031
1.0002026
1.0002017
1.0002003
1.0001983
1.0001956
1.000192
1.0001875
1.0001819
1.0001752
1.0001671
1.0001576
1.0001465
1.0001338
1.0001194
1.0001035
1.000086
1.0000671
1.0000468
1.0000251
1.0000023
0.9999785
0.99995398
0.99992896
0.99990369
0.9998784
0.99985324
0.9998284
0.99980412
0.9997805
0.99975765
0.99973571
0.99971474
0.99969459
0.99967538
0.99965706
0.99963956
0.99962284
0.99960682
0.99959139
0.99957667
1.0001905
1.0001911
1.0001916
1.0001921
1.0001925
1.0001927
1.0001927
1.0001925
1.000192
1.0001913
1.0001901
1.0001884
1.0001862
1.0001832
1.0001795
1.0001748
1.0001691
1.0001623
1.0001542
1.0001447
1.0001337
1.0001213
1.0001073
1.0000917
1.0000747
1.0000564
1.0000367
1.0000158
0.99999378
0.9999709
0.99994733
0.99992332
0.9998991
0.99987488
0.99985081
0.99982707
0.9998039
0.99978139
0.99975963
0.99973877
0.99971886
0.99969977
0.9996816
0.9996643
0.99964783
0.99963214
0.99961715
0.99960276
0.9995891
1.0001821
1.0001824
1.0001827
1.000183
1.0001831
1.0001831
1.0001828
1.0001824
1.0001817
1.0001807
1.0001793
1.0001773
1.0001749
1.0001717
1.0001678
1.000163
1.0001572
1.0001504
1.0001423
1.0001329
1.0001221
1.0001098
1.0000961
1.0000809
1.0000644
1.0000466
1.0000276
1.0000074
0.9999862
0.99996417
0.99994152
0.99991847
0.99989525
0.99987205
0.99984903
0.99982636
0.99980424
0.99978279
0.99976208
0.99974224
0.99972334
0.99970525
0.99968807
0.99967175
0.99965624
0.9996415
0.99962748
0.99961406
0.99960136
1.0001741
1.0001742
1.0001743
1.0001743
1.0001742
1.0001739
1.0001735
1.0001728
1.0001719
1.0001707
1.0001691
1.000167
1.0001643
1.000161
1.0001569
1.000152
1.0001462
1.0001393
1.0001313
1.0001219
1.0001113
1.0000993
1.0000859
1.0000711
1.000055
1.0000378
1.0000194
0.99999988
0.99997944
0.99995824
0.99993647
0.99991434
0.99989208
0.99986986
0.99984784
0.99982618
0.99980508
0.99978464
0.99976493
0.99974608
0.99972814
0.99971101
0.99969476
0.99967935
0.99966476
0.99965093
0.9996378
0.99962528
0.99961348
1.0001664
1.0001663
1.0001662
1.0001661
1.0001658
1.0001653
1.0001647
1.0001638
1.0001627
1.0001613
1.0001595
1.0001572
1.0001544
1.000151
1.0001468
1.0001418
1.0001359
1.0001291
1.000121
1.0001118
1.0001014
1.0000896
1.0000765
1.0000621
1.0000465
1.0000298
1.000012
0.99999314
0.99997344
0.99995303
0.9999321
0.99991086
0.99988952
0.99986824
0.99984718
0.99982649
0.99980636
0.99978688
0.99976813
0.99975022
0.9997332
0.99971697
0.99970161
0.99968708
0.99967334
0.99966035
0.99964806
0.99963638
0.99962541
1.000159
1.0001588
1.0001586
1.0001582
1.0001578
1.0001571
1.0001563
1.0001553
1.000154
1.0001525
1.0001505
1.0001481
1.0001451
1.0001416
1.0001373
1.0001323
1.0001264
1.0001195
1.0001116
1.0001025
1.0000922
1.0000807
1.0000679
1.0000539
1.0000387
1.0000225
1.0000053
0.99998711
0.99996811
0.99994847
0.99992836
0.99990797
0.9998875
0.99986713
0.99984699
0.99982723
0.99980803
0.99978947
0.99977163
0.99975462
0.99973847
0.9997231
0.99970858
0.99969488
0.99968195
0.99966976
0.99965826
0.99964734
0.99963715
1.000152
1.0001516
1.0001512
1.0001508
1.0001501
1.0001494
1.0001484
1.0001472
1.0001458
1.0001441
1.000142
1.0001395
1.0001364
1.0001328
1.0001284
1.0001234
1.0001175
1.0001106
1.0001028
1.0000938
1.0000837
1.0000725
1.00006
1.0000464
1.0000316
1.000016
0.99999928
0.99998172
0.99996341
0.99994451
0.99992518
0.99990561
0.99988598
0.99986648
0.99984721
0.99982834
0.99981003
0.99979235
0.99977538
0.99975922
0.99974391
0.99972936
0.99971564
0.99970271
0.99969055
0.9996791
0.99966833
0.99965815
0.99964866
1.0001452
1.0001447
1.0001442
1.0001436
1.0001428
1.000142
1.0001409
1.0001396
1.000138
1.0001362
1.000134
1.0001313
1.0001282
1.0001245
1.0001201
1.000115
1.0001091
1.0001024
1.0000946
1.0000858
1.0000759
1.0000649
1.0000527
1.0000395
1.0000252
1.00001
0.99999387
0.99997693
0.99995928
0.99994109
0.99992251
0.99990372
0.99988491
0.99986623
0.99984781
0.99982979
0.99981232
0.99979549
0.99977935
0.999764
0.99974948
0.99973571
0.99972274
0.99971055
0.99969911
0.99968836
0.99967828
0.99966877
0.99965995
1.0001386
1.0001381
1.0001374
1.0001367
1.0001359
1.0001349
1.0001337
1.0001323
1.0001306
1.0001287
1.0001264
1.0001237
1.0001205
1.0001167
1.0001123
1.0001072
1.0001014
1.0000947
1.000087
1.0000784
1.0000687
1.0000579
1.0000461
1.0000332
1.0000193
1.0000046
0.99998903
0.99997267
0.99995567
0.99993816
0.99992031
0.99990228
0.99988424
0.99986635
0.99984874
0.99983153
0.99981487
0.99979883
0.99978349
0.99976891
0.99975514
0.99974211
0.99972986
0.99971836
0.99970759
0.99969751
0.99968807
0.99967919
0.99967097
1.0001323
1.0001316
1.0001309
1.0001301
1.0001292
1.0001281
1.0001268
1.0001253
1.0001236
1.0001216
1.0001192
1.0001164
1.0001132
1.0001094
1.000105
1.0000999
1.0000941
1.0000875
1.0000799
1.0000714
1.000062
1.0000515
1.0000399
1.0000274
1.000014
0.99999975
0.9999847
0.99996892
0.99995254
0.99993569
0.99991853
0.99990122
0.99988393
0.9998668
0.99984995
0.99983352
0.99981763
0.99980236
0.99978776
0.99977392
0.99976086
0.99974852
0.99973695
0.99972611
0.99971598
0.99970651
0.99969768
0.99968938
0.99968174
1.0001261
1.0001254
1.0001246
1.0001238
1.0001228
1.0001216
1.0001202
1.0001187
1.0001169
1.0001148
1.0001124
1.0001095
1.0001063
1.0001025
1.0000981
1.000093
1.0000873
1.0000807
1.0000733
1.000065
1.0000558
1.0000455
1.0000343
1.0000222
1.0000092
0.99999538
0.99998084
0.99996562
0.99994984
0.99993363
0.99991714
0.99990052
0.99988394
0.99986754
0.99985142
0.99983573
0.99982057
0.99980602
0.99979214
0.99977899
0.99976661
0.99975493
0.999744
0.99973378
0.99972424
0.99971535
0.99970708
0.99969933
0.99969221
1.0001202
1.0001194
1.0001186
1.0001176
1.0001166
1.0001153
1.0001139
1.0001123
1.0001105
1.0001083
1.0001059
1.000103
1.0000997
1.0000959
1.0000915
1.0000866
1.0000809
1.0000744
1.0000672
1.0000591
1.00005
1.0000401
1.0000292
1.0000174
1.0000048
0.99999146
0.99997742
0.99996274
0.99994754
0.99993194
0.9999161
0.99990015
0.99988425
0.99986854
0.99985312
0.99983812
0.99982366
0.9998098
0.99979659
0.99978411
0.99977236
0.9997613
0.99975097
0.99974133
0.99973236
0.99972401
0.99971626
0.99970902
0.99970239
1.0001144
1.0001136
1.0001127
1.0001117
1.0001106
1.0001093
1.0001079
1.0001062
1.0001043
1.0001022
1.0000997
1.0000968
1.0000935
1.0000897
1.0000854
1.0000805
1.0000749
1.0000686
1.0000615
1.0000535
1.0000447
1.000035
1.0000245
1.000013
1.0000008
0.99998796
0.9999744
0.99996025
0.99994561
0.99993061
0.99991538
0.99990007
0.99988482
0.99986977
0.99985502
0.99984068
0.99982688
0.99981367
0.9998011
0.99978923
0.99977808
0.99976761
0.99975784
0.99974874
0.99974029
0.99973245
0.99972519
0.99971841
0.99971224
1.0001087
1.0001079
1.000107
1.000106
1.0001048
1.0001035
1.0001021
1.0001004
1.0000985
1.0000963
1.0000938
1.0000909
1.0000876
1.0000839
1.0000796
1.0000748
1.0000693
1.0000631
1.0000561
1.0000484
1.0000398
1.0000304
1.0000201
1.0000091
0.99999728
0.99998484
0.99997176
0.99995812
0.99994403
0.99992959
0.99991496
0.99990026
0.99988563
0.99987121
0.99985709
0.99984338
0.9998302
0.9998176
0.99980563
0.99979434
0.99978375
0.99977382
0.99976458
0.99975599
0.99974803
0.99974065
0.99973384
0.99972751
0.99972176
1.0001032
1.0001024
1.0001014
1.0001004
1.0000992
1.0000979
1.0000964
1.0000948
1.0000928
1.0000907
1.0000882
1.0000853
1.0000821
1.0000784
1.0000741
1.0000694
1.000064
1.0000579
1.0000511
1.0000436
1.0000353
1.0000261
1.0000162
1.0000055
0.99999409
0.99998207
0.99996946
0.99995632
0.99994276
0.99992888
0.99991481
0.99990069
0.99988666
0.99987283
0.99985931
0.9998462
0.9998336
0.99982157
0.99981015
0.99979941
0.99978934
0.99977992
0.99977116
0.99976304
0.99975553
0.99974859
0.9997422
0.99973627
0.99973089
1.0000978
1.000097
1.000096
1.000095
1.0000938
1.0000925
1.000091
1.0000893
1.0000874
1.0000853
1.0000828
1.00008
1.0000768
1.0000731
1.000069
1.0000643
1.000059
1.0000531
1.0000465
1.0000392
1.0000311
1.0000222
1.0000126
1.0000023
0.99999124
0.99997965
0.99996749
0.99995484
0.99994178
0.99992843
0.99991491
0.99990135
0.99988789
0.99987462
0.99986167
0.99984911
0.99983706
0.99982556
0.99981466
0.99980441
0.99979483
0.99978588
0.99977757
0.99976988
0.99976279
0.99975625
0.99975025
0.99974469
0.99973967
1.0000926
1.0000917
1.0000908
1.0000898
1.0000886
1.0000873
1.0000858
1.0000841
1.0000822
1.0000801
1.0000776
1.0000749
1.0000717
1.0000681
1.0000641
1.0000595
1.0000543
1.0000486
1.0000422
1.0000351
1.0000272
1.0000186
1.0000093
0.99999935
0.99998872
0.99997753
0.99996582
0.99995365
0.99994108
0.99992824
0.99991525
0.99990223
0.9998893
0.99987657
0.99986414
0.99985211
0.99984056
0.99982955
0.99981913
0.99980934
0.99980019
0.99979167
0.99978378
0.99977649
0.99976977
0.9997636
0.99975794
0.99975272
0.99974801
1.0000874
1.0000866
1.0000857
1.0000847
1.0000835
1.0000822
1.0000808
1.0000791
1.0000772
1.0000751
1.0000727
1.00007
1.0000669
1.0000634
1.0000594
1.000055
1.00005
1.0000444
1.0000381
1.0000312
1.0000237
1.0000154
1.0000064
0.99999673
0.99998649
0.99997571
0.99996444
0.99995272
0.99994064
0.9999283
0.99991581
0.9999033
0.99989088
0.99987866
0.99986672
0.99985517
0.99984408
0.99983352
0.99982353
0.99981416
0.99980542
0.99979728
0.99978976
0.99978283
0.99977647
0.99977063
0.9997653
0.99976038
0.99975598
1.0000824
1.0000816
1.0000807
1.0000797
1.0000786
1.0000773
1.0000759
1.0000742
1.0000724
1.0000703
1.000068
1.0000653
1.0000623
1.0000589
1.000055
1.0000507
1.0000458
1.0000404
1.0000344
1.0000277
1.0000204
1.0000124
1.0000037
0.99999441
0.99998454
0.99997417
0.99996333
0.99995206
0.99994044
0.99992858
0.99991658
0.99990456
0.99989263
0.99988088
0.9998694
0.99985828
0.99984761
0.99983746
0.99982786
0.99981886
0.99981048
0.99980269
0.99979551
0.9997889
0.99978284
0.9997773
0.99977225
0.9997676
0.99976345
1.0000775
1.0000767
1.0000758
1.0000749
1.0000738
1.0000725
1.0000711
1.0000695
1.0000677
1.0000657
1.0000634
1.0000609
1.0000579
1.0000546
1.0000509
1.0000467
1.000042
1.0000367
1.0000309
1.0000244
1.0000174
1.0000096
1.0000013
0.99999235
0.99998285
0.99997288
0.99996246
0.99995164
0.99994048
0.99992908
0.99991756
0.99990601
0.99989453
0.99988322
0.99987216
0.99986144
0.99985115
0.99984136
0.99983211
0.99982344
0.99981538
0.99980791
0.99980102
0.9997947
0.99978893
0.99978366
0.99977887
0.99977449
0.99977058
1.0000727
1.000072
1.0000711
1.0000702
1.0000691
1.0000679
1.0000665
1.000065
1.0000633
1.0000613
1.0000591
1.0000566
1.0000537
1.0000505
1.0000469
1.0000428
1.0000383
1.0000332
1.0000276
1.0000214
1.0000146
1.0000072
0.99999914
0.99999054
0.99998141
0.99997184
0.99996184
0.99995145
0.99994073
0.99992979
0.99991873
0.99990763
0.99989658
0.99988567
0.99987499
0.99986464
0.99985469
0.99984522
0.99983628
0.99982791
0.99982012
0.99981291
0.99980628
0.99980021
0.99979467
0.99978961
0.99978503
0.99978085
0.99977712
1.0000681
1.0000673
1.0000665
1.0000656
1.0000646
1.0000634
1.0000621
1.0000606
1.0000589
1.000057
1.0000549
1.0000525
1.0000497
1.0000466
1.0000432
1.0000392
1.0000349
1.00003
1.0000246
1.0000186
1.0000121
1.0000049
0.99999722
0.99998897
0.99998021
0.99997103
0.99996145
0.99995148
0.9999412
0.99993071
0.99992009
0.99990942
0.99989877
0.99988824
0.99987791
0.99986788
0.99985824
0.99984905
0.99984038
0.99983226
0.99982471
0.99981773
0.99981132
0.99980546
0.99980013
0.99979529
0.99979092
0.99978695
0.99978343
1.0000635
1.0000628
1.000062
1.0000612
1.0000602
1.000059
1.0000578
1.0000563
1.0000547
1.0000529
1.0000509
1.0000485
1.0000459
1.0000429
1.0000396
1.0000358
1.0000316
1.0000269
1.0000218
1.000016
1.0000097
1.0000029
0.99999553
0.99998762
0.99997924
0.99997044
0.99996127
0.99995172
0.99994188
0.99993183
0.99992164
0.99991138
0.99990111
0.99989092
0.99988091
0.99987118
0.99986181
0.99985288
0.99984443
0.99983652
0.99982916
0.99982236
0.99981611
0.9998104
0.9998052
0.99980049
0.99979623
0.99979236
0.99978893
1.0000591
1.0000585
1.0000577
1.0000569
1.0000559
1.0000548
1.0000536
1.0000522
1.0000507
1.0000489
1.000047
1.0000447
1.0000422
1.0000394
1.0000362
1.0000326
1.0000286
1.0000241
1.0000191
1.0000136
1.0000076
1.0000011
0.99999404
0.99998648
0.99997847
0.99997007
0.9999613
0.99995217
0.99994276
0.99993314
0.99992338
0.9999135
0.99990359
0.99989373
0.99988402
0.99987456
0.99986544
0.99985672
0.99984846
0.99984071
0.99983349
0.99982681
0.99982069
0.9998151
0.99981004
0.99980546
0.99980137
0.99979768
0.99979442
1.0000549
1.0000543
1.0000535
1.0000527
1.0000518
1.0000508
1.0000496
1.0000483
1.0000468
1.0000451
1.0000432
1.0000411
1.0000387
1.000036
1.000033
1.0000295
1.0000257
1.0000215
1.0000167
1.0000115
1.0000057
0.9999995
0.99999276
0.99998555
0.9999779
0.99996989
0.99996153
0.99995281
0.99994383
0.99993465
0.9999253
0.9999158
0.99990623
0.99989668
0.99988727
0.99987807
0.99986917
0.99986063
0.99985251
0.99984486
0.99983771
0.99983109
0.99982499
0.99981943
0.99981437
0.99980979
0.99980567
0.99980193
0.99979864
1.0000508
1.0000502
1.0000495
1.0000488
1.0000479
1.0000469
1.0000458
1.0000445
1.0000431
1.0000415
1.0000396
1.0000376
1.0000353
1.0000328
1.0000299
1.0000266
1.000023
1.000019
1.0000145
1.0000095
1.000004
0.99999808
0.99999166
0.9999848
0.99997752
0.9999699
0.99996195
0.99995365
0.9999451
0.99993636
0.99992741
0.99991827
0.99990904
0.99989981
0.99989068
0.99988173
0.99987303
0.99986463
0.9998566
0.99984899
0.99984186
0.99983523
0.99982913
0.99982356
0.99981854
0.99981403
0.99981002
0.99980646
0.99980334
1.0000469
1.0000464
1.0000457
1.000045
1.0000441
1.0000432
1.0000421
1.0000409
1.0000395
1.000038
1.0000362
1.0000343
1.0000321
1.0000297
1.0000269
1.0000239
1.0000205
1.0000166
1.0000124
1.0000076
1.0000025
0.99999683
0.99999074
0.99998423
0.99997732
0.99997009
0.99996255
0.99995467
0.99994657
0.99993826
0.9999297
0.99992092
0.99991204
0.99990314
0.99989432
0.99988561
0.99987708
0.99986878
0.99986078
0.99985315
0.99984595
0.9998392
0.99983296
0.99982723
0.99982201
0.99981727
0.99981301
0.99980916
0.99980576
1.0000432
1.0000427
1.000042
1.0000413
1.0000405
1.0000396
1.0000386
1.0000374
1.0000361
1.0000346
1.000033
1.0000311
1.000029
1.0000267
1.0000241
1.0000213
1.0000181
1.0000145
1.0000104
1.000006
1.0000011
0.99999575
0.99998999
0.99998382
0.99997729
0.99997045
0.99996331
0.99995586
0.99994821
0.99994034
0.99993217
0.99992377
0.99991526
0.99990673
0.99989822
0.99988975
0.99988137
0.99987315
0.99986514
0.99985742
0.99985007
0.99984315
0.99983673
0.99983085
0.99982554
0.9998208
0.99981663
0.999813
0.99980985
1.0000396
1.0000391
1.0000385
1.0000378
1.0000371
1.0000362
1.0000352
1.0000341
1.0000329
1.0000315
1.0000299
1.0000281
1.0000261
1.0000239
1.0000215
1.0000188
1.0000158
1.0000124
1.0000087
1.0000045
0.99999984
0.99999482
0.99998939
0.99998357
0.99997742
0.99997097
0.99996425
0.99995723
0.99995004
0.9999426
0.99993481
0.99992682
0.99991873
0.9999106
0.99990242
0.9998942
0.99988598
0.99987781
0.99986975
0.99986188
0.99985428
0.99984703
0.99984019
0.99983383
0.99982797
0.99982261
0.99981776
0.99981335
0.99980948
1.0000362
1.0000357
1.0000351
1.0000345
1.0000337
1.0000329
1.000032
1.0000309
1.0000297
1.0000284
1.0000269
1.0000253
1.0000234
1.0000213
1.000019
1.0000164
1.0000136
1.0000105
1.000007
1.0000031
0.99999875
0.99999404
0.99998894
0.99998349
0.99997771
0.99997167
0.99996537
0.99995879
0.99995208
0.99994507
0.99993768
0.99993014
0.99992252
0.99991481
0.99990698
0.99989903
0.99989098
0.99988286
0.99987473
0.99986667
0.99985877
0.99985113
0.99984388
0.99983714
0.99983099
0.99982552
0.99982075
0.99981672
0.99981328
1.0000328
1.0000323
1.0000318
1.0000311
1.0000304
1.0000296
1.0000288
1.0000278
1.0000267
1.0000255
1.0000241
1.0000225
1.0000208
1.0000188
1.0000166
1.0000142
1.0000116
1.0000087
1.0000055
1.0000018
0.99999779
0.99999338
0.99998861
0.9999835
0.9999781
0.99997246
0.99996659
0.99996047
0.99995425
0.99994768
0.99994074
0.99993375
0.99992667
0.99991944
0.99991203
0.99990441
0.99989658
0.99988854
0.99988033
0.99987199
0.99986363
0.99985533
0.99984723
0.99983945
0.99983207
0.99982515
0.99981879
0.99981292
0.99980777
1.0000296
1.0000291
1.0000285
1.0000279
1.0000272
1.0000265
1.0000256
1.0000247
1.0000237
1.0000226
1.0000213
1.0000199
1.0000183
1.0000165
1.0000145
1.0000122
1.0000097
1.000007
1.0000041
1.0000007
0.99999693
0.99999281
0.99998835
0.99998358
0.99997852
0.99997327
0.99996779
0.99996212
0.99995638
0.9999502
0.99994376
0.9999374
0.9999309
0.99992424
0.99991734
0.9999102
0.99990273
0.99989491
0.99988673
0.99987821
0.99986944
0.99986052
0.99985163
0.99984302
0.99983492
0.99982761
0.99982124
0.99981602
0.99981176
1.0000264
1.0000259
1.0000253
1.0000247
1.000024
1.0000233
1.0000225
1.0000217
1.0000208
1.0000198
1.0000187
1.0000174
1.000016
1.0000144
1.0000125
1.0000103
1.000008
1.0000055
1.0000028
0.99999968
0.99999622
0.99999244
0.99998834
0.99998396
0.99997933
0.99997449
0.99996943
0.99996421
0.99995892
0.99995309
0.99994718
0.99994144
0.99993543
0.99992934
0.99992296
0.99991633
0.99990925
0.99990172
0.99989362
0.99988497
0.99987574
0.99986598
0.99985575
0.99984519
0.99983444
0.99982382
0.99981347
0.99980377
0.99979497
1.0000233
1.0000228
1.0000222
1.0000216
1.0000209
1.0000202
1.0000195
1.0000187
1.0000179
1.000017
1.000016
1.0000148
1.0000136
1.0000121
1.0000104
1.0000085
1.0000063
1.000004
1.0000015
0.99999878
0.99999569
0.99999231
0.99998865
0.99998474
0.99998061
0.99997629
0.99997178
0.99996717
0.99996247
0.99995718
0.99995203
0.99994706
0.99994163
0.99993628
0.99993048
0.99992446
0.99991781
0.99991067
0.99990265
0.9998939
0.99988409
0.99987339
0.99986183
0.9998498
0.99983795
0.99982696
0.99981705
0.99980953
0.99980258
1.00002
1.0000192
1.0000184
1.0000177
1.000017
1.0000163
1.0000157
1.0000152
1.0000145
1.0000139
1.0000131
1.0000122
1.0000112
1.00001
1.0000086
1.0000069
1.0000049
1.0000027
1.0000004
0.9999978
0.99999493
0.99999173
0.99998825
0.99998448
0.99998053
0.99997648
0.99997233
0.99996818
0.99996392
0.99995923
0.99995509
0.99995096
0.99994654
0.99994231
0.99993758
0.99993271
0.99992716
0.99992116
0.99991414
0.99990627
0.99989688
0.99988593
0.99987311
0.99985811
0.99984185
0.99982206
0.99980012
0.99977646
0.99975105
1.0000152
1.0000143
1.0000137
1.0000133
1.0000131
1.0000128
1.0000126
1.0000124
1.0000122
1.0000119
1.0000116
1.000011
1.0000103
1.0000093
1.000008
1.0000064
1.0000044
1.000002
0.99999955
0.9999969
0.999994
0.99999073
0.9999871
0.99998317