/*--------------------------------*- C++ -*----------------------------------*\
| =========                 |                                                 |
| \\      /  F ield         | OpenFOAM: The Open Source CFD Toolbox           |
|  \\    /   O peration     | Version:  v2006                                 |
|   \\  /    A nd           | Website:  www.openfoam.com                      |
|    \\/     M anipulation  |                                                 |
\*---------------------------------------------------------------------------*/
FoamFile
{
    version     2.0;
    format      ascii;
    class       volVectorField;
    location    "1500";
    object      U;
}
// * * * * * * * * * * * * * * * * * * * * * * * * * * * * * * * * * * * * * //

dimensions      [0 1 -1 0 0 0 0];


internalField   nonuniform List<vector> 
19765
(
(0.087852532 0.028722088 -9.1558139e-20)
(0.085072727 0.031669949 9.2086716e-20)
(0.078218888 0.033481003 -9.4422873e-20)
(0.070476498 0.033706867 0)
(0.063828014 0.032917144 0)
(0.057792161 0.031283933 2.3190751e-19)
(0.051588232 0.028856015 -1.8512457e-19)
(0.04600828 0.026101874 0)
(0.040560529 0.022790954 4.6764365e-19)
(0.034681253 0.018733945 3.9792366e-20)
(0.029871294 0.014491029 -8.0062603e-19)
(0.026086114 0.0099367038 7.9634604e-19)
(0.022709149 0.0052243662 -8.9694493e-19)
(0.019866952 0.00035445652 -1.0356319e-18)
(0.017806527 -0.0046402786 1.2164232e-18)
(0.01619549 -0.0098922761 0)
(0.014817667 -0.014992171 -2.2959774e-20)
(0.013865703 -0.020071508 1.8335151e-20)
(0.013345376 -0.025311416 -9.561273e-19)
(0.013238547 -0.030641904 8.0041131e-19)
(0.013540133 -0.036112585 -3.4330036e-19)
(0.014211458 -0.041460036 5.9382876e-19)
(0.015271014 -0.046662657 -2.6852819e-19)
(0.016795599 -0.052106194 1.131644e-20)
(0.01874837 -0.057535692 -5.523831e-20)
(0.020886541 -0.062176777 4.3498912e-20)
(0.023214649 -0.066324141 -1.9197446e-19)
(0.025992247 -0.070826849 1.8242733e-19)
(0.029051934 -0.075177748 0)
(0.032223197 -0.079002914 3.3595738e-19)
(0.035768518 -0.08289702 -3.2019373e-19)
(0.0398903 -0.086938997 6.1393777e-19)
(0.045203783 -0.091203429 -5.9218116e-19)
(0.051017198 -0.09495612 2.8536239e-19)
(0.055911627 -0.097261982 -2.8110956e-19)
(0.060517985 -0.09904452 -2.6659566e-19)
(0.066615623 -0.10127308 1.8803921e-22)
(0.073170237 -0.10305505 5.1807772e-19)
(0.079184164 -0.1038912 -2.732498e-19)
(0.086864733 -0.10479186 -2.4794232e-19)
(0.095790135 -0.10522715 2.4256465e-19)
(0.10186972 -0.10374531 -1.5116141e-20)
(0.10725314 -0.10138594 -2.9807655e-20)
(0.11249184 -0.098289935 1.1970896e-19)
(0.11559989 -0.094266331 -2.7104115e-19)
(0.11804084 -0.089483454 1.2117926e-19)
(0.11805324 -0.08410327 0)
(0.11690468 -0.078673684 -1.2738367e-19)
(0.11559884 -0.07379251 0)
(0.079303064 0.016637021 1.4934425e-19)
(0.076273908 0.019275364 1.4378341e-19)
(0.072722609 0.02141998 -6.8326279e-20)
(0.068884762 0.022241573 6.783448e-20)
(0.064996283 0.022156215 -3.3515281e-19)
(0.061288589 0.02136538 2.657001e-19)
(0.05769601 0.020055771 -3.2487972e-20)
(0.054388588 0.018354726 2.5778027e-19)
(0.051239598 0.016268005 3.1456621e-20)
(0.048082658 0.013944955 -2.9494631e-19)
(0.045151835 0.011256558 1.5718468e-20)
(0.042631417 0.0081482471 4.7707533e-19)
(0.040393852 0.0046776836 -7.7145471e-19)
(0.038470915 0.00097055732 2.302125e-19)
(0.037033828 -0.0029316679 -2.6981118e-19)
(0.03588749 -0.007022138 3.1118976e-19)
(0.034863818 -0.011270774 -1.8035309e-20)
(0.03417953 -0.015635841 0)
(0.033942092 -0.020094544 1.9608459e-20)
(0.034112884 -0.024607703 -2.9922508e-19)
(0.034649819 -0.029124183 2.6107263e-19)
(0.035451806 -0.033675027 2.0342875e-20)
(0.036591468 -0.038200982 7.6265104e-21)
(0.038146956 -0.04261392 -1.0745123e-20)
(0.03996532 -0.046931658 -2.7118433e-20)
(0.0418898 -0.051247486 2.2664568e-20)
(0.044031157 -0.055481824 9.2730271e-20)
(0.046496249 -0.059526362 -2.9612268e-19)
(0.049213093 -0.063439304 3.6599348e-19)
(0.052162733 -0.067198485 -1.7666484e-19)
(0.055403979 -0.070706742 1.0650543e-20)
(0.059005269 -0.073871935 0)
(0.062949808 -0.076561851 1.6966658e-19)
(0.067045902 -0.078853646 -7.1446978e-23)
(0.071184059 -0.080895642 -1.5711935e-19)
(0.0754605 -0.082648446 -1.7393675e-19)
(0.079938642 -0.083927766 6.9984424e-23)
(0.08452101 -0.084701497 -1.3380244e-19)
(0.089162375 -0.084967552 1.4280469e-19)
(0.093875307 -0.084551494 1.5133184e-19)
(0.09851143 -0.083301543 1.7388006e-19)
(0.10303302 -0.081269596 -3.2025201e-19)
(0.10745535 -0.078857847 1.8295485e-19)
(0.11172497 -0.075785372 -2.1229923e-20)
(0.1156365 -0.072701376 -8.7366573e-20)
(0.11913909 -0.06948923 1.8075161e-19)
(0.12216973 -0.066365472 -1.4037335e-19)
(0.12472183 -0.063696859 -4.8281685e-20)
(0.12692236 -0.061171048 9.9437508e-20)
(0.083042221 0.0158989 8.1257113e-20)
(0.080753603 0.016054151 4.5189449e-24)
(0.078094282 0.016037165 1.583473e-19)
(0.075203256 0.015899392 -1.7378587e-24)
(0.072330748 0.01537773 -2.4866358e-19)
(0.06949954 0.014564137 3.4199577e-19)
(0.066759604 0.013441316 -8.6960654e-20)
(0.064133159 0.012130402 0)
(0.061658641 0.010521443 0)
(0.059173762 0.0087450647 4.7737481e-20)
(0.05686136 0.0066875465 0)
(0.054796381 0.0042925769 5.3013579e-20)
(0.05292685 0.0016060797 5.0536689e-19)
(0.051308365 -0.0013004269 6.0374207e-19)
(0.05004521 -0.0044139826 -1.0481709e-18)
(0.049016929 -0.0077217559 -3.0541936e-23)
(0.048137876 -0.01118991 4.0125471e-20)
(0.047532136 -0.014800278 -7.3763956e-19)
(0.04725753 -0.018549463 8.2030881e-19)
(0.047328985 -0.022381333 0)
(0.047728093 -0.026243037 5.1320581e-20)
(0.048355646 -0.030190699 -1.5029083e-23)
(0.049336839 -0.03413303 -1.7912993e-20)
(0.050684942 -0.038002734 -3.1034199e-20)
(0.052253302 -0.041794427 1.0943856e-19)
(0.053949413 -0.045580876 -1.2464486e-20)
(0.055934093 -0.049289215 -1.697478e-19)
(0.058243433 -0.052832935 5.201772e-19)
(0.060757766 -0.056267838 -3.1102742e-19)
(0.063513266 -0.059546984 3.6460821e-20)
(0.066524142 -0.062587678 2.5786893e-19)
(0.069764495 -0.065338251 -5.5512951e-19)
(0.073223521 -0.067703828 -2.6494584e-19)
(0.076733873 -0.06982966 4.8488878e-19)
(0.080294803 -0.071784537 4.7119415e-19)
(0.083975759 -0.073423568 -4.2645342e-19)
(0.087768723 -0.074620305 0)
(0.091554881 -0.075537057 1.8935856e-19)
(0.095370446 -0.076093314 -2.1111131e-19)
(0.099166018 -0.076165759 2.3162496e-19)
(0.10283279 -0.07595343 -2.3105325e-19)
(0.10633205 -0.075668096 0)
(0.1097325 -0.074992095 0)
(0.11284377 -0.074046317 2.5745439e-20)
(0.11574825 -0.072901484 0)
(0.11831597 -0.071728836 -5.1290616e-20)
(0.12063382 -0.070447415 2.026297e-19)
(0.12274865 -0.069080633 -1.0023988e-19)
(0.12470125 -0.067572839 0)
(0.082051748 0.011251952 -8.5584019e-20)
(0.08039258 0.011378854 -2.5420157e-19)
(0.078676409 0.011327061 8.250433e-20)
(0.076871032 0.011152117 -4.2208857e-19)
(0.075043894 0.010689015 3.4435146e-19)
(0.073223046 0.010004913 3.5499967e-19)
(0.071429136 0.009075946 -2.7040533e-19)
(0.069696539 0.0080062078 3.7471401e-19)
(0.068008909 0.006680422 4.9088411e-23)
(0.066321891 0.0052495963 -8.8828346e-19)
(0.064723247 0.0036144996 5.1650144e-19)
(0.063263184 0.0017131684 0)
(0.061919009 -0.00042481806 -5.7017689e-20)
(0.060745038 -0.0027303784 -1.0320995e-18)
(0.059812845 -0.0052350597 1.1734447e-18)
(0.059050208 -0.0079369281 1.0589354e-18)
(0.058409698 -0.010766854 -2.4915634e-18)
(0.057983816 -0.013721359 1.4090043e-18)
(0.057832229 -0.016831969 -8.2129198e-19)
(0.057967489 -0.020020047 1.0010413e-18)
(0.058387056 -0.023228628 0)
(0.059016879 -0.026539927 -5.7892678e-19)
(0.059922299 -0.029843852 6.7445067e-19)
(0.061110662 -0.033102417 -3.6991475e-19)
(0.062505276 -0.036308107 6.2099995e-20)
(0.064055047 -0.039512264 -7.4653639e-24)
(0.065853116 -0.042638529 -1.9568473e-19)
(0.067911436 -0.045608884 5.3643037e-19)
(0.070150172 -0.048461414 -3.3328468e-19)
(0.07258575 -0.051151976 -3.5176844e-19)
(0.075210068 -0.053612579 2.957696e-19)
(0.077988627 -0.055812371 6.6941732e-19)
(0.080891451 -0.05768875 -1.7910218e-22)
(0.083819253 -0.059349684 -5.9468643e-19)
(0.086791925 -0.060842999 4.5240179e-19)
(0.089834975 -0.06207112 -5.0261077e-19)
(0.092897673 -0.062948363 4.8950241e-19)
(0.095911702 -0.063592708 -9.6849356e-19)
(0.098913162 -0.063964873 5.0437631e-19)
(0.10183709 -0.063993329 2.0333142e-19)
(0.10462652 -0.063793121 -2.3221732e-19)
(0.10736203 -0.063495496 -5.8388346e-20)
(0.11009557 -0.062922955 2.2892397e-19)
(0.11269127 -0.06223112 -2.3229687e-19)
(0.11526056 -0.061317557 0)
(0.11773073 -0.060241182 1.1550494e-19)
(0.1201879 -0.059052839 -5.7113541e-20)
(0.12259097 -0.057806584 0)
(0.12494862 -0.056552608 0)
(0.082992219 0.0090838131 -7.9946381e-20)
(0.08166354 0.0087150244 -2.3692497e-19)
(0.080298105 0.0083021674 3.0730733e-19)
(0.078900469 0.0078961756 7.8214136e-20)
(0.07751114 0.0073379679 2.3815066e-19)
(0.076137145 0.0066633826 -2.4389662e-19)
(0.074787476 0.005833756 2.4644326e-19)
(0.073482841 0.0049138065 -4.2338907e-19)
(0.072213488 0.0038059609 -8.58818e-20)
(0.070945511 0.0026125023 1.758173e-19)
(0.069743075 0.0012524617 -8.1962587e-19)
(0.0686378 -0.00032302708 8.505808e-19)
(0.067617091 -0.0020965581 9.8179794e-20)
(0.066721964 -0.0040231117 8.2489663e-19)
(0.066004493 -0.0061292901 -1.0898834e-19)
(0.065419181 -0.0084080759 -9.2695731e-19)
(0.06493845 -0.010808465 0)
(0.064631881 -0.013336956 0)
(0.064548582 -0.01601884 0)
(0.064703034 -0.018803986 -5.3582757e-19)
(0.065096867 -0.021651566 8.0609246e-19)
(0.065686406 -0.024575994 -8.2892502e-19)
(0.066514541 -0.027489966 5.2070239e-19)
(0.067597572 -0.030377913 -6.2573682e-20)
(0.06887994 -0.033224738 1.043188e-23)
(0.070315666 -0.036058791 2.4377304e-20)
(0.07196267 -0.038811597 4.409529e-20)
(0.073827845 -0.041428406 -8.1024746e-20)
(0.075850269 -0.043938322 2.2748568e-19)
(0.078031997 -0.046296612 -2.8618924e-19)
(0.080360302 -0.048452556 0)
(0.082803306 -0.050387284 -5.8638004e-19)
(0.08533237 -0.052052898 1.0055028e-18)
(0.087871283 -0.053540799 -4.3120368e-19)
(0.09042471 -0.054882692 -4.2328579e-19)
(0.09300748 -0.056001218 1.4161896e-22)
(0.095585382 -0.056837777 9.248462e-19)
(0.098106275 -0.057503877 -4.5889358e-19)
(0.10059207 -0.057965984 0)
(0.10300912 -0.058173119 0)
(0.1053218 -0.058239234 -1.666522e-19)
(0.10757296 -0.058296811 2.2389614e-19)
(0.10980839 -0.058149211 5.5071524e-20)
(0.11194342 -0.058001665 3.3547176e-19)
(0.11406572 -0.05771573 -5.5364918e-20)
(0.11611617 -0.057410495 -2.7980626e-19)
(0.11813388 -0.05704491 5.591044e-20)
(0.12011528 -0.056533965 0)
(0.12205784 -0.055839903 -3.6152354e-23)
(0.083743504 0.0067884479 4.090938e-24)
(0.082755192 0.0064250056 -5.6761004e-24)
(0.081748178 0.0060044545 0)
(0.080718268 0.0055675356 -3.6143415e-19)
(0.079697703 0.0050116027 7.3004331e-20)
(0.078685868 0.0043637644 2.2315945e-19)
(0.077684451 0.0035974403 7.4836283e-20)
(0.076711814 0.0027566728 1.5331496e-19)
(0.075757438 0.0017708832 7.7368728e-20)
(0.074798492 0.00070852764 -1.5735093e-19)
(0.073887262 -0.00048932466 0)
(0.073049064 -0.0018595391 -2.4965087e-19)
(0.072275368 -0.0033927845 -8.5704077e-20)
(0.071599418 -0.0050596181 1.7804964e-19)
(0.071063985 -0.0068789769 0)
(0.070637849 -0.0088467157 -1.951496e-19)
(0.070302964 -0.010928405 1.035341e-18)
(0.07011599 -0.013127417 -8.9275135e-19)
(0.070119505 -0.015457334 0)
(0.070328808 -0.017877678 9.6011611e-19)
(0.070753353 -0.020354003 -1.2701135e-18)
(0.07136102 -0.022890533 7.8470106e-19)
(0.072172431 -0.025429455 -4.5590018e-19)
(0.073208983 -0.027958407 1.1052022e-19)
(0.074427537 -0.030452291 -9.6961082e-20)
(0.075791332 -0.032926724 -1.3060312e-19)
(0.077338025 -0.035326582 1.1884695e-19)
(0.079070364 -0.037605573 3.6589317e-19)
(0.080941725 -0.039780634 -6.1913156e-19)
(0.082946441 -0.041816933 1.3107947e-22)
(0.085068276 -0.043675238 4.9827298e-19)
(0.087278576 -0.045340359 4.7946837e-19)
(0.089550248 -0.046777376 -4.6452837e-19)
(0.09182672 -0.048050639 -1.1410843e-19)
(0.094108034 -0.049185518 0)
(0.096398252 -0.050132364 4.4047327e-19)
(0.098668609 -0.050853179 -1.0840132e-22)
(0.10088254 -0.051422952 -4.3018177e-19)
(0.10305499 -0.051824229 0)
(0.10516205 -0.052027476 0)
(0.10718376 -0.052105438 -1.0482239e-19)
(0.10915094 -0.052137377 5.2798135e-20)
(0.11110906 -0.052009517 -5.2049702e-20)
(0.11299551 -0.051837912 -5.2817052e-19)
(0.11488865 -0.051541797 4.7081908e-19)
(0.11675065 -0.051179982 0)
(0.11863155 -0.050725889 -5.2794475e-20)
(0.12052463 -0.050179502 0)
(0.12242504 -0.049508229 2.0802476e-19)
(0.08480365 0.0052687936 6.92431e-20)
(0.0839981 0.004813 -1.3644776e-19)
(0.083182635 0.0043350466 -2.6525733e-19)
(0.082361062 0.0038612383 5.3604214e-19)
(0.081556705 0.0033062437 -4.0494054e-19)
(0.080766312 0.0026865365 0)
(0.079987113 0.0019782089 5.4944252e-19)
(0.079233159 0.0012099841 -6.9985144e-20)
(0.078494487 0.00032657682 3.3276264e-23)
(0.077753164 -0.00062492258 -9.257039e-19)
(0.077051197 -0.0016906133 -2.8987477e-23)
(0.076408282 -0.0028998308 5.9473115e-19)
(0.075818459 -0.0042476419 6.0798552e-19)
(0.075308731 -0.0057137633 -1.4094919e-18)
(0.074914048 -0.0073129658 6.4836286e-19)
(0.074612864 -0.0090430594 8.417187e-19)
(0.074394096 -0.010879043 -1.5882362e-18)
(0.074303706 -0.012822681 1.8326197e-23)
(0.074376925 -0.014882488 6.0617815e-19)
(0.074627587 -0.017026641 -8.8704947e-19)
(0.07506349 -0.019229469 7.4870606e-19)
(0.075662453 -0.021486504 5.1652986e-19)
(0.076439362 -0.023747264 2.2792959e-19)
(0.077416344 -0.026002326 -1.9509155e-19)
(0.078558381 -0.028229513 1.3451553e-21)
(0.079836332 -0.030437367 -7.7739472e-20)
(0.081276508 -0.032578465 0)
(0.082877779 -0.034614235 1.3211383e-19)
(0.084601607 -0.036557794 -1.2476213e-19)
(0.086439659 -0.038379043 1.1876611e-19)
(0.088375335 -0.04004599 0)
(0.090383363 -0.041547688 0)
(0.092438571 -0.042855961 4.2858929e-19)
(0.094495227 -0.04402562 -4.2247528e-19)
(0.096550188 -0.045077588 -4.1710829e-19)
(0.098604175 -0.045971188 8.205583e-19)
(0.10063379 -0.046675886 -9.4300097e-23)
(0.10261241 -0.047259273 -1.0076904e-19)
(0.10455003 -0.047706204 -3.9854146e-19)
(0.10642998 -0.047989863 -3.9379269e-19)
(0.10823863 -0.048176134 4.4432675e-19)
(0.11000231 -0.048343887 0)
(0.11175117 -0.048379912 -1.9647288e-19)
(0.11344827 -0.048407238 1.992496e-19)
(0.11514764 -0.048338604 -1.9746985e-19)
(0.11682792 -0.048243993 9.9754966e-20)
(0.11852294 -0.048091755 0)
(0.12023239 -0.04787679 1.9863907e-19)
(0.12196601 -0.047542811 -1.9637724e-19)
(0.085779265 0.0038819276 -1.9361519e-19)
(0.085147536 0.0034446948 1.2711242e-19)
(0.084506897 0.0029835332 2.4713509e-19)
(0.083860899 0.0025186129 -1.2451455e-19)
(0.083230814 0.0019877428 -3.7536247e-19)
(0.082612554 0.0014027672 7.594138e-19)
(0.082002875 0.00074538316 -8.8601657e-19)
(0.081413766 3.5428008e-05 5.1399472e-19)
(0.080836928 -0.0007692324 -1.2873149e-19)
(0.080258251 -0.0016362279 -1.297431e-19)
(0.079713342 -0.0026007788 -5.272332e-19)
(0.07921832 -0.0036859427 9.160029e-24)
(0.07876894 -0.004889685 -1.4820946e-23)
(0.07838764 -0.0061979873 8.3602787e-19)
(0.078103747 -0.0076217346 0)
(0.077901941 -0.0091602144 -2.9488577e-19)
(0.077775653 -0.010795684 0)
(0.077763425 -0.012528274 3.2180612e-19)
(0.077895102 -0.014362386 -1.7112895e-19)
(0.078183562 -0.016272033 0)
(0.078636409 -0.018236179 -4.8356995e-23)
(0.079239582 -0.020247679 -2.1726244e-19)
(0.080003047 -0.022264179 0)
(0.080944965 -0.02427725 -1.7287025e-19)
(0.082037665 -0.026266705 7.5557127e-20)
(0.083257243 -0.028235737 3.4824602e-20)
(0.084621748 -0.030143891 0)
(0.086127985 -0.031957321 -1.1957553e-19)
(0.08774392 -0.033684524 -1.1334302e-19)
(0.089459555 -0.035300593 -1.0838822e-19)
(0.091258113 -0.036779064 0)
(0.09311664 -0.038110844 -2.0272708e-19)
(0.095011952 -0.039273474 0)
(0.096906834 -0.040309681 -9.7762373e-20)
(0.098797036 -0.041236833 8.5780539e-23)
(0.10068022 -0.042025094 8.3091252e-23)
(0.10253603 -0.042651926 3.778044e-19)
(0.10434379 -0.043169165 4.7123119e-19)
(0.1061109 -0.043567002 -7.4030349e-23)
(0.10782366 -0.043826332 -6.9770453e-23)
(0.10947276 -0.043995946 -7.4361153e-19)
(0.11107927 -0.044133351 6.7734176e-23)
(0.11267059 -0.044158003 3.7073813e-19)
(0.1142164 -0.044155385 1.8782013e-19)
(0.11576514 -0.044064015 -1.8639865e-19)
(0.11729968 -0.043929014 9.4072714e-20)
(0.11885254 -0.043725873 9.3965893e-20)
(0.12042592 -0.043448352 -1.8737584e-19)
(0.12202969 -0.043059826 2.7797549e-19)
(0.086776691 0.0028566796 1.2041077e-19)
(0.086260583 0.0024175489 -4.1495166e-19)
(0.08573779 0.0019633232 0)
(0.085213821 0.0015080956 -4.6389715e-19)
(0.084706359 0.001000709 9.3029335e-19)
(0.084211349 0.00044881328 -4.6923129e-19)
(0.083725039 -0.0001632035 -1.1706809e-19)
(0.083257579 -0.00082165887 1.1842089e-19)
(0.082801815 -0.0015601774 2.3663768e-19)
(0.082346435 -0.0023557699 0)
(0.081921652 -0.0032364431 0)
(0.08154086 -0.0042208839 -1.2153883e-19)
(0.081201012 -0.0053086164 0)
(0.08092106 -0.0064895704 -2.501873e-19)
(0.080725865 -0.0077721445 0)
(0.080604349 -0.0091564747 -7.8388393e-19)
(0.080552902 -0.01062934 5.3861284e-19)
(0.080604166 -0.012189764 -5.6101388e-19)
(0.080783516 -0.013839689 8.8627453e-19)
(0.081102506 -0.015557643 6.3091244e-19)
(0.081567822 -0.017326283 -5.146112e-19)
(0.082170207 -0.019137707 1.8596228e-19)
(0.082917084 -0.020954938 -1.7714543e-19)
(0.083823404 -0.022769022 1.4689311e-23)
(0.084867333 -0.024562894 6.8653646e-20)
(0.086028964 -0.026337001 -6.2584067e-20)
(0.08732109 -0.028056352 0)
(0.088739121 -0.029691467 1.0841246e-19)
(0.090255715 -0.031248646 1.0317732e-19)
(0.091860426 -0.032706714 0)
(0.093537085 -0.034043384 -1.9156516e-19)
(0.095265109 -0.035251521 3.732667e-19)
(0.097023264 -0.036312668 0)
(0.098780407 -0.037263027 -9.0571807e-19)
(0.10053158 -0.038117431 7.1940861e-19)
(0.10227311 -0.038851332 0)
(0.10398712 -0.039446092 3.5275737e-19)
(0.1056575 -0.039946951 -3.5275861e-19)
(0.10728934 -0.040345516 0)
(0.10887135 -0.040624847 2.6104962e-19)
(0.11039636 -0.040827811 -3.4969342e-19)
(0.11188368 -0.041007744 0)
(0.11335212 -0.04108948 8.7315305e-20)
(0.11478248 -0.041155695 -3.5371771e-19)
(0.11621092 -0.041146836 3.513515e-19)
(0.11762741 -0.041109757 3.5448456e-19)
(0.11905765 -0.041021122 -4.4257965e-19)
(0.12050498 -0.040877641 4.4135233e-19)
(0.12197898 -0.040634565 -4.3666586e-19)
(0.08770843 0.0019629668 -5.6244177e-20)
(0.087292275 0.0015496287 1.1076755e-19)
(0.086869688 0.0011211843 2.1552631e-19)
(0.08644575 0.00068803926 5.4101092e-19)
(0.086036829 0.00021049654 -5.4146938e-19)
(0.08563913 -0.0003064189 -4.3596409e-19)
(0.085249524 -0.00087538223 9.7694582e-19)
(0.084876833 -0.0014869521 -5.4742151e-19)
(0.084515411 -0.0021676957 -5.4559312e-19)
(0.084156061 -0.0029015319 8.7381614e-19)
(0.083825038 -0.003710594 -4.40214e-19)
(0.08353378 -0.0046099994 2.2178192e-19)
(0.083280203 -0.005600266 2.2327834e-19)
(0.08308056 -0.0066741072 9.0425377e-19)
(0.082956264 -0.00783783 -9.1818372e-19)
(0.082899249 -0.009092099 0)
(0.082907915 -0.010427093 0)
(0.083010331 -0.011841031 4.4684061e-23)
(0.083228326 -0.013334075 0)
(0.083572285 -0.014888188 5.4655733e-19)
(0.0840484 -0.016488308 -5.8769993e-19)
(0.084650963 -0.01812656 6.4498475e-19)
(0.085385749 -0.019771021 -3.1487786e-19)
(0.086264576 -0.021411755 4.814036e-19)
(0.087270186 -0.02303429 -6.1674751e-20)
(0.088385399 -0.02463717 -1.1286809e-19)
(0.089619182 -0.026189724 -1.0474315e-19)
(0.090966188 -0.027665737 -2.9571888e-19)
(0.092402834 -0.029069369 -5.6466654e-19)
(0.093918508 -0.030382518 1.8134833e-19)
(0.095497655 -0.031585999 1.7599904e-19)
(0.097121487 -0.032673697 -1.7203481e-19)
(0.098770434 -0.033630172 -6.7632637e-19)
(0.10041798 -0.034485052 1.3434221e-18)
(0.10205879 -0.0352509 -6.6847877e-19)
(0.10368794 -0.035908231 0)
(0.10528917 -0.036442092 -4.9438173e-19)
(0.10684914 -0.036889535 4.9528179e-19)
(0.10837142 -0.037244514 1.644369e-19)
(0.10984579 -0.037493719 -2.4544063e-19)
(0.11126665 -0.03767151 -1.6448967e-19)
(0.11265049 -0.037820788 0)
(0.11401345 -0.037882336 -8.2306442e-20)
(0.11533928 -0.037920687 -2.5001145e-19)
(0.11666015 -0.037889252 5.7999509e-19)
(0.11796745 -0.037823257 -2.5077239e-19)
(0.11928491 -0.037703638 -1.6703094e-19)
(0.12061601 -0.037526422 -2.498469e-19)
(0.12197046 -0.037256049 -1.6488639e-19)
(0.088601578 0.0012666811 5.2610687e-19)
(0.088260212 0.00087254936 2.0720296e-19)
(0.087913221 0.00046564681 -5.0424964e-19)
(0.087565927 5.3464574e-05 4.0438359e-19)
(0.087232761 -0.00039663897 -8.0821275e-19)
(0.086910408 -0.00088166335 3.0437962e-19)
(0.086596135 -0.0014124027 3.0265087e-19)
(0.086297727 -0.0019823868 -4.0589675e-19)
(0.086010629 -0.0026131838 0)
(0.085727422 -0.0032933827 -8.0596889e-19)
(0.085471008 -0.0040408647 8.0929391e-19)
(0.085251322 -0.0048680762 -8.1243496e-19)
(0.085067033 -0.0057760685 6.1120282e-19)
(0.084932272 -0.0067594339 -4.1078331e-19)
(0.084865656 -0.0078229607 1.2454451e-18)
(0.084861315 -0.0089675623 8.4068888e-19)
(0.084919027 -0.010185719 -1.2844499e-18)
(0.08506314 -0.011475083 2.2006111e-19)
(0.085312552 -0.012834645 1.3696717e-18)
(0.085676555 -0.014249077 -9.5857964e-19)
(0.086160954 -0.015704875 -5.1063105e-19)
(0.086762015 -0.017194686 5.5457359e-19)
(0.087484474 -0.018690969 -9.6585548e-19)
(0.088337692 -0.020182581 2.4701913e-19)
(0.08930783 -0.021657431 -5.5610982e-20)
(0.09038003 -0.023113233 1.0215156e-19)
(0.091560516 -0.024522675 9.5147679e-20)
(0.092843457 -0.02586251 5.3905691e-19)
(0.09420823 -0.027135611 -1.7210831e-19)
(0.095644383 -0.028326403 4.9882043e-19)
(0.097137124 -0.029418299 0)
(0.098669324 -0.030406242 0)
(0.10022295 -0.031277283 0)
(0.10177512 -0.032056646 3.1152413e-19)
(0.10332039 -0.032755309 -3.1069082e-19)
(0.10485322 -0.033357162 3.091648e-19)
(0.10635867 -0.033849726 -3.0799592e-19)
(0.10782577 -0.034265193 1.5449884e-19)
(0.10925682 -0.034598694 -6.1689458e-19)
(0.11064255 -0.034838772 4.612421e-19)
(0.11197825 -0.035015309 -1.5467087e-19)
(0.11327931 -0.03516687 3.1215933e-19)
(0.11455686 -0.035240344 0)
(0.11579996 -0.035294865 -7.8505034e-20)
(0.11703394 -0.035287851 1.5623241e-19)
(0.11825355 -0.035252896 -1.5751658e-19)
(0.11947837 -0.035172673 3.1486522e-19)
(0.12071256 -0.035045224 1.5703171e-19)
(0.12196412 -0.034833592 -2.2727426e-23)
(0.089433915 0.00067366925 -2.9559381e-19)
(0.08915541 0.00030569944 0)
(0.088871755 -7.5009617e-05 -7.6983654e-24)
(0.088587674 -0.0004631049 0)
(0.088316487 -0.00088474775 -3.7753643e-19)
(0.088055293 -0.0013383725 9.4605264e-20)
(0.08780202 -0.0018330332 5.6359996e-19)
(0.087563586 -0.0023644371 1.8852225e-19)
(0.08733653 -0.0029500672 -5.61311e-19)
(0.087114831 -0.003582021 -7.4533564e-19)
(0.086918712 -0.0042747535 7.4613957e-19)
(0.08675695 -0.0050385448 0)
(0.086628843 -0.0058747559 3.7320814e-19)
(0.086546825 -0.0067793343 -3.7482755e-19)
(0.08652726 -0.0077558426 7.5450755e-19)
(0.08656593 -0.0088052954 -7.6078529e-19)
(0.086663586 -0.0099218728 5.3644578e-23)
(0.086841541 -0.011102825 7.8871398e-19)
(0.087116288 -0.0123463 -1.2204782e-18)
(0.087496201 -0.013639067 8.4857729e-19)
(0.087986789 -0.014968853 -1.1217377e-18)
(0.088585449 -0.016328809 -2.4152261e-19)
(0.089296385 -0.017695077 0)
(0.090127159 -0.019055608 0)
(0.091066149 -0.020400129 0)
(0.092100603 -0.021725878 0)
(0.093234624 -0.02300834 0)
(0.094462122 -0.024226661 1.6418142e-19)
(0.09576489 -0.025382586 -6.3065058e-19)
(0.097132732 -0.026462554 3.055886e-19)
(0.098551584 -0.027451977 5.9669041e-19)
(0.10000567 -0.028346441 -5.8675963e-19)
(0.10147826 -0.029134866 5.7994585e-19)
(0.10294931 -0.029838464 -5.7854332e-19)
(0.10441327 -0.030466717 2.8908125e-19)
(0.105864 -0.031006334 -2.8836335e-19)
(0.10728754 -0.031446924 4.319025e-19)
(0.1086744 -0.031815818 5.7863797e-19)
(0.11002588 -0.032109415 -2.8946101e-19)
(0.11133322 -0.032318354 -1.2428043e-24)
(0.11259233 -0.032467679 0)
(0.11381693 -0.032590019 -1.4691755e-19)
(0.1150159 -0.032641303 1.462235e-19)
(0.1161801 -0.032670623 2.960014e-19)
(0.11733179 -0.032642817 -3.6856462e-19)
(0.11846646 -0.032585321 -3.7156344e-19)
(0.11960184 -0.032483477 2.9716621e-19)
(0.12074168 -0.032335437 0)
(0.1218934 -0.032109223 1.4696524e-19)
(0.090217607 0.00019969888 -2.7702554e-19)
(0.089989023 -0.00014558509 -2.7277389e-19)
(0.089755914 -0.00050297789 2.6579914e-19)
(0.089522718 -0.00086871453 0)
(0.089301478 -0.0012643638 -2.648574e-19)
(0.089089752 -0.0016894184 -6.3452971e-24)
(0.088885961 -0.0021516508 5.2556671e-19)
(0.088696333 -0.0026483357 -5.2617203e-19)
(0.088518245 -0.0031938717 5.2134692e-19)
(0.088346868 -0.00378285 0)
(0.088200136 -0.0044271032 0)
(0.088085892 -0.0051352126 0)
(0.088003949 -0.0059086825 -3.4297124e-19)
(0.087965359 -0.0067444228 -6.8645845e-19)
(0.087984614 -0.0076450563 1.3770172e-18)
(0.08805876 -0.0086115905 -1.3832804e-18)
(0.088189233 -0.0096394139 3.4925351e-19)
(0.088394815 -0.010725501 2.4096834e-23)
(0.088689989 -0.011867417 7.2985408e-19)
(0.089082321 -0.013053585 3.7854167e-19)
(0.089576984 -0.01427278 -1.9408669e-23)
(0.090172112 -0.015518608 0)
(0.090871514 -0.016770242 2.1703816e-19)
(0.091681316 -0.018015218 -2.0164123e-19)
(0.092591536 -0.019244617 0)
(0.093591159 -0.020455424 -8.4451909e-20)
(0.094682695 -0.02162557 0)
(0.095859916 -0.022736291 1.5034655e-19)
(0.097106586 -0.023788547 -2.8955284e-19)
(0.098412843 -0.024770486 -5.6245769e-19)
(0.099765339 -0.025669247 8.7566696e-23)
(0.10114949 -0.026481054 8.1422807e-19)
(0.10254975 -0.027196459 -5.3786702e-19)
(0.10394837 -0.027833679 2.6881032e-19)
(0.10533985 -0.028401133 0)
(0.10671772 -0.028887779 -8.0722442e-19)
(0.1080689 -0.029284936 4.0510117e-23)
(0.10938522 -0.029616513 -5.4198181e-19)
(0.11066724 -0.02987985 4.0740188e-19)
(0.11190666 -0.030067095 -4.0748658e-19)
(0.11309986 -0.030200087 7.4840426e-23)
(0.11425963 -0.030307863 6.915327e-19)
(0.1153919 -0.030351679 1.3782055e-19)
(0.11649021 -0.030375428 -2.7904679e-19)
(0.11757275 -0.030347891 -2.7815344e-19)
(0.11863663 -0.030294141 3.5056104e-19)
(0.11969684 -0.03020111 7.0105086e-20)
(0.12075734 -0.030068163 1.3993511e-19)
(0.12182385 -0.02986403 -2.0826257e-19)
(0.090947396 -0.00019691519 0)
(0.090760744 -0.0005185063 -8.5294813e-20)
(0.09057018 -0.00085219452 0)
(0.090379557 -0.0011954731 0)
(0.090199983 -0.0015659245 0)
(0.090029395 -0.0019638139 0)
(0.089866727 -0.0023957922 -6.5433013e-19)
(0.08971761 -0.0028603032 6.5375741e-19)
(0.089580173 -0.0033692291 6.4675855e-19)
(0.089450561 -0.0039190436 -1.2828281e-18)
(0.089344786 -0.0045194577 6.3877154e-19)
(0.089269939 -0.005177665 0)
(0.089226262 -0.0058952193 6.3196378e-19)
(0.089223667 -0.006669736 -3.1530199e-19)
(0.089275085 -0.0075030843 -3.1524484e-19)
(0.089378553 -0.0083962028 1.2624264e-18)
(0.089535994 -0.0093453682 -6.351825e-19)
(0.089764061 -0.010347368 -6.4404341e-19)
(0.090075554 -0.011399346 1.7455135e-23)
(0.090477333 -0.01249105 3.3984581e-19)
(0.090974235 -0.013612147 -3.5532676e-19)
(0.091564927 -0.014756617 -3.7727184e-19)
(0.09225287 -0.015906091 3.8882041e-19)
(0.093043045 -0.017048068 0)
(0.093926753 -0.018174632 8.3265549e-20)
(0.094894391 -0.019282595 -3.0614889e-25)
(0.095947235 -0.020351994 0)
(0.097079021 -0.02136585 0)
(0.098275153 -0.022324469 0)
(0.099526122 -0.023217401 1.0372604e-18)
(0.10081925 -0.024033188 -5.1479519e-23)
(0.10214097 -0.024768512 -7.5417099e-19)
(0.10347676 -0.025415211 4.9944672e-19)
(0.10481074 -0.025988887 0)
(0.10613739 -0.026496967 -2.5079418e-19)
(0.10745 -0.026930223 2.5127842e-19)
(0.10873618 -0.027281371 -2.5192831e-19)
(0.10998864 -0.027571171 7.6193624e-19)
(0.11120729 -0.027797784 0)
(0.11238416 -0.027954765 0)
(0.11351593 -0.028060914 5.1555528e-19)
(0.11461419 -0.028141457 -5.2102832e-19)
(0.11568325 -0.028163475 5.1994128e-19)
(0.1167178 -0.028164568 -3.9478071e-19)
(0.11773368 -0.028118302 0)
(0.1187285 -0.028046039 -6.61864e-20)
(0.11971563 -0.027936545 -6.6209074e-20)
(0.12069866 -0.027789522 -1.9835621e-19)
(0.12168245 -0.027576895 -1.3124375e-19)
(0.091630848 -0.0005159989 -3.2521541e-19)
(0.091478629 -0.00081632915 8.0063896e-20)
(0.091323138 -0.0011285386 1.561999e-19)
(0.091167812 -0.0014510636 0)
(0.091022817 -0.001798436 0)
(0.090886455 -0.0021714809 1.5457901e-19)
(0.090758065 -0.0025759599 1.5291165e-19)
(0.090642782 -0.003011174 0)
(0.090539329 -0.0034870232 0)
(0.090444676 -0.0040013599 2.9825752e-19)
(0.090373177 -0.0045622131 0)
(0.090331291 -0.0051756539 0)
(0.090319611 -0.0058432226 -5.8362728e-19)
(0.09034709 -0.0065630521 2.903647e-19)
(0.090425337 -0.0073364182 0)
(0.090553166 -0.0081641534 -5.7804475e-19)
(0.090732842 -0.0090431815 -5.7978176e-19)
(0.090979209 -0.0099701709 5.8593152e-19)
(0.091303637 -0.010941973 1.1934285e-18)
(0.091712367 -0.011949409 -6.1361727e-19)
(0.092209895 -0.012982924 -6.3849504e-19)
(0.092795287 -0.014036813 3.3724568e-19)
(0.093471662 -0.015094734 -3.5018403e-19)
(0.094243053 -0.016144394 -8.3461151e-20)
(0.095101808 -0.017178643 7.7271337e-20)
(0.096039472 -0.018194192 0)
(0.097056352 -0.019172924 2.6605522e-19)
(0.098146206 -0.020099427 0)
(0.099295805 -0.020973522 4.9095528e-19)
(0.100496 -0.021785956 -2.9422809e-23)
(0.10173473 -0.022526502 -4.7106516e-19)
(0.10299933 -0.023192271 -6.8047707e-23)
(0.10427619 -0.023776239 -4.6416683e-19)
(0.10555098 -0.024291939 -4.6543404e-19)
(0.10681825 -0.024746052 -1.1692981e-18)
(0.10807115 -0.025130916 9.3919815e-19)
(0.10929796 -0.025440491 0)
(0.1104922 -0.02569312 -2.3808969e-19)
(0.11165329 -0.025887689 0)
(0.11277361 -0.026018947 4.8056467e-19)
(0.11385013 -0.026103429 2.4263318e-19)
(0.1148936 -0.026163583 -5.8750562e-23)
(0.11590658 -0.026170769 -4.9046777e-19)
(0.11688519 -0.026158304 4.396037e-24)
(0.11784271 -0.026103081 -2.4793788e-19)
(0.11877755 -0.026024276 2.49998e-19)
(0.11970119 -0.025911987 -2.5016444e-19)
(0.12061727 -0.025766677 5.623612e-19)
(0.1215292 -0.02556162 6.204239e-20)
(0.09226807 -0.00077767527 -3.0546715e-19)
(0.092144995 -0.0010575031 7.519947e-20)
(0.0920193 -0.0013491394 2.9359035e-19)
(0.091893917 -0.0016517894 7.314452e-19)
(0.091778241 -0.0019773993 -5.8135738e-19)
(0.091670872 -0.0023271985 -1.4480204e-19)
(0.091571524 -0.0027061835 -1.4309425e-19)
(0.091484893 -0.0031142931 -5.6981298e-19)
(0.091410212 -0.0035598017 8.4320861e-19)