/*--------------------------------*- C++ -*----------------------------------*\
| =========                 |                                                 |
| \\      /  F ield         | OpenFOAM: The Open Source CFD Toolbox           |
|  \\    /   O peration     | Version:  v2006                                 |
|   \\  /    A nd           | Website:  www.openfoam.com                      |
|    \\/     M anipulation  |                                                 |
\*---------------------------------------------------------------------------*/
FoamFile
{
    version     2.0;
    format      ascii;
    class       volVectorField;
    location    "1500";
    object      UMean;
}
// * * * * * * * * * * * * * * * * * * * * * * * * * * * * * * * * * * * * * //

dimensions      [0 1 -1 0 0 0 0];


internalField   nonuniform List<vector> 
19765
(
(0.093914492 0.032543403 -8.6154734e-20)
(0.091626183 0.036149008 8.6296659e-20)
(0.08488023 0.038549283 -8.8009184e-20)
(0.077091953 0.039321329 0)
(0.070429252 0.039092308 0)
(0.064377652 0.038027589 2.1212794e-19)
(0.058025836 0.036129666 -1.6805383e-19)
(0.052383063 0.033823479 0)
(0.046711817 0.030920475 4.1739077e-19)
(0.04039395 0.027188543 3.5203652e-20)
(0.035226657 0.023276852 -6.995675e-19)
(0.031169624 0.019039583 6.865228e-19)
(0.02749799 0.01449464 -7.6070273e-19)
(0.024372137 0.0098330449 -8.6092419e-19)
(0.022068521 0.0051237368 9.8573219e-19)
(0.020105063 0.0001233689 0)
(0.018255341 -0.0049040192 -1.988209e-20)
(0.016842195 -0.0098368558 1.9040626e-20)
(0.015966942 -0.014911668 -1.0958614e-18)
(0.015550754 -0.020081287 9.7276575e-19)
(0.015558395 -0.025362385 -4.3182958e-19)
(0.015905336 -0.030581103 7.6131633e-19)
(0.01660843 -0.035670788 -3.4749581e-19)
(0.017761996 -0.040941174 1.4597077e-20)
(0.019309684 -0.046216251 -6.9824306e-20)
(0.021016678 -0.050857962 5.3477194e-20)
(0.022919494 -0.055076037 -2.3084391e-19)
(0.025259809 -0.059596058 2.1557934e-19)
(0.027875549 -0.063990803 0)
(0.030630251 -0.067919314 3.8689491e-19)
(0.033767253 -0.07190245 -3.6516745e-19)
(0.037464667 -0.076000762 6.9450109e-19)
(0.042270373 -0.080284716 -6.6514941e-19)
(0.047567349 -0.084114924 3.1858376e-19)
(0.05208233 -0.086636203 -3.1208023e-19)
(0.056383297 -0.088664933 -2.94503e-19)
(0.062078122 -0.091085171 1.8659074e-22)
(0.068226286 -0.093094745 5.6736977e-19)
(0.073914423 -0.094221967 -2.9810219e-19)
(0.081169831 -0.09539547 -2.695822e-19)
(0.08961879 -0.096119168 2.628506e-19)
(0.095484554 -0.095053373 -1.6326654e-20)
(0.10071364 -0.093163765 -3.2081427e-20)
(0.10586157 -0.090602206 1.2869426e-19)
(0.1090167 -0.087121471 -2.8987589e-19)
(0.11159491 -0.082959505 1.2958981e-19)
(0.11188974 -0.078228853 0)
(0.11111977 -0.073444329 -1.3521575e-19)
(0.11019194 -0.06915098 0)
(0.084924001 0.019065872 1.4106855e-19)
(0.08189302 0.022194151 1.3572134e-19)
(0.078304353 0.024978162 -6.4431825e-20)
(0.074403129 0.026337431 6.3957328e-20)
(0.070405241 0.026748164 -3.1602239e-19)
(0.066547692 0.026414489 2.5070435e-19)
(0.062780889 0.025545784 -3.0664317e-20)
(0.059275531 0.024237739 2.4367191e-19)
(0.055923921 0.022530532 2.9754891e-20)
(0.052572537 0.020551082 -2.7921534e-19)
(0.049420276 0.01814739 1.4901228e-20)
(0.046650374 0.015281896 4.5292656e-19)
(0.044154836 0.012047773 -7.3291824e-19)
(0.041966217 0.0085660606 2.188775e-19)
(0.040239972 0.0048626533 -2.5662688e-19)
(0.038794331 0.00097342199 2.9546239e-19)
(0.0374498 -0.0030554237 -1.7068235e-20)
(0.036393368 -0.0072236951 0)
(0.035762339 -0.011537256 1.8923168e-20)
(0.035541087 -0.015940362 -3.0292131e-19)
(0.035692309 -0.020371086 2.7411758e-19)
(0.036117267 -0.024841327 2.1838999e-20)
(0.03687277 -0.029290772 8.3009839e-21)
(0.038029064 -0.033650476 -1.1773339e-20)
(0.039438398 -0.037927571 -2.9715029e-20)
(0.040953053 -0.042193277 2.4771774e-20)
(0.042690265 -0.046381646 1.0117278e-19)
(0.044755052 -0.050412638 -3.2242238e-19)
(0.047068179 -0.054331752 3.9758327e-19)
(0.049617231 -0.058105694 -1.9156325e-19)
(0.05246857 -0.061650434 1.153092e-20)
(0.055683154 -0.064878746 0)
(0.059244931 -0.067670505 1.8321489e-19)
(0.062959017 -0.070102384 -6.9656892e-23)
(0.06671488 -0.072297378 -1.693191e-19)
(0.070622838 -0.074211069 -1.8736891e-19)
(0.074755428 -0.075678586 6.9622024e-23)
(0.079002473 -0.076678071 -1.4402439e-19)
(0.083318551 -0.077191879 1.5368921e-19)
(0.08773403 -0.07705758 1.6286089e-19)
(0.092096072 -0.076149755 1.8709046e-19)
(0.096337243 -0.074537599 -3.4448868e-19)
(0.10050032 -0.072557569 1.9669947e-19)
(0.10454128 -0.069890769 -2.2824767e-20)
(0.10826971 -0.067232658 -9.3688488e-20)
(0.11162935 -0.064380582 1.9438207e-19)
(0.11456151 -0.06160597 -1.507533e-19)
(0.11707799 -0.059211494 -5.177556e-20)
(0.11925091 -0.057046378 1.0646231e-19)
(0.087676589 0.01913209 7.7055952e-20)
(0.085397346 0.019586195 8.6273825e-24)
(0.082744109 0.019845947 1.4981345e-19)
(0.079828709 0.019978522 3.0985637e-24)
(0.076892122 0.01970734 -2.344206e-19)
(0.073967509 0.019134025 3.2193995e-19)
(0.071115643 0.018237611 -8.1711766e-20)
(0.068349218 0.017149149 0)
(0.065723116 0.015749968 0)
(0.06308839 0.014196306 4.4598644e-20)
(0.060602493 0.012348774 0)
(0.05834339 0.010142124 4.9303125e-20)
(0.056273285 0.0076359787 4.6823117e-19)
(0.05443381 0.0049062841 5.5702853e-19)
(0.052924601 0.0019520366 -9.6189985e-19)
(0.051642922 -0.0011953702 -2.6752004e-23)
(0.050494573 -0.0044850843 3.6094104e-20)
(0.049590734 -0.0079275319 -6.5439685e-19)
(0.049008368 -0.01154178 7.1437881e-19)
(0.048763386 -0.015264667 0)
(0.048842968 -0.019036774 5.3512479e-20)
(0.049160662 -0.022891902 -1.8067307e-23)
(0.049810134 -0.02674343 -2.1036244e-20)
(0.050809218 -0.030546632 -3.6712153e-20)
(0.052027793 -0.034288682 1.2756874e-19)
(0.053379383 -0.038025502 -1.4249408e-20)
(0.055014067 -0.041691111 -1.9147341e-19)
(0.056969285 -0.045219506 5.8065385e-19)
(0.059132567 -0.048652901 -3.4424283e-19)
(0.061536253 -0.051938428 4.0097234e-20)
(0.064200118 -0.055005331 2.8220222e-19)
(0.067102458 -0.057803071 -6.0505389e-19)
(0.070233894 -0.060242717 -2.8784309e-19)
(0.073432777 -0.062450139 5.2518278e-19)
(0.076687337 -0.064480515 5.0923545e-19)
(0.080070057 -0.066208298 -4.6015912e-19)
(0.083586399 -0.067525995 0)
(0.087114702 -0.068573155 2.0377427e-19)
(0.090679972 -0.0692721 -2.2696046e-19)
(0.094251093 -0.069517847 2.4878676e-19)
(0.097722604 -0.069489269 -2.4788492e-19)
(0.10103037 -0.069371361 0)
(0.10426271 -0.068890613 0)
(0.10723079 -0.068180474 2.7532477e-20)
(0.11001013 -0.067239183 0)
(0.11248102 -0.066276351 -5.5002786e-20)
(0.11470551 -0.065217015 2.1806036e-19)
(0.11672005 -0.064080216 -1.0803702e-19)
(0.11859261 -0.062823376 0)
(0.085845843 0.013765558 -8.250034e-20)
(0.084133743 0.014171644 -2.4485497e-19)
(0.082372873 0.014374584 7.9324545e-20)
(0.080520606 0.014448963 -4.0522272e-19)
(0.078627494 0.01422288 3.3005792e-19)
(0.076724553 0.01376593 3.3976949e-19)
(0.074843018 0.013052577 -2.5823826e-19)
(0.073000848 0.01218912 3.5728328e-19)
(0.071201763 0.011057649 5.0856981e-23)
(0.069400787 0.0098223405 -8.4216583e-19)
(0.06766455 0.0083738226 4.8844586e-19)
(0.066045367 0.0066468618 0)
(0.064532235 0.0046771564 -5.3543946e-20)
(0.063171064 0.002531343 -9.6516476e-19)
(0.062030207 0.00017036084 1.0918013e-18)
(0.061051894 -0.002391867 9.7777676e-19)
(0.060185475 -0.0050794848 -2.278804e-18)
(0.059509986 -0.0079028202 1.2743554e-18)
(0.059088941 -0.010898517 -7.3171305e-19)
(0.05893846 -0.013996371 8.7282505e-19)
(0.059059491 -0.017148972 0)
(0.059393312 -0.020396703 -6.2885787e-19)
(0.059986519 -0.023632556 7.8000541e-19)
(0.06085795 -0.026850205 -4.3269818e-19)
(0.061937052 -0.030035058 7.138623e-20)
(0.063173783 -0.033224139 -1.0105151e-23)
(0.064656799 -0.03633806 -2.1706284e-19)
(0.06640048 -0.039316731 5.8881087e-19)
(0.068329186 -0.042194465 -3.6280045e-19)
(0.070456889 -0.04491854 -3.8059038e-19)
(0.072780348 -0.047429031 3.1846386e-19)
(0.075269562 -0.049697132 7.1803404e-19)
(0.07789637 -0.051660193 -1.7289716e-22)
(0.080562639 -0.053419157 -6.3394903e-19)
(0.083277426 -0.055012689 4.8115297e-19)
(0.086069518 -0.056349757 -5.3365962e-19)
(0.088900993 -0.057353446 5.1902268e-19)
(0.091701792 -0.058134332 -1.025378e-18)
(0.094497607 -0.058649694 5.3346923e-19)
(0.097236805 -0.058833945 2.1487312e-19)
(0.099863753 -0.05879842 -2.451379e-19)
(0.10243432 -0.058665755 -6.1577651e-20)
(0.1050036 -0.058267555 2.413283e-19)
(0.10745174 -0.057756771 -2.4470528e-19)
(0.10987636 -0.057037633 0)
(0.11220643 -0.056176628 1.2173438e-19)
(0.11452175 -0.055196145 -6.0343259e-20)
(0.11679621 -0.054146275 0)
(0.11903795 -0.053048846 0)
(0.086299246 0.011742974 -7.7584757e-20)
(0.084938721 0.011537092 -2.2960391e-19)
(0.083543568 0.011282784 2.9727253e-19)
(0.08211019 0.011039701 7.5570142e-20)
(0.080668713 0.010639016 2.297902e-19)
(0.079228843 0.010119751 -2.3506528e-19)
(0.077805067 0.009441589 2.3712201e-19)
(0.076409435 0.0086716836 -4.0691645e-19)
(0.075043565 0.0077098543 -8.2367241e-20)
(0.073675001 0.0066661792 1.6828162e-19)
(0.072353215 0.0054538393 -7.8318229e-19)
(0.071109975 0.0040215188 8.1114972e-19)
(0.069939772 0.0023890591 9.3372343e-20)
(0.06887833 0.0005991069 7.8234167e-19)
(0.067975615 -0.0013795388 -1.0300496e-19)
(0.0671966 -0.0035333812 -8.7173177e-19)
(0.066513619 -0.0058080163 0)
(0.065988027 -0.0082178106 0)
(0.065670168 -0.010790441 0)
(0.065576509 -0.013476735 -4.8630183e-19)
(0.065711184 -0.016244656 7.5068497e-19)
(0.066037754 -0.019096379 -8.5179764e-19)
(0.066587628 -0.021943919 5.7964367e-19)
(0.067388532 -0.024786819 -7.0860233e-20)
(0.068387775 -0.02760555 9.1146096e-24)
(0.069540015 -0.03041812 2.6856377e-20)
(0.070901276 -0.033156027 4.8060223e-20)
(0.072482292 -0.035775988 -8.7600155e-20)
(0.074226119 -0.03830244 2.4437265e-19)
(0.076133311 -0.040686021 -3.0593537e-19)
(0.078194781 -0.042881584 0)
(0.080382173 -0.044870293 -6.226022e-19)
(0.082668522 -0.046603871 1.0649319e-18)
(0.084979273 -0.048166219 -4.5557914e-19)
(0.087312488 -0.04958323 -4.4636212e-19)
(0.089684604 -0.050784307 1.3632153e-22)
(0.092069106 -0.051717152 9.727905e-19)
(0.094413501 -0.052483941 -4.8205735e-19)
(0.096732652 -0.053050614 0)
(0.09900003 -0.053371902 0)
(0.1011814 -0.053554538 -1.7460137e-19)
(0.10330533 -0.053719602 2.343381e-19)
(0.1054178 -0.053688255 5.7606515e-20)
(0.10744521 -0.053652295 3.5060582e-19)
(0.10946271 -0.053483218 -5.782979e-20)
(0.11142113 -0.053293343 -2.9207365e-19)
(0.11335643 -0.053046599 5.8324685e-20)
(0.11526306 -0.052690642 0)
(0.11714389 -0.052166937 -3.2326975e-23)
(0.086628786 0.0091854684 1.4987243e-24)
(0.085596198 0.0089794145 -3.0827432e-24)
(0.08455396 0.0087085223 0)
(0.083485054 0.0084187353 -3.5121465e-19)
(0.082415439 0.0080044032 7.0864834e-20)
(0.081344403 0.0074945368 2.1644594e-19)
(0.080278146 0.0068624568 7.2487181e-20)
(0.079227228 0.0061535298 1.4838588e-19)
(0.078189421 0.0052963793 7.4757297e-20)
(0.077142844 0.0043649467 -1.5181423e-19)
(0.076128112 0.0032962919 0)
(0.075169847 0.0020518392 -2.4024979e-19)
(0.074264682 0.00064269049 -8.231241e-20)
(0.07344205 -0.00090358396 1.706792e-19)
(0.072742347 -0.0026099338 0)
(0.072142222 -0.0044677744 -1.8596896e-19)
(0.071624426 -0.0064398022 9.8238568e-19)
(0.071239257 -0.0085352975 -8.4305709e-19)
(0.071029376 -0.010770686 0)
(0.071011463 -0.013106501 8.9380137e-19)
(0.071194503 -0.015514822 -1.1686033e-18)
(0.071554481 -0.017991558 7.712361e-19)
(0.072107701 -0.020475292 -4.9261257e-19)
(0.072879968 -0.022964332 1.2209454e-19)
(0.07383166 -0.025435038 -1.0633544e-19)
(0.074927776 -0.027895198 -1.4153986e-19)
(0.076206127 -0.030289097 1.2774432e-19)
(0.077672877 -0.032578912 3.9088078e-19)
(0.079283925 -0.034778064 -6.5809665e-19)
(0.081033097 -0.036847543 1.2152206e-22)
(0.082907576 -0.03875183 5.2612278e-19)
(0.084881551 -0.040475539 5.0510717e-19)
(0.086929359 -0.041982718 -4.8843355e-19)
(0.088994787 -0.043333477 -1.1975813e-19)
(0.09107267 -0.044548598 0)
(0.093169081 -0.045581415 4.6117008e-19)
(0.095261244 -0.046397092 -1.0512738e-22)
(0.097311582 -0.047066488 -4.4960654e-19)
(0.099329733 -0.047570084 0)
(0.10129715 -0.047880337 0)
(0.1031937 -0.048067906 -1.0936724e-19)
(0.10503945 -0.0482089 5.5050529e-20)
(0.10687902 -0.048193889 -5.4255038e-20)
(0.10865772 -0.048138061 -5.501842e-19)
(0.11044377 -0.047961874 4.9031006e-19)
(0.11220464 -0.047724644 0)
(0.11398466 -0.047400106 -5.4943059e-20)
(0.11578144 -0.046986574 0)
(0.11759834 -0.046458512 2.1639422e-19)
(0.087394192 0.0076148527 6.7734456e-20)
(0.08654448 0.0072704149 -1.3335023e-19)
(0.085690301 0.0069014228 -2.5891885e-19)
(0.084828435 0.0065382617 5.2287731e-19)
(0.083975478 0.0060913818 -3.9469648e-19)
(0.083128814 0.0055792052 0)
(0.08228818 0.0049773802 5.3469818e-19)
(0.081462179 0.004315873 -6.8066483e-20)
(0.080646158 0.003538331 3.6728478e-23)
(0.0798234 0.0026960586 -8.9831934e-19)
(0.079026536 0.0017397704 -3.4178363e-23)
(0.078274438 0.0006387779 5.7613928e-19)
(0.077564898 -0.00060091034 5.8815673e-19)
(0.076921968 -0.0019607049 -1.3617048e-18)
(0.076378484 -0.0034586608 6.253753e-19)
(0.075918918 -0.005089582 8.0974388e-19)
(0.075533066 -0.006826605 -1.5231364e-18)
(0.075262061 -0.008676143 2.972611e-24)
(0.07514112 -0.010649149 5.7687503e-19)
(0.075185476 -0.012714614 -8.394063e-19)
(0.075403047 -0.014850873 7.0286162e-19)
(0.075777599 -0.017050207 5.0643235e-19)
(0.076321375 -0.019260307 2.4094003e-19)
(0.077057447 -0.021476916 -2.1177781e-19)
(0.077955472 -0.023679746 1.4538203e-21)
(0.078988208 -0.025872117 -8.3246001e-20)
(0.080182585 -0.02800636 0)
(0.081540788 -0.030050019 1.3988316e-19)
(0.083026656 -0.0320126 -1.3157543e-19)
(0.084631727 -0.033861009 1.2487824e-19)
(0.086342269 -0.035566039 0)
(0.088135235 -0.037116011 0)
(0.089986742 -0.038481948 4.4815391e-19)
(0.091851483 -0.039714164 -4.4110198e-19)
(0.093722472 -0.040829785 -4.3501497e-19)
(0.095601934 -0.041791245 8.5516685e-19)
(0.09747095 -0.042570966 -9.0591582e-23)
(0.099301822 -0.043231494 -1.0487417e-19)
(0.10110053 -0.0437568 -4.1464223e-19)
(0.10285428 -0.044122835 -4.0957438e-19)
(0.10454915 -0.044392045 4.618824e-19)
(0.10620283 -0.044637629 0)
(0.10784554 -0.044755143 -2.0408793e-19)
(0.10944548 -0.044860993 2.0686492e-19)
(0.11104933 -0.044873776 -2.0498135e-19)
(0.11263955 -0.044859719 1.0351204e-19)
(0.11424638 -0.044790021 0)
(0.11587107 -0.044660803 2.0602343e-19)
(0.11752543 -0.044421564 -2.0364735e-19)
(0.088080149 0.0060703209 -1.8997937e-19)
(0.087405602 0.0057347226 1.2462425e-19)
(0.08672789 0.0053714435 2.4204455e-19)
(0.086043314 0.0050040614 -1.2188465e-19)
(0.085368139 0.0045679748 -3.6721559e-19)
(0.084698259 0.0040768422 7.4260608e-19)
(0.08403245 0.0035123544 -8.6572698e-19)
(0.08337811 0.0028954718 5.0204724e-19)
(0.082730892 0.0021833888 -1.2561986e-19)
(0.08207763 0.0014119095 -1.2650318e-19)
(0.081446285 0.00054330975 -5.1380205e-19)
(0.080852091 -0.00044655102 1.2380929e-24)
(0.080293654 -0.001554808 -2.0791732e-23)
(0.079791067 -0.0027687714 8.1257392e-19)
(0.079371762 -0.0041021366 0)
(0.079025108 -0.0055520096 -2.8571798e-19)
(0.078745354 -0.0070991701 0)
(0.078567178 -0.0087475425 3.1031431e-19)
(0.078520274 -0.010503831 -1.6449871e-19)
(0.078618586 -0.012342993 0)
(0.078870034 -0.014246712 -4.602741e-23)
(0.079264743 -0.016206331 -2.1232012e-19)
(0.079811832 -0.018178854 0)
(0.080529493 -0.020158012 -1.8517049e-19)
(0.081394207 -0.022126022 8.0747631e-20)
(0.082384157 -0.024082928 3.6944613e-20)
(0.083518636 -0.025987857 0)
(0.084797526 -0.027811724 -1.2571204e-19)
(0.086190827 -0.029560029 -1.187734e-19)
(0.087688752 -0.031205329 -1.1331285e-19)
(0.089277105 -0.032723157 0)
(0.090934858 -0.034103622 -2.1124202e-19)
(0.092639999 -0.035323388 0)
(0.094355546 -0.036421836 -1.0164034e-19)
(0.096074131 -0.037413155 8.1346695e-23)
(0.097794781 -0.038269333 7.9245738e-23)
(0.099500725 -0.038969655 3.9206424e-19)
(0.10117025 -0.03956269 4.8877627e-19)
(0.10280746 -0.040037407 -7.1706172e-23)
(0.10440177 -0.040376199 -6.8043685e-23)
(0.10594333 -0.040626147 -7.7067244e-19)
(0.10744629 -0.040842041 6.6314949e-23)
(0.10893746 -0.040947306 3.8404988e-19)
(0.11039098 -0.04102578 1.9449445e-19)
(0.11184855 -0.041018045 -1.9300591e-19)
(0.1132963 -0.040968939 9.7386165e-20)
(0.11476316 -0.040855579 9.7259345e-20)
(0.11625253 -0.0406728 -1.9392529e-19)
(0.11777673 -0.04038536 2.8767882e-19)
(0.088856441 0.0049514543 1.1841178e-19)
(0.088297681 0.0045923948 -4.077914e-19)
(0.087736698 0.0042165145 0)
(0.087173882 0.0038409361 -4.5532799e-19)
(0.086622162 0.0034117559 9.1270054e-19)
(0.086077613 0.0029382588 -4.602226e-19)
(0.085537725 0.0024046923 -1.1475179e-19)
(0.085009048 0.001825735 1.1605614e-19)
(0.084487177 0.0011670626 2.3174098e-19)
(0.083961642 0.00045444918 0)
(0.0834563 -0.00034220669 0)
(0.082983687 -0.0012425042 -1.1886495e-19)
(0.082542915 -0.0022454084 0)
(0.082151007 -0.0033420168 -2.4432765e-19)
(0.08183114 -0.0045431266 0)
(0.081575935 -0.0058473138 -7.6374316e-19)
(0.081382491 -0.0072403297 5.238288e-19)
(0.081280339 -0.0087243883 -5.4462835e-19)
(0.081294682 -0.010303523 8.5832246e-19)
(0.08143799 -0.01195723 6.0913237e-19)
(0.081717635 -0.01366991 -4.9472676e-19)
(0.082127343 -0.01543313 1.8089922e-19)
(0.082674379 -0.017210607 -1.8103101e-19)
(0.083373298 -0.018993759 1.5992565e-23)
(0.084205769 -0.020767483 7.2741207e-20)
(0.085154135 -0.022530496 -6.5912175e-20)
(0.086232672 -0.02424731 0)
(0.087439663 -0.025892127 1.1333564e-19)
(0.088749633 -0.027468469 1.0757873e-19)
(0.090152509 -0.028953084 0)
(0.091634383 -0.030325139 -1.9905099e-19)
(0.093176287 -0.031576552 3.8741076e-19)
(0.094758045 -0.032688042 0)
(0.096348722 -0.033692632 -9.3835359e-19)
(0.097940861 -0.034602406 7.4481039e-19)
(0.099531904 -0.035394442 0)
(0.10110683 -0.036051675 3.6499361e-19)
(0.10264852 -0.036616064 -3.6485767e-19)
(0.10415942 -0.037078455 0)
(0.10563069 -0.037423517 2.6995265e-19)
(0.10705465 -0.037692075 -3.615233e-19)
(0.10844467 -0.037934053 0)
(0.10981962 -0.038079593 9.0244232e-20)
(0.11116318 -0.038207565 -3.6549527e-19)
(0.11250652 -0.03826206 3.6304399e-19)
(0.11384187 -0.038287896 3.6621711e-19)
(0.11519215 -0.038263767 -4.5720241e-19)
(0.11656175 -0.038187124 4.5590586e-19)
(0.11796183 -0.03801699 -4.5106688e-19)
(0.089579171 0.0039381011 -5.5426125e-20)
(0.089123047 0.0035958215 1.0909122e-19)
(0.08866434 0.003236563 2.1211388e-19)
(0.08820345 0.0028733113 5.3228343e-19)
(0.087752876 0.002464361 -5.325557e-19)
(0.087308782 0.0020162325 -4.287041e-19)
(0.086868994 0.0015162451 9.6023838e-19)
(0.086439325 0.00097474697 -5.3800014e-19)
(0.086016199 0.00036462105 -5.3590473e-19)
(0.085591098 -0.00029571273 8.5793856e-19)
(0.08518497 -0.0010301195 -4.3212639e-19)
(0.084808448 -0.0018544828 2.1764394e-19)
(0.084461125 -0.0027688951 2.189929e-19)
(0.084157656 -0.0037670453 8.8648141e-19)
(0.083917968 -0.0048573116 -8.9957867e-19)
(0.083736956 -0.0060392049 0)
(0.083613622 -0.007302132 0)
(0.083573483 -0.0086470309 4.226469e-23)
(0.083638184 -0.010075981 0)
(0.083818914 -0.011571911 5.3111531e-19)
(0.08412269 -0.013121032 -5.6921482e-19)
(0.084545752 -0.014715349 6.2225025e-19)
(0.085094257 -0.016324251 -3.1633604e-19)
(0.085779669 -0.017937507 5.0618729e-19)
(0.086587322 -0.019542152 -6.4897838e-20)
(0.087502632 -0.021136044 -1.1817872e-19)
(0.088536189 -0.022687956 -1.0928954e-19)
(0.089685291 -0.024174615 -3.077307e-19)
(0.090928061 -0.025597782 -5.8631102e-19)
(0.092254401 -0.026937593 1.879922e-19)
(0.093650794 -0.028175946 1.8223125e-19)
(0.095099883 -0.029305795 -1.7796156e-19)
(0.096583086 -0.030310928 -6.9913157e-19)
(0.098074064 -0.031218328 1.3877056e-18)
(0.099565451 -0.032038201 -6.9014656e-19)
(0.10105331 -0.032752185 0)
(0.10252375 -0.033346437 -5.1021385e-19)
(0.10396254 -0.03385547 5.1100733e-19)
(0.10537104 -0.034272434 1.6965419e-19)
(0.10674107 -0.034585104 -2.5322112e-19)
(0.10806648 -0.034826471 -1.6967828e-19)
(0.10935888 -0.035037211 0)
(0.11063409 -0.035161432 -8.4895508e-20)
(0.11187851 -0.03526187 -2.5782725e-19)
(0.11311964 -0.03529397 5.981493e-19)
(0.11435097 -0.035292379 -2.5859437e-19)
(0.11559356 -0.035239446 -1.7223682e-19)
(0.11685165 -0.035132116 -2.5763637e-19)
(0.11813628 -0.034936692 -1.7003398e-19)
(0.090299587 0.0031458314 5.1929497e-19)
(0.089919506 0.0028109541 2.0442667e-19)
(0.089536885 0.0024623477 -4.9719241e-19)
(0.089153401 0.0021097862 3.9864443e-19)
(0.088779952 0.0017186317 -7.9655242e-19)
(0.088413209 0.0012932081 2.9995304e-19)
(0.088051041 0.00082266618 2.9815222e-19)
(0.087698755 0.00031427505 -3.9985059e-19)
(0.087353295 -0.00025406168 0)
(0.087007803 -0.00086897665 -7.934034e-19)
(0.086680686 -0.0015498392 7.9659375e-19)
(0.086381125 -0.0023097666 -7.9955411e-19)
(0.08610909 -0.0031495171 6.0126558e-19)
(0.085877355 -0.0040645436 -4.0397757e-19)
(0.085703223 -0.0050614423 1.2242573e-18)
(0.085583216 -0.0061402868 8.2563732e-19)
(0.085517614 -0.0072930153 -1.2600842e-18)
(0.085528651 -0.0085196376 2.1564669e-19)
(0.08563506 -0.0098208783 1.3402586e-18)
(0.08584687 -0.011182313 -9.3619956e-19)
(0.086170706 -0.012591567 -4.9741939e-19)
(0.086604243 -0.014041269 5.3828211e-19)
(0.087152824 -0.015505381 -9.6919503e-19)
(0.087825544 -0.016972471 2.5798394e-19)
(0.088610385 -0.018431346 -5.8194421e-20)
(0.08949529 -0.019879578 1.064524e-19)
(0.090488163 -0.021289465 9.8862332e-20)
(0.091585635 -0.022640051 5.5884195e-19)
(0.09276867 -0.023932039 -1.7808777e-19)
(0.094027414 -0.025148333 5.1546867e-19)
(0.095348904 -0.026273117 0)
(0.096717266 -0.027300371 0)
(0.098115373 -0.02821639 0)
(0.099520507 -0.029043978 3.2099626e-19)
(0.10092553 -0.029792008 -3.2001147e-19)
(0.10232574 -0.030445276 3.1839383e-19)
(0.10370816 -0.030992191 -3.1717114e-19)
(0.105061 -0.03146258 1.5907942e-19)
(0.10638469 -0.031850938 -6.3519481e-19)
(0.10767166 -0.032146816 4.7495913e-19)
(0.10891667 -0.032378712 -1.5926001e-19)
(0.11013083 -0.032582893 3.2138852e-19)
(0.11132531 -0.032709776 0)
(0.11249095 -0.032816048 -8.0829672e-20)
(0.11364949 -0.032861577 1.6087225e-19)
(0.11479711 -0.032878736 -1.6218947e-19)
(0.11595129 -0.032851669 3.2421425e-19)
(0.11711666 -0.032779013 1.6170168e-19)
(0.11830247 -0.032626587 -2.2410657e-23)
(0.090972798 0.0024525704 -2.9219878e-19)
(0.090657982 0.0021368745 0)
(0.090340518 0.001807624 -6.4465776e-24)
(0.090021919 0.0014721534 0)
(0.089712502 0.0011026639 -3.727612e-19)
(0.089409294 0.00070190937 9.3401576e-20)
(0.089110656 0.00026082004 5.5630392e-19)
(0.088821407 -0.00021559518 1.8609038e-19)
(0.08853922 -0.00074527458 -5.5388956e-19)
(0.088258526 -0.001318651 -7.3534554e-19)
(0.087995724 -0.0019514513 7.361186e-19)
(0.087758897 -0.0026545413 0)
(0.087548372 -0.0034290706 3.6806208e-19)
(0.087375421 -0.0042717361 -3.6957573e-19)
(0.087255251 -0.0051876872 7.4370871e-19)
(0.087185596 -0.0061773227 -7.4934428e-19)
(0.087167627 -0.0072344379 5.0600956e-23)
(0.087220884 -0.0083583476 7.7551466e-19)
(0.087361724 -0.0095487712 -1.1986403e-18)
(0.087599176 -0.010793329 8.3212793e-19)
(0.087939488 -0.012080796 -1.0976728e-18)
(0.088381251 -0.01340433 -2.3565749e-19)
(0.088929274 -0.014741543 0)
(0.089590846 -0.016080388 0)
(0.090355772 -0.017411017 0)
(0.09121403 -0.01873082 0)
(0.092171477 -0.020015057 0)
(0.093224333 -0.021244686 1.696671e-19)
(0.094355881 -0.02241954 -6.5070214e-19)
(0.095556581 -0.023524737 3.1493574e-19)
(0.096814035 -0.024546247 6.1445248e-19)
(0.098113594 -0.025478735 -6.0384561e-19)
(0.099439378 -0.026310418 5.9658169e-19)
(0.1007715 -0.027060396 -5.9486806e-19)
(0.10210302 -0.027736314 2.9715388e-19)
(0.10342855 -0.02832555 -2.963947e-19)
(0.10473579 -0.028818377 4.4392426e-19)
(0.10601455 -0.029240145 5.9470384e-19)
(0.10726456 -0.029586647 -2.9751618e-19)
(0.10847848 -0.029849281 1.7067694e-24)
(0.10965174 -0.030052005 0)
(0.1107944 -0.030225685 -1.5101801e-19)
(0.11191528 -0.030328875 1.5032873e-19)
(0.11300679 -0.030409061 3.0430207e-19)
(0.11408791 -0.030432807 -3.7894701e-19)
(0.11515545 -0.03042693 -3.8203303e-19)
(0.11622513 -0.030377932 3.0555796e-19)
(0.11730108 -0.030284601 0)
(0.11839172 -0.030116918 1.5114178e-19)
(0.091618615 0.001889689 -2.7418797e-19)
(0.091355372 0.0015894029 -2.6989756e-19)
(0.091089568 0.0012766461 2.6289028e-19)
(0.090823018 0.00095693971 0)
(0.090565063 0.00060718366 -2.6191074e-19)
(0.090313191 0.00022893597 -7.5344101e-24)
(0.090066083 -0.00018561196 5.1963064e-19)
(0.089828186 -0.0006331044 -5.2027652e-19)
(0.089597711 -0.0011283665 5.1538831e-19)
(0.089370192 -0.0016645746 0)
(0.089160273 -0.0022546741 0)
(0.088975161 -0.0029077731 0)
(0.088815474 -0.0036252393 -3.3895228e-19)
(0.088691258 -0.004404654 -6.7832885e-19)
(0.088615979 -0.0052500469 1.3603986e-18)
(0.088588291 -0.0061619859 -1.3658032e-18)
(0.088609975 -0.0071356054 3.4459591e-19)
(0.088698321 -0.0081697056 1.484079e-23)
(0.088867701 -0.0092632754 7.1894377e-19)
(0.089126274 -0.010405542 3.7242274e-19)
(0.089479876 -0.011586265 -1.3182215e-23)
(0.089927719 -0.01279906 0)
(0.090474135 -0.014024465 2.17474e-19)
(0.091124964 -0.015250291 -2.0834826e-19)
(0.091871399 -0.016467706 0)
(0.092705012 -0.01767401 -8.7374416e-20)
(0.093630107 -0.018847036 0)
(0.09464265 -0.019969447 1.5495748e-19)
(0.095727817 -0.021040488 -2.980225e-19)
(0.096876436 -0.022047137 -5.7836145e-19)
(0.098076675 -0.022976906 8.0542567e-23)
(0.099314971 -0.023825113 8.362396e-19)
(0.10057656 -0.024581626 -5.5222627e-19)
(0.10184385 -0.02526274 2.7588303e-19)
(0.10311017 -0.025875211 0)
(0.1043697 -0.0264085 -8.2830023e-19)
(0.1056108 -0.026854425 3.7943624e-23)
(0.10682461 -0.027235085 -5.5615639e-19)
(0.10801036 -0.027547283 4.1810338e-19)
(0.10916097 -0.027783811 -4.1826456e-19)
(0.11027234 -0.027965488 7.2178093e-23)
(0.11135405 -0.028119679 7.0987121e-19)
(0.11241212 -0.028210134 1.4150293e-19)
(0.11344116 -0.028279023 -2.8650606e-19)
(0.11445674 -0.028296876 -2.8563689e-19)
(0.11545688 -0.028287956 3.6000727e-19)
(0.11645496 -0.028240308 7.2001258e-20)
(0.1174551 -0.028153735 1.4373827e-19)
(0.11846406 -0.02799923 -2.1394647e-19)
(0.092222472 0.0014059456 0)
(0.092003204 0.0011241855 -8.4494996e-20)
(0.091781538 0.00083013259 0)
(0.091559049 0.00052783689 0)
(0.091344492 0.00019839443 0)
(0.091135706 -0.00015752431 0)
(0.090931787 -0.00054659595 -6.4788576e-19)
(0.090736835 -0.00096670507 6.4739271e-19)
(0.090549604 -0.0014301167 6.4036985e-19)
(0.090366522 -0.0019320915 -1.2700873e-18)
(0.090200769 -0.002483314 6.3247698e-19)
(0.090058848 -0.0030914516 0)
(0.089941638 -0.0037579743 6.2568269e-19)
(0.089858178 -0.0044810993 -3.1214057e-19)
(0.089820488 -0.0052639493 -3.1203846e-19)
(0.089827937 -0.0061071562 1.2490287e-18)
(0.089882735 -0.0070068408 -6.2808968e-19)
(0.090000272 -0.0079614152 -6.3649155e-19)
(0.090193262 -0.0089693205 2.0509659e-23)
(0.090469102 -0.01002106 3.3525458e-19)
(0.090833226 -0.011107229 -3.5001962e-19)
(0.09128529 -0.012221821 -3.7090499e-19)
(0.091829198 -0.013347723 3.892158e-19)
(0.09246963 -0.014472912 0)
(0.093198866 -0.015589334 8.6138331e-20)
(0.094009701 -0.016694216 5.5267913e-25)
(0.09490525 -0.017767611 0)
(0.095881341 -0.018793652 0)
(0.096924722 -0.019771128 0)
(0.098026594 -0.020688542 1.0644893e-18)
(0.099175667 -0.021534681 -5.0842448e-23)
(0.10035931 -0.022305358 -7.7320589e-19)
(0.10156373 -0.022991768 5.1190926e-19)
(0.10277319 -0.023607796 0)
(0.10398123 -0.024159387 -2.5694813e-19)
(0.1051817 -0.024637684 2.574563e-19)
(0.10636346 -0.025035771 -2.5814428e-19)
(0.10751863 -0.025372834 7.8075961e-19)
(0.10864599 -0.025646533 0)
(0.10973859 -0.025850933 0)
(0.11079271 -0.02600397 5.2853079e-19)
(0.11181715 -0.026129478 -5.3417152e-19)
(0.11281622 -0.026196563 5.3317583e-19)
(0.11378557 -0.02624149 -4.048483e-19)
(0.11473867 -0.026239211 0)
(0.11567392 -0.026210537 -6.7892652e-20)
(0.11660321 -0.026145167 -6.792443e-20)
(0.11753025 -0.026043227 -2.0351575e-19)
(0.11846077 -0.02587849 -1.3467892e-19)
(0.09279386 0.0010066624 -3.2256236e-19)
(0.092610692 0.00074129307 7.9395882e-20)
(0.092425374 0.00046409233 1.5485615e-19)
(0.092239433 0.00017799768 0)
(0.092060928 -0.00013272909 0)
(0.091888062 -0.00046808443 1.5325937e-19)
(0.091720244 -0.0008338657 1.5159813e-19)
(0.091561284 -0.0012288815 0)
(0.091410363 -0.0016633893 0)
(0.091264667 -0.0021342013 2.9571181e-19)
(0.091136088 -0.0026502106 0)
(0.091030545 -0.0032179226 0)
(0.090949131 -0.0038388406 -5.7871315e-19)
(0.090900031 -0.0045116452 2.8791014e-19)
(0.090894046 -0.0052387384 0)
(0.090931098 -0.0060207515 -5.7289678e-19)
(0.09101369 -0.006854532 -5.7436524e-19)
(0.091155591 -0.0077382034 5.8018195e-19)
(0.091368112 -0.0086698022 1.1809574e-18)
(0.091657978 -0.0096408605 -6.0667797e-19)
(0.092030234 -0.010642694 -6.3051634e-19)
(0.092484851 -0.011669619 3.3247964e-19)
(0.093025337 -0.012706436 -3.501242e-19)
(0.093655417 -0.013741487 -8.5498829e-20)
(0.094368234 -0.014767318 7.9718963e-20)
(0.095157535 -0.01578111 0)
(0.096025507 -0.016764862 2.7338642e-19)
(0.096967921 -0.017704015 0)
(0.097972831 -0.018597035 5.0333856e-19)
(0.099031802 -0.01943372 -3.3708359e-23)
(0.10013406 -0.020203975 -4.823661e-19)
(0.10126778 -0.020904073 -6.2985726e-23)
(0.10242005 -0.021526367 -4.7504831e-19)
(0.10357668 -0.022082825 -4.7625235e-19)
(0.10473142 -0.022578779 -1.196383e-18)
(0.10587793 -0.023006817 9.6101537e-19)
(0.10700557 -0.023361157 0)
(0.10810731 -0.023658707 -2.4367363e-19)
(0.1091816 -0.023897886 0)
(0.11022171 -0.024073851 4.9203424e-19)
(0.11122419 -0.024202344 2.4845678e-19)
(0.11219733 -0.024304537 -5.665738e-23)
(0.11314378 -0.024353617 -5.0240534e-19)
(0.11406034 -0.024381616 2.5068158e-24)
(0.11495831 -0.02436672 -2.5404833e-19)
(0.11583668 -0.024327523 2.5618596e-19)
(0.11670571 -0.024254984 -2.5639601e-19)
(0.11756898 -0.024149869 5.7645001e-19)
(0.11843083 -0.023987362 6.3608349e-20)
(0.093328738 0.00066810931 -3.032425e-19)
(0.093176462 0.00041942865 7.4641023e-20)
(0.093022357 0.0001591146 2.9135028e-19)
(0.092867702 -0.00011082006 7.2588555e-19)
(0.092720029 -0.0004033865 -5.7695027e-19)
(0.092577828 -0.00071907839 -1.4371888e-19)
(0.092440822 -0.0010629265 -1.4202229e-19)
(0.092312556 -0.0014344355 -5.6564264e-19)
(0.092192593 -0.0018422071 8.3700187e-19)