/*--------------------------------*- C++ -*----------------------------------*\
| =========                 |                                                 |
| \\      /  F ield         | OpenFOAM: The Open Source CFD Toolbox           |
|  \\    /   O peration     | Version:  v2006                                 |
|   \\  /    A nd           | Website:  www.openfoam.com                      |
|    \\/     M anipulation  |                                                 |
\*---------------------------------------------------------------------------*/
FoamFile
{
    version     2.0;
    format      ascii;
    class       volVectorField;
    location    "1500";
    object      wallShearStress;
}
// * * * * * * * * * * * * * * * * * * * * * * * * * * * * * * * * * * * * * //

dimensions      [1 -1 -2 0 0 0 0];


internalField   uniform (0 0 0);

boundaryField
{
    Side
    {
        type            empty;
    }
    Inlet
    {
        type            calculated;
        value           uniform (0 0 0);
    }
    Wing
    {
        type            calculated;
        value           nonuniform List<vector> 
139
(
(-3.0257933e-05 -1.0368054e-05 3.1893236e-23)
(-2.9342572e-05 -1.059065e-05 -3.1760375e-23)
(-2.6809186e-05 -9.5582356e-06 3.1727737e-23)
(-2.2832135e-05 -9.059945e-06 0)
(-1.9817267e-05 -8.3044209e-06 0)
(-1.696761e-05 -7.3907089e-06 -6.4937614e-23)
(-1.4724952e-05 -6.0577005e-06 4.8539198e-23)
(-1.2203635e-05 -4.833278e-06 1.1754944e-38)
(-1.0539323e-05 -3.3553994e-06 -1.0500749e-22)
(-8.6648091e-06 -1.9989963e-06 -8.0228117e-24)
(-7.062866e-06 -9.954903e-07 1.463312e-22)
(-5.959083e-06 -2.5506596e-07 -1.293091e-22)
(-4.9415004e-06 3.3752013e-07 1.3020572e-22)
(-4.2182444e-06 8.1204278e-07 1.3652413e-22)
(-3.8736069e-06 1.253689e-06 -1.5147766e-22)
(-3.7544299e-06 1.8245593e-06 0)
(-3.7742469e-06 2.5066188e-06 3.0690173e-24)
(-3.8489718e-06 3.3339546e-06 -2.6578744e-24)
(-3.9893659e-06 4.3055159e-06 1.516428e-22)
(-4.2985762e-06 5.4374813e-06 -1.3868479e-22)
(-4.6417905e-06 6.7504744e-06 6.5074676e-23)
(-4.9538178e-06 8.1463983e-06 -1.2236725e-22)
(-5.6480338e-06 9.59766e-06 5.9580529e-23)
(-6.5365224e-06 1.1273144e-05 -2.7133661e-24)
(-7.0105166e-06 1.3095345e-05 1.4191833e-23)
(-7.2886557e-06 1.4856391e-05 -1.1801988e-23)
(-8.4610484e-06 1.6462207e-05 5.5041563e-23)
(-9.9032885e-06 1.8372276e-05 -5.5216683e-23)
(-1.0793136e-05 2.0422775e-05 -1.4693679e-39)
(-1.2289492e-05 2.2389638e-05 -1.1245825e-22)
(-1.4352844e-05 2.4405988e-05 1.1243065e-22)
(-1.6900257e-05 2.6527e-05 -2.2824591e-22)
(-2.0145188e-05 2.9535723e-05 2.2932692e-22)
(-2.1973208e-05 3.2999382e-05 -1.1497345e-22)
(-2.3755666e-05 3.6000757e-05 1.1632325e-22)
(-2.695006e-05 3.7922666e-05 1.142826e-22)
(-3.1125352e-05 4.0193993e-05 2.0364856e-25)
(-3.4122488e-05 4.3097275e-05 -2.3509622e-22)
(-3.8415072e-05 4.495354e-05 1.2750743e-22)
(-4.4088243e-05 4.6413012e-05 1.1921965e-22)
(-4.8441735e-05 4.8787188e-05 -1.1879982e-22)
(-5.0262679e-05 5.0160272e-05 7.4405468e-24)
(-5.4253367e-05 4.9127343e-05 1.4890966e-23)
(-5.5290911e-05 4.9547744e-05 -5.9605885e-23)
(-5.7093222e-05 4.7396459e-05 1.3492314e-22)
(-5.6914077e-05 4.5785152e-05 -5.9546676e-23)
(-5.5887812e-05 4.2721418e-05 5.8774718e-39)
(-5.4234243e-05 3.9460608e-05 6.0706718e-23)
(-5.2922389e-05 3.6192185e-05 0)
(-1.6591355e-05 -1.4838902e-06 -4.0150821e-21)
(-1.3807675e-05 -8.4167969e-07 -1.2783501e-37)
(-1.3198463e-05 -5.4057317e-08 -2.2560951e-22)
(-1.5023022e-05 3.4022661e-07 -6.3270158e-23)
(-1.8065599e-05 5.2021348e-07 1.016082e-21)
(-2.0468073e-05 4.5400692e-07 -4.789589e-22)
(-2.2027055e-05 3.3879374e-07 9.1835496e-40)
(-2.3270045e-05 1.8688507e-07 3.2216006e-23)
(-2.4256808e-05 2.0995529e-08 9.6769641e-23)
(-2.5100583e-05 -1.4604276e-07 1.07555e-27)
(-2.5825681e-05 -3.3054811e-07 3.2493263e-23)
(-2.6382958e-05 -4.9461332e-07 3.2514796e-23)
(-2.6921053e-05 -6.5570376e-07 -5.0654811e-28)
(-2.7413906e-05 -8.2847038e-07 -3.2720722e-23)
(-2.7753775e-05 -9.9245063e-07 2.622438e-22)
(-2.7907496e-05 -1.1328998e-06 1.3157291e-22)
(-2.8004577e-05 -1.2437111e-06 -1.3180195e-22)
(-2.8241317e-05 -1.3723519e-06 2.8698593e-42)
(-2.8606999e-05 -1.5512713e-06 -1.315073e-22)
(-2.9093219e-05 -1.8100887e-06 -9.1835496e-41)
(-2.9643448e-05 -2.1559854e-06 -1.6438474e-23)
(-3.0052889e-05 -2.5491937e-06 1.6476626e-23)
(-3.0204945e-05 -2.9527211e-06 1.3221463e-22)
(-2.9999976e-05 -3.3176454e-06 -1.3214395e-22)
(-2.9732731e-05 -3.6825193e-06 1.3478001e-22)
(-2.9485269e-05 -4.0597135e-06 -1.3494554e-22)
(-2.9042156e-05 -4.4183535e-06 1.8367099e-40)
(-2.8597693e-05 -4.7969901e-06 -6.6700433e-23)
(-2.8128985e-05 -5.1723792e-06 -1.6661634e-23)
(-2.780637e-05 -5.6625208e-06 1.6643072e-23)
(-2.7660463e-05 -6.233317e-06 -3.3118828e-23)
(-2.777021e-05 -7.0973974e-06 -9.1835496e-40)
(-2.8397752e-05 -8.2427047e-06 0)
(-2.9580544e-05 -9.7606502e-06 -2.9387359e-39)
(-5.2232624e-05 -9.5048231e-07 2.8804096e-23)
(-5.0361157e-05 -1.3635676e-06 3.0885124e-23)
(-4.8915957e-05 -1.6788943e-06 -5.2422013e-27)
(-4.7646324e-05 -1.9572917e-06 -6.6210346e-23)
(-4.6456519e-05 -2.2211478e-06 3.9058832e-24)
(-4.5240657e-05 -2.4826836e-06 5.8699366e-23)
(-4.3794226e-05 -2.7497962e-06 1.2540042e-22)
(-4.2297529e-05 -2.9839208e-06 1.2573835e-22)
(-4.1002435e-05 -3.1798415e-06 5.0813256e-22)
(-3.9910056e-05 -3.3614074e-06 -2.5255047e-22)
(-3.8917206e-05 -3.5489084e-06 -2.5268181e-22)
(-3.7951618e-05 -3.7477038e-06 2.6050873e-22)
(-3.6824826e-05 -3.9665019e-06 -5.1169948e-22)
(-3.5546577e-05 -4.1743854e-06 -7.8637428e-24)
(-3.4319945e-05 -4.356666e-06 -9.9738897e-22)
(-3.3160788e-05 -4.5502361e-06 1.0031794e-21)
(-3.1784438e-05 -4.7295681e-06 2.3509887e-38)
(-3.0282319e-05 -4.8746345e-06 -4.4543128e-27)
(-2.8873796e-05 -5.001975e-06 1.9775331e-21)
(-2.7268371e-05 -5.1127667e-06 -1.9609102e-21)
(-2.5388897e-05 -5.1458374e-06 1.8997779e-24)
(-2.3335863e-05 -5.1330037e-06 3.8526408e-21)
(-2.0693039e-05 -4.9311515e-06 -3.6865428e-24)
(-1.9204824e-05 -4.8704985e-06 1.4708988e-23)
(-1.1493082e-05 -3.8908684e-06 -6.5565792e-21)
(-5.2074217e-05 3.3502679e-05 2.9387359e-39)
(-5.1901966e-05 3.1307486e-05 -6.3257869e-23)
(-5.2135745e-05 2.9684786e-05 -2.9387359e-39)
(-5.2540946e-05 2.8342477e-05 3.2049119e-23)
(-5.3366125e-05 2.7247296e-05 3.2025368e-23)
(-5.4313322e-05 2.637157e-05 -1.5992076e-23)
(-5.5910583e-05 2.5613783e-05 1.5923034e-23)
(-5.7104921e-05 2.5099836e-05 -1.4693679e-39)
(-5.8165715e-05 2.4320084e-05 6.3402356e-23)
(-5.9494869e-05 2.3734933e-05 -6.317185e-23)
(-6.0856679e-05 2.3107021e-05 0)
(-6.264914e-05 2.2516341e-05 6.2452636e-23)
(-6.3920256e-05 2.1910274e-05 6.2259939e-23)
(-6.5359402e-05 2.1080136e-05 -7.3468397e-40)
(-6.6409631e-05 2.033998e-05 -1.9247968e-24)
(-6.7578706e-05 1.9324317e-05 1.9080273e-24)
(-6.8743726e-05 1.8452332e-05 -1.1479437e-41)
(-6.9450709e-05 1.7312345e-05 3.6734198e-40)
(-7.0254521e-05 1.6175294e-05 6.0794364e-23)
(-7.0488595e-05 1.4926321e-05 -1.2065012e-22)
(-7.1558199e-05 1.3572823e-05 5.9598258e-23)
(-7.185306e-05 1.2343203e-05 9.1835496e-40)
(-7.1359637e-05 1.066251e-05 9.2985103e-25)
(-7.0684792e-05 9.1972464e-06 -6.0165562e-23)
(-6.8984348e-05 7.5137558e-06 -1.8367099e-40)
(-6.8116687e-05 5.9718735e-06 2.9747178e-23)
(-6.6124323e-05 4.6910492e-06 -1.4885472e-23)
(-6.3313193e-05 3.0338452e-06 -1.9783863e-24)
(-6.0570811e-05 1.7260818e-06 2.3277758e-25)
(-5.7355095e-05 5.2984545e-07 9.396973e-25)
(-5.4461137e-05 -3.4436152e-07 9.482132e-25)
)
;
    }
    Outlet
    {
        type            calculated;
        value           uniform (0 0 0);
    }
    Ground
    {
        type            calculated;
        value           uniform (0 0 0);
    }
}


// ************************************************************************* //
