/*--------------------------------*- C++ -*----------------------------------*\
| =========                 |                                                 |
| \\      /  F ield         | OpenFOAM: The Open Source CFD Toolbox           |
|  \\    /   O peration     | Version:  v2006                                 |
|   \\  /    A nd           | Website:  www.openfoam.com                      |
|    \\/     M anipulation  |                                                 |
\*---------------------------------------------------------------------------*/
FoamFile
{
    version     2.0;
    format      ascii;
    class       volScalarField;
    location    "1500";
    object      yPlus;
}
// * * * * * * * * * * * * * * * * * * * * * * * * * * * * * * * * * * * * * //

dimensions      [0 0 0 0 0 0 0];


internalField   uniform 0;

boundaryField
{
    Side
    {
        type            empty;
    }
    Inlet
    {
        type            calculated;
        value           uniform 0;
    }
    Wing
    {
        type            calculated;
        value           nonuniform List<scalar> 
139
(
89.158086
87.059003
79.667491
73.859295
68.179693
63.602659
57.224713
52.535874
46.639481
39.807387
34.74497
30.98073
27.154227
24.229425
23.401657
24.128677
25.981385
29.363604
34.190854
39.521912
45.006357
50.214831
55.733291
61.264647
66.698321
71.362073
75.43959
79.387102
83.714592
86.807832
89.244251
91.354195
95.894238
101.26978
103.47765
103.57057
106.71849
109.64286
109.89825
113.69266
120.6544
124.01104
124.70069
128.75256
127.54005
128.88718
126.71449
123.72467
120.23965
61.03307
56.324387
55.937826
60.108934
65.941749
70.05442
72.559075
74.493167
75.968232
77.215771
78.260006
79.048706
79.820329
80.510278
80.977542
81.187659
81.363604
81.758381
82.332382
83.080683
83.897582
84.482536
84.713161
84.440045
84.198424
83.957281
83.481834
83.077277
82.654519
82.599799
82.845198
83.738014
85.540833
88.314109
110.25164
108.23876
106.66777
105.26484
103.93881
102.54453
100.86108
99.120853
97.603798
96.310546
95.115424
93.933969
92.518327
90.914875
89.368872
87.894502
86.085507
84.139457
82.294016
80.119036
77.529972
74.589353
70.616028
68.442111
53.204134
117.49011
115.36338
114.27948
113.54516
113.2694
113.5103
114.11234
115.41112
115.78191
116.83653
117.877
119.28796
120.81619
121.84042
123.27079
124.08524
125.54048
126.28055
127.16658
127.63052
128.47264
129.33073
128.88818
128.56508
127.0895
126.29907
124.65272
121.89106
119.07215
115.71313
112.65436
)
;
    }
    Outlet
    {
        type            calculated;
        value           uniform 0;
    }
    Ground
    {
        type            calculated;
        value           nonuniform List<scalar> 
154
(
79.507153
82.511681
85.55133
88.47605
91.287347
94.005008
96.629086
99.158453
101.59474
103.94019
106.19528
108.36384
110.44212
112.44432
114.34235
116.19939
117.90395
119.63365
121.34157
123.00553
124.58468
126.2701
127.83436
129.3279
130.78422
132.18254
133.52977
134.8338
136.09809
137.32579
138.51997
139.68327
140.81802
141.92633
143.0101
144.07111
145.11097
146.13121
147.13323
148.11834
149.08777
150.04267
150.98412
151.91313
152.83066
153.73761
154.63482
155.52309
156.40318
157.2758
158.14165
159.00135
159.85553
160.70476
161.5496
162.39057
163.22819
164.06294
164.89527
165.72563
166.55443
167.38206
168.20886
169.03516
169.86116
170.68708
171.51274
172.33833
173.16218
173.98638
174.79828
175.63204
176.34854
177.45752
57.439371
54.235513
51.495741
49.169936
47.296763
45.944657
45.147206
44.913786
45.216893
46.009773
47.229253
48.803981
50.662964
52.740868
54.980722
57.334721
59.763827
62.236562
64.72835
67.218397
69.695056
72.133156
74.565564
76.846931
130.31894
129.53655
128.64786
127.63193
126.49533
125.22374
123.79798
122.20119
120.41556
118.42324
116.2103
113.75985
111.08749
108.15161
104.9582
101.50457
97.797264
93.847308
89.664152
85.281292
80.699982
75.946181
71.047311
65.995589
60.949172
472.28646
398.28377
339.95646
303.95041
276.02815
252.27398
232.98422
217.53083
204.87234
194.11503
185.10849
177.44698
170.87606
165.21489
160.32627
156.07567
152.37368
149.14133
146.31039
143.83314
141.65298
139.75408
138.08935
136.6516
135.40825
134.32825
133.4152
132.65059
132.03929
131.50674
131.16545
)
;
    }
}


// ************************************************************************* //
