/*--------------------------------*- C++ -*----------------------------------*\
| =========                 |                                                 |
| \\      /  F ield         | OpenFOAM: The Open Source CFD Toolbox           |
|  \\    /   O peration     | Version:  v2006                                 |
|   \\  /    A nd           | Website:  www.openfoam.com                      |
|    \\/     M anipulation  |                                                 |
\*---------------------------------------------------------------------------*/
FoamFile
{
    version     2.0;
    format      ascii;
    class       volScalarField;
    location    "4000";
    object      alphat;
}
// * * * * * * * * * * * * * * * * * * * * * * * * * * * * * * * * * * * * * //

dimensions      [1 -1 -1 0 0 0 0];


internalField   nonuniform List<scalar> 
19765
(
9.7812774e-06
9.7782383e-06
9.4910667e-06
9.5477625e-06
9.5490702e-06
9.7080653e-06
9.6263186e-06
9.8027569e-06
9.7750089e-06
9.5870484e-06
9.6929803e-06
1.0074711e-05
1.0298399e-05
1.0491654e-05
1.0896923e-05
1.1068625e-05
1.1021277e-05
1.1177153e-05
1.1595368e-05
1.1961288e-05
1.2207932e-05
1.2331815e-05
1.2551273e-05
1.2687833e-05
1.2778113e-05
1.2832493e-05
1.2859474e-05
1.2797558e-05
1.2816143e-05
1.2698297e-05
1.2468361e-05
1.2174675e-05
1.2206339e-05
1.2350353e-05
1.2206301e-05
1.1867781e-05
1.1851813e-05
1.1786231e-05
1.1508824e-05
1.1598349e-05
1.1968525e-05
1.211739e-05
1.2078257e-05
1.238574e-05
1.227995e-05
1.2513641e-05
1.2524492e-05
1.2500688e-05
1.2376183e-05
5.4255915e-05
5.6896691e-05
5.9121335e-05
6.09201e-05
6.30923e-05
6.5315013e-05
6.7556646e-05
6.9795115e-05
7.2103791e-05
7.4133754e-05
7.6525726e-05
7.9126857e-05
8.136276e-05
8.3361334e-05
8.5412912e-05
8.6670033e-05
8.6981991e-05
8.7584527e-05
8.8835496e-05
9.0339033e-05
9.1772627e-05
9.2736656e-05
9.3560247e-05
9.4613588e-05
9.5642578e-05
9.614784e-05
9.6370179e-05
9.6673272e-05
9.6895159e-05
9.6917062e-05
9.6823841e-05
9.6662977e-05
9.6651507e-05
9.6486167e-05
9.5825078e-05
9.4873053e-05
9.4031306e-05
9.2896184e-05
9.1478001e-05
9.0430231e-05
8.950972e-05
8.7470969e-05
8.5298653e-05
8.1642308e-05
7.9038991e-05
7.2892635e-05
6.60489e-05
5.9225297e-05
5.4127234e-05
1.6004261e-05
1.5334732e-05
1.4860273e-05
1.5105361e-05
1.5228169e-05
1.5346086e-05
1.528343e-05
1.5448832e-05
1.5353209e-05
1.550222e-05
1.5746057e-05
1.5785998e-05
1.5620123e-05
1.5453309e-05
1.5165736e-05
1.472192e-05
1.4366779e-05
1.4127276e-05
1.394523e-05
1.3797577e-05
1.374029e-05
1.379364e-05
1.3817307e-05
1.38758e-05
1.417218e-05
1.4721048e-05
1.5227675e-05
1.5743132e-05
1.6482438e-05
1.7273894e-05
1.8041308e-05
1.8753659e-05
1.9392248e-05
2.0387055e-05
2.1628637e-05
2.2663962e-05
2.3470145e-05
2.4530999e-05
2.5346864e-05
2.5765395e-05
2.6480966e-05
2.772458e-05
2.8362109e-05
2.9536553e-05
3.0318154e-05
3.2526204e-05
3.5396411e-05
3.8773813e-05
4.1116423e-05
6.2553409e-07
5.599626e-07
5.2205771e-07
5.1668298e-07
5.092651e-07
5.0255367e-07
4.9112035e-07
4.8722086e-07
4.7621654e-07
4.7129146e-07
4.6865473e-07
4.6066017e-07
4.4766629e-07
4.3578941e-07
4.2265452e-07
4.0734037e-07
3.9577271e-07
3.8820312e-07
3.8186258e-07
3.7570125e-07
3.7308627e-07
3.7524453e-07
3.7617971e-07
3.781954e-07
3.8637659e-07
4.0175105e-07
4.178605e-07
4.3590067e-07
4.611535e-07
4.9018759e-07
5.2151123e-07
5.5420246e-07
5.8791783e-07
6.3568406e-07
6.9650185e-07
7.5730502e-07
8.1733368e-07
8.9322046e-07
9.6553507e-07
1.028336e-06
1.1132368e-06
1.2341954e-06
1.3418073e-06
1.5087157e-06
1.6709528e-06
1.9047727e-06
2.1896895e-06
2.5522856e-06
2.981209e-06
1.6361504e-07
1.631173e-07
1.6340837e-07
1.6534327e-07
1.6704967e-07
1.6867491e-07
1.6976088e-07
1.7135569e-07
1.7219178e-07
1.7351635e-07
1.7514068e-07
1.7627132e-07
1.7689354e-07
1.7762681e-07
1.7812959e-07
1.7822332e-07
1.7864634e-07
1.7950437e-07
1.8024531e-07
1.8086348e-07
1.8185275e-07
1.832166e-07
1.8447627e-07
1.8591924e-07
1.8802881e-07
1.9101563e-07
1.9412565e-07
1.9737433e-07
2.0132375e-07
2.0551989e-07
2.0972804e-07
2.1382452e-07
2.176568e-07
2.2242627e-07
2.278613e-07
2.3267537e-07
2.3679938e-07
2.4152964e-07
2.4542085e-07
2.4820588e-07
2.5192242e-07
2.5679531e-07
2.6029695e-07
2.6574702e-07
2.7027431e-07
2.7638308e-07
2.8233326e-07
2.8682374e-07
2.9113515e-07
1.4152947e-07
1.4168691e-07
1.4218526e-07
1.4335975e-07
1.442743e-07
1.4519366e-07
1.4590557e-07
1.4682453e-07
1.4740213e-07
1.4828321e-07
1.4913166e-07
1.4970197e-07
1.5010614e-07
1.5055642e-07
1.5088107e-07
1.5113235e-07
1.5162149e-07
1.5229371e-07
1.5291404e-07
1.535294e-07
1.5428058e-07
1.551481e-07
1.5618706e-07
1.5742376e-07
1.5898733e-07
1.6103904e-07
1.6325993e-07
1.6556521e-07
1.6822487e-07
1.7110548e-07
1.7407185e-07
1.7708061e-07
1.7993577e-07
1.8308889e-07
1.8663836e-07
1.9015445e-07
1.9327434e-07
1.9654492e-07
1.9965409e-07
2.021782e-07
2.046343e-07
2.0787181e-07
2.1046273e-07
2.1389437e-07
2.1704112e-07
2.2083026e-07
2.2492711e-07
2.293631e-07
2.3325593e-07
1.2441463e-07
1.2435494e-07
1.2449425e-07
1.2503607e-07
1.2545146e-07
1.2588318e-07
1.2621729e-07
1.2668477e-07
1.2697986e-07
1.2745872e-07
1.2794344e-07
1.2828404e-07
1.2854034e-07
1.2883291e-07
1.2906279e-07
1.2925496e-07
1.2959639e-07
1.3006774e-07
1.3053314e-07
1.310163e-07
1.3158218e-07
1.3221669e-07
1.3295604e-07
1.3384104e-07
1.3494316e-07
1.3634094e-07
1.3784474e-07
1.3942692e-07
1.4124606e-07
1.4321504e-07
1.4525839e-07
1.4734419e-07
1.4936708e-07
1.5159167e-07
1.5406209e-07
1.5651636e-07
1.5875997e-07
1.6110387e-07
1.6335882e-07
1.6528373e-07
1.6719652e-07
1.6953444e-07
1.7151092e-07
1.7393176e-07
1.7617402e-07
1.7872737e-07
1.813876e-07
1.8417381e-07
1.8669237e-07
1.1540974e-07
1.1536542e-07
1.1544048e-07
1.1575948e-07
1.160009e-07
1.1625122e-07
1.1644306e-07
1.1671215e-07
1.1688196e-07
1.1716017e-07
1.17443e-07
1.1764807e-07
1.17812e-07
1.1800378e-07
1.1816926e-07
1.1832625e-07
1.1858045e-07
1.1891997e-07
1.1927131e-07
1.1965275e-07
1.2010005e-07
1.2060251e-07
1.2119774e-07
1.2190427e-07
1.2275645e-07
1.2380294e-07
1.2493525e-07
1.2613828e-07
1.2750758e-07
1.2899237e-07
1.3054669e-07
1.3215046e-07
1.3373778e-07
1.3546681e-07
1.3736878e-07
1.3928589e-07
1.4109196e-07
1.4297328e-07
1.4481793e-07
1.4647079e-07
1.4811847e-07
1.500512e-07
1.5177594e-07
1.5380473e-07
1.5575396e-07
1.5794174e-07
1.6025379e-07
1.6271509e-07
1.6505542e-07
1.0897654e-07
1.0891477e-07
1.089292e-07
1.0910103e-07
1.0922813e-07
1.0936439e-07
1.0946824e-07
1.0962312e-07
1.0972096e-07
1.0988902e-07
1.100639e-07
1.1019627e-07
1.1030915e-07
1.1044437e-07
1.1056962e-07
1.1069702e-07
1.1089138e-07
1.1114573e-07
1.1141638e-07
1.1171532e-07
1.1206217e-07
1.124484e-07
1.1289899e-07
1.1343295e-07
1.1407195e-07
1.1484357e-07
1.1568082e-07
1.1657667e-07
1.1759104e-07
1.1869196e-07
1.1985153e-07
1.210566e-07
1.2226614e-07
1.23578e-07
1.2501031e-07
1.264622e-07
1.2785467e-07
1.2930287e-07
1.3073457e-07
1.3204947e-07
1.3336659e-07
1.3486286e-07
1.3622759e-07
1.3777956e-07
1.3927491e-07
1.4091078e-07
1.4261015e-07
1.4438372e-07
1.4605577e-07
1.0475765e-07
1.0471094e-07
1.0471171e-07
1.0481491e-07
1.0488874e-07
1.0496882e-07
1.0502881e-07
1.0512219e-07
1.0518097e-07
1.0528626e-07
1.0539782e-07
1.0548568e-07
1.0556514e-07
1.0566252e-07
1.0575819e-07
1.0586094e-07
1.0601158e-07
1.0620581e-07
1.0641725e-07
1.0665442e-07
1.0693015e-07
1.0723912e-07
1.07597e-07
1.0801785e-07
1.0851669e-07
1.0911034e-07
1.0975634e-07
1.1045137e-07
1.1123536e-07
1.1208815e-07
1.1299181e-07
1.139376e-07
1.1489829e-07
1.1593779e-07
1.1706911e-07
1.1822584e-07
1.1935383e-07
1.2052823e-07
1.217014e-07
1.2280382e-07
1.239121e-07
1.2514943e-07
1.263048e-07
1.2759563e-07
1.2885814e-07
1.3022938e-07
1.3166061e-07
1.3316728e-07
1.346159e-07
1.0174797e-07
1.0171082e-07
1.0170492e-07
1.017685e-07
1.0181304e-07
1.0186249e-07
1.0189963e-07
1.0195975e-07
1.0199859e-07
1.0206954e-07
1.0214632e-07
1.0220996e-07
1.022709e-07
1.0234627e-07
1.0242364e-07
1.0250938e-07
1.0263012e-07
1.0278316e-07
1.0295192e-07
1.0314223e-07
1.0336258e-07
1.0360959e-07
1.0389298e-07
1.0422354e-07
1.04613e-07
1.0507172e-07
1.055718e-07
1.0611197e-07
1.0671944e-07
1.0738096e-07
1.0808476e-07
1.0882492e-07
1.095833e-07
1.1040257e-07
1.1129154e-07
1.1220505e-07
1.131061e-07
1.1404434e-07
1.1498687e-07
1.1588495e-07
1.1679004e-07
1.1778386e-07
1.1872288e-07
1.1975273e-07
1.2076172e-07
1.2184136e-07
1.2295732e-07
1.241188e-07
1.2523049e-07
9.9591815e-08
9.9567476e-08
9.9563242e-08
9.9606565e-08
9.9636837e-08
9.9670733e-08
9.9696791e-08
9.9738893e-08
9.9767669e-08
9.9819143e-08
9.9875721e-08
9.9925247e-08
9.9975006e-08
1.0003644e-07
1.0010152e-07
1.0017494e-07
1.0027447e-07
1.0039834e-07
1.0053592e-07
1.0069133e-07
1.0087039e-07
1.0107127e-07
1.0130004e-07
1.0156432e-07
1.0187362e-07
1.0223467e-07
1.0262866e-07
1.0305549e-07
1.0353434e-07
1.0405629e-07
1.0461338e-07
1.0520189e-07
1.0580968e-07
1.0646641e-07
1.071786e-07
1.0791485e-07
1.0864867e-07
1.09414e-07
1.1018768e-07
1.1093431e-07
1.1168875e-07
1.1250954e-07
1.1329447e-07
1.1414686e-07
1.1498773e-07
1.1588288e-07
1.168087e-07
1.1777498e-07
1.187066e-07
9.8004423e-08
9.7990189e-08
9.798925e-08
9.8021703e-08
9.8045208e-08
9.807156e-08
9.8092981e-08
9.8125969e-08
9.8150621e-08
9.8191759e-08
9.8237388e-08
9.827953e-08
9.8323356e-08
9.8376654e-08
9.8434105e-08
9.8499163e-08
9.8583913e-08
9.8687166e-08
9.8801929e-08
9.8931091e-08
9.9078672e-08
9.9243763e-08
9.9430149e-08
9.9643192e-08
9.9890693e-08
1.0017711e-07
1.0048957e-07
1.0082868e-07
1.0120795e-07
1.0162103e-07
1.0206276e-07
1.0253125e-07
1.0301859e-07
1.0354559e-07
1.0411677e-07
1.0470968e-07
1.053051e-07
1.0592638e-07
1.0655683e-07
1.0717045e-07
1.0779141e-07
1.084607e-07
1.0910522e-07
1.0979757e-07
1.104812e-07
1.1120227e-07
1.1194343e-07
1.127116e-07
1.1344963e-07
9.6817932e-08
9.6813013e-08
9.6816739e-08
9.6844153e-08
9.686531e-08
9.6888747e-08
9.6909125e-08
9.6938036e-08
9.6961813e-08
9.6997827e-08
9.703779e-08
9.7076406e-08
9.7117383e-08
9.7166087e-08
9.7218929e-08
9.7278441e-08
9.7352927e-08
9.7441544e-08
9.7539599e-08
9.7649111e-08
9.7772881e-08
9.7910486e-08
9.8064314e-08
9.8238129e-08
9.8438277e-08
9.8667773e-08
9.8917762e-08
9.9189251e-08
9.9491507e-08
9.9820035e-08
1.0017225e-07
1.0054791e-07
1.0094164e-07
1.0136788e-07
1.0182962e-07
1.0231053e-07
1.0279645e-07
1.0330394e-07
1.0382093e-07
1.0432802e-07
1.0484218e-07
1.0539341e-07
1.0592794e-07
1.0649861e-07
1.0706402e-07
1.0765796e-07
1.0826778e-07
1.0889984e-07
1.0950796e-07
9.5919017e-08
9.5921668e-08
9.5930004e-08
9.595546e-08
9.5976586e-08
9.5999647e-08
9.6020942e-08
9.6048733e-08
9.6073517e-08
9.6107609e-08
9.614522e-08
9.6182789e-08
9.6222981e-08
9.6269519e-08
9.6319922e-08
9.6376021e-08
9.6443544e-08
9.6521851e-08
9.6607714e-08
9.6702508e-08
9.6808165e-08
9.6924485e-08
9.7052956e-08
9.7196219e-08
9.7359404e-08
9.7544571e-08
9.7745643e-08
9.7963742e-08
9.8204628e-08
9.8465879e-08
9.8747548e-08
9.9050059e-08
9.9368817e-08
9.971346e-08
1.00086e-07
1.0047469e-07
1.0086924e-07
1.0128165e-07
1.0170309e-07
1.0211902e-07
1.0254147e-07
1.0299215e-07
1.0343126e-07
1.0389711e-07
1.04359e-07
1.0484136e-07
1.0533452e-07
1.0584334e-07
1.0633119e-07
9.5229506e-08
9.5238717e-08
9.5251621e-08
9.527705e-08
9.529953e-08
9.532373e-08
9.5347074e-08
9.5375519e-08
9.5402408e-08
9.5436547e-08
9.5473869e-08
9.5511958e-08
9.5552723e-08
9.5598739e-08
9.5648255e-08
9.570255e-08
9.5765553e-08
9.5836738e-08
9.5913814e-08
9.5997667e-08
9.6089594e-08
9.6189472e-08
9.6298187e-08
9.6417586e-08
9.655178e-08
9.6702191e-08
9.6864692e-08
9.7040223e-08
9.7231606e-08
9.7439776e-08
9.7666625e-08
9.7911292e-08
9.8168988e-08
9.8446527e-08
9.8745915e-08
9.9059004e-08
9.9378426e-08
9.9713016e-08
1.0005628e-07
1.0039716e-07
1.0074421e-07
1.0111345e-07
1.0147497e-07
1.0185705e-07
1.0223663e-07
1.0263178e-07
1.0303511e-07
1.0345086e-07
1.0384893e-07
9.4696159e-08
9.4710863e-08
9.4727993e-08
9.4754455e-08
9.4779012e-08
9.4805186e-08
9.4831184e-08
9.4861341e-08
9.4890968e-08
9.4926399e-08
9.4964766e-08
9.5004416e-08
9.5046696e-08
9.5093364e-08
9.5143144e-08
9.5196879e-08
9.5257211e-08
9.5323668e-08
9.5394561e-08
9.5470387e-08
9.555196e-08
9.5639151e-08
9.5732425e-08
9.583306e-08
9.594431e-08
9.606717e-08
9.6198876e-08
9.6339855e-08
9.6490766e-08
9.6657823e-08
9.6841681e-08
9.7038441e-08
9.7244258e-08
9.7465293e-08
9.7703872e-08
9.7954349e-08
9.8211354e-08
9.8481366e-08
9.8759505e-08
9.9037267e-08
9.9320722e-08
9.9621613e-08
9.9917348e-08
1.0022873e-07
1.0053832e-07
1.0085937e-07
1.0118608e-07
1.0152182e-07
1.0184211e-07
9.4280193e-08
9.4299685e-08
9.4320791e-08
9.4348971e-08
9.4376053e-08
9.4404724e-08
9.4433743e-08
9.4466291e-08
9.4499059e-08
9.4536608e-08
9.4576921e-08
9.4618858e-08
9.4663338e-08
9.4711526e-08
9.4762457e-08
9.4816619e-08
9.4875716e-08
9.4939285e-08
9.5006021e-08
9.5076105e-08
9.5149969e-08
9.5227433e-08
9.5308652e-08
9.5394503e-08
9.5487505e-08
9.5588366e-08
9.5695251e-08
9.5807816e-08
9.592587e-08
9.6062127e-08
9.6210495e-08
9.636534e-08
9.6526935e-08
9.6701114e-08
9.6889783e-08
9.7088899e-08
9.7294512e-08
9.7511361e-08
9.7735721e-08
9.7961011e-08
9.8191515e-08
9.8435927e-08
9.8677062e-08
9.8930388e-08
9.9182631e-08
9.9443623e-08
9.9708803e-08
9.9981047e-08
1.0024005e-07
9.3954224e-08
9.3977894e-08
9.4002696e-08
9.4032992e-08
9.4062839e-08
9.4094312e-08
9.4126562e-08
9.4161935e-08
9.4198101e-08
9.4238336e-08
9.4281227e-08
9.4325981e-08
9.4373186e-08
9.4423566e-08
9.4476354e-08
9.4531747e-08
9.4590745e-08
9.4652871e-08
9.4717051e-08
9.4783207e-08
9.485146e-08
9.4921543e-08
9.4993382e-08
9.5067565e-08
9.5145982e-08
9.5229142e-08
9.5315803e-08
9.5404894e-08
9.5497371e-08
9.5609727e-08
9.5725581e-08
9.5843536e-08
9.5969163e-08
9.6104874e-08
9.6252381e-08
9.6409104e-08
9.6572084e-08
9.6744665e-08
9.6923947e-08
9.7104841e-08
9.7290398e-08
9.748707e-08
9.768177e-08
9.7886008e-08
9.8089618e-08
9.8299868e-08
9.8513111e-08
9.8731695e-08
9.8938816e-08
9.3697786e-08
9.3725218e-08
9.3753524e-08
9.3786215e-08
9.3818995e-08
9.3853484e-08
9.3889116e-08
9.3927628e-08
9.3967391e-08
9.4010733e-08
9.4056681e-08
9.410467e-08
9.4155029e-08
9.4208148e-08
9.426338e-08
9.4320676e-08
9.4380503e-08
9.4442342e-08
9.4505256e-08
9.4568942e-08
9.4633268e-08
9.4697853e-08
9.4762447e-08
9.4827427e-08
9.4894151e-08
9.496298e-08
9.5033019e-08
9.5103438e-08
9.5179183e-08
9.5265478e-08
9.5350727e-08
9.5440357e-08
9.5537625e-08
9.5640802e-08
9.5754355e-08
9.5876129e-08
9.6003457e-08
9.613867e-08
9.6279662e-08
9.6422629e-08
9.656982e-08
9.6726085e-08
9.6881423e-08
9.7044452e-08
9.7207336e-08
9.737548e-08
9.7545935e-08
9.7720681e-08
9.7885664e-08
9.3495935e-08
9.3526808e-08
9.3558458e-08
9.3593731e-08
9.362956e-08
9.3667218e-08
9.3706348e-08
9.3748238e-08
9.3791762e-08
9.3838545e-08
9.3887931e-08
9.3939506e-08
9.399339e-08
9.4049712e-08
9.4107892e-08
9.4167672e-08
9.4229098e-08
9.4291599e-08
9.4354302e-08
9.4416709e-08
9.4478472e-08
9.4539085e-08
9.4598158e-08
9.4655897e-08
9.4713231e-08
9.4770387e-08
9.4826735e-08
9.4885414e-08
9.4960988e-08
9.5021092e-08
9.5069385e-08
9.5134148e-08
9.520419e-08
9.5281684e-08
9.5367948e-08
9.5460095e-08
9.5556486e-08
9.565929e-08
9.5767206e-08
9.5877457e-08
9.5991688e-08
9.6113502e-08
9.6235231e-08
9.6363297e-08
9.6491625e-08
9.6624204e-08
9.6758623e-08
9.6896506e-08
9.7026111e-08
9.3337328e-08
9.3371432e-08
9.3406332e-08
9.3444344e-08
9.3483326e-08
9.3524293e-08
9.3567036e-08
9.361251e-08
9.3659956e-08
9.3710469e-08
9.3763621e-08
9.3819096e-08
9.3876842e-08
9.3936779e-08
9.3998357e-08
9.4061134e-08
9.4124818e-08
9.4188775e-08
9.4252147e-08
9.4314261e-08
9.4374582e-08
9.4432475e-08
9.4487427e-08
9.4539503e-08
9.458929e-08
9.4636891e-08
9.4682147e-08
9.4725362e-08
9.4767208e-08
9.4809551e-08
9.4860338e-08
9.4905879e-08
9.4955972e-08
9.501099e-08
9.5071384e-08
9.5136522e-08
9.5205669e-08
9.5280534e-08
9.5360165e-08
9.5442446e-08
9.552852e-08
9.5621043e-08
9.5714144e-08
9.5812603e-08
9.5911707e-08
9.6014398e-08
9.6118692e-08
9.6225946e-08
9.6326305e-08
9.3213468e-08
9.3250666e-08
9.3288763e-08
9.3329649e-08
9.3371888e-08
9.3416294e-08
9.3462771e-08
9.3512021e-08
9.3563554e-08
9.3618062e-08
9.3675278e-08
9.3734949e-08
9.3796876e-08
9.3860807e-08
9.3926195e-08
9.3992434e-08
9.4058954e-08
9.4125045e-08
9.4189833e-08
9.4252484e-08
9.4312294e-08
9.43685e-08
9.4420479e-08
9.4468172e-08
9.4511896e-08
9.4551652e-08
9.4587414e-08
9.4619915e-08
9.4652394e-08
9.4664049e-08
9.4703735e-08
9.4738331e-08
9.4770918e-08
9.4805442e-08
9.4843988e-08
9.4886582e-08
9.4932794e-08
9.4983919e-08
9.503933e-08
9.5097495e-08
9.5159251e-08
9.5226568e-08
9.5294986e-08
9.5368056e-08
9.5442121e-08
9.5519331e-08
9.5598043e-08
9.5679372e-08
9.5755047e-08
9.3117844e-08
9.3158066e-08
9.3199355e-08
9.3243251e-08
9.3288862e-08
9.3336846e-08
9.3387193e-08
9.3440414e-08
9.3496212e-08
9.3554969e-08
9.3616537e-08
9.3680692e-08
9.3747111e-08
9.3815398e-08
9.3884984e-08
9.3955116e-08
9.4024987e-08
9.4093806e-08
9.4160655e-08
9.4224551e-08
9.4284633e-08
9.4340017e-08
9.4389969e-08
9.4434326e-08
9.4473191e-08
9.450646e-08
9.4534275e-08
9.4557454e-08
9.457644e-08
9.4596339e-08
9.4611227e-08
9.4624811e-08
9.463916e-08
9.4655825e-08
9.4675703e-08
9.4698786e-08
9.4724929e-08
9.4755241e-08
9.4789426e-08
9.4826451e-08
9.4866941e-08
9.4912359e-08
9.4959341e-08
9.501051e-08
9.5063025e-08
9.5118444e-08
9.5175395e-08
9.5234796e-08
9.5289691e-08
9.3045505e-08
9.3088732e-08
9.3133242e-08
9.3180289e-08
9.32294e-08
9.3281114e-08
9.3335484e-08
9.3392875e-08
9.3453134e-08
9.3516397e-08
9.35826e-08
9.3651529e-08
9.3722751e-08
9.3795742e-08
9.38699e-08
9.394433e-08
9.4018024e-08
9.4090101e-08
9.4159579e-08
9.4225332e-08
9.4286356e-08
9.4341644e-08
9.439036e-08
9.4432245e-08
9.4467227e-08
9.449511e-08
9.4516161e-08
9.4531127e-08
9.4541223e-08
9.4546655e-08
9.4549498e-08
9.4550911e-08
9.4551694e-08
9.4553177e-08
9.4556522e-08
9.456222e-08
9.4570518e-08
9.4582419e-08
9.4597885e-08
9.4616273e-08
9.4638058e-08
9.4664317e-08
9.4692547e-08
9.4724663e-08
9.4758469e-08
9.4795068e-08
9.4833308e-08
9.4873933e-08
9.49111e-08
9.2992644e-08
9.3038902e-08
9.3086699e-08
9.3137047e-08
9.3189805e-08
9.3245417e-08
9.3303985e-08
9.3365759e-08
9.343069e-08
9.3498724e-08
9.3569849e-08
9.3643847e-08
9.3720186e-08
9.3798227e-08
9.3877321e-08
9.395644e-08
9.4034396e-08
9.4110211e-08
9.4182826e-08
9.4250976e-08
9.4313522e-08
9.4369334e-08
9.4417478e-08
9.4457606e-08
9.4489504e-08
9.4512892e-08
9.452813e-08
9.4536006e-08
9.4537438e-08
9.4533641e-08
9.4525738e-08
9.4514979e-08
9.450259e-08
9.4489981e-08
9.447838e-08
9.4468524e-08
9.4460895e-08
9.4456404e-08
9.4455222e-08
9.4457026e-08
9.4462197e-08
9.447153e-08
9.4483203e-08
9.4498598e-08
9.4516023e-08
9.4536243e-08
9.4558283e-08
9.4582737e-08
9.4604705e-08
9.2956361e-08
9.3005711e-08
9.3056891e-08
9.3110703e-08
9.3167272e-08
9.3226967e-08
9.3289926e-08
9.3356311e-08
9.3426147e-08
9.3499226e-08
9.3575568e-08
9.3654941e-08
9.3736717e-08
9.3820155e-08
9.3904545e-08
9.3988734e-08
9.4071367e-08
9.4151366e-08
9.4227579e-08
9.4298609e-08
9.4363184e-08
9.4420056e-08
9.4468192e-08
9.450716e-08
9.4536628e-08
9.4556242e-08
9.4566438e-08
9.4568015e-08
9.4561902e-08
9.454924e-08
9.4531378e-08
9.4509712e-08
9.4485583e-08
9.4460353e-08
9.4435303e-08
9.4411406e-08
9.4389375e-08
9.4370085e-08
9.4353898e-08
9.4340761e-08
9.4331002e-08
9.432521e-08
9.4322104e-08
9.4322661e-08
9.432559e-08
9.4331396e-08
9.4339249e-08
9.4349613e-08
9.4358389e-08
9.2934446e-08
9.2986982e-08
9.3041668e-08
9.3099123e-08
9.3159687e-08
9.3223668e-08
9.3291234e-08
9.3362475e-08
9.3437468e-08
9.3515878e-08
9.3597745e-08
9.3682808e-08
9.3770352e-08
9.3859537e-08
9.3949584e-08
9.4039219e-08
9.4126928e-08
9.4211528e-08
9.4291768e-08
9.4366116e-08
9.4433171e-08
9.4491568e-08
9.4540178e-08
9.4578489e-08
9.4606068e-08
9.4622493e-08
9.4628264e-08
9.4624206e-08
9.4611218e-08
9.4590553e-08
9.4563642e-08
9.4531961e-08
9.4496987e-08
9.4460102e-08
9.442267e-08
9.4385874e-08
9.435063e-08
9.4317805e-08
9.4287926e-08
9.4261172e-08
9.4237842e-08
9.4218377e-08
9.4201933e-08
9.4189178e-08
9.4179142e-08
9.417213e-08
9.4167436e-08
9.4165404e-08
9.4162626e-08
9.2925248e-08
9.2981091e-08
9.303943e-08
9.3100723e-08
9.3165485e-08
9.3233975e-08
9.3306383e-08
9.3382741e-08
9.3463164e-08
9.3547209e-08
9.363492e-08
9.3726002e-08
9.3819657e-08
9.3914945e-08
9.4011015e-08
9.4106466e-08
9.4199641e-08
9.4289241e-08
9.4373908e-08
9.4451978e-08
9.452192e-08
9.4582253e-08
9.4631754e-08
9.4669833e-08
9.4695969e-08
9.470968e-08
9.4711521e-08
9.4702345e-08
9.4683053e-08
9.4654974e-08
9.4619637e-08
9.4578614e-08
9.4533517e-08
9.4485764e-08
9.443681e-08
9.4388025e-08
9.4340507e-08
9.4295144e-08
9.4252613e-08
9.4213288e-08
9.4177466e-08
9.4145487e-08
9.4116856e-08
9.409201e-08
9.4070234e-08
9.4051683e-08
9.4035752e-08
9.4022679e-08
9.400965e-08
9.2927558e-08
9.2986853e-08
9.3049017e-08
9.3114359e-08
9.318354e-08
9.3256782e-08
9.3334289e-08
9.3416045e-08
9.3502189e-08
9.3592189e-08
9.368608e-08
9.3783526e-08
9.3883644e-08
9.3985403e-08
9.4087864e-08
9.4189508e-08
9.428853e-08
9.4383516e-08
9.4472991e-08
9.4555158e-08
9.4628359e-08
9.4690996e-08
9.4741752e-08
9.4779959e-08
9.4805022e-08
9.4816406e-08
9.481471e-08
9.4800823e-08
9.4775659e-08
9.4740629e-08
9.4697355e-08
9.4647509e-08
9.4592831e-08
9.4534798e-08
9.4474966e-08
9.4414878e-08
9.4355803e-08
9.4298666e-08
9.4244284e-08
9.4193204e-08
9.4145736e-08
9.4102152e-08
9.4062242e-08
9.4026271e-08
9.3993729e-08
9.3964658e-08
9.3938535e-08
9.3915505e-08
9.3893271e-08
9.2940534e-08
9.3003448e-08
9.3069631e-08
9.313925e-08
9.3213092e-08
9.3291346e-08
9.3374229e-08
9.3461685e-08
9.3553864e-08
9.3650155e-08
9.3750577e-08
9.3854747e-08
9.3961699e-08
9.4070304e-08
9.4179535e-08
9.4287749e-08
9.4392999e-08
9.4493747e-08
9.4588397e-08
9.4675015e-08
9.4751818e-08
9.481709e-08
9.4869422e-08
9.4908069e-08
9.4932366e-08
9.4941734e-08
9.4936814e-08
9.491853e-08
9.4887823e-08
9.4846183e-08
9.479533e-08
9.4737035e-08
9.4673168e-08
9.4605285e-08
9.4535047e-08
9.4464166e-08
9.4394066e-08
9.432573e-08
9.4260104e-08
9.4197889e-08
9.413942e-08
9.4084931e-08
9.4034447e-08
9.3988101e-08
9.3945554e-08
9.3906761e-08
9.3871268e-08
9.3839134e-08
9.3808516e-08
9.2963639e-08
9.303036e-08
9.3100775e-08
9.3174917e-08
9.3253682e-08
9.3337231e-08
9.3425789e-08
9.3519265e-08
9.3617814e-08
9.3720753e-08
9.3828076e-08
9.3939348e-08
9.4053518e-08
9.4169358e-08
9.4285747e-08
9.4400915e-08
9.4512772e-08
9.4619652e-08
9.4719832e-08
9.481124e-08
9.4891965e-08
9.4960176e-08
9.5014368e-08
9.5053722e-08
9.5077511e-08
9.5085114e-08
9.5077213e-08
9.505477e-08
9.5018763e-08
9.4970759e-08
9.4912576e-08
9.4846091e-08
9.4773304e-08
9.4695865e-08
9.4615551e-08
9.4534232e-08
9.4453486e-08
9.4374363e-08
9.4297933e-08
9.4225037e-08
9.4156045e-08
9.4091175e-08
9.4030645e-08
9.3974493e-08
9.3922521e-08
9.3874616e-08
9.3830385e-08
9.3789808e-08
9.3751445e-08
9.2996599e-08
9.3067334e-08
9.3142217e-08
9.3221147e-08
9.3305117e-08
9.3394262e-08
9.3488817e-08
9.3588655e-08
9.3693932e-08
9.3803896e-08
9.3918509e-08
9.4037279e-08
9.4159067e-08
9.4282547e-08
9.4406491e-08
9.4529003e-08
9.464785e-08
9.4761231e-08
9.4867287e-08
9.4963811e-08
9.5048761e-08
9.5120189e-08
9.5176497e-08
9.521679e-08
9.5240286e-08
9.5246327e-08
9.5235632e-08
9.5209205e-08
9.5168066e-08
9.5113863e-08
9.5048509e-08
9.4973994e-08
9.4892452e-08
9.4805639e-08
9.4715456e-08
9.462393e-08
9.4532785e-08
9.4443153e-08
9.435622e-08
9.4272956e-08
9.4193776e-08
9.4118897e-08
9.4048701e-08
9.3983158e-08
9.3922186e-08
9.3865622e-08
9.3813128e-08
9.3764606e-08
9.3718981e-08
9.3039372e-08
9.3114349e-08
9.3193956e-08
9.3277957e-08
9.3367436e-08
9.3462503e-08
9.3563398e-08
9.3669964e-08
9.3782348e-08
9.3899736e-08
9.402205e-08
9.4148734e-08
9.427856e-08
9.4410097e-08
9.4542008e-08
9.4672263e-08
9.4798484e-08
9.4918732e-08
9.5031007e-08
9.5132962e-08
9.5222423e-08
9.5297327e-08
9.5355982e-08
9.5397418e-08
9.5420799e-08
9.542544e-08
9.5412093e-08
9.5381805e-08
9.5335643e-08
9.5275336e-08
9.5202896e-08
9.512043e-08
9.503021e-08
9.493411e-08
9.4834166e-08
9.4732557e-08
9.4631152e-08
9.4531171e-08
9.4433917e-08
9.4340478e-08
9.4251322e-08
9.4166676e-08
9.4087067e-08
9.4012413e-08
9.3942734e-08
9.3877829e-08
9.3817405e-08
9.3761298e-08
9.3708759e-08
9.3092131e-08
9.3171597e-08
9.3256206e-08
9.3345584e-08
9.3440896e-08
9.3542233e-08
9.3649837e-08
9.376352e-08
9.3883416e-08
9.400865e-08
9.4139098e-08
9.4274133e-08
9.4412435e-08
9.4552464e-08
9.4692766e-08
9.4831173e-08
9.4965159e-08
9.5092638e-08
9.5211469e-08
9.5319161e-08
9.5413407e-08
9.5492029e-08
9.555324e-08
9.5595998e-08
9.5619415e-08
9.5622784e-08
9.5606886e-08
9.5572817e-08
9.5521692e-08
9.5455321e-08
9.5375818e-08
9.5285411e-08
9.5186517e-08
9.5081141e-08
9.4971457e-08
9.48598e-08
9.4748181e-08
9.4637914e-08
9.4530418e-08
9.4426893e-08
9.4327865e-08
9.4233586e-08
9.4144704e-08
9.4061106e-08
9.3982901e-08
9.3909857e-08
9.3841727e-08
9.3778276e-08
9.3719067e-08
9.3155254e-08
9.3239475e-08
9.3329387e-08
9.3424469e-08
9.3525965e-08
9.3633945e-08
9.3748651e-08
9.3869865e-08
9.3997705e-08
9.4131232e-08
9.4270269e-08
9.4414116e-08
9.4561353e-08
9.4710325e-08
9.4859454e-08
9.5006432e-08
9.5148578e-08
9.5283656e-08
9.5409375e-08
9.5523101e-08
9.5622394e-08
9.570496e-08
9.5768918e-08
9.5813155e-08
9.5836733e-08
9.5838929e-08
9.5820555e-08
9.5782748e-08
9.572668e-08
9.5654238e-08
9.5567643e-08
9.5469251e-08
9.5361628e-08
9.5246921e-08
9.5127451e-08
9.5005706e-08
9.4883838e-08
9.4763263e-08
9.4645515e-08
9.4531902e-08
9.4423012e-08
9.4319133e-08
9.4221021e-08
9.4128547e-08
9.4041893e-08
9.3960811e-08
9.3885091e-08
9.3814435e-08
9.3748695e-08
9.3229319e-08
9.3318585e-08
9.3414125e-08
9.3515262e-08
9.3623317e-08
9.3738339e-08
9.3860568e-08
9.3989757e-08
9.4125998e-08
9.4268291e-08
9.44164e-08
9.4569542e-08
9.4726192e-08
9.4884577e-08
9.5042987e-08
9.5198962e-08
9.5349667e-08
9.549271e-08
9.5625646e-08
9.5745695e-08
9.5850284e-08
9.5937004e-08
9.6003883e-08
9.6049737e-08
9.6073582e-08
9.6074683e-08
9.6053877e-08
9.601235e-08
9.5951326e-08
9.5872772e-08
9.5779016e-08
9.5672549e-08
9.5556095e-08
9.5431951e-08
9.5302591e-08
9.5170655e-08
9.5038435e-08
9.4907457e-08
9.4779367e-08
9.4655581e-08
9.4536757e-08
9.4423224e-08
9.4315838e-08
9.4214465e-08
9.4119358e-08
9.4030252e-08
9.3946978e-08
9.3869173e-08
9.3796971e-08
9.3315119e-08
9.3409739e-08
9.3511258e-08
9.3618829e-08
9.3733846e-08
9.3856338e-08
9.3986542e-08
9.4124176e-08
9.4269306e-08
9.4420867e-08
9.4578555e-08
9.4741499e-08
9.4908065e-08
9.5076349e-08
9.5244503e-08
9.5409914e-08
9.5569582e-08
9.5720953e-08
9.5861428e-08
9.5988078e-08
9.60982e-08
9.618927e-08
9.6259228e-08
9.630682e-08
9.6331018e-08
9.6331082e-08
9.6307872e-08
9.6262619e-08
9.6196601e-08
9.6111863e-08
9.6010847e-08
9.5896185e-08
9.5770763e-08
9.5637037e-08
9.5497637e-08
9.5355354e-08
9.5212622e-08
9.5071079e-08
9.4932487e-08
9.479837e-08
9.4669459e-08
9.4546137e-08
9.4429352e-08
9.4318976e-08
9.4215324e-08
9.4118127e-08
9.4027249e-08
9.3942265e-08
9.3863586e-08
9.3413666e-08
9.3513978e-08
9.3621856e-08
9.3736267e-08
9.3858681e-08
9.3989103e-08
9.4127763e-08
9.4274345e-08
9.4428883e-08
9.4590242e-08
9.4758045e-08
9.4931323e-08
9.5108326e-08
9.5287015e-08
9.5465391e-08
9.564068e-08
9.5809715e-08
9.5969777e-08
9.6118104e-08
9.6251622e-08
9.6367498e-08
9.6463097e-08
9.6536273e-08
9.6585706e-08
9.661033e-08
9.6609399e-08
9.6583797e-08
9.6534798e-08
9.6463731e-08
9.637272e-08
9.6264324e-08
9.6141324e-08
9.6006773e-08
9.5863291e-08
9.5713665e-08
9.5560837e-08
9.5407381e-08
9.5255053e-08
9.5105735e-08
9.4961058e-08
9.4821836e-08
9.4688515e-08
9.4562131e-08
9.4442573e-08
9.4330217e-08
9.4224791e-08
9.4126198e-08
9.4033946e-08
9.3948726e-08
9.3526223e-08
9.3632593e-08
9.3747243e-08
9.3868933e-08
9.3999212e-08
9.4138057e-08
9.4285691e-08
9.444176e-08
9.4606257e-08
9.4777975e-08
9.4956455e-08
9.5140625e-08
9.5328607e-08
9.5518219e-08
9.5707304e-08
9.589292e-08
9.6071725e-08
9.624083e-08
9.639731e-08
9.6537947e-08
9.6659779e-08
9.6760068e-08
9.6836583e-08
9.6887945e-08
9.6913051e-08
9.6911156e-08
9.6883164e-08
9.6830388e-08
9.6754208e-08
9.6656824e-08
9.6540918e-08
9.6409427e-08
9.6265575e-08
9.6112145e-08
9.5952082e-08
9.5788476e-08
9.5624042e-08
9.5460656e-08
9.5300326e-08
9.5144795e-08
9.4994969e-08
9.4851364e-08
9.4715107e-08
9.4586111e-08
9.4464812e-08
9.4350941e-08
9.4244438e-08
9.4144745e-08
9.4052839e-08
9.365433e-08
9.3767155e-08
9.3889026e-08
9.4018473e-08
9.4157124e-08
9.4304926e-08
9.446209e-08
9.4628219e-08
9.4803263e-08
9.4985934e-08
9.5175684e-08
9.5371324e-08
9.5570845e-08
9.5771912e-08
9.5972199e-08
9.6168588e-08
9.6357561e-08
9.6536049e-08
9.6700965e-08
9.6848949e-08
9.6976917e-08
9.7082031e-08
9.7161987e-08
9.7215348e-08
9.7240979e-08
9.7238141e-08
9.7207754e-08
9.7151169e-08
9.7069808e-08
9.6965952e-08
9.6842408e-08
9.6702275e-08
9.6548947e-08
9.6385372e-08
9.6214646e-08
9.6040003e-08
9.5864295e-08
9.5689531e-08
9.5517845e-08
9.5351104e-08
9.5190314e-08
9.5036071e-08
9.4889596e-08
9.4750835e-08
9.4620288e-08
9.4497693e-08
9.4383032e-08
9.4275676e-08
9.4176901e-08
9.3799844e-08
9.3919558e-08
9.4049145e-08
9.418687e-08
9.4334444e-08
9.4491782e-08
9.4659076e-08
9.4835883e-08
9.5022098e-08
9.5216351e-08
9.5417989e-08
9.5625702e-08
9.5837338e-08
9.6050397e-08
9.6262379e-08
9.6469981e-08
9.6669502e-08
9.6857692e-08
9.7031303e-08
9.7186833e-08
9.7321085e-08
9.7431134e-08
9.7514607e-08
9.7570016e-08
9.7596202e-08
9.7592434e-08
9.7559648e-08
9.7499225e-08
9.7412624e-08
9.7302205e-08
9.7170908e-08
9.7021999e-08
9.6859035e-08
9.6685122e-08
9.6503498e-08
9.6317536e-08
9.6130226e-08
9.5943715e-08
9.5760276e-08
9.5581906e-08
9.5409723e-08
9.5244417e-08
9.5087306e-08
9.4938379e-08
9.4798199e-08
9.4666517e-08
9.4543359e-08
9.4428021e-08
9.4322101e-08
9.3964983e-08
9.4092068e-08
9.4229915e-08
9.4376491e-08
9.4533594e-08
9.4701098e-08
9.4879174e-08
9.5067323e-08
9.526538e-08
9.547188e-08
9.5686056e-08
9.5906465e-08
9.61308e-08
9.6356391e-08
9.658055e-08
9.6799787e-08
9.701021e-08
9.7208391e-08
9.7390916e-08
9.7554154e-08
9.7694801e-08
9.7809856e-08
9.789689e-08
9.7954375e-08
9.7981133e-08
9.7976445e-08
9.794126e-08
9.787698e-08
9.7785097e-08
9.7668047e-08
9.7528914e-08
9.7371123e-08
9.7198391e-08
9.7013962e-08
9.6821206e-08
9.6623626e-08
9.6424352e-08
9.6225681e-08