/*--------------------------------*- C++ -*----------------------------------*\
| =========                 |                                                 |
| \\      /  F ield         | OpenFOAM: The Open Source CFD Toolbox           |
|  \\    /   O peration     | Version:  v2006                                 |
|   \\  /    A nd           | Website:  www.openfoam.com                      |
|    \\/     M anipulation  |                                                 |
\*---------------------------------------------------------------------------*/
FoamFile
{
    version     2.0;
    format      ascii;
    class       volScalarField;
    location    "4000";
    object      Cp;
}
// * * * * * * * * * * * * * * * * * * * * * * * * * * * * * * * * * * * * * //

dimensions      [0 0 0 0 0 0 0];


internalField   nonuniform List<scalar> 
19765
(
0.14940773
0.2055243
0.35624122
0.46146576
0.5656701
0.64396991
0.73612812
0.78961867
0.85787504
0.91332016
0.95183388
0.98120432
1.0042434
1.0159704
1.0188531
1.0150704
1.0050559
0.98868075
0.96575876
0.93604607
0.89860106
0.85384947
0.80580032
0.74952999
0.68131896
0.61043421
0.54962135
0.4804829
0.39388561
0.31583659
0.23440395
0.13608101
0.025181231
-0.12091277
-0.23864329
-0.3217942
-0.42838376
-0.58953865
-0.70129623
-0.82549105
-1.0293329
-1.2045624
-1.2323128
-1.3874169
-1.3808264
-1.4298691
-1.3857198
-1.3176822
-1.2310435
0.33738498
0.36607542
0.4028245
0.44687956
0.49360182
0.5385684
0.58563533
0.62518125
0.66656125
0.70751338
0.74214135
0.77085752
0.79731402
0.81584388
0.82623086
0.8333257
0.83549936
0.8301813
0.8190814
0.80116632
0.77664193
0.74700689
0.71048778
0.66748955
0.61954951
0.5670604
0.50794806
0.44336474
0.374339
0.30022554
0.22168054
0.13958786
0.054523569
-0.030932365
-0.11550382
-0.20080358
-0.28811699
-0.37431594
-0.45400541
-0.52876141
-0.59471178
-0.64898428
-0.70105326
-0.74547771
-0.77706933
-0.80403503
-0.82455457
-0.84330106
-0.86212676
0.32973084
0.36581237
0.40656475
0.44702472
0.48710812
0.5246843
0.56157226
0.59312962
0.62432842
0.65335706
0.67904928
0.70140785
0.72133706
0.73638777
0.74601159
0.7520633
0.75417988
0.750744
0.74148526
0.72619351
0.70481005
0.67778677
0.64481647
0.60579781
0.56172912
0.51310653
0.45890393
0.39952539
0.33600971
0.26801859
0.19638633
0.1223788
0.047205201
-0.028022022
-0.10466157
-0.18215391
-0.25814071
-0.33215573
-0.4045698
-0.47280728
-0.53617762
-0.59811182
-0.65705416
-0.71107142
-0.76024767
-0.79984584
-0.8348791
-0.864731
-0.89230851
0.36308914
0.38663506
0.41119867
0.43726145
0.46394752
0.49049841
0.51718426
0.54153651
0.5660102
0.5898058
0.61109556
0.62984398
0.64677003
0.65986657
0.66839946
0.6741228
0.67684858
0.67482695
0.66766702
0.65510698
0.6373801
0.61538848
0.58847798
0.55612503
0.51925909
0.4785615
0.43314338
0.38305886
0.32943452
0.2722305
0.21213916
0.15036348
0.087749653
0.025380614
-0.037903797
-0.10150465
-0.16320342
-0.22224831
-0.27979698
-0.33330187
-0.3819321
-0.42934633
-0.47629695
-0.51839368
-0.56005618
-0.59842005
-0.63757366
-0.67595376
-0.71338964
0.34746068
0.36874725
0.39045603
0.41191165
0.43296975
0.45329994
0.47346031
0.49172226
0.5099856
0.52783704
0.5439408
0.55814094
0.57099138
0.58102688
0.58745746
0.59155823
0.59331479
0.59122287
0.58474345
0.57356681
0.55748743
0.53715182
0.51212607
0.48193199
0.44747443
0.4095472
0.36753148
0.32125898
0.27179361
0.2194191
0.16461295
0.10832427
0.051229396
-0.005684011
-0.062823397
-0.11980635
-0.17537006
-0.2289525
-0.28114784
-0.33060729
-0.37720061
-0.42302438
-0.46850552
-0.51129538
-0.55426601
-0.59545784
-0.63625297
-0.67575085
-0.71408364
0.34256788
0.35794625
0.37395003
0.38987868
0.40572837
0.42113934
0.43667292
0.45080283
0.46509714
0.47913765
0.49180019
0.50293259
0.5129575
0.52069214
0.5254557
0.52820051
0.52886722
0.52621708
0.51977577
0.50925981
0.49447748
0.47606499
0.45367203
0.42676692
0.39608043
0.36226493
0.3248637
0.28380093
0.23999444
0.19373141
0.14546433
0.096022438
0.046010699
-0.0037318776
-0.053475592
-0.10288818
-0.15097422
-0.19728611
-0.24221605
-0.28481548
-0.32499357
-0.3643471
-0.40308601
-0.44006802
-0.47708027
-0.51324379
-0.54982402
-0.58671039
-0.62329755
0.32581154
0.3388285
0.35227284
0.36529087
0.37801445
0.39019677
0.40242116
0.41345434
0.42461265
0.43556299
0.44539947
0.45397833
0.46163417
0.46740663
0.47070375
0.47225237
0.47197034
0.46880368
0.46231876
0.45222775
0.43833698
0.42107337
0.40013783
0.37510677
0.34655319
0.31508317
0.28036032
0.24232849
0.20179381
0.15905709
0.11451745
0.068883592
0.02265605
-0.023413148
-0.069433602
-0.11512388
-0.15976513
-0.2029766
-0.24504198
-0.28531146
-0.32379847
-0.36157614
-0.39895968
-0.43514755
-0.47148098
-0.50735785
-0.54369678
-0.58026663
-0.6170328
0.31266096
0.32277752
0.33340279
0.34367928
0.35375523
0.36337806
0.37307913
0.38178318
0.39060825
0.39923987
0.40691983
0.41351471
0.41929062
0.42344759
0.42547878
0.42594608
0.42474792
0.42099553
0.41431084
0.40442271
0.3911691
0.37486348
0.35527595
0.33207267
0.30568121
0.27662683
0.24465522
0.20976086
0.17265353
0.13361528
0.093022175
0.05150472
0.0095130724
-0.032286162
-0.073953085
-0.11523807
-0.15554197
-0.19453783
-0.2324444
-0.26873676
-0.30340088
-0.3373318
-0.37075869
-0.40314223
-0.43553551
-0.46755279
-0.49999096
-0.53275337
-0.56580413
0.2964757
0.3048733
0.31371429
0.32216211
0.33038028
0.33815395
0.34597008
0.35291139
0.35993249
0.36675617
0.3727433
0.37777163
0.38205653
0.38492299
0.38593224
0.38552599
0.38359095
0.3793636
0.37250901
0.36277231
0.35001074
0.33443715
0.31585038
0.29399454
0.26919769
0.24192219
0.21197505
0.17937344
0.14474044
0.108338
0.070508342
0.031805343
-0.0073836704
-0.046465518
-0.085451074
-0.12411497
-0.16197183
-0.19872657
-0.23454887
-0.26902513
-0.30215873
-0.33460774
-0.3666352
-0.39779151
-0.42895597
-0.45983393
-0.49107947
-0.52264113
-0.5545655
0.28208174
0.2888188
0.29600077
0.30283886
0.30948909
0.31574466
0.32203539
0.32755969
0.33313409
0.3385026
0.34311899
0.34686878
0.34992558
0.35171192
0.35184666
0.35068002
0.34809311
0.34342799
0.33638966
0.32674403
0.31436434
0.29939847
0.28167641
0.26100575
0.23763751
0.21197645
0.1838787
0.15338517
0.12104895
0.087113702
0.051902023
0.015913893
-0.020498876
-0.056799006
-0.092972441
-0.12880711
-0.16387636
-0.19791013
-0.23104615
-0.26292379
-0.29352321
-0.32340662
-0.3528
-0.38132455
-0.40974716
-0.43782438
-0.46614848
-0.49469279
-0.52348569
0.26723813
0.27280139
0.27877074
0.28441226
0.28987215
0.2949634
0.30006597
0.30448177
0.30891167
0.31312337
0.31664529
0.31937048
0.3214393
0.32235242
0.32177582
0.31998938
0.31687185
0.31185046
0.304664
0.29509841
0.28303408
0.26858109
0.25158338
0.23189408
0.20971543
0.18539389
0.15882768
0.13007049
0.099612563
0.067678094
0.034566392
0.00072555117
-0.033531745
-0.067722028
-0.10181531
-0.13561347
-0.16874588
-0.2009639
-0.23238176
-0.26268754
-0.29185951
-0.32034223
-0.3483652
-0.3755704
-0.40264226
-0.42936093
-0.45624542
-0.48328191
-0.51055761
0.25358426
0.2581005
0.26299936
0.26760604
0.27205401
0.27616751
0.28027807
0.28377192
0.28725113
0.29050175
0.29311336
0.29498462
0.29622795
0.29640744
0.2952284
0.29291512
0.28934656
0.28402146
0.27670784
0.26721023
0.25541524
0.24141033
0.22504876
0.20621983
0.185094
0.1619655
0.13676672
0.10956309
0.080793237
0.050665862
0.019463851
-0.01240402
-0.044650525
-0.076832617
-0.10890757
-0.14068322
-0.17182136
-0.20208787
-0.23157735
-0.26000439
-0.28733224
-0.31394432
-0.34004892
-0.3653088
-0.39035156
-0.41496699
-0.43963412
-0.46433822
-0.4891515
0.24028552
0.24399522
0.24805362
0.25184293
0.25548321
0.2588128
0.26212108
0.26486777
0.26757132
0.27003547
0.27190028
0.27306972
0.27363323
0.27320731
0.27153014
0.26878172
0.26484275
0.25927184
0.25186203
0.24243464
0.2308827
0.2172774
0.2014797
0.1834052
0.16320205
0.14112104
0.11712066
0.091274041
0.063974587
0.035416014
0.0058643502
-0.024308053
-0.054839286
-0.085325229
-0.11571718
-0.1458317
-0.17536275
-0.20409254
-0.23210265
-0.25913376
-0.28514484
-0.3104547
-0.33526426
-0.35924166
-0.38296544
-0.40622854
-0.42946466
-0.45265619
-0.47590552
0.22790606
0.23091465
0.23424269
0.23732731
0.24027597
0.24293802
0.24556473
0.24767807
0.24972484
0.25152391
0.25275769
0.25333455
0.2533245
0.2523877
0.25029006
0.24717564
0.2429279
0.23715623
0.22967513
0.22032109
0.2089938
0.19575174
0.18046469
0.1630687
0.1436948
0.12255847
0.099638889
0.075015484
0.049043614
0.021904724
-0.0061487825
-0.034774129
-0.063728013
-0.092637343
-0.12144701
-0.14997768
-0.17794434
-0.20514031
-0.23163362
-0.25718119
-0.28173311
-0.30556619
-0.32886507
-0.35130741
-0.37343319
-0.3950366
-0.41652058
-0.43786089
-0.4591523
0.21610467
0.21854671
0.22127693
0.22378301
0.22616027
0.22826933
0.23032834
0.23191341
0.23341017
0.23465154
0.23535568
0.2354352
0.23494391
0.23357893
0.2311298
0.22771129
0.22321034
0.21727967
0.20975232
0.20047852
0.18936459
0.17645881
0.16164022
0.14486059
0.12623721
0.10595683
0.084014922
0.060495294
0.035720246
0.0098601371
-0.016845627
-0.044080961
-0.071619838
-0.099118232
-0.12651815
-0.15364639
-0.1802391
-0.20610273
-0.23129645
-0.25559433
-0.2789438
-0.30158236
-0.32368375
-0.34493155
-0.36582946
-0.38617217
-0.40633027
-0.42627279
-0.44610959
0.20506159
0.20701428
0.20922652
0.21123262
0.21311714
0.21475043
0.21632143
0.2174529
0.21847791
0.21924181
0.21949328
0.21914869
0.21824814
0.21652023
0.2137747
0.21010222
0.20539356
0.19933871
0.19178673
0.18260027
0.17169209
0.15910223
0.1447191
0.12850716
0.1105725
0.091078306
0.070033247
0.047524476
0.023845924
-0.00084137958
-0.026309359
-0.05226467
-0.078495156
-0.10468136
-0.13076196
-0.15656777
-0.18185072
-0.2064272
-0.23034647
-0.25339498
-0.27551574
-0.29691632
-0.31775627
-0.3377288
-0.35730559
-0.37628371
-0.39500807
-0.41344159
-0.43169134
0.19461836
0.19616374
0.19794058
0.19952551
0.20099306
0.20222294
0.2033787
0.20412377
0.20474615
0.20510256
0.20496791
0.2042622
0.2030141
0.20097928
0.19798505
0.19410213
0.18922541
0.18307714
0.17552039
0.166429
0.15572199
0.14343261
0.1294584
0.11377437
0.096477346
0.077710771
0.057494133
0.035916962
0.013248442
-0.010358567
-0.034686553
-0.059462522
-0.084486821
-0.10946258
-0.13432676
-0.1589153
-0.18299582
-0.20639575
-0.22915745
-0.2510807
-0.27210787
-0.29242044
-0.31216649
-0.33104913
-0.3495092
-0.36734709
-0.38488218
-0.40207173
-0.41903074
0.18481603
0.18600926
0.18740804
0.1886273
0.18973283
0.1906127
0.19140825
0.19181837
0.19209211
0.19209649
0.19162908
0.19061326
0.18906802
0.18677253
0.18356933
0.1795126
0.17450142
0.16828617
0.16074213
0.1517533
0.14124477
0.12924409
0.11565745
0.10046891
0.083767608
0.065680245
0.046235372
0.025524354
0.0037947318
-0.01880764
-0.042074818
-0.065751682
-0.089649216
-0.11349041
-0.13721042
-0.1606495
-0.18358833
-0.20586366
-0.22751032
-0.24833908
-0.26829103
-0.28752587
-0.30617911
-0.32396618
-0.34129901
-0.35798356
-0.37431711
-0.39025293
-0.40590568
0.17556745
0.17646179
0.17753718
0.17844298
0.17923711
0.17981541
0.18029993
0.18042063
0.18039301
0.18009349
0.17933937
0.17805733
0.17625826
0.17374184
0.17036403
0.16616525
0.16104884
0.15478975
0.14727411
0.13839512
0.12808377
0.11636259
0.10314646
0.088426482
0.072285366
0.054836299
0.036114888
0.016214097
-0.0046377184
-0.026300832
-0.048576209
-0.07122477
-0.094067066
-0.11684426
-0.13949043
-0.16185069
-0.18371854
-0.20494039
-0.22554541
-0.24535593
-0.26431409
-0.28256109
-0.30022168
-0.3170247
-0.3333543
-0.34902318
-0.36430737
-0.37915678
-0.39369051
0.16686415
0.16749919
0.16829268
0.16892502
0.16944717
0.16976209
0.169975
0.16984311
0.16955287
0.16898929
0.16798688
0.16647546
0.16445913
0.1617556
0.15823264
0.15391918
0.14872281
0.14244013
0.13496682
0.12620447
0.11608971
0.10464029
0.091780447
0.077506518
0.061895679
0.045050679
0.027011688
0.0078733742
-0.012152834
-0.032932583
-0.054275073
-0.075955572
-0.097803095
-0.11957517
-0.14120487
-0.16254196
-0.1833914
-0.20360827
-0.223216
-0.24204726
-0.26004499
-0.27733436
-0.29402914
-0.30987283
-0.32522307
-0.33990089
-0.35416309
-0.36795787
-0.38140475
0.15864901
0.15906113
0.15961072
0.16000595
0.16029166
0.1603773
0.16035352
0.16000154
0.15948264
0.1586897
0.15747242
0.15576363
0.15356179
0.15070053
0.14705814
0.14265398
0.13739985
0.13111143
0.12369294
0.11505368
0.10513548
0.09395205
0.081436868
0.067589895
0.05248349
0.036212578
0.018820475
0.0004030924
-0.018843074
-0.038788446
-0.059249946
-0.08001582
-0.10092277
-0.12174333
-0.14240997
-0.16277739
-0.1826616
-0.20192638
-0.22059055
-0.23849738
-0.25559197
-0.27198588
-0.28778334
-0.30274331
-0.3171982
-0.3309782
-0.34432199
-0.35717657
-0.36966396
0.15089732
0.1511154
0.1514517
0.15163931
0.1517177
0.1516023
0.15137103
0.15082631
0.1501076
0.14911499
0.14771155
0.14583303
0.14347318
0.14047977
0.13674048
0.1322667
0.12697432
0.12069597
0.11334353
0.10483333
0.095112004
0.084190034
0.072009404
0.058572996
0.043948972
0.028225967
0.011449718
-0.006283145
-0.024789313
-0.043943486
-0.063569839
-0.083468374
-0.10348279
-0.1233993
-0.14314994
-0.16259428
-0.18155864
-0.19991484
-0.2176773
-0.23469913
-0.25092757
-0.26646213
-0.28139779
-0.29550934
-0.30910506
-0.32202521
-0.33449173
-0.34645162
-0.35802731
0.14356623
0.14361627
0.14376683
0.14377331
0.14367045
0.14337917
0.14296635
0.14225318
0.14136017
0.14019405
0.13862975
0.13660585
0.13411222
0.13100924
0.12719302
0.12266832
0.11735503
0.11110088
0.1038246
0.095449017
0.085925189
0.075261014
0.06340621
0.050366138
0.036205289
0.021007072
0.0048191974
-0.01226147
-0.030063324
-0.048464938
-0.067297345
-0.086371267
-0.10553684
-0.12459292
-0.14347131
-0.16203662
-0.18012503
-0.19761625
-0.21452102
-0.23070232
-0.24611022
-0.26083402
-0.27496054
-0.28828068
-0.30107999
-0.31320918
-0.32487457
-0.33602357
-0.34677981
0.13662717
0.1365308
0.13651879
0.13636652
0.13610463
0.13565909
0.13508713
0.13422664
0.13318164
0.13186493
0.13016206
0.1280143
0.12540833
0.12221583
0.11834051
0.1137816
0.10846291
0.10224561
0.09505467
0.086818844
0.077493289
0.067083884
0.055547296
0.042891066
0.029176467
0.014482459
-0.0011416113
-0.017599061
-0.034728707
-0.052412674
-0.070488483
-0.088776673
-0.10713335
-0.12536898
-0.14341532
-0.16114199
-0.17839451
-0.19505994
-0.2111457
-0.22652407
-0.24114797
-0.25509756
-0.268452
-0.28101808
-0.29305981
-0.30443857
-0.3153462
-0.32573131
-0.3357175
0.13004528
0.12982195
0.12966819
0.12937732
0.12897638
0.12839598
0.12768502
0.12669619
0.12551918
0.12407243
0.12225094
0.11999859
0.11729949
0.11403545
0.11011707
0.10553904
0.10022889
0.094059885
0.086962626
0.078871336
0.069744941
0.059587762
0.048362703
0.036079226
0.022795775
0.0085874678
-0.0064950063
-0.022355491
-0.038842138
-0.055840355
-0.073193837
-0.090732145
-0.10831695
-0.12576948
-0.14302161
-0.15994798
-0.17640304
-0.19228096
-0.20758632
-0.22220054
-0.23607973
-0.24929621
-0.2619224
-0.2737808
-0.28511524
-0.29579786
-0.30600702
-0.31569279
-0.32497898
0.12379276
0.12345923
0.12318184
0.12276997
0.12224755
0.12154948
0.12071737
0.11961718
0.11832607
0.1167677
0.11484554
0.11250598
0.10973105
0.10641173
0.10246486
0.09788136
0.092592397
0.086482083
0.07948614
0.071543822
0.062617528
0.0527104
0.041790926
0.029870262
0.017004347
0.0032649359
-0.011296201
-0.026583728
-0.042454192
-0.058796081
-0.075458964
-0.092280725
-0.10912826
-0.12583273
-0.14232629
-0.15848855
-0.1741824
-0.1893087
-0.20386951
-0.21775492
-0.23092416
-0.24344259
-0.25537633
-0.2665631
-0.27722772
-0.28725291
-0.29680454
-0.30583459
-0.31446629
0.11784025
0.11741171
0.11702709
0.11651022
0.11588231
0.11508222
0.11414525
0.11294919
0.11156029
0.10990705
0.10790055
0.10548962
0.10265462
0.099294832
0.09533278
0.090756306
0.085500063
0.079457933
0.072570315
0.064781095
0.056055871
0.046396901
0.035777674
0.024210828
0.011750063
-0.0015358454
-0.015594289
-0.030331005
-0.045610132
-0.06132307
-0.077324999
-0.093461505
-0.10960441
-0.12559407
-0.14136305
-0.15679587
-0.17176346
-0.18617301
-0.20002447
-0.21321628
-0.22571092
-0.2375677
-0.24884724
-0.25940197
-0.269439
-0.27885147
-0.28779364
-0.2962196
-0.30425197
0.11216247
0.11165244
0.11117527
0.11056775
0.10984879
0.10896089
0.10793385
0.10665608
0.10518431
0.1034515
0.10137563
0.098907851
0.096027218
0.09264055
0.088675563
0.084117599
0.078904654
0.072939431
0.066166605
0.058534327
0.050011142
0.040598661
0.030274841
0.019053603
0.0069866242
-0.0058599949
-0.019433039
-0.033639532
-0.048350517
-0.06346018
-0.078829064
-0.094309904
-0.10977916
-0.12508575
-0.14016271
-0.15489937
-0.16917424
-0.18290047
-0.19607616
-0.20860761
-0.22046045
-0.23168861
-0.24234765
-0.252304
-0.26174819
-0.27058341
-0.27895315
-0.28681384
-0.29428698
0.10673459
0.10615548
0.1055992
0.10491428
0.10411757
0.10315499
0.10205155
0.10070522
0.099164362
0.097366125
0.095234707
0.092723489
0.089810547
0.086409548
0.082452963
0.077924126
0.07276423
0.066883965
0.060231917
0.052760174
0.044439982
0.035272499
0.025239658
0.01435648
0.0026727846
-0.0097477586
-0.02285155
-0.036547091
-0.050711739
-0.06524237
-0.080004667
-0.094858015
-0.10968327
-0.12433727
-0.13875362
-0.15282634
-0.16644107
-0.17951656
-0.19204933
-0.20395318
-0.21519688
-0.22582962
-0.23590253
-0.24529539
-0.2541834
-0.26247941
-0.27031696
-0.27765493
-0.28461357
0.10153469
0.1008978
0.10027468
0.099524481
0.098662298
0.097637186
0.096470003
0.095067319
0.093470187
0.091619632
0.089445504
0.086903316
0.083970422
0.080566738
0.076629101
0.072139247
0.067041432
0.061253584
0.054727878
0.047420029
0.039303762
0.030379928
0.020633987
0.010081888
-0.0012282877
-0.01323511
-0.025884809
-0.039087536
-0.052726462
-0.066701085
-0.080882019
-0.095134851
-0.10934461
-0.12337546
-0.13716166
-0.15060169
-0.16358794
-0.17604433
-0.187966
-0.19927379
-0.20993942
-0.22000786
-0.22952621
-0.23838676
-0.24675048
-0.25453939
-0.26187778
-0.26872714
-0.27520607
0.096542133
0.095857953
0.095179394
0.094375211
0.093458993
0.092382721
0.09116362
0.089716037
0.088074607
0.086183974
0.08397912
0.081417602
0.078476271
0.075080757
0.071171912
0.06673023
0.061702888
0.056014392
0.049620211
0.042479405
0.034567969
0.025886554
0.016423736
0.0061962243
-0.0047495489
-0.016354252
-0.028564157
-0.041291219
-0.054424001
-0.067864582
-0.081488315
-0.09516659
-0.10878839
-0.12222467
-0.13541036
-0.14824824
-0.16063697
-0.17250529
-0.18384712
-0.19458992
-0.20470823
-0.21424333
-0.22323876
-0.23159861
-0.23947071
-0.24678585
-0.25365981
-0.26005666
-0.2660933
0.091738757
0.091016988
0.090293513
0.089445852
0.088486267
0.087369474
0.086109522
0.0846278
0.082953299
0.08103404
0.078809684
0.076239733
0.073300728
0.069923529
0.066052691
0.061667766
0.056718717
0.051136035
0.044878222
0.037907416
0.030201684
0.021761563
0.012578356
0.00266938
-0.0079205327
-0.019134043
-0.030917678
-0.043185342
-0.055830638
-0.068758207
-0.081847971
-0.094976755
-0.1080373
-0.12090685
-0.13352102
-0.14578667
-0.15760825
-0.16891893
-0.17971153
-0.18991962
-0.1995204
-0.20855177
-0.21705403
-0.22494225
-0.23235211
-0.2392226
-0.24566161
-0.25163591
-0.25726032
0.087108096
0.086357791
0.085599212
0.084717905
0.083724963
0.082577656
0.08128725
0.079781529
0.078084509
0.076147369
0.073914038
0.071345881
0.068419276
0.06506989
0.061245697
0.056925561
0.052062105
0.046591271
0.040474353
0.033676327
0.026177145
0.017977285
0.0090704242
-0.00052566779
-0.010767735
-0.021600361
-0.032970537
-0.044794262
-0.056969892
-0.06940463
-0.081982816
-0.094586391
-0.10711167
-0.11944171
-0.13151279
-0.14323562
-0.15451999
-0.16530308
-0.17557672
-0.18528011
-0.19439291
-0.20295004
-0.21098895
-0.21843496
-0.22541259
-0.23186862
-0.23790367
-0.24348721
-0.24873188
0.082635932
0.081865493
0.081080922
0.080175141
0.079158204
0.077989772
0.076678668
0.075158488
0.073448862
0.071503917
0.069271488
0.066714714
0.063809943
0.060497263
0.056727815
0.052479989
0.047708941
0.042355592
0.03638381
0.029761182
0.022469367
0.014508827
0.0058752738
-0.0034132102
-0.01331495
-0.023776414
-0.034745268
-0.046139753
-0.057862746
-0.06982404
-0.081912262
-0.094014183
-0.10602953
-0.11784672
-0.12940271
-0.14061174
-0.1513885
-0.16167375
-0.17145834
-0.1806866
-0.18934041
-0.19745192
-0.20505593
-0.21208719
-0.21865991
-0.22472807
-0.23038557
-0.23560461
-0.24049538
0.078309878
0.077527119
0.076725029
0.075803336
0.074771164
0.073590412
0.072267753
0.07074208
0.069029145
0.067085833
0.064863559
0.062327149
0.059453037
0.056185383
0.052478263
0.048309782
0.043637508
0.038406913
0.032584239
0.026139476
0.019055825
0.011333752
0.0029706885
-0.0060151115
-0.015583563
-0.025683007
-0.03626202
-0.047241225
-0.058527843
-0.070034311
-0.081653433
-0.093276571
-0.10480671
-0.11613723
-0.12720573
-0.1379297
-0.14822823
-0.15804524
-0.1673706
-0.17615328
-0.18437714
-0.19207182
-0.19926979
-0.20591458
-0.21211097
-0.2178198
-0.22312878
-0.22801286
-0.23257962
0.074119648
0.073331765
0.072519973
0.071590301
0.070551034
0.069366171
0.068040482
0.066517699
0.064810137
0.062877266
0.060673783
0.058166127
0.055330906
0.05211604
0.048478336
0.044395771
0.039828208
0.034725285
0.029055441
0.02279087
0.015916164
0.0084318048
0.00033664399
-0.0083510385
-0.017592765
-0.027338762
-0.037538764
-0.048115915
-0.058981655
-0.070051137
-0.081221275
-0.092387818
-0.1034569
-0.11432649
-0.12493477
-0.13520219
-0.14505174
-0.15443006
-0.16332594
-0.17169245
-0.17951509
-0.1868211
-0.19364069
-0.19992531
-0.20577096
-0.21114475
-0.21612856
-0.22070023
-0.22496431
0.07005669
0.069270284
0.068455979
0.067525651
0.066486822
0.065305458
0.063984648
0.062472546
0.060778423
0.058864169
0.056687505
0.054216401
0.05142772
0.048272862
0.044711176
0.040720645
0.03626332
0.031292656
0.025779124
0.019696947
0.013031955
0.0057846626
-0.0020449531
-0.010438682
-0.019359767
-0.028760348
-0.038591494
-0.048779067
-0.059238622
-0.069888158
-0.080628644
-0.091360082
-0.10199167
-0.11242563
-0.12260067
-0.13243991
-0.14186973
-0.15083899
-0.15933534
-0.16731538
-0.174766
-0.18171225
-0.18818231
-0.19413506
-0.1996586
-0.20472603
-0.20941397
-0.21370307
-0.21769484
0.066114384
0.065335406
0.064525107
0.063600786
0.062569279
0.061398391
0.060089726
0.058595477
0.056922228
0.05503413
0.052891691
0.050464345
0.047729276
0.044641107
0.041161563
0.037268745
0.032926788
0.028092653
0.022738691
0.016840985
0.010386476
0.0033757018
-0.0041905386
-0.012294121
-0.020900151
-0.029962728
-0.039434414
-0.049244069
-0.05931129
-0.069557045
-0.079886376
-0.09020344
-0.10042046
-0.11044364
-0.12021219
-0.12965152
-0.13869089
-0.14728092
-0.15540786
-0.16303127
-0.17013896
-0.1767537
-0.18290149
-0.18854772
-0.19377285
-0.19855537
-0.20296675
-0.2069907
-0.21072508
0.062287507
0.061521292
0.060720885
0.0598086
0.058790662
0.057636589
0.05634668
0.054876827
0.053231238
0.051376186
0.049274754
0.046897774
0.044222812
0.041207483
0.037815729
0.034025872
0.029804029
0.025110384
0.019919034
0.01420777
0.007964521
0.0011898314
-0.0061149202
-0.013931748
-0.022227791
-0.030959163
-0.040080061
-0.049522601
-0.059210407
-0.069067602
-0.079003339
-0.088925927
-0.098750629
-0.10838741
-0.11777592
-0.12684355
-0.13552192
-0.14376289
-0.15155111
-0.15884848
-0.1656435
-0.17195678
-0.17781244
-0.18318214
-0.18813972
-0.19266898
-0.19683697
-0.20063019
-0.2041432
0.058572627
0.057823787
0.057038438
0.056143497
0.05514467
0.054013062
0.05274783
0.051308247
0.049696438
0.047880656
0.045826377
0.043505771
0.040896835
0.037959965
0.034661184
0.030979115
0.02688176
0.022332272
0.01730637
0.011783415
0.0057522185
-0.00078669446
-0.007831574
-0.015364654
-0.02335523
-0.031761493
-0.040539468
-0.049624752
-0.058945052
-0.068427835
-0.077986488
-0.08753354
-0.096987379
-0.10626158
-0.1152962
-0.12402029
-0.1323673
-0.14028978
-0.14777043
-0.15477276
-0.16128528
-0.16732603
-0.17291675
-0.178034
-0.18274482
-0.18703732
-0.19097398
-0.19454445
-0.19783922
0.054967036
0.054239591
0.053473847
0.052600922
0.051626093
0.050521935
0.049286619
0.04788251
0.046309922
0.044538966
0.042537345
0.040278514
0.037740953
0.034887642
0.031686558
0.028116693
0.024147842
0.019745892
0.014888077
0.0095552056
0.0037368734
-0.002566434
-0.0093527799
-0.016604697
-0.024293755
-0.032380269
-0.040822296
-0.049559161
-0.058522716
-0.067644033
-0.076840895
-0.086030239
-0.095133731
-0.10406847
-0.11277496
-0.12118359
-0.12922915
-0.13686435
-0.14406961
-0.15080945
-0.15707208
-0.16287314
-0.1682326
-0.17313202
-0.17763325
-0.18172902
-0.18547843
-0.18887359
-0.19200215
0.05146987
0.050767021
0.050024621
0.049177588
0.048230872
0.047158399
0.045957499
0.044593362
0.04306474
0.041343483
0.039399378
0.037207123
0.034745719
0.031980559
0.028881451
0.025427811
0.021591134
0.017339831
0.012652551
0.0075114442
0.0019068114
-0.0041609204
-0.010689791
-0.017662691
-0.02505358
-0.032824924
-0.040937019
-0.049333169
-0.057949461
-0.066720861
-0.075569811
-0.08441794
-0.093190448
-0.10180797
-0.11021149
-0.11833254
-0.12610676
-0.13348646
-0.1404493
-0.14695979
-0.15300479
-0.15859654
-0.16375187
-0.16845513
-0.17276168
-0.17666709
-0.18022626
-0.18343442
-0.18637527
0.048079756
0.047404261
0.046688405
0.04587058
0.044955476
0.043918284
0.042755621
0.041435283
0.039954687
0.038287335
0.036404969
0.034283497
0.031902486
0.029229576
0.026236297
0.022902527
0.019201367
0.015103553
0.010589068
0.0056413217
0.000251253
-0.0055807794
-0.011852931
-0.018548484
-0.025643918
-0.033103849
-0.040891009
-0.048952934
-0.057230029
-0.065661494
-0.074174754
-0.082696561
-0.091155976
-0.099477299
-0.10760216
-0.11546312
-0.12299632
-0.1301532
-0.13690828
-0.14322541
-0.14908985
-0.15451084
-0.15950333
-0.16405551
-0.16821914
-0.17199387
-0.17543266
-0.1785322
-0.1813751
0.044797822
0.044151487
0.043464391
0.042678183
0.041797321
0.040798195
0.039676814
0.038403378
0.03697417
0.035364258
0.03354723
0.031500172
0.02920326
0.026626232
0.023742233
0.020531626
0.01696902
0.013027295
0.008687695
0.003934827
-0.0012397722
-0.0068358138
-0.012851686
-0.019271066
-0.026073093
-0.033224475
-0.040690582
-0.048423441
-0.056367832
-0.064467572
-0.072655475
-0.080863955
-0.089026348
-0.09707085
-0.10494007
-0.11256764
-0.11989006
-0.12685736
-0.13344025
-0.13960055
-0.14532006
-0.15060283
-0.15545889
-0.15987601
-0.16389868
-0.16752708
-0.17080974
-0.17374667
-0.17641652
0.04162245
0.041007015
0.040350574
0.039598051
0.038753587
0.03779478
0.036717118
0.035493072
0.034117975
0.032568418
0.030819737
0.028850186
0.026640582
0.024162634
0.021390998
0.018306531
0.014885245
0.011101983
0.006939182
0.0023826152
-0.0025756044
-0.0079352554
-0.013695045
-0.019839011
-0.026349051
-0.0331938
-0.040341493
-0.047748899
-0.055365208
-0.063139298
-0.071009871
-0.078915676
-0.086794773
-0.09457966
-0.10221446
-0.10963425
-0.11677592
-0.12358783
-0.13003664
-0.13608155
-0.14170094
-0.14689481
-0.151671
-0.1560202
-0.15998522
-0.16357042
-0.16682415
-0.16974634
-0.17241686
0.038556791
0.037972687
0.037347455
0.03662951
0.035822527
0.034905357
0.033873011
0.032700114
0.031381183
0.029894288
0.028216412
0.026326957
0.024207419
0.021831353
0.019174831
0.016219196
0.012941731
0.0093190521
0.0053347345
0.00097572795
-0.0037652676
-0.0088880815
-0.014391791
-0.020260721
-0.026479625
-0.033018812
-0.039849591
-0.046933612
-0.054224428
-0.061676467
-0.069234895
-0.07684558
-0.084451817
-0.09199109
-0.099409939
-0.10664568
-0.11363579
-0.12032671
-0.12668015
-0.13265067
-0.13821009
-0.1433499
-0.14806915
-0.15235293
-0.15623326
-0.15971127
-0.1628287
-0.16559039
-0.16806997
0.035597111
0.035045344
0.034452069
0.033769655
0.03300106
0.032126518
0.031140626
0.030020131
0.028758882
0.027336437
0.025731353
0.023924161
0.02189706
0.019625334
0.017086361
0.014261951
0.011130531
0.0076703141
0.003865977
-0.00029428182
-0.0048171137
-0.0097023626
-0.014949456
-0.020542959
-0.026470739
-0.032704583
-0.039219076
-0.045980599
-0.052946888
-0.060078374
-0.067327126
-0.074646911
-0.081986742
-0.089290117
-0.096507438
-0.10357959
-0.11044554
-0.11705011
-0.12335023
-0.12929579
-0.13485301
-0.14000793
-0.1447569
-0.14908794
-0.15303402
-0.15660184
-0.15983527
-0.16273655
-0.16538267
0.032750268
0.032229439
0.031666751
0.03101893
0.030288054
0.02945583
0.028516485
0.027448828
0.026246146
0.024889457
0.02335878
0.021635707
0.019703112
0.017537878
0.015118614
0.012427618
0.0094443679
0.0061484744
0.0025256488
-0.0014345379
-0.0057379913
-0.010384531
-0.015373881
-0.020690844
-0.026326542
-0.032253809
-0.038450977
-0.044888911
-0.051529377
-0.058339363
-0.065278204
-0.072308092
-0.079384177
-0.086457361
-0.093483574
-0.10040895
-0.10717497
-0.11372536
-0.12001178
-0.12597706
-0.13157665
-0.1367822
-0.14157327
-0.14592257
-0.14984317
-0.15333092
-0.15641732
-0.15911344
-0.16148393
0.030007683
0.029518029
0.028985831
0.028372448
0.027678993
0.026888797
0.025995917
0.024981265
0.023837758
0.022547861
0.021092959
0.019455636
0.017619422
0.015562704
0.013265253
0.010709853
0.0078768558
0.0047469269
0.0013066771
-0.0024527203
-0.0065363163
-0.010943973
-0.015675672
-0.020716319
-0.026059597
-0.031678044
-0.03755452
-0.04366417
-0.049972657
-0.056454541
-0.063077151
-0.069811467
-0.076619462
-0.083461735
-0.090301949
-0.097093489
-0.10378172
-0.1103106
-0.11662797
-0.12267164
-0.12839058
-0.13375055
-0.13872903
-0.14330342
-0.1474923
-0.15130013
-0.15476459
-0.15788787
-0.16074352
0.027383767
0.026920594
0.02641489
0.02583232
0.025173384
0.024422976
0.023575087
0.02261256
0.021528062
0.020305455
0.018927449
0.017377539
0.01563977
0.013693721
0.011520028
0.0091018005
0.0064200708
0.0034563347
0.00019817233
-0.0033612211
-0.0072259442
-0.01139595
-0.015871286
-0.020636769
-0.025688388
-0.030997693
-0.036552325
-0.042329922
-0.048299537
-0.054444211
-0.060738136
-0.067162045
-0.073685534
-0.080282374
-0.086927013
-0.093583516
-0.10020378
-0.10673451
-0.1131202
-0.11929025
-0.12517734
-0.13072266
-0.13587179
-0.14056753
-0.14478833
-0.14851029
-0.1517441
-0.1545061
-0.15684491
0.024858009
0.024420954
0.0239414
0.023388664
0.022762895
0.022050592
0.0212462
0.020334776
0.019309254
0.018154959
0.016855746
0.015395617
0.013758635
0.011925056
0.0098761254
0.0075954969
0.0050653741
0.0022683993
-0.00080678331
-0.0041645271
-0.0078077232
-0.011736136
-0.015949206
-0.020432218