/*--------------------------------*- C++ -*----------------------------------*\
| =========                 |                                                 |
| \\      /  F ield         | OpenFOAM: The Open Source CFD Toolbox           |
|  \\    /   O peration     | Version:  v2006                                 |
|   \\  /    A nd           | Website:  www.openfoam.com                      |
|    \\/     M anipulation  |                                                 |
\*---------------------------------------------------------------------------*/
FoamFile
{
    version     2.0;
    format      ascii;
    class       volScalarField;
    location    "4000";
    object      k;
}
// * * * * * * * * * * * * * * * * * * * * * * * * * * * * * * * * * * * * * //

dimensions      [0 2 -2 0 0 0 0];


internalField   nonuniform List<scalar> 
19765
(
0.00015498205
0.0001579224
0.00016089504
0.00016390325
0.00016724744
0.00017050759
0.00017431974
0.00017746224
0.00018170367
0.00018430155
0.00018661474
0.00018938236
0.00019214777
0.00019405149
0.00019630892
0.00019899833
0.00020132027
0.00020334293
0.000205882
0.00020871938
0.00021161588
0.00021418469
0.00021694527
0.00022008125
0.00022304958
0.00022537235
0.00022796853
0.00023096371
0.00023349499
0.00023607225
0.0002389969
0.00024233214
0.00024646119
0.00024930362
0.00025099105
0.00025356879
0.00025739211
0.00026002625
0.00026355053
0.00026872768
0.00027263144
0.00027389741
0.00027687987
0.00027705678
0.00027753982
0.00027733748
0.00027660556
0.00027509687
0.00027278052
0.00015628865
0.00015899585
0.0001626091
0.00017083371
0.00017862372
0.00018661855
0.00019358807
0.00020281791
0.00021037774
0.00022040301
0.00023149131
0.00024054908
0.00024714095
0.00025289571
0.00025677878
0.00025812026
0.00025917921
0.00026104873
0.00026335908
0.00026583262
0.00026888984
0.00027263116
0.0002761503
0.00028002571
0.00028607123
0.0002942059
0.00030169897
0.00030918775
0.00031887102
0.00032886231
0.00033824815
0.00034665419
0.00035364538
0.0003635199
0.00037502978
0.00038363937
0.00038914518
0.00039597683
0.00039930112
0.00039904587
0.00040178919
0.00040479725
0.00039994244
0.00039875319
0.00039489176
0.00039037192
0.00038281023
0.00037306374
0.00036197729
1.6560394e-05
1.5920669e-05
1.557458e-05
1.633162e-05
1.6771569e-05
1.7184844e-05
1.7272278e-05
1.7762308e-05
1.7768335e-05
1.8267869e-05
1.8873087e-05
1.9054842e-05
1.8877719e-05
1.8713902e-05
1.8311647e-05
1.7677564e-05
1.7253194e-05
1.7001429e-05
1.6765863e-05
1.6551242e-05
1.6520852e-05
1.6724046e-05
1.6876812e-05
1.7036501e-05
1.7586115e-05
1.8666435e-05
1.9781942e-05
2.0945196e-05
2.2592849e-05
2.4456843e-05
2.6367833e-05
2.8243249e-05
2.9929657e-05
3.2424335e-05
3.5685997e-05
3.8681605e-05
4.1095226e-05
4.4214861e-05
4.6837066e-05
4.8255799e-05
5.027674e-05
5.3994749e-05
5.5920753e-05
5.9333117e-05
6.1628573e-05
6.7514973e-05
7.5421721e-05
8.5258389e-05
9.3173353e-05
3.722166e-07
3.335371e-07
3.1369922e-07
3.1760674e-07
3.1851297e-07
3.1987017e-07
3.1669944e-07
3.1963921e-07
3.1555097e-07
3.1736573e-07
3.2057771e-07
3.1819408e-07
3.1106096e-07
3.0481733e-07
2.9663923e-07
2.860189e-07
2.7896948e-07
2.7549071e-07
2.7220595e-07
2.6852826e-07
2.6849629e-07
2.7276957e-07
2.7562932e-07
2.7922046e-07
2.8883969e-07
3.0646029e-07
3.2577624e-07
3.4715174e-07
3.7654089e-07
4.1104393e-07
4.4894741e-07
4.8931433e-07
5.3057656e-07
5.8839468e-07
6.6431564e-07
7.4324381e-07
8.2074296e-07
9.1950712e-07
1.016522e-06
1.0988298e-06
1.2071901e-06
1.3712553e-06
1.5159556e-06
1.7495562e-06
1.979687e-06
2.3108067e-06
2.7105393e-06
3.212376e-06
3.8038411e-06
7.4606163e-08
7.4582731e-08
7.5162251e-08
7.7076944e-08
7.8632522e-08
8.0149942e-08
8.1227639e-08
8.2775229e-08
8.3647449e-08
8.5082957e-08
8.6675902e-08
8.7750889e-08
8.8394928e-08
8.914076e-08
8.9624766e-08
8.9782569e-08
9.0328294e-08
9.1290393e-08
9.2130789e-08
9.2866523e-08
9.3913653e-08
9.5269771e-08
9.6613732e-08
9.8214437e-08
1.0054244e-07
1.0386474e-07
1.0743475e-07
1.1118766e-07
1.1575481e-07
1.2075918e-07
1.2592844e-07
1.3112602e-07
1.3604228e-07
1.4199107e-07
1.4896265e-07
1.5558755e-07
1.6135583e-07
1.6783434e-07
1.7358691e-07
1.778085e-07
1.8269431e-07
1.8948232e-07
1.944154e-07
2.0193802e-07
2.0834435e-07
2.1677822e-07
2.2544694e-07
2.3244864e-07
2.3814651e-07
5.3001167e-08
5.3147261e-08
5.3564564e-08
5.4522736e-08
5.5280491e-08
5.6044148e-08
5.6642086e-08
5.7414645e-08
5.7909887e-08
5.8661172e-08
5.9398503e-08
5.9905209e-08
6.0270671e-08
6.0676797e-08
6.0975267e-08
6.1203037e-08
6.1631328e-08
6.2223028e-08
6.2773466e-08
6.3322178e-08
6.4005806e-08
6.4809074e-08
6.5744442e-08
6.6852136e-08
6.8263506e-08
7.0130595e-08
7.2173071e-08
7.4326278e-08
7.6852104e-08
7.9634897e-08
8.2551622e-08
8.5556443e-08
8.8458187e-08
9.1724994e-08
9.5476681e-08
9.9263153e-08
1.0268777e-07
1.0633534e-07
1.0985564e-07
1.127485e-07
1.1561e-07
1.194155e-07
1.2252494e-07
1.2667443e-07
1.3055182e-07
1.3527551e-07
1.4046902e-07
1.461763e-07
1.512632e-07
4.1243504e-08
4.12356e-08
4.1360902e-08
4.1761125e-08
4.207382e-08
4.2397981e-08
4.2654048e-08
4.3003569e-08
4.3232781e-08
4.3591031e-08
4.3954727e-08
4.4218389e-08
4.4423321e-08
4.4655317e-08
4.4844855e-08
4.5008819e-08
4.528e-08
4.5645894e-08
4.6009446e-08
4.6387388e-08
4.6826858e-08
4.7316967e-08
4.7891077e-08
4.8579656e-08
4.9436247e-08
5.0524336e-08
5.1707865e-08
5.2967987e-08
5.4429403e-08
5.6031404e-08
5.7718199e-08
5.946501e-08
6.1186452e-08
6.3102164e-08
6.5259268e-08
6.7439639e-08
6.9468943e-08
7.1614993e-08
7.3710569e-08
7.5526944e-08
7.7350467e-08
7.9594786e-08
8.1526701e-08
8.3907856e-08
8.6149214e-08
8.8726874e-08
9.1450436e-08
9.4338226e-08
9.6986653e-08
3.5115769e-08
3.5112825e-08
3.5183063e-08
3.5406205e-08
3.558018e-08
3.5759993e-08
3.5902506e-08
3.6094951e-08
3.6224024e-08
3.6422772e-08
3.6625608e-08
3.6779395e-08
3.6907093e-08
3.7053502e-08
3.7183822e-08
3.7308832e-08
3.7497195e-08
3.7742222e-08
3.7995998e-08
3.8270395e-08
3.8589412e-08
3.8945672e-08
3.9363668e-08
3.9858288e-08
4.045408e-08
4.1185738e-08
4.1982088e-08
4.2834773e-08
4.3812162e-08
4.4882226e-08
4.6014864e-08
4.7196647e-08
4.838071e-08
4.9684986e-08
5.1137775e-08
5.2622591e-08
5.4041224e-08
5.5536901e-08
5.7022158e-08
5.8368781e-08
5.9726213e-08
6.1335248e-08
6.2790702e-08
6.4521411e-08
6.6207002e-08
6.8123217e-08
7.0178058e-08
7.2396423e-08
7.4535117e-08
3.1252272e-08
3.1238914e-08
3.126896e-08
3.1391263e-08
3.1486691e-08
3.1587457e-08
3.1668759e-08
3.1780801e-08
3.1858911e-08
3.1979049e-08
3.2104082e-08
3.220449e-08
3.2293674e-08
3.2396953e-08
3.2495098e-08
3.2594801e-08
3.2735004e-08
3.2912158e-08
3.3099854e-08
3.3305228e-08
3.354043e-08
3.3799854e-08
3.4099317e-08
3.4451579e-08
3.4870431e-08
3.5373959e-08
3.5921691e-08
3.6510394e-08
3.7179376e-08
3.7910012e-08
3.8685666e-08
3.949849e-08
4.0322166e-08
4.1223175e-08
4.2216629e-08
4.3235251e-08
4.4223876e-08
4.5262448e-08
4.6300498e-08
4.7264222e-08
4.823892e-08
4.935567e-08
5.0386953e-08
5.1569764e-08
5.2723204e-08
5.3997764e-08
5.5337496e-08
5.6751168e-08
5.8099835e-08
2.8801285e-08
2.8796826e-08
2.88179e-08
2.8896292e-08
2.8957778e-08
2.9022789e-08
2.9076308e-08
2.9149185e-08
2.9202521e-08
2.9282493e-08
2.9366787e-08
2.9438353e-08
2.9505598e-08
2.9583694e-08
2.9661547e-08
2.9743661e-08
2.9853235e-08
2.9988222e-08
3.0133432e-08
3.0293583e-08
3.047611e-08
3.0677489e-08
3.0906914e-08
3.1173457e-08
3.148603e-08
3.1854895e-08
3.2255739e-08
3.2687414e-08
3.3174588e-08
3.3706188e-08
3.42723e-08
3.4868259e-08
3.5477923e-08
3.6142098e-08
3.6870725e-08
3.7622564e-08
3.8362738e-08
3.9140092e-08
3.992385e-08
4.0666947e-08
4.1420516e-08
4.2269089e-08
4.3069515e-08
4.3971787e-08
4.4863399e-08
4.5841472e-08
4.6873565e-08
4.7971539e-08
4.9038256e-08
2.7134017e-08
2.713519e-08
2.7152338e-08
2.7206984e-08
2.7251054e-08
2.7297879e-08
2.7337992e-08
2.7391126e-08
2.7432848e-08
2.7492437e-08
2.7555977e-08
2.7613114e-08
2.7669289e-08
2.773401e-08
2.7800527e-08
2.7871855e-08
2.7962435e-08
2.8071045e-08
2.8188451e-08
2.8317652e-08
2.8463275e-08
2.8622983e-08
2.8802171e-08
2.9007466e-08
2.9245363e-08
2.9521792e-08
2.9821446e-08
3.0144186e-08
3.0506002e-08
3.090002e-08
3.1320205e-08
3.1763692e-08
3.2220368e-08
3.2716083e-08
3.325717e-08
3.3817138e-08
3.4373621e-08
3.49572e-08
3.5547969e-08
3.6115086e-08
3.6690904e-08
3.7327991e-08
3.7935121e-08
3.8606201e-08
3.9269438e-08
3.9985143e-08
4.0731687e-08
4.1515419e-08
4.2271947e-08
2.5971863e-08
2.5980384e-08
2.5998685e-08
2.6041949e-08
2.6078209e-08
2.6116573e-08
2.6150915e-08
2.6194314e-08
2.6230979e-08
2.6280092e-08
2.6332724e-08
2.6382452e-08
2.6432895e-08
2.6490185e-08
2.6550094e-08
2.6614658e-08
2.6693077e-08
2.6784573e-08
2.6883341e-08
2.6991301e-08
2.7111416e-08
2.7242229e-08
2.7386878e-08
2.7549925e-08
2.7736344e-08
2.7949744e-08
2.8180153e-08
2.8427921e-08
2.8703919e-08
2.9003863e-08
2.9324027e-08
2.9662743e-08
3.0013496e-08
3.0393482e-08
3.0807176e-08
3.1237026e-08
3.1667869e-08
3.2119854e-08
3.2579728e-08
3.302626e-08
3.3480432e-08
3.3978171e-08
3.4457559e-08
3.4982092e-08
3.5503419e-08
3.6062791e-08
3.6646066e-08
3.7259623e-08
3.7855318e-08
2.5137916e-08
2.5152261e-08
2.5172769e-08
2.5210434e-08
2.5243504e-08
2.5278341e-08
2.5310894e-08
2.5350062e-08
2.5385389e-08
2.5429745e-08
2.5477303e-08
2.552397e-08
2.5572177e-08
2.5625954e-08
2.568256e-08
2.5743328e-08
2.5814199e-08
2.5894635e-08
2.5980841e-08
2.607399e-08
2.6175952e-08
2.6285751e-08
2.6405168e-08
2.6537336e-08
2.6686135e-08
2.6853766e-08
2.7033621e-08
2.7226282e-08
2.7439313e-08
2.7670029e-08
2.7916176e-08
2.817687e-08
2.8447902e-08
2.8740963e-08
2.905922e-08
2.9390738e-08
2.9725089e-08
3.0075774e-08
3.0433673e-08
3.0783856e-08
3.1140358e-08
3.1527325e-08
3.1902218e-08
3.2307797e-08
3.2710838e-08
3.3138952e-08
3.3582082e-08
3.404442e-08
3.4490994e-08
2.4527372e-08
2.4547153e-08
2.4570739e-08
2.4606306e-08
2.4638864e-08
2.4672984e-08
2.4705961e-08
2.4743978e-08
2.4780008e-08
2.482283e-08
2.4868607e-08
2.4914703e-08
2.4962742e-08
2.5015386e-08
2.5070808e-08
2.5129822e-08
2.5196247e-08
2.5269664e-08
2.5347496e-08
2.5430389e-08
2.5519478e-08
2.5614019e-08
2.5714966e-08
2.5824472e-08
2.594553e-08
2.6079482e-08
2.6221914e-08
2.6373524e-08
2.6539703e-08
2.6718837e-08
2.6909697e-08
2.7111962e-08
2.732291e-08
2.7550698e-08
2.7797697e-08
2.8055708e-08
2.8317414e-08
2.8592158e-08
2.8873596e-08
2.915099e-08
2.9433862e-08
2.9739289e-08
3.0037026e-08
3.035713e-08
3.0676072e-08
3.1013358e-08
3.1361849e-08
3.1725261e-08
3.2076312e-08
2.4073866e-08
2.409822e-08
2.4124957e-08
2.4160278e-08
2.4193744e-08
2.4228698e-08
2.4263325e-08
2.4301995e-08
2.4339934e-08
2.4383191e-08
2.4429241e-08
2.4476366e-08
2.4525622e-08
2.4578752e-08
2.4634492e-08
2.4693259e-08
2.4757442e-08
2.4826668e-08
2.4899105e-08
2.4975e-08
2.5054962e-08
2.5138336e-08
2.5225537e-08
2.5318035e-08
2.5418114e-08
2.5526557e-08
2.5640417e-08
2.576044e-08
2.589052e-08
2.6029816e-08
2.6177841e-08
2.6334604e-08
2.649832e-08
2.667478e-08
2.6865849e-08
2.7065899e-08
2.7269805e-08
2.7484138e-08
2.7704415e-08
2.7922812e-08
2.8145886e-08
2.8385628e-08
2.8620315e-08
2.8871052e-08
2.9120921e-08
2.9383536e-08
2.9653571e-08
2.9933728e-08
3.0203011e-08
2.3732762e-08
2.3761242e-08
2.3791216e-08
2.3827471e-08
2.3862724e-08
2.3899472e-08
2.39365e-08
2.3976942e-08
2.4017541e-08
2.4062478e-08
2.4110113e-08
2.4159321e-08
2.4210745e-08
2.4265488e-08
2.4322638e-08
2.4382298e-08
2.4445859e-08
2.4512948e-08
2.4582183e-08
2.4653502e-08
2.4727123e-08
2.4802393e-08
2.4879362e-08
2.4959015e-08
2.5043056e-08
2.5131899e-08
2.5223599e-08
2.5318916e-08
2.5420702e-08
2.5528762e-08
2.5643105e-08
2.5763841e-08
2.5889838e-08
2.6025387e-08
2.6172111e-08
2.6326223e-08
2.6484145e-08
2.6650578e-08
2.682235e-08
2.6993703e-08
2.7169181e-08
2.7357423e-08
2.7542549e-08
2.7739719e-08
2.7936567e-08
2.8142874e-08
2.8354643e-08
2.8574149e-08
2.8784579e-08
2.3474545e-08
2.3506687e-08
2.353982e-08
2.3577695e-08
2.3615243e-08
2.3654359e-08
2.3694244e-08
2.3737171e-08
2.3780919e-08
2.3828367e-08
2.3878478e-08
2.3930512e-08
2.3984806e-08
2.4042001e-08
2.4101399e-08
2.416285e-08
2.4227026e-08
2.429352e-08
2.4361219e-08
2.4429806e-08
2.4499188e-08
2.4568673e-08
2.4638043e-08
2.4707928e-08
2.4779557e-08
2.4853092e-08
2.4927281e-08
2.5002878e-08
2.5082016e-08
2.5165093e-08
2.5252272e-08
2.5343632e-08
2.5438683e-08
2.554083e-08
2.5651554e-08
2.5768343e-08
2.5888705e-08
2.6016028e-08
2.614807e-08
2.6280585e-08
2.6416744e-08
2.6562751e-08
2.6706936e-08
2.6860176e-08
2.7013341e-08
2.7173399e-08
2.7337262e-08
2.7506671e-08
2.7668225e-08
2.3278156e-08
2.3313693e-08
2.3349959e-08
2.3389933e-08
2.3430133e-08
2.3472021e-08
2.3515092e-08
2.3561006e-08
2.3608267e-08
2.3658825e-08
2.3712063e-08
2.376749e-08
2.3825207e-08
2.3885516e-08
2.3947842e-08
2.4011821e-08
2.4077592e-08
2.4144695e-08
2.4212162e-08
2.4279458e-08
2.4346238e-08
2.4411738e-08
2.4475537e-08
2.4538001e-08
2.4599958e-08
2.4661393e-08
2.4721551e-08
2.4781162e-08
2.48419e-08
2.4904708e-08
2.4969418e-08
2.5036316e-08
2.5105709e-08
2.5180382e-08
2.526161e-08
2.534775e-08
2.5437107e-08
2.5532177e-08
2.5631432e-08
2.5731766e-08
2.5835408e-08
2.5946872e-08
2.605752e-08
2.6175242e-08
2.6293236e-08
2.6416534e-08
2.6542726e-08
2.6673247e-08
2.6797178e-08
2.3129016e-08
2.3167731e-08
2.3207091e-08
2.3249484e-08
2.3292582e-08
2.3337529e-08
2.338403e-08
2.3433306e-08
2.3484368e-08
2.3538497e-08
2.3595367e-08
2.3654648e-08
2.3716255e-08
2.3780228e-08
2.3846057e-08
2.3913196e-08
2.3981369e-08
2.4050051e-08
2.4118338e-08
2.4185502e-08
2.4250979e-08
2.4313918e-08
2.4373729e-08
2.4430583e-08
2.4484965e-08
2.4536728e-08
2.458548e-08
2.4631927e-08
2.4677496e-08
2.4723537e-08
2.4769027e-08
2.4815332e-08
2.486334e-08
2.4915094e-08
2.4971629e-08
2.5031993e-08
2.5095151e-08
2.5163018e-08
2.5234614e-08
2.5307705e-08
2.5383864e-08
2.5466365e-08
2.5548807e-08
2.5636895e-08
2.5725529e-08
2.581831e-08
2.591332e-08
2.601168e-08
2.6104502e-08
2.3016399e-08
2.3058179e-08
2.3100642e-08
2.3145714e-08
2.319192e-08
2.3240169e-08
2.3290318e-08
2.3343267e-08
2.3398393e-08
2.345648e-08
2.3517408e-08
2.3580948e-08
2.3646863e-08
2.3714986e-08
2.3784832e-08
2.3855689e-08
2.3926957e-08
2.3998027e-08
2.4068006e-08
2.413599e-08
2.4201226e-08
2.426275e-08
2.4319838e-08
2.4372502e-08
2.4420938e-08
2.4464899e-08
2.4504258e-08
2.4539709e-08
2.4572596e-08
2.4604396e-08
2.4633049e-08
2.4662209e-08
2.4692182e-08
2.4724319e-08
2.4759673e-08
2.4797939e-08
2.4838637e-08
2.488328e-08
2.4931305e-08
2.4981146e-08
2.5033914e-08
2.5091986e-08
2.5150631e-08
2.5213974e-08
2.5278179e-08
2.5345824e-08
2.5415369e-08
2.5487717e-08
2.5555553e-08
2.2932605e-08
2.2977389e-08
2.302298e-08
2.3070945e-08
2.3120443e-08
2.3172209e-08
2.3226211e-08
2.3283112e-08
2.334255e-08
2.3404942e-08
2.347031e-08
2.3538485e-08
2.3609101e-08
2.3681824e-08
2.375616e-08
2.3831249e-08
2.3906223e-08
2.3980379e-08
2.4052796e-08
2.4122406e-08
2.4188278e-08
2.4249334e-08
2.4304725e-08
2.4354328e-08
2.4398102e-08
2.4435713e-08
2.4467234e-08
2.4493363e-08
2.4515456e-08
2.4534655e-08
2.454895e-08
2.4563741e-08
2.4577776e-08
2.4592593e-08
2.460945e-08
2.4628512e-08
2.4649697e-08
2.4674226e-08
2.4701861e-08
2.4731555e-08
2.47641e-08
2.4801211e-08
2.4839421e-08
2.4881684e-08
2.4925113e-08
2.4971523e-08
2.501966e-08
2.5070226e-08
2.5117203e-08
2.2871877e-08
2.2919663e-08
2.2968448e-08
2.3019507e-08
2.3072483e-08
2.3127976e-08
2.3186041e-08
2.3247163e-08
2.331117e-08
2.3378198e-08
2.3448369e-08
2.3521543e-08
2.3597245e-08
2.3674996e-08
2.3754275e-08
2.3834082e-08
2.391332e-08
2.3991186e-08
2.4066697e-08
2.4138629e-08
2.4205887e-08
2.4267268e-08
2.4321807e-08
2.4369261e-08
2.4409395e-08
2.4441796e-08
2.4466687e-08
2.448479e-08
2.449746e-08
2.4504619e-08
2.4509384e-08
2.4509691e-08
2.45091e-08
2.4508588e-08
2.4509174e-08
2.4511333e-08
2.4515319e-08
2.4522171e-08
2.4531917e-08
2.4543929e-08
2.4558776e-08
2.4577692e-08
2.4598175e-08
2.4622316e-08
2.4647951e-08
2.4676335e-08
2.4706438e-08
2.4738806e-08
2.4768464e-08
2.2829986e-08
2.2880811e-08
2.293288e-08
2.298723e-08
2.3043872e-08
2.3103308e-08
2.3165656e-08
2.3231268e-08
2.3300109e-08
2.3372103e-08
2.3447434e-08
2.3525974e-08
2.3607147e-08
2.369035e-08
2.3775017e-08
2.3860014e-08
2.394404e-08
2.4026185e-08
2.4105384e-08
2.4180257e-08
2.4249552e-08
2.4311938e-08
2.4366333e-08
2.4412385e-08
2.4449701e-08
2.4477791e-08
2.4496995e-08
2.4508088e-08
2.4512296e-08
2.4505304e-08
2.4500833e-08
2.4491259e-08
2.447841e-08
2.4464193e-08
2.4450135e-08
2.4437119e-08
2.4425686e-08
2.4416746e-08
2.4410545e-08
2.4406791e-08
2.4405905e-08
2.440877e-08
2.4413628e-08
2.4421927e-08
2.4432054e-08
2.4444844e-08
2.445944e-08
2.447625e-08
2.4491168e-08
2.2803756e-08
2.2857699e-08
2.2913172e-08
2.2971014e-08
2.3031526e-08
2.3095133e-08
2.3162001e-08
2.3232382e-08
2.3306343e-08
2.3383637e-08
2.3464492e-08
2.3548773e-08
2.3635813e-08
2.3724895e-08
2.3815393e-08
2.3906047e-08
2.3995368e-08
2.4082328e-08
2.4165765e-08
2.4244142e-08
2.4316054e-08
2.4380036e-08
2.4434892e-08
2.4480165e-08
2.4515328e-08
2.453982e-08
2.4554075e-08
2.4558921e-08
2.4555021e-08
2.4544635e-08
2.4527331e-08
2.4505211e-08
2.4480016e-08
2.445308e-08
2.4425692e-08
2.4398883e-08
2.4373414e-08
2.435013e-08
2.4329476e-08
2.4311444e-08
2.4296363e-08
2.4284859e-08
2.4275754e-08
2.4270018e-08
2.4266462e-08
2.426561e-08
2.426674e-08
2.4270143e-08
2.4272434e-08
2.2790846e-08
2.2848015e-08
2.2907038e-08
2.2968583e-08
2.3033183e-08
2.3101202e-08
2.3172849e-08
2.3248294e-08
2.3327679e-08
2.3410623e-08
2.3497377e-08
2.3587789e-08
2.3681106e-08
2.3776504e-08
2.3873287e-08
2.3970065e-08
2.4065178e-08
2.415747e-08
2.4245667e-08
2.4328074e-08
2.4403131e-08
2.4469236e-08
2.4525077e-08
2.4570096e-08
2.460365e-08
2.4625112e-08
2.4634993e-08
2.4634137e-08
2.4623398e-08
2.4603878e-08
2.4577348e-08
2.4545342e-08
2.4509387e-08
2.4470806e-08
2.4431038e-08
2.4391397e-08
2.4352883e-08
2.4316331e-08
2.4282357e-08
2.4251187e-08
2.4223097e-08
2.4198524e-08
2.4176749e-08
2.4158377e-08
2.4142552e-08
2.412956e-08
2.4118787e-08
2.4110419e-08
2.4101678e-08
2.2789525e-08
2.2850057e-08
2.2912801e-08
2.2978275e-08
2.3047199e-08
2.3119894e-08
2.3196598e-08
2.3277421e-08
2.3362559e-08
2.3451521e-08
2.3544569e-08
2.3641521e-08
2.3741545e-08
2.384371e-08
2.3947245e-08
2.4050626e-08
2.4152027e-08
2.425016e-08
2.4343621e-08
2.4430557e-08
2.4509249e-08
2.4577957e-08
2.4635247e-08
2.468046e-08
2.4712854e-08
2.4731738e-08
2.4737689e-08
2.4731593e-08
2.4714266e-08
2.4687161e-08
2.4651901e-08
2.4610153e-08
2.4563683e-08
2.4513907e-08
2.4462377e-08
2.4410612e-08
2.4359805e-08
2.43108e-08
2.4264362e-08
2.4220919e-08
2.4180723e-08
2.4144078e-08
2.4110625e-08
2.4080701e-08
2.4053707e-08
2.402975e-08
2.4008302e-08
2.3989459e-08
2.3970954e-08
2.2798549e-08
2.2862608e-08
2.2929268e-08
2.2998914e-08
2.3072421e-08
2.3150073e-08
2.3232138e-08
2.3318675e-08
2.340992e-08
2.3505292e-08
2.3605049e-08
2.3708976e-08
2.3816158e-08
2.3925565e-08
2.4036334e-08
2.4146812e-08
2.4255006e-08
2.4359486e-08
2.4458709e-08
2.4550657e-08
2.4633452e-08
2.4705205e-08
2.4764361e-08
2.481016e-08
2.4841768e-08
2.4858434e-08
2.4860792e-08
2.4849771e-08
2.4826232e-08
2.4791703e-08
2.4747975e-08
2.4696871e-08
2.4640314e-08
2.4579798e-08
2.4516987e-08
2.4453603e-08
2.4391026e-08
2.4330136e-08
2.4271842e-08
2.4216749e-08
2.4165104e-08
2.4117122e-08
2.4072732e-08
2.403207e-08
2.3994739e-08
2.3960709e-08
2.3929522e-08
2.3901187e-08
2.3873879e-08
2.2817058e-08
2.2884833e-08
2.2955629e-08
2.3029708e-08
2.3108077e-08
2.3190994e-08
2.3278749e-08
2.3371362e-08
2.3469097e-08
2.3571295e-08
2.3678202e-08
2.3789565e-08
2.3904386e-08
2.402153e-08
2.4140041e-08
2.4258128e-08
2.4373632e-08
2.4484973e-08
2.4590457e-08
2.4687895e-08
2.4775242e-08
2.4850461e-08
2.4911865e-08
2.4958595e-08
2.4989729e-08
2.5004464e-08
2.5003483e-08
2.4987762e-08
2.4958212e-08
2.4916484e-08
2.4864509e-08
2.480425e-08
2.4737802e-08
2.4666764e-08
2.4592934e-08
2.4518227e-08
2.44442e-08
2.4371792e-08
2.4302046e-08
2.4235723e-08
2.4173086e-08
2.4114289e-08
2.4059497e-08
2.4008692e-08
2.396164e-08
2.3918206e-08
2.3877986e-08
2.3840911e-08
2.3805538e-08
2.2844505e-08
2.2916208e-08
2.2991385e-08
2.3070179e-08
2.3153715e-08
2.3242229e-08
2.333603e-08
2.3435108e-08
2.3539747e-08
2.3649216e-08
2.3763747e-08
2.3883037e-08
2.4006005e-08
2.4131414e-08
2.42582e-08
2.4384432e-08
2.4507783e-08
2.4626511e-08
2.4738761e-08
2.4842167e-08
2.4934509e-08
2.5013596e-08
2.5077607e-08
2.5125576e-08
2.5156504e-08
2.5169533e-08
2.5165393e-08
2.5145116e-08
2.5109672e-08
2.5060839e-08
2.5000691e-08
2.4931347e-08
2.4855077e-08
2.4773605e-08
2.4688872e-08
2.4602982e-08
2.4517665e-08
2.4433936e-08
2.4352966e-08
2.4275664e-08
2.4202316e-08
2.4133044e-08
2.4068206e-08
2.4007669e-08
2.3951329e-08
2.3898968e-08
2.3850227e-08
2.3804964e-08
2.3762069e-08
2.2880604e-08
2.2956473e-08
2.3036299e-08
2.3120114e-08
2.3209148e-08
2.3303618e-08
2.3403854e-08
2.3509817e-08
2.3621805e-08
2.3739025e-08
2.3861684e-08
2.3989427e-08
2.4121087e-08
2.4255319e-08
2.4390945e-08
2.4525887e-08
2.4657643e-08
2.4784304e-08
2.4903838e-08
2.5013694e-08
2.5111475e-08
2.5194822e-08
2.5261779e-08
2.5311272e-08
2.534222e-08
2.535372e-08
2.5346545e-08
2.5321784e-08
2.5280483e-08
2.5224548e-08
2.5156207e-08
2.507774e-08
2.4991599e-08
2.489965e-08
2.4803992e-08
2.4706914e-08
2.4610321e-08
2.4515317e-08
2.4423203e-08
2.4335019e-08
2.4251093e-08
2.417153e-08
2.4096849e-08
2.4026833e-08
2.3961482e-08
2.3900512e-08
2.3843603e-08
2.3790539e-08
2.374051e-08
2.2925297e-08
2.3005591e-08
2.3090364e-08
2.3179532e-08
2.3274422e-08
2.3375238e-08
2.3482329e-08
2.3595631e-08
2.3715451e-08
2.3840938e-08
2.3972267e-08
2.4109027e-08
2.4249961e-08
2.4393611e-08
2.4538677e-08
2.4682926e-08
2.4823676e-08
2.4958836e-08
2.5086191e-08
2.5202993e-08
2.5306658e-08
2.5394656e-08
2.5464888e-08
2.5516165e-08
2.5547331e-08
2.5557438e-08
2.55473e-08
2.5518069e-08
2.5470877e-08
2.5407765e-08
2.533112e-08
2.5243394e-08
2.5147228e-08
2.5044647e-08
2.493792e-08
2.4829526e-08
2.4721543e-08
2.461518e-08
2.4511865e-08
2.4412769e-08
2.4318264e-08
2.4228458e-08
2.4144005e-08
2.4064625e-08
2.3990405e-08
2.392101e-08
2.3856146e-08
2.3795532e-08
2.3738624e-08
2.2978728e-08
2.3063734e-08
2.3153777e-08
2.3248657e-08
2.3349794e-08
2.345738e-08
2.3571783e-08
2.3692915e-08
2.3821088e-08
2.3955398e-08
2.4095982e-08
2.4242365e-08
2.4393198e-08
2.4546903e-08
2.4702049e-08
2.485624e-08
2.5006604e-08
2.5150859e-08
2.5286593e-08
2.5410852e-08
2.5520856e-08
2.5613897e-08
2.5687724e-08
2.5741034e-08
2.5772591e-08
2.5781406e-08
2.5768334e-08
2.5734596e-08
2.5681417e-08
2.5610982e-08
2.5525842e-08
2.5428632e-08
2.5322193e-08
2.5208724e-08
2.5090676e-08
2.4970724e-08
2.4851123e-08
2.4733199e-08
2.461851e-08
2.450835e-08
2.4403149e-08
2.4303026e-08
2.4208753e-08
2.4120005e-08
2.4036941e-08
2.3959181e-08
2.3886459e-08
2.3818422e-08
2.3754776e-08
2.3041231e-08
2.3131263e-08
2.3226932e-08
2.3327915e-08
2.3435722e-08
2.355054e-08
2.3672749e-08
2.3802244e-08
2.3939338e-08
2.4083071e-08
2.4233539e-08
2.4390201e-08
2.4551604e-08
2.4716048e-08
2.4881958e-08
2.5046766e-08
2.5207402e-08
2.5361381e-08
2.5506078e-08
2.5638325e-08
2.5755137e-08
2.5853617e-08
2.5931359e-08
2.5986938e-08
2.601904e-08
2.6026637e-08
2.6010624e-08
2.5972296e-08
2.5912979e-08
2.5835009e-08
2.5741111e-08
2.5634114e-08
2.5517066e-08
2.5392359e-08
2.526264e-08
2.5130785e-08
2.4999234e-08
2.4869438e-08
2.4743092e-08
2.4621612e-08
2.4505488e-08
2.4394866e-08
2.4290619e-08
2.4192392e-08
2.4100401e-08
2.4014235e-08
2.3933645e-08
2.3858211e-08
2.3787872e-08
2.3113325e-08
2.3208727e-08
2.331041e-08
2.3417922e-08
2.3532863e-08
2.3655412e-08
2.3785967e-08
2.3924405e-08
2.4071034e-08
2.4224842e-08
2.4385878e-08
2.4553524e-08
2.4726223e-08
2.490214e-08
2.5079548e-08
2.5255697e-08
2.5427305e-08
2.559167e-08
2.5745946e-08
2.5886738e-08
2.6010842e-08
2.6115168e-08
2.6197145e-08
2.6255223e-08
2.6288007e-08
2.6294436e-08
2.6275443e-08
2.6232399e-08
2.6166745e-08
2.608097e-08
2.5977984e-08
2.5860819e-08
2.5732746e-08
2.5596365e-08
2.5454532e-08
2.5310335e-08
2.5166403e-08
2.5024328e-08
2.4885942e-08
2.4752783e-08
2.4625412e-08
2.4504006e-08
2.4389532e-08
2.4281613e-08
2.4180518e-08
2.4085806e-08
2.3997243e-08
2.3914341e-08
2.3837264e-08
2.3195717e-08
2.3296865e-08
2.3404988e-08
2.3519493e-08
2.3642073e-08
2.3772901e-08
2.3912391e-08
2.4060402e-08
2.4217237e-08
2.4381828e-08
2.4554171e-08
2.4733567e-08
2.4918346e-08
2.5106528e-08
2.5296225e-08
2.5484488e-08
2.5667815e-08
2.5843273e-08
2.6007778e-08
2.6157696e-08
2.6289597e-08
2.6400187e-08
2.6486724e-08
2.6547527e-08
2.6581119e-08
2.6586409e-08
2.6564365e-08
2.6516445e-08
2.6444208e-08
2.6350303e-08
2.6237836e-08
2.6110054e-08
2.5970462e-08
2.5821889e-08
2.5667413e-08
2.5510344e-08
2.5353509e-08
2.5198652e-08
2.5047747e-08
2.4902457e-08
2.4763418e-08
2.4630849e-08
2.4505802e-08
2.4387888e-08
2.4277422e-08
2.4173936e-08
2.4077211e-08
2.3986688e-08
2.3902751e-08
2.3289313e-08
2.3396619e-08
2.3511649e-08
2.3633657e-08
2.3764429e-08
2.3904134e-08
2.4053202e-08
2.4211475e-08
2.4379247e-08
2.4555392e-08
2.4739848e-08
2.4931826e-08
2.5129534e-08
2.5330839e-08
2.5533675e-08
2.5734884e-08
2.5930729e-08
2.611803e-08
2.6293453e-08
2.6453111e-08
2.6593337e-08
2.6710623e-08
2.6802049e-08
2.6865803e-08
2.6900318e-08
2.6904479e-08
2.6879292e-08
2.68263e-08
2.674719e-08
2.664478e-08
2.6522377e-08
2.638346e-08
2.6231785e-08
2.6070422e-08
2.5902692e-08
2.5732136e-08
2.5561788e-08
2.5393553e-08
2.5229558e-08
2.5071593e-08
2.4920373e-08
2.4776168e-08
2.4640111e-08
2.4511808e-08
2.4391615e-08
2.427904e-08
2.4173878e-08
2.4075495e-08
2.3984498e-08
2.3395235e-08
2.3509153e-08
2.3631605e-08
2.3761673e-08
2.3901245e-08
2.4050484e-08
2.4209837e-08
2.4379127e-08
2.4558635e-08
2.4747177e-08
2.4944623e-08
2.5150088e-08
2.5361648e-08
2.5577005e-08
2.5793899e-08
2.600895e-08
2.6218168e-08
2.6418113e-08
2.6605183e-08
2.6775228e-08
2.6924331e-08
2.7048761e-08
2.7145416e-08
2.7212344e-08
2.7247892e-08
2.725092e-08
2.7222469e-08
2.7164179e-08
2.7077868e-08
2.6966527e-08
2.6833679e-08
2.6683046e-08
2.6518651e-08
2.6343827e-08
2.616215e-08
2.5977408e-08
2.5792849e-08
2.5610553e-08
2.5432803e-08
2.5261524e-08
2.5097518e-08
2.4941112e-08
2.4793517e-08
2.4654343e-08
2.4523981e-08
2.4401922e-08
2.4287973e-08
2.4181419e-08
2.40831e-08
2.351485e-08
2.363588e-08
2.3766323e-08
2.3905068e-08
2.4054109e-08
2.4213605e-08
2.438402e-08
2.4565155e-08
2.4757278e-08
2.495914e-08
2.5170536e-08
2.5390477e-08
2.5616893e-08
2.5847307e-08
2.6079255e-08
2.6309112e-08
2.6532622e-08
2.6746065e-08
2.6945558e-08
2.7126671e-08
2.7285229e-08
2.741727e-08
2.7519502e-08
2.7589831e-08
2.7626512e-08
2.7628388e-08
2.7596536e-08
2.7532692e-08
2.7438813e-08
2.731807e-08
2.7174209e-08
2.7011217e-08
2.68334e-08
2.6644371e-08
2.6447979e-08
2.6248267e-08
2.6048712e-08
2.585158e-08
2.5659317e-08
2.5473988e-08
2.5296492e-08
2.5127221e-08
2.4967467e-08
2.4816843e-08
2.4675782e-08
2.4543753e-08
2.4420576e-08
2.4305454e-08
2.4199469e-08
2.3649809e-08
2.3778506e-08
2.3917569e-08
2.4065674e-08
2.4224926e-08
2.4395478e-08
2.4577811e-08
2.4771705e-08
2.497741e-08
2.5193604e-08
2.5420004e-08
2.5655499e-08
2.5897867e-08
2.6144435e-08
2.6392512e-08
2.6638217e-08
2.6877005e-08
2.7104858e-08
2.7317596e-08
2.7510498e-08
2.7679117e-08
2.7819253e-08
2.7927419e-08
2.8001375e-08
2.8039288e-08
2.8039981e-08
2.8004569e-08
2.793489e-08
2.7833039e-08
2.7702377e-08
2.7546887e-08
2.7370832e-08
2.7178826e-08
2.6974778e-08
2.6762826e-08
2.654728e-08
2.6331854e-08
2.6119012e-08
2.5911377e-08
2.571116e-08
2.5519367e-08
2.5336464e-08
2.5163825e-08
2.5001078e-08
2.4848693e-08
2.4706124e-08
2.4573203e-08
2.4449043e-08
2.4334989e-08
2.3802095e-08
2.3939076e-08
2.4087463e-08
2.4245685e-08
2.4415971e-08
2.4598467e-08
2.4793669e-08
2.5001334e-08
2.5221687e-08
2.5453331e-08
2.569589e-08
2.5948124e-08
2.620764e-08
2.6471553e-08
2.6736928e-08
2.6999603e-08
2.7254727e-08
2.7497966e-08
2.7724821e-08
2.7930269e-08
2.8109581e-08
2.8258314e-08
2.837278e-08
2.8450594e-08
2.8489831e-08
2.84893e-08
2.8450151e-08
2.837433e-08
2.8264074e-08
2.8122935e-08
2.7955146e-08
2.7765273e-08
2.7558249e-08
2.7338301e-08
2.7109867e-08
2.6877535e-08
2.6645269e-08
2.641574e-08
2.6191761e-08
2.5975703e-08
2.5768689e-08
2.5571269e-08
2.5384906e-08
2.5209247e-08
2.5044804e-08
2.4891014e-08
2.4747727e-08
2.4613954e-08
2.4491331e-08
2.3974086e-08
2.4120041e-08
2.4278541e-08
2.444773e-08
2.4629971e-08
2.4825401e-08
2.5034532e-08
2.5257091e-08
2.5493276e-08
2.5741604e-08
2.6001596e-08
2.627187e-08
2.6549842e-08
2.6832398e-08
2.7116337e-08
2.7397195e-08
2.766979e-08
2.7929451e-08
2.8171347e-08
2.8390135e-08
2.8580799e-08
2.8738646e-08
2.8859788e-08
2.8941688e-08
2.8982338e-08
2.898053e-08
2.8937455e-08
2.8855165e-08
2.873604e-08
2.8583826e-08
2.8403027e-08
2.8198528e-08
2.7975603e-08
2.7738808e-08
2.7492891e-08
2.7242729e-08
2.6992545e-08
2.6745235e-08
2.6503816e-08
2.6270833e-08
2.6047541e-08
2.583459e-08
2.5633538e-08
2.544406e-08
2.5266714e-08
2.5100924e-08
2.4946558e-08
2.4802518e-08
2.4670761e-08
2.4168633e-08
2.4324342e-08
2.4493846e-08
2.4674958e-08
2.4870191e-08
2.5079668e-08
2.5303914e-08
2.5542625e-08
2.5795961e-08
2.6062344e-08
2.6341179e-08
2.6630922e-08
2.6928785e-08
2.7231399e-08
2.7535274e-08
2.7835619e-08
2.81269e-08
2.8404086e-08
2.8661995e-08
2.8894952e-08
2.9097648e-08
2.9265139e-08
2.9393334e-08
2.9479551e-08
2.9521697e-08
2.9518552e-08
2.9471347e-08
2.9382245e-08
2.925376e-08
2.9089843e-08
2.8895285e-08
2.8675309e-08
2.8435548e-08
2.8180895e-08
2.7916412e-08
2.7647272e-08
2.7377971e-08
2.7111648e-08
2.6851547e-08
2.6600405e-08
2.6359628e-08
2.6129982e-08
2.5913129e-08
2.5708781e-08
2.5517544e-08
2.5338832e-08
2.5172535e-08
2.5017435e-08
2.4875846e-08
2.4389159e-08
2.4555509e-08
2.473703e-08
2.4931153e-08
2.5140555e-08
2.5365337e-08
2.560604e-08
2.5862316e-08
2.6134283e-08
2.6420251e-08
2.6719494e-08
2.7030288e-08
2.7349614e-08
2.7673827e-08
2.7999123e-08
2.8320358e-08
2.8631619e-08
2.8927495e-08
2.9202434e-08
2.945042e-08
2.9665844e-08
2.9843514e-08
2.997914e-08
3.0069899e-08
3.0113618e-08
3.0109068e-08
3.0057523e-08
2.9961251e-08
2.9822898e-08
2.9646627e-08
2.9437531e-08
2.9201197e-08
2.8943621e-08
2.8670031e-08
2.8385804e-08
2.8096419e-08
2.7806661e-08
2.7519939e-08
2.7239748e-08