/*--------------------------------*- C++ -*----------------------------------*\
| =========                 |                                                 |
| \\      /  F ield         | OpenFOAM: The Open Source CFD Toolbox           |
|  \\    /   O peration     | Version:  v2006                                 |
|   \\  /    A nd           | Website:  www.openfoam.com                      |
|    \\/     M anipulation  |                                                 |
\*---------------------------------------------------------------------------*/
FoamFile
{
    version     2.0;
    format      ascii;
    class       volScalarField;
    location    "4000";
    object      nut;
}
// * * * * * * * * * * * * * * * * * * * * * * * * * * * * * * * * * * * * * //

dimensions      [0 2 -1 0 0 0 0];


internalField   nonuniform List<scalar> 
19765
(
9.7765418e-06
9.7712597e-06
9.4779473e-06
9.5306167e-06
9.5278134e-06
9.6834844e-06
9.5982492e-06
9.7722687e-06
9.7418213e-06
9.5523569e-06
9.6564939e-06
1.003564e-05
1.0257494e-05
1.0449524e-05
1.0853089e-05
1.10243e-05
1.0977578e-05
1.1133568e-05
1.1551196e-05
1.1917115e-05
1.2164687e-05
1.2290367e-05
1.2511459e-05
1.2650376e-05
1.2743889e-05
1.2801831e-05
1.2831771e-05
1.2773389e-05
1.2796437e-05
1.2682671e-05
1.2456946e-05
1.2168269e-05
1.2205159e-05
1.2356674e-05
1.2218538e-05
1.1883514e-05
1.1872382e-05
1.1814819e-05
1.1541923e-05
1.1637235e-05
1.2018992e-05
1.2178151e-05
1.2139475e-05
1.2457873e-05
1.2351251e-05
1.2590162e-05
1.2599447e-05
1.257286e-05
1.2443706e-05
5.418932e-05
5.6821433e-05
5.9035423e-05
6.0821737e-05
6.2979491e-05
6.5187309e-05
6.7412274e-05
6.9635621e-05
7.1927244e-05
7.3939996e-05
7.6315214e-05
7.890019e-05
8.1120784e-05
8.3107129e-05
8.5148906e-05
8.6399332e-05
8.6709123e-05
8.731126e-05
8.8561658e-05
9.0066305e-05
9.1503736e-05
9.2474863e-05
9.3308697e-05
9.4374299e-05
9.5417684e-05
9.5940455e-05
9.6183714e-05
9.6509769e-05
9.6756459e-05
9.6805488e-05
9.6741223e-05
9.6610669e-05
9.6630753e-05
9.6497172e-05
9.5866941e-05
9.4945331e-05
9.4134682e-05
9.3029498e-05
9.1637208e-05
9.0613664e-05
8.9714626e-05
8.7689265e-05
8.5528555e-05
8.1876209e-05
7.9273923e-05
7.3116208e-05
6.625615e-05
5.9415105e-05
5.4304448e-05
1.5984497e-05
1.5313634e-05
1.4837485e-05
1.5079904e-05
1.520021e-05
1.5315773e-05
1.5251123e-05
1.5414415e-05
1.5317218e-05
1.5464228e-05
1.5705995e-05
1.5744537e-05
1.5577923e-05
1.5410694e-05
1.5123369e-05
1.4680438e-05
1.4326165e-05
1.4087512e-05
1.3906453e-05
1.3759992e-05
1.3703963e-05
1.3758578e-05
1.3783899e-05
1.3844289e-05
1.4142358e-05
1.4692786e-05
1.5201571e-05
1.5719688e-05
1.6461855e-05
1.7256766e-05
1.8028306e-05
1.874538e-05
1.938918e-05
2.0389586e-05
2.1637544e-05
2.2679903e-05
2.3493357e-05
2.4562061e-05
2.5385851e-05
2.5811649e-05
2.6534795e-05
2.7787412e-05
2.8432815e-05
2.9616466e-05
3.0406044e-05
3.2625413e-05
3.5509215e-05
3.8901958e-05
4.1256895e-05
6.2466663e-07
5.5913722e-07
5.2124036e-07
5.1582339e-07
5.0836638e-07
5.0161609e-07
4.901537e-07
4.8621692e-07
4.7519024e-07
4.7023239e-07
4.6756337e-07
4.5955428e-07
4.4656203e-07
4.3469241e-07
4.2157677e-07
4.0629225e-07
3.9474967e-07
3.8720235e-07
3.8088825e-07
3.7476038e-07
3.7217694e-07
3.7436084e-07
3.7533168e-07
3.7738887e-07
3.8560644e-07
4.0101192e-07
4.1716335e-07
4.3525605e-07
4.6056508e-07
4.896683e-07
5.2107757e-07
5.5387128e-07
5.8770612e-07
6.3560514e-07
6.965822e-07
7.5757491e-07
8.1781597e-07
8.9394602e-07
9.6652879e-07
1.0296014e-06
1.1148081e-06
1.2361539e-06
1.3441725e-06
1.5116074e-06
1.6744135e-06
1.9089851e-06
2.1948489e-06
2.5586598e-06
2.9890591e-06
1.6339944e-07
1.6288907e-07
1.6316612e-07
1.6508463e-07
1.6677497e-07
1.6838454e-07
1.6945557e-07
1.7103578e-07
1.718583e-07
1.7316846e-07
1.7477883e-07
1.7589765e-07
1.7650979e-07
1.7723468e-07
1.7773206e-07
1.7782274e-07
1.7824349e-07
1.7910095e-07
1.7984461e-07
1.8046906e-07
1.8146733e-07
1.8284247e-07
1.8411717e-07
1.8557883e-07
1.877094e-07
1.9071883e-07
1.9385518e-07
1.9713434e-07
2.011171e-07
2.0535016e-07
2.0959893e-07
2.1373905e-07
2.1761757e-07
2.2243479e-07
2.2792001e-07
2.327863e-07
2.3696298e-07
2.4174627e-07
2.4569034e-07
2.4852586e-07
2.5229246e-07
2.5721773e-07
2.6077118e-07
2.6627483e-07
2.7085618e-07
2.7702196e-07
2.8303034e-07
2.8757576e-07
2.919421e-07
1.4134475e-07
1.4149377e-07
1.4198277e-07
1.4314693e-07
1.4405141e-07
1.4496086e-07
1.4566291e-07
1.4657252e-07
1.4714104e-07
1.4801255e-07
1.4885225e-07
1.4941514e-07
1.4981272e-07
1.5025766e-07
1.5057897e-07
1.5082812e-07
1.5131581e-07
1.5198819e-07
1.5261099e-07
1.5323125e-07
1.5398964e-07
1.5486632e-07
1.5591662e-07
1.5716724e-07
1.5874679e-07
1.6081603e-07
1.6305698e-07
1.6538524e-07
1.6807001e-07
1.7097805e-07
1.7397417e-07
1.7701456e-07
1.7990293e-07
1.8309013e-07
1.8667496e-07
1.9022752e-07
1.9338405e-07
1.9669111e-07
1.9983677e-07
2.02396e-07
2.0488597e-07
2.0815853e-07
2.1078413e-07
2.1425103e-07
2.1743366e-07
2.2126003e-07
2.2539624e-07
2.2987385e-07
2.3380801e-07
1.2426047e-07
1.241947e-07
1.243274e-07
1.248623e-07
1.2527102e-07
1.256963e-07
1.2602399e-07
1.2648551e-07
1.267747e-07
1.2724743e-07
1.2772655e-07
1.2806239e-07
1.2831444e-07
1.2860365e-07
1.2883153e-07
1.2902256e-07
1.2936345e-07
1.298355e-07
1.3030326e-07
1.3079059e-07
1.3136245e-07
1.3200457e-07
1.3275332e-07
1.3364975e-07
1.3476502e-07
1.3617731e-07
1.3769755e-07
1.3929832e-07
1.4113766e-07
1.4312852e-07
1.451954e-07
1.4730603e-07
1.4935486e-07
1.5160603e-07
1.5410385e-07
1.5658621e-07
1.5885805e-07
1.6123011e-07
1.6351324e-07
1.6546557e-07
1.6740522e-07
1.6977064e-07
1.7177463e-07
1.7422336e-07
1.7649409e-07
1.7907673e-07
1.8176756e-07
1.8458555e-07
1.8713623e-07
1.1527226e-07
1.1522359e-07
1.1529384e-07
1.1560792e-07
1.1584456e-07
1.1609031e-07
1.1627754e-07
1.1654242e-07
1.1670802e-07
1.1698194e-07
1.172609e-07
1.1746271e-07
1.1762375e-07
1.1781334e-07
1.1797766e-07
1.1813417e-07
1.1838846e-07
1.1872912e-07
1.1908291e-07
1.1946825e-07
1.1992091e-07
1.2043009e-07
1.2103349e-07
1.2174982e-07
1.2261327e-07
1.2367221e-07
1.2481851e-07
1.260372e-07
1.2742342e-07
1.2892641e-07
1.3050015e-07
1.3212426e-07
1.3373271e-07
1.3548327e-07
1.3740731e-07
1.393469e-07
1.4117548e-07
1.4307918e-07
1.4494616e-07
1.4662078e-07
1.4828973e-07
1.502441e-07
1.5199046e-07
1.540411e-07
1.5601262e-07
1.5822333e-07
1.6055939e-07
1.6304578e-07
1.6541175e-07
1.0885352e-07
1.0878836e-07
1.0879906e-07
1.0896718e-07
1.0909069e-07
1.0922355e-07
1.0932398e-07
1.0947579e-07
1.0957053e-07
1.0973548e-07
1.0990761e-07
1.1003768e-07
1.1014856e-07
1.1028237e-07
1.1040702e-07
1.1053439e-07
1.1072925e-07
1.10985e-07
1.1125816e-07
1.1156081e-07
1.1191263e-07
1.1230499e-07
1.12763e-07
1.1330576e-07
1.1395484e-07
1.1473759e-07
1.1558727e-07
1.1649692e-07
1.1752614e-07
1.1864295e-07
1.1981938e-07
1.2104204e-07
1.2226977e-07
1.2360015e-07
1.2505136e-07
1.2652246e-07
1.2793416e-07
1.2940147e-07
1.3085222e-07
1.3218579e-07
1.3352124e-07
1.3503602e-07
1.364193e-07
1.3798992e-07
1.3950426e-07
1.4115953e-07
1.4287904e-07
1.4467349e-07
1.4636686e-07
1.0464505e-07
1.0459572e-07
1.0459359e-07
1.0469396e-07
1.0476503e-07
1.0484253e-07
1.048999e-07
1.0499099e-07
1.0504744e-07
1.0515043e-07
1.0525999e-07
1.0534623e-07
1.0542433e-07
1.0552085e-07
1.0561635e-07
1.0571942e-07
1.0587088e-07
1.0606673e-07
1.0628074e-07
1.0652151e-07
1.0680194e-07
1.0711664e-07
1.0748137e-07
1.0791028e-07
1.0841829e-07
1.0902206e-07
1.0967929e-07
1.1038668e-07
1.1118393e-07
1.1205084e-07
1.1296939e-07
1.1393064e-07
1.1490726e-07
1.1596292e-07
1.1711066e-07
1.1828399e-07
1.1942855e-07
1.2061935e-07
1.2180882e-07
1.229272e-07
1.2405108e-07
1.2530409e-07
1.264751e-07
1.2778157e-07
1.2905995e-07
1.3044731e-07
1.3189522e-07
1.3341912e-07
1.3488534e-07
1.0164438e-07
1.0160513e-07
1.0159689e-07
1.0165821e-07
1.0170058e-07
1.0174801e-07
1.017831e-07
1.0184146e-07
1.0187851e-07
1.0194773e-07
1.0202304e-07
1.0208555e-07
1.0214558e-07
1.022205e-07
1.0229801e-07
1.0238432e-07
1.0250611e-07
1.0266093e-07
1.0283229e-07
1.0302614e-07
1.0325099e-07
1.0350343e-07
1.0379325e-07
1.0413132e-07
1.0452928e-07
1.0499738e-07
1.0550779e-07
1.0605929e-07
1.0667887e-07
1.0735323e-07
1.0807052e-07
1.0882466e-07
1.095974e-07
1.1043122e-07
1.1133493e-07
1.1226331e-07
1.1317918e-07
1.1413209e-07
1.150892e-07
1.1600155e-07
1.1692062e-07
1.1792839e-07
1.1888136e-07
1.1992507e-07
1.2094807e-07
1.2204188e-07
1.2317237e-07
1.2434877e-07
1.2547567e-07
9.9495563e-08
9.9469554e-08
9.9463434e-08
9.9504974e-08
9.9533517e-08
9.9565825e-08
9.9590271e-08
9.9631024e-08
9.9658429e-08
9.9708597e-08
9.9764117e-08
9.9812877e-08
9.9862088e-08
9.992338e-08
9.9988844e-08
1.0006305e-07
1.0016381e-07
1.0028958e-07
1.0042981e-07
1.005887e-07
1.007721e-07
1.0097818e-07
1.0121305e-07
1.0148439e-07
1.0180165e-07
1.0217147e-07
1.0257506e-07
1.0301238e-07
1.035024e-07
1.0403616e-07
1.0460561e-07
1.0520688e-07
1.0582774e-07
1.0649768e-07
1.0722322e-07
1.0797289e-07
1.0872006e-07
1.0949855e-07
1.1028526e-07
1.1104463e-07
1.118115e-07
1.1264463e-07
1.1344185e-07
1.1430637e-07
1.1515945e-07
1.1606685e-07
1.1700518e-07
1.1798424e-07
1.1892881e-07
9.7914679e-08
9.7899088e-08
9.7896605e-08
9.7927618e-08
9.7949731e-08
9.7974819e-08
9.7994962e-08
9.8026909e-08
9.8050509e-08
9.8090671e-08
9.8135553e-08
9.8177214e-08
9.8220767e-08
9.8274165e-08
9.8332191e-08
9.8398204e-08
9.8484332e-08
9.858957e-08
9.8707003e-08
9.8839591e-08
9.8991398e-08
9.9161481e-08
9.9353699e-08
9.9573444e-08
9.9828472e-08
1.0012315e-07
1.0044463e-07
1.0079354e-07
1.0118323e-07
1.016073e-07
1.0206049e-07
1.0254079e-07
1.0304021e-07
1.0357939e-07
1.0416286e-07
1.0476809e-07
1.0537576e-07
1.060091e-07
1.0665148e-07
1.0727675e-07
1.0790907e-07
1.0858961e-07
1.0924529e-07
1.099486e-07
1.1064325e-07
1.1137528e-07
1.1212759e-07
1.1290705e-07
1.1365651e-07
9.6733827e-08
9.6727818e-08
9.6730287e-08
9.6756544e-08
9.6776586e-08
9.6799024e-08
9.6818396e-08
9.6846516e-08
9.68695e-08
9.6904806e-08
9.6944272e-08
9.6982638e-08
9.7023566e-08
9.7072566e-08
9.7126138e-08
9.718674e-08
9.7262719e-08
9.7353393e-08
9.7454134e-08
9.7567028e-08
9.7694915e-08
9.7837346e-08
9.7996774e-08
9.8176985e-08
9.8384286e-08
9.8621608e-08
9.8880126e-08
9.916084e-08
9.9472875e-08
9.9811688e-08
1.0017461e-07
1.0056128e-07
1.0096624e-07
1.0140379e-07
1.0187691e-07
1.0236921e-07
1.0286642e-07
1.03385e-07
1.0391292e-07
1.0443067e-07
1.049552e-07
1.0551662e-07
1.0606124e-07
1.0664178e-07
1.0721703e-07
1.0782073e-07
1.0844038e-07
1.0908235e-07
1.0970044e-07
9.5840009e-08
9.5841778e-08
9.5849085e-08
9.5873608e-08
9.5893839e-08
9.5916113e-08
9.5936621e-08
9.5963821e-08
9.5988022e-08
9.6021621e-08
9.6058939e-08
9.6096444e-08
9.6136769e-08
9.6183762e-08
9.6235023e-08
9.6292321e-08
9.6361428e-08
9.6441847e-08
9.6530405e-08
9.6628538e-08
9.6738216e-08
9.6859215e-08
9.6993082e-08
9.7142477e-08
9.7312491e-08
9.7505113e-08
9.7714285e-08
9.7941115e-08
9.8191237e-08
9.8462177e-08
9.8753916e-08
9.9066756e-08
9.9396037e-08
9.975126e-08
1.0013443e-07
1.0053373e-07
1.0093879e-07
1.0136151e-07
1.017931e-07
1.022189e-07
1.0265094e-07
1.0311102e-07
1.0355942e-07
1.040343e-07
1.0450517e-07
1.0499637e-07
1.0549841e-07
1.0601612e-07
1.0651287e-07
9.5155068e-08
9.5163576e-08
9.5175645e-08
9.5200331e-08
9.5222102e-08
9.5245692e-08
9.5268433e-08
9.5296455e-08
9.5322938e-08
9.5356764e-08
9.5393961e-08
9.5432143e-08
9.5473192e-08
9.5519797e-08
9.5570275e-08
9.5625859e-08
9.569052e-08
9.5763857e-08
9.5843632e-08
9.5930783e-08
9.6026642e-08
9.6131066e-08
9.6244996e-08
9.6370292e-08
9.6511028e-08
9.6668567e-08
9.6838789e-08
9.7022616e-08
9.7222757e-08
9.7440097e-08
9.7676455e-08
9.7930858e-08
9.8198457e-08
9.8485937e-08
9.8795294e-08
9.911832e-08
9.9447554e-08
9.9791753e-08
1.0014446e-07
1.004945e-07
1.0085042e-07
1.0122832e-07
1.0159837e-07
1.0198869e-07
1.0237644e-07
1.0277959e-07
1.031909e-07
1.0361458e-07
1.0402056e-07
9.4625908e-08
9.4640055e-08
9.4656511e-08
9.4682384e-08
9.4706387e-08
9.47321e-08
9.4757648e-08
9.4787522e-08
9.4816892e-08
9.4852159e-08
9.4890543e-08
9.4930418e-08
9.4973107e-08
9.5020474e-08
9.5071303e-08
9.5126401e-08
9.5188451e-08
9.525709e-08
9.5330678e-08
9.540976e-08
9.5495181e-08
9.5586798e-08
9.5685123e-08
9.5791442e-08
9.5908977e-08
9.603867e-08
9.6177757e-08
9.6326647e-08
9.6485892e-08
9.6661657e-08
9.6854528e-08
9.7060504e-08
9.7275677e-08
9.7506093e-08
9.7754063e-08
9.8013885e-08
9.8280104e-08
9.8559123e-08
9.884609e-08
9.9132414e-08
9.9424142e-08
9.9733089e-08
1.0003673e-07
1.0035572e-07
1.0067283e-07
1.010012e-07
1.0133517e-07
1.016781e-07
1.0200552e-07
9.4213771e-08
9.4232832e-08
9.4253403e-08
9.4281129e-08
9.4307787e-08
9.4336124e-08
9.4364826e-08
9.4397211e-08
9.4429847e-08
9.4467362e-08
9.4507812e-08
9.4550084e-08
9.4595081e-08
9.4644061e-08
9.4696114e-08
9.4751698e-08
9.481256e-08
9.4878334e-08
9.4947755e-08
9.5021052e-08
9.5098686e-08
9.5180463e-08
9.5266581e-08
9.5357921e-08
9.5456974e-08
9.5564399e-08
9.5678359e-08
9.5798485e-08
9.5924489e-08
9.6069039e-08
9.6225975e-08
9.6389566e-08
9.6560027e-08
9.6743082e-08
9.6940624e-08
9.7148553e-08
9.7362838e-08
9.7588151e-08
9.7820788e-08
9.805409e-08
9.8292318e-08
9.8544222e-08
9.8792687e-08
9.905304e-08
9.9312191e-08
9.9579876e-08
9.9851664e-08
1.001304e-07
1.0039582e-07
9.3891345e-08
9.391469e-08
9.3939074e-08
9.3969029e-08
9.3998565e-08
9.4029812e-08
9.4061856e-08
9.4097169e-08
9.4133313e-08
9.4173622e-08
9.4216754e-08
9.4261937e-08
9.4309749e-08
9.4360999e-08
9.441497e-08
9.4471835e-08
9.4532634e-08
9.4596978e-08
9.4663831e-08
9.4733156e-08
9.4805102e-08
9.4879391e-08
9.4955986e-08
9.503548e-08
9.5119732e-08
9.520921e-08
9.5302664e-08
9.5398996e-08
9.5499073e-08
9.5619346e-08
9.5743363e-08
9.5869637e-08
9.6003685e-08
9.6147817e-08
9.6303727e-08
9.6468783e-08
9.6639952e-08
9.682051e-08
9.700758e-08
9.7196e-08
9.7388795e-08
9.7592472e-08
9.7794004e-08
9.8004768e-08
9.8214771e-08
9.8431188e-08
9.8650492e-08
9.8874996e-08
9.9087948e-08
9.3638189e-08
9.3665386e-08
9.3693376e-08
9.3725823e-08
9.3758391e-08
9.3792747e-08
9.3828271e-08
9.3866812e-08
9.3906646e-08
9.3950158e-08
9.3996434e-08
9.4044934e-08
9.4095978e-08
9.4150032e-08
9.4206496e-08
9.4265305e-08
9.432696e-08
9.4391024e-08
9.4456594e-08
9.4523405e-08
9.459135e-08
9.4660038e-08
9.4729255e-08
9.4799378e-08
9.4871736e-08
9.4946653e-08
9.5023224e-08
9.5100589e-08
9.5183614e-08
9.5277476e-08
9.5370517e-08
9.5468075e-08
9.5573356e-08
9.5684536e-08
9.5806063e-08
9.5935732e-08
9.6070803e-08
9.6213548e-08
9.6361878e-08
9.6511923e-08
9.6665907e-08
9.6828724e-08
9.6990434e-08
9.7159528e-08
9.7328328e-08
9.7502153e-08
9.7678166e-08
9.7858309e-08
9.8028586e-08
9.3439396e-08
9.3470112e-08
9.3501534e-08
9.3536648e-08
9.3572348e-08
9.3609955e-08
9.3649062e-08
9.3691058e-08
9.3734734e-08
9.3781769e-08
9.3831559e-08
9.3883714e-08
9.3938349e-08
9.3995661e-08
9.4055115e-08
9.4116439e-08
9.4179713e-08
9.424444e-08
9.4309778e-08
9.4375265e-08
9.4440574e-08
9.4505193e-08
9.4568761e-08
9.4631484e-08
9.4694264e-08
9.4757293e-08
9.4819929e-08
9.4885281e-08
9.4967837e-08
9.5035187e-08
9.5090924e-08
9.5163254e-08
9.5240932e-08
9.5326044e-08
9.5419887e-08
9.5519525e-08
9.5623251e-08
9.5733178e-08
9.5848022e-08
9.5964943e-08
9.6085563e-08
9.6213523e-08
9.6341213e-08
9.6474934e-08
9.6608762e-08
9.67466e-08
9.6886141e-08
9.7028974e-08
9.7163417e-08
9.3283644e-08
9.331766e-08
9.3352409e-08
9.3390334e-08
9.3429262e-08
9.3470248e-08
9.3513042e-08
9.3558689e-08
9.3606359e-08
9.3657194e-08
9.3710816e-08
9.3766931e-08
9.3825484e-08
9.3886458e-08
9.3949343e-08
9.4013688e-08
9.4079235e-08
9.4145413e-08
9.4211395e-08
9.4276543e-08
9.4340338e-08
9.4402141e-08
9.4461466e-08
9.4518376e-08
9.4573432e-08
9.4626704e-08
9.4678019e-08
9.472765e-08
9.4776196e-08
9.4825484e-08
9.4883397e-08
9.4936168e-08
9.4993548e-08
9.5055825e-08
9.5123431e-08
9.5195683e-08
9.5271786e-08
9.5353395e-08
9.5439573e-08
9.5528145e-08
9.5620234e-08
9.5718528e-08
9.5817209e-08
9.5920944e-08
9.6025162e-08
9.6132722e-08
9.624174e-08
9.6353537e-08
9.6458318e-08
9.3162463e-08
9.3199631e-08
9.3237643e-08
9.3278507e-08
9.3320756e-08
9.3365243e-08
9.3411835e-08
9.3461318e-08
9.3513136e-08
9.3568027e-08
9.362577e-08
9.3686131e-08
9.3748913e-08
9.381392e-08
9.3880642e-08
9.3948467e-08
9.4016857e-08
9.4085161e-08
9.4152532e-08
9.4218168e-08
9.4281381e-08
9.4341406e-08
9.4397639e-08
9.4450022e-08
9.4498847e-08
9.4544082e-08
9.4585687e-08
9.4624362e-08
9.466328e-08
9.4681593e-08
9.4728105e-08
9.4769619e-08
9.4809165e-08
9.4850613e-08
9.4896027e-08
9.4945385e-08
9.49982e-08
9.5055717e-08
9.5117322e-08
9.5181429e-08
9.5248854e-08
9.5321597e-08
9.5395249e-08
9.5473254e-08
9.5552087e-08
9.563382e-08
9.5716903e-08
9.5802415e-08
9.588215e-08
9.3069358e-08
9.3109601e-08
9.3150862e-08
9.3194792e-08
9.324047e-08
9.3288588e-08
9.3339108e-08
9.3392611e-08
9.3448749e-08
9.3507943e-08
9.3570086e-08
9.3634976e-08
9.3702289e-08
9.3771683e-08
9.3842624e-08
9.3914354e-08
9.3986097e-08
9.4057117e-08
9.412652e-08
9.419335e-08
9.4256766e-08
9.4315877e-08
9.4369971e-08
9.441888e-08
9.4462684e-08
9.450125e-08
9.4534703e-08
9.4563828e-08
9.4589004e-08
9.4615299e-08
9.4636728e-08
9.4656932e-08
9.4677931e-08
9.4701205e-08
9.4727628e-08
9.4757148e-08
9.4789564e-08
9.4825939e-08
9.4865987e-08
9.4908626e-08
9.4954465e-08
9.5004989e-08
9.5056882e-08
9.5112668e-08
9.516963e-08
9.5229253e-08
9.5290251e-08
9.5353507e-08
9.5412133e-08
9.2999394e-08
9.3042686e-08
9.308722e-08
9.3134349e-08
9.3183575e-08
9.3235471e-08
9.3290063e-08
9.3347782e-08
9.3408426e-08
9.3472172e-08
9.3538993e-08
9.3608693e-08
9.3680842e-08
9.3754967e-08
9.3830494e-08
9.390653e-08
9.3982094e-08
9.4056355e-08
9.4128354e-08
9.4196991e-08
9.426128e-08
9.4320206e-08
9.4372953e-08
9.4419257e-08
9.4459024e-08
9.449203e-08
9.4518523e-08
9.4539218e-08
9.4555269e-08
9.4566844e-08
9.457596e-08
9.4583714e-08
9.4590858e-08
9.4598652e-08
9.4608239e-08
9.4620065e-08
9.4634326e-08
9.4651981e-08
9.4673001e-08
9.4696699e-08
9.4723532e-08
9.47546e-08
9.4787443e-08
9.4823887e-08
9.4861847e-08
9.4902361e-08
9.4944357e-08
9.4988544e-08
9.5029149e-08
9.2948779e-08
9.299514e-08
9.3043005e-08
9.3093477e-08
9.3146394e-08
9.3202229e-08
9.3261061e-08
9.3323202e-08
9.3388559e-08
9.3457115e-08
9.3528893e-08
9.3603694e-08
9.3680987e-08
9.3760182e-08
9.3840655e-08
9.3921383e-08
9.4001202e-08
9.4079182e-08
9.4154283e-08
9.4225267e-08
9.4291006e-08
9.435037e-08
9.4402437e-08
9.4446856e-08
9.448339e-08
9.4511733e-08
9.4532227e-08
9.4545625e-08
9.4552789e-08
9.4554896e-08
9.4553013e-08
9.4548329e-08
9.4542026e-08
9.4535448e-08
9.4529803e-08
9.4525784e-08
9.4523825e-08
9.4524798e-08
9.4528879e-08
9.4535707e-08
9.4545645e-08
9.455951e-08
9.4575519e-08
9.4594971e-08
9.4616279e-08
9.4640146e-08
9.4665673e-08
9.4693421e-08
9.4718558e-08
9.2914625e-08
9.2964112e-08
9.3015398e-08
9.3069371e-08
9.3126136e-08
9.318609e-08
9.3249351e-08
9.3316136e-08
9.3386432e-08
9.3460067e-08
9.3537092e-08
9.3617292e-08
9.3700045e-08
9.3784651e-08
9.3870427e-08
9.3956223e-08
9.4040709e-08
9.4122849e-08
9.4201513e-08
9.4275324e-08
9.4343022e-08
9.4403359e-08
9.4455313e-08
9.4498448e-08
9.453241e-08
9.4556818e-08
9.4572091e-08
9.4578992e-08
9.4578398e-08
9.4571411e-08
9.4559329e-08
9.4543486e-08
9.4525183e-08
9.4505718e-08
9.4486353e-08
9.4468018e-08
9.4451382e-08
9.4437282e-08
9.4426086e-08
9.4417705e-08
9.441245e-08
9.441093e-08
9.4411902e-08
9.4416266e-08
9.4422828e-08
9.4432036e-08
9.4443133e-08
9.4456547e-08
9.4468251e-08
9.2894735e-08
9.2947437e-08
9.3002261e-08
9.305991e-08
9.3120701e-08
9.3184972e-08
9.3252872e-08
9.332454e-08
9.3400024e-08
9.3479019e-08
9.3561593e-08
9.3647503e-08
9.3736041e-08
9.3826404e-08
9.3917839e-08
9.4009075e-08
9.4098624e-08
9.418534e-08
9.4267991e-08
9.4345066e-08
9.4415176e-08
9.4476952e-08
9.4529278e-08
9.4571635e-08
9.4603569e-08
9.4624633e-08
9.4635309e-08
9.4636386e-08
9.4628714e-08
9.4613507e-08
9.4592145e-08
9.4566049e-08
9.4536654e-08
9.4505283e-08
9.4473279e-08
9.4441785e-08
9.4411675e-08
9.4383781e-08
9.4358637e-08
9.4336386e-08
9.4317313e-08
9.4301878e-08
9.4289269e-08
9.4280088e-08
9.4273452e-08
9.4269616e-08
9.4267939e-08
9.4268734e-08
9.4268663e-08
9.2887467e-08
9.29435e-08
9.3002006e-08
9.306352e-08
9.3128536e-08
9.3197342e-08
9.3270111e-08
9.3346921e-08
9.3427859e-08
9.3512512e-08
9.360095e-08
9.3692896e-08
9.3787556e-08
9.3884029e-08
9.3981484e-08
9.4078528e-08
9.4173526e-08
9.4265214e-08
9.4352251e-08
9.4432993e-08
9.450592e-08
9.4569549e-08
9.4622665e-08
9.4664671e-08
9.4695029e-08
9.471323e-08
9.471981e-08
9.4715587e-08
9.4701417e-08
9.4678588e-08
9.4648582e-08
9.4612918e-08
9.4573165e-08
9.4530686e-08
9.4486916e-08
9.4443187e-08
9.4400558e-08
9.4359882e-08
9.4321843e-08
9.4286783e-08
9.4254986e-08
9.4226809e-08
9.4201788e-08
9.4180298e-08
9.4161707e-08
9.4146123e-08
9.4133001e-08
9.4122551e-08
9.4112029e-08
9.2891623e-08
9.2951127e-08
9.3013483e-08
9.3079068e-08
9.3148527e-08
9.3222106e-08
9.3299996e-08
9.3382224e-08
9.3468904e-08
9.355953e-08
9.3654164e-08
9.3752484e-08
9.3853617e-08
9.3956561e-08
9.4060403e-08
9.4163627e-08
9.4264452e-08
9.4361496e-08
9.4453299e-08
9.4538083e-08
9.4614199e-08
9.4680048e-08
9.473432e-08
9.4776341e-08
9.4805495e-08
9.4821223e-08
9.4824108e-08
9.4815e-08
9.4794771e-08
9.4764792e-08
9.4726641e-08
9.4681937e-08
9.4632379e-08
9.4579394e-08
9.4524515e-08
9.4469251e-08
9.4414831e-08
9.4362151e-08
9.4312033e-08
9.4264994e-08
9.4221333e-08
9.4181337e-08
9.4144827e-08
9.4112008e-08
9.408245e-08
9.4056151e-08
9.4032646e-08
9.401205e-08
9.3992137e-08
9.2906367e-08
9.2969507e-08
9.30359e-08
9.3105781e-08
9.3179921e-08
9.325853e-08
9.3341816e-08
9.3429758e-08
9.3522489e-08
9.3619422e-08
9.3720598e-08
9.382565e-08
9.393362e-08
9.4043409e-08
9.4154012e-08
9.4263791e-08
9.4370821e-08
9.4473594e-08
9.4570528e-08
9.4659707e-08
9.4739355e-08
9.4807757e-08
9.4863507e-08
9.4905855e-08
9.4934118e-08
9.494769e-08
9.4947196e-08
9.4933524e-08
9.4907573e-08
9.4870796e-08
9.4824865e-08
9.4771506e-08
9.4712548e-08
9.4649497e-08
9.4583993e-08
9.4517714e-08
9.445205e-08
9.4387954e-08
9.4326376e-08
9.4267991e-08
9.4213125e-08
9.4162024e-08
9.4114742e-08
9.4071359e-08
9.403161e-08
9.3995408e-08
9.3962355e-08
9.3932482e-08
9.3904017e-08
9.293117e-08
9.299813e-08
9.3068772e-08
9.3143191e-08
9.3222269e-08
9.3306187e-08
9.3395162e-08
9.3489137e-08
9.358825e-08
9.3691841e-08
9.3799926e-08
9.3912084e-08
9.4027272e-08
9.4144291e-08
9.426204e-08
9.4378755e-08
9.4492367e-08
9.4601237e-08
9.4703655e-08
9.4797567e-08
9.4881068e-08
9.4952326e-08
9.5009841e-08
9.5052786e-08
9.5080418e-08
9.509209e-08
9.5088466e-08
9.5070474e-08
9.503905e-08
9.4995728e-08
9.4942277e-08
9.4880531e-08
9.4812452e-08
9.473964e-08
9.4663853e-08
9.4586928e-08
9.4510409e-08
9.4435322e-08
9.4362738e-08
9.4293474e-08
9.4227892e-08
9.4166222e-08
9.4108709e-08
9.4055344e-08
9.4005994e-08
9.3960513e-08
9.3918558e-08
9.3880082e-08
9.3843714e-08
9.2965764e-08
9.3036748e-08
9.3111871e-08
9.319109e-08
9.3275384e-08
9.336491e-08
9.3459893e-08
9.3560239e-08
9.3666087e-08
9.3776711e-08
9.389209e-08
9.4011746e-08
9.4134549e-08
9.4259199e-08
9.4384489e-08
9.4508527e-08
9.4629101e-08
9.4744434e-08
9.4852683e-08
9.4951653e-08
9.5039308e-08
9.5113703e-08
9.5173239e-08
9.5217017e-08
9.5244234e-08
9.5254212e-08
9.5247651e-08
9.522552e-08
9.51888e-08
9.5139103e-08
9.5078301e-08
9.5008338e-08
9.4931311e-08
9.4848931e-08
9.476308e-08
9.4675751e-08
9.4588638e-08
9.4502848e-08
9.4419571e-08
9.4339753e-08
9.4263802e-08
9.4191947e-08
9.4124595e-08
9.4061674e-08
9.4003163e-08
9.3948868e-08
9.3898497e-08
9.3851931e-08
9.3808158e-08
9.3010114e-08
9.3085347e-08
9.3165203e-08
9.3249502e-08
9.3339313e-08
9.3434769e-08
9.35361e-08
9.3643178e-08
9.375614e-08
9.387419e-08
9.399727e-08
9.4124838e-08
9.4255673e-08
9.4388369e-08
9.4521607e-08
9.4653366e-08
9.4781284e-08
9.4903445e-08
9.5017864e-08
9.5122206e-08
9.5214304e-08
9.5292093e-08
9.5353883e-08
9.5398698e-08
9.5425684e-08
9.5434134e-08
9.5424781e-08
9.539864e-08
9.5356738e-08
9.5300771e-08
9.523271e-08
9.5154617e-08
9.506873e-08
9.497688e-08
9.4881082e-08
9.4783485e-08
9.4685928e-08
9.4589608e-08
9.4495831e-08
9.4405663e-08
9.4319567e-08
9.4237782e-08
9.4160855e-08
9.4088669e-08
9.4021301e-08
9.3958519e-08
9.3900079e-08
9.3845789e-08
9.3794972e-08
9.3064397e-08
9.3144123e-08
9.3228987e-08
9.3318669e-08
9.341432e-08
9.351605e-08
9.3624093e-08
9.3738291e-08
9.3858767e-08
9.3984663e-08
9.4115874e-08
9.4251787e-08
9.4391089e-08
9.4532262e-08
9.4673871e-08
9.4813756e-08
9.4949407e-08
9.507876e-08
9.5199686e-08
9.5309705e-08
9.5406517e-08
9.5487944e-08
9.5552199e-08
9.5598232e-08
9.5625139e-08
9.5632193e-08
9.5620155e-08
9.5590088e-08
9.5543071e-08
9.5480881e-08
9.540559e-08
9.5319387e-08
9.5224654e-08
9.5123354e-08
9.5017642e-08
9.4909822e-08
9.4801878e-08
9.4695103e-08
9.4590917e-08
9.44905e-08
9.4394375e-08
9.4302803e-08
9.4216452e-08
9.4135181e-08
9.4059145e-08
9.3988092e-08
9.3921815e-08
9.3860059e-08
9.3802449e-08
9.3128994e-08
9.3213477e-08
9.3303649e-08
9.3399037e-08
9.3500874e-08
9.3609249e-08
9.3724396e-08
9.3846125e-08
9.3974543e-08
9.4108729e-08
9.4248524e-08
9.4393239e-08
9.4541464e-08
9.4691564e-08
9.4841979e-08
9.4990406e-08
9.5134182e-08
9.5271092e-08
9.5398855e-08
9.5514848e-08
9.5616638e-08
9.5701928e-08
9.5768839e-08
9.581625e-08
9.5843207e-08
9.5848967e-08
9.583432e-08
9.5800376e-08
9.574827e-08
9.5679856e-08
9.5597316e-08
9.5502967e-08
9.5399341e-08
9.5288546e-08
9.5172884e-08
9.5054813e-08
9.4936459e-08
9.4819218e-08
9.4704623e-08
9.4593966e-08
9.4487833e-08
9.4386518e-08
9.4290798e-08
9.4200517e-08
9.4115904e-08
9.4036688e-08
9.39627e-08
9.3893622e-08
9.3829369e-08
9.3204488e-08
9.3294015e-08
9.3389816e-08
9.349126e-08
9.3599657e-08
9.3715072e-08
9.3837742e-08
9.3967441e-08
9.4104256e-08
9.4247203e-08
9.4396061e-08
9.455006e-08
9.4707684e-08
9.4867177e-08
9.5026847e-08
9.5184242e-08
9.5336542e-08
9.5481373e-08
9.5616301e-08
9.5738556e-08
9.5845572e-08
9.5934937e-08
9.6004679e-08
9.6053607e-08
9.6080721e-08
9.6085267e-08
9.6068063e-08
9.6030264e-08
9.597306e-08
9.5898387e-08
9.5808536e-08
9.5705959e-08
9.5593348e-08
9.5472963e-08
9.5347257e-08
9.5218842e-08
9.5089986e-08
9.4962194e-08
9.4837112e-08
9.4716143e-08
9.4599938e-08
9.4488838e-08
9.4383715e-08
9.4284413e-08
9.4191226e-08
9.4103874e-08
9.4022223e-08
9.3945892e-08
9.3875075e-08
9.3291673e-08
9.3386552e-08
9.3488331e-08
9.3596206e-08
9.3711564e-08
9.3834446e-08
9.3965086e-08
9.4103225e-08
9.4248923e-08
9.4401129e-08
9.4559556e-08
9.4723342e-08
9.4890864e-08
9.5060236e-08
9.5229624e-08
9.5396422e-08
9.5557647e-08
9.5710762e-08
9.5853176e-08
9.5981972e-08
9.6094449e-08
9.6188085e-08
9.6260816e-08
9.6311384e-08
9.6338744e-08
9.6342137e-08
9.6322405e-08
9.628075e-08
9.6218417e-08
9.613742e-08
9.6040164e-08
9.5929248e-08
9.5807524e-08
9.5677412e-08
9.5541522e-08
9.5402618e-08
9.526311e-08
9.5124616e-08
9.4988899e-08
9.4857468e-08
9.4731051e-08
9.461004e-08
9.4495399e-08
9.4386981e-08
9.428514e-08
9.418959e-08
9.4100233e-08
9.4016624e-08
9.3939234e-08
9.3391563e-08
9.3492131e-08
9.3600266e-08
9.3714977e-08
9.3837727e-08
9.3968533e-08
9.4107624e-08
9.4254704e-08
9.44098e-08
9.4571794e-08
9.4740322e-08
9.4914427e-08
9.5092366e-08
9.5272119e-08
9.54517e-08
9.5628343e-08
9.5798896e-08
9.5960655e-08
9.6110867e-08
9.6246469e-08
9.636463e-08
9.6462716e-08
9.6538577e-08
9.6590889e-08
9.6618569e-08
9.6620854e-08
9.659861e-08
9.6553083e-08
9.6485569e-08
9.6398164e-08
9.6293392e-08
9.6174001e-08
9.6043011e-08
9.5903008e-08
9.5756758e-08
9.5607178e-08
9.5456817e-08
9.5307412e-08
9.5160845e-08
9.5018735e-08
9.4881893e-08
9.4750771e-08
9.4626424e-08
9.4508721e-08
9.4398076e-08
9.4294204e-08
9.4197041e-08
9.4106079e-08
9.4022067e-08
9.3505424e-08
9.3612042e-08
9.3726944e-08
9.384893e-08
9.3979538e-08
9.4118761e-08
9.4266818e-08
9.4423374e-08
9.4588419e-08
9.476076e-08
9.493995e-08
9.5124928e-08
9.5313825e-08
9.5504475e-08
9.5694735e-08
9.5881669e-08
9.6061952e-08
9.6232706e-08
9.6391018e-08
9.6533675e-08
9.6657721e-08
9.6760417e-08
9.6839531e-08
9.6893675e-08
9.6921734e-08
9.6922944e-08
9.6898193e-08
9.6848766e-08
9.6776012e-08
9.6682105e-08
9.6569694e-08
9.6441681e-08
9.6301261e-08
9.6151185e-08
9.5994374e-08
9.5833894e-08
9.5672434e-08
9.5511858e-08
9.5354166e-08
9.5201094e-08
9.5053544e-08
9.4912037e-08
9.4777718e-08
9.4650484e-08
9.4530804e-08
9.4418399e-08
9.4313239e-08
9.4214753e-08
9.4123973e-08
9.3634793e-08
9.3747859e-08
9.3869977e-08
9.3999712e-08
9.4138684e-08
9.4286855e-08
9.4444433e-08
9.4611038e-08
9.4786617e-08
9.4969897e-08
9.5160339e-08
9.5356768e-08
9.5557181e-08
9.5759259e-08
9.5960689e-08
9.615836e-08
9.6348768e-08
9.6528857e-08
9.6695549e-08
9.684549e-08
9.6975601e-08
9.7083044e-08
9.7165512e-08
9.7221559e-08
9.725004e-08
9.7250199e-08
9.7222938e-08
9.7169583e-08
9.7091526e-08
9.6991022e-08
9.6870848e-08
9.6734072e-08
9.6584056e-08
9.6423716e-08
9.6256126e-08
9.6084496e-08
9.5911655e-08
9.5739595e-08
9.5570447e-08
9.5406068e-08
9.524746e-08
9.5095228e-08
9.4950605e-08
9.4813526e-08
9.468452e-08
9.4563318e-08
9.4449931e-08
9.4343717e-08
9.4246007e-08
9.3781528e-08
9.3901476e-08
9.4031302e-08
9.4169306e-08
9.4317193e-08
9.4474889e-08
9.4642587e-08
9.4819857e-08
9.5006594e-08
9.520144e-08
9.5403753e-08
9.5612233e-08
9.5824736e-08
9.6038778e-08
9.6251869e-08
9.6460716e-08
9.6661628e-08
9.6851369e-08
9.7026699e-08
9.7184124e-08
9.7320448e-08
9.7432746e-08
9.7518643e-08
9.7576645e-08
9.760558e-08
9.7604702e-08
9.757493e-08
9.751762e-08
9.7434204e-08
9.7327017e-08
9.7198973e-08
9.7053303e-08
9.6893538e-08
9.672275e-08
9.6544156e-08
9.6361103e-08
9.6176561e-08
9.5992661e-08
9.5811671e-08
9.5635579e-08
9.5465498e-08
9.5302126e-08
9.514679e-08
9.4999472e-08
9.486076e-08
9.4730402e-08
9.4608446e-08
9.4494181e-08
9.4389254e-08
9.3947848e-08
9.4075157e-08
9.4213235e-08
9.4360081e-08
9.4517486e-08
9.4685338e-08
9.4863805e-08
9.5052404e-08
9.5250969e-08
9.5458044e-08
9.5672877e-08
9.589403e-08
9.6119207e-08
9.6345751e-08
9.6570985e-08
9.6791427e-08
9.7003198e-08
9.7202879e-08
9.7387066e-08
9.7552133e-08
9.7694782e-08
9.7812007e-08
9.7901379e-08
9.7961363e-08
9.799077e-08
9.7988866e-08
9.7956584e-08
9.7895303e-08
9.780649e-08
9.7692557e-08
9.7556562e-08
9.7401901e-08
9.723226e-08
9.7050853e-08
9.6861026e-08
9.6666261e-08
9.6469668e-08
9.6273527e-08
9.6080257e-08