/*--------------------------------*- C++ -*----------------------------------*\
| =========                 |                                                 |
| \\      /  F ield         | OpenFOAM: The Open Source CFD Toolbox           |
|  \\    /   O peration     | Version:  v2006                                 |
|   \\  /    A nd           | Website:  www.openfoam.com                      |
|    \\/     M anipulation  |                                                 |
\*---------------------------------------------------------------------------*/
FoamFile
{
    version     2.0;
    format      ascii;
    class       volScalarField;
    location    "4000";
    object      nutMean;
}
// * * * * * * * * * * * * * * * * * * * * * * * * * * * * * * * * * * * * * //

dimensions      [0 2 -1 0 0 0 0];


internalField   nonuniform List<scalar> 
19765
(
9.8949033e-06
9.8810604e-06
9.573422e-06
9.6108666e-06
9.5940226e-06
9.7375225e-06
9.6396905e-06
9.8019017e-06
9.757864e-06
9.5570318e-06
9.6489068e-06
1.001589e-05
1.0226993e-05
1.0409871e-05
1.0804449e-05
1.0967837e-05
1.0912126e-05
1.1059774e-05
1.1467176e-05
1.1821597e-05
1.205744e-05
1.2171957e-05
1.2380086e-05
1.2506398e-05
1.2588874e-05
1.2638012e-05
1.2660354e-05
1.2596132e-05
1.2613421e-05
1.2496223e-05
1.2268595e-05
1.1978784e-05
1.2009276e-05
1.2153993e-05
1.2014877e-05
1.1681419e-05
1.1665497e-05
1.1605007e-05
1.1332432e-05
1.1419968e-05
1.1789525e-05
1.194333e-05
1.1901425e-05
1.2211307e-05
1.2105509e-05
1.2337677e-05
1.2345328e-05
1.2318593e-05
1.2192238e-05
5.5375507e-05
5.813542e-05
6.0300959e-05
6.1979115e-05
6.4041874e-05
6.615274e-05
6.8275233e-05
7.0385934e-05
7.2573628e-05
7.4457727e-05
7.6690422e-05
7.9132883e-05
8.1219575e-05
8.3072905e-05
8.4989671e-05
8.6169056e-05
8.6467585e-05
8.7056755e-05
8.8248614e-05
8.9648546e-05
9.0951266e-05
9.1782001e-05
9.2486921e-05
9.343918e-05
9.4367354e-05
9.4770616e-05
9.4911717e-05
9.5157097e-05
9.5332998e-05
9.5316052e-05
9.5189534e-05
9.4997801e-05
9.4959736e-05
9.4774162e-05
9.409734e-05
9.3136995e-05
9.2291105e-05
9.1154734e-05
8.9734238e-05
8.8675422e-05
8.7738245e-05
8.5713514e-05
8.3569095e-05
8.0098612e-05
7.7520969e-05
7.1654723e-05
6.5063223e-05
5.8437332e-05
5.3493343e-05
1.686902e-05
1.6102583e-05
1.5547773e-05
1.5742606e-05
1.5806442e-05
1.5864658e-05
1.5737097e-05
1.5845683e-05
1.5684332e-05
1.5779018e-05
1.5972542e-05
1.595802e-05
1.5739866e-05
1.5531224e-05
1.5204965e-05
1.4727672e-05
1.4358732e-05
1.4120037e-05
1.3927714e-05
1.3754538e-05
1.3653689e-05
1.3658161e-05
1.3643045e-05
1.3667447e-05
1.3923665e-05
1.4423873e-05
1.4885718e-05
1.5362034e-05
1.605808e-05
1.68054e-05
1.7530287e-05
1.8202185e-05
1.8803884e-05
1.9751147e-05
2.0935239e-05
2.191997e-05
2.2684805e-05
2.3693927e-05
2.446431e-05
2.4852281e-05
2.5525737e-05
2.6706622e-05
2.7307706e-05
2.8430326e-05
2.9176147e-05
3.1199728e-05
3.3858673e-05
3.7028703e-05
3.9223486e-05
6.8239959e-07
6.0322043e-07
5.5587823e-07
5.4543093e-07
5.3327993e-07
5.224399e-07
5.0701532e-07
5.000502e-07
4.8591447e-07
4.7863387e-07
4.7399134e-07
4.6399645e-07
4.4921059e-07
4.3595794e-07
4.2163802e-07
4.0537583e-07
3.9332759e-07
3.8552885e-07
3.787822e-07
3.7211257e-07
3.6848185e-07
3.6932365e-07
3.6932643e-07
3.7064401e-07
3.7798312e-07
3.9219356e-07
4.0708098e-07
4.2389337e-07
4.476049e-07
4.7486119e-07
5.04248e-07
5.3486346e-07
5.6639107e-07
6.1116252e-07
6.6812556e-07
7.2491663e-07
7.8086575e-07
8.5158536e-07
9.1872897e-07
9.7679087e-07
1.055406e-06
1.1674988e-06
1.2669109e-06
1.4216186e-06
1.5722064e-06
1.7894842e-06
2.0537897e-06
2.3890562e-06
2.7838756e-06
1.6363944e-07
1.6292598e-07
1.6302933e-07
1.6481602e-07
1.6638343e-07
1.6786983e-07
1.6881404e-07
1.7027325e-07
1.7096613e-07
1.7215927e-07
1.7365683e-07
1.7465596e-07
1.7514998e-07
1.7576117e-07
1.7613808e-07
1.7611149e-07
1.7643207e-07
1.7719546e-07
1.7785155e-07
1.7840406e-07
1.7927952e-07
1.8046896e-07
1.8161181e-07
1.8298944e-07
1.8502187e-07
1.8788179e-07
1.9084833e-07
1.9396364e-07
1.9776057e-07
2.0179129e-07
2.0583621e-07
2.0977415e-07
2.1345662e-07
2.1804273e-07
2.2326694e-07
2.2789035e-07
2.3184462e-07
2.3637811e-07
2.4009766e-07
2.427436e-07
2.4627666e-07
2.509196e-07
2.5423213e-07
2.5941201e-07
2.6369505e-07
2.6949333e-07
2.751889e-07
2.7958683e-07
2.8363006e-07
1.4102825e-07
1.4108593e-07
1.4149794e-07
1.4259269e-07
1.4342472e-07
1.4426386e-07
1.4489729e-07
1.4573725e-07
1.462378e-07
1.4704369e-07
1.4781449e-07
1.4830863e-07
1.4864048e-07
1.4901893e-07
1.4927133e-07
1.4945368e-07
1.4987603e-07
1.5048014e-07
1.5103641e-07
1.5159804e-07
1.5229011e-07
1.5307855e-07
1.5404512e-07
1.5522629e-07
1.5673303e-07
1.5870308e-07
1.6082956e-07
1.6304766e-07
1.6561431e-07
1.6839333e-07
1.7125739e-07
1.7416274e-07
1.7692072e-07
1.7996816e-07
1.8339546e-07
1.8678632e-07
1.8979497e-07
1.9294806e-07
1.9594062e-07
1.9836684e-07
2.0072865e-07
2.0383776e-07
2.0632263e-07
2.0961381e-07
2.1262921e-07
2.162589e-07
2.2018382e-07
2.2443006e-07
2.2820722e-07
1.2383323e-07
1.2373584e-07
1.2383611e-07
1.2433792e-07
1.2471071e-07
1.250987e-07
1.253887e-07
1.2581013e-07
1.2605962e-07
1.2649238e-07
1.2692924e-07
1.2722285e-07
1.274344e-07
1.2768267e-07
1.2786902e-07
1.2802041e-07
1.2832216e-07
1.2875286e-07
1.2917945e-07
1.2962856e-07
1.3015978e-07
1.3075245e-07
1.3144941e-07
1.3229785e-07
1.3336379e-07
1.3471238e-07
1.3616069e-07
1.3769109e-07
1.3945388e-07
1.4136083e-07
1.4334089e-07
1.453622e-07
1.4732326e-07
1.4948058e-07
1.5187468e-07
1.542517e-07
1.5642564e-07
1.5869672e-07
1.6087975e-07
1.6274284e-07
1.6459529e-07
1.6685711e-07
1.6876931e-07
1.711117e-07
1.7328158e-07
1.7575292e-07
1.7832845e-07
1.8102467e-07
1.8346568e-07
1.1483316e-07
1.1476022e-07
1.1480743e-07
1.150977e-07
1.1531056e-07
1.1553254e-07
1.1569671e-07
1.1593715e-07
1.1607933e-07
1.1632908e-07
1.165828e-07
1.1675974e-07
1.1689678e-07
1.1706174e-07
1.1720088e-07
1.1733254e-07
1.1756116e-07
1.1787427e-07
1.1819995e-07
1.1855749e-07
1.1898022e-07
1.194547e-07
1.2001961e-07
1.2069749e-07
1.215217e-07
1.2253249e-07
1.2362509e-07
1.2479023e-07
1.2611786e-07
1.2755661e-07
1.290634e-07
1.3061815e-07
1.3215758e-07
1.3383442e-07
1.356772e-07
1.3753328e-07
1.3928248e-07
1.4110404e-07
1.4288852e-07
1.4448717e-07
1.4608139e-07
1.4794858e-07
1.4961461e-07
1.5157327e-07
1.5345449e-07
1.5556517e-07
1.5779508e-07
1.6016823e-07
1.6242609e-07
1.0845527e-07
1.0837751e-07
1.0837504e-07
1.0852835e-07
1.0863705e-07
1.0875481e-07
1.0884054e-07
1.0897652e-07
1.0905622e-07
1.0920525e-07
1.0936083e-07
1.0947479e-07
1.0957009e-07
1.0968788e-07
1.0979631e-07
1.0990754e-07
1.100853e-07
1.1032252e-07
1.1057657e-07
1.1085986e-07
1.111911e-07
1.1156057e-07
1.1199249e-07
1.1250715e-07
1.131272e-07
1.1387541e-07
1.1468684e-07
1.1555778e-07
1.1654455e-07
1.1761486e-07
1.1874262e-07
1.1991464e-07
1.210915e-07
1.2236766e-07
1.2375972e-07
1.251702e-07
1.2652373e-07
1.2793108e-07
1.2932166e-07
1.3059914e-07
1.3187918e-07
1.3333133e-07
1.3465641e-07
1.3616255e-07
1.3761411e-07
1.392019e-07
1.4085164e-07
1.4257369e-07
1.4419898e-07
1.0428821e-07
1.0423065e-07
1.0421999e-07
1.0431046e-07
1.0437197e-07
1.0443978e-07
1.044879e-07
1.0456894e-07
1.0461601e-07
1.0470881e-07
1.0480782e-07
1.0488387e-07
1.0495204e-07
1.0503821e-07
1.0512317e-07
1.0521552e-07
1.0535526e-07
1.055382e-07
1.0573864e-07
1.059652e-07
1.0623016e-07
1.065277e-07
1.0687275e-07
1.0727958e-07
1.0776444e-07
1.0834134e-07
1.0896894e-07
1.0964592e-07
1.1040967e-07
1.1123985e-07
1.1211971e-07
1.1304048e-07
1.1397603e-07
1.1498787e-07
1.1608789e-07
1.1721197e-07
1.183085e-07
1.194496e-07
1.2058874e-07
1.2165924e-07
1.2273551e-07
1.2393524e-07
1.2505567e-07
1.2630645e-07
1.2752961e-07
1.2885743e-07
1.3024297e-07
1.3170098e-07
1.331036e-07
1.0133442e-07
1.0129014e-07
1.0127645e-07
1.0133109e-07
1.013671e-07
1.0140808e-07
1.0143706e-07
1.0148873e-07
1.0151962e-07
1.0158201e-07
1.016503e-07
1.0170606e-07
1.017595e-07
1.0182748e-07
1.0189791e-07
1.019769e-07
1.0209047e-07
1.0223609e-07
1.0239766e-07
1.0258103e-07
1.0279433e-07
1.0303397e-07
1.0330903e-07
1.0363003e-07
1.0400976e-07
1.0445704e-07
1.0494455e-07
1.0547229e-07
1.0606564e-07
1.0671132e-07
1.0739832e-07
1.0812071e-07
1.0886107e-07
1.0966036e-07
1.1052661e-07
1.1141627e-07
1.1229403e-07
1.1320753e-07
1.1412468e-07
1.1499869e-07
1.1587952e-07
1.1684534e-07
1.1775825e-07
1.1875873e-07
1.1973908e-07
1.2078776e-07
1.2187176e-07
1.2299995e-07
1.2408079e-07
9.9226469e-08
9.9197278e-08
9.9187676e-08
9.9224721e-08
9.9249092e-08
9.9277176e-08
9.929767e-08
9.9334053e-08
9.9357497e-08
9.9403154e-08
9.9454035e-08
9.9498366e-08
9.9543206e-08
9.9599826e-08
9.9660482e-08
9.97296e-08
9.9824478e-08
9.9943542e-08
1.0007651e-07
1.0022747e-07
1.0040198e-07
1.0059808e-07
1.0082139e-07
1.0107915e-07
1.0138167e-07
1.0173477e-07
1.0212002e-07
1.0253812e-07
1.0300692e-07
1.035175e-07
1.0406247e-07
1.0463799e-07
1.0523236e-07
1.0587391e-07
1.0656861e-07
1.072862e-07
1.0800144e-07
1.0874681e-07
1.0949977e-07
1.1022638e-07
1.1096045e-07
1.1175786e-07
1.1252057e-07
1.1334804e-07
1.1416424e-07
1.1503262e-07
1.1593051e-07
1.1686725e-07
1.1777089e-07
9.7682423e-08
9.7664835e-08
9.7660115e-08
9.7688064e-08
9.7707399e-08
9.7729675e-08
9.7747224e-08
9.7776273e-08
9.7797295e-08
9.7834437e-08
9.7876217e-08
9.7914932e-08
9.7955551e-08
9.8005756e-08
9.8060462e-08
9.8122876e-08
9.8204719e-08
9.8304987e-08
9.8416946e-08
9.8543445e-08
9.8688324e-08
9.8850542e-08
9.9033573e-08
9.9242444e-08
9.9485454e-08
9.9766581e-08
1.0007322e-07
1.0040648e-07
1.0077892e-07
1.0118429e-07
1.0161773e-07
1.0207713e-07
1.0255478e-07
1.0307053e-07
1.0362856e-07
1.0420727e-07
1.0478839e-07
1.0539423e-07
1.0600859e-07
1.0660652e-07
1.0721145e-07
1.0786254e-07
1.0848968e-07
1.0916275e-07
1.0982736e-07
1.1052801e-07
1.1124811e-07
1.1199427e-07
1.1271171e-07
9.6532932e-08
9.6525708e-08
9.6526792e-08
9.6551002e-08
9.656924e-08
9.6589853e-08
9.6607572e-08
9.6633811e-08
9.6655159e-08
9.6688473e-08
9.6725887e-08
9.6762311e-08
9.6801275e-08
9.6848085e-08
9.6899342e-08
9.6957362e-08
9.7030171e-08
9.7117095e-08
9.7213632e-08
9.7321764e-08
9.7444157e-08
9.7580264e-08
9.7732257e-08
9.790362e-08
9.8100981e-08
9.8327136e-08
9.8573435e-08
9.8841199e-08
9.9139082e-08
9.9462679e-08
9.9809401e-08
1.0017867e-07
1.0056523e-07
1.0098292e-07
1.0143453e-07
1.0190441e-07
1.0237909e-07
1.0287436e-07
1.0337851e-07
1.0387294e-07
1.0437406e-07
1.0491046e-07
1.0543069e-07
1.0598547e-07
1.0653506e-07
1.0711197e-07
1.0770411e-07
1.0831753e-07
1.0890806e-07
9.5666065e-08
9.5667121e-08
9.5673597e-08
9.5696758e-08
9.5715835e-08
9.5736941e-08
9.5756417e-08
9.5782416e-08
9.5805605e-08
9.5837906e-08
9.5873878e-08
9.5910114e-08
9.5949129e-08
9.5994614e-08
9.6044247e-08
9.6099669e-08
9.6166397e-08
9.6243944e-08
9.6329223e-08
9.6423578e-08
9.6528839e-08
9.6644691e-08
9.6772471e-08
9.6914591e-08
9.7076305e-08
9.7259626e-08
9.7458634e-08
9.7674694e-08
9.7913239e-08
9.8171766e-08
9.8449961e-08
9.8747957e-08
9.9061461e-08
9.9399751e-08
9.9764753e-08
1.0014519e-07
1.0053128e-07
1.0093441e-07
1.0134606e-07
1.0175223e-07
1.0216454e-07
1.0260369e-07
1.0303163e-07
1.0348506e-07
1.0393459e-07
1.0440368e-07
1.0488315e-07
1.0537761e-07
1.0585202e-07
9.5003942e-08
9.5012077e-08
9.5023701e-08
9.5047515e-08
9.5068586e-08
9.5091469e-08
9.5113609e-08
9.51409e-08
9.5166796e-08
9.5199803e-08
9.5236142e-08
9.5273514e-08
9.53137e-08
9.5359269e-08
9.5408595e-08
9.5462798e-08
9.5525648e-08
9.5596752e-08
9.5673931e-08
9.5758041e-08
9.5850301e-08
9.5950483e-08
9.605937e-08
9.6178619e-08
9.6312354e-08
9.646206e-08
9.6623739e-08
9.6798581e-08
9.6989308e-08
9.7196296e-08
9.7420894e-08
9.7662346e-08
9.7916345e-08
9.8189415e-08
9.848344e-08
9.8790602e-08
9.9103868e-08
9.943159e-08
9.9767484e-08
1.001009e-07
1.0044007e-07
1.0080024e-07
1.0115289e-07
1.0152501e-07
1.0189462e-07
1.0227901e-07
1.0267117e-07
1.0307512e-07
1.0346215e-07
9.4494194e-08
9.4508189e-08
9.4524452e-08
9.4549792e-08
9.4573404e-08
9.4598721e-08
9.4623958e-08
9.4653422e-08
9.4682489e-08
9.4717267e-08
9.4755126e-08
9.4794502e-08
9.4836636e-08
9.4883293e-08
9.4933301e-08
9.498737e-08
9.5048021e-08
9.51149e-08
9.5186402e-08
9.5263006e-08
9.5345461e-08
9.5433543e-08
9.5527646e-08
9.562889e-08
9.5740472e-08
9.5863511e-08
9.5995367e-08
9.6136769e-08
9.6288431e-08
9.6455076e-08
9.6637437e-08
9.6832192e-08
9.7035828e-08
9.7254108e-08
9.7489251e-08
9.7735851e-08
9.7988734e-08
9.8253958e-08
9.8526789e-08
9.879904e-08
9.9076535e-08
9.9370462e-08
9.9659314e-08
9.9962912e-08
1.0026469e-07
1.0057729e-07
1.0089525e-07
1.0122176e-07
1.0153348e-07
9.409852e-08
9.4117577e-08
9.4138127e-08
9.416556e-08
9.4192042e-08
9.4220199e-08
9.4248788e-08
9.4280982e-08
9.4313509e-08
9.4350759e-08
9.4390913e-08
9.44329e-08
9.447755e-08
9.4526047e-08
9.457751e-08
9.4632319e-08
9.4692083e-08
9.4756447e-08
9.482417e-08
9.4895421e-08
9.4970582e-08
9.5049384e-08
9.5131933e-08
9.5218971e-08
9.5312924e-08
9.5414653e-08
9.5522456e-08
9.5636562e-08
9.5756219e-08
9.5891914e-08
9.6039669e-08
9.6193931e-08
9.6354704e-08
9.6527598e-08
9.6714528e-08
9.6911503e-08
9.7114608e-08
9.7328222e-08
9.7548771e-08
9.7769946e-08
9.7995877e-08
9.823486e-08
9.8470578e-08
9.8717726e-08
9.8963734e-08
9.9217954e-08
9.9476109e-08
9.9740905e-08
9.9993002e-08
9.3790108e-08
9.3813542e-08
9.3838018e-08
9.3867844e-08
9.3897349e-08
9.3928562e-08
9.3960624e-08
9.3995893e-08
9.4032053e-08
9.4072252e-08
9.4115242e-08
9.4160283e-08
9.4207892e-08
9.4258816e-08
9.4312359e-08
9.4368627e-08
9.4428553e-08
9.449175e-08
9.4557199e-08
9.4624813e-08
9.4694675e-08
9.4766437e-08
9.4839988e-08
9.4915801e-08
9.4995655e-08
9.5080222e-08
9.5168421e-08
9.5260059e-08
9.5355128e-08
9.5466088e-08
9.5582373e-08
9.5701102e-08
9.5826832e-08
9.5962699e-08
9.6109955e-08
9.626579e-08
9.6427294e-08
9.6597644e-08
9.6774154e-08
9.6951985e-08
9.7134086e-08
9.7326619e-08
9.7517172e-08
9.7716638e-08
9.7915424e-08
9.8120412e-08
9.8328197e-08
9.8540976e-08
9.8742764e-08
9.3548889e-08
9.3576236e-08
9.3604389e-08
9.3636822e-08
9.3669456e-08
9.3703875e-08
9.3739503e-08
9.3778098e-08
9.381803e-08
9.3861533e-08
9.390777e-08
9.3956223e-08
9.4007158e-08
9.4060994e-08
9.4117144e-08
9.4175485e-08
9.4236432e-08
9.4299548e-08
9.4363941e-08
9.4429302e-08
9.4495471e-08
9.4561992e-08
9.4628591e-08
9.4695536e-08
9.4764078e-08
9.4834737e-08
9.490672e-08
9.4979552e-08
9.5057786e-08
9.5145008e-08
9.5230869e-08
9.5322139e-08
9.5420297e-08
9.5525129e-08
9.5639189e-08
9.5760557e-08
9.5886929e-08
9.6020633e-08
9.6159735e-08
9.6300594e-08
9.6445349e-08
9.659861e-08
9.6750909e-08
9.6910355e-08
9.7069585e-08
9.7233687e-08
9.7399925e-08
9.7570139e-08
9.7730987e-08
9.33603e-08
9.33912e-08
9.3422829e-08
9.3458004e-08
9.3493832e-08
9.3531565e-08
9.3570829e-08
9.3612939e-08
9.3656763e-08
9.3703856e-08
9.3753673e-08
9.3805841e-08
9.3860429e-08
9.3917595e-08
9.3976812e-08
9.4037761e-08
9.4100449e-08
9.416438e-08
9.4228716e-08
9.4292958e-08
9.4356737e-08
9.4419481e-08
9.4480779e-08
9.4540736e-08
9.4600184e-08
9.4659496e-08
9.4718291e-08
9.4777974e-08
9.4853627e-08
9.491812e-08
9.4970044e-08
9.5036778e-08
9.5109196e-08
9.5188075e-08
9.5274542e-08
9.5366575e-08
9.5462679e-08
9.5564846e-08
9.5671821e-08
9.5780905e-08
9.5893639e-08
9.6013446e-08
9.6133091e-08
9.6258584e-08
9.6384251e-08
9.6513824e-08
9.6645081e-08
9.6779525e-08
9.6906028e-08
9.3213287e-08
9.3247505e-08
9.3282483e-08
9.3320521e-08
9.3359614e-08
9.3400763e-08
9.3443744e-08
9.3489544e-08
9.3537387e-08
9.358832e-08
9.364201e-08
9.3698173e-08
9.3756718e-08
9.3817593e-08
9.3880293e-08
9.3944329e-08
9.4009381e-08
9.4074878e-08
9.4139995e-08
9.4204061e-08
9.4266522e-08
9.4326689e-08
9.4384028e-08
9.4438512e-08
9.449064e-08
9.4540656e-08
9.4588477e-08
9.4634638e-08
9.4678366e-08
9.4723253e-08
9.4776761e-08
9.4825522e-08
9.4877465e-08
9.4933758e-08
9.4995194e-08
9.5061159e-08
9.5130889e-08
9.5205927e-08
9.528538e-08
9.5367208e-08
9.5452495e-08
9.5543769e-08
9.5635518e-08
9.5732184e-08
9.58294e-08
9.592989e-08
9.6031841e-08
9.6136501e-08
9.6234545e-08
9.3099615e-08
9.313699e-08
9.317524e-08
9.3216247e-08
9.3258681e-08
9.3303351e-08
9.3350144e-08
9.3399798e-08
9.3451801e-08
9.3506812e-08
9.3564645e-08
9.3625074e-08
9.3687868e-08
9.3752805e-08
9.3819377e-08
9.3886938e-08
9.39549e-08
9.4022612e-08
9.4089225e-08
9.4153909e-08
9.4215946e-08
9.4274529e-08
9.4329011e-08
9.4379251e-08
9.4425489e-08
9.4467844e-08
9.4506407e-08
9.4541804e-08
9.4577055e-08
9.4594748e-08
9.463524e-08
9.4671379e-08
9.4706018e-08
9.4742564e-08
9.4782838e-08
9.4826819e-08
9.4874097e-08
9.4925882e-08
9.4981625e-08
9.5039858e-08
9.5101371e-08
9.5168042e-08
9.5235702e-08
9.5307623e-08
9.5380438e-08
9.5456119e-08
9.5533171e-08
9.5612613e-08
9.5686636e-08
9.3012976e-08
9.3053424e-08
9.3094923e-08
9.3139012e-08
9.3184883e-08
9.3233193e-08
9.3283915e-08
9.3337596e-08
9.3393919e-08
9.3453241e-08
9.3515484e-08
9.3580448e-08
9.3647783e-08
9.3717124e-08
9.3787936e-08
9.3859433e-08
9.3930799e-08
9.4001294e-08
9.4070022e-08
9.4136005e-08
9.4198374e-08
9.4256202e-08
9.4308738e-08
9.4355741e-08
9.4397245e-08
9.443325e-08
9.4463994e-08
9.4490237e-08
9.4512364e-08
9.4534731e-08
9.4552606e-08
9.4569177e-08
9.4586253e-08
9.4605267e-08
9.4627133e-08
9.4651895e-08
9.467944e-08
9.4710802e-08
9.4745744e-08
9.4783274e-08
9.4823978e-08
9.4869247e-08
9.4915959e-08
9.4966501e-08
9.5018284e-08
9.5072714e-08
9.5128553e-08
9.5186628e-08
9.5240392e-08
9.2948598e-08
9.2992087e-08
9.3036851e-08
9.3084144e-08
9.3133564e-08
9.318565e-08
9.324044e-08
9.3298334e-08
9.3359156e-08
9.342303e-08
9.348995e-08
9.3559723e-08
9.3631896e-08
9.3705974e-08
9.3781385e-08
9.3857209e-08
9.3932433e-08
9.4006221e-08
9.4077612e-08
9.4145485e-08
9.4208831e-08
9.4266606e-08
9.4317956e-08
9.4362553e-08
9.4400262e-08
9.4430976e-08
9.4455048e-08
9.4473168e-08
9.4486412e-08
9.4495067e-08
9.4500992e-08
9.4505292e-08
9.4508793e-08
9.4512753e-08
9.4518313e-08
9.4525968e-08
9.4535967e-08
9.4549244e-08
9.456581e-08
9.4585051e-08
9.4607411e-08
9.4633919e-08
9.4662268e-08
9.4694178e-08
9.4727669e-08
9.4763717e-08
9.4801289e-08
9.4841047e-08
9.4877508e-08
9.290282e-08
9.2949367e-08
9.299745e-08
9.3048086e-08
9.3101188e-08
9.3157207e-08
9.3216226e-08
9.3278534e-08
9.3344057e-08
9.3412734e-08
9.3484606e-08
9.3559473e-08
9.3636786e-08
9.3715935e-08
9.3796298e-08
9.3876828e-08
9.3956334e-08
9.4033881e-08
9.4108426e-08
9.4178713e-08
9.4243596e-08
9.4301917e-08
9.4352722e-08
9.4395601e-08
9.4430282e-08
9.4456562e-08
9.4474875e-08
9.4485953e-08
9.4490617e-08
9.4490013e-08
9.4485239e-08
9.4477498e-08
9.4467989e-08
9.4458034e-08
9.444884e-08
9.4441144e-08
9.443543e-08
9.4432554e-08
9.4432727e-08
9.4435649e-08
9.4441675e-08
9.4451566e-08
9.4463663e-08
9.4479183e-08
9.4496623e-08
9.4516637e-08
9.4538358e-08
9.4562306e-08
9.45839e-08
9.2872867e-08
9.2922525e-08
9.2974014e-08
9.3028145e-08
9.3085085e-08
9.3145211e-08
9.3208645e-08
9.3275584e-08
9.3346032e-08
9.3419777e-08
9.3496886e-08
9.3577142e-08
9.3659907e-08
9.3744465e-08
9.3830131e-08
9.3915738e-08
9.3999931e-08
9.4081669e-08
9.4159819e-08
9.4232988e-08
9.4299902e-08
9.4359286e-08
9.4410091e-08
9.4451827e-08
9.4484111e-08
9.4506648e-08
9.4519944e-08
9.4524741e-08
9.4521878e-08
9.4512455e-08
9.4497778e-08
9.4479188e-08
9.4458003e-08
9.4435514e-08
9.4412986e-08
9.4391386e-08
9.4371423e-08
9.4353924e-08
9.4339285e-08
9.4327469e-08
9.431878e-08
9.4313785e-08
9.4311341e-08
9.4312283e-08
9.4315486e-08
9.4321359e-08
9.4329172e-08
9.4339318e-08
9.4347982e-08
9.2856632e-08
9.290949e-08
9.2964501e-08
9.3022298e-08
9.3083251e-08
9.314768e-08
9.3215737e-08
9.3287545e-08
9.3363162e-08
9.3442255e-08
9.3524901e-08
9.3610855e-08
9.3699395e-08
9.3789705e-08
9.3881029e-08
9.397208e-08
9.406135e-08
9.4147689e-08
9.422986e-08
9.430634e-08
9.4375723e-08
9.4436622e-08
9.4487893e-08
9.4528972e-08
9.4559376e-08
9.4578734e-08
9.4587604e-08
9.4586757e-08
9.4577016e-08
9.4559589e-08
9.4535868e-08
9.4507282e-08
9.4475286e-08
9.4441195e-08
9.440636e-08
9.4371954e-08
9.4338883e-08
9.4307974e-08
9.4279784e-08
9.4254498e-08
9.4232398e-08
9.4213912e-08
9.4198308e-08
9.4186137e-08
9.4176572e-08
9.4169838e-08
9.4165315e-08
9.4163287e-08
9.4160597e-08
9.2852554e-08
9.2908727e-08
9.2967403e-08
9.3029052e-08
9.3094216e-08
9.3163164e-08
9.3236073e-08
9.3313007e-08
9.339406e-08
9.3478797e-08
9.3567294e-08
9.365927e-08
9.3753922e-08
9.3850334e-08
9.3947675e-08
9.4044537e-08
9.4139267e-08
9.4230598e-08
9.4317184e-08
9.4397367e-08
9.4469618e-08
9.4532433e-08
9.4584574e-08
9.4625404e-08
9.4654358e-08
9.4670993e-08
9.4675912e-08
9.4669918e-08
9.4653844e-08
9.4628978e-08
9.4596812e-08
9.4558875e-08
9.4516756e-08
9.4471815e-08
9.4425493e-08
9.4379149e-08
9.4333869e-08
9.4290505e-08
9.4249757e-08
9.4212004e-08
9.4177528e-08
9.4146661e-08
9.4119002e-08
9.4094889e-08
9.4073732e-08
9.4055619e-08
9.4040021e-08
9.4027121e-08
9.4014332e-08
9.2859498e-08
9.2919127e-08
9.2981634e-08
9.3047342e-08
9.3116933e-08
9.3190638e-08
9.3268651e-08
9.3350986e-08
9.3437764e-08
9.3528459e-08
9.3623137e-08
9.3721476e-08
9.3822589e-08
9.3925465e-08
9.4029189e-08
9.4132232e-08
9.4232798e-08
9.4329501e-08
9.4420876e-08
9.4505133e-08
9.4580614e-08
9.4645704e-08
9.4699069e-08
9.4740001e-08
9.476786e-08
9.478214e-08
9.4783486e-08
9.4772735e-08
9.4750742e-08
9.4718878e-08
9.4678732e-08
9.4631937e-08
9.4580211e-08
9.452498e-08
9.4467785e-08
9.4410158e-08
9.4353352e-08
9.4298262e-08
9.4245723e-08
9.4196283e-08
9.4150239e-08
9.4107859e-08
9.4069016e-08
9.4033885e-08
9.400207e-08
9.3973553e-08
9.3947882e-08
9.392515e-08
9.3903265e-08
9.2876686e-08
9.2939935e-08
9.3006463e-08
9.3076453e-08
9.3150708e-08
9.3229427e-08
9.3312818e-08
9.3400852e-08
9.3493664e-08
9.3590651e-08
9.3691858e-08
9.3796915e-08
9.3904855e-08
9.4014569e-08
9.412505e-08
9.4234649e-08
9.4341427e-08
9.4443872e-08
9.4540398e-08
9.4629078e-08
9.4708127e-08
9.4775815e-08
9.4830717e-08
9.4872051e-08
9.4899111e-08
9.4911337e-08
9.4909408e-08
9.48942e-08
9.48666e-08
9.4828064e-08
9.4780277e-08
9.4724979e-08
9.4664018e-08
9.4598903e-08
9.4531283e-08
9.4462855e-08
9.4395028e-08
9.4328757e-08
9.4265004e-08
9.4204466e-08
9.4147469e-08
9.4094246e-08
9.4044891e-08
9.399946e-08
9.3957716e-08
9.3919558e-08
9.3884602e-08
9.3852858e-08
9.3822666e-08
9.2903635e-08
9.2970689e-08
9.3041449e-08
9.3115963e-08
9.3195141e-08
9.3279153e-08
9.3368217e-08
9.3462267e-08
9.3561445e-08
9.3665077e-08
9.377318e-08
9.3885331e-08
9.4000479e-08
9.4117417e-08
9.423504e-08
9.4351575e-08
9.4464942e-08
9.4573497e-08
9.4675525e-08
9.4768962e-08
9.4851895e-08
9.4922479e-08
9.4979196e-08
9.5021191e-08
9.5047699e-08
9.5058111e-08
9.505314e-08
9.5033703e-08
9.5000726e-08
9.4955749e-08
9.4900557e-08
9.4836998e-08
9.4767054e-08
9.4692331e-08
9.4614594e-08
9.4535699e-08
9.4457207e-08
9.4380142e-08
9.430559e-08
9.4234383e-08
9.4166886e-08
9.4103316e-08
9.4043951e-08
9.3988763e-08
9.3937642e-08
9.3890428e-08
9.3846792e-08
9.3806667e-08
9.376878e-08
9.2940118e-08
9.3011182e-08
9.3086406e-08
9.3165707e-08
9.3250086e-08
9.3339691e-08
9.3434747e-08
9.3535153e-08
9.3641052e-08
9.3751702e-08
9.3867088e-08
9.3986727e-08
9.4109482e-08
9.4234045e-08
9.4359207e-08
9.4483067e-08
9.4603402e-08
9.4718431e-08
9.4826305e-08
9.4924821e-08
9.5011936e-08
9.5085691e-08
9.5144473e-08
9.5187356e-08
9.5213518e-08
9.5222311e-08
9.5214477e-08
9.5190975e-08
9.5152781e-08
9.5101516e-08
9.5039067e-08
9.4967397e-08
9.4888621e-08
9.4804457e-08
9.4716794e-08
9.4627644e-08
9.4538713e-08
9.4451111e-08
9.4366037e-08
9.4284452e-08
9.4206767e-08
9.41332e-08
9.4064184e-08
9.3999631e-08
9.3939538e-08
9.3883701e-08
9.3831838e-08
9.3783811e-08
9.3738694e-08
9.2986134e-08
9.3061433e-08
9.3141376e-08
9.3225744e-08
9.3315625e-08
9.3411145e-08
9.3512535e-08
9.3619661e-08
9.3732658e-08
9.3850724e-08
9.39738e-08
9.4101341e-08
9.4232121e-08
9.4364726e-08
9.4497836e-08
9.4629418e-08
9.4757104e-08
9.4878972e-08
9.4993031e-08
9.5096939e-08
9.518852e-08
9.5265701e-08
9.5326774e-08
9.5370743e-08
9.5396733e-08
9.5404061e-08
9.5393498e-08
9.5366048e-08
9.5322738e-08
9.5265273e-08
9.5195644e-08
9.5115932e-08
9.5028391e-08
9.4934862e-08
9.4837366e-08
9.4738068e-08
9.463882e-08
9.4540821e-08
9.4445387e-08
9.4353597e-08
9.4265915e-08
9.4182573e-08
9.4104138e-08
9.4030482e-08
9.3961692e-08
9.3897531e-08
9.3837759e-08
9.3782172e-08
9.3730159e-08
9.304189e-08
9.3121669e-08
9.3206606e-08
9.3296345e-08
9.3392053e-08
9.3493834e-08
9.3601924e-08
9.3716156e-08
9.3836655e-08
9.3962557e-08
9.4093755e-08
9.4229634e-08
9.4368875e-08
9.4509955e-08
9.4651434e-08
9.4791146e-08
9.4926572e-08
9.5055643e-08
9.5176223e-08
9.5285826e-08
9.5382146e-08
9.5462991e-08
9.5526562e-08
9.5571792e-08
9.5597754e-08
9.560374e-08
9.5590545e-08
9.5559221e-08
9.5510849e-08
9.5447219e-08
9.5370425e-08
9.5282676e-08
9.5186368e-08
9.5083475e-08
9.4976157e-08
9.4866732e-08
9.4757195e-08
9.4648845e-08
9.4543111e-08
9.4441186e-08
9.4343592e-08
9.4250588e-08
9.4162857e-08
9.4080248e-08
9.4002925e-08
9.3930629e-08
9.3863158e-08
9.3800241e-08
9.3741564e-08
9.3107793e-08
9.3192318e-08
9.3282549e-08
9.3377983e-08
9.3479866e-08
9.3588279e-08
9.3703461e-08
9.3825213e-08
9.3953644e-08
9.4087827e-08
9.4227601e-08
9.4372276e-08
9.4520436e-08
9.4670441e-08
9.4820728e-08
9.4968986e-08
9.5112546e-08
9.5249184e-08
9.5376617e-08
9.5492212e-08
9.5593529e-08
9.5678263e-08
9.5744521e-08
9.5791164e-08
9.5817221e-08
9.5821959e-08
9.5806202e-08
9.5771044e-08
9.5717626e-08
9.564782e-08
9.556383e-08
9.5467995e-08
9.536286e-08
9.5250541e-08
9.5133343e-08
9.5013739e-08
9.4893865e-08
9.4775126e-08
9.4659064e-08
9.4546983e-08
9.4439471e-08
9.4336821e-08
9.423982e-08
9.4148306e-08
9.4062514e-08
9.3982168e-08
9.39071e-08
9.3836979e-08
9.3771768e-08
9.3184447e-08
9.3274006e-08
9.3369854e-08
9.3471334e-08
9.3579766e-08
9.369521e-08
9.3817904e-08
9.3947617e-08
9.4084436e-08
9.4227372e-08
9.4376203e-08
9.4530157e-08
9.4687714e-08
9.4847113e-08
9.5006657e-08
9.5163889e-08
9.5315981e-08
9.5460553e-08
9.5595165e-08
9.5717039e-08
9.5823603e-08
9.5912434e-08
9.5981551e-08
9.6029744e-08
9.6055996e-08
9.6059562e-08
9.6041284e-08
9.6002307e-08
9.5943827e-08
9.5867801e-08
9.5776545e-08
9.5672532e-08
9.5558465e-08
9.5436608e-08
9.5309418e-08
9.517952e-08
9.5049194e-08
9.4919955e-08
9.4793461e-08
9.4671124e-08
9.4553603e-08
9.4441236e-08
9.4334906e-08
9.4234451e-08
9.414017e-08
9.4051776e-08
9.3969136e-08
9.3891856e-08
9.382017e-08
9.3272664e-08
9.3367567e-08
9.3469384e-08
9.3577286e-08
9.3692669e-08
9.3815572e-08
9.3946227e-08
9.4084372e-08
9.4230067e-08
9.4382256e-08
9.4540651e-08
9.470439e-08
9.4871843e-08
9.5041122e-08
9.5210389e-08
9.5377031e-08
9.5538058e-08
9.5690926e-08
9.583304e-08
9.5961472e-08
9.6073517e-08
9.6166641e-08
9.6238772e-08
9.6288634e-08
9.6315166e-08
9.6317613e-08
9.6296841e-08
9.6254038e-08
9.6190458e-08
9.6108141e-08
9.6009518e-08
9.5897206e-08
9.5774066e-08
9.564252e-08
9.550518e-08
9.5364822e-08
9.5223872e-08
9.5083959e-08
9.4946858e-08
9.4814093e-08
9.4686398e-08
9.4564165e-08
9.4448366e-08
9.4338851e-08
9.4235976e-08
9.413945e-08
9.4049173e-08
9.3964691e-08
9.3886503e-08
9.3373473e-08
9.3474057e-08
9.3582223e-08
9.3696954e-08
9.3819723e-08
9.3950543e-08
9.4089643e-08
9.4236723e-08
9.4391811e-08
9.4553784e-08
9.4722277e-08
9.4896333e-08
9.5074204e-08
9.5253867e-08
9.5433331e-08
9.5609827e-08
9.5780193e-08
9.5941719e-08
9.6091647e-08
9.6226903e-08
9.634465e-08
9.6442246e-08
9.6517529e-08
9.6569162e-08
9.6596045e-08
9.6597414e-08
9.6574158e-08
9.6527507e-08
9.6458772e-08
9.6370075e-08
9.6263966e-08
9.6143211e-08
9.6010835e-08
9.586942e-08
9.5721735e-08
9.557071e-08
9.5418912e-08
9.5268094e-08
9.5120152e-08
9.4976719e-08
9.4838616e-08
9.4706295e-08
9.4580818e-08
9.4462053e-08
9.4350413e-08
9.4245609e-08
9.4147575e-08
9.4055793e-08
9.3971032e-08
9.3488148e-08
9.3594779e-08
9.3709706e-08
9.3831708e-08
9.3962331e-08
9.4101564e-08
9.4249625e-08
9.4406178e-08
9.4571212e-08
9.4743531e-08
9.4922686e-08
9.5107615e-08
9.5296446e-08
9.548701e-08
9.567716e-08
9.5863956e-08
9.6044064e-08
9.6214601e-08
9.6372644e-08
9.6514974e-08
9.6638626e-08
9.6740852e-08
9.681941e-08
9.68729e-08
9.6900187e-08
9.6900508e-08
9.6874768e-08
9.6824241e-08
9.6750286e-08
9.6655111e-08
9.6541388e-08
9.6412035e-08
9.6270245e-08
9.6118762e-08
9.5960512e-08
9.5798576e-08
9.5635665e-08
9.5473659e-08
9.5314581e-08
9.516018e-08
9.5011367e-08
9.4868668e-08
9.4733231e-08
9.4604951e-08
9.4484298e-08
9.4370989e-08
9.426499e-08
9.416572e-08
9.4074225e-08
9.3618234e-08
9.3731311e-08
9.3853451e-08
9.3983201e-08
9.4122187e-08
9.4270367e-08
9.442795e-08
9.4594552e-08
9.4770121e-08
9.495338e-08
9.514379e-08
9.5340172e-08
9.5540524e-08
9.5742521e-08
9.5943849e-08
9.6141391e-08
9.6331637e-08
9.6511524e-08
9.6677966e-08
9.6827599e-08
9.6957336e-08
9.7064329e-08
9.7146261e-08
9.7201676e-08
9.7229412e-08
9.7228702e-08
9.7200475e-08
9.7146038e-08
9.70668e-08
9.6965047e-08
9.6843582e-08
9.6705478e-08
9.6554095e-08
9.6392336e-08
9.6223282e-08
9.6050163e-08
9.5875834e-08
9.5702312e-08
9.5531749e-08
9.5366019e-08
9.5206134e-08
9.50527e-08
9.4906957e-08
9.4768836e-08
9.4638865e-08
9.4516772e-08
9.440256e-08
9.4295581e-08
9.4197174e-08
9.3765586e-08
9.3885546e-08
9.4015395e-08
9.4153418e-08
9.4301321e-08
9.445903e-08
9.4626737e-08
9.4804009e-08
9.4990742e-08
9.5185573e-08
9.5387859e-08
9.55963e-08
9.5808748e-08
9.6022717e-08
9.6235715e-08
9.6444444e-08
9.6645208e-08
9.6834765e-08
9.7009863e-08
9.7166999e-08
9.7302969e-08
9.7414837e-08
9.750022e-08
9.755761e-08
9.7585822e-08
9.7584097e-08
9.7553377e-08
9.7495002e-08
9.7410421e-08
9.7302004e-08
9.7172682e-08
9.7025687e-08
9.686454e-08
9.66923e-08
9.6512194e-08
9.6327598e-08
9.6141513e-08
9.59561e-08
9.5773653e-08
9.5596175e-08
9.542479e-08
9.52602e-08
9.5103733e-08
9.4955368e-08
9.4815691e-08
9.4684444e-08
9.4561672e-08
9.4446653e-08
9.434104e-08
9.3932422e-08
9.4059748e-08
9.4197854e-08
9.4344724e-08
9.4502153e-08
9.4670026e-08
9.4848512e-08
9.5037125e-08
9.5235696e-08
9.5442769e-08
9.5657587e-08
9.5878713e-08
9.6103846e-08
9.6330328e-08
9.655548e-08
9.6775817e-08
9.6987454e-08
9.7186968e-08
9.7370943e-08
9.7535742e-08
9.7678057e-08
9.7794873e-08
9.788375e-08
9.7943143e-08
9.7971848e-08
9.7969115e-08
9.7935902e-08
9.7873572e-08
9.7783609e-08
9.7668462e-08
9.7531195e-08
9.7375198e-08
9.720414e-08
9.7021225e-08
9.6829817e-08
9.6633433e-08
9.6435226e-08
9.6237508e-08