/*--------------------------------*- C++ -*----------------------------------*\
| =========                 |                                                 |
| \\      /  F ield         | OpenFOAM: The Open Source CFD Toolbox           |
|  \\    /   O peration     | Version:  v2006                                 |
|   \\  /    A nd           | Website:  www.openfoam.com                      |
|    \\/     M anipulation  |                                                 |
\*---------------------------------------------------------------------------*/
FoamFile
{
    version     2.0;
    format      ascii;
    class       volScalarField;
    location    "4000";
    object      omega;
}
// * * * * * * * * * * * * * * * * * * * * * * * * * * * * * * * * * * * * * //

dimensions      [0 0 -1 0 0 0 0];


internalField   nonuniform List<scalar> 
19765
(
15.852441
16.161929
16.975727
17.197549
17.553601
17.608083
18.161619
18.159779
18.65192
19.29383
19.32531
18.87098
18.732428
18.570366
18.087838
18.050881
18.339225
18.26395
17.823437
17.514253
17.395916
17.427038
17.339726
17.39721
17.502474
17.604697
17.765944
18.081632
18.246875
18.613765
19.185834
19.915087
20.193198
20.175624
20.541824
21.337863
21.679905
22.008484
22.834195
23.092056
22.683387
22.490885
22.808224
22.239492
22.470584
22.02811
21.953786
21.880214
21.921165
2.8841227
2.7981668
2.7544327
2.8087607
2.8362204
2.862805
2.8717036
2.9125598
2.9248687
2.9808362
3.0333574
3.0487769
3.0465799
3.0430087
3.015644
2.9875261
2.9890651
2.9898633
2.973737
2.9515213
2.9385668
2.948165
2.9595345
2.9671819
2.9980945
3.0665469
3.136695
3.2036938
3.2956045
3.3971453
3.4964221
3.5881564
3.6597602
3.767156
3.9119824
4.0406344
4.1339194
4.2564652
4.3574126
4.4038156
4.4785249
4.6162691
4.6761277
4.870196
4.9813576
5.3390614
5.7777313
6.2789376
6.6657024
1.0360285
1.0396401
1.0496779
1.0830056
1.1033774
1.1220357
1.132525
1.152318
1.1600236
1.1812985
1.2016486
1.210251
1.2118251
1.2143452
1.210818
1.2041578
1.2043135
1.206844
1.2056175
1.2028526
1.2055529
1.2155359
1.2243859
1.2305797
1.2435065
1.270449
1.3013091
1.332418
1.3724364
1.4172321
1.4625796
1.5066778
1.5436268
1.59024
1.6492628
1.7055455
1.7492274
1.8001283
1.8450068
1.8695357
1.8947477
1.9431371
1.9667681
2.0033828
2.0268527
2.0693983
2.1240042
2.191622
2.2583705
0.59586439
0.59652102
0.60183219
0.61572768
0.62654217
0.63767925
0.64612273
0.65740043
0.66405188
0.67491253
0.68563479
0.69239717
0.69656832
0.70122533
0.70364226
0.70397331
0.70669971
0.71149028
0.71466094
0.71653321
0.72142108
0.72862742
0.734362
0.73987464
0.74905309
0.76421741
0.78093209
0.79758052
0.81756283
0.83943341
0.861575
0.88344414
0.90279231
0.9257236
0.95367875
0.98108293
1.003579
1.0285936
1.0517245
1.0672381
1.0828681
1.1092918
1.1277984
1.1574144
1.1823167
1.2104896
1.2349548
1.2554917
1.2725881
0.45658764
0.45787437
0.46064863
0.46689352
0.47148875
0.47599346
0.47934477
0.4839644
0.48672336
0.49133057
0.49591761
0.49887471
0.50079333
0.50295326
0.50426899
0.50489926
0.50676911
0.50971472
0.51227994
0.51458419
0.51752376
0.52104838
0.52474047
0.52923297
0.53562816
0.54459616
0.55420109
0.56401975
0.57555929
0.58806469
0.6008067
0.61348651
0.62514382
0.6383492
0.65357423
0.66837075
0.68093265
0.69425827
0.70652721
0.71545272
0.72413703
0.73666118
0.74554022
0.75838191
0.76920656
0.78253082
0.7965469
0.80830402
0.81573198
0.37497797
0.37561555
0.37726102
0.38088651
0.38375529
0.38661574
0.3888573
0.39171493
0.3935672
0.39632565
0.39904338
0.40093132
0.40230678
0.40381833
0.40493879
0.40578001
0.40730263
0.40939383
0.41132991
0.41324586
0.41565008
0.41848397
0.42166411
0.42535667
0.43001502
0.43609206
0.44262484
0.44941299
0.45726244
0.46576094
0.47450504
0.48332999
0.49169953
0.50098273
0.5114595
0.52181279
0.53100433
0.54062098
0.54972684
0.5570688
0.56426509
0.57367574
0.58128163
0.59124306
0.60042141
0.61138699
0.62320922
0.6358979
0.64695475
0.33191171
0.33202382
0.33267728
0.33445743
0.33586234
0.33730492
0.33845975
0.33998811
0.34102057
0.34256906
0.34413148
0.34528786
0.34620671
0.34723211
0.34808914
0.34884458
0.35002158
0.35156714
0.35309513
0.35466916
0.35647065
0.35844947
0.3607524
0.36348482
0.36683293
0.37101875
0.37551769
0.38024857
0.38564763
0.39147617
0.39752085
0.40368349
0.40967165
0.41622464
0.42347592
0.43068696
0.43730199
0.44417876
0.45079267
0.45645111
0.46205528
0.46883718
0.47461431
0.48161081
0.48811388
0.49546846
0.50311748
0.51108132
0.51826765
0.30463331
0.30473643
0.30515997
0.30626107
0.30713725
0.30803599
0.30876562
0.30971512
0.31038161
0.3113538
0.31234288
0.31311551
0.31377245
0.31451025
0.31517681
0.31581746
0.31673017
0.31788514
0.31907181
0.32033948
0.32179052
0.32338821
0.32522956
0.32737862
0.32993232
0.33302338
0.33634506
0.33985819
0.34383131
0.34812282
0.35260392
0.35721408
0.36177171
0.36672413
0.37216198
0.37763734
0.38279469
0.38815502
0.39340235
0.39809352
0.40276703
0.40823732
0.41312265
0.41885842
0.42436953
0.43055102
0.43708475
0.44402513
0.45060352
0.28710392
0.28715309
0.28740103
0.28807998
0.28862858
0.28920005
0.28967808
0.29029982
0.29076167
0.29141941
0.29210063
0.29266784
0.2931829
0.29376366
0.29432092
0.29488379
0.29563106
0.29654599
0.29750495
0.29853879
0.29970193
0.30096484
0.3023981
0.3040585
0.30600219
0.30830313
0.31077549
0.31340224
0.31634983
0.31953025
0.32286652
0.32632043
0.32978034
0.33352042
0.33759431
0.34171997
0.34567684
0.3497831
0.35383807
0.35755902
0.36128274
0.36550003
0.36935355
0.37372124
0.37793259
0.38253005
0.38730309
0.39227069
0.39694666
0.27522837
0.27531553
0.27552263
0.27600725
0.2764069
0.27682268
0.27718146
0.27763512
0.27799364
0.27848192
0.27899288
0.27944383
0.27987465
0.28035874
0.28084238
0.28134529
0.28197778
0.28272977
0.28352675
0.28438935
0.28535164
0.28639331
0.28755601
0.28888312
0.29041253
0.2921876
0.29409144
0.29611738
0.29837574
0.30081155
0.30337688
0.30604811
0.30875266
0.31166943
0.31483663
0.31806979
0.32121916
0.32449264
0.32775828
0.3308214
0.33389886
0.33733209
0.34053751
0.34411682
0.34761675
0.35141753
0.35538487
0.35955519
0.36355511
0.26695049
0.26706515
0.26725562
0.26763193
0.26795377
0.26828907
0.26859067
0.26895851
0.26927021
0.26967189
0.27009563
0.27048994
0.27088092
0.27131555
0.2717602
0.27222777
0.27278797
0.27343455
0.27412061
0.27485892
0.27567072
0.2765414
0.2774956
0.27856621
0.27978153
0.28116693
0.28264686
0.28422013
0.28596106
0.28783502
0.28981266
0.29187955
0.29398844
0.29625756
0.29871282
0.30123055
0.30370975
0.30628721
0.3088732
0.3113328
0.31381038
0.31653099
0.31910067
0.32191935
0.32468014
0.32763461
0.3306885
0.33386271
0.33689357
0.26103539
0.26118931
0.26138937
0.26171504
0.26200429
0.26230459
0.26258503
0.26291322
0.26320884
0.26356896
0.26394985
0.26431912
0.26469399
0.26510497
0.26553056
0.26597888
0.26649422
0.26707235
0.26768288
0.26833334
0.26903692
0.26978333
0.27058643
0.27146958
0.27245475
0.27355724
0.27472714
0.27596606
0.27732612
0.27878638
0.28032939
0.28194681
0.28360707
0.28539103
0.28731814
0.28930434
0.29127899
0.29333589
0.29541326
0.2974143
0.2994364
0.30164039
0.30374645
0.30603799
0.30829793
0.31070708
0.31320038
0.31580171
0.31830234
0.25673287
0.25692028
0.25713628
0.25743947
0.25771897
0.25800855
0.25828771
0.2586031
0.25890114
0.25924734
0.25961338
0.25997855
0.26035407
0.26075982
0.26118161
0.26162397
0.26211478
0.26265086
0.26321173
0.26380107
0.26442653
0.26508025
0.26576935
0.26651018
0.26731988
0.26820737
0.26913953
0.27011931
0.2711844
0.27232325
0.27352579
0.27478694
0.27608545
0.27747764
0.27897871
0.28053138
0.2820866
0.28370935
0.2853563
0.2869574
0.28857962
0.29033465
0.29202374
0.29384454
0.29564243
0.29754314
0.29949883
0.30152608
0.30346696
0.25355527
0.25377553
0.25401288
0.25431154
0.2545953
0.25488877
0.25517837
0.25549683
0.25580815
0.25615686
0.25652477
0.2568986
0.25728535
0.25769779
0.25812627
0.25857254
0.2590535
0.25956634
0.26009668
0.26064532
0.26121603
0.26180206
0.26240625
0.26303998
0.2637162
0.26443984
0.26518893
0.26596713
0.26680341
0.26769246
0.26862792
0.26960638
0.27061432
0.27169298
0.27285572
0.27406394
0.27528336
0.27656003
0.27786339
0.27914204
0.28044216
0.2818446
0.28320454
0.28466451
0.28611194
0.28763819
0.28920823
0.29083772
0.29239912
0.25118807
0.25143753
0.25169731
0.25200134
0.25229716
0.25260301
0.25290994
0.25324122
0.25357261
0.25393438
0.25431513
0.25470626
0.25511178
0.25553952
0.2559826
0.25644059
0.25692274
0.2574263
0.25794054
0.25846401
0.25899756
0.25953479
0.26007563
0.26062786
0.26120094
0.26179711
0.26240193
0.26301967
0.26367445
0.2643636
0.26508155
0.26582685
0.26659332
0.26741296
0.26829781
0.26922206
0.2701618
0.27114966
0.27216398
0.27316681
0.27419024
0.27529189
0.27636611
0.27751475
0.27865532
0.27985287
0.28108075
0.28235071
0.28356208
0.24941144
0.24968842
0.24997168
0.25028769
0.25060069
0.25092444
0.25125321
0.25160372
0.25195972
0.2523416
0.25274255
0.25315706
0.25358684
0.25403622
0.25450003
0.25497599
0.25546793
0.25597285
0.25648217
0.25699261
0.25750273
0.25800601
0.25850032
0.25899076
0.25948388
0.25998006
0.26047
0.26095891
0.26146864
0.26199442
0.26253108
0.26308195
0.26364812
0.26425485
0.26491253
0.26560401
0.26631268
0.26706192
0.26783659
0.26860876
0.26940079
0.27025463
0.27109242
0.27198818
0.27288082
0.27381772
0.27477851
0.27577343
0.27672008
0.24807736
0.2483799
0.24868675
0.24901882
0.24935217
0.2496974
0.250051
0.25042506
0.25080889
0.25121586
0.25164234
0.25208477
0.25254313
0.25301917
0.25350867
0.25400783
0.25451644
0.25503109
0.25554438
0.25605143
0.25654894
0.25702998
0.25749084
0.25793461
0.25836536
0.25878213
0.25917927
0.25956346
0.25995527
0.26034204
0.26072372
0.26111169
0.26151124
0.26194086
0.26240908
0.26290503
0.26341756
0.26396367
0.26453318
0.26510587
0.26569748
0.2663384
0.2669713
0.26764967
0.26832801
0.26904036
0.26977071
0.270527
0.27124243
0.24707806
0.2474052
0.24773598
0.24808711
0.24844325
0.24881265
0.2491934
0.2495943
0.25000853
0.25044443
0.25090056
0.2513746
0.25186518
0.25237205
0.25289149
0.25341837
0.25394939
0.25448059
0.2550051
0.25551662
0.25601024
0.25647846
0.25691629
0.25732525
0.25770729
0.25806046
0.25838184
0.2586801
0.25897349
0.25923761
0.25948729
0.25974094
0.26000106
0.26028095
0.26058848
0.26091743
0.26126094
0.26163194
0.26202439
0.2624242
0.26284259
0.26330181
0.2637596
0.26425481
0.26475335
0.26527984
0.26582157
0.2663851
0.26691526
0.2463381
0.2466891
0.24704407
0.24741646
0.24779721
0.24819288
0.24860269
0.24903306
0.24947989
0.24994788
0.25043706
0.25094591
0.25147193
0.25201331
0.25256649
0.25312513
0.2536835
0.25423699
0.2547788
0.25530134
0.25579825
0.25626132
0.25668449
0.25706802
0.25741205
0.25771381
0.25797264
0.25819902
0.2584056
0.25856208
0.25870228
0.25884454
0.25898319
0.25913322
0.25930076
0.25948283
0.25967677
0.25989346
0.26013033
0.26037805
0.26064461
0.26094599
0.26125126
0.26158824
0.26193137
0.26229806
0.26267806
0.26307642
0.2634478
0.24580141
0.2461761
0.24655576
0.2469513
0.24735834
0.24778215
0.24822282
0.24868499
0.24916653
0.2496694
0.25019468
0.25074129
0.25130578
0.25188506
0.2524755
0.25306966
0.25365979
0.25424056
0.25480493
0.25534407
0.2558503
0.25631461
0.25672996
0.25709559
0.25741005
0.25766995
0.25787652
0.2580395
0.25815994
0.25823937
0.25828789
0.25832939
0.25835843
0.25839409
0.25843535
0.25848491
0.25854512
0.25862553
0.25872581
0.25884
0.25897356
0.25913784
0.25931043
0.25951108
0.25972068
0.25995143
0.26019498
0.26045532
0.26069491
0.24542758
0.24582606
0.24623104
0.2466514
0.24708628
0.24754001
0.24801328
0.24850944
0.24902775
0.24956815
0.25013237
0.25071958
0.25132549
0.25194592
0.25257701
0.25321027
0.25383622
0.25444874
0.25504032
0.25560093
0.25612168
0.25659261
0.25700585
0.25735967
0.25765132
0.25787686
0.25803894
0.25813659
0.25814483
0.2581639
0.25816292
0.25812212
0.25805896
0.25798399
0.25790693
0.25783746
0.25777932
0.25773955
0.25771905
0.25771448
0.25772966
0.25777261
0.25782757
0.25790827
0.25800054
0.25811267
0.25823776
0.25837876
0.25850473
0.24518636
0.24560906
0.24604023
0.24648704
0.24695136
0.24743677
0.24794446
0.24847679
0.24903404
0.24961454
0.25022052
0.25085116
0.25150145
0.25216625
0.25284131
0.25351715
0.25418277
0.25483117
0.2554542
0.25604066
0.25658046
0.25706269
0.2574786
0.25782564
0.25809992
0.25829703
0.25841992
0.25847564
0.25847692
0.25841807
0.25831057
0.25817021
0.25800805
0.25783362
0.25765654
0.25748366
0.25731982
0.25717145
0.25704136
0.25692878
0.2568366
0.25677048
0.25671981
0.25669385
0.25668222
0.25669028
0.25671229
0.25675036
0.25677893
0.24505562
0.24550323
0.2459616
0.24643651
0.2469319
0.24745085
0.24799487
0.24856559
0.24916403
0.24978728
0.25043782
0.2511148
0.25181249
0.25252489
0.25324727
0.25396917
0.25467816
0.25536636
0.25602481
0.25664113
0.25720404
0.25770167
0.25812438
0.25846882
0.25873015
0.25890347
0.25899262
0.25900399
0.25894197
0.25881804
0.25864375
0.25842944
0.25818611
0.25792341
0.25765183
0.2573808
0.25711736
0.25686773
0.25663617
0.25642387
0.25623306
0.25606757
0.2559208
0.25579862
0.25569356
0.25560878
0.2555394
0.25548677
0.2554299
0.24501895
0.24549239
0.24597917
0.24648388
0.24701212
0.24756653
0.24814895
0.24876039
0.24940241
0.25007113
0.25076916
0.25149548
0.25224371
0.25300703
0.25378013
0.25455157
0.25530763
0.2560394
0.25673704
0.25738698
0.25797675
0.25849345
0.25892656
0.25927193
0.25952394
0.25967721
0.2597361
0.25970735
0.259597
0.25941507
0.25917349
0.25888449
0.25856095
0.25821297
0.25785182
0.25748858
0.25713183
0.25678765
0.25646153
0.25615631
0.25587383
0.25561667
0.25538135
0.25517125
0.25498116
0.25481256
0.25466131
0.25452806
0.25439568
0.24506446
0.24556487
0.24608145
0.24661774
0.24718071
0.24777267
0.24839568
0.24905031
0.24973849
0.25045553
0.25120409
0.25198289
0.25278494
0.2536026
0.25442994
0.25525451
0.25606131
0.25684038
0.2575809
0.25826806
0.25888817
0.2594273
0.259874
0.26022335
0.26046902
0.26060517
0.26063667
0.26057056
0.26041275
0.26017446
0.25986887
0.25950918
0.25910947
0.25868028
0.25823373
0.2577825
0.25733668
0.25690251
0.2564866
0.25609326
0.25572417
0.255381
0.25506278
0.25477101
0.25450224
0.25425668
0.25403075
0.25382449
0.25362405
0.24518369
0.24571237
0.24626032
0.24683012
0.24742986
0.2480616
0.24872758
0.24942801
0.25016511
0.2509335
0.25173578
0.25257039
0.2534297
0.25430529
0.25519051
0.25607189
0.25693318
0.2577633
0.25855033
0.25927819
0.25993199
0.26049667
0.26095986
0.26131584
0.26155766
0.26167902
0.26168524
0.26158368
0.26138061
0.26108814
0.26072042
0.26029178
0.2598176
0.25930916
0.25877952
0.2582429
0.25771074
0.25718965
0.25668729
0.25620922
0.25575713
0.2553321
0.25493516
0.2545664
0.25422377
0.25390651
0.25361149
0.25333818
0.25307558
0.24537094
0.2459294
0.24651046
0.24711582
0.24775452
0.24842842
0.24913994
0.24988899
0.25067796
0.25150091
0.2523603
0.25325424
0.25417446
0.25511173
0.25605864
0.25700067
0.25792028
0.25880523
0.25964242
0.26041446
0.26110518
0.26169837
0.26218071
0.26254569
0.26278572
0.26289414
0.26287663
0.26274092
0.26249368
0.26214796
0.26171903
0.26122234
0.2606746
0.26008794
0.25947649
0.25885589
0.25823895
0.25763274
0.25704594
0.25648525
0.25595251
0.25544841
0.25497561
0.25453315
0.2541201
0.25373496
0.25337493
0.25303897
0.25271854
0.24562273
0.24621263
0.24682872
0.24747185
0.24815188
0.24887054
0.24963037
0.25043104
0.25127506
0.25215599
0.25307609
0.2540331
0.25501808
0.256021
0.2570336
0.25804028
0.25902219
0.25996586
0.26085691
0.26167659
0.26240741
0.26303199
0.26353597
0.26391206
0.26415208
0.26424899
0.26420881
0.26403969
0.26374882
0.26335018
0.26286019
0.2622955
0.26167418
0.26100936
0.2603163
0.25961207
0.25891078
0.25822013
0.25754977
0.25690748
0.25629532
0.25571377
0.25516686
0.25465284
0.25417166
0.25372126
0.25329912
0.2529037
0.25252865
0.24593743
0.24656064
0.24721386
0.24789712
0.24862106
0.24938725
0.25019838
0.2510539
0.2519564
0.25289895
0.25388361
0.25490766
0.25596152
0.25703428
0.2581168
0.25919232
0.26024068
0.26124707
0.26219577
0.2630666
0.26384071
0.26449947
0.26502748
0.26541661
0.26565812
0.26574463
0.26568247
0.26548023
0.26514569
0.26469384
0.26414227
0.26350891
0.26281321
0.26206945
0.26129409
0.26050563
0.2597195
0.25894411
0.2581901
0.25746624
0.25677492
0.25611654
0.25549627
0.2549118
0.25436379
0.25384973
0.25336733
0.25291457
0.25248706
0.24631505
0.24697358
0.24766624
0.2483922
0.2491628
0.24997952
0.25084518
0.25175902
0.25272367
0.25373177
0.25478509
0.25588044
0.25700754
0.2581546
0.2593115
0.2604603
0.26157945
0.26265272
0.26366298
0.26458855
0.26540916
0.26610487
0.26665921
0.26706319
0.2673075
0.26738444
0.26730064
0.26706517
0.26668647
0.26618059
0.26556634
0.26486298
0.26409142
0.26326718
0.26240803
0.26153393
0.2606616
0.25980032
0.25896168
0.25815542
0.25738431
0.25664883
0.25595511
0.2553004
0.25468599
0.25410897
0.25356729
0.2530584
0.25257975
0.24675701
0.24745308
0.24818768
0.2489591
0.24977937
0.25064986
0.25157352
0.25254942
0.25358019
0.25465803
0.2557844
0.25695561
0.25816062
0.25938671
0.26062274
0.2618495
0.26304398
0.26418849
0.26526437
0.26624838
0.26711875
0.2678542
0.26843713
0.26885765
0.2691059
0.26917388
0.2690685
0.26879934
0.2683756
0.2678144
0.26713584
0.26636059
0.26551105
0.26460413
0.26365899
0.26269706
0.26173643
0.2607873
0.25986226
0.25897198
0.2581197
0.25730605
0.25653797
0.25581245
0.25513128
0.25449126
0.25389047
0.25332591
0.25279668
0.2472661
0.24800213
0.24878138
0.24960126
0.25047442
0.2514022
0.25238762
0.25342961
0.25453076
0.25568286
0.256887
0.25813894
0.25942684
0.26073703
0.26205723
0.2633669
0.26464152
0.26586184
0.26700757
0.26805384
0.26897732
0.26975533
0.27036908
0.27080777
0.27106097
0.27112041
0.27099327
0.27068968
0.27021963
0.2696014
0.26885643
0.26800685
0.26707666
0.26608423
0.26505023
0.26399762
0.26294588
0.26190622
0.26089228
0.25991566
0.2589801
0.25808645
0.25724243
0.25644482
0.25569583
0.25499202
0.25433162
0.25371113
0.25313124
0.24784641
0.24862502
0.24945189
0.25032345
0.25125303
0.25224187
0.25329313
0.25440555
0.2555817
0.25681292
0.25809991
0.2594378
0.26081396
0.26221364
0.26362338
0.26502123
0.26638108
0.26768201
0.26890202
0.27001452
0.27099457
0.27181801
0.27246481
0.27292326
0.27318231
0.27323345
0.27308416
0.27274512
0.27222719
0.27154985
0.27073592
0.2698091
0.26879504
0.26771371
0.26658736
0.26544057
0.26429425
0.26316073
0.2620547
0.26098873
0.25996711
0.25899099
0.25806877
0.25719712
0.25637862
0.25560963
0.25488848
0.25421119
0.25358
0.24850335
0.24932739
0.25020511
0.25113187
0.25212166
0.25317569
0.25429718
0.25548476
0.25674088
0.25805647
0.25943177
0.26086126
0.2623314
0.26382636
0.26533138
0.26682302
0.26827348
0.26966008
0.27095901
0.2721419
0.27318208
0.27405388
0.274736
0.27521574
0.27548146
0.27552444
0.2753524
0.27497665
0.27440898
0.27367008
0.27278426
0.27177682
0.27067518
0.26950101
0.26827826
0.26703318
0.2657882
0.26455684
0.26335492
0.26219596
0.26108487
0.26002316
0.25901986
0.2580716
0.25718128
0.2563451
0.25556148
0.25482594
0.25414224
0.24924373
0.25011632
0.2510484
0.25203417
0.25308832
0.25421199
0.25540852
0.25667634
0.25801784
0.25942347
0.26089298
0.26242013
0.26399044
0.26558688
0.26719331
0.26878471
0.2703315
0.27180911
0.27319185
0.27444945
0.27555348
0.27647665
0.27719638
0.27769894
0.27797208
0.2780069
0.27781136
0.27739743
0.27677787
0.27597466
0.27501361
0.27392175
0.27272834
0.27145688
0.27013312
0.26878508
0.26743678
0.26610301
0.26480076
0.26354456
0.26233998
0.26118894
0.26010109
0.25907305
0.25810805
0.25720211
0.25635377
0.25555799
0.25482012
0.25007586
0.25100039
0.25199067
0.25303962
0.25416264
0.25536081
0.25663758
0.25799121
0.25942395
0.26092577
0.26249586
0.26412724
0.26580436
0.26750893
0.26922335
0.27092088
0.27257005
0.27414433
0.27561602
0.27695286
0.27812458
0.27910224
0.2798619
0.28038879
0.28067005
0.28069661
0.28047668
0.2800229
0.27934906
0.27847847
0.27743851
0.27625802
0.2749682
0.2735945
0.27216462
0.2707084
0.26925154
0.2678102
0.2664026
0.26504431
0.26374161
0.2624969
0.26132042
0.26020885
0.25916571
0.25818689
0.257271
0.25641246
0.25561824
0.25100974
0.25198993
0.25304263
0.2541593
0.25535612
0.25663411
0.2579968
0.25944228
0.26097263
0.26257731
0.26425492
0.26599759
0.26778871
0.26960858
0.27143802
0.27324848
0.27500649
0.27668342
0.27824945
0.27967027
0.28091366
0.28194902
0.28275097
0.28330372
0.28359375
0.28361184
0.28336648
0.28287103
0.2821403
0.28119897
0.28007608
0.27880234
0.27741105
0.27592971
0.27438808
0.27281794
0.27124674
0.2696921
0.26817353
0.26670769
0.26530163
0.26395828
0.26268851
0.26148906
0.26036375
0.25930837
0.25832161
0.2573973
0.25654414
0.25205733
0.25309725
0.25421699
0.25540638
0.2566824
0.25804602
0.25950085
0.26104477
0.2626797
0.2643945
0.26618713
0.26804878
0.26996163
0.27190451
0.27385653
0.2757872
0.2776609
0.27944679
0.28111283
0.28262257
0.28394178
0.28503812
0.28588478
0.2864649
0.2867643
0.28677367
0.28650173
0.28596259
0.28517215
0.28415647
0.2829463
0.28157436
0.28007612
0.27848131
0.27682183
0.27513152
0.27343966
0.2717654
0.27012964
0.26855016
0.26703485
0.26558726
0.26421886
0.26292655
0.26171443
0.26057819
0.25951664
0.25852294
0.25760769
0.25323282
0.25433698
0.25552886
0.25679645
0.25815764
0.25961327
0.26116705
0.26281665
0.26456374
0.2663966
0.26831241
0.27030137
0.27234433
0.27441853
0.27650123
0.27855985
0.28055652
0.28245804
0.28423005
0.28583384
0.28723316
0.28839384
0.28928766
0.28989665
0.290206
0.29020631
0.28990654
0.28932157
0.28846842
0.28737453
0.28607245
0.284597
0.28298598
0.28127145
0.27948759
0.27767036
0.27585096
0.27405016
0.27229032
0.27059043
0.2689593
0.26740114
0.2659281
0.26453726
0.26323304
0.26201105
0.26087022
0.25980301
0.25882211
0.25455309
0.25572645
0.25699614
0.25834802
0.25980093
0.26135562
0.26301587
0.26477908
0.26664667
0.26860624
0.27065413
0.27277944
0.27496158
0.27717605
0.27939811
0.28159297
0.28372032
0.28574449
0.28762868
0.28933187
0.29081568
0.29204415
0.29298759
0.29362694
0.29394678
0.29393762
0.29360868
0.29297565
0.29205661
0.29088045
0.28948157
0.28789702
0.28616706
0.2843262
0.28241099
0.28045959
0.27850518
0.27657026
0.27467873
0.27285089
0.27109656
0.26942072
0.26783622
0.26634039
0.26493802
0.26362462
0.26239929
0.26125371
0.2602029
0.25603822
0.25728631
0.25864011
0.26008303
0.26163496
0.26329652
0.26507155
0.26695713
0.26895439
0.27105014
0.27323984
0.27551133
0.27784246
0.28020683
0.28257756
0.28491745
0.28718364
0.28933784
0.29134068
0.29314876
0.29472154
0.29602127
0.29701678
0.29768796
0.29801878
0.2979997
0.2976402
0.29695677
0.29596856
0.29470589
0.29320511
0.29150564
0.28965032
0.2876762
0.28562225
0.28352887
0.28143133
0.27935396
0.2773223
0.27535809
0.27347228
0.27167073
0.26996709
0.26835897
0.26685158
0.26544039
0.26412468
0.26289528
0.26176982
0.25771208
0.25904111
0.26048609
0.26202761
0.26368672
0.26546385
0.26736288
0.26938055
0.27151759
0.27375998
0.27610212
0.27853049
0.28102123
0.28354587
0.28607521
0.28856949
0.2909831
0.293275
0.29540317
0.29732173
0.29898802
0.30036246
0.30141246
0.30211688
0.30245911
0.30242961
0.30203811
0.30130191
0.30024117
0.29888765
0.29727973
0.29545938
0.29347208
0.29135746
0.28915693
0.28691319
0.28466365
0.2824346
0.28025341
0.2781434
0.27611681
0.27418048
0.27234896
0.27062025
0.26899999
0.26748363
0.26607069
0.26475106
0.26354532
0.25960316
0.26102012
0.26256428
0.26421293
0.2659884
0.26789087
0.26992424
0.27208482
0.27437288
0.27677344
0.27927972
0.28187665
0.28453849
0.28723454
0.28993307
0.29259159
0.2951616
0.29759916
0.29985947
0.30189417
0.30365843
0.30511094
0.30621774
0.30695672
0.30731076
0.3072703
0.30684536
0.30605402
0.30491738
0.30346863
0.30174834
0.2998011
0.29767508
0.29541245
0.29305703
0.29065383
0.28824253
0.28585157
0.28351036
0.28124399
0.27906616
0.27698488
0.27501568
0.27315706
0.27141514
0.26978539
0.26826762
0.26685068
0.26555852
0.26174559
0.26325844
0.26491087
0.26667635
0.26857858
0.27061745
0.27279682
0.27511249
0.27756414
0.28013568
0.28281899
0.28559726
0.28844267
0.29132206
0.29420101
0.2970341
0.29976978
0.30236109
0.30476039
0.30691679
0.30878337
0.31031713
0.31148287
0.31225758
0.3126237
0.31257174
0.31211196
0.3112632
0.31004737
0.30849912
0.30666134
0.3045813
0.30230979
0.29989138
0.29737219
0.29479965
0.29221584
0.28965164
0.28713874
0.28470425
0.28236353
0.28012593
0.27800807
0.276009
0.27413543
0.27238285
0.2707514
0.26922876
0.26784283
0.26418043
0.26579831
0.26756948
0.2694629
0.27150381
0.2736917
0.27603032
0.27851485
0.28114424
0.2839011
0.28677574
0.28974939
0.29279189
0.2958674
0.29893859
0.30195694
0.30486774
0.3076209
0.3101659
0.31244933
0.31442222
0.31604008
0.31726661
0.31807801
0.3184564
0.31839238
0.31789646
0.31698817
0.31569008
0.31403834
0.31207827
0.3098598
0.30743609
0.30485385
0.30216145
0.29940879
0.29664072
0.29389083
0.29119342
0.28857789
0.2860615
0.28365505
0.28137643
0.27922534
0.27720911
0.27532337
0.27356865
0.27193129
0.27044384
0.26695769
0.26869116
0.27059319
0.27262738
0.2748207
0.27717211
0.27968516
0.28235426
0.28517744
0.28813578
0.2912177
0.29440221
0.29765648
0.30094174
0.30421751
0.30743204
0.31052737
0.31345024
0.31614723
0.31856249
0.32064517
0.32234945
0.32363815
0.32448689
0.32487757
0.32480095
0.32426779
0.32329817
0.32191515
0.32015645
0.3180699
0.31570788
0.31312544
0.3103711
0.30749543
0.30455112
0.3015861
0.29863712
0.29574141
0.29293092
0.29022497
0.28763603
0.28518331
0.28286728
0.28069598
0.27866517
0.27677587
0.27501293
0.27341443
0.27013919
0.27200054
0.27404756
0.27623745
0.27859909
0.28113078
0.28383575
0.28670743
0.28974268
0.29292073
0.29622782
0.29964027
0.30312227
0.30663176
0.31012487
0.31354648
0.31683536
0.31993515
0.32278963
0.32534066
0.32753569
0.32932788
0.33067948
0.33156573
0.3319685
0.3318788
0.3313076
0.33027538
0.32880544
0.32693719
0.32472096
0.32221104
0.31946368
0.31652887
0.31345953
0.31031151
0.30713633
0.30397428
0.30086583
0.29784567
0.29493539
0.29214925
0.28950799
0.28701296
0.28467307
0.28248429
0.28044836
0.27854835
0.27682904
0.27380287
0.27580651
0.2780151
0.28037815
0.28292667
0.28565809
0.28857517
0.2916701
0.29493826
0.29835666
0.30190888
0.30556814
0.30929512
0.31304408
0.31676745
0.32040665
0.32389723
0.32717992
0.330196
0.33288528
0.33519385
0.3370742
0.33848842
0.33941169
0.33982607
0.3397229
0.33911333
0.33801803
0.33646026
0.33448126
0.33213363
0.32947263
0.32655483
0.32343149
0.32015823
0.3167946
0.31339615
0.31000703
0.30667112
0.30342601
0.30029571
0.29729649
0.29445073
0.29176083
0.28923674
0.28687473
0.28467739
0.28262579
0.28077299
0.27804922
0.28021216
0.28260199
0.28515873
0.28791586
0.29086966
0.29402219
0.29736407
0.30088883
0.30457078
0.3083903
0.3123169
0.31630724
0.32031135
0.32427762
0.32814389
0.33184267
0.3353122
0.3384917
0.34131945
0.3437406
0.34570754
0.34718267
0.34814152
0.34856663
0.34844978
0.34780222
0.34664452
0.34499965
0.3429108
0.34043222
0.33761871
0.33452626
0.33120746
0.32772123
0.32413132
0.32049756
0.316868
0.31329004
0.30980431
0.30643746
0.30320801
0.30014033
0.29723818
0.29451282
0.29196102
0.28958664
0.28736835
0.28536935
0.28301064
0.28535319
0.2879478
0.29072265
0.29371406
0.29691675
0.30033177
0.30394775
0.30775583
0.31172707
0.315838
0.32005377
0.32432635
0.32860098
0.33282161
0.33692236
0.34083301
0.34448991
0.34783105
0.35079398
0.35332361
0.35537284
0.35690508
0.35789674
0.35833112
0.35820062
0.35751651
0.35629887
0.35457007
0.35237538
0.34976945
0.3468047
0.34353588
0.34001741
0.33631208
0.33248798
0.32860906
0.32472715
0.32089311
0.3171508
0.31352984
0.31005141
0.30674221
0.30360766
0.30066062
0.29789857
0.29532688
0.29292148
0.29075844
0.28886521
0.29141203
0.29424009
0.29726249
0.30051886
0.30400175
0.30771075
0.3116319
0.31575323
0.32004181
0.32446956
0.32899653
0.33356934
0.33812793
0.34261139
0.34695009
0.35107146
0.35491085
0.35840627
0.36149575
0.36412497
0.36624824
0.3678308
0.36885053
0.36929196
0.36914825
0.36843055
0.36715803
0.36535213
0.36306016
0.36033505
0.35722468
0.35378244
0.35006535
0.34614021
0.34207889
0.33794875
0.33380504
0.32970216
0.32568755
0.32179436
0.31804705
0.31447528
0.31108668
0.30789623
0.30490252
0.30211305
0.29950039
0.29715667
0.29585786
0.29863954
0.3017367
0.30504287
0.30860151
0.31240213
0.31644216
0.32070406
0.32517181
0.32980745
0.33457736
0.33943565
0.34432307
0.34917391
0.35392234
0.3584951
0.36281791
0.36682627
0.37045992
0.3736592
0.376372
0.37855522
0.38017692
0.38121721
0.38166235
0.38150647
0.3807604
0.37944187
0.37757111
0.37519709
0.37236778
0.36912457
0.36552023
0.36161484
0.35747821
0.35318448
0.34880327
0.34439286
0.34001137
0.33571036
0.33152728
0.32749059
0.32363347
0.31996626
0.31650648
0.313254
0.31021906
0.30737008
0.30482067
0.30433575
0.30739124
0.31080303
0.31443858
0.31834587
0.32250996
0.32692496
0.33156834
0.33641852
0.34143107
0.34656555
0.35176934
0.35697694
0.36211727
0.36712011
0.37190952
0.37641055
0.38056039
0.38430266
0.38758252
0.39035214
0.39257254
0.39421578
0.39526509
0.39570902
0.39554292
0.39477701
0.39342704
0.39151169
0.38908065
0.38617254
0.38282136
0.37908055
0.37501235
0.37068703
0.36617851
0.36155725
0.35688422
0.35222155
0.34762566
0.34313915
0.33879552
0.33463239
0.33066384
0.32691085
0.3233751
0.32007102
0.31696075
0.31418609
0.31481324
0.31819395
0.32198053
0.3260047
0.33031964
0.33490369
0.33974571
0.34481592
0.35008491
0.35549984
0.36101188
0.36656091
0.37207547
0.37748028
0.38270276
0.38766655
0.39229833
0.39653909
0.40033892
0.40365089
0.40643422
0.40865602
0.41029372
0.41133461
0.41177014
0.4115971
0.41082477
0.40946639
0.40753871
0.40509024
0.40214522
0.39873117
0.39490315
0.39072204
0.38625441
0.38157081
0.37674099
0.37182807
0.36689811
0.36201283
0.35722072
0.3525612
0.34807712
0.34378737
0.33971618
0.33586814
0.33226147
0.32885006
0.32581816
0.32810843
0.33188597
0.33613034
0.34062266
0.34542134
0.3504942
0.35582137
0.3613624
0.3670769
0.37290139
0.37877746
0.38463759
0.39040597
0.39600627
0.40136771
0.40641831
0.4110907
0.41533301
0.41910471
0.4223702
0.42509903
0.42726681
0.42885773
0.42986406
0.43028068
0.43010603
0.429348
0.42801701
0.42612714
0.42372309
0.42080961
0.4174115
0.41358359
0.40937897
0.40485565
0.40007719
0.39511069
0.39001958
0.38487292
0.37973708
0.37466704
0.36970901
0.36491371
0.36030594
0.35591407