/*--------------------------------*- C++ -*----------------------------------*\
| =========                 |                                                 |
| \\      /  F ield         | OpenFOAM: The Open Source CFD Toolbox           |
|  \\    /   O peration     | Version:  v2006                                 |
|   \\  /    A nd           | Website:  www.openfoam.com                      |
|    \\/     M anipulation  |                                                 |
\*---------------------------------------------------------------------------*/
FoamFile
{
    version     2.0;
    format      ascii;
    class       surfaceScalarField;
    location    "4000";
    object      phi;
}
// * * * * * * * * * * * * * * * * * * * * * * * * * * * * * * * * * * * * * //

dimensions      [1 0 -1 0 0 0 0];
oriented        oriented;


internalField   nonuniform List<scalar> 
39234
(
-0.00063015731
-6.2583158e-06
0.00063641563
-0.0006083576
-2.1799709e-05
-0.00055824712
-5.0110478e-05
-0.00051440799
-4.3839133e-05
-0.00047051137
-4.3896621e-05
-0.00043138832
-3.9123053e-05
-0.00038529553
-4.6092783e-05
-0.00034571706
-3.957847e-05
-0.00029949783
-4.6219236e-05
-0.00025263115
-4.686668e-05
-0.00020983685
-4.2794302e-05
-0.00016857969
-4.1257162e-05
-0.00012647037
-4.2109314e-05
-8.495083e-05
-4.1519542e-05
-4.2718445e-05
-4.2232385e-05
9.4498161e-07
-4.3663427e-05
4.5267243e-05
-4.4322262e-05
9.0915881e-05
-4.5648638e-05
0.00013823303
-4.7317145e-05
0.00018741324
-4.9180214e-05
0.00023755295
-5.013971e-05
0.00028655494
-4.900199e-05
0.00033655819
-5.0003255e-05
0.00038765484
-5.1096648e-05
0.00043496227
-4.730743e-05
0.00047581613
-4.0853857e-05
0.00051628772
-4.0471593e-05
0.00055669218
-4.0404464e-05
0.00059120005
-3.4507865e-05
0.00062355585
-3.2355801e-05
0.00065615841
-3.2602555e-05
0.00068999902
-3.3840611e-05
0.00072673338
-3.6734359e-05
0.00075305266
-2.6319283e-05
0.00077085853
-1.7805867e-05
0.00079266354
-2.1805013e-05
0.00082084118
-2.8177644e-05
0.0008409188
-2.0077617e-05
0.00086678197
-2.5863172e-05
0.00090412615
-3.7344182e-05
0.00093140375
-2.7277596e-05
0.00093940003
-7.9962813e-06
0.00096117929
-2.1779261e-05
0.0009567662
4.4130858e-06
0.00095992856
-3.1623594e-06
0.00094302651
1.690205e-05
0.00092137238
2.1654136e-05
0.0008954073
2.5965079e-05
1.9772373e-05
0.00087563493
-0.00059071841
-2.3167002e-05
0.0006076271
-0.00057116693
-4.1351189e-05
-0.00054809029
-7.3187116e-05
-0.0005221351
-6.9794325e-05
-0.00049503519
-7.0996538e-05
-0.00046755338
-6.6604854e-05
-0.00043940946
-7.4236705e-05
-0.00041068497
-6.8302959e-05
-0.00038071648
-7.6187726e-05
-0.00034861149
-7.8971669e-05
-0.00031490399
-7.6501811e-05
-0.00027960814
-7.6553006e-05
-0.00024202559
-7.9691864e-05
-0.00020241157
-8.1133569e-05
-0.00016059748
-8.4046471e-05
-0.00011553151
-8.8729399e-05
-6.7104685e-05
-9.2749086e-05
-1.6229332e-05
-9.6523991e-05
3.6983111e-05
-0.00010052959
9.2285031e-05
-0.00010448213
0.00014949236
-0.00010734704
0.00020831856
-0.00010782819
0.00026761926
-0.00010930396
0.00032670361
-0.00011018099
0.00038541944
-0.00010602327
0.00044328971
-9.8724124e-05
0.00049882457
-9.6006455e-05
0.00055146654
-9.3046429e-05
0.00060121149
-8.425282e-05
0.00064737945
-7.8523764e-05
0.00068964726
-7.4870363e-05
0.00072789234
-7.2085694e-05
0.00076173254
-7.0574558e-05
0.00079211422
-5.6700957e-05
0.00081986059
-4.5552239e-05
0.00084487293
-4.6817356e-05
0.00086700122
-5.0305928e-05
0.00088721853
-4.0294936e-05
0.000905467
-4.4111638e-05
0.00092096481
-5.2841991e-05
0.00093422532
-4.0538112e-05
0.00094739738
-2.1168338e-05
0.0009591375
-3.3519382e-05
0.000970498
-6.947409e-06
0.00098081246
-1.3476819e-05
0.00098959156
8.1229467e-06
0.00099697488
1.4270812e-05
0.001003034
1.9905971e-05
1.4177233e-05
0.0010086291
-0.00065523002
-3.832267e-05
0.00067038569
-0.00063661867
-5.9962534e-05
-0.00061518538
-9.4620413e-05
-0.00059220438
-9.2775322e-05
-0.00056808977
-9.5111148e-05
-0.00054313048
-9.156414e-05
-0.00051700881
-0.00010035838
-0.00048984539
-9.5466376e-05
-0.00046104827
-0.00010498485
-0.00043000485
-0.00011001509
-0.00039669534
-0.00010981132
-0.00036097103
-0.00011227732
-0.00032241674
-0.00011824615
-0.00028104806
-0.00012250225
-0.00023670229
-0.00012839225
-0.00018866017
-0.00013677152
-0.00013667011
-0.00014473915
-8.1258844e-05
-0.00015193526
-2.2649746e-05
-0.00015913869
3.8772384e-05
-0.00016590426
0.00010262813
-0.00017120279
0.00016851465
-0.00017371471
0.00023532661
-0.00017611591
0.0003022093
-0.00017706368
0.00036877496
-0.00017258893
0.00043445897
-0.00016440814
0.00049790384
-0.00015945132
0.00055843113
-0.00015357371
0.00061587807
-0.00014169977
0.00066944093
-0.00013208662
0.000718624
-0.00012405343
0.00076312876
-0.00011659045
0.00080279081
-0.00011023661
0.00083864275
-9.2552896e-05
0.00087095717
-7.7866665e-05
0.00089928639
-7.514657e-05
0.00092395719
-7.4976731e-05
0.00094618777
-6.2525515e-05
0.00096548069
-6.3404561e-05
0.00098186766
-6.9228955e-05
0.00099661943
-5.5289885e-05
0.0010101197
-3.4668616e-05
0.001020956
-4.4355712e-05
0.0010304884
-1.6479814e-05
0.0010378609
-2.0849288e-05
0.0010441295
1.854397e-06
0.0010491016
9.2987054e-06
0.0010534993
1.5508197e-05
1.0383339e-05
0.0010572932
-0.00068201121
-5.1727417e-05
0.00069541596
-0.00066769688
-7.4276871e-05
-0.00065227804
-0.00011003925
-0.00063528049
-0.00010977287
-0.00061685921
-0.00011353243
-0.00059693347
-0.00011148988
-0.00057534849
-0.00012194336
-0.00055186255
-0.00011895232
-0.00052617111
-0.00013067628
-0.00049770912
-0.00013847707
-0.0004662922
-0.00014122825
-0.00043167727
-0.00014689225
-0.00039349813
-0.00015642529
-0.0003516687
-0.00016433168
-0.00030599466
-0.00017406629
-0.00025596306
-0.00018680311
-0.00020142871
-0.0001992735
-0.00014279635
-0.00021056762
-8.0322162e-05
-0.00022161288
-1.444387e-05
-0.00023178256
5.4406619e-05
-0.00024005328
0.00012582282
-0.00024513092
0.00019865762
-0.00024895071
0.000271931
-0.00025033707
0.00034510535
-0.00024576328
0.00041747862
-0.00023678141
0.00048758646
-0.00022955917
0.00055454219
-0.00022052944
0.00061802679
-0.00020518437
0.00067716692
-0.00019122675
0.0007313789
-0.00017826541
0.0007803559
-0.00016556745
0.00082392751
-0.00015380822
0.00086305848
-0.00013168386
0.00089798928
-0.00011279747
0.0009282892
-0.00010544649
0.00095421826
-0.00010090579
0.00097701669
-8.532394e-05
0.00099629188
-8.2679759e-05
0.0010121574
-8.509444e-05
0.0010261491
-6.9281638e-05
0.001039248
-4.7767504e-05
0.0010502706
-5.5378285e-05
0.0010610633
-2.7272504e-05
0.0010706096
-3.0395633e-05
0.0010803697
-7.9056689e-06
0.0010900735
-4.0510606e-07
0.0011000379
5.5438232e-06
3.5257912e-07
0.0011100686
-0.00072824775
-6.4456587e-05
0.00074097692
-0.00071475985
-8.7764764e-05
-0.00070029676
-0.00012450234
-0.00068463956
-0.00012543007
-0.00066767514
-0.00013049685
-0.00064920105
-0.00012996397
-0.00062894138
-0.00014220303
-0.00060659463
-0.00014129907
-0.00058180283
-0.00015546807
-0.00055400358
-0.00016627632
-0.00052288388
-0.00017234796
-0.00048812185
-0.00018165427
-0.00044933597
-0.00019521117
-0.00040630521
-0.00020736244
-0.00035881335
-0.00022155815
-0.00030649369
-0.00023912278
-0.00024917269
-0.00025659449
-0.0001871038
-0.00027263651
-0.00012054833
-0.00028816834
-4.9904296e-05
-0.00030242659
2.4297508e-05
-0.00031425508
0.00010128036
-0.00032211377
0.00017989287
-0.00032756321
0.00025918482
-0.00032962902
0.00033842074
-0.00032499921
0.00041672275
-0.00031508341
0.00049267699
-0.0003055134
0.00056531995
-0.0002931724
0.00063413913
-0.00027400355
0.00069824851
-0.00025533613
0.00075703871
-0.0002370556
0.00081018129
-0.00021871003
0.00085752181
-0.00020114875
0.00089978503
-0.00017394708
0.00093716427
-0.00015017672
0.00096940443
-0.00013768665
0.00099685538
-0.00012835674
0.0010205947
-0.00010906325
0.0010405088
-0.00010259386
0.0010569242
-0.00010150984
0.0010711483
-8.3505789e-05
0.0010839963
-6.0615435e-05
0.00109476
-6.6141984e-05
0.0011050204
-3.7532942e-05
0.0011141042
-3.9479469e-05
0.0011229422
-1.6743649e-05
0.0011313315
-8.7943874e-06
0.0011394876
-2.6122704e-06
-7.7268894e-06
0.0011475671
-0.0007761101
-7.5388462e-05
0.00078704197
-0.00076448574
-9.9389125e-05
-0.00075176526
-0.00013722282
-0.00073775267
-0.00013944266
-0.00072224265
-0.00014600687
-0.0007049946
-0.00014721202
-0.00068564613
-0.0001615515
-0.00066391454
-0.00016303067
-0.00063936223
-0.00018002038
-0.00061147538
-0.00019416317
-0.00057992412
-0.00020389921
-0.00054433631
-0.00021724209
-0.00050429625
-0.00023525122
-0.00045954743
-0.00025211126
-0.00040984314
-0.00027126245
-0.00035482903
-0.00029413689
-0.00029435674
-0.00031706677
-0.00022866447
-0.00033832879
-0.00015805086
-0.00035878195
-8.2996454e-05
-0.000377481
-4.0692609e-06
-0.00039318228
7.8038458e-05
-0.00040422149
0.00016218052
-0.00041170527
0.00024728831
-0.00041473681
0.00033245744
-0.00041016834
0.0004166845
-0.00039931047
0.00049853912
-0.00038736803
0.00057696803
-0.00037160131
0.00065132571
-0.00034836124
0.00072070478
-0.0003247152
0.00078446208
-0.0003008129
0.00084223249
-0.00027648045
0.00089383615
-0.00025275241
0.00093985292
-0.00021996384
0.00098048184
-0.00019080563
0.0010155985
-0.00017280327
0.0010455641
-0.0001583224
0.0010713453
-0.00013484443
0.0010930113
-0.00012425982
0.0011109537
-0.00011945228
0.0011263132
-9.8865248e-05
0.0011399117
-7.4213964e-05
0.0011513943
-7.7624621e-05
0.0011621025
-4.824117e-05
0.0011717374
-4.9114339e-05
0.0011811995
-2.6205733e-05
0.001190599
-1.8193918e-05
0.0012000792
-1.2092452e-05
-1.7220773e-05
0.0012095731
-0.00083045101
-8.5769464e-05
0.00084083201
-0.00081938922
-0.00011045091
-0.00080722187
-0.00014939017
-0.00079378568
-0.00015287886
-0.00077880098
-0.00016099157
-0.00076197913
-0.00016403387
-0.00074289805
-0.00018063257
-0.00072124057
-0.00018468816
-0.00069651454
-0.00020474641
-0.0006682015
-0.00022247621
-0.00063592354
-0.00023617718
-0.00059925927
-0.00025390636
-0.00055775818
-0.00027675232
-0.00051111805
-0.00029875138
-0.00045905841
-0.0003233221
-0.00040123422
-0.00035196107
-0.0003375049
-0.0003807961
-0.00026807915
-0.00040775453
-0.00019325486
-0.00043360624
-0.00011352043
-0.00045721543
-2.9508103e-05
-0.0004771946
5.801096e-05
-0.00049174056
0.00014785249
-0.0005015468
0.00023885953
-0.00050574385
0.00033001735
-0.00050132616
0.000420213
-0.00048950611
0.00050798208
-0.00047513711
0.00059220018
-0.0004558194
0.00067211047
-0.00042827153
0.00074676566
-0.00039937039
0.00081548919
-0.00036953643
0.00087788434
-0.0003388756
0.00093375737
-0.00030862544
0.00098359661
-0.00026980308
0.001027581
-0.00023479004
0.0010656488
-0.00021087108
0.001098201
-0.00019087462
0.0011261675
-0.00016281092
0.001149702
-0.0001477943
0.0011692646
-0.00013901482
0.0011859652
-0.00011556593
0.001200602
-8.8850761e-05
0.0012129585
-8.9981133e-05
0.0012242992
-5.958186e-05
0.0012344258
-5.9240939e-05
0.0012441938
-3.5973672e-05
0.0012536965
-2.769662e-05
0.0012632068
-2.1602759e-05
-2.6837758e-05
0.0012728238
-0.0008879469
-9.5266549e-05
0.00089744398
-0.00087765486
-0.00012074296
-0.00086612466
-0.00016092036
-0.0008532022
-0.00016580132
-0.00083857824
-0.00017561554
-0.00082194454
-0.00018066757
-0.00080284463
-0.00019973249
-0.00078094712
-0.00020658567
-0.00075571672
-0.00022997681
-0.00072663382
-0.0002515591
-0.00069328871
-0.00026952229
-0.00065521954
-0.00029197553
-0.00061194133
-0.00032003053
-0.00056311672
-0.00034757599
-0.0005084361
-0.00037800271
-0.00044755131
-0.00041284586
-0.00038032824
-0.00044801918
-0.00030696212
-0.00048112065
-0.00022775915
-0.00051280921
-0.00014323156
-0.00054174302
-5.4059974e-05
-0.00056636619
3.8929515e-05
-0.00058473004
0.00013453829
-0.00059715558
0.00023153104
-0.00060273659
0.00032878096
-0.00059857609
0.00042507167
-0.00058579682
0.00051888831
-0.00056895375
0.00060902632
-0.00054595741
0.00069462932
-0.00051387453
0.0007747106
-0.00047945167
0.00084855482
-0.00044338065
0.00091572938
-0.00040605016
0.00097601614
-0.0003689122
0.0010298268
-0.00032361378
0.001077343
-0.00028230617
0.001118569
-0.00025209713
0.0011539198
-0.00022622539
0.0011842853
-0.00019317638
0.001209905
-0.00017341403
0.0012312728
-0.00016038259
0.0012494415
-0.00013373463
0.0012652157
-0.00010462505
0.0012785134
-0.0001032788
0.0012905259
-7.1594301e-05
0.0013011803
-6.9895331e-05
0.0013113065
-4.6099896e-05
0.0013210848
-3.7474974e-05
0.0013308313
-3.134927e-05
-3.665171e-05
0.0013406453
-0.00094987559
-0.00010435372
0.00095896276
-0.0009399183
-0.00013070025
-0.00092864848
-0.00017219018
-0.00091590018
-0.00017854962
-0.00090133192
-0.0001901838
-0.00088460659
-0.0001973929
-0.00086523935
-0.00021909973
-0.00084286778
-0.00022895724
-0.00081692299
-0.0002559216
-0.00078686904
-0.00028161305
-0.00075225703
-0.00030413429
-0.00071258514
-0.00033164742
-0.00066733468
-0.00036528099
-0.00061613093
-0.00039877974
-0.00055863379
-0.00043549985
-0.00049448845
-0.00047699121
-0.00042356189
-0.00051894573
-0.00034603683
-0.00055864571
-0.00026222576
-0.00059662028
-0.00017266095
-0.00063130784
-7.8061129e-05
-0.00066096601
2.0683714e-05
-0.00068347489
0.00012232284
-0.00069879471
0.00022554516
-0.00070595891
0.00032912503
-0.00070215596
0.00043174648
-0.00068841827
0.00053183736
-0.00066904463
0.00062811648
-0.00064223653
0.00071963429
-0.00060539234
0.00080535687
-0.00056517424
0.00088452839
-0.00052255218
0.00095668213
-0.0004782039
0.0010215803
-0.0004338104
0.0010795784
-0.00038161188
0.00113085
-0.00033357774
0.0011754383
-0.00029668539
0.0012137796
-0.00026456677
0.0012467495
-0.00022614627
0.0012746402
-0.00020130472
0.0012979855
-0.00018372787
0.0013178315
-0.00015358063
0.0013349817
-0.00012177519
0.001349431
-0.00011772818
0.0013623468
-8.4510054e-05
0.0013737123
-8.1260889e-05
0.0013843542
-5.6741766e-05
0.0013944725
-4.7593224e-05
0.0014043938
-4.1270641e-05
-4.6525444e-05
0.0014142676
-0.0010154643
-0.0001130105
0.0010241211
-0.0010058214
-0.00014034311
-0.00099475538
-0.00018325621
-0.0009820826
-0.00019122241
-0.00096744264
-0.00020482375
-0.00095047642
-0.00021435912
-0.00093067823
-0.00023889792
-0.0009076572
-0.00025197827
-0.00088081564
-0.00028276316
-0.00084959816
-0.00031283053
-0.00081351914
-0.00034021332
-0.00077203934
-0.00037312721
-0.00072460654
-0.0004127138
-0.00067081017
-0.00045257611
-0.00061028104
-0.00049602898
-0.00054265386
-0.00054461839
-0.0004677932
-0.0005938064
-0.00038587229
-0.00064056662
-0.00029721227
-0.0006852803
-0.00020236862
-0.00072615149
-0.00010210191
-0.00076123271
2.6394905e-06
-0.00078821629
0.00011055126
-0.00080670649
0.000220246
-0.00081565365
0.00033040148
-0.00081231143
0.00043960204
-0.00079761883
0.00054620888
-0.00077565147
0.00064885908
-0.00074488674
0.00074651218
-0.00070304544
0.00083808335
-0.00065674542
0.00092277219
-0.00060724102
0.0010000748
-0.00055550655
0.0010697291
-0.00050346471
0.0011320412
-0.0004439239
0.0011871834
-0.00038871995
0.0012352374
-0.00034473939
0.0012766541
-0.00030598355
0.0013122973
-0.00026178946
0.0013425142
-0.00023152154
0.0013678681
-0.00020908182
0.0013893902
-0.00017510276
0.0014078975
-0.00014028243
0.0014234596
-0.00013329028
0.0014372214
-9.8271936e-05
0.0014492304
-9.3269829e-05
0.0014603107
-6.7822102e-05
0.0014707028
-5.7985287e-05
0.0014807601
-5.1327934e-05
-5.6407107e-05
0.0014906417
-0.00108525
-0.00012143711
0.0010936766
-0.0010757396
-0.00014985352
-0.0010647145
-0.00019428131
-0.0010519635
-0.00020397338
-0.0010371048
-0.00021968242
-0.0010197531
-0.00023171081
-0.00099938271
-0.00025926836
-0.000975568
-0.00027579298
-0.00094768494
-0.00031064622
-0.00091515245
-0.00034536302
-0.00087744495
-0.00037792082
-0.0008339853
-0.00041658686
-0.00078418734
-0.00046251175
-0.00072760349
-0.00050915996
-0.00066383479
-0.00055979769
-0.00059250371
-0.00061594946
-0.00051346998
-0.00067284012
-0.00042689864
-0.00072713796
-0.00033312035
-0.00077905859
-0.00023271457
-0.00082655728
-0.00012648274
-0.00086746454
-1.5440846e-05
-0.00089925819
9.9051235e-05
-0.00092119857
0.00021553185
-0.00093213426
0.00033257369
-0.00092935328
0.00044866254
-0.00091370767
0.00056208676
-0.00088907569
0.00067139997
-0.00085419995
0.00077547207
-0.00080711754
0.00087316284
-0.00075443619
0.00096362539
-0.00069770357
0.0010463189
-0.00063820006
0.0011209586
-0.00057810439
0.0011878109
-0.00051077624
0.0012470453
-0.00044795433
0.0012987723
-0.00039646641
0.0013434614
-0.00035067262
0.0013819757
-0.00030030375
0.0014147053
-0.00026425114
0.0014422468
-0.00023662337
0.0014656378
-0.00019849373
0.0014857057
-0.00016035037
0.0015025747
-0.00015015925
0.0015173878
-0.000113085
0.0015302314
-0.00010611348
0.0015419387
-7.9529405e-05
0.0015527695
-6.8816023e-05
0.0015630923
-6.165077e-05
-6.641512e-05
0.0015731003
-0.0011591056
-0.00012967659
0.0011673451
-0.0011496736
-0.0001592855
-0.0011386245
-0.00020533046
-0.001125716
-0.00021688186
-0.0011105483
-0.00023485011
-0.0010927107
-0.00024954843
-0.0010716586
-0.00028032038
-0.001046931
-0.00030052064
-0.0010178781
-0.00033969911
-0.0009838898
-0.00037935131
-0.00094439973
-0.00041741089
-0.00089879265
-0.00046219394
-0.00084644758
-0.00051485682
-0.00078687925
-0.00056872829
-0.00071965866
-0.00062701828
-0.00064439409
-0.00069121404
-0.00056093835
-0.00075629586
-0.00046944954
-0.00081862678
-0.00037026936
-0.00087823877
-0.00026400339
-0.00093282325
-0.00015149725
-0.00097997068
-3.3831938e-05
-0.0010169235
8.7568627e-05
-0.0010425991
0.00021116356
-0.0010557292
0.00033542182
-0.0010536115
0.00045872728
-0.0010370131
0.00057928825
-0.0010096367
0.00069557022
-0.00097048192
0.00080635226
-0.00091789958
0.00091043422
-0.00085851814
0.001006919
-0.00079418832
0.0010952261
-0.00072650725
0.0011750456
-0.00065792384
0.0012466078
-0.0005823384
0.0013100804
-0.00051142698
0.0013656014
-0.0004519874
0.0014136568
-0.00039872798
0.0014551125
-0.0003417595
0.0014904027
-0.00029954134
0.001520155
-0.00026637565
0.0015454125
-0.00022375122
0.0015670218
-0.00018195966
0.0015851608
-0.00016829829
0.001600974
-0.00012889815
0.0016145903
-0.00011972985
0.0016268532
-9.1792225e-05
0.001638048
-8.0010813e-05
0.0016485623
-7.216514e-05
-7.6451446e-05
0.0016585986
-0.0012374094
-0.00013783328
0.0012455661
-0.0012279581
-0.00016873684
-0.0012167918
-0.00021649668
-0.0012036332
-0.00023004053
-0.0011880624
-0.00025042091
-0.0011696408
-0.00026796997
-0.0011478045
-0.00030215673
-0.001122053
-0.00032627208
-0.0010917111
-0.00037004111
-0.0010561354
-0.00041492697
-0.0010147165
-0.00045882977
-0.00096679967
-0.0005101108
-0.00091172781
-0.00056992868
-0.00084897658
-0.00063147951
-0.00077808593
-0.00069790893
-0.0006986485
-0.00077065147
-0.0006105087
-0.00084443566
-0.00051381855
-0.00091531692
-0.00040893206
-0.00098312526
-0.00029648292
-0.0010452724
-0.00017736361
-0.00109909
-5.2720338e-05
-0.0011415668
7.5952462e-05
-0.0011712719
0.00020702795
-0.0011868047
0.00033887044
-0.001185454
0.00046975829
-0.001167901
0.00059781318
-0.0011376915
0.00072140851
-0.0010940773
0.00083923091
-0.001035722
0.00095001614
-0.00096930338
0.0010528144
-0.00089698657
0.0011470049
-0.00082069777
0.0012322525
-0.00074317146
0.0013087569
-0.00065884276
0.001376685
-0.00057935503
0.0014361993
-0.00051150172
0.0014878055
-0.00045033426
0.0015323795
-0.00038633347
0.001570396
-0.0003375578
0.0016025161
-0.00029849578
0.0016297991
-0.00025103428
0.0016531108
-0.00020527136
0.0016726752
-0.00018786267
0.0016896471
-0.00014586999
0.0017041886
-0.00013427138
0.0017171581
-0.00010476175
0.0017288598
-9.171247e-05
0.0017396971
-8.300246e-05
-8.665129e-05
0.0017498969
-0.0013202676
-0.0001459546
0.0013283889
-0.0013107461
-0.00017825832
-0.001299407
-0.00022783574
-0.0012859349
-0.00024351268
-0.0012698903
-0.00026646549
-0.0012508058
-0.00028705442
-0.001228097
-0.00032486556
-0.0012012227
-0.00035314642
-0.0011694805
-0.00040178329
-0.0011321913
-0.00045221615
-0.0010887005
-0.00050232055
-0.0010383125
-0.00056049881
-0.00098033252
-0.00062790869
-0.00091419564
-0.00069761639
-0.00083940974
-0.00077269483
-0.00075555028
-0.00085451093
-0.00066245196
-0.00093753399
-0.00056026148
-0.0010175074
-0.00044934647
-0.0010940403
-0.00033037094
-0.0011642479
-0.00020427698
-0.0012251839
-7.2278798e-05
-0.001273565
6.4053594e-05
-0.0013076043
0.00020300207
-0.0013257532
0.00034282283
-0.0013252748
0.00048168445
-0.0013067626
0.00061761498
-0.0012736221
0.00074889073
-0.001225353
0.00087410295
-0.0011609342
0.0009919187
-0.0010871191
0.0011013319
-0.0010063998
0.001201679
-0.00092104491
0.001292598
-0.00083409045
0.0013742598
-0.00074050448
0.0014468305
-0.00065192579
0.0015104963
-0.0005751675
0.0015657824
-0.0005056204
0.0016135773
-0.00043412838
0.0016543971
-0.00037837756
0.001688937
-0.00033303572
0.0017182744
-0.00028037166
0.0017432993
-0.00023029619
0.0017642824
-0.00020884586
0.0017823927
-0.00016398023
0.0017978278
-0.00014970653
0.0018114634
-0.00011839731
0.0018236253
-0.00010387437
0.0018347346
-9.4111807e-05
-9.6946459e-05
0.0018450298
-0.0014080213
-0.00015410581
0.0014161725
-0.0013983659
-0.00018791374
-0.0013867896
-0.00023941208
-0.0013729363
-0.0002573659
-0.0013563456
-0.00028305626
-0.0013365191
-0.00030688092
-0.0013128502
-0.00034853437
-0.0012847546
-0.0003812421
-0.0012515013
-0.00043503653
-0.0012123721
-0.00049134535
-0.0011666649
-0.00054802779
-0.0011136411
-0.00061352258
-0.0010525664
-0.00068898336
-0.00098283369
-0.00076734914
-0.00090391721
-0.0008516113
-0.0008153739
-0.00094305424
-0.00071702749
-0.0010358804
-0.00060902006
-0.0011255148
-0.00049173415
-0.0012113262
-0.00036586627
-0.0012901158
-0.00023241099
-0.0013586392
-9.2653855e-05
-0.0014133221
5.175447e-05
-0.0014520126
0.00019899889
-0.0014729976
0.00034722297
-0.0014734989
0.00049448064
-0.0014540203
0.00063869955
-0.001417841
0.00077805374
-0.0013647072
0.00091103575
-0.0012939162
0.0010362395
-0.0012123229
0.0011525996
-0.0011227599
0.001259408
-0.0010278534
0.0013562755
-0.00093095788
0.0014433468
-0.0008275758
0.0015207889
-0.00072936791
0.001588811
-0.00064318964
0.001647961
-0.00056477036
0.0016991449
-0.00048531228
0.0017429206
-0.00042215328
0.0017800203
-0.00037013545
0.0018115457
-0.00031189705
0.001838413
-0.00025716343
0.0018609375
-0.0002313704
0.001880307
-0.00018334972
0.0018967517
-0.00016615121
0.0019111672
-0.00013281276
0.0019238991
-0.00011660631
0.001935386
-0.00010559872
-0.00010744711
0.0019458867
-0.001500894
-0.00016232847
0.0015091167
-0.0014910609
-0.00019774692
-0.0014791992
-0.00025127374
-0.0014649105
-0.00027165462
-0.0014477118
-0.00030025496
-0.0014270725
-0.00032752018
-0.0014023624
-0.00037324446
-0.0013729514
-0.00041065318
-0.0013380785
-0.00046990943
-0.001296983
-0.00053244079
-0.0012489132
-0.0005960976
-0.0011930856
-0.00066935024
-0.001128724
-0.00075334496
-0.001055177
-0.00084089607
-0.00097188413
-0.0009349042
-0.00087838205
-0.0010365563
-0.00077448261
-0.0011397798
-0.00066032376
-0.0012396737
-0.0005363043
-0.0013353456
-0.00040315558
-0.0014232645
-0.00026192775
-0.0014998671
-0.00011398165
-0.0015612682
3.8946222e-05
-0.0016049405
0.00019493796
-0.0016289893
0.00035201922
-0.0016305801
0.00050812382
-0.0016101249
0.00066107181
-0.001570789
0.0008089293
-0.0015125647
0.00095008596
-0.0014350729
0.0010830577
-0.0013452946
0.0012067162
-0.0012464183
0.0013203066
-0.0011414438
0.0014234106
-0.0010340619
0.0015161484
-0.00092031358
0.0015986877
-0.00081190723
0.0016712605
-0.00071576245
0.0017344379
-0.00062794781
0.0017891466
-0.00054002098
0.0018359872
-0.00046899384
0.0018757303
-0.00040987855
0.0019095047
-0.0003456714
0.0019382566
-0.00028591533
0.0019623472
-0.00025546108
0.0019829868
-0.00020398924
0.0020004401
-0.00018360459
0.0020156254
-0.000147998
0.0020289105
-0.0001298914
0.0020407528
-0.00011744106
-0.00011812029
0.002051426
-0.0015992296
-0.00017066937
0.0016075705
-0.0015891707
-0.00020780576
-0.0015769726
-0.00026347184
-0.0015621921
-0.00028643515
-0.0015443223
-0.00031812478
-0.0015227982
-0.00034904424
-0.001496964
-0.00039907868
-0.0014661414
-0.00044147579
-0.0014295373
-0.00050651351
-0.0013863456
-0.00057563247
-0.0013357621
-0.00064668115
-0.0012769558
-0.00072815654
-0.0012091066
-0.00082119414
-0.0011315167
-0.00091848594
-0.0010435889
-0.001022832
-0.00094483817
-0.001135307
-0.00083506353
-0.0012495545
-0.00071439922
-0.001360338
-0.00058326175
-0.0014664831
-0.00044241969
-0.0015641066
-0.00029298208
-0.0016493047
-0.00013638922
-0.0017178611
2.5531017e-05
-0.0017668608
0.00019075176
-0.0017942101
0.00035717482
-0.0017970032
0.00052260794
-0.001775558
0.00068475624
-0.0017329373
0.00084157186
-0.0016693803
0.00099133703
-0.001584838
0.0011324848
-0.0014864424
0.0012638202
-0.0013777538
0.0013845395
-0.001262163
0.0014941942
-0.0011437166
0.0015928816
-0.0010190009
0.0016807711
-0.00089979675
0.001758118
-0.00079310942
0.0018255196
-0.00069534939
0.0018839272
-0.00059842859
0.001933986
-0.00051905265
0.0019765083
-0.00045240083
0.0020126548
-0.00038181792
0.0020434048
-0.00031666525
0.0020691655
-0.00028122184
0.0020911734
-0.00022599717
0.0021097279
-0.00020215903
0.0021257717
-0.00016404182
0.0021396954
-0.00014381506
0.0021519761
-0.00012972183
-0.00012905163
0.0021629075
-0.0017033271
-0.00017916439
0.0017118221
-0.0016930039
-0.00021812896
-0.0016804258
-0.00027604991
-0.0016651031
-0.00030175782
-0.0016465035
-0.00033672443
-0.0016240257
-0.00037152207
-0.001596986
-0.00042611833
-0.0015646558
-0.00047380598
-0.0015262074
-0.00054496191
-0.0014807862
-0.00062105371
-0.0014275327
-0.00069993463
-0.0013655661
-0.00079012311
-0.0012940197
-0.00089274057
-0.001212147
-0.0010003586
-0.0011193121
-0.0011156669
-0.0010150071
-0.001239612
-0.00089901691
-0.0013655447
-0.00077147262
-0.0014878823
-0.00063280982
-0.0016051459
-0.00048383687
-0.0017130795
-0.00032572529
-0.0018074162
-0.00015999936
-0.001883587
1.1416063e-05
-0.0019382762
0.00018637846
-0.0019691725
0.00036265924
-0.001973284
0.00053793359
-0.0019508323
0.00070978418
-0.0019047879
0.00087604264
-0.0018356388
0.0010348786
-0.001743674
0.0011846371
-0.0016362009
0.0013240525
-0.0015171692
0.0014522694
-0.0013903799
0.001568808
-0.0012602551
0.0016737428
-0.0011239358
0.0017672459
-0.0009932998
0.001849596
-0.00087545953
0.0019214178
-0.00076717118
0.0019836903
-0.00066070114
0.002037105
-0.00057246733
0.0020825178
-0.00049781365
0.0021211248
-0.00042042492
0.0021539414
-0.00034948187
0.002181423
-0.00030870342
0.0022048356
-0.00024940971
0.0022245151
-0.00022183854
0.0022414319
-0.00018095861
0.0022560012
-0.00015838439
0.0022687219
-0.00014244257
-0.00014023532
0.0022799056
-0.0018135538
-0.0001878508
0.0018222402
-0.0018029261
-0.00022875662
-0.0017899232
-0.00028905286
-0.0017740066
-0.00031767436
-0.0017546169
-0.00035611419
-0.0017311142
-0.00039502472
-0.0017027852
-0.00045444738
-0.0016688478
-0.00050774335
-0.0016284374
-0.00058537233
-0.0015806475
-0.00066884354
-0.0015245608
-0.00075602137
-0.0014592435
-0.00085544045
-0.0013837795
-0.00096820456
-0.0012973713
-0.0010867669
-0.0011993423
-0.0012136958
-0.0010891599
-0.0013497944
-0.00096659415
-0.0014881105
-0.00083177333
-0.0016227031
-0.00068515362
-0.0017517656
-0.00052758577
-0.0018706474
-0.00036030759
-0.0019746944
-0.00018493211
-0.0020589625
-3.4875152e-06
-0.0021197208
0.00018176136
-0.0021544213
0.00036844869
-0.0021599713
0.00055410983
-0.0021364935
0.00073619714
-0.0020868752
0.00091241484
-0.0020118565
0.0010808144
-0.0019120736
0.0012396473
-0.0017950337
0.0013875733
-0.0016650953
0.0015236827
-0.0015264893
0.0016474627
-0.0013840351
0.0017589664
-0.0012354395
0.0018583687
-0.0010927021
0.0019459731
-0.00096306387
0.0020224341
-0.00084363224
0.0020887624
-0.00072702948
0.0021456982
-0.00062940305
0.0021941444
-0.00054625987
0.0022353369
-0.00046161741
0.0022703308
-0.00038447584
0.0022996311
-0.00033800373
0.0023245371
-0.00027431569
0.0023454226
-0.00024272405
0.0023632878
-0.00019882381
0.002378574
-0.00017367054
0.0023918031
-0.00015567167
-0.00015174026
0.002403308
-0.0019302681
-0.00019676063
0.0019391779
-0.0019193001
-0.00023972459
-0.0019058307
-0.00030252226
-0.0018892709
-0.00033423421
-0.0018690318
-0.00037635326
-0.0018444333
-0.00041962323
-0.0018147296
-0.0004841511
-0.0017790828
-0.00054339015
-0.0017365885
-0.00062786662
-0.0016862853
-0.00071914671
-0.0016271945
-0.00081511223
-0.0015583265
-0.0009243084
-0.0014787131
-0.0010478179
-0.001387503
-0.001177977
-0.0012839769
-0.0013172219
-0.0011675756
-0.0014661957
-0.0010380534
-0.0016176327
-0.00089553627
-0.0017652203
-0.00074050237
-0.0019067995
-0.00057384774
-0.002037302
-0.00039688036
-0.0021516618
-0.00021130683
-0.002244536
-1.9266892e-05
-0.0023117607
0.00017684648
-0.0023505347
0.00037452397
-0.0023576488
0.00057115171
-0.0023331212
0.00076404391
-0.0022797674
0.00095077007
-0.0021985826
0.0011292574
-0.002090561
0.0012976583
-0.0019634346
0.0014545534
-0.0018219904
0.0015989758
-0.0016709117
0.0017303779
-0.0015154373
0.0018487918
-0.0013538533
0.001954396
-0.0011983063
0.0020475191
-0.001056187
0.0021288478
-0.00092496093
0.0021994273
-0.000797609
0.0022600486
-0.00069002438
0.0023116647
-0.00059787595
0.0023555547
-0.00050550733
0.0023928168
-0.00042173797
0.0024240077
-0.00036919462
0.0024504635
-0.00030077152
0.0024725983
-0.00026485882
0.0024914448
-0.00021767036
0.0025074727
-0.00018969842
0.002521229
-0.00016942798
-0.00016357925
0.002533068
-0.0020538743
-0.00020592632
0.00206304
-0.0020425294
-0.0002510695
-0.0020285509
-0.00031650083
-0.0020112967
-0.00035148834
-0.0019901472
-0.00039750283
-0.001964379
-0.00044539145
-0.0019332117
-0.00051531838
-0.0018957485
-0.0005808533
-0.0018510426
-0.00067257256
-0.0017980739
-0.00077211535
-0.0017357992
-0.00087738694
-0.00166317
-0.00099693763
-0.0015791627
-0.0011318253
-0.0014828692
-0.0012742704
-0.0013735255
-0.0014265656
-0.0012505439
-0.0015891773
-0.0011136621
-0.0017545145
-0.00096300397
-0.0019158784
-0.00079907147
-0.002070732
-0.00062280874
-0.0022135648
-0.00043559822
-0.0023388723
-0.00023924573
-0.0024408885
-3.60085e-05
-0.002514998
0.00017158398
-0.0025581272
0.00038087034
-0.0025669352
0.00058908028
-0.0025413312
0.00079338091
-0.002484068
0.00099119931
-0.002396401
0.001180332