/*--------------------------------*- C++ -*----------------------------------*\
| =========                 |                                                 |
| \\      /  F ield         | OpenFOAM: The Open Source CFD Toolbox           |
|  \\    /   O peration     | Version:  v2006                                 |
|   \\  /    A nd           | Website:  www.openfoam.com                      |
|    \\/     M anipulation  |                                                 |
\*---------------------------------------------------------------------------*/
FoamFile
{
    version     2.0;
    format      ascii;
    class       volScalarField;
    location    "4000";
    object      pMean;
}
// * * * * * * * * * * * * * * * * * * * * * * * * * * * * * * * * * * * * * //

dimensions      [1 -1 -2 0 0 0 0];


internalField   nonuniform List<scalar> 
19765
(
1.0005017
1.0007863
1.0016116
1.002182
1.0027527
1.0031796
1.003698
1.0039953
1.0043912
1.0047196
1.0049472
1.0051229
1.0052702
1.0053537
1.0053886
1.0053927
1.0053642
1.0053003
1.0052006
1.0050645
1.0048885
1.0046751
1.0044426
1.0041673
1.0038321
1.0034815
1.0031765
1.0028281
1.0023922
1.0019959
1.0015801
1.0010782
1.0005112
0.99976591
0.99916026
0.99872576
0.9981713
0.99733981
0.99675593
0.99610612
0.99504952
0.99413631
0.9939711
0.9931559
0.99316648
0.99289181
0.99309531
0.99342247
0.99384662
1.0016349
1.0017835
1.0019759
1.0022113
1.0024626
1.0027069
1.0029632
1.0031812
1.0034089
1.0036374
1.0038343
1.0040001
1.0041542
1.004267
1.0043369
1.0043897
1.0044182
1.0044081
1.0043667
1.0042888
1.0041756
1.0040352
1.0038588
1.0036476
1.0034097
1.0031479
1.0028519
1.0025261
1.0021759
1.0017991
1.001398
1.0009768
1.000539
1.0000971
0.99965938
0.9992173
0.9987634
0.9983134
0.99789658
0.99750395
0.99715481
0.99686588
0.99659026
0.99635058
0.99617739
0.99602886
0.9959132
0.99580679
0.99569915
1.0015986
1.0017904
1.002009
1.0022285
1.0024472
1.0026543
1.0028579
1.0030349
1.0032096
1.003373
1.0035199
1.00365
1.0037675
1.0038598
1.0039238
1.003969
1.0039936
1.0039896
1.0039554
1.0038896
1.0037918
1.0036647
1.0035062
1.0033154
1.0030976
1.0028555
1.0025839
1.0022844
1.0019622
1.0016162
1.0012503
1.0008707
1.000484
1.0000955
0.99969941
0.99929843
0.99890377
0.99851772
0.99813992
0.99778263
0.99744878
0.99712219
0.99681194
0.99652447
0.99626302
0.99604877
0.99585919
0.99569612
0.99554561
1.0018147
1.0019416
1.0020723
1.0022123
1.0023565
1.0025012
1.0026468
1.0027816
1.002917
1.0030493
1.0031694
1.0032771
1.0033757
1.0034548
1.0035104
1.0035515
1.0035772
1.0035785
1.003553
1.0034993
1.0034182
1.0033145
1.0031849
1.0030263
1.0028433
1.0026401
1.0024118
1.0021584
1.0018855
1.0015936
1.0012858
1.000968
1.0006449
1.000322
0.99999419
0.99966438
0.99934324
0.99903476
0.99873401
0.99845341
0.99819698
0.99794703
0.99770011
0.99747708
0.99725672
0.99705316
0.9968459
0.99664215
0.99644276
1.0017405
1.001856
1.0019733
1.0020901
1.0022052
1.0023172
1.0024283
1.0025303
1.0026324
1.0027325
1.0028242
1.0029065
1.002982
1.0030434
1.0030862
1.0031171
1.0031359
1.003135
1.0031114
1.0030633
1.0029897
1.0028938
1.0027734
1.0026255
1.0024548
1.0022656
1.0020547
1.0018208
1.0015694
1.0013025
1.001022
1.000733
1.0004389
1.0001449
0.9998495
0.99955445
0.99926584
0.99898666
0.99871453
0.99845592
0.99821138
0.99797083
0.99773234
0.9975067
0.99728044
0.99706269
0.99684665
0.99663679
0.99643244
1.0017328
1.0018163
1.0019025
1.0019888
1.0020752
1.0021598
1.0022452
1.002324
1.0024038
1.0024826
1.0025548
1.0026196
1.002679
1.0027269
1.0027597
1.0027822
1.0027941
1.0027889
1.0027642
1.0027183
1.0026501
1.0025629
1.0024548
1.0023228
1.0021705
1.0020016
1.0018135
1.0016056
1.0013827
1.0011465
1.0008991
1.0006449
1.0003869
1.0001295
0.99987196
0.99961571
0.99936557
0.99912399
0.99888942
0.99866644
0.99845541
0.99824869
0.99804533
0.9978504
0.99765553
0.99746469
0.99727171
0.99707699
0.99688325
1.0016515
1.0017229
1.001796
1.0018672
1.0019371
1.0020045
1.0020722
1.0021343
1.002197
1.002259
1.0023156
1.0023661
1.0024121
1.0024487
1.0024728
1.002488
1.0024938
1.0024849
1.0024589
1.0024141
1.0023496
1.0022675
1.0021662
1.0020433
1.0019015
1.0017442
1.0015696
1.0013771
1.0011709
1.0009528
1.0007247
1.0004902
1.0002521
1.0000141
0.99977611
0.99953949
0.99930769
0.99908276
0.99886363
0.99865338
0.99845189
0.99825405
0.99805838
0.9978683
0.99767763
0.99748894
0.9972978
0.99710519
0.99691126
1.001592
1.0016475
1.0017053
1.0017615
1.0018169
1.0018702
1.0019241
1.0019732
1.0020231
1.0020722
1.0021168
1.0021562
1.0021916
1.002219
1.0022356
1.0022442
1.0022445
1.0022316
1.0022037
1.0021591
1.0020971
1.0020192
1.001924
1.0018098
1.0016786
1.0015332
1.0013722
1.0011954
1.0010065
1.0008071
1.000599
1.0003855
1.0001689
0.99995285
0.99973718
0.99952314
0.99931365
0.99911048
0.9989128
0.99872312
0.99854146
0.99836358
0.99818839
0.99801812
0.99784794
0.9976794
0.99750866
0.99733604
0.99716169
1.0015124
1.0015588
1.0016072
1.0016537
1.0016992
1.0017426
1.0017863
1.0018258
1.0018658
1.0019051
1.0019403
1.0019709
1.0019979
1.0020179
1.0020285
1.0020319
1.0020275
1.0020115
1.0019819
1.0019375
1.0018773
1.0018025
1.0017119
1.0016041
1.0014807
1.001344
1.0011931
1.0010278
1.0008515
1.0006655
1.0004716
1.0002726
1.0000706
0.99986868
0.99966701
0.99946671
0.99927013
0.99907887
0.99889231
0.99871242
0.99853914
0.99836937
0.99820184
0.99803842
0.99787504
0.99771289
0.99754879
0.99738286
0.99721482
1.0014427
1.00148
1.0015194
1.0015572
1.0015941
1.0016292
1.0016646
1.0016963
1.0017283
1.0017596
1.0017872
1.0018106
1.0018307
1.0018445
1.0018499
1.0018488
1.0018405
1.0018216
1.0017904
1.0017458
1.001687
1.0016148
1.0015281
1.0014259
1.0013094
1.0011807
1.0010389
1.0008842
1.0007194
1.0005459
1.0003653
1.0001802
0.99999243
0.99980478
0.99961755
0.99943178
0.99924956
0.99907236
0.99889966
0.9987332
0.99857306
0.99841658
0.99826266
0.99811289
0.99796372
0.99781611
0.99766719
0.99751697
0.99736526
1.0013689
1.0013999
1.0014329
1.0014642
1.0014947
1.0015235
1.0015524
1.0015781
1.0016039
1.0016287
1.0016503
1.001668
1.0016825
1.0016913
1.0016926
1.0016877
1.0016761
1.0016548
1.0016224
1.0015777
1.00152
1.0014499
1.0013665
1.001269
1.0011582
1.001036
1.0009018
1.0007558
1.0006005
1.0004372
1.0002673
1.0000932
0.99991656
0.99973983
0.99956338
0.99938821
0.99921612
0.99904846
0.99888483
0.99872671
0.99857421
0.99842523
0.99827865
0.99813601
0.99799411
0.99785385
0.99771269
0.99757061
0.99742713
1.0013013
1.0013266
1.0013537
1.0013794
1.0014045
1.0014279
1.0014514
1.0014719
1.0014925
1.0015121
1.0015286
1.0015415
1.0015514
1.0015559
1.0015537
1.0015456
1.0015313
1.0015079
1.0014744
1.0014296
1.0013728
1.0013046
1.0012241
1.0011306
1.0010249
1.0009086
1.0007812
1.0006429
1.0004961
1.000342
1.0001818
1.0000178
0.99985141
0.999685
0.99951893
0.99935416
0.99919236
0.99903481
0.99888114
0.99873275
0.99858983
0.99845055
0.9983139
0.99818136
0.99804999
0.99792065
0.99779102
0.99766107
0.99753041
1.0012347
1.0012556
1.0012782
1.0012996
1.0013202
1.0013394
1.0013585
1.0013749
1.0013913
1.0014065
1.0014188
1.0014278
1.0014338
1.0014349
1.0014297
1.0014191
1.0014024
1.0013774
1.0013429
1.0012981
1.0012422
1.0011757
1.0010977
1.0010078
1.0009066
1.0007953
1.0006738
1.0005424
1.000403
1.0002568
1.000105
0.99994967
0.9997921
0.99963444
0.99947706
0.99932089
0.99916745
0.99901792
0.99887199
0.99873094
0.99859497
0.99846258
0.99833278
0.99820707
0.9980827
0.99796056
0.99783854
0.99771664
0.99759433
1.0011727
1.0011898
1.0012084
1.0012259
1.0012428
1.0012583
1.0012737
1.0012867
1.0012994
1.001311
1.0013198
1.0013254
1.0013282
1.0013263
1.0013186
1.0013058
1.0012872
1.0012608
1.0012256
1.0011808
1.0011257
1.0010607
1.000985
1.0008983
1.0008011
1.0006945
1.0005784
1.000453
1.0003203
1.0001813
1.0000372
0.9998897
0.99974022
0.99959067
0.99944143
0.99929342
0.99914806
0.99900647
0.99886841
0.99873505
0.99860667
0.99848196
0.99836
0.99824227
0.99812621
0.99801271
0.99789981
0.99778756
0.99767546
1.0011133
1.0011273
1.0011427
1.0011571
1.0011708
1.0011833
1.0011957
1.0012057
1.0012154
1.0012238
1.0012297
1.0012325
1.0012326
1.0012282
1.0012184
1.0012037
1.0011835
1.001156
1.0011203
1.0010756
1.0010213
1.0009577
1.0008842
1.0008004
1.0007068
1.0006044
1.0004931
1.0003733
1.0002466
1.000114
0.99997675
0.9998364
0.99969418
0.99955188
0.99940991
0.99926915
0.99913092
0.99899626
0.99886496
0.99873814
0.99861607
0.99849763
0.99838195
0.99827053
0.99816094
0.99805411
0.99794821
0.99784334
0.99773894
1.0010576
1.001069
1.0010816
1.0010932
1.0011043
1.0011142
1.0011238
1.0011314
1.0011384
1.0011443
1.0011476
1.001148
1.0011457
1.0011393
1.0011277
1.0011114
1.0010899
1.0010615
1.0010254
1.0009808
1.0009273
1.0008651
1.0007936
1.0007124
1.0006222
1.0005236
1.0004168
1.000302
1.0001809
1.0000542
0.99992326
0.99978945
0.99965393
0.99951839
0.99938321
0.99924926
0.9991178
0.99898982
0.99886513
0.9987448
0.99862913
0.99851713
0.99840802
0.99830325
0.99820054
0.99810082
0.9980024
0.99790541
0.99780931
1.0010049
1.001014
1.0010242
1.0010336
1.0010424
1.0010501
1.0010574
1.0010628
1.0010676
1.0010712
1.0010724
1.0010708
1.0010665
1.0010582
1.0010452
1.0010276
1.0010049
1.0009758
1.0009394
1.0008951
1.0008424
1.0007815
1.0007119
1.0006332
1.0005461
1.0004511
1.0003483
1.0002382
1.0001222
1.000001
0.99987586
0.99974808
0.99961875
0.99948943
0.99936052
0.99923286
0.99910763
0.99898575
0.99886708
0.99875262
0.99864267
0.99853637
0.99843298
0.99833394
0.99823709
0.99814337
0.9980512
0.99796077
0.99787147
1.0009553
1.0009624
1.0009707
1.000978
1.0009848
1.0009906
1.000996
1.0009995
1.0010024
1.001004
1.0010033
1.0009999
1.0009939
1.0009842
1.0009698
1.0009511
1.0009276
1.0008979
1.0008614
1.0008174
1.0007655
1.0007059
1.000638
1.0005617
1.0004775
1.0003858
1.0002869
1.0001811
1.0000698
0.99995376
0.99983398
0.99971182
0.99958828
0.9994648
0.99934178
0.99922005
0.99910073
0.99898468
0.9988718
0.99876303
0.99865868
0.998558
0.9984603
0.99836698
0.99827601
0.99818832
0.99810243
0.99801855
0.99793608
1.0009084
1.0009139
1.0009204
1.000926
1.0009312
1.0009353
1.0009389
1.0009408
1.0009421
1.000942
1.0009397
1.0009348
1.0009273
1.0009162
1.0009008
1.0008812
1.0008569
1.0008268
1.0007902
1.0007466
1.0006956
1.0006372
1.000571
1.000497
1.0004155
1.000327
1.0002316
1.0001299
1.0000231
0.99991178
0.99979706
0.99968015
0.99956202
0.99944402
0.99932654
0.99921038
0.99909661
0.99898603
0.99887856
0.99877509
0.99867593
0.99858042
0.99848791
0.99839974
0.99831403
0.99823168
0.9981513
0.99807312
0.99799654
1.0008643
1.0008684
1.0008733
1.0008774
1.0008811
1.0008837
1.0008859
1.0008864
1.0008862
1.0008846
1.0008809
1.0008747
1.0008659
1.0008537
1.0008374
1.0008171
1.0007922
1.0007618
1.0007253
1.0006821
1.0006319
1.0005747
1.0005102
1.0004383
1.0003594
1.0002739
1.0001819
1.0000841
0.99998138
0.99987456
0.99976459
0.99965265
0.99953962
0.9994268
0.99931456
0.99920369
0.99909518
0.99898983
0.99888754
0.99878916
0.99869501
0.99860449
0.99851702
0.99843387
0.99835327
0.9982761
0.99820106
0.99812841
0.99805752
1.0008225
1.0008254
1.000829
1.0008319
1.0008342
1.0008356
1.0008364
1.0008357
1.0008342
1.0008314
1.0008264
1.0008191
1.0008092
1.0007961
1.000779
1.0007581
1.0007328
1.0007022
1.0006657
1.000623
1.0005737
1.0005178
1.0004549
1.000385
1.0003086
1.0002259
1.0001372
1.0000429
0.9999442
0.99984162
0.99973615
0.99962889
0.9995207
0.99941278
0.99930551
0.99919965
0.99909615
0.99899574
0.99889835
0.99880479
0.99871536
0.99862951
0.99854673
0.99846821
0.9983923
0.99831983
0.99824962
0.9981819
0.99811606
1.0007831
1.000785
1.0007874
1.0007891
1.0007903
1.0007905
1.0007903
1.0007885
1.0007858
1.0007819
1.0007759
1.0007675
1.0007568
1.0007428
1.0007251
1.0007037
1.000678
1.0006473
1.0006111
1.0005689
1.0005204
1.0004657
1.0004044
1.0003366
1.0002625
1.0001825
1.0000969
1.0000061
0.9999111
0.99981255
0.99971135
0.99960854
0.99950494
0.99940167
0.99929913
0.99919805
0.99909932
0.99900362
0.99891092
0.99882197
0.99873706
0.99865569
0.99857741
0.99850332
0.99843191
0.99836394
0.99829832
0.99823529
0.99817423
1.0007459
1.0007467
1.0007481
1.0007488
1.000749
1.0007483
1.000747
1.0007443
1.0007407
1.0007357
1.0007288
1.0007196
1.0007081
1.0006935
1.0006752
1.0006534
1.0006275
1.0005968
1.0005609
1.0005192
1.0004717
1.0004181
1.0003584
1.0002925
1.0002206
1.0001433
1.0000606
0.99997311
0.99988169
0.99978697
0.99968983
0.99959125
0.99949202
0.99939319
0.99929516
0.99919863
0.99910444
0.99901323
0.998925
0.99884043
0.99875979
0.99868267
0.99860861
0.99853867
0.99847142
0.99840761
0.99834618
0.99828741
0.99823065
1.0007105
1.0007106
1.0007111
1.0007109
1.0007102
1.0007087
1.0007065
1.0007029
1.0006985
1.0006927
1.000685
1.000675
1.0006628
1.0006476
1.000629
1.0006068
1.0005808
1.0005502
1.0005146
1.0004736
1.0004269
1.0003745
1.0003163
1.0002523
1.0001827
1.0001078
1.000028
0.99994362
0.99985561
0.99976456
0.99967129
0.99957674
0.99948168
0.99938708
0.99929335
0.99920116
0.99911131
0.9990244
0.99894043
0.99886004
0.9987835
0.99871041
0.99864039
0.99857439
0.99851111
0.99845123
0.99839377
0.998339
0.99828629
1.000677
1.0006763
1.0006761
1.0006751
1.0006737
1.0006714
1.0006684
1.0006641
1.0006589
1.0006524
1.000644
1.0006334
1.0006206
1.000605
1.000586
1.0005637
1.0005376
1.0005071
1.0004719
1.0004315
1.0003857
1.0003346
1.0002779
1.0002157
1.0001482
1.0000757
0.99999861
0.99991729
0.99983256
0.999745
0.99965543
0.99956474
0.99947365
0.99938311
0.99929349
0.99920544
0.99911973
0.99903692
0.998957
0.9988806
0.99880795
0.9987387
0.99867248
0.99861019
0.99855061
0.99849438
0.99844059
0.99838949
0.99834045
1.0006451
1.0006438
1.0006429
1.0006413
1.0006391
1.0006362
1.0006325
1.0006276
1.0006217
1.0006146
1.0006056
1.0005945
1.0005812
1.0005652
1.000546
1.0005236
1.0004975
1.0004672
1.0004324
1.0003927
1.0003478
1.0002979
1.0002427
1.0001822
1.0001168
1.0000467
0.99997225
0.99989384
0.99981224
0.99972804
0.99964201
0.99955501
0.99946773
0.99938105
0.99929535
0.99921127
0.99912952
0.99905061
0.99897458
0.99890198
0.99883303
0.99876743
0.99870483
0.99864606
0.99858998
0.9985372
0.99848686
0.9984392
0.9983936
1.0006147
1.0006129
1.0006114
1.0006092
1.0006065
1.0006029
1.0005987
1.0005932
1.0005868
1.0005791
1.0005696
1.000558
1.0005444
1.0005281
1.0005087
1.0004862
1.0004603
1.0004303
1.0003959
1.0003569
1.000313
1.0002642
1.0002105
1.0001518
1.0000884
1.0000206
0.99994862
0.999873
0.99979442
0.99971344
0.99963081
0.99954733
0.99946369
0.99938071
0.99929877
0.99921847
0.99914049
0.99906532
0.99899298
0.998924
0.99885858
0.99879643
0.99873725
0.9986818
0.99862901
0.99857944
0.9985323
0.99848781
0.99844536
1.0005857
1.0005834
1.0005814
1.0005787
1.0005755
1.0005714
1.0005667
1.0005607
1.0005538
1.0005456
1.0005357
1.0005238
1.0005099
1.0004934
1.0004739
1.0004515
1.0004256
1.0003959
1.0003621
1.0003238
1.0002809
1.0002333
1.000181
1.000124
1.0000626
0.99999697
0.99992747
0.99985455
0.99977887
0.99970098
0.9996216
0.99954151
0.99946134
0.9993819
0.99930355
0.99922687
0.99915249
0.99908088
0.99901206
0.99894653
0.99888446
0.9988256
0.99876967
0.99871735
0.99866767
0.99862113
0.99857699
0.99853547
0.99849596
1.0005579
1.0005553
1.0005528
1.0005497
1.000546
1.0005415
1.0005364
1.00053
1.0005227
1.0005141
1.0005039
1.0004917
1.0004775
1.0004609
1.0004414
1.000419
1.0003934
1.000364
1.0003307
1.0002932
1.0002512
1.0002049
1.000154
1.0000987
1.0000392
0.99997571
0.99990859
0.99983827
0.99976539
0.99969047
0.99961421
0.99953736
0.99946052
0.99938446
0.99930954
0.99923631
0.99916537
0.99909715
0.99903169
0.99896943
0.99891055
0.99885481
0.99880195
0.99875258
0.99870582
0.9986621
0.99862076
0.99858199
0.99854518
1.0005313
1.0005283
1.0005255
1.000522
1.0005179
1.0005131
1.0005076
1.0005009
1.0004932
1.0004843
1.0004738
1.0004614
1.0004471
1.0004304
1.0004109
1.0003887
1.0003633
1.0003344
1.0003017
1.0002649
1.0002239
1.0001788
1.0001293
1.0000756
1.000018
0.99995661
0.9998918
0.99982399
0.9997538
0.99968173
0.99960847
0.99953472
0.99946107
0.99938824
0.9993166
0.99924666
0.99917899
0.999114
0.99905173
0.99899259
0.99893673
0.99888395
0.99883399
0.99878741
0.9987434
0.99870235
0.99866362
0.99862742
0.99859314
1.0005057
1.0005025
1.0004993
1.0004955
1.0004912
1.000486
1.0004802
1.0004732
1.0004653
1.0004562
1.0004454
1.0004329
1.0004185
1.0004017
1.0003824
1.0003603
1.0003352
1.0003068
1.0002747
1.0002387
1.0001987
1.0001548
1.0001067
1.0000546
0.99999883
0.99993949
0.99987691
0.99981154
0.99974394
0.99967462
0.99960424
0.99953345
0.99946285
0.99939311
0.99932458
0.99925778
0.99919323
0.99913131
0.99907207
0.99901588
0.99896289
0.9989129
0.99886568
0.99882173
0.9987803
0.99874174
0.99870546
0.99867163
0.99863968
1.0004811
1.0004776
1.0004742
1.0004701
1.0004655
1.0004602
1.0004541
1.0004469
1.0004388
1.0004295
1.0004186
1.000406
1.0003915
1.0003748
1.0003556
1.0003338
1.000309
1.0002811
1.0002496
1.0002144
1.0001755
1.0001327
1.000086
1.0000356
0.99998155
0.9999242
0.99986379
0.99980076
0.99973566
0.99966899
0.99960136
0.99953342
0.99946573
0.99939894
0.99933338
0.99926956
0.99920797
0.99914896
0.99909259
0.99903921
0.99898893
0.99894158
0.99889695
0.99885547
0.99881647
0.99878024
0.99874625
0.99871465
0.99868486
1.0004573
1.0004537
1.00045
1.0004458
1.000441
1.0004354
1.0004292
1.0004218
1.0004136
1.0004041
1.0003931
1.0003805
1.000366
1.0003494
1.0003304
1.0003089
1.0002845
1.0002571
1.0002263
1.000192
1.000154
1.0001124
1.0000672
1.0000183
0.999966
0.99991058
0.99985228
0.99979153
0.99972884
0.99966471
0.99959973
0.99953451
0.9994696
0.99940561
0.99934289
0.9992819
0.99922311
0.99916687
0.99911321
0.99906247
0.99901475
0.99896989
0.99892769
0.99888854
0.99885181
0.99881776
0.99878589
0.99875635
0.99872856
1.0004343
1.0004305
1.0004268
1.0004224
1.0004174
1.0004117
1.0004053
1.0003979
1.0003895
1.00038
1.000369
1.0003564
1.000342
1.0003255
1.0003068
1.0002855
1.0002616
1.0002347
1.0002046
1.0001712
1.0001343
1.0000939
1.0000499
1.0000026
0.99995205
0.99989853
0.99984228
0.99978372
0.99972337
0.99966168
0.99959923
0.99953662
0.99947436
0.99941304
0.99935301
0.9992947
0.99923857
0.99918493
0.99913384
0.99908559
0.99904028
0.99899775
0.99895784
0.99892087
0.99888626
0.99885426
0.99882438
0.99879675
0.99877083
1.000412
1.0004082
1.0004043
1.0003998
1.0003948
1.000389
1.0003825
1.000375
1.0003666
1.000357
1.0003461
1.0003335
1.0003192
1.000303
1.0002845
1.0002636
1.0002402
1.0002139
1.0001845
1.0001519
1.000116
1.0000768
1.0000343
0.99998846
0.9999396
0.99988791
0.99983366
0.99977723
0.99971913
0.99965979
0.99959977
0.99953964
0.99947991
0.99942113
0.99936364
0.99930787
0.99925425
0.99920306
0.99915438
0.99910847
0.99906542
0.99902509
0.99898731
0.99895237
0.99891975
0.99888964
0.99886159
0.99883574
0.99881152
1.0003904
1.0003866
1.0003826
1.000378
1.0003729
1.0003671
1.0003606
1.0003531
1.0003447
1.0003351
1.0003242
1.0003118
1.0002977
1.0002817
1.0002635
1.0002431
1.0002201
1.0001944
1.0001658
1.0001341
1.0000993
1.0000612
1.00002
0.99997573
0.99992852
0.99987864
0.99982632
0.99977197
0.99971603
0.99965896
0.99960127
0.99954352
0.99948619
0.99942982
0.99937473
0.99932135
0.99927008
0.9992212
0.99917477
0.99913105
0.99909012
0.99905183
0.99901604
0.99898301
0.99895223
0.99892389
0.99889755
0.99887334
0.99885073
1.0003695
1.0003656
1.0003616
1.000357
1.0003519
1.0003461
1.0003396
1.0003321
1.0003237
1.0003143
1.0003035
1.0002912
1.0002773
1.0002616
1.0002437
1.0002237
1.0002013
1.0001763
1.0001484
1.0001176
1.0000838
1.000047
1.0000071
0.99996431
0.99991874
0.99987062
0.99982019
0.99976785
0.99971401
0.99965911
0.99960365
0.99954816
0.99949312
0.99943902
0.99938621
0.99933508
0.99928601
0.99923928
0.99919496
0.99915327
0.9991143
0.99907791
0.99904397
0.99901268
0.99898361
0.99895688
0.99893211
0.9989094
0.99888822
1.0003491
1.0003452
1.0003412
1.0003367
1.0003316
1.0003258
1.0003194
1.000312
1.0003037
1.0002943
1.0002837
1.0002716
1.0002579
1.0002425
1.0002251
1.0002055
1.0001837
1.0001593
1.0001323
1.0001024
1.0000696
1.000034
0.99999547
0.99995413
0.99991015
0.99986376
0.99981519
0.99976479
0.99971298
0.99966017
0.99960685
0.99955352
0.99950065
0.99944871
0.99939802
0.99934899
0.99930198
0.99925725
0.99921488
0.99917508
0.99913791
0.99910328
0.99907104
0.99904137
0.99901388
0.99898866
0.99896535
0.99894403
0.99892422
1.0003293
1.0003255
1.0003215
1.000317
1.000312
1.0003063
1.0002999
1.0002926
1.0002845
1.0002752
1.0002648
1.0002529
1.0002396
1.0002245
1.0002075
1.0001884
1.0001672
1.0001435
1.0001173
1.0000883
1.0000566
1.0000222
0.99998498
0.99994509
0.9999027
0.99985801
0.99981123
0.99976273
0.99971288
0.99966209
0.99961082
0.99955956
0.99950873
0.99945882
0.99941013
0.99936306
0.99931796
0.99927507
0.99923449
0.99919641
0.99916091
0.99912787
0.99909718
0.99906898
0.9990429
0.99901903
0.99899701
0.99897693
0.99895829
1.00031
1.0003063
1.0003024
1.000298
1.0002931
1.0002875
1.0002812
1.000274
1.000266
1.000257
1.0002468
1.0002352
1.0002221
1.0002074
1.0001909
1.0001724
1.0001517
1.0001288
1.0001033
1.0000754
1.0000447
1.0000115
0.99997558
0.99993714
0.99989631
0.99985328
0.99980827
0.99976161
0.99971367
0.99966482
0.99961552
0.99956622
0.99951734
0.99946933
0.99942251
0.99937726
0.9993339
0.99929271
0.99925376
0.99921725
0.99918325
0.99915166
0.99912238
0.99909552
0.99907075
0.99904814
0.99902735
0.99900844
0.99899095
1.0002913
1.0002877
1.0002839
1.0002796
1.0002748
1.0002693
1.0002632
1.0002562
1.0002484
1.0002396
1.0002296
1.0002183
1.0002056
1.0001913
1.0001752
1.0001573
1.0001373
1.000115
1.0000904
1.0000634
1.0000339
1.0000018
0.99996722
0.99993021
0.99989092
0.99984953
0.99980625
0.99976139
0.9997153
0.99966833
0.99962092
0.99957349
0.99952645
0.99948023
0.99943515
0.99939156
0.99934981
0.99931014
0.99927266
0.99923756
0.99920489
0.99917458
0.99914654
0.99912085
0.9990972
0.99907564
0.99905585
0.99903789
0.9990213
1.0002732
1.0002697
1.000266
1.0002618
1.0002571
1.0002518
1.0002458
1.000239
1.0002314
1.0002228
1.0002131
1.0002022
1.0001899
1.000176
1.0001604
1.000143
1.0001237
1.0001022
1.0000785
1.0000524
1.000024
0.99999308
0.99995982
0.99992423
0.99988647
0.9998467
0.99980512
0.99976202
0.99971773
0.99967259
0.99962699
0.99958135
0.99953605
0.99949151
0.99944803
0.99940598
0.99936567
0.99932737
0.9992912
0.99925732
0.99922583
0.99919665
0.9991697
0.99914506
0.99912246
0.99910191
0.99908313
0.99906616
0.99905056
1.0002555
1.0002522
1.0002486
1.0002446
1.00024
1.0002349
1.0002291
1.0002225
1.0002152
1.0002068
1.0001974
1.0001868
1.0001749
1.0001615
1.0001464
1.0001297
1.000111
1.0000903
1.0000674
1.0000423
1.000015
0.99998529
0.99995333
0.99991916
0.99988291
0.99984474
0.99980484
0.99976347
0.99972094
0.99967757
0.99963373
0.9995898
0.99954615
0.99950318
0.99946118
0.99942052
0.99938151
0.99934441
0.99930936
0.99927654
0.99924602
0.99921777
0.99919171
0.9991679
0.99914608
0.99912625
0.99910814
0.99909177
0.99907671
1.0002385
1.0002352
1.0002318
1.0002279
1.0002236
1.0002186
1.000213
1.0002067
1.0001995
1.0001915
1.0001824
1.0001722
1.0001607
1.0001477
1.0001332
1.0001171
1.0000991
1.0000792
1.0000572
1.0000331
1.0000068
0.99997836
0.9999477
0.99991495
0.9998802
0.99984362
0.99980537
0.99976571
0.99972491
0.99968326
0.99964112
0.99959884
0.99955676
0.99951526
0.99947463
0.99943522
0.99939736
0.99936129
0.99932718
0.99929522
0.99926551
0.99923803
0.99921272
0.99918965
0.99916859
0.99914955
0.99913227
0.99911676
0.99910261
1.0002219
1.0002188
1.0002156
1.0002119
1.0002077
1.0002029
1.0001975
1.0001914
1.0001846
1.0001768
1.0001681
1.0001582
1.0001472
1.0001347
1.0001208
1.0001052
1.000088
1.0000689
1.0000478
1.0000247
0.9999995
0.99997224
0.99994289
0.99991155
0.9998783
0.99984329
0.99980669
0.99976871
0.99972961
0.99968966
0.99964919
0.9996085
0.99956792
0.9995278
0.99948843
0.99945014
0.99941326
0.99937806
0.9993447
0.9993134
0.99928427
0.9992573
0.99923246
0.99920979
0.99918908
0.99917032
0.99915324
0.99913786
0.99912377
1.0002059
1.000203
1.0001999
1.0001963
1.0001923
1.0001878
1.0001826
1.0001768
1.0001702
1.0001628
1.0001544
1.0001449
1.0001343
1.0001224
1.000109
1.0000941
1.0000776
1.0000593
1.0000391
1.000017
0.99999294
0.99996688
0.99993885
0.99990891
0.99987715
0.99984372
0.99980875
0.99977244
0.99973504
0.99969677
0.99965793
0.99961879
0.99957966
0.99954085
0.99950264
0.99946536
0.99942932
0.99939481
0.99936201
0.99933115
0.99930239
0.99927576
0.99925127
0.99922899
0.99920876
0.99919058
0.99917423
0.99915968
0.99914658
1.0001904
1.0001877
1.0001847
1.0001814
1.0001775
1.0001732
1.0001683
1.0001627
1.0001564
1.0001493
1.0001413
1.0001322
1.0001221
1.0001107
1.0000979
1.0000837
1.0000679
1.0000504
1.0000312
1.0000101
0.9999871
0.99996225
0.99993553
0.999907
0.99987674
0.99984488
0.99981154
0.9997769
0.99974118
0.99970458
0.99966736
0.99962975
0.99959203
0.99955448
0.99951737
0.99948098
0.99944565
0.99941165
0.99937919
0.99934854
0.99931986
0.99929323
0.99926865
0.9992462
0.9992257
0.99920713
0.99919026
0.99917507
0.99916119
1.0001755
1.0001729
1.0001701
1.0001669
1.0001633
1.0001592
1.0001545
1.0001492
1.0001432
1.0001364
1.0001288
1.0001201
1.0001104
1.0000996
1.0000874
1.0000739
1.0000588
1.0000422
1.0000239
1.0000038
0.99998193
0.9999583
0.9999329
0.99990579
0.99987703
0.99984674
0.99981504
0.99978208
0.99974804
0.99971312
0.99967752
0.99964144
0.99960511
0.9995688
0.99953271
0.99949715
0.99946239
0.99942874
0.99939643
0.99936576
0.99933694
0.99931011
0.99928539
0.99926291
0.99924259
0.99922445
0.99920835
0.99919422
0.99918173
1.0001611
1.0001587
1.0001561
1.000153
1.0001496
1.0001457
1.0001412
1.0001362
1.0001305
1.000124
1.0001168
1.0001086
1.0000994
1.0000891
1.0000775
1.0000647
1.0000504
1.0000346
1.0000172
0.99999813
0.9999774
0.999955
0.99993091
0.99990522
0.99987796
0.99984926
0.99981921
0.99978794
0.99975563
0.99972241
0.99968846
0.99965393
0.99961902
0.99958394
0.99954886
0.99951404
0.99947976
0.99944629
0.99941391
0.99938291
0.99935357
0.99932605
0.99930045
0.9992769
0.99925531
0.99923563
0.9992177
0.9992015
0.99918665
1.0001474
1.0001451
1.0001426
1.0001397
1.0001364
1.0001327
1.0001285
1.0001237
1.0001183
1.0001122
1.0001053
1.0000975
1.0000888
1.0000791
1.0000682
1.000056
1.0000425
1.0000275
1.0000111
0.99999305
0.99997345
0.99995226
0.99992948
0.9999052
0.99987944
0.99985233
0.99982393
0.99979438
0.99976382
0.99973235
0.99970011
0.9996672
0.99963379
0.9996
0.99956599
0.99953192
0.99949806
0.99946466
0.99943201
0.99940046
0.99937035
0.99934196
0.99931558
0.99929148
0.99926976
0.99925056
0.99923381
0.99921943
0.99920717
1.0001341
1.0001319
1.0001295
1.0001268
1.0001237
1.0001202
1.0001162
1.0001116
1.0001065
1.0001008
1.0000943
1.000087
1.0000788
1.0000696
1.0000593
1.0000479
1.0000352
1.0000211
1.0000055
0.99998853
0.99997005
0.99995009
0.99992866
0.99990582
0.99988159
0.99985607
0.99982933
0.99980148
0.99977267
0.99974294
0.99971243
0.9996812
0.99964935
0.99961695
0.99958407
0.99955083
0.99951743
0.99948409
0.99945105
0.99941867
0.99938729
0.99935721
0.9993287
0.999302
0.99927717
0.99925425
0.99923313
0.99921385
0.99919607
1.0001215
1.0001194
1.0001171
1.0001144
1.0001114
1.0001081
1.0001043
1.0001
1.0000952
1.0000898
1.0000837
1.0000769
1.0000692
1.0000607
1.000051
1.0000403
1.0000284
1.0000151
1.0000006
0.99998462
0.99996731
0.99994864
0.9999286
0.99990726
0.99988461
0.99986077
0.99983575
0.9998097
0.9997827
0.99975479
0.99972608
0.99969658
0.99966634
0.99963534
0.99960361
0.9995712
0.99953824
0.99950488
0.99947136
0.99943803
0.99940531
0.99937367
0.99934362
0.99931574
0.99929049
0.99926829
0.99924936
0.99923366
0.9992211
1.0001092
1.0001072
1.0001049
1.0001024
1.0000996
1.0000964
1.0000928
1.0000888
1.0000843
1.0000792
1.0000735
1.0000672
1.0000601
1.0000521
1.0000432
1.0000332
1.0000221
1.0000097
0.99999608
0.99998115
0.99996496
0.99994748
0.99992873
0.99990875
0.99988759
0.99986543
0.99984222
0.99981813
0.9997932
0.99976745
0.99974085
0.99971347
0.99968523
0.99965602
0.99962579
0.99959449
0.99956214
0.99952878
0.99949457
0.99945975
0.99942471
0.99938984
0.99935561
0.99932244
0.9992906
0.99926034
0.99923172
0.99920504
0.99918002
1.0000977
1.0000957
1.0000934
1.0000909
1.0000881
1.0000849
1.0000815
1.0000777
1.0000735
1.0000688
1.0000636
1.0000579
1.0000514
1.000044
1.0000358
1.0000265
1.0000161
1.0000045
0.99999161
0.99997757
0.99996232
0.99994585
0.99992817
0.99990935
0.99988944
0.99986867
0.99984697
0.99982455
0.99980145
0.9997776
0.99975326
0.99972817
0.99970233
0.9996755
0.99964757
0.99961832
0.99958764
0.99955538
0.99952154
0.99948622
0.99944975
0.99941263
0.99937567
0.99934001
0.99930692
0.99927763
0.99925322
0.99923405
0.99922042
1.0000861
1.0000839
1.0000816
1.0000791
1.0000765
1.0000736
1.0000705
1.0000671
1.0000634
1.0000592
1.0000545
1.0000493
1.0000433
1.0000365
1.0000289
1.0000202
1.0000105
0.99999974
0.99998785
0.99997492
0.99996095
0.99994593
0.99992991
0.99991294
0.9998949
0.99987577
0.99985551
0.99983459
0.99981274
0.99978973
0.99976724
0.9997436
0.99971934
0.99969396
0.99966765
0.99963985
0.99961054
0.99957922
0.99954584
0.99951012
0.99947223
0.99943215
0.99939009
0.99934614
0.99930071
0.99925409
0.9992071
0.99916023
0.99911561
1.0000758
1.0000737
1.0000714
1.0000689
1.0000662
1.0000633
1.0000602
1.0000568
1.0000532
1.0000493
1.0000449
1.0000401
1.0000347
1.0000288
1.0000222
1.0000148
1.0000065
0.99999722
0.99998671
0.99997541
0.99996352
0.99995084
0.99993744
0.9999233
0.99990826
0.9998922
0.99987505
0.99985752
0.99983882
0.99981976
0.99979977
0.99977929
0.99975722
0.99973392
0.99970919
0.99968267
0.99965417
0.99962294
0.99958877
0.99955076
0.99950919
0.99946366
0.99941553
0.99936625
0.99931853
0.99927505
0.99924032
0.9992142
0.99920265
1.0000645
1.0000609
1.0000576
1.0000543
1.0000512
1.0000484
1.0000457
1.0000431
1.0000403
1.0000373
1.0000339
1.0000302
1.0000261
1.0000215
1.000016
1.0000097
1.0000022
0.99999307
0.99998251
0.99997138
0.99995971
0.99994703
0.99993336
0.99991874
0.99990354
0.99988834
0.99987298
0.99985792
0.99984242
0.99983156
0.99981289
0.99979959
0.99978247
0.99976704
0.99974858
0.99972997
0.9997082
0.99968484
0.99965745
0.99962676
0.99959037
0.99954801
0.99949487
0.99943263
0.99935766
0.99926744
0.99916234
0.99904137
0.99891897
1.0000525
1.00005
1.0000478
1.0000466
1.0000456
1.0000446
1.0000433
1.0000417
1.0000397
1.0000372
1.0000341
1.0000302
1.0000251
1.0000189
1.0000115
1.0000026
0.99999223