/*--------------------------------*- C++ -*----------------------------------*\
| =========                 |                                                 |
| \\      /  F ield         | OpenFOAM: The Open Source CFD Toolbox           |
|  \\    /   O peration     | Version:  v2006                                 |
|   \\  /    A nd           | Website:  www.openfoam.com                      |
|    \\/     M anipulation  |                                                 |
\*---------------------------------------------------------------------------*/
FoamFile
{
    version     2.0;
    format      ascii;
    class       volScalarField;
    location    "4000";
    object      TMean;
}
// * * * * * * * * * * * * * * * * * * * * * * * * * * * * * * * * * * * * * //

dimensions      [0 0 0 1 0 0 0];


internalField   nonuniform List<scalar> 
19765
(
1.0002259
1.0002825
1.0004239
1.000573
1.0006997
1.0008131
1.000924
1.001019
1.0011042
1.0011847
1.0012505
1.0012992
1.0013356
1.0013614
1.0013763
1.0013818
1.001377
1.0013636
1.00134
1.0013069
1.0012662
1.0012177
1.0011601
1.0010904
1.0010113
1.0009319
1.0008512
1.0007572
1.0006557
1.0005543
1.0004428
1.0003162
1.0001637
1.0000021
0.99987042
0.99975325
0.99959892
0.99943276
0.99928856
0.99910468
0.99888116
0.99874059
0.99864458
0.99855937
0.99856874
0.99860424
0.99870079
0.99884264
0.99897901
1.0005019
1.0005591
1.0006246
1.0006984
1.0007755
1.0008502
1.0009218
1.0009874
1.0010479
1.0011045
1.0011559
1.0011998
1.0012362
1.0012648
1.0012843
1.0012956
1.0012997
1.0012951
1.0012806
1.0012561
1.0012219
1.0011787
1.0011264
1.0010651
1.0009957
1.000919
1.0008344
1.0007422
1.0006424
1.0005357
1.0004228
1.0003046
1.0001842
1.0000633
0.99994083
0.9998161
0.9996923
0.99957176
0.99945492
0.99934606
0.99925511
0.9991724
0.99909422
0.99902626
0.99896414
0.99891376
0.99887301
0.99883802
0.99880488
1.0004619
1.0005135
1.0005735
1.0006382
1.0007027
1.0007656
1.0008259
1.0008828
1.0009356
1.0009868
1.0010335
1.0010742
1.0011092
1.0011376
1.0011576
1.0011706
1.0011779
1.0011774
1.0011679
1.0011492
1.0011217
1.001086
1.001041
1.0009869
1.0009256
1.0008575
1.0007809
1.0006965
1.0006051
1.000507
1.0004027
1.0002938
1.0001821
1.0000688
0.9999531
0.99983627
0.99972081
0.99960685
0.99949563
0.99939094
0.99929202
0.99919669
0.9991097
0.99903398
0.99896531
0.99890503
0.99885404
0.99881156
0.99877461
1.0005031
1.000542
1.0005819
1.0006234
1.0006655
1.0007073
1.0007482
1.0007874
1.000825
1.0008616
1.0008957
1.0009263
1.0009533
1.0009757
1.0009921
1.0010033
1.00101
1.0010106
1.0010037
1.000989
1.0009667
1.0009372
1.0009
1.0008549
1.0008032
1.0007454
1.0006803
1.0006087
1.0005313
1.0004485
1.0003614
1.000271
1.0001792
1.0000868
0.99999294
0.99989858
0.99980644
0.99971652
0.99962894
0.99954679
0.99946981
0.99939381
0.99932055
0.99925099
0.999184
0.99912048
0.99905712
0.99899431
0.99893117
1.0004952
1.0005278
1.0005608
1.0005941
1.0006271
1.0006595
1.0006912
1.0007215
1.0007507
1.0007792
1.0008059
1.00083
1.0008514
1.0008694
1.0008826
1.0008918
1.0008971
1.0008973
1.0008911
1.000878
1.0008581
1.0008317
1.0007986
1.0007583
1.0007118
1.0006596
1.0006013
1.0005371
1.0004678
1.0003941
1.0003168
1.0002369
1.000156
1.0000747
0.99999284
0.99991125
0.99983179
0.99975436
0.99967922
0.99960819
0.99954065
0.99947361
0.99940895
0.99934579
0.99928399
0.99922336
0.99916344
0.9991055
0.99905037
1.0004872
1.0005119
1.0005367
1.0005619
1.0005867
1.0006113
1.0006354
1.0006587
1.0006813
1.0007035
1.0007244
1.0007432
1.00076
1.000774
1.0007842
1.0007909
1.0007945
1.0007935
1.0007871
1.0007746
1.000756
1.0007316
1.0007012
1.0006643
1.0006217
1.0005741
1.000521
1.0004627
1.0004
1.0003334
1.0002638
1.0001921
1.0001195
1.0000468
0.99997388
0.99990142
0.99983079
0.99976215
0.99969558
0.99963226
0.99957188
0.99951268
0.99945498
0.99939894
0.99934348
0.99928885
0.9992339
0.99917872
0.99912376
1.0004677
1.0004884
1.000509
1.0005295
1.0005495
1.0005692
1.0005883
1.0006068
1.0006247
1.0006423
1.0006588
1.0006736
1.0006867
1.0006975
1.000705
1.0007096
1.0007114
1.0007093
1.0007024
1.0006902
1.0006726
1.0006498
1.0006217
1.0005877
1.0005487
1.0005049
1.0004563
1.000403
1.0003458
1.0002851
1.0002218
1.0001565
1.0000905
1.0000243
0.99995803
0.9998922
0.99982794
0.9997653
0.9997044
0.99964615
0.99959022
0.99953499
0.99948109
0.99942799
0.9993753
0.99932271
0.9992696
0.99921597
0.99916215
1.000449
1.0004654
1.0004818
1.0004982
1.0005141
1.0005297
1.000545
1.0005597
1.0005739
1.0005879
1.000601
1.0006126
1.0006227
1.0006309
1.0006363
1.0006391
1.0006394
1.0006362
1.0006287
1.0006166
1.0005997
1.000578
1.0005514
1.0005196
1.0004832
1.0004424
1.0003973
1.0003479
1.000295
1.0002391
1.0001808
1.0001208
1.0000602
0.99999939
0.99993863
0.99987836
0.99981947
0.99976209
0.99970631
0.99965281
0.99960139
0.9995509
0.99950153
0.99945314
0.99940507
0.99935727
0.99930901
0.99926023
0.99921096
1.0004279
1.0004415
1.0004551
1.0004686
1.0004816
1.0004943
1.0005067
1.0005186
1.00053
1.0005412
1.0005515
1.0005606
1.0005684
1.0005744
1.0005779
1.0005792
1.0005782
1.000574
1.000566
1.0005539
1.0005374
1.0005166
1.0004914
1.0004615
1.0004272
1.0003891
1.000347
1.000301
1.0002519
1.0002
1.0001459
1.0000904
1.0000341
0.99997773
0.99992136
0.99986542
0.99981068
0.99975724
0.99970519
0.99965511
0.99960683
0.99955931
0.99951287
0.99946714
0.99942176
0.99937647
0.99933074
0.99928446
0.99923773
1.0004075
1.0004186
1.0004297
1.0004408
1.0004514
1.0004618
1.0004718
1.0004814
1.0004906
1.0004996
1.0005077
1.0005147
1.0005206
1.0005248
1.0005269
1.0005269
1.0005248
1.0005198
1.0005113
1.0004991
1.000483
1.0004629
1.0004387
1.0004103
1.0003779
1.0003419
1.0003023
1.0002591
1.0002131
1.0001645
1.000114
1.0000621
1.0000096
0.99995697
0.99990437
0.99985219
0.99980111
0.99975124
0.99970268
0.9996559
0.99961082
0.99956661
0.99952342
0.99948108
0.99943914
0.99939747
0.99935553
0.99931321
0.99927051
1.0003873
1.0003965
1.0004057
1.0004149
1.0004237
1.0004322
1.0004404
1.0004481
1.0004555
1.0004627
1.0004691
1.0004744
1.0004787
1.0004815
1.0004823
1.0004812
1.0004781
1.0004724
1.0004636
1.0004513
1.0004354
1.0004159
1.0003927
1.0003655
1.0003348
1.0003006
1.0002631
1.0002225
1.0001791
1.0001335
1.000086
1.0000373
0.99998802
0.99993859
0.99988918
0.99984015
0.99979211
0.99974516
0.9996994
0.99965525
0.99961265
0.99957086
0.99953009
0.9994901
0.99945057
0.99941132
0.99937191
0.9993322
0.99929224
1.000368
1.0003756
1.0003832
1.0003908
1.000398
1.000405
1.0004117
1.0004179
1.0004239
1.0004295
1.0004345
1.0004384
1.0004414
1.000443
1.0004427
1.0004407
1.0004369
1.0004306
1.0004214
1.0004091
1.0003934
1.0003744
1.000352
1.0003259
1.0002965
1.000264
1.0002284
1.0001899
1.0001489
1.0001057
1.000061
1.000015
0.9999685
0.99992186
0.99987527
0.99982904
0.99978374
0.99973948
0.99969634
0.99965473
0.9996146
0.99957534
0.9995371
0.99949972
0.99946289
0.99942647
0.99939006
0.99935352
0.99931686
1.0003495
1.0003558
1.0003621
1.0003684
1.0003743
1.00038
1.0003855
1.0003905
1.0003952
1.0003997
1.0004034
1.0004062
1.0004081
1.0004086
1.0004075
1.0004048
1.0004003
1.0003935
1.000384
1.0003717
1.0003562
1.0003377
1.0003159
1.0002909
1.0002627
1.0002316
1.0001976
1.000161
1.0001221
1.0000812
1.0000387
0.99999526
0.99995123
0.99990708
0.99986297
0.99981922
0.99977632
0.9997344
0.99969354
0.99965409
0.99961605
0.99957887
0.9995427
0.9995074
0.9994727
0.99943848
0.99940438
0.99937026
0.99933618
1.000332
1.0003371
1.0003424
1.0003476
1.0003524
1.0003571
1.0003615
1.0003655
1.0003692
1.0003726
1.0003753
1.0003772
1.0003781
1.0003778
1.000376
1.0003726
1.0003675
1.0003603
1.0003506
1.0003382
1.000323
1.0003049
1.0002838
1.0002596
1.0002325
1.0002027
1.0001702
1.0001352
1.0000982
1.0000593
1.000019
0.99997766
0.99993586
0.99989395
0.9998521
0.99981059
0.9997699
0.99973015
0.99969143
0.99965406
0.99961806
0.99958294
0.99954887
0.9995157
0.99948322
0.9994513
0.99941965
0.99938812
0.99935676
1.0003153
1.0003196
1.0003239
1.0003282
1.0003322
1.0003359
1.0003395
1.0003426
1.0003454
1.000348
1.0003498
1.0003509
1.000351
1.00035
1.0003475
1.0003436
1.000338
1.0003305
1.0003206
1.0003083
1.0002932
1.0002755
1.0002549
1.0002315
1.0002055
1.0001768
1.0001457
1.0001123
1.0000769
1.0000398
1.0000014
0.99996209
0.99992232
0.99988245
0.99984265
0.9998032
0.99976452
0.99972674
0.99968995
0.99965445
0.99962028
0.99958698
0.99955473
0.99952341
0.99949282
0.99946286
0.99943325
0.99940387
0.99937479
1.0002996
1.0003031
1.0003067
1.0003102
1.0003134
1.0003164
1.0003192
1.0003216
1.0003237
1.0003254
1.0003266
1.0003269
1.0003264
1.0003247
1.0003217
1.0003173
1.0003114
1.0003036
1.0002936
1.0002813
1.0002664
1.000249
1.0002291
1.0002064
1.0001812
1.0001537
1.0001238
1.0000917
1.0000579
1.0000224
0.9999858
0.99994831
0.99991041
0.99987242
0.99983451
0.99979695
0.99976015
0.99972422
0.99968926
0.99965555
0.99962313
0.99959161
0.99956115
0.99953165
0.99950293
0.99947491
0.99944735
0.99942013
0.9993933
1.0002848
1.0002877
1.0002905
1.0002933
1.0002959
1.0002983
1.0003004
1.0003022
1.0003036
1.0003047
1.0003053
1.000305
1.0003039
1.0003017
1.0002983
1.0002935
1.0002872
1.0002792
1.0002691
1.0002568
1.0002422
1.0002252
1.0002057
1.0001837
1.0001594
1.0001328
1.0001041
1.0000734
1.0000409
1.000007
0.99997197
0.99993617
0.99989999
0.99986375
0.9998276
0.99979181
0.99975675
0.99972255
0.99968929
0.99965723
0.99962643
0.99959654
0.99956771
0.99953985
0.99951281
0.99948651
0.99946075
0.99943539
0.99941054
1.0002709
1.0002731
1.0002754
1.0002777
1.0002797
1.0002815
1.000283
1.0002843
1.0002852
1.0002857
1.0002857
1.0002849
1.0002833
1.0002807
1.0002769
1.0002718
1.0002653
1.0002571
1.0002469
1.0002347
1.0002202
1.0002036
1.0001846
1.0001633
1.0001397
1.0001141
1.0000864
1.0000569
1.0000257
0.99999325
0.99995973
0.9999255
0.99989093
0.99985631
0.99982181
0.99978768
0.99975427
0.99972169
0.99969005
0.99965957
0.99963033
0.999602
0.99957474
0.99954847
0.99952305
0.99949842
0.99947439
0.99945085
0.99942788
1.0002577
1.0002595
1.0002613
1.000263
1.0002645
1.0002658
1.0002669
1.0002677
1.0002681
1.0002682
1.0002677
1.0002664
1.0002644
1.0002614
1.0002573
1.0002519
1.0002452
1.0002368
1.0002267
1.0002145
1.0002003
1.000184
1.0001654
1.0001447
1.0001219
1.0000972
1.0000705
1.0000421
1.0000122
0.99998103
0.99994892
0.99991616
0.9998831
0.99985001
0.99981707
0.9997845
0.99975264
0.9997216
0.99969147
0.99966249
0.9996347
0.99960784
0.99958204
0.99955723
0.9995333
0.99951019
0.99948772
0.9994658
0.99944452
1.0002453
1.0002466
1.000248
1.0002493
1.0002504
1.0002513
1.0002519
1.0002523
1.0002523
1.0002519
1.000251
1.0002494
1.000247
1.0002437
1.0002393
1.0002336
1.0002267
1.0002183
1.0002081
1.0001961
1.0001821
1.0001661
1.000148
1.0001279
1.0001058
1.0000819
1.0000562
1.0000288
1.0000001
0.99997018
0.9999394
0.99990802
0.99987638
0.99984474
0.99981326
0.99978217
0.99975178
0.99972221
0.99969353
0.99966597
0.99963958
0.99961412
0.99958971
0.99956631
0.9995438
0.99952213
0.99950115
0.99948076
0.99946107
1.0002335
1.0002345
1.0002355
1.0002364
1.0002372
1.0002377
1.000238
1.0002379
1.0002376
1.0002368
1.0002356
1.0002336
1.0002309
1.0002273
1.0002227
1.0002169
1.0002098
1.0002013
1.0001912
1.0001793
1.0001655
1.0001498
1.0001322
1.0001126
1.0000912
1.0000681
1.0000433
1.0000169
0.99998929
0.99996056
0.99993103
0.99990097
0.99987067
0.99984041
0.99981032
0.99978064
0.99975164
0.99972345
0.99969615
0.99966994
0.99964488
0.99962074
0.99959764
0.99957555
0.99955436
0.99953402
0.99951441
0.99949541
0.99947714
1.0002224
1.0002231
1.0002238
1.0002244
1.0002248
1.0002249
1.0002249
1.0002246
1.0002239
1.0002228
1.0002212
1.000219
1.000216
1.0002122
1.0002074
1.0002014
1.0001943
1.0001857
1.0001756
1.0001638
1.0001503
1.0001349
1.0001178
1.0000988
1.000078
1.0000556
1.0000316
1.0000063
0.99997966
0.99995205
0.99992371
0.99989489
0.99986588
0.99983692
0.99980815
0.99977981
0.99975215
0.99972528
0.99969929
0.99967437
0.99965057
0.99962769
0.99960585
0.999585
0.99956506
0.99954598
0.99952765
0.99950996
0.99949303
1.0002119
1.0002123
1.0002127
1.000213
1.0002131
1.000213
1.0002127
1.0002121
1.0002111
1.0002098
1.0002079
1.0002054
1.0002022
1.0001982
1.0001932
1.0001871
1.0001799
1.0001713
1.0001613
1.0001497
1.0001363
1.0001213
1.0001046
1.0000861
1.000066
1.0000443
1.0000212
0.99999669
0.99997108
0.99994455
0.99991734
0.9998897
0.99986191
0.99983419
0.99980669
0.99977962
0.99975323
0.99972762
0.99970289
0.99967919
0.99965659
0.99963491
0.99961424
0.99959457
0.9995758
0.99955789
0.99954074
0.99952425
0.99950853
1.000202
1.0002021
1.0002023
1.0002023
1.0002022
1.0002018
1.0002012
1.0002003
1.0001991
1.0001975
1.0001955
1.0001927
1.0001894
1.0001852
1.00018
1.0001739
1.0001666
1.0001581
1.0001481
1.0001366
1.0001235
1.0001089
1.0000925
1.0000746
1.000055
1.0000341
1.0000117
0.99998812
0.99996346
0.99993795
0.99991182
0.99988531
0.99985868
0.99983215
0.99980586
0.99978
0.99975483
0.99973043
0.99970688
0.99968436
0.9996629
0.99964236
0.99962282
0.99960426
0.99958659
0.99956978
0.99955375
0.99953837
0.99952379
1.0001925
1.0001925
1.0001924
1.0001922
1.0001918
1.0001913
1.0001905
1.0001894
1.0001879
1.0001861
1.0001838
1.0001809
1.0001774
1.0001731
1.0001678
1.0001616
1.0001543
1.0001458
1.0001359
1.0001246
1.0001118
1.0000974
1.0000815
1.000064
1.0000451
1.0000248
1.0000032
0.99998045
0.99995671
0.99993218
0.99990708
0.99988165
0.99985613
0.99983073
0.99980559
0.9997809
0.99975688
0.99973363
0.99971123
0.99968982
0.99966945
0.99964999
0.99963151
0.999614
0.99959737
0.99958159
0.99956658
0.99955224
0.99953869
1.0001835
1.0001833
1.000183
1.0001826
1.0001821
1.0001813
1.0001803
1.000179
1.0001774
1.0001754
1.0001729
1.0001699
1.0001662
1.0001618
1.0001564
1.0001502
1.0001429
1.0001344
1.0001247
1.0001135
1.000101
1.0000869
1.0000714
1.0000544
1.0000361
1.0000164
0.99999557
0.99997362
0.99995075
0.99992715
0.99990305
0.99987865
0.99985419
0.99982987
0.99980583
0.99978225
0.99975934
0.99973718
0.99971587
0.99969552
0.9996762
0.99965776
0.99964029
0.99962377
0.99960812
0.99959331
0.99957927
0.99956589
0.9995533
1.000175
1.0001746
1.0001741
1.0001736
1.0001728
1.0001719
1.0001707
1.0001693
1.0001675
1.0001654
1.0001627
1.0001595
1.0001557
1.0001512
1.0001458
1.0001395
1.0001323
1.0001239
1.0001142
1.0001033
1.000091
1.0000773
1.0000622
1.0000457
1.0000279
1.0000089
0.9999887
0.99996753
0.9999455
0.9999228
0.99989964
0.99987623
0.99985279
0.99982951
0.99980652
0.999784
0.99976214
0.99974104
0.99972076
0.99970143
0.99968309
0.99966563
0.99964912
0.99963353
0.9996188
0.9996049
0.99959176
0.99957927
0.99956756
1.0001668
1.0001663
1.0001657
1.000165
1.0001641
1.000163
1.0001617
1.0001601
1.0001581
1.0001559
1.0001531
1.0001498
1.0001459
1.0001413
1.0001359
1.0001296
1.0001224
1.0001141
1.0001046
1.0000938
1.0000818
1.0000684
1.0000537
1.0000377
1.0000204
1.000002
0.99998255
0.99996212
0.9999409
0.99991907
0.99989682
0.99987435
0.99985188
0.99982959
0.99980761
0.9997861
0.99976525
0.99974515
0.99972586
0.9997075
0.9996901
0.99967357
0.99965796
0.99964326
0.9996294
0.99961634
0.99960404
0.99959238
0.99958151
1.000159
1.0001583
1.0001576
1.0001568
1.0001557
1.0001545
1.0001531
1.0001514
1.0001493
1.0001469
1.0001441
1.0001407
1.0001368
1.0001321
1.0001267
1.0001204
1.0001132
1.000105
1.0000956
1.0000851
1.0000733
1.0000603
1.000046
1.0000304
1.0000137
0.99999586
0.99997704
0.99995734
0.9999369
0.9999159
0.99989452
0.99987296
0.99985142
0.99983007
0.99980905
0.99978851
0.99976863
0.99974948
0.99973113
0.99971368
0.99969718
0.99968153
0.99966678
0.99965291
0.99963986
0.99962761
0.99961609
0.99960521
0.99959509
1.0001514
1.0001507
1.0001499
1.0001489
1.0001478
1.0001465
1.0001449
1.0001431
1.000141
1.0001385
1.0001356
1.0001321
1.0001281
1.0001234
1.000118
1.0001118
1.0001046
1.0000965
1.0000873
1.000077
1.0000655
1.0000528
1.0000388
1.0000237
1.0000075
0.99999031
0.99997213
0.99995313
0.99993344
0.99991323
0.99989269
0.999872
0.99985135
0.99983091
0.99981081
0.99979119
0.99977222
0.99975398
0.99973653
0.99971996
0.9997043
0.99968948
0.99967554
0.99966246
0.99965019
0.99963868
0.9996279
0.99961774
0.99960832
1.0001442
1.0001434
1.0001425
1.0001414
1.0001402
1.0001388
1.0001372
1.0001353
1.0001331
1.0001305
1.0001275
1.000124
1.00012
1.0001153
1.0001099
1.0001037
1.0000966
1.0000886
1.0000796
1.0000695
1.0000583
1.0000459
1.0000323
1.0000177
1.000002
0.99998533
0.99996777
0.99994944
0.99993048
0.99991104
0.9998913
0.99987144
0.99985164
0.99983207
0.99981284
0.9997941
0.999776
0.99975863
0.99974202
0.99972628
0.99971144
0.9996974
0.99968423
0.99967189
0.99966034
0.99964954
0.99963944
0.99962995
0.99962119
1.0001373
1.0001364
1.0001354
1.0001343
1.000133
1.0001315
1.0001298
1.0001278
1.0001255
1.0001229
1.0001199
1.0001164
1.0001123
1.0001076
1.0001023
1.0000961
1.0000892
1.0000813
1.0000724
1.0000626
1.0000516
1.0000395
1.0000264
1.0000122
0.99999697
0.99998086
0.99996391
0.99994623
0.99992797
0.99990927
0.9998903
0.99987123
0.99985225
0.9998335
0.9998151
0.9997972
0.99977994
0.99976338
0.99974758
0.99973263
0.99971855
0.99970526
0.99969282
0.99968118
0.99967031
0.99966016
0.99965071
0.99964184
0.99963368
1.0001306
1.0001296
1.0001285
1.0001274
1.000126
1.0001245
1.0001227
1.0001207
1.0001184
1.0001157
1.0001127
1.0001091
1.0001051
1.0001004
1.0000951
1.000089
1.0000822
1.0000745
1.0000658
1.0000561
1.0000454
1.0000337
1.0000209
1.0000072
0.99999245
0.99997688
0.99996052
0.99994347
0.99992588
0.99990789
0.99988965
0.99987135
0.99985314
0.99983518
0.99981758
0.99980048
0.999784
0.99976822
0.99975319
0.99973898
0.99972562
0.99971304
0.99970127
0.99969029
0.99968006
0.99967053
0.99966167
0.99965338
0.99964578
1.0001241
1.0001231
1.000122
1.0001208
1.0001194
1.0001178
1.000116
1.0001139
1.0001116
1.0001089
1.0001058
1.0001023
1.0000982
1.0000936
1.0000883
1.0000824
1.0000756
1.0000681
1.0000596
1.0000502
1.0000398
1.0000284
1.000016
1.0000026
0.99998839
0.99997334
0.99995755
0.99994112
0.99992418
0.99990686
0.99988934
0.99987176
0.99985429
0.99983708
0.99982024
0.99980389
0.99978816
0.99977312
0.99975881
0.9997453
0.99973262
0.9997207
0.99970957
0.99969921
0.99968957
0.99968062
0.99967232
0.99966457
0.9996575
1.0001178
1.0001168
1.0001156
1.0001144
1.000113
1.0001114
1.0001095
1.0001074
1.0001051
1.0001024
1.0000993
1.0000958
1.0000918
1.0000872
1.000082
1.0000761
1.0000695
1.0000621
1.0000538
1.0000447
1.0000345
1.0000235
1.0000115
0.99999853
0.99998475
0.99997022
0.99995498
0.99993914
0.99992283
0.99990617
0.99988932
0.99987244
0.99985568
0.99983918
0.99982306
0.99980742
0.9997924
0.99977805
0.99976442
0.99975158
0.99973953
0.99972823
0.9997177
0.99970792
0.99969883
0.99969041
0.99968263
0.99967538
0.99966878
1.0001117
1.0001106
1.0001095
1.0001082
1.0001068
1.0001052
1.0001033
1.0001012
1.0000989
1.0000962
1.0000931
1.0000896
1.0000856
1.0000811
1.000076
1.0000703
1.0000638
1.0000566
1.0000485
1.0000395
1.0000297
1.000019
1.0000073
0.99999482
0.99998151
0.99996748
0.99995278
0.99993752
0.99992181
0.99990578
0.99988958
0.99987336
0.99985728
0.99984146
0.99982601
0.99981105
0.9997967
0.999783
0.99977001
0.99975778
0.99974632
0.9997356
0.99972563
0.99971638
0.99970781
0.99969989
0.99969259
0.9996858
0.99967964
1.0001057
1.0001047
1.0001035
1.0001023
1.0001008
1.0000992
1.0000974
1.0000953
1.0000929
1.0000903
1.0000872
1.0000838
1.0000798
1.0000754
1.0000704
1.0000648
1.0000584
1.0000514
1.0000435
1.0000348
1.0000253
1.0000149
1.0000036
0.9999915
0.99997864
0.99996509
0.99995092
0.99993622
0.99992109
0.99990567
0.99989009
0.99987451
0.99985907
0.99984389
0.99982909
0.99981476
0.99980103
0.99978794
0.99977554
0.99976388
0.99975298
0.99974279
0.99973333
0.99972458
0.99971648
0.99970902
0.99970215
0.99969578
0.99969003
1.0001
1.000099
1.0000978
1.0000965
1.0000951
1.0000935
1.0000916
1.0000896
1.0000872
1.0000846
1.0000816
1.0000782
1.0000743
1.00007
1.0000651
1.0000596
1.0000534
1.0000465
1.0000389
1.0000304
1.0000212
1.0000111
1.0000002
0.99998852
0.99997611
0.99996304
0.99994938
0.99993522
0.99992066
0.99990582
0.99989084
0.99987587
0.99986103
0.99984647
0.99983227
0.99981854
0.99980538
0.99979286
0.999781
0.99976987
0.99975947
0.99974977
0.99974078
0.99973248
0.99972482
0.99971777
0.99971131
0.99970534
0.99969995
1.0000944
1.0000934
1.0000922
1.000091
1.0000895
1.0000879
1.0000861
1.0000841
1.0000818
1.0000792
1.0000762
1.0000729
1.0000691
1.0000649
1.0000601
1.0000547
1.0000487
1.000042
1.0000346
1.0000264
1.0000174
1.0000077
0.99999716
0.99998588
0.99997391
0.99996131
0.99994815
0.99993451
0.9999205
0.99990622
0.99989181
0.99987742
0.99986317
0.99984918
0.99983554
0.99982237
0.99980974
0.99979773
0.99978636
0.99977571
0.99976576
0.99975651
0.99974794
0.99974005
0.99973279
0.99972611
0.99972001
0.99971438
0.99970932
1.0000889
1.0000879
1.0000868
1.0000856
1.0000842
1.0000826
1.0000808
1.0000788
1.0000766
1.000074
1.0000711
1.0000679
1.0000642
1.00006
1.0000553
1.0000501
1.0000443
1.0000378
1.0000306
1.0000227
1.000014
1.0000046
0.99999443
0.99998354
0.999972
0.99995987
0.9999472
0.99993408
0.99992059
0.99990685
0.999893
0.99987916
0.99986546
0.99985201
0.9998389
0.99982623
0.99981408
0.99980253
0.99979161
0.99978138
0.99977185
0.99976299
0.9997548
0.99974728
0.99974037
0.99973405
0.99972828
0.99972298
0.99971822
1.0000836
1.0000826
1.0000815
1.0000803
1.000079
1.0000774
1.0000757
1.0000737
1.0000715
1.000069
1.0000662
1.000063
1.0000595
1.0000554
1.0000509
1.0000458
1.0000401
1.0000339
1.0000269
1.0000192
1.0000109
1.0000018
0.99999199
0.9999815
0.99997038
0.9999587
0.99994652
0.9999339
0.99992092
0.99990771
0.99989439
0.99988108
0.99986791
0.99985496
0.99984233
0.99983011
0.99981839
0.99980725
0.99979672
0.99978686
0.99977769
0.99976918
0.99976134
0.99975413
0.99974754
0.99974151
0.99973603
0.99973099
0.9997265
1.0000784
1.0000775
1.0000764
1.0000752
1.0000739
1.0000724
1.0000707
1.0000688
1.0000667
1.0000643
1.0000616
1.0000585
1.000055
1.0000511
1.0000467
1.0000417
1.0000363
1.0000302
1.0000235
1.0000161
1.000008
0.99999926
0.99998982
0.99997973
0.99996904
0.99995781
0.99994609
0.99993396
0.99992148
0.99990878
0.99989598
0.99988318
0.99987049
0.99985801
0.99984581
0.99983399
0.99982266
0.99981187
0.99980169
0.99979216
0.9997833
0.9997751
0.99976755
0.99976064
0.99975433
0.99974858
0.99974337
0.99973861
0.99973436
1.0000734
1.0000725
1.0000714
1.0000703
1.000069
1.0000676
1.000066
1.0000641
1.0000621
1.0000597
1.0000571
1.0000541
1.0000507
1.0000469
1.0000427
1.0000379
1.0000326
1.0000268
1.0000203
1.0000132
1.0000054
0.99999699
0.99998792
0.99997822
0.99996794
0.99995716
0.99994591
0.99993425
0.99992227
0.99991006
0.99989776
0.99988545
0.99987322
0.99986116
0.99984935
0.99983789
0.99982688
0.9998164
0.99980652
0.99979727
0.99978868
0.99978074
0.99977344
0.99976677
0.99976069
0.99975516
0.99975015
0.99974558
0.99974152
1.0000684
1.0000676
1.0000666
1.0000655
1.0000643
1.0000629
1.0000613
1.0000596
1.0000576
1.0000553
1.0000528
1.0000499
1.0000467
1.000043
1.0000389
1.0000343
1.0000293
1.0000236
1.0000174
1.0000105
1.0000031
0.99999497
0.99998626
0.99997695
0.99996709
0.99995675
0.99994596
0.99993477
0.99992327
0.99991155
0.99989974
0.99988789
0.99987609
0.99986441
0.99985293
0.99984178
0.99983107
0.99982086
0.99981123
0.99980222
0.99979386
0.99978614
0.99977907
0.99977261
0.99976674
0.99976143
0.99975664
0.9997523
0.99974845
1.0000636
1.0000628
1.0000618
1.0000608
1.0000596
1.0000583
1.0000568
1.0000551
1.0000532
1.0000511
1.0000486
1.0000459
1.0000428
1.0000393
1.0000354
1.000031
1.0000261
1.0000207
1.0000147
1.0000081
1.0000009
0.99999319
0.99998483
0.99997591
0.99996647
0.99995656
0.99994623
0.99993551
0.99992448
0.99991325
0.99990191
0.99989051
0.99987909
0.99986775
0.99985658
0.99984571
0.99983525
0.99982528
0.99981586
0.99980706
0.99979888
0.99979133
0.99978441
0.9997781
0.99977236
0.99976716
0.99976247
0.99975821
0.99975444
1.0000589
1.0000582
1.0000573
1.0000563
1.0000552
1.0000539
1.0000525
1.0000508
1.000049
1.000047
1.0000447
1.000042
1.0000391
1.0000357
1.000032
1.0000278
1.0000231
1.0000179
1.0000122
1.0000059
0.99999904
0.99999162
0.99998363
0.9999751
0.99996607
0.99995659
0.99994672
0.99993646
0.9999259
0.99991516
0.99990428
0.99989329
0.99988223
0.9998712
0.99986031
0.9998497
0.99983947
0.99982972
0.99982049
0.99981184
0.9998038
0.99979637
0.99978956
0.99978336
0.99977775
0.9997727
0.99976817
0.99976411
0.99976053
1.0000544
1.0000537
1.0000528
1.0000519
1.0000508
1.0000496
1.0000483
1.0000467
1.000045
1.000043
1.0000408
1.0000383
1.0000355
1.0000324
1.0000288
1.0000248
1.0000203
1.0000154
1.0000099
1.0000039
0.99999734
0.99999026
0.99998263
0.99997449
0.99996587
0.99995683
0.99994741
0.99993761
0.99992753
0.99991728
0.99990685
0.99989624
0.99988551
0.99987478
0.99986417
0.99985381
0.99984381
0.99983424
0.99982515
0.9998166
0.99980862
0.99980122
0.99979442
0.99978822
0.99978258
0.99977748
0.99977289
0.99976873
0.99976506
1.0000502
1.0000495
1.0000486
1.0000477
1.0000467
1.0000455
1.0000442
1.0000428
1.0000411
1.0000392
1.0000371
1.0000347
1.0000321
1.0000291
1.0000257
1.000022
1.0000177
1.000013
1.0000078
1.0000021
0.99999584
0.99998909
0.99998183
0.99997408
0.99996588
0.99995727
0.99994831
0.99993897
0.99992937
0.9999196
0.99990961
0.99989937
0.99988896
0.99987853
0.99986821
0.99985813
0.99984834
0.99983892
0.99982992
0.99982139
0.9998134
0.99980596
0.99979912
0.99979288
0.99978725
0.9997822
0.99977772
0.99977375
0.99977028
1.0000461
1.0000454
1.0000447
1.0000438
1.0000428
1.0000417
1.0000404
1.000039
1.0000374
1.0000356
1.0000336
1.0000313
1.0000288
1.000026
1.0000228
1.0000193
1.0000153
1.0000108
1.0000059
1.0000004
0.99999452
0.99998811
0.99998121
0.99997385
0.99996607
0.9999579
0.99994939
0.99994052
0.99993142
0.99992214
0.99991256
0.99990267
0.9998926
0.99988251
0.99987253
0.99986272
0.99985314
0.99984382
0.99983483
0.99982624
0.99981811
0.9998105
0.99980343
0.99979695
0.99979103
0.99978567
0.99978083
0.99977646
0.9997726
1.0000423
1.0000417
1.0000409
1.0000401
1.0000391
1.0000381
1.0000368
1.0000355
1.0000339
1.0000322
1.0000302
1.0000281
1.0000257
1.000023
1.0000201
1.0000167
1.000013
1.0000088
1.0000041
0.99999897
0.99999336
0.9999873
0.99998077
0.9999738
0.99996642
0.9999587
0.99995065
0.99994225
0.99993366
0.99992487
0.9999157
0.99990617
0.99989648
0.9998868
0.99987719
0.99986767
0.99985826
0.999849
0.99983995
0.9998312
0.99982285
0.99981497
0.99980765
0.99980093
0.99979487
0.99978948
0.99978474
0.99978062
0.99977707
1.0000387
1.0000381
1.0000374
1.0000366
1.0000357
1.0000346
1.0000335
1.0000321
1.0000306
1.000029
1.0000271
1.000025
1.0000227
1.0000202
1.0000174
1.0000143
1.0000108
1.0000069
1.0000025
0.99999767
0.99999237
0.99998665
0.99998049
0.99997391
0.99996696
0.99995968
0.99995209
0.99994417
0.99993611
0.99992779
0.999919
0.99990987
0.99990065
0.99989145
0.99988225
0.99987303
0.99986377
0.99985452
0.99984535
0.99983635
0.99982763
0.99981929
0.99981142
0.99980407
0.9997973
0.9997911
0.99978549
0.99978039
0.99977589
1.0000353
1.0000347
1.000034
1.0000332
1.0000324
1.0000314
1.0000303
1.000029
1.0000276
1.000026
1.0000242
1.0000222
1.00002
1.0000176
1.0000149
1.000012
1.0000088
1.0000052
1.0000011
0.99999653
0.99999154
0.99998617
0.99998038
0.99997421
0.99996768
0.99996086
0.99995374
0.99994632
0.9999388
0.99993095
0.99992255
0.99991389
0.99990523
0.99989656
0.99988779
0.99987885
0.99986973
0.99986046
0.99985113
0.99984183
0.99983269
0.99982384
0.99981543
0.99980759
0.99980046
0.99979411
0.9997886
0.99978396
0.99978001
1.0000319
1.0000314
1.0000307
1.00003
1.0000291
1.0000282
1.0000272
1.000026
1.0000246
1.0000231
1.0000214
1.0000195
1.0000174
1.0000151
1.0000126
1.0000098
1.0000069
1.0000035
0.99999977
0.99999551
0.99999084
0.9999858
0.99998038
0.99997459
0.99996847
0.99996211
0.99995547
0.99994857
0.99994163
0.99993426
0.99992629
0.99991826
0.99991028
0.99990223
0.99989392
0.9998853
0.99987635
0.99986709
0.99985758
0.99984789
0.99983815
0.99982846
0.99981899
0.99980987
0.99980121
0.99979309
0.9997856
0.99977869
0.99977259
1.0000287
1.0000282
1.0000275
1.0000268
1.000026
1.0000251
1.0000241
1.000023
1.0000217
1.0000204
1.0000188
1.0000171
1.0000151
1.0000129
1.0000105
1.0000078
1.000005
1.000002
0.99999852
0.99999457
0.99999019
0.99998547
0.99998039
0.99997497
0.99996925
0.99996331
0.99995712
0.99995072
0.99994434
0.99993737
0.99992991
0.99992266
0.99991545
0.99990806
0.99990031
0.99989216
0.99988356
0.9998745
0.99986497
0.99985503
0.99984476
0.9998343
0.99982386
0.99981374
0.99980421
0.99979561
0.99978814
0.99978202
0.99977708
1.0000255
1.0000249
1.0000243
1.0000236
1.0000228
1.0000219
1.000021
1.00002
1.0000189
1.0000177
1.0000163
1.0000147
1.0000129
1.0000109
1.0000086
1.000006
1.0000033
1.0000005
0.99999741
0.9999938
0.99998977
0.99998543
0.99998077
0.99997581
0.99997057
0.99996509
0.99995936
0.99995347
0.99994758
0.99994087
0.99993399
0.99992757
0.99992099
0.99991419
0.99990694
0.99989929
0.99989109
0.99988233
0.99987287
0.99986274
0.99985189
0.9998404
0.99982834
0.99981587
0.99980314
0.99979056
0.99977826
0.99976669
0.99975616
1.0000224
1.0000218
1.0000211
1.0000204
1.0000196
1.0000188
1.000018
1.0000171
1.0000161
1.000015
1.0000137
1.0000123
1.0000107
1.0000089
1.0000068
1.0000045
1.0000019
0.99999934
0.99999656
0.99999337
0.99998977
0.9999859
0.99998175
0.99997734
0.99997268
0.99996781
0.9999627
0.99995753
0.9999523
0.99994617
0.99994012
0.99993476
0.99992882
0.99992273
0.99991604
0.99990903
0.99990128
0.99989292
0.99988352
0.9998732
0.9998616
0.99984892
0.9998352
0.99982089
0.99980679
0.99979371
0.99978197
0.99977308
0.99976506
1.0000191
1.0000183
1.0000174
1.0000166
1.0000158
1.000015
1.0000143
1.0000136
1.0000128
1.000012
1.000011
1.0000099
1.0000086
1.0000071
1.0000053
1.0000031
1.0000007
0.99999806
0.9999954
0.99999244
0.99998906
0.99998534
0.99998133
0.99997703
0.99997254
0.99996797
0.99996331
0.99995872
0.99995404
0.99994871
0.99994394
0.99993976
0.99993486
0.99993005
0.99992459
0.99991899
0.99991255
0.99990558
0.99989736
0.99988812
0.99987703
0.99986411
0.99984887
0.99983105
0.9998117
0.99978811
0.99976192
0.99973346
0.99970293
1.0000146
1.0000136
1.000013
1.0000125
1.0000121
1.0000117
1.0000113
1.0000109
1.0000104
1.0000099
1.0000092
1.0000083
1.0000072
1.0000058
1.0000041
1.0000019
0.99999924
0.99999631
0.99999349
0.99999051
0.99998706
0.99998317