/*--------------------------------*- C++ -*----------------------------------*\
| =========                 |                                                 |
| \\      /  F ield         | OpenFOAM: The Open Source CFD Toolbox           |
|  \\    /   O peration     | Version:  v2006                                 |
|   \\  /    A nd           | Website:  www.openfoam.com                      |
|    \\/     M anipulation  |                                                 |
\*---------------------------------------------------------------------------*/
FoamFile
{
    version     2.0;
    format      ascii;
    class       volVectorField;
    location    "4000";
    object      U;
}
// * * * * * * * * * * * * * * * * * * * * * * * * * * * * * * * * * * * * * //

dimensions      [0 1 -1 0 0 0 0];


internalField   nonuniform List<vector> 
19765
(
(0.087538924 0.028531587 -9.1870379e-20)
(0.084735963 0.031447866 9.2435608e-20)
(0.077877957 0.033227967 -9.4814673e-20)
(0.070137434 0.033425424 0)
(0.063489768 0.032604389 0)
(0.057454314 0.030939333 2.3317616e-19)
(0.051258482 0.028481749 -1.8624371e-19)
(0.045678379 0.025703323 0)
(0.040245148 0.022367976 4.7109945e-19)
(0.034393042 0.018286767 4.0117085e-20)
(0.029589599 0.014014364 -8.0802271e-19)
(0.025811692 0.009486013 8.0469384e-19)
(0.022449847 0.0047502635 -9.0768687e-19)
(0.019623116 -0.00012880435 -1.050105e-18)
(0.017575004 -0.0051382367 1.2367918e-18)
(0.015982806 -0.010406717 0)
(0.014638375 -0.015511207 -2.2810191e-20)
(0.013713236 -0.020618902 1.8003173e-20)
(0.013204584 -0.02586011 -9.4163707e-19)
(0.013109489 -0.031197583 7.8997684e-19)
(0.013424915 -0.036678934 -3.3936517e-19)
(0.014113438 -0.042033971 5.8775538e-19)
(0.015192546 -0.047243178 -2.6604361e-19)
(0.016737705 -0.052696315 1.1220689e-20)
(0.018712645 -0.058134587 -5.4807145e-20)
(0.020873927 -0.062776454 4.3184285e-20)
(0.02322463 -0.066920591 -1.9067813e-19)
(0.02602546 -0.071422939 1.8127188e-19)
(0.029108644 -0.075772284 0)
(0.032301948 -0.079592527 3.3406113e-19)
(0.035868962 -0.083482494 -3.1847791e-19)
(0.040013179 -0.087522082 6.1079951e-19)
(0.045353807 -0.091785904 -5.8928757e-19)
(0.051195031 -0.095534817 2.840243e-19)
(0.056109874 -0.097829465 -2.7984501e-19)
(0.060732618 -0.099599013 -2.6544211e-19)
(0.066851981 -0.10181742 1.880946e-22)
(0.073428578 -0.10358731 5.1599577e-19)
(0.079460163 -0.10440765 -2.7218988e-19)
(0.087164095 -0.10529344 -2.470109e-19)
(0.096114978 -0.10571357 2.4168418e-19)
(0.10220589 -0.10420976 -1.5063179e-20)
(0.10759771 -0.10182535 -2.9707504e-20)
(0.11284136 -0.098699581 1.1930463e-19)
(0.11594646 -0.0946472 -2.7020016e-19)
(0.11837962 -0.089830824 1.2080368e-19)
(0.11837617 -0.084414538 0)
(0.11720624 -0.078949806 -1.2703017e-19)
(0.11588015 -0.074036678 0)
(0.079017468 0.016513066 1.497966e-19)
(0.075988706 0.019130256 1.4423712e-19)
(0.072439571 0.021231812 -6.8546593e-20)
(0.068604248 0.022025886 6.805397e-20)
(0.064721196 0.021914645 -3.3623038e-19)
(0.061021259 0.021099709 2.6653817e-19)
(0.057438 0.019766929 -3.2589199e-20)
(0.054140846 0.018045311 2.585555e-19)
(0.051002484 0.015938943 3.1549181e-20)
(0.047857294 0.013598839 -2.9578809e-19)
(0.044939191 0.010896789 1.5761076e-20)
(0.042431344 0.0077740056 4.7831952e-19)
(0.040206138 0.0042894311 -7.7343826e-19)
(0.038296425 0.00056921107 2.3079762e-19)
(0.036873665 -0.0033447073 -2.7049519e-19)
(0.035742049 -0.007446644 3.1202105e-19)
(0.034736297 -0.011706409 -1.8087706e-20)
(0.034074159 -0.016080358 0)
(0.033857393 -0.020544628 1.9591972e-20)
(0.034048197 -0.025063111 -2.9779583e-19)
(0.034604749 -0.029584758 2.5986025e-19)
(0.035426017 -0.034140646 2.0250815e-20)
(0.036585135 -0.038671469 7.5927199e-21)
(0.038161024 -0.043088011 -1.0698632e-20)
(0.040000779 -0.047408523 -2.700437e-20)
(0.041946978 -0.051727473 2.2571475e-20)
(0.044109685 -0.055964705 9.2355326e-20)
(0.046595878 -0.06001043 -2.9494723e-19)
(0.049334093 -0.063923441 3.6457097e-19)
(0.052304993 -0.067682227 -1.7599009e-19)
(0.055566963 -0.071188958 1.0610477e-20)
(0.059188837 -0.074351235 0)
(0.063153803 -0.077036209 1.6904437e-19)
(0.067270381 -0.079320948 -7.1513809e-23)
(0.071429088 -0.081355074 -1.5655397e-19)
(0.075725382 -0.083099552 -1.7331309e-19)
(0.080222182 -0.084369103 6.9987571e-23)
(0.084822685 -0.085131015 -1.3332655e-19)
(0.089481623 -0.085384027 1.4229805e-19)
(0.094210553 -0.08495314 1.5079627e-19)
(0.098861399 -0.083685193 1.7326749e-19)
(0.10339813 -0.081631063 -3.1912908e-19)
(0.1078343 -0.079196469 1.8232021e-19)
(0.11211585 -0.076104635 -2.115606e-20)
(0.11603678 -0.072997951 -8.7077021e-20)
(0.11954685 -0.069766457 1.8012191e-19)
(0.12258254 -0.066628429 -1.3989383e-19)
(0.12513573 -0.063939427 -4.8120257e-20)
(0.12734065 -0.061396131 9.9109372e-20)
(0.082799143 0.015737967 8.1492775e-20)
(0.080509288 0.01587249 4.2864506e-24)
(0.077848868 0.015840067 1.5884278e-19)
(0.074960109 0.015687259 -2.0006197e-24)
(0.072090963 0.015151225 -2.4949785e-19)
(0.069264945 0.014323848 3.4317521e-19)
(0.066531062 0.013188126 -8.7271262e-20)
(0.063912091 0.011864783 0)
(0.061445545 0.010244163 0)
(0.058968565 0.0084561164 4.7926195e-20)
(0.056664813 0.0063884164 0)
(0.054609329 0.003984415 5.3239057e-20)
(0.052750454 0.0012882257 5.0764987e-19)
(0.051143583 -0.0016278265 6.066523e-19)
(0.049893563 -0.0047502478 -1.0536355e-18)
(0.048879124 -0.0080673612 -3.0748989e-23)
(0.048015204 -0.011545982 4.0397309e-20)
(0.047425746 -0.015165498 -7.4348932e-19)
(0.047166892 -0.018921152 8.2813361e-19)
(0.047254467 -0.022758666 0)
(0.047670053 -0.026626162 5.0783299e-20)
(0.048314049 -0.03057917 -1.4827128e-23)
(0.049312306 -0.034526015 -1.7776903e-20)
(0.050678542 -0.03839915 -3.0825701e-20)
(0.052265364 -0.042193605 1.0877994e-19)
(0.053979765 -0.045982908 -1.2396238e-20)
(0.055982981 -0.049693679 -1.6888683e-19)
(0.058311016 -0.053238381 5.1771101e-19)
(0.060843855 -0.056673575 -3.0964024e-19)
(0.0636179 -0.059952596 3.6306187e-20)
(0.0666471 -0.062992107 2.5681874e-19)
(0.069905348 -0.065740376 -5.5294837e-19)
(0.073381747 -0.06810217 -2.6393538e-19)
(0.076908635 -0.070223848 4.8309467e-19)
(0.080485848 -0.072174958 4.6948866e-19)
(0.084182681 -0.073809508 -4.2493454e-19)
(0.08799038 -0.074999963 0)
(0.091790281 -0.07590993 1.8870306e-19)
(0.095619203 -0.076458718 -2.1038846e-19)
(0.09942675 -0.076521946 2.3084017e-19)
(0.10310393 -0.076299841 -2.3028038e-19)
(0.10661336 -0.076005808 0)
(0.11002293 -0.075319082 0)
(0.11314195 -0.074361216 2.5662609e-20)
(0.11605355 -0.073206345 0)
(0.11862727 -0.072021898 -5.1107779e-20)
(0.12095166 -0.070728217 2.0190256e-19)
(0.12307336 -0.069349176 -9.988045e-20)
(0.12503045 -0.067827657 0)
(0.081852847 0.011117434 -8.5757685e-20)
(0.080195573 0.01122924 -2.5473808e-19)
(0.078481591 0.011163054 8.2688499e-20)
(0.076678584 0.010974457 -4.2307e-19)
(0.074855077 0.010498416 3.4518729e-19)
(0.073038811 0.0098020638 3.558936e-19)
(0.071249879 0.0088615494 -2.7112356e-19)
(0.069523473 0.0077808141 3.7574641e-19)
(0.067842193 0.0064447025 4.8937403e-23)
(0.066161675 0.0050034637 -8.9105444e-19)
(0.064570596 0.0033584276 5.1819899e-19)
(0.063119012 0.0014478401 0)
(0.061783777 -0.00069903742 -5.7232249e-20)
(0.060619714 -0.0030130394 -1.0362844e-18)
(0.059698559 -0.0055252562 1.178621e-18)
(0.058947434 -0.0082343513 1.064186e-18)
(0.058319164 -0.011071577 -2.5056658e-18)
(0.057906993 -0.014032703 1.4181826e-18)
(0.057770168 -0.017148953 -8.2763209e-19)
(0.057920958 -0.020340743 1.0106197e-18)
(0.058356673 -0.023551378 0)
(0.059002299 -0.026866431 -5.7348495e-19)
(0.059924063 -0.030173955 6.693065e-19)
(0.061129209 -0.033434229 -3.6753212e-19)
(0.062540517 -0.036640803 6.1753625e-20)
(0.06410678 -0.039845626 -7.3344101e-24)
(0.065921361 -0.042972331 -1.9480993e-19)
(0.067996131 -0.045942048 5.3422784e-19)
(0.070251095 -0.048793063 -3.3201653e-19)
(0.072702815 -0.051481682 -3.5050996e-19)
(0.075342938 -0.053939508 2.9476609e-19)
(0.078136717 -0.056135572 6.6724511e-19)
(0.081054067 -0.058007262 -1.7936869e-22)
(0.083995674 -0.059662907 -5.9290195e-19)
(0.086982009 -0.061150814 4.5108593e-19)
(0.090038388 -0.062373085 -5.0118242e-19)
(0.093113366 -0.063243568 4.8813809e-19)
(0.096138746 -0.063880635 -9.6585123e-19)
(0.099151169 -0.064245198 5.0301975e-19)
(0.10208495 -0.064265419 2.0279146e-19)
(0.10488304 -0.064056525 -2.3161018e-19)
(0.10762748 -0.06375029 -5.8237812e-20)
(0.11036984 -0.06316852 2.2833684e-19)
(0.11297361 -0.062467558 -2.3170723e-19)
(0.11555107 -0.061542329 0)
(0.1180292 -0.060455543 1.1518686e-19)
(0.12049402 -0.059257183 -5.695599e-20)
(0.122904 -0.058001285 0)
(0.12526791 -0.056740793 0)
(0.082814569 0.0089442458 -8.008309e-20)
(0.081487742 0.0085661494 -2.3734966e-19)
(0.08012417 0.0081443639 3.0789074e-19)
(0.078728713 0.0077292291 7.8368065e-20)
(0.077342424 0.0071621974 2.3863824e-19)
(0.075972212 0.0064789515 -2.4441253e-19)
(0.074626744 0.0056409281 2.4698959e-19)
(0.073327213 0.0047127375 -4.2435648e-19)
(0.072063256 0.0035969381 -8.6089192e-20)
(0.070800907 0.0023954324 1.7626386e-19)
(0.069605076 0.0010275253 -8.2179297e-19)
(0.068507375 -0.0005555691 8.5293618e-19)
(0.06749483 -0.0023365989 9.8468932e-20)
(0.066608735 -0.0042704122 8.2747354e-19)
(0.065901293 -0.006383382 -1.0935378e-19)
(0.065326455 -0.0086688296 -9.303756e-19)
(0.064856635 -0.011075905 0)
(0.064561837 -0.013610663 0)
(0.064491084 -0.016298316 0)
(0.064658777 -0.019088599 -5.3919121e-19)
(0.065066153 -0.021940057 8.054356e-19)
(0.065669587 -0.024868223 -8.2233453e-19)
(0.066512628 -0.027785613 5.17322e-19)
(0.067610502 -0.030675484 -6.2228991e-20)
(0.068907647 -0.033523558 1.0484679e-23)
(0.070358128 -0.036358631 2.4273938e-20)
(0.072020002 -0.039112082 4.3925502e-20)
(0.07389999 -0.041728603 -8.0737546e-20)
(0.075936955 -0.044237555 2.2673625e-19)
(0.078133022 -0.04659443 -2.8530273e-19)
(0.08047528 -0.048748216 0)
(0.082931656 -0.050680033 -5.8472759e-19)
(0.08547342 -0.052341989 1.0027762e-18)
(0.088024264 -0.053825909 -4.300791e-19)
(0.090589198 -0.055163806 -4.222165e-19)
(0.09318297 -0.056277941 1.4186698e-22)
(0.095770957 -0.057109356 9.2261321e-19)
(0.098301027 -0.057770086 -4.5781196e-19)
(0.10079548 -0.05822661 0)
(0.10322027 -0.058427625 0)
(0.1055397 -0.05848748 -1.6627938e-19)
(0.10779739 -0.058539335 2.2340559e-19)
(0.11003912 -0.058385489 5.4952396e-20)
(0.11217965 -0.058232025 3.3475959e-19)
(0.11430721 -0.057939776 -5.5248856e-20)
(0.11636204 -0.057628424 -2.7922891e-19)
(0.11838378 -0.057255458 5.5796801e-20)
(0.12036905 -0.056735837 0)
(0.12231487 -0.056032657 -3.6341053e-23)
(0.083589618 0.0066604742 4.2244833e-24)
(0.082603515 0.0062882929 -5.8085705e-24)
(0.081598347 0.0058594112 0)
(0.080570559 0.005414331 -3.6202106e-19)
(0.079552704 0.0048505857 7.3127453e-20)
(0.078544159 0.0041951732 2.2354637e-19)
(0.077546359 0.0034215233 7.4972019e-20)
(0.07657807 0.0025735871 1.5360017e-19)
(0.075628338 0.0015808549 7.7520389e-20)
(0.074674258 0.00051146057 -1.5767359e-19)
(0.073768726 -0.00069329547 0)
(0.072937095 -0.0020701813 -2.5020184e-19)
(0.072170563 -0.0036099706 -8.5903796e-20)
(0.071502568 -0.0052831375 1.7848571e-19)
(0.070976026 -0.0071083939 0)
(0.070559309 -0.0090818283 -1.9570074e-19)
(0.070234321 -0.011169178 1.0385541e-18)
(0.070058064 -0.013373488 -8.9580184e-19)
(0.070073116 -0.015708181 0)
(0.070294694 -0.018132752 9.6433235e-19)
(0.070732261 -0.020612231 -1.2767658e-18)
(0.071353169 -0.023151829 7.8418378e-19)
(0.072178501 -0.02569374 -4.5341062e-19)
(0.073229012 -0.028224406 1.1000405e-19)
(0.074461608 -0.030719097 -9.6565418e-20)
(0.075839449 -0.033194024 -1.3012767e-19)
(0.077400205 -0.03559396 1.1845237e-19)
(0.079146464 -0.037872166 3.6476818e-19)
(0.081031477 -0.040045753 -6.1735589e-19)
(0.083049602 -0.042080108 1.3151865e-22)
(0.085184424 -0.043935809 4.9698366e-19)
(0.087407133 -0.04559767 4.7827492e-19)
(0.089690557 -0.047030825 -4.6341069e-19)
(0.091978113 -0.048299837 -1.1384311e-19)
(0.094270118 -0.049430314 0)
(0.096570525 -0.050372465 4.3949579e-19)
(0.098850245 -0.051088131 -1.0855125e-22)
(0.10107277 -0.051652505 -4.2926057e-19)
(0.10325333 -0.052048252 0)
(0.10536771 -0.052245746 0)
(0.107396 -0.05231783 -1.0460589e-19)
(0.10936956 -0.052343915 5.2690628e-20)
(0.11133391 -0.052210016 -5.1944363e-20)
(0.11322605 -0.052032234 -5.2711726e-19)
(0.11512482 -0.051729703 4.6988577e-19)
(0.1169922 -0.051361333 0)
(0.11887841 -0.0509004 -5.2691304e-20)
(0.12077645 -0.050347421 0)
(0.12268114 -0.049666952 2.0762247e-19)
(0.084664193 0.0051443639 6.9329122e-20)
(0.083861069 0.0046822684 -1.3662449e-19)
(0.083047762 0.0041981616 -2.6561951e-19)
(0.082228454 0.0037181333 5.3679475e-19)
(0.081426819 0.0031570779 -4.0552669e-19)
(0.080639573 0.0025313718 0)
(0.079863804 0.0018171359 5.5028797e-19)
(0.079113856 0.0010430259 -7.0095232e-20)
(0.078379485 0.00015382136 3.305127e-23)
(0.077642686 -0.00080361602 -9.2728201e-19)
(0.076945958 -0.0018752155 -2.8661717e-23)
(0.07630904 -0.0030902418 5.9580585e-19)
(0.075725768 -0.0044438219 6.0913537e-19)
(0.075223296 -0.0059155896 -1.4122712e-18)
(0.074836689 -0.0075201388 6.4970485e-19)
(0.07454409 -0.0092554373 8.4359758e-19)
(0.074334357 -0.011096588 -1.5920912e-18)
(0.074253711 -0.013045099 1.9279181e-23)
(0.074337372 -0.015109359 6.0794648e-19)
(0.074599068 -0.017257541 -8.8996562e-19)
(0.075046655 -0.019463612 7.5156908e-19)
(0.075657579 -0.021723474 5.16205e-19)
(0.076447002 -0.023986936 2.2686441e-19)
(0.077436745 -0.026243744 -1.9430586e-19)
(0.078591613 -0.028471879 1.3403881e-21)
(0.079882398 -0.030680359 -7.7492392e-20)
(0.081335422 -0.032821646 0)
(0.082949404 -0.034856848 1.3175583e-19)
(0.084685681 -0.036799272 -1.2444524e-19)
(0.086535926 -0.038618972 1.1847995e-19)
(0.088483388 -0.04028381 0)
(0.090502675 -0.041782871 0)
(0.092568546 -0.043088019 4.2766226e-19)
(0.094635245 -0.044254308 -4.2159001e-19)
(0.096699827 -0.045302859 -4.1625526e-19)
(0.098762937 -0.046192826 8.1890766e-19)
(0.10080094 -0.04689351 -9.4479498e-23)
(0.10278726 -0.047472778 -1.0057286e-19)
(0.10473211 -0.047915527 -3.9777162e-19)
(0.10661862 -0.048194786 -3.9303795e-19)
(0.10843316 -0.048376628 4.4348657e-19)
(0.11020253 -0.048540239 0)
(0.11195687 -0.04857192 -1.9610823e-19)
(0.11365897 -0.048595076 1.9888472e-19)
(0.11536323 -0.048522108 -1.9711003e-19)
(0.11704813 -0.048423229 9.9574943e-20)
(0.11874762 -0.048266591 0)
(0.12046143 -0.048047049 1.9828547e-19)
(0.12219901 -0.047708237 -1.9602919e-19)
(0.085655406 0.0037650183 -1.9382116e-19)
(0.085025933 0.0033220805 1.2725354e-19)
(0.084387288 0.0028554284 2.4742431e-19)
(0.083743397 0.0023850537 -1.2466407e-19)
(0.083115792 0.0018489063 -3.7582596e-19)
(0.082500382 0.0012587294 7.6037033e-19)
(0.081893809 0.00059622615 -8.8717269e-19)
(0.081308302 -0.00011883529 5.1467562e-19)
(0.080735358 -0.00092853674 -1.2890915e-19)
(0.080160807 -0.0018007065 -1.2992831e-19)
(0.079620658 -0.002770423 -5.2800154e-19)
(0.079131074 -0.0038606825 9.6105419e-24)
(0.07868766 -0.0050694976 -1.4455969e-23)
(0.078312968 -0.006382787 8.3737627e-19)
(0.078036432 -0.0078112809 0)
(0.077842484 -0.0093543827 -2.9541656e-19)
(0.077724506 -0.010994436 0)
(0.077721246 -0.012731365 3.2247889e-19)
(0.07786255 -0.014569449 -1.7152004e-19)
(0.07816122 -0.016482681 0)
(0.078624907 -0.018449765 -4.8452967e-23)
(0.079239249 -0.020463749 -2.1713111e-19)
(0.08001434 -0.02248256 0)
(0.080968195 -0.024497187 -1.7226448e-19)
(0.082072939 -0.026487433 7.5322777e-20)
(0.083304589 -0.02845689 3.4727189e-20)
(0.084681172 -0.030365015 0)
(0.086199346 -0.032177709 -1.1928766e-19)
(0.087826974 -0.033903623 -1.1308646e-19)
(0.089554044 -0.035517986 -1.0815433e-19)
(0.091363643 -0.036994227 0)
(0.093232713 -0.03832329 -2.0232002e-19)
(0.095138006 -0.039482765 0)
(0.097042298 -0.040515549 -9.757616e-20)
(0.098941502 -0.041439177 8.5995475e-23)
(0.10083321 -0.042223721 8.327734e-23)
(0.10269687 -0.042846551 3.7711766e-19)
(0.10451186 -0.043359668 4.7038551e-19)
(0.10628577 -0.043753331 -7.4141052e-23)
(0.10800472 -0.044008362 -6.985113e-23)
(0.10965943 -0.044173637 -7.4230603e-19)
(0.11127135 -0.044306794 6.780054e-23)
(0.11286789 -0.044327099 3.7009557e-19)
(0.11441851 -0.044320104 1.8749775e-19)
(0.11597201 -0.044224232 -1.8607953e-19)
(0.11751106 -0.044084613 9.3912592e-20)
(0.11906841 -0.043876652 9.380674e-20)
(0.12064616 -0.043594076 -1.8705932e-19)
(0.1222541 -0.043200141 2.7750661e-19)
(0.08666422 0.0027449341 1.2052392e-19)
(0.086150398 0.0023012574 -4.1535714e-19)
(0.08562968 0.0018425908 0)
(0.085107842 0.0013828704 -4.6438288e-19)
(0.084602816 0.00087108844 9.3129081e-19)
(0.084110537 0.00031480888 -4.6974205e-19)
(0.083627186 -0.00030156875 -1.171995e-19)
(0.083163102 -0.0009644185 1.1855504e-19)
(0.082710989 -0.0017073183 2.3691575e-19)
(0.082259482 -0.0025074341 0)
(0.081839131 -0.0033926567 0)
(0.081463374 -0.0043816222 -1.2169091e-19)
(0.081129047 -0.0054738854 0)
(0.080855199 -0.006659319 -2.5052131e-19)
(0.080666781 -0.0079461905 0)
(0.08055252 -0.0093347186 -7.8503767e-19)
(0.080508764 -0.010811743 5.3946308e-19)
(0.080568318 -0.012376114 -5.6196e-19)
(0.08075656 -0.014029663 8.8789731e-19)
(0.081084983 -0.015750891 6.321861e-19)
(0.081560284 -0.017522283 -5.1578578e-19)
(0.082172972 -0.019336017 1.858537e-19)
(0.082930566 -0.021155309 -1.7652029e-19)
(0.083847955 -0.022970841 1.4610651e-23)
(0.08490305 -0.024765474 6.8464909e-20)
(0.086075893 -0.026539983 -6.2428251e-20)
(0.087379235 -0.028259299 0)
(0.088808345 -0.02989375 1.0817819e-19)
(0.090335784 -0.031449777 1.0296668e-19)
(0.091951087 -0.032906317 0)
(0.093637966 -0.034241006 -1.9120454e-19)
(0.095375752 -0.035446756 3.7258389e-19)
(0.097143153 -0.036505153 0)
(0.098909018 -0.037452566 -9.0413778e-19)
(0.10066851 -0.038303974 7.1817734e-19)
(0.10241793 -0.039034742 0)
(0.10413921 -0.039626145 3.5216406e-19)
(0.1058163 -0.040123599 -3.5217176e-19)
(0.10745446 -0.040518747 0)
(0.10904223 -0.040794565 2.6061801e-19)
(0.1105725 -0.040994027 -3.4911988e-19)
(0.11206488 -0.041170656 0)
(0.11353817 -0.041248994 8.7173364e-20)
(0.11497302 -0.04131193 -3.5314683e-19)
(0.11640587 -0.041299708 3.5078502e-19)
(0.11782655 -0.041259298 3.5391624e-19)
(0.11926091 -0.041167254 -4.4187157e-19)
(0.12071224 -0.041020243 4.4064793e-19)
(0.12219002 -0.040773318 -4.3596926e-19)
(0.087606994 0.001857193 -5.6290426e-20)
(0.087192964 0.0014398374 1.1086234e-19)
(0.086772324 0.0010074879 2.1571941e-19)
(0.086350398 0.00057041138 5.4150475e-19)
(0.085943756 8.9026413e-05 -5.4197381e-19)
(0.085548603 -0.00043172362 -4.3637484e-19)
(0.085161758 -0.0010045092 9.7789144e-19)
(0.0847922 -0.0016199423 -5.4795452e-19)
(0.084434177 -0.0023045503 -5.461416e-19)
(0.084078449 -0.0030423856 8.7471531e-19)
(0.083751551 -0.0038554835 -4.4067193e-19)
(0.083464965 -0.0047589179 2.2201621e-19)
(0.083216514 -0.0057532303 2.2352118e-19)
(0.083022531 -0.0068310864 9.0526133e-19)
(0.08290451 -0.0079986794 -9.1923943e-19)
(0.082854226 -0.0092567354 0)
(0.082870046 -0.01059548 0)
(0.082980169 -0.012012983 4.4788305e-23)
(0.083206431 -0.01350931 0)
(0.08355917 -0.015066384 5.4744861e-19)
(0.084044568 -0.01666903 -5.8877479e-19)
(0.084656745 -0.018309384 6.4462007e-19)
(0.085401533 -0.019955639 -3.1389596e-19)
(0.086290717 -0.021597666 4.8008283e-19)
(0.087306787 -0.023220871 -6.1523308e-20)
(0.088432535 -0.024824045 -1.1261577e-19)
(0.089676859 -0.026376467 -1.0452553e-19)
(0.091034278 -0.027851762 -2.9514075e-19)
(0.092481123 -0.029254214 -5.6362022e-19)
(0.094006753 -0.030565816 1.8102619e-19)
(0.095595508 -0.031767327 1.7569624e-19)
(0.097228523 -0.032852676 -1.7174644e-19)
(0.098886175 -0.033806467 -6.752158e-19)
(0.10054194 -0.034658462 1.3412634e-18)
(0.10219059 -0.035421351 -6.674219e-19)
(0.10382715 -0.036075588 0)
(0.10543523 -0.036606165 -4.9360969e-19)
(0.10700154 -0.037050262 4.9451492e-19)
(0.10852976 -0.037401879 1.6418257e-19)
(0.11000958 -0.03764765 -2.4506157e-19)
(0.11143541 -0.037822004 -1.642369e-19)
(0.11282402 -0.037967953 0)
(0.11419155 -0.038026116 -8.2180376e-20)
(0.11552161 -0.038061109 -2.4963092e-19)
(0.11684662 -0.038026243 5.7911165e-19)
(0.11815786 -0.037956771 -2.5039178e-19)
(0.11947921 -0.037833556 -1.6677773e-19)
(0.12081409 -0.037652577 -2.4946815e-19)
(0.12217216 -0.037378188 -1.6463622e-19)
(0.088509165 0.0011659974 5.2649201e-19)
(0.088169864 0.00076848977 2.0735994e-19)
(0.087824794 0.00035827469 -5.0464879e-19)
(0.087479469 -5.7278504e-05 4.0470813e-19)
(0.087148503 -0.00051070069 -8.0887204e-19)
(0.086828581 -0.00099906231 3.0462982e-19)
(0.086516937 -0.0015331511 3.0290516e-19)
(0.086221486 -0.0021065425 -4.0623834e-19)
(0.085937596 -0.0027407688 0)
(0.085657814 -0.0034245291 -8.0667901e-19)
(0.085405279 -0.0041756209 8.1001137e-19)
(0.085189967 -0.0050064528 -8.1316244e-19)
(0.085010473 -0.0059180922 6.1176427e-19)
(0.084880998 -0.0069050885 -4.1116784e-19)
(0.084820229 -0.0079721311 1.2466429e-18)
(0.084822169 -0.009120178 8.4154101e-19)
(0.084886565 -0.010341743 -1.2858319e-18)
(0.085037874 -0.011634349 2.2031196e-19)
(0.085295002 -0.012996898 1.3713478e-18)
(0.085667198 -0.014414015 -9.5985977e-19)
(0.086160236 -0.015872138 -5.1139077e-19)
(0.086770273 -0.017363898 5.5551826e-19)
(0.08750206 -0.018861776 -9.6536438e-19)
(0.08836495 -0.020354553 2.4641103e-19)
(0.089344898 -0.021830019 -5.5487867e-20)
(0.090426983 -0.023286041 1.0194474e-19)
(0.091617357 -0.024695308 9.4967983e-20)
(0.092910064 -0.026034433 5.380957e-19)
(0.094284402 -0.027306403 -1.7181683e-19)
(0.095729887 -0.028495726 4.9800706e-19)
(0.097231635 -0.029585774 0)
(0.098772446 -0.030571539 0)
(0.10033424 -0.031440112 0)
(0.10189413 -0.032216846 3.1105973e-19)
(0.10344676 -0.032912826 -3.1023373e-19)
(0.10498654 -0.033511896 3.0871233e-19)
(0.10649843 -0.03400153 -3.0754627e-19)
(0.10797151 -0.034414044 1.542744e-19)
(0.10940817 -0.0347446 -6.1599844e-19)
(0.11079906 -0.03498169 4.6057082e-19)
(0.11213949 -0.035155267 -1.5444637e-19)
(0.11344509 -0.035304018 3.1170792e-19)
(0.11472696 -0.035374643 0)
(0.11597408 -0.035426408 -7.839144e-20)
(0.11721198 -0.0354166 1.5600583e-19)
(0.11843533 -0.035378879 -1.5728847e-19)
(0.11966381 -0.035295838 3.1440907e-19)
(0.12090156 -0.035165492 1.5680399e-19)
(0.12215652 -0.034950729 -2.2742849e-23)
(0.089349847 0.00057811194 -2.9578601e-19)
(0.089073278 0.00020716976 0)
(0.088791446 -0.00017645698 -7.7620726e-24)
(0.088509239 -0.0005675235 0)
(0.088240137 -0.00099209758 -3.778066e-19)
(0.08798124 -0.001448678 9.4673339e-20)
(0.087730453 -0.0019463147 5.6401252e-19)
(0.087494804 -0.0024807562 1.8865967e-19)
(0.087270774 -0.003069454 -5.617304e-19)
(0.087052315 -0.0037046 -7.4590006e-19)
(0.086859852 -0.0044005772 7.4670544e-19)
(0.086702196 -0.0051676326 0)
(0.086578592 -0.0060071387 3.7349862e-19)
(0.08650153 -0.0069150054 -3.7512392e-19)
(0.086487436 -0.0078947085 7.5511707e-19)
(0.086531989 -0.0089472954 -7.6143161e-19)
(0.086635913 -0.01006697 5.377935e-23)
(0.086820613 -0.011250871 7.8946135e-19)
(0.087102586 -0.012497065 -1.221717e-18)
(0.087490169 -0.013792277 8.4951286e-19)
(0.087988832 -0.015124184 -1.1231119e-18)
(0.088595912 -0.016485913 -2.4185947e-19)
(0.089315597 -0.017853585 0)
(0.090155436 -0.019215141 0)
(0.091103675 -0.020560206 0)
(0.092147449 -0.021886104 0)
(0.093290792 -0.023168331 0)
(0.0945275 -0.024385919 1.6391289e-19)
(0.095839292 -0.025540714 -6.2966646e-19)
(0.097215941 -0.02661923 3.0512912e-19)
(0.098643296 -0.027606846 5.9581635e-19)
(0.10010552 -0.028499198 -5.8591838e-19)
(0.10158583 -0.029285242 5.7912657e-19)
(0.10306418 -0.0299863 -5.7773911e-19)
(0.1045351 -0.03061195 2.8868357e-19)
(0.1059924 -0.031148868 -2.879679e-19)
(0.10742204 -0.031586624 4.3131095e-19)
(0.10881456 -0.031952654 5.7784774e-19)
(0.11017136 -0.03224339 -2.8906509e-19)
(0.11148357 -0.03244943 -1.4044513e-24)
(0.11274717 -0.032595874 0)
(0.11397604 -0.032715442 -1.4671635e-19)
(0.11517908 -0.032763926 1.4602222e-19)
(0.11634706 -0.032790501 2.9559456e-19)
(0.11750242 -0.032759914 -3.680561e-19)
(0.11864058 -0.032699633 -3.7105088e-19)
(0.11977937 -0.032594939 2.9675561e-19)
(0.12092253 -0.032443951 0)
(0.12207741 -0.032214591 1.4676112e-19)
(0.090140762 0.00010880669 -2.7718652e-19)
(0.089914026 -0.00023904851 -2.7293703e-19)
(0.08968268 -0.00059898197 2.659641e-19)
(0.089451293 -0.00096732464 0)
(0.089232052 -0.0013655593 -2.6502438e-19)
(0.089022518 -0.0017932353 -6.2727481e-24)
(0.088821098 -0.0022581206 5.2590285e-19)
(0.088634112 -0.0027575258 -5.265057e-19)
(0.088458896 -0.0033058209 5.216841e-19)
(0.088290599 -0.003897677 0)
(0.088147327 -0.0045448638 0)
(0.088036958 -0.005255933 0)
(0.087959261 -0.0060323961 -3.4319826e-19)
(0.087925338 -0.0068711294 -6.8691755e-19)
(0.087949734 -0.0077746787 1.3779555e-18)
(0.088029411 -0.0087440748 -1.3842675e-18)
(0.088165783 -0.0097747227 3.4951671e-19)
(0.088377709 -0.0108635 2.4627799e-23)
(0.088679675 -0.012007893 7.3047165e-19)
(0.089079212 -0.013196289 3.7888859e-19)
(0.089581459 -0.014417414 -1.9770819e-23)
(0.090184501 -0.015664857 0)
(0.090892118 -0.016917749 2.1693272e-19)
(0.091710434 -0.018163627 -2.012326e-19)
(0.092629372 -0.019393494 0)
(0.093637789 -0.020604388 -8.4308882e-20)
(0.094738119 -0.021774251 0)
(0.095924032 -0.022884229 1.5011942e-19)
(0.097179224 -0.023935373 -2.891348e-19)
(0.098493796 -0.024915897 -5.6167179e-19)
(0.099854321 -0.025812918 8.7921382e-23)
(0.10124616 -0.02662271 8.1313937e-19)
(0.10265372 -0.027335859 -5.371568e-19)
(0.10405925 -0.027970685 2.684605e-19)
(0.10545731 -0.02853569 0)
(0.10684139 -0.02901981 -8.0618282e-19)
(0.10819835 -0.029414336 4.0640977e-23)
(0.10952005 -0.02974327 -5.4128213e-19)
(0.11080711 -0.030003982 4.0687407e-19)
(0.11205118 -0.030188585 -4.0695543e-19)
(0.11324866 -0.03031897 7.4975813e-23)
(0.1144125 -0.030424263 6.9062991e-19)
(0.11554865 -0.030465587 1.3763942e-19)
(0.11665057 -0.030486927 -2.7868005e-19)
(0.11773661 -0.030456969 -2.7778578e-19)
(0.1188038 -0.03040083 3.5009718e-19)
(0.11986724 -0.030305385 7.0012035e-20)
(0.12093088 -0.030169973 1.3974857e-19)
(0.12200038 -0.029963205 -2.0798398e-19)
(0.090877141 -0.00028329444 0)
(0.090692231 -0.00060716004 -8.5340325e-20)
(0.090503346 -0.00094310186 0)
(0.090314451 -0.0012886987 0)
(0.090136782 -0.0016614578 0)
(0.089968279 -0.0020616951 0)
(0.089807867 -0.0024960575 -6.5469612e-19)
(0.089661258 -0.0029630211 6.5411872e-19)
(0.089526549 -0.0034744422 6.4712107e-19)
(0.089399867 -0.0040268633 -1.2835507e-18)
(0.089297376 -0.0046299402 6.3912839e-19)
(0.089226195 -0.00529084 0)
(0.089186534 -0.0060111207 6.3231954e-19)
(0.089188346 -0.0067883676 -3.1548097e-19)
(0.089244611 -0.007624381 -3.154263e-19)
(0.089353295 -0.0085201161 1.2631846e-18)
(0.089516302 -0.0094718601 -6.3558387e-19)
(0.089750352 -0.010476314 -6.4447079e-19)
(0.090068245 -0.011530551 1.7259616e-23)
(0.090476812 -0.012624284 3.4010594e-19)
(0.090980855 -0.013747134 -3.5562789e-19)
(0.091579 -0.014893066 -3.7763408e-19)
(0.092274678 -0.016043662 3.8863574e-19)
(0.093072879 -0.017186426 0)
(0.093964827 -0.018313383 8.3124722e-20)
(0.094940781 -0.019421368 -3.5203585e-25)
(0.096001945 -0.020490436 0)
(0.097141959 -0.02150353 0)
(0.098346163 -0.022461041 0)
(0.099605008 -0.023352575 1.0359091e-18)
(0.10090574 -0.024166663 -5.1497252e-23)
(0.10223475 -0.024900029 -7.5322592e-19)
(0.10357747 -0.025544549 4.9882809e-19)
(0.10491801 -0.026115913 0)
(0.10625091 -0.026621624 -2.5048888e-19)
(0.10756941 -0.027052438 2.5097213e-19)
(0.10886107 -0.027401047 -2.5162039e-19)
(0.11011865 -0.027688295 7.610044e-19)
(0.11134208 -0.02791237 0)
(0.11252336 -0.028066799 0)
(0.11365919 -0.028170426 5.1491448e-19)
(0.11476131 -0.028248548 -5.2037964e-19)
(0.11583403 -0.028268143 5.1928866e-19)
(0.11687197 -0.028266877 -3.9428453e-19)
(0.11789113 -0.028218244 0)
(0.11888905 -0.028143636 -6.6102419e-20)
(0.11987918 -0.028031768 -6.61247e-20)
(0.12086513 -0.02788232 -1.9810261e-19)
(0.12185169 -0.027667121 -1.3107501e-19)
(0.091566459 -0.00059817531 -3.253671e-19)
(0.091415896 -0.00090050761 8.0102071e-20)
(0.091262016 -0.0012147113 1.5627664e-19)
(0.09110835 -0.0015392993 0)
(0.090965179 -0.0018887351 0)
(0.090830808 -0.0022638889 1.5465431e-19)
(0.090704574 -0.0026705182 1.5298657e-19)
(0.090591679 -0.0031079521 0)
(0.090490826 -0.0035860673 0)
(0.090398968 -0.0041027746 2.9840255e-19)
(0.090330593 -0.0046660545 0)
(0.090292186 -0.0052819538 0)
(0.090284314 -0.0059520147 -5.8390689e-19)
(0.090315967 -0.0066743419 2.9050431e-19)
(0.090398797 -0.0074501502 0)
(0.090531558 -0.0082802827 -5.7833722e-19)
(0.090716501 -0.0091616691 -5.8008936e-19)
(0.090968525 -0.0100909 5.8625784e-19)
(0.091299 -0.011064764 1.194136e-18)
(0.091714139 -0.012074048 -6.1401095e-19)
(0.092218409 -0.013109152 -6.3894794e-19)
(0.092810833 -0.014164361 3.3751653e-19)
(0.093494508 -0.015223282 -3.5002107e-19)
(0.09427348 -0.016273625 -8.3318309e-20)
(0.095140033 -0.017308194 7.715058e-20)
(0.096085571 -0.018323704 0)
(0.097110333 -0.019302062 2.6569122e-19)
(0.098207988 -0.020227787 0)
(0.099365243 -0.021100778 4.9033883e-19)
(0.1005729 -0.021911836 -2.9177302e-23)
(0.10181885 -0.022650723 -4.705022e-19)
(0.10309037 -0.023314596 -6.8306233e-23)
(0.10437381 -0.023896464 -4.6362501e-19)
(0.10565483 -0.024409943 -4.6489555e-19)
(0.10692803 -0.024861784 -1.1679506e-18)
(0.10818653 -0.025244313 9.3811353e-19)
(0.10941856 -0.025551474 0)
(0.11061766 -0.025801686 -2.3781251e-19)
(0.1117833 -0.025993859 0)
(0.11290783 -0.026122721 4.7999636e-19)
(0.11398823 -0.026204846 2.4234483e-19)
(0.11503538 -0.02626275 -5.8858036e-23)
(0.11605184 -0.026267696 -4.8987757e-19)
(0.1170337 -0.026253069 4.4981545e-24)
(0.11799434 -0.026195694 -2.4763618e-19)
(0.11893212 -0.026114776 2.4969266e-19)
(0.11985861 -0.026000367 -2.4985715e-19)
(0.12077745 -0.025852915 5.6166689e-19)
(0.12169198 -0.025645593 6.1965266e-20)
(0.092209032 -0.00085583774 -3.0559506e-19)
(0.092087522 -0.0011374486 7.5231568e-20)
(0.091963363 -0.0014308676 2.9371897e-19)
(0.091839569 -0.0017353685 7.3176435e-19)
(0.091725635 -0.0020628368 -5.816103e-19)
(0.091620167 -0.002414542 -1.4486419e-19)
(0.091522878 -0.0027954769 -1.4315573e-19)
(0.091438524 -0.0032056051 -5.7005221e-19)
(0.091366322 -0.0036531796 8.4356451e-19)