/*--------------------------------*- C++ -*----------------------------------*\
| =========                 |                                                 |
| \\      /  F ield         | OpenFOAM: The Open Source CFD Toolbox           |
|  \\    /   O peration     | Version:  v2006                                 |
|   \\  /    A nd           | Website:  www.openfoam.com                      |
|    \\/     M anipulation  |                                                 |
\*---------------------------------------------------------------------------*/
FoamFile
{
    version     2.0;
    format      ascii;
    class       volVectorField;
    location    "4000";
    object      UMean;
}
// * * * * * * * * * * * * * * * * * * * * * * * * * * * * * * * * * * * * * //

dimensions      [0 1 -1 0 0 0 0];


internalField   nonuniform List<vector> 
19765
(
(0.089853695 0.029987599 -8.9792685e-20)
(0.087237417 0.033153964 9.0202951e-20)
(0.080419988 0.035159265 -9.2339195e-20)
(0.072662165 0.035565347 0)
(0.066009034 0.03495943 0)
(0.059967749 0.033512521 2.2551532e-19)
(0.053715251 0.031258302 -1.7962135e-19)
(0.048112655 0.028651415 0)
(0.042592778 0.025473294 4.5153353e-19)
(0.03657122 0.021519469 3.8326437e-20)
(0.0316366 0.017378979 -7.6847865e-19)
(0.027757896 0.012953001 7.6158366e-19)
(0.024283604 0.0082876392 -8.5403605e-19)
(0.021348226 0.0034873756 -9.8099913e-19)
(0.019207364 -0.001413176 1.1449876e-18)
(0.017480375 -0.0065840968 0)
(0.015951698 -0.011660127 -2.1784123e-20)
(0.014849163 -0.016702797 1.8402053e-20)
(0.01420792 -0.02188421 -9.981746e-19)
(0.013996585 -0.027160838 8.5645221e-19)
(0.014200373 -0.032569418 -3.7288554e-19)
(0.014764846 -0.037874893 6.5057089e-19)
(0.015707349 -0.043040649 -2.9549395e-19)
(0.017110224 -0.048427386 1.2440902e-20)
(0.018929947 -0.053806347 -6.0234717e-20)
(0.020926227 -0.058448095 4.6905922e-20)
(0.023114267 -0.062619045 -2.0520647e-19)
(0.025747849 -0.06712777 1.9368506e-19)
(0.028661274 -0.071493545 0)
(0.031695295 -0.075353065 3.5318687e-19)
(0.035106139 -0.079276824 -3.3538264e-19)
(0.039088098 -0.083337694 6.4111004e-19)
(0.044234443 -0.087608796 -6.1676306e-19)
(0.049877982 -0.091387209 2.9654257e-19)
(0.054647586 -0.093764146 -2.915227e-19)
(0.059153457 -0.095627816 -2.7597093e-19)
(0.065118614 -0.097919523 1.8755003e-22)
(0.071539587 -0.099776455 5.3461208e-19)
(0.077446414 -0.10070828 -2.8158047e-19)
(0.084987396 -0.10169858 -2.5519136e-19)
(0.093755981 -0.10222895 2.4935603e-19)
(0.099765129 -0.10088421 -1.5521163e-20)
(0.10509783 -0.098679498 -3.0568054e-20)
(0.11030671 -0.095758739 1.2270904e-19)
(0.11343002 -0.091913959 -2.7733351e-19)
(0.11591589 -0.087335285 1.2398906e-19)
(0.11602083 -0.082168123 0)
(0.11499626 -0.07695049 -1.2999811e-19)
(0.11381482 -0.072262504 0)
(0.081161546 0.017439786 1.4662588e-19)
(0.078131957 0.020242226 1.4114253e-19)
(0.074568454 0.022592311 -6.7051219e-20)
(0.070709262 0.023591569 6.6565171e-20)
(0.066784536 0.023669858 -3.2888682e-19)
(0.063027376 0.023029688 2.6078468e-19)
(0.059377455 0.021865427 -3.1889812e-20)
(0.056004709 0.020293985 2.5314831e-19)
(0.052788913 0.018332542 3.089739e-20)
(0.04956873 0.016123325 -2.8976897e-19)
(0.046565513 0.013529518 1.5448872e-20)
(0.043962549 0.010500299 4.6910067e-19)
(0.041639275 0.007106798 -7.5872761e-19)
(0.039628348 0.003473294 2.2646986e-19)
(0.038095464 -0.00036406325 -2.654597e-19)
(0.036849883 -0.0043886982 3.0600748e-19)
(0.035720991 -0.0085646893 -1.771737e-20)
(0.034915465 -0.012864087 0)
(0.034548279 -0.017273782 1.9353079e-20)
(0.034589502 -0.021750401 -2.9975029e-19)
(0.03499892 -0.026238979 2.6507709e-19)
(0.03567632 -0.030763701 2.0828521e-20)
(0.036688932 -0.035264906 7.8497744e-21)
(0.038112499 -0.039660745 -1.1088301e-20)
(0.039795965 -0.04396544 -2.7986949e-20)
(0.041585445 -0.048265016 2.3369094e-20)
(0.043593633 -0.052484466 9.5551837e-20)
(0.045926797 -0.056524802 -3.0490809e-19)
(0.048510638 -0.060439997 3.7654005e-19)
(0.051328336 -0.064204255 -1.8163664e-19)
(0.054441176 -0.067724757 1.0944227e-20)
(0.057915131 -0.070910981 0)
(0.061733663 -0.073634699 1.7418296e-19)
(0.065704051 -0.075972845 -7.0841456e-23)
(0.069716438 -0.078065374 -1.611833e-19)
(0.073871678 -0.079871288 -1.7841056e-19)
(0.078236184 -0.081212717 6.9855897e-23)
(0.082708296 -0.082060896 -1.372063e-19)
(0.087242694 -0.082408613 1.4642923e-19)
(0.091857773 -0.082085428 1.5517161e-19)
(0.096403721 -0.080948254 1.7828042e-19)
(0.10083309 -0.079054628 -3.2832573e-19)
(0.10517008 -0.076785113 1.8753469e-19)
(0.10936427 -0.073847473 -2.1761217e-20)
(0.11321531 -0.070903705 -8.9474433e-20)
(0.11667076 -0.067810022 1.852933e-19)
(0.11966886 -0.064803653 -1.4383199e-19)
(0.12220878 -0.062222056 -4.9445853e-20)
(0.12440186 -0.059815976 1.017762e-19)
(0.084570251 0.016969794 7.9880509e-20)
(0.082284306 0.017220738 5.864036e-24)
(0.079626553 0.017294482 1.5556039e-19)
(0.076728045 0.017245369 -1.4828258e-25)
(0.073834411 0.016805604 -2.440163e-19)
(0.07097257 0.016070574 3.3545446e-19)
(0.068195831 0.015021829 -8.524978e-20)
(0.065523308 0.013783836 0)
(0.062998823 0.012243677 0)
(0.060464559 0.010540739 4.6716032e-20)
(0.058094702 0.0085529226 0)
(0.055965333 0.0062205182 5.1807445e-20)
(0.054029744 0.0035933575 4.9331007e-19)
(0.052338404 0.00074500135 5.8859703e-19)
(0.05099424 -0.0023163022 -1.0202509e-18)
(0.049882699 -0.0055717056 -2.9297033e-23)
(0.048915416 -0.0089816499 3.8829993e-20)
(0.048211766 -0.012536859 -7.1102198e-19)
(0.047835472 -0.016241219 7.8665002e-19)
(0.047802329 -0.020037119 0)
(0.048095928 -0.023869896 5.1806112e-20)
(0.048621424 -0.027787326 -1.6006869e-23)
(0.049493056 -0.031699579 -1.8958279e-20)
(0.050725985 -0.035547325 -3.2956338e-20)
(0.052179079 -0.039322738 1.1558013e-19)
(0.053761719 -0.043092964 -1.3067214e-20)
(0.055631099 -0.04678732 -1.7706706e-19)
(0.057823746 -0.050326086 5.4051248e-19)
(0.060222384 -0.053760609 -3.2217775e-19)
(0.062861935 -0.057041974 3.7680002e-20)
(0.065758464 -0.060091416 2.6601848e-19)
(0.068887461 -0.062857634 -5.7183495e-19)
(0.072238582 -0.065247687 -2.726019e-19)
(0.075646348 -0.067400489 4.9835273e-19)
(0.079106383 -0.069380366 4.8389877e-19)
(0.082689137 -0.071048756 -4.3770568e-19)
(0.086391021 -0.07228541 0)
(0.090092282 -0.07324519 1.9416773e-19)
(0.093825449 -0.073848502 -2.1639745e-19)
(0.097547129 -0.073978017 2.3734772e-19)
(0.10114961 -0.073826198 -2.3666412e-19)
(0.10458581 -0.073596115 0)
(0.107931 -0.072984223 0)
(0.11099519 -0.072116294 2.6340712e-20)
(0.11385873 -0.071038932 0)
(0.11639503 -0.06993502 -5.2521118e-20)
(0.11868303 -0.068726482 2.0776308e-19)
(0.12076569 -0.067435422 -1.0283828e-19)
(0.12269206 -0.066010055 0)
(0.083302782 0.012079234 -8.4573958e-20)
(0.081625667 0.012297935 -2.5114576e-19)
(0.079894672 0.012329554 8.1465639e-20)
(0.078073785 0.012236494 -4.1658182e-19)
(0.07622499 0.011851258 3.3968686e-19)
(0.07437723 0.011241865 3.5003127e-19)
(0.072554643 0.010383857 -2.6643846e-19)
(0.070786167 0.0093820336 3.6903293e-19)
(0.069062072 0.0081202423 4.9638942e-23)
(0.067337774 0.0067537935 -8.7327475e-19)
(0.065693959 0.0051801292 5.0737753e-19)
(0.064181508 0.0033362288 0)
(0.06278167 0.0012536909 -5.5890444e-20)
(0.061546027 -0.00099923406 -1.0104072e-18)
(0.060545087 -0.0034565361 1.1470258e-18)
(0.059711446 -0.006112311 1.0327322e-18)
(0.058996664 -0.008895227 -2.4230605e-18)
(0.058488826 -0.01180634 1.3657927e-18)
(0.058248747 -0.014878847 -7.9267521e-19)
(0.058290097 -0.018036606 9.6036322e-19)
(0.058611506 -0.021226236 0)
(0.059143887 -0.024516811 -5.9380426e-19)
(0.059946348 -0.027798309 7.0947221e-19)
(0.061030301 -0.031043138 -3.9112554e-19)
(0.062320966 -0.034241841 6.5240665e-20)
(0.063767562 -0.037440957 -8.3399505e-24)
(0.065461745 -0.040563035 -2.0287156e-19)
(0.067416291 -0.043536018 5.5400638e-19)
(0.069552786 -0.04639675 -3.4317338e-19)
(0.071886848 -0.049098256 -3.6141341e-19)
(0.07441198 -0.051575217 3.0335696e-19)
(0.077095161 -0.053797448 6.8565874e-19)
(0.079907005 -0.055702326 -1.7702323e-22)
(0.082748624 -0.057395497 -6.0778598e-19)
(0.085636343 -0.058921768 4.6198921e-19)
(0.088596742 -0.060185731 -5.1296026e-19)
(0.091583286 -0.061104591 4.9933885e-19)
(0.094527104 -0.061793889 -9.8744051e-19)
(0.097460859 -0.062213215 5.1406361e-19)
(0.10032397 -0.062293002 2.0717355e-19)
(0.1030599 -0.062147066 -2.3651696e-19)
(0.10574119 -0.061903854 -5.9449287e-20)
(0.10842069 -0.061388751 2.3304941e-19)
(0.11096792 -0.060756821 -2.3642235e-19)
(0.11348984 -0.059906544 0)
(0.11591416 -0.058901681 1.1756368e-19)
(0.11832468 -0.057782376 -5.8185044e-20)
(0.12068544 -0.056601248 0)
(0.12300497 -0.05539984 0)
(0.084080252 0.009960534 -7.9174905e-20)
(0.082741175 0.0096450316 -2.3453388e-19)
(0.081366112 0.0092841087 3.0403065e-19)
(0.079956862 0.0089314963 7.7350907e-20)
(0.07855051 0.0084249121 2.3542155e-19)
(0.077154978 0.0078012511 -2.4101429e-19)
(0.075781051 0.0070213117 2.4340204e-19)
(0.074446598 0.0061506264 -4.1801568e-19)
(0.073145609 0.0050907593 -8.4735897e-20)
(0.071844664 0.0039465795 1.7336139e-19)
(0.07060307 0.002635171 -8.0775292e-19)
(0.069452494 0.0011068326 8.377405e-19)
(0.068382676 -0.00062024098 9.6615402e-20)
(0.067432885 -0.0025018083 8.1105862e-19)
(0.066654511 -0.0045659946 -1.0704441e-19)
(0.066005508 -0.0068036457 -9.0904057e-19)
(0.065458262 -0.0091626235 0)
(0.065079636 -0.011652004 0)
(0.064919134 -0.014297889 0)
(0.064991908 -0.017050416 -5.1992692e-19)
(0.065300264 -0.019871564 7.8582498e-19)
(0.065803154 -0.022771978 -8.3344043e-19)
(0.066539716 -0.025664011 5.3997337e-19)
(0.067529749 -0.028536859 -6.5356272e-20)
(0.068718724 -0.031374296 9.9884227e-24)
(0.070060915 -0.034201206 2.5209634e-20)
(0.071613637 -0.036949024 4.5423983e-20)
(0.073385067 -0.039566803 -8.3225087e-20)
(0.075315591 -0.042082117 2.3312997e-19)
(0.077406765 -0.044448696 -2.9278346e-19)
(0.079647065 -0.046617658 0)
(0.082005769 -0.048570138 -5.9846175e-19)
(0.084454788 -0.050258107 1.0253164e-18)
(0.086918452 -0.051770508 -4.3932696e-19)
(0.089399247 -0.053137135 -4.3097353e-19)
(0.091912535 -0.054282842 1.3985556e-22)
(0.094426637 -0.055151091 9.4081218e-19)
(0.096889291 -0.055850337 -4.6660581e-19)
(0.099320093 -0.056346863 0)
(0.10168773 -0.056591558 0)
(0.10395704 -0.056696007 -1.6929791e-19)
(0.10616617 -0.056788974 2.2737106e-19)
(0.10836098 -0.05667962 5.5915107e-20)
(0.11046044 -0.056568829 3.4050746e-19)
(0.11254806 -0.056321321 -5.6185037e-20)
(0.11456792 -0.056054086 -2.8388805e-19)
(0.11655829 -0.055727046 5.6713734e-20)
(0.11851501 -0.055266901 0)
(0.12043723 -0.054628912 -3.4884298e-23)
(0.084693402 0.0075775307 3.2348821e-24)
(0.083690428 0.0072657117 -4.819031e-24)
(0.082671799 0.0068942369 0)
(0.081629075 0.0065055816 -3.5809311e-19)
(0.080592414 0.0059961214 7.2305009e-20)
(0.079561163 0.0053935858 2.2096538e-19)
(0.078538488 0.0046713647 7.4068757e-20)
(0.077540176 0.0038739248 1.517047e-19)
(0.076558442 0.0029304397 7.651592e-20)
(0.075570754 0.0019111546 -1.5554345e-19)
(0.074625549 0.00075582856 0)
(0.073747914 -0.00057296337 -2.4658358e-19)
(0.072931021 -0.0020653129 -8.4598005e-20)
(0.072206855 -0.0036924031 1.7564719e-19)
(0.071617413 -0.0054744856 0)
(0.071134074 -0.007405952 -1.9216156e-19)
(0.070739051 -0.009451434 1.0181246e-18)
(0.070486908 -0.011616242 -8.7661492e-19)
(0.070420256 -0.01391489 0)
(0.070554842 -0.016307249 9.3866426e-19)
(0.070899957 -0.018760921 -1.2373875e-18)
(0.071426096 -0.021277698 7.7957507e-19)
(0.072152589 -0.023798477 -4.6768792e-19)
(0.073102055 -0.026314057 1.1438736e-19)
(0.074232644 -0.028800071 -1.0010576e-19)
(0.075508182 -0.031269656 -1.3426415e-19)
(0.07696639 -0.033667419 1.2182094e-19)
(0.078611152 -0.035949858 3.7423599e-19)
(0.08039668 -0.038132745 -6.3212918e-19)
(0.08231714 -0.04017987 1.2789344e-22)
(0.084357423 -0.042053228 5.0755158e-19)
(0.086489809 -0.043737561 4.8800671e-19)
(0.088687675 -0.045197608 -4.7248663e-19)
(0.09089457 -0.046496317 -1.1598861e-19)
(0.093108821 -0.047657542 0)
(0.095335152 -0.048632627 4.4735795e-19)
(0.097546766 -0.049384618 -1.0730963e-22)
(0.099706767 -0.049987137 -4.3664119e-19)
(0.10182835 -0.050422055 0)
(0.10388937 -0.050660501 0)
(0.10586982 -0.050774527 -1.0633317e-19)
(0.10779697 -0.050842345 5.3546747e-20)
(0.10971601 -0.050751624 -5.278263e-20)
(0.11156695 -0.050618133 -5.3548561e-19)
(0.11342479 -0.05036149 4.7729546e-19)
(0.11525349 -0.050040743 0)
(0.11710114 -0.049629344 -5.3508235e-20)
(0.11896241 -0.049126975 0)
(0.12083524 -0.048501987 2.1080486e-19)
(0.085655789 0.006041561 6.8749535e-20)
(0.08483574 0.0056222257 -1.3543444e-19)
(0.084007581 0.0051799538 -2.6318407e-19)
(0.083172808 0.0047423949 5.3173626e-19)
(0.082352524 0.0042228292 -4.0159026e-19)
(0.081543687 0.0036383757 0)
(0.080744348 0.0029649831 5.4462144e-19)
(0.079966766 0.0022317832 -6.9357823e-20)
(0.079202727 0.0013831438 3.4389937e-23)
(0.078434696 0.00046754039 -9.1675414e-19)
(0.077701587 -0.00056217513 -3.0669061e-23)
(0.077022824 -0.0017357844 5.8865683e-19)
(0.076393681 -0.0030480017 6.0150912e-19)
(0.075840185 -0.0044791055 -1.3938885e-18)
(0.075396593 -0.0060449469 6.4085978e-19)
(0.075043344 -0.0077423447 8.3128905e-19)
(0.074769638 -0.0095456875 -1.5670183e-18)
(0.074619848 -0.011458265 1.3346542e-23)
(0.074629194 -0.013489397 5.9664598e-19)
(0.074811953 -0.01560755 -8.7157436e-19)
(0.075175998 -0.017788291 7.3384711e-19)
(0.075701075 -0.020026189 5.1272119e-19)
(0.076401276 -0.022270271 2.3200441e-19)
(0.077298895 -0.024512503 -2.0064336e-19)
(0.078360495 -0.026731476 1.3815062e-21)
(0.079557577 -0.028934121 -7.9578445e-20)
(0.080916682 -0.031072864 0)
(0.082437785 -0.03311115 1.3470323e-19)
(0.084083133 -0.035060906 -1.2703126e-19)
(0.085844349 -0.036891041 1.2080067e-19)
(0.087705781 -0.038570483 0)
(0.089642886 -0.040088038 0)
(0.091630918 -0.041415267 4.3509565e-19)
(0.093624283 -0.042605501 -4.2866823e-19)
(0.09561857 -0.04367841 -4.2306075e-19)
(0.097614997 -0.044594339 8.3206161e-19)
(0.09959164 -0.045323726 -9.3068864e-23)
(0.10152152 -0.045932502 -1.021333e-19)
(0.10341331 -0.04640523 -4.0389201e-19)
(0.10525162 -0.046716001 -3.9903712e-19)
(0.10702271 -0.04692957 4.5016034e-19)
(0.10875007 -0.047122948 0)
(0.11046389 -0.047185799 -1.9900318e-19)
(0.1121289 -0.047238985 2.0177986e-19)
(0.11379671 -0.047197158 -1.9996566e-19)
(0.11544723 -0.047129083 1.0100328e-19)
(0.11711309 -0.04700402 0)
(0.11879455 -0.046817287 2.010927e-19)
(0.12050192 -0.046514612 -1.9879295e-19)
(0.086536126 0.0046022909 -1.9242495e-19)
(0.085890285 0.0041983596 1.2629797e-19)
(0.08523745 0.0037692723 2.454691e-19)
(0.08457878 0.0033363226 -1.2365391e-19)
(0.083933892 0.002836533 -3.7269657e-19)
(0.083298692 0.0022823424 7.5391399e-19)
(0.082670596 0.0016554492 -8.7937823e-19)
(0.082060081 0.00097605515 5.1008581e-19)
(0.081460151 0.00020181436 -1.2771362e-19)
(0.080857002 -0.00063378101 -1.286834e-19)
(0.080283721 -0.0015667709 -5.2284048e-19)
(0.079756133 -0.0026205674 6.5676112e-24)
(0.079270933 -0.0037928641 -1.6760616e-23)
(0.078849782 -0.0050700845 8.283609e-19)
(0.078521384 -0.0064640359 0)
(0.078271966 -0.0079732873 -2.9189095e-19)
(0.078095224 -0.0095796138 0)
(0.078028429 -0.011284392 3.1805628e-19)
(0.078101371 -0.013092784 -1.6896711e-19)
(0.078327268 -0.014979128 0)
(0.078713865 -0.01692322 -4.7574215e-23)
(0.079248435 -0.018917481 -2.1541378e-19)
(0.079940712 -0.020919484 0)
(0.080808786 -0.022921249 -1.7694784e-19)
(0.081826362 -0.024903447 7.7289745e-20)
(0.082970242 -0.026868363 3.5531324e-20)
(0.084258909 -0.028775344 0)
(0.08569019 -0.030592111 -1.2161788e-19)
(0.087232724 -0.032326172 -1.1514934e-19)
(0.088876583 -0.033951783 -1.1002563e-19)
(0.090605839 -0.03544314 0)
(0.092398172 -0.036790881 -2.0555677e-19)
(0.094230784 -0.03797226 0)
(0.096066539 -0.0390289 -9.9050641e-20)
(0.097900156 -0.039977118 8.430877e-23)
(0.099729749 -0.040787683 8.1814587e-23)
(0.10153614 -0.041438659 3.8254043e-19)
(0.10329832 -0.041980803 4.7705792e-19)
(0.10502259 -0.042403905 -7.3257743e-23)
(0.10669628 -0.042689357 -6.9195549e-23)
(0.10830991 -0.042885383 -7.525978e-19)
(0.10988226 -0.04304859 6.7261676e-23)
(0.11144054 -0.043099752 3.7515843e-19)
(0.11295591 -0.043123799 1.9003628e-19)
(0.11447458 -0.043059939 -1.8859254e-19)
(0.11598048 -0.042953195 9.5172874e-20)
(0.11750497 -0.042779594 9.5059414e-20)
(0.11905063 -0.042533265 -1.8955044e-19)
(0.12062816 -0.042178011 2.8119729e-19)
(0.087460522 0.0035463171 1.1975632e-19)
(0.086930378 0.0031333938 -4.1260757e-19)
(0.086395034 0.0027048146 0)
(0.085858309 0.0022756723 -4.6109207e-19)
(0.085336318 0.0017939073 9.2453456e-19)
(0.084825049 0.0012677085 -4.662824e-19)
(0.084321157 0.00068141971 -1.1630992e-19)
(0.083833605 4.9049567e-05 1.1764686e-19)
(0.083356147 -0.00066325156 2.3503505e-19)
(0.082877745 -0.0014315814 0)
(0.082426517 -0.0022846339 0)
(0.082015573 -0.0032413949 -1.2066383e-19)
(0.081642576 -0.0043012051 0)
(0.081325841 -0.0054543813 -2.482702e-19)
(0.081089673 -0.00671011 0)
(0.080924215 -0.0080680134 -7.7729767e-19)
(0.080826086 -0.0095145353 5.3378017e-19)
(0.080826903 -0.011049748 -5.5565983e-19)
(0.08095198 -0.012676282 8.7714598e-19)
(0.081213167 -0.014372999 6.238047e-19)
(0.081617402 -0.016123085 -5.0812868e-19)
(0.082156368 -0.017918493 1.8408302e-19)
(0.082837485 -0.019722602 -1.7819012e-19)
(0.083675529 -0.02152639 1.5113237e-23)
(0.084649778 -0.023313453 7.0015752e-20)
(0.085741105 -0.025083803 -6.3691896e-20)
(0.086962812 -0.026802225 0)
(0.088311262 -0.028440453 1.1004913e-19)
(0.089759729 -0.030003871 1.0463986e-19)
(0.091297892 -0.031470618 0)
(0.092910326 -0.032818887 -1.9405131e-19)
(0.094576981 -0.034041228 3.7796334e-19)
(0.09627697 -0.035118913 0)
(0.097979222 -0.036087096 -9.1655228e-19)
(0.099677948 -0.036959703 7.2784069e-19)
(0.10136986 -0.037712723 0)
(0.10303799 -0.038328032 3.5681906e-19)
(0.10466593 -0.038849793 -3.5677465e-19)
(0.10625788 -0.03926936 0)
(0.10780335 -0.039570322 2.6400493e-19)
(0.10929502 -0.039794874 -3.5362025e-19)
(0.11075024 -0.039995232 0)
(0.11218782 -0.040097973 8.8287569e-20)
(0.11358953 -0.040184524 -3.5762723e-19)
(0.11498988 -0.04019653 3.5523293e-19)
(0.11637958 -0.040180176 3.5837934e-19)
(0.11778341 -0.040112796 -4.4743401e-19)
(0.11920507 -0.03999134 4.4618389e-19)
(0.12065464 -0.039772304 -4.4144702e-19)
(0.088323388 0.0026129871 -5.5976324e-20)
(0.087894071 0.002222916 1.1021868e-19)
(0.087459604 0.0018171289 2.1440909e-19)
(0.087023523 0.0014068802 5.3815352e-19)
(0.086600922 0.00095181646 -5.3855106e-19)
(0.086187989 0.00045745385 -4.3358713e-19)
(0.085781909 -8.8882058e-05 9.7147591e-19)
(0.085390512 -0.00067745429 -5.4433689e-19)
(0.085008837 -0.001335005 -5.4242127e-19)
(0.084627905 -0.002044688 8.686182e-19)
(0.084272223 -0.0028292035 -4.3756627e-19)
(0.083952965 -0.0037039197 2.2042721e-19)
(0.083668596 -0.0046692147 2.2187547e-19)
(0.08343484 -0.0057181254 8.9843612e-19)
(0.083272623 -0.006857639 -9.1209402e-19)
(0.083174852 -0.0080880399 0)
(0.083140125 -0.0093992559 0)
(0.083195667 -0.010790399 4.3873665e-23)
(0.083363246 -0.012262265 0)
(0.083653507 -0.013797144 5.4151137e-19)
(0.084072936 -0.015380364 -5.8166403e-19)
(0.084616425 -0.017004016 6.3661531e-19)
(0.085289921 -0.018636712 -3.1485062e-19)
(0.086105095 -0.020268302 4.8956335e-19)
(0.087045479 -0.021884789 -6.2747318e-20)
(0.088094806 -0.023484606 -1.1463378e-19)
(0.089262591 -0.025036858 -1.0625384e-19)
(0.09054436 -0.026516294 -2.9970845e-19)
(0.091917095 -0.027926282 -5.7185292e-19)
(0.093370352 -0.029248142 1.8355368e-19)
(0.094889252 -0.030463044 1.7806741e-19)
(0.096455476 -0.031564564 -1.7400158e-19)
(0.098049779 -0.03253701 -6.8389363e-19)
(0.099645705 -0.033409134 1.3581151e-18)
(0.10123725 -0.034192724 -6.7566768e-19)
(0.10281982 -0.034868663 0)
(0.10437792 -0.035422368 -4.9963459e-19)
(0.10589792 -0.03589005 5.0049927e-19)
(0.10738268 -0.036265399 1.6616796e-19)
(0.10882264 -0.036535467 -2.4802227e-19)
(0.11021201 -0.036734157 -1.662113e-19)
(0.11156568 -0.036903637 0)
(0.11289969 -0.036985791 -8.3165555e-20)
(0.11419866 -0.037044553 -2.5260493e-19)
(0.11549321 -0.037034009 5.8601936e-19)
(0.11677544 -0.036989193 -2.5336804e-19)
(0.11806819 -0.036891505 -1.6875852e-19)
(0.11937519 -0.036737278 -2.5243192e-19)
(0.1207066 -0.036491571 -1.6659475e-19)
(0.089159562 0.0018850853 5.2387648e-19)
(0.088805451 0.0015103411 2.0629394e-19)
(0.088446742 0.0011225172 -5.01939e-19)
(0.088087555 0.00072985638 4.0250447e-19)
(0.087741156 0.00029906207 -8.0439487e-19)
(0.087404224 -0.00016642967 3.029302e-19)
(0.087074225 -0.0006774292 3.0117786e-19)
(0.086758126 -0.001227205 -4.0391693e-19)
(0.086451868 -0.0018374948 0)
(0.086148213 -0.0024962465 -8.0185442e-19)
(0.085868583 -0.0032218289 8.0513519e-19)
(0.085622665 -0.0040269081 -8.0821697e-19)
(0.085409553 -0.0049124389 6.0794886e-19)
(0.08524293 -0.0058732988 -4.0855477e-19)
(0.085140982 -0.0069148696 1.2385075e-18)
(0.085098624 -0.0080377882 8.357612e-19)
(0.085115799 -0.0092343589 -1.2764743e-18)
(0.085216156 -0.010503008 2.1861641e-19)
(0.085418538 -0.011843299 1.3600483e-18)
(0.085732478 -0.013240204 -9.5126003e-19)
(0.086164058 -0.014680589 -5.0631231e-19)
(0.086709989 -0.016157087 5.4925249e-19)
(0.087375234 -0.01764271 -9.6677932e-19)
(0.088169054 -0.019126168 2.5061585e-19)
(0.089078148 -0.020595626 -5.6469723e-20)
(0.090088628 -0.022048834 1.0358013e-19)
(0.091207279 -0.023458339 9.6380941e-20)
(0.092429086 -0.02480164 5.4562324e-19)
(0.093733951 -0.026080893 -1.7409225e-19)
(0.09511162 -0.027280023 5.0434318e-19)
(0.096547907 -0.028382696 0)
(0.098026094 -0.029383538 0)
(0.099528447 -0.03026935 0)
(0.10103214 -0.031064558 3.1466544e-19)
(0.10253118 -0.031779445 -3.1378184e-19)
(0.10402027 -0.032398201 3.122255e-19)
(0.10548516 -0.032908638 -3.1103887e-19)
(0.10691457 -0.03334217 1.56018e-19)
(0.10831022 -0.033693716 -6.2296422e-19)
(0.10966337 -0.033952154 4.6579186e-19)
(0.11096916 -0.034146907 -1.5619307e-19)
(0.11224155 -0.034315786 3.1522066e-19)
(0.1134917 -0.034406839 0)
(0.11470924 -0.034478396 -7.9276176e-20)
(0.11591832 -0.034488683 1.5777165e-19)
(0.11711417 -0.03447089 -1.5906683e-19)
(0.11831568 -0.034408177 3.1796692e-19)
(0.11952715 -0.034298781 1.5858112e-19)
(0.120757 -0.034106657 -2.2622305e-23)
(0.089939433 0.0012589462 -2.9448233e-19)
(0.089648973 0.00090808317 0)
(0.089354199 0.0005442185 -7.2845329e-24)
(0.089058772 0.00017335614 0)
(0.088775025 -0.00023120089 -3.75973e-19)
(0.08850003 -0.00066749635 9.4211155e-20)
(0.08823186 -0.0011445876 5.6121106e-19)
(0.087976738 -0.0016579477 1.8772595e-19)
(0.08773158 -0.0022252056 -5.588809e-19)
(0.087490511 -0.0028379137 -7.4206437e-19)
(0.087272495 -0.0035109434 7.4285802e-19)
(0.087086078 -0.0042547666 0)
(0.086930897 -0.0050706745 3.7152291e-19)
(0.086819003 -0.0059548628 -3.7310764e-19)
(0.086766376 -0.0069114151 7.5097112e-19)
(0.086769442 -0.0079411433 -7.5703886e-19)
(0.086829089 -0.0090381024 5.2627116e-23)
(0.086966044 -0.010200222 7.8439274e-19)
(0.087196753 -0.011426168 -1.2133301e-18)
(0.087529805 -0.012702992 8.4319438e-19)
(0.087970952 -0.014018768 -1.1138657e-18)
(0.088517986 -0.015366636 -2.3960514e-19)
(0.089175321 -0.016723256 0)
(0.089950414 -0.018076572 0)
(0.09083208 -0.019416409 0)
(0.091808484 -0.020740107 0)
(0.092884317 -0.022023077 0)
(0.094054257 -0.02324505 1.660009e-19)
(0.095300591 -0.024407143 -6.372998e-19)
(0.096613342 -0.02549536 3.0868777e-19)
(0.097978995 -0.026495297 6.0257916e-19)
(0.099382144 -0.027402236 -5.9242399e-19)
(0.10080634 -0.028204863 5.8546088e-19)
(0.10223159 -0.028923694 -5.8395508e-19)
(0.1036519 -0.029567605 2.9175739e-19)
(0.10506135 -0.030123526 -2.9102591e-19)
(0.10644654 -0.030581285 4.3588817e-19)
(0.10779776 -0.030967559 5.8396459e-19)
(0.10911578 -0.031278547 -2.9213185e-19)
(0.1103923 -0.03150514 -2.741695e-25)
(0.1116231 -0.031672022 0)
(0.11282067 -0.031811241 -1.4827731e-19)
(0.11399388 -0.031879592 1.4758493e-19)
(0.1151341 -0.031925637 2.9875426e-19)
(0.1162625 -0.031914783 -3.7200806e-19)
(0.11737502 -0.031874261 -3.7503593e-19)
(0.11848871 -0.031789797 2.9994966e-19)
(0.11960747 -0.031659751 0)
(0.12073903 -0.031452795 1.4835069e-19)
(0.09067766 0.00075566169 -2.7609675e-19)
(0.090437666 0.00042509631 -2.7183239e-19)
(0.090193804 8.2309015e-05 2.6484698e-19)
(0.089949644 -0.0002683583 0)
(0.089716339 -0.00064897615 -2.6389279e-19)
(0.089491425 -0.0010586916 -6.7316736e-24)
(0.089273407 -0.0015052876 5.2362337e-19)
(0.089067926 -0.0019858325 -5.2424187e-19)
(0.088872635 -0.002514862 5.1939606e-19)
(0.088682823 -0.0030865038 0)
(0.088515339 -0.0037129549 0)
(0.088377818 -0.0044029692 0)
(0.088270336 -0.0051580057 -3.416552e-19)
(0.088203613 -0.0059751967 -6.8379628e-19)
(0.088191801 -0.0068576269 1.3715751e-18)
(0.088232477 -0.0078061589 -1.3775573e-18)
(0.088327189 -0.0088160993 3.477284e-19)
(0.088494225 -0.0098850237 2.1070435e-23)
(0.088748031 -0.011010965 7.2628212e-19)
(0.089096366 -0.012182615 3.7653869e-19)
(0.089544622 -0.013389073 -1.737562e-23)
(0.090091293 -0.014623942 0)
(0.09074036 -0.01586686 2.1713554e-19)
(0.091497845 -0.017105464 -2.0382075e-19)
(0.092354136 -0.018330821 0)
(0.093299072 -0.01954006 -8.5421257e-20)
(0.094335765 -0.020711083 0)
(0.095458716 -0.021825588 1.518751e-19)
(0.096652159 -0.022883971 -2.9236012e-19)
(0.097906462 -0.023873995 -5.677285e-19)
(0.099208776 -0.02478292 8.5243047e-23)
(0.10054485 -0.025606673 8.215226e-19)
(0.1018994 -0.026335578 -5.4262562e-19)
(0.10325474 -0.02698722 2.7115419e-19)
(0.10460496 -0.027569469 0)
(0.10594381 -0.028071448 -8.1420932e-19)
(0.1072587 -0.028484641 3.9661817e-23)
(0.10854123 -0.028832361 -5.4667999e-19)
(0.1097915 -0.02911177 4.1094914e-19)
(0.11100163 -0.029315228 -4.1105942e-19)
(0.11216785 -0.029464238 7.3960219e-23)
(0.11330187 -0.029587287 6.9761233e-19)
(0.11440967 -0.029646452 1.3904143e-19)
(0.11548513 -0.029685057 -2.8151997e-19)
(0.11654558 -0.029672461 -2.8063478e-19)
(0.11758843 -0.029633469 3.5369332e-19)
(0.11862813 -0.029555382 7.0733873e-20)
(0.11966872 -0.029437707 1.4119632e-19)
(0.12071624 -0.02924992 -2.1014759e-19)
(0.091365919 0.00033028806 0)
(0.091168531 2.1726204e-05 -8.5033095e-20)
(0.090967739 -0.00029899158 0)
(0.090766641 -0.00062885231 0)
(0.090575572 -0.0009858708 0)
(0.090392435 -0.0013700047 0)
(0.090216218 -0.0017879118 -6.5222098e-19)
(0.090052046 -0.0022378532 6.5167424e-19)
(0.089898257 -0.0027318339 6.4466744e-19)
(0.089751085 -0.0032659305 -1.2786577e-18)
(0.089625612 -0.0038501727 6.3671106e-19)
(0.089528733 -0.0044919092 0)
(0.0894609 -0.005192666 6.2990752e-19)
(0.089431736 -0.0059502576 -3.1426698e-19)
(0.089453871 -0.0067669649 -3.1419507e-19)
(0.08952578 -0.0076436255 1.25804e-18)
(0.089649481 -0.0085764659 -6.3286029e-19)
(0.089841208 -0.0095628086 -6.4157093e-19)
(0.090113731 -0.010600224 1.8442486e-23)
(0.090474088 -0.011678712 3.3834281e-19)
(0.090927309 -0.012788246 -3.5358964e-19)
(0.091472394 -0.013922803 -3.751884e-19)
(0.092112947 -0.01506444 3.8885883e-19)
(0.092853847 -0.016200827 0)
(0.093686703 -0.017323968 8.4218278e-20)
(0.094602694 -0.018430837 -2.3449934e-26)
(0.095603713 -0.019501488 0)
(0.096684196 -0.020519295 0)
(0.097829992 -0.021484069 0)
(0.099031827 -0.022385014 1.0462813e-18)
(0.10027748 -0.023210752 -5.1260677e-23)
(0.1015537 -0.023957679 -7.6047707e-19)
(0.10284619 -0.02461742 5.0357552e-19)
(0.10413913 -0.025205012 0)
(0.10542669 -0.02572739 -2.5283306e-19)
(0.10670233 -0.026175451 2.5332534e-19)
(0.10795409 -0.026542031 -2.5398799e-19)
(0.10917448 -0.026847371 7.6817375e-19)
(0.11036303 -0.027089467 0)
(0.11151211 -0.027262043 0)
(0.11261827 -0.027383613 5.1985582e-19)
(0.11369219 -0.027478943 -5.2538467e-19)
(0.11473816 -0.027515784 5.2432821e-19)
(0.1157512 -0.027531293 -3.9811802e-19)
(0.11674637 -0.027499494 0)
(0.11772154 -0.027441568 -6.6752069e-20)
(0.11868958 -0.027346587 -6.6777792e-20)
(0.11965414 -0.027214395 -2.0006694e-19)
(0.12062035 -0.027017525 -1.3238279e-19)
(0.092012416 -1.5240523e-05 -3.2434768e-19)
(0.091850011 -0.00030413791 7.9845398e-20)
(0.091684711 -0.00060489325 1.5576035e-19)
(0.091519321 -0.00091549234 0)
(0.091363315 -0.0012508621 0)
(0.091214959 -0.001611555 1.5414731e-19)
(0.091073618 -0.0020033434 1.5248193e-19)
(0.090943989 -0.002425367 0)
(0.090824947 -0.0028876411 0)
(0.090713531 -0.0033876772 2.974246e-19)
(0.090623284 -0.0039337873 0)
(0.090560489 -0.0045321849 0)
(0.0905259 -0.0051843979 -5.8201924e-19)
(0.090528218 -0.0058887401 2.8956147e-19)
(0.090578785 -0.0066468574 0)
(0.090676779 -0.007459516 -5.7635994e-19)
(0.090824543 -0.0083236157 -5.7800899e-19)
(0.091036565 -0.0092363039 5.8404964e-19)
(0.091324194 -0.010194822 1.1893464e-18)
(0.09169383 -0.011190228 -6.1134589e-19)
(0.092150148 -0.012213254 -6.3588357e-19)
(0.092692517 -0.013258197 3.3568591e-19)
(0.093324184 -0.014309098 -3.5007114e-19)
(0.094049079 -0.015353892 -8.4112837e-20)
(0.0948598 -0.016385297 7.8082637e-20)
(0.095748601 -0.017400193 0)
(0.096716424 -0.018380519 2.6848394e-19)
(0.0977577 -0.019311132 0)
(0.098859625 -0.020191409 4.9505679e-19)
(0.10001328 -0.021011785 -3.0824199e-23)
(0.10120705 -0.021762075 -4.7480799e-19)
(0.10242852 -0.022439114 -6.6374803e-23)
(0.10366432 -0.023035672 -4.6777089e-19)
(0.10490017 -0.023564766 -4.6901729e-19)
(0.10613035 -0.024032632 -1.1782695e-18)
(0.10734819 -0.024431691 9.464252e-19)
(0.10854231 -0.024755987 0)
(0.10970606 -0.025023391 -2.3993962e-19)
(0.11083853 -0.025232635 0)
(0.11193241 -0.025378602 4.8436504e-19)
(0.11298451 -0.025477564 2.4456291e-19)
(0.11400479 -0.02555155 -5.8059098e-23)
(0.11499583 -0.025572523 -4.9442393e-19)
(0.11595398 -0.025573374 3.7748273e-24)
(0.11689186 -0.025531423 -2.4996313e-19)
(0.11780807 -0.025465656 2.5204904e-19)
(0.1187137 -0.025366452 -2.5223005e-19)
(0.11961236 -0.025234375 5.6703154e-19)
(0.12050776 -0.025043329 6.2561522e-20)
(0.092615884 -0.00030227455 -3.0473993e-19)
(0.092483199 -0.00057191655 7.5016913e-20)
(0.092348163 -0.00085330425 2.9285799e-19)
(0.092213159 -0.0011452438 7.2962751e-19)
(0.092086968 -0.0014600298 -5.7991647e-19)
(0.091968156 -0.00179865 -1.4444789e-19)
(0.091856438 -0.0021661108 -1.4274375e-19)
(0.091756132 -0.0025622092 -5.6844942e-19)