/*--------------------------------*- C++ -*----------------------------------*\
| =========                 |                                                 |
| \\      /  F ield         | OpenFOAM: The Open Source CFD Toolbox           |
|  \\    /   O peration     | Version:  v2006                                 |
|   \\  /    A nd           | Website:  www.openfoam.com                      |
|    \\/     M anipulation  |                                                 |
\*---------------------------------------------------------------------------*/
FoamFile
{
    version     2.0;
    format      ascii;
    class       volVectorField;
    location    "4000";
    object      wallShearStress;
}
// * * * * * * * * * * * * * * * * * * * * * * * * * * * * * * * * * * * * * //

dimensions      [1 -1 -2 0 0 0 0];


internalField   uniform (0 0 0);

boundaryField
{
    Side
    {
        type            empty;
    }
    Inlet
    {
        type            calculated;
        value           uniform (0 0 0);
    }
    Wing
    {
        type            calculated;
        value           nonuniform List<vector> 
139
(
(-3.0072918e-05 -1.0263019e-05 3.1914514e-23)
(-2.9142715e-05 -1.0472235e-05 -3.1784412e-23)
(-2.6606851e-05 -9.4367701e-06 3.1751143e-23)
(-2.2640657e-05 -8.9320252e-06 0)
(-1.9635754e-05 -8.1720767e-06 -2.9387359e-39)
(-1.6798448e-05 -7.2550927e-06 -6.4976127e-23)
(-1.4566595e-05 -5.9264544e-06 4.8567077e-23)
(-1.2058426e-05 -4.698415e-06 0)
(-1.0408132e-05 -3.2330114e-06 -1.0506208e-22)
(-8.5603544e-06 -1.8898816e-06 -8.0288373e-24)
(-6.9831652e-06 -8.9643273e-07 1.464069e-22)
(-5.8614537e-06 -1.8425776e-07 -1.2949098e-22)
(-4.8632406e-06 3.9727126e-07 1.3059794e-22)
(-4.1598009e-06 8.6525198e-07 1.3747616e-22)
(-3.8383663e-06 1.3072834e-06 -1.5359179e-22)
(-3.7388402e-06 1.8863536e-06 -1.1754944e-38)
(-3.7763884e-06 2.5834869e-06 3.0693803e-24)
(-3.834033e-06 3.4391944e-06 -2.6331252e-24)
(-3.9829359e-06 4.4289925e-06 1.5070523e-22)
(-4.29945e-06 5.5772733e-06 -1.3808258e-22)
(-4.6466943e-06 6.9069689e-06 6.4865494e-23)
(-4.9606905e-06 8.3178704e-06 -1.2205981e-22)
(-5.6630317e-06 9.7836596e-06 5.9459907e-23)
(-6.5611653e-06 1.1476024e-05 -2.7090379e-24)
(-7.0378542e-06 1.331488e-05 1.4172189e-23)
(-7.3166351e-06 1.5089834e-05 -1.1787551e-23)
(-8.5015259e-06 1.6705576e-05 5.4986177e-23)
(-9.9582994e-06 1.8628365e-05 -5.5166901e-23)
(-1.085539e-05 2.0692531e-05 -1.4693679e-39)
(-1.2365114e-05 2.2670591e-05 -1.1238526e-22)
(-1.4446102e-05 2.4697615e-05 1.1236245e-22)
(-1.7013829e-05 2.6829078e-05 -2.2813103e-22)
(-2.0284916e-05 2.9856779e-05 2.2920533e-22)
(-2.2124542e-05 3.3342858e-05 -1.149155e-22)
(-2.3917073e-05 3.6359075e-05 1.162618e-22)
(-2.7131116e-05 3.8283625e-05 1.1422496e-22)
(-3.1332541e-05 4.0559838e-05 2.0540512e-25)
(-3.4344774e-05 4.3473228e-05 -2.3496636e-22)
(-3.8660063e-05 4.5329138e-05 1.2743404e-22)
(-4.4364818e-05 4.67878e-05 1.191469e-22)
(-4.8737976e-05 4.9167359e-05 -1.1871958e-22)
(-5.0558895e-05 5.0537348e-05 7.4354707e-24)
(-5.456333e-05 4.9484241e-05 1.4880587e-23)
(-5.559448e-05 4.9892037e-05 -5.9553611e-23)
(-5.7394947e-05 4.7714624e-05 1.3482726e-22)
(-5.7200662e-05 4.6077678e-05 -5.9499216e-23)
(-5.6155333e-05 4.298188e-05 5.8774718e-39)
(-5.4478794e-05 3.9688558e-05 6.0665005e-23)
(-5.3147192e-05 3.6389163e-05 -1.4693679e-39)
(-1.6566861e-05 -1.4784454e-06 -4.0120943e-21)
(-1.3797674e-05 -8.4243196e-07 -1.4399806e-37)
(-1.3188381e-05 -5.3870149e-08 -2.2567049e-22)
(-1.5011949e-05 3.3993658e-07 -6.3286301e-23)
(-1.8051711e-05 5.1976287e-07 1.0163281e-21)
(-2.045205e-05 4.5356152e-07 -4.7907478e-22)
(-2.2009722e-05 3.3839761e-07 1.2856969e-39)
(-2.3251603e-05 1.8663938e-07 3.2223675e-23)
(-2.4237332e-05 2.0885214e-08 9.6792774e-23)
(-2.5080116e-05 -1.4599928e-07 1.0695992e-27)
(-2.5804173e-05 -3.3031487e-07 3.2501022e-23)
(-2.6360378e-05 -4.9418665e-07 3.2522651e-23)
(-2.6897178e-05 -6.5506044e-07 -4.935067e-28)
(-2.7388641e-05 -8.2757059e-07 -3.272851e-23)
(-2.7727231e-05 -9.9126603e-07 2.6230665e-22)
(-2.7879624e-05 -1.1313912e-06 1.3160494e-22)
(-2.7975002e-05 -1.2418289e-06 -1.31835e-22)
(-2.8209414e-05 -1.3699647e-06 0)
(-2.8572092e-05 -1.5482147e-06 -1.3154368e-22)
(-2.9054619e-05 -1.8060882e-06 -2.2958874e-40)
(-2.9600496e-05 -2.1507224e-06 -1.6443579e-23)
(-3.0005277e-05 -2.5423893e-06 1.6482033e-23)
(-3.0152765e-05 -2.9441278e-06 1.3226069e-22)
(-2.994355e-05 -3.3070973e-06 -1.3218052e-22)
(-2.9671797e-05 -3.6696969e-06 1.3481856e-22)
(-2.9419243e-05 -4.0442001e-06 -1.3498557e-22)
(-2.8971329e-05 -4.3997852e-06 0)
(-2.852142e-05 -4.77452e-06 -6.6722588e-23)
(-2.8045925e-05 -5.1440998e-06 -1.6667582e-23)
(-2.7714204e-05 -5.6286672e-06 1.6653701e-23)
(-2.7555985e-05 -6.1918794e-06 -3.3142375e-23)
(-2.7651913e-05 -7.0444187e-06 -3.6734198e-40)
(-2.8260613e-05 -8.1738241e-06 0)
(-2.941884e-05 -9.671505e-06 -2.9387359e-39)
(-5.2381466e-05 -9.5522777e-07 2.8789565e-23)
(-5.0503665e-05 -1.3694299e-06 3.0869605e-23)
(-4.905413e-05 -1.6859304e-06 -5.2485215e-27)
(-4.7781097e-05 -1.9651327e-06 -6.617706e-23)
(-4.6588571e-05 -2.2297318e-06 3.9039101e-24)
(-4.5370233e-05 -2.4919866e-06 5.8669443e-23)
(-4.3920834e-05 -2.7598313e-06 1.2533558e-22)
(-4.2421337e-05 -2.9946533e-06 1.2567228e-22)
(-4.1124544e-05 -3.1912423e-06 5.0786032e-22)
(-4.0031605e-05 -3.373504e-06 -2.5241183e-22)
(-3.9039013e-05 -3.5618206e-06 -2.5253903e-22)
(-3.8074404e-05 -3.7615488e-06 2.6035704e-22)
(-3.6948305e-05 -3.9813624e-06 -5.1138883e-22)
(-3.567024e-05 -4.1903414e-06 -7.8587523e-24)
(-3.4444325e-05 -4.3737977e-06 -9.9673122e-22)
(-3.3286671e-05 -4.5687018e-06 1.0024909e-21)
(-3.1911195e-05 -4.7496544e-06 1.6163047e-38)
(-3.0409701e-05 -4.8962335e-06 -4.4078822e-27)
(-2.9002557e-05 -5.0251399e-06 1.9759578e-21)
(-2.7397958e-05 -5.1377673e-06 -1.9592752e-21)
(-2.5518453e-05 -5.172675e-06 1.8981322e-24)
(-2.3464658e-05 -5.1618047e-06 3.8490517e-21)
(-2.0819303e-05 -4.9614096e-06 -3.6832506e-24)
(-1.9329235e-05 -4.9024597e-06 1.4694241e-23)
(-1.1592875e-05 -3.9237513e-06 -6.5535852e-21)
(-5.2282738e-05 3.3672653e-05 2.9387359e-39)
(-5.2098954e-05 3.145571e-05 -6.3220635e-23)
(-5.2324288e-05 2.9816336e-05 -2.9387359e-39)
(-5.2723032e-05 2.8460502e-05 3.203155e-23)
(-5.3545047e-05 2.7354731e-05 3.2009542e-23)
(-5.4490414e-05 2.6470386e-05 -1.5984117e-23)
(-5.6089926e-05 2.5705843e-05 1.5915019e-23)
(-5.728525e-05 2.5186929e-05 -7.3468397e-40)
(-5.8347332e-05 2.4401978e-05 6.337022e-23)
(-5.9679054e-05 2.3812731e-05 -6.3139496e-23)
(-6.1043962e-05 2.3180988e-05 0)
(-6.2841783e-05 2.2587185e-05 6.2419921e-23)
(-6.4116089e-05 2.1978139e-05 6.2227332e-23)
(-6.5559687e-05 2.1144718e-05 -7.3468397e-40)
(-6.6612433e-05 2.0401546e-05 -1.923779e-24)
(-6.7784984e-05 1.9382229e-05 1.9070159e-24)
(-6.89532e-05 1.8507092e-05 -1.1479437e-41)
(-6.966189e-05 1.7363258e-05 0)
(-7.0467902e-05 1.6222429e-05 6.0761798e-23)
(-7.0702238e-05 1.496918e-05 -1.205851e-22)
(-7.1775787e-05 1.3611344e-05 5.9566168e-23)
(-7.2071465e-05 1.2377803e-05 0)
(-7.1576533e-05 1.0691904e-05 9.2935152e-25)
(-7.0899112e-05 9.2221309e-06 -6.0133121e-23)
(-6.9192428e-05 7.5333815e-06 -3.6734198e-40)
(-6.8321701e-05 5.9867079e-06 2.9731357e-23)
(-6.632209e-05 4.7021071e-06 -1.487752e-23)
(-6.3501291e-05 3.040058e-06 -1.9773453e-24)
(-6.0748986e-05 1.7286179e-06 2.3265472e-25)
(-5.7521948e-05 5.290869e-07 9.3920994e-25)
(-5.4617782e-05 -3.4748521e-07 9.477288e-25)
)
;
    }
    Outlet
    {
        type            calculated;
        value           uniform (0 0 0);
    }
    Ground
    {
        type            calculated;
        value           uniform (0 0 0);
    }
}


// ************************************************************************* //
