/*--------------------------------*- C++ -*----------------------------------*\
| =========                 |                                                 |
| \\      /  F ield         | OpenFOAM: The Open Source CFD Toolbox           |
|  \\    /   O peration     | Version:  v2006                                 |
|   \\  /    A nd           | Website:  www.openfoam.com                      |
|    \\/     M anipulation  |                                                 |
\*---------------------------------------------------------------------------*/
FoamFile
{
    version     2.0;
    format      ascii;
    class       volScalarField;
    location    "4000";
    object      yPlus;
}
// * * * * * * * * * * * * * * * * * * * * * * * * * * * * * * * * * * * * * //

dimensions      [0 0 0 0 0 0 0];


internalField   uniform 0;

boundaryField
{
    Side
    {
        type            empty;
    }
    Inlet
    {
        type            calculated;
        value           uniform 0;
    }
    Wing
    {
        type            calculated;
        value           nonuniform List<scalar> 
139
(
88.864591
86.738019
79.339023
73.517037
67.823678
63.226797
56.843084
52.135375
46.239508
39.422578
34.355259
30.612234
26.827884
23.996218
23.31289
24.22181
26.221276
29.71494
34.597955
39.967734
45.479394
50.702591
56.234716
61.776902
67.218193
71.882171
75.955505
79.897915
84.223112
87.306972
89.730867
91.8276
96.367605
101.74662
103.94326
104.01644
107.15828
110.07524
110.31335
114.10437
121.07334
124.42399
125.09932
129.14436
127.91157
129.2432
127.045
124.027
120.51457
60.98672
56.304727
55.916348
60.086739
65.916358
70.026967
72.530509
74.46363
75.93773
77.184296
78.227436
79.014909
79.784975
80.473229
80.938876
81.14718
81.320707
81.712259
82.28218
83.025546
83.836705
84.415421
84.639655
84.36012
84.111389
83.862179
83.37847
82.964151
82.529173
82.4586
82.68256
83.550336
85.321064
88.055597
110.40873
108.39202
106.81846
105.41382
104.08671
102.69164
101.0072
99.266325
97.749596
96.457713
95.264823
94.086503
92.674041
91.073645
89.531463
88.061988
86.257845
84.317099
82.478148
80.31001
77.728342
74.795691
70.831814
68.664207
53.434371
117.74096
115.59445
114.49551
113.74912
113.46477
113.69945
114.29823
115.59521
115.96381
117.01796
118.05849
119.47108
121.00066
122.02632
123.45807
124.27362
125.73067
126.47144
127.3586
127.82283
128.66693
129.5262
129.08307
128.75907
127.28037
126.48847
124.83855
122.0717
119.24696
115.88125
112.81629
)
;
    }
    Outlet
    {
        type            calculated;
        value           uniform 0;
    }
    Ground
    {
        type            calculated;
        value           nonuniform List<scalar> 
154
(
81.657321
84.69924
87.775173
90.733517
93.576939
96.325797
98.979971
101.53845
104.00299
106.37609
108.65665
110.85271
112.95046
114.98671
116.88381
118.80393
120.45966
122.29291
124.00899
125.70339
127.30257
129.05148
130.61432
132.1381
133.61973
135.04003
136.41061
137.73829
139.02608
140.27724
141.49486
142.68154
143.83959
144.97112
146.07804
147.16211
148.22495
149.26808
150.29291
151.30075
152.29283
153.27032
154.23428
155.18576
156.12569
157.05499
157.97449
158.88501
159.78731
160.68209
161.57005
162.45184
163.32805
164.19929
165.06609
165.929
166.78852
167.64512
168.49928
169.35141
170.20194
171.05126
171.89969
172.74756
173.59508
174.44246
175.28954
176.13649
176.98165
177.82716
178.66036
179.51565
180.25242
181.38649
57.247518
54.113414
51.46811
49.258237
47.531145
46.344788
45.729502
45.679994
46.161042
47.119469
48.48767
50.192869
52.164745
54.339786
56.663331
59.089902
61.582556
64.111577
66.653824
69.189595
71.708145
74.184733
76.653025
78.966985
130.81547
130.02615
129.12935
128.10354
126.95488
125.66885
124.22605
122.60934
120.80057
118.78163
116.53831
114.05364
111.34291
108.36506
105.12607
101.62381
97.864691
93.860425
89.621811
85.18394
80.550325
75.750244
70.815616
65.746772
60.705737
475.5274
400.97185
342.23451
305.93823
277.77223
253.81051
234.37267
218.80573
206.03958
195.18946
186.10303
178.37231
171.7432
166.03251
161.10074
156.81204
153.0764
149.81436
146.9573
144.45711
142.2568
140.3404
138.66012
137.20864
135.95341
134.86302
133.94114
133.16869
132.55171
132.0121
131.66734
)
;
    }
}


// ************************************************************************* //
