# Wall shear stress
# Time          	patch           	min             	max             
1000            	Wing	(-1.47128456e-04 -1.02215992e-04 -4.16021682e-20)	(4.38886092e-06 2.06723611e-04 9.67028992e-20)
2000            	Wing	(-1.75207598e-04 -7.52372812e-05 -4.16102970e-20)	(9.14281316e-06 2.44937016e-04 9.68135205e-20)
3000            	Wing	(-1.78647125e-04 -7.18916105e-05 -4.16142379e-20)	(9.79028333e-06 2.49601284e-04 9.68493451e-20)
4000            	Wing	(-1.79871973e-04 -7.05930317e-05 -4.16171683e-20)	(1.00476732e-05 2.51258861e-04 9.68518345e-20)
5000            	Wing	(-1.80653583e-04 -6.96964200e-05 -4.16196074e-20)	(1.02266711e-05 2.52315342e-04 9.68397003e-20)
