/*--------------------------------*- C++ -*----------------------------------*\
| =========                 |                                                 |
| \\      /  F ield         | OpenFOAM: The Open Source CFD Toolbox           |
|  \\    /   O peration     | Version:  v2006                                 |
|   \\  /    A nd           | Website:  www.openfoam.com                      |
|    \\/     M anipulation  |                                                 |
\*---------------------------------------------------------------------------*/
FoamFile
{
    version     2.0;
    format      ascii;
    class       volScalarField;
    location    "7000";
    object      alphat;
}
// * * * * * * * * * * * * * * * * * * * * * * * * * * * * * * * * * * * * * //

dimensions      [1 -1 -1 0 0 0 0];


internalField   nonuniform List<scalar> 
55713
(
2.7655808e-10
2.8816278e-09
2.8920106e-08
6.9340321e-08
8.9619642e-08
9.5668627e-08
9.5899997e-08
9.5049047e-08
9.4487903e-08
9.4283398e-08
9.4250676e-08
9.4262358e-08
9.4273276e-08
9.4276812e-08
9.4276473e-08
9.4275674e-08
9.4275376e-08
9.4275196e-08
9.4274855e-08
9.4274867e-08
9.4275393e-08
9.4276167e-08
9.4276795e-08
9.4277073e-08
9.427711e-08
9.4277033e-08
9.4277001e-08
9.4276857e-08
9.4276758e-08
9.4276561e-08
9.427635e-08
9.4276121e-08
9.4275928e-08
9.4275833e-08
9.427594e-08
9.4276145e-08
9.4275868e-08
9.4275279e-08
9.4274557e-08
9.4273866e-08
9.4273311e-08
9.4272782e-08
9.4272048e-08
9.4271035e-08
9.4269902e-08
9.4268771e-08
9.4267678e-08
9.4266645e-08
9.4265677e-08
9.4264728e-08
9.426375e-08
9.4262699e-08
9.4261584e-08
9.4260447e-08
9.4259319e-08
9.4258191e-08
9.4257083e-08
9.4255934e-08
9.4254694e-08
3.3633729e-10
4.1804702e-09
3.5952688e-08
7.6188158e-08
9.3057106e-08
9.6973183e-08
9.6594032e-08
9.5764771e-08
9.5334682e-08
9.521054e-08
9.5204573e-08
9.5218091e-08
9.5225524e-08
9.5226473e-08
9.522511e-08
9.5224037e-08
9.5223488e-08
9.5222884e-08
9.5222143e-08
9.522176e-08
9.5221968e-08
9.5222365e-08
9.5222539e-08
9.5222391e-08
9.5222071e-08
9.5221657e-08
9.5221272e-08
9.5220794e-08
9.5220364e-08
9.5219829e-08
9.5219276e-08
9.5218706e-08
9.5218158e-08
9.5217696e-08
9.5217448e-08
9.5217483e-08
9.5216893e-08
9.5215971e-08
9.5214874e-08
9.5213775e-08
9.5212803e-08
9.5211911e-08
9.5210846e-08
9.520948e-08
9.5207948e-08
9.5206404e-08
9.520487e-08
9.5203385e-08
9.5201951e-08
9.5200522e-08
9.5199042e-08
9.5197465e-08
9.5195772e-08
9.5194012e-08
9.5192212e-08
9.5190356e-08
9.5188447e-08
9.5186422e-08
9.5184221e-08
4.2150912e-10
5.8790207e-09
4.3446544e-08
8.2301421e-08
9.5731332e-08
9.8038546e-08
9.7314955e-08
9.6572498e-08
9.6263522e-08
9.6199084e-08
9.6207593e-08
9.6219706e-08
9.6223427e-08
9.622229e-08
9.6220549e-08
9.6219273e-08
9.6218345e-08
9.6217307e-08
9.62162e-08
9.6215507e-08
9.621534e-08
9.6215293e-08
9.6215064e-08
9.6214556e-08
9.6213892e-08
9.6213146e-08
9.6212431e-08
9.6211631e-08
9.6210879e-08
9.6210015e-08
9.6209145e-08
9.6208262e-08
9.6207383e-08
9.6206566e-08
9.6205964e-08
9.6205844e-08
9.6205012e-08
9.6203783e-08
9.6202338e-08
9.6200846e-08
9.6199467e-08
9.6198219e-08
9.6196857e-08
9.6195173e-08
9.6193278e-08
9.6191349e-08
9.6189413e-08
9.6187514e-08
9.6185659e-08
9.6183791e-08
9.6181856e-08
9.6179803e-08
9.6177594e-08
9.6175268e-08
9.6172864e-08
9.6170352e-08
9.6167726e-08
9.6164913e-08
9.6161833e-08
5.4439776e-10
8.2002502e-09
5.1590315e-08
8.7809657e-08
9.796435e-08
9.8986913e-08
9.8089595e-08
9.7477752e-08
9.727759e-08
9.7254592e-08
9.7268586e-08
9.7276715e-08
9.7277104e-08
9.727513e-08
9.7273193e-08
9.7271596e-08
9.7270253e-08
9.7268816e-08
9.7267384e-08
9.7266397e-08
9.7265885e-08
9.7265442e-08
9.726485e-08
9.7263986e-08
9.7263014e-08
9.726195e-08
9.7260945e-08
9.725984e-08
9.7258806e-08
9.7257643e-08
9.7256481e-08
9.7255306e-08
9.7254115e-08
9.725298e-08
9.7252038e-08
9.7251741e-08
9.7250767e-08
9.724926e-08
9.7247505e-08
9.724565e-08
9.7243883e-08
9.7242288e-08
9.7240667e-08
9.7238713e-08
9.723649e-08
9.7234208e-08
9.723191e-08
9.7229634e-08
9.72274e-08
9.7225133e-08
9.7222786e-08
9.7220308e-08
9.7217639e-08
9.7214795e-08
9.7211842e-08
9.7208738e-08
9.720546e-08
9.7201931e-08
9.7198046e-08
7.2255065e-10
1.1292137e-08
6.0087976e-08
9.2558767e-08
9.9792641e-08
9.9874535e-08
9.8951375e-08
9.8489397e-08
9.8375978e-08
9.837741e-08
9.8390222e-08
9.839372e-08
9.8392338e-08
9.8390067e-08
9.8387897e-08
9.8385893e-08
9.8384118e-08
9.8382321e-08
9.838061e-08
9.8379369e-08
9.8378533e-08
9.8377747e-08
9.8376814e-08
9.8375627e-08
9.8374362e-08
9.8373017e-08
9.8371749e-08
9.837037e-08
9.8369087e-08
9.8367648e-08
9.8366238e-08
9.8364801e-08
9.8363343e-08
9.8361921e-08
9.8360662e-08
9.8360136e-08
9.8359156e-08
9.8357409e-08
9.8355386e-08
9.8353209e-08
9.8351072e-08
9.8349139e-08
9.8347291e-08
9.8345135e-08
9.8342633e-08
9.8340038e-08
9.8337423e-08
9.8334819e-08
9.8332264e-08
9.8329654e-08
9.8326954e-08
9.8324119e-08
9.8321063e-08
9.8317776e-08
9.8314346e-08
9.8310736e-08
9.8306893e-08
9.8302752e-08
9.8298164e-08
9.8312628e-10
1.5349283e-08
6.8664226e-08
9.6139802e-08
1.013185e-07
1.0076428e-07
9.9924826e-08
9.961006e-08
9.9558482e-08
9.9570519e-08
9.9578344e-08
9.9578823e-08
9.9576626e-08
9.9574224e-08
9.9571737e-08
9.9569263e-08
9.9567073e-08
9.9564983e-08
9.9563065e-08
9.9561601e-08
9.9560475e-08
9.9559396e-08
9.955815e-08
9.9556688e-08
9.9555158e-08
9.9553582e-08
9.9552069e-08
9.9550464e-08
9.9548949e-08
9.9547286e-08
9.9545665e-08
9.9544006e-08
9.9542324e-08
9.9540658e-08
9.9539128e-08
9.9538348e-08
9.9537449e-08
9.9535548e-08
9.9533307e-08
9.9530854e-08
9.9528372e-08
9.9526114e-08
9.9524066e-08
9.9521787e-08
9.951906e-08
9.9516206e-08
9.9513337e-08
9.9510475e-08
9.9507659e-08
9.9504774e-08
9.9501784e-08
9.9498669e-08
9.9495312e-08
9.9491669e-08
9.9487844e-08
9.9483832e-08
9.9479527e-08
9.9474894e-08
9.946972e-08
1.3687234e-09
2.0584271e-08
7.6919381e-08
9.9021099e-08
1.0256017e-07
1.0169621e-07
1.0102823e-07
1.0084007e-07
1.0082655e-07
1.008386e-07
1.0084171e-07
1.0084049e-07
1.0083804e-07
1.0083553e-07
1.0083265e-07
1.008297e-07
1.0082713e-07
1.0082483e-07
1.0082278e-07
1.0082114e-07
1.0081979e-07
1.0081846e-07
1.0081695e-07
1.0081525e-07
1.0081351e-07
1.0081175e-07
1.0081003e-07
1.0080825e-07
1.0080654e-07
1.008047e-07
1.0080292e-07
1.0080108e-07
1.0079922e-07
1.0079737e-07
1.0079562e-07
1.007946e-07
1.0079378e-07
1.0079191e-07
1.0078952e-07
1.0078683e-07
1.0078405e-07
1.0078148e-07
1.0077927e-07
1.0077696e-07
1.0077409e-07
1.0077104e-07
1.00768e-07
1.0076495e-07
1.0076195e-07
1.0075887e-07
1.0075568e-07
1.0075237e-07
1.0074882e-07
1.0074493e-07
1.0074081e-07
1.0073652e-07
1.0073189e-07
1.0072691e-07
1.007213e-07
1.9522777e-09
2.7222005e-08
8.501802e-08
1.0204297e-07
1.0365676e-07
1.0274083e-07
1.0227381e-07
1.0217794e-07
1.0218388e-07
1.0219086e-07
1.0219047e-07
1.0218859e-07
1.0218612e-07
1.0218342e-07
1.0218016e-07
1.0217678e-07
1.0217389e-07
1.0217147e-07
1.0216936e-07
1.0216761e-07
1.021661e-07
1.0216458e-07
1.0216286e-07
1.0216098e-07
1.021591e-07
1.0215719e-07
1.0215533e-07
1.0215341e-07
1.0215157e-07
1.0214962e-07
1.0214772e-07
1.0214576e-07
1.021438e-07
1.0214181e-07
1.021399e-07
1.0213865e-07
1.0213793e-07
1.021363e-07
1.0213385e-07
1.0213098e-07
1.0212795e-07
1.021251e-07
1.0212276e-07
1.0212053e-07
1.0211761e-07
1.0211446e-07
1.0211134e-07
1.0210819e-07
1.0210511e-07
1.0210194e-07
1.0209864e-07
1.0209525e-07
1.0209163e-07
1.0208763e-07
1.0208335e-07
1.0207893e-07
1.0207413e-07
1.0206898e-07
1.0206311e-07
2.8810469e-09
3.5474347e-08
9.2221063e-08
1.0433606e-07
1.0476639e-07
1.0396047e-07
1.03664e-07
1.0362681e-07
1.036366e-07
1.0363859e-07
1.0363645e-07
1.0363467e-07
1.0363209e-07
1.036291e-07
1.0362559e-07
1.0362195e-07
1.0361883e-07
1.0361634e-07
1.0361425e-07
1.0361247e-07
1.036109e-07
1.0360924e-07
1.0360738e-07
1.0360538e-07
1.0360341e-07
1.0360142e-07
1.035995e-07
1.0359751e-07
1.035956e-07
1.035936e-07
1.0359167e-07
1.0358966e-07
1.0358766e-07
1.0358562e-07
1.0358363e-07
1.0358218e-07
1.0358152e-07
1.0358035e-07
1.03578e-07
1.0357501e-07
1.0357178e-07
1.0356872e-07
1.0356629e-07
1.0356429e-07
1.0356142e-07
1.0355827e-07
1.0355522e-07
1.0355208e-07
1.0354903e-07
1.035459e-07
1.0354262e-07
1.0353927e-07
1.0353574e-07
1.0353182e-07
1.0352752e-07
1.0352315e-07
1.0351839e-07
1.0351328e-07
1.0350739e-07
4.4911193e-09
4.5493057e-08
9.8585027e-08
1.0633113e-07
1.0599286e-07
1.0535946e-07
1.0519633e-07
1.0519148e-07
1.0519796e-07
1.0519619e-07
1.0519347e-07
1.0519211e-07
1.0518914e-07
1.0518587e-07
1.0518249e-07
1.0517889e-07
1.0517563e-07
1.0517305e-07
1.0517101e-07
1.0516928e-07
1.0516772e-07
1.05166e-07
1.0516408e-07
1.0516207e-07
1.0516009e-07
1.0515812e-07
1.0515619e-07
1.0515424e-07
1.0515234e-07
1.0515038e-07
1.0514849e-07
1.0514652e-07
1.0514459e-07
1.0514259e-07
1.0514063e-07
1.0513906e-07
1.0513843e-07
1.0513783e-07
1.051359e-07
1.0513285e-07
1.0512949e-07
1.0512633e-07
1.0512389e-07
1.0512221e-07
1.0511959e-07
1.0511654e-07
1.0511372e-07
1.0511072e-07
1.0510786e-07
1.0510493e-07
1.0510183e-07
1.050987e-07
1.0509543e-07
1.050918e-07
1.0508769e-07
1.0508359e-07
1.0507912e-07
1.0507431e-07
1.0506868e-07
7.2030397e-09
5.7300706e-08
1.0383269e-07
1.081016e-07
1.0738154e-07
1.0694811e-07
1.0687547e-07
1.0688245e-07
1.068835e-07
1.0687989e-07
1.0687743e-07
1.0687654e-07
1.068728e-07
1.0686957e-07
1.0686678e-07
1.068636e-07
1.068602e-07
1.068574e-07
1.0685545e-07
1.0685388e-07
1.0685241e-07
1.0685076e-07
1.0684891e-07
1.0684701e-07
1.0684513e-07
1.0684327e-07
1.0684146e-07
1.0683964e-07
1.0683786e-07
1.0683605e-07
1.0683431e-07
1.068325e-07
1.0683076e-07
1.0682892e-07
1.0682712e-07
1.0682555e-07
1.0682492e-07
1.0682491e-07
1.068239e-07
1.0682088e-07
1.0681744e-07
1.0681431e-07
1.06812e-07
1.0681077e-07
1.0680866e-07
1.068058e-07
1.0680341e-07
1.0680069e-07
1.0679821e-07
1.0679568e-07
1.0679298e-07
1.0679025e-07
1.0678746e-07
1.0678439e-07
1.0678075e-07
1.0677716e-07
1.0677333e-07
1.0676911e-07
1.0676409e-07
1.1074849e-08
7.0828972e-08
1.0728663e-07
1.0970455e-07
1.0897462e-07
1.0873073e-07
1.087081e-07
1.087144e-07
1.0871183e-07
1.0870828e-07
1.0870632e-07
1.0870582e-07
1.087012e-07
1.0869848e-07
1.0869669e-07
1.0869396e-07
1.0869026e-07
1.0868736e-07
1.0868585e-07
1.0868469e-07
1.0868344e-07
1.0868194e-07
1.0868031e-07
1.0867864e-07
1.08677e-07
1.0867539e-07
1.0867383e-07
1.0867227e-07
1.0867075e-07
1.0866923e-07
1.0866776e-07
1.0866626e-07
1.0866482e-07
1.0866332e-07
1.0866185e-07
1.0866047e-07
1.0865993e-07
1.086604e-07
1.0866065e-07
1.0865801e-07
1.0865459e-07
1.0865162e-07
1.0864968e-07
1.0864894e-07
1.0864772e-07
1.0864518e-07
1.0864349e-07
1.0864118e-07
1.0863925e-07
1.0863739e-07
1.0863533e-07
1.0863324e-07
1.0863117e-07
1.0862893e-07
1.0862614e-07
1.0862335e-07
1.0862053e-07
1.0861725e-07
1.0861328e-07
1.6849074e-08
8.6011643e-08
1.0959748e-07
1.1121063e-07
1.1079344e-07
1.1070418e-07
1.1070144e-07
1.1070312e-07
1.1069953e-07
1.1069772e-07
1.1069652e-07
1.1069648e-07
1.1069108e-07
1.1068953e-07
1.1068873e-07
1.1068619e-07
1.1068195e-07
1.1067916e-07
1.1067887e-07
1.1067851e-07
1.1067764e-07
1.1067647e-07
1.1067519e-07
1.1067393e-07
1.106727e-07
1.1067151e-07
1.1067036e-07
1.1066924e-07
1.1066815e-07
1.1066709e-07
1.1066607e-07
1.1066505e-07
1.1066408e-07
1.1066309e-07
1.1066215e-07
1.1066126e-07
1.1066099e-07
1.1066171e-07
1.106632e-07
1.1066132e-07
1.1065831e-07
1.106558e-07
1.1065454e-07
1.1065438e-07
1.1065424e-07
1.1065225e-07
1.1065166e-07
1.1064983e-07
1.1064863e-07
1.1064771e-07
1.1064653e-07
1.1064535e-07
1.1064426e-07
1.1064315e-07
1.1064157e-07
1.106399e-07
1.1063849e-07
1.1063654e-07
1.106341e-07
2.4899337e-08
1.0253161e-07
1.1277003e-07
1.1294238e-07
1.1284876e-07
1.1284324e-07
1.1284371e-07
1.1284292e-07
1.1284045e-07
1.1284064e-07
1.1284141e-07
1.1284124e-07
1.1283688e-07
1.1283612e-07
1.1283542e-07
1.1283397e-07
1.1282976e-07
1.1282764e-07
1.1282939e-07
1.1282963e-07
1.1282911e-07
1.1282843e-07
1.1282775e-07
1.1282713e-07
1.1282655e-07
1.12826e-07
1.1282548e-07
1.12825e-07
1.1282455e-07
1.1282413e-07
1.1282375e-07
1.128234e-07
1.1282307e-07
1.1282278e-07
1.1282251e-07
1.1282229e-07
1.1282245e-07
1.1282334e-07
1.128254e-07
1.128243e-07
1.1282218e-07
1.1282098e-07
1.1282083e-07
1.128212e-07
1.128217e-07
1.1282108e-07
1.1282181e-07
1.1282077e-07
1.1282058e-07
1.1282073e-07
1.1282064e-07
1.1282061e-07
1.1282065e-07
1.1282079e-07
1.1282072e-07
1.1282051e-07
1.1282073e-07
1.1282038e-07
1.1281998e-07
8.5589031e-08
8.558784e-08
8.5587031e-08
8.5588218e-08
8.5588973e-08
8.5589908e-08
8.5590816e-08
8.5591755e-08
8.5592711e-08
8.5593676e-08
8.5594637e-08
8.5595591e-08
8.5596548e-08
8.5597533e-08
8.5598566e-08
8.5599654e-08
8.5600766e-08
8.5601838e-08
8.5602779e-08
8.5603534e-08
8.5604109e-08
8.5604574e-08
8.5604976e-08
8.5605326e-08
8.560559e-08
8.5605732e-08
8.5605756e-08
8.5605735e-08
8.5605721e-08
8.5605712e-08
8.5605676e-08
8.560559e-08
8.5605409e-08
8.5605033e-08
8.5604347e-08
8.5603397e-08
8.5602427e-08
8.5601702e-08
8.5601318e-08
8.5601165e-08
8.5600662e-08
8.5598249e-08
8.5592133e-08
8.5585127e-08
8.5595134e-08
8.5666604e-08
8.5866041e-08
8.6231883e-08
8.6648289e-08
8.6638039e-08
8.5124746e-08
8.028966e-08
6.9463591e-08
5.0761502e-08
2.7113693e-08
8.6718349e-09
1.5894405e-09
4.1294873e-10
5.3945912e-10
8.587929e-08
8.5878281e-08
8.5878284e-08
8.5879299e-08
8.5880156e-08
8.588107e-08
8.5881993e-08
8.5882936e-08
8.5883896e-08
8.588486e-08
8.5885818e-08
8.5886768e-08
8.5887723e-08
8.5888706e-08
8.5889738e-08
8.5890825e-08
8.5891933e-08
8.5892995e-08
8.5893919e-08
8.5894649e-08
8.5895206e-08
8.5895659e-08
8.5896055e-08
8.58964e-08
8.589666e-08
8.5896794e-08
8.589681e-08
8.5896784e-08
8.5896768e-08
8.5896755e-08
8.5896713e-08
8.5896615e-08
8.5896416e-08
8.5896025e-08
8.5895345e-08
8.5894417e-08
8.5893473e-08
8.589277e-08
8.5892384e-08
8.5892143e-08
8.5891426e-08
8.5888865e-08
8.5883157e-08
8.5877347e-08
8.5888072e-08
8.5956055e-08
8.6143509e-08
8.6491658e-08
8.6907285e-08
8.6965635e-08
8.5663052e-08
8.1210921e-08
7.1078081e-08
5.2974817e-08
2.915141e-08
9.6613958e-09
1.7446339e-09
3.8790433e-10
4.8467287e-10
8.6198507e-08
8.6197695e-08
8.6197995e-08
8.619896e-08
8.6199859e-08
8.6200777e-08
8.6201714e-08
8.6202668e-08
8.6203637e-08
8.6204607e-08
8.6205569e-08
8.6206521e-08
8.6207476e-08
8.6208459e-08
8.6209492e-08
8.6210577e-08
8.6211685e-08
8.6212741e-08
8.6213654e-08
8.6214368e-08
8.6214908e-08
8.621535e-08
8.6215742e-08
8.6216086e-08
8.6216347e-08
8.6216478e-08
8.6216491e-08
8.6216462e-08
8.6216446e-08
8.6216434e-08
8.6216391e-08
8.6216295e-08
8.621611e-08
8.6215752e-08
8.6215117e-08
8.6214215e-08
8.6213254e-08
8.6212503e-08
8.6212077e-08
8.6211884e-08
8.6211468e-08
8.6209593e-08
8.62045e-08
8.6197173e-08
8.6199864e-08
8.6248048e-08
8.6403894e-08
8.6725569e-08
8.7167583e-08
8.7388951e-08
8.6490676e-08
8.2769939e-08
7.3663222e-08
5.6418846e-08
3.2297613e-08
1.1189919e-08
1.992122e-09
3.7526873e-10
4.3112158e-10
8.6550296e-08
8.6549731e-08
8.6550318e-08
8.6551243e-08
8.6552173e-08
8.6553097e-08
8.6554045e-08
8.6555007e-08
8.6555981e-08
8.6556954e-08
8.6557914e-08
8.6558861e-08
8.6559813e-08
8.6560792e-08
8.6561824e-08
8.6562908e-08
8.6564011e-08
8.6565057e-08
8.6565952e-08
8.6566643e-08
8.6567165e-08
8.6567596e-08
8.6567984e-08
8.6568328e-08
8.6568585e-08
8.6568709e-08
8.6568713e-08
8.6568681e-08
8.6568665e-08
8.6568652e-08
8.6568609e-08
8.6568512e-08
8.656833e-08
8.6567993e-08
8.6567396e-08
8.6566526e-08
8.6565563e-08
8.6564777e-08
8.656431e-08
8.6564102e-08
8.6563804e-08
8.6562388e-08
8.6558097e-08
8.6550789e-08
8.6549265e-08
8.6583285e-08
8.6711146e-08
8.6999768e-08
8.7441189e-08
8.777252e-08
8.7203388e-08
8.4130777e-08
7.6021011e-08
5.9760731e-08
3.5599829e-08
1.292432e-08
2.3163971e-09
3.7215245e-10
3.862995e-10
8.693862e-08
8.6938355e-08
8.6939117e-08
8.6940031e-08
8.6940978e-08
8.6941912e-08
8.6942868e-08
8.6943837e-08
8.6944814e-08
8.6945784e-08
8.6946738e-08
8.6947678e-08
8.6948622e-08
8.6949596e-08
8.6950623e-08
8.6951702e-08
8.6952798e-08
8.695383e-08
8.6954701e-08
8.6955365e-08
8.6955864e-08
8.6956285e-08
8.6956669e-08
8.6957011e-08
8.6957262e-08
8.6957375e-08
8.6957369e-08
8.6957333e-08
8.6957316e-08
8.6957305e-08
8.6957261e-08
8.6957165e-08
8.695699e-08
8.6956675e-08
8.6956119e-08
8.6955285e-08
8.6954323e-08
8.6953499e-08
8.6952984e-08
8.6952761e-08
8.695258e-08
8.6951616e-08
8.6948157e-08
8.6941093e-08
8.693593e-08
8.6956504e-08
8.7055917e-08
8.7306927e-08
8.7735743e-08
8.8158261e-08
8.7903862e-08
8.5488386e-08
7.8429545e-08
6.3312632e-08
3.9330922e-08
1.5014669e-08
2.7447001e-09
3.7938507e-10
3.452218e-10
8.7368198e-08
8.7368212e-08
8.7369109e-08
8.7370029e-08
8.7370984e-08
8.7371928e-08
8.737289e-08
8.7373861e-08
8.7374834e-08
8.7375797e-08
8.737674e-08
8.7377665e-08
8.7378597e-08
8.7379563e-08
8.7380583e-08
8.7381654e-08
8.7382737e-08
8.7383749e-08
8.738459e-08
8.7385221e-08
8.7385697e-08
8.7386107e-08
8.7386489e-08
8.7386828e-08
8.7387069e-08
8.7387164e-08
8.7387145e-08
8.7387104e-08
8.7387089e-08
8.7387079e-08
8.7387037e-08
8.7386942e-08
8.7386773e-08
8.738648e-08
8.7385965e-08
8.7385175e-08
8.7384221e-08
8.7383361e-08
8.7382793e-08
8.7382537e-08
8.7382425e-08
8.7381836e-08
8.7379243e-08
8.7372942e-08
8.7365621e-08
8.7375152e-08
8.7447701e-08
8.7657315e-08
8.8057733e-08
8.8539652e-08
8.8560077e-08
8.6775781e-08
8.0780941e-08
6.6973145e-08
4.34405e-08
1.7511181e-08
3.299896e-09
3.9985527e-10
3.1057695e-10
8.7844533e-08
8.7844816e-08
8.7845785e-08
8.784672e-08
8.7847681e-08
8.7848631e-08
8.7849594e-08
8.7850561e-08
8.7851527e-08
8.7852474e-08
8.7853398e-08
8.7854304e-08
8.785522e-08
8.7856172e-08
8.7857181e-08
8.7858239e-08
8.7859306e-08
8.786029e-08
8.7861093e-08
8.7861685e-08
8.7862136e-08
8.7862536e-08
8.7862915e-08
8.7863249e-08
8.7863476e-08
8.7863547e-08
8.7863511e-08
8.7863465e-08
8.7863451e-08
8.7863444e-08
8.7863404e-08
8.7863311e-08
8.786315e-08
8.7862878e-08
8.7862407e-08
8.7861666e-08
8.7860729e-08
8.7859836e-08
8.7859213e-08
8.7858914e-08
8.7858836e-08
8.7858542e-08
8.7856768e-08
8.7851536e-08
8.7843257e-08
8.7844141e-08
8.7892244e-08
8.805876e-08
8.841769e-08
8.8927874e-08
8.9178357e-08
8.7992472e-08
8.3008108e-08
7.07214e-08
4.7949324e-08
2.0512106e-08
4.029033e-09
4.3905063e-10
2.8082379e-10
8.8374133e-08
8.8374652e-08
8.8375646e-08
8.8376591e-08
8.837755e-08
8.8378499e-08
8.8379457e-08
8.8380412e-08
8.8381362e-08
8.8382287e-08
8.8383188e-08
8.838407e-08
8.8384967e-08
8.8385904e-08
8.8386899e-08
8.838794e-08
8.8388983e-08
8.8389932e-08
8.8390688e-08
8.8391236e-08
8.8391661e-08
8.8392052e-08
8.8392429e-08
8.8392754e-08
8.839296e-08
8.8392999e-08
8.8392942e-08
8.8392891e-08
8.839288e-08
8.8392876e-08
8.8392839e-08
8.8392751e-08
8.8392598e-08
8.8392348e-08
8.8391922e-08
8.8391236e-08
8.8390326e-08
8.8389408e-08
8.8388729e-08
8.8388381e-08
8.8388305e-08
8.838822e-08
8.8387172e-08
8.8383192e-08
8.8375103e-08
8.8369969e-08
8.8397076e-08
8.8520844e-08
8.882739e-08
8.9333967e-08
8.9758367e-08
8.9115575e-08
8.5222106e-08
7.4493889e-08
5.2836899e-08
2.4101519e-08
4.9893592e-09
4.9494269e-10
2.5563876e-10
8.8964793e-08
8.8965444e-08
8.8966445e-08
8.896739e-08
8.896834e-08
8.8969277e-08
8.8970222e-08
8.8971158e-08
8.8972085e-08
8.8972983e-08
8.8973854e-08
8.8974709e-08
8.8975582e-08
8.89765e-08
8.8977474e-08
8.8978491e-08
8.8979504e-08
8.8980406e-08
8.8981104e-08
8.8981602e-08
8.8982e-08
8.8982382e-08
8.8982756e-08
8.8983068e-08
8.8983242e-08
8.898324e-08
8.8983159e-08
8.8983105e-08
8.8983096e-08
8.8983096e-08
8.8983064e-08
8.8982982e-08
8.8982841e-08
8.8982615e-08
8.8982236e-08
8.8981612e-08
8.8980742e-08
8.897981e-08
8.8979079e-08
8.8978682e-08
8.8978588e-08
8.8978626e-08
8.8978159e-08
8.8975473e-08
8.8968472e-08
8.8959926e-08
8.8970325e-08
8.9054065e-08
8.9300856e-08
8.9774477e-08
9.031569e-08
9.0142743e-08
8.7288577e-08
7.8238853e-08
5.8066487e-08
2.8371721e-08
6.2564188e-09
5.8020013e-10
2.3496509e-10
8.9625804e-08
8.9626524e-08
8.9627515e-08
8.9628449e-08
8.9629379e-08
8.9630299e-08
8.9631222e-08
8.9632134e-08
8.9633032e-08
8.9633895e-08
8.9634728e-08
8.9635546e-08
8.9636389e-08
8.9637279e-08
8.9638224e-08
8.9639208e-08
8.9640178e-08
8.9641017e-08
8.9641646e-08
8.9642087e-08
8.9642455e-08
8.9642828e-08
8.9643195e-08
8.9643486e-08
8.9643617e-08
8.9643562e-08
8.9643452e-08
8.9643396e-08
8.9643392e-08
8.9643396e-08
8.9643371e-08
8.9643298e-08
8.9643171e-08
8.9642972e-08
8.9642643e-08
8.9642089e-08
8.9641274e-08
8.9640343e-08
8.9639569e-08
8.9639128e-08
8.9639012e-08
8.9639104e-08
8.9639041e-08
8.9637544e-08
8.9632239e-08
8.9622655e-08
8.9621172e-08
8.9669961e-08
8.9854026e-08
9.0268812e-08
9.0865779e-08
9.1078785e-08
8.9201022e-08
8.1850683e-08
6.3572898e-08
3.3411438e-08
7.9424704e-09
7.0169235e-10
2.1904514e-10
9.0368512e-08
9.0369252e-08
9.0370216e-08
9.0371128e-08
9.037203e-08
9.0372922e-08
9.037381e-08
9.0374685e-08
9.0375538e-08
9.037635e-08
9.0377128e-08
9.0377898e-08
9.0378697e-08
9.0379547e-08
9.0380447e-08
9.0381384e-08
9.0382294e-08
9.038305e-08
9.038359e-08
9.0383967e-08
9.0384304e-08
9.0384665e-08
9.0385018e-08
9.0385276e-08
9.0385348e-08
9.0385225e-08
9.0385081e-08
9.0385027e-08
9.0385026e-08
9.0385036e-08
9.0385019e-08
9.0384957e-08
9.0384848e-08
9.0384678e-08
9.0384402e-08
9.0383928e-08
9.0383185e-08
9.0382274e-08
9.0381471e-08
9.0380997e-08
9.0380868e-08
9.0380978e-08
9.038115e-08
9.0380592e-08
9.0377238e-08
9.0368544e-08
9.0360098e-08
9.0381017e-08
9.0504524e-08
9.084147e-08
9.1433505e-08
9.1929619e-08
9.0933922e-08
8.5116558e-08
6.9261783e-08
3.9288585e-08
1.0199988e-08
8.7132767e-10
2.0891337e-10
9.1206609e-08
9.1207371e-08
9.1208298e-08
9.1209174e-08
9.1210035e-08
9.1210881e-08
9.1211719e-08
9.1212537e-08
9.1213325e-08
9.1214063e-08
9.1214768e-08
9.1215468e-08
9.1216208e-08
9.1216999e-08
9.1217837e-08
9.1218706e-08
9.1219535e-08
9.1220178e-08
9.1220613e-08
9.1220917e-08
9.1221222e-08
9.1221566e-08
9.1221894e-08
9.1222104e-08
9.1222097e-08
9.1221888e-08
9.1221696e-08
9.1221655e-08
9.1221659e-08
9.1221673e-08
9.1221666e-08
9.1221616e-08
9.1221534e-08
9.1221395e-08
9.1221179e-08
9.1220792e-08
9.1220142e-08
9.1219273e-08
9.121846e-08
9.1217967e-08
9.1217842e-08
9.1217968e-08
9.1218252e-08
9.1218335e-08
9.121676e-08
9.1210272e-08
9.1199353e-08
9.1200776e-08
9.1270912e-08
9.1520083e-08
9.2053633e-08
9.2712668e-08
9.2455977e-08
8.8355343e-08
7.4993077e-08
4.603056e-08
1.3237893e-08
1.1069602e-09
2.076247e-10
9.2156238e-08
9.2157022e-08
9.2157916e-08
9.2158741e-08
9.2159544e-08
9.2160325e-08
9.2161095e-08
9.2161839e-08
9.2162541e-08
9.2163184e-08
9.2163796e-08
9.2164412e-08
9.2165076e-08
9.2165794e-08
9.2166557e-08
9.2167337e-08
9.2168056e-08
9.2168564e-08
9.2168876e-08
9.2169102e-08
9.2169374e-08
9.2169699e-08
9.2169991e-08
9.2170141e-08
9.2170031e-08
9.2169683e-08
9.2169474e-08
9.2169443e-08
9.2169455e-08
9.2169469e-08
9.2169481e-08
9.2169439e-08
9.2169392e-08
9.2169288e-08
9.216914e-08
9.2168855e-08
9.2168314e-08
9.2167507e-08
9.2166696e-08
9.2166203e-08
9.2166083e-08
9.2166275e-08
9.2166607e-08
9.2167036e-08
9.2166791e-08
9.2163048e-08
9.215317e-08
9.2143746e-08
9.217194e-08
9.2333399e-08
9.2769032e-08
9.3483773e-08
9.3789432e-08
9.1237067e-08
8.0636135e-08
5.3597587e-08
1.7326476e-08
1.4660895e-09
2.1693412e-10
9.3233798e-08
9.3234722e-08
9.3235597e-08
9.3236374e-08
9.3237125e-08
9.323785e-08
9.3238561e-08
9.3239238e-08
9.3239858e-08
9.3240404e-08
9.3240921e-08
9.324145e-08
9.3242038e-08
9.3242684e-08
9.324338e-08
9.3244079e-08
9.3244688e-08
9.3245073e-08
9.3245255e-08
9.3245405e-08
9.3245665e-08
9.3245993e-08
9.3246259e-08
9.3246338e-08
9.324599e-08
9.3245607e-08
9.3245422e-08
9.3245378e-08
9.3245396e-08
9.3245416e-08
9.3245446e-08
9.3245409e-08
9.3245412e-08
9.3245341e-08
9.324528e-08
9.3245109e-08
9.3244685e-08
9.3243956e-08
9.3243152e-08
9.3242654e-08
9.3242597e-08
9.3242901e-08
9.3243194e-08
9.3243723e-08
9.3244288e-08
9.3243069e-08
9.3236355e-08
9.3223725e-08
9.3224087e-08
9.3307876e-08
9.3620846e-08
9.4290382e-08
9.4978841e-08
9.3785275e-08
8.5940277e-08
6.1872549e-08
2.2771022e-08
2.0449249e-09
2.361674e-10
5.9107602e-10
6.1822747e-10
6.3443264e-10
6.4550812e-10
6.5447119e-10
6.6224372e-10
6.687756e-10
6.7375879e-10
6.7692078e-10
6.7805693e-10
6.7698521e-10
6.7351051e-10
6.6740272e-10
6.5838822e-10
6.4614376e-10
6.3031104e-10
6.1050379e-10
5.8633741e-10
5.5747314e-10
5.2363189e-10
4.8476569e-10
4.4116018e-10
3.9355617e-10
3.4265125e-10
2.8925353e-10
2.3477374e-10
1.814891e-10
1.2907788e-10
8.2746937e-11
4.4641611e-11
1.6283389e-11
1.7196022e-12
3.0732301e-12
1.4116277e-11
3.9039016e-11
8.2884903e-11
1.4159796e-10
2.0307654e-10
2.6665439e-10
3.3458858e-10
4.0670603e-10
4.8128978e-10
5.591251e-10
6.3498033e-10
7.0844713e-10
7.7948761e-10
8.4696795e-10
9.09512e-10
9.6668577e-10
1.0188885e-09
1.0665502e-09
1.1101788e-09
1.1501097e-09
1.1860811e-09
1.2183538e-09
1.2477015e-09
1.2745992e-09
1.2991868e-09
1.3216124e-09
1.3422462e-09
1.3612636e-09
1.3786261e-09
1.3943943e-09
1.4087061e-09
1.4217006e-09
1.4335037e-09
1.4442341e-09
1.4539979e-09
1.4628936e-09
1.4710014e-09
1.4784025e-09
1.4851437e-09
1.4912971e-09
1.4968356e-09
4.4768789e-10
4.7168699e-10
4.937269e-10
5.1458708e-10
5.3293861e-10
5.4846258e-10
5.6120821e-10
5.7129013e-10
5.7880355e-10
5.8383077e-10
5.8644362e-10
5.8667649e-10
5.8450347e-10
5.7982416e-10
5.7245973e-10
5.6216438e-10
5.4863895e-10
5.3154921e-10
5.105735e-10
4.8539251e-10
4.5585705e-10
4.2115938e-10
3.8104139e-10
3.3670884e-10
2.8959922e-10
2.411051e-10
1.930303e-10
1.4709927e-10
1.0503935e-10
6.8428788e-11
4.196894e-11
1.9676449e-11
7.8028941e-12
1.0102937e-11
2.11378e-11
4.4008607e-11
7.8983592e-11
1.2094944e-10
1.6694567e-10
2.1646165e-10
2.6923994e-10
3.2449725e-10
3.8280245e-10
4.4181895e-10
5.0010136e-10
5.5734839e-10
6.1312352e-10
6.6652807e-10
7.1687581e-10
7.6389732e-10
8.0756619e-10
8.4802907e-10
8.8548208e-10
9.1993855e-10
9.5134951e-10
9.7999382e-10
1.0061841e-09
1.0301619e-09
1.0521136e-09
1.072219e-09
1.090693e-09
1.1076665e-09
1.1232459e-09
1.1375338e-09
1.1506297e-09
1.162629e-09
1.1736211e-09
1.1836917e-09
1.192918e-09
1.2013744e-09
1.2091266e-09
1.2162369e-09
1.2227692e-09
1.2287386e-09
1.3392331e-09
1.1145025e-09
9.3464507e-10
7.913928e-10
6.8377775e-10
6.06887e-10
5.5413396e-10
5.2122093e-10
5.0418782e-10
4.9831567e-10
4.9943506e-10
5.0399784e-10
5.0950138e-10
5.1417285e-10
5.1681163e-10
5.1665461e-10
5.1323329e-10
5.0626192e-10
4.9555668e-10
4.8095903e-10
4.6239478e-10
4.3961562e-10
4.1234384e-10
3.8072518e-10
3.4533234e-10
3.0700393e-10
2.6689499e-10
2.2624642e-10
1.8581266e-10
1.4727318e-10
1.1251178e-10
8.3256485e-11
5.8772571e-11
4.2851147e-11
3.4349199e-11
3.6869807e-11
4.66027e-11
6.2664285e-11
8.3906286e-11
1.0976641e-10
1.3944042e-10
1.7213438e-10
2.0745064e-10
2.4462613e-10
2.8285857e-10
3.2156593e-10
3.6028267e-10
3.9853016e-10
4.3586547e-10
4.7193506e-10
5.0648544e-10
5.3936049e-10
5.7049572e-10
5.9959133e-10
6.2664466e-10
6.5174755e-10
6.7498786e-10
6.9650405e-10
7.1635378e-10
7.3479714e-10
7.5193219e-10
7.6783891e-10
7.8259364e-10
7.9626949e-10
8.0893678e-10
8.2066305e-10
8.3151265e-10
8.4154672e-10
8.5082362e-10
8.5939714e-10
8.6732146e-10
8.7464114e-10
8.8141719e-10
8.876748e-10
6.5310104e-09
4.6423438e-09
3.3368581e-09
2.4703414e-09
1.9079616e-09
1.5319588e-09
1.2685161e-09
1.066973e-09
9.0745222e-10
7.7445426e-10
6.768752e-10
6.0430274e-10
5.5297e-10
5.1903905e-10
4.9833874e-10
4.8711983e-10
4.8172708e-10
4.7933247e-10
4.77714e-10
4.7510022e-10
4.6963684e-10
4.5998498e-10
4.4615643e-10
4.2831981e-10
4.0670043e-10
3.8166223e-10
3.5371704e-10
3.2374203e-10
2.9280272e-10
2.6147398e-10
2.2999395e-10
1.9991362e-10
1.7156746e-10
1.4573064e-10
1.23322e-10
1.0653082e-10
9.5707095e-11
8.9876332e-11
8.9743183e-11
9.2986706e-11
9.9261718e-11
1.0797161e-10
1.1923117e-10
1.3265541e-10
1.4783837e-10
1.6439529e-10
1.8196951e-10
2.0023339e-10
2.1889081e-10
2.3767942e-10
2.5637337e-10
2.7478616e-10
2.9276673e-10
3.1017844e-10
3.2691929e-10
3.4291887e-10
3.5813195e-10
3.7253731e-10
3.8612858e-10
3.9892242e-10
4.1093933e-10
4.2220575e-10
4.3275196e-10
4.4261004e-10
4.5181304e-10
4.6039448e-10
4.6838784e-10
4.7582622e-10
4.827421e-10
4.8916693e-10
4.9513149e-10
5.0066416e-10
5.057899e-10
5.1052309e-10
2.1886945e-08
1.6408505e-08
1.2034182e-08
8.7203036e-09
6.3088771e-09
4.599448e-09
3.4250206e-09
2.6280374e-09
2.0582726e-09
1.6628958e-09
1.3801837e-09
1.1701189e-09
1.0054592e-09
8.7345319e-10
7.5956012e-10
6.7352213e-10
6.0675966e-10
5.5691469e-10
5.2103866e-10
4.9666669e-10
4.8275983e-10
4.7510089e-10
4.7035838e-10
4.6492731e-10
4.5685078e-10
4.4585869e-10
4.3207275e-10
4.1573971e-10
3.973473e-10
3.7736885e-10
3.5604141e-10
3.3376429e-10
3.1136447e-10
2.8799032e-10
2.6643467e-10
2.4558372e-10
2.2630571e-10
2.0976644e-10
1.9630197e-10
1.8611755e-10
1.7753052e-10
1.7228152e-10
1.6904133e-10
1.6723329e-10
1.6671623e-10
1.6733315e-10
1.6894628e-10
1.7141499e-10
1.7459851e-10
1.7836183e-10
1.8258012e-10
1.8714017e-10
1.919413e-10
1.9689445e-10
2.0192289e-10
2.0696131e-10
2.1195499e-10
2.1685936e-10
2.2163967e-10
2.2626957e-10
2.307286e-10
2.3500223e-10
2.3908125e-10
2.4296044e-10
2.4663773e-10
2.5011372e-10
2.5339106e-10
2.5647399e-10
2.5936805e-10
2.6207965e-10
2.6461632e-10
2.6698471e-10
2.6919582e-10
2.7124581e-10
4.3975942e-08
3.5870622e-08
2.8403234e-08
2.1958381e-08
1.6654186e-08
1.2457827e-08
9.2544803e-09
6.8910352e-09
5.1574152e-09
3.910483e-09
3.0186483e-09
2.3852692e-09
1.9345457e-09
1.596525e-09
1.3485595e-09
1.1605929e-09
1.0147452e-09
8.9486978e-10
7.9437107e-10
7.0881659e-10
6.4164099e-10
5.8821033e-10
5.494841e-10
5.2350005e-10
5.0655397e-10
4.9532257e-10
4.877421e-10
4.801711e-10
4.7153726e-10
4.6168138e-10
4.5069844e-10
4.3868078e-10
4.2591408e-10
4.1253944e-10
3.9875304e-10
3.8476918e-10
3.7095289e-10
3.5675556e-10
3.4263171e-10
3.304794e-10
3.1967618e-10
3.1021008e-10
3.0198197e-10
2.9509843e-10
2.8943065e-10
2.8424601e-10
2.7973959e-10
2.758985e-10
2.7266078e-10
2.6995715e-10
2.6772065e-10
2.6589821e-10
2.6443651e-10
2.6327369e-10
2.623589e-10
2.6165056e-10
2.6111488e-10
2.6072323e-10
2.6045094e-10
2.6027703e-10
2.6018376e-10
2.6015581e-10
2.6017998e-10
2.6024493e-10
2.6034108e-10
2.6046031e-10
2.6059587e-10
2.6074214e-10
2.6089453e-10
2.6104926e-10
2.6120331e-10
2.6135416e-10
2.6149948e-10
2.6163777e-10
6.3667593e-08