/*--------------------------------*- C++ -*----------------------------------*\
| =========                 |                                                 |
| \\      /  F ield         | OpenFOAM: The Open Source CFD Toolbox           |
|  \\    /   O peration     | Version:  v2006                                 |
|   \\  /    A nd           | Website:  www.openfoam.com                      |
|    \\/     M anipulation  |                                                 |
\*---------------------------------------------------------------------------*/
FoamFile
{
    version     2.0;
    format      ascii;
    class       volScalarField;
    location    "7000";
    object      Cp;
}
// * * * * * * * * * * * * * * * * * * * * * * * * * * * * * * * * * * * * * //

dimensions      [0 0 0 0 0 0 0];


internalField   nonuniform List<scalar> 
55713
(
0.0056005014
0.0056010826
0.0056010081
0.0056013747
0.0056013481
0.0056013929
0.0056013647
0.0056013646
0.0056013328
0.0056013174
0.0056013319
0.005601374
0.0056014203
0.0056014867
0.0056015561
0.0056016183
0.0056016799
0.0056017216
0.0056017343
0.0056017029
0.00560165
0.0056015969
0.0056015475
0.0056014983
0.0056014452
0.0056013861
0.0056013185
0.0056012413
0.0056011571
0.0056010642
0.0056009757
0.005600907
0.0056008608
0.0056008202
0.0056007705
0.005600715
0.0056006537
0.005600578
0.0056004824
0.0056003686
0.0056002423
0.0056001084
0.0055999671
0.0055998165
0.0055996585
0.005599503
0.0055993559
0.0055992096
0.0055990532
0.0055988772
0.0055986861
0.0055984754
0.005598258
0.0055980276
0.005597799
0.00559756
0.0055973108
0.0055970727
0.0055966885
0.005237097
0.0052381897
0.0052381802
0.0052388793
0.0052389372
0.0052393046
0.0052393968
0.0052395321
0.0052395214
0.0052394869
0.0052394167
0.0052394135
0.0052394703
0.0052395402
0.0052396554
0.0052398087
0.0052400364
0.0052403021
0.0052406113
0.0052408881
0.0052411245
0.0052413394
0.0052415525
0.0052417672
0.0052419747
0.0052421636
0.0052423253
0.0052424482
0.0052425138
0.0052424974
0.0052424116
0.0052423566
0.0052423538
0.0052423616
0.0052424098
0.0052424974
0.0052426194
0.0052427742
0.0052429299
0.0052430817
0.0052432178
0.0052433378
0.0052434396
0.0052434917
0.0052434525
0.0052433644
0.0052433125
0.0052432822
0.0052432379
0.0052431769
0.0052430981
0.0052430214
0.0052429437
0.0052428862
0.0052428524
0.0052428476
0.0052428532
0.005242877
0.0052428715
0.0049230676
0.0049243565
0.0049244794
0.004925309
0.0049256121
0.004926207
0.0049266451
0.0049271297
0.0049275248
0.004927864
0.0049281243
0.0049282979
0.0049284017
0.0049284482
0.0049284507
0.0049284411
0.0049284687
0.0049285676
0.0049287687
0.0049290239
0.0049293465
0.004929671
0.0049299743
0.0049302626
0.0049305539
0.0049308632
0.0049311871
0.0049315114
0.0049317944
0.0049320169
0.0049321705
0.0049322394
0.0049322256
0.0049321559
0.0049321587
0.0049322126
0.0049323091
0.004932461
0.0049326865
0.0049329378
0.0049331917
0.0049334311
0.004933652
0.0049338839
0.0049340892
0.0049342257
0.0049343025
0.0049343598
0.0049344519
0.0049345682
0.0049347394
0.0049348764
0.0049350974
0.0049351924
0.0049354544
0.0049354555
0.0049357927
0.0049357916
0.0049361982
0.0046489462
0.0046503144
0.0046505552
0.0046514442
0.004651861
0.0046525792
0.0046530937
0.0046537635
0.004654369
0.0046549662
0.0046555118
0.0046560003
0.0046564178
0.0046567683
0.0046570544
0.004657267
0.0046574001
0.0046574576
0.0046574802
0.0046574966
0.0046575397
0.004657609
0.0046576943
0.0046577892
0.0046578987
0.004658035
0.0046582188
0.0046584621
0.0046587752
0.0046591383
0.0046594795
0.0046597632
0.0046599772
0.004660127
0.0046601964
0.0046602108
0.0046601954
0.0046601818
0.004660233
0.0046603197
0.0046603963
0.0046604521
0.0046605763
0.0046607769
0.0046610865
0.0046614503
0.0046618225
0.0046621889
0.0046625804
0.0046629638
0.0046633857
0.0046636826
0.0046641018
0.0046643003
0.0046647572
0.0046648456
0.0046653741
0.0046653992
0.0046660643
0.0044141123
0.0044154626
0.0044157533
0.004416613
0.0044170327
0.004417638
0.0044180141
0.0044184316
0.0044187823
0.0044191717
0.0044195783
0.0044200258
0.0044205167
0.0044210327
0.0044215141
0.004421937
0.0044222867
0.004422562
0.0044227701
0.0044229076
0.0044230065
0.0044230851
0.0044231576
0.004423225
0.0044232834
0.0044233407
0.0044233957
0.0044234797
0.004423603
0.0044237936
0.0044240492
0.0044243751
0.0044247279
0.0044250487
0.0044253183
0.0044255338
0.0044256967
0.004425793
0.0044258549
0.0044258979
0.0044259567
0.0044260532
0.0044261897
0.0044263534
0.0044265551
0.0044267772
0.004427028
0.0044272749
0.0044275538
0.0044277783
0.0044280876
0.0044282788
0.0044286554
0.0044288191
0.0044292896
0.0044294137
0.004429991
0.0044300611
0.004430814
0.0042137247
0.0042149756
0.0042152988
0.0042160768
0.0042164496
0.0042169577
0.0042172761
0.0042175977
0.004217838
0.0042180593
0.0042182477
0.0042184339
0.0042186312
0.0042188581
0.0042191362
0.004219472
0.0042198633
0.0042202746
0.0042206489
0.004220972
0.0042212497
0.0042214969
0.0042217232
0.0042219313
0.0042221147
0.0042222601
0.0042223725
0.0042224489
0.0042225136
0.0042225774
0.0042226727
0.0042228097
0.0042230104
0.0042232644
0.0042235637
0.0042238819
0.0042241744
0.004224438
0.0042246791
0.0042249109
0.0042251484
0.0042253686
0.0042255813
0.00422575
0.0042259275
0.0042260447
0.0042262119
0.004226322
0.0042265293
0.004226642
0.0042269144
0.0042270278
0.0042273672
0.0042274834
0.0042279203
0.0042280334
0.0042286007
0.0042286694
0.0042294215
0.0040322506
0.0040333516
0.0040337067
0.0040343971
0.0040348168
0.0040352955
0.0040356778
0.0040360753
0.0040364295
0.0040367515
0.0040370197
0.0040372448
0.0040374226
0.0040375793
0.0040377263
0.0040378795
0.0040380584
0.0040382914
0.0040385697
0.0040388878
0.0040392224
0.0040395596
0.0040398811
0.0040401849
0.0040404665
0.0040407195
0.0040409384
0.004041126
0.0040412751
0.0040413921
0.0040414801
0.0040415568
0.0040416317
0.0040417327
0.0040418687
0.0040420484
0.004042263
0.004042499
0.0040427478
0.0040429747
0.004043212
0.004043405
0.0040436313
0.0040438027
0.0040440293
0.0040441925
0.0040444433
0.0040446096
0.0040448824
0.0040450475
0.0040453463
0.0040455001
0.004045846
0.0040459989
0.0040464246
0.0040465772
0.0040471007
0.0040471948
0.0040478923
0.0038708516
0.0038715969
0.0038718556
0.0038723213
0.0038725596
0.0038729329
0.00387318
0.0038734961
0.0038737707
0.003874071
0.0038743504
0.0038746008
0.0038748211
0.0038750119
0.0038751567
0.0038752567
0.0038753259
0.0038753795
0.0038754425
0.0038755196
0.0038756162
0.0038757276
0.0038758608
0.0038760156
0.003876199
0.0038764033
0.0038766222
0.0038768231
0.0038769998
0.0038771505
0.0038772765
0.0038773675
0.0038774333
0.0038774826
0.0038775418
0.0038776002
0.0038776879
0.0038777667
0.0038778696
0.0038779548
0.0038780677
0.0038781543
0.0038782852
0.0038783666
0.0038785191
0.0038785927
0.0038787714
0.0038788274
0.003879024
0.0038790646
0.0038792788
0.0038793026
0.0038795498
0.0038795731
0.0038798509
0.0038798472
0.0038801528
0.0038801337
0.0038804862
0.0037894889
0.0037899427
0.0037900566
0.0037903536
0.0037906318
0.0037907734
0.0037909889
0.0037911209
0.0037913012
0.0037914499
0.0037916124
0.0037917852
0.0037919554
0.003792114
0.0037922562
0.0037923732
0.0037924646
0.0037925331
0.0037925873
0.0037926245
0.0037926466
0.003792654
0.0037926486
0.0037926562
0.0037926829
0.0037927201
0.0037927822
0.0037928575
0.0037929515
0.0037930408
0.0037931283
0.0037931999
0.0037932503
0.0037932886
0.0037933134
0.0037933447
0.0037933711
0.0037933968
0.0037934358
0.0037934505
0.0037935024
0.0037935076
0.003793567
0.0037935733
0.0037936256
0.0037936488
0.00379368
0.0037937189
0.0037937414
0.0037937816
0.003793802
0.0037938417
0.0037938696
0.0037938728
0.0037938915
0.0037938796
0.0037938623
0.0037938393
0.0037938174
0.0037184495
0.0037194953
0.0037203577
0.0037204107
0.0037211339
0.0037212477
0.0037217835
0.0037219455
0.0037223409
0.003722457
0.0037227881
0.0037229089
0.0037232155
0.0037233688
0.0037236568
0.0037238397
0.003724113
0.0037243205
0.0037245886
0.0037248158
0.0037250672
0.0037252892
0.0037255145
0.0037257088
0.0037258941
0.0037260751
0.0037262551
0.0037264453
0.003726651
0.0037268758
0.0037271236
0.003727385
0.0037276408
0.0037278887
0.0037281342
0.0037283821
0.0037286303
0.0037288823
0.0037291381
0.0037293974
0.0037296608
0.0037299267
0.0037302006
0.0037304791
0.0037307652
0.0037310645
0.0037313661
0.0037316794
0.0037320078
0.0037323486
0.0037327073
0.003733076
0.0037334765
0.0037339049
0.0037343479
0.0037348478
0.0037353692
0.0037360613
0.0037367819
0.0033789868
0.0033789675
0.0033800518
0.0033806193
0.0033813472
0.0033820108
0.0033826129
0.0033831641
0.0033836936
0.003384171
0.0033846167
0.0033850193
0.0033853861
0.0033857209
0.0033860288
0.0033863118
0.0033865754
0.003386824
0.0033870487
0.0033872718
0.0033874481
0.0033876433
0.0033877639
0.0033879318
0.003388053
0.0033881654
0.0033882337
0.0033882756
0.0033883003
0.0033883206
0.0033883491
0.0033883824
0.0033884274
0.00338846
0.003388488
0.0033884908
0.0033884867
0.0033884713
0.0033884502
0.0033884145
0.0033883674
0.0033883114
0.0033882402
0.0033881615
0.0033880612
0.0033879631
0.0033878464
0.0033877004
0.0033875378
0.00338735
0.0033871446
0.0033869037
0.0033866486
0.0033863727
0.003386036
0.0033857264
0.0033852662
0.003384942
0.0033844532
0.0033656257
0.0033621698
0.0033608964
0.0033587452
0.0033572823
0.0033557296
0.0033543009
0.0033530085
0.0033518398
0.0033506575
0.0033496196
0.0033485693
0.0033476635
0.0033467298
0.0033459354
0.0033450887
0.0033443498
0.0033435752
0.0033428555
0.0033421608
0.0033414882
0.0033408476
0.0033402411
0.0033396676
0.0033390621
0.0033385261
0.0033379383
0.0033374286
0.0033368552
0.0033363634
0.0033358004
0.0033353209
0.0033347653
0.0033343006
0.0033337524
0.0033332884
0.0033327443
0.0033322971
0.0033317535
0.0033312992
0.0033307757
0.0033302887
0.0033297573
0.0033292139
0.0033286388
0.0033280589
0.0033273897
0.0033268461
0.0033260706
0.0033254796
0.0033245783
0.0033239165
0.0033228928
0.0033220475
0.0033208576
0.0033198736
0.003318445
0.0033172525
0.0033151948
0.0050794343
0.005078203
0.0050770204
0.0050760742
0.0050750877
0.0050742103
0.0050733293
0.0050724966
0.0050717852
0.0050711451
0.0050705114
0.005069924
0.0050693616
0.0050688402
0.005068387
0.005067971
0.0050676027
0.0050672857
0.0050669996
0.0050667478
0.005066518
0.0050663198
0.005066137
0.0050659739
0.005065833
0.0050657095
0.0050656037
0.0050655142
0.0050654418
0.0050653856
0.0050653445
0.0050653173
0.0050653067
0.0050653044
0.0050653248
0.0050653529
0.0050653932
0.0050654443
0.0050655049
0.0050655729
0.0050656448
0.0050657224
0.0050658112
0.0050659185
0.0050660532
0.0050662139
0.0050663935
0.0050665796
0.005066795
0.0050670375
0.005067314
0.0050676134
0.0050679695
0.0050683348
0.0050688247
0.005069207
0.0050698454
0.0050702345
0.0050709367
0.003223699
0.0032275446
0.0032274081
0.0032304014
0.0032303856
0.0032325292
0.0032329409
0.0032346099
0.0032348485
0.0032362914
0.0032365251
0.0032377661
0.003237964
0.0032390028
0.0032391521
0.0032399796
0.0032401378
0.0032407397
0.003240916
0.0032413419
0.0032415084
0.0032418407
0.0032419734
0.0032422488
0.0032423519
0.0032425755
0.0032426523
0.0032428266
0.0032428828
0.003243008
0.0032430445
0.0032431278
0.0032431421
0.0032431772
0.0032431734
0.003243166
0.0032431421
0.0032431026
0.0032430469
0.0032429749
0.0032428924
0.0032428028
0.0032427087
0.0032426074
0.0032424946
0.0032423598
0.0032421956
0.0032420137
0.0032418185
0.0032416018
0.0032413689
0.0032410905
0.0032407973
0.0032404399
0.0032400794
0.0032395665
0.0032391108
0.0032383231
0.0032377451
0.02090177
0.020907348
0.020914407
0.020920623
0.020927112
0.020933399
0.020939649
0.020945814
0.020951901
0.020957908
0.020963832
0.020969672
0.020975426
0.020981091
0.020986665
0.020992145
0.020997527
0.02100281
0.021007987
0.021013056
0.021018011
0.021022848
0.021027561
0.021032145
0.021036596
0.02104091
0.021045083
0.021049111
0.021052994
0.021056729
0.021060316
0.021063755
0.021067046
0.021070189
0.021073187
0.021076041
0.021078754
0.021081327
0.021083764
0.021086065
0.021088232
0.021090266
0.021092169
0.021093942
0.021095588
0.021097106
0.021098501
0.021099772
0.021100921
0.02110195
0.021102858
0.021103648
0.021104318
0.021104869
0.021105314
0.021105633
0.021105853
0.021105969
0.021105984
0.019173829
0.019178699
0.019184604
0.019189955
0.019195396
0.0192007
0.019205929
0.019211073
0.019216131
0.019221104
0.01922599
0.01923079
0.019235502
0.019240126
0.01924466
0.019249103
0.019253455
0.019257714
0.01926188
0.019265951
0.019269926
0.019273804
0.019277585
0.019281267
0.01928485
0.019288332
0.019291713
0.019294991
0.019298167
0.01930124
0.019304209
0.019307072
0.019309831
0.019312484
0.01931503
0.01931747
0.019319804
0.01932203
0.01932415
0.019326162
0.019328067
0.019329866
0.019331557
0.019333142
0.019334621
0.019335994
0.019337262
0.019338425
0.019339484
0.019340439
0.019341291
0.01934204
0.019342684
0.019343228
0.019343675
0.019343996
0.019344231
0.019344379
0.019344418
0.017561055
0.017565197
0.017570073
0.017574547
0.017579035
0.017583418
0.017587719
0.017591943
0.017596085
0.01760015
0.017604137
0.017608046
0.017611878
0.017615632
0.017619309
0.017622907
0.017626428
0.01762987
0.017633234
0.017636518
0.017639723
0.017642847
0.017645891
0.017648854
0.017651736
0.017654535
0.017657252
0.017659887
0.017662439
0.017664907
0.017667292
0.017669592
0.017671808
0.01767394
0.017675988
0.01767795
0.017679828
0.017681621
0.017683329
0.017684953
0.017686492
0.017687947
0.017689317
0.017690603
0.017691806
0.017692924
0.017693959
0.017694911
0.01769578
0.017696566
0.017697271
0.017697891
0.017698426
0.017698887
0.017699252
0.017699525
0.017699722
0.017699845
0.017699877
0.016049637
0.016053208
0.016057222
0.016060982
0.016064688
0.016068315
0.016071858
0.016075328
0.016078723
0.016082046
0.016085299
0.016088481
0.016091596
0.016094642
0.016097621
0.016100534
0.01610338
0.01610616
0.016108874
0.016111522
0.016114105
0.016116621
0.016119072
0.016121458
0.016123777
0.01612603
0.016128218
0.016130339
0.016132394
0.016134382
0.016136304
0.016138159
0.016139947
0.016141669
0.016143324
0.016144912
0.016146433
0.016147887
0.016149274
0.016150594
0.016151847
0.016153034
0.016154154
0.016155207
0.016156193
0.016157113
0.016157966
0.016158753
0.016159473
0.016160127
0.016160714
0.016161232
0.016161684
0.016162073
0.016162366
0.016162601
0.016162768
0.016162875
0.016162903
0.014643503
0.014646579
0.014649849
0.014652986
0.014656027
0.014659005
0.014661903
0.014664733
0.014667494
0.014670191
0.014672824
0.014675396
0.014677907
0.01468036
0.014682755
0.014685094
0.014687376
0.014689604
0.014691776
0.014693895
0.014695959
0.01469797
0.014699928
0.014701833
0.014703685
0.014705484
0.01470723
0.014708924
0.014710565
0.014712154
0.014713691
0.014715175
0.014716607
0.014717987
0.014719314
0.014720589
0.014721812
0.014722982
0.014724101
0.014725167
0.014726181
0.014727143
0.014728052
0.01472891
0.014729714
0.014730467
0.014731167
0.014731815
0.014732409
0.014732951
0.014733439
0.014733872
0.014734256
0.014734573
0.014734824
0.014735022
0.014735165
0.014735257
0.01473528
0.013336052
0.013338733
0.013341393
0.013344008
0.013346509
0.013348954
0.013351325
0.013353632
0.013355878
0.013358065
0.013360196
0.013362272
0.013364295
0.013366268
0.013368191
0.013370066
0.013371894
0.013373676
0.013375411
0.013377103
0.01337875
0.013380353
0.013381913
0.01338343
0.013384905
0.013386338
0.013387729
0.013389078
0.013390386
0.013391653
0.013392878
0.013394062
0.013395205
0.013396308
0.01339737
0.01339839
0.01339937
0.01340031
0.013401209
0.013402067
0.013402884
0.01340366
0.013404396
0.013405091
0.013405745
0.013406357
0.013406929
0.013407458
0.013407946
0.013408391
0.013408792
0.013409154
0.013409471
0.013409725
0.013409936
0.013410102
0.013410221
0.013410299
0.013410319
0.01212602
0.012128352
0.012130524
0.012132692
0.012134749
0.012136752
0.012138688
0.012140567
0.012142389
0.012144159
0.012145879
0.012147551
0.012149177
0.01215076
0.0121523
0.012153799
0.012155258
0.012156679
0.012158062
0.012159408
0.012160717
0.012161992
0.012163231
0.012164436
0.012165607
0.012166744
0.012167848
0.01216892
0.012169958
0.012170965
0.01217194
0.012172882
0.012173793
0.012174673
0.012175521
0.012176337
0.012177122
0.012177876
0.012178598
0.012179289
0.012179949
0.012180578
0.012181175
0.01218174
0.012182274
0.012182776
0.012183245
0.012183682
0.012184086
0.012184456
0.012184794
0.0121851
0.012185355
0.012185572
0.012185751
0.012185894
0.012185995
0.012186064
0.01218608
0.011009394
0.011011367
0.011013145
0.011014928
0.011016614
0.011018245
0.011019818
0.011021337
0.011022806
0.011024228
0.011025606
0.011026942
0.011028238
0.011029497
0.011030719
0.011031906
0.01103306
0.011034182
0.011035272
0.011036332
0.011037362
0.011038364
0.011039337
0.011040283
0.011041202
0.011042095
0.011042961
0.011043802
0.011044617
0.011045407
0.011046172
0.011046913
0.011047629
0.011048321
0.011048989
0.011049633
0.011050252
0.011050848
0.01105142
0.011051967
0.011052491
0.011052991
0.011053467
0.011053918
0.011054345
0.011054747
0.011055124
0.011055476
0.011055801
0.011056102
0.011056379
0.011056617
0.011056825
0.011057003
0.011057151
0.011057269
0.011057352
0.011057411
0.011057425
0.0099822906
0.0099839629
0.0099854253
0.0099868912
0.0099882743
0.0099896069
0.0099908868
0.0099921188
0.0099933066
0.0099944529
0.0099955604
0.0099966315
0.0099976683
0.0099986725
0.0099996459
0.01000059
0.010001506
0.010002395
0.010003258
0.010004096
0.010004911
0.010005702
0.01000647
0.010007217
0.010007942
0.010008646
0.01000933
0.010009993
0.010010638
0.010011263
0.010011868
0.010012455
0.010013024
0.010013574
0.010014105
0.010014619
0.010015114
0.010015591
0.01001605
0.010016492
0.010016915
0.010017319
0.010017706
0.010018074
0.010018424
0.010018754
0.010019066
0.010019357
0.010019631
0.010019885
0.010020109
0.010020306
0.010020482
0.010020635
0.010020762
0.010020865
0.010020936
0.01002099
0.010021
0.0090411006
0.0090425106
0.0090437148
0.0090449118
0.009046039
0.0090471185
0.0090481514
0.0090491413
0.0090500919
0.0090510058
0.0090518857
0.0090527339
0.0090535523
0.0090543429
0.0090551071
0.0090558466
0.0090565624
0.0090572559
0.0090579281
0.0090585798
0.009059212
0.0090598252
0.0090604204
0.009060998
0.0090615586
0.009062103
0.0090626314
0.0090631444
0.0090636423
0.0090641254
0.0090645938
0.009065048
0.0090654879
0.0090659139
0.0090663261
0.0090667246
0.0090671094
0.0090674808
0.0090678385
0.0090681828
0.0090685135
0.0090688305
0.0090691337
0.0090694231
0.0090696983
0.0090699592
0.009070206
0.0090704393
0.0090706578
0.0090708506
0.0090710283
0.0090711888
0.0090713318
0.009071456
0.0090715591
0.009071644
0.0090716993
0.0090717479
0.0090717549
0.0081822407
0.0081834237
0.0081844291
0.0081854149
0.0081863429
0.0081872259
0.0081880676
0.0081888709
0.0081896393
0.0081903754
0.0081910817
0.0081917604
0.0081924134
0.0081930424
0.0081936489
0.0081942343
0.0081947999
0.0081953467
0.0081958759
0.0081963882
0.0081968844
0.0081973654
0.0081978319
0.0081982846
0.0081987242
0.0081991511
0.0081995659
0.0081999687
0.0082003598
0.0082007396
0.0082011082
0.0082014659
0.008201813
0.0082021496
0.0082024759
0.008202792
0.008203098
0.0082033939
0.0082036797
0.0082039555
0.0082042213
0.008204477
0.0082047227
0.0082049581
0.0082051834
0.0082053988
0.0082056032
0.0082057925
0.008205964
0.0082061245
0.0082062724
0.0082064075
0.0082065288
0.0082066353
0.0082067232
0.0082067997
0.0082068444
0.0082068883
0.0082068876
0.0073988357
0.007399816
0.0074006574
0.007401466
0.0074022284
0.0074029498
0.0074036348
0.0074042857
0.0074049062
0.0074054986
0.0074060653
0.0074066083
0.0074071291
0.0074076292
0.00740811
0.0074085727
0.0074090185
0.0074094486
0.0074098638
0.007410265
0.007410653
0.0074110288
0.0074113933
0.0074117473
0.0074120912
0.0074124254
0.0074127498
0.0074130644
0.0074133696
0.0074136659
0.0074139538
0.0074142337
0.007414506
0.0074147706
0.0074150279
0.0074152777
0.0074155201
0.0074157551
0.0074159826
0.007416203
0.0074164166
0.0074166235
0.0074168239
0.0074170178
0.0074172042
0.0074173796
0.0074175396
0.0074176915
0.0074178338
0.007417967
0.0074180909
0.0074182047
0.0074183067
0.007418398
0.0074184719
0.0074185414
0.0074185761
0.0074186221
0.0074186223
0.0066891324
0.0066899239
0.006690637
0.0066913042
0.0066919276
0.0066925132
0.006693066
0.006693587
0.0066940812
0.0066945502
0.006694997
0.0066954229
0.0066958296
0.0066962185
0.0066965913
0.0066969495
0.0066972943
0.0066976266
0.0066979469
0.0066982563
0.0066985559
0.0066988468
0.0066991298
0.0066994053
0.0066996732
0.0066999329
0.0067001841
0.0067004269
0.0067006625
0.0067008922
0.0067011169
0.0067013374
0.0067015536
0.0067017655
0.006701973
0.0067021759
0.0067023741
0.0067025675
0.0067027565
0.0067029414
0.0067031207
0.0067032927
0.006703457
0.0067036132
0.0067037578
0.0067038974
0.0067040299
0.006704155
0.006704273
0.0067043842
0.0067044884
0.0067045859
0.0067046723
0.006704753
0.0067048147
0.0067048805
0.0067049058
0.006704956
0.0067049585
0.0060675954
0.0060682137
0.0060687976
0.0060693639
0.0060698932
0.0060703912
0.0060708648
0.0060713098
0.0060717325
0.0060721313
0.0060725096
0.0060728672
0.006073207
0.0060735326
0.0060738478
0.0060741541
0.0060744512
0.0060747382
0.0060750151
0.0060752828
0.0060755416
0.0060757911
0.0060760304
0.0060762583
0.0060764746
0.0060766789
0.0060768718
0.0060770563
0.0060772359
0.0060774114
0.0060775817
0.0060777457
0.0060779028
0.0060780531
0.0060781964
0.0060783329
0.006078463
0.006078587
0.006078706
0.0060788196
0.0060789269
0.006079031
0.0060791294
0.0060792211
0.0060793061
0.0060793859
0.0060794599
0.0060795263
0.0060795862
0.006079645
0.0060797036
0.0060797606
0.0060798034
0.0060798511
0.006079883
0.0060799312
0.0060799479
0.0060800142
0.0060800294
0.023192562
0.02572791
0.028561193
0.031656187
0.035025334
0.038693428
0.042674837
0.046982207
0.051626771
0.056616878
0.061956238
0.06764292
0.073666878
0.080008877
0.086637481
0.093507525
0.10055597
0.10770125
0.11483976
0.12184448
0.12856395
0.13483026
0.14043455
0.14516524
0.14880212
0.15108329
0.15181162
0.15081352
0.14785099
0.14280398
0.13565647
0.12632298
0.11485079
0.1014114
0.086101088
0.06918361
0.050889916
0.031360924
0.010904335
-0.01014921
-0.031575764
-0.053167086
-0.07472262
-0.095998466
-0.11681237
-0.13719076
-0.15707855
-0.17626226
-0.19465266
-0.21224349
-0.22902357
-0.24496913
-0.26011106
-0.27437185
-0.2877376
-0.30036072
-0.31225016
-0.32340652
-0.33384136
-0.34362927
-0.35281611
-0.36136485
-0.36931798
-0.37672406
-0.38361433
-0.39001908
-0.39596882
-0.40149374
-0.4066206
-0.41137701
-0.41578422
-0.41987047
-0.42364258
-0.42714212
0.023192538
0.025727894
0.028561163
0.031656152
0.0350253
0.038693396
0.042674808
0.046982183
0.051626753
0.056616868
0.061956241
0.067642954
0.073666932
0.080008968
0.086637611
0.093507706
0.10055621
0.10770157
0.11484017
0.12184498
0.12856456
0.13483087
0.14043513
0.14516597
0.14880297
0.15108408
0.1518124
0.15081428
0.14785212
0.14280574
0.13565628
0.1263218
0.11485187
0.1014119
0.086101537
0.069178995
0.050881223
0.031355409
0.010904323
-0.01014914
-0.03157593
-0.053168615
-0.07472771
-0.096008182
-0.11681973
-0.13719074
-0.15707768
-0.17626368
-0.19465659
-0.21224877
-0.22902927
-0.24497565
-0.26011878
-0.27437748
-0.2877401
-0.30036378
-0.31225589
-0.32341333
-0.33384817
-0.34364072
-0.35283285
-0.36138071
-0.3693323
-0.3767373
-0.38362687
-0.39003077
-0.39597958
-0.40150413
-0.40663078
-0.41138777
-0.41579536
-0.41988468
-0.42365927
-0.42715703
0.023192345
0.025727722
0.028560953
0.031655916
0.035025044
0.038693121
0.042674513
0.046981868
0.051626421
0.056616522
0.061955883
0.067642583
0.073666554
0.080008589
0.086637242
0.093507361
0.10055591
0.10770133
0.11484002
0.12184497
0.12856484
0.13483139
0.14043609
0.14516717
0.14880458
0.15108617
0.15181505
0.15081764
0.1478562
0.14281027
0.13565995
0.12632726
0.11485889
0.10141811
0.08610932
0.069186751
0.050886652
0.031362038
0.010911597
-0.010143086
-0.031570934
-0.053163143
-0.074718604
-0.095999905
-0.11682419
-0.13720242
-0.15708246
-0.17626255
-0.19465189
-0.21224377
-0.229024
-0.24496938
-0.26012227
-0.27438786
-0.287745
-0.30036515
-0.31225086
-0.32341054
-0.33383139
-0.343614
-0.3528145
-0.36136694
-0.36932138
-0.37672812
-0.38361914
-0.39002576
-0.39597576
-0.40150033
-0.40662723
-0.41138331
-0.41579198
-0.41988042
-0.42364097
-0.4271291
0.023191936
0.025727432
0.028560584
0.031655506
0.035024604
0.038692648
0.042674004
0.046981324
0.05162583
0.056615886
0.061955206
0.06764187
0.073665813
0.080007834
0.086636489
0.093506637
0.10055524
0.10770077
0.11483963
0.12184488
0.12856556
0.13483223
0.1404373
0.14516915
0.14880751
0.15109005
0.15182008
0.15082404
0.14786409
0.1428197
0.13566976
0.1263389
0.11487272
0.1014324
0.086125966
0.069202604
0.050899138
0.031375919
0.010928419
-0.010125496
-0.031553299
-0.053144694
-0.074697712
-0.095981918
-0.11681737
-0.13719862
-0.15706839
-0.17624554
-0.19463755
-0.21223156
-0.22901254
-0.2449594
-0.26009749
-0.27435706
-0.28773398
-0.30036911
-0.31225893
-0.32341992
-0.33385592
-0.34364989
-0.35283192
-0.36137536
-0.36932647
-0.37673044
-0.38361857
-0.39002056
-0.39596923
-0.4014937
-0.40662058
-0.41138232
-0.41579318
-0.41992339
-0.42369341
-0.42710412
0.023191359
0.025727009
0.028560048
0.031654903
0.035023941
0.038691918
0.042673203
0.046980447
0.051624879
0.056614866
0.061954119
0.067640722
0.073664618
0.080006608
0.086635266
0.093505456
0.10055416
0.10769983
0.11483889
0.12184446
0.12856556
0.13483322
0.14043901
0.14517209
0.14881189
0.15109599
0.15182792
0.1508342
0.14787667
0.14283478
0.13568602
0.12635808
0.11489542
0.10145643
0.086152979
0.069229724
0.050924073
0.031403312
0.010958944
-0.010094848
-0.031523317
-0.053114454
-0.074665169
-0.095951165
-0.11679669
-0.13718161
-0.15704617
-0.1762209
-0.19461352
-0.21220737
-0.22898786
-0.24493357
-0.26006363
-0.2743306
-0.28773133
-0.30036002
-0.3122468
-0.3234054
-0.33384728
-0.34362857
-0.35279843
-0.36134135
-0.36929535
-0.37670165
-0.38359192
-0.38999723
-0.39594793
-0.4014725
-0.40659876
-0.4113538
-0.41575837
-0.41983954
-0.42360154
-0.42708565
0.023190647
0.025726439
0.028559343
0.03165411
0.035023067
0.038690953
0.042672139
0.04697928
0.051623603
0.056613475
0.061952614
0.067639104
0.073662904
0.080004817
0.086633436
0.093503636
0.10055242
0.10769829
0.11483773
0.12184382
0.12856559
0.13483443
0.14044141
0.14517619
0.1488181
0.15110456
0.15183936
0.15084917
0.14789528
0.14285719
0.13571106
0.12638754
0.11492977
0.10149332
0.086194081
0.069271996
0.050964725
0.031446695
0.011005837
-0.010047232
-0.031475692
-0.053066032
-0.074614295
-0.095902539
-0.11675903
-0.13714881
-0.15700719
-0.17617782
-0.19457109
-0.21216623
-0.22894742
-0.24489396
-0.26001783
-0.27428519
-0.28769433
-0.30032875
-0.31222072
-0.32338372
-0.33383537
-0.34361952
-0.35277918
-0.36132378
-0.36927755
-0.37668144
-0.38357004
-0.38997333
-0.39592183
-0.40144533
-0.40657082
-0.41132587
-0.41573359
-0.41982038
-0.42360145
-0.4270893
0.023189808
0.025725708
0.028558459
0.031653113
0.035021962
0.038689727
0.042670781
0.04697778
0.051621951
0.056611664
0.061950645
0.067636979
0.07366064
0.080002438
0.086630994
0.093501192
0.10055008
0.10769619
0.11483604
0.12184276
0.12856554
0.1348358
0.14044452
0.14518168
0.1488266
0.15111641
0.15185532
0.1508702
0.14792155
0.142889
0.13574735
0.12643011
0.11497914
0.10154702
0.086253582
0.069334024
0.051026237
0.031511993
0.011075658
-0.0099760558
-0.031404323
-0.052994026
-0.074540369
-0.095831251
-0.11669855
-0.13709308
-0.15694601
-0.17611377
-0.19450872
-0.21210545
-0.22888705
-0.24483375
-0.25995217
-0.27422152
-0.28764581
-0.30028896
-0.3121825
-0.32334413
-0.33379635
-0.34357855
-0.35273046
-0.36126904
-0.36922103
-0.37662481
-0.38351377
-0.38991795
-0.39586745
-0.40139117
-0.40651623
-0.41126892
-0.41567309
-0.41975276
-0.42352855
-0.42702473
0.023188829
0.025724808
0.028557385
0.031651899
0.035020611
0.038688221
0.042669103
0.046975917
0.051619889
0.056609392
0.061948159
0.067634276
0.073657739
0.079999368
0.086627813
0.093497981
0.10054696
0.10769335
0.11483374
0.12184131
0.12856538
0.13483737
0.1404486
0.14518894
0.14883795
0.15113235
0.15187697
0.15089896
0.14795763
0.14293291
0.13579818
0.12648976
0.11504817
0.10162278
0.086337301
0.069422233
0.051115547
0.031606378
0.011175606
-0.009874023
-0.031301606
-0.052890372
-0.074434833
-0.095728406
-0.1166064
-0.13700638
-0.15685497
-0.17602006
-0.19441641
-0.21201479
-0.22879719
-0.24474493
-0.25986061
-0.27413295
-0.28756835
-0.30021703
-0.31211241
-0.32327614
-0.33373323
-0.34351879
-0.35266821
-0.3612057
-0.36915966
-0.3765648
-0.38345406
-0.38985818
-0.39580724
-0.40133037
-0.40645517
-0.4112081
-0.41561381
-0.41969627
-0.42347663
-0.42697732
0.023187711
0.025723735
0.028556114
0.031650456
0.035018996
0.038686411
0.042667079
0.046973658
0.051617375
0.056606606
0.061945091
0.067630921
0.073654115
0.079995504
0.086623782
0.09349388
0.10054295
0.10768967
0.11483071
0.12183935
0.1285652
0.13483929
0.14045379
0.14519834
0.14885284
0.15115348
0.15190581
0.15093743
0.14800616
0.14299227
0.13586774
0.1265715
0.11514271
0.10172725
0.086452678
0.069544784
0.051241455
0.031739184
0.011315559
-0.0097307422
-0.031156829
-0.052744297
-0.074287121
-0.095583709
-0.11647236
-0.13687827
-0.15672351
-0.1758865
-0.19428491
-0.21188592
-0.22867001
-0.24461948
-0.25973418
-0.27400977
-0.28745582
-0.30011278
-0.31201289
-0.32317955
-0.33363912
-0.34342468
-0.35257024
-0.36110422
-0.36905637
-0.37646015
-0.3833484
-0.38975208
-0.39570109
-0.40122428
-0.4063491
-0.41110181
-0.41550714
-0.41958912
-0.42336946
-0.42687131
0.023186454
0.025722482
0.028554636
0.031648769
0.035017098
0.038684273
0.042664673
0.04697096
0.051614356
0.056603241
0.061941364
0.067626821
0.073649659
0.079990725
0.086618759
0.093488735
0.10053788
0.10768497
0.11482679
0.12183677
0.12856487
0.13484148
0.14046039
0.14521045
0.14887207
0.15118096
0.15194379
0.15098842
0.14807057
0.14307137
0.13596132
0.12668169
0.11527019
0.101869
0.086609283
0.069712209
0.051415384
0.031922551
0.011508198
-0.0095331377
-0.030956662
-0.052542287
-0.074083566
-0.095383278
-0.11628225
-0.13669452
-0.15653775
-0.17569959