/*--------------------------------*- C++ -*----------------------------------*\
| =========                 |                                                 |
| \\      /  F ield         | OpenFOAM: The Open Source CFD Toolbox           |
|  \\    /   O peration     | Version:  v2006                                 |
|   \\  /    A nd           | Website:  www.openfoam.com                      |
|    \\/     M anipulation  |                                                 |
\*---------------------------------------------------------------------------*/
FoamFile
{
    version     2.0;
    format      ascii;
    class       volScalarField;
    location    "7000";
    object      k;
}
// * * * * * * * * * * * * * * * * * * * * * * * * * * * * * * * * * * * * * //

dimensions      [0 2 -2 0 0 0 0];


internalField   nonuniform List<scalar> 
55713
(
1.5622107e-09
4.0018516e-09
1.3288873e-08
2.0757617e-08
2.4164943e-08
2.5101133e-08
2.5114055e-08
2.4963517e-08
2.4868864e-08
2.4836165e-08
2.4831954e-08
2.4834331e-08
2.4836129e-08
2.4836569e-08
2.483649e-08
2.4836333e-08
2.4836204e-08
2.4836074e-08
2.4835973e-08
2.4835978e-08
2.4836062e-08
2.4836158e-08
2.4836201e-08
2.4836159e-08
2.4836058e-08
2.4835922e-08
2.4835782e-08
2.4835603e-08
2.4835411e-08
2.4835168e-08
2.4834908e-08
2.483463e-08
2.4834351e-08
2.4834092e-08
2.4833878e-08
2.4833666e-08
2.4833287e-08
2.4832786e-08
2.4832225e-08
2.4831656e-08
2.4831119e-08
2.4830573e-08
2.482993e-08
2.4829181e-08
2.4828409e-08
2.4827655e-08
2.4826909e-08
2.4826165e-08
2.4825424e-08
2.4824671e-08
2.4823892e-08
2.4823073e-08
2.4822223e-08
2.4821357e-08
2.4820477e-08
2.4819593e-08
2.481875e-08
2.4817972e-08
2.4817215e-08
1.7333426e-09
5.3411603e-09
1.5769124e-08
2.3004455e-08
2.5852746e-08
2.6445549e-08
2.6351134e-08
2.6201702e-08
2.6128581e-08
2.6108719e-08
2.6108175e-08
2.6110066e-08
2.6110628e-08
2.6110106e-08
2.6109327e-08
2.6108603e-08
2.6107895e-08
2.6107197e-08
2.610656e-08
2.6106035e-08
2.6105615e-08
2.6105205e-08
2.6104726e-08
2.6104174e-08
2.6103586e-08
2.6102972e-08
2.6102354e-08
2.6101702e-08
2.6101041e-08
2.6100328e-08
2.6099598e-08
2.6098848e-08
2.6098092e-08
2.6097354e-08
2.6096671e-08
2.6096044e-08
2.6095195e-08
2.6094201e-08
2.6093119e-08
2.6092014e-08
2.6090937e-08
2.6089866e-08
2.6088695e-08
2.6087386e-08
2.6086021e-08
2.6084659e-08
2.6083281e-08
2.6081882e-08
2.6080462e-08
2.6079003e-08
2.6077482e-08
2.607588e-08
2.607419e-08
2.6072426e-08
2.6070585e-08
2.606865e-08
2.6066654e-08
2.6064608e-08
2.6062499e-08
1.9894553e-09
6.9709136e-09
1.8392253e-08
2.5250296e-08
2.7541735e-08
2.7857194e-08
2.7700893e-08
2.756684e-08
2.7514314e-08
2.7503798e-08
2.7504758e-08
2.7505627e-08
2.7504877e-08
2.7503443e-08
2.7502068e-08
2.7500739e-08
2.7499411e-08
2.7498124e-08
2.7496934e-08
2.7495871e-08
2.7494905e-08
2.7493945e-08
2.7492935e-08
2.7491872e-08
2.749078e-08
2.748967e-08
2.7488559e-08
2.7487419e-08
2.7486274e-08
2.7485077e-08
2.7483864e-08
2.7482632e-08
2.7481387e-08
2.7480156e-08
2.7478985e-08
2.7477939e-08
2.7476634e-08
2.7475138e-08
2.7473525e-08
2.7471867e-08
2.7470233e-08
2.7468626e-08
2.7466926e-08
2.7465053e-08
2.7463087e-08
2.7461108e-08
2.7459093e-08
2.7457035e-08
2.7454933e-08
2.7452764e-08
2.7450502e-08
2.7448118e-08
2.7445591e-08
2.7442931e-08
2.7440131e-08
2.7437154e-08
2.7434012e-08
2.7430711e-08
2.7427243e-08
2.3615119e-09
9.0370134e-09
2.1265352e-08
2.7547493e-08
2.9281682e-08
2.9375343e-08
2.9192122e-08
2.9082415e-08
2.9048214e-08
2.9043847e-08
2.9044738e-08
2.9044097e-08
2.9042112e-08
2.9040017e-08
2.9038045e-08
2.9036069e-08
2.9034107e-08
2.9032229e-08
2.9030476e-08
2.9028858e-08
2.9027338e-08
2.9025826e-08
2.9024284e-08
2.9022697e-08
2.9021099e-08
2.9019485e-08
2.9017878e-08
2.9016244e-08
2.9014611e-08
2.9012927e-08
2.9011227e-08
2.9009507e-08
2.9007769e-08
2.900604e-08
2.9004374e-08
2.9002899e-08
2.900117e-08
2.8999174e-08
2.8997029e-08
2.8994811e-08
2.8992607e-08
2.8990452e-08
2.8988232e-08
2.8985803e-08
2.898323e-08
2.8980625e-08
2.8977971e-08
2.897525e-08
2.8972465e-08
2.8969584e-08
2.8966579e-08
2.8963415e-08
2.896005e-08
2.8956486e-08
2.8952725e-08
2.8948702e-08
2.8944405e-08
2.893984e-08
2.8934998e-08
2.8900265e-09
1.1591287e-08
2.4343984e-08
2.988132e-08
3.1097228e-08
3.1032785e-08
3.0852117e-08
3.0770205e-08
3.0750231e-08
3.0749038e-08
3.0748667e-08
3.0746368e-08
3.0743531e-08
3.0740842e-08
3.0738226e-08
3.0735573e-08
3.0732972e-08
3.0730503e-08
3.0728179e-08
3.0725998e-08
3.0723915e-08
3.0721853e-08
3.0719777e-08
3.0717668e-08
3.0715559e-08
3.071344e-08
3.0711337e-08
3.0709209e-08
3.0707092e-08
3.0704923e-08
3.0702741e-08
3.0700538e-08
3.0698312e-08
3.0696086e-08
3.069392e-08
3.0691999e-08
3.0689906e-08
3.0687425e-08
3.0684754e-08
3.0681978e-08
3.0679199e-08
3.0676493e-08
3.0673767e-08
3.0670811e-08
3.066764e-08
3.0664413e-08
3.0661129e-08
3.0657757e-08
3.0654307e-08
3.065073e-08
3.0647001e-08
3.0643083e-08
3.0638905e-08
3.0634456e-08
3.0629754e-08
3.0624716e-08
3.0619289e-08
3.061349e-08
3.0607298e-08
3.6367714e-09
1.4703189e-08
2.7602272e-08
3.227019e-08
3.3031447e-08
3.2869308e-08
3.2711816e-08
3.2656385e-08
3.2646191e-08
3.2645518e-08
3.2643227e-08
3.2639742e-08
3.2636239e-08
3.2632949e-08
3.2629651e-08
3.2626316e-08
3.2623094e-08
3.2620044e-08
3.2617149e-08
3.2614407e-08
3.2611768e-08
3.260917e-08
3.2606565e-08
3.2603945e-08
3.260133e-08
3.259872e-08
3.2596128e-08
3.259352e-08
3.2590927e-08
3.258829e-08
3.2585641e-08
3.258297e-08
3.2580272e-08
3.2577568e-08
3.2574912e-08
3.2572535e-08
3.2570142e-08
3.2567221e-08
3.2564044e-08
3.2560724e-08
3.2557371e-08
3.2554118e-08
3.2550914e-08
3.2547483e-08
3.2543741e-08
3.2539906e-08
3.2536018e-08
3.2532027e-08
3.2527943e-08
3.2523709e-08
3.2519292e-08
3.2514664e-08
3.2509724e-08
3.2504433e-08
3.249883e-08
3.2492836e-08
3.2486329e-08
3.2479357e-08
3.2471866e-08
4.6959632e-09
1.8433074e-08
3.0975522e-08
3.4753515e-08
3.5133507e-08
3.4928287e-08
3.480585e-08
3.4772143e-08
3.4767439e-08
3.4765423e-08
3.4761417e-08
3.4757066e-08
3.4752994e-08
3.4749079e-08
3.4745079e-08
3.4741088e-08
3.4737282e-08
3.473367e-08
3.4730223e-08
3.4726938e-08
3.4723774e-08
3.4720661e-08
3.471755e-08
3.4714439e-08
3.4711345e-08
3.4708266e-08
3.470521e-08
3.4702151e-08
3.4699107e-08
3.4696032e-08
3.4692948e-08
3.468984e-08
3.4686706e-08
3.4683555e-08
3.468044e-08
3.4677618e-08
3.4674971e-08
3.4671721e-08
3.4668081e-08
3.466424e-08
3.4660336e-08
3.4656549e-08
3.4652916e-08
3.4649094e-08
3.4644842e-08
3.4640437e-08
3.4635994e-08
3.4631436e-08
3.4626783e-08
3.4621956e-08
3.4616922e-08
3.4611661e-08
3.4606047e-08
3.4599997e-08
3.459357e-08
3.4586724e-08
3.4579237e-08
3.4571201e-08
3.4562516e-08
6.2289516e-09
2.2827973e-08
3.4625403e-08
3.7391542e-08
3.7461021e-08
3.7259508e-08
3.7174645e-08
3.7156151e-08
3.7153311e-08
3.714923e-08
3.7143932e-08
3.7139001e-08
3.7134415e-08
3.7129844e-08
3.7125159e-08
3.7120581e-08
3.7116249e-08
3.7112114e-08
3.7108155e-08
3.7104377e-08
3.7100735e-08
3.7097149e-08
3.7093575e-08
3.7090016e-08
3.7086489e-08
3.708299e-08
3.7079519e-08
3.7076056e-08
3.7072612e-08
3.7069151e-08
3.7065685e-08
3.7062195e-08
3.7058684e-08
3.7055147e-08
3.705163e-08
3.7048393e-08
3.704553e-08
3.7042141e-08
3.7038115e-08
3.7033797e-08
3.7029383e-08
3.7025099e-08
3.70211e-08
3.7017028e-08
3.7012365e-08
3.7007466e-08
3.7002555e-08
3.6997517e-08
3.6992398e-08
3.6987089e-08
3.6981548e-08
3.6975777e-08
3.6969629e-08
3.6962966e-08
3.6955838e-08
3.6948308e-08
3.6940006e-08
3.6931086e-08
3.692139e-08
8.5705629e-09
2.7906496e-08
3.8328785e-08
4.0182733e-08
4.0084558e-08
3.9919764e-08
3.9866749e-08
3.985727e-08
3.9853655e-08
3.984769e-08
3.9841617e-08
3.983635e-08
3.9831263e-08
3.9826027e-08
3.9820749e-08
3.9815702e-08
3.9810929e-08
3.9806339e-08
3.9801944e-08
3.9797758e-08
3.9793714e-08
3.9789727e-08
3.9785766e-08
3.9781838e-08
3.9777957e-08
3.9774115e-08
3.9770311e-08
3.9766527e-08
3.9762766e-08
3.9759003e-08
3.9755244e-08
3.9751465e-08
3.9747671e-08
3.9743846e-08
3.9740024e-08
3.9736446e-08
3.9733403e-08
3.9730119e-08
3.9725873e-08
3.9721156e-08
3.9716293e-08
3.9711585e-08
3.9707311e-08
3.97032e-08
3.9698285e-08
3.9693024e-08
3.9687793e-08
3.9682409e-08
3.9676986e-08
3.9671373e-08
3.9665498e-08
3.9659403e-08
3.9652931e-08
3.9645894e-08
3.9638261e-08
3.9630304e-08
3.9621457e-08
3.961193e-08
3.9601513e-08
1.2489161e-08
3.3635058e-08
4.2188916e-08
4.326142e-08
4.3089643e-08
4.2972861e-08
4.2943016e-08
4.2937861e-08
4.2932334e-08
4.2925053e-08
4.2918677e-08
4.291331e-08
4.2907711e-08
4.2901882e-08
4.2896197e-08
4.2890853e-08
4.2885765e-08
4.2880838e-08
4.287614e-08
4.2871675e-08
4.2867348e-08
4.2863082e-08
4.2858857e-08
4.2854688e-08
4.2850579e-08
4.2846524e-08
4.2842515e-08
4.2838541e-08
4.2834597e-08
4.2830668e-08
4.282675e-08
4.2822826e-08
4.2818898e-08
4.281494e-08
4.2810968e-08
4.280719e-08
4.2804051e-08
4.2801081e-08
4.2796985e-08
4.2791996e-08
4.2786772e-08
4.2781768e-08
4.2777364e-08
4.2773476e-08
4.2768587e-08
4.2763165e-08
4.2757859e-08
4.2752332e-08
4.274685e-08
4.274121e-08
4.2735266e-08
4.2729129e-08
4.2722641e-08
4.27156e-08
4.2707782e-08
4.2699766e-08
4.2690806e-08
4.2681081e-08
4.2670399e-08
1.8775368e-08
3.9900004e-08
4.6238469e-08
4.6732386e-08
4.6567768e-08
4.6498181e-08
4.6482381e-08
4.6478297e-08
4.6470893e-08
4.646308e-08
4.6456927e-08
4.645168e-08
4.6445579e-08
4.6439396e-08
4.6433579e-08
4.6428183e-08
4.6422979e-08
4.6417917e-08
4.6413125e-08
4.640858e-08
4.6404161e-08
4.639981e-08
4.6395521e-08
4.639131e-08
4.6387171e-08
4.6383103e-08
4.6379092e-08
4.6375132e-08
4.6371213e-08
4.6367328e-08
4.6363462e-08
4.6359613e-08
4.6355775e-08
4.6351918e-08
4.6348039e-08
4.6344296e-08
4.6341204e-08
4.6338751e-08
4.6335418e-08
4.6330395e-08
4.6324936e-08
4.6319839e-08
4.6315553e-08
4.6312169e-08
4.6307785e-08
4.630249e-08
4.6297503e-08
4.629213e-08
4.6286954e-08
4.6281712e-08
4.6276101e-08
4.6270342e-08
4.6264285e-08
4.625778e-08
4.6250317e-08
4.6242746e-08
4.6234359e-08
4.6225014e-08
4.6214766e-08
2.712902e-08
4.6569675e-08
5.0598434e-08
5.0740022e-08
5.0628594e-08
5.0594852e-08
5.0585796e-08
5.0581531e-08
5.0573122e-08
5.0565723e-08
5.0560417e-08
5.0555458e-08
5.0549071e-08
5.0542947e-08
5.0537405e-08
5.0532321e-08
5.0527326e-08
5.0522471e-08
5.0517916e-08
5.0513602e-08
5.0509395e-08
5.050527e-08
5.050123e-08
5.0497286e-08
5.0493428e-08
5.0489655e-08
5.0485954e-08
5.0482322e-08
5.0478747e-08
5.0475224e-08
5.0471738e-08
5.046829e-08
5.0464871e-08
5.0461468e-08
5.0458051e-08
5.0454711e-08
5.0451964e-08
5.0450258e-08
5.0448347e-08
5.0443866e-08
5.0438408e-08
5.0433502e-08
5.042973e-08
5.0427144e-08
5.0424023e-08
5.0419239e-08
5.0415194e-08
5.0410391e-08
5.0406044e-08
5.0401826e-08
5.0397142e-08
5.0392359e-08
5.0387385e-08
5.0382121e-08
5.037593e-08
5.0369444e-08
5.0362684e-08
5.0354507e-08
5.0345732e-08
3.8899886e-08
5.3562302e-08
5.5457062e-08
5.5445329e-08
5.5395888e-08
5.5383363e-08
5.5377111e-08
5.5372502e-08
5.5365039e-08
5.5359355e-08
5.5355495e-08
5.5351294e-08
5.5345181e-08
5.5339925e-08
5.533521e-08
5.5331041e-08
5.5326811e-08
5.5322709e-08
5.5318934e-08
5.5315346e-08
5.5311847e-08
5.530845e-08
5.530515e-08
5.5301961e-08
5.5298864e-08
5.5295868e-08
5.5292954e-08
5.5290127e-08
5.5287372e-08
5.528469e-08
5.5282072e-08
5.5279516e-08
5.5277016e-08
5.5274561e-08
5.5272138e-08
5.526978e-08
5.5267901e-08
5.5267157e-08
5.5267156e-08
5.5264249e-08
5.5259428e-08
5.5255189e-08
5.5252468e-08
5.525115e-08
5.5249941e-08
5.5246333e-08
5.5244143e-08
5.524051e-08
5.5237752e-08
5.5235282e-08
5.5232398e-08
5.522938e-08
5.5226408e-08
5.522324e-08
5.5219541e-08
5.5215057e-08
5.5211236e-08
5.5205507e-08
5.5199629e-08
5.434398e-08
6.0644737e-08
6.1024931e-08
6.0994467e-08
6.0985283e-08
6.0980903e-08
6.09777e-08
6.0974436e-08
6.0969402e-08
6.0966889e-08
6.096482e-08
6.0962191e-08
6.0957757e-08
6.0954757e-08
6.0951882e-08
6.0949551e-08
6.0947008e-08
6.0944579e-08
6.0942413e-08
6.0940358e-08
6.0938377e-08
6.0936502e-08
6.0934716e-08
6.0933037e-08
6.0931447e-08
6.0929956e-08
6.0928548e-08
6.0927235e-08
6.0926001e-08
6.0924856e-08
6.0923792e-08
6.0922815e-08
6.0921911e-08
6.0921084e-08
6.0920324e-08
6.091964e-08
6.0919254e-08
6.0919683e-08
6.0921371e-08
6.092118e-08
6.0918487e-08
6.091631e-08
6.0915659e-08
6.0916029e-08
6.0916552e-08
6.0915737e-08
6.0916171e-08
6.0915014e-08
6.0914825e-08
6.0914892e-08
6.0914817e-08
6.0914639e-08
6.0914673e-08
6.0914618e-08
6.0914525e-08
6.0913734e-08
6.0913853e-08
6.0912667e-08
6.0911627e-08
1.5319949e-08
1.5319672e-08
1.5319432e-08
1.5319936e-08
1.532029e-08
1.5320722e-08
1.5321151e-08
1.5321593e-08
1.532204e-08
1.5322486e-08
1.5322929e-08
1.5323364e-08
1.5323794e-08
1.5324221e-08
1.532465e-08
1.5325082e-08
1.5325513e-08
1.5325935e-08
1.5326328e-08
1.532668e-08
1.5326983e-08
1.5327247e-08
1.5327474e-08
1.532767e-08
1.5327835e-08
1.5327964e-08
1.5328053e-08
1.5328109e-08
1.5328142e-08
1.5328154e-08
1.5328137e-08
1.5328088e-08
1.5327999e-08
1.5327852e-08
1.5327624e-08
1.5327324e-08
1.5327002e-08
1.5326708e-08
1.5326458e-08
1.5326232e-08
1.5325949e-08
1.5325392e-08
1.53243e-08
1.5323017e-08
1.5323957e-08
1.5333246e-08
1.5360104e-08
1.5409587e-08
1.5464287e-08
1.5454962e-08
1.5229635e-08
1.4542797e-08
1.3096786e-08
1.0674909e-08
7.3826601e-09
3.9037467e-09
1.5742052e-09
1.3099225e-09
8.336029e-09
1.5582726e-08
1.5582497e-08
1.5582549e-08
1.5582995e-08
1.5583394e-08
1.5583825e-08
1.5584265e-08
1.5584714e-08
1.5585167e-08
1.5585618e-08
1.5586064e-08
1.5586503e-08
1.5586935e-08
1.5587366e-08
1.5587798e-08
1.5588233e-08
1.5588669e-08
1.5589094e-08
1.5589489e-08
1.558984e-08
1.5590143e-08
1.5590405e-08
1.5590633e-08
1.559083e-08
1.5590996e-08
1.5591125e-08
1.5591211e-08
1.5591264e-08
1.5591295e-08
1.5591304e-08
1.5591284e-08
1.5591231e-08
1.5591137e-08
1.5590985e-08
1.5590755e-08
1.5590456e-08
1.5590134e-08
1.558984e-08
1.5589588e-08
1.5589348e-08
1.5589031e-08
1.5588444e-08
1.5587395e-08
1.5586274e-08
1.5587348e-08
1.5596275e-08
1.5621729e-08
1.5669164e-08
1.572418e-08
1.5724316e-08
1.5526674e-08
1.4891257e-08
1.351253e-08
1.114112e-08
7.8300686e-09
4.2285211e-09
1.6676223e-09
1.1888451e-09
7.1008722e-09
1.5875546e-08
1.587537e-08
1.5875532e-08
1.5875965e-08
1.5876386e-08
1.5876825e-08
1.5877277e-08
1.5877736e-08
1.5878198e-08
1.5878657e-08
1.587911e-08
1.5879554e-08
1.5879992e-08
1.5880427e-08
1.5880863e-08
1.5881303e-08
1.5881744e-08
1.5882174e-08
1.5882572e-08
1.5882924e-08
1.5883226e-08
1.5883489e-08
1.5883718e-08
1.5883918e-08
1.5884086e-08
1.5884216e-08
1.5884302e-08
1.5884355e-08
1.5884387e-08
1.5884396e-08
1.5884377e-08
1.5884325e-08
1.5884235e-08
1.5884089e-08
1.5883868e-08
1.5883573e-08
1.5883247e-08
1.5882943e-08
1.5882684e-08
1.5882451e-08
1.5882176e-08
1.5881683e-08
1.5880719e-08
1.5879388e-08
1.5879356e-08
1.5885579e-08
1.5906835e-08
1.5951198e-08
1.6011291e-08
1.6036385e-08
1.589638e-08
1.535598e-08
1.4092572e-08
1.1805967e-08
8.4722371e-09
4.6896733e-09
1.8091774e-09
1.0910141e-09
5.9723782e-09
1.6203053e-08
1.6202941e-08
1.6203216e-08
1.620364e-08
1.620408e-08
1.6204529e-08
1.6204991e-08
1.6205459e-08
1.6205928e-08
1.6206393e-08
1.6206851e-08
1.6207299e-08
1.6207739e-08
1.6208178e-08
1.6208618e-08
1.6209062e-08
1.6209507e-08
1.620994e-08
1.621034e-08
1.6210691e-08
1.6210991e-08
1.6211254e-08
1.6211484e-08
1.6211686e-08
1.6211856e-08
1.6211985e-08
1.6212069e-08
1.6212121e-08
1.6212152e-08
1.6212162e-08
1.6212143e-08
1.6212091e-08
1.6212001e-08
1.621186e-08
1.6211645e-08
1.6211355e-08
1.6211027e-08
1.6210716e-08
1.621045e-08
1.6210214e-08
1.6209955e-08
1.6209525e-08
1.6208668e-08
1.6207341e-08
1.6206736e-08
1.6211029e-08
1.6228528e-08
1.6268718e-08
1.6329774e-08
1.6372041e-08
1.627978e-08
1.5826964e-08
1.4680484e-08
1.2493192e-08
9.157039e-09
5.2015663e-09
1.9995198e-09
1.0256377e-09
5.0460939e-09
1.6570551e-08
1.6570525e-08
1.6570876e-08
1.6571302e-08
1.6571755e-08
1.6572214e-08
1.6572686e-08
1.6573163e-08
1.6573638e-08
1.6574108e-08
1.6574568e-08
1.6575018e-08
1.6575461e-08
1.6575901e-08
1.6576343e-08
1.657679e-08
1.6577239e-08
1.6577675e-08
1.6578075e-08
1.6578422e-08
1.657872e-08
1.6578981e-08
1.6579212e-08
1.6579415e-08
1.6579585e-08
1.6579712e-08
1.6579794e-08
1.6579844e-08
1.6579876e-08
1.6579886e-08
1.6579868e-08
1.6579816e-08
1.6579727e-08
1.6579591e-08
1.6579385e-08
1.6579101e-08
1.6578772e-08
1.6578453e-08
1.6578179e-08
1.6577942e-08
1.65777e-08
1.6577333e-08
1.6576593e-08
1.6575299e-08
1.6574191e-08
1.6576622e-08
1.6590228e-08
1.6625516e-08
1.6685848e-08
1.6742936e-08
1.6697177e-08
1.6335306e-08
1.5317646e-08
1.3250858e-08
9.9320239e-09
5.7967653e-09
2.2460464e-09
9.8850531e-10
4.2402238e-09
1.6984534e-08
1.6984607e-08
1.6985014e-08
1.6985447e-08
1.698591e-08
1.698638e-08
1.698686e-08
1.6987343e-08
1.6987822e-08
1.6988294e-08
1.6988755e-08
1.6989204e-08
1.6989646e-08
1.6990086e-08
1.6990529e-08
1.6990978e-08
1.6991428e-08
1.6991865e-08
1.6992262e-08
1.6992605e-08
1.6992898e-08
1.6993157e-08
1.6993388e-08
1.6993591e-08
1.6993761e-08
1.6993884e-08
1.6993961e-08
1.699401e-08
1.6994041e-08
1.6994052e-08
1.6994034e-08
1.6993983e-08
1.6993896e-08
1.6993764e-08
1.6993567e-08
1.6993292e-08
1.6992964e-08
1.6992639e-08
1.6992356e-08
1.6992116e-08
1.6991886e-08
1.6991574e-08
1.6990956e-08
1.6989772e-08
1.6988369e-08
1.6989257e-08
1.6999125e-08
1.7028826e-08
1.7086025e-08
1.7153473e-08
1.7149217e-08
1.6876986e-08
1.5996539e-08
1.4072395e-08
1.079869e-08
6.4882044e-09
2.5550457e-09
9.825504e-10
3.5766513e-09
1.7452922e-08
1.7453093e-08
1.7453531e-08
1.7453975e-08
1.7454447e-08
1.7454925e-08
1.7455411e-08
1.7455898e-08
1.7456378e-08
1.7456849e-08
1.7457306e-08
1.7457752e-08
1.745819e-08
1.7458627e-08
1.7459069e-08
1.7459517e-08
1.7459967e-08
1.7460401e-08
1.7460793e-08
1.7461127e-08
1.7461414e-08
1.746167e-08
1.7461899e-08
1.7462102e-08
1.7462268e-08
1.7462385e-08
1.7462456e-08
1.7462501e-08
1.7462532e-08
1.7462544e-08
1.7462527e-08
1.7462477e-08
1.7462392e-08
1.7462266e-08
1.7462078e-08
1.7461814e-08
1.7461491e-08
1.7461162e-08
1.7460871e-08
1.7460627e-08
1.7460406e-08
1.746014e-08
1.7459642e-08
1.7458614e-08
1.7457085e-08
1.7456756e-08
1.746317e-08
1.7486895e-08
1.7538885e-08
1.7612241e-08
1.7643734e-08
1.7458365e-08
1.6722335e-08
1.4964086e-08
1.1769621e-08
7.2999483e-09
2.946296e-09
1.0149629e-09
3.0234268e-09
1.7985467e-08
1.7985724e-08
1.7986175e-08
1.798663e-08
1.7987107e-08
1.7987591e-08
1.798808e-08
1.7988565e-08
1.7989042e-08
1.7989507e-08
1.7989957e-08
1.7990395e-08
1.7990826e-08
1.7991256e-08
1.7991693e-08
1.7992137e-08
1.7992583e-08
1.7993012e-08
1.7993393e-08
1.7993716e-08
1.7993993e-08
1.7994243e-08
1.799447e-08
1.7994669e-08
1.7994829e-08
1.7994936e-08
1.7994999e-08
1.7995041e-08
1.7995071e-08
1.7995084e-08
1.7995068e-08
1.799502e-08
1.7994938e-08
1.7994817e-08
1.7994641e-08
1.7994391e-08
1.7994077e-08
1.7993746e-08
1.7993448e-08
1.7993201e-08
1.7992987e-08
1.7992758e-08
1.7992372e-08
1.7991533e-08
1.7990044e-08
1.7988869e-08
1.7992275e-08
1.8009929e-08
1.8054866e-08
1.8129356e-08
1.8189352e-08
1.8085292e-08
1.7498319e-08
1.5929006e-08
1.2854474e-08
8.2520949e-09
3.4405753e-09
1.0738471e-09
2.5655448e-09
1.8594334e-08
1.8594639e-08
1.8595096e-08
1.8595557e-08
1.8596036e-08
1.859652e-08
1.8597005e-08
1.8597483e-08
1.8597951e-08
1.8598404e-08
1.8598842e-08
1.8599265e-08
1.8599683e-08
1.8600102e-08
1.8600528e-08
1.8600963e-08
1.8601401e-08
1.8601817e-08
1.8602182e-08
1.8602487e-08
1.8602752e-08
1.8602994e-08
1.8603214e-08
1.8603407e-08
1.8603555e-08
1.8603648e-08
1.86037e-08
1.8603737e-08
1.8603767e-08
1.860378e-08
1.8603767e-08
1.8603721e-08
1.8603643e-08
1.860353e-08
1.8603367e-08
1.8603136e-08
1.8602835e-08
1.8602508e-08
1.8602207e-08
1.8601959e-08
1.8601753e-08
1.8601554e-08
1.8601264e-08
1.8600627e-08
1.8599315e-08
1.8597674e-08
1.8598663e-08
1.8610512e-08
1.8647034e-08
1.8717979e-08
1.8798112e-08
1.8766879e-08
1.8329491e-08
1.697108e-08
1.4063625e-08
9.3693e-09
4.0637582e-09
1.178869e-09
2.1916143e-09
1.9294829e-08
1.9295159e-08
1.9295617e-08
1.9296079e-08
1.9296553e-08
1.9297031e-08
1.9297506e-08
1.929797e-08
1.9298421e-08
1.9298854e-08
1.9299269e-08
1.929967e-08
1.9300067e-08
1.9300466e-08
1.9300873e-08
1.9301292e-08
1.9301713e-08
1.9302108e-08
1.9302447e-08
1.9302727e-08
1.9302972e-08
1.9303202e-08
1.9303412e-08
1.9303592e-08
1.9303723e-08
1.9303794e-08
1.9303832e-08
1.9303863e-08
1.9303891e-08
1.9303905e-08
1.9303895e-08
1.9303853e-08
1.9303782e-08
1.9303679e-08
1.9303533e-08
1.9303324e-08
1.9303045e-08
1.9302729e-08
1.9302432e-08
1.9302188e-08
1.9301994e-08
1.9301822e-08
1.9301612e-08
1.9301171e-08
1.9300131e-08
1.9298384e-08
1.9297654e-08
1.9304344e-08
1.9331723e-08
1.9394863e-08
1.9485917e-08
1.9515994e-08
1.9224033e-08
1.8094853e-08
1.540675e-08
1.0679669e-08
4.8563004e-09
1.3327472e-09
1.8932942e-09
2.0106549e-08
2.0106883e-08
2.0107334e-08
2.0107788e-08
2.010825e-08
2.0108712e-08
2.0109165e-08
2.0109603e-08
2.0110024e-08
2.0110423e-08
2.0110802e-08
2.0111167e-08
2.0111529e-08
2.0111895e-08
2.0112271e-08
2.0112661e-08
2.0113053e-08
2.0113413e-08
2.0113712e-08
2.0113956e-08
2.0114175e-08
2.0114384e-08
2.0114577e-08
2.0114737e-08
2.011484e-08
2.0114881e-08
2.0114899e-08
2.0114923e-08
2.0114948e-08
2.0114962e-08
2.0114956e-08
2.011492e-08
2.0114859e-08
2.011477e-08
2.0114646e-08
2.0114467e-08
2.0114219e-08
2.0113924e-08
2.011364e-08
2.0113409e-08
2.0113236e-08
2.0113096e-08
2.0112953e-08
2.0112684e-08
2.0111967e-08
2.0110416e-08
2.0108707e-08
2.0111234e-08
2.0129533e-08
2.0181472e-08
2.0273965e-08
2.0350834e-08
2.0194314e-08
1.9307267e-08
1.6892908e-08
1.2212843e-08
5.8709721e-09
1.5453579e-09
1.6683588e-09
2.1054752e-08
2.1055093e-08
2.1055532e-08
2.1055968e-08
2.1056408e-08
2.105684e-08
2.1057255e-08
2.105765e-08
2.1058023e-08
2.1058369e-08
2.1058693e-08
2.1059003e-08
2.1059312e-08
2.1059628e-08
2.1059955e-08
2.1060299e-08
2.1060645e-08
2.1060949e-08
2.106119e-08
2.1061383e-08
2.1061565e-08
2.1061744e-08
2.1061909e-08
2.1062036e-08
2.10621e-08
2.1062097e-08
2.1062086e-08
2.1062103e-08
2.1062123e-08
2.1062136e-08
2.1062137e-08
2.106211e-08
2.1062063e-08
2.1061994e-08
2.1061899e-08
2.1061759e-08
2.1061556e-08
2.1061299e-08
2.1061042e-08
2.1060836e-08
2.1060697e-08
2.1060602e-08
2.1060525e-08
2.1060401e-08
2.1060004e-08
2.105886e-08
2.1056879e-08
2.10565e-08
2.1066625e-08
2.1105268e-08
2.119029e-08
2.1297003e-08
2.1259261e-08
2.0620066e-08
1.8531268e-08
1.3998962e-08
7.1781117e-09
1.8338075e-09
1.527424e-09
2.2172088e-08
2.2172452e-08
2.2172871e-08
2.2173276e-08
2.2173681e-08
2.2174067e-08
2.2174428e-08
2.2174762e-08
2.2175066e-08
2.2175339e-08
2.2175586e-08
2.2175819e-08
2.2176055e-08
2.2176298e-08
2.2176556e-08
2.2176834e-08
2.2177113e-08
2.2177338e-08
2.2177499e-08
2.2177624e-08
2.2177755e-08
2.2177894e-08
2.2178017e-08
2.2178099e-08
2.2178104e-08
2.2178035e-08
2.2177995e-08
2.2178e-08
2.2178015e-08
2.2178027e-08
2.2178038e-08
2.2178022e-08
2.2177996e-08
2.2177955e-08
2.21779e-08
2.2177812e-08
2.217767e-08
2.217747e-08
2.217726e-08
2.2177096e-08
2.2177e-08
2.2176978e-08
2.2176985e-08
2.2176985e-08
2.2176861e-08
2.2176221e-08
2.2174543e-08
2.2172615e-08
2.2176251e-08
2.2201154e-08
2.2271359e-08
2.2389752e-08
2.2447006e-08
2.2048893e-08
2.0332981e-08
1.6066588e-08
8.8627291e-09
2.2745041e-09
1.4658561e-09
2.3499151e-08
2.349957e-08
2.3499965e-08
2.3500343e-08
2.3500714e-08
2.3501053e-08
2.3501355e-08
2.3501623e-08
2.3501853e-08
2.3502043e-08
2.3502203e-08
2.3502351e-08
2.3502503e-08
2.3502665e-08
2.3502846e-08
2.3503051e-08
2.3503252e-08
2.3503388e-08
2.3503451e-08
2.3503498e-08
2.3503578e-08
2.3503677e-08
2.3503756e-08
2.350378e-08
2.3503681e-08
2.3503562e-08
2.3503499e-08
2.3503486e-08
2.3503497e-08
2.3503511e-08
2.3503535e-08
2.3503537e-08
2.3503542e-08
2.3503536e-08
2.3503536e-08
2.3503515e-08
2.3503449e-08
2.3503326e-08
2.350318e-08
2.3503069e-08
2.3503037e-08
2.3503111e-08
2.3503217e-08
2.3503337e-08
2.350343e-08
2.3503255e-08
2.350224e-08
2.3500001e-08
2.3499361e-08
2.351183e-08
2.3562408e-08
2.3674707e-08
2.3797392e-08
2.3621558e-08
2.2314961e-08
1.8445893e-08
1.1001525e-08
2.9865963e-09
1.4615105e-09
1.0066494e-08
1.2182677e-08
1.4446775e-08
1.6961896e-08
1.9815691e-08
2.3067563e-08
2.675516e-08
3.0903709e-08
3.5531654e-08
4.0650259e-08
4.625932e-08
5.2341413e-08
5.8854911e-08
6.5726106e-08
7.2839823e-08
8.0030846e-08
8.7074285e-08
9.3679306e-08
9.9488098e-08
1.0407456e-07
1.0698146e-07
1.0776752e-07
1.0608247e-07
1.0158799e-07
9.4018149e-08
8.3387617e-08
7.0208341e-08
5.4204864e-08
3.7596725e-08
2.1873491e-08
8.5759207e-09
9.703219e-10
1.852009e-09
9.0564836e-09
2.6582046e-08
5.9717524e-08
1.0763138e-07
1.6238628e-07
2.2368359e-07
2.9364336e-07
3.7246245e-07
4.5878915e-07
5.5344697e-07
6.5115791e-07
7.5099315e-07
8.5237226e-07
9.5348138e-07
1.052096e-06
1.1469746e-06
1.2378815e-06
1.3247103e-06
1.4075489e-06
1.4863575e-06
1.5603846e-06
1.6295936e-06
1.6947089e-06
1.7561416e-06
1.8138969e-06
1.8680272e-06
1.9189364e-06
1.9667878e-06
2.0114572e-06
2.0529782e-06
2.0915158e-06
2.1272531e-06
2.1603678e-06
2.1910384e-06
2.2194343e-06
2.2457209e-06
2.2700414e-06
2.2925454e-06
2.3133309e-06
2.3325401e-06
2.3501598e-06
1.6537213e-09
2.0526041e-09
2.4922425e-09
2.9837172e-09
3.529955e-09
4.1366434e-09
4.8099132e-09
5.5550128e-09
6.3757971e-09
7.2746916e-09
8.2525279e-09
9.3078239e-09
1.0435714e-08
1.1626619e-08
1.2864691e-08
1.4126312e-08
1.5378582e-08
1.657795e-08
1.7670031e-08
1.8588456e-08
1.9260726e-08
1.9573214e-08
1.9417184e-08
1.8752638e-08
1.7569497e-08
1.5880714e-08
1.3757317e-08
1.1305759e-08
8.6768773e-09
6.0542817e-09
3.9668723e-09
1.980845e-09
8.3371804e-10
1.1426716e-09
2.5228513e-09
5.5280963e-09
1.0428468e-08
1.6753472e-08
2.4192181e-08
3.2729055e-08
4.2380141e-08
5.3064665e-08
6.4894567e-08
7.7441124e-08
9.0413141e-08
1.0377794e-07
1.1745965e-07
1.312103e-07
1.448038e-07
1.5809376e-07
1.7098826e-07
1.8343781e-07
1.9542093e-07
2.0687662e-07
2.1767803e-07
2.2784295e-07
2.3741331e-07
2.4642078e-07
2.5487748e-07
2.6279757e-07
2.7023629e-07
2.7721358e-07
2.8374406e-07
2.8984474e-07
2.9553396e-07
3.0083285e-07
3.0576103e-07
3.1034132e-07
3.1459307e-07
3.1853918e-07
3.2219755e-07
3.2559236e-07
3.2873354e-07
3.3172345e-07
1.4760321e-09
1.4145107e-09
1.3716695e-09
1.3422656e-09
1.3373065e-09
1.3647489e-09
1.4285525e-09
1.5360016e-09
1.6938645e-09
1.9037476e-09
2.1645084e-09
2.4721327e-09
2.8219192e-09
3.2080602e-09
3.6236443e-09
4.0606373e-09
4.5095767e-09
4.9591746e-09
5.3958719e-09
5.8031714e-09
6.162341e-09
6.449132e-09
6.634935e-09
6.6947501e-09
6.6106784e-09
6.3729813e-09
5.9842712e-09
5.457433e-09
4.8027436e-09
4.0624424e-09
3.3004972e-09
2.5882408e-09
1.9291972e-09
1.4803518e-09
1.2449203e-09
1.3978129e-09
1.8441471e-09
2.5832946e-09
3.5959777e-09
4.8804772e-09
6.4197386e-09
8.1916698e-09
1.0187287e-08
1.2374551e-08
1.471573e-08
1.7182152e-08
1.9747397e-08
2.2379916e-08
2.5047398e-08
2.7720248e-08
3.0372735e-08
3.2984288e-08
3.5540422e-08
3.7993423e-08
4.0330961e-08
4.2552338e-08
4.4655882e-08
4.6646329e-08
4.8519352e-08
5.0297713e-08
5.1984613e-08
5.3581289e-08
5.5089395e-08
5.6511011e-08
5.7848605e-08
5.9105046e-08
6.0283393e-08
6.1386915e-08
6.2419049e-08
6.3383205e-08
6.428314e-08
6.5122401e-08
6.5905134e-08
6.6639052e-08
3.2230144e-09
2.5936924e-09
2.1266327e-09
1.8025721e-09
1.5967193e-09
1.4707825e-09
1.3960342e-09
1.3439622e-09
1.3056392e-09
1.2699208e-09
1.2619064e-09
1.2777287e-09
1.322706e-09
1.4009947e-09
1.5139503e-09
1.6611858e-09
1.8390036e-09
2.0425397e-09
2.265409e-09
2.4993996e-09
2.7317375e-09
2.9479795e-09
3.138847e-09
3.2951614e-09
3.4076402e-09
3.4682646e-09
3.4712078e-09
3.41591e-09
3.3070775e-09
3.1470419e-09
2.9372542e-09
2.6980668e-09
2.4370265e-09
2.1703411e-09
1.9185865e-09
1.7253904e-09
1.6089883e-09
1.5643685e-09
1.613408e-09
1.7228692e-09
1.8915852e-09
2.1124203e-09
2.390875e-09
2.7220751e-09
3.1001011e-09
3.5186765e-09
3.9710514e-09
4.4502619e-09
4.9495731e-09
5.4626191e-09
5.9834432e-09
6.5068337e-09
7.0279202e-09
7.5419756e-09
8.0452929e-09
8.5348963e-09
9.0083943e-09
9.4639893e-09
9.9004404e-09
1.0317333e-08
1.0714296e-08
1.1091241e-08
1.1448335e-08
1.1785907e-08
1.2104396e-08
1.240434e-08
1.2686343e-08
1.2951064e-08
1.3199202e-08
1.3431483e-08
1.3648641e-08
1.3851469e-08
1.4040158e-08
1.4216289e-08
6.3407481e-09
5.205702e-09
4.234199e-09
3.4348901e-09
2.802219e-09
2.3158595e-09
1.9615597e-09
1.7149281e-09
1.5308411e-09
1.4085591e-09
1.3294336e-09
1.2790658e-09
1.2443188e-09
1.2206586e-09
1.1954472e-09
1.1904697e-09
1.2009572e-09
1.2306889e-09
1.281544e-09
1.3552832e-09
1.456566e-09
1.5793407e-09
1.7162743e-09
1.8548409e-09
1.9845798e-09
2.0999022e-09
2.1965637e-09
2.2709587e-09
2.3213873e-09
2.3468723e-09
2.3462654e-09
2.3203349e-09
2.2736681e-09
2.1998877e-09
2.120718e-09
2.0293984e-09
1.9351781e-09
1.8507488e-09
1.7821795e-09
1.7344585e-09
1.6944946e-09
1.6808968e-09
1.6828718e-09
1.6960271e-09
1.7200962e-09
1.754381e-09
1.7980398e-09
1.8499934e-09
1.9090647e-09
1.9740529e-09
2.0437638e-09
2.1170804e-09
2.1929139e-09
2.2702388e-09
2.3482192e-09
2.4261237e-09
2.5032964e-09
2.5791599e-09
2.653255e-09
2.7252324e-09
2.7947861e-09
2.8616777e-09
2.9257513e-09
2.9869118e-09
3.0451085e-09
3.1003301e-09
3.1525964e-09
3.2019522e-09
3.2484641e-09
3.2922108e-09
3.3332933e-09
3.3718028e-09
3.4078627e-09
3.4415466e-09
9.5451346e-09
8.2105565e-09
6.952938e-09
5.8220799e-09
4.8377501e-09
4.0041357e-09
3.3181047e-09
2.7731219e-09
2.3393035e-09
2.003995e-09
1.7493137e-09
1.5625389e-09
1.430752e-09
1.3305301e-09
1.2634565e-09
1.2191506e-09
1.1917241e-09
1.1713984e-09
1.1553629e-09
1.141681e-09
1.1405709e-09
1.1497861e-09
1.1766629e-09
1.2232288e-09
1.2861913e-09
1.3607468e-09
1.4432801e-09
1.5234342e-09
1.5965233e-09
1.6602343e-09
1.7134175e-09
1.755183e-09
1.7855588e-09
1.8046268e-09
1.8129515e-09
1.8115304e-09
1.8026414e-09
1.7841699e-09
1.7587336e-09
1.7368514e-09
1.7164158e-09
1.6983096e-09
1.682784e-09
1.6711138e-09
1.6633289e-09
1.6558468e-09
1.6501419e-09
1.6464106e-09
1.6445418e-09
1.6443584e-09
1.6456516e-09
1.6482794e-09
1.6520453e-09
1.6566651e-09
1.6619483e-09
1.6677438e-09
1.6739246e-09
1.6803718e-09
1.686986e-09
1.6936877e-09
1.7004012e-09
1.7070578e-09
1.7136044e-09
1.7199992e-09
1.7262086e-09
1.7322069e-09
1.7379754e-09
1.7435004e-09
1.7487737e-09
1.7537903e-09
1.7585499e-09
1.7630511e-09
1.7672969e-09
1.7712805e-09
1.2105662e-08