/*--------------------------------*- C++ -*----------------------------------*\
| =========                 |                                                 |
| \\      /  F ield         | OpenFOAM: The Open Source CFD Toolbox           |
|  \\    /   O peration     | Version:  v2006                                 |
|   \\  /    A nd           | Website:  www.openfoam.com                      |
|    \\/     M anipulation  |                                                 |
\*---------------------------------------------------------------------------*/
FoamFile
{
    version     2.0;
    format      ascii;
    class       volScalarField;
    location    "7000";
    object      nut;
}
// * * * * * * * * * * * * * * * * * * * * * * * * * * * * * * * * * * * * * //

dimensions      [0 2 -1 0 0 0 0];


internalField   nonuniform List<scalar> 
55713
(
2.765518e-10
2.8815658e-09
2.8919505e-08
6.9338902e-08
8.9617816e-08
9.5666678e-08
9.5898042e-08
9.5047109e-08
9.4485975e-08
9.4281474e-08
9.4248752e-08
9.4260434e-08
9.4271351e-08
9.4274886e-08
9.4274546e-08
9.4273747e-08
9.4273449e-08
9.4273269e-08
9.4272927e-08
9.427294e-08
9.4273466e-08
9.427424e-08
9.4274868e-08
9.4275147e-08
9.4275182e-08
9.4275104e-08
9.4275071e-08
9.4274927e-08
9.4274828e-08
9.4274631e-08
9.427442e-08
9.4274192e-08
9.4273999e-08
9.4273905e-08
9.4274012e-08
9.4274216e-08
9.4273939e-08
9.4273351e-08
9.427263e-08
9.427194e-08
9.4271386e-08
9.4270856e-08
9.4270121e-08
9.4269108e-08
9.4267976e-08
9.4266847e-08
9.4265756e-08
9.4264722e-08
9.4263754e-08
9.4262804e-08
9.4261827e-08
9.4260776e-08
9.4259662e-08
9.4258527e-08
9.4257399e-08
9.4256271e-08
9.4255164e-08
9.4254015e-08
9.4252776e-08
3.363302e-10
4.1803869e-09
3.5951995e-08
7.6186707e-08
9.305534e-08
9.6971342e-08
9.6592197e-08
9.576295e-08
9.5332868e-08
9.5208729e-08
9.5202762e-08
9.521628e-08
9.5223711e-08
9.5224659e-08
9.5223295e-08
9.5222223e-08
9.5221674e-08
9.5221069e-08
9.5220327e-08
9.5219945e-08
9.5220153e-08
9.522055e-08
9.5220725e-08
9.5220576e-08
9.5220255e-08
9.521984e-08
9.5219454e-08
9.5218975e-08
9.5218545e-08
9.521801e-08
9.5217457e-08
9.5216888e-08
9.5216341e-08
9.5215879e-08
9.5215632e-08
9.5215666e-08
9.5215076e-08
9.5214154e-08
9.5213058e-08
9.521196e-08
9.5210989e-08
9.5210097e-08
9.5209031e-08
9.5207664e-08
9.5206134e-08
9.5204591e-08
9.5203059e-08
9.5201574e-08
9.5200139e-08
9.519871e-08
9.5197229e-08
9.5195652e-08
9.5193961e-08
9.5192202e-08
9.5190403e-08
9.5188546e-08
9.5186638e-08
9.5184613e-08
9.5182412e-08
4.2150084e-10
5.8789115e-09
4.3445762e-08
8.2299954e-08
9.5729629e-08
9.8036801e-08
9.7313221e-08
9.6570776e-08
9.6261805e-08
9.6197369e-08
9.6205878e-08
9.6217989e-08
9.6221709e-08
9.6220571e-08
9.621883e-08
9.6217554e-08
9.6216626e-08
9.6215587e-08
9.621448e-08
9.6213788e-08
9.6213621e-08
9.6213574e-08
9.6213345e-08
9.6212836e-08
9.6212171e-08
9.6211423e-08
9.6210708e-08
9.6209907e-08
9.6209154e-08
9.6208291e-08
9.6207421e-08
9.6206539e-08
9.6205661e-08
9.6204844e-08
9.6204242e-08
9.6204122e-08
9.620329e-08
9.620206e-08
9.6200616e-08
9.6199125e-08
9.6197748e-08
9.6196499e-08
9.6195136e-08
9.6193452e-08
9.6191557e-08
9.618963e-08
9.6187696e-08
9.6185797e-08
9.6183942e-08
9.6182073e-08
9.6180138e-08
9.6178085e-08
9.6175877e-08
9.6173552e-08
9.6171149e-08
9.6168637e-08
9.6166011e-08
9.6163198e-08
9.6160118e-08
5.4438774e-10
8.2001076e-09
5.1589443e-08
8.7808186e-08
9.796271e-08
9.8985254e-08
9.808795e-08
9.7476116e-08
9.7275956e-08
9.725296e-08
9.7266954e-08
9.7275081e-08
9.7275469e-08
9.7273493e-08
9.7271557e-08
9.726996e-08
9.7268616e-08
9.7267179e-08
9.7265747e-08
9.726476e-08
9.7264249e-08
9.7263806e-08
9.7263214e-08
9.7262348e-08
9.7261375e-08
9.726031e-08
9.7259304e-08
9.7258199e-08
9.7257165e-08
9.7256002e-08
9.725484e-08
9.7253665e-08
9.7252474e-08
9.725134e-08
9.7250399e-08
9.7250102e-08
9.7249127e-08
9.724762e-08
9.7245865e-08
9.7244011e-08
9.7242246e-08
9.724065e-08
9.7239029e-08
9.7237074e-08
9.7234852e-08
9.7232571e-08
9.7230275e-08
9.7227999e-08
9.7225766e-08
9.7223497e-08
9.722115e-08
9.7218672e-08
9.7216003e-08
9.7213161e-08
9.721021e-08
9.7207106e-08
9.7203827e-08
9.7200298e-08
9.7196414e-08
7.2253814e-10
1.1291952e-08
6.0087018e-08
9.2557301e-08
9.979106e-08
9.9872951e-08
9.8949804e-08
9.8487831e-08
9.8374414e-08
9.8375848e-08
9.838866e-08
9.8392156e-08
9.8390773e-08
9.8388501e-08
9.8386332e-08
9.8384327e-08
9.8382552e-08
9.8380754e-08
9.8379043e-08
9.8377802e-08
9.8376967e-08
9.8376181e-08
9.8375247e-08
9.8374059e-08
9.8372792e-08
9.8371446e-08
9.8370178e-08
9.8368798e-08
9.8367515e-08
9.8366076e-08
9.8364666e-08
9.8363229e-08
9.8361773e-08
9.8360351e-08
9.8359093e-08
9.8358566e-08
9.8357586e-08
9.8355838e-08
9.8353816e-08
9.835164e-08
9.8349504e-08
9.8347572e-08
9.8345723e-08
9.8343566e-08
9.8341064e-08
9.8338471e-08
9.8335857e-08
9.8333254e-08
9.8330699e-08
9.8328088e-08
9.8325387e-08
9.8322552e-08
9.8319497e-08
9.8316211e-08
9.8312783e-08
9.8309174e-08
9.830533e-08
9.8301189e-08
9.8296601e-08
9.8311017e-10
1.5349045e-08
6.8663187e-08
9.6138353e-08
1.0131697e-07
1.0076276e-07
9.9923315e-08
9.9608553e-08
9.9556977e-08
9.9569014e-08
9.9576839e-08
9.9577316e-08
9.9575117e-08
9.9572716e-08
9.9570229e-08
9.9567755e-08
9.9565565e-08
9.9563474e-08
9.9561556e-08
9.9560093e-08
9.9558967e-08
9.9557887e-08
9.955664e-08
9.9555177e-08
9.9553645e-08
9.9552068e-08
9.9550555e-08
9.954895e-08
9.9547435e-08
9.9545771e-08
9.9544151e-08
9.9542492e-08
9.954081e-08
9.9539146e-08
9.9537616e-08
9.9536837e-08
9.9535937e-08
9.9534035e-08
9.9531794e-08
9.9529342e-08
9.9526862e-08
9.9524604e-08
9.9522555e-08
9.9520275e-08
9.9517548e-08
9.9514696e-08
9.9511828e-08
9.9508968e-08
9.9506151e-08
9.9503266e-08
9.9500275e-08
9.949716e-08
9.9493803e-08
9.9490161e-08
9.9486339e-08
9.9482327e-08
9.9478022e-08
9.9473388e-08
9.9468215e-08
1.3687022e-09
2.0583968e-08
7.6918274e-08
9.9019676e-08
1.0255869e-07
1.0169474e-07
1.0102677e-07
1.0083861e-07
1.0082509e-07
1.0083715e-07
1.0084026e-07
1.0083904e-07
1.0083658e-07
1.0083407e-07
1.008312e-07
1.0082824e-07
1.0082567e-07
1.0082337e-07
1.0082133e-07
1.0081968e-07
1.0081833e-07
1.00817e-07
1.0081549e-07
1.0081379e-07
1.0081205e-07
1.0081029e-07
1.0080857e-07
1.0080678e-07
1.0080507e-07
1.0080324e-07
1.0080145e-07
1.0079962e-07
1.0079776e-07
1.0079591e-07
1.0079416e-07
1.0079314e-07
1.0079232e-07
1.0079044e-07
1.0078806e-07
1.0078537e-07
1.0078259e-07
1.0078002e-07
1.0077781e-07
1.007755e-07
1.0077263e-07
1.0076958e-07
1.0076654e-07
1.0076349e-07
1.007605e-07
1.0075741e-07
1.0075422e-07
1.0075091e-07
1.0074736e-07
1.0074347e-07
1.0073936e-07
1.0073507e-07
1.0073043e-07
1.0072545e-07
1.0071984e-07
1.9522489e-09
2.7221624e-08
8.5016852e-08
1.0204157e-07
1.0365534e-07
1.0273942e-07
1.022724e-07
1.0217653e-07
1.0218247e-07
1.0218945e-07
1.0218907e-07
1.0218718e-07
1.0218471e-07
1.0218201e-07
1.0217874e-07
1.0217537e-07
1.0217248e-07
1.0217005e-07
1.0216795e-07
1.021662e-07
1.0216469e-07
1.0216317e-07
1.0216145e-07
1.0215957e-07
1.0215768e-07
1.0215577e-07
1.0215392e-07
1.02152e-07
1.0215015e-07
1.021482e-07
1.0214631e-07
1.0214435e-07
1.0214238e-07
1.021404e-07
1.0213849e-07
1.0213724e-07
1.0213652e-07
1.0213488e-07
1.0213243e-07
1.0212956e-07
1.0212653e-07
1.0212369e-07
1.0212134e-07
1.0211911e-07
1.0211619e-07
1.0211305e-07
1.0210993e-07
1.0210678e-07
1.021037e-07
1.0210053e-07
1.0209723e-07
1.0209383e-07
1.0209022e-07
1.0208622e-07
1.0208194e-07
1.0207752e-07
1.0207272e-07
1.0206757e-07
1.0206171e-07
2.8810055e-09
3.5473865e-08
9.2219823e-08
1.0433465e-07
1.0476497e-07
1.0395907e-07
1.036626e-07
1.0362541e-07
1.036352e-07
1.0363719e-07
1.0363505e-07
1.0363327e-07
1.0363069e-07
1.036277e-07
1.0362419e-07
1.0362055e-07
1.0361743e-07
1.0361494e-07
1.0361285e-07
1.0361107e-07
1.036095e-07
1.0360784e-07
1.0360597e-07
1.0360398e-07
1.03602e-07
1.0360002e-07
1.0359809e-07
1.0359611e-07
1.0359419e-07
1.0359219e-07
1.0359026e-07
1.0358825e-07
1.0358625e-07
1.0358421e-07
1.0358223e-07
1.0358078e-07
1.0358012e-07
1.0357895e-07
1.0357659e-07
1.035736e-07
1.0357038e-07
1.0356732e-07
1.0356489e-07
1.0356288e-07
1.0356002e-07
1.0355687e-07
1.0355382e-07
1.0355068e-07
1.0354763e-07
1.035445e-07
1.0354122e-07
1.0353787e-07
1.0353434e-07
1.0353042e-07
1.0352612e-07
1.0352176e-07
1.0351699e-07
1.0351188e-07
1.0350599e-07
4.4910566e-09
4.5492453e-08
9.8583725e-08
1.0632972e-07
1.0599146e-07
1.0535806e-07
1.0519493e-07
1.0519008e-07
1.0519657e-07
1.0519479e-07
1.0519207e-07
1.0519071e-07
1.0518774e-07
1.0518447e-07
1.0518108e-07
1.0517748e-07
1.0517423e-07
1.0517165e-07
1.0516961e-07
1.0516788e-07
1.0516631e-07
1.051646e-07
1.0516267e-07
1.0516066e-07
1.0515868e-07
1.0515671e-07
1.0515478e-07
1.0515283e-07
1.0515093e-07
1.0514897e-07
1.0514709e-07
1.0514511e-07
1.0514318e-07
1.0514119e-07
1.0513922e-07
1.0513765e-07
1.0513702e-07
1.0513642e-07
1.051345e-07
1.0513144e-07
1.0512808e-07
1.0512493e-07
1.0512248e-07
1.0512081e-07
1.0511819e-07
1.0511513e-07
1.0511232e-07
1.0510932e-07
1.0510646e-07
1.0510353e-07
1.0510043e-07
1.0509729e-07
1.0509403e-07
1.050904e-07
1.0508629e-07
1.0508219e-07
1.0507773e-07
1.0507291e-07
1.0506728e-07
7.202951e-09
5.7300035e-08
1.0383148e-07
1.0810033e-07
1.0738028e-07
1.0694685e-07
1.0687421e-07
1.068812e-07
1.0688224e-07
1.0687863e-07
1.0687616e-07
1.0687528e-07
1.0687154e-07
1.068683e-07
1.0686551e-07
1.0686234e-07
1.0685893e-07
1.0685614e-07
1.0685419e-07
1.0685262e-07
1.0685114e-07
1.0684949e-07
1.0684764e-07
1.0684574e-07
1.0684386e-07
1.06842e-07
1.0684019e-07
1.0683837e-07
1.0683659e-07
1.0683478e-07
1.0683303e-07
1.0683123e-07
1.0682949e-07
1.0682765e-07
1.0682585e-07
1.0682429e-07
1.0682366e-07
1.0682364e-07
1.0682263e-07
1.0681961e-07
1.0681617e-07
1.0681304e-07
1.0681073e-07
1.0680951e-07
1.0680739e-07
1.0680453e-07
1.0680215e-07
1.0679943e-07
1.0679695e-07
1.0679442e-07
1.0679172e-07
1.0678899e-07
1.067862e-07
1.0678313e-07
1.0677949e-07
1.0677591e-07
1.0677208e-07
1.0676785e-07
1.0676283e-07
1.1074713e-08
7.0828158e-08
1.0728537e-07
1.0970328e-07
1.0897335e-07
1.0872945e-07
1.0870684e-07
1.0871314e-07
1.0871056e-07
1.0870699e-07
1.0870504e-07
1.0870454e-07
1.0869992e-07
1.086972e-07
1.0869541e-07
1.0869267e-07
1.0868898e-07
1.0868609e-07
1.0868458e-07
1.0868341e-07
1.0868216e-07
1.0868066e-07
1.0867903e-07
1.0867736e-07
1.0867572e-07
1.0867411e-07
1.0867254e-07
1.0867098e-07
1.0866947e-07
1.0866795e-07
1.0866648e-07
1.0866498e-07
1.0866354e-07
1.0866204e-07
1.0866057e-07
1.086592e-07
1.0865865e-07
1.0865912e-07
1.0865938e-07
1.0865673e-07
1.0865331e-07
1.0865035e-07
1.0864841e-07
1.0864768e-07
1.0864644e-07
1.086439e-07
1.0864221e-07
1.0863992e-07
1.0863799e-07
1.0863613e-07
1.0863406e-07
1.0863198e-07
1.086299e-07
1.0862767e-07
1.0862488e-07
1.0862209e-07
1.0861931e-07
1.0861599e-07
1.0861202e-07
1.6848736e-08
8.6009959e-08
1.095953e-07
1.1120845e-07
1.1079123e-07
1.1070198e-07
1.1069926e-07
1.1070092e-07
1.1069733e-07
1.1069553e-07
1.1069433e-07
1.1069429e-07
1.106889e-07
1.1068734e-07
1.1068654e-07
1.10684e-07
1.1067977e-07
1.1067698e-07
1.1067669e-07
1.1067633e-07
1.1067546e-07
1.1067428e-07
1.10673e-07
1.1067174e-07
1.1067051e-07
1.1066933e-07
1.1066817e-07
1.1066705e-07
1.1066597e-07
1.106649e-07
1.1066388e-07
1.1066286e-07
1.1066189e-07
1.1066091e-07
1.1065996e-07
1.1065907e-07
1.106588e-07
1.1065953e-07
1.1066101e-07
1.1065914e-07
1.1065612e-07
1.1065361e-07
1.1065235e-07
1.1065219e-07
1.1065206e-07
1.1065006e-07
1.1064947e-07
1.1064764e-07
1.1064645e-07
1.1064552e-07
1.1064434e-07
1.1064317e-07
1.1064207e-07
1.1064095e-07
1.1063939e-07
1.106377e-07
1.1063632e-07
1.1063434e-07
1.106319e-07
2.4899056e-08
1.0253034e-07
1.1276869e-07
1.1294099e-07
1.1284742e-07
1.1284192e-07
1.1284235e-07
1.1284157e-07
1.1283909e-07
1.1283929e-07
1.1284005e-07
1.1283986e-07
1.128355e-07
1.1283476e-07
1.1283407e-07
1.1283261e-07
1.1282839e-07
1.1282626e-07
1.1282799e-07
1.1282822e-07
1.1282769e-07
1.1282701e-07
1.1282634e-07
1.1282572e-07
1.1282513e-07
1.1282458e-07
1.1282407e-07
1.1282359e-07
1.1282313e-07
1.1282272e-07
1.1282233e-07
1.1282198e-07
1.1282166e-07
1.1282136e-07
1.1282109e-07
1.1282087e-07
1.1282104e-07
1.1282194e-07
1.1282401e-07
1.1282293e-07
1.1282083e-07
1.1281964e-07
1.128195e-07
1.1281987e-07
1.1282039e-07
1.1281978e-07
1.1282049e-07
1.1281943e-07
1.1281924e-07
1.1281939e-07
1.1281933e-07
1.1281929e-07
1.1281935e-07
1.1281946e-07
1.1281937e-07
1.1281918e-07
1.1281933e-07
1.1281908e-07
1.1281868e-07
8.5582286e-08
8.5581094e-08
8.5580283e-08
8.5581467e-08
8.558222e-08
8.5583153e-08
8.5584059e-08
8.5584996e-08
8.558595e-08
8.5586912e-08
8.558787e-08
8.5588823e-08
8.5589778e-08
8.5590761e-08
8.5591792e-08
8.5592878e-08
8.5593988e-08
8.5595058e-08
8.5595997e-08
8.559675e-08
8.5597324e-08
8.5597787e-08
8.5598186e-08
8.5598533e-08
8.5598796e-08
8.5598936e-08
8.5598959e-08
8.5598936e-08
8.5598921e-08
8.5598911e-08
8.5598874e-08
8.5598787e-08
8.5598606e-08
8.5598228e-08
8.5597542e-08
8.5596589e-08
8.5595619e-08
8.5594893e-08
8.5594509e-08
8.5594356e-08
8.5593853e-08
8.559144e-08
8.5585325e-08
8.557832e-08
8.5588326e-08
8.565979e-08
8.585921e-08
8.6225023e-08
8.6641396e-08
8.6631147e-08
8.5117974e-08
8.0283268e-08
6.9458053e-08
5.0757443e-08
2.7111511e-08
8.6711292e-09
1.5893085e-09
4.1291325e-10
5.3941072e-10
8.587309e-08
8.587208e-08
8.5872082e-08
8.5873095e-08
8.587395e-08
8.5874862e-08
8.5875783e-08
8.5876724e-08
8.5877682e-08
8.5878644e-08
8.58796e-08
8.5880549e-08
8.5881502e-08
8.5882483e-08
8.5883514e-08
8.5884599e-08
8.5885706e-08
8.5886765e-08
8.5887688e-08
8.5888417e-08
8.5888973e-08
8.5889423e-08
8.5889817e-08
8.5890161e-08
8.5890419e-08
8.5890552e-08
8.5890567e-08
8.5890539e-08
8.5890522e-08
8.5890509e-08
8.5890465e-08
8.5890367e-08
8.5890167e-08
8.5889776e-08
8.5889095e-08
8.5888166e-08
8.588722e-08
8.5886517e-08
8.5886131e-08
8.5885889e-08
8.5885173e-08
8.5882612e-08
8.5876904e-08
8.5871095e-08
8.5881819e-08
8.5949796e-08
8.6137237e-08
8.648536e-08
8.6900958e-08
8.6959303e-08
8.5656814e-08
8.1205004e-08
7.1072895e-08
5.2970939e-08
2.9149263e-08
9.6606762e-09
1.7445012e-09
3.878738e-10
4.8463305e-10
8.6192815e-08
8.6192002e-08
8.61923e-08
8.6193264e-08
8.6194161e-08
8.6195078e-08
8.6196013e-08
8.6196965e-08
8.6197933e-08
8.6198901e-08
8.6199862e-08
8.6200812e-08
8.6201766e-08
8.6202747e-08
8.6203779e-08
8.6204863e-08
8.6205969e-08
8.6207024e-08
8.6207936e-08
8.6208648e-08
8.6209187e-08
8.6209628e-08
8.6210017e-08
8.6210361e-08
8.621062e-08
8.621075e-08
8.6210762e-08
8.6210732e-08
8.6210715e-08
8.6210702e-08
8.6210659e-08
8.6210563e-08
8.6210377e-08
8.6210018e-08
8.6209382e-08
8.620848e-08
8.6207518e-08
8.6206766e-08
8.620634e-08
8.6206147e-08
8.6205731e-08
8.6203856e-08
8.6198764e-08
8.6191437e-08
8.6194128e-08
8.6242309e-08
8.6398145e-08
8.6719799e-08
8.7161783e-08
8.7383137e-08
8.6484921e-08
8.2764429e-08
7.3658311e-08
5.6415074e-08
3.2295441e-08
1.1189158e-08
1.9919837e-09
3.7524175e-10
4.3108922e-10
8.6545081e-08
8.6544515e-08
8.6545101e-08
8.6546024e-08
8.6546952e-08
8.6547876e-08
8.6548822e-08
8.6549783e-08
8.6550756e-08
8.6551726e-08
8.6552686e-08
8.6553632e-08
8.6554582e-08
8.6555561e-08
8.6556591e-08
8.6557673e-08
8.6558775e-08
8.655982e-08
8.6560714e-08
8.6561404e-08
8.6561925e-08
8.6562355e-08
8.6562741e-08
8.6563083e-08
8.656334e-08
8.6563462e-08
8.6563467e-08
8.6563434e-08
8.6563416e-08
8.6563403e-08
8.6563359e-08
8.6563262e-08
8.656308e-08
8.6562742e-08
8.6562144e-08
8.6561273e-08
8.656031e-08
8.6559524e-08
8.6559056e-08
8.6558848e-08
8.6558551e-08
8.6557135e-08
8.6552844e-08
8.6545537e-08
8.6544014e-08
8.6578032e-08
8.6705885e-08
8.6994489e-08
8.7435884e-08
8.7767195e-08
8.7198098e-08
8.412567e-08
7.6016391e-08
5.9757089e-08
3.5597647e-08
1.2923519e-08
2.3162505e-09
3.7212806e-10
3.8627306e-10
8.6933848e-08
8.6933583e-08
8.6934343e-08
8.6935256e-08
8.6936201e-08
8.6937135e-08
8.693809e-08
8.6939057e-08
8.6940033e-08
8.6941001e-08
8.6941955e-08
8.6942893e-08
8.6943837e-08
8.694481e-08
8.6945836e-08
8.6946914e-08
8.6948008e-08
8.6949039e-08
8.694991e-08
8.6950573e-08
8.6951072e-08
8.6951491e-08
8.6951874e-08
8.6952214e-08
8.6952465e-08
8.6952576e-08
8.695257e-08
8.6952533e-08
8.6952516e-08
8.6952504e-08
8.695246e-08
8.6952364e-08
8.6952189e-08
8.6951873e-08
8.6951316e-08
8.6950483e-08
8.694952e-08
8.6948695e-08
8.694818e-08
8.6947957e-08
8.6947776e-08
8.6946813e-08
8.6943354e-08
8.6936291e-08
8.6931129e-08
8.6951701e-08
8.7051109e-08
8.7302105e-08
8.7730897e-08
8.8153392e-08
8.7899008e-08
8.5483664e-08
7.8425208e-08
6.3309122e-08
3.9328729e-08
1.5013822e-08
2.744542e-09
3.7936244e-10
3.452003e-10
8.7363839e-08
8.7363852e-08
8.7364748e-08
8.7365667e-08
8.7366621e-08
8.7367564e-08
8.7368525e-08
8.7369495e-08
8.7370467e-08
8.7371428e-08
8.7372371e-08
8.7373295e-08
8.7374226e-08
8.7375191e-08
8.737621e-08
8.737728e-08
8.7378363e-08
8.7379374e-08
8.7380214e-08
8.7380844e-08
8.738132e-08
8.7381729e-08
8.7382109e-08
8.7382447e-08
8.7382688e-08
8.7382782e-08
8.7382762e-08
8.7382721e-08
8.7382705e-08
8.7382695e-08
8.7382652e-08
8.7382557e-08
8.7382389e-08
8.7382095e-08
8.738158e-08
8.7380789e-08
8.7379835e-08
8.7378974e-08
8.7378406e-08
8.737815e-08
8.7378038e-08
8.737745e-08
8.7374858e-08
8.7368557e-08
8.7361237e-08
8.7370768e-08
8.7443313e-08
8.7652917e-08
8.8053315e-08
8.853521e-08
8.8555635e-08
8.6771427e-08
8.0776885e-08
6.6969773e-08
4.3438301e-08
1.7510285e-08
3.2997236e-09
3.9983361e-10
3.1055939e-10
8.7840556e-08
8.7840838e-08
8.7841807e-08
8.7842741e-08
8.7843701e-08
8.784465e-08
8.7845612e-08
8.7846578e-08
8.7847543e-08
8.7848489e-08
8.7849412e-08
8.7850318e-08
8.7851233e-08
8.7852185e-08
8.7853193e-08
8.785425e-08
8.7855315e-08
8.7856299e-08
8.7857101e-08
8.7857693e-08
8.7858143e-08
8.7858542e-08
8.785892e-08
8.7859253e-08
8.7859479e-08
8.785955e-08
8.7859513e-08
8.7859467e-08
8.7859453e-08
8.7859445e-08
8.7859405e-08
8.7859312e-08
8.7859151e-08
8.785888e-08
8.7858408e-08
8.7857666e-08
8.7856728e-08
8.7855836e-08
8.7855212e-08
8.7854913e-08
8.7854835e-08
8.7854542e-08
8.7852768e-08
8.7847537e-08
8.7839259e-08
8.7840143e-08
8.7888244e-08
8.8054753e-08
8.8413666e-08
8.8923828e-08
8.9174301e-08
8.7988469e-08
8.3004328e-08
7.0718173e-08
4.7947125e-08
2.0511155e-08
4.0288423e-09
4.3902907e-10
2.8080939e-10
8.8370509e-08
8.8371027e-08
8.837202e-08
8.8372964e-08
8.8373923e-08
8.8374871e-08
8.8375829e-08
8.8376783e-08
8.8377732e-08
8.8378656e-08
8.8379556e-08
8.8380438e-08
8.8381334e-08
8.8382271e-08
8.8383265e-08
8.8384304e-08
8.8385347e-08
8.8386295e-08
8.8387051e-08
8.8387599e-08
8.8388023e-08
8.8388413e-08
8.8388789e-08
8.8389113e-08
8.8389318e-08
8.8389357e-08
8.83893e-08
8.8389249e-08
8.8389237e-08
8.8389232e-08
8.8389196e-08
8.8389107e-08
8.8388955e-08
8.8388706e-08
8.8388279e-08
8.8387592e-08
8.8386682e-08
8.8385764e-08
8.8385084e-08
8.8384736e-08
8.838466e-08
8.8384576e-08
8.8383528e-08
8.8379549e-08
8.8371461e-08
8.8366327e-08
8.8393434e-08
8.8517197e-08
8.882373e-08
8.9330287e-08
8.975467e-08
8.9111905e-08
8.5218595e-08
7.4490814e-08
5.2834707e-08
2.4100509e-08
4.9891457e-09
4.9492071e-10
2.5562689e-10
8.8961494e-08
8.8962144e-08
8.8963145e-08
8.8964089e-08
8.8965038e-08
8.8965975e-08
8.8966918e-08
8.8967854e-08
8.896878e-08
8.8969678e-08
8.8970548e-08
8.8971402e-08
8.8972275e-08
8.8973192e-08
8.8974165e-08
8.8975182e-08
8.8976194e-08
8.8977095e-08
8.8977794e-08
8.8978291e-08
8.8978688e-08
8.8979069e-08
8.8979442e-08
8.8979754e-08
8.8979927e-08
8.8979925e-08
8.8979843e-08
8.8979789e-08
8.897978e-08
8.8979779e-08
8.8979748e-08
8.8979666e-08
8.8979525e-08
8.89793e-08
8.8978921e-08
8.8978296e-08
8.8977425e-08
8.8976493e-08
8.8975761e-08
8.8975365e-08
8.8975271e-08
8.8975309e-08
8.8974842e-08
8.8972158e-08
8.8965157e-08
8.8956612e-08
8.8967011e-08
8.9050748e-08
8.929753e-08
8.9771134e-08
9.0312327e-08
9.0139388e-08
8.7285327e-08
7.8235935e-08
5.8064312e-08
2.8370648e-08
6.2561772e-09
5.8017687e-10
2.3495523e-10
8.9622803e-08
8.9623522e-08
8.9624513e-08
8.9625446e-08
8.9626376e-08
8.9627295e-08
8.9628217e-08
8.9629128e-08
8.9630025e-08
8.9630887e-08
8.963172e-08
8.9632538e-08
8.963338e-08
8.963427e-08
8.9635214e-08
8.9636197e-08
8.9637167e-08
8.9638005e-08
8.9638634e-08
8.9639074e-08
8.9639443e-08
8.9639815e-08
8.964018e-08
8.9640471e-08
8.9640601e-08
8.9640546e-08
8.9640436e-08
8.964038e-08
8.9640375e-08
8.9640379e-08
8.9640354e-08
8.9640281e-08
8.9640154e-08
8.9639955e-08
8.9639627e-08
8.9639073e-08
8.9638257e-08
8.9637326e-08
8.9636551e-08
8.963611e-08
8.9635994e-08
8.9636087e-08
8.9636024e-08
8.9634528e-08
8.9629223e-08
8.9619641e-08
8.9618158e-08
8.9666946e-08
8.9851004e-08
9.0265777e-08
9.0862725e-08
9.1075724e-08
8.9198024e-08
8.1847929e-08
6.3570751e-08
3.3410299e-08
7.9421941e-09
7.01667e-10
2.1903685e-10
9.0365782e-08
9.0366522e-08
9.0367485e-08
9.0368396e-08
9.0369298e-08
9.0370189e-08
9.0371077e-08
9.0371951e-08
9.0372803e-08
9.0373614e-08
9.0374392e-08
9.0375162e-08
9.0375961e-08
9.037681e-08
9.037771e-08
9.0378645e-08
9.0379555e-08
9.038031e-08
9.038085e-08
9.0381227e-08
9.0381564e-08
9.0381924e-08
9.0382275e-08
9.0382534e-08
9.0382605e-08
9.0382482e-08
9.0382338e-08
9.0382283e-08
9.0382282e-08
9.0382291e-08
9.0382274e-08
9.0382213e-08
9.0382105e-08
9.0381935e-08
9.038166e-08
9.0381186e-08
9.0380442e-08
9.0379531e-08
9.0378727e-08
9.0378253e-08
9.0378124e-08
9.0378234e-08
9.0378407e-08
9.0377849e-08
9.0374496e-08
9.0365802e-08
9.0357357e-08
9.0378276e-08
9.0501779e-08
9.0838716e-08
9.1430734e-08
9.1926833e-08
9.0931167e-08
8.5113977e-08
6.9259675e-08
3.9287379e-08
1.0199669e-08
8.7129935e-10
2.0890625e-10
9.1204127e-08
9.1204888e-08
9.1205815e-08
9.120669e-08
9.1207551e-08
9.1208397e-08
9.1209234e-08
9.1210051e-08
9.1210838e-08
9.1211575e-08
9.121228e-08
9.1212981e-08
9.121372e-08
9.121451e-08
9.1215348e-08
9.1216215e-08
9.1217044e-08
9.1217687e-08
9.1218122e-08
9.1218426e-08
9.121873e-08
9.1219073e-08
9.12194e-08
9.1219609e-08
9.1219603e-08
9.1219394e-08
9.1219201e-08
9.121916e-08
9.1219164e-08
9.1219177e-08
9.121917e-08
9.121912e-08
9.1219038e-08
9.12189e-08
9.1218685e-08
9.1218299e-08
9.1217648e-08
9.1216779e-08
9.1215965e-08
9.1215472e-08
9.1215347e-08
9.1215473e-08
9.1215757e-08
9.1215841e-08
9.1214266e-08
9.1207779e-08
9.1196861e-08
9.1198285e-08
9.1268419e-08
9.1517583e-08
9.205112e-08
9.2710137e-08
9.2453454e-08
8.8352931e-08
7.4991024e-08
4.602929e-08
1.3237521e-08
1.1069279e-09
2.0761833e-10
9.2153981e-08
9.2154764e-08
9.2155657e-08
9.2156482e-08
9.2157285e-08
9.2158065e-08
9.2158834e-08
9.2159577e-08
9.2160279e-08
9.2160921e-08
9.2161533e-08
9.2162149e-08
9.2162813e-08
9.2163531e-08
9.2164292e-08
9.2165071e-08
9.216579e-08
9.2166297e-08
9.216661e-08
9.2166835e-08
9.2167107e-08
9.2167431e-08
9.2167722e-08
9.2167871e-08
9.2167762e-08
9.2167414e-08
9.2167205e-08
9.2167173e-08
9.2167184e-08
9.2167198e-08
9.216721e-08
9.2167168e-08
9.2167122e-08
9.2167019e-08
9.2166871e-08
9.2166586e-08
9.2166045e-08
9.2165238e-08
9.2164426e-08
9.2163933e-08
9.2163813e-08
9.2164005e-08
9.2164338e-08
9.2164767e-08
9.2164522e-08
9.216078e-08
9.2150904e-08
9.214148e-08
9.2169674e-08
9.2331129e-08
9.2766751e-08
9.3481476e-08
9.3787128e-08
9.1234826e-08
8.0634151e-08
5.3596259e-08
1.7326039e-08
1.4660512e-09
2.1692814e-10
9.3231735e-08
9.3232658e-08
9.3233532e-08
9.3234308e-08
9.3235059e-08
9.3235783e-08
9.3236494e-08
9.3237169e-08
9.3237788e-08
9.3238335e-08
9.3238852e-08
9.3239381e-08
9.3239968e-08
9.3240614e-08
9.3241309e-08
9.3242007e-08
9.3242615e-08
9.3243e-08
9.3243183e-08
9.3243333e-08
9.3243592e-08
9.3243918e-08
9.3244183e-08
9.3244262e-08
9.3243915e-08
9.3243531e-08
9.3243346e-08
9.3243302e-08
9.3243319e-08
9.3243338e-08
9.3243368e-08
9.3243332e-08
9.3243335e-08
9.3243265e-08
9.3243205e-08
9.3243034e-08
9.3242611e-08
9.3241882e-08
9.3241077e-08
9.3240579e-08
9.3240522e-08
9.3240826e-08
9.3241119e-08
9.3241648e-08
9.3242214e-08
9.3240995e-08
9.3234283e-08
9.3221654e-08
9.3222016e-08
9.3305802e-08
9.3618766e-08
9.4288288e-08
9.4976734e-08
9.3783194e-08
8.5938369e-08
6.1871167e-08
2.2770505e-08
2.0448768e-09
2.3616154e-10
5.9101764e-10
6.181596e-10
6.3435517e-10
6.4542059e-10
6.5437283e-10
6.6213358e-10
6.6865269e-10
6.7362221e-10
6.7676969e-10
6.7789062e-10
6.7680314e-10
6.7331236e-10
6.6718847e-10
6.5815823e-10
6.458989e-10
6.3005277e-10
6.102343e-10
5.8605972e-10
5.5719113e-10
5.2335036e-10
4.844902e-10
4.4089679e-10
3.9331101e-10
3.424302e-10
2.8906191e-10
2.346155e-10
1.813659e-10
1.2899063e-10
8.2691955e-11
4.4612874e-11
1.6273394e-11
1.7186172e-12
3.0716192e-12
1.4109694e-11
3.9023439e-11
8.2857964e-11
1.4156331e-10
2.0304446e-10
2.6663653e-10
3.3459745e-10
4.0675548e-10
4.8139444e-10
5.5930026e-10
6.3523923e-10
7.0880148e-10
7.7994824e-10
8.4754383e-10
9.1020871e-10
9.6750617e-10
1.0198338e-09
1.06762e-09
1.1113717e-09
1.1514237e-09
1.1875123e-09
1.2198971e-09
1.2493527e-09
1.2763542e-09
1.3010409e-09
1.3235605e-09
1.3442839e-09
1.3633866e-09
1.3808293e-09
1.3966728e-09
1.411055e-09
1.4241155e-09
1.4359801e-09
1.4467679e-09
1.4565853e-09
1.4655307e-09
1.4736848e-09
1.481129e-09
1.48791e-09
1.4941004e-09
1.4996732e-09
4.476455e-10
4.716373e-10
4.9366895e-10
5.1451991e-10
5.3286139e-10
5.4837451e-10
5.6110851e-10
5.7117807e-10
5.7867844e-10
5.8369199e-10
5.8629066e-10
5.8650898e-10
5.8432124e-10
5.796273e-10
5.7224872e-10
5.6194015e-10
5.4840301e-10
5.3130373e-10
5.103214e-10
4.8513753e-10
4.5560367e-10
4.2091316e-10
3.8080864e-10
3.3649555e-10
2.894105e-10
2.4094494e-10
1.929009e-10
1.4700083e-10
1.0497006e-10
6.83849e-11
4.1943164e-11
1.9665093e-11
7.7987511e-12
1.0098125e-11
2.1129061e-11
4.399349e-11
7.8962465e-11
1.2092697e-10
1.6692907e-10
2.1645946e-10
2.692618e-10
3.2455354e-10
3.8290421e-10
4.4197682e-10
5.0032486e-10
5.5764705e-10
6.1350564e-10
6.6699906e-10
7.1743964e-10
7.6455656e-10
8.0832214e-10
8.4888188e-10
8.8643118e-10
9.2098195e-10
9.5248404e-10
9.8121658e-10
1.0074919e-09
1.0315514e-09
1.0535809e-09
1.0737606e-09
1.0923054e-09
1.1093458e-09
1.1249884e-09
1.1393358e-09
1.1524876e-09
1.1645394e-09
1.1755806e-09
1.185697e-09
1.1949662e-09
1.2034626e-09
1.2112519e-09
1.2183969e-09
1.2249613e-09
1.2309606e-09
1.3391105e-09
1.114389e-09
9.3453893e-10
7.912928e-10
6.8368179e-10
6.0679257e-10
5.5403855e-10
5.211218e-10
5.0408211e-10
4.9820075e-10
4.9930864e-10
5.0385815e-10
5.0934715e-10
5.1400332e-10
5.1662657e-10
5.1645436e-10
5.1301876e-10
5.0603458e-10
4.9531867e-10
4.8071317e-10
4.6214455e-10
4.3936525e-10
4.1209833e-10
3.8048991e-10
3.4511263e-10
3.0680463e-10
2.6671993e-10
2.2609806e-10
1.8569233e-10
1.4718026e-10
1.1244363e-10
8.3208906e-11
5.8741524e-11
4.2830715e-11
3.4334859e-11
3.6856857e-11
4.6589691e-11
6.2651646e-11
8.3896213e-11
1.0976251e-10
1.3944752e-10
1.721582e-10
2.0749755e-10
2.4470269e-10
2.8297118e-10
3.2172082e-10
3.6048572e-10
3.9878638e-10
4.3617892e-10
4.7230895e-10
5.0692209e-10
5.3986134e-10
5.7106175e-10
6.0022146e-10
6.2733772e-10
6.5250307e-10
6.7580437e-10
6.973796e-10
7.1728592e-10
7.3578408e-10
7.5297183e-10
7.6892868e-10
7.8373096e-10
7.9745186e-10
8.1016174e-10
8.2192817e-10
8.3281559e-10
8.4288518e-10
8.5219534e-10
8.6080003e-10
8.6875352e-10
8.7610049e-10
8.8290194e-10
8.8918329e-10
6.5304248e-09
4.6418805e-09
3.3364871e-09
2.4700359e-09
1.9076996e-09
1.5317256e-09
1.2683025e-09
1.0667746e-09
9.0726624e-10
7.742797e-10
6.7670776e-10
6.0413908e-10
5.5280646e-10
5.1887188e-10
4.9816446e-10
4.8693547e-10
4.8153047e-10
4.7912233e-10
4.7749004e-10
4.7486318e-10
4.693888e-10
4.5972933e-10
4.4589721e-10
4.2806154e-10
4.0644794e-10
3.8142046e-10
3.5349064e-10
3.2353485e-10
2.9261762e-10
2.613129e-10
2.2985788e-10
1.9980196e-10
1.7147879e-10
1.4566256e-10
1.2327145e-10
1.0649397e-10
9.5680643e-11
8.9858204e-11
8.9732139e-11
9.2982824e-11
9.926582e-11
1.0798514e-10
1.1925615e-10
1.3269426e-10
1.4789375e-10
1.6447005e-10
1.8206652e-10
2.0035531e-10
2.1904005e-10
2.3785806e-10
2.5658317e-10
2.7502848e-10
2.9304261e-10
3.1048841e-10
3.2726346e-10
3.4329724e-10
3.5854418e-10
3.7298282e-10
3.8660655e-10
3.9943195e-10
4.1147943e-10
4.2277523e-10
4.3334958e-10
4.4323453e-10
4.5246311e-10
4.6106884e-10
4.6908519e-10
4.7654531e-10
4.8348168e-10
4.8992581e-10
4.9590848e-10
5.0145826e-10
5.0659978e-10
5.1134754e-10
2.1885006e-08
1.6406887e-08
1.2032861e-08
8.7192394e-09
6.3080228e-09
4.5987579e-09
3.4244524e-09
2.6275561e-09
2.0578572e-09
1.6625269e-09
1.3798478e-09
1.1698072e-09
1.0051668e-09
8.7317667e-10
7.5929911e-10
6.7327173e-10
6.0651649e-10
5.5667505e-10
5.2079898e-10
4.9642364e-10
4.8250986e-10
4.7484212e-10
4.7009068e-10
4.6465283e-10
4.5657324e-10
4.4558246e-10
4.3180244e-10
4.1547985e-10
3.9710216e-10
3.7714218e-10
3.5583626e-10
3.3358297e-10
3.1120821e-10
2.8785995e-10
2.6632913e-10
2.4550193e-10
2.2624585e-10
2.0972637e-10
1.9627964e-10
1.8611123e-10
1.7753896e-10
1.7230389e-10
1.6907719e-10
1.6728239e-10
1.667785e-10
1.6740874e-10
1.690355e-10
1.7151818e-10
1.74716e-10
1.7849396e-10
1.8272722e-10
1.8730248e-10
1.9211903e-10
1.9708766e-10
2.0213153e-10
2.0718532e-10
2.1219419e-10
2.1711351e-10
2.2190843e-10
2.2655257e-10
2.3102542e-10
2.3531238e-10
2.3940421e-10
2.4329567e-10
2.4698468e-10
2.504718e-10
2.5375968e-10
2.5685258e-10
2.5975607e-10
2.6247658e-10
2.6502164e-10
2.6739793e-10
2.6961642e-10
2.7167334e-10
4.397207e-08
3.5867111e-08
2.840014e-08
2.1955723e-08
1.665195e-08
1.2455975e-08
9.2529592e-09
6.8897855e-09
5.1563851e-09
3.9096246e-09
3.0179217e-09
2.384641e-09
1.9339898e-09
1.5960257e-09
1.3481019e-09
1.160167e-09
1.0143439e-09
8.9448999e-10
7.9401082e-10
7.0847478e-10
6.4131375e-10
5.8789495e-10
5.4917642e-10
5.2319617e-10
5.062516e-10
4.9502128e-10
4.8744279e-10
4.7987699e-10
4.7125254e-10
4.6141035e-10
4.5044507e-10
4.3844878e-10
4.2570658e-10
4.1235881e-10
3.9860104e-10
3.8464676e-10
3.7086026e-10
3.5669262e-10
3.4259763e-10
3.304728e-10
3.1969569e-10
3.1025438e-10
3.0204978e-10
2.9518856e-10
2.89542e-10
2.8437741e-10
2.7989007e-10
2.7606708e-10
2.7284651e-10
2.7015918e-10
2.6793817e-10
2.6613046e-10
2.6468278e-10
2.6353325e-10
2.6263103e-10
2.6193462e-10
2.6141026e-10
2.6102932e-10
2.6076716e-10
2.6060281e-10
2.6051857e-10
2.6049912e-10
2.6053127e-10
2.6060372e-10
2.6070689e-10
2.6083271e-10
2.6097443e-10
2.6112646e-10
2.6128421e-10
2.6144396e-10
2.6160268e-10
2.6175788e-10
2.6190724e-10
2.6204927e-10
6.3662007e-08