/*--------------------------------*- C++ -*----------------------------------*\
| =========                 |                                                 |
| \\      /  F ield         | OpenFOAM: The Open Source CFD Toolbox           |
|  \\    /   O peration     | Version:  v2006                                 |
|   \\  /    A nd           | Website:  www.openfoam.com                      |
|    \\/     M anipulation  |                                                 |
\*---------------------------------------------------------------------------*/
FoamFile
{
    version     2.0;
    format      ascii;
    class       volScalarField;
    location    "7000";
    object      nutMean;
}
// * * * * * * * * * * * * * * * * * * * * * * * * * * * * * * * * * * * * * //

dimensions      [0 2 -1 0 0 0 0];


internalField   nonuniform List<scalar> 
55713
(
3.2238424e-10
2.9422429e-09
2.894447e-08
6.9333894e-08
8.959867e-08
9.5650695e-08
9.5890014e-08
9.5044025e-08
9.4484254e-08
9.42793e-08
9.424587e-08
9.4257343e-08
9.4268455e-08
9.4272741e-08
9.4273402e-08
9.4273456e-08
9.427354e-08
9.4273763e-08
9.4274056e-08
9.4274227e-08
9.4274127e-08
9.4273862e-08
9.4273558e-08
9.4273267e-08
9.4273031e-08
9.4272908e-08
9.4272837e-08
9.4272742e-08
9.4272596e-08
9.4272407e-08
9.4272192e-08
9.4271962e-08
9.4271748e-08
9.4271638e-08
9.4271776e-08
9.427229e-08
9.4272365e-08
9.4271907e-08
9.4271114e-08
9.4270171e-08
9.4269277e-08
9.4268463e-08
9.426757e-08
9.4266533e-08
9.4265446e-08
9.426439e-08
9.4263374e-08
9.4262404e-08
9.4261469e-08
9.4260539e-08
9.4259573e-08
9.425855e-08
9.4257473e-08
9.4256385e-08
9.4255306e-08
9.4254244e-08
9.4253195e-08
9.4252069e-08
9.4250813e-08
3.8672419e-10
4.2424472e-09
3.5987748e-08
7.6182395e-08
9.303547e-08
9.6957104e-08
9.6586028e-08
9.5760742e-08
9.5331299e-08
9.5206423e-08
9.5199818e-08
9.5213241e-08
9.5220947e-08
9.5222718e-08
9.5222458e-08
9.5222107e-08
9.5221803e-08
9.5221636e-08
9.5221559e-08
9.5221315e-08
9.5220785e-08
9.5220101e-08
9.5219424e-08
9.5218775e-08
9.5218203e-08
9.5217751e-08
9.521734e-08
9.5216901e-08
9.5216421e-08
9.5215897e-08
9.5215349e-08
9.5214778e-08
9.5214209e-08
9.5213723e-08
9.5213479e-08
9.5213748e-08
9.5213616e-08
9.5212835e-08
9.5211695e-08
9.521037e-08
9.5209086e-08
9.5207916e-08
9.5206688e-08
9.5205276e-08
9.5203774e-08
9.5202287e-08
9.5200828e-08
9.5199399e-08
9.5197993e-08
9.5196579e-08
9.5195111e-08
9.5193555e-08
9.5191899e-08
9.5190183e-08
9.5188431e-08
9.5186636e-08
9.5184791e-08
9.5182795e-08
9.5180576e-08
4.7751093e-10
5.9532869e-09
4.349357e-08
8.2292467e-08
9.5709569e-08
9.8024802e-08
9.7308765e-08
9.6569226e-08
9.6260307e-08
9.6194903e-08
9.6202977e-08
9.6215007e-08
9.6219109e-08
9.6218932e-08
9.6218228e-08
9.621752e-08
9.6216824e-08
9.6216277e-08
9.6215813e-08
9.6215138e-08
9.6214183e-08
9.6213124e-08
9.6212096e-08
9.6211108e-08
9.6210224e-08
9.6209457e-08
9.620872e-08
9.6207954e-08
9.6207155e-08
9.6206316e-08
9.6205451e-08
9.6204561e-08
9.6203663e-08
9.6202819e-08
9.6202202e-08
9.6202196e-08
9.6201935e-08
9.620087e-08
9.6199406e-08
9.6197718e-08
9.6196059e-08
9.6194554e-08
9.6193029e-08
9.6191282e-08
9.6189393e-08
9.6187506e-08
9.6185639e-08
9.6183787e-08
9.6181948e-08
9.618009e-08
9.6178166e-08
9.6176129e-08
9.6173951e-08
9.6171664e-08
9.6169305e-08
9.6166851e-08
9.616429e-08
9.6161513e-08
9.6158411e-08
6.0745117e-10
8.2876278e-09
5.1635002e-08
8.7795574e-08
9.7943655e-08
9.8975733e-08
9.8084939e-08
9.7475006e-08
9.7274442e-08
9.7250407e-08
9.726409e-08
9.7272195e-08
9.7273058e-08
9.7272067e-08
9.7271097e-08
9.7269999e-08
9.7268913e-08
9.7268027e-08
9.7267201e-08
9.7266118e-08
9.7264771e-08
9.7263364e-08
9.7262009e-08
9.7260712e-08
9.7259546e-08
9.7258488e-08
9.7257449e-08
9.7256382e-08
9.7255291e-08
9.7254163e-08
9.7253009e-08
9.7251827e-08
9.725063e-08
9.7249463e-08
9.7248489e-08
9.7248186e-08
9.7247861e-08
9.7246566e-08
9.724481e-08
9.7242787e-08
9.724077e-08
9.7238949e-08
9.7237169e-08
9.7235138e-08
9.72329e-08
9.7230644e-08
9.7228405e-08
9.7226167e-08
9.7223932e-08
9.722167e-08
9.7219333e-08
9.7216865e-08
9.7214218e-08
9.7211411e-08
9.7208496e-08
9.7205444e-08
9.7202227e-08
9.7198744e-08
9.7194831e-08
7.943372e-10
1.1388832e-08
6.012376e-08
9.2540958e-08
9.9773956e-08
9.9865828e-08
9.8947914e-08
9.8486978e-08
9.8372811e-08
9.837322e-08
9.8385914e-08
9.8389393e-08
9.8388519e-08
9.8387213e-08
9.8385923e-08
9.8384418e-08
9.8382978e-08
9.8381799e-08
9.838063e-08
9.8379159e-08
9.8377451e-08
9.8375726e-08
9.8374074e-08
9.8372507e-08
9.8371091e-08
9.8369767e-08
9.8368454e-08
9.8367116e-08
9.8365762e-08
9.8364375e-08
9.8362963e-08
9.8361523e-08
9.8360062e-08
9.8358613e-08
9.8357316e-08
9.8356695e-08
9.8356341e-08
9.8354911e-08
9.8352903e-08
9.8350578e-08
9.8348225e-08
9.834611e-08
9.834412e-08
9.8341875e-08
9.8339336e-08
9.8336752e-08
9.8334189e-08
9.8331613e-08
9.8329034e-08
9.832642e-08
9.8323727e-08
9.8320894e-08
9.8317851e-08
9.8314594e-08
9.8311197e-08
9.8307633e-08
9.8303848e-08
9.8299762e-08
9.8295141e-08
1.0659238e-09
1.5454877e-08
6.8690674e-08
9.6120526e-08
1.0130237e-07
1.0075779e-07
9.9922221e-08
9.9607804e-08
9.9555183e-08
9.9566434e-08
9.9574331e-08
9.9574675e-08
9.9572961e-08
9.9571472e-08
9.9569811e-08
9.9567918e-08
9.9566185e-08
9.9564761e-08
9.9563275e-08
9.9561442e-08
9.9559411e-08
9.9557403e-08
9.9555497e-08
9.9553706e-08
9.9552076e-08
9.9550517e-08
9.9548965e-08
9.9547394e-08
9.9545813e-08
9.9544204e-08
9.9542574e-08
9.9540914e-08
9.9539231e-08
9.9537544e-08
9.9535973e-08
9.9535039e-08
9.9534636e-08
9.9533221e-08
9.9531007e-08
9.9528419e-08
9.9525761e-08
9.9523372e-08
9.9521222e-08
9.9518844e-08
9.9516068e-08
9.9513204e-08
9.9510377e-08
9.9507522e-08
9.9504659e-08
9.9501756e-08
9.9498773e-08
9.9495651e-08
9.9492298e-08
9.9488677e-08
9.9484882e-08
9.9480907e-08
9.9476656e-08
9.9472087e-08
9.9466878e-08
1.4657859e-09
2.0696444e-08
7.694136e-08
9.8999983e-08
1.0254707e-07
1.0169165e-07
1.0102622e-07
1.0083789e-07
1.0082318e-07
1.0083477e-07
1.0083808e-07
1.0083652e-07
1.0083452e-07
1.0083285e-07
1.008308e-07
1.0082856e-07
1.0082661e-07
1.0082499e-07
1.0082322e-07
1.0082106e-07
1.0081875e-07
1.008165e-07
1.008144e-07
1.0081244e-07
1.0081063e-07
1.0080888e-07
1.0080713e-07
1.0080537e-07
1.0080361e-07
1.0080182e-07
1.0080002e-07
1.0079819e-07
1.0079633e-07
1.0079446e-07
1.0079268e-07
1.0079146e-07
1.0079096e-07
1.0078974e-07
1.0078738e-07
1.0078458e-07
1.0078166e-07
1.0077902e-07
1.0077676e-07
1.0077435e-07
1.0077142e-07
1.0076834e-07
1.0076532e-07
1.0076226e-07
1.0075919e-07
1.0075607e-07
1.0075288e-07
1.0074956e-07
1.00746e-07
1.0074213e-07
1.0073804e-07
1.0073378e-07
1.0072918e-07
1.0072428e-07
1.0071863e-07
2.0691914e-09
2.7336287e-08
8.5019198e-08
1.020201e-07
1.0364695e-07
1.027377e-07
1.0227216e-07
1.0217572e-07
1.0218057e-07
1.021874e-07
1.0218726e-07
1.0218474e-07
1.0218275e-07
1.0218085e-07
1.0217843e-07
1.0217591e-07
1.0217384e-07
1.0217209e-07
1.0217006e-07
1.0216763e-07
1.0216508e-07
1.0216266e-07
1.0216042e-07
1.0215835e-07
1.0215642e-07
1.0215452e-07
1.0215264e-07
1.0215074e-07
1.0214885e-07
1.0214694e-07
1.0214503e-07
1.0214308e-07
1.0214112e-07
1.0213913e-07
1.0213719e-07
1.0213573e-07
1.0213512e-07
1.0213421e-07
1.0213186e-07
1.0212891e-07
1.0212577e-07
1.0212291e-07
1.0212059e-07
1.0211827e-07
1.0211529e-07
1.0211207e-07
1.0210895e-07
1.0210577e-07
1.0210258e-07
1.0209937e-07
1.0209606e-07
1.0209265e-07
1.0208902e-07
1.0208503e-07
1.0208076e-07
1.0207637e-07
1.0207159e-07
1.0206653e-07
1.0206062e-07
3.0243897e-09
3.5583251e-08
9.2213556e-08
1.043176e-07
1.0475968e-07
1.0395817e-07
1.0366255e-07
1.0362447e-07
1.0363345e-07
1.0363554e-07
1.0363364e-07
1.0363083e-07
1.0362894e-07
1.0362676e-07
1.0362402e-07
1.0362133e-07
1.0361924e-07
1.0361743e-07
1.0361519e-07
1.0361252e-07
1.0360981e-07
1.036073e-07
1.0360502e-07
1.0360291e-07
1.0360091e-07
1.0359893e-07
1.0359697e-07
1.0359501e-07
1.0359306e-07
1.035911e-07
1.0358914e-07
1.0358715e-07
1.0358515e-07
1.0358312e-07
1.0358112e-07
1.0357949e-07
1.0357879e-07
1.0357822e-07
1.0357612e-07
1.0357309e-07
1.0356979e-07
1.0356677e-07
1.0356442e-07
1.0356234e-07
1.0355946e-07
1.0355619e-07
1.0355308e-07
1.0354989e-07
1.0354671e-07
1.0354352e-07
1.0354022e-07
1.0353686e-07
1.035333e-07
1.0352938e-07
1.0352509e-07
1.0352075e-07
1.0351599e-07
1.0351099e-07
1.0350505e-07
4.6555083e-09
4.5587363e-08
9.8571542e-08
1.0631709e-07
1.059884e-07
1.0535766e-07
1.0519505e-07
1.0518906e-07
1.0519508e-07
1.0519357e-07
1.0519102e-07
1.0518823e-07
1.0518649e-07
1.0518404e-07
1.0518107e-07
1.0517834e-07
1.0517634e-07
1.0517458e-07
1.0517217e-07
1.0516932e-07
1.0516654e-07
1.0516406e-07
1.0516184e-07
1.0515976e-07
1.0515776e-07
1.0515579e-07
1.0515384e-07
1.051519e-07
1.0514998e-07
1.0514805e-07
1.0514613e-07
1.0514419e-07
1.0514225e-07
1.0514027e-07
1.0513831e-07
1.0513662e-07
1.0513583e-07
1.0513563e-07
1.0513411e-07
1.051311e-07
1.0512769e-07
1.051246e-07
1.051223e-07
1.0512055e-07
1.0511797e-07
1.0511477e-07
1.0511183e-07
1.0510877e-07
1.0510574e-07
1.0510274e-07
1.0509961e-07
1.0509646e-07
1.0509316e-07
1.0508953e-07
1.0508542e-07
1.0508134e-07
1.0507687e-07
1.0507217e-07
1.0506649e-07
7.3673132e-09
5.7375263e-08
1.0381851e-07
1.0809227e-07
1.0737877e-07
1.0694674e-07
1.0687442e-07
1.0688023e-07
1.0688102e-07
1.0687776e-07
1.0687543e-07
1.0687275e-07
1.0687121e-07
1.0686854e-07
1.0686548e-07
1.068629e-07
1.0686116e-07
1.0685954e-07
1.0685697e-07
1.0685402e-07
1.0685134e-07
1.0684905e-07
1.0684698e-07
1.0684503e-07
1.0684313e-07
1.0684127e-07
1.0683944e-07
1.0683762e-07
1.0683583e-07
1.0683404e-07
1.0683227e-07
1.0683049e-07
1.0682872e-07
1.0682693e-07
1.0682513e-07
1.0682351e-07
1.068227e-07
1.0682284e-07
1.0682224e-07
1.0681948e-07
1.06816e-07
1.0681295e-07
1.068108e-07
1.0680948e-07
1.0680747e-07
1.0680449e-07
1.068019e-07
1.0679916e-07
1.0679644e-07
1.0679385e-07
1.0679109e-07
1.0678836e-07
1.0678552e-07
1.0678245e-07
1.067788e-07
1.0677523e-07
1.0677138e-07
1.0676728e-07
1.0676222e-07
1.1242188e-08
7.0887254e-08
1.072746e-07
1.0969876e-07
1.0897275e-07
1.0872953e-07
1.0870713e-07
1.0871231e-07
1.0870957e-07
1.0870622e-07
1.087046e-07
1.0870201e-07
1.0870082e-07
1.0869798e-07
1.0869511e-07
1.0869291e-07
1.0869164e-07
1.0869023e-07
1.0868753e-07
1.0868466e-07
1.086823e-07
1.0868035e-07
1.0867856e-07
1.0867686e-07
1.086752e-07
1.0867358e-07
1.0867201e-07
1.0867045e-07
1.0866893e-07
1.0866742e-07
1.0866593e-07
1.0866445e-07
1.0866299e-07
1.0866152e-07
1.0866005e-07
1.0865868e-07
1.0865795e-07
1.0865842e-07
1.0865894e-07
1.0865683e-07
1.0865338e-07
1.0865049e-07
1.0864867e-07
1.0864781e-07
1.0864672e-07
1.086441e-07
1.0864215e-07
1.086399e-07
1.0863769e-07
1.0863577e-07
1.0863362e-07
1.0863156e-07
1.0862944e-07
1.0862721e-07
1.0862442e-07
1.0862162e-07
1.0861881e-07
1.086156e-07
1.0861161e-07
1.6989058e-08
8.6050299e-08
1.0959051e-07
1.1120647e-07
1.1079116e-07
1.1070221e-07
1.1069964e-07
1.1070019e-07
1.1069696e-07
1.1069454e-07
1.1069383e-07
1.1069139e-07
1.1069074e-07
1.1068804e-07
1.106857e-07
1.1068419e-07
1.1068356e-07
1.1068241e-07
1.1067979e-07
1.1067734e-07
1.1067557e-07
1.1067413e-07
1.1067277e-07
1.1067148e-07
1.1067024e-07
1.1066905e-07
1.1066789e-07
1.1066677e-07
1.1066568e-07
1.1066462e-07
1.1066359e-07
1.1066258e-07
1.1066159e-07
1.1066063e-07
1.1065967e-07
1.1065878e-07
1.1065835e-07
1.1065902e-07
1.1066059e-07
1.1065965e-07
1.1065652e-07
1.1065401e-07
1.1065269e-07
1.1065239e-07
1.1065241e-07
1.1065038e-07
1.1064937e-07
1.1064786e-07
1.1064638e-07
1.1064536e-07
1.1064413e-07
1.1064298e-07
1.1064186e-07
1.1064072e-07
1.1063918e-07
1.1063746e-07
1.1063605e-07
1.1063417e-07
1.1063171e-07
2.4954677e-08
1.02546e-07
1.1276797e-07
1.1294073e-07
1.1284757e-07
1.1284203e-07
1.1284269e-07
1.1284146e-07
1.1283934e-07
1.1283828e-07
1.1283829e-07
1.128365e-07
1.1283621e-07
1.128345e-07
1.1283313e-07
1.128326e-07
1.1283255e-07
1.1283187e-07
1.1282996e-07
1.1282857e-07
1.1282771e-07
1.12827e-07
1.1282631e-07
1.1282568e-07
1.1282508e-07
1.1282453e-07
1.1282401e-07
1.1282353e-07
1.1282308e-07
1.1282266e-07
1.1282227e-07
1.1282192e-07
1.128216e-07
1.128213e-07
1.1282103e-07
1.128208e-07
1.1282082e-07
1.128214e-07
1.128234e-07
1.1282368e-07
1.1282172e-07
1.1282028e-07
1.1281981e-07
1.1282007e-07
1.1282064e-07
1.1282003e-07
1.1282014e-07
1.1281967e-07
1.1281932e-07
1.1281932e-07
1.1281931e-07
1.1281928e-07
1.1281935e-07
1.1281943e-07
1.1281937e-07
1.1281914e-07
1.1281927e-07
1.1281907e-07
1.1281867e-07
8.5579579e-08
8.5577661e-08
8.5576381e-08
8.5577659e-08
8.5578325e-08
8.5579221e-08
8.558007e-08
8.5580958e-08
8.5581871e-08
8.5582794e-08
8.5583717e-08
8.5584631e-08
8.5585541e-08
8.5586458e-08
8.5587391e-08
8.558834e-08
8.5589297e-08
8.5590249e-08
8.5591186e-08
8.5592094e-08
8.559296e-08
8.559375e-08
8.5594389e-08
8.559479e-08
8.5594926e-08
8.5594864e-08
8.559473e-08
8.5594633e-08
8.55946e-08
8.55946e-08
8.5594587e-08
8.5594542e-08
8.5594482e-08
8.5594426e-08
8.559436e-08
8.5594241e-08
8.5594021e-08
8.5593688e-08
8.5593285e-08
8.5592786e-08
8.559166e-08
8.5588389e-08
8.5581368e-08
8.5573772e-08
8.5583925e-08
8.5656485e-08
8.5857536e-08
8.6224049e-08
8.6637536e-08
8.6617569e-08
8.5085807e-08
8.0224713e-08
6.9373404e-08
5.0664302e-08
2.7043136e-08
8.6641207e-09
1.6822025e-09
5.0024085e-10
6.7838785e-10
8.5870146e-08
8.5868493e-08
8.5868218e-08
8.586926e-08
8.587006e-08
8.5870926e-08
8.5871796e-08
8.5872692e-08
8.5873608e-08
8.5874533e-08
8.5875453e-08
8.5876364e-08
8.5877269e-08
8.5878182e-08
8.5879112e-08
8.5880059e-08
8.5881013e-08
8.5881966e-08
8.5882902e-08
8.5883807e-08
8.5884668e-08
8.5885451e-08
8.588608e-08
8.5886468e-08
8.5886591e-08
8.5886515e-08
8.5886376e-08
8.5886279e-08
8.5886246e-08
8.5886242e-08
8.5886222e-08
8.5886169e-08
8.5886103e-08
8.5886042e-08
8.5885973e-08
8.5885854e-08
8.5885642e-08
8.5885327e-08
8.588492e-08
8.5884332e-08
8.5883009e-08
8.5879631e-08
8.5873061e-08
8.5866666e-08
8.5877454e-08
8.5946319e-08
8.6135097e-08
8.6483758e-08
8.689687e-08
8.6946952e-08
8.5628451e-08
8.1155136e-08
7.0997561e-08
5.2887366e-08
2.9090486e-08
9.656009e-09
1.8278953e-09
4.6490395e-10
6.0815493e-10
8.6189873e-08
8.6188425e-08
8.618853e-08
8.6189499e-08
8.619035e-08
8.6191219e-08
8.6192105e-08
8.6193011e-08
8.6193936e-08
8.6194866e-08
8.6195789e-08
8.61967e-08
8.6197604e-08
8.6198515e-08
8.6199443e-08
8.6200389e-08
8.6201344e-08
8.6202296e-08
8.6203231e-08
8.6204131e-08
8.6204986e-08
8.6205765e-08
8.6206389e-08
8.6206772e-08
8.6206887e-08
8.6206803e-08
8.6206658e-08
8.6206559e-08
8.6206526e-08
8.6206521e-08
8.6206499e-08
8.6206444e-08
8.6206374e-08
8.6206313e-08
8.6206252e-08
8.6206147e-08
8.620595e-08
8.6205641e-08
8.6205245e-08
8.6204749e-08
8.6203774e-08
8.6201117e-08
8.6195143e-08
8.6187121e-08
8.618967e-08
8.6238498e-08
8.6395552e-08
8.6718007e-08
8.7158471e-08
8.7373499e-08
8.6462026e-08
8.2721244e-08
7.3593147e-08
5.6341004e-08
3.2243151e-08
1.1184796e-08
2.0641146e-09
4.4375741e-10
5.3963355e-10
8.6542118e-08
8.6540952e-08
8.6541429e-08
8.6542343e-08
8.6543233e-08
8.6544106e-08
8.6545003e-08
8.6545918e-08
8.6546847e-08
8.6547779e-08
8.6548701e-08
8.6549609e-08
8.6550509e-08
8.6551416e-08
8.6552341e-08
8.6553284e-08
8.6554237e-08
8.6555188e-08
8.6556119e-08
8.6557013e-08
8.655786e-08
8.6558631e-08
8.6559247e-08
8.6559618e-08
8.6559719e-08
8.6559621e-08
8.655947e-08
8.6559371e-08
8.6559339e-08
8.6559333e-08
8.655931e-08
8.6559251e-08
8.6559177e-08
8.6559115e-08
8.6559058e-08
8.6558965e-08
8.6558785e-08
8.655849e-08
8.6558097e-08
8.655762e-08
8.6556799e-08
8.655464e-08
8.6549476e-08
8.6541415e-08
8.6539601e-08
8.6574049e-08
8.6702933e-08
8.699239e-08
8.7432857e-08
8.7759263e-08
8.7179293e-08
8.4089637e-08
7.5960004e-08
5.9691033e-08
3.5551843e-08
1.2925301e-08
2.377835e-09
4.3348679e-10
4.8247544e-10
8.6930866e-08
8.6930062e-08
8.6930775e-08
8.6931667e-08
8.6932575e-08
8.6933457e-08
8.6934363e-08
8.6935283e-08
8.6936215e-08
8.6937146e-08
8.6938063e-08
8.6938965e-08
8.6939858e-08
8.6940759e-08
8.694168e-08
8.6942619e-08
8.694357e-08
8.6944518e-08
8.6945443e-08
8.6946327e-08
8.6947164e-08
8.6947926e-08
8.694853e-08
8.6948887e-08
8.694897e-08
8.6948854e-08
8.6948695e-08
8.6948598e-08
8.6948568e-08
8.6948563e-08
8.6948539e-08
8.6948478e-08
8.69484e-08
8.6948336e-08
8.6948285e-08
8.6948207e-08
8.6948046e-08
8.6947768e-08
8.6947383e-08
8.6946929e-08
8.6946261e-08
8.694459e-08
8.6940269e-08
8.6932396e-08
8.6926809e-08
8.6947611e-08
8.7047875e-08
8.7299757e-08
8.7728121e-08
8.8146939e-08
8.7883716e-08
8.5453626e-08
7.8376647e-08
6.3250012e-08
3.9287116e-08
1.5022855e-08
2.8005743e-09
4.345583e-10
4.3024899e-10
8.7360794e-08
8.7360417e-08
8.7361281e-08
8.7362172e-08
8.7363086e-08
8.7363976e-08
8.7364886e-08
8.7365809e-08
8.7366739e-08
8.7367665e-08
8.7368574e-08
8.7369466e-08
8.737035e-08
8.7371242e-08
8.7372156e-08
8.737309e-08
8.7374036e-08
8.7374978e-08
8.7375893e-08
8.7376764e-08
8.737759e-08
8.7378339e-08
8.7378928e-08
8.7379265e-08
8.7379325e-08
8.7379188e-08
8.737902e-08
8.7378925e-08
8.7378899e-08
8.7378896e-08
8.7378871e-08
8.7378808e-08
8.7378727e-08
8.7378661e-08
8.7378615e-08
8.7378553e-08
8.7378415e-08
8.7378159e-08
8.7377785e-08
8.7377342e-08
8.7376775e-08
8.7375516e-08
8.7372079e-08
8.7364929e-08
8.7357068e-08
8.7366647e-08
8.7439868e-08
8.7650335e-08
8.8050668e-08
8.8529877e-08
8.8543224e-08
8.6746624e-08
8.0735543e-08
6.691725e-08
4.3398803e-08
1.752016e-08
3.3526292e-09
4.5028141e-10
3.8630121e-10
8.7837489e-08
8.7837489e-08
8.7838437e-08
8.7839338e-08
8.7840251e-08
8.7841146e-08
8.7842057e-08
8.7842978e-08
8.7843903e-08
8.7844817e-08
8.7845714e-08
8.7846591e-08
8.7847461e-08
8.7848342e-08
8.7849246e-08
8.7850172e-08
8.785111e-08
8.7852042e-08
8.7852943e-08
8.7853797e-08
8.7854606e-08
8.7855341e-08
8.7855911e-08
8.7856222e-08
8.7856251e-08
8.7856087e-08
8.7855911e-08
8.7855819e-08
8.7855798e-08
8.7855797e-08
8.7855773e-08
8.7855709e-08
8.7855625e-08
8.7855557e-08
8.7855517e-08
8.7855472e-08
8.785536e-08
8.7855132e-08
8.7854776e-08
8.785434e-08
8.7853842e-08
8.7852914e-08
8.7850318e-08
8.7844207e-08
8.7835291e-08
8.7836058e-08
8.7884658e-08
8.8051977e-08
8.8411093e-08
8.8919365e-08
8.9164227e-08
8.7968087e-08
8.2969991e-08
7.0671855e-08
4.7909293e-08
2.0517999e-08
4.0780164e-09
4.8346745e-10
3.4827085e-10
8.8367485e-08
8.8367784e-08
8.8368761e-08
8.836967e-08
8.8370577e-08
8.8371472e-08
8.8372379e-08
8.8373293e-08
8.8374205e-08
8.8375103e-08
8.837598e-08
8.8376836e-08
8.8377688e-08
8.8378552e-08
8.8379442e-08
8.8380354e-08
8.838128e-08
8.8382197e-08
8.8383077e-08
8.8383908e-08
8.8384698e-08
8.8385413e-08
8.8385958e-08
8.8386238e-08
8.8386228e-08
8.8386031e-08
8.8385845e-08
8.8385758e-08
8.8385743e-08
8.8385746e-08
8.8385723e-08
8.8385659e-08
8.8385573e-08
8.8385503e-08
8.8385469e-08
8.8385443e-08
8.8385362e-08
8.8385168e-08
8.8384838e-08
8.8384411e-08
8.838395e-08
8.8383267e-08
8.8381424e-08
8.8376557e-08
8.8367739e-08
8.8362341e-08
8.8389775e-08
8.8514267e-08
8.8821191e-08
8.9326498e-08
8.9746489e-08
8.909518e-08
8.5189683e-08
7.4450337e-08
5.2798614e-08
2.4103789e-08
5.0359255e-09
5.3837345e-10
3.1614259e-10
8.8958542e-08
8.895904e-08
8.8960025e-08
8.8960935e-08
8.8961831e-08
8.8962718e-08
8.8963613e-08
8.896451e-08
8.8965402e-08
8.8966275e-08
8.8967124e-08
8.8967951e-08
8.8968776e-08
8.8969617e-08
8.8970486e-08
8.8971379e-08
8.8972285e-08
8.8973179e-08
8.897403e-08
8.897483e-08
8.8975596e-08
8.8976287e-08
8.89768e-08
8.8977039e-08
8.897698e-08
8.8976741e-08
8.8976547e-08
8.8976468e-08
8.8976459e-08
8.8976465e-08
8.8976445e-08
8.8976382e-08
8.8976295e-08
8.8976223e-08
8.8976196e-08
8.8976193e-08
8.8976146e-08
8.8975994e-08
8.8975701e-08
8.8975292e-08
8.8974849e-08
8.8974328e-08
8.8973104e-08
8.8969526e-08
8.8961721e-08
8.8952776e-08
8.8963337e-08
8.9047702e-08
8.9295e-08
8.9767867e-08
9.0305665e-08
9.0125683e-08
8.7261216e-08
7.8200856e-08
5.8030265e-08
2.8370147e-08
6.3012444e-09
6.2230265e-10
2.8964464e-10
8.9619983e-08
8.9620605e-08
8.962158e-08
8.962248e-08
8.9623356e-08
8.9624226e-08
8.9625099e-08
8.962597e-08
8.962683e-08
8.9627666e-08
8.9628474e-08
8.9629261e-08
8.9630049e-08
8.9630858e-08
8.9631696e-08
8.9632561e-08
8.9633439e-08
8.9634299e-08
8.9635108e-08
8.9635869e-08
8.9636603e-08
8.9637262e-08
8.9637734e-08
8.9637922e-08
8.9637802e-08
8.963751e-08
8.963731e-08
8.963724e-08
8.9637238e-08
8.9637247e-08
8.9637231e-08
8.9637172e-08
8.9637085e-08
8.9637013e-08
8.9636993e-08
8.9637016e-08
8.963701e-08
8.963691e-08
8.9636668e-08
8.963629e-08
8.963586e-08
8.963543e-08
8.9634661e-08
8.9632284e-08
8.9626107e-08
8.9616003e-08
8.961452e-08
8.9663815e-08
8.9848462e-08
9.0262921e-08
9.0857302e-08
9.1064462e-08
8.9177865e-08
8.1817811e-08
6.353914e-08
3.3405277e-08
7.9856646e-09
7.44884e-10
2.6897481e-10
9.0363123e-08
9.0363812e-08
9.0364762e-08
9.0365637e-08
9.0366482e-08
9.0367321e-08
9.0368158e-08
9.0368988e-08
9.0369802e-08
9.0370585e-08
9.0371337e-08
9.0372068e-08
9.0372805e-08
9.0373569e-08
9.0374365e-08
9.0375189e-08
9.0376026e-08
9.0376835e-08
9.0377587e-08
9.0378297e-08
9.0378992e-08
9.037961e-08
9.0380028e-08
9.0380153e-08
9.0379953e-08
9.0379594e-08
9.0379391e-08
9.0379335e-08
9.0379339e-08
9.0379352e-08
9.0379339e-08
9.0379286e-08
9.0379204e-08
9.0379134e-08
9.0379122e-08
9.0379177e-08
9.0379219e-08
9.0379181e-08
9.0379009e-08
9.0378681e-08
9.037827e-08
9.0377888e-08
9.0377413e-08
9.0376016e-08
9.0371733e-08
9.0362408e-08
9.0353805e-08
9.0375092e-08
9.0499207e-08
9.0836179e-08
9.1426351e-08
9.1917591e-08
9.0914224e-08
8.5088855e-08
6.9231284e-08
3.9277839e-08
1.0238767e-08
9.1751583e-10
2.5499147e-10
9.1201651e-08
9.1202383e-08
9.1203293e-08
9.1204128e-08
9.1204928e-08
9.120572e-08
9.1206504e-08
9.1207277e-08
9.1208025e-08
9.1208735e-08
9.1209411e-08
9.1210069e-08
9.1210739e-08
9.1211442e-08
9.121218e-08
9.1212949e-08
9.1213727e-08
9.1214465e-08
9.1215139e-08
9.1215786e-08
9.1216432e-08
9.1216996e-08
9.1217346e-08
9.1217396e-08
9.121708e-08
9.1216648e-08
9.1216442e-08
9.1216408e-08
9.1216415e-08
9.1216432e-08
9.1216426e-08
9.1216383e-08
9.1216309e-08
9.1216243e-08
9.1216242e-08
9.1216335e-08
9.1216435e-08
9.1216474e-08
9.1216391e-08
9.121614e-08
9.1215767e-08
9.1215417e-08
9.1215108e-08
9.1214413e-08
9.12119e-08
9.1204671e-08
9.119344e-08
9.119508e-08
9.1265794e-08
9.1515283e-08
9.2047632e-08
9.2702653e-08
9.2439028e-08
8.8331112e-08
7.4966281e-08
4.6016704e-08
1.3267719e-08
1.1590117e-09
2.5015924e-10
9.2151659e-08
9.215244e-08
9.2153317e-08
9.2154098e-08
9.2154839e-08
9.2155566e-08
9.2156283e-08
9.2156984e-08
9.2157649e-08
9.2158269e-08
9.215885e-08
9.215942e-08
9.2160011e-08
9.2160641e-08
9.216131e-08
9.2162008e-08
9.2162705e-08
9.2163348e-08
9.2163924e-08
9.2164499e-08
9.216509e-08
9.2165589e-08
9.216586e-08
9.2165812e-08
9.2165318e-08
9.2164841e-08
9.2164639e-08
9.2164619e-08
9.2164632e-08
9.2164651e-08
9.2164658e-08
9.2164627e-08
9.2164569e-08
9.2164514e-08
9.2164533e-08
9.2164662e-08
9.2164826e-08
9.2164957e-08
9.2164989e-08
9.2164844e-08
9.2164534e-08
9.2164219e-08
9.2163999e-08
9.2163726e-08
9.2162582e-08
9.2158009e-08
9.2147666e-08
9.213831e-08
9.2166992e-08
9.2328987e-08
9.2764042e-08
9.3475615e-08
9.3774934e-08
9.1215513e-08
8.061262e-08
5.3584448e-08
1.7345861e-08
1.5216949e-09
2.5900762e-10
9.3229606e-08
9.323054e-08
9.3231393e-08
9.3232119e-08
9.3232805e-08
9.3233479e-08
9.3234138e-08
9.3234773e-08
9.3235358e-08
9.3235887e-08
9.3236374e-08
9.3236857e-08
9.323737e-08
9.3237931e-08
9.3238535e-08
9.3239175e-08
9.3239799e-08
9.3240335e-08
9.3240804e-08
9.3241314e-08
9.3241864e-08
9.3242309e-08
9.3242505e-08
9.3242282e-08
9.3241596e-08
9.3241134e-08
9.3240957e-08
9.3240938e-08
9.3240955e-08
9.324098e-08
9.3241004e-08
9.3240995e-08
9.3240959e-08
9.3240924e-08
9.324097e-08
9.3241137e-08
9.3241355e-08
9.3241585e-08
9.3241751e-08
9.3241746e-08
9.3241524e-08
9.3241244e-08
9.3241062e-08
9.3240983e-08
9.3240694e-08
9.3238585e-08
9.3231252e-08
9.321854e-08
9.3219252e-08
9.330371e-08
9.3616687e-08
9.4283982e-08
9.4966714e-08
9.3765661e-08
8.5918446e-08
6.1863286e-08
2.2790395e-08
2.1019299e-09
2.795953e-10
7.4547248e-10
7.8152809e-10
8.0444782e-10
8.2094682e-10
8.3491961e-10
8.4766133e-10
8.5917519e-10
8.6911602e-10
8.7717363e-10
8.831393e-10
8.8682904e-10
8.8805919e-10
8.8660196e-10
8.8217397e-10
8.7441508e-10
8.6290158e-10
8.4714428e-10
8.2662689e-10
8.0083183e-10
7.6929895e-10
7.3166706e-10
6.8784404e-10
6.3811621e-10
5.8300875e-10
5.232976e-10
4.600634e-10
3.9485158e-10
3.2912047e-10
2.6508753e-10
2.0558848e-10
1.5287177e-10
1.0941999e-10
7.7936822e-11
5.7897739e-11
4.9813348e-11
5.4976242e-11
7.3591692e-11
1.0236228e-10
1.3728737e-10
1.7738567e-10
2.2204036e-10
2.7001028e-10
3.2076325e-10
3.7239503e-10
4.2355916e-10
4.7383513e-10
5.2258579e-10
5.691768e-10
6.130612e-10
6.5402318e-10
6.9206865e-10
7.2728818e-10
7.598115e-10
7.8970177e-10
8.1702585e-10
8.4197928e-10
8.6482019e-10
8.85759e-10
9.0495909e-10
9.2258956e-10
9.3881187e-10
9.5374481e-10
9.6748038e-10
9.801064e-10
9.9171142e-10
1.0023802e-09
1.0121941e-09
1.0212278e-09
1.029552e-09
1.0372278e-09
1.0443167e-09
1.05086e-09
1.0569239e-09
1.0624814e-09
5.5157777e-10
5.8887236e-10
6.2317376e-10
6.5372267e-10
6.7976285e-10
7.0166575e-10
7.2001217e-10
7.3524465e-10
7.4763447e-10
7.5737151e-10
7.645873e-10
7.6935706e-10
7.7167721e-10
7.7145687e-10
7.6850541e-10
7.625422e-10
7.5319934e-10
7.4004809e-10
7.2262291e-10
7.0046713e-10
6.7317085e-10
6.4027003e-10
6.0123055e-10
5.5610141e-10
5.0563651e-10
4.5101491e-10
3.9379727e-10
3.3582247e-10
2.7890404e-10
2.2480756e-10
1.7647553e-10
1.3393738e-10
9.8778899e-11
7.3392186e-11
5.7835587e-11
5.1983071e-11
5.624927e-11
6.968179e-11
9.0161426e-11
1.159516e-10
1.4604863e-10
1.794422e-10
2.1569348e-10
2.5376596e-10
2.9264205e-10
3.316186e-10
3.7020929e-10
4.0792402e-10
4.4426042e-10
4.7888102e-10
5.1159505e-10
5.4232301e-10
5.7105919e-10
5.978393e-10
6.2266722e-10
6.4559895e-10
6.6673825e-10
6.86207e-10
7.0412683e-10
7.2061497e-10
7.3579003e-10
7.4976196e-10
7.6262835e-10
7.7447682e-10
7.8538717e-10
7.9543373e-10
8.0468433e-10
8.132034e-10
8.2104896e-10
8.2827613e-10
8.3493478e-10
8.4106978e-10
8.4673194e-10
8.519361e-10
1.4399689e-09
1.2096242e-09
1.0247085e-09
8.8234272e-10
7.7868734e-10
7.0750736e-10
6.6227826e-10
6.3848045e-10
6.3108707e-10
6.3464937e-10
6.4449623e-10
6.5709661e-10
6.6995277e-10
6.8135628e-10
6.9021516e-10
6.958822e-10
6.9798523e-10
6.9629156e-10
6.9060573e-10
6.8072186e-10
6.6641424e-10
6.4742905e-10
6.2343078e-10
5.9417277e-10
5.5969571e-10
5.203943e-10
4.7701101e-10
4.3067288e-10
3.8239029e-10
3.3357898e-10
2.856849e-10
2.406372e-10
1.9937307e-10
1.6348741e-10
1.3355075e-10
1.1192424e-10
9.7772397e-11
9.0731057e-11
9.0068463e-11
9.4756758e-11
1.0431965e-10
1.1785508e-10
1.3469887e-10
1.5417346e-10
1.7558732e-10
1.9833512e-10
2.2193476e-10
2.4597199e-10
2.7005622e-10
2.9385398e-10
3.1709808e-10
3.3959883e-10
3.6122879e-10
3.8183141e-10
4.0129969e-10
4.1959766e-10
4.3674377e-10
4.5276664e-10
4.6769385e-10
4.8158534e-10
4.9450795e-10
5.0652099e-10
5.1767999e-10
5.2803777e-10
5.3764504e-10
5.4655045e-10
5.548003e-10
5.6243895e-10
5.695084e-10
5.7604837e-10
5.8209663e-10
5.876875e-10
5.9285795e-10
5.9762967e-10
6.5654456e-09
4.7111793e-09
3.4334623e-09
2.5871911e-09
2.0382142e-09
1.6658682e-09
1.3947307e-09
1.1828268e-09
1.009806e-09
8.7799515e-10
7.8186009e-10
7.1431097e-10
6.7080838e-10
6.4635996e-10
6.3593373e-10
6.3498082e-10
6.3963707e-10
6.4684008e-10
6.540241e-10
6.5903921e-10
6.6006345e-10
6.5652598e-10
6.4852155e-10
6.3608238e-10
6.1919926e-10
5.9794577e-10
5.7254952e-10
5.4344332e-10
5.1140064e-10
4.7718682e-10
4.4135739e-10
4.0490145e-10
3.6868177e-10
3.3357137e-10
3.0011038e-10
2.6977824e-10
2.4339198e-10
2.2106033e-10
2.0354022e-10
1.9046422e-10
1.8106172e-10
1.7494846e-10
1.7193749e-10
1.7165416e-10
1.7368856e-10
1.7764632e-10
1.8313415e-10
1.8985626e-10
1.9754499e-10
2.0595459e-10
2.148586e-10
2.2406289e-10
2.3341786e-10
2.4279477e-10
2.5207902e-10
2.6117767e-10
2.7001868e-10
2.7855055e-10
2.8673555e-10
2.9454896e-10
3.0197681e-10
3.0901309e-10
3.1565814e-10
3.2191712e-10
3.2779897e-10
3.333153e-10
3.3847965e-10
3.4330696e-10
3.47813e-10
3.5201399e-10
3.5592654e-10
3.5956581e-10
3.6295232e-10
3.6608378e-10
2.1821402e-08
1.6370242e-08
1.2027963e-08
8.741052e-09
6.3586866e-09
4.6853161e-09
3.541236e-09
2.7544313e-09
2.1986098e-09
1.8073089e-09
1.520607e-09
1.3003878e-09
1.1243293e-09
9.8095001e-10
8.6791917e-10
7.8356444e-10
7.2232568e-10
6.8110043e-10
6.5639673e-10
6.4579633e-10
6.4498548e-10
6.4903183e-10
6.5390093e-10
6.5658298e-10
6.561995e-10
6.5259505e-10
6.4574531e-10
6.3565175e-10
6.224936e-10
6.065756e-10
5.8821376e-10
5.6774426e-10
5.4581626e-10
5.2212421e-10
4.9837598e-10
4.7453563e-10
4.5094915e-10
4.2849541e-10
4.0787015e-10
3.8916461e-10
3.7245499e-10
3.5758651e-10
3.449122e-10
3.3428639e-10
3.2552635e-10
3.1842367e-10
3.1276867e-10
3.0833162e-10
3.0493521e-10
3.0239689e-10
3.0059094e-10
2.9942177e-10
2.9879573e-10
2.9862378e-10
2.9882229e-10
2.9932366e-10
3.0006423e-10
3.0098812e-10
3.0205076e-10
3.0321431e-10
3.0444648e-10
3.0572057e-10
3.0701494e-10
3.0831204e-10
3.0959784e-10
3.1086123e-10
3.1209365e-10
3.1328872e-10
3.1444192e-10
3.1555012e-10
3.1661169e-10
3.1762509e-10
3.1859311e-10
3.1950481e-10
4.3863669e-08
3.5751283e-08
2.8291043e-08
2.1863195e-08
1.6583878e-08
1.2423278e-08
9.263872e-09
6.9298385e-09
5.228385e-09
4.0084471e-09
3.1381866e-09
2.5193809e-09
2.0707278e-09
1.736484e-09
1.4857669e-09
1.2903796e-09
1.1335383e-09
1.0043934e-09
8.9819866e-10
8.1562136e-10
7.5438701e-10
7.1256715e-10
6.886487e-10
6.7746994e-10
6.7443735e-10
6.7565272e-10
6.7815259e-10
6.7972759e-10
6.7973216e-10
6.7797066e-10
6.7442935e-10
6.6914769e-10
6.6227316e-10
6.5402969e-10
6.4455121e-10
6.3409849e-10
6.2298804e-10
6.1131329e-10
5.9909148e-10
5.8697712e-10
5.7532069e-10
5.6425716e-10
5.5382097e-10
5.4408566e-10
5.3520087e-10
5.2714792e-10
5.1986146e-10
5.1330191e-10
5.0742278e-10
5.0216738e-10
4.9748054e-10
4.9331671e-10
4.8962284e-10
4.8634905e-10
4.834501e-10
4.808861e-10
4.7862099e-10
4.766234e-10
4.7486302e-10
4.7331265e-10
4.7194875e-10
4.7075054e-10
4.6969943e-10
4.6877878e-10
4.67974e-10
4.6727189e-10
4.6666055e-10
4.6613037e-10
4.6567279e-10
4.6528034e-10
4.6494642e-10
4.6466556e-10
4.6443241e-10
4.6424456e-10
6.3557839e-08
5.5705696e-08