/*--------------------------------*- C++ -*----------------------------------*\
| =========                 |                                                 |
| \\      /  F ield         | OpenFOAM: The Open Source CFD Toolbox           |
|  \\    /   O peration     | Version:  v2006                                 |
|   \\  /    A nd           | Website:  www.openfoam.com                      |
|    \\/     M anipulation  |                                                 |
\*---------------------------------------------------------------------------*/
FoamFile
{
    version     2.0;
    format      ascii;
    class       volScalarField;
    location    "7000";
    object      omega;
}
// * * * * * * * * * * * * * * * * * * * * * * * * * * * * * * * * * * * * * //

dimensions      [0 0 -1 0 0 0 0];


internalField   nonuniform List<scalar> 
55713
(
5.64889
1.3887768
0.45951246
0.29936466
0.26964441
0.26238115
0.26188288
0.26264362
0.26320164
0.26342572
0.2634725
0.26346506
0.26345362
0.26344842
0.26344852
0.26344909
0.26344855
0.26344768
0.26344756
0.26344758
0.263447
0.26344586
0.26344455
0.26344333
0.26344217
0.26344094
0.26343955
0.26343805
0.26343629
0.26343426
0.26343209
0.26342978
0.26342736
0.26342488
0.26342232
0.26341949
0.26341624
0.26341258
0.26340864
0.26340453
0.26340039
0.26339607
0.26339131
0.26338619
0.26338116
0.26337632
0.26337145
0.26336644
0.26336129
0.26335596
0.26335042
0.26334467
0.26333876
0.26333274
0.26332657
0.26332033
0.26331449
0.26330944
0.26330487
5.1536929
1.2776713
0.4386161
0.30194841
0.27782119
0.2727151
0.27280811
0.27361001
0.27407736
0.27422611
0.27423758
0.2742185
0.274203
0.27419479
0.27419054
0.27418603
0.27418017
0.27417459
0.27417003
0.27416562
0.27416061
0.27415515
0.27414962
0.27414425
0.274139
0.27413375
0.27412837
0.27412291
0.2741172
0.27411126
0.27410518
0.27409894
0.27409257
0.27408615
0.27407969
0.27407301
0.27406579
0.274058
0.27404979
0.27404135
0.27403283
0.27402415
0.27401492
0.2740051
0.27399517
0.27398531
0.27397524
0.27396482
0.27395403
0.27394282
0.2739311
0.27391881
0.27390592
0.27389246
0.27387829
0.27386331
0.27384782
0.27383216
0.27381633
4.7199319
1.185749
0.42333826
0.30680814
0.28770335
0.28415038
0.28465704
0.28545737
0.28582795
0.28591009
0.28589477
0.28586782
0.28584897
0.28583745
0.28582833
0.28581832
0.28580727
0.28579698
0.2857879
0.28577891
0.28576936
0.28575952
0.28574971
0.28574016
0.2857308
0.28572148
0.28571206
0.28570259
0.28569291
0.28568303
0.28567302
0.28566283
0.2856525
0.28564212
0.28563174
0.28562122
0.28561013
0.28559823
0.28558575
0.28557294
0.28556005
0.28554704
0.28553342
0.28551895
0.28550413
0.28548927
0.28547407
0.28545831
0.28544196
0.28542495
0.28540718
0.28538849
0.28536876
0.285348
0.28532602
0.28530251
0.28527763
0.28525165
0.28522472
4.3379225
1.1020603
0.41220356
0.31372352
0.29890641
0.29676484
0.2976117
0.29835426
0.29861659
0.29864229
0.29860849
0.29857695
0.29855535
0.29853988
0.29852555
0.29851014
0.29849408
0.29847919
0.29846557
0.29845196
0.2984379
0.29842371
0.29840967
0.29839602
0.29838257
0.29836924
0.2983558
0.29834239
0.29832877
0.29831503
0.29830111
0.29828703
0.29827281
0.29825852
0.29824427
0.29823001
0.29821522
0.29819932
0.29818264
0.29816552
0.29814827
0.298131
0.29811313
0.29809415
0.2980745
0.29805471
0.29803445
0.29801343
0.29799164
0.29796895
0.29794524
0.29792029
0.29789386
0.2978659
0.29783625
0.29780438
0.29777022
0.29773406
0.29769615
3.9998255
1.0265087
0.40514549
0.32284131
0.31162339
0.31072262
0.31179563
0.31242647
0.31258362
0.31256694
0.31252247
0.312488
0.31246356
0.31244344
0.31242374
0.31240314
0.31238234
0.31236296
0.31234477
0.31232653
0.31230801
0.31228955
0.3122714
0.31225374
0.31223632
0.31221906
0.3122017
0.31218445
0.312167
0.31214951
0.31213181
0.31211397
0.31209596
0.31207785
0.31205981
0.31204195
0.31202379
0.3120041
0.31198336
0.31196204
0.31194055
0.31191917
0.31189731
0.3118741
0.31184979
0.31182519
0.31180009
0.31177405
0.31174706
0.31171897
0.31168961
0.31165874
0.31162594
0.3115911
0.31155413
0.31151433
0.3114713
0.31142543
0.31137697
3.6992511
0.95792205
0.40199521
0.33566406
0.32602086
0.32620493
0.32736921
0.3278472
0.32791465
0.32786825
0.32781948
0.3277829
0.32775497
0.32772983
0.32770489
0.32767954
0.32765439
0.32763063
0.32760787
0.32758514
0.32756234
0.3275398
0.32751773
0.32749623
0.327475
0.32745397
0.32743291
0.327412
0.32739093
0.32736991
0.32734863
0.32732725
0.32730568
0.32728398
0.32726232
0.32724101
0.32721993
0.32719684
0.32717228
0.32714698
0.32712145
0.32709618
0.32707072
0.32704374
0.3270151
0.32698594
0.32695629
0.32692558
0.32689379
0.32686071
0.32682616
0.32678987
0.32675124
0.32671003
0.32666626
0.32661918
0.32656791
0.32651302
0.3264547
3.4309607
0.89550634
0.40270693
0.35097585
0.34256976
0.34346207
0.34452104
0.34482965
0.34482923
0.34476802
0.34471765
0.34467868
0.34464669
0.34461644
0.3445866
0.34455711
0.34452815
0.34450019
0.34447298
0.34444603
0.34441925
0.34439293
0.34436722
0.34434216
0.34431741
0.34429291
0.34426845
0.3442442
0.34421985
0.34419561
0.34417111
0.34414654
0.34412179
0.34409686
0.34407192
0.3440474
0.34402392
0.34399809
0.34397013
0.34394118
0.34391193
0.34388313
0.34385462
0.3438246
0.34379218
0.34375886
0.34372514
0.3436903
0.34365435
0.34361695
0.34357789
0.34353695
0.34349333
0.34344655
0.34339677
0.34334343
0.3432849
0.34322209
0.34315499
3.1906545
0.838597
0.40727694
0.36643441
0.36139984
0.36266029
0.36348658
0.36364663
0.3635977
0.36353292
0.36348246
0.36344089
0.36340479
0.36336966
0.36333543
0.36330264
0.36327052
0.36323866
0.36320738
0.36317665
0.36314634
0.36311668
0.36308779
0.36305964
0.36303183
0.36300435
0.36297697
0.36294989
0.36292273
0.36289579
0.36286858
0.36284138
0.36281398
0.36278641
0.36275874
0.3627315
0.36270603
0.36267865
0.36264793
0.36261584
0.36258337
0.36255153
0.36252069
0.36248873
0.36245343
0.36241663
0.36237958
0.36234141
0.36230221
0.36226149
0.36221893
0.36217443
0.36212703
0.36207595
0.3620213
0.36196321
0.3618989
0.36182978
0.36175556
2.9748513
0.78667764
0.41562414
0.38513314
0.38261412
0.38399501
0.3845818
0.38462835
0.38455713
0.3844922
0.38444152
0.38439732
0.38435778
0.38431835
0.38428042
0.38424523
0.38421075
0.38417567
0.38414101
0.3841072
0.384074
0.38404168
0.38401035
0.38397984
0.38394969
0.38391997
0.3838904
0.38386122
0.383832
0.3838031
0.38377394
0.38374492
0.38371569
0.38368632
0.38365678
0.38362761
0.38360067
0.38357331
0.38354103
0.38350657
0.38347155
0.3834374
0.38340515
0.38337288
0.38333602
0.38329687
0.38325764
0.38321727
0.38317617
0.38313356
0.38308896
0.38304248
0.38299302
0.38293958
0.38288173
0.38282101
0.38275317
0.38268003
0.38260117
2.7808958
0.73935468
0.42795011
0.40686104
0.40653883
0.40787445
0.40822326
0.40819305
0.40811534
0.40805301
0.40800296
0.40795723
0.40791551
0.40787277
0.40783185
0.40779501
0.40775927
0.40772242
0.40768564
0.40764988
0.40761482
0.4075809
0.40754819
0.40751634
0.40748493
0.40745403
0.40742336
0.40739314
0.40736299
0.40733322
0.40730326
0.4072736
0.40724369
0.40721378
0.4071836
0.40715375
0.40712634
0.40710041
0.40706891
0.40703327
0.4069966
0.40696122
0.40692879
0.40689828
0.40686192
0.40682215
0.40678257
0.4067416
0.40670051
0.40665818
0.40661361
0.40656737
0.40651825
0.40646531
0.4064068
0.40634636
0.40627836
0.40620442
0.40612453
2.6066216
0.69633471
0.44532228
0.43230567
0.43367151
0.43477842
0.43492608
0.43485942
0.43478593
0.43472749
0.43467996
0.43463448
0.43459257
0.43454789
0.43450481
0.43446723
0.43443236
0.43439634
0.43435942
0.43432329
0.43428792
0.43425391
0.43422129
0.43418962
0.43415851
0.43412798
0.4340978
0.43406816
0.43403868
0.43400966
0.43398058
0.43395189
0.43392304
0.43389439
0.43386538
0.43383669
0.43381031
0.43378742
0.43376031
0.43372554
0.43368841
0.43365341
0.43362266
0.43359595
0.43356349
0.43352553
0.43348852
0.43344922
0.43341083
0.433372
0.43333041
0.43328758
0.43324218
0.43319372
0.4331386
0.43308221
0.4330192
0.43294881
0.43287318
2.4496365
0.65750227
0.47162475
0.46252055
0.46459612
0.46532796
0.46534142
0.46527524
0.46520893
0.46515612
0.46511568
0.46507218
0.46503319
0.46498849
0.46494516
0.46491009
0.46487992
0.46484765
0.46481219
0.46477747
0.46474412
0.46471257
0.46468239
0.46465323
0.46462474
0.46459691
0.46456954
0.4645428
0.46451636
0.46449045
0.46446465
0.46443934
0.46441403
0.46438909
0.46436393
0.46433906
0.46431611
0.46429842
0.46427972
0.46424979
0.46421418
0.4641817
0.46415526
0.46413458
0.46411112
0.46407796
0.46404793
0.46401353
0.46398175
0.46395086
0.46391657
0.46388144
0.46384453
0.46380557
0.46376049
0.46371269
0.46366236
0.46360125
0.46353737
2.3087718
0.62274534
0.50601681
0.49857117
0.50000247
0.50029245
0.50024824
0.50019911
0.50014791
0.50010472
0.50007525
0.50003746
0.50000661
0.49996617
0.49992718
0.499901
0.49988187
0.4998574
0.4998246
0.49979383
0.49976614
0.49974077
0.49971673
0.4996936
0.49967118
0.49964945
0.49962832
0.49960784
0.49958784
0.49956842
0.49954938
0.49953089
0.49951267
0.49949491
0.49947729
0.49946001
0.49944423
0.49943422
0.49942753
0.49940971
0.49937977
0.49935281
0.49933391
0.49932269
0.49931236
0.49928879
0.49927164
0.49924707
0.49922753
0.49920937
0.49918863
0.49916666
0.49914477
0.49912115
0.49909479
0.49906188
0.49903354
0.49899069
0.49894856
2.1825719
0.59148087
0.54115134
0.54005609
0.54042246
0.54040998
0.54037958
0.54035438
0.54032164
0.54029842
0.54027644
0.54025402
0.54023562
0.54021258
0.54019043
0.54017672
0.54017438
0.54016308
0.54013559
0.54011628
0.54010125
0.54008787
0.54007528
0.54006338
0.54005209
0.54004149
0.54003149
0.54002215
0.54001337
0.54000522
0.53999763
0.53999066
0.5399842
0.53997829
0.53997282
0.53996781
0.5399636
0.53996311
0.53996813
0.53997163
0.53995782
0.53994419
0.5399391
0.53994058
0.53994276
0.53993847
0.53993892
0.53993371
0.53993294
0.5399328
0.53993247
0.53993104
0.5399311
0.53993006
0.53992967
0.53992358
0.53992392
0.53991458
0.53990729
0.17900841
0.17900767
0.17900656
0.17900997
0.17901254
0.17901563
0.17901875
0.17902195
0.17902518
0.17902838
0.17903154
0.17903464
0.17903766
0.1790406
0.17904345
0.17904623
0.17904895
0.17905163
0.17905427
0.17905679
0.17905914
0.17906125
0.17906307
0.17906463
0.17906601
0.17906723
0.17906821
0.17906892
0.17906934
0.17906949
0.17906937
0.17906899
0.17906833
0.1790674
0.17906617
0.17906466
0.17906292
0.17906101
0.1790589
0.17905658
0.17905432
0.17905285
0.17905289
0.17905256
0.17904261
0.17900167
0.17889873
0.17871364
0.17848612
0.1783996
0.17892385
0.18114356
0.18855677
0.2103122
0.27230721
0.45020049
0.99049689
3.1723916
15.453955
0.18146227
0.18146174
0.18146234
0.18146539
0.18146823
0.18147133
0.18147451
0.18147774
0.18148099
0.18148422
0.18148739
0.18149049
0.18149351
0.18149645
0.1814993
0.18150208
0.18150481
0.18150752
0.18151018
0.18151272
0.18151507
0.18151717
0.18151899
0.18152056
0.18152195
0.18152317
0.18152413
0.18152481
0.18152521
0.18152534
0.1815252
0.18152479
0.18152412
0.18152317
0.18152194
0.18152042
0.18151867
0.18151673
0.18151461
0.18151233
0.18151015
0.18150874
0.18150859
0.1815078
0.18149765
0.18145797
0.18135861
0.18117706
0.18094369
0.18082385
0.18126607
0.18337857
0.19012212
0.21032514
0.26861977
0.43770447
0.95593073
3.0650306
14.652059
0.18418642
0.18418611
0.18418736
0.18419032
0.18419329
0.18419643
0.18419967
0.18420296
0.18420625
0.18420951
0.1842127
0.18421583
0.18421887
0.18422182
0.18422467
0.18422747
0.18423021
0.18423294
0.18423562
0.18423817
0.18424052
0.18424263
0.18424446
0.18424604
0.18424744
0.18424867
0.18424964
0.18425032
0.18425072
0.18425086
0.18425073
0.18425034
0.18424968
0.18424877
0.18424756
0.18424606
0.18424433
0.18424242
0.18424033
0.18423804
0.18423573
0.18423403
0.18423372
0.18423393
0.18422782
0.18419705
0.18411084
0.18393952
0.18369623
0.18351808
0.18380522
0.1855384
0.19132358
0.20926973
0.26233539
0.41912658
0.90822903
2.9074965
13.854158
0.18722096
0.18722089
0.1872228
0.1872257
0.18722878
0.18723196
0.18723526
0.18723859
0.1872419
0.18724518
0.18724838
0.18725152
0.18725455
0.1872575
0.18726035
0.18726314
0.1872659
0.18726865
0.18727133
0.18727389
0.18727623
0.18727834
0.18728016
0.18728175
0.18728316
0.18728438
0.18728534
0.18728602
0.18728642
0.18728656
0.18728644
0.18728605
0.1872854
0.1872845
0.18728332
0.18728185
0.18728014
0.18727825
0.18727618
0.18727391
0.18727156
0.18726965
0.18726904
0.18726952
0.18726582
0.18724183
0.18716755
0.1870086
0.18676284
0.18653941
0.1866988
0.18813477
0.19312262
0.20906628
0.2572372
0.40248839
0.86325714
2.7561418
13.063541
0.19061103
0.19061132
0.1906137
0.19061659
0.19061973
0.19062297
0.1906263
0.19062966
0.19063299
0.19063627
0.19063947
0.19064259
0.19064561
0.19064853
0.19065137
0.19065415
0.19065691
0.19065966
0.19066236
0.1906649
0.19066723
0.19066931
0.19067113
0.19067272
0.19067413
0.19067535
0.19067629
0.19067696
0.19067736
0.1906775
0.19067738
0.190677
0.19067637
0.19067549
0.19067434
0.1906729
0.19067123
0.19066937
0.19066735
0.19066511
0.19066273
0.19066062
0.19065968
0.1906603
0.19065888
0.19064173
0.19058032
0.1904366
0.19019352
0.18992957
0.18995866
0.19109272
0.19531534
0.20930409
0.25253864
0.38609524
0.81836838
2.6057016
12.283372
0.19441149
0.19441229
0.19441496
0.19441787
0.19442105
0.19442433
0.19442768
0.19443105
0.19443437
0.19443764
0.19444081
0.1944439
0.19444688
0.19444977
0.19445257
0.19445533
0.19445808
0.19446082
0.1944635
0.19446602
0.19446832
0.19447037
0.19447217
0.19447374
0.19447514
0.19447634
0.19447727
0.19447792
0.19447831
0.19447846
0.19447835
0.19447798
0.19447736
0.1944765
0.19447539
0.194474
0.19447238
0.19447057
0.1944686
0.19446642
0.19446404
0.19446177
0.19446047
0.19446095
0.19446117
0.19445013
0.19440166
0.19427564
0.19404181
0.19374748
0.19365473
0.19449934
0.19803362
0.21013054
0.24859835
0.37053677
0.77432114
2.4573982
11.516803
0.19868866
0.19868996
0.19869275
0.19869571
0.1986989
0.1987022
0.19870556
0.19870891
0.1987122
0.19871541
0.19871853
0.19872156
0.19872448
0.1987273
0.19873004
0.19873275
0.19873546
0.19873818
0.19874083
0.1987433
0.19874554
0.19874755
0.1987493
0.19875085
0.19875223
0.1987534
0.1987543
0.19875492
0.19875531
0.19875546
0.19875536
0.198755
0.19875439
0.19875357
0.1987525
0.19875117
0.19874962
0.19874789
0.19874599
0.19874388
0.19874155
0.19873918
0.19873753
0.19873766
0.19873898
0.19873324
0.19869745
0.19859116
0.19837301
0.19805986
0.19785671
0.19841651
0.20146341
0.21160171
0.24547083
0.35590137
0.73130089
2.3118354
10.76683
0.20352341
0.20352512
0.20352793
0.20353091
0.2035341
0.20353739
0.20354072
0.20354401
0.20354722
0.20355035
0.20355338
0.2035563
0.20355911
0.20356182
0.20356447
0.2035671
0.20356975
0.20357242
0.20357499
0.20357738
0.20357954
0.20358147
0.20358317
0.20358468
0.20358601
0.20358713
0.20358798
0.20358857
0.20358894
0.20358909
0.203589
0.20358866
0.20358808
0.20358729
0.20358628
0.20358504
0.20358358
0.20358194
0.20358014
0.20357815
0.2035759
0.20357351
0.20357155
0.20357122
0.20357301
0.20357154
0.20354764
0.20346249
0.20326624
0.20294747
0.20265633
0.20295034
0.20533452
0.21383853
0.24329602
0.34240334
0.68961211
2.1697357
10.036287
0.20901554
0.20901743
0.20902021
0.20902318
0.20902634
0.20902957
0.20903281
0.20903599
0.20903907
0.20904206
0.20904493
0.20904768
0.20905033
0.20905288
0.20905538
0.20905788
0.20906043
0.20906299
0.20906545
0.20906771
0.20906974
0.20907157
0.20907317
0.2090746
0.20907587
0.20907691
0.20907769
0.20907824
0.20907859
0.20907874
0.20907866
0.20907834
0.2090778
0.20907706
0.20907612
0.20907498
0.20907365
0.20907216
0.2090705
0.20906865
0.20906655
0.20906423
0.20906206
0.20906122
0.20906291
0.20906455
0.20905123
0.20898772
0.20881914
0.20850777
0.20814558
0.20819843
0.20999511
0.21692181
0.24220772
0.33024625
0.64955931
2.0319131
9.3277952
0.21528929
0.21529124
0.21529397
0.21529688
0.21529994
0.21530306
0.21530615
0.21530914
0.21531201
0.21531477
0.21531741
0.21531992
0.21532231
0.21532463
0.21532691
0.21532921
0.21533158
0.21533398
0.21533625
0.21533831
0.21534016
0.21534183
0.2153433
0.21534461
0.21534576
0.21534668
0.21534737
0.21534785
0.21534818
0.21534832
0.21534827
0.21534798
0.21534749
0.21534682
0.21534598
0.21534498
0.21534382
0.21534253
0.21534108
0.21533942
0.21533753
0.2153354
0.2153332
0.21533187
0.21533302
0.21533655
0.21533196
0.21528941
0.21515311
0.21486397
0.21445446
0.21428316
0.21552084
0.22107893
0.24235596
0.31965199
0.61145577
1.8994013
8.6437245
0.2225018
0.22250367
0.22250629
0.22250907
0.22251197
0.22251489
0.22251771
0.22252041
0.22252296
0.22252538
0.22252766
0.2225298
0.22253184
0.2225338
0.22253575
0.22253775
0.22253986
0.22254198
0.22254396
0.22254572
0.22254732
0.22254875
0.22255001
0.22255115
0.22255212
0.22255287
0.22255342
0.22255383
0.2225541
0.22255424
0.22255421
0.22255397
0.22255355
0.22255299
0.22255229
0.22255148
0.22255057
0.22254955
0.22254839
0.222547
0.2225454
0.22254358
0.22254157
0.22253998
0.22254029
0.22254454
0.22254643
0.22252288
0.2224214
0.22216818
0.22174125
0.22138078
0.22208353
0.22684014
0.24390682
0.3108592
0.57560417
1.7736245
7.9861605
0.23085306
0.23085488
0.23085735
0.23085991
0.23086255
0.23086514
0.23086758
0.23086984
0.23087194
0.23087387
0.23087564
0.23087726
0.23087878
0.23088024
0.23088171
0.23088327
0.23088497
0.23088668
0.23088822
0.23088957
0.23089079
0.23089189
0.23089286
0.23089373
0.23089444
0.23089495
0.23089531
0.2308956
0.23089581
0.23089593
0.23089595
0.23089578
0.23089547
0.23089506
0.23089457
0.23089402
0.23089343
0.23089281
0.23089206
0.23089105
0.23088984
0.23088849
0.23088692
0.23088534
0.23088498
0.23088886
0.23089478
0.23088702
0.23082053
0.23061435
0.23020133
0.22971601
0.22994555
0.23338293
0.24711314
0.3041316
0.54225499
1.6566639
7.3568838
0.24059827
0.24060018
0.24060238
0.24060463
0.24060692
0.24060908
0.24061099
0.24061267
0.24061414
0.24061542
0.2406165
0.24061743
0.24061825
0.24061902
0.24061983
0.24062081
0.24062196
0.24062308
0.240624
0.24062477
0.24062549
0.24062615
0.24062673
0.24062722
0.24062757
0.24062773
0.24062783
0.24062798
0.24062811
0.24062819
0.24062829
0.24062823
0.24062807
0.24062788
0.24062767
0.24062747
0.24062733
0.24062727
0.24062711
0.24062662
0.24062589
0.24062515
0.24062437
0.24062324
0.24062254
0.24062536
0.24063294
0.24063663
0.24060246
0.24045145
0.24007911
0.23951004
0.23933995
0.24167189
0.25216339
0.2997707
0.51152655
1.5514493
6.7573352
0.25205099
0.25205299
0.25205486
0.25205682
0.25205876
0.25206044
0.25206176
0.25206281
0.25206361
0.25206416
0.25206448
0.25206464
0.25206468
0.25206468
0.25206474
0.25206504
0.25206556
0.25206598
0.25206616
0.25206626
0.25206642
0.25206659
0.25206672
0.25206677
0.25206665
0.2520664
0.25206623
0.25206622
0.25206628
0.25206638
0.25206656
0.25206667
0.25206672
0.25206685
0.25206701
0.25206725
0.25206768
0.25206833
0.25206895
0.2520691
0.25206891
0.25206888
0.25206923
0.25206908
0.25206855
0.25206998
0.25207723
0.25208737
0.25207952
0.2519868
0.25168466
0.25108852
0.25056023
0.2518741
0.25966238
0.29813391
0.48314802
1.4605263
6.1886052
17.032477
19.707979
22.773954
26.280376
30.281958
34.838231
40.013539
45.876916
52.50184
59.965808
68.349743
77.737194
88.213321
99.863684
112.77279
127.02245
142.68992
159.84601
178.55291
198.86212
220.81243
244.42799
269.7165
296.66773
325.25264
355.42246
387.10882
420.22326
454.66001
490.29549
526.99029
564.59454
602.94225
641.86249
681.18155
720.7216
760.30562
799.75726
838.90829
877.60192
915.69128
953.04206
989.53462
1025.0593
1059.5254
1092.8575
1124.9936
1155.8844
1185.4959
1213.8071
1240.807
1266.4969
1290.8867
1313.9946
1335.8451
1356.4695
1375.9046
1394.189
1411.3652
1427.4785
1442.5753
1456.7022
1469.9064
1482.2355
1493.7363
1504.4552
1514.4367
1523.7243
1532.3602
1540.3847
1547.8365
1554.7518
1561.1669
1567.1146
3.6942653
4.3520817
5.0484085
5.7990316
6.6245276
7.5434642
8.5721622
9.7255359
11.017858
12.463237
14.07583
15.869874
17.85955
20.058785
22.480943
25.138464
28.042482
31.202396
34.625298
38.315848
42.275177
46.501788
50.989346
55.729231
60.707876
65.910139
71.318055
76.909491
82.6605
88.532434
94.577327
100.72899
106.90404
113.15681
119.40196
125.65714
132.06867
138.54206
144.92491
151.20178
157.39381
163.5005
169.4799
175.21535
180.70887
186.09969
191.45652
196.71738
201.83412
206.77837
211.53479
216.09344
220.45809
224.62614
228.53719
232.20454
235.64786
238.88367
241.91544
244.74502
247.39994
249.88924
252.21955
254.398
256.43136
258.32776
260.09364
261.73746
263.26525
264.68557
266.00375
267.23012
268.36239
269.48339
1.1022482
1.2693151
1.46775
1.6962945
1.9560365
2.2491193
2.5784352
2.9474906
3.3602947
3.8212459
4.3350109
4.906406
5.540267
6.2413221
7.0140495
7.8625288
8.7902764
9.8000705
10.893738
12.072004
13.334228
14.678293
16.100369
17.595079
19.155133
20.772116
22.436536
24.137461
25.863985
27.601816
29.35246
31.105334
32.842138
34.562855
36.258202
37.925449
39.582729
41.23267
42.862217
44.463972
46.036951
47.582222
49.095939
50.56974
52.004341
53.407025
54.779971
56.120062
57.424596
58.690922
59.915982
61.097703
62.23569
63.299008
64.289073
65.214004
66.07812
66.888003
67.642972
68.359338
69.039253
69.683042
70.291207
70.86448
71.403774
71.910232
72.385044
72.829511
73.245001
73.632903
73.994682
74.332113
74.646041
74.944112
0.49353825
0.55875897
0.63738678
0.72977567
0.83698674
0.96021277
1.1007107
1.2598371
1.4390915
1.6401318
1.8647731
2.1149579
2.3927108
2.7000783
3.0390571
3.4115113
3.8190804
4.2630859
4.7444111
5.2634099
5.8197757
6.4124241
7.0393958
7.6978684
8.3839524
9.0930217
9.8198012
10.55809
11.301703
12.043194
12.778567
13.503705
14.211825
14.899787
15.563916
16.201767
16.816236
17.409301
17.980269
18.528897
19.055755
19.562139
20.048232
20.513888
20.961678
21.394026
21.810992
22.211849
22.596658
22.965878
23.319702
23.658763
23.982588
24.290684
24.583535
24.861535
25.124922
25.373794
25.608569
25.830014
26.038473
26.234368
26.418244
26.590678
26.752228
26.903446
27.044859
27.176983
27.300315
27.41534
27.522499
27.622376
27.714496
27.801618
0.28973025
0.3172876
0.35188629
0.39394378
0.44423095
0.50358368
0.57280976
0.65267041
0.74390054
0.8472399
0.96346393
1.0933989
1.2379226
1.3979515
1.5744087
1.7681861
1.9800899
2.2107852
2.4607267
2.7300939
3.0187279
3.3260332
3.650943
3.9918855
4.3466845
4.7127129
5.0869645
5.4658696
5.8458189
6.2227787
6.5936659
6.9557955
7.3059385
7.6422152
7.9627715
8.2663234
8.5534302
8.824588
9.079798
9.3194721
9.5443535
9.7554201
9.9532751
10.138706
10.313657
10.479626
10.637054
10.78599
10.926674
11.059494
11.18478
11.303002
11.41435
11.518929
11.617283
11.709921
11.797196
11.879316
11.956531
12.029139
12.09731
12.161186
12.220968
12.27688
12.32914
12.377961
12.423551
12.466109
12.505825
12.542874
12.577438
12.609682
12.63967
12.667959
0.21707267
0.22891603
0.24482056
0.26517368
0.29052153
0.32146304
0.3585993
0.40249757
0.45367121
0.51257989
0.57964186
0.65525121
0.73979292
0.8336521
0.93721143
1.0508406
1.1748718
1.3095713
1.4550971
1.6114632
1.7784912
1.955768
2.1425955
2.3379926
2.5406167
2.7488653
2.9609221
3.1746349
3.3878296
3.5981731
3.8038323
4.0031655
4.1943417
4.3763507
4.548286
4.7095949
4.8607026
5.0019817
5.1335251
5.2556561
5.3689051
5.4739263
5.571214
5.661174
5.7446895
5.8227086
5.8956786
5.9638062
6.0273514
6.0866278
6.1419079
6.1935016
6.2416049
6.2863609
6.328073
6.3670233
6.4034388
6.4374831
6.4693193
6.4991154
6.5269863
6.5530272
6.5773465
6.6000564
6.6212617
6.6410649
6.6595619
6.6768431
6.6929942
6.7080927
6.7222167
6.7354271
6.7477969
6.7593413
0.1901552
0.19445359
0.20131249
0.21101073
0.22391013
0.24041909
0.26097142
0.28600231
0.31592207
0.35109636
0.39183598
0.4383965
0.4909848
0.54976787
0.614881
0.68643023
0.7644879
0.84908204
0.94017674
1.0376519
1.1412781
1.2506816
1.3653326
1.484526
1.6073432
1.7327219
1.8594855
1.9862616
2.1116879
2.2343546
2.3531623
2.4671637
2.5753526
2.6772051
2.7723189
2.8605188
2.942173
3.0176557
3.0871895
3.1510945
3.2097842
3.2637211
3.3132774
3.3587598
3.4006832
3.4395914
3.4757698
3.5093663
3.540549
3.5695105
3.5964174
3.6214456
3.6447142
3.6663103
3.6863858
3.7050984
3.7225747
3.7389056
3.7541738
3.7684624
3.7818304
3.7943278
3.8060067
3.8169213
3.8271233
3.8366635
3.8455883
3.8539426
3.8617677
3.8691014
3.8759832
3.8824327
3.8885373
3.8940989
0.18030691
0.18079264
0.18291419
0.18690983
0.19303367
0.20156097
0.21278928
0.22703165
0.24460209
0.26579711
0.29087831
0.32005952
0.35350066
0.39130688
0.4335323
0.48018422
0.5312255
0.58657453
0.64609763
0.70960376
0.7768287
0.84742295
0.92093608
0.99681943
1.0743946
1.1529074
1.2315507
1.3094098
1.3856015
1.4592561
1.5297036
1.596405
1.658839
1.7167745
1.7700875
1.8187989
1.8632238
1.9036948
1.9404653
1.9738271
2.0041065
2.0316381
2.056697
2.0795117
2.1003947
2.1196619
2.1374936
2.1539917
2.16926
2.1834083
2.1965306
2.2087195
2.2200403
2.2305434
2.2403075
2.2494118
2.2579211
2.2658819
2.2733331
2.2803127
2.2868503
2.2929703
2.2986978
2.3040587
2.3090782
2.3137803
2.3181872
2.32232
2.3261983
2.3298396
2.3332649
2.3364731
2.339547
2.3422273
0.17697077
0.17558815
0.17524246
0.17610687
0.17838712
0.18228887
0.18802264
0.19580724
0.20586777
0.21842757
0.23369617
0.25185586
0.27305031
0.29737636
0.32488028
0.35555705
0.38935144
0.42615967
0.46582829
0.50815383
0.5528786
0.59968247
0.6481846
0.6979394
0.74842469
0.7990818
0.84933456
0.89855263
0.94614942
0.99158054
1.0344416
1.0744367
1.1113176
1.145021
1.1755673
1.2030688
1.2277958
1.2500281
1.269996
1.2879364
1.3040908
1.3186907
1.3319238
1.3439436
1.3549358
1.3650775
1.3744826
1.3832301
1.3913739
1.3989647
1.4060453
1.4126561
1.4188262
1.4245787
1.4299485
1.4349724
1.4396761
1.4440796
1.4482036
1.452068
1.4556889
1.4590793
1.462253
1.4652237
1.4680048
1.4706093
1.4730492
1.4753358
1.4774801
1.4794913
1.4813827
1.4831484
1.4848564
1.4862764
0.17602161
0.1738641
0.17215491
0.1714345
0.1715781
0.1727837
0.17522344
0.17906105
0.18445818
0.19157514
0.2005671
0.21157675
0.22472535
0.24010372
0.25776499
0.27771957
0.29993242
0.32432247
0.35076138
0.37907544
0.40904301
0.44039633
0.47281771
0.50595864
0.53937832
0.57277008
0.60556849
0.63736081
0.6677698
0.69645741
0.72318404
0.74779805
0.77020124
0.79041697
0.80853078
0.82468429
0.83910356
0.85201366
0.8636011
0.87404241
0.88350368
0.89213615
0.90004728
0.90736336
0.91418863
0.92061111
0.92666615
0.93235341
0.93769073
0.9427024
0.94740947
0.95183148
0.95598234
0.9598736
0.96352334
0.96695125
0.97017299
0.97320038
0.97604402
0.9787139
0.98121871
0.98356622
0.98576459
0.98782228
0.98974769
0.99154907
0.99323435
0.994811
0.99628647
0.99766689
0.99896167
1.0001648
1.001331
1.0022693
0.175938
0.17343995
0.17133393
0.1696861
0.16863961
0.16830374
0.16879162
0.1702227
0.17271584
0.17638681
0.1813469
0.18770018
0.19553916
0.20493905
0.21595157
0.22859915
0.24287032
0.25871652
0.27604966
0.29474192
0.31462527
0.3354908
0.35709365
0.37915627
0.40137352
0.42336884
0.44494336
0.46572344
0.48542745
0.5038362
0.5208123
0.5362911
0.5502569
0.56277512
0.57395414
0.5839343
0.59289849
0.60102084
0.6084408
0.61528171
0.62164159
0.62763923
0.63334398
0.63875881
0.64391796
0.64886036
0.65360143
0.65814073
0.66247775
0.66661488
0.6705541
0.67429791
0.6778478
0.68120583
0.68437865
0.68737495
0.69020215
0.69286645
0.69537387
0.69773073
0.69994309
0.70201699
0.70395874
0.70577501
0.70747256
0.7090581
0.71053818
0.71191919
0.71320744
0.71440834
0.71552992
0.71656807
0.71756645
0.71837567
0.17612368
0.1735013
0.1712002
0.16920485
0.16758424
0.16640122
0.16578092
0.1657816
0.16649435
0.16800496
0.17039393
0.17373555
0.17809623
0.18353189
0.19008446
0.19777783
0.20661368
0.21656794
0.22758716
0.23958731
0.25245162
0.26603109
0.28014762
0.2945894
0.30915381
0.32353943
0.33757993
0.35105456
0.36376766
0.37557552
0.38640018
0.39622446
0.40507392
0.41302955
0.42020095
0.42671364
0.43271142
0.43832454
0.44364825
0.44876976
0.45376615
0.45864489
0.46341913
0.46809319
0.47267399
0.47716614
0.48155997
0.48583721
0.48998151
0.49398084
0.49782553
0.50150817
0.50502298
0.50836657
0.51153942
0.51454459
0.51738559
0.52006615
0.52259047
0.52496341
0.52719021
0.52927638
0.53122793
0.53305117
0.5347526
0.53633879
0.53781624
0.53919134
0.54047039
0.54165904
0.54276472
0.54378614
0.54475664
0.54556574
0.17633218
0.17370036
0.17133137
0.16921375
0.16735705
0.1657928
0.16457395
0.16376438
0.16342594
0.16361972
0.16440379
0.16583155
0.16795022
0.17079948
0.17440991
0.17880077
0.18397747
0.18992882
0.19662409
0.20401079
0.21201322
0.22053001
0.22943924
0.23859175
0.2478406
0.25699595
0.26590717
0.27443041
0.28244596
0.28987197
0.29667475
0.30286777
0.30849859
0.31365196
0.31843003
0.32293956
0.32729216
0.33157612
0.33587327
0.34021682
0.34461482
0.34906906
0.35356775
0.35808925
0.36261316
0.36711907
0.37157963
0.37596417
0.38024573
0.3844029
0.38841845
0.39227902
0.39597461
0.39949869
0.40284857
0.40602439
0.40902782
0.41186152
0.41452915
0.41703531
0.41938531
0.42158503
0.42364081
0.42555936
0.42734757
0.42901238
0.43056073
0.43199938
0.43333504
0.43457383
0.4357231
0.43678377
0.43778206
0.43863841
0.17647766
0.17388733
0.17152591
0.16938306
0.16745072
0.16573366
0.16424775
0.16302698
0.16211228
0.1615455
0.16137025
0.16162241
0.1623362
0.16354036
0.16525681
0.16749967
0.17027395
0.17357403
0.17738156
0.18166395
0.18637251
0.19144131
0.19678833
0.20231469
0.20791602
0.21347599
0.21888629
0.22405195
0.22890523
0.23340804
0.23755982
0.24139662
0.2449802
0.24839591
0.25173701
0.25509455
0.2585482
0.26217927
0.26601134
0.27004875
0.27428271
0.27869067
0.28323784
0.28788264
0.29258503
0.29730698
0.30200865
0.30665075
0.31119914
0.31562622
0.31991002
0.32403354
0.32798431
0.33175406
0.33533844
0.33873622
0.34194828
0.34497709
0.34782647
0.35050132
0.35300746
0.35535135
0.35753991
0.35958043
0.36148036
0.36324723
0.36488847
0.36641144
0.36782332
0.36913084
0.37034148
0.37145816
0.37250122
0.37341753
0.17655293
0.17401237
0.1716917
0.16957092
0.16763594
0.16587916
0.16429883
0.16290382
0.1617115
0.16075239
0.16001651
0.15960279
0.15948611
0.15968961
0.16023209
0.16112512
0.16237343
0.16397421
0.16591619
0.16817839
0.17072958
0.17352606
0.17651422
0.17962927
0.18280162
0.18595808
0.18903239
0.19196785
0.19473445
0.1973258
0.19976563
0.20210627
0.20441902
0.20678862
0.20930183
0.21203205
0.21505565
0.21840515
0.22208853
0.22609357
0.23039114
0.23493889