/*--------------------------------*- C++ -*----------------------------------*\
| =========                 |                                                 |
| \\      /  F ield         | OpenFOAM: The Open Source CFD Toolbox           |
|  \\    /   O peration     | Version:  v2006                                 |
|   \\  /    A nd           | Website:  www.openfoam.com                      |
|    \\/     M anipulation  |                                                 |
\*---------------------------------------------------------------------------*/
FoamFile
{
    version     2.0;
    format      ascii;
    class       volScalarField;
    location    "7000";
    object      p;
}
// * * * * * * * * * * * * * * * * * * * * * * * * * * * * * * * * * * * * * //

dimensions      [1 -1 -2 0 0 0 0];


internalField   nonuniform List<scalar> 
55713
(
1.0000299
1.0000299
1.0000299
1.00003
1.00003
1.00003
1.00003
1.00003
1.00003
1.00003
1.00003
1.00003
1.00003
1.00003
1.00003
1.00003
1.00003
1.00003
1.00003
1.00003
1.00003
1.00003
1.00003
1.00003
1.00003
1.00003
1.00003
1.00003
1.00003
1.0000299
1.0000299
1.0000299
1.0000299
1.0000299
1.0000299
1.0000299
1.0000299
1.0000299
1.0000299
1.0000299
1.0000299
1.0000299
1.0000299
1.0000299
1.0000299
1.0000299
1.0000299
1.0000299
1.0000299
1.0000299
1.0000299
1.0000299
1.0000299
1.0000299
1.0000299
1.0000299
1.0000299
1.0000299
1.0000299
1.000028
1.000028
1.000028
1.000028
1.000028
1.000028
1.000028
1.000028
1.000028
1.000028
1.000028
1.000028
1.000028
1.000028
1.000028
1.000028
1.000028
1.000028
1.000028
1.000028
1.000028
1.000028
1.000028
1.000028
1.000028
1.000028
1.000028
1.000028
1.000028
1.000028
1.000028
1.000028
1.000028
1.000028
1.000028
1.000028
1.000028
1.000028
1.000028
1.000028
1.000028
1.000028
1.000028
1.000028
1.000028
1.000028
1.000028
1.000028
1.000028
1.000028
1.000028
1.000028
1.000028
1.000028
1.000028
1.000028
1.000028
1.000028
1.000028
1.0000263
1.0000263
1.0000263
1.0000263
1.0000263
1.0000263
1.0000263
1.0000263
1.0000263
1.0000263
1.0000264
1.0000264
1.0000264
1.0000264
1.0000264
1.0000264
1.0000264
1.0000264
1.0000264
1.0000264
1.0000264
1.0000264
1.0000264
1.0000264
1.0000264
1.0000264
1.0000264
1.0000264
1.0000264
1.0000264
1.0000264
1.0000264
1.0000264
1.0000264
1.0000264
1.0000264
1.0000264
1.0000264
1.0000264
1.0000264
1.0000264
1.0000264
1.0000264
1.0000264
1.0000264
1.0000264
1.0000264
1.0000264
1.0000264
1.0000264
1.0000264
1.0000264
1.0000264
1.0000264
1.0000264
1.0000264
1.0000264
1.0000264
1.0000264
1.0000249
1.0000249
1.0000249
1.0000249
1.0000249
1.0000249
1.0000249
1.0000249
1.0000249
1.0000249
1.0000249
1.0000249
1.0000249
1.0000249
1.0000249
1.0000249
1.0000249
1.0000249
1.0000249
1.0000249
1.0000249
1.0000249
1.0000249
1.0000249
1.0000249
1.0000249
1.0000249
1.0000249
1.0000249
1.0000249
1.0000249
1.0000249
1.0000249
1.0000249
1.0000249
1.0000249
1.0000249
1.0000249
1.0000249
1.0000249
1.0000249
1.0000249
1.0000249
1.0000249
1.0000249
1.0000249
1.0000249
1.0000249
1.0000249
1.0000249
1.0000249
1.0000249
1.0000249
1.0000249
1.0000249
1.0000249
1.0000249
1.0000249
1.000025
1.0000236
1.0000236
1.0000236
1.0000236
1.0000236
1.0000236
1.0000236
1.0000236
1.0000236
1.0000236
1.0000236
1.0000236
1.0000236
1.0000236
1.0000236
1.0000236
1.0000236
1.0000236
1.0000236
1.0000236
1.0000237
1.0000237
1.0000237
1.0000237
1.0000237
1.0000237
1.0000237
1.0000237
1.0000237
1.0000237
1.0000237
1.0000237
1.0000237
1.0000237
1.0000237
1.0000237
1.0000237
1.0000237
1.0000237
1.0000237
1.0000237
1.0000237
1.0000237
1.0000237
1.0000237
1.0000237
1.0000237
1.0000237
1.0000237
1.0000237
1.0000237
1.0000237
1.0000237
1.0000237
1.0000237
1.0000237
1.0000237
1.0000237
1.0000237
1.0000225
1.0000225
1.0000225
1.0000225
1.0000225
1.0000225
1.0000226
1.0000226
1.0000226
1.0000226
1.0000226
1.0000226
1.0000226
1.0000226
1.0000226
1.0000226
1.0000226
1.0000226
1.0000226
1.0000226
1.0000226
1.0000226
1.0000226
1.0000226
1.0000226
1.0000226
1.0000226
1.0000226
1.0000226
1.0000226
1.0000226
1.0000226
1.0000226
1.0000226
1.0000226
1.0000226
1.0000226
1.0000226
1.0000226
1.0000226
1.0000226
1.0000226
1.0000226
1.0000226
1.0000226
1.0000226
1.0000226
1.0000226
1.0000226
1.0000226
1.0000226
1.0000226
1.0000226
1.0000226
1.0000226
1.0000226
1.0000226
1.0000226
1.0000226
1.0000216
1.0000216
1.0000216
1.0000216
1.0000216
1.0000216
1.0000216
1.0000216
1.0000216
1.0000216
1.0000216
1.0000216
1.0000216
1.0000216
1.0000216
1.0000216
1.0000216
1.0000216
1.0000216
1.0000216
1.0000216
1.0000216
1.0000216
1.0000216
1.0000216
1.0000216
1.0000216
1.0000216
1.0000216
1.0000216
1.0000216
1.0000216
1.0000216
1.0000216
1.0000216
1.0000216
1.0000216
1.0000216
1.0000216
1.0000216
1.0000216
1.0000216
1.0000216
1.0000216
1.0000216
1.0000216
1.0000216
1.0000216
1.0000216
1.0000216
1.0000216
1.0000216
1.0000216
1.0000216
1.0000216
1.0000216
1.0000216
1.0000216
1.0000216
1.0000207
1.0000207
1.0000207
1.0000207
1.0000207
1.0000207
1.0000207
1.0000207
1.0000207
1.0000207
1.0000207
1.0000207
1.0000207
1.0000207
1.0000207
1.0000207
1.0000207
1.0000207
1.0000207
1.0000207
1.0000207
1.0000207
1.0000207
1.0000207
1.0000207
1.0000207
1.0000207
1.0000207
1.0000207
1.0000207
1.0000207
1.0000207
1.0000207
1.0000207
1.0000207
1.0000207
1.0000207
1.0000207
1.0000207
1.0000207
1.0000207
1.0000207
1.0000207
1.0000207
1.0000207
1.0000207
1.0000207
1.0000207
1.0000207
1.0000207
1.0000207
1.0000207
1.0000207
1.0000207
1.0000207
1.0000207
1.0000207
1.0000207
1.0000207
1.0000203
1.0000203
1.0000203
1.0000203
1.0000203
1.0000203
1.0000203
1.0000203
1.0000203
1.0000203
1.0000203
1.0000203
1.0000203
1.0000203
1.0000203
1.0000203
1.0000203
1.0000203
1.0000203
1.0000203
1.0000203
1.0000203
1.0000203
1.0000203
1.0000203
1.0000203
1.0000203
1.0000203
1.0000203
1.0000203
1.0000203
1.0000203
1.0000203
1.0000203
1.0000203
1.0000203
1.0000203
1.0000203
1.0000203
1.0000203
1.0000203
1.0000203
1.0000203
1.0000203
1.0000203
1.0000203
1.0000203
1.0000203
1.0000203
1.0000203
1.0000203
1.0000203
1.0000203
1.0000203
1.0000203
1.0000203
1.0000203
1.0000203
1.0000203
1.0000199
1.0000199
1.0000199
1.0000199
1.0000199
1.0000199
1.0000199
1.0000199
1.0000199
1.0000199
1.0000199
1.0000199
1.0000199
1.0000199
1.0000199
1.0000199
1.0000199
1.0000199
1.0000199
1.0000199
1.0000199
1.0000199
1.0000199
1.0000199
1.0000199
1.0000199
1.0000199
1.0000199
1.0000199
1.0000199
1.0000199
1.0000199
1.0000199
1.0000199
1.0000199
1.0000199
1.0000199
1.0000199
1.0000199
1.0000199
1.0000199
1.0000199
1.0000199
1.0000199
1.0000199
1.00002
1.00002
1.00002
1.00002
1.00002
1.00002
1.00002
1.00002
1.00002
1.00002
1.00002
1.00002
1.00002
1.00002
1.0000181
1.0000181
1.0000181
1.0000181
1.0000181
1.0000181
1.0000181
1.0000181
1.0000181
1.0000181
1.0000181
1.0000181
1.0000181
1.0000181
1.0000181
1.0000181
1.0000181
1.0000181
1.0000181
1.0000181
1.0000181
1.0000181
1.0000181
1.0000181
1.0000181
1.0000181
1.0000181
1.0000181
1.0000181
1.0000181
1.0000181
1.0000181
1.0000181
1.0000181
1.0000181
1.0000181
1.0000181
1.0000181
1.0000181
1.0000181
1.0000181
1.0000181
1.0000181
1.0000181
1.0000181
1.0000181
1.0000181
1.0000181
1.0000181
1.0000181
1.0000181
1.0000181
1.0000181
1.0000181
1.0000181
1.0000181
1.0000181
1.0000181
1.0000181
1.000018
1.000018
1.000018
1.000018
1.000018
1.0000179
1.0000179
1.0000179
1.0000179
1.0000179
1.0000179
1.0000179
1.0000179
1.0000179
1.0000179
1.0000179
1.0000179
1.0000179
1.0000179
1.0000179
1.0000179
1.0000179
1.0000179
1.0000179
1.0000179
1.0000179
1.0000178
1.0000178
1.0000178
1.0000178
1.0000178
1.0000178
1.0000178
1.0000178
1.0000178
1.0000178
1.0000178
1.0000178
1.0000178
1.0000178
1.0000178
1.0000178
1.0000178
1.0000178
1.0000178
1.0000178
1.0000178
1.0000178
1.0000178
1.0000178
1.0000178
1.0000178
1.0000178
1.0000178
1.0000178
1.0000178
1.0000177
1.0000177
1.0000177
1.0000272
1.0000272
1.0000271
1.0000271
1.0000271
1.0000271
1.0000271
1.0000271
1.0000271
1.0000271
1.0000271
1.0000271
1.0000271
1.0000271
1.0000271
1.0000271
1.0000271
1.0000271
1.0000271
1.0000271
1.0000271
1.0000271
1.0000271
1.0000271
1.0000271
1.0000271
1.0000271
1.0000271
1.0000271
1.0000271
1.0000271
1.0000271
1.0000271
1.0000271
1.0000271
1.0000271
1.0000271
1.0000271
1.0000271
1.0000271
1.0000271
1.0000271
1.0000271
1.0000271
1.0000271
1.0000271
1.0000271
1.0000271
1.0000271
1.0000271
1.0000271
1.0000271
1.0000271
1.0000271
1.0000271
1.0000271
1.0000271
1.0000271
1.0000271
1.0000172
1.0000173
1.0000173
1.0000173
1.0000173
1.0000173
1.0000173
1.0000173
1.0000173
1.0000173
1.0000173
1.0000173
1.0000173
1.0000173
1.0000173
1.0000173
1.0000173
1.0000173
1.0000173
1.0000173
1.0000173
1.0000173
1.0000173
1.0000173
1.0000173
1.0000173
1.0000173
1.0000173
1.0000173
1.0000173
1.0000173
1.0000173
1.0000173
1.0000173
1.0000173
1.0000173
1.0000173
1.0000173
1.0000173
1.0000173
1.0000173
1.0000173
1.0000173
1.0000173
1.0000173
1.0000173
1.0000173
1.0000173
1.0000173
1.0000173
1.0000173
1.0000173
1.0000173
1.0000173
1.0000173
1.0000173
1.0000173
1.0000173
1.0000173
1.0001118
1.0001118
1.0001118
1.0001119
1.0001119
1.0001119
1.000112
1.000112
1.000112
1.0001121
1.0001121
1.0001121
1.0001122
1.0001122
1.0001122
1.0001122
1.0001123
1.0001123
1.0001123
1.0001124
1.0001124
1.0001124
1.0001124
1.0001125
1.0001125
1.0001125
1.0001125
1.0001126
1.0001126
1.0001126
1.0001126
1.0001126
1.0001126
1.0001127
1.0001127
1.0001127
1.0001127
1.0001127
1.0001127
1.0001127
1.0001128
1.0001128
1.0001128
1.0001128
1.0001128
1.0001128
1.0001128
1.0001128
1.0001128
1.0001128
1.0001128
1.0001128
1.0001128
1.0001129
1.0001129
1.0001129
1.0001129
1.0001129
1.0001129
1.0001025
1.0001026
1.0001026
1.0001026
1.0001026
1.0001027
1.0001027
1.0001027
1.0001028
1.0001028
1.0001028
1.0001028
1.0001029
1.0001029
1.0001029
1.0001029
1.000103
1.000103
1.000103
1.000103
1.000103
1.0001031
1.0001031
1.0001031
1.0001031
1.0001031
1.0001032
1.0001032
1.0001032
1.0001032
1.0001032
1.0001032
1.0001033
1.0001033
1.0001033
1.0001033
1.0001033
1.0001033
1.0001033
1.0001033
1.0001033
1.0001034
1.0001034
1.0001034
1.0001034
1.0001034
1.0001034
1.0001034
1.0001034
1.0001034
1.0001034
1.0001034
1.0001034
1.0001034
1.0001034
1.0001034
1.0001034
1.0001034
1.0001034
1.0000939
1.0000939
1.0000939
1.000094
1.000094
1.000094
1.000094
1.0000941
1.0000941
1.0000941
1.0000941
1.0000942
1.0000942
1.0000942
1.0000942
1.0000942
1.0000943
1.0000943
1.0000943
1.0000943
1.0000943
1.0000943
1.0000944
1.0000944
1.0000944
1.0000944
1.0000944
1.0000944
1.0000944
1.0000945
1.0000945
1.0000945
1.0000945
1.0000945
1.0000945
1.0000945
1.0000945
1.0000945
1.0000946
1.0000946
1.0000946
1.0000946
1.0000946
1.0000946
1.0000946
1.0000946
1.0000946
1.0000946
1.0000946
1.0000946
1.0000946
1.0000946
1.0000946
1.0000946
1.0000946
1.0000946
1.0000946
1.0000946
1.0000946
1.0000858
1.0000858
1.0000859
1.0000859
1.0000859
1.0000859
1.0000859
1.000086
1.000086
1.000086
1.000086
1.000086
1.000086
1.0000861
1.0000861
1.0000861
1.0000861
1.0000861
1.0000861
1.0000862
1.0000862
1.0000862
1.0000862
1.0000862
1.0000862
1.0000862
1.0000862
1.0000863
1.0000863
1.0000863
1.0000863
1.0000863
1.0000863
1.0000863
1.0000863
1.0000863
1.0000863
1.0000863
1.0000864
1.0000864
1.0000864
1.0000864
1.0000864
1.0000864
1.0000864
1.0000864
1.0000864
1.0000864
1.0000864
1.0000864
1.0000864
1.0000864
1.0000864
1.0000864
1.0000864
1.0000864
1.0000864
1.0000864
1.0000864
1.0000783
1.0000783
1.0000783
1.0000784
1.0000784
1.0000784
1.0000784
1.0000784
1.0000784
1.0000784
1.0000785
1.0000785
1.0000785
1.0000785
1.0000785
1.0000785
1.0000785
1.0000785
1.0000786
1.0000786
1.0000786
1.0000786
1.0000786
1.0000786
1.0000786
1.0000786
1.0000786
1.0000787
1.0000787
1.0000787
1.0000787
1.0000787
1.0000787
1.0000787
1.0000787
1.0000787
1.0000787
1.0000787
1.0000787
1.0000787
1.0000787
1.0000787
1.0000788
1.0000788
1.0000788
1.0000788
1.0000788
1.0000788
1.0000788
1.0000788
1.0000788
1.0000788
1.0000788
1.0000788
1.0000788
1.0000788
1.0000788
1.0000788
1.0000788
1.0000713
1.0000713
1.0000713
1.0000714
1.0000714
1.0000714
1.0000714
1.0000714
1.0000714
1.0000714
1.0000714
1.0000714
1.0000715
1.0000715
1.0000715
1.0000715
1.0000715
1.0000715
1.0000715
1.0000715
1.0000715
1.0000715
1.0000716
1.0000716
1.0000716
1.0000716
1.0000716
1.0000716
1.0000716
1.0000716
1.0000716
1.0000716
1.0000716
1.0000716
1.0000716
1.0000716
1.0000716
1.0000717
1.0000717
1.0000717
1.0000717
1.0000717
1.0000717
1.0000717
1.0000717
1.0000717
1.0000717
1.0000717
1.0000717
1.0000717
1.0000717
1.0000717
1.0000717
1.0000717
1.0000717
1.0000717
1.0000717
1.0000717
1.0000717
1.0000648
1.0000649
1.0000649
1.0000649
1.0000649
1.0000649
1.0000649
1.0000649
1.0000649
1.0000649
1.0000649
1.000065
1.000065
1.000065
1.000065
1.000065
1.000065
1.000065
1.000065
1.000065
1.000065
1.000065
1.000065
1.000065
1.0000651
1.0000651
1.0000651
1.0000651
1.0000651
1.0000651
1.0000651
1.0000651
1.0000651
1.0000651
1.0000651
1.0000651
1.0000651
1.0000651
1.0000651
1.0000651
1.0000651
1.0000651
1.0000651
1.0000651
1.0000651
1.0000651
1.0000651
1.0000651
1.0000651
1.0000652
1.0000652
1.0000652
1.0000652
1.0000652
1.0000652
1.0000652
1.0000652
1.0000652
1.0000652
1.0000589
1.0000589
1.0000589
1.0000589
1.0000589
1.0000589
1.0000589
1.0000589
1.0000589
1.0000589
1.000059
1.000059
1.000059
1.000059
1.000059
1.000059
1.000059
1.000059
1.000059
1.000059
1.000059
1.000059
1.000059
1.000059
1.000059
1.000059
1.000059
1.0000591
1.0000591
1.0000591
1.0000591
1.0000591
1.0000591
1.0000591
1.0000591
1.0000591
1.0000591
1.0000591
1.0000591
1.0000591
1.0000591
1.0000591
1.0000591
1.0000591
1.0000591
1.0000591
1.0000591
1.0000591
1.0000591
1.0000591
1.0000591
1.0000591
1.0000591
1.0000591
1.0000591
1.0000591
1.0000591
1.0000591
1.0000591
1.0000534
1.0000534
1.0000534
1.0000534
1.0000534
1.0000534
1.0000534
1.0000534
1.0000534
1.0000534
1.0000534
1.0000535
1.0000535
1.0000535
1.0000535
1.0000535
1.0000535
1.0000535
1.0000535
1.0000535
1.0000535
1.0000535
1.0000535
1.0000535
1.0000535
1.0000535
1.0000535
1.0000535
1.0000535
1.0000535
1.0000535
1.0000535
1.0000535
1.0000535
1.0000535
1.0000535
1.0000536
1.0000536
1.0000536
1.0000536
1.0000536
1.0000536
1.0000536
1.0000536
1.0000536
1.0000536
1.0000536
1.0000536
1.0000536
1.0000536
1.0000536
1.0000536
1.0000536
1.0000536
1.0000536
1.0000536
1.0000536
1.0000536
1.0000536
1.0000483
1.0000484
1.0000484
1.0000484
1.0000484
1.0000484
1.0000484
1.0000484
1.0000484
1.0000484
1.0000484
1.0000484
1.0000484
1.0000484
1.0000484
1.0000484
1.0000484
1.0000484
1.0000484
1.0000484
1.0000484
1.0000484
1.0000484
1.0000485
1.0000485
1.0000485
1.0000485
1.0000485
1.0000485
1.0000485
1.0000485
1.0000485
1.0000485
1.0000485
1.0000485
1.0000485
1.0000485
1.0000485
1.0000485
1.0000485
1.0000485
1.0000485
1.0000485
1.0000485
1.0000485
1.0000485
1.0000485
1.0000485
1.0000485
1.0000485
1.0000485
1.0000485
1.0000485
1.0000485
1.0000485
1.0000485
1.0000485
1.0000485
1.0000485
1.0000438
1.0000438
1.0000438
1.0000438
1.0000438
1.0000438
1.0000438
1.0000438
1.0000438
1.0000438
1.0000438
1.0000438
1.0000438
1.0000438
1.0000438
1.0000438
1.0000438
1.0000438
1.0000438
1.0000438
1.0000438
1.0000438
1.0000438
1.0000438
1.0000438
1.0000438
1.0000438
1.0000438
1.0000438
1.0000439
1.0000439
1.0000439
1.0000439
1.0000439
1.0000439
1.0000439
1.0000439
1.0000439
1.0000439
1.0000439
1.0000439
1.0000439
1.0000439
1.0000439
1.0000439
1.0000439
1.0000439
1.0000439
1.0000439
1.0000439
1.0000439
1.0000439
1.0000439
1.0000439
1.0000439
1.0000439
1.0000439
1.0000439
1.0000439
1.0000396
1.0000396
1.0000396
1.0000396
1.0000396
1.0000396
1.0000396
1.0000396
1.0000396
1.0000396
1.0000396
1.0000396
1.0000396
1.0000396
1.0000396
1.0000396
1.0000396
1.0000396
1.0000396
1.0000396
1.0000396
1.0000396
1.0000396
1.0000396
1.0000396
1.0000396
1.0000396
1.0000396
1.0000396
1.0000396
1.0000396
1.0000396
1.0000396
1.0000396
1.0000396
1.0000397
1.0000397
1.0000397
1.0000397
1.0000397
1.0000397
1.0000397
1.0000397
1.0000397
1.0000397
1.0000397
1.0000397
1.0000397
1.0000397
1.0000397
1.0000397
1.0000397
1.0000397
1.0000397
1.0000397
1.0000397
1.0000397
1.0000397
1.0000397
1.0000358
1.0000358
1.0000358
1.0000358
1.0000358
1.0000358
1.0000358
1.0000358
1.0000358
1.0000358
1.0000358
1.0000358
1.0000358
1.0000358
1.0000358
1.0000358
1.0000358
1.0000358
1.0000358
1.0000358
1.0000358
1.0000358
1.0000358
1.0000358
1.0000358
1.0000358
1.0000358
1.0000358
1.0000358
1.0000358
1.0000358
1.0000358
1.0000358
1.0000358
1.0000358
1.0000358
1.0000358
1.0000358
1.0000358
1.0000358
1.0000358
1.0000358
1.0000358
1.0000358
1.0000358
1.0000358
1.0000358
1.0000358
1.0000358
1.0000358
1.0000358
1.0000359
1.0000359
1.0000359
1.0000359
1.0000359
1.0000359
1.0000359
1.0000359
1.0000324
1.0000324
1.0000325
1.0000325
1.0000325
1.0000325
1.0000325
1.0000325
1.0000325
1.0000325
1.0000325
1.0000325
1.0000325
1.0000325
1.0000325
1.0000325
1.0000325
1.0000325
1.0000325
1.0000325
1.0000325
1.0000325
1.0000325
1.0000325
1.0000325
1.0000325
1.0000325
1.0000325
1.0000325
1.0000325
1.0000325
1.0000325
1.0000325
1.0000325
1.0000325
1.0000325
1.0000325
1.0000325
1.0000325
1.0000325
1.0000325
1.0000325
1.0000325
1.0000325
1.0000325
1.0000325
1.0000325
1.0000325
1.0000325
1.0000325
1.0000325
1.0000325
1.0000325
1.0000325
1.0000325
1.0000325
1.0000325
1.0000325
1.0000325
1.000124
1.0001376
1.0001527
1.0001693
1.0001873
1.0002069
1.0002282
1.0002512
1.0002761
1.0003027
1.0003313
1.0003617
1.0003939
1.0004278
1.0004633
1.0005
1.0005377
1.0005759
1.0006141
1.0006515
1.0006874
1.000721
1.0007509
1.0007762
1.0007957
1.0008079
1.0008118
1.0008064
1.0007906
1.0007636
1.0007254
1.0006755
1.0006141
1.0005423
1.0004604
1.0003699
1.0002721
1.0001677
1.0000583
0.99994573
0.99983116
0.99971571
0.99960045
0.99948668
0.99937539
0.99926642
0.99916008
0.9990575
0.99895917
0.99886511
0.99877538
0.99869012
0.99860915
0.9985329
0.99846143
0.99839393
0.99833036
0.9982707
0.99821491
0.99816257
0.99811345
0.99806773
0.99802521
0.99798561
0.99794876
0.99791452
0.9978827
0.99785316
0.99782575
0.99780031
0.99777675
0.9977549
0.99773473
0.99771601
1.000124
1.0001376
1.0001527
1.0001693
1.0001873
1.0002069
1.0002282
1.0002512
1.0002761
1.0003027
1.0003313
1.0003617
1.0003939
1.0004278
1.0004633
1.0005
1.0005377
1.0005759
1.0006141
1.0006515
1.0006875
1.000721
1.0007509
1.0007762
1.0007957
1.0008079
1.0008118
1.0008064
1.0007906
1.0007636
1.0007254
1.0006755
1.0006141
1.0005423
1.0004604
1.0003699
1.0002721
1.0001677
1.0000583
0.99994573
0.99983116
0.9997157
0.99960042
0.99948663
0.99937535
0.99926642
0.99916008
0.99905749
0.99895915
0.99886508
0.99877535
0.99869008
0.99860911
0.99853287
0.99846142
0.99839392
0.99833033
0.99827067
0.99821487
0.99816251
0.99811336
0.99806765
0.99802513
0.99798554
0.9979487
0.99791445
0.99788264
0.9978531
0.99782569
0.99780026
0.99777669
0.99775482
0.99773464
0.99771593
1.000124
1.0001376
1.0001527
1.0001693
1.0001873
1.0002069
1.0002282
1.0002512
1.0002761
1.0003027
1.0003313
1.0003617
1.0003939
1.0004278
1.0004633
1.0005
1.0005377
1.0005759
1.0006141
1.0006515
1.0006875
1.000721
1.0007509
1.0007762
1.0007957
1.0008079
1.0008118
1.0008064
1.0007906
1.0007636
1.0007254
1.0006755
1.0006142
1.0005423
1.0004604
1.00037
1.0002721
1.0001677
1.0000583
0.99994576
0.99983119
0.99971573
0.99960047
0.99948668
0.99937533
0.99926636
0.99916006
0.9990575
0.99895917
0.9988651
0.99877538
0.99869012
0.99860909
0.99853281
0.99846139
0.99839391
0.99833035
0.99827068
0.99821496
0.99816265
0.99811345
0.99806772
0.99802519
0.99798559
0.99794874
0.99791448
0.99788267
0.99785312
0.99782571
0.99780028
0.99777671
0.99775484
0.99773474
0.99771608
1.000124
1.0001376
1.0001527
1.0001693
1.0001873
1.0002069
1.0002282
1.0002512
1.0002761
1.0003027
1.0003313
1.0003617
1.0003939
1.0004278
1.0004633
1.0005
1.0005377
1.0005759
1.0006141
1.0006515
1.0006875
1.000721
1.0007509
1.0007762
1.0007957
1.0008079
1.0008118
1.0008065
1.0007906
1.0007637
1.0007254
1.0006756
1.0006142
1.0005424
1.0004605
1.00037
1.0002722
1.0001678
1.0000584
0.99994586
0.99983128
0.99971583
0.99960058
0.99948677
0.99937536
0.99926638
0.99916013
0.99905759
0.99895925
0.99886517
0.99877544
0.99869017
0.99860922
0.99853298
0.99846145
0.99839389
0.99833031
0.99827063
0.99821483
0.99816246
0.99811336
0.99806768
0.99802516
0.99798557
0.99794874
0.99791451
0.9978827
0.99785316
0.99782575
0.99780028
0.9977767
0.99775461
0.99773446
0.99771622
1.000124
1.0001376
1.0001527
1.0001693
1.0001873
1.0002069
1.0002282
1.0002512
1.000276
1.0003027
1.0003313
1.0003617
1.0003939
1.0004278
1.0004633
1.0005
1.0005377
1.0005759
1.0006141
1.0006515
1.0006875
1.000721
1.0007509
1.0007763
1.0007957
1.0008079
1.0008118
1.0008065
1.0007907
1.0007638
1.0007255
1.0006757
1.0006144
1.0005425
1.0004607
1.0003702
1.0002723
1.0001679
1.0000586
0.99994602
0.99983144
0.99971599
0.99960076
0.99948694
0.99937547
0.99926647
0.99916025
0.99905772
0.99895938
0.9988653
0.99877557
0.99869031
0.99860941
0.99853312
0.99846146
0.99839394
0.99833038
0.99827071
0.99821487
0.99816257
0.99811354
0.99806786
0.99802533
0.99798573
0.99794888
0.99791463
0.99788281
0.99785327
0.99782586
0.99780044
0.99777689
0.99775506
0.99773495
0.99771632
1.000124
1.0001376
1.0001527
1.0001693
1.0001873
1.0002069
1.0002282
1.0002512
1.000276
1.0003027
1.0003313
1.0003617
1.0003939
1.0004278
1.0004632
1.0005
1.0005377
1.0005759
1.0006141
1.0006515
1.0006875
1.000721
1.000751
1.0007763
1.0007958
1.000808
1.0008119
1.0008066
1.0007908
1.0007639
1.0007257
1.0006758
1.0006145
1.0005427
1.0004609
1.0003704
1.0002725
1.0001681
1.0000588
0.99994628
0.9998317
0.99971625
0.99960103
0.9994872
0.99937567
0.99926665
0.99916046
0.99905795
0.9989596
0.99886552
0.99877579
0.99869052
0.99860965
0.99853336
0.99846166
0.9983941
0.99833051
0.99827082
0.99821494
0.99816262
0.99811364
0.99806795
0.99802542
0.99798583
0.997949
0.99791476
0.99788295
0.99785342
0.99782601
0.99780059
0.99777702
0.99775517
0.99773495
0.9977163
1.000124
1.0001376
1.0001527
1.0001693
1.0001873
1.0002069
1.0002282
1.0002512
1.000276
1.0003027
1.0003313
1.0003617
1.0003939
1.0004278
1.0004632
1.0005
1.0005377
1.0005759
1.000614
1.0006515
1.0006875
1.000721
1.000751
1.0007763
1.0007958
1.000808
1.000812
1.0008067
1.000791
1.000764
1.0007259
1.000676
1.0006148
1.000543
1.0004612
1.0003707
1.0002728
1.0001685
1.0000592
0.99994666
0.99983208
0.99971663
0.99960142
0.99948758
0.999376
0.99926695
0.99916079
0.9990583
0.99895994
0.99886584
0.99877611
0.99869084
0.99861
0.9985337
0.99846192
0.99839432
0.99833072
0.99827104
0.99821515
0.99816284
0.9981139
0.99806825
0.99802573
0.99798614
0.9979493
0.99791506
0.99788324
0.99785371
0.9978263
0.99780089
0.99777734
0.99775553
0.99773534
0.99771664
1.000124
1.0001376
1.0001527
1.0001692
1.0001873
1.0002069
1.0002282
1.0002512
1.000276
1.0003027
1.0003312
1.0003616
1.0003939
1.0004278
1.0004632
1.0004999
1.0005376
1.0005759
1.000614
1.0006515
1.0006875
1.000721
1.000751
1.0007763
1.0007959
1.0008081
1.0008121
1.0008069
1.0007911
1.0007643
1.0007261
1.0006764
1.0006152
1.0005434
1.0004617
1.0003712
1.0002733
1.000169
1.0000598
0.9999472
0.99983263
0.99971719
0.99960199
0.99948813
0.99937649
0.99926741
0.99916128
0.9990588
0.99896043
0.99886633
0.99877659
0.99869132
0.99861049
0.99853417
0.99846233
0.9983947
0.99833109
0.9982714
0.99821548
0.99816316
0.99811424
0.99806859
0.99802605
0.99798646
0.99794962
0.99791538
0.99788357
0.99785403
0.99782663
0.99780122
0.99777766
0.99775583
0.99773561
0.9977169
1.000124
1.0001375
1.0001527
1.0001692
1.0001873
1.0002069
1.0002281
1.0002512
1.000276
1.0003027
1.0003312
1.0003616
1.0003938
1.0004277
1.0004632
1.0004999
1.0005376
1.0005758
1.000614
1.0006515
1.0006875
1.000721
1.000751
1.0007764
1.0007959
1.0008082
1.0008123
1.0008071
1.0007914
1.0007646
1.0007265
1.0006768
1.0006157
1.0005439
1.0004623
1.0003719
1.000274
1.0001697
1.0000605
0.99994797
0.9998334
0.99971797
0.99960278
0.9994889
0.99937721
0.99926809
0.99916198
0.99905951
0.99896113
0.99886702
0.99877727
0.99869199
0.99861117
0.99853483
0.99846294
0.99839526
0.99833163
0.99827192
0.99821599
0.99816366
0.99811476
0.99806913
0.99802661
0.99798702
0.99795019
0.99791594
0.99788413
0.9978546
0.9978272
0.99780178
0.99777823
0.9977564
0.99773619
0.99771746
1.000124
1.0001375
1.0001527
1.0001692
1.0001872
1.0002068
1.0002281
1.0002512
1.000276
1.0003027
1.0003312
1.0003616
1.0003938
1.0004277
1.0004632
1.0004999
1.0005376
1.0005758
1.000614
1.0006515
1.0006875
1.000721
1.0007511
1.0007765
1.000796
1.0008084
1.0008125
1.0008074
1.0007918
1.000765
1.000727
1.0006774
1.0006164
1.0005447
1.0004631
1.0003728
1.0002749
1.0001707
1.0000615
0.99994903
0.99983447
0.99971905
0.99960387
0.99948997
0.99937822
0.99926908
0.99916297
0.99906051
0.99896212
0.99886799
0.99877823
0.99869293
0.9986121
0.99853575
0.99846379
0.99839607
0.99833242
0.99827269
0.99821675
0.99816441
0.99811551
0.99806987
0.99802734
0.99798774
0.9979509
0.99791665
0.99788483
0.99785529
0.99782788
0.99780246
0.99777889
0.99775706
0.99773683
0.9977181
1.000124
1.0001375
1.0001527
1.0001692
1.0001872
1.0002068
1.0002281
1.0002511
1.000276
1.0003026
1.0003312
1.0003616
1.0003938
1.0004277
1.0004631
1.0004999
1.0005376
1.0005758
1.000614
1.0006515
1.0006875
1.000721
1.0007511
1.0007765
1.0007962
1.0008086
1.0008127
1.0008077
1.0007922
1.0007656
1.0007277
1.0006782
1.0006173
1.0005457
1.0004642
1.000374
1.0002762
1.000172
1.0000629
0.99995046
0.99983593
0.99972052
0.99960535
0.99949144
0.99937964
0.99927045
0.99916435
0.99906189
0.99896348
0.99886932
0.99877954
0.99869422
0.99861338
0.99853699
0.99846499
0.99839722
0.99833353
0.99827378
0.99821782
0.99816547
0.99811656
0.99807092
0.99802839
0.99798879
0.99795194
0.99791769
0.99788587
0.99785633
0.99782891
0.99780349
0.99777992
0.99775807
0.99773784
0.9977191
1.000124
1.0001375
1.0001527
1.0001692
1.0001872
1.0002068
1.0002281
1.0002511
1.0002759
1.0003026
1.0003312
1.0003616
1.0003938
1.0004277
1.0004631
1.0004998
1.0005375
1.0005757
1.0006139
1.0006514
1.0006874
1.000721
1.0007512
1.0007766
1.0007963
1.0008088
1.0008131
1.0008082
1.0007928
1.0007663
1.0007285
1.0006792
1.0006185
1.0005471
1.0004657
1.0003756
1.0002779
1.0001738
1.0000648
0.99995239
0.9998379
0.99972251
0.99960735
0.99949342
0.99938157
0.99927234
0.99916623
0.99906376
0.99896533
0.99887114
0.99878133
0.99869598
0.99861511
0.99853868
0.99846663
0.99839881
0.99833508
0.9982753
0.99821931
0.99816694
0.99811802
0.99807237
0.99802982
0.9979902
0.99795334
0.99791907
0.99788723
0.99785767
0.99783024
0.99780481
0.99778122
0.99775937
0.99773913
0.99772038
1.000124
1.0001375
1.0001527
1.0001692
1.0001872
1.0002068
1.0002281
1.0002511
1.0002759
1.0003026
1.0003311
1.0003615
1.0003937
1.0004276
1.000463
1.0004998
1.0005375
1.0005757
1.0006139
1.0006514
1.0006874
1.0007211
1.0007512
1.0007768
1.0007965
1.0008091
1.0008135
1.0008088
1.0007936
1.0007673
1.0007297
1.0006806
1.00062
1.0005488
1.0004677
1.0003777
1.0002801
1.0001762
1.0000673
0.99995497
0.99984052
0.99972516
0.99961001
0.99949607
0.99938417
0.9992749
0.99916878
0.99906629
0.99896782
0.99887359
0.99878374
0.99869835
0.99861743
0.99854096
0.99846884
0.99840097
0.9983372
0.99827738
0.99822135
0.99816895
0.99812
0.99807433
0.99803176
0.99799212
0.99795525
0.99792096
0.99788911
0.99785954
0.99783209
0.99780664
0.99778304
0.99776117
0.99774091
0.99772215
1.0001239
1.0001375
1.0001526
1.0001692
1.0001872
1.0002068
1.0002281
1.0002511
1.0002759
1.0003026
1.0003311
1.0003615
1.0003937
1.0004276
1.000463
1.0004997
1.0005374
1.0005756
1.0006138
1.0006514
1.0006874
1.0007211
1.0007513
1.0007769
1.0007968
1.0008095
1.0008141
1.0008095
1.0007945
1.0007685
1.0007312
1.0006823
1.0006221
1.0005511
1.0004702
1.0003805
1.0002831
1.0001793
1.0000706
0.99995836
0.99984398
0.99972867
0.99961354
0.99949959
0.99938764
0.99927833
0.99917217
0.99906965
0.99897114
0.99887686
0.99878696
0.99870151
0.99862053
0.99854399
0.99847181
0.99840387
0.99834004
0.99828017
0.9982241
0.99817166
0.99812267
0.99807697
0.99803437
0.9979947
0.9979578
0.99792348
0.99789161
0.99786201
0.99783454
0.99780907
0.99778545
0.99776357
0.9977433
0.99772452
1.0001239
1.0001375
1.0001526
1.0001692
1.0001872
1.0002068
1.000228
1.000251
1.0002759
1.0003025
1.000331
1.0003614
1.0003936
1.0004275
1.0004629
1.0004996
1.0005373
1.0005756
1.0006138
1.0006513
1.0006874
1.0007211
1.0007514
1.0007771
1.0007971
1.00081
1.0008148
1.0008104
1.0007958
1.00077
1.000733
1.0006846
1.0006247
1.0005541
1.0004736
1.0003841
1.000287
1.0001834
1.0000749
0.9999628
0.99984852
0.99973328
0.99961817
0.99950421
0.99939223
0.99928286
0.99917666
0.9990741
0.99897552
0.99888117
0.9987912
0.99870568
0.99862463
0.99854801
0.99847574
0.99840773
0.99834383
0.99828389
0.99822776
0.99817526
0.99812623
0.99808047
0.99803783
0.99799812
0.99796118
0.99792683
0.99789492
0.99786529
0.99783779
0.99781228
0.99778864
0.99776672
0.99774643
0.99772762
1.0001239
1.0001375
1.0001526
1.0001691
1.0001871
1.0002067
1.000228
1.000251
1.0002758
1.0003025
1.000331
1.0003614
1.0003935
1.0004274
1.0004628
1.0004995
1.0005372
1.0005755
1.0006137
1.0006513
1.0006874
1.0007212
1.0007516
1.0007774
1.0007975
1.0008107
1.0008157
1.0008116
1.0007973
1.000772
1.0007355
1.0006874
1.0006281
1.0005579
1.0004778
1.0003888
1.000292
1.0001887
1.0000805
0.99996857
0.99985443
0.99973927
0.99962421
0.99951025
0.99939822
0.99928881
0.99918255
0.99907992
0.99898126
0.99888683
0.99879676
0.99871115
0.99863
0.99855328
0.99848092
0.99841281
0.99834882
0.9982888
0.99823259
0.99818002
0.99813092
0.9980851
0.9980424
0.99800264
0.99796565
0.99793125
0.9978993
0.99786963
0.9978421
0.99781656
0.99779288
0.99777094
0.99775062
0.99773179
1.0001239
1.0001375
1.0001526
1.0001691
1.0001871
1.0002067
1.000228
1.000251
1.0002758
1.0003024
1.0003309
1.0003613
1.0003934
1.0004273
1.0004627
1.0004994
1.0005371
1.0005754
1.0006136
1.0006512
1.0006874
1.0007212
1.0007517
1.0007777
1.0007981
1.0008115
1.0008168
1.0008131
1.0007993
1.0007745
1.0007385
1.0006911
1.0006323
1.0005628
1.0004833
1.0003947
1.0002984
1.0001956
1.0000876
0.99997599
0.99986203
0.999747
0.99963201
0.99951806
0.999406
0.99929652
0.99919019
0.99908748
0.99898872
0.99889418
0.99880399
0.99871826
0.99863698
0.99856014
0.99848766
0.99841943