/*--------------------------------*- C++ -*----------------------------------*\
| =========                 |                                                 |
| \\      /  F ield         | OpenFOAM: The Open Source CFD Toolbox           |
|  \\    /   O peration     | Version:  v2006                                 |
|   \\  /    A nd           | Website:  www.openfoam.com                      |
|    \\/     M anipulation  |                                                 |
\*---------------------------------------------------------------------------*/
FoamFile
{
    version     2.0;
    format      ascii;
    class       surfaceScalarField;
    location    "7000";
    object      phi;
}
// * * * * * * * * * * * * * * * * * * * * * * * * * * * * * * * * * * * * * //

dimensions      [1 0 -1 0 0 0 0];
oriented        oriented;


internalField   nonuniform List<scalar> 
110670
(
1.7248635e-05
-0.00037606558
0.00035881695
3.03105e-05
-0.00035387879
0.00034081693
4.013025e-05
-0.0003346425
0.00032482275
4.7402445e-05
-0.00031767707
0.00031040489
5.2652819e-05
-0.00030260008
0.0002973497
5.6284078e-05
-0.00028912926
0.00028549801
5.8607992e-05
-0.00027704545
0.00027472152
5.9868969e-05
-0.00026617189
0.00026491091
6.0260202e-05
-0.00025636389
0.00025597264
5.9935969e-05
-0.00024750023
0.00024782446
5.902001e-05
-0.00023947995
0.00024039589
5.7612479e-05
-0.00023221401
0.00023362154
5.5795028e-05
-0.00022562985
0.00022744728
5.3634895e-05
-0.00021966457
0.00022182469
5.1187728e-05
-0.00021426409
0.00021671124
4.8499624e-05
-0.00020938207
0.00021207017
4.5608926e-05
-0.00020497758
0.00020786827
4.2547761e-05
-0.0002010154
0.00020407657
3.9343194e-05
-0.00019746503
0.00020066959
3.6018211e-05
-0.00019430022
0.00019762521
3.2592292e-05
-0.00019149824
0.00019492415
2.9082159e-05
-0.00018903924
0.00019254938
2.5502146e-05
-0.00018690621
0.0001904862
2.1864844e-05
-0.00018508463
0.00018872194
1.8181281e-05
-0.00018356249
0.00018724603
1.4461406e-05
-0.00018232993
0.0001860498
1.0714166e-05
-0.00018137916
0.00018512638
6.9478843e-06
-0.00018070421
0.00018447048
3.1703336e-06
-0.0001803009
0.00018407843
-6.1094838e-07
-0.0001801667
0.00018394797
-4.3885541e-06
-0.00018030078
0.00018407837
-8.1549412e-06
-0.00018070393
0.00018447031
-1.1902317e-05
-0.00018137866
0.00018512602
-1.562239e-05
-0.00018232914
0.0001860492
-1.930623e-05
-0.00018356144
0.00018724527
-2.2943958e-05
-0.00018508361
0.00018872133
-2.6524533e-05
-0.00018690575
0.00019048631
-3.0035327e-05
-0.00018904
0.00019255079
-3.3461852e-05
-0.00019150056
0.00019492707
-3.6787281e-05
-0.00019430386
0.00019762929
-3.9992104e-05
-0.00019746921
0.00020067402
-4.3053435e-05
-0.00020101926
0.00020408059
-4.5944333e-05
-0.0002049806
0.00020787149
-4.8632708e-05
-0.00020938427
0.00021207264
-5.108019e-05
-0.00021426569
0.00021671316
-5.32407e-05
-0.00021966566
0.00022182617
-5.5058795e-05
-0.00022563032
0.0002274484
-5.646737e-05
-0.00023221402
0.00023362259
-5.7384717e-05
-0.00023947991
0.00024039725
-5.7710454e-05
-0.00024750024
0.00024782597
-5.7320874e-05
-0.00025636328
0.00025597369
-5.6061949e-05
-0.00026617009
0.00026491117
-5.3740641e-05
-0.0002770429
0.00027472158
-5.0112657e-05
-0.00028912729
0.0002854993
-4.4866048e-05
-0.00030260051
0.00029735389
-3.7597442e-05
-0.00031768054
0.00031041193
-2.7778383e-05
-0.00033464073
0.00032482166
-1.4706512e-05
-0.0003538247
0.00034075283
-0.00037567831
0.00035840478
2.567016e-06
1.7286726e-05
-0.00039335234
3.0378862e-05
-0.00036697097
4.0217939e-05
-0.00034448161
4.7502688e-05
-0.00032496185
5.2760208e-05
-0.00030785763
5.6394202e-05
-0.00029276328
5.87175e-05
-0.00027936877
5.9975167e-05
-0.00026742957
6.0360969e-05
-0.00025674972
6.0029632e-05
-0.00024716891
5.91051e-05
-0.00023855544
5.7687722e-05
-0.00023079666
5.5859367e-05
-0.00022380152
5.3687571e-05
-0.0002174928
5.1228172e-05
-0.00021180471
4.8527305e-05
-0.00020668124
4.5623421e-05
-0.00020207371
4.2548653e-05
-0.00019794067
3.9330217e-05
-0.00019424661
3.599107e-05
-0.0001909611
3.255081e-05
-0.00018805799
2.9026108e-05
-0.00018551456
2.5431395e-05
-0.00018331151
2.1779244e-05
-0.00018143249
1.8080768e-05
-0.00017986403
1.4345911e-05
-0.00017859508
1.058367e-05
-0.00017761694
6.8023664e-06
-0.00017692292
3.0098104e-06
-0.00017650836
-7.8646846e-07
-0.00017637044
-4.5790329e-06
-0.00017650823
-8.3603663e-06
-0.00017692262
-1.2122648e-05
-0.0001776164
-1.5857605e-05
-0.0001785942
-1.9556254e-05
-0.00017986281
-2.3208717e-05
-0.00018143116
-2.6803898e-05
-0.00018331059
-3.0329178e-05
-0.00018551473
-3.3770001e-05
-0.00018805975
-3.7109516e-05
-0.00019096436
-4.0328104e-05
-0.00019425064
-4.3402851e-05
-0.00019794453
-4.63067e-05
-0.00020207676
-4.9007532e-05
-0.00020668345
-5.1466825e-05
-0.00021180641
-5.3638392e-05
-0.00021749411
-5.5466619e-05
-0.0002238021
-5.6884324e-05
-0.00023079633
-5.7809602e-05
-0.00023855464
-5.8141826e-05
-0.00024716803
-5.77569e-05
-0.00025674821
-5.6500386e-05
-0.00026742662
-5.4178705e-05
-0.00027936459
-5.0546845e-05
-0.00029275916
-4.5292e-05
-0.00030785536
-3.8009786e-05
-0.00032496277
-2.817027e-05
-0.00034448025
-1.5068995e-05
-0.00036692599
-0.00039299265
2.2453415e-06
1.7327384e-05
-0.00041067974
3.0449907e-05
-0.00038009353
4.0309247e-05
-0.00035434095
4.760716e-05
-0.00033225979
5.2872345e-05
-0.0003131228
5.6509688e-05
-0.00029640063
5.8833013e-05
-0.00028169209
6.0088054e-05
-0.00026868461
6.0469161e-05
-0.00025713082
6.0131458e-05
-0.00024683119
5.9199107e-05
-0.0002376231
5.7772644e-05
-0.00022937017
5.593423e-05
-0.00022196313
5.3751743e-05
-0.0002153103
5.1281066e-05
-0.00020933406
4.8568466e-05
-0.00020396865
4.5652353e-05
-0.00019915762
4.2564964e-05
-0.00019485331
3.9333539e-05
-0.00019101519
3.5981092e-05
-0.0001876087
3.252729e-05
-0.00018460419
2.8988794e-05
-0.0001819761
2.538015e-05
-0.00017970285
2.1713895e-05
-0.00017776626
1.800125e-05
-0.00017615137
1.4252124e-05
-0.00017484596
1.0475568e-05
-0.00017384038
6.6799149e-06
-0.00017312726
2.8729765e-06
-0.00017270143
-9.3764082e-07
-0.00017255981
-4.74454e-06
-0.00017270135
-8.5401154e-06
-0.00017312703
-1.2316621e-05
-0.00017383991
-1.6065699e-05
-0.00017484512
-1.9778417e-05
-0.00017615011
-2.3444859e-05
-0.00017776473
-2.7053942e-05
-0.00017970152
-3.0593015e-05
-0.00018197568
-3.4047464e-05
-0.00018460531
-3.7400374e-05
-0.00018761147
-4.0632022e-05
-0.00019101899
-4.3719427e-05
-0.00019485713
-4.6635489e-05
-0.0001991607
-4.9348044e-05
-0.0002039709
-5.1818499e-05
-0.00020933596
-5.4000487e-05
-0.00021531212
-5.5838231e-05
-0.00022196435
-5.7264408e-05
-0.00022937015
-5.8197e-05
-0.00023762205
-5.8535112e-05
-0.00024682991
-5.8154315e-05
-0.00025712902
-5.6899706e-05
-0.00026868123
-5.4577225e-05
-0.00028168708
-5.0941136e-05
-0.00029639525
-4.5677756e-05
-0.00031311874
-3.8381718e-05
-0.00033225881
-2.8521691e-05
-0.00035434029
-1.5391171e-05
-0.00038005651
-0.00041034745
1.963618e-06
1.736798e-05
-0.00042804771
3.0519416e-05
-0.00039324495
4.0399663e-05
-0.00036422118
4.7711353e-05
-0.00033957147
5.2984833e-05
-0.00031839626
5.6626237e-05
-0.00030004203
5.8950361e-05
-0.00028401618
6.0203477e-05
-0.00026993772
6.0580574e-05
-0.00025750788
6.0237141e-05
-0.00024648774
5.9297526e-05
-0.00023668345
5.7862505e-05
-0.00022793512
5.6014675e-05
-0.00022011527
5.3822157e-05
-0.00021311774
5.1340953e-05
-0.00020685283
4.8617333e-05
-0.00020124498
4.5689719e-05
-0.00019623
4.2590476e-05
-0.00019175403
3.9346835e-05
-0.00018777154
3.5981938e-05
-0.00018424378
3.2515364e-05
-0.0001811376
2.8963898e-05
-0.00017842463
2.5342054e-05
-0.00017608099
2.1662485e-05
-0.00017408669
1.7936409e-05
-0.00017242526
1.4173778e-05
-0.00017108332
1.0383665e-05
-0.00017005024
6.5743792e-06
-0.00016931795
2.7537864e-06
-0.00016888081
-1.0705478e-06
-0.00016873544
-4.8911416e-06
-0.00016888073
-8.700408e-06
-0.00016931774
-1.2490504e-05
-0.0001700498
-1.625309e-05
-0.00017108251
-1.9979202e-05
-0.00017242398
-2.3658928e-05
-0.00017408498
-2.7281178e-05
-0.00017607925
-3.0833256e-05
-0.00017842358
-3.4300545e-05
-0.00018113801
-3.7666026e-05
-0.00018424596
-4.090994e-05
-0.00018777507
-4.4009191e-05
-0.00019175786
-4.6936673e-05
-0.00019623321
-4.9660174e-05
-0.00020124738
-5.2141112e-05
-0.00020685501
-5.4332962e-05
-0.00021312025
-5.6179742e-05
-0.00022011757
-5.7613918e-05
-0.00022793596
-5.8553314e-05
-0.00023668265
-5.8896793e-05
-0.00024648642
-5.8519589e-05
-0.00025750621
-5.7266356e-05
-0.00026993445
-5.4942542e-05
-0.00028401089
-5.1301768e-05
-0.000300036
-4.6029369e-05
-0.00031839114
-3.8719113e-05
-0.00033956905
-2.8838235e-05
-0.00036422116
-1.5678253e-05
-0.00039321648
-0.00042774282
1.7171183e-06
1.740865e-05
-0.00044545623
3.0590244e-05
-0.00040642639
4.0491625e-05
-0.00037412247
4.7817465e-05
-0.0003468972
5.3099726e-05
-0.00032367845
5.6745781e-05
-0.00030368801
5.9071296e-05
-0.00028634164
6.0323203e-05
-0.00027118958
6.0696999e-05
-0.00025788163
6.0348588e-05
-0.0002461393
5.9402374e-05
-0.00023573719
5.7959407e-05
-0.00022649213
5.6102823e-05
-0.00021825864
5.3900899e-05
-0.00021091579
5.1409723e-05
-0.00020436161
4.8675509e-05
-0.00019851072
4.573683e-05
-0.00019329129
4.2626139e-05
-0.00018864328
3.9370729e-05
-0.00018451612
3.5993795e-05
-0.00018086679
3.2514857e-05
-0.00017765866
2.8950827e-05
-0.00017486054
2.5316164e-05
-0.00017244633
2.1623692e-05
-0.00017039418
1.7884572e-05
-0.00016868615
1.4108877e-05
-0.0001673076
1.0305632e-05
-0.00016624699
6.4831968e-06
-0.00016549551
2.6494345e-06
-0.00016504703
-1.1881085e-06
-0.0001648979
-5.0219234e-06
-0.00016504689
-8.8444466e-06
-0.0001654952
-1.2647776e-05
-0.00016624645
-1.6423566e-05
-0.0001673067
-2.016279e-05
-0.00016868474
-2.3855503e-05
-0.00017039224
-2.7490603e-05
-0.00017244414
-3.1055362e-05
-0.00017485879
-3.4535154e-05
-0.00017765821
-3.7912881e-05
-0.00018086821
-4.1168731e-05
-0.00018451921
-4.4279506e-05
-0.00018864707
-4.7218044e-05
-0.00019329467
-4.995207e-05
-0.00019851334
-5.2443035e-05
-0.00020436404
-5.4644349e-05
-0.00021091893
-5.6499801e-05
-0.00021826211
-5.7941613e-05
-0.00022649413
-5.8887385e-05
-0.00023573687
-5.9235754e-05
-0.00024613804
-5.8861651e-05
-0.00025788031
-5.7609305e-05
-0.00027118678
-5.5283704e-05
-0.00028633648
-5.163787e-05
-0.00030368183
-4.6356093e-05
-0.00032367291
-3.9031307e-05
-0.00034689383
-2.9129344e-05
-0.00037412312
-1.5939779e-05
-0.00040640603
-0.00044517888
1.4962843e-06
1.7448938e-05
-0.00046290528
3.0659961e-05
-0.00041963752
4.0582531e-05
-0.00038404514
4.7922556e-05
-0.00035423731
5.3213791e-05
-0.00032896977
5.6864728e-05
-0.00030733901
5.9191946e-05
-0.00028866893
6.0442907e-05
-0.00027244059
6.0813763e-05
-0.00025825254
6.0460825e-05
-0.00024578642
5.9508371e-05
-0.00023478477
5.8057968e-05
-0.00022504179
5.6193233e-05
-0.00021639393
5.398256e-05
-0.00020870517
5.1482002e-05
-0.00020186107
4.8737714e-05
-0.00019576648
4.578845e-05
-0.00019034203
4.2666675e-05
-0.00018552154
3.9399865e-05
-0.00018124931
3.6011122e-05
-0.00017747806
3.2520136e-05
-0.00017416768
2.8943772e-05
-0.00017128419
2.5296664e-05
-0.00016879923
2.1591599e-05
-0.00016668913
1.7839838e-05
-0.0001649344
1.4051427e-05
-0.00016351921
1.0235449e-05
-0.00016243102
6.4002655e-06
-0.00016166034
2.5537652e-06
-0.00016120054
-1.2965007e-06
-0.00016104766
-5.1430102e-06
-0.00016120039
-8.9782194e-06
-0.00016166002
-1.2794212e-05
-0.00016243046
-1.6582656e-05
-0.00016351828
-2.0334458e-05
-0.00016493294
-2.4039702e-05
-0.00016668702
-2.7687215e-05
-0.00016879662
-3.1264319e-05
-0.0001712817
-3.475626e-05
-0.00017416627
-3.8145941e-05
-0.00017747854
-4.1413376e-05
-0.00018125178
-4.453532e-05
-0.00018552513
-4.7484499e-05
-0.00019034549
-5.022862e-05
-0.00019576923
-5.2729112e-05
-0.00020186355
-5.4939473e-05
-0.00020870858
-5.6803204e-05
-0.00021639838
-5.8252355e-05
-0.00022504499
-5.9204195e-05
-0.00023478503
-5.9557119e-05
-0.00024578513
-5.9185777e-05
-0.00025825165
-5.7933984e-05
-0.00027243859
-5.5606261e-05
-0.0002886642
-5.1955131e-05
-0.00030733297
-4.6663731e-05
-0.00032896431
-3.9324223e-05
-0.00035423334
-2.9401081e-05
-0.00038404626
-1.6181917e-05
-0.0004196252
-0.00046265553
1.294736e-06
1.7490015e-05
-0.0004803953
3.073139e-05
-0.00043287892
4.0675749e-05
-0.00039398949
4.8030477e-05
-0.00036159205
5.3331232e-05
-0.00033427052
5.6987566e-05
-0.00031099535
5.9316931e-05
-0.0002909983
6.0567339e-05
-0.00027369099
6.0935698e-05
-0.00025862091
6.0578616e-05
-0.00024542933
5.9620057e-05
-0.00023382623
5.8162526e-05
-0.00022358425
5.6289982e-05
-0.0002145214
5.4070975e-05
-0.00020648617
5.1561378e-05
-0.00019935148
4.8807462e-05
-0.00019301258
4.5848025e-05
-0.0001873826
4.2715663e-05
-0.0001823892
3.9437863e-05
-0.00017797151
3.6037747e-05
-0.00017407796
3.2535085e-05
-0.00017066501
2.8946796e-05
-0.00016769592
2.5287615e-05
-0.00016514005
2.1570343e-05
-0.00016297186
1.7806293e-05
-0.00016117035
1.4005519e-05
-0.00015971843
1.0177129e-05
-0.00015860263
6.3295157e-06
-0.00015781273
2.4705616e-06
-0.00015734159
-1.3921227e-06
-0.00015718497
-5.2510353e-06
-0.00015734148
-9.0985638e-06
-0.0001578125
-1.2926822e-05
-0.0001586022
-1.6727432e-05
-0.00015971768
-2.0491329e-05
-0.00016116904
-2.4208555e-05
-0.0001629698
-2.7867965e-05
-0.00016513722
-3.1456864e-05
-0.00016769281
-3.4960453e-05
-0.00017066268
-3.8361567e-05
-0.00017407744
-4.1640137e-05
-0.00017797321
-4.4772786e-05
-0.00018239249
-4.7732254e-05
-0.00018738602
-5.0486122e-05
-0.00019301537
-5.2995807e-05
-0.00019935386
-5.5214944e-05
-0.00020648945
-5.7086743e-05
-0.00021452658
-5.8543106e-05
-0.00022358864
-5.9500936e-05
-0.0002338272
-5.9858233e-05
-0.00024542784
-5.9489449e-05
-0.00025862043
-5.8237969e-05
-0.00027369007
-5.5907884e-05
-0.00029099429
-5.2251318e-05
-0.00031098954
-4.6950203e-05
-0.00033426542
-3.959584e-05
-0.00036158771
-2.9651568e-05
-0.00039399053
-1.6402883e-05
-0.00043287389
-0.00048017251
1.1140921e-06
1.7531566e-05
-0.00049792687
3.0802844e-05
-0.00044615021
4.0769674e-05
-0.00040395632
4.8139451e-05
-0.00036896183
5.3450082e-05
-0.00033958114
5.7112261e-05
-0.00031465753
5.9444054e-05
-0.00029333008
6.0694171e-05
-0.00027494111
6.1060444e-05
-0.00025898717
6.0699361e-05
-0.00024506823
5.9734679e-05
-0.00023286154
5.8270133e-05
-0.00022211969
5.6389932e-05
-0.00021264119
5.41626e-05
-0.00020425882
5.1643893e-05
-0.00019683277
4.8880248e-05
-0.00019024893
4.5910579e-05
-0.00018441293
4.2767648e-05
-0.00017924627
3.9478905e-05
-0.00017468276
3.6067547e-05
-0.00017066661
3.2553372e-05
-0.00016715083
2.8953396e-05
-0.00016409594
2.5282385e-05
-0.00016146903
2.1553169e-05
-0.00015924265
1.777708e-05
-0.00015739425
1.3964176e-05
-0.00015590553
1.012359e-05
-0.00015476204
6.2637226e-06
-0.00015395286
2.3924942e-06
-0.00015347035
-1.4824744e-06
-0.00015331
-5.3536538e-06
-0.0001534703
-9.2134191e-06
-0.00015395272
-1.3053859e-05
-0.00015476176
-1.6866565e-05
-0.00015590496
-2.0642438e-05
-0.00015739317
-2.4371486e-05
-0.00015924075
-2.8042574e-05
-0.00016146612
-3.1643057e-05
-0.00016409233
-3.5158084e-05
-0.00016714765
-3.8570434e-05
-0.00017066509
-4.1860015e-05
-0.00017468362
-4.5003244e-05
-0.00017924926
-4.7972947e-05
-0.00018441631
-5.073653e-05
-0.00019025178
-5.3255286e-05
-0.0001968351
-5.5483081e-05
-0.00020426165
-5.7362646e-05
-0.00021264701
-5.8825942e-05
-0.00022212534
-5.9789489e-05
-0.00023286365
-6.0150851e-05
-0.00024506647
-5.9784248e-05
-0.00025898703
-5.8532655e-05
-0.00027494166
-5.6199641e-05
-0.0002933273
-5.2537066e-05
-0.00031465211
-4.7225696e-05
-0.00033957679
-3.9855574e-05
-0.00036895783
-2.9889362e-05
-0.00040395674
-1.6609935e-05
-0.00044615332
-0.00049773126
9.4882073e-07
1.7569839e-05
-0.00051549668
3.0870348e-05
-0.00045945069
4.0859748e-05
-0.0004139457
4.8243969e-05
-0.00037634603
5.3564251e-05
-0.00034490141
5.7232668e-05
-0.00031832593
5.9566591e-05
-0.00029566399
6.0816497e-05
-0.00027619101
6.1181198e-05
-0.00025935186
6.0816044e-05
-0.00024470307
5.9845405e-05
-0.00023189088
5.8374371e-05
-0.00022064865
5.6486979e-05
-0.00021075379
5.4251579e-05
-0.00020202341
5.1723889e-05
-0.00019430508
4.8950548e-05
-0.00018747557
4.597065e-05
-0.00018143303
4.2817076e-05
-0.00017609268
3.9517352e-05
-0.00017138304
3.6094766e-05
-0.00016724401
3.2569169e-05
-0.00016362523
2.8957661e-05
-0.00016048443
2.5275006e-05
-0.00015778637
2.1534067e-05
-0.0001555017
1.7746156e-05
-0.00015360633
1.3921357e-05
-0.00015208072
1.0068803e-05
-0.00015090948
6.1969094e-06
-0.00015008096
2.3136231e-06
-0.00014958706
-1.5734288e-06
-0.00014942294
-5.4566952e-06
-0.00014958702
-9.32854e-06
-0.00015008088
-1.3181022e-05
-0.00015090927
-1.7005707e-05
-0.00015208028
-2.0793452e-05
-0.00015360541
-2.4534225e-05
-0.00015549997
-2.8216869e-05
-0.00015778347
-3.1828826e-05
-0.00016048037
-3.5355178e-05
-0.00016362129
-3.8778691e-05
-0.00016724157
-4.2079265e-05
-0.00017138304
-4.5233048e-05
-0.00017609548
-4.8212937e-05
-0.00018143642
-5.0986263e-05
-0.00018747846
-5.3514169e-05
-0.00019430719
-5.5750692e-05
-0.00020202513
-5.7637867e-05
-0.00021075983
-5.9107813e-05
-0.00022065539
-6.0076812e-05
-0.00023189464
-6.0442189e-05
-0.0002447011
-6.0077691e-05
-0.00025935152
-5.8825941e-05
-0.00027619342
-5.6489895e-05
-0.00029566334
-5.2821199e-05
-0.00031832081
-4.7500202e-05
-0.00034489778
-4.0114219e-05
-0.00037634382
-3.012674e-05
-0.00041394421
-1.6816664e-05
-0.0004594634
-0.00051533173
7.8381224e-07
1.7606478e-05
-0.00053310318
3.0935264e-05
-0.00047277949
4.0946264e-05
-0.00042395672
4.8341963e-05
-0.00038374174
5.3670171e-05
-0.00035022963
5.7345775e-05
-0.00032200155
5.9680688e-05
-0.00029799891
6.09307e-05
-0.00027744103
6.1295661e-05
-0.00025971683
6.0926277e-05
-0.0002443337
5.9951726e-05
-0.00023091634
5.8476515e-05
-0.00021917345
5.6583954e-05
-0.00020886123
5.4342371e-05
-0.00019978184
5.1807694e-05
-0.0001917704
4.902669e-05
-0.00018469458
4.6038618e-05
-0.00017844495
4.2876337e-05
-0.0001729304
3.9567637e-05
-0.00016807433
3.6135818e-05
-0.0001638122
3.2600809e-05
-0.00016009022
2.8979723e-05
-0.00015686335
2.5287351e-05
-0.00015409399
2.1536563e-05
-0.00015175092
1.7738699e-05
-0.00014980846
1.3903836e-05
-0.00014824587
1.0041139e-05
-0.00014704678
6.1590102e-06
-0.00014619884
2.2654165e-06
-0.00014569346
-1.6320033e-06
-0.00014552553
-5.5256219e-06
-0.0001456934
-9.4077794e-06
-0.00014619873
-1.32705e-05
-0.00014704654
-1.7105353e-05
-0.00014824543
-2.0903147e-05
-0.00014980761
-2.4653842e-05
-0.00015174928
-2.8346266e-05
-0.00015409104
-3.196778e-05
-0.00015685886
-3.5503479e-05
-0.00016008558
-3.8936273e-05
-0.00016380879
-4.2246055e-05
-0.00016807325
-4.5408784e-05
-0.00017293276
-4.8396945e-05
-0.00017844825
-5.1178203e-05
-0.00018469721
-5.3714193e-05
-0.00019177119
-5.5957791e-05
-0.00019978154
-5.7851233e-05
-0.00020886637
-5.9325981e-05
-0.00021918065
-6.0298664e-05
-0.00023092195
-6.0667075e-05
-0.00024433269
-6.0303691e-05
-0.0002597149
-5.9050891e-05
-0.00027744622
-5.6711478e-05
-0.00029800274
-5.3036261e-05
-0.00032199604
-4.7708781e-05
-0.00035022525
-4.0307987e-05
-0.00038374462
-3.0304207e-05
-0.00042394798
-1.6967205e-05
-0.00047280041
-0.00053296868
6.6975703e-07
1.7648745e-05
-0.00055075192
3.0997484e-05
-0.00048612823
4.1035884e-05
-0.00043399512
4.8437179e-05
-0.00039114304
5.3772083e-05
-0.00035556454
5.745824e-05
-0.00032568771
5.9788106e-05
-0.00030032878
6.1035482e-05
-0.00027868841
6.1402449e-05
-0.00026008379
6.1027814e-05
-0.00024395907
6.0051223e-05
-0.00022993975
5.857307e-05
-0.0002176953
5.6674775e-05
-0.00020696294
5.442641e-05
-0.00019753348
5.1885103e-05
-0.00018922909
4.9096921e-05
-0.0001819064
4.6101229e-05
-0.00017544926
4.2930413e-05
-0.0001697596
3.9613128e-05
-0.00016475705
3.6172535e-05
-0.00016037161
3.2628575e-05
-0.00015654626
2.8998375e-05
-0.00015323315
2.5296778e-05
-0.00015039239
2.1536628e-05
-0.00014799078
1.7729314e-05
-0.00014600115
1.3884939e-05
-0.0001444015
1.0012686e-05
-0.00014317452
6.1210018e-06
-0.00014230716
2.2178484e-06
-0.00014179031
-1.6890792e-06
-0.00014161861
-5.5921689e-06
-0.00014179031
-9.4837806e-06
-0.00014230712
-1.3355917e-05
-0.0001431744
-1.7200161e-05
-0.00014440119
-2.1007317e-05
-0.00014600045
-2.4767391e-05
-0.00014798922
-2.8469458e-05
-0.00015038897
-3.2099736e-05
-0.00015322859
-3.5643633e-05
-0.00015654168
-3.9084943e-05
-0.00016036748
-4.2403154e-05
-0.00016475503
-4.557496e-05
-0.00016976096
-4.8570069e-05
-0.00017545313
-5.1357977e-05
-0.00018190931
-5.3902641e-05
-0.00018922652
-5.6151086e-05
-0.0001975331
-5.8050571e-05
-0.00020696689
-5.9527787e-05
-0.00021770345
-6.0501377e-05
-0.00022994836
-6.0871897e-05
-0.00024396218
-6.050717e-05
-0.00026007962
-5.9249486e-05
-0.00027870392
-5.690332e-05
-0.0003003489
-5.3215868e-05
-0.0003256835
-4.78848e-05
-0.00035555631
-4.0461763e-05
-0.00039116767
-3.0444256e-05
-0.00043396548
-1.7069569e-05
-0.00048617511
-0.00055065476
6.1652589e-07
1.7712291e-05
-0.00056846421
3.112081e-05
-0.00049953675
4.1197177e-05
-0.00044407148
4.8628107e-05
-0.00039857397
5.3993863e-05
-0.00036093029
5.7685083e-05
-0.00032937892
6.00197e-05
-0.00030266339
6.1279369e-05
-0.00027994807
6.1638345e-05
-0.00026044276
6.1252821e-05
-0.00024357354
6.0264286e-05
-0.0002289512
5.8766748e-05
-0.00021619776
5.6852503e-05
-0.00020504868
5.4586266e-05
-0.00019526724
5.2024859e-05
-0.00018666767
4.9213564e-05
-0.0001790951
4.6193715e-05
-0.0001724294
4.2999715e-05
-0.00016656559
3.9658191e-05
-0.00016141551
3.6193008e-05
-0.00015690642
3.2624364e-05
-0.0001529776
2.8969411e-05
-0.00014957819
2.5243029e-05
-0.000146666
2.1458167e-05
-0.00014420591
1.7626222e-05
-0.00014216919
1.3757358e-05
-0.00014053263
9.8608007e-06
-0.00013927795
5.9450372e-06
-0.00013839139
2.018087e-06
-0.00013786334
-1.9124911e-06
-0.00013768803
-5.8393727e-06
-0.00013786341
-9.7550284e-06
-0.00013839146
-1.3651404e-05
-0.00013927801
-1.751997e-05
-0.00014053262
-2.1351402e-05
-0.00014216901
-2.5135323e-05
-0.00014420529
-2.885976e-05
-0.00014666452
-3.2513121e-05
-0.00014957523
-3.6081552e-05
-0.00015297323
-3.9545969e-05
-0.00015690307
-4.2886422e-05
-0.00016141457
-4.6079638e-05
-0.00016656775
-4.9097755e-05
-0.000172435
-5.1905802e-05
-0.00017910126
-5.4465201e-05
-0.00018666711
-5.6734702e-05
-0.0001952636
-5.8652958e-05
-0.00020504861
-6.0147333e-05
-0.00021620907
-6.1137705e-05
-0.00022895797
-6.1515933e-05
-0.00024358396
-6.116299e-05
-0.00026043254
-5.9909629e-05
-0.00027995728
-5.756784e-05
-0.00030269067
-5.3869311e-05
-0.00032938204
-4.8516712e-05
-0.00036090889
-4.1065872e-05
-0.00039861851
-3.1002293e-05
-0.00044402904
-1.7578526e-05
-0.00049959888
-0.00056840989
1.7661735e-07
1.755896e-05
-0.00058602317
3.1046663e-05
-0.00051302444
4.1099535e-05
-0.00045412435
4.8590636e-05
-0.00040606506
5.3941906e-05
-0.00036628155
5.7605442e-05
-0.00033304245
5.9984477e-05
-0.00030504242
6.1242949e-05
-0.00028120654
6.1579149e-05
-0.00026077896
6.1200074e-05
-0.00024319446
6.0219859e-05
-0.00022797098
5.8747287e-05
-0.00021472518
5.6855812e-05
-0.0002031572
5.4606925e-05
-0.00019301835
5.2058552e-05
-0.00018411929
4.9264286e-05
-0.00017630083
4.6263239e-05
-0.00016942834
4.308725e-05
-0.0001633896
3.9762961e-05
-0.00015809121
3.6314198e-05
-0.00015345766
3.2761169e-05
-0.00014942456
2.9121133e-05
-0.00014593815
2.5408987e-05
-0.00014295384
2.1637732e-05
-0.00014043465
1.7818787e-05
-0.00013835024
1.396234e-05
-0.00013667618
1.0077623e-05
-0.00013539322
6.1731329e-06
-0.0001344869
2.2568942e-06
-0.00013394709
-1.6633092e-06
-0.00013376782
-5.5796168e-06
-0.00013394709
-9.4841907e-06
-0.00013448689
-1.3368999e-05
-0.00013539319
-1.7225479e-05
-0.00013667614
-2.1044296e-05
-0.00013835018
-2.4815035e-05
-0.00014043456
-2.8525771e-05
-0.00014295377
-3.2164982e-05
-0.00014593602
-3.5721243e-05
-0.00014941696
-3.9181249e-05
-0.00015344306
-4.252669e-05
-0.00015806911
-4.5732912e-05
-0.00016336153
-4.8768519e-05
-0.00016939938
-5.1593223e-05
-0.00017627656
-5.4158113e-05
-0.00018410221
-5.6421437e-05
-0.00019300028
-5.8339549e-05
-0.00020313049
-5.9849999e-05
-0.00021469863
-6.0855307e-05
-0.00022795265
-6.1247638e-05
-0.00024319163
-6.0899141e-05
-0.00026078103
-5.9664267e-05
-0.00028119216
-5.7326367e-05
-0.00030502856
-5.3649703e-05
-0.0003330587
-4.8261256e-05
-0.00036629732
-4.0844117e-05
-0.00040603566
-3.0723268e-05
-0.00045414987
-1.7356575e-05
-0.00051296558
-0.00058609746
3.3102029e-07
1.7585479e-05
3.1083286e-05
4.1142414e-05
4.8641055e-05
5.3984843e-05
5.7655838e-05
6.0040251e-05
6.1289039e-05
6.1628809e-05
6.1255271e-05
6.0277969e-05
5.8812017e-05
5.6921241e-05
5.4672973e-05
5.2126078e-05
4.9335027e-05
4.6337205e-05
4.3162735e-05
3.9840249e-05
3.6393088e-05
3.2841351e-05
2.920234e-05
2.5491003e-05
2.172029e-05
1.7901684e-05
1.4045354e-05
1.0160571e-05
6.2558167e-06
2.3391411e-06
-1.5816097e-06
-5.4983564e-06
-9.403172e-06
-1.3288002e-05
-1.7144389e-05
-2.0963037e-05
-2.4733862e-05
-2.8445731e-05
-3.208496e-05
-3.5639125e-05
-3.9097362e-05
-4.2440726e-05
-4.5644897e-05
-4.8676323e-05
-5.1498725e-05
-5.4064853e-05
-5.6321915e-05
-5.8234131e-05
-5.9738461e-05
-6.0735422e-05
-6.1124869e-05
-6.0765727e-05
-5.9523481e-05
-5.7171899e-05
-5.349026e-05
-4.809372e-05
-4.0669002e-05
-3.0536426e-05
-1.7150731e-05
5.5988476e-07
-6.5426493e-06
-0.0002231551
0.00021724281
1.245516e-05
-1.4137309e-06
-0.00022385237
0.00021872357
3.0038268e-06
-0.00022458248
0.00022016505
6.7739973e-06
-0.00022533619
0.00022156614
9.9538074e-06
-0.0002261052
0.00022292551
1.2594323e-05
-0.00022688258
0.00022424218
1.4741493e-05
-0.00022766203
0.00022551497
1.6436819e-05
-0.00022843788
0.00022674267
1.7717961e-05
-0.0002292053
0.00022792427
1.8619214e-05
-0.00022995974
0.00022905859
1.9172016e-05
-0.00023069732
0.00023014462
1.9405193e-05
-0.00023141442
0.00023118135
1.9345402e-05
-0.00023210788
0.00023216777
1.9017356e-05
-0.00023277483
0.00023310299
1.8444039e-05
-0.00023341252
0.00023398593
1.7646962e-05
-0.00023401864
0.00023481582
1.6646298e-05
-0.00023459111
0.00023559187
1.5461076e-05
-0.00023512814
0.00023631345
1.4109286e-05
-0.00023562805
0.00023697992
1.260804e-05
-0.00023608929
0.00023759062
1.0973662e-05
-0.00023651041
0.00023814486
9.2218191e-06
-0.00023689011
0.00023864202
7.3675993e-06
-0.0002372274
0.00023908168
5.4256225e-06
-0.00023752154
0.00023946358
3.4100887e-06
-0.00023777198
0.00023978756
1.3348767e-06
-0.00023797806
0.00024005332
-7.8642926e-07
-0.00023813908
0.00024026043
-2.9404491e-06
-0.00023825443
0.00024040849
-5.113954e-06
-0.00023832366
0.00024049719
-7.2937917e-06
-0.00023834652
0.00024052639
-9.4668561e-06
-0.00023832295
0.00024049604
-1.1620004e-05
-0.000238253
0.00024040617
-1.3740042e-05
-0.00023813682
0.00024025688
-1.5813667e-05
-0.00023797479
0.00024004843
-1.7827413e-05
-0.00023776749
0.00023978125
-1.9767512e-05
-0.00023751576
0.00023945588
-2.1619787e-05
-0.00023722054
0.00023907283
-2.3369546e-05
-0.00023688259
0.00023863237
-2.5001557e-05
-0.00023650262
0.00023813464
-2.6500041e-05
-0.00023608128
0.00023757979
-2.784863e-05
-0.00023561951
0.00023696812
-2.9030263e-05
-0.00023511859
0.00023630024
-3.0027041e-05
-0.0002345802
0.00023557699
-3.0820064e-05
-0.0002340063
0.00023479934
-3.138924e-05
-0.00023339902
0.00023396821
-3.1713161e-05
-0.0002327606
0.00023308453
-3.1768826e-05
-0.00023209329
0.00023214897
-3.1531519e-05
-0.00023139967
0.00023116238
-3.0974516e-05
-0.00023068229
0.00023012531
-3.0068942e-05
-0.00022994404
0.00022903848
-2.8783399e-05
-0.00022918832
0.0002279028
-2.7083704e-05
-0.00022841905
0.00022671937
-2.4932464e-05
-0.00022764134
0.00022549012
-2.228873e-05
-0.0002268618
0.00022421809
-1.9107796e-05
-0.00022609123
0.0002229103
-1.5340829e-05
-0.0002253503
0.00022158343
-1.0935397e-05
-0.00022468472
0.00022027937
-5.8373903e-06
-0.00022421039
0.00021911247
-0.00022425856
0.00021842117
-5.3072065e-06
-0.00022952183
1.1674075e-05
2.1183761e-07
-0.00022937134
4.9611688e-06
-0.00022933173
9.0099978e-06
-0.00022938494
1.2420095e-05
-0.00022951521
1.5246711e-05
-0.00022970911
1.7539558e-05
-0.00022995479
1.934353e-05
-0.00023024177
2.0699362e-05
-0.00023056106
2.1644164e-05
-0.00023090446
2.2211943e-05
-0.00023126502
2.2433888e-05
-0.00023163629
2.2338833e-05
-0.00023201275
2.1953503e-05
-0.00023238944
2.1302759e-05
-0.00023276172
2.0409889e-05
-0.00023312571
1.9296733e-05
-0.00023347791
1.7983888e-05
-0.00023381525
1.6490826e-05
-0.00023413495
1.4836045e-05
-0.00023443448
1.3037185e-05
-0.00023471152
1.1111182e-05
-0.00023496408
9.0743657e-06
-0.00023519056
6.9425586e-06
-0.00023538971
4.7311298e-06
-0.00023556053
2.4550695e-06
-0.00023570198
1.2906249e-07
-0.00023581306
-2.2324502e-06
-0.0002358929
-4.6151852e-06
-0.00023594091
-7.0049374e-06
-0.00023595676
-9.3875303e-06
-0.00023594035
-1.1748762e-05
-0.00023589175
-1.4074339e-05
-0.00023581123
-1.6349819e-05
-0.00023569929
-1.8560549e-05
-0.00023555675
-2.0691579e-05
-0.00023538472
-2.2727579e-05
-0.00023518453
-2.4652722e-05
-0.00023495743
-2.6450622e-05
-0.0002347047
-2.810425e-05
-0.00023442764
-2.9595871e-05
-0.00023412788
-3.0906937e-05
-0.00023380751
-3.2017985e-05
-0.00023346913
-3.2908484e-05
-0.00023311579
-3.3556675e-05
-0.00023275081
-3.3939373e-05
-0.00023237788
-3.4031771e-05
-0.00023200088
-3.3807145e-05
-0.00023162428
-3.3236608e-05
-0.00023125281
-3.2288957e-05
-0.00023089167
-3.0930149e-05
-0.00023054711
-2.912309e-05
-0.00023022609
-2.6827203e-05
-0.00022993721
-2.3997957e-05
-0.00022969104
-2.0586394e-05
-0.00022950277
-1.6539107e-05
-0.00022939764
-1.1798004e-05
-0.00022942587
-6.3026878e-06
-0.00022970576
-0.00023056124
-4.0401519e-06
-0.00023638078
1.0899224e-05
1.9017141e-06
-0.00023531314
7.0108982e-06
-0.00023444085
1.1362287e-05
-0.00023373627
1.5022662e-05
-0.00023317554
1.8051795e-05
-0.00023273819
2.0503447e-05
-0.0002324064
2.2426186e-05
-0.00023216447
2.3864064e-05
-0.0002319989
2.485723e-05
-0.00023189759
2.544247e-05
-0.00023185023
2.5653513e-05
-0.0002318473
2.5521547e-05
-0.00023188077
2.507549e-05
-0.00023194336
2.4342239e-05
-0.00023202845
2.3346974e-05
-0.00023213044
2.2113331e-05
-0.00023224426
2.0663598e-05
-0.00023236551
1.9018849e-05
-0.0002324902
1.7199098e-05
-0.00023261473
1.522344e-05
-0.00023273587
1.3110197e-05
-0.00023285084
1.0877042e-05
-0.00023295741
8.5410827e-06
-0.00023305375