/*--------------------------------*- C++ -*----------------------------------*\
| =========                 |                                                 |
| \\      /  F ield         | OpenFOAM: The Open Source CFD Toolbox           |
|  \\    /   O peration     | Version:  v2006                                 |
|   \\  /    A nd           | Website:  www.openfoam.com                      |
|    \\/     M anipulation  |                                                 |
\*---------------------------------------------------------------------------*/
FoamFile
{
    version     2.0;
    format      ascii;
    class       volScalarField;
    location    "7000";
    object      pMean;
}
// * * * * * * * * * * * * * * * * * * * * * * * * * * * * * * * * * * * * * //

dimensions      [1 -1 -2 0 0 0 0];


internalField   nonuniform List<scalar> 
55713
(
1.0000325
1.0000325
1.0000325
1.0000325
1.0000325
1.0000325
1.0000325
1.0000325
1.0000325
1.0000325
1.0000325
1.0000325
1.0000325
1.0000325
1.0000325
1.0000325
1.0000325
1.0000325
1.0000325
1.0000325
1.0000325
1.0000325
1.0000325
1.0000325
1.0000325
1.0000325
1.0000325
1.0000325
1.0000325
1.0000325
1.0000325
1.0000325
1.0000325
1.0000325
1.0000325
1.0000325
1.0000325
1.0000325
1.0000325
1.0000325
1.0000325
1.0000325
1.0000325
1.0000325
1.0000325
1.0000325
1.0000325
1.0000325
1.0000325
1.0000325
1.0000325
1.0000325
1.0000325
1.0000325
1.0000325
1.0000325
1.0000325
1.0000325
1.0000325
1.0000303
1.0000303
1.0000303
1.0000303
1.0000304
1.0000304
1.0000304
1.0000304
1.0000304
1.0000304
1.0000304
1.0000304
1.0000304
1.0000304
1.0000304
1.0000304
1.0000304
1.0000304
1.0000304
1.0000304
1.0000304
1.0000304
1.0000304
1.0000304
1.0000304
1.0000304
1.0000304
1.0000304
1.0000304
1.0000304
1.0000304
1.0000304
1.0000304
1.0000304
1.0000304
1.0000304
1.0000304
1.0000304
1.0000304
1.0000304
1.0000304
1.0000304
1.0000304
1.0000304
1.0000304
1.0000304
1.0000304
1.0000304
1.0000304
1.0000304
1.0000304
1.0000304
1.0000304
1.0000304
1.0000304
1.0000304
1.0000304
1.0000304
1.0000304
1.0000285
1.0000285
1.0000285
1.0000285
1.0000285
1.0000285
1.0000285
1.0000285
1.0000285
1.0000285
1.0000285
1.0000285
1.0000285
1.0000285
1.0000285
1.0000285
1.0000285
1.0000285
1.0000285
1.0000285
1.0000285
1.0000285
1.0000285
1.0000285
1.0000285
1.0000285
1.0000285
1.0000285
1.0000285
1.0000285
1.0000285
1.0000285
1.0000285
1.0000285
1.0000285
1.0000285
1.0000286
1.0000286
1.0000286
1.0000286
1.0000286
1.0000286
1.0000286
1.0000286
1.0000286
1.0000286
1.0000286
1.0000286
1.0000286
1.0000286
1.0000286
1.0000286
1.0000286
1.0000286
1.0000286
1.0000286
1.0000286
1.0000286
1.0000286
1.0000269
1.0000269
1.0000269
1.0000269
1.0000269
1.0000269
1.0000269
1.0000269
1.0000269
1.0000269
1.0000269
1.0000269
1.0000269
1.0000269
1.0000269
1.0000269
1.0000269
1.0000269
1.0000269
1.0000269
1.0000269
1.0000269
1.0000269
1.0000269
1.0000269
1.0000269
1.0000269
1.0000269
1.0000269
1.0000269
1.0000269
1.0000269
1.0000269
1.000027
1.000027
1.000027
1.000027
1.000027
1.000027
1.000027
1.000027
1.000027
1.000027
1.000027
1.000027
1.000027
1.000027
1.000027
1.000027
1.000027
1.000027
1.000027
1.000027
1.000027
1.000027
1.000027
1.000027
1.000027
1.000027
1.0000255
1.0000255
1.0000255
1.0000255
1.0000255
1.0000255
1.0000255
1.0000255
1.0000255
1.0000255
1.0000255
1.0000255
1.0000255
1.0000255
1.0000255
1.0000255
1.0000256
1.0000256
1.0000256
1.0000256
1.0000256
1.0000256
1.0000256
1.0000256
1.0000256
1.0000256
1.0000256
1.0000256
1.0000256
1.0000256
1.0000256
1.0000256
1.0000256
1.0000256
1.0000256
1.0000256
1.0000256
1.0000256
1.0000256
1.0000256
1.0000256
1.0000256
1.0000256
1.0000256
1.0000256
1.0000256
1.0000256
1.0000256
1.0000256
1.0000256
1.0000256
1.0000256
1.0000256
1.0000256
1.0000256
1.0000256
1.0000256
1.0000256
1.0000256
1.0000243
1.0000243
1.0000243
1.0000243
1.0000244
1.0000244
1.0000244
1.0000244
1.0000244
1.0000244
1.0000244
1.0000244
1.0000244
1.0000244
1.0000244
1.0000244
1.0000244
1.0000244
1.0000244
1.0000244
1.0000244
1.0000244
1.0000244
1.0000244
1.0000244
1.0000244
1.0000244
1.0000244
1.0000244
1.0000244
1.0000244
1.0000244
1.0000244
1.0000244
1.0000244
1.0000244
1.0000244
1.0000244
1.0000244
1.0000244
1.0000244
1.0000244
1.0000244
1.0000244
1.0000244
1.0000244
1.0000244
1.0000244
1.0000244
1.0000244
1.0000244
1.0000244
1.0000244
1.0000244
1.0000244
1.0000244
1.0000244
1.0000244
1.0000244
1.0000233
1.0000233
1.0000233
1.0000233
1.0000233
1.0000233
1.0000233
1.0000233
1.0000233
1.0000233
1.0000233
1.0000233
1.0000233
1.0000233
1.0000233
1.0000233
1.0000233
1.0000233
1.0000233
1.0000233
1.0000233
1.0000233
1.0000233
1.0000233
1.0000233
1.0000233
1.0000233
1.0000233
1.0000233
1.0000233
1.0000233
1.0000233
1.0000233
1.0000233
1.0000233
1.0000233
1.0000233
1.0000233
1.0000233
1.0000233
1.0000233
1.0000233
1.0000233
1.0000233
1.0000233
1.0000234
1.0000234
1.0000234
1.0000234
1.0000234
1.0000234
1.0000234
1.0000234
1.0000234
1.0000234
1.0000234
1.0000234
1.0000234
1.0000234
1.0000223
1.0000223
1.0000224
1.0000224
1.0000224
1.0000224
1.0000224
1.0000224
1.0000224
1.0000224
1.0000224
1.0000224
1.0000224
1.0000224
1.0000224
1.0000224
1.0000224
1.0000224
1.0000224
1.0000224
1.0000224
1.0000224
1.0000224
1.0000224
1.0000224
1.0000224
1.0000224
1.0000224
1.0000224
1.0000224
1.0000224
1.0000224
1.0000224
1.0000224
1.0000224
1.0000224
1.0000224
1.0000224
1.0000224
1.0000224
1.0000224
1.0000224
1.0000224
1.0000224
1.0000224
1.0000224
1.0000224
1.0000224
1.0000224
1.0000224
1.0000224
1.0000224
1.0000224
1.0000224
1.0000224
1.0000224
1.0000224
1.0000224
1.0000224
1.0000219
1.0000219
1.0000219
1.0000219
1.0000219
1.0000219
1.0000219
1.0000219
1.0000219
1.0000219
1.0000219
1.0000219
1.0000219
1.0000219
1.0000219
1.0000219
1.0000219
1.0000219
1.0000219
1.0000219
1.0000219
1.0000219
1.0000219
1.0000219
1.0000219
1.0000219
1.0000219
1.0000219
1.0000219
1.0000219
1.0000219
1.0000219
1.0000219
1.0000219
1.0000219
1.0000219
1.0000219
1.0000219
1.0000219
1.0000219
1.0000219
1.0000219
1.0000219
1.0000219
1.0000219
1.0000219
1.0000219
1.0000219
1.0000219
1.0000219
1.0000219
1.0000219
1.0000219
1.0000219
1.0000219
1.0000219
1.0000219
1.0000219
1.0000219
1.0000215
1.0000215
1.0000215
1.0000215
1.0000215
1.0000215
1.0000215
1.0000215
1.0000215
1.0000215
1.0000215
1.0000215
1.0000215
1.0000215
1.0000215
1.0000215
1.0000215
1.0000215
1.0000215
1.0000215
1.0000215
1.0000215
1.0000215
1.0000215
1.0000215
1.0000215
1.0000215
1.0000215
1.0000215
1.0000215
1.0000215
1.0000215
1.0000215
1.0000215
1.0000215
1.0000215
1.0000215
1.0000215
1.0000215
1.0000215
1.0000215
1.0000215
1.0000215
1.0000215
1.0000215
1.0000215
1.0000215
1.0000215
1.0000215
1.0000215
1.0000215
1.0000216
1.0000216
1.0000216
1.0000216
1.0000216
1.0000216
1.0000216
1.0000216
1.0000195
1.0000195
1.0000195
1.0000195
1.0000195
1.0000195
1.0000195
1.0000195
1.0000195
1.0000195
1.0000195
1.0000195
1.0000196
1.0000196
1.0000196
1.0000196
1.0000196
1.0000196
1.0000196
1.0000196
1.0000196
1.0000196
1.0000196
1.0000196
1.0000196
1.0000196
1.0000196
1.0000196
1.0000196
1.0000196
1.0000196
1.0000196
1.0000196
1.0000196
1.0000196
1.0000196
1.0000196
1.0000196
1.0000196
1.0000196
1.0000196
1.0000196
1.0000196
1.0000196
1.0000196
1.0000196
1.0000196
1.0000196
1.0000196
1.0000196
1.0000196
1.0000196
1.0000196
1.0000196
1.0000196
1.0000196
1.0000196
1.0000196
1.0000195
1.0000195
1.0000194
1.0000194
1.0000194
1.0000194
1.0000194
1.0000194
1.0000194
1.0000194
1.0000194
1.0000194
1.0000194
1.0000194
1.0000193
1.0000193
1.0000193
1.0000193
1.0000193
1.0000193
1.0000193
1.0000193
1.0000193
1.0000193
1.0000193
1.0000193
1.0000193
1.0000193
1.0000193
1.0000193
1.0000193
1.0000193
1.0000193
1.0000193
1.0000193
1.0000193
1.0000193
1.0000193
1.0000193
1.0000193
1.0000193
1.0000192
1.0000192
1.0000192
1.0000192
1.0000192
1.0000192
1.0000192
1.0000192
1.0000192
1.0000192
1.0000192
1.0000192
1.0000192
1.0000192
1.0000192
1.0000192
1.0000192
1.0000192
1.0000192
1.0000294
1.0000294
1.0000294
1.0000294
1.0000294
1.0000294
1.0000294
1.0000294
1.0000294
1.0000294
1.0000294
1.0000293
1.0000293
1.0000293
1.0000293
1.0000293
1.0000293
1.0000293
1.0000293
1.0000293
1.0000293
1.0000293
1.0000293
1.0000293
1.0000293
1.0000293
1.0000293
1.0000293
1.0000293
1.0000293
1.0000293
1.0000293
1.0000293
1.0000293
1.0000293
1.0000293
1.0000293
1.0000293
1.0000293
1.0000293
1.0000293
1.0000293
1.0000293
1.0000293
1.0000293
1.0000293
1.0000293
1.0000293
1.0000293
1.0000293
1.0000293
1.0000293
1.0000293
1.0000293
1.0000293
1.0000293
1.0000293
1.0000293
1.0000294
1.0000187
1.0000187
1.0000187
1.0000187
1.0000187
1.0000187
1.0000187
1.0000187
1.0000187
1.0000187
1.0000187
1.0000187
1.0000187
1.0000187
1.0000187
1.0000188
1.0000188
1.0000188
1.0000188
1.0000188
1.0000188
1.0000188
1.0000188
1.0000188
1.0000188
1.0000188
1.0000188
1.0000188
1.0000188
1.0000188
1.0000188
1.0000188
1.0000188
1.0000188
1.0000188
1.0000188
1.0000188
1.0000188
1.0000188
1.0000188
1.0000188
1.0000188
1.0000188
1.0000188
1.0000188
1.0000188
1.0000188
1.0000188
1.0000188
1.0000188
1.0000188
1.0000188
1.0000188
1.0000188
1.0000188
1.0000188
1.0000188
1.0000187
1.0000187
1.0001236
1.0001236
1.0001237
1.0001237
1.0001238
1.0001238
1.0001238
1.0001239
1.0001239
1.0001239
1.000124
1.000124
1.000124
1.0001241
1.0001241
1.0001241
1.0001242
1.0001242
1.0001242
1.0001243
1.0001243
1.0001243
1.0001244
1.0001244
1.0001244
1.0001244
1.0001245
1.0001245
1.0001245
1.0001245
1.0001246
1.0001246
1.0001246
1.0001246
1.0001246
1.0001247
1.0001247
1.0001247
1.0001247
1.0001247
1.0001247
1.0001247
1.0001248
1.0001248
1.0001248
1.0001248
1.0001248
1.0001248
1.0001248
1.0001248
1.0001248
1.0001248
1.0001248
1.0001248
1.0001248
1.0001248
1.0001248
1.0001248
1.0001248
1.0001133
1.0001133
1.0001133
1.0001133
1.0001134
1.0001134
1.0001134
1.0001135
1.0001135
1.0001135
1.0001136
1.0001136
1.0001136
1.0001137
1.0001137
1.0001137
1.0001137
1.0001138
1.0001138
1.0001138
1.0001138
1.0001139
1.0001139
1.0001139
1.0001139
1.0001139
1.000114
1.000114
1.000114
1.000114
1.000114
1.0001141
1.0001141
1.0001141
1.0001141
1.0001141
1.0001141
1.0001141
1.0001142
1.0001142
1.0001142
1.0001142
1.0001142
1.0001142
1.0001142
1.0001142
1.0001142
1.0001142
1.0001143
1.0001143
1.0001143
1.0001143
1.0001143
1.0001143
1.0001143
1.0001143
1.0001143
1.0001143
1.0001143
1.0001036
1.0001036
1.0001037
1.0001037
1.0001037
1.0001037
1.0001038
1.0001038
1.0001038
1.0001038
1.0001039
1.0001039
1.0001039
1.0001039
1.000104
1.000104
1.000104
1.000104
1.000104
1.0001041
1.0001041
1.0001041
1.0001041
1.0001041
1.0001042
1.0001042
1.0001042
1.0001042
1.0001042
1.0001042
1.0001042
1.0001043
1.0001043
1.0001043
1.0001043
1.0001043
1.0001043
1.0001043
1.0001043
1.0001044
1.0001044
1.0001044
1.0001044
1.0001044
1.0001044
1.0001044
1.0001044
1.0001044
1.0001044
1.0001044
1.0001044
1.0001044
1.0001044
1.0001044
1.0001044
1.0001044
1.0001044
1.0001044
1.0001044
1.0000946
1.0000946
1.0000946
1.0000946
1.0000947
1.0000947
1.0000947
1.0000947
1.0000948
1.0000948
1.0000948
1.0000948
1.0000948
1.0000948
1.0000949
1.0000949
1.0000949
1.0000949
1.0000949
1.0000949
1.000095
1.000095
1.000095
1.000095
1.000095
1.000095
1.000095
1.0000951
1.0000951
1.0000951
1.0000951
1.0000951
1.0000951
1.0000951
1.0000951
1.0000952
1.0000952
1.0000952
1.0000952
1.0000952
1.0000952
1.0000952
1.0000952
1.0000952
1.0000952
1.0000952
1.0000952
1.0000952
1.0000952
1.0000952
1.0000952
1.0000952
1.0000953
1.0000953
1.0000953
1.0000953
1.0000953
1.0000953
1.0000953
1.0000862
1.0000862
1.0000862
1.0000862
1.0000863
1.0000863
1.0000863
1.0000863
1.0000863
1.0000863
1.0000864
1.0000864
1.0000864
1.0000864
1.0000864
1.0000864
1.0000864
1.0000865
1.0000865
1.0000865
1.0000865
1.0000865
1.0000865
1.0000865
1.0000865
1.0000866
1.0000866
1.0000866
1.0000866
1.0000866
1.0000866
1.0000866
1.0000866
1.0000866
1.0000866
1.0000866
1.0000867
1.0000867
1.0000867
1.0000867
1.0000867
1.0000867
1.0000867
1.0000867
1.0000867
1.0000867
1.0000867
1.0000867
1.0000867
1.0000867
1.0000867
1.0000867
1.0000867
1.0000867
1.0000867
1.0000867
1.0000867
1.0000867
1.0000867
1.0000784
1.0000784
1.0000784
1.0000784
1.0000785
1.0000785
1.0000785
1.0000785
1.0000785
1.0000785
1.0000785
1.0000785
1.0000786
1.0000786
1.0000786
1.0000786
1.0000786
1.0000786
1.0000786
1.0000786
1.0000786
1.0000787
1.0000787
1.0000787
1.0000787
1.0000787
1.0000787
1.0000787
1.0000787
1.0000787
1.0000787
1.0000787
1.0000787
1.0000788
1.0000788
1.0000788
1.0000788
1.0000788
1.0000788
1.0000788
1.0000788
1.0000788
1.0000788
1.0000788
1.0000788
1.0000788
1.0000788
1.0000788
1.0000788
1.0000788
1.0000788
1.0000788
1.0000788
1.0000788
1.0000788
1.0000788
1.0000788
1.0000788
1.0000788
1.0000712
1.0000712
1.0000712
1.0000712
1.0000712
1.0000713
1.0000713
1.0000713
1.0000713
1.0000713
1.0000713
1.0000713
1.0000713
1.0000713
1.0000713
1.0000714
1.0000714
1.0000714
1.0000714
1.0000714
1.0000714
1.0000714
1.0000714
1.0000714
1.0000714
1.0000714
1.0000714
1.0000714
1.0000714
1.0000715
1.0000715
1.0000715
1.0000715
1.0000715
1.0000715
1.0000715
1.0000715
1.0000715
1.0000715
1.0000715
1.0000715
1.0000715
1.0000715
1.0000715
1.0000715
1.0000715
1.0000715
1.0000715
1.0000715
1.0000715
1.0000715
1.0000715
1.0000715
1.0000715
1.0000715
1.0000715
1.0000715
1.0000715
1.0000715
1.0000645
1.0000646
1.0000646
1.0000646
1.0000646
1.0000646
1.0000646
1.0000646
1.0000646
1.0000646
1.0000646
1.0000646
1.0000647
1.0000647
1.0000647
1.0000647
1.0000647
1.0000647
1.0000647
1.0000647
1.0000647
1.0000647
1.0000647
1.0000647
1.0000647
1.0000647
1.0000647
1.0000647
1.0000648
1.0000648
1.0000648
1.0000648
1.0000648
1.0000648
1.0000648
1.0000648
1.0000648
1.0000648
1.0000648
1.0000648
1.0000648
1.0000648
1.0000648
1.0000648
1.0000648
1.0000648
1.0000648
1.0000648
1.0000648
1.0000648
1.0000648
1.0000648
1.0000648
1.0000648
1.0000648
1.0000648
1.0000648
1.0000648
1.0000648
1.0000584
1.0000584
1.0000585
1.0000585
1.0000585
1.0000585
1.0000585
1.0000585
1.0000585
1.0000585
1.0000585
1.0000585
1.0000585
1.0000585
1.0000585
1.0000585
1.0000586
1.0000586
1.0000586
1.0000586
1.0000586
1.0000586
1.0000586
1.0000586
1.0000586
1.0000586
1.0000586
1.0000586
1.0000586
1.0000586
1.0000586
1.0000586
1.0000586
1.0000586
1.0000586
1.0000586
1.0000586
1.0000586
1.0000586
1.0000586
1.0000586
1.0000586
1.0000586
1.0000587
1.0000587
1.0000587
1.0000587
1.0000587
1.0000587
1.0000587
1.0000587
1.0000587
1.0000587
1.0000587
1.0000587
1.0000587
1.0000587
1.0000587
1.0000587
1.0000528
1.0000529
1.0000529
1.0000529
1.0000529
1.0000529
1.0000529
1.0000529
1.0000529
1.0000529
1.0000529
1.0000529
1.0000529
1.0000529
1.0000529
1.0000529
1.0000529
1.0000529
1.0000529
1.000053
1.000053
1.000053
1.000053
1.000053
1.000053
1.000053
1.000053
1.000053
1.000053
1.000053
1.000053
1.000053
1.000053
1.000053
1.000053
1.000053
1.000053
1.000053
1.000053
1.000053
1.000053
1.000053
1.000053
1.000053
1.000053
1.000053
1.000053
1.000053
1.000053
1.000053
1.000053
1.000053
1.000053
1.000053
1.000053
1.000053
1.000053
1.000053
1.000053
1.0000478
1.0000478
1.0000478
1.0000478
1.0000478
1.0000478
1.0000478
1.0000478
1.0000478
1.0000478
1.0000478
1.0000478
1.0000478
1.0000478
1.0000478
1.0000478
1.0000478
1.0000478
1.0000478
1.0000478
1.0000478
1.0000478
1.0000478
1.0000478
1.0000478
1.0000479
1.0000479
1.0000479
1.0000479
1.0000479
1.0000479
1.0000479
1.0000479
1.0000479
1.0000479
1.0000479
1.0000479
1.0000479
1.0000479
1.0000479
1.0000479
1.0000479
1.0000479
1.0000479
1.0000479
1.0000479
1.0000479
1.0000479
1.0000479
1.0000479
1.0000479
1.0000479
1.0000479
1.0000479
1.0000479
1.0000479
1.0000479
1.0000479
1.0000479
1.0000431
1.0000431
1.0000431
1.0000431
1.0000431
1.0000431
1.0000431
1.0000431
1.0000431
1.0000431
1.0000432
1.0000432
1.0000432
1.0000432
1.0000432
1.0000432
1.0000432
1.0000432
1.0000432
1.0000432
1.0000432
1.0000432
1.0000432
1.0000432
1.0000432
1.0000432
1.0000432
1.0000432
1.0000432
1.0000432
1.0000432
1.0000432
1.0000432
1.0000432
1.0000432
1.0000432
1.0000432
1.0000432
1.0000432
1.0000432
1.0000432
1.0000432
1.0000432
1.0000432
1.0000432
1.0000432
1.0000432
1.0000432
1.0000432
1.0000432
1.0000432
1.0000432
1.0000432
1.0000432
1.0000432
1.0000432
1.0000432
1.0000432
1.0000432
1.0000389
1.0000389
1.0000389
1.0000389
1.0000389
1.0000389
1.0000389
1.0000389
1.0000389
1.0000389
1.0000389
1.0000389
1.0000389
1.0000389
1.0000389
1.000039
1.000039
1.000039
1.000039
1.000039
1.000039
1.000039
1.000039
1.000039
1.000039
1.000039
1.000039
1.000039
1.000039
1.000039
1.000039
1.000039
1.000039
1.000039
1.000039
1.000039
1.000039
1.000039
1.000039
1.000039
1.000039
1.000039
1.000039
1.000039
1.000039
1.000039
1.000039
1.000039
1.000039
1.000039
1.000039
1.000039
1.000039
1.000039
1.000039
1.000039
1.000039
1.000039
1.000039
1.0000352
1.0000352
1.0000352
1.0000352
1.0000352
1.0000352
1.0000353
1.0000353
1.0000353
1.0000353
1.0000353
1.0000353
1.0000353
1.0000353
1.0000353
1.0000353
1.0000353
1.0000353
1.0000353
1.0000353
1.0000353
1.0000353
1.0000353
1.0000353
1.0000353
1.0000353
1.0000353
1.0000353
1.0000353
1.0000353
1.0000353
1.0000353
1.0000353
1.0000353
1.0000353
1.0000353
1.0000353
1.0000353
1.0000353
1.0000353
1.0000353
1.0000353
1.0000353
1.0000353
1.0000353
1.0000353
1.0000353
1.0000353
1.0000353
1.0000353
1.0000353
1.0000353
1.0000353
1.0000353
1.0000353
1.0000353
1.0000353
1.0000353
1.0000353
1.0001373
1.0001526
1.0001696
1.0001882
1.0002086
1.0002307
1.0002549
1.0002811
1.0003094
1.0003399
1.0003727
1.0004078
1.0004452
1.0004848
1.0005265
1.0005701
1.0006154
1.0006619
1.0007091
1.0007565
1.0008033
1.0008485
1.0008912
1.0009302
1.0009644
1.0009925
1.0010132
1.0010255
1.0010284
1.0010211
1.001003
1.0009741
1.0009343
1.0008841
1.0008242
1.0007556
1.0006795
1.0005969
1.000509
1.0004172
1.0003228
1.0002269
1.0001305
1.0000345
0.99993988
0.99984714
0.99975666
0.99966884
0.99958419
0.99950296
0.99942529
0.99935126
0.99928087
0.99921418
0.99915124
0.99909191
0.99903601
0.99898345
0.99893412
0.99888786
0.99884452
0.99880396
0.99876606
0.99873068
0.99869769
0.99866693
0.99863827
0.99861159
0.99858675
0.99856364
0.99854214
0.99852214
0.99850356
0.99848625
1.0001373
1.0001526
1.0001696
1.0001882
1.0002086
1.0002307
1.0002549
1.0002811
1.0003094
1.0003399
1.0003727
1.0004078
1.0004452
1.0004848
1.0005265
1.0005701
1.0006154
1.0006619
1.0007091
1.0007565
1.0008033
1.0008485
1.0008912
1.0009302
1.0009644
1.0009925
1.0010132
1.0010255
1.0010284
1.0010211
1.0010031
1.0009741
1.0009343
1.0008841
1.0008242
1.0007556
1.0006795
1.0005968
1.000509
1.0004172
1.0003228
1.0002269
1.0001305
1.0000345
0.99993985
0.99984712
0.99975664
0.99966883
0.99958417
0.99950294
0.99942527
0.99935123
0.99928084
0.99921415
0.99915121
0.99909189
0.999036
0.99898343
0.9989341
0.99888784
0.99884449
0.99880392
0.99876601
0.99873064
0.99869764
0.99866689
0.99863823
0.99861155
0.99858672
0.9985636
0.99854211
0.9985221
0.99850353
0.99848621
1.0001373
1.0001526
1.0001696
1.0001882
1.0002086
1.0002307
1.0002549
1.0002811
1.0003094
1.0003399
1.0003727
1.0004078
1.0004452
1.0004848
1.0005265
1.0005701
1.0006154
1.0006619
1.0007091
1.0007565
1.0008033
1.0008485
1.0008912
1.0009302
1.0009644
1.0009925
1.0010132
1.0010255
1.0010285
1.0010211
1.0010031
1.0009742
1.0009343
1.0008841
1.0008243
1.0007557
1.0006795
1.0005969
1.000509
1.0004173
1.0003229
1.000227
1.0001305
1.0000345
0.99993987
0.99984711
0.99975663
0.99966882
0.99958417
0.99950294
0.99942527
0.99935124
0.99928084
0.99921414
0.99915119
0.99909187
0.99903599
0.99898343
0.99893411
0.99888787
0.99884453
0.99880397
0.99876607
0.99873069
0.9986977
0.99866694
0.99863829
0.99861161
0.99858678
0.99856367
0.99854218
0.99852217
0.9985036
0.99848626
1.0001373
1.0001526
1.0001696
1.0001882
1.0002086
1.0002307
1.0002549
1.000281
1.0003094
1.0003399
1.0003727
1.0004078
1.0004452
1.0004848
1.0005265
1.0005701
1.0006154
1.0006619
1.0007091
1.0007565
1.0008033
1.0008485
1.0008912
1.0009302
1.0009644
1.0009925
1.0010132
1.0010255
1.0010285
1.0010212
1.0010031
1.0009742
1.0009344
1.0008842
1.0008243
1.0007557
1.0006796
1.0005969
1.0005091
1.0004173
1.0003229
1.000227
1.0001306
1.0000346
0.99993994
0.99984717
0.99975668
0.99966889
0.99958424
0.99950301
0.99942533
0.99935129
0.99928091
0.99921423
0.99915128
0.99909193
0.99903603
0.99898346
0.99893412
0.99888785
0.9988445
0.99880394
0.99876605
0.99873068
0.99869769
0.99866694
0.99863829
0.99861162
0.99858679
0.99856368
0.99854219
0.99852219
0.99850361
0.99848636
1.0001373
1.0001526
1.0001696
1.0001882
1.0002086
1.0002307
1.0002549
1.000281
1.0003094
1.0003399
1.0003727
1.0004078
1.0004451
1.0004847
1.0005265
1.0005701
1.0006154
1.0006619
1.0007091
1.0007565
1.0008033
1.0008485
1.0008912
1.0009302
1.0009644
1.0009925
1.0010132
1.0010256
1.0010286
1.0010212
1.0010032
1.0009743
1.0009345
1.0008843
1.0008245
1.0007559
1.0006797
1.0005971
1.0005092
1.0004175
1.0003231
1.0002272
1.0001307
1.0000348
0.99994008
0.99984729
0.9997568
0.99966901
0.99958436
0.99950313
0.99942545
0.99935141
0.99928103
0.99921435
0.99915138
0.99909202
0.99903612
0.99898355
0.99893421
0.99888795
0.99884462
0.99880407
0.99876619
0.99873082
0.99869784
0.99866709
0.99863845
0.99861177
0.99858695
0.99856385
0.99854236
0.99852237
0.9985038
0.99848652
1.0001373
1.0001526
1.0001696
1.0001882
1.0002085
1.0002307
1.0002549
1.000281
1.0003093
1.0003399
1.0003727
1.0004078
1.0004451
1.0004847
1.0005264
1.0005701
1.0006153
1.0006618
1.0007091
1.0007565
1.0008033
1.0008485
1.0008912
1.0009303
1.0009644
1.0009926
1.0010133
1.0010256
1.0010286
1.0010213
1.0010033
1.0009744
1.0009347
1.0008845
1.0008247
1.0007561
1.0006799
1.0005973
1.0005095
1.0004177
1.0003233
1.0002274
1.000131
1.000035
0.99994031
0.9998475
0.999757
0.99966921
0.99958457
0.99950334
0.99942565
0.99935161
0.99928124
0.99921456
0.99915159
0.99909221
0.9990363
0.99898372
0.99893437
0.99888809
0.99884476
0.99880421
0.99876632
0.99873096
0.99869798
0.99866723
0.99863859
0.99861192
0.99858709
0.99856399
0.9985425
0.99852252
0.99850393
0.99848665
1.0001373
1.0001525
1.0001696
1.0001882
1.0002085
1.0002307
1.0002549
1.000281
1.0003093
1.0003399
1.0003727
1.0004077
1.0004451
1.0004847
1.0005264
1.0005701
1.0006153
1.0006618
1.0007091
1.0007565
1.0008032
1.0008485
1.0008912
1.0009303
1.0009645
1.0009926
1.0010133
1.0010257
1.0010287
1.0010215
1.0010035
1.0009746
1.0009349
1.0008848
1.0008249
1.0007564
1.0006802
1.0005976
1.0005098
1.0004181
1.0003237
1.0002278
1.0001313
1.0000354
0.99994066
0.99984783
0.99975732
0.99966953
0.99958489
0.99950365
0.99942596
0.99935191
0.99928154
0.99921487
0.99915188
0.99909249
0.99903656
0.99898397
0.99893461
0.99888834
0.99884501
0.99880447
0.9987666
0.99873125
0.99869827
0.99866753
0.99863889
0.99861222
0.9985874
0.9985643
0.99854282
0.99852283
0.99850425
0.99848695
1.0001373
1.0001525
1.0001696
1.0001882
1.0002085
1.0002307
1.0002548
1.000281
1.0003093
1.0003398
1.0003726
1.0004077
1.0004451
1.0004847
1.0005264
1.00057
1.0006153
1.0006618
1.0007091
1.0007565
1.0008032
1.0008485
1.0008912
1.0009303
1.0009645
1.0009927
1.0010134
1.0010258
1.0010289
1.0010217
1.0010037
1.0009749
1.0009352
1.0008851
1.0008253
1.0007568
1.0006807
1.0005981
1.0005103
1.0004186
1.0003242
1.0002283
1.0001319
1.0000359
0.99994116
0.99984831
0.99975779
0.99967
0.99958536
0.99950411
0.99942641
0.99935236
0.99928199
0.99921532
0.99915232
0.99909291
0.99903697
0.99898438
0.99893501
0.99888873
0.99884539
0.99880485
0.99876697
0.99873162
0.99869863
0.99866789
0.99863925
0.99861258
0.99858775
0.99856465
0.99854316
0.99852317
0.99850458
0.99848728
1.0001373
1.0001525
1.0001696
1.0001882
1.0002085
1.0002307
1.0002548
1.000281
1.0003093
1.0003398
1.0003726
1.0004077
1.0004451
1.0004847
1.0005264
1.00057
1.0006153
1.0006618
1.000709
1.0007564
1.0008032
1.0008485
1.0008912
1.0009303
1.0009646
1.0009927
1.0010136
1.001026
1.0010291
1.0010219
1.0010041
1.0009753
1.0009357
1.0008856
1.0008259
1.0007574
1.0006813
1.0005988
1.000511
1.0004193
1.0003249
1.000229
1.0001326
1.0000366
0.99994188
0.99984901
0.99975847
0.99967068
0.99958603
0.99950477
0.99942707
0.99935301
0.99928263
0.99921595
0.99915294
0.99909351
0.99903755
0.99898495
0.99893557
0.99888928
0.99884594
0.9988054
0.99876753
0.99873218
0.9986992
0.99866846
0.99863982
0.99861315
0.99858833
0.99856523
0.99854374
0.99852374
0.99850515
0.99848785
1.0001373
1.0001525
1.0001696
1.0001882
1.0002085
1.0002307
1.0002548
1.000281
1.0003093
1.0003398
1.0003726
1.0004077
1.000445
1.0004846
1.0005263
1.00057
1.0006152
1.0006617
1.000709
1.0007564
1.0008032
1.0008485
1.0008912
1.0009303
1.0009646
1.0009928
1.0010137
1.0010262
1.0010294
1.0010223
1.0010045
1.0009758
1.0009363
1.0008863
1.0008266
1.0007582
1.0006822
1.0005997
1.0005119
1.0004202
1.0003259
1.00023
1.0001336
1.0000376
0.99994288
0.99984999
0.99975943
0.99967164
0.99958698
0.99950571
0.99942799
0.99935392
0.99928353
0.99921684
0.99915381
0.99909436
0.99903839
0.99898577
0.99893638
0.99889008
0.99884673
0.99880619
0.99876831
0.99873295
0.99869997
0.99866922
0.99864058
0.9986139
0.99858907
0.99856596
0.99854446
0.99852446
0.99850586
0.99848855
1.0001373
1.0001525
1.0001695
1.0001882
1.0002085
1.0002307
1.0002548
1.000281
1.0003093
1.0003398
1.0003726
1.0004076
1.000445
1.0004846
1.0005263
1.0005699
1.0006152
1.0006617
1.000709
1.0007564
1.0008031
1.0008484
1.0008912
1.0009304
1.0009647
1.000993
1.0010139
1.0010265
1.0010298
1.0010227
1.0010051
1.0009765
1.000937
1.0008872
1.0008276
1.0007593
1.0006833
1.0006009
1.0005132
1.0004216
1.0003273
1.0002314
1.000135
1.000039
0.99994426
0.99985134
0.99976077
0.99967297
0.9995883
0.99950701
0.99942927
0.99935518
0.99928478
0.99921807
0.99915502
0.99909555
0.99903955
0.99898691
0.9989375
0.99889119
0.99884783
0.99880728
0.9987694
0.99873404
0.99870105
0.9986703
0.99864165
0.99861497
0.99859013
0.99856702
0.99854551
0.99852551
0.9985069
0.99848958
1.0001373
1.0001525
1.0001695
1.0001882
1.0002085
1.0002307
1.0002548
1.0002809
1.0003092
1.0003398
1.0003725
1.0004076
1.000445
1.0004846
1.0005263
1.0005699
1.0006151
1.0006616
1.0007089
1.0007563
1.0008031
1.0008484
1.0008912
1.0009304
1.0009648
1.0009932
1.0010141
1.0010268
1.0010302
1.0010233
1.0010058
1.0009774
1.0009381
1.0008884
1.000829
1.0007608
1.0006849
1.0006026
1.0005149
1.0004234
1.0003291
1.0002333
1.0001369
1.0000409
0.99994614
0.9998532
0.9997626
0.99967478
0.99959009
0.99950878
0.99943102
0.99935691
0.99928648
0.99921975
0.99915667
0.99909717
0.99904115
0.99898849
0.99893906
0.99889273
0.99884935
0.99880879
0.99877089
0.99873552
0.99870252
0.99867175
0.99864309
0.9986164
0.99859155
0.99856842
0.9985469
0.99852688
0.99850827
0.99849094
1.0001373
1.0001525
1.0001695
1.0001881
1.0002085
1.0002306
1.0002548
1.0002809
1.0003092
1.0003397
1.0003725
1.0004076
1.0004449
1.0004845
1.0005262
1.0005698
1.000615
1.0006616
1.0007088
1.0007562
1.0008031
1.0008484
1.0008912
1.0009305
1.0009649
1.0009934
1.0010145
1.0010273
1.0010309
1.0010241
1.0010068
1.0009786
1.0009395
1.00089
1.0008307
1.0007627
1.000687
1.0006048
1.0005173
1.0004258
1.0003316
1.0002358
1.0001394
1.0000434
0.99994866
0.99985569
0.99976508
0.99967723
0.99959251
0.99951118
0.99943338
0.99935924
0.99928878
0.99922202
0.9991589
0.99909937
0.99904331
0.99899062
0.99894116
0.99889481
0.99885141
0.99881083
0.99877291
0.99873752
0.9987045
0.99867372
0.99864504
0.99861834
0.99859347
0.99857033
0.9985488
0.99852876
0.99851013
0.99849278
1.0001373
1.0001525
1.0001695
1.0001881
1.0002084
1.0002306
1.0002547
1.0002809
1.0003092
1.0003397
1.0003724
1.0004075
1.0004449
1.0004844
1.0005261
1.0005697
1.000615
1.0006615
1.0007087
1.0007562
1.000803
1.0008483
1.0008912
1.0009305
1.0009651
1.0009936
1.0010149
1.0010279
1.0010316
1.0010251
1.001008
1.0009801
1.0009413
1.000892
1.0008331
1.0007653
1.0006897
1.0006077
1.0005203
1.0004289
1.0003348
1.0002391
1.0001428
1.0000468
0.99995201
0.99985903
0.99976838
0.99968051
0.99959575
0.99951437
0.99943654
0.99936235
0.99929185
0.99922504
0.99916189
0.99910231
0.99904621
0.99899348
0.99894398
0.9988976
0.99885417
0.99881356
0.99877561
0.99874019
0.99870715
0.99867635
0.99864765
0.99862092
0.99859604
0.99857287
0.99855132
0.99853127
0.99851262
0.99849526
1.0001373
1.0001525
1.0001695
1.0001881
1.0002084
1.0002306
1.0002547
1.0002808
1.0003091
1.0003396
1.0003724
1.0004074
1.0004448
1.0004843
1.000526
1.0005696
1.0006149
1.0006614
1.0007086
1.0007561
1.0008029
1.0008483
1.0008912
1.0009306
1.0009653
1.000994
1.0010154
1.0010286
1.0010326
1.0010264
1.0010097
1.000982
1.0009436
1.0008947
1.000836
1.0007686
1.0006933
1.0006115
1.0005243
1.0004331
1.0003391
1.0002434
1.0001472
1.0000512
0.99995644
0.99986343
0.99977275
0.99968483
0.99960004
0.99951861
0.99944072
0.99936647
0.99929592
0.99922905
0.99916584
0.9991062
0.99905005
0.99899727
0.99894773
0.99890129
0.99885782
0.99881717
0.99877919
0.99874373
0.99871066
0.99867982
0.99865109
0.99862433
0.99859942
0.99857623
0.99855465
0.99853457
0.99851589
0.99849851
1.0001372
1.0001525
1.0001695
1.0001881
1.0002084
1.0002306
1.0002547
1.0002808
1.0003091
1.0003396
1.0003723
1.0004074
1.0004447
1.0004842
1.0005259
1.0005695
1.0006147
1.0006612
1.0007085
1.0007559
1.0008028
1.0008482
1.0008912
1.0009307
1.0009655
1.0009944
1.001016
1.0010295
1.0010339
1.0010281
1.0010117
1.0009845
1.0009465
1.0008981
1.0008399
1.0007728
1.0006979
1.0006164
1.0005295
1.0004385
1.0003446
1.0002491
1.0001529
1.000057
0.99996222
0.99986918
0.99977847
0.99969051
0.99960565
0.99952416
0.9994462
0.99937188
0.99930125
0.99923432
0.99917103
0.99911132
0.9990551
0.99900225
0.99895265
0.99890615
0.99886263
0.99882192
0.99878389
0.99874839
0.99871527
0.99868439
0.99865562
0.99862883
0.99860388
0.99858066
0.99855905
0.99853894
0.99852024
0.99850282
1.0001372
1.0001524
1.0001694
1.0001881
1.0002084
1.0002305
1.0002546
1.0002808
1.000309
1.0003395
1.0003722
1.0004073
1.0004446
1.0004841
1.0005258
1.0005693
1.0006146
1.000661
1.0007083
1.0007558
1.0008027
1.0008482
1.0008912
1.0009308
1.0009658
1.0009949
1.0010168
1.0010307
1.0010355
1.0010302
1.0010143
1.0009877
1.0009503
1.0009024
1.0008448
1.0007782
1.0007038
1.0006227
1.0005361
1.0004454
1.0003518
1.0002564
1.0001603
1.0000645
0.99996971
0.99987666
0.9997859
0.99969788
0.99961295
0.99953138
0.99945333