/*--------------------------------*- C++ -*----------------------------------*\
| =========                 |                                                 |
| \\      /  F ield         | OpenFOAM: The Open Source CFD Toolbox           |
|  \\    /   O peration     | Version:  v2006                                 |
|   \\  /    A nd           | Website:  www.openfoam.com                      |
|    \\/     M anipulation  |                                                 |
\*---------------------------------------------------------------------------*/
FoamFile
{
    version     2.0;
    format      ascii;
    class       volScalarField;
    location    "7000";
    object      rho;
}
// * * * * * * * * * * * * * * * * * * * * * * * * * * * * * * * * * * * * * //

dimensions      [1 -3 0 0 0 0 0];


internalField   nonuniform List<scalar> 
55713
(
1.0000227
1.0000215
1.0000208
1.0000205
1.0000204
1.0000204
1.0000204
1.0000204
1.0000204
1.0000204
1.0000204
1.0000204
1.0000204
1.0000204
1.0000204
1.0000204
1.0000204
1.0000204
1.0000204
1.0000204
1.0000204
1.0000204
1.0000204
1.0000204
1.0000204
1.0000205
1.0000205
1.0000205
1.0000205
1.0000205
1.0000205
1.0000205
1.0000205
1.0000205
1.0000205
1.0000205
1.0000205
1.0000205
1.0000204
1.0000204
1.0000204
1.0000204
1.0000204
1.0000204
1.0000204
1.0000204
1.0000204
1.0000204
1.0000204
1.0000204
1.0000204
1.0000204
1.0000204
1.0000204
1.0000204
1.0000204
1.0000204
1.0000204
1.0000204
1.0000211
1.0000199
1.0000193
1.000019
1.000019
1.000019
1.000019
1.000019
1.000019
1.000019
1.000019
1.000019
1.000019
1.0000191
1.0000191
1.0000191
1.0000191
1.0000191
1.0000191
1.0000191
1.0000191
1.0000191
1.0000191
1.0000191
1.0000191
1.0000191
1.0000191
1.0000191
1.0000191
1.0000191
1.0000191
1.0000191
1.0000191
1.0000191
1.0000191
1.0000191
1.0000191
1.0000191
1.0000191
1.0000191
1.0000191
1.0000191
1.0000191
1.0000191
1.0000191
1.000019
1.000019
1.000019
1.000019
1.000019
1.000019
1.000019
1.000019
1.000019
1.000019
1.000019
1.000019
1.000019
1.000019
1.0000197
1.0000186
1.000018
1.0000178
1.0000178
1.0000178
1.0000178
1.0000178
1.0000178
1.0000178
1.0000178
1.0000178
1.0000179
1.0000179
1.0000179
1.0000179
1.0000179
1.0000179
1.0000179
1.0000179
1.0000179
1.0000179
1.0000179
1.0000179
1.0000179
1.0000179
1.0000179
1.0000179
1.0000179
1.0000179
1.0000179
1.0000179
1.0000179
1.0000179
1.0000179
1.0000179
1.0000179
1.0000179
1.0000179
1.0000179
1.0000179
1.0000179
1.0000179
1.0000179
1.0000179
1.0000179
1.0000179
1.0000178
1.0000179
1.0000179
1.0000179
1.0000179
1.0000179
1.0000178
1.0000178
1.0000178
1.0000178
1.0000178
1.0000178
1.0000184
1.0000174
1.0000169
1.0000168
1.0000167
1.0000168
1.0000168
1.0000168
1.0000168
1.0000168
1.0000168
1.0000168
1.0000168
1.0000168
1.0000168
1.0000168
1.0000168
1.0000168
1.0000168
1.0000168
1.0000168
1.0000168
1.0000168
1.0000168
1.0000169
1.0000169
1.0000169
1.0000169
1.0000169
1.0000169
1.0000169
1.0000169
1.0000169
1.0000169
1.0000169
1.0000169
1.0000169
1.0000169
1.0000169
1.0000168
1.0000168
1.0000168
1.0000168
1.0000169
1.0000168
1.0000168
1.0000168
1.0000168
1.0000168
1.0000168
1.0000168
1.0000168
1.0000168
1.0000168
1.0000168
1.0000168
1.0000168
1.0000168
1.0000168
1.0000173
1.0000164
1.0000159
1.0000158
1.0000158
1.0000159
1.0000159
1.0000159
1.0000159
1.0000159
1.0000159
1.0000159
1.0000159
1.0000159
1.0000159
1.0000159
1.0000159
1.0000159
1.0000159
1.0000159
1.0000159
1.0000159
1.0000159
1.0000159
1.000016
1.000016
1.000016
1.000016
1.000016
1.000016
1.000016
1.000016
1.000016
1.000016
1.000016
1.000016
1.000016
1.000016
1.000016
1.000016
1.0000159
1.0000159
1.0000159
1.000016
1.000016
1.0000159
1.0000159
1.0000159
1.0000159
1.0000159
1.0000159
1.0000159
1.0000159
1.0000159
1.0000159
1.0000159
1.0000159
1.0000159
1.0000159
1.0000164
1.0000155
1.0000151
1.0000151
1.0000151
1.0000151
1.0000151
1.0000151
1.0000151
1.0000151
1.0000151
1.0000151
1.0000151
1.0000151
1.0000151
1.0000151
1.0000152
1.0000152
1.0000152
1.0000152
1.0000151
1.0000152
1.0000152
1.0000152
1.0000152
1.0000152
1.0000152
1.0000152
1.0000152
1.0000152
1.0000152
1.0000152
1.0000152
1.0000152
1.0000152
1.0000152
1.0000152
1.0000152
1.0000152
1.0000152
1.0000152
1.0000152
1.0000152
1.0000152
1.0000152
1.0000152
1.0000152
1.0000151
1.0000151
1.0000152
1.0000152
1.0000152
1.0000152
1.0000152
1.0000151
1.0000151
1.0000151
1.0000151
1.0000151
1.0000155
1.0000147
1.0000144
1.0000144
1.0000144
1.0000144
1.0000144
1.0000144
1.0000144
1.0000144
1.0000144
1.0000144
1.0000144
1.0000144
1.0000144
1.0000144
1.0000145
1.0000145
1.0000145
1.0000144
1.0000144
1.0000145
1.0000145
1.0000145
1.0000145
1.0000145
1.0000145
1.0000145
1.0000145
1.0000145
1.0000145
1.0000145
1.0000145
1.0000145
1.0000145
1.0000145
1.0000145
1.0000145
1.0000145
1.0000145
1.0000145
1.0000145
1.0000145
1.0000145
1.0000145
1.0000145
1.0000145
1.0000145
1.0000145
1.0000145
1.0000145
1.0000145
1.0000145
1.0000145
1.0000144
1.0000144
1.0000144
1.0000144
1.0000144
1.0000148
1.000014
1.0000137
1.0000137
1.0000138
1.0000138
1.0000138
1.0000138
1.0000138
1.0000138
1.0000138
1.0000138
1.0000138
1.0000138
1.0000138
1.0000138
1.0000138
1.0000138
1.0000138
1.0000138
1.0000138
1.0000138
1.0000138
1.0000139
1.0000139
1.0000139
1.0000139
1.0000139
1.0000139
1.0000139
1.0000139
1.0000139
1.0000139
1.0000139
1.0000138
1.0000138
1.0000138
1.0000139
1.0000139
1.0000139
1.0000138
1.0000138
1.0000138
1.0000138
1.0000139
1.0000139
1.0000138
1.0000138
1.0000138
1.0000138
1.0000138
1.0000138
1.0000138
1.0000138
1.0000138
1.0000138
1.0000138
1.0000138
1.0000138
1.0000143
1.0000136
1.0000134
1.0000135
1.0000135
1.0000135
1.0000135
1.0000135
1.0000135
1.0000135
1.0000135
1.0000135
1.0000135
1.0000135
1.0000135
1.0000135
1.0000135
1.0000135
1.0000135
1.0000135
1.0000135
1.0000135
1.0000136
1.0000136
1.0000136
1.0000136
1.0000136
1.0000136
1.0000136
1.0000136
1.0000136
1.0000136
1.0000136
1.0000136
1.0000136
1.0000136
1.0000136
1.0000136
1.0000136
1.0000136
1.0000136
1.0000135
1.0000136
1.0000136
1.0000136
1.0000136
1.0000135
1.0000135
1.0000135
1.0000135
1.0000135
1.0000135
1.0000135
1.0000135
1.0000135
1.0000135
1.0000135
1.0000135
1.0000135
1.000014
1.0000133
1.0000132
1.0000132
1.0000133
1.0000133
1.0000133
1.0000133
1.0000133
1.0000133
1.0000133
1.0000133
1.0000133
1.0000133
1.0000133
1.0000133
1.0000133
1.0000133
1.0000133
1.0000133
1.0000133
1.0000133
1.0000134
1.0000134
1.0000134
1.0000134
1.0000134
1.0000134
1.0000134
1.0000134
1.0000134
1.0000134
1.0000134
1.0000134
1.0000134
1.0000134
1.0000134
1.0000134
1.0000134
1.0000134
1.0000134
1.0000134
1.0000134
1.0000134
1.0000134
1.0000134
1.0000134
1.0000133
1.0000133
1.0000133
1.0000133
1.0000134
1.0000134
1.0000133
1.0000134
1.0000133
1.0000133
1.0000133
1.0000133
1.0000123
1.0000117
1.0000117
1.0000117
1.0000117
1.0000118
1.0000118
1.0000117
1.0000118
1.0000118
1.0000118
1.0000118
1.0000118
1.0000118
1.0000118
1.0000118
1.0000118
1.0000118
1.0000118
1.0000118
1.0000118
1.0000119
1.0000119
1.0000119
1.0000119
1.0000119
1.0000119
1.0000119
1.0000119
1.0000119
1.0000119
1.0000119
1.0000119
1.0000119
1.0000119
1.0000119
1.0000118
1.0000118
1.0000119
1.0000119
1.0000119
1.0000119
1.0000118
1.0000118
1.0000119
1.0000119
1.0000119
1.0000118
1.0000118
1.0000118
1.0000118
1.0000118
1.0000118
1.0000118
1.0000118
1.0000117
1.0000117
1.0000118
1.0000118
1.0000123
1.0000115
1.0000118
1.0000116
1.0000117
1.0000118
1.0000116
1.0000116
1.0000117
1.0000118
1.0000118
1.0000117
1.0000117
1.0000117
1.0000118
1.0000118
1.0000118
1.0000117
1.0000117
1.0000117
1.0000118
1.0000118
1.0000118
1.0000118
1.0000118
1.0000118
1.0000118
1.0000118
1.0000118
1.0000118
1.0000118
1.0000118
1.0000118
1.0000118
1.0000118
1.0000117
1.0000117
1.0000117
1.0000117
1.0000117
1.0000117
1.0000118
1.0000117
1.0000117
1.0000117
1.0000117
1.0000117
1.0000117
1.0000116
1.0000116
1.0000117
1.0000116
1.0000117
1.0000115
1.0000116
1.0000116
1.0000113
1.0000116
1.0000116
1.0000201
1.0000196
1.0000199
1.0000196
1.0000199
1.0000199
1.0000196
1.0000199
1.0000198
1.0000198
1.0000198
1.0000197
1.0000197
1.0000198
1.0000198
1.0000198
1.0000197
1.0000197
1.0000197
1.0000197
1.0000197
1.0000198
1.0000198
1.0000198
1.0000198
1.0000198
1.0000198
1.0000198
1.0000198
1.0000198
1.0000198
1.0000198
1.0000198
1.0000198
1.0000198
1.0000197
1.0000197
1.0000197
1.0000197
1.0000197
1.0000198
1.0000198
1.0000198
1.0000198
1.0000197
1.0000198
1.0000198
1.0000198
1.0000198
1.0000197
1.0000198
1.0000197
1.0000198
1.0000198
1.0000197
1.0000199
1.0000196
1.0000198
1.0000198
1.0000113
1.0000124
1.0000119
1.0000124
1.0000118
1.0000116
1.0000121
1.000012
1.000012
1.000012
1.0000121
1.0000122
1.0000122
1.0000121
1.000012
1.000012
1.0000121
1.0000123
1.0000124
1.0000125
1.0000125
1.0000126
1.0000126
1.0000126
1.0000126
1.0000126
1.0000126
1.0000126
1.0000126
1.0000126
1.0000126
1.0000126
1.0000126
1.0000126
1.0000126
1.0000125
1.0000125
1.0000124
1.0000123
1.0000122
1.000012
1.0000119
1.0000118
1.0000118
1.0000116
1.0000115
1.0000118
1.0000119
1.0000119
1.0000118
1.0000117
1.0000117
1.0000115
1.0000118
1.0000119
1.0000119
1.0000124
1.0000115
1.0000115
1.0000788
1.0000788
1.0000789
1.0000789
1.0000789
1.0000789
1.000079
1.000079
1.000079
1.000079
1.0000791
1.0000791
1.0000791
1.0000791
1.0000791
1.0000792
1.0000792
1.0000792
1.0000792
1.0000793
1.0000793
1.0000793
1.0000793
1.0000794
1.0000794
1.0000794
1.0000794
1.0000794
1.0000794
1.0000795
1.0000795
1.0000795
1.0000795
1.0000795
1.0000795
1.0000795
1.0000795
1.0000795
1.0000795
1.0000795
1.0000795
1.0000795
1.0000795
1.0000795
1.0000796
1.0000796
1.0000796
1.0000796
1.0000796
1.0000796
1.0000796
1.0000796
1.0000797
1.00008
1.0000805
1.0000814
1.0000831
1.0000859
1.0000897
1.0000722
1.0000722
1.0000722
1.0000723
1.0000723
1.0000723
1.0000723
1.0000723
1.0000724
1.0000724
1.0000724
1.0000724
1.0000724
1.0000725
1.0000725
1.0000725
1.0000725
1.0000725
1.0000725
1.0000726
1.0000726
1.0000726
1.0000726
1.0000726
1.0000727
1.0000727
1.0000727
1.0000727
1.0000727
1.0000727
1.0000727
1.0000727
1.0000727
1.0000728
1.0000728
1.0000728
1.0000728
1.0000728
1.0000728
1.0000728
1.0000728
1.0000728
1.0000728
1.0000728
1.0000728
1.0000728
1.0000728
1.0000728
1.0000728
1.0000728
1.0000728
1.0000729
1.000073
1.0000732
1.0000736
1.0000745
1.000076
1.0000787
1.0000822
1.000066
1.0000661
1.0000661
1.0000661
1.0000661
1.0000661
1.0000661
1.0000662
1.0000662
1.0000662
1.0000662
1.0000662
1.0000662
1.0000663
1.0000663
1.0000663
1.0000663
1.0000663
1.0000663
1.0000663
1.0000664
1.0000664
1.0000664
1.0000664
1.0000664
1.0000664
1.0000665
1.0000665
1.0000665
1.0000665
1.0000665
1.0000665
1.0000665
1.0000665
1.0000665
1.0000665
1.0000665
1.0000666
1.0000666
1.0000666
1.0000665
1.0000665
1.0000665
1.0000665
1.0000665
1.0000665
1.0000665
1.0000665
1.0000665
1.0000665
1.0000665
1.0000666
1.0000667
1.0000669
1.0000673
1.000068
1.0000695
1.0000719
1.0000751
1.0000603
1.0000603
1.0000603
1.0000603
1.0000603
1.0000603
1.0000603
1.0000604
1.0000604
1.0000604
1.0000604
1.0000604
1.0000604
1.0000604
1.0000605
1.0000605
1.0000605
1.0000605
1.0000605
1.0000605
1.0000605
1.0000605
1.0000606
1.0000606
1.0000606
1.0000606
1.0000606
1.0000606
1.0000606
1.0000606
1.0000606
1.0000606
1.0000607
1.0000607
1.0000607
1.0000607
1.0000607
1.0000607
1.0000607
1.0000607
1.0000607
1.0000607
1.0000607
1.0000607
1.0000607
1.0000607
1.0000607
1.0000607
1.0000607
1.0000607
1.0000607
1.0000607
1.0000608
1.0000609
1.0000613
1.000062
1.0000633
1.0000656
1.0000684
1.0000549
1.0000549
1.0000549
1.0000549
1.0000549
1.000055
1.000055
1.000055
1.000055
1.000055
1.000055
1.000055
1.000055
1.000055
1.0000551
1.0000551
1.0000551
1.0000551
1.0000551
1.0000551
1.0000551
1.0000551
1.0000552
1.0000552
1.0000552
1.0000552
1.0000552
1.0000552
1.0000552
1.0000552
1.0000552
1.0000552
1.0000552
1.0000552
1.0000552
1.0000552
1.0000552
1.0000553
1.0000553
1.0000553
1.0000552
1.0000552
1.0000552
1.0000552
1.0000552
1.0000552
1.0000552
1.0000552
1.0000552
1.0000552
1.0000552
1.0000552
1.0000553
1.0000554
1.0000558
1.0000564
1.0000576
1.0000597
1.0000623
1.0000499
1.0000499
1.0000499
1.0000499
1.0000499
1.0000499
1.00005
1.00005
1.00005
1.00005
1.00005
1.00005
1.00005
1.00005
1.00005
1.0000501
1.0000501
1.0000501
1.0000501
1.0000501
1.0000501
1.0000501
1.0000501
1.0000501
1.0000501
1.0000501
1.0000502
1.0000502
1.0000502
1.0000502
1.0000502
1.0000502
1.0000502
1.0000502
1.0000502
1.0000502
1.0000502
1.0000502
1.0000502
1.0000502
1.0000502
1.0000502
1.0000502
1.0000502
1.0000502
1.0000502
1.0000502
1.0000502
1.0000502
1.0000502
1.0000502
1.0000502
1.0000502
1.0000503
1.0000506
1.0000512
1.0000523
1.0000542
1.0000566
1.0000453
1.0000453
1.0000453
1.0000453
1.0000453
1.0000453
1.0000453
1.0000453
1.0000454
1.0000454
1.0000454
1.0000454
1.0000454
1.0000454
1.0000454
1.0000454
1.0000454
1.0000454
1.0000454
1.0000454
1.0000454
1.0000455
1.0000455
1.0000455
1.0000455
1.0000455
1.0000455
1.0000455
1.0000455
1.0000455
1.0000455
1.0000455
1.0000455
1.0000455
1.0000455
1.0000455
1.0000455
1.0000455
1.0000455
1.0000455
1.0000455
1.0000455
1.0000455
1.0000455
1.0000455
1.0000455
1.0000455
1.0000455
1.0000455
1.0000455
1.0000455
1.0000455
1.0000455
1.0000456
1.0000459
1.0000464
1.0000473
1.0000491
1.0000513
1.000041
1.000041
1.000041
1.000041
1.000041
1.000041
1.0000411
1.0000411
1.0000411
1.0000411
1.0000411
1.0000411
1.0000411
1.0000411
1.0000411
1.0000411
1.0000411
1.0000411
1.0000412
1.0000412
1.0000412
1.0000412
1.0000412
1.0000412
1.0000412
1.0000412
1.0000412
1.0000412
1.0000412
1.0000412
1.0000412
1.0000412
1.0000412
1.0000412
1.0000412
1.0000412
1.0000412
1.0000412
1.0000412
1.0000412
1.0000412
1.0000412
1.0000412
1.0000412
1.0000412
1.0000412
1.0000412
1.0000412
1.0000412
1.0000412
1.0000412
1.0000412
1.0000412
1.0000413
1.0000415
1.0000419
1.0000428
1.0000444
1.0000464
1.0000371
1.0000371
1.0000371
1.0000371
1.0000371
1.0000371
1.0000371
1.0000371
1.0000371
1.0000372
1.0000372
1.0000372
1.0000372
1.0000372
1.0000372
1.0000372
1.0000372
1.0000372
1.0000372
1.0000372
1.0000372
1.0000372
1.0000372
1.0000372
1.0000373
1.0000373
1.0000373
1.0000373
1.0000373
1.0000373
1.0000373
1.0000373
1.0000373
1.0000373
1.0000373
1.0000373
1.0000373
1.0000373
1.0000373
1.0000373
1.0000373
1.0000373
1.0000373
1.0000373
1.0000373
1.0000373
1.0000373
1.0000373
1.0000372
1.0000372
1.0000372
1.0000372
1.0000372
1.0000373
1.0000375
1.0000378
1.0000386
1.0000401
1.0000419
1.0000335
1.0000335
1.0000335
1.0000335
1.0000335
1.0000335
1.0000335
1.0000335
1.0000335
1.0000336
1.0000336
1.0000336
1.0000336
1.0000336
1.0000336
1.0000336
1.0000336
1.0000336
1.0000336
1.0000336
1.0000336
1.0000336
1.0000336
1.0000336
1.0000336
1.0000336
1.0000336
1.0000337
1.0000337
1.0000337
1.0000337
1.0000337
1.0000337
1.0000336
1.0000336
1.0000336
1.0000337
1.0000337
1.0000337
1.0000337
1.0000337
1.0000337
1.0000337
1.0000337
1.0000336
1.0000336
1.0000336
1.0000336
1.0000336
1.0000336
1.0000336
1.0000336
1.0000336
1.0000336
1.0000338
1.0000341
1.0000348
1.0000361
1.0000378
1.0000302
1.0000302
1.0000302
1.0000302
1.0000302
1.0000302
1.0000302
1.0000303
1.0000303
1.0000303
1.0000303
1.0000303
1.0000303
1.0000303
1.0000303
1.0000303
1.0000303
1.0000303
1.0000303
1.0000303
1.0000303
1.0000303
1.0000303
1.0000303
1.0000303
1.0000303
1.0000304
1.0000304
1.0000304
1.0000304
1.0000304
1.0000304
1.0000304
1.0000304
1.0000303
1.0000303
1.0000304
1.0000304
1.0000304
1.0000304
1.0000304
1.0000304
1.0000304
1.0000304
1.0000303
1.0000303
1.0000303
1.0000303
1.0000303
1.0000303
1.0000303
1.0000303
1.0000303
1.0000303
1.0000304
1.0000307
1.0000313
1.0000325
1.0000341
1.0000272
1.0000272
1.0000272
1.0000272
1.0000272
1.0000272
1.0000272
1.0000273
1.0000273
1.0000273
1.0000273
1.0000273
1.0000273
1.0000273
1.0000273
1.0000273
1.0000273
1.0000273
1.0000273
1.0000273
1.0000273
1.0000273
1.0000273
1.0000273
1.0000273
1.0000273
1.0000273
1.0000274
1.0000274
1.0000274
1.0000274
1.0000274
1.0000274
1.0000273
1.0000273
1.0000273
1.0000273
1.0000273
1.0000274
1.0000274
1.0000274
1.0000273
1.0000273
1.0000273
1.0000273
1.0000273
1.0000273
1.0000273
1.0000273
1.0000273
1.0000273
1.0000273
1.0000273
1.0000273
1.0000274
1.0000276
1.0000281
1.0000292
1.0000307
1.0000245
1.0000245
1.0000245
1.0000245
1.0000245
1.0000245
1.0000245
1.0000245
1.0000246
1.0000246
1.0000246
1.0000246
1.0000246
1.0000246
1.0000246
1.0000246
1.0000246
1.0000246
1.0000246
1.0000246
1.0000246
1.0000246
1.0000246
1.0000246
1.0000246
1.0000246
1.0000246
1.0000246
1.0000246
1.0000246
1.0000246
1.0000246
1.0000246
1.0000246
1.0000246
1.0000246
1.0000246
1.0000246
1.0000246
1.0000246
1.0000246
1.0000246
1.0000246
1.0000246
1.0000246
1.0000246
1.0000246
1.0000246
1.0000246
1.0000246
1.0000246
1.0000246
1.0000246
1.0000246
1.0000246
1.0000248
1.0000252
1.0000262
1.0000276
1.0000221
1.0000221
1.0000222
1.0000222
1.0000222
1.0000222
1.0000222
1.0000222
1.0000222
1.0000222
1.0000222
1.0000222
1.0000222
1.0000222
1.0000222
1.0000222
1.0000222
1.0000222
1.0000222
1.0000222
1.0000222
1.0000223
1.0000223
1.0000223
1.0000223
1.0000223
1.0000223
1.0000223
1.0000223
1.0000223
1.0000223
1.0000223
1.0000223
1.0000223
1.0000223
1.0000222
1.0000222
1.0000222
1.0000223
1.0000223
1.0000223
1.0000223
1.0000223
1.0000223
1.0000222
1.0000222
1.0000222
1.0000222
1.0000222
1.0000222
1.0000222
1.0000222
1.0000222
1.0000222
1.0000222
1.0000223
1.0000227
1.0000235
1.0000248
1.0000988
1.0001098
1.0001221
1.0001356
1.0001503
1.0001664
1.0001838
1.0002028
1.0002233
1.0002453
1.000269
1.0002943
1.0003211
1.0003494
1.0003791
1.0004099
1.0004416
1.0004738
1.0005061
1.0005379
1.0005686
1.0005974
1.0006233
1.0006455
1.0006629
1.0006745
1.0006793
1.0006764
1.0006649
1.0006441
1.0006142
1.0005731
1.0005245
1.0004665
1.0003992
1.0003251
1.0002448
1.000158
1.000067
0.9999735
0.99987842
0.99978258
0.99968682
0.99959243
0.99950007
0.99940941
0.99932053
0.99923456
0.99915204
0.99907306
0.99899792
0.99892658
0.99885878
0.99879486
0.99873494
0.99867834
0.998625
0.99857493
0.99852808
0.99848415
0.99844289
0.99840445
0.99836868
0.99833534
0.99830431
0.99827545
0.99824863
0.99822372
0.99820059
0.99817913
0.99815923
0.99814077
0.99812373
0.99810789
1.0000947
1.0001054
1.0001174
1.0001305
1.0001449
1.0001606
1.0001777
1.0001962
1.0002162
1.0002378
1.0002609
1.0002856
1.0003119
1.0003396
1.0003687
1.000399
1.0004302
1.000462
1.000494
1.0005256
1.0005561
1.000585
1.0006112
1.0006339
1.0006521
1.0006647
1.0006708
1.0006696
1.0006602
1.0006418
1.0006145
1.0005774
1.0005312
1.0004766
1.0004136
1.0003436
1.0002676
1.0001857
1.0000994
1.0000101
0.99991883
0.99982656
0.99973422
0.99964281
0.9995533
0.99946443
0.99937716
0.99929387
0.99921412
0.99913775
0.99906478
0.99899537
0.99892929
0.99886708
0.99880887
0.99875383
0.99870188
0.99865303
0.9986073
0.99856432
0.99852388
0.99848619
0.99845109
0.99841836
0.99838789
0.99835955
0.9983332
0.99830872
0.998286
0.9982649
0.99824535
0.9982272
0.99821044
0.99819487
1.0000915
1.0001019
1.0001136
1.0001264
1.0001404
1.0001556
1.0001722
1.0001902
1.0002097
1.0002307
1.0002532
1.0002772
1.0003028
1.0003298
1.0003582
1.0003877
1.0004182
1.0004492
1.0004805
1.0005114
1.0005414
1.0005698
1.0005958
1.0006183
1.0006366
1.0006496
1.0006564
1.0006562
1.000648
1.0006313
1.0006061
1.0005718
1.0005285
1.000477
1.0004176
1.0003514
1.0002792
1.0002017
1.0001201
1.0000355
0.9999491
0.99986163
0.99977395
0.99968713
0.99960206
0.99951856
0.99943673
0.99935751
0.99928138
0.99920839
0.99913861
0.99907226
0.99900881
0.99895016
0.99889524
0.99884212
0.9987918
0.99874452
0.99870046
0.99865865
0.99861928
0.99858275
0.99854884
0.99851731
0.99848801
0.99846078
0.99843551
0.99841205
0.99839037
0.99837025
0.9983516
0.99833427
0.99831833
0.99830351
1.0000897
1.0000998
1.0001112
1.0001237
1.0001373
1.0001522
1.0001684
1.000186
1.000205
1.0002255
1.0002474
1.0002709
1.0002958
1.0003222
1.0003498
1.0003786
1.0004083
1.0004386
1.000469
1.0004992
1.0005284
1.0005561
1.0005813
1.0006033
1.0006212
1.0006339
1.0006405
1.0006404
1.0006325
1.0006164
1.000592
1.0005589
1.0005171
1.0004674
1.0004101
1.0003461
1.0002765
1.0002017
1.0001231
1.0000418
0.99995868
0.99987469
0.99979057
0.99970726
0.99962556
0.99954548
0.99946719
0.99939146
0.99931871
0.99924897
0.99918233
0.99911892
0.99905859
0.99900168
0.99894832
0.99889785
0.99885028
0.99880555
0.99876368
0.99872435
0.99868741
0.998653
0.99862095
0.99859108
0.99856327
0.99853741
0.99851337
0.99849103
0.9984703
0.99845102
0.9984332
0.9984164
0.99840134
0.99838769
1.0000886
1.0000986
1.0001098
1.0001221
1.0001354
1.00015
1.0001659
1.0001832
1.0002018
1.0002219
1.0002434
1.0002664
1.0002909
1.0003167
1.0003438
1.0003719
1.0004009
1.0004305
1.0004602
1.0004896
1.0005181
1.000545
1.0005695
1.0005907
1.0006079
1.0006199
1.000626
1.0006254
1.0006173
1.000601
1.0005765
1.0005435
1.0005021
1.0004529
1.0003963
1.0003332
1.0002646
1.0001911
1.0001138
1.0000339
0.99995248
0.99987022
0.99978792
0.99970648
0.99962665
0.99954848
0.99947215
0.99939838
0.99932755
0.99925974
0.99919498
0.9991334
0.99907489
0.99901965
0.99896777
0.99891883
0.99887273
0.99882941
0.99878886
0.99875086
0.9987152
0.99868196
0.99865099
0.99862215
0.99859528
0.99857036
0.99854739
0.99852606
0.99850622
0.99848775
0.99847061
0.99845468
0.99843998
0.9984263
1.000088
1.0000979
1.000109
1.0001211
1.0001343
1.0001487
1.0001644
1.0001814
1.0001998
1.0002195
1.0002408
1.0002634
1.0002875
1.0003128
1.0003395
1.0003671
1.0003956
1.0004246
1.0004537
1.0004825
1.0005103
1.0005365
1.0005603
1.0005808
1.0005973
1.0006086
1.0006141
1.0006129
1.0006042
1.0005874
1.0005625
1.0005291
1.0004874
1.000438
1.0003813
1.0003183
1.0002498
1.0001765
1.0000995
1.00002
0.99993897
0.99985721
0.99977549
0.99969466
0.99961545
0.99953794
0.99946236
0.99938934
0.99931926
0.99925219
0.99918818
0.99912733
0.99906958
0.99901506
0.99896384
0.99891555
0.99887007
0.99882737
0.99878737
0.99874992
0.99871484
0.99868211
0.99865163
0.99862325
0.99859683
0.99857227
0.99854945
0.99852825
0.99850857
0.99849031
0.99847338
0.99845767
0.99844312
0.9984297
1.0000877
1.0000975
1.0001085
1.0001205
1.0001336
1.0001479
1.0001634
1.0001802
1.0001984
1.000218
1.000239
1.0002614
1.0002851
1.0003102
1.0003364
1.0003637
1.0003918
1.0004204
1.000449
1.0004773
1.0005045
1.0005302
1.0005534
1.0005733
1.0005892
1.0006
1.0006048
1.000603
1.0005937
1.0005764
1.000551
1.0005171
1.000475
1.0004252
1.0003681
1.0003047
1.0002359
1.0001624
1.0000853
1.0000056
0.99992452
0.9998427
0.99976095
0.99968011
0.99960088
0.9995234
0.99944792
0.999375
0.99930502
0.99923806
0.99917417
0.99911346
0.99905587
0.9990015
0.99895036
0.99890218
0.99885684
0.99881428
0.99877443
0.99873712
0.99870221
0.99866962
0.99863927
0.99861101
0.99858471
0.99856025
0.99853753
0.99851642
0.99849683
0.99847866
0.99846182
0.99844621
0.99843176
0.99841837
1.0000876
1.0000973
1.0001082
1.0001201
1.0001332
1.0001474
1.0001628
1.0001795
1.0001975
1.000217
1.0002378
1.00026
1.0002835
1.0003083
1.0003343
1.0003613
1.0003891
1.0004173
1.0004456
1.0004735
1.0005004
1.0005256
1.0005483
1.0005678
1.0005832
1.0005935
1.0005978
1.0005956
1.0005858
1.000568
1.0005421
1.0005078
1.0004653
1.0004151
1.0003577
1.0002939
1.0002248
1.000151
1.0000735
0.99999366
0.99991229
0.99983025
0.99974831
0.99966729
0.99958784
0.9995102
0.9994346
0.99936158
0.99929149
0.99922443
0.99916046
0.99909967
0.99904203
0.9989876
0.99893636
0.99888812
0.99884274
0.99880014
0.99876024
0.99872289
0.99868797
0.99865537
0.99862499
0.99859671
0.9985704
0.99854593
0.99852319
0.99850208
0.99848248
0.99846431
0.99844745
0.99843183
0.99841736
0.99840395
1.0000875
1.0000972
1.0001081
1.00012
1.0001329
1.000147
1.0001624
1.000179
1.000197
1.0002163
1.000237
1.000259
1.0002824
1.0003071
1.0003329
1.0003597
1.0003872
1.0004152
1.0004432
1.0004708
1.0004974
1.0005223
1.0005447
1.0005639
1.0005789
1.0005888
1.0005928
1.0005902
1.00058
1.0005619
1.0005357
1.0005011
1.0004582
1.0004077
1.00035
1.000286
1.0002166
1.0001425
1.0000649
0.99998478
0.9999032
0.99982096
0.99973885
0.99965765
0.999578
0.99950019
0.99942447
0.99935134
0.99928113
0.99921395
0.99914988
0.99908899
0.99903128
0.99897676
0.99892541
0.99887707
0.99883161
0.99878895
0.99874899
0.99871159
0.99867664
0.99864402
0.99861362
0.99858531
0.99855896
0.99853447
0.99851171
0.99849057
0.99847095
0.99845276
0.99843588
0.99842024
0.99840576
0.99839233
1.0000875
1.0000971
1.000108
1.0001198
1.0001328
1.0001468
1.0001621
1.0001787
1.0001966
1.0002158
1.0002364
1.0002584
1.0002816
1.0003062
1.0003318
1.0003585
1.0003859
1.0004137
1.0004415
1.0004689
1.0004952
1.0005199
1.0005421
1.000561
1.0005758
1.0005854
1.0005891
1.0005863
1.000576
1.0005576
1.0005311
1.0004963
1.0004533
1.0004026
1.0003447
1.0002806
1.000211
1.0001368
1.000059
0.99997875
0.99989703
0.99981467
0.99973245
0.99965112
0.99957134
0.9994934
0.99941761
0.99934441
0.99927411
0.99920685
0.99914271
0.99908176
0.99902399
0.9989694
0.99891797
0.99886956
0.99882405
0.99878134
0.99874134
0.9987039
0.99866892
0.99863627
0.99860584
0.9985775
0.99855113
0.99852661
0.99850382
0.99848266
0.99846303
0.99844481
0.99842792
0.99841226
0.99839776
0.99838432
1.0000875
1.0000971
1.0001079
1.0001198
1.0001327
1.0001467
1.000162
1.0001785
1.0001963
1.0002155
1.000236
1.0002579
1.0002811
1.0003055
1.0003311
1.0003576
1.0003849
1.0004126
1.0004403
1.0004675
1.0004937
1.0005182
1.0005402
1.000559
1.0005736
1.000583
1.0005866
1.0005837
1.0005732
1.0005547
1.0005281
1.0004932
1.0004501
1.0003993
1.0003414
1.0002771
1.0002075
1.0001332
1.0000553
0.99997505
0.99989326
0.99981084
0.99972855
0.99964716
0.99956728
0.99948926
0.99941343
0.99934019
0.99926984
0.99920253
0.99913835
0.99907735
0.99901954
0.99896492
0.99891343
0.99886496
0.99881941
0.99877667
0.99873663
0.99869917
0.99866417
0.99863151
0.99860107
0.99857272
0.99854634
0.99852181
0.99849902
0.99847785
0.9984582
0.99843998
0.99842308
0.99840741
0.99839289
0.99837944
1.0000875
1.0000971
1.0001079
1.0001197
1.0001326
1.0001466
1.0001619
1.0001784
1.0001962
1.0002153
1.0002358
1.0002576
1.0002807
1.0003051
1.0003306
1.000357
1.0003842
1.0004118
1.0004394
1.0004665
1.0004926
1.000517
1.0005389
1.0005575
1.0005721
1.0005814
1.000585
1.0005819
1.0005714
1.0005529
1.0005263
1.0004914
1.0004483
1.0003975
1.0003396
1.0002753
1.0002056
1.0001314
1.0000535
0.99997321
0.99989141
0.99980896
0.99972665
0.99964522
0.99956527
0.9994872
0.99941135
0.99933808
0.9992677
0.99920036
0.99913614
0.99907511
0.99901728
0.99896262
0.99891108
0.99886257
0.99881699
0.99877422
0.99873416
0.99869669
0.99866167
0.998629
0.99859854
0.99857017
0.99854378
0.99851923
0.99849643
0.99847525
0.99845559
0.99843735
0.99842044
0.99840477
0.99839024
0.99837678
1.0000875
1.0000971
1.0001079
1.0001197
1.0001326
1.0001466
1.0001618
1.0001783
1.000196
1.0002151
1.0002356
1.0002574
1.0002805
1.0003048
1.0003302
1.0003566
1.0003837
1.0004112
1.0004387
1.0004658
1.0004918
1.0005161
1.000538
1.0005566
1.0005711
1.0005803
1.0005839
1.0005809
1.0005704
1.0005519
1.0005254
1.0004906
1.0004476
1.0003969
1.000339
1.0002748
1.0002052
1.000131
1.0000532
0.99997289
0.9998911
0.99980866
0.99972634
0.99964489
0.9995649
0.99948679
0.99941091
0.99933763
0.99926723
0.99919985
0.99913561
0.99907454
0.99901667
0.99896198
0.9989104
0.99886185
0.99881623
0.99877344
0.99873335
0.99869586
0.99866083
0.99862814
0.99859767
0.99856929
0.99854288
0.99851833
0.99849551
0.99847432
0.99845465
0.9984364
0.99841948
0.9984038
0.99838926
0.99837579
1.0000875
1.0000971
1.0001079
1.0001197
1.0001326
1.0001466
1.0001618
1.0001782
1.000196
1.000215
1.0002354
1.0002572
1.0002803
1.0003045
1.00033
1.0003563
1.0003834
1.0004108
1.0004383
1.0004653
1.0004913
1.0005155
1.0005374
1.000556
1.0005705
1.0005799
1.0005834
1.0005804
1.00057
1.0005517
1.0005253
1.0004906
1.0004477
1.0003972
1.0003395
1.0002754
1.0002059
1.0001318
1.0000541
0.99997386
0.99989212
0.99980969
0.99972739
0.99964593
0.9995659
0.99948776
0.99941186
0.99933856
0.99926812
0.99920071
0.99913643
0.99907533
0.99901742
0.99896269
0.99891106
0.99886247
0.99881682
0.99877399
0.99873387
0.99869635
0.99866129
0.99862858
0.99859809
0.99856969
0.99854327
0.99851869
0.99849586
0.99847465
0.99845497
0.99843671
0.99841978
0.99840408
0.99838954
0.99837606
1.0000875
1.0000971
1.0001079
1.0001197
1.0001326
1.0001465
1.0001617
1.0001782
1.0001959
1.000215
1.0002354
1.0002571
1.0002801
1.0003044
1.0003297
1.0003561
1.0003831
1.0004105
1.0004379
1.0004649
1.0004909
1.0005152
1.000537
1.0005556
1.0005701
1.0005796
1.0005833
1.0005805
1.0005702
1.000552
1.0005258
1.0004914
1.0004487
1.0003984
1.0003409
1.0002771
1.0002077
1.0001338
1.0000562
0.99997608
0.9998944
0.99981203
0.99972975
0.99964828
0.99956823
0.99949005
0.99941413
0.9993408
0.99927032
0.99920287
0.99913854
0.99907739
0.99901943
0.99896464
0.99891296
0.99886432
0.99881862
0.99877574
0.99873559
0.99869803
0.99866294
0.9986302
0.99859967
0.99857125
0.9985448
0.9985202
0.99849734
0.99847611
0.99845641
0.99843813
0.99842118
0.99840546
0.9983909
0.9983774
1.0000875
1.0000971
1.0001079
1.0001197
1.0001325
1.0001465
1.0001617
1.0001781
1.0001959
1.0002149
1.0002353
1.000257
1.00028
1.0003042
1.0003296
1.0003559
1.0003829
1.0004103
1.0004377
1.0004647
1.0004906
1.0005149
1.0005368
1.0005554
1.0005701
1.0005797
1.0005834
1.0005809
1.0005708
1.0005529
1.000527
1.0004929
1.0004506
1.0004006
1.0003434
1.0002798
1.0002107
1.0001369
1.0000596
0.9999796
0.99989802
0.9998157
0.99973346
0.999652
0.99957192
0.99949371
0.99941775
0.99934438
0.99927385
0.99920634
0.99914195
0.99908073
0.99902271
0.99896785
0.99891611
0.9988674
0.99882164
0.99877871
0.9987385
0.99870089
0.99866576
0.99863297
0.99860241
0.99857395
0.99854747
0.99852284
0.99849995
0.9984787
0.99845897
0.99844067
0.99842369
0.99840796
0.99839338
0.99837987
1.0000875
1.0000971
1.0001079
1.0001197
1.0001325
1.0001465
1.0001617
1.0001781
1.0001958
1.0002148
1.0002352
1.0002569
1.0002799
1.0003041
1.0003294
1.0003557
1.0003827
1.0004101
1.0004375
1.0004645
1.0004904
1.0005147
1.0005367
1.0005554
1.0005702
1.00058
1.0005839
1.0005816
1.0005719
1.0005543
1.0005288
1.0004951
1.0004532
1.0004037
1.0003469
1.0002837
1.0002149
1.0001414
1.0000643
0.99998452
0.99990308
0.99982086
0.99973866
0.99965721
0.99957712