/*--------------------------------*- C++ -*----------------------------------*\
| =========                 |                                                 |
| \\      /  F ield         | OpenFOAM: The Open Source CFD Toolbox           |
|  \\    /   O peration     | Version:  v2006                                 |
|   \\  /    A nd           | Website:  www.openfoam.com                      |
|    \\/     M anipulation  |                                                 |
\*---------------------------------------------------------------------------*/
FoamFile
{
    version     2.0;
    format      ascii;
    class       volScalarField;
    location    "7000";
    object      T;
}
// * * * * * * * * * * * * * * * * * * * * * * * * * * * * * * * * * * * * * //

dimensions      [0 0 0 1 0 0 0];


internalField   nonuniform List<scalar> 
55713
(
1.0000063
1.0000075
1.0000082
1.0000085
1.0000086
1.0000086
1.0000086
1.0000086
1.0000086
1.0000086
1.0000086
1.0000086
1.0000086
1.0000086
1.0000086
1.0000086
1.0000086
1.0000086
1.0000086
1.0000086
1.0000086
1.0000086
1.0000086
1.0000086
1.0000085
1.0000085
1.0000085
1.0000085
1.0000085
1.0000085
1.0000085
1.0000085
1.0000085
1.0000085
1.0000085
1.0000085
1.0000085
1.0000085
1.0000085
1.0000085
1.0000085
1.0000085
1.0000085
1.0000085
1.0000086
1.0000086
1.0000086
1.0000086
1.0000086
1.0000086
1.0000086
1.0000086
1.0000086
1.0000086
1.0000086
1.0000086
1.0000086
1.0000086
1.0000086
1.000006
1.0000071
1.0000078
1.000008
1.0000081
1.0000081
1.000008
1.000008
1.000008
1.0000081
1.0000081
1.0000081
1.0000081
1.0000081
1.0000081
1.0000081
1.0000081
1.0000081
1.0000081
1.0000081
1.0000081
1.0000081
1.000008
1.000008
1.000008
1.000008
1.000008
1.000008
1.000008
1.000008
1.000008
1.000008
1.000008
1.000008
1.000008
1.000008
1.000008
1.000008
1.000008
1.000008
1.000008
1.000008
1.000008
1.000008
1.000008
1.000008
1.0000081
1.0000081
1.000008
1.000008
1.000008
1.000008
1.000008
1.000008
1.0000081
1.0000081
1.0000081
1.0000081
1.0000081
1.0000057
1.0000068
1.0000074
1.0000076
1.0000076
1.0000076
1.0000076
1.0000076
1.0000076
1.0000076
1.0000076
1.0000076
1.0000076
1.0000076
1.0000076
1.0000076
1.0000076
1.0000076
1.0000076
1.0000076
1.0000076
1.0000076
1.0000075
1.0000075
1.0000075
1.0000075
1.0000075
1.0000075
1.0000075
1.0000075
1.0000075
1.0000075
1.0000075
1.0000075
1.0000075
1.0000075
1.0000075
1.0000075
1.0000075
1.0000075
1.0000075
1.0000075
1.0000075
1.0000075
1.0000075
1.0000075
1.0000076
1.0000076
1.0000076
1.0000076
1.0000076
1.0000076
1.0000076
1.0000076
1.0000076
1.0000076
1.0000076
1.0000076
1.0000076
1.0000055
1.0000065
1.000007
1.0000072
1.0000072
1.0000072
1.0000071
1.0000071
1.0000071
1.0000072
1.0000072
1.0000072
1.0000072
1.0000072
1.0000072
1.0000072
1.0000072
1.0000072
1.0000072
1.0000072
1.0000072
1.0000071
1.0000071
1.0000071
1.0000071
1.0000071
1.0000071
1.0000071
1.0000071
1.0000071
1.0000071
1.0000071
1.0000071
1.0000071
1.0000071
1.0000071
1.0000071
1.0000071
1.0000071
1.0000071
1.0000071
1.0000071
1.0000071
1.0000071
1.0000071
1.0000071
1.0000071
1.0000071
1.0000071
1.0000071
1.0000071
1.0000071
1.0000071
1.0000071
1.0000072
1.0000072
1.0000072
1.0000072
1.0000072
1.0000053
1.0000063
1.0000067
1.0000068
1.0000068
1.0000068
1.0000068
1.0000068
1.0000068
1.0000068
1.0000068
1.0000068
1.0000068
1.0000068
1.0000068
1.0000069
1.0000069
1.0000069
1.0000069
1.0000068
1.0000068
1.0000068
1.0000067
1.0000067
1.0000067
1.0000067
1.0000067
1.0000067
1.0000067
1.0000067
1.0000067
1.0000067
1.0000067
1.0000067
1.0000067
1.0000067
1.0000067
1.0000067
1.0000067
1.0000067
1.0000067
1.0000067
1.0000067
1.0000067
1.0000067
1.0000067
1.0000067
1.0000067
1.0000068
1.0000068
1.0000068
1.0000068
1.0000068
1.0000068
1.0000068
1.0000068
1.0000068
1.0000068
1.0000068
1.0000052
1.0000061
1.0000064
1.0000065
1.0000065
1.0000065
1.0000065
1.0000065
1.0000065
1.0000065
1.0000065
1.0000065
1.0000065
1.0000065
1.0000065
1.0000066
1.0000066
1.0000065
1.0000065
1.0000065
1.0000065
1.0000064
1.0000064
1.0000064
1.0000064
1.0000064
1.0000064
1.0000064
1.0000064
1.0000064
1.0000064
1.0000064
1.0000064
1.0000064
1.0000064
1.0000064
1.0000064
1.0000064
1.0000064
1.0000064
1.0000064
1.0000064
1.0000064
1.0000064
1.0000064
1.0000064
1.0000064
1.0000064
1.0000064
1.0000064
1.0000065
1.0000065
1.0000065
1.0000065
1.0000065
1.0000065
1.0000065
1.0000065
1.0000065
1.000005
1.0000059
1.0000062
1.0000062
1.0000062
1.0000062
1.0000062
1.0000062
1.0000062
1.0000063
1.0000062
1.0000062
1.0000062
1.0000062
1.0000063
1.0000063
1.0000063
1.0000062
1.0000062
1.0000062
1.0000062
1.0000061
1.0000061
1.0000061
1.0000061
1.0000061
1.0000061
1.0000061
1.0000061
1.0000061
1.0000061
1.0000061
1.0000061
1.0000062
1.0000062
1.0000062
1.0000062
1.0000061
1.0000061
1.0000062
1.0000062
1.0000062
1.0000061
1.0000061
1.0000061
1.0000061
1.0000061
1.0000061
1.0000061
1.0000062
1.0000062
1.0000062
1.0000062
1.0000062
1.0000062
1.0000062
1.0000062
1.0000062
1.0000062
1.0000049
1.0000058
1.000006
1.000006
1.000006
1.000006
1.0000059
1.000006
1.000006
1.000006
1.000006
1.000006
1.000006
1.000006
1.000006
1.000006
1.000006
1.000006
1.000006
1.0000059
1.0000059
1.0000059
1.0000059
1.0000059
1.0000059
1.0000059
1.0000059
1.0000059
1.0000059
1.0000059
1.0000059
1.0000059
1.0000059
1.0000059
1.0000059
1.0000059
1.0000059
1.0000059
1.0000059
1.0000059
1.0000059
1.0000059
1.0000059
1.0000059
1.0000059
1.0000059
1.0000059
1.0000059
1.0000059
1.0000059
1.000006
1.000006
1.000006
1.0000059
1.0000059
1.000006
1.000006
1.000006
1.000006
1.0000049
1.0000057
1.0000059
1.0000058
1.0000058
1.0000058
1.0000058
1.0000058
1.0000058
1.0000059
1.0000058
1.0000058
1.0000058
1.0000058
1.0000058
1.0000058
1.0000058
1.0000058
1.0000058
1.0000057
1.0000057
1.0000057
1.0000057
1.0000057
1.0000057
1.0000057
1.0000057
1.0000057
1.0000057
1.0000057
1.0000057
1.0000057
1.0000057
1.0000058
1.0000058
1.0000058
1.0000058
1.0000058
1.0000057
1.0000057
1.0000058
1.0000058
1.0000057
1.0000057
1.0000057
1.0000057
1.0000057
1.0000057
1.0000057
1.0000058
1.0000058
1.0000058
1.0000058
1.0000058
1.0000058
1.0000058
1.0000058
1.0000058
1.0000058
1.0000049
1.0000057
1.0000057
1.0000057
1.0000056
1.0000056
1.0000056
1.0000057
1.0000057
1.0000057
1.0000057
1.0000056
1.0000057
1.0000057
1.0000056
1.0000056
1.0000056
1.0000056
1.0000056
1.0000056
1.0000056
1.0000056
1.0000056
1.0000056
1.0000056
1.0000056
1.0000056
1.0000056
1.0000056
1.0000056
1.0000056
1.0000056
1.0000056
1.0000056
1.0000056
1.0000056
1.0000056
1.0000056
1.0000056
1.0000056
1.0000056
1.0000056
1.0000056
1.0000056
1.0000055
1.0000055
1.0000056
1.0000056
1.0000056
1.0000056
1.0000056
1.0000057
1.0000057
1.0000056
1.0000056
1.0000057
1.0000057
1.0000057
1.0000057
1.0000048
1.0000054
1.0000054
1.0000054
1.0000054
1.0000053
1.0000053
1.0000054
1.0000055
1.0000054
1.0000053
1.0000053
1.0000053
1.0000053
1.0000053
1.0000053
1.0000053
1.0000053
1.0000053
1.0000052
1.0000052
1.0000052
1.0000052
1.0000052
1.0000052
1.0000052
1.0000052
1.0000052
1.0000052
1.0000052
1.0000052
1.0000053
1.0000053
1.0000053
1.0000053
1.0000053
1.0000053
1.0000053
1.0000053
1.0000053
1.0000053
1.0000053
1.0000053
1.0000053
1.0000052
1.0000052
1.0000053
1.0000053
1.0000053
1.0000053
1.0000053
1.0000053
1.0000054
1.0000054
1.0000053
1.0000054
1.0000055
1.0000053
1.0000053
1.0000047
1.0000056
1.0000052
1.0000055
1.0000054
1.0000051
1.0000053
1.0000053
1.0000054
1.0000052
1.0000051
1.0000052
1.0000051
1.0000052
1.0000052
1.0000051
1.0000051
1.0000051
1.0000051
1.0000051
1.0000051
1.0000051
1.0000051
1.0000051
1.0000051
1.0000051
1.0000051
1.0000051
1.0000051
1.0000051
1.0000051
1.0000051
1.0000051
1.0000051
1.0000052
1.0000052
1.0000052
1.0000052
1.0000052
1.0000051
1.0000051
1.0000051
1.0000051
1.0000051
1.000005
1.000005
1.0000051
1.0000051
1.0000051
1.0000051
1.0000051
1.0000052
1.0000052
1.0000053
1.0000051
1.0000053
1.0000055
1.0000051
1.0000051
1.0000062
1.0000066
1.0000062
1.0000065
1.0000062
1.0000062
1.0000063
1.0000065
1.0000063
1.0000064
1.0000064
1.0000064
1.0000065
1.0000063
1.0000063
1.0000064
1.0000064
1.0000064
1.0000063
1.0000063
1.0000063
1.0000063
1.0000064
1.0000064
1.0000063
1.0000063
1.0000063
1.0000063
1.0000063
1.0000063
1.0000063
1.0000063
1.0000063
1.0000063
1.0000063
1.0000064
1.0000065
1.0000064
1.0000063
1.0000064
1.0000064
1.0000063
1.0000063
1.0000063
1.0000063
1.0000063
1.0000064
1.0000064
1.0000064
1.0000063
1.0000063
1.0000064
1.0000063
1.0000065
1.0000063
1.0000062
1.0000066
1.0000063
1.0000063
1.0000053
1.0000039
1.0000044
1.0000039
1.0000045
1.0000047
1.0000046
1.000004
1.0000038
1.0000038
1.0000038
1.0000037
1.0000037
1.0000037
1.0000038
1.0000037
1.0000037
1.0000037
1.0000037
1.0000038
1.0000038
1.0000038
1.0000038
1.0000038
1.0000038
1.0000038
1.0000038
1.0000038
1.0000038
1.0000038
1.0000038
1.0000038
1.0000038
1.0000038
1.0000038
1.0000038
1.0000039
1.0000042
1.0000044
1.0000045
1.0000045
1.0000046
1.0000047
1.0000048
1.0000049
1.0000049
1.0000046
1.0000045
1.0000047
1.0000048
1.0000048
1.0000045
1.0000047
1.0000045
1.000005
1.0000046
1.0000039
1.0000048
1.0000048
1.000032
1.000032
1.0000321
1.0000321
1.0000321
1.0000321
1.0000321
1.0000321
1.0000321
1.0000321
1.0000321
1.0000321
1.0000322
1.0000322
1.0000322
1.0000322
1.0000322
1.0000322
1.0000322
1.0000322
1.0000322
1.0000322
1.0000322
1.0000322
1.0000322
1.0000322
1.0000322
1.0000322
1.0000322
1.0000322
1.0000322
1.0000323
1.0000323
1.0000323
1.0000323
1.0000323
1.0000323
1.0000323
1.0000323
1.0000323
1.0000323
1.0000323
1.0000323
1.0000323
1.0000323
1.0000324
1.0000324
1.0000324
1.0000324
1.0000324
1.0000324
1.0000323
1.0000322
1.000032
1.0000315
1.0000306
1.0000289
1.000026
1.0000222
1.0000294
1.0000294
1.0000294
1.0000294
1.0000294
1.0000295
1.0000295
1.0000295
1.0000295
1.0000295
1.0000295
1.0000295
1.0000295
1.0000295
1.0000295
1.0000295
1.0000295
1.0000295
1.0000295
1.0000295
1.0000295
1.0000295
1.0000295
1.0000295
1.0000295
1.0000295
1.0000296
1.0000296
1.0000296
1.0000296
1.0000296
1.0000296
1.0000296
1.0000296
1.0000296
1.0000296
1.0000296
1.0000296
1.0000296
1.0000296
1.0000296
1.0000296
1.0000296
1.0000296
1.0000297
1.0000297
1.0000297
1.0000297
1.0000297
1.0000297
1.0000297
1.0000296
1.0000295
1.0000293
1.0000289
1.000028
1.0000265
1.0000238
1.0000204
1.0000269
1.0000269
1.0000269
1.000027
1.000027
1.000027
1.000027
1.000027
1.000027
1.000027
1.000027
1.000027
1.000027
1.000027
1.000027
1.000027
1.000027
1.000027
1.000027
1.000027
1.000027
1.000027
1.000027
1.000027
1.000027
1.000027
1.000027
1.000027
1.000027
1.000027
1.0000271
1.0000271
1.0000271
1.0000271
1.0000271
1.0000271
1.0000271
1.0000271
1.0000271
1.0000271
1.0000271
1.0000271
1.0000271
1.0000271
1.0000271
1.0000271
1.0000271
1.0000271
1.0000271
1.0000272
1.0000272
1.0000271
1.000027
1.0000268
1.0000264
1.0000257
1.0000243
1.0000218
1.0000186
1.0000246
1.0000246
1.0000246
1.0000246
1.0000246
1.0000247
1.0000247
1.0000247
1.0000247
1.0000247
1.0000247
1.0000247
1.0000247
1.0000247
1.0000247
1.0000247
1.0000247
1.0000247
1.0000247
1.0000247
1.0000247
1.0000247
1.0000247
1.0000247
1.0000247
1.0000247
1.0000247
1.0000247
1.0000247
1.0000247
1.0000247
1.0000247
1.0000247
1.0000248
1.0000248
1.0000248
1.0000248
1.0000248
1.0000248
1.0000247
1.0000247
1.0000247
1.0000247
1.0000247
1.0000248
1.0000248
1.0000248
1.0000248
1.0000248
1.0000248
1.0000248
1.0000248
1.0000247
1.0000245
1.0000242
1.0000235
1.0000222
1.0000199
1.000017
1.0000225
1.0000225
1.0000225
1.0000225
1.0000225
1.0000225
1.0000225
1.0000225
1.0000225
1.0000225
1.0000225
1.0000225
1.0000225
1.0000225
1.0000225
1.0000225
1.0000225
1.0000225
1.0000225
1.0000225
1.0000225
1.0000225
1.0000225
1.0000225
1.0000225
1.0000225
1.0000225
1.0000225
1.0000225
1.0000225
1.0000225
1.0000225
1.0000226
1.0000226
1.0000226
1.0000226
1.0000226
1.0000226
1.0000226
1.0000226
1.0000225
1.0000225
1.0000225
1.0000225
1.0000226
1.0000226
1.0000226
1.0000226
1.0000226
1.0000226
1.0000226
1.0000226
1.0000225
1.0000224
1.0000221
1.0000215
1.0000203
1.0000182
1.0000156
1.0000205
1.0000205
1.0000205
1.0000205
1.0000205
1.0000205
1.0000205
1.0000205
1.0000205
1.0000205
1.0000205
1.0000205
1.0000205
1.0000205
1.0000205
1.0000205
1.0000205
1.0000205
1.0000205
1.0000205
1.0000205
1.0000205
1.0000205
1.0000205
1.0000205
1.0000205
1.0000205
1.0000205
1.0000205
1.0000205
1.0000205
1.0000205
1.0000205
1.0000205
1.0000206
1.0000206
1.0000206
1.0000206
1.0000206
1.0000205
1.0000205
1.0000205
1.0000205
1.0000205
1.0000205
1.0000205
1.0000205
1.0000206
1.0000206
1.0000206
1.0000206
1.0000206
1.0000205
1.0000204
1.0000201
1.0000196
1.0000185
1.0000166
1.0000142
1.0000186
1.0000186
1.0000186
1.0000186
1.0000186
1.0000186
1.0000186
1.0000186
1.0000186
1.0000186
1.0000186
1.0000187
1.0000187
1.0000187
1.0000187
1.0000186
1.0000186
1.0000186
1.0000186
1.0000186
1.0000186
1.0000186
1.0000186
1.0000186
1.0000186
1.0000186
1.0000186
1.0000186
1.0000186
1.0000186
1.0000186
1.0000186
1.0000186
1.0000187
1.0000187
1.0000187
1.0000187
1.0000187
1.0000187
1.0000187
1.0000186
1.0000186
1.0000186
1.0000186
1.0000186
1.0000187
1.0000187
1.0000187
1.0000187
1.0000187
1.0000187
1.0000187
1.0000187
1.0000186
1.0000184
1.0000179
1.0000169
1.0000151
1.0000129
1.0000169
1.0000169
1.0000169
1.0000169
1.0000169
1.0000169
1.0000169
1.0000169
1.0000169
1.0000169
1.0000169
1.0000169
1.0000169
1.0000169
1.0000169
1.0000169
1.0000169
1.0000169
1.0000169
1.0000169
1.0000169
1.0000169
1.0000169
1.0000169
1.0000169
1.0000169
1.0000169
1.0000169
1.0000169
1.0000169
1.0000169
1.0000169
1.0000169
1.0000169
1.000017
1.000017
1.000017
1.000017
1.000017
1.0000169
1.0000169
1.0000169
1.0000169
1.0000169
1.0000169
1.0000169
1.0000169
1.0000169
1.000017
1.000017
1.000017
1.000017
1.000017
1.0000169
1.0000167
1.0000163
1.0000154
1.0000138
1.0000118
1.0000153
1.0000153
1.0000153
1.0000153
1.0000153
1.0000153
1.0000153
1.0000153
1.0000153
1.0000154
1.0000154
1.0000154
1.0000154
1.0000154
1.0000154
1.0000153
1.0000153
1.0000153
1.0000153
1.0000153
1.0000153
1.0000153
1.0000153
1.0000153
1.0000153
1.0000153
1.0000153
1.0000153
1.0000153
1.0000153
1.0000153
1.0000153
1.0000153
1.0000153
1.0000154
1.0000154
1.0000154
1.0000154
1.0000154
1.0000154
1.0000153
1.0000153
1.0000153
1.0000153
1.0000153
1.0000153
1.0000154
1.0000154
1.0000154
1.0000154
1.0000154
1.0000154
1.0000154
1.0000153
1.0000152
1.0000148
1.000014
1.0000125
1.0000107
1.0000139
1.0000139
1.0000139
1.0000139
1.0000139
1.0000139
1.0000139
1.0000139
1.0000139
1.0000139
1.0000139
1.0000139
1.0000139
1.0000139
1.0000139
1.0000139
1.0000139
1.0000139
1.0000139
1.0000139
1.0000139
1.0000139
1.0000139
1.0000139
1.0000139
1.0000139
1.0000139
1.0000139
1.0000139
1.0000139
1.0000139
1.0000139
1.0000139
1.0000139
1.0000139
1.0000139
1.0000139
1.0000139
1.0000139
1.0000139
1.0000139
1.0000139
1.0000139
1.0000139
1.0000139
1.0000139
1.0000139
1.0000139
1.0000139
1.0000139
1.0000139
1.000014
1.000014
1.0000139
1.0000138
1.0000135
1.0000128
1.0000114
1.0000097
1.0000126
1.0000126
1.0000126
1.0000126
1.0000126
1.0000126
1.0000126
1.0000126
1.0000126
1.0000126
1.0000126
1.0000126
1.0000126
1.0000126
1.0000126
1.0000126
1.0000126
1.0000125
1.0000125
1.0000125
1.0000125
1.0000125
1.0000125
1.0000125
1.0000125
1.0000125
1.0000125
1.0000125
1.0000125
1.0000125
1.0000125
1.0000125
1.0000125
1.0000126
1.0000126
1.0000126
1.0000126
1.0000126
1.0000126
1.0000126
1.0000126
1.0000126
1.0000126
1.0000126
1.0000126
1.0000126
1.0000126
1.0000126
1.0000126
1.0000126
1.0000126
1.0000126
1.0000126
1.0000126
1.0000125
1.0000122
1.0000116
1.0000104
1.0000088
1.0000114
1.0000114
1.0000114
1.0000114
1.0000114
1.0000114
1.0000114
1.0000114
1.0000114
1.0000114
1.0000114
1.0000114
1.0000114
1.0000114
1.0000114
1.0000114
1.0000113
1.0000113
1.0000113
1.0000113
1.0000113
1.0000113
1.0000113
1.0000113
1.0000113
1.0000113
1.0000113
1.0000113
1.0000113
1.0000113
1.0000113
1.0000113
1.0000113
1.0000113
1.0000114
1.0000114
1.0000114
1.0000114
1.0000114
1.0000114
1.0000114
1.0000114
1.0000114
1.0000114
1.0000114
1.0000114
1.0000114
1.0000114
1.0000114
1.0000114
1.0000114
1.0000114
1.0000114
1.0000114
1.0000113
1.0000111
1.0000106
1.0000095
1.000008
1.0000103
1.0000103
1.0000103
1.0000103
1.0000103
1.0000103
1.0000103
1.0000103
1.0000103
1.0000103
1.0000103
1.0000103
1.0000103
1.0000103
1.0000103
1.0000103
1.0000102
1.0000102
1.0000102
1.0000102
1.0000102
1.0000102
1.0000102
1.0000102
1.0000102
1.0000102
1.0000102
1.0000102
1.0000102
1.0000102
1.0000102
1.0000102
1.0000102
1.0000102
1.0000103
1.0000103
1.0000103
1.0000103
1.0000103
1.0000103
1.0000103
1.0000103
1.0000103
1.0000103
1.0000103
1.0000103
1.0000103
1.0000103
1.0000103
1.0000103
1.0000103
1.0000103
1.0000103
1.0000103
1.0000103
1.0000101
1.0000097
1.0000087
1.0000073
1.0000093
1.0000093
1.0000093
1.0000093
1.0000093
1.0000093
1.0000093
1.0000093
1.0000093
1.0000093
1.0000093
1.0000093
1.0000093
1.0000093
1.0000093
1.0000093
1.0000093
1.0000093
1.0000093
1.0000093
1.0000093
1.0000093
1.0000093
1.0000093
1.0000093
1.0000093
1.0000093
1.0000093
1.0000093
1.0000093
1.0000093
1.0000093
1.0000093
1.0000093
1.0000093
1.0000093
1.0000093
1.0000093
1.0000094
1.0000094
1.0000094
1.0000094
1.0000093
1.0000093
1.0000093
1.0000093
1.0000093
1.0000094
1.0000093
1.0000093
1.0000093
1.0000093
1.0000094
1.0000094
1.0000093
1.0000092
1.0000089
1.000008
1.0000067
1.0000243
1.0000269
1.0000297
1.0000328
1.0000361
1.0000397
1.0000435
1.0000476
1.000052
1.0000566
1.0000615
1.0000666
1.000072
1.0000777
1.0000835
1.0000894
1.0000955
1.0001015
1.0001074
1.0001131
1.0001185
1.0001233
1.0001273
1.0001305
1.0001327
1.0001334
1.0001326
1.0001302
1.000126
1.0001199
1.0001118
1.0001032
1.0000906
1.0000768
1.0000625
1.0000462
1.0000289
1.0000114
0.99999319
0.99997423
0.99995486
0.99993538
0.99991596
0.99989669
0.99987785
0.99985964
0.99984227
0.99982572
0.99980996
0.99979494
0.99978039
0.99976651
0.99975338
0.99974107
0.99972953
0.99971866
0.99970844
0.99969887
0.99968992
0.99968153
0.99967368
0.9996664
0.99965965
0.99965338
0.99964756
0.99964217
0.99963717
0.99963253
0.99962824
0.99962426
0.99962058
0.99961717
0.99961403
0.99961114
1.0000284
1.0000313
1.0000344
1.0000378
1.0000415
1.0000454
1.0000497
1.0000542
1.000059
1.0000642
1.0000696
1.0000753
1.0000813
1.0000875
1.0000938
1.0001003
1.0001068
1.0001133
1.0001195
1.0001255
1.0001309
1.0001356
1.0001394
1.0001421
1.0001435
1.0001431
1.0001411
1.000137
1.0001307
1.0001223
1.0001114
1.0000988
1.0000838
1.0000667
1.000048
1.0000277
1.000006
0.99998356
0.99996067
0.99993756
0.99991437
0.9998913
0.99986845
0.99984617
0.99982447
0.99980456
0.99978552
0.99976627
0.99974771
0.99973006
0.99971334
0.99969751
0.99968265
0.99966862
0.99965538
0.99964295
0.99963132
0.99962052
0.99961046
0.99960109
0.9995924
0.99958437
0.99957695
0.99957007
0.9995637
0.99955779
0.99955232
0.99954725
0.99954255
0.9995382
0.99953417
0.99953044
0.99952699
0.99952385
1.0000316
1.0000348
1.0000382
1.000042
1.0000461
1.0000504
1.0000551
1.0000601
1.0000655
1.0000712
1.0000773
1.0000837
1.0000903
1.0000972
1.0001044
1.0001116
1.0001189
1.000126
1.000133
1.0001396
1.0001456
1.0001507
1.0001548
1.0001577
1.0001589
1.0001582
1.0001555
1.0001504
1.0001429
1.0001327
1.0001198
1.0001044
1.0000865
1.0000662
1.0000439
1.0000199
0.9999943
0.99996753
0.99993998
0.99991205
0.99988403
0.99985615
0.99982865
0.99980176
0.99977556
0.99975017
0.99972577
0.99970247
0.99968032
0.99965927
0.99963936
0.99962047
0.99960291
0.99958524
0.99956879
0.99955446
0.99954123
0.99952883
0.99951715
0.99950669
0.99949687
0.99948765
0.99947901
0.99947092
0.99946336
0.99945631
0.99944975
0.99944364
0.99943789
0.99943256
0.99942763
0.99942308
0.99941888
0.99941502
1.0000334
1.0000369
1.0000406
1.0000447
1.0000491
1.0000538
1.0000589
1.0000644
1.0000702
1.0000765
1.000083
1.00009
1.0000973
1.0001049
1.0001127
1.0001207
1.0001287
1.0001367
1.0001445
1.0001518
1.0001586
1.0001645
1.0001692
1.0001726
1.0001743
1.0001739
1.0001713
1.0001662
1.0001583
1.0001476
1.0001339
1.0001173
1.0000979
1.0000759
1.0000515
1.0000252
0.99999706
0.99996753
0.99993699
0.99990585
0.99987446
0.9998431
0.99981205
0.99978163
0.99975199
0.99972316
0.99969526
0.99966848
0.99964293
0.99961861
0.99959555
0.9995737
0.99955311
0.99953376
0.99951558
0.99949851
0.9994825
0.99946755
0.99945359
0.99944055
0.9994284
0.99941711
0.99940662
0.99939689
0.99938784
0.99937945
0.99937167
0.99936445
0.99935775
0.99935155
0.99934577
0.99934049
0.99933532
0.99933067
1.0000345
1.0000381
1.000042
1.0000463
1.000051
1.000056
1.0000614
1.0000672
1.0000734
1.00008
1.000087
1.0000944
1.0001022
1.0001104
1.0001188
1.0001274
1.0001361
1.0001448
1.0001533
1.0001614
1.0001689
1.0001756
1.0001811
1.0001852
1.0001876
1.0001879
1.0001858
1.0001812
1.0001736
1.0001631
1.0001494
1.0001327
1.000113
1.0000905
1.0000654
1.0000382
1.000009
0.99997829
0.9999464
0.99991377
0.99988076
0.99984767
0.99981481
0.99978251
0.99975094
0.99972017
0.99969034
0.99966162
0.99963412
0.99960789
0.99958294
0.99955927
0.99953688
0.99951582
0.99949605
0.99947746
0.99946
0.99944364
0.99942834
0.99941402
0.99940065
0.99938819
0.99937661
0.99936583
0.99935584
0.99934648
0.99933761
0.99932938
0.99932179
0.99931481
0.99930838
0.99930247
0.99929702
0.99929205
1.0000351
1.0000388
1.0000429
1.0000473
1.0000521
1.0000573
1.0000629
1.000069
1.0000754
1.0000823
1.0000897
1.0000975
1.0001056
1.0001142
1.0001231
1.0001322
1.0001414
1.0001507
1.0001598
1.0001685
1.0001767
1.0001841
1.0001903
1.0001951
1.0001982
1.0001992
1.0001978
1.0001938
1.0001868
1.0001768
1.0001636
1.0001472
1.0001278
1.0001055
1.0000805
1.0000533
1.000024
0.99999309
0.99996092
0.99992793
0.99989448
0.99986089
0.99982747
0.99979454
0.9997623
0.99973084
0.99970029
0.99967083
0.99964259
0.9996156
0.9995899
0.99956549
0.99954238
0.9995206
0.99950012
0.99948085
0.99946273
0.99944574
0.99942983
0.99941495
0.99940104
0.99938807
0.999376
0.99936477
0.99935433
0.99934463
0.99933562
0.99932727
0.99931951
0.99931233
0.99930567
0.99929951
0.99929381
0.99928856
1.0000354
1.0000392
1.0000433
1.0000479
1.0000528
1.0000581
1.0000639
1.0000701
1.0000768
1.0000839
1.0000915
1.0000995
1.000108
1.0001168
1.0001261
1.0001355
1.0001452
1.0001549
1.0001644
1.0001737
1.0001824
1.0001904
1.0001972
1.0002026
1.0002063
1.0002079
1.0002072
1.0002037
1.0001974
1.0001879
1.0001753
1.0001595
1.0001405
1.0001186
1.000094
1.0000671
1.0000381
1.0000074
0.99997547
0.99994263
0.99990928
0.99987576
0.99984237
0.99980944
0.99977716
0.99974565
0.99971503
0.99968549
0.99965714
0.99963003
0.9996042
0.99957965
0.99955641
0.99953448
0.99951383
0.9994944
0.99947613
0.999459
0.99944295
0.99942793
0.9994139
0.99940081
0.99938862
0.99937727
0.99936671
0.99935691
0.9993478
0.99933935
0.99933151
0.99932425
0.99931752
0.99931129
0.99930553
0.9993002
1.0000355
1.0000394
1.0000436
1.0000482
1.0000532
1.0000586
1.0000645
1.0000708
1.0000776
1.0000849
1.0000927
1.0001009
1.0001096
1.0001187
1.0001281
1.0001379
1.0001478
1.0001579
1.0001678
1.0001775
1.0001866
1.000195
1.0002023
1.0002082
1.0002124
1.0002145
1.0002142
1.0002113
1.0002055
1.0001965
1.0001844
1.000169
1.0001505
1.0001291
1.0001049
1.0000784
1.0000497
1.0000194
0.99998771
0.99995514
0.99992204
0.99988874
0.99985556
0.9998228
0.99979067
0.99975929
0.99972881
0.99969939
0.99967114
0.99964412
0.99961837
0.9995939
0.99957072
0.99954883
0.99952822
0.99950883
0.99949059
0.99947348
0.99945746
0.99944247
0.99942846
0.99941538
0.99940321
0.99939187
0.99938133
0.99937154
0.99936244
0.999354
0.99934617
0.99933891
0.99933218
0.99932596
0.99932019
0.99931486
1.0000356
1.0000395
1.0000437
1.0000484
1.0000535
1.000059
1.0000649
1.0000713
1.0000782
1.0000856
1.0000935
1.0001018
1.0001107
1.0001199
1.0001296
1.0001395
1.0001497
1.00016
1.0001702
1.0001801
1.0001896
1.0001983
1.0002059
1.0002122
1.0002168
1.0002193
1.0002194
1.0002169
1.0002115
1.0002029
1.0001912
1.0001762
1.0001581
1.000137
1.0001132
1.0000869
1.0000586
1.0000285
0.99999711
0.99996478
0.99993189
0.9998988
0.9998658
0.9998332
0.99980121
0.99976998
0.99973963
0.99971033
0.9996822
0.99965528
0.99962962
0.99960524
0.99958214
0.99956032
0.99953977
0.99952042
0.99950224
0.99948518
0.99946921
0.99945426
0.9994403
0.99942727
0.99941513
0.99940383
0.99939332
0.99938355
0.99937448
0.99936607
0.99935826
0.99935102
0.99934431
0.9993381
0.99933235
0.99932704
1.0000356
1.0000395
1.0000438
1.0000485
1.0000536
1.0000591
1.0000651
1.0000716
1.0000786
1.000086
1.000094
1.0001025
1.0001114
1.0001208
1.0001306
1.0001407
1.0001511
1.0001615
1.0001719
1.0001821
1.0001917
1.0002007
1.0002086
1.0002151
1.00022
1.0002228
1.0002233
1.0002211
1.0002159
1.0002077
1.0001962
1.0001815
1.0001637
1.0001429
1.0001193
1.0000933
1.0000651
1.0000353
1.000004
0.99997185
0.99993912
0.99990616
0.99987328
0.99984079
0.99980889
0.99977774
0.99974748
0.99971826
0.99969019
0.99966334
0.99963774
0.99961341
0.99959036
0.99956858
0.99954806
0.99952874
0.99951059
0.99949356
0.99947761
0.99946269
0.99944876
0.99943575
0.99942364
0.99941236
0.99940186
0.99939211
0.99938306
0.99937465
0.99936686
0.99935963
0.99935294
0.99934674
0.99934099
0.99933569
1.0000356
1.0000395
1.0000438
1.0000486
1.0000537
1.0000593
1.0000653
1.0000718
1.0000788
1.0000863
1.0000943
1.0001029
1.0001119
1.0001214
1.0001313
1.0001415
1.000152
1.0001626
1.0001731
1.0001834
1.0001933
1.0002024
1.0002105
1.0002172
1.0002223
1.0002254
1.000226
1.000224
1.0002191
1.0002111
1.0001999
1.0001854
1.0001678
1.0001472
1.0001238
1.0000979
1.0000699
1.0000402
1.000009
0.99997698
0.99994434
0.99991146
0.99987865
0.99984621
0.99981436
0.99978325
0.99975303
0.99972385
0.99969582
0.99966899
0.99964341
0.99961911
0.99959607
0.99957431
0.9995538
0.99953449
0.99951634
0.99949932
0.99948338
0.99946848
0.99945455
0.99944156
0.99942945
0.99941818
0.9994077
0.99939795
0.9993889
0.99938051
0.99937272
0.99936549
0.9993588
0.9993526
0.99934686
0.99934156
1.0000356
1.0000395
1.0000439
1.0000486
1.0000537
1.0000593
1.0000654
1.0000719
1.0000789
1.0000865
1.0000946
1.0001032
1.0001122
1.0001218
1.0001318
1.0001421
1.0001526
1.0001633
1.000174
1.0001844
1.0001944
1.0002036
1.0002118
1.0002188
1.000224
1.0002272
1.000228
1.0002262
1.0002215
1.0002136
1.0002026
1.0001883
1.0001708
1.0001503
1.000127
1.0001013
1.0000734
1.0000438
1.0000127
0.99998074
0.99994815
0.99991532
0.99988255
0.99985013
0.99981829
0.99978719
0.99975699
0.99972782
0.9996998
0.99967298
0.9996474
0.9996231
0.99960007
0.9995783
0.99955778
0.99953846
0.99952031
0.99950329
0.99948735
0.99947244
0.99945851
0.99944552
0.99943341
0.99942213
0.99941165
0.9994019
0.99939285
0.99938445
0.99937666
0.99936944
0.99936274
0.99935654
0.9993508
0.99934549
1.0000356
1.0000395
1.0000439
1.0000486
1.0000537
1.0000593
1.0000654
1.000072
1.000079
1.0000866
1.0000947
1.0001033
1.0001125
1.0001221
1.0001321
1.0001424
1.0001531
1.0001638
1.0001745
1.0001851
1.0001951
1.0002045
1.0002128
1.0002198
1.0002251
1.0002287
1.0002295
1.0002278
1.0002232
1.0002155
1.0002046
1.0001904
1.0001731
1.0001527
1.0001296
1.0001039
1.0000761
1.0000465
1.0000156
0.99998363
0.99995108
0.99991827
0.99988552
0.9998531
0.99982126
0.99979016
0.99975996
0.99973079
0.99970276
0.99967593
0.99965035
0.99962603
0.99960299
0.99958121
0.99956067
0.99954134
0.99952318
0.99950614
0.99949019
0.99947527
0.99946134
0.99944834
0.99943622
0.99942494
0.99941445
0.9994047
0.99939565
0.99938724
0.99937945
0.99937222
0.99936552
0.99935931
0.99935357
0.99934825
1.0000356
1.0000395
1.0000438
1.0000486
1.0000537
1.0000593
1.0000654
1.000072
1.0000791
1.0000867
1.0000948
1.0001035
1.0001126
1.0001222
1.0001323
1.0001427
1.0001534
1.0001642
1.000175
1.0001855
1.0001957
1.0002051
1.0002135
1.0002206
1.000226
1.0002295
1.0002306
1.0002291
1.0002246
1.000217
1.0002062
1.0001922
1.000175
1.0001547
1.0001317
1.0001061
1.0000784
1.0000489
1.000018
0.99998605
0.99995353
0.99992074
0.999888
0.99985558
0.99982373
0.99979262
0.99976241
0.99973323
0.99970519
0.99967834
0.99965274
0.9996284
0.99960534
0.99958354
0.99956298
0.99954363
0.99952545
0.9995084
0.99949243
0.99947749
0.99946355
0.99945054
0.99943841
0.99942712
0.99941662
0.99940686
0.9993978
0.99938938
0.99938158
0.99937435
0.99936764
0.99936143
0.99935568
0.99935036
1.0000356
1.0000395
1.0000438
1.0000486
1.0000537
1.0000593
1.0000654
1.000072
1.0000791
1.0000867
1.0000949
1.0001035
1.0001127
1.0001224
1.0001324
1.0001429
1.0001536
1.0001644
1.0001752
1.0001858
1.000196
1.0002055
1.000214
1.0002212
1.0002267
1.0002302
1.0002314
1.00023
1.0002257
1.0002182
1.0002076
1.0001937
1.0001766
1.0001565
1.0001335
1.0001081
1.0000804
1.000051
1.0000201
0.99998827
0.99995578
0.99992301
0.99989028
0.99985786
0.99982599
0.99979487
0.99976464
0.99973544
0.99970738
0.99968051
0.99965488
0.99963052
0.99960743
0.99958561
0.99956502
0.99954564
0.99952744
0.99951037
0.99949438
0.99947942
0.99946546
0.99945243
0.99944029
0.99942899
0.99941848
0.99940871
0.99939963
0.99939121
0.99938339
0.99937615
0.99936943
0.99936321
0.99935745
0.99935213
1.0000356
1.0000395
1.0000438
1.0000486
1.0000537
1.0000593
1.0000654
1.000072
1.0000791
1.0000867
1.0000949
1.0001036
1.0001127
1.0001224
1.0001325
1.000143
1.0001537
1.0001646
1.0001754
1.0001861
1.0001963
1.0002058
1.0002144
1.0002216
1.0002272
1.0002308
1.0002321
1.0002308
1.0002266
1.0002193
1.0002088
1.0001951
1.0001781
1.0001581
1.0001353
1.00011
1.0000825
1.0000531
1.0000223
0.99999052
0.99995807
0.99992532
0.9998926
0.99986018
0.9998283
0.99979715
0.99976691
0.99973768
0.99970959
0.99968269
0.99965704
0.99963265
0.99960953
0.99958767
0.99956705
0.99954764
0.99952941
0.99951231
0.9994963
0.99948132
0.99946734
0.99945429
0.99944213
0.99943081
0.99942028
0.9994105
0.99940141
0.99939297
0.99938515
0.99937789
0.99937116
0.99936494
0.99935917
0.99935384
1.0000355
1.0000395
1.0000438
1.0000486
1.0000537
1.0000593
1.0000654
1.000072
1.0000791
1.0000867
1.0000949
1.0001036
1.0001128
1.0001224
1.0001325
1.000143
1.0001537
1.0001646
1.0001755
1.0001862
1.0001964
1.000206
1.0002146
1.0002219
1.0002276
1.0002313
1.0002327
1.0002315
1.0002275
1.0002203
1.00021
1.0001965
1.0001797
1.0001599
1.0001373
1.0001121
1.0000847
1.0000554
1.0000248
0.99999302
0.99996062
0.9999279
0.99989519
0.99986277