/*--------------------------------*- C++ -*----------------------------------*\
| =========                 |                                                 |
| \\      /  F ield         | OpenFOAM: The Open Source CFD Toolbox           |
|  \\    /   O peration     | Version:  v2006                                 |
|   \\  /    A nd           | Website:  www.openfoam.com                      |
|    \\/     M anipulation  |                                                 |
\*---------------------------------------------------------------------------*/
FoamFile
{
    version     2.0;
    format      ascii;
    class       volScalarField;
    location    "7000";
    object      TMean;
}
// * * * * * * * * * * * * * * * * * * * * * * * * * * * * * * * * * * * * * //

dimensions      [0 0 0 1 0 0 0];


internalField   nonuniform List<scalar> 
55713
(
1.000007
1.0000083
1.0000091
1.0000094
1.0000095
1.0000096
1.0000095
1.0000095
1.0000095
1.0000095
1.0000095
1.0000095
1.0000095
1.0000095
1.0000095
1.0000095
1.0000095
1.0000095
1.0000095
1.0000095
1.0000095
1.0000095
1.0000095
1.0000095
1.0000095
1.0000095
1.0000095
1.0000095
1.0000095
1.0000095
1.0000095
1.0000095
1.0000095
1.0000095
1.0000095
1.0000095
1.0000095
1.0000095
1.0000095
1.0000095
1.0000095
1.0000095
1.0000095
1.0000095
1.0000095
1.0000095
1.0000095
1.0000095
1.0000095
1.0000095
1.0000095
1.0000095
1.0000095
1.0000095
1.0000095
1.0000095
1.0000095
1.0000095
1.0000095
1.0000066
1.0000079
1.0000086
1.0000089
1.0000089
1.0000089
1.0000089
1.0000089
1.0000089
1.0000089
1.0000089
1.0000089
1.0000089
1.0000089
1.0000089
1.0000089
1.0000089
1.0000089
1.0000089
1.0000089
1.0000089
1.0000089
1.0000089
1.0000089
1.0000089
1.0000089
1.0000089
1.0000089
1.0000089
1.0000089
1.0000089
1.0000089
1.0000089
1.0000089
1.0000089
1.0000089
1.0000089
1.0000089
1.0000089
1.0000089
1.0000089
1.0000089
1.0000089
1.0000089
1.0000089
1.0000089
1.0000089
1.0000089
1.0000089
1.0000089
1.0000089
1.0000089
1.0000089
1.0000089
1.0000089
1.0000089
1.0000089
1.0000089
1.0000089
1.0000063
1.0000075
1.0000081
1.0000084
1.0000084
1.0000084
1.0000084
1.0000084
1.0000084
1.0000084
1.0000084
1.0000084
1.0000084
1.0000084
1.0000084
1.0000084
1.0000084
1.0000084
1.0000083
1.0000083
1.0000083
1.0000083
1.0000083
1.0000083
1.0000083
1.0000083
1.0000083
1.0000083
1.0000083
1.0000083
1.0000083
1.0000083
1.0000083
1.0000083
1.0000083
1.0000083
1.0000083
1.0000083
1.0000084
1.0000084
1.0000084
1.0000084
1.0000084
1.0000084
1.0000084
1.0000084
1.0000084
1.0000084
1.0000084
1.0000084
1.0000084
1.0000084
1.0000084
1.0000084
1.0000084
1.0000084
1.0000084
1.0000084
1.0000084
1.0000061
1.0000072
1.0000077
1.0000079
1.0000079
1.0000079
1.0000079
1.0000079
1.0000079
1.0000079
1.0000079
1.0000079
1.0000079
1.0000079
1.0000079
1.0000079
1.0000079
1.0000079
1.0000079
1.0000079
1.0000079
1.0000079
1.0000079
1.0000079
1.0000079
1.0000079
1.0000078
1.0000078
1.0000078
1.0000078
1.0000078
1.0000079
1.0000079
1.0000079
1.0000079
1.0000079
1.0000079
1.0000079
1.0000079
1.0000079
1.0000079
1.0000079
1.0000079
1.0000079
1.0000079
1.0000079
1.0000079
1.0000079
1.0000079
1.0000079
1.0000079
1.0000079
1.0000079
1.0000079
1.0000079
1.0000079
1.0000079
1.0000079
1.0000079
1.0000059
1.0000069
1.0000074
1.0000075
1.0000075
1.0000075
1.0000075
1.0000075
1.0000075
1.0000075
1.0000075
1.0000075
1.0000075
1.0000075
1.0000075
1.0000075
1.0000075
1.0000075
1.0000075
1.0000075
1.0000075
1.0000075
1.0000075
1.0000075
1.0000074
1.0000074
1.0000074
1.0000074
1.0000074
1.0000074
1.0000074
1.0000074
1.0000075
1.0000075
1.0000075
1.0000075
1.0000075
1.0000075
1.0000075
1.0000075
1.0000075
1.0000075
1.0000075
1.0000075
1.0000075
1.0000075
1.0000075
1.0000075
1.0000075
1.0000075
1.0000075
1.0000075
1.0000075
1.0000075
1.0000075
1.0000075
1.0000075
1.0000075
1.0000075
1.0000057
1.0000067
1.0000071
1.0000072
1.0000072
1.0000071
1.0000071
1.0000071
1.0000071
1.0000071
1.0000071
1.0000071
1.0000071
1.0000071
1.0000071
1.0000071
1.0000071
1.0000071
1.0000071
1.0000071
1.0000071
1.0000071
1.0000071
1.0000071
1.0000071
1.0000071
1.0000071
1.0000071
1.0000071
1.0000071
1.0000071
1.0000071
1.0000071
1.0000071
1.0000071
1.0000071
1.0000071
1.0000071
1.0000071
1.0000071
1.0000071
1.0000071
1.0000071
1.0000071
1.0000071
1.0000071
1.0000071
1.0000072
1.0000072
1.0000072
1.0000071
1.0000071
1.0000071
1.0000072
1.0000072
1.0000072
1.0000072
1.0000072
1.0000072
1.0000056
1.0000065
1.0000068
1.0000069
1.0000068
1.0000068
1.0000068
1.0000068
1.0000068
1.0000068
1.0000068
1.0000068
1.0000068
1.0000068
1.0000068
1.0000068
1.0000068
1.0000068
1.0000068
1.0000068
1.0000068
1.0000068
1.0000068
1.0000068
1.0000068
1.0000068
1.0000068
1.0000068
1.0000068
1.0000068
1.0000068
1.0000068
1.0000068
1.0000068
1.0000068
1.0000068
1.0000068
1.0000068
1.0000068
1.0000068
1.0000068
1.0000068
1.0000068
1.0000068
1.0000068
1.0000068
1.0000068
1.0000068
1.0000068
1.0000068
1.0000068
1.0000068
1.0000068
1.0000068
1.0000069
1.0000069
1.0000069
1.0000069
1.0000069
1.0000055
1.0000064
1.0000066
1.0000066
1.0000066
1.0000066
1.0000065
1.0000066
1.0000066
1.0000066
1.0000066
1.0000065
1.0000066
1.0000066
1.0000066
1.0000065
1.0000065
1.0000065
1.0000065
1.0000065
1.0000065
1.0000065
1.0000065
1.0000065
1.0000065
1.0000065
1.0000065
1.0000065
1.0000065
1.0000065
1.0000065
1.0000065
1.0000065
1.0000065
1.0000065
1.0000065
1.0000065
1.0000065
1.0000065
1.0000065
1.0000065
1.0000066
1.0000066
1.0000065
1.0000065
1.0000065
1.0000066
1.0000066
1.0000066
1.0000066
1.0000066
1.0000066
1.0000066
1.0000066
1.0000066
1.0000066
1.0000066
1.0000066
1.0000066
1.0000055
1.0000063
1.0000064
1.0000064
1.0000064
1.0000064
1.0000064
1.0000064
1.0000064
1.0000064
1.0000064
1.0000064
1.0000064
1.0000064
1.0000064
1.0000063
1.0000063
1.0000063
1.0000063
1.0000063
1.0000063
1.0000063
1.0000063
1.0000063
1.0000063
1.0000063
1.0000063
1.0000063
1.0000063
1.0000063
1.0000063
1.0000063
1.0000063
1.0000063
1.0000063
1.0000063
1.0000063
1.0000063
1.0000063
1.0000063
1.0000063
1.0000064
1.0000064
1.0000064
1.0000063
1.0000063
1.0000064
1.0000064
1.0000064
1.0000064
1.0000064
1.0000064
1.0000064
1.0000064
1.0000064
1.0000064
1.0000064
1.0000064
1.0000064
1.0000054
1.0000062
1.0000063
1.0000062
1.0000062
1.0000062
1.0000062
1.0000062
1.0000062
1.0000062
1.0000062
1.0000062
1.0000062
1.0000062
1.0000062
1.0000062
1.0000062
1.0000062
1.0000062
1.0000062
1.0000062
1.0000062
1.0000061
1.0000061
1.0000061
1.0000061
1.0000061
1.0000061
1.0000061
1.0000061
1.0000061
1.0000061
1.0000061
1.0000061
1.0000062
1.0000062
1.0000062
1.0000062
1.0000062
1.0000062
1.0000062
1.0000062
1.0000062
1.0000062
1.0000062
1.0000062
1.0000062
1.0000062
1.0000062
1.0000062
1.0000062
1.0000062
1.0000062
1.0000062
1.0000062
1.0000063
1.0000063
1.0000062
1.0000062
1.0000053
1.0000059
1.0000059
1.0000059
1.0000059
1.0000059
1.0000059
1.0000059
1.0000059
1.0000058
1.0000058
1.0000059
1.0000059
1.0000059
1.0000058
1.0000058
1.0000058
1.0000058
1.0000058
1.0000058
1.0000058
1.0000058
1.0000058
1.0000058
1.0000058
1.0000058
1.0000058
1.0000058
1.0000058
1.0000058
1.0000058
1.0000058
1.0000058
1.0000058
1.0000058
1.0000058
1.0000058
1.0000058
1.0000058
1.0000058
1.0000058
1.0000058
1.0000058
1.0000058
1.0000058
1.0000058
1.0000058
1.0000059
1.0000059
1.0000059
1.0000059
1.0000059
1.0000058
1.0000059
1.0000059
1.0000059
1.000006
1.0000059
1.0000059
1.0000052
1.0000061
1.0000057
1.0000059
1.0000058
1.0000057
1.0000059
1.0000059
1.0000057
1.0000057
1.0000057
1.0000057
1.0000058
1.0000057
1.0000056
1.0000056
1.0000056
1.0000057
1.0000057
1.0000057
1.0000056
1.0000056
1.0000056
1.0000056
1.0000056
1.0000056
1.0000056
1.0000056
1.0000056
1.0000056
1.0000056
1.0000056
1.0000056
1.0000056
1.0000056
1.0000056
1.0000057
1.0000056
1.0000056
1.0000056
1.0000056
1.0000056
1.0000057
1.0000057
1.0000056
1.0000056
1.0000056
1.0000057
1.0000057
1.0000057
1.0000057
1.0000057
1.0000056
1.0000058
1.0000057
1.0000057
1.000006
1.0000057
1.0000057
1.0000068
1.0000073
1.0000069
1.0000072
1.0000069
1.0000069
1.0000072
1.0000069
1.0000069
1.000007
1.000007
1.0000071
1.000007
1.000007
1.000007
1.000007
1.000007
1.000007
1.0000071
1.0000071
1.000007
1.000007
1.000007
1.000007
1.000007
1.000007
1.000007
1.000007
1.000007
1.000007
1.000007
1.000007
1.000007
1.000007
1.000007
1.000007
1.000007
1.0000071
1.000007
1.000007
1.000007
1.000007
1.000007
1.000007
1.000007
1.000007
1.000007
1.000007
1.000007
1.000007
1.000007
1.000007
1.0000069
1.000007
1.0000071
1.0000068
1.0000072
1.000007
1.000007
1.0000055
1.0000043
1.0000049
1.0000043
1.0000049
1.0000051
1.0000046
1.0000047
1.0000049
1.0000049
1.0000048
1.0000046
1.0000045
1.0000046
1.0000046
1.0000046
1.0000045
1.0000044
1.0000043
1.0000042
1.0000042
1.0000042
1.0000042
1.0000042
1.0000042
1.0000042
1.0000042
1.0000042
1.0000042
1.0000042
1.0000042
1.0000042
1.0000042
1.0000042
1.0000042
1.0000042
1.0000042
1.0000043
1.0000044
1.0000045
1.0000046
1.0000048
1.0000048
1.0000049
1.0000051
1.0000052
1.000005
1.0000049
1.000005
1.000005
1.0000051
1.0000051
1.0000053
1.000005
1.0000049
1.000005
1.0000043
1.0000053
1.0000053
1.0000359
1.0000359
1.0000359
1.000036
1.000036
1.000036
1.000036
1.000036
1.000036
1.0000361
1.0000361
1.0000361
1.0000361
1.0000361
1.0000361
1.0000361
1.0000361
1.0000361
1.0000362
1.0000362
1.0000362
1.0000362
1.0000362
1.0000362
1.0000362
1.0000362
1.0000362
1.0000362
1.0000362
1.0000362
1.0000362
1.0000362
1.0000362
1.0000362
1.0000363
1.0000363
1.0000363
1.0000363
1.0000363
1.0000363
1.0000363
1.0000363
1.0000363
1.0000363
1.0000363
1.0000363
1.0000363
1.0000363
1.0000363
1.0000363
1.0000363
1.0000363
1.0000361
1.0000359
1.0000353
1.0000343
1.0000325
1.0000293
1.000025
1.0000329
1.000033
1.000033
1.000033
1.000033
1.000033
1.000033
1.000033
1.0000331
1.0000331
1.0000331
1.0000331
1.0000331
1.0000331
1.0000331
1.0000331
1.0000331
1.0000331
1.0000332
1.0000332
1.0000332
1.0000332
1.0000332
1.0000332
1.0000332
1.0000332
1.0000332
1.0000332
1.0000332
1.0000332
1.0000332
1.0000332
1.0000332
1.0000332
1.0000332
1.0000332
1.0000332
1.0000333
1.0000333
1.0000333
1.0000333
1.0000333
1.0000333
1.0000333
1.0000333
1.0000333
1.0000333
1.0000333
1.0000333
1.0000333
1.0000333
1.0000332
1.0000331
1.0000329
1.0000324
1.0000314
1.0000297
1.0000268
1.0000229
1.0000301
1.0000302
1.0000302
1.0000302
1.0000302
1.0000302
1.0000302
1.0000302
1.0000302
1.0000303
1.0000303
1.0000303
1.0000303
1.0000303
1.0000303
1.0000303
1.0000303
1.0000303
1.0000303
1.0000303
1.0000303
1.0000303
1.0000303
1.0000303
1.0000303
1.0000303
1.0000303
1.0000303
1.0000303
1.0000303
1.0000304
1.0000304
1.0000304
1.0000304
1.0000304
1.0000304
1.0000304
1.0000304
1.0000304
1.0000304
1.0000304
1.0000304
1.0000304
1.0000304
1.0000304
1.0000304
1.0000304
1.0000304
1.0000304
1.0000304
1.0000304
1.0000304
1.0000303
1.0000301
1.0000296
1.0000288
1.0000272
1.0000245
1.000021
1.0000275
1.0000276
1.0000276
1.0000276
1.0000276
1.0000276
1.0000276
1.0000276
1.0000276
1.0000276
1.0000276
1.0000276
1.0000277
1.0000277
1.0000277
1.0000277
1.0000277
1.0000277
1.0000277
1.0000277
1.0000277
1.0000277
1.0000277
1.0000277
1.0000277
1.0000277
1.0000277
1.0000277
1.0000277
1.0000277
1.0000277
1.0000277
1.0000277
1.0000277
1.0000277
1.0000277
1.0000277
1.0000278
1.0000278
1.0000278
1.0000278
1.0000278
1.0000278
1.0000278
1.0000278
1.0000278
1.0000278
1.0000278
1.0000278
1.0000278
1.0000278
1.0000278
1.0000277
1.0000275
1.0000271
1.0000263
1.0000249
1.0000224
1.0000192
1.0000251
1.0000251
1.0000251
1.0000251
1.0000251
1.0000252
1.0000252
1.0000252
1.0000252
1.0000252
1.0000252
1.0000252
1.0000252
1.0000252
1.0000252
1.0000252
1.0000252
1.0000252
1.0000252
1.0000252
1.0000253
1.0000252
1.0000252
1.0000252
1.0000252
1.0000252
1.0000252
1.0000252
1.0000252
1.0000252
1.0000252
1.0000252
1.0000253
1.0000253
1.0000253
1.0000253
1.0000253
1.0000253
1.0000253
1.0000253
1.0000253
1.0000253
1.0000253
1.0000253
1.0000253
1.0000253
1.0000253
1.0000253
1.0000253
1.0000253
1.0000253
1.0000253
1.0000252
1.0000251
1.0000247
1.000024
1.0000227
1.0000204
1.0000175
1.0000229
1.0000229
1.0000229
1.0000229
1.0000229
1.0000229
1.0000229
1.0000229
1.0000229
1.0000229
1.0000229
1.0000229
1.0000229
1.000023
1.000023
1.000023
1.000023
1.000023
1.000023
1.000023
1.000023
1.000023
1.000023
1.000023
1.000023
1.000023
1.000023
1.000023
1.000023
1.000023
1.000023
1.000023
1.000023
1.000023
1.000023
1.000023
1.000023
1.000023
1.000023
1.000023
1.000023
1.000023
1.000023
1.000023
1.000023
1.000023
1.000023
1.000023
1.000023
1.000023
1.000023
1.000023
1.000023
1.0000228
1.0000225
1.0000219
1.0000207
1.0000186
1.0000159
1.0000208
1.0000208
1.0000208
1.0000208
1.0000208
1.0000208
1.0000208
1.0000208
1.0000208
1.0000208
1.0000208
1.0000208
1.0000208
1.0000209
1.0000209
1.0000209
1.0000209
1.0000209
1.0000209
1.0000209
1.0000209
1.0000209
1.0000209
1.0000209
1.0000209
1.0000209
1.0000209
1.0000209
1.0000209
1.0000208
1.0000209
1.0000209
1.0000209
1.0000209
1.0000209
1.0000209
1.0000209
1.0000209
1.0000209
1.0000209
1.0000209
1.0000209
1.0000209
1.0000209
1.0000209
1.0000209
1.0000209
1.0000209
1.0000209
1.0000209
1.0000209
1.0000209
1.0000209
1.0000208
1.0000205
1.00002
1.0000189
1.0000169
1.0000145
1.0000189
1.0000189
1.0000189
1.0000189
1.0000189
1.0000189
1.0000189
1.0000189
1.0000189
1.0000189
1.0000189
1.0000189
1.0000189
1.0000189
1.0000189
1.0000189
1.0000189
1.0000189
1.0000189
1.0000189
1.0000189
1.0000189
1.0000189
1.0000189
1.0000189
1.0000189
1.0000189
1.0000189
1.0000189
1.0000189
1.0000189
1.0000189
1.0000189
1.0000189
1.0000189
1.0000189
1.0000189
1.0000189
1.0000189
1.000019
1.000019
1.000019
1.000019
1.000019
1.000019
1.000019
1.000019
1.000019
1.000019
1.000019
1.000019
1.000019
1.0000189
1.0000189
1.0000186
1.0000182
1.0000172
1.0000154
1.0000132
1.0000171
1.0000171
1.0000171
1.0000171
1.0000171
1.0000171
1.0000171
1.0000171
1.0000171
1.0000171
1.0000171
1.0000171
1.0000171
1.0000171
1.0000171
1.0000171
1.0000171
1.0000171
1.0000171
1.0000171
1.0000171
1.0000171
1.0000171
1.0000171
1.0000171
1.0000171
1.0000171
1.0000171
1.0000171
1.0000171
1.0000171
1.0000171
1.0000171
1.0000171
1.0000171
1.0000171
1.0000171
1.0000171
1.0000172
1.0000172
1.0000172
1.0000172
1.0000172
1.0000172
1.0000172
1.0000172
1.0000172
1.0000172
1.0000172
1.0000172
1.0000172
1.0000172
1.0000172
1.0000171
1.0000169
1.0000165
1.0000157
1.000014
1.000012
1.0000155
1.0000155
1.0000155
1.0000155
1.0000155
1.0000155
1.0000155
1.0000155
1.0000155
1.0000155
1.0000155
1.0000155
1.0000155
1.0000155
1.0000155
1.0000155
1.0000155
1.0000155
1.0000155
1.0000155
1.0000155
1.0000155
1.0000155
1.0000155
1.0000155
1.0000155
1.0000155
1.0000155
1.0000155
1.0000155
1.0000155
1.0000155
1.0000155
1.0000155
1.0000155
1.0000155
1.0000155
1.0000155
1.0000155
1.0000155
1.0000155
1.0000155
1.0000155
1.0000155
1.0000155
1.0000155
1.0000155
1.0000155
1.0000155
1.0000155
1.0000155
1.0000156
1.0000155
1.0000155
1.0000153
1.000015
1.0000142
1.0000128
1.0000109
1.000014
1.000014
1.000014
1.000014
1.000014
1.000014
1.000014
1.000014
1.000014
1.000014
1.000014
1.000014
1.000014
1.000014
1.000014
1.000014
1.000014
1.000014
1.000014
1.000014
1.000014
1.000014
1.000014
1.000014
1.000014
1.000014
1.000014
1.000014
1.000014
1.000014
1.000014
1.000014
1.000014
1.000014
1.000014
1.000014
1.000014
1.000014
1.000014
1.000014
1.000014
1.000014
1.000014
1.000014
1.000014
1.000014
1.000014
1.000014
1.000014
1.000014
1.000014
1.0000141
1.0000141
1.000014
1.0000139
1.0000136
1.000013
1.0000116
1.0000099
1.0000126
1.0000127
1.0000127
1.0000127
1.0000127
1.0000127
1.0000127
1.0000127
1.0000127
1.0000127
1.0000127
1.0000127
1.0000127
1.0000127
1.0000127
1.0000127
1.0000127
1.0000127
1.0000127
1.0000127
1.0000127
1.0000127
1.0000127
1.0000126
1.0000126
1.0000126
1.0000126
1.0000126
1.0000126
1.0000126
1.0000126
1.0000126
1.0000126
1.0000126
1.0000127
1.0000127
1.0000127
1.0000127
1.0000127
1.0000127
1.0000127
1.0000127
1.0000127
1.0000127
1.0000127
1.0000127
1.0000127
1.0000127
1.0000127
1.0000127
1.0000127
1.0000127
1.0000127
1.0000127
1.0000126
1.0000124
1.0000118
1.0000106
1.000009
1.0000114
1.0000114
1.0000114
1.0000114
1.0000114
1.0000114
1.0000114
1.0000114
1.0000114
1.0000114
1.0000114
1.0000114
1.0000114
1.0000114
1.0000114
1.0000114
1.0000114
1.0000114
1.0000114
1.0000114
1.0000114
1.0000114
1.0000114
1.0000114
1.0000114
1.0000114
1.0000114
1.0000114
1.0000114
1.0000114
1.0000114
1.0000114
1.0000114
1.0000114
1.0000114
1.0000114
1.0000114
1.0000114
1.0000114
1.0000114
1.0000114
1.0000115
1.0000115
1.0000115
1.0000115
1.0000115
1.0000115
1.0000115
1.0000115
1.0000115
1.0000115
1.0000115
1.0000115
1.0000115
1.0000114
1.0000112
1.0000108
1.0000097
1.0000082
1.0000104
1.0000104
1.0000104
1.0000104
1.0000104
1.0000104
1.0000103
1.0000103
1.0000103
1.0000103
1.0000103
1.0000104
1.0000104
1.0000104
1.0000103
1.0000103
1.0000103
1.0000103
1.0000104
1.0000104
1.0000103
1.0000103
1.0000103
1.0000103
1.0000103
1.0000103
1.0000103
1.0000103
1.0000103
1.0000103
1.0000103
1.0000103
1.0000103
1.0000103
1.0000103
1.0000103
1.0000103
1.0000103
1.0000103
1.0000103
1.0000103
1.0000104
1.0000104
1.0000104
1.0000104
1.0000104
1.0000104
1.0000104
1.0000104
1.0000104
1.0000104
1.0000104
1.0000104
1.0000104
1.0000104
1.0000102
1.0000098
1.0000089
1.0000075
1.0000274
1.0000303
1.0000335
1.000037
1.0000409
1.000045
1.0000494
1.0000541
1.0000592
1.0000646
1.0000703
1.0000764
1.0000828
1.0000895
1.0000966
1.0001038
1.0001113
1.0001189
1.0001266
1.0001342
1.0001416
1.0001486
1.000155
1.0001608
1.0001656
1.0001694
1.0001717
1.0001726
1.0001719
1.0001694
1.000165
1.0001592
1.0001514
1.0001419
1.0001309
1.0001188
1.0001054
1.0000912
1.0000765
1.0000613
1.0000457
1.0000299
1.0000141
0.99999835
0.99998286
0.9999677
0.99995304
0.99993893
0.99992542
0.99991255
0.9999002
0.99988836
0.99987714
0.99986656
0.99985663
0.99984732
0.9998386
0.99983043
0.99982279
0.99981564
0.99980897
0.99980274
0.99979694
0.99979155
0.99978653
0.99978187
0.99977753
0.99977351
0.99976977
0.99976631
0.99976309
0.99976011
0.99975733
0.99975479
1.000032
1.0000353
1.0000389
1.0000427
1.0000469
1.0000514
1.0000563
1.0000615
1.0000672
1.0000731
1.0000795
1.0000863
1.0000933
1.0001008
1.0001085
1.0001164
1.0001245
1.0001328
1.0001409
1.000149
1.0001566
1.0001638
1.0001703
1.0001758
1.0001802
1.0001832
1.0001845
1.0001841
1.0001817
1.0001772
1.0001706
1.0001619
1.0001512
1.0001386
1.0001243
1.0001085
1.0000915
1.0000734
1.0000546
1.0000355
1.0000162
0.9999969
0.99997778
0.99995895
0.99994063
0.99992296
0.99990629
0.99989017
0.99987461
0.99985971
0.99984553
0.99983209
0.99981937
0.99980739
0.99979611
0.99978553
0.9997756
0.99976629
0.9997576
0.99974948
0.99974192
0.99973488
0.99972835
0.99972229
0.99971667
0.99971146
0.99970663
0.99970216
0.99969801
0.99969417
0.99969062
0.99968733
0.99968428
0.99968149
1.0000355
1.0000391
1.0000431
1.0000474
1.000052
1.000057
1.0000624
1.0000682
1.0000745
1.0000811
1.0000882
1.0000957
1.0001036
1.0001119
1.0001205
1.0001294
1.0001384
1.0001475
1.0001566
1.0001655
1.000174
1.0001819
1.0001889
1.0001949
1.0001995
1.0002025
1.0002036
1.0002026
1.0001993
1.0001936
1.0001854
1.0001747
1.0001617
1.0001464
1.0001291
1.00011
1.0000894
1.0000677
1.0000451
1.0000219
0.99999843
0.99997497
0.99995173
0.99992888
0.99990657
0.99988493
0.99986404
0.99984401
0.9998249
0.99980672
0.99978949
0.99977318
0.99975783
0.99974324
0.99972933
0.9997164
0.99970446
0.99969339
0.99968309
0.99967354
0.99966469
0.99965647
0.99964883
0.99964172
0.99963511
0.99962897
0.99962326
0.99961797
0.99961306
0.99960851
0.99960429
0.9996004
0.99959678
0.99959346
1.0000376
1.0000415
1.0000457
1.0000504
1.0000554
1.0000608
1.0000667
1.000073
1.0000798
1.000087
1.0000947
1.0001029
1.0001115
1.0001205
1.00013
1.0001397
1.0001497
1.0001598
1.0001698
1.0001797
1.0001891
1.000198
1.0002059
1.0002127
1.0002181
1.0002217
1.0002233
1.0002225
1.0002193
1.0002135
1.0002049
1.0001935
1.0001795
1.0001629
1.0001441
1.0001232
1.0001006
1.0000766
1.0000515
1.0000257
0.99999943
0.99997307
0.99994684
0.99992098
0.99989568
0.99987106
0.99984723
0.99982428
0.99980229
0.99978132
0.99976139
0.99974251
0.99972466
0.99970785
0.99969203
0.99967716
0.99966322
0.99965018
0.999638
0.99962664
0.99961605
0.99960619
0.99959704
0.99958856
0.99958069
0.99957341
0.99956666
0.99956041
0.99955462
0.99954926
0.9995443
0.99953973
0.99953548
0.99953156
1.0000387
1.0000428
1.0000473
1.0000522
1.0000575
1.0000632
1.0000694
1.0000761
1.0000833
1.000091
1.0000992
1.0001079
1.0001171
1.0001268
1.0001369
1.0001473
1.0001581
1.000169
1.0001799
1.0001907
1.0002011
1.0002109
1.0002198
1.0002275
1.0002338
1.0002383
1.0002406
1.0002406
1.000238
1.0002327
1.0002244
1.0002133
1.0001993
1.0001826
1.0001635
1.0001421
1.0001188
1.000094
1.000068
1.0000411
1.0000136
0.99998593
0.99995828
0.99993093
0.99990408
0.99987789
0.99985247
0.99982792
0.99980434
0.9997818
0.99976032
0.99973992
0.9997206
0.99970236
0.99968518
0.99966905
0.9996539
0.99963971
0.99962643
0.99961402
0.99960244
0.99959164
0.99958159
0.99957224
0.99956355
0.99955549
0.99954797
0.99954096
0.99953445
0.99952843
0.99952287
0.99951775
0.99951301
0.99950869
1.0000394
1.0000436
1.0000482
1.0000533
1.0000588
1.0000647
1.0000712
1.0000781
1.0000856
1.0000936
1.0001022
1.0001113
1.0001209
1.0001311
1.0001417
1.0001528
1.0001641
1.0001757
1.0001873
1.0001988
1.00021
1.0002206
1.0002304
1.000239
1.0002462
1.0002515
1.0002547
1.0002556
1.0002538
1.0002492
1.0002416
1.0002311
1.0002176
1.0002014
1.0001826
1.0001615
1.0001384
1.0001136
1.0000876
1.0000606
1.0000329
1.000005
0.99997705
0.99994932
0.99992206
0.99989541
0.99986949
0.99984443
0.99982031
0.99979722
0.99977519
0.99975424
0.99973436
0.99971558
0.99969787
0.99968122
0.99966557
0.99965089
0.99963714
0.99962428
0.99961228
0.99960107
0.99959064
0.99958093
0.9995719
0.99956352
0.99955573
0.99954852
0.99954183
0.99953564
0.9995299
0.9995246
0.99951969
0.99951517
1.0000397
1.000044
1.0000488
1.0000539
1.0000596
1.0000657
1.0000723
1.0000794
1.0000871
1.0000954
1.0001042
1.0001136
1.0001236
1.0001341
1.0001451
1.0001566
1.0001684
1.0001805
1.0001927
1.0002048
1.0002166
1.0002279
1.0002383
1.0002477
1.0002556
1.0002617
1.0002657
1.0002673
1.0002662
1.0002624
1.0002555
1.0002457
1.0002329
1.0002172
1.000199
1.0001784
1.0001558
1.0001315
1.0001058
1.0000791
1.0000517
1.000024
0.99999626
0.99996869
0.99994154
0.99991498
0.99988912
0.9998641
0.99984001
0.99981692
0.99979487
0.99977388
0.99975398
0.99973514
0.99971738
0.99970066
0.99968494
0.99967019
0.99965637
0.99964345
0.99963137
0.9996201
0.9996096
0.99959982
0.99959073
0.99958229
0.99957445
0.99956717
0.99956043
0.99955418
0.9995484
0.99954305
0.9995381
0.99953354
1.0000399
1.0000443
1.0000491
1.0000543
1.00006
1.0000662
1.000073
1.0000802
1.0000881
1.0000965
1.0001055
1.0001152
1.0001254
1.0001361
1.0001475
1.0001593
1.0001714
1.0001839
1.0001965
1.000209
1.0002213
1.0002331
1.0002441
1.000254
1.0002625
1.0002692
1.0002739
1.0002761
1.0002757
1.0002725
1.0002662
1.000257
1.0002448
1.0002297
1.000212
1.0001919
1.0001698
1.0001459
1.0001206
1.0000943
1.0000673
1.00004
1.0000125
0.99998523
0.99995834
0.999932
0.99990636
0.99988153
0.99985762
0.99983469
0.99981278
0.99979193
0.99977215
0.99975342
0.99973575
0.99971912
0.99970348
0.9996888
0.99967505
0.99966218
0.99965015
0.99963893
0.99962848
0.99961874
0.99960969
0.99960127
0.99959346
0.99958621
0.9995795
0.99957327
0.99956751
0.99956218
0.99955725
0.9995527
1.00004
1.0000444
1.0000492
1.0000545
1.0000603
1.0000666
1.0000734
1.0000808
1.0000887
1.0000973
1.0001064
1.0001162
1.0001266
1.0001376
1.0001491
1.0001611
1.0001736
1.0001863
1.0001992
1.0002121
1.0002248
1.0002369
1.0002484
1.0002587
1.0002676
1.0002748
1.0002799
1.0002827
1.0002828
1.00028
1.0002743
1.0002655
1.0002538
1.0002391
1.0002219
1.0002022
1.0001804
1.0001569
1.000132
1.000106
1.0000793
1.0000522
1.000025
0.99999793
0.99997124
0.9999451
0.99991965
0.99989499
0.99987123
0.99984844
0.99982667
0.99980594
0.99978627
0.99976765
0.99975007
0.99973352
0.99971796
0.99970335
0.99968967
0.99967686
0.9996649
0.99965374
0.99964333
0.99963365
0.99962464
0.99961627
0.9996085
0.99960129
0.9995946
0.99958841
0.99958268
0.99957738
0.99957247
0.99956795
1.00004
1.0000444
1.0000493
1.0000547
1.0000605
1.0000668
1.0000737
1.0000811
1.0000891
1.0000978
1.000107
1.0001169
1.0001274
1.0001386
1.0001502
1.0001624
1.0001751
1.000188
1.0002012
1.0002143
1.0002272
1.0002397
1.0002514
1.0002621
1.0002713
1.0002789
1.0002843
1.0002875
1.0002879
1.0002855
1.0002802
1.0002718
1.0002604
1.0002461
1.0002291
1.0002097
1.0001883
1.000165
1.0001403
1.0001145
1.000088
1.0000611
1.0000341
1.0000071
0.9999806
0.99995458
0.99992923
0.99990468
0.99988101
0.99985831
0.99983662
0.99981596
0.99979635
0.99977779
0.99976027
0.99974377
0.99972825
0.99971369
0.99970005
0.99968728
0.99967535
0.99966423
0.99965385
0.9996442
0.99963522
0.99962687
0.99961912
0.99961194
0.99960528
0.9995991
0.99959339
0.99958811
0.99958322
0.99957871
1.00004
1.0000444
1.0000494
1.0000547
1.0000606
1.0000669
1.0000738
1.0000813
1.0000894
1.0000981
1.0001074
1.0001174
1.000128
1.0001392
1.000151
1.0001634
1.0001761
1.0001893
1.0002026
1.0002159
1.000229
1.0002417
1.0002536
1.0002645
1.000274
1.0002818
1.0002875
1.0002909
1.0002917
1.0002896
1.0002845
1.0002763
1.0002652
1.0002511
1.0002344
1.0002152
1.0001939
1.0001708
1.0001463
1.0001207
1.0000943
1.0000675
1.0000405
1.0000137
0.99998723
0.99996127
0.99993598
0.99991147
0.99988785
0.99986519
0.99984354
0.99982291
0.99980333
0.9997848
0.9997673
0.99975082
0.99973532
0.99972078
0.99970715
0.9996944
0.99968249
0.99967138
0.99966102
0.99965138
0.99964242
0.99963409
0.99962635
0.99961918
0.99961253
0.99960637
0.99960067
0.9995954
0.99959052
0.99958602
1.00004
1.0000444
1.0000494
1.0000547
1.0000606
1.000067
1.0000739
1.0000815
1.0000896
1.0000983
1.0001077
1.0001177
1.0001284
1.0001397
1.0001516
1.000164
1.0001769
1.0001901
1.0002035
1.000217
1.0002302
1.0002431
1.0002552
1.0002663
1.000276
1.000284
1.0002899
1.0002935
1.0002944
1.0002925
1.0002876
1.0002797
1.0002687
1.0002549
1.0002383
1.0002193
1.0001981
1.0001751
1.0001507
1.0001251
1.0000988
1.0000721
1.0000452
1.0000184
0.99999197
0.99996603
0.99994076
0.99991628
0.99989267
0.99987002
0.99984838
0.99982776
0.99980819
0.99978966
0.99977217
0.99975569
0.9997402
0.99972566
0.99971203
0.99969929
0.99968738
0.99967627
0.99966592
0.99965628
0.99964732
0.99963899
0.99963126
0.9996241
0.99961745
0.9996113
0.9996056
0.99960033
0.99959546
0.99959096
1.00004
1.0000444
1.0000494
1.0000548
1.0000606
1.000067
1.000074
1.0000815
1.0000897
1.0000985
1.0001079
1.000118
1.0001287
1.00014
1.000152
1.0001645
1.0001774
1.0001907
1.0002042
1.0002178
1.0002311
1.0002441
1.0002563
1.0002675
1.0002773
1.0002855
1.0002916
1.0002953
1.0002964
1.0002947
1.00029
1.0002822
1.0002714
1.0002577
1.0002412
1.0002223
1.0002013
1.0001784
1.000154
1.0001285
1.0001023
1.0000755
1.0000487
1.0000219
0.99999547
0.99996954
0.99994427
0.99991979
0.99989619
0.99987353
0.99985188
0.99983126
0.99981169
0.99979315
0.99977565
0.99975917
0.99974367
0.99972912
0.99971549
0.99970274
0.99969083
0.99967972
0.99966937
0.99965973
0.99965077
0.99964244
0.99963471
0.99962754
0.9996209
0.99961475
0.99960905
0.99960378
0.99959891
0.99959442
1.00004
1.0000444
1.0000494
1.0000548
1.0000606
1.0000671
1.000074
1.0000816
1.0000898
1.0000986
1.000108
1.0001181
1.0001289
1.0001402
1.0001522
1.0001648
1.0001778
1.0001911
1.0002047
1.0002183
1.0002317
1.0002448
1.0002571
1.0002684
1.0002783
1.0002866
1.0002928
1.0002967
1.0002979
1.0002963
1.0002918
1.0002841
1.0002735
1.0002599
1.0002435
1.0002247
1.0002038
1.0001809
1.0001566
1.0001312
1.000105
1.0000783
1.0000514
1.0000247
0.99999824
0.99997231
0.99994704
0.99992254
0.99989893
0.99987626
0.9998546
0.99983397
0.99981438
0.99979583
0.99977832
0.99976182
0.99974631
0.99973175
0.99971811
0.99970536
0.99969344
0.99968232
0.99967196
0.99966232
0.99965335
0.99964503
0.99963729
0.99963012
0.99962348
0.99961732
0.99961162
0.99960635
0.99960148
0.99959699
1.00004
1.0000444
1.0000494
1.0000548
1.0000606
1.0000671
1.000074
1.0000816
1.0000898
1.0000986
1.0001081
1.0001182
1.000129
1.0001404
1.0001524
1.0001649
1.000178
1.0001914
1.000205
1.0002187
1.0002322
1.0002452
1.0002576
1.000269
1.0002791
1.0002874
1.0002938
1.0002977
1.0002991
1.0002976
1.0002932
1.0002857
1.0002752
1.0002617
1.0002455
1.0002268
1.0002059
1.0001832
1.0001589
1.0001335
1.0001073
1.0000807
1.0000539
1.0000271
1.0000007
0.99997472
0.99994944
0.99992493
0.9999013
0.99987862
0.99985694
0.99983629
0.99981668
0.99979812
0.99978059
0.99976407
0.99974855
0.99973397
0.99972032
0.99970755
0.99969562
0.9996845
0.99967413
0.99966448
0.99965551
0.99964717
0.99963943
0.99963225
0.9996256
0.99961944
0.99961374
0.99960847
0.99960359
0.9995991
1.00004
1.0000444
1.0000494
1.0000548
1.0000606
1.0000671
1.000074
1.0000816
1.0000898
1.0000986
1.0001081
1.0001182
1.000129
1.0001404
1.0001525
1.0001651
1.0001781
1.0001915
1.0002052
1.0002189
1.0002324
1.0002456
1.000258
1.0002695
1.0002796
1.000288
1.0002945
1.0002985
1.0003001
1.0002987
1.0002944
1.0002871
1.0002767
1.0002634
1.0002473
1.0002287
1.0002079
1.0001853
1.0001611
1.0001358
1.0001097
1.000083
1.0000562
1.0000295
1.000003
0.99997709
0.99995179
0.99992726
0.99990362
0.99988091
0.99985921
0.99983854
0.99981891
0.99980032
0.99978277
0.99976623
0.99975069
0.9997361
0.99972243
0.99970964
0.9996977
0.99968656
0.99967618
0.99966652
0.99965754
0.99964919
0.99964144
0.99963426
0.9996276
0.99962144
0.99961573
0.99961045
0.99960557
0.99960107
1.00004
1.0000444
1.0000494
1.0000547
1.0000606
1.0000671
1.000074
1.0000816
1.0000898
1.0000986
1.0001081
1.0001182
1.000129
1.0001405
1.0001525
1.0001651
1.0001782
1.0001916
1.0002053
1.000219
1.0002326
1.0002458
1.0002583
1.0002698
1.00028
1.0002885
1.0002951
1.0002993
1.0003009
1.0002997
1.0002956
1.0002884
1.0002782
1.0002651
1.0002492
1.0002307
1.0002101
1.0001876
1.0001635
1.0001382
1.0001121
1.0000856
1.0000588
1.000032
1.0000056
0.99997965
0.99995433
0.99992979
0.99990612
0.99988339
0.99986166
0.99984096
0.9998213
0.99980269
0.99978511
0.99976855
0.99975298
0.99973836
0.99972467