/*--------------------------------*- C++ -*----------------------------------*\
| =========                 |                                                 |
| \\      /  F ield         | OpenFOAM: The Open Source CFD Toolbox           |
|  \\    /   O peration     | Version:  v2006                                 |
|   \\  /    A nd           | Website:  www.openfoam.com                      |
|    \\/     M anipulation  |                                                 |
\*---------------------------------------------------------------------------*/
FoamFile
{
    version     2.0;
    format      ascii;
    class       volVectorField;
    location    "7000";
    object      U;
}
// * * * * * * * * * * * * * * * * * * * * * * * * * * * * * * * * * * * * * //

dimensions      [0 1 -1 0 0 0 0];


internalField   nonuniform List<vector> 
55713
(
(0.10323294 6.1095825e-07 0)
(0.10313849 -3.123534e-07 0)
(0.10312123 8.3177349e-07 2.5656486e-18)
(0.10311891 6.2702854e-07 -2.5522887e-18)
(0.10312009 1.3535717e-06 2.5704372e-18)
(0.10312135 1.3568138e-06 1.0493511e-28)
(0.10312197 1.7870902e-06 -2.6460249e-18)
(0.10312206 1.9520056e-06 0)
(0.10312194 2.2404998e-06 1.0710561e-20)
(0.10312194 2.4604705e-06 0)
(0.10312211 2.6977986e-06 -1.1107645e-20)
(0.10312218 2.9281851e-06 -1.1312184e-20)
(0.10312195 3.1347875e-06 0)
(0.10312157 3.3205971e-06 3.0032001e-18)
(0.10312128 3.5098066e-06 -3.0578945e-18)
(0.10312118 3.6863553e-06 -6.0803943e-21)
(0.10312121 3.8600826e-06 3.1751389e-18)
(0.10312127 4.0400433e-06 -3.2252002e-18)
(0.10312139 4.2193261e-06 6.4099118e-21)
(0.10312164 4.403227e-06 -3.3389465e-18)
(0.10312207 4.5746878e-06 3.3897382e-18)
(0.10312263 4.750775e-06 0)
(0.10312322 4.928723e-06 0)
(0.10312373 5.096753e-06 -1.7922018e-18)
(0.1031241 5.2620028e-06 1.8144709e-18)
(0.10312435 5.4217189e-06 0)
(0.1031245 5.5762482e-06 0)
(0.10312459 5.7280197e-06 0)
(0.10312463 5.8849373e-06 2.4143894e-19)
(0.10312464 6.0549173e-06 -1.1853538e-28)
(0.10312459 6.240264e-06 -2.4386328e-19)
(0.10312449 6.4267021e-06 0)
(0.10312429 6.59731e-06 0)
(0.10312399 6.7646877e-06 0)
(0.10312364 6.9325012e-06 0)
(0.10312332 7.1000571e-06 1.8035312e-18)
(0.10312317 7.2631081e-06 -1.7671798e-18)
(0.10312327 7.4276098e-06 -3.4895904e-18)
(0.10312353 7.6018952e-06 1.9187039e-27)
(0.10312374 7.7811154e-06 3.3665745e-18)
(0.1031237 7.9687526e-06 0)
(0.10312336 8.1572606e-06 6.3634957e-21)
(0.10312285 8.3498986e-06 -3.2011903e-18)
(0.10312241 8.5451334e-06 3.1447153e-18)
(0.10312221 8.7511181e-06 3.0887367e-18)
(0.10312225 8.96932e-06 -3.0392428e-18)
(0.10312239 9.1884707e-06 0)
(0.10312251 9.4023411e-06 0)
(0.10312253 9.6230077e-06 -2.8602119e-18)
(0.10312241 9.8415982e-06 2.8194049e-18)
(0.10312219 1.0091228e-05 0)
(0.10312193 1.031582e-05 0)
(0.1031217 1.0603498e-05 0)
(0.10312144 1.0832047e-05 0)
(0.10312114 1.1171818e-05 2.5866093e-18)
(0.10312096 1.1406622e-05 -3.3232689e-27)
(0.10312114 1.1780821e-05 -3.776431e-18)
(0.10312138 1.2129775e-05 1.2270462e-18)
(0.10312118 1.2246812e-05 -1.9264615e-20)
(0.10323827 1.0017148e-06 0)
(0.1031523 -2.5233933e-07 2.4224502e-18)
(0.10313902 9.5769709e-07 -2.5049931e-18)
(0.10313777 5.9326362e-07 3.9161014e-20)
(0.10313917 1.1942807e-06 -2.5374723e-18)
(0.10314033 1.1300193e-06 5.1418594e-18)
(0.1031408 1.5206502e-06 1.6059463e-27)
(0.10314077 1.6713683e-06 -2.6837454e-18)
(0.1031406 2.0066786e-06 -1.0693021e-20)
(0.10314065 2.2571737e-06 2.18098e-20)
(0.10314084 2.5046998e-06 -2.835319e-18)
(0.10314078 2.6992482e-06 2.9131032e-18)
(0.10314036 2.8996235e-06 2.9575972e-18)
(0.10313985 3.0712928e-06 1.4956915e-27)
(0.10313955 3.226964e-06 2.2075609e-27)
(0.10313949 3.3552027e-06 -3.1213868e-18)
(0.10313956 3.4752944e-06 -6.2203131e-21)
(0.10313967 3.5702344e-06 0)
(0.10313984 3.6521682e-06 3.2938606e-18)
(0.10314017 3.7673092e-06 -6.7169879e-18)
(0.10314068 3.8950473e-06 3.423631e-18)
(0.1031413 4.0593854e-06 1.3576891e-20)
(0.1031419 4.2313283e-06 0)
(0.10314239 4.3812662e-06 7.0192969e-21)
(0.10314273 4.5242091e-06 0)
(0.10314295 4.6636347e-06 9.1369362e-19)
(0.10314308 4.7896601e-06 -1.8861725e-18)
(0.10314315 4.9220703e-06 9.4299062e-19)
(0.10314319 5.0877987e-06 2.4319465e-19)
(0.10314318 5.3081918e-06 -2.6150567e-19)
(0.10314314 5.5319982e-06 0)
(0.10314303 5.709869e-06 9.5130267e-19)
(0.10314285 5.8845519e-06 -1.902874e-18)
(0.10314255 6.0627118e-06 9.3644641e-19)
(0.10314219 6.2129862e-06 0)
(0.10314184 6.3366944e-06 1.8129852e-18)
(0.10314166 6.4341022e-06 -1.7900947e-18)
(0.10314172 6.5244141e-06 1.369819e-20)
(0.10314198 6.635851e-06 0)
(0.10314222 6.7717752e-06 6.6179688e-21)
(0.10314222 6.9345578e-06 3.329616e-18)
(0.10314189 7.1014587e-06 -6.5486137e-18)
(0.10314133 7.2741398e-06 -1.3256302e-27)
(0.10314083 7.4560036e-06 3.154957e-18)
(0.10314062 7.6573181e-06 -3.0973213e-18)
(0.1031407 7.8544861e-06 6.0859519e-18)
(0.10314091 8.0327397e-06 -5.9661162e-18)
(0.10314105 8.2196157e-06 2.9265254e-18)
(0.10314105 8.4284223e-06 -1.1212818e-20)
(0.10314091 8.6183036e-06 0)
(0.10314066 8.8665916e-06 0)
(0.10314037 9.0508736e-06 0)
(0.10314012 9.3595463e-06 -2.6743795e-18)
(0.10313986 9.521648e-06 2.6225956e-18)
(0.10313952 9.89007e-06 0)
(0.10313924 1.0051592e-05 3.9144343e-20)
(0.10313939 1.0460746e-05 0)
(0.10313967 1.0647603e-05 1.8905258e-20)
(0.10313945 1.1016306e-05 1.8546996e-20)
(0.10324285 1.147382e-06 0)
(0.10316593 -2.539662e-07 3.7321931e-20)
(0.10315462 9.0267955e-07 -3.7935255e-20)
(0.10315431 5.1189613e-07 -3.8472157e-20)
(0.10315587 1.0170225e-06 -2.5449295e-18)
(0.10315691 9.6157855e-07 2.5789752e-18)
(0.10315724 1.2792045e-06 0)
(0.1031571 1.3618987e-06 2.089464e-20)
(0.10315692 1.5790666e-06 -5.4656114e-18)
(0.10315704 1.7437129e-06 5.538391e-18)
(0.10315724 1.9475989e-06 0)
(0.10315702 2.1563024e-06 -2.2714649e-20)
(0.1031564 2.3723354e-06 0)
(0.1031558 2.6034883e-06 3.0006959e-18)
(0.10315554 2.8295598e-06 -6.1657478e-18)
(0.10315556 3.0495713e-06 3.1415151e-18)
(0.10315569 3.2448336e-06 -3.187768e-18)
(0.10315585 3.374035e-06 -2.6215375e-27)
(0.10315608 3.4762736e-06 3.3182065e-18)
(0.10315648 3.5555394e-06 -3.3774288e-18)
(0.10315706 3.6236103e-06 -5.9437656e-27)
(0.10315771 3.7482938e-06 3.4964616e-18)
(0.10315831 3.8898589e-06 0)
(0.10315877 4.0163398e-06 1.7940375e-18)
(0.10315907 4.1164625e-06 2.9506127e-27)
(0.10315927 4.2002651e-06 -1.8392492e-18)
(0.10315938 4.2701522e-06 -1.4833173e-20)
(0.10315944 4.3383739e-06 4.9727706e-19)
(0.10315946 4.4119582e-06 -4.8973271e-19)
(0.10315945 4.5011764e-06 2.4769826e-19)
(0.10315941 4.6421243e-06 -2.4674394e-19)
(0.10315931 4.8411076e-06 3.0370022e-20)
(0.10315913 5.0898647e-06 0)
(0.10315885 5.3055998e-06 1.4710238e-20)
(0.10315847 5.4607865e-06 -1.4472878e-20)
(0.10315809 5.5988885e-06 -1.423593e-20)
(0.10315785 5.7254412e-06 -1.3999566e-20)
(0.10315787 5.8136079e-06 -1.3763903e-20)
(0.10315812 5.9042953e-06 3.4498773e-18)
(0.10315841 6.0267172e-06 -3.4034457e-18)
(0.10315848 6.1495321e-06 0)
(0.10315819 6.2696999e-06 3.2840646e-18)
(0.10315762 6.3642138e-06 -3.2120119e-18)
(0.10315706 6.4087294e-06 3.1900001e-18)
(0.10315683 6.4902649e-06 -3.1060286e-18)
(0.10315698 6.6475619e-06 -3.0230575e-18)
(0.10315727 6.8236475e-06 -1.0734823e-27)
(0.10315743 6.9838654e-06 2.9058594e-18)
(0.1031574 7.1737069e-06 2.2420199e-20)
(0.1031572 7.3120488e-06 0)
(0.10315691 7.5736261e-06 0)
(0.10315658 7.7127461e-06 0)
(0.10315631 8.0595423e-06 2.0588108e-20)
(0.10315607 8.1644345e-06 -2.0134713e-20)
(0.1031557 8.5881323e-06 0)
(0.10315531 8.6948904e-06 2.4625357e-18)
(0.10315543 9.1192134e-06 -2.4061062e-18)
(0.10315578 9.2297058e-06 0)
(0.10315554 9.6976004e-06 0)
(0.10324644 1.1695283e-06 6.8433868e-20)
(0.10317696 -2.5428354e-07 -7.249154e-20)
(0.10316833 7.9620771e-07 -2.335311e-18)
(0.10316877 4.7593898e-07 2.4197602e-18)
(0.10317038 9.2948912e-07 3.8673412e-20)
(0.10317127 9.4034264e-07 0)
(0.10317147 1.2435125e-06 -2.6014988e-18)
(0.10317123 1.3133721e-06 7.9749046e-18)
(0.10317106 1.4849512e-06 -1.0912452e-17)
(0.10317131 1.5886644e-06 5.6022887e-18)
(0.10317149 1.7136694e-06 -2.8518428e-18)
(0.10317105 1.8333409e-06 2.275828e-20)
(0.10317023 1.9627032e-06 5.9479129e-18)
(0.10316962 2.0882504e-06 -3.0108726e-18)
(0.10316946 2.2322871e-06 0)
(0.10316959 2.3948358e-06 0)
(0.10316977 2.5956926e-06 -1.2559978e-20)
(0.10316996 2.8160021e-06 0)
(0.10317025 3.0365363e-06 0)
(0.10317073 3.2240263e-06 2.6529004e-20)
(0.10317136 3.356229e-06 -1.3499918e-20)
(0.10317203 3.4582919e-06 -2.7471808e-20)
(0.10317259 3.5560041e-06 -1.7884858e-18)
(0.10317301 3.6621318e-06 1.8330777e-18)
(0.10317328 3.7740544e-06 1.4447938e-20)
(0.10317344 3.8779722e-06 -1.4686568e-20)
(0.10317354 3.9583694e-06 9.7015825e-19)
(0.10317359 4.0031234e-06 -9.7052591e-19)
(0.10317361 4.0119925e-06 1.540293e-20)
(0.1031736 4.0161548e-06 -2.3361766e-19)
(0.10317356 4.043758e-06 -2.4809322e-19)
(0.10317346 4.1089376e-06 4.7324374e-19)
(0.10317329 4.2102246e-06 0)
(0.103173 4.3549953e-06 -1.9072598e-18)
(0.10317262 4.5490715e-06 1.4544734e-20)
(0.1031722 4.7574208e-06 3.6906845e-18)
(0.10317189 4.9674533e-06 -1.7863607e-18)
(0.10317185 5.1335061e-06 0)
(0.10317209 5.2613367e-06 1.3589365e-20)
(0.10317244 5.3812224e-06 0)
(0.10317262 5.4889509e-06 0)
(0.10317242 5.5484065e-06 2.5756054e-20)
(0.10317186 5.6151818e-06 -1.2641261e-20)
(0.10317126 5.6620875e-06 -3.2002992e-18)
(0.103171 5.7048422e-06 3.1147027e-18)
(0.10317122 5.7776247e-06 -3.2366578e-26)
(0.10317162 5.8991214e-06 2.3379177e-20)
(0.10317181 6.0320149e-06 3.1045526e-26)
(0.10317172 6.2347141e-06 -2.2415876e-20)
(0.10317145 6.3561637e-06 -5.5920869e-18)
(0.10317109 6.6244348e-06 5.4886354e-18)
(0.10317072 6.7218162e-06 4.189216e-20)
(0.10317042 7.0112028e-06 -2.6581738e-18)
(0.10317019 7.0940861e-06 5.105531e-18)
(0.10316984 7.4258328e-06 -5.0137614e-18)
(0.10316933 7.5296599e-06 2.4211618e-18)
(0.1031694 7.9281836e-06 -7.3551657e-20)
(0.10316982 7.9637589e-06 0)
(0.10316957 8.5443637e-06 0)
(0.10324914 1.0662457e-06 -6.6138906e-20)
(0.10318703 -1.9260573e-07 7.0440861e-20)
(0.1031803 6.851764e-07 -2.3191221e-18)
(0.10318135 4.636892e-07 2.3045826e-18)
(0.10318296 8.6635647e-07 -2.4453577e-18)
(0.10318369 9.3636586e-07 2.5554597e-18)
(0.10318377 1.2254639e-06 2.546392e-18)
(0.10318345 1.3464175e-06 -2.655897e-18)
(0.10318333 1.5219708e-06 5.4040772e-18)
(0.10318374 1.6380847e-06 -1.1113902e-17)
(0.10318387 1.7498968e-06 5.7087135e-18)
(0.10318317 1.818221e-06 -2.2800604e-20)
(0.10318222 1.8773042e-06 -2.9818538e-18)
(0.10318169 1.937867e-06 6.0891629e-18)
(0.1031817 1.9893165e-06 -3.1067701e-18)
(0.10318193 2.0627884e-06 -3.1685274e-18)
(0.10318216 2.1537579e-06 2.5234055e-20)
(0.10318236 2.2545217e-06 3.2654551e-18)
(0.1031827 2.3902027e-06 -2.618929e-20)
(0.10318323 2.5324734e-06 -5.3331746e-20)
(0.10318388 2.6710969e-06 1.3571268e-20)
(0.10318452 2.7992292e-06 1.3809897e-20)
(0.10318503 2.9155227e-06 0)
(0.10318539 3.0333801e-06 -1.8289652e-18)
(0.10318562 3.1539925e-06 -1.4529252e-20)
(0.10318576 3.2932724e-06 1.9053727e-18)
(0.10318584 3.4381843e-06 0)
(0.10318589 3.5683496e-06 0)
(0.10318591 3.6659446e-06 -3.0990298e-20)
(0.1031859 3.7201592e-06 2.3492922e-19)
(0.10318586 3.7284486e-06 -2.4936206e-19)
(0.10318577 3.7075828e-06 0)
(0.1031856 3.7138615e-06 0)
(0.10318532 3.7537397e-06 -1.9014993e-18)
(0.10318492 3.8245628e-06 3.740849e-18)
(0.10318444 3.9196971e-06 -1.8537963e-18)
(0.10318405 4.0441231e-06 -1.7802495e-18)
(0.10318394 4.1822793e-06 1.7776619e-18)
(0.10318416 4.3229568e-06 0)
(0.10318459 4.437703e-06 0)
(0.10318492 4.5361151e-06 -3.3970632e-18)
(0.10318485 4.636797e-06 3.2833204e-18)
(0.10318435 4.7942754e-06 2.5370929e-20)
(0.10318371 4.9369057e-06 -3.1855551e-18)
(0.10318338 5.0925794e-06 6.2221822e-18)
(0.10318363 5.2152418e-06 -3.0844932e-18)
(0.10318415 5.351455e-06 -3.0207482e-18)
(0.1031844 5.4399447e-06 5.8668701e-18)
(0.10318425 5.6031638e-06 -2.8687733e-18)
(0.10318389 5.670791e-06 -6.5700463e-20)
(0.10318346 5.8561015e-06 0)
(0.10318307 5.9148307e-06 -4.1700318e-20)
(0.10318271 6.1260839e-06 2.5996217e-18)
(0.10318251 6.1968413e-06 -5.0575964e-18)
(0.10318221 6.4404431e-06 2.5328153e-18)
(0.10318157 6.5271182e-06 3.7203771e-20)
(0.10318157 6.8775585e-06 1.4395136e-19)
(0.10318208 6.8902047e-06 6.9434705e-20)
(0.10318182 7.5132496e-06 6.6602593e-20)
(0.10325096 8.8004951e-07 -1.0235475e-18)
(0.1031954 -1.1791548e-07 -1.0957709e-18)
(0.10319073 5.4671775e-07 2.3389767e-18)
(0.10319223 4.425155e-07 -2.2666556e-18)
(0.10319377 7.4041039e-07 -5.7132128e-27)
(0.10319432 7.9625332e-07 2.4562175e-18)
(0.1031943 9.9744738e-07 4.0190011e-20)
(0.1031939 1.0930639e-06 5.2929833e-18)
(0.10319386 1.2556911e-06 4.2475489e-20)
(0.10319449 1.3955072e-06 -5.6203657e-18)
(0.10319448 1.5441702e-06 5.6688707e-18)
(0.1031935 1.6785366e-06 -5.8246629e-18)
(0.10319251 1.7974238e-06 -2.9895602e-18)
(0.1031922 1.8820233e-06 3.0543352e-18)
(0.10319243 1.9388626e-06 2.4361262e-20)
(0.10319276 1.9789404e-06 0)
(0.10319301 1.9843875e-06 -2.534442e-20)
(0.10319323 2.0027834e-06 3.3321299e-18)
(0.10319359 2.050025e-06 -6.7101063e-18)
(0.10319414 2.1184481e-06 2.2006558e-26)
(0.10319477 2.2007492e-06 2.7277816e-20)
(0.10319533 2.2859474e-06 3.5532057e-18)
(0.10319576 2.3679564e-06 -1.8074676e-18)
(0.10319605 2.4520101e-06 1.8384044e-18)
(0.10319624 2.5493982e-06 1.8694301e-18)
(0.10319636 2.6557831e-06 -1.9153969e-18)
(0.10319643 2.7868708e-06 9.6587485e-19)
(0.10319647 2.9315259e-06 -9.81502e-19)
(0.10319649 3.0764457e-06 -2.337025e-19)
(0.10319648 3.2062543e-06 1.5742471e-20)
(0.10319645 3.3091191e-06 2.5052912e-19)
(0.10319637 3.3807167e-06 0)
(0.10319621 3.4141247e-06 -1.5166128e-20)
(0.10319594 3.4199033e-06 0)
(0.10319552 3.4097911e-06 -1.467571e-20)
(0.10319499 3.4185964e-06 -1.8472387e-18)
(0.1031945 3.4567957e-06 -2.8376147e-20)
(0.10319429 3.5104587e-06 5.3549189e-18)
(0.10319448 3.5973622e-06 -7.0156432e-18)
(0.10319499 3.6753294e-06 -2.691952e-20)
(0.1031955 3.7996007e-06 6.819861e-18)
(0.10319562 3.913752e-06 -3.321118e-18)
(0.10319522 4.0670492e-06 3.2075361e-18)
(0.10319456 4.1793241e-06 -3.2203226e-18)
(0.10319412 4.3233578e-06 2.4466429e-20)
(0.10319431 4.4125159e-06 0)
(0.10319492 4.5418927e-06 0)
(0.10319524 4.6219473e-06 4.587204e-20)
(0.10319506 4.7629748e-06 5.7367017e-18)
(0.10319462 4.8382262e-06 -5.555264e-18)
(0.10319412 4.9922911e-06 -4.2641207e-20)
(0.10319372 5.0748465e-06 2.6567134e-18)
(0.10319332 5.2454498e-06 -5.1241331e-18)
(0.10319311 5.3332152e-06 -3.6320242e-27)
(0.10319292 5.5349828e-06 2.387499e-18)
(0.10319213 5.6291511e-06 -7.4935989e-26)
(0.10319205 5.9219257e-06 -2.2546703e-18)
(0.10319266 5.9492483e-06 2.0946858e-18)
(0.10319242 6.5001467e-06 -6.437289e-20)
(0.10325227 6.5560957e-07 0)
(0.10320305 -4.2115664e-08 6.6620719e-20)
(0.10320004 4.0965573e-07 -6.3695902e-26)
(0.10320183 3.8853391e-07 0)
(0.10320326 5.7228332e-07 -2.4631043e-18)
(0.10320363 6.4917169e-07 2.5131827e-18)
(0.10320354 7.6773357e-07 0)
(0.10320302 8.3438149e-07 4.1203177e-20)
(0.10320313 9.4382243e-07 0)
(0.10320403 1.0445634e-06 5.6181398e-18)
(0.1032037 1.1537581e-06 -5.673319e-18)
(0.10320243 1.2748798e-06 2.9288334e-18)
(0.10320154 1.3963783e-06 2.6747477e-27)
(0.10320158 1.5187374e-06 -3.0637832e-18)
(0.10320205 1.6412403e-06 -3.1537828e-18)
(0.10320247 1.7617255e-06 3.1938879e-18)
(0.10320272 1.8546395e-06 0)
(0.10320296 1.9148175e-06 2.5943273e-20)
(0.10320334 1.9442019e-06 -2.643257e-20)
(0.10320387 1.9606789e-06 2.4859667e-26)
(0.10320442 1.987268e-06 -2.7404604e-20)
(0.10320488 2.03278e-06 0)
(0.10320521 2.0865011e-06 0)
(0.10320544 2.1329764e-06 0)
(0.10320559 2.1783865e-06 0)
(0.10320568 2.2293234e-06 0)
(0.10320575 2.2870151e-06 -9.5534211e-19)
(0.10320578 2.3615933e-06 5.0854057e-19)
(0.1032058 2.4570132e-06 5.01019e-19)
(0.10320579 2.5708356e-06 2.3722467e-19)
(0.10320576 2.6941337e-06 -7.5473688e-19)
(0.10320569 2.8185598e-06 5.1067873e-19)
(0.10320555 2.9261775e-06 1.5226955e-20)
(0.10320529 2.9968267e-06 0)
(0.10320487 3.048596e-06 1.4733e-20)
(0.10320429 3.0713632e-06 0)
(0.1032037 3.1013063e-06 0)
(0.10320335 3.1267605e-06 3.6114958e-18)
(0.1032035 3.1891389e-06 -7.0144316e-18)
(0.10320409 3.2390337e-06 6.9437684e-18)
(0.10320481 3.3259725e-06 -6.844259e-18)
(0.10320518 3.3797026e-06 6.6650446e-18)
(0.10320491 3.47138e-06 -3.2434525e-18)
(0.10320427 3.5309759e-06 2.5037814e-20)
(0.10320369 3.6220367e-06 3.1644087e-18)
(0.1032037 3.6806516e-06 -3.0739092e-18)
(0.10320434 3.7884143e-06 2.3490086e-20)
(0.10320469 3.8676889e-06 -2.2954317e-20)
(0.1032045 3.9825843e-06 5.7358717e-18)
(0.10320405 4.0716022e-06 -1.1139644e-17)
(0.10320349 4.1999789e-06 5.4856182e-18)
(0.10320311 4.2849605e-06 4.1324371e-20)
(0.10320266 4.4292663e-06 0)
(0.10320239 4.5274312e-06 -2.5209484e-18)
(0.10320239 4.6965498e-06 2.3954108e-18)
(0.10320146 4.8069321e-06 -7.2007987e-20)
(0.10320126 5.0441609e-06 2.1389057e-18)
(0.10320199 5.102373e-06 -2.0396195e-18)
(0.10320176 5.5629408e-06 1.245464e-19)
(0.10325309 3.6760029e-07 0)
(0.10320955 3.188469e-08 -2.2045208e-18)
(0.10320822 2.8713482e-07 -6.7876759e-20)
(0.10321013 3.8117826e-07 4.601696e-18)
(0.10321144 4.883578e-07 7.3778429e-20)
(0.10321164 5.8793492e-07 -4.9847362e-18)
(0.10321147 6.8066228e-07 2.5428544e-18)
(0.10321083 7.6527787e-07 5.1727704e-18)
(0.10321118 8.3398264e-07 -5.3743383e-18)
(0.10321238 9.0251527e-07 -2.855213e-26)
(0.10321147 9.5766133e-07 4.4704181e-20)
(0.10320998 1.0282323e-06 -2.2919542e-20)
(0.10320935 1.0930215e-06 0)
(0.10320984 1.1810576e-06 2.4006963e-20)
(0.10321055 1.2801398e-06 3.1645357e-18)
(0.10321101 1.3963189e-06 -3.2058119e-18)
(0.10321125 1.5129701e-06 3.2449948e-18)
(0.10321152 1.6209262e-06 -3.3344183e-18)
(0.10321191 1.6995037e-06 1.7444343e-26)
(0.10321237 1.7710696e-06 -3.4333322e-18)
(0.1032128 1.8278394e-06 7.0180912e-18)
(0.10321315 1.8826628e-06 -3.5851077e-18)
(0.1032134 1.928055e-06 0)
(0.10321358 1.9624868e-06 1.4491456e-20)
(0.1032137 1.9753469e-06 -1.9009454e-18)
(0.10321378 1.9755625e-06 1.9026581e-18)
(0.10321384 1.9836423e-06 -1.5228206e-20)
(0.10321387 2.0032993e-06 4.7975164e-19)
(0.10321389 2.0430298e-06 -5.0317715e-19)
(0.10321388 2.0897455e-06 1.5878304e-20)
(0.10321386 2.1571739e-06 5.0497656e-19)
(0.1032138 2.2436223e-06 -5.1248091e-19)
(0.10321367 2.3386713e-06 -1.527978e-20)
(0.10321343 2.4242113e-06 0)
(0.10321302 2.5124379e-06 0)
(0.10321241 2.5705599e-06 -1.8752416e-18)
(0.10321171 2.6278202e-06 1.8292538e-18)
(0.10321121 2.6683782e-06 -2.8091638e-20)
(0.10321129 2.7192185e-06 -2.7601176e-20)
(0.10321195 2.7621235e-06 0)
(0.10321289 2.8231106e-06 2.6615953e-20)
(0.10321357 2.8690197e-06 -3.317082e-18)
(0.10321344 2.9443407e-06 3.2533218e-18)
(0.10321286 2.9944817e-06 -3.2138406e-18)
(0.10321214 3.0752479e-06 3.123091e-18)
(0.10321183 3.1335625e-06 2.4064187e-20)
(0.10321247 3.2235227e-06 -2.3524904e-20)
(0.10321277 3.289587e-06 0)
(0.1032126 3.3807418e-06 0)
(0.10321223 3.4539315e-06 -4.3626917e-20)
(0.10321164 3.5502695e-06 0)
(0.10321132 3.6307213e-06 -4.1138876e-20)
(0.10321085 3.741841e-06 0)
(0.10321045 3.8458228e-06 2.5362619e-18)
(0.10321069 3.982517e-06 -2.2921014e-18)
(0.10320965 4.0936459e-06 7.0857627e-20)
(0.10320927 4.25447e-06 -2.1628026e-18)
(0.10321016 4.3391701e-06 3.0767771e-18)
(0.10320995 4.6562147e-06 -1.0852822e-18)
(0.10325194 1.2887729e-07 1.1629437e-19)
(0.10321353 7.9815391e-08 -2.0203895e-18)
(0.10321418 1.5147307e-07 -2.3820107e-27)
(0.10321593 3.1013395e-07 2.1604997e-18)
(0.10321716 3.4158938e-07 0)
(0.10321726 4.9523167e-07 3.8026633e-20)
(0.10321693 5.3236576e-07 -3.950346e-20)
(0.10321618 6.5564764e-07 5.2765916e-18)
(0.10321697 6.9371042e-07 -1.0812616e-17)
(0.10321837 8.0898882e-07 -4.351108e-20)
(0.10321656 8.4634348e-07 5.6812915e-18)
(0.10321507 9.0662066e-07 2.9613486e-18)
(0.10321487 9.3765054e-07 -3.0111714e-18)
(0.10321587 9.8938889e-07 -2.4075635e-20)
(0.10321673 1.0170697e-06 -2.4611414e-20)
(0.10321717 1.0767469e-06 0)
(0.10321738 1.1288667e-06 2.564692e-20)
(0.10321768 1.2014919e-06 -2.6150767e-20)
(0.10321804 1.2577461e-06 2.6647908e-20)
(0.10321842 1.3351843e-06 0)
(0.10321874 1.3998021e-06 3.5641577e-18)
(0.103219 1.4850777e-06 -5.398348e-18)
(0.10321918 1.5427887e-06 1.8163074e-18)
(0.10321932 1.6042515e-06 1.8472713e-18)
(0.10321942 1.6527375e-06 -1.8635517e-18)
(0.1032195 1.6867055e-06 -9.4726324e-19)
(0.10321955 1.7187105e-06 9.7812066e-19)
(0.10321959 1.7341377e-06 0)
(0.10321961 1.7616443e-06 -2.5250585e-19)
(0.1032196 1.7786834e-06 2.5489746e-19)
(0.10321958 1.7939677e-06 4.9063219e-19)
(0.10321953 1.8308839e-06 -1.5107053e-18)
(0.10321942 1.8817787e-06 9.9600074e-19)
(0.10321921 1.944993e-06 1.507344e-20)
(0.10321883 2.0030012e-06 -1.9124663e-18)
(0.10321822 2.0503435e-06 1.880629e-18)
(0.10321741 2.1002823e-06 0)
(0.10321668 2.1356387e-06 -3.606358e-18)
(0.10321667 2.1841589e-06 3.5435112e-18)
(0.10321738 2.2239723e-06 0)
(0.10321851 2.27579e-06 0)
(0.10321959 2.3260529e-06 -2.6195117e-20)
(0.10321955 2.3784996e-06 2.5688535e-20)
(0.10321904 2.4371007e-06 0)
(0.10321825 2.4860275e-06 0)
(0.10321745 2.5524246e-06 -2.4110419e-20)
(0.10321818 2.6005659e-06 0)
(0.10321835 2.6699019e-06 0)
(0.10321818 2.727672e-06 5.7335314e-18)
(0.10321795 2.7991339e-06 -5.5765899e-18)
(0.10321739 2.869137e-06 0)
(0.10321715 2.9433788e-06 4.0953462e-20)
(0.10321673 3.0516041e-06 -3.955202e-20)
(0.10321608 3.1378356e-06 -2.4750042e-18)
(0.10321656 3.2396306e-06 2.2641724e-18)
(0.10321553 3.3257102e-06 -6.97366e-20)
(0.10321482 3.4724017e-06 2.0530124e-18)
(0.10321598 3.5460494e-06 -2.1243157e-18)
(0.1032158 3.7837697e-06 0)
(0.10324984 -1.1342707e-07 -1.128094e-19)
(0.10321696 2.094297e-07 2.0298098e-18)
(0.10321984 -1.5478084e-08 -2.0835967e-18)
(0.10322088 4.7729049e-07 -6.8627666e-20)
(0.10322215 2.7815289e-07 3.6054922e-20)
(0.10322247 4.3594654e-07 0)
(0.10322152 4.5116246e-07 3.9275655e-20)
(0.10322083 5.3389517e-07 0)
(0.10322249 5.9833729e-07 5.3536626e-18)
(0.10322359 6.8815483e-07 6.739925e-27)
(0.10322081 7.2399749e-07 -5.7519873e-18)
(0.10321971 7.9931719e-07 2.2991019e-20)
(0.10322007 8.1733728e-07 0)
(0.10322152 8.7357375e-07 0)
(0.10322239 8.8669936e-07 3.159969e-18)
(0.10322275 9.3664573e-07 -3.2531296e-18)
(0.10322287 9.5757363e-07 0)
(0.10322316 1.0108693e-06 -1.3121539e-20)
(0.1032235 1.0220875e-06 0)
(0.10322381 1.0730427e-06 0)
(0.10322404 1.0886334e-06 0)
(0.10322423 1.1421809e-06 -1.8053657e-18)
(0.10322437 1.1719135e-06 1.8507631e-18)
(0.10322448 1.2432089e-06 0)
(0.10322456 1.3003988e-06 -1.4833747e-20)
(0.10322463 1.3643581e-06 0)
(0.10322468 1.4209045e-06 -1.532592e-20)
(0.10322471 1.4717884e-06 -5.1396663e-19)
(0.10322472 1.5029138e-06 5.0641108e-19)
(0.10322472 1.5225756e-06 -1.597185e-20)
(0.10322469 1.5314336e-06 5.3935315e-19)
(0.10322465 1.5452554e-06 -1.4985159e-18)
(0.10322455 1.5794389e-06 9.6753634e-19)
(0.10322437 1.6189473e-06 -3.0215878e-20)
(0.10322402 1.6665896e-06 1.6114408e-26)
(0.10322343 1.7114701e-06 0)
(0.10322254 1.7497445e-06 0)
(0.10322153 1.7989923e-06 0)
(0.10322138 1.833073e-06 1.3879048e-20)
(0.10322209 1.8841402e-06 -3.4900517e-18)
(0.10322332 1.9224568e-06 6.8664907e-18)
(0.10322486 1.9727703e-06 4.8485478e-27)
(0.10322492 2.0263407e-06 -6.5940759e-18)
(0.10322444 2.0702197e-06 3.2557127e-18)
(0.10322352 2.1273313e-06 0)
(0.1032221 2.1730533e-06 0)
(0.10322312 2.2119328e-06 0)
(0.10322321 2.2842989e-06 5.8891029e-18)
(0.10322304 2.3252186e-06 -5.7552004e-18)
(0.10322287 2.3957115e-06 2.1756378e-20)
(0.10322238 2.4460083e-06 -4.2177595e-20)
(0.10322226 2.507698e-06 -4.4275278e-26)
(0.10322193 2.5948197e-06 4.268179e-26)
(0.103221 2.6525772e-06 -3.7735894e-20)
(0.10322131 2.7218838e-06 3.6082122e-20)
(0.10322078 2.8085339e-06 0)
(0.10321927 2.8310365e-06 7.0602067e-26)
(0.10322106 3.0565614e-06 6.0937708e-20)
(0.10322091 3.0494524e-06 0)
(0.10325412 -7.2485325e-07 9.3073691e-19)
(0.10322634 8.1805192e-07 -9.5922506e-19)
(0.10323115 -3.6197466e-07 0)
(0.10322969 1.9374329e-07 6.7596018e-20)
(0.10323133 -1.4224575e-08 -3.5648847e-20)
(0.10323325 1.5790728e-07 2.4309227e-18)
(0.10322993 1.5419195e-07 -2.5381537e-18)
(0.10323007 1.5637526e-07 5.1972276e-18)
(0.10323378 2.2396729e-07 1.4454125e-26)
(0.10323267 2.7795555e-07 -5.5634228e-18)
(0.10323035 3.158887e-07 -5.6880299e-18)
(0.10323002 3.7781238e-07 5.8710843e-18)
(0.10323078 4.3019465e-07 0)
(0.10323255 4.7522538e-07 0)
(0.10323344 5.3188633e-07 3.1691283e-18)
(0.10323368 5.8268301e-07 -3.1999689e-18)
(0.10323372 6.4515343e-07 -1.2909029e-20)
(0.10323391 7.2309755e-07 1.3377211e-26)
(0.1032343 7.7047045e-07 0)
(0.10323459 8.489535e-07 1.3658638e-20)
(0.10323478 8.9344688e-07 -3.5588082e-18)
(0.10323495 9.7157924e-07 3.6064586e-18)
(0.10323507 1.0242714e-06 1.8411218e-18)
(0.10323517 1.0557222e-06 -1.8719798e-18)
(0.10323525 1.0895337e-06 0)
(0.10323532 1.1572136e-06 0)
(0.10323537 1.2189523e-06 -9.5211108e-19)
(0.1032354 1.3317137e-06 1.0143184e-18)
(0.10323542 1.4054601e-06 0)
(0.10323542 1.5022638e-06 1.599885e-20)
(0.10323541 1.5403444e-06 -1.5886324e-20)
(0.10323537 1.591401e-06 1.5631941e-20)
(0.10323528 1.6119348e-06 9.8433249e-19)
(0.10323512 1.6653687e-06 9.8352022e-19)
(0.10323481 1.7052893e-06 1.4884337e-20)
(0.10323422 1.768842e-06 -1.8884923e-18)
(0.10323319 1.8005491e-06 -1.8282812e-18)
(0.10323201 1.8146007e-06 -1.8115647e-18)
(0.10323176 1.8825945e-06 3.5468928e-18)
(0.10323231 1.8648454e-06 1.3664527e-20)
(0.10323348 1.9502756e-06 -2.6834344e-20)
(0.10323539 1.945266e-06 1.316614e-20)
(0.10323589 2.0050904e-06 -1.2910332e-20)
(0.10323536 2.056575e-06 -2.529699e-20)
(0.10323361 2.0492814e-06 -1.2379099e-20)
(0.10323212 2.1713232e-06 -2.4201108e-20)
(0.1032333 2.1163022e-06 0)
(0.10323382 2.2149253e-06 0)
(0.10323369 2.2334514e-06 -5.7094382e-18)
(0.10323311 2.3089934e-06 -4.345782e-20)
(0.10323294 2.3378969e-06 5.426522e-18)
(0.10323312 2.3830883e-06 -4.0597863e-20)
(0.10323281 2.5119356e-06 3.9045546e-20)
(0.10323185 2.5390449e-06 2.4310624e-18)
(0.10323026 2.5706223e-06 -2.3176345e-18)
(0.10323202 2.7644954e-06 -2.1632328e-18)
(0.10322818 2.4382022e-06 4.1379431e-18)
(0.103232 3.2735447e-06 -8.9198431e-19)
(0.10323193 2.3481881e-06 -8.2477915e-19)
(0.1032509 -1.8015199e-06 -1.0634769e-19)
(0.10322309 8.8694939e-07 5.8456709e-20)
(0.10323707 1.2931614e-07 3.1278052e-20)
(0.10322727 7.5245284e-07 0)
(0.10323204 6.1615285e-07 0)
(0.10323902 8.8305439e-07 2.3358831e-18)
(0.10322688 8.1251667e-07 -2.4644555e-18)
(0.1032304 8.0180661e-07 5.1962401e-18)
(0.1032402 8.8891215e-07 -5.3513018e-18)
(0.10323435 8.5244219e-07 5.5580681e-18)
(0.10323515 8.5512448e-07 -5.7784281e-18)
(0.10323563 8.1863866e-07 -5.9001426e-18)
(0.10323533 7.7830435e-07 3.0292038e-18)
(0.10323739 7.6878317e-07 6.2214824e-18)
(0.10323925 7.2679778e-07 -3.1769765e-18)
(0.1032395 7.2689756e-07 5.7124552e-26)
(0.10323957 6.6940534e-07 1.2944737e-20)
(0.1032392 6.599445e-07 -3.3528021e-18)
(0.10323997 6.0594925e-07 6.8860113e-18)
(0.10324035 5.7751156e-07 -3.5330362e-18)
(0.10324057 5.2505984e-07 0)
(0.10324075 4.7965725e-07 1.4175056e-20)
(0.10324093 4.0962272e-07 0)
(0.10324104 4.0298376e-07 7.3265728e-21)
(0.10324115 3.4946448e-07 -7.4467745e-21)
(0.10324124 3.2924021e-07 0)
(0.10324131 2.8153505e-07 -2.3071435e-20)
(0.10324138 2.6020854e-07 0)
(0.10324141 2.1807026e-07 0)
(0.10324146 1.9654258e-07 0)
(0.10324146 1.5929893e-07 0)
(0.1032414 1.3656881e-07 0)
(0.10324131 9.485269e-08 2.306564e-20)
(0.10324109 6.6553801e-08 7.5645259e-21)
(0.10324072 3.3797756e-08 0)
(0.10323993 5.8664557e-10 2.1961467e-20)
(0.10323824 -4.0418187e-08 -1.4399678e-20)
(0.10323768 -6.7396742e-08 7.0795258e-21)
(0.10323771 -9.8015308e-08 -6.958911e-21)
(0.10323746 -1.5157656e-07 -1.3674832e-20)
(0.10323844 -1.6168453e-07 3.451243e-18)
(0.10323958 -1.9532322e-07 -6.7607238e-18)
(0.1032422 -1.9034874e-07 1.2922915e-20)
(0.10324139 -2.0682823e-07 3.2536003e-18)
(0.10323656 -2.1203031e-07 1.2388378e-20)
(0.10323773 -1.9024373e-07 2.4212327e-20)
(0.10323708 -2.7154762e-07 0)
(0.10323993 -2.4042535e-07 -5.8779651e-18)
(0.10323997 -2.5543986e-07 2.2357476e-20)
(0.10323703 -2.2896448e-07 5.5918938e-18)
(0.10323824 -2.124107e-07 2.0951762e-20)
(0.10323944 -2.0056112e-07 0)
(0.10323848 -1.1748857e-07 -2.4800436e-18)
(0.1032385 -7.3877533e-08 2.3882999e-18)
(0.10322916 7.5126498e-09 0)
(0.10323887 9.7749678e-08 3.3254879e-20)
(0.10322705 2.3391049e-07 -2.0276249e-18)
(0.10323838 5.0860615e-07 1.7983066e-18)
(0.10323845 1.3098015e-07 -1.0679575e-19)
(0.10320603 -1.9338491e-06 5.1690523e-20)
(0.10318817 -1.1696047e-06 1.7682724e-18)
(0.10320123 -9.3763533e-07 -1.9947647e-18)
(0.10319122 -1.0537077e-06 2.1002755e-18)
(0.10320248 -5.7412094e-07 -4.4616653e-18)
(0.1032 -9.2617587e-07 4.708481e-18)
(0.10318932 -8.0779061e-07 -2.4605865e-18)
(0.1032027 -5.7732605e-07 5.1380498e-18)
(0.10320211 -6.4990261e-07 -1.0475404e-20)
(0.10319403 -6.7187476e-07 -5.5457821e-18)
(0.10319642 -6.2400471e-07 -5.7157764e-18)
(0.10319242 -5.1061604e-07 5.9151303e-18)
(0.10319725 -3.9785924e-07 0)
(0.10319891 -2.7064657e-07 -1.2156956e-20)
(0.10319942 -1.5855508e-07 6.2211701e-21)
(0.10319689 -1.1749672e-07 -1.2715317e-20)
(0.1031962 3.1783658e-08 -3.3157682e-18)
(0.1031973 8.9900048e-08 3.3738564e-18)
(0.10319714 2.0822124e-07 -6.7384349e-21)
(0.10319725 2.8129336e-07 3.5254273e-18)
(0.10319742 3.6704047e-07 -7.1446702e-18)
(0.10319751 4.618716e-07 5.4485283e-18)
(0.10319759 5.1337585e-07 -1.8460556e-18)
(0.10319769 6.1426003e-07 -3.6639812e-21)
(0.10319775 6.6483369e-07 -1.8986057e-18)
(0.10319781 7.5213055e-07 1.9402143e-18)
(0.10319785 8.0202817e-07 7.6843737e-21)
(0.10319789 8.8231174e-07 0)
(0.10319791 9.3008711e-07 0)
(0.10319792 1.0079436e-06 0)
(0.10319793 1.0602724e-06 0)
(0.10319793 1.1439628e-06 -1.0010044e-18)
(0.10319792 1.2156178e-06 9.773658e-19)
(0.10319791 1.2941228e-06 -1.9425383e-18)
(0.10319787 1.3514264e-06 1.9040974e-18)
(0.10319787 1.4291174e-06 -3.6664699e-21)
(0.10319816 1.5091754e-06 0)
(0.10319646 1.5911948e-06 3.6332196e-18)
(0.10319434 1.6655391e-06 -3.5655195e-18)
(0.10319566 1.717173e-06 0)
(0.10319739 1.7248019e-06 -3.4556036e-18)
(0.10319951 1.6944998e-06 3.3917507e-18)
(0.10320019 1.6278395e-06 -3.3131122e-18)
(0.10320202 1.5557216e-06 3.2328068e-18)
(0.10320137 1.5177151e-06 -3.1815897e-18)