/*--------------------------------*- C++ -*----------------------------------*\
| =========                 |                                                 |
| \\      /  F ield         | OpenFOAM: The Open Source CFD Toolbox           |
|  \\    /   O peration     | Version:  v2006                                 |
|   \\  /    A nd           | Website:  www.openfoam.com                      |
|    \\/     M anipulation  |                                                 |
\*---------------------------------------------------------------------------*/
FoamFile
{
    version     2.0;
    format      ascii;
    class       volVectorField;
    location    "7000";
    object      UMean;
}
// * * * * * * * * * * * * * * * * * * * * * * * * * * * * * * * * * * * * * //

dimensions      [0 1 -1 0 0 0 0];


internalField   nonuniform List<vector> 
55713
(
(0.10321629 6.6546775e-07 0)
(0.10311353 -3.3289672e-07 0)
(0.10309438 8.9842922e-07 2.5661538e-18)
(0.10309179 7.0655113e-07 -2.5527663e-18)
(0.10309302 1.4611478e-06 2.5708773e-18)
(0.10309431 1.4709637e-06 1.561527e-27)
(0.10309491 1.9512649e-06 -2.6463698e-18)
(0.10309493 2.0996441e-06 0)
(0.10309467 2.4227033e-06 1.0711535e-20)
(0.10309448 2.6545328e-06 0)
(0.10309451 2.9124958e-06 -1.1108253e-20)
(0.10309465 3.1571206e-06 -1.1312572e-20)
(0.10309473 3.3997925e-06 0)
(0.10309478 3.635049e-06 3.0031579e-18)
(0.10309492 3.8631834e-06 -3.0577715e-18)
(0.10309516 4.0852295e-06 -6.0799912e-21)
(0.10309539 4.3026968e-06 3.174849e-18)
(0.10309547 4.5147394e-06 -3.2248289e-18)
(0.10309543 4.7220263e-06 6.4090292e-21)
(0.10309539 4.9242319e-06 -3.3384167e-18)
(0.10309548 5.1206029e-06 3.3891323e-18)
(0.10309572 5.3120315e-06 0)
(0.10309604 5.5006958e-06 0)
(0.10309637 5.6876567e-06 -1.7917716e-18)
(0.10309664 5.8730377e-06 1.8139949e-18)
(0.10309685 6.0574463e-06 0)
(0.103097 6.2413428e-06 0)
(0.10309711 6.425385e-06 0)
(0.10309717 6.6092131e-06 2.4135262e-19)
(0.10309718 6.7934628e-06 -8.7445151e-29)
(0.10309713 6.9773395e-06 -2.440527e-19)
(0.10309698 7.1613508e-06 0)
(0.10309673 7.3470272e-06 0)
(0.10309636 7.5337428e-06 0)
(0.10309591 7.7223106e-06 0)
(0.1030955 7.9120442e-06 1.8050038e-18)
(0.10309527 8.103608e-06 -1.7686333e-18)
(0.10309533 8.2982525e-06 -3.4924803e-18)
(0.1030956 8.4964805e-06 2.0138493e-27)
(0.10309589 8.6981213e-06 3.3693965e-18)
(0.10309598 8.9030297e-06 0)
(0.10309579 9.1112329e-06 6.3688848e-21)
(0.10309546 9.3237265e-06 -3.2039139e-18)
(0.1030952 9.5394948e-06 3.1474021e-18)
(0.10309516 9.7614827e-06 3.0913864e-18)
(0.10309528 9.9869849e-06 -3.0418612e-18)
(0.10309541 1.0222041e-05 0)
(0.10309545 1.0458836e-05 0)
(0.10309536 1.0711232e-05 -2.8627137e-18)
(0.10309519 1.0958585e-05 2.8218837e-18)
(0.10309499 1.1236994e-05 0)
(0.10309481 1.1491465e-05 0)
(0.10309467 1.180906e-05 0)
(0.10309449 1.2066859e-05 0)
(0.10309423 1.2439448e-05 2.5889461e-18)
(0.1030941 1.270284e-05 -3.8498045e-27)
(0.10309438 1.3119484e-05 -3.7799032e-18)
(0.1030947 1.3509406e-05 1.2281878e-18)
(0.10309455 1.3637375e-05 -1.9269035e-20)
(0.10322234 1.0900809e-06 0)
(0.10312909 -2.6168957e-07 2.4228872e-18)
(0.10311415 1.040391e-06 -2.5054489e-18)
(0.10311273 6.8615599e-07 3.9167816e-20)
(0.1031142 1.3421893e-06 -2.5378795e-18)
(0.10311538 1.3214309e-06 5.142592e-18)
(0.10311582 1.7974853e-06 3.8145825e-27)
(0.1031157 1.8950637e-06 -2.6840272e-18)
(0.10311538 2.2155738e-06 -1.069397e-20)
(0.10311523 2.4043776e-06 2.1811395e-20)
(0.10311533 2.6289266e-06 -2.8354802e-18)
(0.10311548 2.8346355e-06 2.9132128e-18)
(0.10311551 3.0399381e-06 2.9576435e-18)
(0.10311554 3.2376099e-06 2.6984496e-27)
(0.10311571 3.4303031e-06 2.5480208e-27)
(0.10311599 3.6188098e-06 -3.121214e-18)
(0.1031162 3.803762e-06 -6.2198331e-21)
(0.10311624 3.9849264e-06 0)
(0.10311615 4.1629644e-06 3.2934763e-18)
(0.10311609 4.3374249e-06 -6.7160861e-18)
(0.1031162 4.5093647e-06 3.4231136e-18)
(0.10311647 4.6792627e-06 1.357461e-20)
(0.10311681 4.8473306e-06 0)
(0.10311712 5.0140198e-06 7.0178652e-21)
(0.10311737 5.1795174e-06 0)
(0.10311756 5.3441762e-06 9.1347062e-19)
(0.10311769 5.5076665e-06 -1.8856726e-18)
(0.10311778 5.6708302e-06 9.4272068e-19)
(0.10311783 5.8331547e-06 2.4311984e-19)
(0.10311784 5.9957711e-06 -2.6155331e-19)
(0.10311778 6.1572551e-06 0)
(0.10311764 6.3178357e-06 9.5196684e-19)
(0.10311739 6.4805312e-06 -1.9042147e-18)
(0.10311703 6.6436167e-06 9.3711197e-19)
(0.10311657 6.8067603e-06 0)
(0.10311611 6.9690645e-06 1.8142954e-18)
(0.10311583 7.1342999e-06 -1.7913982e-18)
(0.10311584 7.3059856e-06 1.3708234e-20)
(0.10311612 7.4820311e-06 0)
(0.10311647 7.6582633e-06 6.6228825e-21)
(0.10311661 7.8346101e-06 3.3321012e-18)
(0.10311644 8.0118121e-06 -6.5535263e-18)
(0.10311607 8.1957651e-06 -4.8143491e-28)
(0.10311574 8.3832518e-06 3.1573446e-18)
(0.10311565 8.5809916e-06 -3.0996748e-18)
(0.10311575 8.777218e-06 6.0905952e-18)
(0.1031159 8.9874627e-06 -5.970687e-18)
(0.10311595 9.1882297e-06 2.9287769e-18)
(0.10311588 9.4164757e-06 -1.1221483e-20)
(0.1031157 9.6210615e-06 0)
(0.10311547 9.8876852e-06 0)
(0.10311526 1.0089125e-05 0)
(0.10311511 1.0415095e-05 -2.6764781e-18)
(0.10311493 1.0605366e-05 2.6246623e-18)
(0.10311463 1.1000614e-05 0)
(0.10311439 1.1184084e-05 3.9175525e-20)
(0.10311463 1.1633821e-05 0)
(0.10311499 1.1840736e-05 1.8920534e-20)
(0.10311481 1.225139e-05 1.855098e-20)
(0.10322753 1.2502895e-06 0)
(0.10314402 -2.656957e-07 3.7328253e-20)
(0.10313148 9.9595076e-07 -3.7941718e-20)
(0.10313108 6.2076554e-07 -3.847852e-20)
(0.10313271 1.1954419e-06 -2.5453223e-18)
(0.10313375 1.1919629e-06 2.5793306e-18)
(0.10313404 1.591312e-06 0)
(0.10313381 1.6967755e-06 2.0896818e-20)
(0.10313345 1.9728074e-06 -5.4661037e-18)
(0.10313336 2.1435926e-06 5.5388154e-18)
(0.10313355 2.3502398e-06 0)
(0.10313369 2.5294895e-06 -2.2715626e-20)
(0.10313367 2.7105788e-06 0)
(0.1031337 2.8800982e-06 3.0006955e-18)
(0.10313392 3.0448619e-06 -6.1656144e-18)
(0.10313424 3.2049371e-06 3.1413836e-18)
(0.10313443 3.3632151e-06 -3.1875759e-18)
(0.1031344 3.5190074e-06 -3.6964853e-27)
(0.10313427 3.6721833e-06 3.3179008e-18)
(0.10313422 3.8211884e-06 -3.3770703e-18)
(0.10313436 3.9676734e-06 -3.4577777e-27)
(0.10313466 4.1125642e-06 3.4959943e-18)
(0.10313501 4.255546e-06 0)
(0.10313531 4.3973465e-06 1.7937425e-18)
(0.10313554 4.5387174e-06 1.6260819e-27)
(0.10313571 4.678773e-06 -1.8388832e-18)
(0.10313583 4.817339e-06 -1.482995e-20)
(0.1031359 4.9563923e-06 4.9715991e-19)
(0.10313595 5.0945773e-06 -4.8960823e-19)
(0.10313595 5.2323969e-06 2.4773944e-19)
(0.10313589 5.3698794e-06 -2.4689281e-19)
(0.10313576 5.5050341e-06 3.0388517e-20)
(0.10313553 5.6411941e-06 0)
(0.10313517 5.778534e-06 1.4719356e-20)
(0.1031347 5.9171083e-06 -1.4481926e-20)
(0.10313421 6.0555996e-06 -1.4244902e-20)
(0.10313387 6.1960324e-06 -1.4008456e-20)
(0.10313383 6.3406951e-06 -1.3772709e-20)
(0.10313411 6.4892227e-06 3.4520986e-18)
(0.1031345 6.6377573e-06 -3.40565e-18)
(0.10313473 6.7902193e-06 0)
(0.1031346 6.9413422e-06 3.2862137e-18)
(0.1031342 7.100875e-06 -3.2141233e-18)
(0.10313379 7.2582285e-06 3.1921056e-18)
(0.10313362 7.4314702e-06 -3.1080875e-18)
(0.10313371 7.5944534e-06 -3.0250703e-18)
(0.10313388 7.7859103e-06 -2.2139085e-27)
(0.10313395 7.9498388e-06 2.9078092e-18)
(0.10313389 8.1652689e-06 2.2435291e-20)
(0.10313372 8.3244419e-06 0)
(0.10313347 8.5900659e-06 0)
(0.10313322 8.7256998e-06 0)
(0.10313305 9.0661339e-06 2.0602153e-20)
(0.10313289 9.1649354e-06 -2.0148494e-20)
(0.10313257 9.5784487e-06 0)
(0.10313223 9.6682235e-06 2.4642343e-18)
(0.10313243 1.0130622e-05 -2.4077724e-18)
(0.10313285 1.0241113e-05 0)
(0.10313264 1.0752148e-05 0)
(0.10323161 1.2797514e-06 6.8442111e-20)
(0.10315626 -2.5483027e-07 -7.2503126e-20)
(0.10314668 8.9056567e-07 -2.3356875e-18)
(0.1031471 5.6646628e-07 2.4201417e-18)
(0.10314878 1.0455297e-06 3.8679113e-20)
(0.10314966 1.0636385e-06 0)
(0.10314981 1.3976516e-06 -2.6018007e-18)
(0.10314947 1.4983392e-06 7.9757183e-18)
(0.10314909 1.7346377e-06 -1.0913431e-17)
(0.10314911 1.8843089e-06 5.602725e-18)
(0.10314938 2.0647826e-06 -2.8520237e-18)
(0.10314948 2.2208801e-06 2.2759312e-20)
(0.1031494 2.3782828e-06 5.9480582e-18)
(0.10314946 2.5251201e-06 -3.0108836e-18)
(0.10314975 2.6682649e-06 0)
(0.10315009 2.8076933e-06 0)
(0.10315025 2.944612e-06 -1.2559368e-20)
(0.10315015 3.0780676e-06 0)
(0.10314997 3.2090558e-06 0)
(0.10314995 3.3373991e-06 2.6526754e-20)
(0.10315014 3.4643104e-06 -1.3498628e-20)
(0.10315048 3.5900464e-06 -2.7468865e-20)
(0.10315083 3.714202e-06 -1.7882717e-18)
(0.10315112 3.8369699e-06 1.8328328e-18)
(0.10315133 3.9585109e-06 1.4445795e-20)
(0.10315148 4.0791651e-06 -1.4684164e-20)
(0.10315158 4.2004012e-06 9.6998401e-19)
(0.10315165 4.3218191e-06 -9.70336e-19)
(0.10315169 4.4427548e-06 1.5399663e-20)
(0.10315169 4.5617544e-06 -2.3365328e-19)
(0.10315163 4.6783615e-06 -2.4822494e-19)
(0.10315151 4.7930659e-06 4.7349756e-19)
(0.10315129 4.9085467e-06 0)
(0.10315095 5.0246855e-06 -1.9083026e-18)
(0.10315049 5.1421217e-06 1.4552759e-20)
(0.10314996 5.2584605e-06 3.6927388e-18)
(0.10314955 5.3778131e-06 -1.787363e-18)
(0.10314944 5.4982985e-06 0)
(0.10314971 5.6237404e-06 1.3597099e-20)
(0.10315017 5.7474305e-06 0)
(0.10315048 5.8804623e-06 0)
(0.10315042 6.0088499e-06 2.577094e-20)
(0.10315001 6.1516778e-06 -1.2648598e-20)
(0.10314952 6.2809411e-06 -3.2021633e-18)
(0.10314926 6.4363799e-06 3.1165246e-18)
(0.10314932 6.5639588e-06 -3.5488557e-26)
(0.10314952 6.7406364e-06 2.3392983e-20)
(0.10314962 6.8674449e-06 3.4054227e-26)
(0.10314958 7.0728747e-06 -2.2429181e-20)
(0.10314941 7.1890443e-06 -5.5954123e-18)
(0.10314916 7.4385672e-06 5.4919076e-18)
(0.10314888 7.5375675e-06 4.1917201e-20)
(0.10314867 7.8371473e-06 -2.6597664e-18)
(0.10314854 7.9302241e-06 5.1085965e-18)
(0.10314824 8.2786179e-06 -5.016779e-18)
(0.10314777 8.3763029e-06 2.4226223e-18)
(0.10314791 8.8059197e-06 -7.3596088e-20)
(0.10314841 8.8509507e-06 0)
(0.10314818 9.483289e-06 0)
(0.10323472 1.1663544e-06 -6.6146683e-20)
(0.10316743 -1.9726497e-07 7.0451575e-20)
(0.10315996 7.5546589e-07 -2.3194793e-18)
(0.10316106 5.1922829e-07 2.3049306e-18)
(0.10316273 8.9916745e-07 -2.4457021e-18)
(0.10316343 9.5094811e-07 2.555783e-18)
(0.10316345 1.2231334e-06 2.5466793e-18)
(0.10316301 1.3193558e-06 -2.656165e-18)
(0.10316265 1.5219955e-06 5.4045675e-18)
(0.10316282 1.6513134e-06 -1.1114801e-17)
(0.10316315 1.8095027e-06 5.7090977e-18)
(0.10316316 1.9438892e-06 -2.2801734e-20)
(0.10316303 2.0797417e-06 -2.981944e-18)
(0.10316315 2.2054557e-06 6.0892349e-18)
(0.10316353 2.3280578e-06 -3.1067556e-18)
(0.10316389 2.4472777e-06 -3.1684675e-18)
(0.10316398 2.5641668e-06 2.5233271e-20)
(0.1031638 2.6779263e-06 3.2653209e-18)
(0.1031636 2.7894111e-06 -2.6187984e-20)
(0.10316361 2.8988231e-06 -5.3328644e-20)
(0.10316387 3.0070209e-06 1.3570362e-20)
(0.10316424 3.1142118e-06 1.3808839e-20)
(0.10316459 3.2199507e-06 0)
(0.10316486 3.3243777e-06 -1.8287828e-18)
(0.10316506 3.4275568e-06 -1.4527619e-20)
(0.10316519 3.5301747e-06 1.9051326e-18)
(0.10316528 3.6337388e-06 0)
(0.10316534 3.7374145e-06 0)
(0.10316538 3.84095e-06 -3.0985105e-20)
(0.10316538 3.9429363e-06 2.3496211e-19)
(0.10316533 4.0425816e-06 -2.4947656e-19)
(0.10316521 4.1401285e-06 0)
(0.10316502 4.2393582e-06 0)
(0.1031647 4.3383235e-06 -1.9023997e-18)
(0.10316424 4.4412558e-06 3.7426393e-18)
(0.10316369 4.5408458e-06 -1.8546928e-18)
(0.1031632 4.6435421e-06 -1.781119e-18)
(0.10316302 4.7406499e-06 1.7785381e-18)
(0.10316326 4.845054e-06 0)
(0.10316377 4.9440939e-06 0)
(0.10316419 5.06222e-06 -3.3987745e-18)
(0.10316422 5.1693935e-06 3.2849837e-18)
(0.10316382 5.2994387e-06 2.538384e-20)
(0.10316325 5.4022786e-06 -3.1871826e-18)
(0.10316287 5.5422814e-06 6.2253752e-18)
(0.10316289 5.6422114e-06 -3.086085e-18)
(0.10316313 5.8021704e-06 -3.0223159e-18)
(0.10316327 5.9033999e-06 5.8699239e-18)
(0.10316325 6.0869523e-06 -2.8702671e-18)
(0.1031631 6.1853734e-06 -6.5734673e-20)
(0.10316284 6.3990689e-06 0)
(0.10316254 6.4957262e-06 -4.1722105e-20)
(0.10316228 6.7424953e-06 2.600982e-18)
(0.10316217 6.8439403e-06 -5.0602457e-18)
(0.10316193 7.1289571e-06 2.5341438e-18)
(0.10316132 7.23854e-06 3.7223296e-20)
(0.10316139 7.6200447e-06 1.440269e-19)
(0.10316199 7.6459764e-06 6.947107e-20)
(0.10316175 8.3108928e-06 6.6614542e-20)
(0.10323685 9.6024874e-07 -1.0236656e-18)
(0.10317672 -1.1996008e-07 -1.0959303e-18)
(0.10317152 6.004417e-07 2.3393232e-18)
(0.10317313 4.8621436e-07 -2.2669854e-18)
(0.10317472 7.739235e-07 -6.7398466e-27)
(0.10317523 8.4416784e-07 2.4565188e-18)
(0.10317515 1.0602075e-06 4.0194457e-20)
(0.1031746 1.1525782e-06 5.2935141e-18)
(0.10317429 1.3224097e-06 4.247939e-20)
(0.10317465 1.4328675e-06 -5.620833e-18)
(0.10317502 1.5698658e-06 5.669265e-18)
(0.10317487 1.6854637e-06 -5.8249669e-18)
(0.10317471 1.8007046e-06 -2.9896635e-18)
(0.10317495 1.9088966e-06 3.0543931e-18)
(0.10317543 2.0127296e-06 2.4361406e-20)
(0.10317578 2.1150224e-06 0)
(0.10317577 2.2141607e-06 -2.5344073e-20)
(0.1031755 2.31064e-06 3.3320618e-18)
(0.10317529 2.4045604e-06 -6.709929e-18)
(0.10317538 2.4970959e-06 2.549048e-26)
(0.1031757 2.5883714e-06 2.7276723e-20)
(0.1031761 2.6787742e-06 3.5530325e-18)
(0.10317645 2.7679324e-06 -1.8073616e-18)
(0.1031767 2.8558951e-06 1.8382767e-18)
(0.10317687 2.9430958e-06 1.8692789e-18)
(0.10317699 3.0308382e-06 -1.9152195e-18)
(0.10317708 3.1183695e-06 9.6577394e-19)
(0.10317713 3.2063209e-06 -9.8138772e-19)
(0.10317716 3.2940361e-06 -2.3367251e-19)
(0.10317716 3.379322e-06 1.5744506e-20)
(0.10317712 3.4630774e-06 2.5062842e-19)
(0.10317702 3.544661e-06 0)
(0.10317684 3.628845e-06 -1.5172251e-20)
(0.10317655 3.7107299e-06 0)
(0.10317611 3.7985086e-06 -1.4681756e-20)
(0.10317554 3.8801947e-06 -1.8480081e-18)
(0.10317498 3.969753e-06 -2.8388097e-20)
(0.1031747 4.0463374e-06 5.3571982e-18)
(0.10317488 4.1383659e-06 -7.0186593e-18)
(0.10317544 4.2184616e-06 -2.6931193e-20)
(0.10317599 4.3241255e-06 6.8228422e-18)
(0.10317614 4.4091725e-06 -3.3225798e-18)
(0.10317577 4.5256674e-06 3.2089553e-18)
(0.10317513 4.6090428e-06 -3.2217534e-18)
(0.10317461 4.7353774e-06 2.4477348e-20)
(0.10317455 4.8175601e-06 0)
(0.10317484 4.9577238e-06 0)
(0.10317503 5.0451041e-06 4.5892871e-20)
(0.10317503 5.2020022e-06 5.739307e-18)
(0.1031749 5.293176e-06 -5.5577836e-18)
(0.10317465 5.4699805e-06 -4.2660543e-20)
(0.10317434 5.5676172e-06 2.6579209e-18)
(0.10317402 5.7677639e-06 -5.1264657e-18)
(0.10317391 5.8744259e-06 -4.1566116e-27)
(0.10317377 6.1075486e-06 2.3885868e-18)
(0.10317302 6.2248779e-06 -8.1758887e-26)
(0.103173 6.5365645e-06 -2.2556956e-18)
(0.10317371 6.5762081e-06 2.0956344e-18)
(0.10317346 7.1761966e-06 -6.4383868e-20)
(0.10323838 7.1140445e-07 0)
(0.10318519 -4.348138e-08 6.6630068e-20)
(0.1031818 4.4790119e-07 -6.9153007e-26)
(0.10318374 4.2594435e-07 0)
(0.10318521 6.2982296e-07 -2.463432e-18)
(0.10318554 7.3948513e-07 2.5134881e-18)
(0.10318538 8.9310016e-07 0)
(0.10318469 9.94815e-07 4.1207391e-20)
(0.1031845 1.1249631e-06 0)
(0.10318511 1.2286117e-06 5.6186316e-18)
(0.10318543 1.3425874e-06 -5.6737319e-18)
(0.10318507 1.4450632e-06 2.9289969e-18)
(0.10318496 1.5395396e-06 4.8768676e-27)
(0.10318536 1.634248e-06 -3.0638652e-18)
(0.10318591 1.7207126e-06 -3.1538357e-18)
(0.10318623 1.8091056e-06 3.1939152e-18)
(0.10318609 1.8919836e-06 0)
(0.10318572 1.9745489e-06 2.5943255e-20)
(0.10318554 2.0532865e-06 -2.6432459e-20)
(0.10318573 2.1326767e-06 2.7003057e-26)
(0.10318612 2.2097673e-06 -2.7404183e-20)
(0.10318654 2.2870049e-06 0)
(0.10318687 2.3618829e-06 0)
(0.1031871 2.4367783e-06 0)
(0.10318725 2.5104608e-06 0)
(0.10318736 2.5846819e-06 0)
(0.10318744 2.6586873e-06 -9.5527291e-19)
(0.10318749 2.7325622e-06 5.0849843e-19)
(0.10318752 2.8054776e-06 5.0097226e-19)
(0.10318751 2.8769292e-06 2.3725313e-19)
(0.10318747 2.9469008e-06 -7.5499456e-19)
(0.10318739 3.0152595e-06 5.1085479e-19)
(0.10318723 3.086521e-06 1.5232256e-20)
(0.10318697 3.1545955e-06 0)
(0.10318656 3.2287353e-06 1.4738229e-20)
(0.10318598 3.2941733e-06 0)
(0.10318536 3.370988e-06 0)
(0.10318495 3.4312949e-06 3.6128197e-18)
(0.10318505 3.5169775e-06 -7.0170323e-18)
(0.10318564 3.5807929e-06 6.9463687e-18)
(0.10318633 3.673532e-06 -6.8468459e-18)
(0.10318663 3.7427178e-06 6.6675848e-18)
(0.10318633 3.8415744e-06 -3.2446962e-18)
(0.10318565 3.913522e-06 2.5047464e-20)
(0.10318496 4.0181701e-06 3.1656342e-18)
(0.10318476 4.0925867e-06 -3.0751078e-18)
(0.10318511 4.2050061e-06 2.3499328e-20)
(0.10318537 4.2865751e-06 -2.2963408e-20)
(0.10318538 4.4115223e-06 5.7381479e-18)
(0.10318528 4.4998644e-06 -1.1144061e-17)
(0.10318504 4.6384541e-06 5.4877917e-18)
(0.10318474 4.7352973e-06 4.1340791e-20)
(0.10318436 4.8942334e-06 0)
(0.10318418 5.000586e-06 -2.5219523e-18)
(0.10318423 5.1840611e-06 2.3963646e-18)
(0.10318332 5.3057123e-06 -7.2036636e-20)
(0.10318317 5.5615835e-06 2.139754e-18)
(0.10318401 5.631291e-06 -2.0404231e-18)
(0.10318377 6.1301507e-06 1.2456667e-19)
(0.10323937 3.9413543e-07 0)
(0.10319233 3.2196512e-08 -2.204823e-18)
(0.10319082 3.1258215e-07 -6.7886409e-20)
(0.10319289 4.2275286e-07 4.6023397e-18)
(0.10319423 5.4460615e-07 7.3788053e-20)
(0.10319439 6.6075732e-07 -4.9853344e-18)
(0.10319416 7.7145911e-07 2.5431364e-18)
(0.10319332 8.7702837e-07 5.1733069e-18)
(0.10319337 9.700381e-07 -5.3748624e-18)
(0.10319425 1.0684596e-06 -3.103368e-26)
(0.1031944 1.1532952e-06 4.4707494e-20)
(0.10319376 1.245128e-06 -2.2920879e-20)
(0.10319385 1.3161244e-06 0)
(0.10319443 1.4015284e-06 2.4007765e-20)
(0.10319502 1.4693979e-06 3.1646179e-18)
(0.10319529 1.5479928e-06 -3.2058751e-18)
(0.10319498 1.6137954e-06 3.2450485e-18)
(0.10319451 1.6844589e-06 -3.3344691e-18)
(0.10319442 1.746191e-06 1.9020472e-26)
(0.10319472 1.8143599e-06 -3.4333612e-18)
(0.10319519 1.8756501e-06 7.0181078e-18)
(0.10319561 1.9408261e-06 -3.5850905e-18)
(0.10319592 2.0006496e-06 0)
(0.10319612 2.0638978e-06 1.4491152e-20)
(0.10319626 2.1244196e-06 -1.9008894e-18)
(0.10319636 2.1875629e-06 1.9025855e-18)
(0.10319643 2.2487469e-06 -1.5227491e-20)
(0.10319648 2.3108297e-06 4.7972485e-19)
(0.10319651 2.3710831e-06 -5.0314457e-19)
(0.10319651 2.429446e-06 1.5880076e-20)
(0.10319648 2.4861952e-06 5.0512548e-19)
(0.1031964 2.5416291e-06 -5.1263371e-19)
(0.10319627 2.5986481e-06 -1.5284383e-20)
(0.10319605 2.6530101e-06 0)
(0.10319567 2.7152731e-06 0)
(0.1031951 2.7688706e-06 -1.875824e-18)
(0.10319442 2.8363599e-06 1.8298279e-18)
(0.10319387 2.8919814e-06 -2.8100555e-20)
(0.10319384 2.9608121e-06 -2.7610052e-20)
(0.10319445 3.0188555e-06 0)
(0.10319528 3.0932415e-06 2.6624702e-20)
(0.10319578 3.1552061e-06 -3.3181839e-18)
(0.10319556 3.2373445e-06 3.2544101e-18)
(0.10319488 3.3012425e-06 -3.2149228e-18)
(0.10319404 3.389142e-06 3.1241494e-18)
(0.10319359 3.4547253e-06 2.4072398e-20)
(0.10319402 3.5471486e-06 -2.3533012e-20)
(0.10319438 3.6244709e-06 0)
(0.1031944 3.7256454e-06 0)
(0.10319433 3.8093042e-06 -4.3642148e-20)
(0.1031941 3.9226907e-06 0)
(0.10319383 4.0163395e-06 -4.1153274e-20)
(0.10319341 4.1414531e-06 0)
(0.10319308 4.2508933e-06 2.5371517e-18)
(0.10319338 4.3917759e-06 -2.2929049e-18)
(0.10319236 4.5224711e-06 7.0882426e-20)
(0.10319199 4.6920349e-06 -2.1635568e-18)
(0.10319302 4.7872391e-06 3.0778409e-18)
(0.10319279 5.133793e-06 -1.0854519e-18)
(0.10323823 1.305597e-07 1.1630753e-19)
(0.10319681 1.0004123e-07 -2.0206606e-18)
(0.10319742 1.6761639e-07 -2.5290627e-27)
(0.10319933 3.4738616e-07 2.1607946e-18)
(0.10320057 3.8209295e-07 0)
(0.10320064 5.5095385e-07 3.8031148e-20)
(0.10320025 5.948472e-07 -3.9507847e-20)
(0.10319927 7.1635927e-07 5.2771474e-18)
(0.10319974 7.5890395e-07 -1.0813701e-17)
(0.10320085 8.6958295e-07 -4.3515175e-20)
(0.10320066 9.2146508e-07 5.6817135e-18)
(0.10319973 1.0087009e-06 2.9615308e-18)
(0.10320023 1.0547204e-06 -3.0113168e-18)
(0.10320097 1.1347452e-06 -2.4076641e-20)
(0.10320155 1.1817115e-06 -2.4612315e-20)
(0.10320173 1.2543261e-06 0)
(0.10320118 1.3002166e-06 2.5647712e-20)
(0.10320068 1.3667239e-06 -2.6151572e-20)
(0.10320072 1.4122094e-06 2.6648658e-20)
(0.10320117 1.4747998e-06 0)
(0.10320168 1.5208035e-06 3.5642166e-18)
(0.10320209 1.5799477e-06 -5.3983997e-18)
(0.10320237 1.6251597e-06 1.8163118e-18)
(0.10320255 1.6815166e-06 1.8472623e-18)
(0.10320268 1.7262992e-06 -1.8635289e-18)
(0.10320277 1.7775491e-06 -9.4724461e-19)
(0.10320284 1.8222521e-06 9.7809423e-19)
(0.10320288 1.8700104e-06 0)
(0.10320291 1.9181953e-06 -2.5249527e-19)
(0.10320291 1.9661971e-06 2.5492397e-19)
(0.10320288 2.0164754e-06 4.9075763e-19)
(0.10320283 2.0649928e-06 -1.511096e-18)
(0.10320271 2.1159178e-06 9.9626117e-19)
(0.10320252 2.1679639e-06 1.5077423e-20)
(0.10320219 2.2137751e-06 -1.9129768e-18)
(0.10320166 2.2643119e-06 1.881136e-18)
(0.10320092 2.3115745e-06 0)
(0.10320022 2.3591655e-06 -3.6073512e-18)
(0.1032 2.4096821e-06 3.5445027e-18)
(0.10320061 2.4559222e-06 0)
(0.10320156 2.5097655e-06 0)
(0.10320232 2.5633323e-06 -2.6202748e-20)
(0.1032022 2.6197561e-06 2.569608e-20)
(0.10320158 2.6791176e-06 0)
(0.10320062 2.7359913e-06 0)
(0.10319976 2.8036505e-06 -2.4117691e-20)
(0.1032003 2.8572106e-06 0)
(0.1032008 2.9323852e-06 0)
(0.10320082 3.0010242e-06 5.735299e-18)
(0.10320079 3.0840462e-06 -5.5783166e-18)
(0.10320055 3.1612746e-06 0)
(0.10320034 3.2523111e-06 4.0966193e-20)
(0.10319993 3.3557764e-06 -3.9564353e-20)
(0.10319934 3.4512494e-06 -2.4757758e-18)
(0.10319987 3.5677044e-06 2.2648771e-18)
(0.10319886 3.6801633e-06 -6.9758258e-20)
(0.10319813 3.8271813e-06 2.0536478e-18)
(0.10319945 3.9156435e-06 -2.1249659e-18)
(0.10319924 4.1779689e-06 0)
(0.103236 -1.3288854e-07 -1.1282244e-19)
(0.10320068 2.3173208e-07 2.0300854e-18)
(0.10320364 -2.5182914e-08 -2.0838902e-18)
(0.10320477 5.1230972e-07 -6.8637239e-20)
(0.10320606 3.0218975e-07 3.60597e-20)
(0.10320638 4.7983917e-07 0)
(0.10320534 4.923913e-07 3.9280363e-20)
(0.10320437 5.8863356e-07 0)
(0.10320571 6.4067022e-07 5.3542633e-18)
(0.10320678 7.3216055e-07 7.8869642e-27)
(0.10320605 7.6468716e-07 -5.7524565e-18)
(0.10320496 8.4241838e-07 2.2992712e-20)
(0.10320603 8.703407e-07 0)
(0.1032069 9.4709193e-07 0)
(0.10320742 9.7782814e-07 3.1601483e-18)
(0.10320744 1.0496014e-06 -3.2533064e-18)
(0.10320663 1.0796768e-06 0)
(0.10320616 1.1387157e-06 -1.3122259e-20)
(0.10320639 1.1608882e-06 0)
(0.10320697 1.2185547e-06 0)
(0.10320751 1.2421134e-06 0)
(0.10320789 1.2934365e-06 -1.8054236e-18)
(0.10320813 1.3180126e-06 1.8508101e-18)
(0.10320829 1.3684733e-06 0)
(0.1032084 1.4015631e-06 -1.4833927e-20)
(0.10320848 1.4528555e-06 0)
(0.10320854 1.4930259e-06 -1.5325907e-20)
(0.10320858 1.5384556e-06 -5.1396297e-19)
(0.10320861 1.5799146e-06 5.0640426e-19)
(0.1032086 1.6211816e-06 -1.5973404e-20)
(0.10320857 1.6610185e-06 5.3946815e-19)
(0.10320852 1.6999322e-06 -1.4988397e-18)
(0.10320842 1.7400371e-06 9.6774822e-19)
(0.10320826 1.7793333e-06 -3.022258e-20)
(0.10320797 1.8238771e-06 1.7284463e-26)
(0.10320747 1.8683204e-06 0)
(0.1032067 1.9137053e-06 0)
(0.10320581 1.9642364e-06 0)
(0.10320537 2.0064234e-06 1.3882338e-20)
(0.10320593 2.0588173e-06 -3.4908931e-18)
(0.10320692 2.1063665e-06 6.8681763e-18)
(0.10320803 2.1582219e-06 5.1406438e-27)
(0.10320804 2.2145648e-06 -6.5957495e-18)
(0.1032075 2.2688817e-06 3.2565489e-18)
(0.10320645 2.3233038e-06 0)
(0.10320504 2.3823892e-06 0)
(0.10320565 2.4284194e-06 0)
(0.10320636 2.5015922e-06 5.8906948e-18)
(0.1032064 2.5581543e-06 -5.7567649e-18)
(0.10320637 2.6303305e-06 2.1762335e-20)
(0.10320611 2.6968852e-06 -4.2189186e-20)
(0.103206 2.7653644e-06 -4.7491703e-26)
(0.10320562 2.850089e-06 4.5781361e-26)
(0.10320472 2.9320121e-06 -3.7746362e-20)
(0.1032051 3.0047775e-06 3.6092113e-20)
(0.10320461 3.1023402e-06 0)
(0.103203 3.1300119e-06 7.5735463e-26)
(0.10320501 3.3628359e-06 6.0954177e-20)
(0.10320479 3.3574931e-06 0)
(0.10324064 -7.9726464e-07 9.3084801e-19)
(0.10321067 8.7862242e-07 -9.5935911e-19)
(0.1032159 -3.9428513e-07 0)
(0.10321426 2.1612495e-07 6.7605625e-20)
(0.10321603 -2.3926396e-08 -3.5653688e-20)
(0.10321812 1.7707038e-07 2.4312348e-18)
(0.10321448 1.7725209e-07 -2.5384762e-18)
(0.10321448 1.7024794e-07 5.197868e-18)
(0.10321782 2.466653e-07 1.5289192e-26)
(0.10321792 3.0916895e-07 -5.563983e-18)
(0.10321666 3.6602548e-07 -5.6885351e-18)
(0.10321607 4.2031405e-07 5.8715867e-18)
(0.10321728 4.7031756e-07 0)
(0.10321865 5.2036747e-07 0)
(0.10321906 5.8122858e-07 3.169366e-18)
(0.10321864 6.3555284e-07 -3.2002179e-18)
(0.10321777 6.8777716e-07 -1.2910068e-20)
(0.10321755 7.5596081e-07 1.428241e-26)
(0.10321789 8.1065438e-07 0)
(0.1032186 8.7201694e-07 1.3659582e-20)
(0.1032192 9.299456e-07 -3.5590323e-18)
(0.10321957 1.0105174e-06 3.6066641e-18)
(0.1032198 1.074252e-06 1.841216e-18)
(0.10321996 1.1554876e-06 -1.8720646e-18)
(0.10322007 1.2199686e-06 0)
(0.10322015 1.2972961e-06 0)
(0.10322021 1.3565022e-06 -9.5213786e-19)
(0.10322025 1.4224034e-06 1.0143412e-18)
(0.10322028 1.4784065e-06 0)
(0.10322028 1.5436122e-06 1.6000312e-20)
(0.10322026 1.5935422e-06 -1.5889032e-20)
(0.10322022 1.6575533e-06 1.5634655e-20)
(0.10322013 1.7079528e-06 9.8450651e-19)
(0.10321999 1.7763421e-06 9.8369724e-19)
(0.10321972 1.8285295e-06 1.4887064e-20)
(0.10321924 1.8966463e-06 -1.8888438e-18)
(0.1032184 1.9354825e-06 -1.8286268e-18)
(0.10321729 1.9691034e-06 -1.8119141e-18)
(0.10321678 2.02447e-06 3.5475871e-18)
(0.10321723 2.026596e-06 1.3667257e-20)
(0.10321815 2.0966868e-06 -2.6839848e-20)
(0.10321953 2.11174e-06 1.3168933e-20)
(0.10321994 2.1651546e-06 -1.2913137e-20)
(0.10321947 2.2141426e-06 -2.5302568e-20)
(0.1032179 2.2365261e-06 -1.2381872e-20)
(0.10321642 2.3309006e-06 -2.4206671e-20)
(0.10321698 2.3133121e-06 0)
(0.10321794 2.4002903e-06 0)
(0.1032182 2.4299842e-06 -5.7108084e-18)
(0.10321787 2.5117256e-06 -4.3468326e-20)
(0.10321773 2.5567594e-06 5.4278625e-18)
(0.10321782 2.5996144e-06 -4.0608012e-20)
(0.10321747 2.7407004e-06 3.9055363e-20)
(0.1032166 2.7634339e-06 2.4316727e-18)
(0.10321494 2.8278974e-06 -2.3182178e-18)
(0.10321686 2.9961022e-06 -2.1637734e-18)
(0.10321273 2.6882863e-06 4.1389821e-18)
(0.1032169 3.5903909e-06 -8.9220207e-19)
(0.10321678 2.5615738e-06 -8.2489803e-19)
(0.10323712 -1.9470431e-06 -1.0636046e-19)
(0.10320719 9.5172984e-07 5.8464588e-20)
(0.1032223 1.4251766e-07 3.1282054e-20)
(0.10321189 8.2006484e-07 0)
(0.10321702 6.510683e-07 0)
(0.10322437 9.7381406e-07 2.336136e-18)
(0.10321117 8.6011942e-07 -2.4647268e-18)
(0.10321521 8.8811861e-07 5.1967615e-18)
(0.10322421 9.2810958e-07 -5.351871e-18)
(0.10322227 9.1560986e-07 5.5584825e-18)
(0.10322041 9.3432995e-07 -5.7789067e-18)
(0.10322162 8.7872446e-07 -5.9005784e-18)
(0.10322092 8.7904e-07 3.0294058e-18)
(0.10322456 8.5567323e-07 6.2218566e-18)
(0.10322484 8.526248e-07 -3.1771965e-18)
(0.10322336 8.2360659e-07 6.2137228e-26)
(0.10322315 7.9436033e-07 1.2945641e-20)
(0.1032235 7.6290998e-07 -3.3530278e-18)
(0.10322355 7.1169632e-07 6.8864655e-18)
(0.10322435 6.9287523e-07 -3.5332508e-18)
(0.1032253 6.320937e-07 0)
(0.10322583 5.9855757e-07 1.4175815e-20)
(0.10322613 5.442874e-07 0)
(0.10322633 5.0473751e-07 7.326945e-21)
(0.10322649 4.4702722e-07 -7.4471441e-21)
(0.1032266 4.0735803e-07 0)
(0.10322669 3.592371e-07 -2.3072531e-20)
(0.10322676 3.3476501e-07 0)
(0.10322681 2.9816131e-07 0)
(0.10322686 2.7294448e-07 0)
(0.10322686 2.3874441e-07 0)
(0.1032268 2.0858157e-07 0)
(0.10322671 1.695292e-07 2.3068499e-20)
(0.10322654 1.3792123e-07 7.565461e-21)
(0.10322622 9.3890662e-08 0)
(0.10322559 6.8064387e-08 2.1964137e-20)
(0.10322432 1.9396033e-08 -1.4401395e-20)
(0.10322285 -9.0302643e-09 7.080376e-21)
(0.10322324 -4.5859383e-08 -6.9597495e-21)
(0.10322306 -9.5166966e-08 -1.3676486e-20)
(0.10322391 -1.1358746e-07 3.4516681e-18)
(0.10322468 -1.456089e-07 -6.7615769e-18)
(0.10322672 -1.5599372e-07 1.292457e-20)
(0.10322605 -1.6473904e-07 3.2540221e-18)
(0.10322193 -1.7357136e-07 1.2389987e-20)
(0.10322282 -1.5277692e-07 2.4215564e-20)
(0.10322257 -2.1879978e-07 0)
(0.10322366 -2.0260502e-07 -5.8788386e-18)
(0.103225 -2.0941838e-07 2.2360736e-20)
(0.10322322 -1.7894046e-07 5.5927075e-18)
(0.10322375 -1.5865903e-07 2.0954931e-20)
(0.10322459 -1.3907613e-07 0)
(0.10322345 -5.6656376e-08 -2.4804408e-18)
(0.10322377 -6.102957e-09 2.3886844e-18)
(0.10321421 8.6627327e-08 0)
(0.10322427 1.8692817e-07 3.3260472e-20)
(0.1032115 3.3496427e-07 -2.0279872e-18)
(0.1032237 6.386546e-07 1.798625e-18)
(0.10322368 1.9524547e-07 -1.0681034e-19)
(0.10318849 -2.0845271e-06 5.169801e-20)
(0.10316934 -1.2622831e-06 1.7685439e-18)
(0.10318352 -9.9292228e-07 -1.995065e-18)
(0.10317267 -1.1623058e-06 2.1005884e-18)
(0.10318482 -5.5463811e-07 -4.4622973e-18)
(0.10318222 -1.020619e-06 4.7091482e-18)
(0.10317045 -8.460666e-07 -2.4609233e-18)
(0.10318537 -5.9384521e-07 5.138663e-18)
(0.10318129 -6.3340558e-07 -1.0476429e-20)
(0.10317988 -6.2595668e-07 -5.5461616e-18)
(0.1031777 -5.8456157e-07 -5.716279e-18)
(0.10317692 -5.0256669e-07 5.9156825e-18)
(0.10318199 -4.1517756e-07 0)
(0.10318203 -3.742793e-07 -1.2159157e-20)
(0.10318042 -3.4015932e-07 6.2225924e-21)
(0.10317886 -3.168355e-07 -1.2718586e-20)
(0.10317845 -2.3197342e-07 -3.3166737e-18)
(0.10317741 -1.7201957e-07 3.3748021e-18)
(0.10317852 -5.1626827e-08 -6.7402801e-21)
(0.1031792 2.5494645e-08 3.5263659e-18)
(0.1031792 1.367322e-07 -7.1465251e-18)
(0.10317925 2.1535387e-07 5.4499088e-18)
(0.10317935 3.0255994e-07 -1.8465121e-18)
(0.10317947 3.922867e-07 -3.6648641e-21)
(0.10317954 4.553893e-07 -1.8990531e-18)
(0.10317961 5.4949573e-07 1.9406607e-18)
(0.10317966 6.0309447e-07 7.6860971e-21)
(0.10317971 6.9323177e-07 0)
(0.10317973 7.4534726e-07 0)
(0.10317975 8.2961468e-07 0)
(0.10317975 8.8906404e-07 0)
(0.10317975 9.7937972e-07 -1.000976e-18)
(0.10317974 1.0466684e-06 9.773471e-19)
(0.10317972 1.1424512e-06 -1.9425188e-18)
(0.10317969 1.2115029e-06 1.9040951e-18)
(0.10317964 1.2945732e-06 -3.6664957e-21)
(0.10317963 1.375528e-06 0)
(0.10317894 1.4654039e-06 3.6333027e-18)
(0.10317657 1.5494217e-06 -3.5656354e-18)
(0.1031778 1.6091733e-06 0)
(0.10317895 1.6270624e-06 -3.4557954e-18)
(0.1031802 1.6111197e-06 3.3919935e-18)
(0.10318158 1.5655338e-06 -3.3134046e-18)
(0.10318363 1.5095899e-06 3.233141e-18)
(0.10318322 1.4803728e-06 -3.1819481e-18)