/*--------------------------------*- C++ -*----------------------------------*\
| =========                 |                                                 |
| \\      /  F ield         | OpenFOAM: The Open Source CFD Toolbox           |
|  \\    /   O peration     | Version:  v2006                                 |
|   \\  /    A nd           | Website:  www.openfoam.com                      |
|    \\/     M anipulation  |                                                 |
\*---------------------------------------------------------------------------*/
FoamFile
{
    version     2.0;
    format      ascii;
    class       volVectorField;
    location    "7000";
    object      wallShearStress;
}
// * * * * * * * * * * * * * * * * * * * * * * * * * * * * * * * * * * * * * //

dimensions      [1 -1 -2 0 0 0 0];


internalField   uniform (0 0 0);

boundaryField
{
    Side
    {
        type            empty;
    }
    Ground
    {
        type            calculated;
        value           uniform (0 0 0);
    }
    Inlet
    {
        type            calculated;
        value           uniform (0 0 0);
    }
    Airfoil
    {
        type            calculated;
        value           nonuniform List<vector> 
527
(
(4.4198376e-06 1.8877956e-06 -2.5028698e-20)
(4.9396898e-06 1.7236524e-06 3.4770184e-20)
(5.062229e-06 1.2525837e-06 1.8329996e-20)
(4.0733303e-06 1.1202476e-06 -1.9250562e-20)
(4.1118786e-06 1.155868e-06 -1.9760107e-20)
(3.7555241e-06 1.0380708e-06 2.029856e-20)
(3.5466561e-06 9.4895218e-07 1.0108751e-23)
(3.4171324e-06 9.0024479e-07 -1.031991e-23)
(3.4102758e-06 8.8903594e-07 -8.5303174e-28)
(3.434086e-06 8.8760873e-07 1.810996e-37)
(3.4621135e-06 8.7354772e-07 5.8774718e-39)
(3.4732714e-06 8.6115435e-07 1.1152948e-20)
(3.4942124e-06 8.5110269e-07 -1.1285125e-20)
(3.5015067e-06 8.384624e-07 -1.1442289e-20)
(3.5125056e-06 8.3317973e-07 1.1572407e-20)
(3.5236257e-06 8.2128885e-07 0)
(3.5287505e-06 8.1389129e-07 -5.8774718e-39)
(3.5409726e-06 8.0025983e-07 -1.1908556e-20)
(3.5474009e-06 7.9156036e-07 -2.3541281e-23)
(3.5578128e-06 7.7433772e-07 1.2173576e-20)
(3.5666403e-06 7.6672729e-07 1.2267322e-20)
(3.5693053e-06 7.425755e-07 -1.238133e-20)
(3.5758633e-06 7.3700459e-07 -1.2502723e-20)
(3.5747447e-06 7.1160584e-07 -2.4725605e-23)
(3.5783685e-06 7.0242721e-07 2.3720581e-27)
(3.574476e-06 6.8384814e-07 -2.5155897e-23)
(3.5727443e-06 6.664961e-07 2.5365375e-23)
(3.5690479e-06 6.5472711e-07 1.3081716e-20)
(3.558524e-06 6.2962261e-07 5.1710747e-23)
(3.5544416e-06 6.1680469e-07 1.3315126e-20)
(3.5384485e-06 5.9371403e-07 -1.3444811e-20)
(3.5235519e-06 5.6722183e-07 -1.3558296e-20)
(3.5132959e-06 5.4901424e-07 -1.369185e-20)
(3.4777349e-06 5.1454223e-07 -1.3791607e-20)
(3.4627616e-06 4.8725648e-07 -1.3888284e-20)
(3.4370106e-06 4.6428354e-07 5.4756914e-23)
(3.3738871e-06 4.1989629e-07 -2.1542714e-27)
(3.366152e-06 3.8821374e-07 1.4172448e-20)
(3.3150588e-06 3.5777117e-07 -1.1754944e-38)
(3.2273912e-06 3.0504658e-07 -7.1814864e-21)
(3.2083945e-06 2.6785344e-07 -5.6900236e-23)
(3.1366777e-06 2.3232648e-07 7.3287792e-21)
(3.0189637e-06 1.7849949e-07 7.3490294e-21)
(2.9622315e-06 1.3125411e-07 1.1644657e-22)
(2.8720949e-06 8.5568097e-08 7.4389477e-21)
(2.7339026e-06 2.7424282e-08 5.2015625e-37)
(2.5891858e-06 -3.4938139e-08 5.9551824e-23)
(2.5357731e-06 -8.6801746e-08 -7.6672201e-21)
(2.3304675e-06 -1.4251185e-07 -7.8640095e-21)
(2.0705227e-06 -2.3940781e-07 -7.7353039e-21)
(2.0256047e-06 -2.8673267e-07 -5.8774718e-39)
(1.7747017e-06 -3.6797904e-07 2.0232508e-40)
(1.431269e-06 -4.6363229e-07 6.462923e-39)
(1.1491508e-06 -5.3788549e-07 -6.2620252e-23)
(1.0988607e-06 -6.2505017e-07 8.2271948e-21)
(6.1614394e-07 -7.2362833e-07 -8.1414678e-21)
(4.8811292e-08 -8.6372646e-07 -6.4113163e-23)
(-4.5988937e-08 -9.6008117e-07 0)
(-3.3814738e-07 -1.0784321e-06 -6.502642e-23)
(-9.1152199e-07 -1.187806e-06 8.4369642e-21)
(-1.462467e-06 -1.3051228e-06 -6.5833983e-23)
(-1.6370234e-06 -1.4095122e-06 6.6054177e-23)
(-2.035804e-06 -1.5304895e-06 -1.7446448e-37)
(-2.6841913e-06 -1.641588e-06 -4.017803e-40)
(-3.2380288e-06 -1.7560103e-06 6.6918846e-23)
(-3.5085588e-06 -1.8791811e-06 -6.7515084e-23)
(-3.97385e-06 -2.016687e-06 -6.7679653e-23)
(-4.7928224e-06 -2.1318618e-06 8.7577529e-21)
(-5.4692321e-06 -2.2511092e-06 2.2040519e-37)
(-5.7815095e-06 -2.388414e-06 -1.8367099e-38)
(-6.2346626e-06 -2.5607204e-06 -4.3464996e-21)
(-7.3568573e-06 -2.6648412e-06 -9.0449849e-27)
(-8.3713272e-06 -2.7675207e-06 -8.8597402e-27)
(-8.6388324e-06 -2.9038343e-06 -9.02367e-21)
(-8.9088283e-06 -3.1263935e-06 -7.0207045e-23)
(-1.0263364e-05 -3.2083068e-06 1.4047168e-22)
(-1.1797884e-05 -3.258e-06 -4.6643055e-21)
(-1.1955942e-05 -3.4029183e-06 -4.3964588e-21)
(-1.2332944e-05 -3.5907608e-06 -1.0741048e-26)
(-1.323382e-05 -3.7292227e-06 -1.4327361e-22)
(-1.4796692e-05 -3.7583376e-06 7.1675694e-23)
(-1.5602368e-05 -3.8402927e-06 7.2286011e-23)
(-1.5896845e-05 -3.9909265e-06 4.5714449e-21)
(-1.6208686e-05 -4.2296192e-06 9.3397065e-21)
(-1.7689736e-05 -4.2587008e-06 -4.6830841e-21)
(-1.9248938e-05 -4.2546455e-06 9.5207359e-27)
(-1.9376789e-05 -4.422189e-06 3.6955999e-23)
(-1.9808395e-05 -4.6077267e-06 -3.7160437e-23)
(-2.0554705e-05 -4.7849007e-06 4.7676236e-21)
(-2.2212718e-05 -4.7769956e-06 -4.7930979e-21)
(-2.3378566e-05 -4.8119268e-06 -3.7541681e-23)
(-2.3620358e-05 -4.9876662e-06 -4.7984944e-21)
(-2.3970496e-05 -5.2350504e-06 4.871161e-21)
(-2.5195932e-05 -5.3380512e-06 -2.0571151e-38)
(-2.7249587e-05 -5.2434362e-06 -4.8574106e-21)
(-2.8173785e-05 -5.2939552e-06 9.7541791e-21)
(-2.8405763e-05 -5.476266e-06 -4.9000027e-21)
(-2.8659564e-05 -5.7738537e-06 3.8934676e-23)
(-3.0225945e-05 -5.8074282e-06 -5.0198451e-21)
(-3.2653685e-05 -5.6143398e-06 -9.4039548e-38)
(-3.3417502e-05 -5.6727014e-06 2.5119424e-21)
(-3.3595983e-05 -5.864224e-06 2.5614863e-21)
(-3.3801511e-05 -6.1732703e-06 2.5453114e-21)
(-3.5326249e-05 -6.2060221e-06 2.5076793e-21)
(-3.7891703e-05 -5.9563152e-06 -2.5083585e-21)
(-3.8809569e-05 -5.9764812e-06 -1.1935885e-26)
(-3.8938198e-05 -6.1658132e-06 2.5382747e-21)
(-3.9154332e-05 -6.4411766e-06 -7.3468397e-40)
(-4.0291279e-05 -6.5575011e-06 -5.9784908e-38)
(-4.2882603e-05 -6.2724456e-06 -8.889676e-38)
(-4.435263e-05 -6.175111e-06 -2.6221029e-21)
(-4.4386193e-05 -6.363251e-06 2.6367144e-21)
(-4.4635147e-05 -6.578867e-06 -2.6490762e-21)
(-4.5048739e-05 -6.8837974e-06 4.1771658e-23)
(-4.7533402e-05 -6.6041215e-06 -6.6724225e-27)
(-4.9911178e-05 -6.3211891e-06 -2.7176979e-21)
(-4.9751653e-05 -6.5479067e-06 5.3954871e-21)
(-5.0100522e-05 -6.7088215e-06 2.6682636e-21)
(-5.0337479e-05 -7.0048319e-06 4.2654033e-23)
(-5.1959252e-05 -6.9473946e-06 4.2787824e-23)
(-5.441452e-05 -6.6529699e-06 -8.5634229e-23)
(-5.5175034e-05 -6.70122e-06 -2.7150702e-21)
(-5.5468347e-05 -6.8533373e-06 -8.8162076e-38)
(-5.5802222e-05 -7.0550602e-06 -5.5771349e-21)
(-5.6276993e-05 -7.3298957e-06 2.7670334e-21)
(-5.8513288e-05 -7.0876454e-06 8.7867599e-23)
(-6.0746114e-05 -6.8456827e-06 -4.4036225e-23)
(-6.0757695e-05 -7.0645329e-06 2.8420613e-21)
(-6.120012e-05 -7.2161624e-06 -4.4639811e-23)
(-6.1420472e-05 -7.5239372e-06 8.9728876e-23)
(-6.2668668e-05 -7.6283664e-06 -2.9349825e-21)
(-6.5817581e-05 -7.1746191e-06 1.4425726e-21)
(-6.7774939e-05 -6.9775665e-06 1.4012726e-21)
(-6.7676364e-05 -7.2028045e-06 1.5049734e-21)
(-6.7864439e-05 -7.4057859e-06 1.5128162e-21)
(-6.7749293e-05 -7.8586005e-06 1.429529e-21)
(-6.9912723e-05 -7.7289621e-06 1.4807247e-21)
(-7.446703e-05 -6.9211456e-06 -4.6107011e-23)
(-7.6144335e-05 -6.7303854e-06 4.6228845e-23)
(-7.5694215e-05 -6.9772676e-06 -4.6648904e-23)
(-7.5583337e-05 -7.201745e-06 1.5019223e-21)
(-7.5160618e-05 -7.6984748e-06 9.4485831e-23)
(-7.7546334e-05 -7.4632215e-06 1.5148988e-21)
(-8.2758613e-05 -6.4453983e-06 -1.556026e-21)
(-8.441932e-05 -6.2023855e-06 1.5125348e-21)
(-8.3654756e-05 -6.4727933e-06 2.8698593e-41)
(-8.3549442e-05 -6.6267952e-06 1.5365457e-21)
(-8.3288947e-05 -6.9444088e-06 -5.6570666e-38)
(-8.4493866e-05 -6.9315191e-06 -1.5039384e-21)
(-8.799951e-05 -6.2858151e-06 -4.8527459e-23)
(-8.9831301e-05 -6.0245715e-06 4.8663076e-23)
(-8.9312234e-05 -6.2623394e-06 -5.0789106e-27)
(-8.9499912e-05 -6.3539594e-06 -4.9389371e-23)
(-8.9672602e-05 -6.5012362e-06 -4.8443224e-39)
(-9.0082869e-05 -6.6449501e-06 2.4946411e-23)
(-9.154951e-05 -6.5056647e-06 -2.5072614e-23)
(-9.2941415e-05 -6.4157875e-06 -7.8074769e-22)
(-9.3043025e-05 -6.5905342e-06 -2.5311924e-23)
(-9.3475001e-05 -6.6886448e-06 8.1478932e-22)
(-9.3520243e-05 -6.9169681e-06 1.8367099e-39)
(-9.3324423e-05 -7.3323257e-06 -8.5220244e-22)
(-9.6128251e-05 -6.9592868e-06 8.5016562e-22)
(-0.0001004384 -6.285045e-06 -1.6248975e-21)
(-0.00010060258 -6.4523412e-06 -5.1827576e-23)
(-0.0001001051 -6.7034831e-06 -8.0832701e-22)
(-9.9435826e-05 -7.0091289e-06 -8.1392796e-22)
(-9.7220876e-05 -7.8737141e-06 8.500972e-22)
(-9.767318e-05 -8.609788e-06 8.2564911e-22)
(-0.00011267124 -5.9638147e-06 -2.5824389e-23)
(-0.00012437983 -2.7658125e-06 -3.8413579e-22)
(-0.00011712286 -4.2409271e-06 2.5833733e-23)
(-0.00011486183 -4.4936839e-06 -2.6174679e-23)
(-0.0001111074 -5.29376e-06 2.6479895e-23)
(-0.0001060368 -6.8278312e-06 -2.6916997e-23)
(-0.00011372179 -5.84382e-06 4.2243742e-22)
(-0.00014014574 4.514852e-07 -6.8876622e-40)
(-0.00014947761 3.391335e-06 -2.2357746e-22)
(-0.00013701435 1.2979929e-06 -7.5593254e-23)
(-0.00013250253 9.1847942e-07 -4.9505072e-40)
(-0.00012553125 -2.9792687e-07 0)
(-0.00011713183 -2.5683672e-06 -2.7369111e-46)
(-0.00013094713 -2.4215647e-07 3.5481049e-28)
(-0.00016226392 8.9189916e-06 2.000844e-40)
(-0.00016449285 1.0951832e-05 9.1835496e-40)
(-0.00015244461 8.6925816e-06 -7.8967566e-22)
(-0.00014622897 7.9859519e-06 -6.4284847e-39)
(-0.00013844379 6.6342887e-06 8.2293753e-22)
(-0.00013008669 4.6224662e-06 -2.9387359e-39)
(-0.00013998893 6.35207e-06 2.555354e-23)
(-0.00016578361 1.4804768e-05 -2.4393465e-23)
(-0.00016813924 1.6942379e-05 -7.9885922e-22)
(-0.00015566812 1.4387012e-05 4.9298883e-23)
(-0.00014894297 1.3460575e-05 -2.5238515e-23)
(-0.0001407931 1.1955585e-05 8.519258e-22)
(-0.00013046022 9.818215e-06 8.5063952e-22)
(-0.00013412353 1.06672e-05 -2.6030449e-23)
(-0.00016988939 2.0925936e-05 -7.4073691e-22)
(-0.00018613907 2.8317102e-05 1.812038e-26)
(-0.00016520231 2.3214586e-05 -2.3913349e-23)
(-0.00015743445 2.2113139e-05 -7.3468397e-40)
(-0.00014917305 2.0520861e-05 1.6463596e-21)
(-0.00013949338 1.8457057e-05 -2.6004159e-23)
(-0.00013272327 1.7069145e-05 -1.6917358e-21)
(-0.00015613004 2.3763814e-05 -1.2249914e-23)
(-0.00018024165 3.3195667e-05 1.1918185e-23)
(-0.00016716647 3.0660507e-05 1.8941071e-40)
(-0.00015716266 2.8571102e-05 0)
(-0.00014945619 2.6993559e-05 -7.3468397e-40)
(-0.00014257538 2.5469085e-05 -1.6556368e-21)
(-0.00013470277 2.3652046e-05 1.1249848e-38)
(-0.00013260833 2.3417921e-05 -1.6828792e-21)
(-0.00015332558 3.0121349e-05 1.5866412e-21)
(-0.00016575997 3.6062931e-05 1.5578482e-21)
(-0.00014939183 3.1525917e-05 1.4693679e-39)
(-0.00014334292 3.0372404e-05 5.4417788e-27)
(-0.00013646021 2.8715327e-05 1.6997465e-21)
(-0.00013032683 2.7163899e-05 1.7266905e-21)
(-0.0001231118 2.5441387e-05 -1.383179e-23)
(-0.00012315386 2.6050499e-05 -1.760076e-21)
(-0.00014720311 3.3930477e-05 1.6202234e-21)
(-0.00016036524 4.0396239e-05 -2.2958874e-41)
(-0.00014299672 3.5261193e-05 1.6170449e-21)
(-0.0001372112 3.4054852e-05 1.3149095e-23)
(-0.00013045276 3.2286381e-05 4.7200843e-27)
(-0.00012497919 3.0787448e-05 1.3774869e-23)
(-0.00011899214 2.9266887e-05 1.7900781e-21)
(-0.00011728977 2.948987e-05 0)
(-0.00013236069 3.4673275e-05 -1.3177818e-23)
(-0.00014579298 4.0518251e-05 1.3044115e-23)
(-0.00013668863 3.8296258e-05 -1.6647307e-21)
(-0.00012930116 3.6308567e-05 -1.3499496e-23)
(-0.00012353621 3.4736682e-05 1.3839683e-23)
(-0.00011854784 3.3280935e-05 1.7963457e-21)
(-0.0001139109 3.1850815e-05 2.3509887e-38)
(-0.00010978138 3.0959784e-05 1.4645211e-44)
(-0.00011160716 3.2369232e-05 5.9870197e-40)
(-0.00012547096 3.7350653e-05 0)
(-0.00013133287 4.0606268e-05 -1.7537044e-21)
(-0.00012001887 3.6914815e-05 -3.2125839e-27)
(-0.00011571803 3.577064e-05 -3.0277351e-27)
(-0.00011059768 3.4206366e-05 2.9318668e-23)
(-0.00010645963 3.2908745e-05 -2.9962564e-23)
(-0.00010257937 3.163611e-05 1.5293924e-23)
(-9.9417284e-05 3.0960301e-05 -3.9745617e-21)
(-0.00010250513 3.3095369e-05 1.9264738e-21)
(-0.00011834191 3.8748687e-05 -1.2489627e-38)
(-0.00012555422 4.2799407e-05 1.7833983e-21)
(-0.00011377329 3.8730274e-05 2.9387359e-39)
(-0.00011002572 3.7695571e-05 3.7799238e-21)
(-0.00010538007 3.6186671e-05 -1.1754944e-38)
(-0.00010188582 3.5037733e-05 -1.4693679e-39)
(-9.8697026e-05 3.3973195e-05 -1.0027534e-21)
(-9.6217093e-05 3.3266821e-05 1.0181087e-21)
(-9.6097998e-05 3.3766017e-05 -2.9387359e-39)
(-0.00010197444 3.6212449e-05 7.5936911e-24)
(-0.00010837997 3.918954e-05 9.5550221e-22)
(-0.0001055886 3.8614735e-05 9.672664e-22)
(-0.00010050535 3.6871789e-05 0)
(-9.7295379e-05 3.57985e-05 -1.0121292e-21)
(-9.4188235e-05 3.4724519e-05 -1.6163047e-38)
(-9.1544622e-05 3.3807604e-05 -2.9387359e-39)
(-8.9320085e-05 3.3039084e-05 1.0640623e-21)
(-8.7781e-05 3.2634988e-05 -8.3971819e-24)
(-8.8181593e-05 3.3282158e-05 1.0790949e-21)
(-9.2739358e-05 3.5393944e-05 -1.6058046e-23)
(-9.7617083e-05 3.756085e-05 7.9712404e-24)
(-9.5519398e-05 3.7044969e-05 -4.0058932e-24)
(-9.1250288e-05 3.5511125e-05 1.0584068e-21)
(-8.8503054e-05 3.4534343e-05 2.4885017e-28)
(-8.5753881e-05 3.3530374e-05 -4.2635127e-24)
(-8.3387295e-05 3.2671456e-05 -1.1100462e-21)
(-8.1498343e-05 3.1974231e-05 2.2550557e-21)
(-8.0318274e-05 3.1589199e-05 5.8774718e-39)
(-8.0132823e-05 3.1920018e-05 0)
(-8.3263697e-05 3.4122262e-05 2.1795996e-21)
(-9.1955744e-05 3.7714233e-05 4.0087379e-24)
(-9.6808684e-05 4.0170075e-05 1.0245999e-21)
(-9.0694718e-05 3.7868531e-05 4.1197012e-24)
(-8.8163886e-05 3.6979491e-05 -2.3509887e-38)
(-8.5320938e-05 3.5911611e-05 -1.0999682e-21)
(-8.3158921e-05 3.5088742e-05 2.0850677e-28)
(-8.1168404e-05 3.4339118e-05 -2.2209064e-24)
(-7.9538927e-05 3.3744485e-05 -2.8698593e-41)
(-7.830656e-05 3.332963e-05 2.1300095e-38)
(-7.7617762e-05 3.3207282e-05 0)
(-7.7975185e-05 3.3702453e-05 1.8042215e-27)
(-8.0197521e-05 3.4939384e-05 -3.789111e-42)
(-8.2718874e-05 3.6098997e-05 0)
(-8.1780032e-05 3.5739342e-05 -5.673281e-22)
(-7.8985121e-05 3.4638459e-05 5.7736687e-22)
(-7.7280898e-05 3.3969338e-05 1.1477996e-24)
(-7.5510693e-05 3.3261929e-05 5.9753048e-22)
(-7.4002547e-05 3.2661681e-05 -1.1802089e-24)
(-7.2643209e-05 3.2137212e-05 -6.1211663e-22)
(-7.1569991e-05 3.1750093e-05 -2.9204646e-29)
(-7.091667e-05 3.153471e-05 -1.2444065e-21)
(-7.0732568e-05 3.1603472e-05 6.2103735e-22)
(-7.1194799e-05 3.217623e-05 0)
(-7.3222161e-05 3.354522e-05 -1.4240695e-25)
(-7.686878e-05 3.5165206e-05 1.4219852e-25)
(-7.8310601e-05 3.572749e-05 0)
(-7.4616867e-05 3.4266943e-05 6.0021126e-22)
(-7.3242141e-05 3.3717359e-05 -6.1127979e-22)
(-7.1364663e-05 3.2945691e-05 3.0318016e-25)
(-6.9934583e-05 3.235132e-05 1.4349296e-42)
(-6.8564971e-05 3.1787903e-05 6.2337099e-25)
(-6.7410104e-05 3.1324294e-05 2.4908443e-29)
(-6.6474222e-05 3.0962885e-05 -6.3710844e-25)
(-6.5850116e-05 3.0756174e-05 6.5727759e-22)
(-6.5598917e-05 3.0765305e-05 -6.5760368e-22)
(-6.575741e-05 3.1063358e-05 1.307963e-21)
(-6.6562393e-05 3.1823757e-05 -1.2578299e-24)
(-6.8528996e-05 3.3060446e-05 1.2309568e-24)
(-7.0959628e-05 3.4117412e-05 -3.1210274e-22)
(-7.1069616e-05 3.4019639e-05 5.8774718e-39)
(-6.8119926e-05 3.2822588e-05 6.4040354e-22)
(-6.6622769e-05 3.2183814e-05 1.2777544e-24)
(-6.4825756e-05 3.1403334e-05 -3.3445828e-22)
(-6.3355861e-05 3.0749603e-05 1.3233009e-24)
(-6.1928874e-05 3.0113332e-05 3.4413053e-22)
(-6.0645204e-05 2.9537951e-05 -3.5072538e-22)
(-5.9482887e-05 2.9004537e-05 1.3837369e-24)
(-5.8457155e-05 2.8541112e-05 1.4010369e-24)
(-5.759331e-05 2.8175134e-05 -1.4164671e-24)
(-5.6933122e-05 2.7933773e-05 2.6804485e-39)
(-5.6498832e-05 2.7834013e-05 5.6051939e-45)
(-5.6307139e-05 2.7917567e-05 -1.0830792e-28)
(-5.6492608e-05 2.8255928e-05 -3.6721457e-22)
(-5.7251979e-05 2.8761192e-05 1.413646e-24)
(-5.8108236e-05 2.9018666e-05 3.6215627e-22)
(-5.7664783e-05 2.8662491e-05 -2.9387359e-39)
(-5.6077856e-05 2.8019575e-05 -1.4483696e-24)
(-5.5242356e-05 2.7698818e-05 -3.743195e-22)
(-5.4456834e-05 2.7434125e-05 1.8837516e-22)
(-5.404609e-05 2.7367332e-05 2.9861913e-24)
(-5.3919182e-05 2.745829e-05 -2.9823979e-24)
(-5.4125583e-05 2.7733628e-05 1.4812201e-24)
(-5.4684118e-05 2.8221738e-05 -2.9387359e-39)
(-5.5632758e-05 2.8950932e-05 3.6882497e-22)
(-5.7001883e-05 2.995181e-05 -3.6023795e-22)
(-5.8826153e-05 3.1262735e-05 1.7453535e-22)
(-6.1167199e-05 3.2919408e-05 -1.6908197e-22)
(-6.4068196e-05 3.4910549e-05 6.3135978e-25)
(-6.7408882e-05 3.7203193e-05 1.5436754e-22)
(-7.1167493e-05 3.9922491e-05 2.933126e-22)
(-7.6149791e-05 4.3000513e-05 2.7209024e-25)
(-8.2191142e-05 4.5045989e-05 -1.0326439e-26)
(-8.3827354e-05 4.625983e-05 -1.2619407e-22)
(-8.4495417e-05 5.2362271e-05 5.8171618e-26)
(-3.8686312e-05 -3.9890934e-06 -3.6734198e-40)
(-3.5670205e-05 -3.326862e-06 -3.0702292e-24)
(-3.661235e-05 -3.1864227e-06 3.0740774e-24)
(-3.5086576e-05 -2.4982135e-06 -6.3039098e-21)
(-3.3404239e-05 -2.0494608e-06 3.621992e-37)
(-3.2432817e-05 -1.6871474e-06 -3.0885489e-24)
(-3.0680523e-05 -1.2776707e-06 -6.3315477e-21)
(-2.9566293e-05 -1.1314486e-06 3.1687502e-21)
(-2.9434543e-05 -1.0992587e-06 3.1772151e-21)
(-2.9082736e-05 -1.0453928e-06 -3.1757628e-21)
(-2.8756622e-05 -1.0067268e-06 -3.1029091e-24)
(-2.8546537e-05 -9.8983417e-07 -3.1785436e-21)
(-2.855134e-05 -1.0034678e-06 1.5523345e-24)
(-2.8669217e-05 -1.0039952e-06 3.1812101e-21)
(-2.8656983e-05 -9.7277412e-07 3.1799782e-21)
(-2.8698122e-05 -9.2851525e-07 -6.3606921e-21)
(-2.8414527e-05 -8.0792e-07 -6.6699948e-30)
(-2.7925611e-05 -6.9866279e-07 -3.1820736e-21)
(-2.7717522e-05 -6.2326348e-07 3.1830052e-21)
(-2.7507112e-05 -5.4025304e-07 -3.1837243e-21)
(-2.7084489e-05 -4.4016232e-07 -1.5923211e-21)
(-2.6791731e-05 -3.8744035e-07 -1.5928139e-21)
(-2.6755215e-05 -3.388242e-07 3.1869356e-21)
(-2.6477945e-05 -2.6192182e-07 -1.556013e-24)
(-2.6230267e-05 -2.1778898e-07 -7.9569389e-22)
(-2.6322424e-05 -1.7904566e-07 -7.9732692e-22)
(-2.6008072e-05 -8.0242626e-08 3.9851374e-22)
(-2.5566286e-05 -1.6109172e-08 -9.9658256e-23)
(-2.5517567e-05 3.8573064e-08 3.5873241e-43)
(-2.5098814e-05 1.2668397e-07 7.9754526e-22)
(-2.4727576e-05 1.6491552e-07 -1.5955689e-21)
(-2.4770545e-05 2.0135241e-07 -7.9787599e-22)
(-2.4537323e-05 2.6534086e-07 -1.5959041e-21)
(-2.4198858e-05 3.1222745e-07 9.8263981e-39)
(-2.416387e-05 3.6023764e-07 3.4438311e-41)
(-2.37128e-05 4.4781368e-07 1.5959091e-21)
(-2.3184403e-05 4.8669275e-07 -3.1944767e-21)
(-2.3065075e-05 5.2931897e-07 3.1958672e-21)
(-2.2720564e-05 5.7785747e-07 -3.1956202e-21)
(-2.2374296e-05 6.0689218e-07 -3.1963855e-21)
(-2.2242455e-05 6.4190044e-07 -2.6712686e-37)
(-2.1917159e-05 6.9631626e-07 -3.1958147e-21)
(-2.1357373e-05 7.4337901e-07 -3.1982973e-21)
(-2.0871461e-05 7.8141403e-07 -3.2009095e-21)
(-2.0391974e-05 8.31917e-07 1.5627544e-24)
(-1.9449722e-05 8.7608234e-07 -3.1267442e-24)
(-1.8465105e-05 8.7601376e-07 -1.2813692e-20)
(-1.7635867e-05 8.720488e-07 -6.4113856e-21)
(-1.6635978e-05 8.2378667e-07 2.0089015e-41)
(-1.5943287e-05 7.4721367e-07 -6.4226894e-21)
(-1.5453619e-05 6.6078667e-07 -2.7100157e-28)
(-1.503485e-05 5.5478298e-07 3.2158582e-21)
(-1.459215e-05 4.2019753e-07 -3.2139726e-21)
(-1.476889e-05 2.4569635e-07 -3.214417e-21)
(-1.5293028e-05 8.204987e-08 3.1391425e-24)
(-1.5591519e-05 -1.2679534e-07 -6.2780065e-24)
(-1.6207731e-05 -3.6608394e-07 3.1384098e-24)
(-1.7137027e-05 -6.3848802e-07 3.2096513e-21)
(-1.8236169e-05 -9.6373456e-07 3.1363479e-24)
(-1.9515799e-05 -1.3296625e-06 -6.4234155e-21)
(-2.0912541e-05 -1.7365556e-06 3.1333742e-24)
(-2.2644361e-05 -2.1968011e-06 -1.2829168e-20)
(-2.4342048e-05 -2.7138793e-06 3.1291038e-24)
(-2.728971e-05 -3.3734217e-06 1.2796665e-20)
(-2.9624437e-05 -4.1501062e-06 -1.2780664e-20)
(-3.7230764e-05 -5.1346117e-06 6.2344163e-24)
(-3.1374498e-05 -5.322538e-06 1.2718502e-20)
(-6.8648873e-05 -1.1110242e-05 -4.0077011e-37)
(-5.6116087e-05 6.4199672e-06 6.057063e-21)
(-0.00011857569 -8.6504926e-05 -9.3482622e-22)
(-8.8654477e-05 -5.6450184e-05 3.4193288e-23)
(-8.9798111e-05 -5.4283223e-05 -7.1215258e-27)
(-0.00010341478 -6.0685181e-05 -3.6694301e-21)
(-0.00015891884 -9.9912029e-05 1.5481191e-21)
(-0.00013429158 -6.3606628e-05 -1.5096608e-21)
(-1.8720398e-05 1.934191e-06 -1.7632415e-38)
(-1.7222115e-05 -7.7294589e-08 4.5037862e-21)
(-2.23609e-05 -4.1455664e-06 2.7917991e-38)
(6.1590053e-06 5.1120298e-06 3.76924e-21)
(-2.8781951e-08 3.5483583e-06 1.7751947e-26)
(-1.333962e-05 -1.4332434e-08 1.1297883e-26)
(-2.1181007e-05 -1.7259803e-06 -2.0234407e-23)
(-3.0896391e-05 -4.1804691e-06 -4.6361158e-21)
(-3.6728947e-05 -5.3990537e-06 -4.2229933e-21)
(-3.6993327e-05 -5.1017996e-06 -3.8754407e-21)
(-3.7243675e-05 -5.1665519e-06 -1.4011245e-23)
(-4.2081744e-05 -6.2315765e-06 -6.4650169e-24)
(-3.9814026e-05 -4.9017845e-06 -6.0198096e-21)
(-3.6413347e-05 -4.3398803e-06 5.5388033e-24)
(-4.0389437e-05 -5.1356194e-06 5.3805145e-21)
(-2.0467032e-06 -1.3306275e-05 5.5157601e-22)
(-2.8953969e-06 -1.9140425e-05 9.1835496e-40)
(-4.1655663e-06 -2.7175495e-05 1.0257717e-21)
(-6.4093847e-06 -3.7540631e-05 -9.7128605e-22)
(-9.3253669e-06 -4.1261418e-05 -9.259606e-22)
(-1.0272648e-05 -4.4088252e-05 8.8893604e-22)
(-1.28718e-05 -5.3425007e-05 -7.3468397e-40)
(-1.5723575e-05 -6.2734136e-05 2.4230662e-23)
(-2.2168708e-05 -8.8125256e-05 -7.14479e-22)
(-3.2543086e-05 -9.1683041e-05 -4.2952555e-23)
(-3.1925207e-05 -7.1646017e-05 4.6369668e-27)
(-3.2553017e-05 -6.804119e-05 -1.4418733e-21)
(-3.8468449e-05 -7.8996269e-05 1.3789946e-21)
(-4.757577e-05 -9.5311013e-05 1.2613495e-21)
(-5.0426285e-05 -9.1196723e-05 2.9387359e-39)
(-4.9791413e-05 -8.5818574e-05 2.4546772e-21)
(-5.8452912e-05 -9.8417756e-05 -9.9203925e-27)
(-6.7716781e-05 -0.00011000079 3.1398549e-23)
(-9.7553216e-05 -0.00016271418 -3.5096122e-21)
(-9.8892808e-05 -0.0001269922 -2.7660602e-23)
(-6.4360206e-05 -6.6868588e-05 4.6471967e-21)
(-6.8693033e-05 -6.8500894e-05 1.1754944e-38)
(-8.4529776e-05 -8.4579376e-05 0)
(-0.00011105229 -0.00011352155 9.1835496e-41)
(-9.9845164e-05 -9.003204e-05 -2.9580409e-23)
(-7.2058903e-05 -5.5878528e-05 3.6312136e-23)
(-7.8933989e-05 -5.9626317e-05 2.2230156e-21)
(-9.206036e-05 -6.877764e-05 -1.9310007e-21)
(-0.00012502736 -9.8176363e-05 0)
(-5.5917849e-07 -4.505484e-06 3.5778797e-23)
(-5.180641e-07 5.7650171e-06 -6.2019193e-22)
(-1.2766194e-06 1.2376021e-05 0)
(-2.2848631e-06 2.0243815e-05 7.3468397e-40)
(-4.2115424e-06 2.5268958e-05 -9.7924779e-22)
(-5.4824923e-06 2.9695354e-05 -8.9850503e-22)
(-6.7082156e-06 3.5386586e-05 -8.0948639e-22)
(-8.1891451e-06 4.2661696e-05 -9.1835496e-40)
(-1.0975416e-05 4.9718455e-05 -5.8571048e-22)
(-1.2435786e-05 6.8571745e-05 4.6327907e-27)
(-1.9304204e-05 7.0951146e-05 1.0664419e-21)
(-2.2302924e-05 6.0461728e-05 -1.1754944e-38)
(-2.4239877e-05 5.9326604e-05 1.7528527e-23)
(-2.699277e-05 6.4567135e-05 -1.5917165e-23)
(-3.0514021e-05 7.0476878e-05 4.6193534e-22)
(-3.4218462e-05 8.3295825e-05 -4.2484647e-22)
(-3.8193159e-05 8.7310554e-05 -8.1261829e-22)
(-3.9860731e-05 8.0502086e-05 -4.2883913e-22)
(-4.1441676e-05 7.8368314e-05 -4.1172805e-22)
(-4.4385754e-05 8.1631012e-05 -3.6993025e-22)
(-4.8461861e-05 8.7380155e-05 3.3645325e-22)
(-5.3657861e-05 9.6081626e-05 -9.7580604e-24)
(-6.0612375e-05 0.00010443304 -5.3235757e-22)
(-6.9150056e-05 0.00013251938 2.5069481e-22)
(-7.4965681e-05 0.00013564967 -9.0530387e-24)
(-6.6605633e-05 8.7645366e-05 1.2242477e-23)
(-5.9401347e-05 6.7946073e-05 -4.6861328e-22)
(-5.8500042e-05 6.4427692e-05 -7.9389836e-24)
(-6.2457346e-05 6.5532861e-05 4.9111011e-22)
(-6.8432501e-05 7.0572882e-05 -1.1754944e-38)
(-7.5401622e-05 7.7957974e-05 0)
(-8.3817143e-05 9.0777722e-05 0)
(-8.9594976e-05 0.00010539087 3.7006639e-22)
(-8.1728983e-05 9.0858024e-05 6.8923645e-24)
(-6.7395308e-05 5.9645491e-05 -5.7729966e-22)
(-5.978273e-05 4.7729937e-05 6.8465246e-22)
(-5.7379386e-05 4.374834e-05 7.4385028e-22)
(-5.9233233e-05 4.2932531e-05 7.2853187e-22)
(-6.3417154e-05 4.5797987e-05 2.1690441e-23)
(-6.818893e-05 5.0507029e-05 3.1096759e-22)
(-7.3200296e-05 5.613904e-05 5.9167803e-22)
(-7.8892612e-05 6.1916178e-05 -1.1754944e-38)
(-8.6055985e-05 6.9917041e-05 -7.7887618e-24)
(-9.1703085e-05 8.3608629e-05 -2.5291011e-22)
(-8.2915771e-05 7.5691766e-05 6.1922874e-22)
(-6.3523181e-05 4.5805956e-05 -1.2830329e-23)
(-5.2602104e-05 3.2166535e-05 -5.0984822e-22)
(-4.7385748e-05 2.5692002e-05 6.2601698e-22)
(-4.5457464e-05 2.180449e-05 -6.641999e-22)
(-4.4969296e-05 2.0490299e-05 2.0902006e-23)
(-4.5481399e-05 2.0933484e-05 1.2928642e-21)
(-4.6207122e-05 2.2178792e-05 6.3733949e-22)
(-4.7526303e-05 2.3790099e-05 1.227213e-21)
(-4.9545429e-05 2.5783717e-05 -1.8366007e-23)
(-5.2225545e-05 2.7931174e-05 1.75463e-23)
(-5.5476008e-05 3.0299762e-05 2.6686552e-22)
(-5.9763581e-05 3.3468565e-05 1.5637602e-23)
(-6.1825385e-05 3.8645465e-05 -1.5177537e-23)
(-6.941905e-05 2.3587844e-05 2.1327393e-22)
)
;
    }
    Outlet
    {
        type            calculated;
        value           uniform (0 0 0);
    }
}


// ************************************************************************* //
