/*--------------------------------*- C++ -*----------------------------------*\
| =========                 |                                                 |
| \\      /  F ield         | OpenFOAM: The Open Source CFD Toolbox           |
|  \\    /   O peration     | Version:  v2006                                 |
|   \\  /    A nd           | Website:  www.openfoam.com                      |
|    \\/     M anipulation  |                                                 |
\*---------------------------------------------------------------------------*/
FoamFile
{
    version     2.0;
    format      ascii;
    class       volScalarField;
    location    "7000";
    object      yPlus;
}
// * * * * * * * * * * * * * * * * * * * * * * * * * * * * * * * * * * * * * //

dimensions      [0 0 0 0 0 0 0];


internalField   uniform 0;

boundaryField
{
    Side
    {
        type            empty;
    }
    Ground
    {
        type            calculated;
        value           nonuniform List<scalar> 
519
(
1.1975253
1.2070669
1.2176079
1.2304195
1.2454725
1.263004
1.2818734
1.3021235
1.3300547
1.3617866
1.3662427
1.4024078
1.6096854
1.59971
1.6490119
1.5990172
1.5534882
1.5091061
1.466692
1.42623
1.3878194
1.3516582
1.3179289
1.2869386
1.2590895
1.2347703
1.2147173
1.2006283
1.6759735
1.6791231
1.6819154
1.6842147
1.685967
1.687227
1.6878341
1.6876239
1.6864703
1.6842568
1.680856
1.6761154
1.6698457
1.6618129
1.651726
1.6392342
1.6239169
1.6052782
1.5827477
1.5556432
1.5232718
1.4847526
1.439013
1.3850587
1.3214382
1.2464451
1.1585899
1.0548449
0.93071161
0.77506601
0.55249534
0.24061633
0.47122777
0.71483226
0.88714838
1.0507305
1.1807149
1.2748675
1.3560834
1.4305432
1.4981857
1.5589482
1.6134214
1.6625083
1.7064814
1.7457973
1.7803695
1.8102925
1.8362231
1.8589466
1.8789669
1.89676
1.9125473
1.9261937
1.9381518
1.9489997
1.9588561
1.9676893
1.9756188
1.98293
1.9896028
1.9955206
2.0007828
2.0055051
2.0097547
2.013583
2.0170418
2.020172
2.0230139
2.0255888
2.0279369
2.0300396
2.0319641
2.0335855
1.7839402
1.7459809
1.718598
1.7043908
1.6881019
1.674662
1.6628163
1.6531408
1.644784
1.6376464
1.6314859
1.6263841
1.6221197
1.6184966
1.61542
1.6126875
1.6103105
1.6081456
1.606153
1.6042298
1.6023822
1.6004565
1.5985234
1.5963217
1.5939639
1.5913355
1.5885067
1.5854686
1.5819156
1.578038
1.5736881
1.5688602
1.5635587
1.5575745
1.5511312
1.5440857
1.5362437
1.5279098
1.5186259
1.5079743
1.4967061
1.4846355
1.471679
1.4580087
1.4432021
1.4269582
1.4094105
1.3906972
1.3710511
1.3511227
1.3309021
1.3093899
1.2864502
1.2616336
1.2351007
1.2073987
1.1788176
1.1517028
1.1266599
1.1030734
1.0780591
1.0501144
1.0174431
0.97990736
0.93725621
0.89119917
0.84347165
0.79260681
0.7443965
0.70227767
0.66861962
0.63332406
0.59412122
0.54905286
0.49775573
0.4447062
0.40604232
0.40729015
0.44607151
0.49609005
0.54261953
0.58364757
0.61991539
0.65403852
0.68859115
0.72495121
0.76273043
0.80065389
0.838321
0.8740418
0.90668279
0.93522188
0.95933093
0.97960731
0.99719701
1.0138174
1.0302355
1.047536
1.0664887
1.0870373
1.1084996
1.1290885
1.1476055
1.163151
1.1757929
1.1864566
1.1958904
1.2053399
1.2156587
1.2272464
1.2402519
1.2538529
1.2669518
1.278766
1.288714
1.2970401
1.3043155
1.3111418
1.3187384
1.3277298
1.3383095
1.3498264
1.361009
1.3710583
1.3800091
1.3887935
1.3987534
1.4105819
1.4237743
1.4376137
1.4512085
1.4644362
1.4779234
1.492242
1.5074789
1.5233535
1.5392516
1.5551119
1.5712806
1.5877179
1.6042696
1.6207456
1.636911
1.6529585
1.6691008
1.6849286
1.7000579
1.7142993
1.7278412
1.7414862
1.7555573
1.7694497
1.7827693
1.7954682
1.8073523
1.8185387
1.8292013
1.8393091
1.8487022
1.8573466
1.8652036
1.8722992
1.8789361
1.8853491
1.891178
1.8962536
1.9005245
1.9039752
1.9068509
1.9102584
1.9141893
1.9172546
1.9198156
1.9216139
1.9226776
1.923918
1.9266109
1.9297429
1.932138
1.9340899
1.9353453
1.9360077
1.9373525
1.9403702
1.9434605
1.9461018
1.9485016
1.9502572
1.9514825
1.9531664
1.9561267
1.9592734
1.9619045
1.9642602
1.9662472
1.9678563
1.9695864
1.972856
1.9771263
1.9806614
1.9840587
1.9871586
1.9900145
1.9925037
1.9957464
2.0002386
2.0043983
2.0083349
2.0120057
2.0154523
2.0186
2.0214952
2.0249741
2.0291152
2.03301
2.0370983
2.0405626
2.0435359
2.0465735
2.0495013
2.0529826
2.0572803
2.061069
2.0647503
2.0681756
2.0714337
2.0744659
2.077252
2.080407
2.0842114
2.0878057
2.0912152
2.0944185
2.09743
2.1002614
2.1028842
2.1053427
2.1081834
2.1114031
2.1142675
2.1170104
2.1195391
2.1218985
2.1240888
2.1260784
2.1278801
2.1301045
2.1328293
2.1352324
2.1375286
2.1396305
2.1415806
2.1433714
2.1450078
2.1464794
2.1479826
2.1497117
2.1514118
2.152953
2.1543666
2.155623
2.156737
2.157725
2.1585609
2.1592351
2.1599102
2.1607335
2.1615169
2.1621564
2.1626843
2.1630918
2.1633795
2.1635514
2.1636247
2.1635884
2.1634366
2.1634212
2.1636263
2.1636812
2.1636479
2.1634958
2.1632498
2.162904
2.1624583
2.1619203
2.1612962
2.160574
2.1598153
2.1591014
2.1583514
2.1574996
2.1565664
2.155545
2.1544446
2.1532599
2.1519957
2.1506547
2.1492535
2.1478103
2.1463231
2.1448871
2.143508
2.1420205
2.1404798
2.138873
2.1372105
2.1354874
2.1337101
2.1318792
2.1299977
2.1280616
2.1260762
2.1240415
2.1219821
2.1199661
2.1179754
2.1159247
2.1138326
2.1116922
2.1095134
2.1072919
2.1050305
2.1027343
2.1004033
2.0980366
2.0956394
2.0932148
2.0907595
2.0882763
2.085784
2.0833088
2.0808327
2.0783222
2.0757869
2.0732256
2.0706413
2.0680346
2.0654073
2.0627608
2.0600969
2.0574159
2.0547208
2.0520139
2.049297
2.046571
2.0438443
2.0411326
2.0384099
2.035674
0.92365709
0.94414736
0.96206251
0.97647826
0.98608383
0.98883451
0.98129831
0.95831985
0.91543811
0.85736331
0.80764621
0.79512956
0.81754546
0.85143697
0.88786966
0.92681507
0.96802528
1.0111667
1.0560143
1.1027159
1.151511
1.2026869
1.2563998
1.3131261
1.3742278
1.4396978
1.5085834
1.5795665
1.6506518
1.7189857
1.7815666
1.8359943
1.8796865
1.9105959
1.9272872
1.9300527
1.9210847
1.9037332
1.8821704
1.8594985
1.8383386
1.8246179
1.8139257
1.7946554
0.90157697
0.88020577
0.86107923
0.84401193
0.82872252
0.81487521
0.80220364
0.79050574
0.7796326
0.76948552
0.76000046
0.75113276
0.74285755
0.73512194
0.72792868
0.72116661
0.71496304
0.70896655
0.7038105
0.69813279
0.69447523
0.68779425
0.68740208
0.67909302
)
;
    }
    Inlet
    {
        type            calculated;
        value           uniform 0;
    }
    Airfoil
    {
        type            calculated;
        value           nonuniform List<scalar> 
527
(
1.5300794
1.8042867
1.8417784
1.6226451
1.5986347
1.5064613
1.4439157
1.3958457
1.3727265
1.3559256
1.3421851
1.324853
1.3097386
1.2923275
1.275022
1.2587588
1.2410283
1.2256684
1.2088834
1.1942165
1.1782278
1.1636333
1.1475428
1.1329807
1.1173121
1.1017405
1.0866443
1.070447
1.0554145
1.0395857
1.0233213
1.0078048
0.99182153
0.97504499
0.96005644
0.94283996
0.92471427
0.91132501
0.89169262
0.87144482
0.85751967
0.8362176
0.81199557
0.79437541
0.77153898
0.74411482
0.71598524
0.69910399
0.66178702
0.61855162
0.60426214
0.55905999
0.50040022
0.44901245
0.43841737
0.35790695
0.32628401
0.34197044
0.37741113
0.45221121
0.5261556
0.54732477
0.5918512
0.65741914
0.70869625
0.72903455
0.76434398
0.82465425
0.87095979
0.886337
0.91066404
0.97467355
1.0319034
1.038488
1.0461073
1.1068608
1.181935
1.180352
1.1885507
1.218655
1.2798887
1.3072068
1.3085159
1.3111029
1.3554191
1.4105132
1.4043085
1.4087279
1.4232972
1.4695351
1.5021296
1.4987246
1.4990296
1.5241975
1.5791248
1.5996768
1.595167
1.5918654
1.6219217
1.6831662
1.6971042
1.6908596
1.6858485
1.7113139
1.7698466
1.7868908
1.779459
1.7743793
1.7890153
1.8404464
1.8705673
1.8613408
1.8567436
1.8558357
1.8963265
1.9462768
1.9338153
1.9311008
1.9266245
1.9471456
1.9909977
1.9998632
1.9961242
1.9932357
1.993044
2.0232129
2.0623639
2.0540738
2.0529733
2.0484978
2.0605445
2.1079514
2.1403485
2.130913
2.126033
2.1169713
2.1420041
2.2135521
2.241576
2.2279209
2.2193313
2.2067123
2.2338151
2.3130424
2.3411129
2.3244134
2.3168517
2.3074012
2.3178185
2.3649048
2.3924002
2.3800269
2.3770368
2.373911
2.3739699
2.3882056
2.4047268
2.4008808
2.4012702
2.396821
2.3896043
2.419641
2.4783155
2.4796968
2.4691323
2.456494
2.4252547
2.4273601
2.6086236
2.7844558
2.6993821
2.6707965
2.6244421
2.5623887
2.6507647
2.981001
3.1327872
2.9996448
2.9507021
2.87246
2.7757087
2.9354784
3.3294694
3.400058
3.276674
3.2136817
3.1306639
3.038119
3.1570211
3.4835233
3.5518139
3.4234481
3.3558385
3.2688372
3.1520118
3.2038042
3.642184
3.8888875
3.6709503
3.5949208
3.5090133
3.4020359
3.3277117
3.6255295
3.9587106
3.834605
3.7309292
3.6508198
3.5775159
3.4883104
3.4734484
3.755604
3.9502817
3.7609319
3.6984371
3.6212725
3.5510548
3.4631395
3.4780666
3.8245957
4.0295824
3.8167606
3.7544855
3.6746944
3.6100195
3.5356651
3.525754
3.7641366
3.9734733
3.8622965
3.771665
3.7013448
3.6396609
3.5809042
3.5299119
3.5762342
3.8091869
3.9085237
3.749363
3.6967835
3.6279345
3.5726889
3.5196452
3.4793929
3.5515997
3.8315806
3.9469949
3.7703886
3.7232537
3.6579177
3.6103453
3.5665458
3.535069
3.5485304
3.6706715
3.7894944
3.745602
3.6678154
3.6222581
3.5768933
3.5388948
3.5079116
3.4904651
3.513358
3.6175556
3.7129378
3.6751399
3.6045229
3.5621887
3.5183296
3.4810245
3.4525461
3.4388535
3.4488293
3.5330829
3.7249608
3.7998853
3.6863811
3.6470095
3.599805
3.5654218
3.5338287
3.5093339
3.4931477
3.4893131
3.5101962
3.572299
3.6282037
3.6053002
3.5538351
3.5257171
3.4953344
3.470222
3.4481057
3.4323618
3.426283
3.4322312
3.455738
3.5173039
3.6114963
3.62367
3.5474839
3.5240217
3.4881438
3.4620786
3.4370033
3.4167693
3.4016902
3.3944407
3.3971484
3.4114611
3.4438789
3.505001
3.5655845
3.5489212
3.4837428
3.4534845
3.4150312
3.3839676
3.3534037
3.3259646
3.3011409
3.2797215
3.2627007
3.2514688
3.2469038
3.2499695
3.2644171
3.2938866
3.3145964
3.2920379
3.253865
3.2366372
3.2211939
3.2166294
3.2206233
3.2347127
3.2597055
3.296691
3.346492
3.4099035
3.4880401
3.58098
3.6850272
3.7991902
3.9362254
4.0835845
4.1414191
4.1982723
1.8216025
1.7410015
1.7554557
1.7077876
1.6588589
1.6278124
1.5770639
1.5453063
1.5397278
1.5285633
1.5183137
1.5113582
1.5103476
1.5121444
1.5103001
1.5097959
1.5003028
1.4857019
1.4788036
1.4719075
1.4593801
1.4506713
1.4489812
1.4407562
1.4335476
1.4356939
1.4267019
1.41438
1.4129989
1.4014365
1.391252
1.3927465
1.3866077
1.3775319
1.3771509
1.3651714
1.3507644
1.3482286
1.3392587
1.3301221
1.3273719
1.3191539
1.3038993
1.2906928
1.2777823
1.2503541
1.220377
1.1946663
1.1619033
1.1381376
1.1206197
1.1047156
1.0867933
1.0895629
1.1044251
1.1096925
1.1245359
1.1478278
1.1740424
1.2033064
1.2333071
1.2698612
1.3017429
1.3613147
1.3983255
1.5530304
1.4094684
2.0097217
2.1722805
4.1534594
3.4899823
3.4582202
3.6683438
4.565694
3.8334152
1.2954379
1.2515112
1.4100177
0.79991589
0.47319887
1.0548149
1.3390484
1.6278133
1.7780589
1.781216
1.7922481
1.9116448
1.8495332
1.7734194
1.8746307
1.0954749
1.3101306
1.5586538
1.8437185
1.9725102
2.037376
2.2429479
2.4311813
2.884857
3.0659412
2.7729151
2.7227177
2.9471304
3.2613007
3.2477069
3.1808541
3.4315575
3.660809
4.46709
4.1205105
3.149945
3.2422114
3.6330638
4.2250062
3.8567188
3.212995
3.3831771
3.6899873
4.4007869
0.61433283
0.73985705
1.1529189
1.5415038
1.7634913
2.0013407
2.2771522
2.5981199
2.9098775
3.5279464
3.4353033
3.2559128
3.3317386
3.5708931
3.8294131
4.2471956
4.2202477
4.1346202
4.1817629
4.3560148
4.5932026
4.8988289
5.2046536
5.8556035
4.9518519
4.2648578
3.8945914
3.8653643
3.9868433
4.1958203
4.447425
4.7930012
4.7616888
4.0455812
3.5115507
3.2527164
3.1812419
3.2249894
3.3546869
3.5153604
3.6882034
3.8680943
4.0882486
4.0828005
3.3612524
2.8367236
2.5208259
2.3664676
2.2964163
2.2798943
2.3024299
2.3382904
2.390235
2.4594313
2.5417323
2.6342342
2.7465437
2.8616628
2.8712315
)
;
    }
    Outlet
    {
        type            calculated;
        value           uniform 0;
    }
}


// ************************************************************************* //
