/*--------------------------------*- C++ -*----------------------------------*\
| =========                 |                                                 |
| \\      /  F ield         | OpenFOAM: The Open Source CFD Toolbox           |
|  \\    /   O peration     | Version:  v2006                                 |
|   \\  /    A nd           | Website:  www.openfoam.com                      |
|    \\/     M anipulation  |                                                 |
\*---------------------------------------------------------------------------*/
FoamFile
{
    version     2.0;
    format      ascii;
    class       volScalarField;
    location    "9000";
    object      alphat;
}
// * * * * * * * * * * * * * * * * * * * * * * * * * * * * * * * * * * * * * //

dimensions      [1 -1 -1 0 0 0 0];


internalField   nonuniform List<scalar> 
55713
(
2.7384807e-10
2.8770976e-09
2.8912858e-08
6.9336806e-08
8.9620966e-08
9.5671156e-08
9.590189e-08
9.5050282e-08
9.4488974e-08
9.4284734e-08
9.4252266e-08
9.4263534e-08
9.4273402e-08
9.427639e-08
9.4277457e-08
9.4279623e-08
9.4282455e-08
9.4284147e-08
9.4283756e-08
9.4282413e-08
9.4281502e-08
9.4281755e-08
9.4281649e-08
9.4280929e-08
9.4279995e-08
9.4279025e-08
9.4278254e-08
9.427774e-08
9.4277544e-08
9.4277345e-08
9.4277146e-08
9.4276908e-08
9.4276686e-08
9.4276491e-08
9.4276462e-08
9.427665e-08
9.4276811e-08
9.4276601e-08
9.427606e-08
9.4275236e-08
9.4274308e-08
9.4273342e-08
9.4272322e-08
9.4271228e-08
9.4270157e-08
9.4269137e-08
9.4268213e-08
9.4267342e-08
9.4266473e-08
9.4265545e-08
9.4264558e-08
9.4263478e-08
9.4262341e-08
9.4261182e-08
9.4260063e-08
9.4258971e-08
9.425788e-08
9.425672e-08
9.4255445e-08
3.3327026e-10
4.1743747e-09
3.5943772e-08
7.6185556e-08
9.3059186e-08
9.6975724e-08
9.6595689e-08
9.5765848e-08
9.5335704e-08
9.5211884e-08
9.5206075e-08
9.5218936e-08
9.5225075e-08
9.5225487e-08
9.5226206e-08
9.5228546e-08
9.5231172e-08
9.5232077e-08
9.5230522e-08
9.5228706e-08
9.5227699e-08
9.5227807e-08
9.5227267e-08
9.5226158e-08
9.5224809e-08
9.5223473e-08
9.522237e-08
9.5221571e-08
9.5221067e-08
9.5220542e-08
9.5220005e-08
9.5219432e-08
9.5218854e-08
9.5218299e-08
9.5217884e-08
9.5217792e-08
9.5217748e-08
9.5217244e-08
9.5216371e-08
9.5215192e-08
9.5213863e-08
9.5212528e-08
9.5211137e-08
9.5209648e-08
9.5208124e-08
9.5206659e-08
9.5205291e-08
9.5203987e-08
9.5202666e-08
9.5201284e-08
9.5199811e-08
9.5198217e-08
9.5196498e-08
9.519471e-08
9.5192908e-08
9.5191093e-08
9.5189205e-08
9.5187176e-08
9.5184935e-08
4.1795377e-10
5.871584e-09
4.3437401e-08
8.2299999e-08
9.5733922e-08
9.8040927e-08
9.7316348e-08
9.6573445e-08
9.6264521e-08
9.6200433e-08
9.6208922e-08
9.6220135e-08
9.6222031e-08
9.6221074e-08
9.6221823e-08
9.622437e-08
9.6226713e-08
9.6226212e-08
9.622394e-08
9.6221716e-08
9.6220741e-08
9.6220676e-08
9.6219711e-08
9.6218209e-08
9.621646e-08
9.6214785e-08
9.6213369e-08
9.6212322e-08
9.6211504e-08
9.6210664e-08
9.62098e-08
9.620891e-08
9.6208016e-08
9.6207119e-08
9.6206334e-08
9.6205916e-08
9.6205771e-08
9.6205004e-08
9.6203842e-08
9.6202323e-08
9.6200613e-08
9.619891e-08
9.6197186e-08
9.6195334e-08
9.6193393e-08
9.6191503e-08
9.6189727e-08
9.6188021e-08
9.6186294e-08
9.6184499e-08
9.6182595e-08
9.6180538e-08
9.61783e-08
9.6175937e-08
9.6173516e-08
9.6171046e-08
9.6168446e-08
9.6165635e-08
9.6162508e-08
5.4016228e-10
8.1910458e-09
5.1581096e-08
8.7809507e-08
9.7967298e-08
9.8989054e-08
9.8090753e-08
9.7478636e-08
9.7278612e-08
9.7255964e-08
9.7269732e-08
9.7276241e-08
9.7275037e-08
9.7273709e-08
9.7274776e-08
9.7277353e-08
9.7278936e-08
9.7277358e-08
9.7274456e-08
9.7271915e-08
9.7271088e-08
9.7270806e-08
9.7269423e-08
9.7267508e-08
9.7265394e-08
9.7263412e-08
9.7261738e-08
9.7260488e-08
9.7259372e-08
9.725825e-08
9.7257079e-08
9.7255905e-08
9.7254703e-08
9.7253497e-08
9.7252365e-08
9.7251601e-08
9.7251396e-08
9.7250449e-08
9.7249027e-08
9.7247193e-08
9.7245119e-08
9.7243072e-08
9.7241055e-08
9.7238893e-08
9.7236575e-08
9.7234291e-08
9.7232136e-08
9.7230065e-08
9.7227967e-08
9.7225801e-08
9.7223508e-08
9.722104e-08
9.7218337e-08
9.7215451e-08
9.7212459e-08
9.720939e-08
9.7206139e-08
9.720262e-08
9.719868e-08
7.1737e-10
1.1280855e-08
6.0079279e-08
9.2559919e-08
9.9795706e-08
9.9876336e-08
9.8952314e-08
9.8490252e-08
9.8377051e-08
9.837879e-08
9.8390868e-08
9.8392496e-08
9.8389609e-08
9.8388427e-08
9.8389716e-08
9.8392213e-08
9.8392974e-08
9.8390389e-08
9.8386932e-08
9.8384234e-08
9.8383646e-08
9.8383106e-08
9.8381312e-08
9.8378967e-08
9.8376506e-08
9.8374249e-08
9.8372387e-08
9.8370952e-08
9.836959e-08
9.8368213e-08
9.8366783e-08
9.8365349e-08
9.8363876e-08
9.8362402e-08
9.8360956e-08
9.8359839e-08
9.8359526e-08
9.8358559e-08
9.8356906e-08
9.8354791e-08
9.8352379e-08
9.8350004e-08
9.8347745e-08
9.834534e-08
9.8342706e-08
9.8340075e-08
9.8337594e-08
9.8335207e-08
9.8332787e-08
9.8330291e-08
9.832766e-08
9.8324843e-08
9.832175e-08
9.8318414e-08
9.8314921e-08
9.8311338e-08
9.8307522e-08
9.8303399e-08
9.829875e-08
9.766494e-10
1.5335634e-08
6.8656633e-08
9.6142052e-08
1.0132141e-07
1.0076569e-07
9.9925579e-08
9.9610926e-08
9.9559647e-08
9.9571806e-08
9.9578492e-08
9.9576882e-08
9.9573156e-08
9.9572371e-08
9.9573791e-08
9.9576078e-08
9.9575901e-08
9.9572482e-08
9.9568579e-08
9.956594e-08
9.9565648e-08
9.9564787e-08
9.9562561e-08
9.955981e-08
9.9557023e-08
9.9554578e-08
9.9552567e-08
9.9550977e-08
9.954939e-08
9.9547799e-08
9.9546152e-08
9.9544502e-08
9.9542808e-08
9.9541108e-08
9.95394e-08
9.9537952e-08
9.9537431e-08
9.9536674e-08
9.9534835e-08
9.9532484e-08
9.9529749e-08
9.9527062e-08
9.9524605e-08
9.9522038e-08
9.9519151e-08
9.9516234e-08
9.9513488e-08
9.9510843e-08
9.9508157e-08
9.9505385e-08
9.9502473e-08
9.9499381e-08
9.9495987e-08
9.9492291e-08
9.9488381e-08
9.9484378e-08
9.94801e-08
9.9475493e-08
9.9470254e-08
1.3604571e-09
2.0568096e-08
7.6913518e-08
9.9024289e-08
1.0256272e-07
1.0169726e-07
1.0102888e-07
1.0084101e-07
1.0082783e-07
1.0083978e-07
1.0084139e-07
1.0083782e-07
1.0083386e-07
1.0083358e-07
1.0083499e-07
1.008369e-07
1.0083574e-07
1.0083169e-07
1.0082747e-07
1.0082519e-07
1.0082521e-07
1.0082395e-07
1.0082126e-07
1.008181e-07
1.0081507e-07
1.0081253e-07
1.0081043e-07
1.0080872e-07
1.0080693e-07
1.0080517e-07
1.0080335e-07
1.0080153e-07
1.0079967e-07
1.0079779e-07
1.0079589e-07
1.0079416e-07
1.0079335e-07
1.0079295e-07
1.0079108e-07
1.0078854e-07
1.0078551e-07
1.0078251e-07
1.0077992e-07
1.0077729e-07
1.0077423e-07
1.0077109e-07
1.0076816e-07
1.0076532e-07
1.0076245e-07
1.0075947e-07
1.0075635e-07
1.0075307e-07
1.0074948e-07
1.0074554e-07
1.0074131e-07
1.0073701e-07
1.007324e-07
1.0072745e-07
1.0072177e-07
1.9413444e-09
2.7203379e-08
8.5014526e-08
1.0204669e-07
1.0365878e-07
1.0274157e-07
1.0227439e-07
1.0217902e-07
1.0218525e-07
1.0219189e-07
1.0218973e-07
1.0218509e-07
1.0218129e-07
1.0218163e-07
1.0218286e-07
1.021842e-07
1.0218208e-07
1.0217756e-07
1.0217323e-07
1.0217165e-07
1.0217195e-07
1.0217021e-07
1.0216701e-07
1.0216346e-07
1.021603e-07
1.0215776e-07
1.0215567e-07
1.0215385e-07
1.0215191e-07
1.0215005e-07
1.021481e-07
1.0214618e-07
1.021442e-07
1.0214221e-07
1.0214018e-07
1.0213824e-07
1.0213712e-07
1.0213705e-07
1.0213547e-07
1.021328e-07
1.0212952e-07
1.021262e-07
1.0212351e-07
1.0212097e-07
1.0211784e-07
1.0211455e-07
1.0211153e-07
1.0210858e-07
1.0210561e-07
1.0210253e-07
1.0209929e-07
1.0209593e-07
1.0209227e-07
1.0208823e-07
1.0208382e-07
1.0207936e-07
1.0207457e-07
1.0206947e-07
1.0206353e-07
2.865424e-09
3.5453879e-08
9.2220091e-08
1.0433972e-07
1.0476779e-07
1.0396098e-07
1.0366454e-07
1.0362807e-07
1.0363804e-07
1.0363942e-07
1.0363523e-07
1.0363026e-07
1.0362686e-07
1.0362794e-07
1.0362879e-07
1.036293e-07
1.0362629e-07
1.0362155e-07
1.0361737e-07
1.0361677e-07
1.0361728e-07
1.0361503e-07
1.036112e-07
1.0360733e-07
1.0360422e-07
1.036018e-07
1.0359978e-07
1.0359791e-07
1.035959e-07
1.03594e-07
1.0359197e-07
1.0359003e-07
1.0358801e-07
1.03586e-07
1.0358391e-07
1.0358185e-07
1.0358043e-07
1.035805e-07
1.035797e-07
1.0357702e-07
1.035735e-07
1.0356987e-07
1.035671e-07
1.0356484e-07
1.0356175e-07
1.0355842e-07
1.0355544e-07
1.0355248e-07
1.0354953e-07
1.0354648e-07
1.0354323e-07
1.0353992e-07
1.0353634e-07
1.035324e-07
1.0352795e-07
1.0352353e-07
1.0351876e-07
1.0351371e-07
1.0350774e-07
4.4671466e-09
4.5472342e-08
9.8586274e-08
1.0633429e-07
1.059937e-07
1.0535985e-07
1.0519684e-07
1.0519301e-07
1.0519939e-07
1.0519683e-07
1.051916e-07
1.0518676e-07
1.05184e-07
1.0518598e-07
1.0518613e-07
1.0518558e-07
1.0518191e-07
1.0517717e-07
1.0517346e-07
1.0517412e-07
1.0517476e-07
1.051719e-07
1.0516734e-07
1.0516334e-07
1.0516049e-07
1.0515834e-07
1.0515643e-07
1.0515457e-07
1.0515259e-07
1.0515073e-07
1.0514872e-07
1.0514685e-07
1.0514486e-07
1.0514294e-07
1.0514091e-07
1.0513885e-07
1.0513717e-07
1.0513719e-07
1.0513755e-07
1.0513514e-07
1.0513142e-07
1.0512747e-07
1.0512464e-07
1.0512289e-07
1.0512e-07
1.0511675e-07
1.0511395e-07
1.0511111e-07
1.0510835e-07
1.0510547e-07
1.0510239e-07
1.0509929e-07
1.0509597e-07
1.0509235e-07
1.0508808e-07
1.0508391e-07
1.0507942e-07
1.0507468e-07
1.0506897e-07
7.1751674e-09
5.7282138e-08
1.0383517e-07
1.0810395e-07
1.0738193e-07
1.0694847e-07
1.0687598e-07
1.0688429e-07
1.068848e-07
1.0688013e-07
1.0687475e-07
1.0687029e-07
1.0686846e-07
1.0687141e-07
1.0687041e-07
1.0686885e-07
1.0686468e-07
1.0686035e-07
1.0685744e-07
1.0685963e-07
1.0686021e-07
1.0685649e-07
1.0685132e-07
1.068476e-07
1.0684522e-07
1.0684342e-07
1.0684166e-07
1.0683991e-07
1.0683806e-07
1.0683633e-07
1.0683448e-07
1.0683278e-07
1.0683094e-07
1.0682923e-07
1.0682738e-07
1.068255e-07
1.0682374e-07
1.0682356e-07
1.0682496e-07
1.0682353e-07
1.0681964e-07
1.0681539e-07
1.068126e-07
1.0681147e-07
1.0680903e-07
1.0680601e-07
1.0680361e-07
1.0680105e-07
1.0679867e-07
1.0679616e-07
1.0679347e-07
1.0679078e-07
1.0678794e-07
1.067849e-07
1.067811e-07
1.0677743e-07
1.0677354e-07
1.067694e-07
1.0676433e-07
1.1038459e-08
7.0812698e-08
1.0728958e-07
1.09706e-07
1.0897474e-07
1.087311e-07
1.0870855e-07
1.0871645e-07
1.0871285e-07
1.0870778e-07
1.0870288e-07
1.0869886e-07
1.086984e-07
1.0870221e-07
1.086995e-07
1.0869738e-07
1.0869302e-07
1.0868955e-07
1.0868802e-07
1.0869173e-07
1.0869164e-07
1.0868691e-07
1.0868173e-07
1.086788e-07
1.0867701e-07
1.0867553e-07
1.0867398e-07
1.0867247e-07
1.0867089e-07
1.0866943e-07
1.0866788e-07
1.0866646e-07
1.0866493e-07
1.0866355e-07
1.0866203e-07
1.0866056e-07
1.0865896e-07
1.0865866e-07
1.0866056e-07
1.0866109e-07
1.086571e-07
1.0865251e-07
1.0865007e-07
1.0864951e-07
1.0864801e-07
1.086453e-07
1.086435e-07
1.0864142e-07
1.0863965e-07
1.0863776e-07
1.0863572e-07
1.0863369e-07
1.0863158e-07
1.0862938e-07
1.0862645e-07
1.0862356e-07
1.0862067e-07
1.0861747e-07
1.0861346e-07
1.6806202e-08
8.6001135e-08
1.0960007e-07
1.1121129e-07
1.1079368e-07
1.1070453e-07
1.107018e-07
1.1070502e-07
1.107002e-07
1.1069604e-07
1.1069192e-07
1.1068865e-07
1.1068968e-07
1.1069402e-07
1.1068882e-07
1.106872e-07
1.1068409e-07
1.1068192e-07
1.1068245e-07
1.106863e-07
1.1068488e-07
1.106795e-07
1.1067545e-07
1.1067377e-07
1.1067269e-07
1.106716e-07
1.1067044e-07
1.1066933e-07
1.1066821e-07
1.1066718e-07
1.1066611e-07
1.1066514e-07
1.1066411e-07
1.1066319e-07
1.1066222e-07
1.1066131e-07
1.1066028e-07
1.1066007e-07
1.1066185e-07
1.1066457e-07
1.1066108e-07
1.106565e-07
1.1065473e-07
1.106548e-07
1.1065455e-07
1.1065226e-07
1.1065147e-07
1.1064988e-07
1.1064888e-07
1.1064792e-07
1.1064683e-07
1.1064568e-07
1.1064458e-07
1.1064348e-07
1.1064183e-07
1.1064001e-07
1.1063854e-07
1.1063666e-07
1.106342e-07
2.4866996e-08
1.0252879e-07
1.1277105e-07
1.1294246e-07
1.1284883e-07
1.1284344e-07
1.128439e-07
1.128443e-07
1.1284031e-07
1.1283896e-07
1.1283552e-07
1.1283457e-07
1.1283601e-07
1.1283945e-07
1.1283258e-07
1.1283301e-07
1.1283206e-07
1.1283092e-07
1.1283249e-07
1.1283406e-07
1.1283219e-07
1.1282892e-07
1.1282757e-07
1.1282706e-07
1.1282657e-07
1.1282605e-07
1.1282551e-07
1.1282503e-07
1.1282457e-07
1.1282416e-07
1.1282376e-07
1.1282342e-07
1.1282308e-07
1.128228e-07
1.1282251e-07
1.1282229e-07
1.12822e-07
1.1282195e-07
1.1282296e-07
1.1282647e-07
1.1282477e-07
1.1282186e-07
1.1282107e-07
1.1282154e-07
1.1282205e-07
1.1282114e-07
1.1282173e-07
1.1282071e-07
1.1282061e-07
1.1282082e-07
1.1282079e-07
1.1282079e-07
1.1282082e-07
1.1282096e-07
1.1282089e-07
1.1282057e-07
1.1282073e-07
1.1282044e-07
1.1282001e-07
8.5590592e-08
8.5589403e-08
8.5588642e-08
8.5589857e-08
8.5590638e-08
8.5591595e-08
8.5592517e-08
8.559347e-08
8.5594434e-08
8.5595409e-08
8.5596373e-08
8.5597324e-08
8.5598251e-08
8.5599166e-08
8.5600075e-08
8.5600996e-08
8.5601938e-08
8.5602906e-08
8.5603862e-08
8.5604755e-08
8.560554e-08
8.5606208e-08
8.5606735e-08
8.5607088e-08
8.560726e-08
8.56073e-08
8.5607274e-08
8.560725e-08
8.5607268e-08
8.5607355e-08
8.5607554e-08
8.5607888e-08
8.5608319e-08
8.5608776e-08
8.560921e-08
8.56096e-08
8.5609909e-08
8.5610043e-08
8.5609762e-08
8.5608757e-08
8.5606601e-08
8.5602315e-08
8.5594728e-08
8.5586914e-08
8.5596634e-08
8.5668049e-08
8.5867469e-08
8.6233346e-08
8.6649985e-08
8.6640332e-08
8.512805e-08
8.0294294e-08
6.9469332e-08
5.0767354e-08
2.7118054e-08
8.673303e-09
1.5840013e-09
4.0771739e-10
5.3093824e-10
8.5880792e-08
8.5879805e-08
8.5879844e-08
8.5880897e-08
8.5881778e-08
8.5882718e-08
8.5883653e-08
8.5884612e-08
8.5885577e-08
8.5886551e-08
8.588751e-08
8.5888454e-08
8.5889373e-08
8.5890281e-08
8.5891185e-08
8.5892103e-08
8.5893045e-08
8.5894013e-08
8.5894967e-08
8.589585e-08
8.5896625e-08
8.5897283e-08
8.5897797e-08
8.5898136e-08
8.5898299e-08
8.5898331e-08
8.5898303e-08
8.589828e-08
8.5898299e-08
8.5898386e-08
8.5898583e-08
8.5898917e-08
8.5899354e-08
8.5899823e-08
8.5900265e-08
8.5900649e-08
8.5900945e-08
8.5901067e-08
8.5900773e-08
8.5899693e-08
8.5897358e-08
8.589295e-08
8.5885769e-08
8.5879131e-08
8.5889558e-08
8.5957497e-08
8.6144962e-08
8.6493163e-08
8.6909002e-08
8.6967859e-08
8.5666112e-08
8.1215021e-08
7.1083134e-08
5.2979918e-08
2.9154863e-08
9.6619371e-09
1.7399341e-09
3.8331508e-10
4.7712215e-10
8.6199979e-08
8.6199187e-08
8.6199522e-08
8.6200529e-08
8.620145e-08
8.6202395e-08
8.6203342e-08
8.620431e-08
8.6205283e-08
8.6206263e-08
8.6207225e-08
8.620817e-08
8.6209087e-08
8.6209994e-08
8.6210894e-08
8.6211809e-08
8.621275e-08
8.6213718e-08
8.6214669e-08
8.6215547e-08
8.6216316e-08
8.6216968e-08
8.6217473e-08
8.6217803e-08
8.621796e-08
8.621799e-08
8.6217962e-08
8.6217939e-08
8.6217953e-08
8.6218029e-08
8.621821e-08
8.6218533e-08
8.6218972e-08
8.6219449e-08
8.6219896e-08
8.6220281e-08
8.6220584e-08
8.6220744e-08
8.6220539e-08
8.6219628e-08
8.6217646e-08
8.6213882e-08
8.6207222e-08
8.6198982e-08
8.6201341e-08
8.6249488e-08
8.6405362e-08
8.6727084e-08
8.7169259e-08
8.739103e-08
8.6493436e-08
8.2773532e-08
7.366757e-08
5.642318e-08
3.2300453e-08
1.1190185e-08
1.9881682e-09
3.712423e-10
4.2466611e-10
8.6551697e-08
8.655116e-08
8.655178e-08
8.6552749e-08
8.65537e-08
8.6554649e-08
8.6555605e-08
8.6556582e-08
8.655756e-08
8.6558543e-08
8.6559505e-08
8.6560449e-08
8.6561364e-08
8.6562266e-08
8.6563161e-08
8.6564073e-08
8.6565013e-08
8.656598e-08
8.6566927e-08
8.6567796e-08
8.6568557e-08
8.65692e-08
8.6569694e-08
8.657001e-08
8.6570156e-08
8.6570181e-08
8.6570151e-08
8.6570128e-08
8.657014e-08
8.6570209e-08
8.6570377e-08
8.6570691e-08
8.657113e-08
8.6571619e-08
8.6572074e-08
8.6572457e-08
8.657276e-08
8.6572943e-08
8.6572802e-08
8.6571989e-08
8.6570184e-08
8.6566856e-08
8.6560915e-08
8.6552615e-08
8.6550721e-08
8.6584713e-08
8.6712624e-08
8.7001298e-08
8.7442849e-08
8.7774508e-08
8.7205934e-08
8.4133985e-08
7.6024762e-08
5.9764394e-08
3.5602045e-08
1.2923955e-08
2.313076e-09
3.6852969e-10
3.806243e-10
8.6939931e-08
8.6939699e-08
8.6940489e-08
8.6941445e-08
8.6942408e-08
8.6943365e-08
8.6944327e-08
8.694531e-08
8.6946292e-08
8.6947277e-08
8.6948239e-08
8.694918e-08
8.695009e-08
8.6950987e-08
8.6951877e-08
8.6952784e-08
8.6953721e-08
8.6954685e-08
8.6955625e-08
8.6956484e-08
8.6957235e-08
8.6957868e-08
8.6958348e-08
8.6958647e-08
8.695878e-08
8.6958796e-08
8.6958763e-08
8.695874e-08
8.695875e-08
8.6958812e-08
8.6958967e-08
8.6959269e-08
8.6959709e-08
8.696021e-08
8.6960674e-08
8.6961056e-08
8.6961357e-08
8.6961567e-08
8.6961504e-08
8.696081e-08
8.6959193e-08
8.6956288e-08
8.6951084e-08
8.6942931e-08
8.6937354e-08
8.6957906e-08
8.7057392e-08
8.7308462e-08
8.773738e-08
8.8160165e-08
8.7906231e-08
8.5491281e-08
7.8432829e-08
6.3315746e-08
3.9332706e-08
1.5013669e-08
2.7415377e-09
3.7609622e-10
3.4028162e-10
8.7369392e-08
8.7369449e-08
8.7370371e-08
8.737133e-08
8.7372296e-08
8.7373259e-08
8.7374225e-08
8.7375212e-08
8.7376197e-08
8.7377182e-08
8.737814e-08
8.7379075e-08
8.7379976e-08
8.7380865e-08
8.7381746e-08
8.7382645e-08
8.7383576e-08
8.7384535e-08
8.7385463e-08
8.7386308e-08
8.7387046e-08
8.7387667e-08
8.7388128e-08
8.7388407e-08
8.7388521e-08
8.7388525e-08
8.7388486e-08
8.7388464e-08
8.7388474e-08
8.7388528e-08
8.7388669e-08
8.738896e-08
8.7389399e-08
8.7389913e-08
8.7390391e-08
8.7390773e-08
8.7391067e-08
8.73913e-08
8.7391317e-08
8.7390745e-08
8.7389287e-08
8.7386734e-08
8.7382289e-08
8.7374788e-08
8.7366999e-08
8.7376516e-08
8.7449164e-08
8.7658847e-08
8.8059346e-08
8.854148e-08
8.8562298e-08
8.677842e-08
8.0783798e-08
6.6975697e-08
4.3441893e-08
1.7510244e-08
3.2970382e-09
3.9676589e-10
3.0620473e-10
8.7845625e-08
8.784595e-08
8.7846932e-08
8.7847898e-08
8.7848861e-08
8.7849828e-08
8.7850794e-08
8.7851783e-08
8.7852764e-08
8.7853746e-08
8.7854695e-08
8.7855618e-08
8.7856505e-08
8.785738e-08
8.7858247e-08
8.7859135e-08
8.7860054e-08
8.7861004e-08
8.7861917e-08
8.7862744e-08
8.7863466e-08
8.7864071e-08
8.7864509e-08
8.7864763e-08
8.7864852e-08
8.786484e-08
8.7864793e-08
8.7864773e-08
8.7864781e-08
8.786483e-08
8.7864957e-08
8.7865234e-08
8.786567e-08
8.78662e-08
8.7866698e-08
8.7867082e-08
8.7867367e-08
8.7867617e-08
8.786772e-08
8.7867286e-08
8.7865977e-08
8.7863707e-08
8.7859961e-08
8.7853396e-08
8.7844584e-08
8.7845459e-08
8.7893694e-08
8.8060293e-08
8.8419281e-08
8.8929635e-08
8.9180463e-08
8.7994931e-08
8.301063e-08
7.0723517e-08
4.7950324e-08
2.0510996e-08
4.0263593e-09
4.3629248e-10
2.7694995e-10
8.8375135e-08
8.8375692e-08
8.8376695e-08
8.8377668e-08
8.8378627e-08
8.8379592e-08
8.8380554e-08
8.8381539e-08
8.8382512e-08
8.8383482e-08
8.8384412e-08
8.8385313e-08
8.8386177e-08
8.8387031e-08
8.8387877e-08
8.8388747e-08
8.838965e-08
8.8390584e-08
8.8391476e-08
8.8392281e-08
8.8392982e-08
8.8393566e-08
8.8393975e-08
8.8394198e-08
8.8394256e-08
8.8394221e-08
8.8394165e-08
8.8394146e-08
8.8394155e-08
8.8394197e-08
8.839431e-08
8.8394573e-08
8.8395006e-08
8.8395548e-08
8.8396081e-08
8.839647e-08
8.8396742e-08
8.8397e-08
8.8397191e-08
8.8396918e-08
8.839576e-08
8.8393705e-08
8.8390556e-08
8.8385098e-08
8.8376376e-08
8.837124e-08
8.8398522e-08
8.8522388e-08
8.8828968e-08
8.933567e-08
8.9760374e-08
8.9117912e-08
8.5224422e-08
7.44956e-08
5.2837472e-08
2.4100197e-08
4.9860536e-09
4.9226275e-10
2.5218062e-10
8.8965685e-08
8.8966407e-08
8.8967421e-08
8.8968397e-08
8.8969345e-08
8.8970304e-08
8.8971256e-08
8.8972226e-08
8.8973182e-08
8.8974128e-08
8.897503e-08
8.8975899e-08
8.8976729e-08
8.8977554e-08
8.8978373e-08
8.8979217e-08
8.8980098e-08
8.898101e-08
8.8981874e-08
8.8982651e-08
8.8983327e-08
8.8983883e-08
8.8984257e-08
8.898444e-08
8.8984457e-08
8.8984393e-08
8.8984327e-08
8.8984309e-08
8.8984319e-08
8.8984356e-08
8.8984454e-08
8.89847e-08
8.8985131e-08
8.8985687e-08
8.8986257e-08
8.8986667e-08
8.8986924e-08
8.8987176e-08
8.8987451e-08
8.8987368e-08
8.8986384e-08
8.8984489e-08
8.8981799e-08
8.8977438e-08
8.8969688e-08
8.8961133e-08
8.8971762e-08
8.9055627e-08
8.9302425e-08
8.9776115e-08
9.0317599e-08
9.0144987e-08
8.7290812e-08
7.8240358e-08
5.8066699e-08
2.837044e-08
6.2533518e-09
5.7749998e-10
2.3184941e-10
8.9626694e-08
8.9627475e-08
8.962848e-08
8.9629446e-08
8.9630375e-08
8.9631312e-08
8.963224e-08
8.9633183e-08
8.9634107e-08
8.9635015e-08
8.9635874e-08
8.9636697e-08
8.9637481e-08
8.9638265e-08
8.9639047e-08
8.9639858e-08
8.9640706e-08
8.9641588e-08
8.9642416e-08
8.9643159e-08
8.9643801e-08
8.964432e-08
8.9644649e-08
8.9644783e-08
8.9644746e-08
8.9644646e-08
8.9644568e-08
8.9644554e-08
8.9644564e-08
8.9644597e-08
8.9644677e-08
8.9644906e-08
8.9645333e-08
8.9645905e-08
8.9646509e-08
8.9646978e-08
8.9647214e-08
8.9647441e-08
8.9647786e-08
8.9647928e-08
8.964716e-08
8.9645401e-08
8.9642998e-08
8.9639613e-08
8.9633389e-08
8.9623771e-08
8.9622582e-08
8.9671541e-08
8.9855585e-08
9.0270378e-08
9.086757e-08
9.1080944e-08
8.9203213e-08
8.1852033e-08
6.3572634e-08
3.3409846e-08
7.939538e-09
6.9878264e-10
2.1620803e-10
9.0369384e-08
9.0370192e-08
9.0371176e-08
9.0372114e-08
9.0373011e-08
9.037391e-08
9.0374802e-08
9.0375703e-08
9.0376581e-08
9.0377436e-08
9.0378236e-08
9.0378996e-08
9.037972e-08
9.0380449e-08
9.0381185e-08
9.038195e-08
9.0382758e-08
9.0383596e-08
9.0384377e-08
9.0385075e-08
9.0385676e-08
9.0386146e-08
9.0386419e-08
9.0386488e-08
9.0386382e-08
9.0386234e-08
9.0386148e-08
9.0386138e-08
9.0386149e-08
9.0386177e-08
9.0386241e-08
9.0386449e-08
9.0386873e-08
9.0387464e-08
9.0388103e-08
9.0388661e-08
9.0388894e-08
9.0389065e-08
9.038946e-08
9.0389864e-08
9.0389375e-08
9.0387775e-08
9.0385517e-08
9.0382828e-08
9.0378336e-08
9.0369538e-08
9.0361463e-08
9.0382626e-08
9.0506094e-08
9.0842963e-08
9.1435161e-08
9.193167e-08
9.0936162e-08
8.5118013e-08
6.9261327e-08
3.928669e-08
1.0197465e-08
8.6797419e-10
2.0631475e-10
9.1207495e-08
9.1208302e-08
9.1209243e-08
9.1210135e-08
9.1210981e-08
9.1211827e-08
9.1212664e-08
9.1213507e-08
9.121432e-08
9.1215099e-08
9.1215817e-08
9.1216492e-08
9.1217136e-08
9.1217794e-08
9.121847e-08
9.1219179e-08
9.1219933e-08
9.1220714e-08
9.1221432e-08
9.1222074e-08
9.122262e-08
9.1223024e-08
9.1223226e-08
9.1223213e-08
9.1223016e-08
9.1222804e-08
9.1222715e-08
9.1222711e-08
9.1222724e-08
9.1222747e-08
9.1222794e-08
9.1222976e-08
9.1223399e-08
9.1224016e-08
9.1224702e-08
9.1225332e-08
9.122564e-08
9.1225705e-08
9.1226107e-08
9.1226833e-08
9.1226678e-08
9.122532e-08
9.1223126e-08
9.1220805e-08
9.121782e-08
9.1211089e-08
9.1200614e-08
9.1202398e-08
9.1272505e-08
9.1521512e-08
9.2055125e-08
9.2714572e-08
9.2458229e-08
8.8357018e-08
7.4992562e-08
4.6027874e-08
1.3235699e-08
1.1035721e-09
2.0534123e-10
9.2157075e-08
9.215791e-08
9.2158814e-08
9.2159647e-08
9.2160428e-08
9.2161203e-08
9.2161975e-08
9.2162744e-08
9.2163473e-08
9.2164154e-08
9.2164769e-08
9.2165338e-08
9.2165884e-08
9.2166459e-08
9.2167068e-08
9.2167711e-08
9.2168401e-08
9.2169106e-08
9.2169747e-08
9.2170323e-08
9.2170805e-08
9.2171127e-08
9.2171245e-08
9.2171128e-08
9.2170793e-08
9.2170513e-08
9.2170434e-08
9.2170439e-08
9.2170456e-08
9.2170477e-08
9.2170507e-08
9.2170657e-08
9.2171081e-08
9.2171728e-08
9.217248e-08
9.2173182e-08
9.2173634e-08
9.2173604e-08
9.2173905e-08
9.2174915e-08
9.2175227e-08
9.2174245e-08
9.2172129e-08
9.2169855e-08
9.2167829e-08
9.2163628e-08
9.2154248e-08
9.2145361e-08
9.2173591e-08
9.2334802e-08
9.2770372e-08
9.3485465e-08
9.3791674e-08
9.1239144e-08
8.0636089e-08
5.3594261e-08
1.7322876e-08
1.4625205e-09
2.1451975e-10
9.3234617e-08
9.3235585e-08
9.3236464e-08
9.3237238e-08
9.3237956e-08
9.3238672e-08
9.323939e-08
9.3240092e-08
9.3240737e-08
9.3241312e-08
9.3241817e-08
9.3242271e-08
9.3242712e-08
9.3243202e-08
9.3243755e-08
9.3244363e-08
9.3245004e-08
9.3245628e-08
9.3246196e-08
9.3246723e-08
9.3247161e-08
9.3247399e-08
9.3247408e-08
9.3247081e-08
9.3246632e-08
9.3246373e-08
9.3246291e-08
9.3246296e-08
9.3246315e-08
9.3246336e-08
9.3246368e-08
9.3246475e-08
9.3246897e-08
9.3247577e-08
9.3248409e-08
9.3249206e-08
9.3249783e-08
9.3249787e-08
9.3249838e-08
9.3250909e-08
9.3251923e-08
9.3251466e-08
9.3249537e-08
9.324705e-08
9.3245292e-08
9.3243275e-08
9.3237069e-08
9.3225219e-08
9.3225768e-08
9.330927e-08
9.3622052e-08
9.4291853e-08
9.4980956e-08
9.3787649e-08
8.5940865e-08
6.1868819e-08
2.2765715e-08
2.0411448e-09
2.3367317e-10
5.8138614e-10
6.0783027e-10
6.2334723e-10
6.3380057e-10
6.421751e-10
6.4936819e-10
6.5532816e-10
6.5975162e-10
6.6236865e-10
6.6297412e-10
6.6138818e-10
6.5741217e-10
6.5082148e-10
6.4134602e-10
6.2867332e-10
6.1245372e-10
5.9231309e-10
5.6788702e-10
5.388542e-10
5.0494427e-10
4.6616848e-10
4.2290841e-10
3.7578072e-10
3.2560839e-10
2.7307775e-10
2.1952489e-10
1.6746861e-10
1.1694214e-10
7.2834546e-11
3.7185191e-11
1.1605369e-11
6.153008e-13
4.0608919e-12
1.8758191e-11
4.7900744e-11
9.6459725e-11
1.5939626e-10
2.2227039e-10
2.8833131e-10
3.5947973e-10
4.3499038e-10
5.12801e-10
5.9388818e-10
6.7239836e-10
7.4851197e-10
8.2177657e-10
8.9092286e-10
9.5457303e-10
1.0126897e-09
1.0657959e-09
1.1143625e-09
1.1588547e-09
1.1993189e-09
1.2356848e-09
1.2684883e-09
1.2984463e-09
1.3258479e-09
1.3508347e-09
1.37377e-09
1.3948985e-09
1.414213e-09
1.4317486e-09
1.4476415e-09
1.4620465e-09
1.4751082e-09
1.4869591e-09
1.4977222e-09
1.5075059e-09
1.5164076e-09
1.5245066e-09
1.5318683e-09
1.5385261e-09
1.5445812e-09
1.550037e-09
4.4135943e-10
4.6454281e-10
4.8566382e-10
5.0571088e-10
5.2335149e-10
5.3823525e-10
5.5038839e-10
5.5991031e-10
5.6688764e-10
5.7139927e-10
5.7351513e-10
5.7326557e-10
5.7062398e-10
5.6549202e-10
5.5769816e-10
5.4700074e-10
5.3311195e-10
5.1571129e-10
4.9449692e-10
4.6914643e-10
4.3955432e-10
4.04825e-10
3.6479314e-10
3.2092227e-10
2.7452134e-10
2.2683279e-10
1.799441e-10
1.3554001e-10
9.5146914e-11
6.1125012e-11
3.57037e-11
1.5952121e-11
7.0224805e-12
1.14484e-11
2.5465101e-11
5.1629882e-11
9.0065473e-11
1.342991e-10
1.8238023e-10
2.3419345e-10
2.8945201e-10
3.4731355e-10
4.0817233e-10
4.6957985e-10
5.3005385e-10
5.8956664e-10
6.4732787e-10
7.0235181e-10
7.5404805e-10
8.0224311e-10
8.4698645e-10
8.8845836e-10
9.2677092e-10
9.6181411e-10
9.9377655e-10
1.0229807e-09
1.0497097e-09
1.0741774e-09
1.0965815e-09
1.1171522e-09
1.1360501e-09
1.1533941e-09
1.1692954e-09
1.1838632e-09
1.1972028e-09
1.2094148e-09
1.2205929e-09
1.230827e-09
1.2401971e-09
1.2487823e-09
1.256652e-09
1.2638587e-09
1.2704633e-09
1.2764908e-09
1.3325946e-09
1.1084227e-09
9.2922537e-10
7.8586666e-10
6.7799491e-10
6.0062045e-10
5.4732041e-10
5.1371981e-10
4.9589483e-10
4.891425e-10
4.8945741e-10
4.932777e-10
4.980976e-10
5.0214269e-10
5.0420905e-10
5.035275e-10
4.9962801e-10
4.9222458e-10
4.8114221e-10
4.6622293e-10
4.4741567e-10
4.244576e-10
3.9707732e-10
3.6550778e-10
3.303735e-10
2.9246451e-10
2.5303093e-10
2.1311121e-10
1.7377525e-10
1.3631873e-10
1.0333399e-10
7.5601924e-11
5.3572109e-11
3.7556206e-11
3.4111616e-11
3.8275571e-11
5.010569e-11
6.7979572e-11
9.1222061e-11
1.1902506e-10
1.5061263e-10
1.8522784e-10
2.2244809e-10
2.6148772e-10
3.0150306e-10
3.4197824e-10
3.823942e-10
4.222303e-10
4.6102717e-10
4.9843352e-10
5.3420922e-10
5.6822338e-10
6.0029017e-10
6.3017889e-10
6.5794969e-10
6.8368311e-10
7.075234e-10
7.2953602e-10
7.4997074e-10
7.689758e-10
7.8663826e-10
8.0303786e-10
8.1825143e-10
8.3235315e-10
8.4541521e-10
8.5750702e-10
8.6869493e-10
8.7904199e-10
8.8860834e-10
8.9745136e-10
9.0563002e-10
9.1319741e-10
9.2019926e-10
9.2666274e-10
6.5295418e-09
4.6381613e-09
3.3308784e-09
2.4630639e-09
1.8996751e-09
1.5232316e-09
1.2595889e-09
1.0573638e-09
9.0226662e-10
7.6830522e-10
6.7042842e-10
5.9743862e-10
5.4546026e-10
5.107454e-10
4.8920285e-10
4.7711484e-10
4.7087468e-10
4.6767684e-10
4.6531202e-10
4.6205453e-10
4.5610503e-10
4.460457e-10
4.3187089e-10
4.1376748e-10
3.9200366e-10
3.6695073e-10
3.3911731e-10
3.095259e-10
2.7912603e-10
2.482365e-10
2.1756176e-10
1.8827565e-10
1.6120836e-10
1.3559546e-10
1.1495969e-10
1.0039267e-10
8.9908815e-11
8.7516381e-11
8.8596868e-11
9.3128663e-11
1.0050783e-10
1.1058442e-10
1.2319326e-10
1.3794312e-10
1.5442062e-10
1.7224111e-10
1.9104094e-10
2.1048634e-10
2.3027483e-10
2.5013888e-10
2.6985093e-10
2.892235e-10
3.0809741e-10
3.2633435e-10
3.4383552e-10
3.605335e-10
3.7638966e-10
3.9138477e-10
4.0552685e-10
4.1883347e-10
4.3132889e-10
4.4304246e-10
4.5400629e-10
4.6425408e-10
4.7382055e-10
4.8274069e-10
4.910495e-10
4.9878151e-10
5.0597043e-10
5.1264965e-10
5.1884723e-10
5.2458721e-10
5.2990586e-10
5.3481922e-10
2.1891585e-08
1.6411748e-08
1.2034798e-08
8.7190973e-09
6.3057537e-09
4.59513e-09
3.4191181e-09
2.618006e-09
2.048484e-09
1.6536302e-09
1.3710868e-09
1.1612239e-09
9.9698111e-10
8.6573277e-10
7.5240894e-10
6.6632326e-10
5.9935313e-10
5.4903728e-10
5.1250573e-10
4.8709477e-10
4.7218936e-10
4.6358279e-10
4.5797566e-10
4.5196268e-10
4.4341277e-10
4.3203133e-10
4.1791317e-10
4.0139054e-10
3.8295108e-10
3.6300147e-10
3.4175992e-10
3.1983021e-10
2.9706535e-10
2.7516844e-10
2.5349912e-10
2.3322913e-10
2.1460038e-10
1.9920996e-10
1.8691797e-10
1.7793604e-10
1.7021988e-10
1.6607097e-10
1.6357492e-10
1.6250585e-10
1.6271821e-10
1.6406001e-10
1.6638919e-10
1.695587e-10
1.7342307e-10
1.7784414e-10
1.8269516e-10
1.8786106e-10
1.9323947e-10
1.9874055e-10
2.0428741e-10
2.0981461e-10
2.152678e-10
2.2060371e-10
2.2578907e-10
2.3079783e-10
2.3561087e-10
2.4021533e-10
2.4460328e-10
2.4877069e-10
2.5271668e-10
2.5644307e-10
2.5995357e-10
2.6325348e-10
2.6634944e-10
2.6924885e-10
2.7195997e-10
2.7449092e-10
2.7685291e-10
2.7904279e-10
4.3983119e-08
3.5878875e-08
2.8411242e-08
2.1965346e-08
1.6659441e-08
1.2461197e-08
9.2559531e-09
6.8892162e-09
5.1516919e-09
3.9030865e-09
3.0108974e-09
2.3767635e-09
1.9252681e-09
1.5881088e-09
1.3394777e-09
1.1514268e-09
1.0057705e-09
8.8626339e-10
7.8778924e-10
7.0162801e-10
6.3446382e-10
5.8075234e-10
5.4111702e-10
5.1417893e-10
4.9622441e-10
4.840588e-10
4.7551076e-10
4.6737526e-10
4.5831818e-10
4.4814144e-10
4.3688575e-10
4.246857e-10
4.1184417e-10
3.9839908e-10
3.846018e-10
3.7063253e-10
3.568901e-10
3.4246642e-10
3.290266e-10
3.1732317e-10
3.070476e-10
2.9808848e-10
2.9030818e-10
2.84168e-10
2.7867528e-10
2.7382971e-10
2.6969185e-10
2.6621459e-10
2.6332788e-10
2.6095753e-10
2.5905244e-10
2.5754306e-10
2.5636526e-10
2.554651e-10
2.5479618e-10
2.5431927e-10
2.5400173e-10
2.5381563e-10
2.5373706e-10
2.5374588e-10
2.5382469e-10
2.5395856e-10
2.5413468e-10
2.5434211e-10
2.5457174e-10
2.5481591e-10
2.5506832e-10
2.5532379e-10
2.555782e-10
2.5582817e-10
2.5607078e-10
2.5630405e-10
2.5652636e-10
2.5673654e-10
6.3674687e-08
5.5849379e-08
4.7632808e-08