/*--------------------------------*- C++ -*----------------------------------*\
| =========                 |                                                 |
| \\      /  F ield         | OpenFOAM: The Open Source CFD Toolbox           |
|  \\    /   O peration     | Version:  v2006                                 |
|   \\  /    A nd           | Website:  www.openfoam.com                      |
|    \\/     M anipulation  |                                                 |
\*---------------------------------------------------------------------------*/
FoamFile
{
    version     2.0;
    format      ascii;
    class       volScalarField;
    location    "9000";
    object      Cp;
}
// * * * * * * * * * * * * * * * * * * * * * * * * * * * * * * * * * * * * * //

dimensions      [0 0 0 0 0 0 0];


internalField   nonuniform List<scalar> 
55713
(
0.0055522907
0.0055528701
0.0055527922
0.0055531744
0.0055531521
0.0055532237
0.0055532044
0.0055531846
0.0055531549
0.0055531287
0.005553094
0.0055530919
0.0055531165
0.0055531752
0.0055532572
0.0055533281
0.0055533414
0.0055532894
0.0055532158
0.0055531593
0.0055531063
0.0055530693
0.0055530499
0.0055530377
0.0055530243
0.0055530015
0.0055529625
0.0055529045
0.0055528272
0.0055527369
0.0055526334
0.0055525286
0.0055524395
0.0055523739
0.0055523257
0.0055522794
0.0055522282
0.0055521676
0.0055520939
0.0055520099
0.0055519113
0.005551788
0.0055516392
0.0055514707
0.0055512914
0.0055511092
0.0055509291
0.0055507528
0.0055505865
0.0055504204
0.0055502506
0.0055500697
0.0055498792
0.0055496726
0.0055494542
0.0055492164
0.0055489602
0.0055487149
0.0055483296
0.0051898305
0.0051909245
0.0051909179
0.0051916311
0.0051916776
0.0051920692
0.0051921779
0.0051923831
0.0051924712
0.0051925405
0.0051925326
0.0051925045
0.0051925185
0.0051926053
0.0051928184
0.0051931418
0.0051934785
0.0051937592
0.0051939648
0.0051940886
0.0051941002
0.0051940278
0.0051940492
0.0051941034
0.0051942117
0.0051943885
0.0051945969
0.0051948023
0.0051949573
0.0051950482
0.0051950555
0.0051950004
0.0051949156
0.0051948996
0.005194903
0.0051949216
0.0051949526
0.0051949733
0.005194989
0.0051950317
0.0051951279
0.0051952515
0.0051953351
0.0051953838
0.0051954075
0.0051954247
0.0051954766
0.0051955522
0.0051956531
0.0051957418
0.0051957999
0.0051958309
0.0051958458
0.0051958546
0.0051958624
0.0051958663
0.0051958699
0.0051958736
0.0051958614
0.0048765776
0.0048778688
0.0048779876
0.0048788199
0.0048790974
0.0048796784
0.0048800891
0.0048806035
0.004881059
0.0048814892
0.0048818552
0.004882158
0.0048823598
0.0048824559
0.0048825084
0.0048826147
0.0048828702
0.0048831744
0.0048835088
0.0048838314
0.0048840841
0.0048842388
0.0048842821
0.0048842506
0.0048842721
0.0048843485
0.0048845363
0.0048848071
0.0048851209
0.0048854281
0.0048856803
0.0048858654
0.004885982
0.0048860096
0.0048859572
0.0048859024
0.0048858948
0.004885862
0.0048858638
0.0048859141
0.0048860356
0.004886226
0.0048865062
0.0048868065
0.0048870921
0.0048873698
0.0048876753
0.0048879636
0.0048882246
0.004888354
0.0048885068
0.0048885258
0.0048887234
0.0048887237
0.0048890179
0.0048890007
0.0048893891
0.0048893712
0.0048897989
0.0046031822
0.0046045513
0.0046047902
0.0046056792
0.0046060891
0.004606798
0.0046072985
0.0046079539
0.0046085105
0.0046091105
0.0046096722
0.0046101998
0.0046106445
0.0046109909
0.0046111991
0.0046112786
0.0046113111
0.0046113674
0.0046114755
0.004611654
0.0046119028
0.0046121915
0.004612424
0.0046125664
0.0046126329
0.0046126528
0.0046126797
0.0046127664
0.0046129452
0.0046132137
0.0046135638
0.0046139346
0.0046142636
0.0046145231
0.0046147079
0.0046148165
0.0046148858
0.004614972
0.0046150792
0.0046151341
0.0046151807
0.0046152675
0.0046154329
0.0046156502
0.0046159373
0.00461624
0.0046165832
0.0046168067
0.00461704
0.0046171153
0.0046173507
0.0046174423
0.0046178042
0.004617909
0.0046183615
0.0046184352
0.0046189868
0.0046190277
0.0046197154
0.0043689266
0.0043702791
0.0043705716
0.004371435
0.0043718517
0.0043724662
0.0043728434
0.0043732556
0.0043735657
0.0043738707
0.004374142
0.0043744052
0.0043746831
0.0043749993
0.0043753458
0.0043756186
0.0043758109
0.0043759741
0.0043761536
0.0043763669
0.0043766129
0.0043768967
0.0043772063
0.0043774815
0.0043776981
0.0043778449
0.0043779351
0.0043779812
0.0043780211
0.0043780972
0.0043782242
0.0043784288
0.0043787042
0.004379043
0.0043793899
0.004379713
0.0043800094
0.0043802762
0.0043805038
0.0043806755
0.004380817
0.0043809306
0.0043810376
0.0043811419
0.0043813222
0.0043814874
0.0043816841
0.0043817776
0.0043819783
0.0043820923
0.0043824071
0.0043825609
0.0043829612
0.0043830911
0.0043835636
0.0043836735
0.0043842577
0.0043843163
0.0043850751
0.0041684133
0.0041696613
0.0041699761
0.0041707487
0.004171112
0.004171608
0.0041719129
0.0041722304
0.0041724694
0.0041726921
0.0041728869
0.0041730768
0.004173288
0.0041735346
0.0041738442
0.0041742101
0.004174564
0.0041748951
0.0041752141
0.0041755248
0.004175813
0.0041760948
0.0041763909
0.004176715
0.0041770231
0.0041772896
0.0041775039
0.0041776623
0.0041777679
0.0041778323
0.0041778881
0.0041779493
0.0041780506
0.0041782042
0.004178428
0.0041787007
0.0041789993
0.0041792683
0.0041795415
0.0041797907
0.0041800434
0.0041802341
0.0041804334
0.0041805909
0.0041807972
0.0041809113
0.0041810917
0.0041811925
0.0041814521
0.0041816051
0.0041819482
0.0041820909
0.004182471
0.0041825934
0.0041830457
0.0041831504
0.0041837068
0.0041837583
0.0041844981
0.0039871823
0.0039882768
0.0039886214
0.0039893038
0.0039897189
0.0039902006
0.0039905734
0.0039909747
0.0039913408
0.0039917006
0.0039920369
0.003992357
0.0039926644
0.0039929498
0.0039932144
0.0039934967
0.0039938038
0.0039941114
0.0039943916
0.003994628
0.0039948323
0.0039950216
0.0039952201
0.0039954391
0.0039956963
0.0039959879
0.003996283
0.0039965474
0.0039967694
0.0039969552
0.0039970992
0.003997211
0.0039972929
0.0039973685
0.0039974503
0.0039975554
0.003997687
0.0039978507
0.0039980488
0.0039982462
0.0039984639
0.0039986412
0.0039988657
0.0039990365
0.0039992642
0.0039994167
0.0039996641
0.0039998458
0.0040001477
0.0040003352
0.0040006609
0.0040008293
0.0040011938
0.0040013562
0.00400177
0.0040019153
0.0040024342
0.0040025478
0.004003242
0.0038265637
0.0038273083
0.0038275758
0.0038280396
0.0038282868
0.003828665
0.0038289246
0.0038292502
0.0038295236
0.0038298215
0.0038300974
0.003830366
0.0038305983
0.0038307981
0.0038309593
0.0038310859
0.0038311928
0.0038312938
0.0038313957
0.003831489
0.0038315731
0.0038316413
0.0038317
0.0038317623
0.0038318379
0.0038319431
0.0038320873
0.0038322739
0.0038324852
0.0038326832
0.0038328546
0.0038329962
0.0038331077
0.003833184
0.0038332406
0.0038332921
0.0038333621
0.0038334401
0.0038335484
0.003833642
0.0038337645
0.003833861
0.0038339985
0.0038340862
0.0038342399
0.0038343178
0.0038345013
0.0038345742
0.0038347765
0.0038348242
0.0038350464
0.0038350717
0.0038353319
0.0038353365
0.0038356298
0.0038356386
0.0038359583
0.0038359447
0.0038363262
0.003745463
0.0037459278
0.0037460333
0.0037463308
0.0037466089
0.0037467456
0.0037469713
0.0037470977
0.0037472726
0.0037473911
0.0037475346
0.0037476463
0.0037477796
0.0037478797
0.0037479883
0.0037480698
0.0037481515
0.0037482136
0.0037482815
0.0037483473
0.0037484195
0.0037484799
0.0037485335
0.0037485694
0.0037485874
0.0037485883
0.0037485955
0.0037486207
0.0037486756
0.0037487452
0.003748831
0.0037489252
0.0037490085
0.0037490762
0.0037491193
0.0037491471
0.0037491758
0.0037491946
0.0037492356
0.0037492478
0.0037493022
0.0037493056
0.0037493649
0.0037493706
0.0037494226
0.003749446
0.0037494772
0.0037495168
0.0037495341
0.0037495723
0.0037495964
0.0037496167
0.0037496438
0.00374964
0.0037496603
0.0037496617
0.0037496506
0.0037496278
0.0037496062
0.0036735164
0.0036745635
0.0036754136
0.0036754919
0.0036762088
0.0036763282
0.003676865
0.003677017
0.003677421
0.0036775512
0.0036778943
0.0036780329
0.0036783315
0.0036784948
0.003678766
0.0036789531
0.0036791935
0.0036793787
0.0036796089
0.0036797905
0.0036800266
0.0036802425
0.0036804847
0.0036807031
0.0036809288
0.0036811366
0.0036813281
0.0036815054
0.0036816869
0.0036818824
0.0036820923
0.0036823224
0.0036825695
0.003682829
0.0036830819
0.0036833284
0.0036835732
0.003683822
0.0036840759
0.0036843337
0.0036845948
0.0036848585
0.0036851304
0.0036854073
0.0036856899
0.0036859852
0.0036862852
0.0036865952
0.0036869219
0.0036872568
0.003687612
0.0036879841
0.0036883763
0.003688805
0.0036892499
0.0036897479
0.0036902297
0.0036909201
0.0036916418
0.0033363315
0.0033363026
0.0033373253
0.0033378777
0.0033385591
0.003339175
0.0033397643
0.0033402873
0.0033407775
0.0033412298
0.003341649
0.0033420459
0.0033424035
0.0033427387
0.0033430498
0.0033433333
0.0033436056
0.0033438576
0.0033440912
0.0033443286
0.003344534
0.0033447485
0.0033449486
0.003345137
0.0033453053
0.0033454616
0.003345609
0.0033457472
0.0033458227
0.0033458614
0.0033458802
0.0033458998
0.0033459236
0.0033459706
0.0033460141
0.0033460537
0.0033460801
0.0033460749
0.0033460693
0.0033460515
0.0033460202
0.0033459814
0.0033459284
0.0033458674
0.0033457877
0.0033457075
0.0033456109
0.0033454879
0.0033453515
0.0033451856
0.003345005
0.0033448024
0.0033445735
0.0033443338
0.0033440252
0.0033437383
0.0033433306
0.0033430552
0.0033426206
0.0033326885
0.0033293136
0.0033281035
0.0033259877
0.0033245175
0.0033231326
0.0033215953
0.0033204621
0.0033192533
0.0033181878
0.0033171092
0.0033161538
0.0033151725
0.0033142755
0.0033133646
0.0033125489
0.0033116894
0.0033109116
0.0033100648
0.0033093193
0.0033085147
0.0033078093
0.0033070473
0.0033063989
0.0033056813
0.0033050715
0.0033043805
0.0033038012
0.0033031728
0.0033026602
0.0033020571
0.0033015387
0.0033009349
0.0033004094
0.0032997994
0.0032992886
0.003298673
0.0032981644
0.0032975576
0.0032970239
0.0032964427
0.0032958792
0.0032952814
0.0032946624
0.0032940205
0.0032933578
0.0032926376
0.0032919742
0.0032911639
0.0032904354
0.0032895366
0.0032886805
0.0032876676
0.0032866413
0.0032854639
0.003284285
0.0032828755
0.0032814711
0.0032794485
0.0050190442
0.005017854
0.0050167201
0.0050157927
0.0050149341
0.0050141582
0.0050133012
0.0050125209
0.0050118705
0.0050112765
0.0050106967
0.0050101571
0.0050096763
0.0050092165
0.0050087778
0.0050083997
0.0050080579
0.0050077533
0.0050074713
0.0050072018
0.0050069348
0.005006674
0.0050064353
0.0050062207
0.005006035
0.005005877
0.0050057358
0.0050056062
0.0050054874
0.0050053785
0.0050052856
0.0050052149
0.0050051644
0.0050051356
0.0050051249
0.0050051237
0.0050051513
0.0050051948
0.0050052541
0.0050053242
0.0050053978
0.0050054745
0.0050055625
0.0050056705
0.0050058045
0.0050059641
0.0050061404
0.005006328
0.0050065438
0.0050067853
0.0050070673
0.0050073644
0.005007725
0.0050080839
0.0050085769
0.0050089482
0.0050095599
0.0050099318
0.0050105059
0.003175947
0.0031796641
0.0031795359
0.0031824111
0.0031824008
0.003184232
0.0031848422
0.0031862097
0.0031865913
0.003187762
0.0031881326
0.0031891133
0.0031894759
0.0031902945
0.0031907062
0.0031913027
0.0031917065
0.0031922161
0.0031926301
0.0031930804
0.0031934738
0.0031938691
0.003194193
0.0031945174
0.0031947824
0.0031950397
0.0031952582
0.003195477
0.0031956609
0.0031958436
0.0031959959
0.0031961464
0.0031962669
0.0031963827
0.0031964696
0.0031965472
0.0031965985
0.0031966339
0.0031966493
0.0031966448
0.0031966317
0.0031966143
0.0031965945
0.0031965671
0.0031965293
0.0031964726
0.0031963896
0.0031962946
0.0031961855
0.0031960499
0.0031959006
0.0031957118
0.0031955138
0.0031952465
0.0031949817
0.003194576
0.0031942303
0.0031936002
0.0031931613
0.020742254
0.020747777
0.020754767
0.020760922
0.020767345
0.020773568
0.020779752
0.020785853
0.020791874
0.020797816
0.020803675
0.02080945
0.020815138
0.020820737
0.020826245
0.020831659
0.020836976
0.020842193
0.020847306
0.02085231
0.020857202
0.020861977
0.020866629
0.020871153
0.020875546
0.020879803
0.020883921
0.020887896
0.020891727
0.020895413
0.020898952
0.020902345
0.020905591
0.020908693
0.020911651
0.020914469
0.020917147
0.020919688
0.020922092
0.020924361
0.020926497
0.020928502
0.020930378
0.020932127
0.020933749
0.020935248
0.020936624
0.020937878
0.020939013
0.020940028
0.020940925
0.020941705
0.020942367
0.020942911
0.02094335
0.020943666
0.020943883
0.020943997
0.020944012
0.019029626
0.01903444
0.019040281
0.019045573
0.019050953
0.019056198
0.019061368
0.019066455
0.019071457
0.019076374
0.019081206
0.019085952
0.019090611
0.019095182
0.019099665
0.019104059
0.019108362
0.019112574
0.019116693
0.019120719
0.01912465
0.019128486
0.019132226
0.019135868
0.019139412
0.019142857
0.019146202
0.019149446
0.019152588
0.019155628
0.019158565
0.019161398
0.019164128
0.019166752
0.019169271
0.019171685
0.019173993
0.019176196
0.019178292
0.019180282
0.019182166
0.019183944
0.019185616
0.019187183
0.019188644
0.019190001
0.019191253
0.019192402
0.019193448
0.019194391
0.019195232
0.019195971
0.019196606
0.019197142
0.019197582
0.019197897
0.01919813
0.019198275
0.019198314
0.017430798
0.017434892
0.017439714
0.017444138
0.017448575
0.017452909
0.017457162
0.017461338
0.017465434
0.017469454
0.017473396
0.017477261
0.01748105
0.017484763
0.017488399
0.017491958
0.01749544
0.017498845
0.017502173
0.017505422
0.017508593
0.017511685
0.017514697
0.01751763
0.017520481
0.017523252
0.017525941
0.017528548
0.017531074
0.017533516
0.017535876
0.017538152
0.017540346
0.017542455
0.017544481
0.017546422
0.01754828
0.017550054
0.017551744
0.01755335
0.017554872
0.017556311
0.017557666
0.017558938
0.017560126
0.017561232
0.017562256
0.017563197
0.017564056
0.017564833
0.017565529
0.017566142
0.017566671
0.017567126
0.017567486
0.017567756
0.01756795
0.017568072
0.017568103
0.015932461
0.015935994
0.015939963
0.015943683
0.015947349
0.015950938
0.015954443
0.015957877
0.015961236
0.015964525
0.015967743
0.015970894
0.015973976
0.015976992
0.015979941
0.015982825
0.015985643
0.015988396
0.015991084
0.015993708
0.015996266
0.015998759
0.016001188
0.016003551
0.016005849
0.016008082
0.016010249
0.016012351
0.016014388
0.016016358
0.016018263
0.016020102
0.016021874
0.016023581
0.016025221
0.016026795
0.016028303
0.016029745
0.01603112
0.016032429
0.016033672
0.016034849
0.016035959
0.016037004
0.016037982
0.016038895
0.016039741
0.016040522
0.016041237
0.016041886
0.01604247
0.016042984
0.016043434
0.01604382
0.016044112
0.016044345
0.016044511
0.016044617
0.016044644
0.014538032
0.014541078
0.014544314
0.014547421
0.014550432
0.014553381
0.01455625
0.014559052
0.014561787
0.014564457
0.014567065
0.014569611
0.014572099
0.014574528
0.014576901
0.014579217
0.014581478
0.014583684
0.014585836
0.014587935
0.01458998
0.014591972
0.014593911
0.014595798
0.014597632
0.014599414
0.014601144
0.014602822
0.014604448
0.014606022
0.014607544
0.014609014
0.014610432
0.014611798
0.014613113
0.014614375
0.014615586
0.014616745
0.014617852
0.014618908
0.014619911
0.014620863
0.014621763
0.014622611
0.014623407
0.014624151
0.014624843
0.014625483
0.01462607
0.014626605
0.014627086
0.014627513
0.014627892
0.014628204
0.014628451
0.014628645
0.014628786
0.014628877
0.0146289
0.01324122
0.013243877
0.013246511
0.013249103
0.013251583
0.013254006
0.013256355
0.013258642
0.013260868
0.013263035
0.013265147
0.013267205
0.01326921
0.013271166
0.013273072
0.01327493
0.013276742
0.013278508
0.013280228
0.013281904
0.013283537
0.013285126
0.013286672
0.013288176
0.013289638
0.013291058
0.013292436
0.013293773
0.013295069
0.013296324
0.013297539
0.013298713
0.013299846
0.013300939
0.013301992
0.013303004
0.013303976
0.013304908
0.013305799
0.01330665
0.013307461
0.013308232
0.013308962
0.013309652
0.013310302
0.013310911
0.013311479
0.013312005
0.013312491
0.013312934
0.013313334
0.013313695
0.013314013
0.013314266
0.013314476
0.013314642
0.013314761
0.013314839
0.013314859
0.012040555
0.012042863
0.012045012
0.012047158
0.012049196
0.012051179
0.012053096
0.012054954
0.012056758
0.012058508
0.01206021
0.012061863
0.012063472
0.012065036
0.012066559
0.012068041
0.012069483
0.012070887
0.012072253
0.012073583
0.012074877
0.012076136
0.012077359
0.012078549
0.012079706
0.012080828
0.012081919
0.012082976
0.012084001
0.012084995
0.012085956
0.012086886
0.012087784
0.012088651
0.012089487
0.012090292
0.012091066
0.012091808
0.01209252
0.0120932
0.01209385
0.012094468
0.012095055
0.012095611
0.012096135
0.012096628
0.012097089
0.012097517
0.012097913
0.012098275
0.012098605
0.012098905
0.012099152
0.012099365
0.01209954
0.012099678
0.012099778
0.012099844
0.012099861
0.010931773
0.010933741
0.010935506
0.010937275
0.010938949
0.01094057
0.010942132
0.010943642
0.010945102
0.010946515
0.010947885
0.010949213
0.010950502
0.010951753
0.010952968
0.010954149
0.010955296
0.010956412
0.010957496
0.010958551
0.010959576
0.010960572
0.010961541
0.010962482
0.010963396
0.010964284
0.010965147
0.010965983
0.010966795
0.010967582
0.010968344
0.010969082
0.010969795
0.010970485
0.010971151
0.010971792
0.01097241
0.010973005
0.010973575
0.010974122
0.010974646
0.010975145
0.01097562
0.010976072
0.010976499
0.010976902
0.01097728
0.010977633
0.010977959
0.010978262
0.01097854
0.01097878
0.010978987
0.010979167
0.010979316
0.010979435
0.010979519
0.010979579
0.010979592
0.0099112987
0.0099129654
0.0099144177
0.0099158692
0.0099172387
0.0099185583
0.0099198257
0.0099210455
0.0099222214
0.0099233561
0.0099244524
0.0099255126
0.0099265386
0.0099275323
0.0099284954
0.0099294293
0.0099303353
0.0099312145
0.009932068
0.0099328968
0.0099337017
0.0099344834
0.0099352426
0.00993598
0.0099366961
0.0099373914
0.0099380664
0.0099387216
0.0099393572
0.0099399736
0.009940571
0.0099411499
0.0099417103
0.0099422523
0.0099427762
0.0099432821
0.0099437699
0.0099442399
0.009944692
0.0099451262
0.0099455424
0.0099459406
0.0099463206
0.0099466824
0.0099470256
0.00994735
0.0099476554
0.0099479411
0.0099482087
0.009948458
0.009948677
0.0099488714
0.009949044
0.0099491933
0.0099493175
0.0099494181
0.0099494871
0.0099495398
0.0099495504
0.0089757665
0.0089771678
0.0089783704
0.0089795629
0.0089806857
0.0089817613
0.0089827908
0.0089837777
0.0089847255
0.0089856371
0.0089865149
0.0089873613
0.0089881782
0.0089889675
0.0089897306
0.0089904691
0.0089911842
0.0089918769
0.0089925485
0.0089931997
0.0089938314
0.0089944444
0.0089950394
0.008995617
0.0089961778
0.0089967223
0.0089972511
0.0089977645
0.0089982628
0.0089987464
0.0089992155
0.0089996704
0.0090001112
0.0090005382
0.0090009515
0.0090013512
0.0090017375
0.0090021104
0.0090024699
0.009002816
0.0090031486
0.0090034676
0.0090037729
0.0090040644
0.0090043418
0.009004605
0.0090048543
0.0090050898
0.0090053094
0.0090055041
0.0090056823
0.0090058438
0.009005988
0.0090061137
0.0090062182
0.0090063048
0.0090063611
0.0090064097
0.0090064167
0.0081213001
0.0081224691
0.0081234674
0.0081244461
0.0081253675
0.0081262446
0.0081270811
0.0081278797
0.008128644
0.0081293763
0.0081300793
0.0081307549
0.0081314051
0.0081320317
0.0081326361
0.0081332197
0.0081337836
0.008134329
0.0081348568
0.008135368
0.0081358633
0.0081363435
0.0081368093
0.0081372613
0.0081377
0.0081381258
0.0081385392
0.0081389406
0.0081393303
0.0081397087
0.0081400761
0.0081404328
0.008140779
0.0081411151
0.0081414411
0.0081417572
0.0081420633
0.0081423596
0.0081426459
0.0081429222
0.0081431884
0.0081434446
0.0081436905
0.0081439263
0.0081441517
0.0081443675
0.0081445726
0.0081447615
0.0081449328
0.0081450925
0.0081452396
0.0081453737
0.0081454939
0.0081455995
0.0081456868
0.008145762
0.0081458064
0.0081458502
0.008145851
0.0073419672
0.0073429317
0.0073437619
0.0073445594
0.007345311
0.0073460224
0.0073466979
0.0073473398
0.0073479516
0.0073485353
0.0073490934
0.0073496275
0.0073501395
0.0073506311
0.0073511038
0.0073515588
0.0073519974
0.0073524209
0.0073528301
0.0073532259
0.0073536091
0.0073539805
0.0073543408
0.0073546905
0.0073550295
0.0073553579
0.007355676
0.0073559844
0.0073562836
0.0073565743
0.0073568568
0.0073571317
0.007357399
0.0073576591
0.007357912
0.0073581576
0.0073583956
0.007358626
0.0073588487
0.0073590638
0.0073592719
0.007359473
0.0073596675
0.0073598559
0.0073600374
0.0073602084
0.0073603653
0.0073605144
0.0073606542
0.0073607849
0.0073609058
0.0073610167
0.0073611158
0.0073612047
0.0073612768
0.007361344
0.007361378
0.0073614237
0.0073614213
0.0066353551
0.0066361325
0.0066368363
0.0066374952
0.0066381108
0.0066386905
0.0066392381
0.0066397552
0.0066402462
0.0066407121
0.0066411557
0.006641578
0.0066419805
0.0066423648
0.0066427323
0.0066430848
0.0066434239
0.0066437511
0.0066440675
0.0066443736
0.00664467
0.0066449575
0.0066452372
0.006645509
0.0066457724
0.0066460266
0.006646272
0.0066465099
0.0066467419
0.0066469689
0.0066471915
0.0066474102
0.0066476247
0.0066478348
0.0066480402
0.0066482402
0.0066484344
0.0066486225
0.0066488051
0.0066489837
0.0066491577
0.0066493253
0.0066494861
0.0066496404
0.0066497842
0.006649922
0.0066500527
0.0066501767
0.0066502941
0.0066504048
0.0066505078
0.0066506035
0.0066506878
0.0066507669
0.0066508293
0.0066508945
0.0066509208
0.0066509716
0.0066509737
0.0060166771
0.0060172917
0.0060178749
0.0060184423
0.0060189722
0.0060194731
0.006019949
0.0060203985
0.0060208264
0.0060212332
0.0060216224
0.0060219941
0.0060223501
0.0060226896
0.0060230141
0.0060233245
0.0060236226
0.0060239091
0.0060241839
0.0060244462
0.0060246963
0.0060249341
0.0060251603
0.0060253763
0.006025583
0.0060257817
0.0060259741
0.0060261618
0.0060263456
0.0060265241
0.0060266958
0.00602686
0.0060270159
0.0060271637
0.0060273032
0.0060274348
0.0060275595
0.0060276787
0.0060277927
0.006027902
0.0060280055
0.0060281106
0.0060282162
0.0060283175
0.00602841
0.0060284921
0.0060285655
0.0060286341
0.0060287012
0.0060287674
0.0060288267
0.0060288819
0.0060289241
0.0060289684
0.0060289995
0.0060290486
0.006029068
0.0060291359
0.006029151
0.023010557
0.025518826
0.02832087
0.031381427
0.034712363
0.038337964
0.042272169
0.046527166
0.051113571
0.05603907
0.061306157
0.066912751
0.072847803
0.079091453
0.085611271
0.092359602
0.099275324
0.1062725
0.11325088
0.12007876
0.1266063
0.13266554
0.13804463
0.14252192
0.14591675
0.1478665
0.14827796
0.14701511
0.14370832
0.13830175
0.1307926
0.12106956
0.10919625
0.095355089
0.07964084
0.062317352
0.043607086
0.023652236
0.0027873622
-0.018655102
-0.040465867
-0.062447416
-0.084337111
-0.10594837
-0.12710148
-0.14782168
-0.16804396
-0.18749018
-0.20613956
-0.22398679
-0.24100333
-0.25718304
-0.27251365
-0.28692711
-0.30048837
-0.31329433
-0.32534452
-0.33663107
-0.34721963
-0.35716764
-0.36644919
-0.37508886
-0.38313687
-0.39062938
-0.39759816
-0.404075
-0.41009133
-0.41567684
-0.42085878
-0.42566368
-0.43011209
-0.43422531
-0.43802217
-0.44155791
0.023010534
0.02551881
0.028320841
0.031381392
0.034712329
0.038337932
0.042272141
0.046527143
0.051113555
0.056039061
0.061306165
0.066912789
0.072847864
0.079091546
0.085611406
0.092359786
0.099275575
0.10627282
0.11325129
0.12007927
0.12660688
0.13266617
0.13804526
0.14252271
0.14591758
0.14786724
0.14827871
0.14701594
0.14370952
0.13830354
0.13079168
0.12106847
0.10919749
0.095355692
0.079641049
0.062311588
0.043598282
0.023647948
0.0027879821
-0.018654864
-0.040465816
-0.062450644
-0.08434298
-0.1059582
-0.12710707
-0.14781989
-0.16804337
-0.187493
-0.2061443
-0.22399229
-0.24100942
-0.25718968
-0.27252104
-0.28693215
-0.30049131
-0.31329846
-0.32535066
-0.33663779
-0.34722962
-0.35718287
-0.36646513
-0.37510346
-0.38315035
-0.39064215
-0.39761001
-0.40408593
-0.41010185
-0.41568729
-0.42086962
-0.42567559
-0.43012776
-0.43424398
-0.43803949
-0.44157172
0.023010344
0.025518639
0.028320633
0.031381159
0.034712077
0.038337662
0.042271851
0.046526834
0.051113228
0.056038722
0.061305815
0.066912428
0.072847494
0.07909118
0.085611044
0.092359459
0.099275277
0.10627261
0.11325114
0.1200793
0.12660711
0.13266673
0.13804627
0.14252394
0.14591927
0.1478693
0.14828138
0.14701942
0.14371364
0.13830809
0.13079531
0.12107408
0.10920479
0.095362083
0.0796488
0.062319157
0.043603501
0.023654852
0.0027956346
-0.018649046
-0.040461146
-0.062443125
-0.08433465
-0.10595232
-0.12711414
-0.14783205
-0.16804435
-0.18748899
-0.20613956
-0.22398702
-0.24100376
-0.25718805
-0.27252587
-0.28694012
-0.30049453
-0.31329823
-0.32534673
-0.3366256
-0.34720647
-0.35716299
-0.3664509
-0.37509243
-0.3831413
-0.39063457
-0.39760564
-0.40408263
-0.41009893
-0.41568457
-0.42086721
-0.42567501
-0.43012005
-0.43422195
-0.43800805
-0.44154922
0.023009939
0.025518353
0.028320269
0.031380755
0.034711643
0.038337196
0.042271351
0.046526299
0.051112647
0.056038098
0.061305151
0.066911732
0.072846769
0.079090446
0.085610305
0.092358763
0.09927463
0.10627209
0.11325079
0.12007925
0.12660789
0.13266766
0.13804753
0.142526
0.14592235
0.14787315
0.14828643
0.14702606
0.14372165
0.13831771
0.13080502
0.12108582
0.10921896
0.095376628
0.07966555
0.062334674
0.043615684
0.023669376
0.0028132398
-0.018631372
-0.040443281
-0.062423026
-0.084315247
-0.10593613
-0.12710888
-0.14782669
-0.16802669
-0.18747289
-0.20612617
-0.22397496
-0.24099276
-0.25717175
-0.2724982
-0.28691898
-0.30049251
-0.31330239
-0.32535365
-0.33664416
-0.34723948
-0.35718415
-0.3664604
-0.37509795
-0.38314394
-0.39063459
-0.39760037
-0.4040763
-0.4100922
-0.41567882
-0.42086509
-0.42568551
-0.43017017
-0.43427948
-0.43801085
-0.44149579
0.023009367
0.025517935
0.02831974
0.031380161
0.034710991
0.038336478
0.042270562
0.046525437
0.051111713
0.056037097
0.061304089
0.066910611
0.072845605
0.079089256
0.085609112
0.092357632
0.099273582
0.1062712
0.11325008
0.12007891
0.12660792
0.13266873
0.13804932
0.14252908
0.14592701
0.14787907
0.14829432
0.1470366
0.14373444
0.13833305
0.13082126
0.12110527
0.10924217
0.095401059
0.079692757
0.062361594
0.043640531
0.023697537
0.0028445475
-0.01860064
-0.040413226
-0.062391159
-0.084283584
-0.10590689
-0.12708981
-0.14780988
-0.16800134
-0.1874479
-0.20610167
-0.22395016
-0.24096727
-0.25714263
-0.27246647
-0.28689971
-0.30048788
-0.31329216
-0.32534149
-0.33663611
-0.3472211
-0.35715485
-0.36642739
-0.37506671
-0.38311512
-0.39060781
-0.39757724
-0.40405548
-0.4100719
-0.41565705
-0.42083829
-0.42564097
-0.43008388
-0.43418481
-0.43798061
-0.44151396
0.023008661
0.025517371
0.028319044
0.031379379
0.034710129
0.038335528
0.042269517
0.046524291
0.051110459
0.056035731
0.061302617
0.06690903
0.072843933
0.079087512
0.085607323
0.092355877
0.099271904
0.10626976
0.11324899
0.12007835
0.12660819
0.13267007
0.13805184
0.14253338
0.14593362
0.14788763
0.14830585
0.14705211
0.14375334
0.13835586
0.13084643
0.12113512
0.10927714
0.095438475
0.079734189
0.062403799
0.043681188
0.023741786
0.0028923985
-0.018552728
-0.040365316
-0.06234088
-0.084233566
-0.10585999
-0.12705385
-0.14777664
-0.16795846
-0.18740413
-0.20605935
-0.22390889
-0.24092679
-0.25710016
-0.27242002
-0.28685874
-0.30045367
-0.31326365
-0.32531658
-0.3366203
-0.34721192
-0.35713634
-0.36640841
-0.37504832
-0.38309507
-0.39058618
-0.39755358
-0.40402931
-0.41004459
-0.41562873
-0.42080997
-0.42561518
-0.4300696
-0.43418924
-0.43799177
-0.44151104
0.023007829
0.025516649
0.028318171
0.031378396
0.034709041
0.038334321
0.04226818
0.046522815
0.051108835
0.056033953
0.06130069
0.066906952
0.072841723
0.079085196
0.085604936
0.092353523
0.099269638
0.10626779
0.11324741
0.12007747
0.12660826
0.13267164
0.13805512
0.14253915
0.14594269
0.14789947
0.14832196
0.14707391
0.14378001
0.13838822
0.13088298
0.12117823
0.10932733
0.095492898
0.079794207
0.062465936
0.043742884
0.023808161
0.0029633885
-0.018481069
-0.040293554
-0.062267007
-0.084160385
-0.10579029
-0.12699476
-0.14772048
-0.16789384
-0.1873395
-0.20599695
-0.22384754
-0.24086575
-0.25703707
-0.27235429
-0.28680063
-0.30040784
-0.3132243
-0.32527742
-0.33658208
-0.34717218
-0.35708991
-0.36635556
-0.37499271
-0.38303897
-0.3905303
-0.3974986
-0.4039754
-0.40999109
-0.41557462
-0.42075355
-0.4255538
-0.42999953
-0.43411421
-0.43792283
-0.44145418
0.02300686
0.025515759
0.028317111
0.0313772
0.03470771
0.038332838
0.04226653
0.046520984
0.051106809
0.056031723
0.061298255
0.066904309
0.072838891
0.079082204
0.085601829
0.092350423
0.099266636
0.10626511
0.11324524
0.12007622
0.12660831
0.13267351
0.13805944
0.14254679
0.1459548
0.14791542
0.1483438
0.14710371
0.14381664
0.1384329
0.13093429
0.12123865
0.10939743
0.095569611
0.079878666
0.062554476
0.043832605
0.023903842
0.0030647309
-0.018378315
-0.040190253
-0.062161349
-0.084055346
-0.1056889
-0.1269039
-0.14763332
-0.16779936
-0.18724467
-0.20590431
-0.22375622
-0.24077535
-0.25694623
-0.27226279
-0.28671616
-0.30033254
-0.31315356
-0.32520822
-0.33651681
-0.3471109
-0.35702717
-0.36629108
-0.37492966
-0.38297764
-0.39046969
-0.39743815
-0.40391457
-0.40992966
-0.41551282
-0.42069209
-0.42549409
-0.42994398
-0.43406552
-0.43788046
-0.44141146
0.023005754
0.025514697
0.028315856
0.031375777
0.034706119
0.038331056
0.042264539
0.046518763
0.051104339
0.056028987
0.061295251
0.066901027
0.072835351
0.07907844
0.085597893
0.092346465
0.099262762
0.10626163
0.1132424
0.12007453
0.12660834
0.13267574
0.13806498
0.14255668
0.14597073
0.14793657
0.14837292
0.14714358
0.14386586
0.13849326
0.13100457
0.12132142
0.10949333
0.09567536
0.079995097
0.062677674
0.043959233
0.024038249
0.0032063971
-0.018233981
-0.040044628
-0.062013131
-0.08390788
-0.1055455
-0.12677088
-0.14750458
-0.16766454
-0.1871098
-0.20577246
-0.22362663
-0.24064747
-0.256819
-0.2721362
-0.28659644
-0.30022263
-0.31305072
-0.3251092
-0.33642111
-0.34701648
-0.35692973
-0.36619002
-0.37482665
-0.38287336
-0.39036442
-0.39733238
-0.40380873
-0.40982389
-0.41540704
-0.42058598
-0.4253873
-0.42983623
-0.43395722
-0.43777277
-0.44130656
0.02300451
0.025513458
0.028314397
0.031374114
0.034704249
0.038328951
0.042262172
0.04651611
0.051101371
0.056025683
0.061291601
0.066897016
0.072830999
0.07907378
0.085592993
0.092341492
0.099257877
0.10625718
0.11323872
0.1200723
0.12660838
0.13267835
0.13807203
0.14256945
0.1459913
0.14796402
0.14841124
0.14719647
0.14393129
0.13857375
0.13109922
0.12143298
0.10962254
0.095818757
0.08015312
0.062846116
0.044134263
0.02422358
0.0034011152
-0.018034945
-0.039843304