/*--------------------------------*- C++ -*----------------------------------*\
| =========                 |                                                 |
| \\      /  F ield         | OpenFOAM: The Open Source CFD Toolbox           |
|  \\    /   O peration     | Version:  v2006                                 |
|   \\  /    A nd           | Website:  www.openfoam.com                      |
|    \\/     M anipulation  |                                                 |
\*---------------------------------------------------------------------------*/
FoamFile
{
    version     2.0;
    format      ascii;
    class       volScalarField;
    location    "9000";
    object      k;
}
// * * * * * * * * * * * * * * * * * * * * * * * * * * * * * * * * * * * * * //

dimensions      [0 2 -2 0 0 0 0];


internalField   nonuniform List<scalar> 
55713
(
1.5469008e-09
3.9955518e-09
1.3285467e-08
2.0756623e-08
2.4165459e-08
2.5101988e-08
2.5114745e-08
2.4964033e-08
2.486934e-08
2.4836713e-08
2.4832557e-08
2.4834797e-08
2.4836267e-08
2.4836494e-08
2.4836741e-08
2.4837393e-08
2.48382e-08
2.4838675e-08
2.483856e-08
2.483816e-08
2.4837841e-08
2.48378e-08
2.4837642e-08
2.4837328e-08
2.4836972e-08
2.483661e-08
2.4836284e-08
2.4836009e-08
2.4835796e-08
2.4835554e-08
2.4835295e-08
2.4835015e-08
2.4834727e-08
2.4834442e-08
2.4834192e-08
2.4833977e-08
2.4833716e-08
2.4833321e-08
2.4832811e-08
2.4832211e-08
2.4831578e-08
2.4830923e-08
2.4830209e-08
2.4829441e-08
2.4828679e-08
2.4827947e-08
2.482724e-08
2.4826539e-08
2.4825826e-08
2.4825083e-08
2.4824304e-08
2.4823481e-08
2.4822625e-08
2.4821754e-08
2.4820878e-08
2.4820003e-08
2.4819165e-08
2.4818386e-08
2.4817622e-08
1.7175341e-09
5.3333621e-09
1.5765141e-08
2.3003752e-08
2.5853496e-08
2.6446439e-08
2.6351784e-08
2.6202192e-08
2.6129062e-08
2.6109296e-08
2.6108787e-08
2.6110468e-08
2.6110614e-08
2.6109851e-08
2.610958e-08
2.6109831e-08
2.6110145e-08
2.6109986e-08
2.610913e-08
2.6108162e-08
2.6107382e-08
2.610688e-08
2.610619e-08
2.6105364e-08
2.6104498e-08
2.6103641e-08
2.6102834e-08
2.6102095e-08
2.610142e-08
2.6100709e-08
2.6099982e-08
2.609923e-08
2.6098465e-08
2.6097701e-08
2.6096971e-08
2.609631e-08
2.6095614e-08
2.6094739e-08
2.6093724e-08
2.6092601e-08
2.6091429e-08
2.6090242e-08
2.6088988e-08
2.6087646e-08
2.6086276e-08
2.6084925e-08
2.6083587e-08
2.6082238e-08
2.6080851e-08
2.6079409e-08
2.6077894e-08
2.607629e-08
2.6074594e-08
2.6072825e-08
2.6070982e-08
2.6069059e-08
2.6067068e-08
2.6065024e-08
2.6062905e-08
1.9726714e-09
6.9620748e-09
1.8388311e-08
2.5249961e-08
2.7542662e-08
2.7858071e-08
2.7701489e-08
2.7567307e-08
2.7514806e-08
2.7504403e-08
2.7505355e-08
2.7505944e-08
2.7504599e-08
2.7503103e-08
2.7502363e-08
2.7502167e-08
2.7501944e-08
2.7500959e-08
2.7499451e-08
2.7497908e-08
2.7496679e-08
2.7495686e-08
2.7494441e-08
2.749308e-08
2.7491684e-08
2.7490315e-08
2.7489013e-08
2.7487804e-08
2.7486647e-08
2.7485456e-08
2.7484245e-08
2.7483009e-08
2.7481759e-08
2.7480502e-08
2.7479277e-08
2.7478146e-08
2.7477038e-08
2.7475678e-08
2.7474151e-08
2.747249e-08
2.7470764e-08
2.7469034e-08
2.7467238e-08
2.7465318e-08
2.746333e-08
2.7461349e-08
2.7459374e-08
2.7457371e-08
2.7455308e-08
2.7453165e-08
2.7450917e-08
2.7448535e-08
2.7446001e-08
2.7443331e-08
2.7440527e-08
2.7437562e-08
2.7434427e-08
2.7431127e-08
2.7427649e-08
2.3431343e-09
9.0268366e-09
2.1261489e-08
2.7547564e-08
2.928275e-08
2.9376179e-08
2.9192663e-08
2.9082871e-08
2.9048725e-08
2.9044481e-08
2.9045316e-08
2.9044182e-08
2.9041633e-08
2.903961e-08
2.9038447e-08
2.9037745e-08
2.9036832e-08
2.9035079e-08
2.9032923e-08
2.9030812e-08
2.9029157e-08
2.9027645e-08
2.9025835e-08
2.9023922e-08
2.9021987e-08
2.9020102e-08
2.9018303e-08
2.9016625e-08
2.9014978e-08
2.9013306e-08
2.9011604e-08
2.9009885e-08
2.9008141e-08
2.9006389e-08
2.9004662e-08
2.9003045e-08
2.9001544e-08
2.8999717e-08
2.8997674e-08
2.8995466e-08
2.8993175e-08
2.8990893e-08
2.8988562e-08
2.8986073e-08
2.8983464e-08
2.8980846e-08
2.8978228e-08
2.8975568e-08
2.8972827e-08
2.896998e-08
2.8966998e-08
2.896384e-08
2.8960467e-08
2.8956891e-08
2.8953119e-08
2.8949108e-08
2.8944819e-08
2.8940257e-08
2.8935403e-08
2.8692979e-09
1.1579662e-08
2.4340413e-08
2.9881823e-08
3.1098374e-08
3.1033546e-08
3.0852604e-08
3.077066e-08
3.0750767e-08
3.0749695e-08
3.0749118e-08
3.074625e-08
3.0742843e-08
3.0740383e-08
3.0738752e-08
3.0737508e-08
3.0735861e-08
3.0733324e-08
3.0730519e-08
3.0727874e-08
3.0725815e-08
3.0723761e-08
3.0721378e-08
3.0718897e-08
3.0716415e-08
3.0714012e-08
3.0711728e-08
3.0709582e-08
3.0707449e-08
3.0705297e-08
3.0703111e-08
3.070091e-08
3.0698679e-08
3.0696436e-08
3.0694208e-08
3.0692097e-08
3.0690208e-08
3.0687967e-08
3.0685413e-08
3.0682659e-08
3.0679796e-08
3.0676959e-08
3.0674113e-08
3.0671082e-08
3.0667865e-08
3.0664614e-08
3.0661366e-08
3.0658063e-08
3.0654659e-08
3.0651123e-08
3.0647423e-08
3.0643514e-08
3.0639327e-08
3.0634865e-08
3.0630146e-08
3.0625117e-08
3.0619699e-08
3.0613906e-08
3.0607698e-08
3.6128005e-09
1.4690051e-08
2.759919e-08
3.22711e-08
3.3032592e-08
3.2869971e-08
3.2712258e-08
3.2656848e-08
3.2646765e-08
3.2646153e-08
3.264353e-08
3.26394e-08
3.2635318e-08
3.2632469e-08
3.2630351e-08
3.2628534e-08
3.2626091e-08
3.262279e-08
3.261935e-08
3.2616233e-08
3.2613796e-08
3.2611179e-08
3.2608219e-08
3.2605166e-08
3.2602139e-08
3.2599239e-08
3.2596487e-08
3.259388e-08
3.2591273e-08
3.2588655e-08
3.2586001e-08
3.2583332e-08
3.2580633e-08
3.2577916e-08
3.2575202e-08
3.2572599e-08
3.2570324e-08
3.2567767e-08
3.256472e-08
3.2561432e-08
3.2557997e-08
3.2554607e-08
3.2551276e-08
3.2547752e-08
3.2543957e-08
3.2540094e-08
3.2536244e-08
3.2532327e-08
3.2528292e-08
3.25241e-08
3.2519718e-08
3.25151e-08
3.2510151e-08
3.2504846e-08
3.2499219e-08
3.2493229e-08
3.2486733e-08
3.2479769e-08
3.247226e-08
4.6675826e-09
1.8418501e-08
3.097315e-08
3.4754785e-08
3.5134584e-08
3.4928851e-08
3.4806266e-08
3.4772632e-08
3.4768052e-08
3.4766013e-08
3.4761546e-08
3.4756471e-08
3.4751832e-08
3.4748642e-08
3.4746018e-08
3.47436e-08
3.4740322e-08
3.4736296e-08
3.4732251e-08
3.4728774e-08
3.4725986e-08
3.4722792e-08
3.4719257e-08
3.4715638e-08
3.4712091e-08
3.4708734e-08
3.4705548e-08
3.4702507e-08
3.4699445e-08
3.4696392e-08
3.4693299e-08
3.4690195e-08
3.4687063e-08
3.4683905e-08
3.468074e-08
3.4677668e-08
3.4675011e-08
3.4672253e-08
3.4668784e-08
3.4664988e-08
3.4660998e-08
3.4657063e-08
3.4653296e-08
3.4649364e-08
3.464505e-08
3.4640615e-08
3.4636217e-08
3.4631741e-08
3.4627137e-08
3.4622353e-08
3.4617353e-08
3.4612103e-08
3.4606479e-08
3.4600415e-08
3.4593956e-08
3.4587109e-08
3.457963e-08
3.4571606e-08
3.4562901e-08
6.1940327e-09
2.2812231e-08
3.4623995e-08
3.7393068e-08
3.7461958e-08
3.725998e-08
3.7175046e-08
3.7156681e-08
3.7153941e-08
3.7149734e-08
3.7143869e-08
3.7138078e-08
3.7133002e-08
3.7129549e-08
3.7126402e-08
3.7123363e-08
3.711926e-08
3.711456e-08
3.7109974e-08
3.7106288e-08
3.7103174e-08
3.7099414e-08
3.7095321e-08
3.7091157e-08
3.7087154e-08
3.7083401e-08
3.7079841e-08
3.7076408e-08
3.707294e-08
3.7069505e-08
3.7066022e-08
3.7062542e-08
3.7059031e-08
3.7055495e-08
3.7051938e-08
3.7048452e-08
3.7045437e-08
3.7042581e-08
3.7038856e-08
3.7034607e-08
3.7030094e-08
3.7025636e-08
3.70215e-08
3.70173e-08
3.7012564e-08
3.7007633e-08
3.7002776e-08
3.6997829e-08
3.6992761e-08
3.6987493e-08
3.6981984e-08
3.6976222e-08
3.6970063e-08
3.6963388e-08
3.695622e-08
3.6948681e-08
3.6940386e-08
3.6931481e-08
3.6921762e-08
8.5240175e-09
2.789025e-08
3.8328433e-08
4.018432e-08
4.0085304e-08
3.9920164e-08
3.9867142e-08
3.9857841e-08
3.9854278e-08
3.9848073e-08
3.9841315e-08
3.9835007e-08
3.9829624e-08
3.9826019e-08
3.982234e-08
3.9818674e-08
3.9813824e-08
3.9808544e-08
3.9803527e-08
3.9799804e-08
3.979642e-08
3.9792143e-08
3.9787508e-08
3.9782868e-08
3.9778519e-08
3.9774469e-08
3.9770619e-08
3.9766866e-08
3.9763079e-08
3.9759346e-08
3.9755559e-08
3.9751799e-08
3.9748e-08
3.9744185e-08
3.9740332e-08
3.9736531e-08
3.9733202e-08
3.9730348e-08
3.9726667e-08
3.972206e-08
3.9717078e-08
3.9712143e-08
3.9707724e-08
3.9703474e-08
3.9698473e-08
3.9693172e-08
3.9688002e-08
3.9682724e-08
3.9677357e-08
3.967178e-08
3.9665932e-08
3.9659846e-08
3.965336e-08
3.9646316e-08
3.9638636e-08
3.963066e-08
3.9621815e-08
3.9612308e-08
3.9601867e-08
1.2422337e-08
3.3619608e-08
4.2189557e-08
4.3262894e-08
4.3090184e-08
4.2973215e-08
4.2943403e-08
4.293847e-08
4.2932921e-08
4.2925302e-08
4.2918043e-08
4.2911442e-08
4.290593e-08
4.2902338e-08
4.2898115e-08
4.2893886e-08
4.2888468e-08
4.2882733e-08
4.2877444e-08
4.2873934e-08
4.2870386e-08
4.2865654e-08
4.2860515e-08
4.2855551e-08
4.2851024e-08
4.2846829e-08
4.2842803e-08
4.2838858e-08
4.2834887e-08
4.283099e-08
4.2827035e-08
4.2823144e-08
4.2819196e-08
4.2815262e-08
4.2811269e-08
4.2807309e-08
4.2803772e-08
4.2801009e-08
4.2797782e-08
4.2793042e-08
4.2787669e-08
4.2782343e-08
4.2777762e-08
4.2773769e-08
4.2768752e-08
4.2763289e-08
4.2758037e-08
4.275264e-08
4.2747224e-08
4.274161e-08
4.2735689e-08
4.2729563e-08
4.2723056e-08
4.2716017e-08
4.2708145e-08
4.2700101e-08
4.2691134e-08
4.2681434e-08
4.267073e-08
1.8702437e-08
3.9886967e-08
4.6239765e-08
4.6733595e-08
4.656812e-08
4.6498514e-08
4.6482767e-08
4.647892e-08
4.6471434e-08
4.6463148e-08
4.6455845e-08
4.6449205e-08
4.6443827e-08
4.6440489e-08
4.6435707e-08
4.6431195e-08
4.6425379e-08
4.6419399e-08
4.6414108e-08
4.6411208e-08
4.6407656e-08
4.6402468e-08
4.6396966e-08
4.6391958e-08
4.6387501e-08
4.6383372e-08
4.6379352e-08
4.6375417e-08
4.6371471e-08
4.6367616e-08
4.6363714e-08
4.6359901e-08
4.6356027e-08
4.6352214e-08
4.6348317e-08
4.634445e-08
4.6340908e-08
4.633838e-08
4.6336e-08
4.633165e-08
4.6325995e-08
4.6320419e-08
4.6315916e-08
4.6312468e-08
4.6307912e-08
4.6302589e-08
4.6297623e-08
4.6292416e-08
4.6287325e-08
4.628209e-08
4.6276498e-08
4.6270757e-08
4.6264675e-08
4.6258183e-08
4.6250661e-08
4.6243051e-08
4.6234646e-08
4.6225333e-08
4.6215065e-08
2.703935e-08
4.6558813e-08
5.0600055e-08
5.0740869e-08
5.0628808e-08
5.0595175e-08
5.0586158e-08
5.058214e-08
5.0573583e-08
5.0565499e-08
5.0558727e-08
5.0552347e-08
5.0547547e-08
5.0544804e-08
5.0539576e-08
5.0535379e-08
5.052922e-08
5.0523379e-08
5.0518677e-08
5.0516911e-08
5.0513443e-08
5.0507836e-08
5.0502316e-08
5.04977e-08
5.0493661e-08
5.0489884e-08
5.048617e-08
5.0482557e-08
5.0478957e-08
5.0475461e-08
5.0471942e-08
5.0468528e-08
5.0465076e-08
5.0461713e-08
5.0458277e-08
5.0454884e-08
5.0451682e-08
5.0449633e-08
5.0448441e-08
5.0445392e-08
5.0439692e-08
5.043405e-08
5.0430031e-08
5.0427427e-08
5.0424123e-08
5.0419316e-08
5.0415217e-08
5.0410637e-08
5.0406409e-08
5.0402151e-08
5.0397495e-08
5.0392734e-08
5.0387739e-08
5.038249e-08
5.0376245e-08
5.0369704e-08
5.0362915e-08
5.0354776e-08
5.0345988e-08
3.8800011e-08
5.3555219e-08
5.5458454e-08
5.5445779e-08
5.5396117e-08
5.5383651e-08
5.5377421e-08
5.5373049e-08
5.5365382e-08
5.5358676e-08
5.5353146e-08
5.5347776e-08
5.5344111e-08
5.5342403e-08
5.5337151e-08
5.5333993e-08
5.5327918e-08
5.532291e-08
5.5319851e-08
5.5319471e-08
5.5316284e-08
5.531062e-08
5.5305837e-08
5.5302195e-08
5.5299029e-08
5.5296032e-08
5.5293108e-08
5.5290287e-08
5.528752e-08
5.528485e-08
5.5282212e-08
5.5279679e-08
5.5277153e-08
5.5274726e-08
5.5272287e-08
5.5269913e-08
5.5267656e-08
5.5266444e-08
5.526659e-08
5.5265924e-08
5.5260894e-08
5.5255655e-08
5.5252688e-08
5.5251402e-08
5.5250033e-08
5.524638e-08
5.5244009e-08
5.5240704e-08
5.5238076e-08
5.5235513e-08
5.5232678e-08
5.5229672e-08
5.5226701e-08
5.5223534e-08
5.5219808e-08
5.5215244e-08
5.5211394e-08
5.5205698e-08
5.5199819e-08
5.4272424e-08
6.0642467e-08
6.1025449e-08
6.0994551e-08
6.0985353e-08
6.0981052e-08
6.0977867e-08
6.0974728e-08
6.0969554e-08
6.0966122e-08
6.0962829e-08
6.0959604e-08
6.0957557e-08
6.0957062e-08
6.0952858e-08
6.0951591e-08
6.0947174e-08
6.0943882e-08
6.0943509e-08
6.0943992e-08
6.0941946e-08
6.093762e-08
6.0934932e-08
6.0933113e-08
6.0931521e-08
6.0930028e-08
6.0928619e-08
6.0927302e-08
6.0926068e-08
6.0924922e-08
6.0923854e-08
6.0922881e-08
6.0921971e-08
6.0921151e-08
6.0920385e-08
6.09197e-08
6.0919096e-08
6.0919121e-08
6.0920548e-08
6.0922353e-08
6.0919493e-08
6.0916634e-08
6.0915811e-08
6.0916152e-08
6.0916615e-08
6.0915746e-08
6.0915911e-08
6.0915114e-08
6.0914997e-08
6.0914983e-08
6.091495e-08
6.0914771e-08
6.0914819e-08
6.0914753e-08
6.0914666e-08
6.0913811e-08
6.0913915e-08
6.0912743e-08
6.0911708e-08
1.5320433e-08
1.5320162e-08
1.5319931e-08
1.5320433e-08
1.5320789e-08
1.5321221e-08
1.5321649e-08
1.532209e-08
1.5322536e-08
1.5322982e-08
1.5323424e-08
1.5323858e-08
1.5324282e-08
1.5324696e-08
1.5325102e-08
1.5325503e-08
1.5325903e-08
1.5326305e-08
1.5326702e-08
1.5327078e-08
1.532742e-08
1.5327721e-08
1.5327972e-08
1.5328169e-08
1.5328319e-08
1.5328431e-08
1.5328511e-08
1.5328569e-08
1.532861e-08
1.5328639e-08
1.5328662e-08
1.5328683e-08
1.5328695e-08
1.532869e-08
1.5328661e-08
1.5328607e-08
1.5328523e-08
1.5328388e-08
1.5328154e-08
1.5327764e-08
1.5327173e-08
1.5326275e-08
1.5324925e-08
1.5323508e-08
1.5324408e-08
1.5333696e-08
1.5360561e-08
1.5410058e-08
1.54648e-08
1.5455568e-08
1.5230386e-08
1.4543705e-08
1.3097783e-08
1.0675831e-08
7.3833913e-09
3.90403e-09
1.5686512e-09
1.2932219e-09
8.2043319e-09
1.5583202e-08
1.558298e-08
1.5583037e-08
1.5583484e-08
1.5583884e-08
1.5584316e-08
1.5584755e-08
1.5585203e-08
1.5585655e-08
1.5586106e-08
1.5586551e-08
1.5586987e-08
1.5587413e-08
1.5587829e-08
1.5588237e-08
1.5588641e-08
1.5589045e-08
1.5589453e-08
1.5589854e-08
1.5590233e-08
1.5590576e-08
1.5590876e-08
1.5591126e-08
1.5591323e-08
1.5591472e-08
1.5591583e-08
1.5591662e-08
1.5591718e-08
1.5591757e-08
1.5591784e-08
1.5591806e-08
1.5591826e-08
1.5591839e-08
1.5591835e-08
1.5591807e-08
1.5591752e-08
1.5591665e-08
1.5591526e-08
1.5591288e-08
1.5590884e-08
1.5590261e-08
1.5589334e-08
1.5588023e-08
1.5586763e-08
1.5587795e-08
1.5596724e-08
1.5622188e-08
1.5669638e-08
1.5724693e-08
1.5724911e-08
1.552739e-08
1.4892102e-08
1.3513441e-08
1.114194e-08
7.8305863e-09
4.2284049e-09
1.6629746e-09
1.1746953e-09
6.9902271e-09
1.5876019e-08
1.5875848e-08
1.5876015e-08
1.5876449e-08
1.587687e-08
1.5877311e-08
1.5877761e-08
1.5878219e-08
1.587868e-08
1.5879138e-08
1.5879589e-08
1.5880031e-08
1.5880461e-08
1.5880881e-08
1.5881293e-08
1.5881701e-08
1.588211e-08
1.5882523e-08
1.588293e-08
1.5883312e-08
1.5883656e-08
1.5883958e-08
1.5884209e-08
1.5884406e-08
1.5884556e-08
1.5884668e-08
1.5884748e-08
1.5884804e-08
1.5884844e-08
1.588487e-08
1.588489e-08
1.588491e-08
1.5884926e-08
1.5884926e-08
1.5884903e-08
1.5884851e-08
1.5884767e-08
1.5884639e-08
1.5884418e-08
1.5884041e-08
1.5883462e-08
1.5882614e-08
1.5881367e-08
1.5879881e-08
1.5879801e-08
1.5886027e-08
1.5907295e-08
1.5951672e-08
1.6011797e-08
1.6036958e-08
1.5897055e-08
1.535676e-08
1.4093399e-08
1.1806693e-08
8.4726316e-09
4.6894569e-09
1.8054406e-09
1.0792403e-09
5.8829353e-09
1.6203514e-08
1.6203409e-08
1.6203687e-08
1.6204113e-08
1.6204553e-08
1.6205002e-08
1.6205463e-08
1.620593e-08
1.6206398e-08
1.6206862e-08
1.6207319e-08
1.6207764e-08
1.6208198e-08
1.620862e-08
1.6209035e-08
1.6209446e-08
1.620986e-08
1.6210278e-08
1.6210689e-08
1.6211073e-08
1.6211419e-08
1.6211721e-08
1.6211971e-08
1.6212168e-08
1.6212318e-08
1.6212429e-08
1.6212508e-08
1.6212564e-08
1.6212603e-08
1.6212628e-08
1.6212647e-08
1.6212667e-08
1.6212685e-08
1.621269e-08
1.621267e-08
1.6212621e-08
1.621254e-08
1.6212419e-08
1.6212212e-08
1.6211851e-08
1.6211293e-08
1.6210495e-08
1.6209336e-08
1.6207838e-08
1.6207178e-08
1.6211475e-08
1.6228989e-08
1.6269194e-08
1.6330276e-08
1.6372601e-08
1.6280426e-08
1.5827694e-08
1.4681241e-08
1.2493836e-08
9.1573149e-09
5.2011168e-09
1.9965139e-09
1.0155979e-09
4.9719501e-09
1.6570998e-08
1.6570979e-08
1.6571332e-08
1.6571759e-08
1.6572211e-08
1.657267e-08
1.657314e-08
1.6573615e-08
1.6574089e-08
1.6574559e-08
1.657502e-08
1.6575468e-08
1.6575904e-08
1.6576328e-08
1.6576744e-08
1.6577158e-08
1.6577576e-08
1.6577999e-08
1.6578413e-08
1.6578799e-08
1.6579144e-08
1.6579446e-08
1.6579695e-08
1.657989e-08
1.6580038e-08
1.6580148e-08
1.6580225e-08
1.6580281e-08
1.6580319e-08
1.6580344e-08
1.6580361e-08
1.6580381e-08
1.6580401e-08
1.6580412e-08
1.6580397e-08
1.6580351e-08
1.6580274e-08
1.6580162e-08
1.6579973e-08
1.6579634e-08
1.65791e-08
1.6578352e-08
1.6577283e-08
1.6575799e-08
1.6574629e-08
1.6577065e-08
1.659069e-08
1.6625993e-08
1.6686347e-08
1.6743484e-08
1.66978e-08
1.6335997e-08
1.5318345e-08
1.3251438e-08
9.9322369e-09
5.7961038e-09
2.2433249e-09
9.7988956e-10
4.1795379e-09
1.6984961e-08
1.6985041e-08
1.6985449e-08
1.6985884e-08
1.6986345e-08
1.6986814e-08
1.6987291e-08
1.6987773e-08
1.6988253e-08
1.6988726e-08
1.6989189e-08
1.6989639e-08
1.6990074e-08
1.6990498e-08
1.6990914e-08
1.6991329e-08
1.6991749e-08
1.6992176e-08
1.6992591e-08
1.6992976e-08
1.6993321e-08
1.699362e-08
1.6993866e-08
1.6994058e-08
1.6994202e-08
1.6994309e-08
1.6994384e-08
1.6994438e-08
1.6994476e-08
1.69945e-08
1.6994516e-08
1.6994535e-08
1.6994559e-08
1.6994575e-08
1.6994568e-08
1.6994527e-08
1.6994453e-08
1.699435e-08
1.6994182e-08
1.6993868e-08
1.6993357e-08
1.6992649e-08
1.6991675e-08
1.6990276e-08
1.6988799e-08
1.6989694e-08
1.6999586e-08
1.7029303e-08
1.708652e-08
1.715401e-08
1.7149821e-08
1.6877646e-08
1.5997187e-08
1.4072904e-08
1.0798856e-08
6.4876128e-09
2.5527053e-09
9.749191e-10
3.5262944e-09
1.7453332e-08
1.7453509e-08
1.7453947e-08
1.7454391e-08
1.7454859e-08
1.7455336e-08
1.745582e-08
1.7456306e-08
1.7456787e-08
1.7457262e-08
1.7457724e-08
1.7458172e-08
1.7458604e-08
1.7459025e-08
1.7459438e-08
1.7459852e-08
1.7460272e-08
1.7460699e-08
1.7461114e-08
1.7461496e-08
1.7461836e-08
1.7462132e-08
1.7462372e-08
1.7462559e-08
1.7462698e-08
1.7462798e-08
1.746287e-08
1.7462923e-08
1.746296e-08
1.7462983e-08
1.7462997e-08
1.7463016e-08
1.7463043e-08
1.7463067e-08
1.7463068e-08
1.7463034e-08
1.7462965e-08
1.7462872e-08
1.7462727e-08
1.7462445e-08
1.7461959e-08
1.7461284e-08
1.7460397e-08
1.7459122e-08
1.7457507e-08
1.7457187e-08
1.746363e-08
1.7487374e-08
1.7539377e-08
1.7612768e-08
1.7644324e-08
1.7459007e-08
1.6722952e-08
1.4964546e-08
1.1769738e-08
7.2993407e-09
2.9442195e-09
1.0085526e-09
2.9817158e-09
1.7985865e-08
1.7986126e-08
1.7986576e-08
1.7987031e-08
1.7987504e-08
1.7987987e-08
1.7988473e-08
1.798896e-08
1.798944e-08
1.7989911e-08
1.7990367e-08
1.7990807e-08
1.7991231e-08
1.7991644e-08
1.799205e-08
1.7992458e-08
1.7992876e-08
1.79933e-08
1.799371e-08
1.7994086e-08
1.7994419e-08
1.7994707e-08
1.799494e-08
1.7995117e-08
1.7995247e-08
1.7995339e-08
1.7995405e-08
1.7995455e-08
1.7995492e-08
1.7995514e-08
1.7995527e-08
1.7995546e-08
1.7995576e-08
1.7995608e-08
1.7995624e-08
1.7995598e-08
1.7995535e-08
1.7995452e-08
1.7995335e-08
1.7995093e-08
1.7994639e-08
1.799399e-08
1.7993176e-08
1.7992052e-08
1.7990458e-08
1.7989294e-08
1.7992739e-08
1.8010414e-08
1.805536e-08
1.8129876e-08
1.8189932e-08
1.8085927e-08
1.7498919e-08
1.5929419e-08
1.2854538e-08
8.2514659e-09
3.4381825e-09
1.0680031e-09
2.5308363e-09
1.8594714e-08
1.8595031e-08
1.8595489e-08
1.8595951e-08
1.8596426e-08
1.859691e-08
1.8597394e-08
1.8597875e-08
1.8598347e-08
1.8598808e-08
1.8599251e-08
1.8599676e-08
1.8600085e-08
1.8600483e-08
1.8600877e-08
1.8601275e-08
1.8601684e-08
1.8602101e-08
1.8602501e-08
1.8602865e-08
1.8603186e-08
1.8603463e-08
1.8603683e-08
1.8603847e-08
1.8603964e-08
1.8604043e-08
1.8604101e-08
1.8604148e-08
1.8604183e-08
1.8604204e-08
1.8604215e-08
1.8604234e-08
1.860427e-08
1.8604312e-08
1.8604344e-08
1.8604333e-08
1.8604279e-08
1.8604207e-08
1.860412e-08
1.860393e-08
1.8603519e-08
1.8602895e-08
1.8602135e-08
1.8601164e-08
1.8599719e-08
1.8598089e-08
1.859913e-08
1.8611007e-08
1.8647531e-08
1.8718494e-08
1.8798683e-08
1.8767513e-08
1.8330101e-08
1.6971483e-08
1.4063646e-08
9.3687367e-09
4.0616612e-09
1.1733574e-09
2.1625507e-09
1.9295219e-08
1.9295558e-08
1.9296017e-08
1.9296481e-08
1.9296952e-08
1.9297429e-08
1.9297902e-08
1.9298369e-08
1.9298823e-08
1.9299264e-08
1.9299684e-08
1.9300085e-08
1.9300468e-08
1.9300843e-08
1.9301216e-08
1.9301596e-08
1.9301989e-08
1.9302392e-08
1.9302773e-08
1.9303117e-08
1.9303421e-08
1.930368e-08
1.9303881e-08
1.9304026e-08
1.9304121e-08
1.9304183e-08
1.930423e-08
1.9304272e-08
1.9304304e-08
1.9304324e-08
1.9304334e-08
1.9304354e-08
1.9304395e-08
1.9304451e-08
1.9304503e-08
1.9304519e-08
1.9304475e-08
1.9304415e-08
1.9304362e-08
1.9304239e-08
1.9303889e-08
1.9303296e-08
1.930257e-08
1.9301734e-08
1.9300521e-08
1.9298782e-08
1.9298119e-08
1.9304848e-08
1.9332226e-08
1.9395371e-08
1.9486475e-08
1.9516629e-08
1.9224658e-08
1.8095253e-08
1.5406702e-08
1.067906e-08
4.8544145e-09
1.3271995e-09
1.86877e-09
2.0106942e-08
2.0107287e-08
2.0107741e-08
2.0108197e-08
2.0108656e-08
2.0109115e-08
2.0109566e-08
2.0110007e-08
2.0110431e-08
2.0110837e-08
2.0111221e-08
2.0111582e-08
2.0111927e-08
2.0112265e-08
2.0112606e-08
2.0112956e-08
2.0113324e-08
2.01137e-08
2.0114052e-08
2.0114365e-08
2.0114641e-08
2.0114873e-08
2.0115047e-08
2.0115163e-08
2.0115228e-08
2.0115263e-08
2.0115296e-08
2.011533e-08
2.0115359e-08
2.0115376e-08
2.0115387e-08
2.0115408e-08
2.0115459e-08
2.0115532e-08
2.0115608e-08
2.0115663e-08
2.0115641e-08
2.0115592e-08
2.0115576e-08
2.011554e-08
2.0115277e-08
2.0114733e-08
2.0114031e-08
2.011329e-08
2.0112342e-08
2.0110786e-08
2.0109166e-08
2.0111752e-08
2.0130047e-08
2.0181974e-08
2.0274507e-08
2.0351463e-08
2.0194976e-08
1.9307727e-08
1.6892845e-08
1.2212189e-08
5.8694372e-09
1.5393938e-09
1.647605e-09
2.1055156e-08
2.1055505e-08
2.1055945e-08
2.1056382e-08
2.1056815e-08
2.1057244e-08
2.1057658e-08
2.1058056e-08
2.1058432e-08
2.1058786e-08
2.1059113e-08
2.1059416e-08
2.1059702e-08
2.1059987e-08
2.1060278e-08
2.1060584e-08
2.1060911e-08
2.1061244e-08
2.1061549e-08
2.1061817e-08
2.1062052e-08
2.1062244e-08
2.1062378e-08
2.1062453e-08
2.1062472e-08
2.1062469e-08
2.1062483e-08
2.1062508e-08
2.1062531e-08
2.1062546e-08
2.1062557e-08
2.1062581e-08
2.1062645e-08
2.1062743e-08
2.1062853e-08
2.1062951e-08
2.1062978e-08
2.1062939e-08
2.1062962e-08
2.1063041e-08
2.1062893e-08
2.1062436e-08
2.1061759e-08
2.1061071e-08
2.1060359e-08
2.1059182e-08
2.1057314e-08
2.1057028e-08
2.1067154e-08
2.1105767e-08
2.119081e-08
2.1297619e-08
2.1259952e-08
2.0620605e-08
1.8531222e-08
1.3998114e-08
7.17685e-09
1.828184e-09
1.510624e-09
2.2172489e-08
2.2172862e-08
2.2173282e-08
2.2173687e-08
2.2174085e-08
2.2174468e-08
2.2174828e-08
2.2175166e-08
2.2175475e-08
2.2175755e-08
2.2176002e-08
2.2176223e-08
2.217643e-08
2.2176639e-08
2.2176863e-08
2.2177108e-08
2.2177377e-08
2.2177646e-08
2.2177883e-08
2.217809e-08
2.217827e-08
2.2178405e-08
2.2178485e-08
2.21785e-08
2.217845e-08
2.2178398e-08
2.2178389e-08
2.2178403e-08
2.2178419e-08
2.2178432e-08
2.2178447e-08
2.2178474e-08
2.2178557e-08
2.2178688e-08
2.2178844e-08
2.2178998e-08
2.2179104e-08
2.2179091e-08
2.2179143e-08
2.2179349e-08
2.2179368e-08
2.2179051e-08
2.2178427e-08
2.2177747e-08
2.2177196e-08
2.2176468e-08
2.2174929e-08
2.2173148e-08
2.2176807e-08
2.2201662e-08
2.2271859e-08
2.239034e-08
2.2447724e-08
2.2049559e-08
2.0333078e-08
1.6065592e-08
8.8608175e-09
2.2689561e-09
1.4495406e-09
2.3499556e-08
2.3499984e-08
2.3500379e-08
2.3500755e-08
2.3501117e-08
2.3501453e-08
2.3501756e-08
2.3502029e-08
2.3502264e-08
2.3502458e-08
2.3502615e-08
2.3502743e-08
2.3502858e-08
2.3502984e-08
2.3503132e-08
2.3503315e-08
2.3503522e-08
2.3503714e-08
2.350387e-08
2.350401e-08
2.3504132e-08
2.3504204e-08
2.3504216e-08
2.3504135e-08
2.3504009e-08
2.350392e-08
2.3503884e-08
2.3503883e-08
2.3503894e-08
2.3503908e-08
2.3503933e-08
2.3503966e-08
2.3504076e-08
2.350425e-08
2.3504467e-08
2.3504694e-08
2.3504891e-08
2.3504948e-08
2.3505007e-08
2.3505308e-08
2.350558e-08
2.3505461e-08
2.3504936e-08
2.3504235e-08
2.3503726e-08
2.3503377e-08
2.3502525e-08
2.3500517e-08
2.3499947e-08
2.3512357e-08
2.3562893e-08
2.367526e-08
2.3798107e-08
2.3622332e-08
2.2315248e-08
1.8444814e-08
1.0998894e-08
2.9810679e-09
1.4460736e-09
9.9014297e-09
1.1977743e-08
1.4194288e-08
1.6654187e-08
1.9443313e-08
2.2618979e-08
2.6217068e-08
3.0261109e-08
3.4767674e-08
3.9745881e-08
4.5193401e-08
5.1090189e-08
5.7392549e-08
6.4024678e-08
7.0870289e-08
7.7763457e-08
8.4479839e-08
9.0731619e-08
9.616558e-08
1.0036072e-07
1.028779e-07
1.0330974e-07
1.0129213e-07
9.653639e-08
8.8761749e-08
7.7972896e-08
6.4785974e-08
4.9109814e-08
3.3093911e-08
1.8220604e-08
6.1123968e-09
3.4721134e-10
2.4473173e-09
1.2035205e-08
3.2618035e-08
6.9502545e-08
1.2116883e-07
1.7774778e-07
2.4188682e-07
3.1551543e-07
3.9840137e-07
4.8887397e-07
5.8791572e-07
6.8960112e-07
7.9355021e-07
8.9871692e-07
1.0030814e-06
1.1043538e-06
1.2017059e-06
1.2950333e-06
1.3842727e-06
1.4694545e-06
1.5501587e-06
1.6258596e-06
1.6968802e-06
1.763876e-06
1.8270059e-06
1.8862711e-06
1.9420245e-06
1.9944965e-06
2.0435853e-06
2.0892679e-06
2.1316858e-06
2.1710295e-06
2.2074913e-06
2.2412602e-06
2.2725229e-06
2.3014544e-06
2.3282202e-06
2.3529637e-06
2.3758118e-06
2.3968431e-06
2.4162463e-06
2.4340582e-06
1.6302109e-09
2.0213447e-09
2.4513222e-09
2.9319647e-09
3.4660806e-09
4.0590198e-09
4.7165503e-09
5.4435498e-09
6.243505e-09
7.1184872e-09
8.0689596e-09
9.0930242e-09
1.0185404e-08
1.1336173e-08
1.2529246e-08
1.3740847e-08
1.4938121e-08
1.6077905e-08
1.7106647e-08
1.7958406e-08
1.8563283e-08
1.8804732e-08
1.8579447e-08
1.7863804e-08
1.6644861e-08
1.4931618e-08
1.2817256e-08
1.0411081e-08
7.8549232e-09
5.404498e-09
3.3729432e-09
1.6052314e-09
7.4997922e-10
1.2942019e-09
3.0378325e-09
6.4831225e-09
1.1890941e-08
1.8603946e-08
2.6428998e-08
3.5410821e-08
4.5567021e-08
5.6806405e-08
6.9194462e-08
8.2308634e-08
9.58226e-08
1.0981631e-07
1.2409784e-07
1.3838874e-07
1.5247684e-07
1.662317e-07
1.7957423e-07
1.9246267e-07
2.0485644e-07
2.1661339e-07
2.2770414e-07
2.3816244e-07
2.4802341e-07
2.5730023e-07
2.6600449e-07
2.7418446e-07
2.8186885e-07
2.8907168e-07
2.9580862e-07
3.0209817e-07
3.0796052e-07
3.1341803e-07
3.1849185e-07
3.2320609e-07
3.2758155e-07
3.3164286e-07
3.3541274e-07
3.3890932e-07
3.4213543e-07
3.4520225e-07
1.4685368e-09
1.4065969e-09
1.3634986e-09
1.3326538e-09
1.3257292e-09
1.35035e-09
1.4106252e-09
1.513457e-09
1.6654555e-09
1.8680064e-09
2.1203713e-09
2.4183972e-09
2.7572764e-09
3.1311094e-09
3.5328867e-09
3.9544741e-09
4.3863391e-09
4.8171749e-09
5.233525e-09
5.6189962e-09
5.9553399e-09
6.2183778e-09
6.3799377e-09
6.4171126e-09
6.3135675e-09
6.0601249e-09
5.6626927e-09
5.1303923e-09
4.4823469e-09
3.7521293e-09
3.0246952e-09
2.3452601e-09
1.7547178e-09
1.2946168e-09
1.2336291e-09
1.4480532e-09
1.9789253e-09
2.7974994e-09
3.9031619e-09
5.2841803e-09
6.9248374e-09
8.8042095e-09
1.0911951e-08
1.321516e-08
1.5673361e-08
1.8262907e-08
2.0953067e-08
2.3709437e-08
2.649807e-08
2.9288531e-08
3.2055144e-08
3.4778309e-08
3.7427906e-08
3.9963307e-08
4.2378542e-08
4.4670432e-08
4.6843226e-08
4.8892425e-08
5.0837595e-08
5.2687616e-08
5.4443579e-08
5.6106395e-08
5.767754e-08
5.9158964e-08
6.0553197e-08
6.1863108e-08
6.3091836e-08
6.4242757e-08
6.5319413e-08
6.6325664e-08
6.726585e-08
6.8144695e-08
6.8963853e-08
6.9731511e-08
3.2219161e-09
2.5909928e-09
2.1224703e-09
1.7969148e-09
1.58943e-09
1.4620292e-09
1.3858028e-09
1.3314114e-09
1.29768e-09
1.2592849e-09
1.2492598e-09
1.2624895e-09
1.3038852e-09
1.3775741e-09
1.4849242e-09
1.6254857e-09
1.7955951e-09
1.9903959e-09
2.203512e-09
2.4269607e-09
2.6484004e-09
2.8531144e-09
3.0318374e-09
3.1757628e-09
3.2760255e-09
3.3251745e-09
3.3178906e-09
3.2553424e-09
3.1417413e-09
2.9767432e-09
2.7677574e-09
2.5308448e-09
2.2804228e-09
2.0107873e-09
1.7806428e-09
1.618697e-09
1.5047064e-09
1.5164558e-09
1.5856834e-09
1.7178355e-09
1.9069615e-09
2.1542041e-09
2.4598382e-09
2.8188854e-09
3.2251882e-09
3.6725127e-09
4.1537303e-09
4.6617005e-09
5.1895256e-09
5.7306338e-09
6.2789876e-09
6.8291469e-09
7.3759016e-09
7.9144609e-09
8.4410555e-09
8.952679e-09
9.4469546e-09
9.9221083e-09
1.037733e-08
1.0812041e-08
1.122593e-08
1.1618983e-08
1.1991394e-08
1.2343501e-08
1.2675763e-08
1.2988729e-08
1.3283022e-08
1.3559324e-08
1.381835e-08
1.4060864e-08
1.4287478e-08
1.4498655e-08
1.4695119e-08
1.4878616e-08
6.341559e-09
5.2061386e-09
4.2337958e-09
3.4337902e-09
2.800214e-09
2.313078e-09
1.9575756e-09
1.7077686e-09
1.5229282e-09
1.4000406e-09
1.3199441e-09
1.2685392e-09
1.2329284e-09
1.2088574e-09
1.1830549e-09
1.17645e-09
1.1848051e-09
1.2115419e-09
1.2585029e-09
1.3267121e-09
1.4217149e-09
1.5374661e-09
1.6667411e-09
1.7979331e-09
1.9200372e-09
2.0275808e-09
2.116427e-09
2.1834494e-09
2.2272403e-09
2.246624e-09
2.240555e-09
2.211368e-09
2.1568403e-09
2.0893513e-09
2.0051537e-09
1.914827e-09
1.8228616e-09
1.7456238e-09
1.6851625e-09
1.646441e-09
1.6130251e-09
1.6084925e-09
1.6164456e-09
1.6358977e-09
1.6664595e-09
1.7074514e-09
1.7579098e-09
1.8166759e-09
1.8825211e-09
1.9541924e-09
2.0304698e-09
2.1101813e-09
2.1921934e-09
2.2754939e-09
2.3592325e-09
2.4426564e-09
2.5250846e-09
2.6059507e-09
2.6848147e-09
2.7612975e-09
2.8350914e-09
2.9059799e-09
2.9738193e-09
3.038523e-09
3.1000497e-09
3.1583978e-09
3.2135956e-09
3.2656975e-09
3.3147785e-09
3.3609298e-09
3.4042523e-09
3.4448588e-09
3.4828756e-09
3.5183846e-09
9.5462562e-09
8.2118607e-09
6.9541815e-09
5.8231066e-09
4.8383857e-09
4.0042874e-09
3.3176841e-09
2.7714343e-09
2.3357518e-09
1.9992458e-09
1.7438498e-09
1.5559637e-09
1.4228319e-09
1.3223839e-09
1.2537133e-09
1.2081569e-09
1.1796564e-09
1.158417e-09
1.1438579e-09
1.1279345e-09
1.1253669e-09
1.1324325e-09
1.1555579e-09
1.1977776e-09
1.2556488e-09
1.3247392e-09
1.4012379e-09
1.4761069e-09
1.544122e-09
1.6029551e-09
1.6514048e-09
1.6888405e-09
1.7154261e-09
1.7308955e-09
1.7360999e-09
1.731937e-09
1.7208707e-09
1.6990147e-09
1.6749888e-09
1.6535906e-09
1.6343309e-09
1.6174962e-09
1.6031163e-09
1.5944387e-09
1.5866322e-09
1.580215e-09
1.5758366e-09
1.5734866e-09
1.5730084e-09
1.574185e-09
1.5769013e-09
1.5808981e-09
1.5858982e-09
1.5916799e-09
1.5980749e-09
1.6049393e-09
1.6121411e-09
1.6195643e-09
1.6271151e-09
1.6347072e-09
1.6422604e-09
1.6497102e-09
1.6570056e-09
1.6641056e-09
1.6709783e-09
1.6775996e-09
1.6839519e-09
1.6900235e-09
1.6958076e-09
1.7013009e-09
1.706501e-09
1.7114086e-09
1.7160351e-09
1.7203754e-09
1.2106807e-08
1.0858684e-08