/*--------------------------------*- C++ -*----------------------------------*\
| =========                 |                                                 |
| \\      /  F ield         | OpenFOAM: The Open Source CFD Toolbox           |
|  \\    /   O peration     | Version:  v2006                                 |
|   \\  /    A nd           | Website:  www.openfoam.com                      |
|    \\/     M anipulation  |                                                 |
\*---------------------------------------------------------------------------*/
FoamFile
{
    version     2.0;
    format      ascii;
    class       volScalarField;
    location    "9000";
    object      nut;
}
// * * * * * * * * * * * * * * * * * * * * * * * * * * * * * * * * * * * * * //

dimensions      [0 2 -1 0 0 0 0];


internalField   nonuniform List<scalar> 
55713
(
2.7384192e-10
2.8770363e-09
2.8912264e-08
6.9335401e-08
8.9619157e-08
9.5669226e-08
9.5899954e-08
9.5048361e-08
9.4487064e-08
9.4282828e-08
9.4250362e-08
9.426163e-08
9.4271498e-08
9.4274484e-08
9.4275551e-08
9.4277716e-08
9.4280547e-08
9.4282239e-08
9.4281847e-08
9.4280503e-08
9.427959e-08
9.4279841e-08
9.4279735e-08
9.4279016e-08
9.4278084e-08
9.4277114e-08
9.4276343e-08
9.4275829e-08
9.4275633e-08
9.4275434e-08
9.4275235e-08
9.4274997e-08
9.4274776e-08
9.4274582e-08
9.4274552e-08
9.427474e-08
9.4274901e-08
9.4274692e-08
9.4274152e-08
9.4273329e-08
9.4272401e-08
9.4271435e-08
9.4270415e-08
9.4269321e-08
9.4268251e-08
9.4267231e-08
9.4266308e-08
9.4265437e-08
9.4264568e-08
9.4263639e-08
9.4262653e-08
9.4261574e-08
9.4260438e-08
9.425928e-08
9.4258162e-08
9.4257069e-08
9.4255978e-08
9.4254819e-08
9.4253545e-08
3.3326331e-10
4.1742924e-09
3.5943086e-08
7.618412e-08
9.3057437e-08
9.6973901e-08
9.6593872e-08
9.5764045e-08
9.5333908e-08
9.5210091e-08
9.5204283e-08
9.5217144e-08
9.5223282e-08
9.5223693e-08
9.5224411e-08
9.522675e-08
9.5229376e-08
9.523028e-08
9.5228725e-08
9.5226907e-08
9.5225898e-08
9.5226005e-08
9.5225464e-08
9.5224357e-08
9.5223009e-08
9.5221674e-08
9.522057e-08
9.5219771e-08
9.5219267e-08
9.5218742e-08
9.5218204e-08
9.5217632e-08
9.5217055e-08
9.52165e-08
9.5216085e-08
9.5215993e-08
9.5215949e-08
9.5215445e-08
9.5214573e-08
9.5213396e-08
9.5212067e-08
9.5210732e-08
9.5209341e-08
9.5207851e-08
9.5206328e-08
9.5204864e-08
9.5203497e-08
9.5202192e-08
9.5200871e-08
9.5199489e-08
9.5198016e-08
9.5196422e-08
9.5194705e-08
9.5192918e-08
9.5191117e-08
9.5189301e-08
9.5187414e-08
9.5185385e-08
9.5183144e-08
4.1794564e-10
5.8714761e-09
4.3436627e-08
8.2298548e-08
9.5732237e-08
9.80392e-08
9.7314632e-08
9.6571741e-08
9.6262821e-08
9.6198735e-08
9.6207224e-08
9.6218437e-08
9.6220333e-08
9.6219375e-08
9.6220123e-08
9.6222669e-08
9.6225012e-08
9.622451e-08
9.6222237e-08
9.6220011e-08
9.6219034e-08
9.6218968e-08
9.6218004e-08
9.6216503e-08
9.6214755e-08
9.6213081e-08
9.6211665e-08
9.6210617e-08
9.6209798e-08
9.6208958e-08
9.6208094e-08
9.6207205e-08
9.6206311e-08
9.6205415e-08
9.620463e-08
9.6204212e-08
9.6204066e-08
9.6203299e-08
9.6202138e-08
9.6200621e-08
9.6198911e-08
9.6197209e-08
9.6195484e-08
9.6193631e-08
9.619169e-08
9.6189802e-08
9.6188027e-08
9.6186321e-08
9.6184593e-08
9.6182798e-08
9.6180894e-08
9.6178837e-08
9.61766e-08
9.6174239e-08
9.6171819e-08
9.6169349e-08
9.6166748e-08
9.6163937e-08
9.6160811e-08
5.4015245e-10
8.1909049e-09
5.1580234e-08
8.7808052e-08
9.7965676e-08
9.8987412e-08
9.8089125e-08
9.7477017e-08
9.7276995e-08
9.7254348e-08
9.7268116e-08
9.7274625e-08
9.727342e-08
9.7272092e-08
9.7273158e-08
9.7275734e-08
9.7277317e-08
9.7275738e-08
9.7272835e-08
9.7270292e-08
9.7269463e-08
9.7269181e-08
9.7267798e-08
9.7265884e-08
9.7263772e-08
9.726179e-08
9.7260116e-08
9.7258865e-08
9.7257749e-08
9.7256627e-08
9.7255455e-08
9.7254282e-08
9.725308e-08
9.7251875e-08
9.7250744e-08
9.724998e-08
9.7249774e-08
9.7248826e-08
9.7247405e-08
9.7245572e-08
9.72435e-08
9.7241453e-08
9.7239435e-08
9.7237272e-08
9.7234954e-08
9.7232671e-08
9.7230518e-08
9.7228446e-08
9.7226349e-08
9.7224182e-08
9.7221889e-08
9.7219422e-08
9.7216719e-08
9.7213834e-08
9.7210843e-08
9.7207776e-08
9.7204523e-08
9.7201004e-08
9.7197065e-08
7.1735772e-10
1.1280672e-08
6.0078332e-08
9.2558469e-08
9.9794142e-08
9.9874769e-08
9.895076e-08
9.8488704e-08
9.8375504e-08
9.8377244e-08
9.8389322e-08
9.8390949e-08
9.8388062e-08
9.8386879e-08
9.8388167e-08
9.8390664e-08
9.8391424e-08
9.8388838e-08
9.838538e-08
9.838268e-08
9.838209e-08
9.8381549e-08
9.8379756e-08
9.8377414e-08
9.8374954e-08
9.8372697e-08
9.8370835e-08
9.8369398e-08
9.8368036e-08
9.8366659e-08
9.8365228e-08
9.8363795e-08
9.8362323e-08
9.8360849e-08
9.8359404e-08
9.8358287e-08
9.8357973e-08
9.8357006e-08
9.8355354e-08
9.835324e-08
9.8350829e-08
9.8348455e-08
9.8346195e-08
9.8343789e-08
9.8341154e-08
9.8338524e-08
9.8336045e-08
9.8333658e-08
9.8331238e-08
9.8328741e-08
9.832611e-08
9.8323294e-08
9.8320201e-08
9.8316866e-08
9.8313376e-08
9.8309793e-08
9.8305976e-08
9.8301853e-08
9.8297204e-08
9.7663358e-10
1.5335399e-08
6.8655606e-08
9.614062e-08
1.013199e-07
1.0076418e-07
9.9924085e-08
9.9609436e-08
9.9558159e-08
9.9570318e-08
9.9577002e-08
9.9575392e-08
9.9571666e-08
9.9570881e-08
9.9572299e-08
9.9574586e-08
9.9574408e-08
9.9570988e-08
9.9567084e-08
9.9564443e-08
9.9564148e-08
9.9563288e-08
9.9561064e-08
9.9558315e-08
9.9555529e-08
9.9553084e-08
9.9551072e-08
9.954948e-08
9.9547893e-08
9.9546302e-08
9.9544655e-08
9.9543005e-08
9.9541312e-08
9.9539613e-08
9.9537906e-08
9.9536457e-08
9.9535936e-08
9.9535178e-08
9.9533339e-08
9.953099e-08
9.9528257e-08
9.952557e-08
9.9523113e-08
9.9520544e-08
9.9517656e-08
9.951474e-08
9.9511996e-08
9.9509351e-08
9.9506665e-08
9.9503893e-08
9.950098e-08
9.9497889e-08
9.9494496e-08
9.94908e-08
9.9486892e-08
9.9482891e-08
9.9478611e-08
9.9474004e-08
9.9468766e-08
1.3604362e-09
2.0567797e-08
7.6912424e-08
9.9022883e-08
1.0256126e-07
1.0169581e-07
1.0102744e-07
1.0083958e-07
1.008264e-07
1.0083834e-07
1.0083995e-07
1.0083639e-07
1.0083242e-07
1.0083214e-07
1.0083355e-07
1.0083546e-07
1.008343e-07
1.0083024e-07
1.0082603e-07
1.0082374e-07
1.0082376e-07
1.008225e-07
1.0081981e-07
1.0081666e-07
1.0081363e-07
1.0081109e-07
1.0080899e-07
1.0080727e-07
1.0080548e-07
1.0080373e-07
1.008019e-07
1.0080009e-07
1.0079823e-07
1.0079635e-07
1.0079445e-07
1.0079272e-07
1.007919e-07
1.0079151e-07
1.0078963e-07
1.0078709e-07
1.0078407e-07
1.0078107e-07
1.0077847e-07
1.0077585e-07
1.0077279e-07
1.0076965e-07
1.0076672e-07
1.0076388e-07
1.0076101e-07
1.0075803e-07
1.0075491e-07
1.0075163e-07
1.0074804e-07
1.007441e-07
1.0073988e-07
1.0073558e-07
1.0073096e-07
1.0072602e-07
1.0072034e-07
1.9413161e-09
2.7203003e-08
8.5013372e-08
1.020453e-07
1.0365737e-07
1.0274017e-07
1.02273e-07
1.0217763e-07
1.0218386e-07
1.021905e-07
1.0218834e-07
1.021837e-07
1.021799e-07
1.0218024e-07
1.0218147e-07
1.0218281e-07
1.0218068e-07
1.0217617e-07
1.0217183e-07
1.0217025e-07
1.0217055e-07
1.0216881e-07
1.0216561e-07
1.0216206e-07
1.0215891e-07
1.0215637e-07
1.0215427e-07
1.0215245e-07
1.0215051e-07
1.0214865e-07
1.021467e-07
1.0214478e-07
1.021428e-07
1.0214082e-07
1.0213878e-07
1.0213684e-07
1.0213572e-07
1.0213565e-07
1.0213407e-07
1.021314e-07
1.0212812e-07
1.0212481e-07
1.0212211e-07
1.0211957e-07
1.0211644e-07
1.0211315e-07
1.0211014e-07
1.0210719e-07
1.0210422e-07
1.0210114e-07
1.020979e-07
1.0209453e-07
1.0209088e-07
1.0208684e-07
1.0208243e-07
1.0207798e-07
1.0207318e-07
1.0206808e-07
1.0206214e-07
2.8653834e-09
3.5453403e-08
9.2218866e-08
1.0433833e-07
1.0476639e-07
1.039596e-07
1.0366316e-07
1.0362669e-07
1.0363665e-07
1.0363804e-07
1.0363385e-07
1.0362887e-07
1.0362548e-07
1.0362656e-07
1.0362741e-07
1.0362791e-07
1.0362491e-07
1.0362016e-07
1.0361598e-07
1.0361538e-07
1.0361589e-07
1.0361364e-07
1.0360982e-07
1.0360594e-07
1.0360283e-07
1.0360041e-07
1.0359839e-07
1.0359652e-07
1.0359451e-07
1.035926e-07
1.0359058e-07
1.0358864e-07
1.0358662e-07
1.0358461e-07
1.0358252e-07
1.0358046e-07
1.0357904e-07
1.0357911e-07
1.0357831e-07
1.0357563e-07
1.0357211e-07
1.0356848e-07
1.0356572e-07
1.0356346e-07
1.0356037e-07
1.0355703e-07
1.0355405e-07
1.0355109e-07
1.0354815e-07
1.0354509e-07
1.0354185e-07
1.0353853e-07
1.0353496e-07
1.0353101e-07
1.0352657e-07
1.0352215e-07
1.0351738e-07
1.0351233e-07
1.0350636e-07
4.467085e-09
4.5471746e-08
9.8584988e-08
1.063329e-07
1.0599231e-07
1.0535847e-07
1.0519546e-07
1.0519163e-07
1.0519801e-07
1.0519545e-07
1.0519021e-07
1.0518538e-07
1.0518262e-07
1.051846e-07
1.0518475e-07
1.051842e-07
1.0518052e-07
1.0517579e-07
1.0517206e-07
1.0517273e-07
1.0517336e-07
1.0517051e-07
1.0516595e-07
1.0516196e-07
1.051591e-07
1.0515695e-07
1.0515504e-07
1.0515318e-07
1.051512e-07
1.0514933e-07
1.0514733e-07
1.0514546e-07
1.0514347e-07
1.0514155e-07
1.0513952e-07
1.0513746e-07
1.0513579e-07
1.051358e-07
1.0513616e-07
1.0513375e-07
1.0513003e-07
1.0512608e-07
1.0512326e-07
1.0512151e-07
1.0511861e-07
1.0511536e-07
1.0511257e-07
1.0510973e-07
1.0510696e-07
1.0510409e-07
1.0510101e-07
1.050979e-07
1.0509459e-07
1.0509097e-07
1.050867e-07
1.0508253e-07
1.0507804e-07
1.0507329e-07
1.0506759e-07
7.1750803e-09
5.7281476e-08
1.0383397e-07
1.081027e-07
1.0738068e-07
1.0694722e-07
1.0687474e-07
1.0688306e-07
1.0688355e-07
1.0687888e-07
1.068735e-07
1.0686904e-07
1.0686722e-07
1.0687017e-07
1.0686917e-07
1.0686761e-07
1.0686343e-07
1.068591e-07
1.0685618e-07
1.0685837e-07
1.0685896e-07
1.0685524e-07
1.0685007e-07
1.0684636e-07
1.0684397e-07
1.0684217e-07
1.068404e-07
1.0683866e-07
1.068368e-07
1.0683508e-07
1.0683323e-07
1.0683153e-07
1.0682968e-07
1.0682797e-07
1.0682612e-07
1.0682425e-07
1.0682249e-07
1.0682231e-07
1.0682371e-07
1.0682228e-07
1.0681839e-07
1.0681414e-07
1.0681136e-07
1.0681022e-07
1.0680778e-07
1.0680476e-07
1.0680236e-07
1.067998e-07
1.0679742e-07
1.0679492e-07
1.0679222e-07
1.0678954e-07
1.0678669e-07
1.0678366e-07
1.0677986e-07
1.0677619e-07
1.0677231e-07
1.0676816e-07
1.0676309e-07
1.1038325e-08
7.0811894e-08
1.0728833e-07
1.0970474e-07
1.0897348e-07
1.0872982e-07
1.087073e-07
1.0871521e-07
1.0871159e-07
1.0870651e-07
1.0870161e-07
1.086976e-07
1.0869714e-07
1.0870095e-07
1.0869823e-07
1.0869611e-07
1.0869176e-07
1.0868827e-07
1.0868674e-07
1.0869046e-07
1.0869038e-07
1.0868564e-07
1.0868047e-07
1.0867754e-07
1.0867574e-07
1.0867427e-07
1.0867271e-07
1.086712e-07
1.0866962e-07
1.0866816e-07
1.0866661e-07
1.086652e-07
1.0866367e-07
1.0866228e-07
1.0866077e-07
1.086593e-07
1.086577e-07
1.086574e-07
1.086593e-07
1.0865983e-07
1.0865584e-07
1.0865125e-07
1.0864882e-07
1.0864826e-07
1.0864676e-07
1.0864404e-07
1.0864225e-07
1.0864017e-07
1.0863839e-07
1.0863651e-07
1.0863447e-07
1.0863245e-07
1.0863032e-07
1.0862814e-07
1.0862522e-07
1.0862231e-07
1.0861946e-07
1.0861622e-07
1.0861222e-07
1.6805869e-08
8.5999472e-08
1.0959791e-07
1.1120913e-07
1.1079149e-07
1.1070235e-07
1.1069965e-07
1.1070285e-07
1.1069803e-07
1.1069387e-07
1.1068975e-07
1.1068649e-07
1.1068753e-07
1.1069186e-07
1.1068666e-07
1.1068503e-07
1.1068192e-07
1.1067975e-07
1.1068028e-07
1.1068413e-07
1.1068271e-07
1.1067735e-07
1.106733e-07
1.1067162e-07
1.1067053e-07
1.1066944e-07
1.1066828e-07
1.1066717e-07
1.1066605e-07
1.1066502e-07
1.1066395e-07
1.1066298e-07
1.1066196e-07
1.1066103e-07
1.1066006e-07
1.1065915e-07
1.1065813e-07
1.1065792e-07
1.1065969e-07
1.1066241e-07
1.1065892e-07
1.1065434e-07
1.1065256e-07
1.1065264e-07
1.1065239e-07
1.106501e-07
1.1064931e-07
1.1064772e-07
1.1064672e-07
1.1064576e-07
1.1064467e-07
1.1064352e-07
1.1064241e-07
1.1064131e-07
1.1063968e-07
1.1063783e-07
1.106364e-07
1.1063449e-07
1.1063203e-07
2.4866717e-08
1.0252754e-07
1.1276973e-07
1.1294108e-07
1.1284751e-07
1.1284214e-07
1.1284254e-07
1.1284296e-07
1.1283898e-07
1.1283764e-07
1.1283419e-07
1.1283321e-07
1.1283462e-07
1.1283806e-07
1.1283119e-07
1.1283164e-07
1.128307e-07
1.1282958e-07
1.1283116e-07
1.1283273e-07
1.1283085e-07
1.1282755e-07
1.1282618e-07
1.1282567e-07
1.1282518e-07
1.1282465e-07
1.1282411e-07
1.1282364e-07
1.1282317e-07
1.1282277e-07
1.1282236e-07
1.1282203e-07
1.1282168e-07
1.1282141e-07
1.1282111e-07
1.1282089e-07
1.128206e-07
1.1282056e-07
1.1282159e-07
1.1282512e-07
1.1282342e-07
1.1282052e-07
1.1281975e-07
1.1282022e-07
1.1282075e-07
1.1281985e-07
1.1282041e-07
1.1281939e-07
1.128193e-07
1.1281951e-07
1.1281949e-07
1.1281949e-07
1.1281954e-07
1.1281964e-07
1.1281955e-07
1.1281925e-07
1.1281935e-07
1.1281916e-07
1.1281873e-07
8.5583902e-08
8.5582713e-08
8.5581949e-08
8.5583163e-08
8.5583942e-08
8.5584896e-08
8.5585816e-08
8.5586767e-08
8.5587729e-08
8.5588701e-08
8.5589663e-08
8.5590612e-08
8.5591537e-08
8.559245e-08
8.5593357e-08
8.5594276e-08
8.5595215e-08
8.5596182e-08
8.5597136e-08
8.5598027e-08
8.559881e-08
8.5599477e-08
8.5600002e-08
8.5600353e-08
8.5600523e-08
8.5600562e-08
8.5600534e-08
8.5600509e-08
8.5600525e-08
8.5600611e-08
8.5600809e-08
8.5601142e-08
8.5601571e-08
8.5602026e-08
8.560246e-08
8.5602849e-08
8.5603159e-08
8.5603293e-08
8.5603012e-08
8.5602007e-08
8.559985e-08
8.5595564e-08
8.5587978e-08
8.5580164e-08
8.5589883e-08
8.5661291e-08
8.5860696e-08
8.6226544e-08
8.664315e-08
8.6633498e-08
8.5121334e-08
8.0287955e-08
6.946384e-08
5.0763328e-08
2.711589e-08
8.6726032e-09
1.5838708e-09
4.0768266e-10
5.30891e-10
8.5874643e-08
8.5873656e-08
8.5873692e-08
8.5874744e-08
8.5875623e-08
8.5876561e-08
8.5877494e-08
8.5878451e-08
8.5879415e-08
8.5880387e-08
8.5881343e-08
8.5882286e-08
8.5883203e-08
8.588411e-08
8.5885012e-08
8.5885928e-08
8.5886868e-08
8.5887835e-08
8.5888787e-08
8.5889668e-08
8.5890442e-08
8.5891099e-08
8.5891611e-08
8.5891948e-08
8.589211e-08
8.5892141e-08
8.5892112e-08
8.5892088e-08
8.5892106e-08
8.5892192e-08
8.5892387e-08
8.589272e-08
8.5893156e-08
8.5893623e-08
8.5894064e-08
8.5894448e-08
8.5894745e-08
8.5894867e-08
8.5894573e-08
8.5893493e-08
8.5891158e-08
8.588675e-08
8.5879569e-08
8.5872931e-08
8.5883357e-08
8.595129e-08
8.6138741e-08
8.6486918e-08
8.6902727e-08
8.696158e-08
8.5659925e-08
8.1209152e-08
7.107799e-08
5.2976072e-08
2.9152734e-08
9.6612234e-09
1.7398029e-09
3.8328517e-10
4.7708328e-10
8.6194333e-08
8.619354e-08
8.6193874e-08
8.6194879e-08
8.6195798e-08
8.6196741e-08
8.6197687e-08
8.6198654e-08
8.6199625e-08
8.6200603e-08
8.6201563e-08
8.6202507e-08
8.6203423e-08
8.6204328e-08
8.6205227e-08
8.620614e-08
8.620708e-08
8.6208047e-08
8.6208997e-08
8.6209873e-08
8.6210642e-08
8.6211292e-08
8.6211796e-08
8.6212123e-08
8.6212279e-08
8.6212309e-08
8.621228e-08
8.6212256e-08
8.6212269e-08
8.6212344e-08
8.6212525e-08
8.6212847e-08
8.6213284e-08
8.621376e-08
8.6214206e-08
8.6214591e-08
8.6214895e-08
8.6215055e-08
8.621485e-08
8.6213939e-08
8.6211957e-08
8.6208194e-08
8.6201533e-08
8.6193294e-08
8.6195653e-08
8.6243796e-08
8.639966e-08
8.672136e-08
8.7163506e-08
8.7385263e-08
8.6487728e-08
8.2768067e-08
7.3662699e-08
5.6419438e-08
3.2298298e-08
1.118943e-08
1.9880312e-09
3.7121583e-10
4.246345e-10
8.6546523e-08
8.6545986e-08
8.6546604e-08
8.6547572e-08
8.6548521e-08
8.654947e-08
8.6550424e-08
8.6551399e-08
8.6552376e-08
8.6553358e-08
8.6554319e-08
8.6555261e-08
8.6556175e-08
8.6557076e-08
8.655797e-08
8.6558881e-08
8.6559819e-08
8.6560785e-08
8.6561731e-08
8.6562599e-08
8.6563359e-08
8.6564001e-08
8.6564493e-08
8.6564808e-08
8.6564953e-08
8.6564977e-08
8.6564947e-08
8.6564923e-08
8.6564934e-08
8.6565002e-08
8.656517e-08
8.6565483e-08
8.6565921e-08
8.6566409e-08
8.6566863e-08
8.6567246e-08
8.6567549e-08
8.6567734e-08
8.6567593e-08
8.656678e-08
8.6564975e-08
8.6561647e-08
8.6555706e-08
8.6547407e-08
8.6545513e-08
8.6579502e-08
8.6707405e-08
8.6996062e-08
8.7437586e-08
8.7769226e-08
8.7200686e-08
8.4128919e-08
7.602018e-08
5.9760782e-08
3.559988e-08
1.292316e-08
2.3129308e-09
3.6850573e-10
3.8059846e-10
8.6935197e-08
8.6934964e-08
8.6935753e-08
8.6936708e-08
8.693767e-08
8.6938626e-08
8.6939587e-08
8.6940568e-08
8.6941549e-08
8.6942533e-08
8.6943494e-08
8.6944434e-08
8.6945342e-08
8.6946239e-08
8.6947128e-08
8.6948034e-08
8.6948969e-08
8.6949933e-08
8.6950871e-08
8.695173e-08
8.695248e-08
8.6953113e-08
8.695359e-08
8.6953889e-08
8.695402e-08
8.6954036e-08
8.6954002e-08
8.6953979e-08
8.6953989e-08
8.695405e-08
8.6954204e-08
8.6954506e-08
8.6954944e-08
8.6955444e-08
8.6955908e-08
8.695629e-08
8.6956591e-08
8.6956803e-08
8.695674e-08
8.6956046e-08
8.6954429e-08
8.6951525e-08
8.6946321e-08
8.6938168e-08
8.6932592e-08
8.6953142e-08
8.7052622e-08
8.7303678e-08
8.7732574e-08
8.8155335e-08
8.7901415e-08
8.5486597e-08
7.8428526e-08
6.3312264e-08
3.9330531e-08
1.5012829e-08
2.7413812e-09
3.7607396e-10
3.4026059e-10
8.7365068e-08
8.7365124e-08
8.7366044e-08
8.7367002e-08
8.7367968e-08
8.736893e-08
8.7369894e-08
8.7370881e-08
8.7371864e-08
8.7372849e-08
8.7373805e-08
8.7374739e-08
8.737564e-08
8.7376528e-08
8.7377408e-08
8.7378306e-08
8.7379236e-08
8.7380194e-08
8.7381122e-08
8.7381966e-08
8.7382703e-08
8.7383323e-08
8.7383783e-08
8.7384061e-08
8.7384174e-08
8.7384178e-08
8.7384139e-08
8.7384116e-08
8.7384125e-08
8.7384179e-08
8.738432e-08
8.738461e-08
8.7385047e-08
8.7385561e-08
8.7386038e-08
8.738642e-08
8.7386715e-08
8.7386949e-08
8.7386967e-08
8.7386396e-08
8.7384937e-08
8.7382385e-08
8.737794e-08
8.7370439e-08
8.736265e-08
8.7372167e-08
8.7444811e-08
8.7654484e-08
8.8054963e-08
8.8537074e-08
8.8557891e-08
8.6774101e-08
8.0779773e-08
6.6972353e-08
4.3439712e-08
1.7509355e-08
3.2968673e-09
3.9674457e-10
3.0618755e-10
8.784168e-08
8.7842004e-08
8.7842985e-08
8.784395e-08
8.7844912e-08
8.7845878e-08
8.7846844e-08
8.7847831e-08
8.7848812e-08
8.7849793e-08
8.785074e-08
8.7851663e-08
8.7852549e-08
8.7853424e-08
8.785429e-08
8.7855177e-08
8.7856095e-08
8.7857044e-08
8.7857957e-08
8.7858784e-08
8.7859504e-08
8.7860109e-08
8.7860546e-08
8.7860799e-08
8.7860888e-08
8.7860875e-08
8.7860828e-08
8.7860807e-08
8.7860815e-08
8.7860863e-08
8.7860989e-08
8.7861266e-08
8.7861702e-08
8.7862231e-08
8.7862728e-08
8.7863112e-08
8.7863397e-08
8.7863648e-08
8.7863752e-08
8.7863319e-08
8.786201e-08
8.785974e-08
8.7855995e-08
8.7849431e-08
8.7840619e-08
8.7841494e-08
8.7889726e-08
8.8056318e-08
8.841529e-08
8.8925621e-08
8.9176438e-08
8.799096e-08
8.300688e-08
7.0720316e-08
4.7948143e-08
2.0510053e-08
4.0261703e-09
4.3627124e-10
2.7693586e-10
8.8371539e-08
8.8372096e-08
8.8373098e-08
8.837407e-08
8.8375028e-08
8.8375993e-08
8.8376955e-08
8.8377938e-08
8.8378911e-08
8.8379879e-08
8.8380809e-08
8.838171e-08
8.8382573e-08
8.8383426e-08
8.8384272e-08
8.838514e-08
8.8386043e-08
8.8386976e-08
8.8387868e-08
8.8388672e-08
8.8389373e-08
8.8389956e-08
8.8390364e-08
8.8390586e-08
8.8390643e-08
8.8390608e-08
8.8390552e-08
8.8390533e-08
8.8390541e-08
8.8390583e-08
8.8390695e-08
8.8390958e-08
8.8391391e-08
8.8391931e-08
8.8392464e-08
8.8392853e-08
8.8393125e-08
8.8393384e-08
8.8393576e-08
8.8393304e-08
8.8392147e-08
8.8390091e-08
8.8386943e-08
8.8381486e-08
8.8372765e-08
8.8367629e-08
8.8394909e-08
8.851877e-08
8.8825338e-08
8.933202e-08
8.9756706e-08
8.9114271e-08
8.5220939e-08
7.4492548e-08
5.2835298e-08
2.4099194e-08
4.985842e-09
4.9224106e-10
2.5216901e-10
8.8962412e-08
8.8963133e-08
8.8964147e-08
8.8965122e-08
8.896607e-08
8.8967028e-08
8.8967979e-08
8.8968949e-08
8.8969903e-08
8.8970849e-08
8.897175e-08
8.8972618e-08
8.8973449e-08
8.8974272e-08
8.8975091e-08
8.8975934e-08
8.8976814e-08
8.8977726e-08
8.897859e-08
8.8979367e-08
8.8980042e-08
8.8980597e-08
8.898097e-08
8.8981152e-08
8.8981169e-08
8.8981105e-08
8.8981039e-08
8.8981021e-08
8.898103e-08
8.8981067e-08
8.8981164e-08
8.898141e-08
8.898184e-08
8.8982396e-08
8.8982964e-08
8.8983375e-08
8.8983632e-08
8.8983885e-08
8.8984162e-08
8.8984079e-08
8.8983096e-08
8.8981201e-08
8.8978511e-08
8.8974151e-08
8.8966401e-08
8.8957847e-08
8.8968475e-08
8.9052337e-08
8.9299125e-08
8.9772799e-08
9.0314263e-08
9.0141658e-08
8.7287588e-08
7.8237463e-08
5.8064541e-08
2.8369375e-08
6.2531123e-09
5.7747702e-10
2.3183977e-10
8.9623717e-08
8.9624498e-08
8.9625502e-08
8.9626467e-08
8.9627396e-08
8.9628332e-08
8.9629259e-08
8.9630201e-08
8.9631124e-08
8.9632032e-08
8.963289e-08
8.9633713e-08
8.9634497e-08
8.9635281e-08
8.9636062e-08
8.9636872e-08
8.9637719e-08
8.96386e-08
8.9639428e-08
8.9640171e-08
8.9640813e-08
8.9641331e-08
8.9641659e-08
8.9641792e-08
8.9641755e-08
8.9641655e-08
8.9641577e-08
8.9641562e-08
8.9641572e-08
8.9641604e-08
8.9641685e-08
8.9641914e-08
8.964234e-08
8.9642911e-08
8.9643514e-08
8.9643983e-08
8.9644219e-08
8.9644448e-08
8.9644794e-08
8.9644936e-08
8.964417e-08
8.964241e-08
8.9640008e-08
8.9636624e-08
8.96304e-08
8.9620783e-08
8.9619594e-08
8.9668551e-08
8.9852589e-08
9.0267367e-08
9.0864541e-08
9.1077909e-08
8.9200239e-08
8.1849301e-08
6.3570504e-08
3.3408716e-08
7.9392641e-09
6.987576e-10
2.1619991e-10
9.0366677e-08
9.0367485e-08
9.0368467e-08
9.0369405e-08
9.0370301e-08
9.0371201e-08
9.0372091e-08
9.0372991e-08
9.0373869e-08
9.0374723e-08
9.0375522e-08
9.0376282e-08
9.0377006e-08
9.0377735e-08
9.037847e-08
9.0379234e-08
9.0380041e-08
9.038088e-08
9.0381661e-08
9.0382359e-08
9.0382959e-08
9.0383428e-08
9.0383699e-08
9.0383768e-08
9.0383662e-08
9.0383514e-08
9.0383428e-08
9.0383417e-08
9.0383428e-08
9.0383456e-08
9.038352e-08
9.0383728e-08
9.0384152e-08
9.0384742e-08
9.0385379e-08
9.0385937e-08
9.038617e-08
9.0386343e-08
9.0386739e-08
9.0387144e-08
9.0386655e-08
9.0385056e-08
9.0382798e-08
9.038011e-08
9.0375619e-08
9.0366821e-08
9.0358746e-08
9.0379909e-08
9.0503373e-08
9.0840232e-08
9.1432412e-08
9.1928907e-08
9.093343e-08
8.5115453e-08
6.9259237e-08
3.9285495e-08
1.0197149e-08
8.6794621e-10
2.0630777e-10
9.1205035e-08
9.1205841e-08
9.1206781e-08
9.1207673e-08
9.1208519e-08
9.1209364e-08
9.12102e-08
9.1211042e-08
9.1211854e-08
9.1212632e-08
9.121335e-08
9.1214025e-08
9.1214669e-08
9.1215327e-08
9.1216002e-08
9.121671e-08
9.1217464e-08
9.1218244e-08
9.1218963e-08
9.1219604e-08
9.1220149e-08
9.1220553e-08
9.1220753e-08
9.122074e-08
9.1220543e-08
9.1220331e-08
9.1220242e-08
9.1220238e-08
9.122025e-08
9.1220273e-08
9.122032e-08
9.1220503e-08
9.1220925e-08
9.1221541e-08
9.1222226e-08
9.1222855e-08
9.1223164e-08
9.122323e-08
9.1223633e-08
9.122436e-08
9.1224206e-08
9.1222848e-08
9.1220655e-08
9.1218334e-08
9.121535e-08
9.120862e-08
9.1198145e-08
9.1199929e-08
9.1270033e-08
9.1519033e-08
9.2052633e-08
9.2712063e-08
9.2455728e-08
8.8354626e-08
7.4990527e-08
4.6026615e-08
1.3235331e-08
1.1035402e-09
2.0533499e-10
9.2154837e-08
9.2155671e-08
9.2156576e-08
9.2157408e-08
9.2158188e-08
9.2158963e-08
9.2159734e-08
9.2160502e-08
9.216123e-08
9.216191e-08
9.2162526e-08
9.2163095e-08
9.2163641e-08
9.2164215e-08
9.2164824e-08
9.2165465e-08
9.2166155e-08
9.216686e-08
9.2167502e-08
9.2168077e-08
9.2168559e-08
9.2168879e-08
9.2168996e-08
9.2168879e-08
9.2168545e-08
9.2168264e-08
9.2168185e-08
9.216819e-08
9.2168206e-08
9.2168226e-08
9.2168257e-08
9.2168407e-08
9.2168831e-08
9.2169477e-08
9.2170228e-08
9.2170929e-08
9.2171381e-08
9.2171352e-08
9.2171655e-08
9.2172666e-08
9.2172979e-08
9.2171997e-08
9.2169882e-08
9.2167609e-08
9.2165583e-08
9.2161383e-08
9.2152003e-08
9.2143116e-08
9.2171345e-08
9.2332552e-08
9.2768111e-08
9.3483188e-08
9.3789391e-08
9.1236923e-08
8.0634122e-08
5.3592945e-08
1.7322443e-08
1.4624825e-09
2.1451389e-10
9.3232572e-08
9.3233539e-08
9.3234418e-08
9.3235191e-08
9.323591e-08
9.3236625e-08
9.3237342e-08
9.3238043e-08
9.3238687e-08
9.3239261e-08
9.3239766e-08
9.324022e-08
9.3240661e-08
9.3241151e-08
9.3241703e-08
9.3242309e-08
9.3242951e-08
9.3243575e-08
9.3244143e-08
9.324467e-08
9.3245107e-08
9.3245343e-08
9.3245352e-08
9.3245025e-08
9.3244577e-08
9.3244317e-08
9.3244235e-08
9.3244239e-08
9.3244257e-08
9.3244278e-08
9.324431e-08
9.3244417e-08
9.324484e-08
9.3245519e-08
9.3246351e-08
9.3247147e-08
9.3247723e-08
9.3247728e-08
9.324778e-08
9.3248852e-08
9.3249867e-08
9.3249411e-08
9.3247483e-08
9.3244996e-08
9.3243239e-08
9.3241223e-08
9.3235017e-08
9.3223168e-08
9.3223716e-08
9.3307215e-08
9.3619991e-08
9.4289779e-08
9.4978868e-08
9.3785587e-08
8.5938974e-08
6.186745e-08
2.2765203e-08
2.0410972e-09
2.3366742e-10
5.813292e-10
6.0776412e-10
6.2327178e-10
6.337154e-10
6.4207948e-10
6.4926121e-10
6.5520889e-10
6.5961921e-10
6.6222232e-10
6.6281322e-10
6.6121223e-10
6.5722091e-10
6.5061494e-10
6.4112463e-10
6.2843799e-10
6.1220594e-10
5.9205506e-10
5.6762173e-10
5.3858548e-10
5.0467682e-10
4.6590771e-10
4.2266008e-10
3.7555071e-10
3.2540224e-10
2.7290042e-10
2.1938012e-10
1.6735763e-10
1.1686512e-10
7.2787524e-11
3.7162017e-11
1.1598504e-11
6.1496303e-13
4.0588683e-12
1.8749963e-11
4.7883061e-11
9.6431411e-11
1.5936257e-10
2.2224318e-10
2.8832277e-10
3.5950331e-10
4.3506102e-10
5.1293439e-10
5.9410038e-10
6.7270319e-10
7.4892167e-10
8.2230236e-10
8.9157364e-10
9.5535369e-10
1.0136029e-09
1.0668425e-09
1.1155418e-09
1.1601653e-09
1.2007578e-09
1.2372474e-09
1.2701696e-09
1.300242e-09
1.3277534e-09
1.3528448e-09
1.3758797e-09
1.3971032e-09
1.4165073e-09
1.4341272e-09
1.450099e-09
1.464578e-09
1.4777088e-09
1.4896241e-09
1.5004473e-09
1.5102869e-09
1.5192406e-09
1.5273879e-09
1.5347944e-09
1.5414936e-09
1.547587e-09
1.5530783e-09
4.41318e-10
4.6449429e-10
4.8560733e-10
5.0564546e-10
5.2327636e-10
5.3814963e-10
5.5029156e-10
5.5980158e-10
5.6676636e-10
5.7126487e-10
5.7336716e-10
5.731037e-10
5.704481e-10
5.6530229e-10
5.5749509e-10
5.4678531e-10
5.3288567e-10
5.1547634e-10
4.9425621e-10
4.6890363e-10
4.3931379e-10
4.0459219e-10
3.6457416e-10
3.2072272e-10
2.7434594e-10
2.2668534e-10
1.7982629e-10
1.3545158e-10
9.5085888e-11
6.1087028e-11
3.5682543e-11
1.5943287e-11
7.0189283e-12
1.1443254e-11
2.5455305e-11
5.1613726e-11
9.0044302e-11
1.3427878e-10
1.8236872e-10
2.3419999e-10
2.8948702e-10
3.4738823e-10
4.0829841e-10
4.6976862e-10
5.3031512e-10
5.8991105e-10
6.4776322e-10
7.0288348e-10
7.5467994e-10
8.0297769e-10
8.4782482e-10
8.8940053e-10
9.2781586e-10
9.6295909e-10
9.9501842e-10
1.0243164e-09
1.0511357e-09
1.07569e-09
1.0981766e-09
1.1188264e-09
1.1377992e-09
1.1552139e-09
1.171182e-09
1.1858127e-09
1.1992113e-09
1.2114786e-09
1.2227083e-09
1.2329907e-09
1.2424059e-09
1.2510331e-09
1.2589419e-09
1.266185e-09
1.2728231e-09
1.278882e-09
1.3324736e-09
1.1083107e-09
9.2912077e-10
7.8576825e-10
6.7790064e-10
6.0052789e-10
5.4722708e-10
5.1362308e-10
4.9579193e-10
4.8903087e-10
4.8933485e-10
4.9314249e-10
4.9794854e-10
5.0197906e-10
5.040307e-10
5.0333479e-10
4.9942188e-10
4.9200653e-10
4.8091438e-10
4.6598811e-10
4.4717729e-10
4.2421978e-10
3.9684496e-10
3.6528605e-10
3.3016738e-10
2.9227868e-10
2.5286881e-10
2.1297494e-10
1.736658e-10
1.3623536e-10
1.0327356e-10
7.5560429e-11
5.3545113e-11
3.7539279e-11
3.4098326e-11
3.826326e-11
5.0093277e-11
6.7968121e-11
9.1214306e-11
1.1902521e-10
1.5062608e-10
1.8526091e-10
2.2250763e-10
2.6158081e-10
3.0163649e-10
3.4215868e-10
3.8262787e-10
4.2252229e-10
4.6138166e-10
4.9885377e-10
5.3469752e-10
5.6878118e-10
6.0091781e-10
6.3087511e-10
6.5871382e-10
6.8451417e-10
7.0841961e-10
7.3049499e-10
7.5099049e-10
7.7005424e-10
7.8777277e-10
8.0422568e-10
8.1948987e-10
8.3363951e-10
8.4674687e-10
8.5888139e-10
8.701094e-10
8.8049411e-10
8.9009579e-10
8.9897191e-10
9.0718151e-10
9.1477779e-10
9.2180655e-10
9.282953e-10
6.5289613e-09
4.6377024e-09
3.3305114e-09
2.462762e-09
1.8994167e-09
1.523002e-09
1.2593789e-09
1.0571691e-09
9.020836e-10
7.6813385e-10
6.7026437e-10
5.9727861e-10
5.4530077e-10
5.1058282e-10
4.8903383e-10
4.7693652e-10
4.7068499e-10
4.6747458e-10
4.6509694e-10
4.6182738e-10
4.5586786e-10
4.4580182e-10
4.3162428e-10
4.1352256e-10
3.9176501e-10
3.6672321e-10
3.3890527e-10
3.0933274e-10
2.7895442e-10
2.4808826e-10
2.1743747e-10
1.8817464e-10
1.6112887e-10
1.3553556e-10
1.1491568e-10
1.0036083e-10
8.9886714e-11
8.7501559e-11
8.8588983e-11
9.3128099e-11
1.0051574e-10
1.1060259e-10
1.2322404e-10
1.3798928e-10
1.5448513e-10
1.7232711e-10
1.9115156e-10
2.1062442e-10
2.3044292e-10
2.5033921e-10
2.7008532e-10
2.8949337e-10
3.0840375e-10
3.2667764e-10
3.4421588e-10
3.6095084e-10
3.7684356e-10
3.918745e-10
4.0605156e-10
4.1939219e-10
4.3192042e-10
4.4366551e-10
4.5465952e-10
4.6493613e-10
4.7453e-10
4.8347615e-10
4.9180959e-10
4.9956487e-10
5.0677571e-10
5.1347559e-10
5.1969258e-10
5.2545055e-10
5.3078581e-10
5.3571484e-10
2.1889662e-08
1.6410145e-08
1.2033489e-08
8.7180429e-09
6.3049077e-09
4.5944472e-09
3.4185563e-09
2.6175313e-09
2.0480749e-09
1.6532672e-09
1.3707567e-09
1.160918e-09
9.966945e-10
8.6546191e-10
7.5215353e-10
6.6607865e-10
5.9911605e-10
5.4880422e-10
5.122733e-10
4.8685991e-10
4.7194864e-10
4.6333439e-10
4.5771948e-10
4.5170076e-10
4.4314862e-10
4.3176936e-10
4.176578e-10
4.011459e-10
3.8272135e-10
3.6279015e-10
3.4156983e-10
3.1966337e-10
2.9692317e-10
2.7505073e-10
2.5340545e-10
2.3315804e-10
2.1455005e-10
1.9917821e-10
1.8690294e-10
1.7793622e-10
1.7023419e-10
1.6609886e-10
1.6361607e-10
1.6256021e-10
1.6278586e-10
1.6414127e-10
1.6648455e-10
1.6966858e-10
1.7354793e-10
1.7798444e-10
1.8285132e-10
1.880334e-10
1.9342822e-10
1.989458e-10
2.0450916e-10
2.100528e-10
2.1552226e-10
2.2087418e-10
2.2607519e-10
2.3109924e-10
2.3592708e-10
2.4054582e-10
2.4494749e-10
2.4912804e-10
2.5308659e-10
2.5682487e-10
2.6034665e-10
2.6365724e-10
2.6676331e-10
2.6967225e-10
2.7239236e-10
2.7493174e-10
2.7730163e-10
2.7949894e-10
4.3979279e-08
3.5875394e-08
2.8408174e-08
2.1962711e-08
1.6657225e-08
1.2459362e-08
9.2544466e-09
6.8879793e-09
5.1506736e-09
3.9022387e-09
3.0101805e-09
2.3761445e-09
1.9247211e-09
1.5876179e-09
1.3390287e-09
1.1510096e-09
1.0053779e-09
8.8589235e-10
7.8743702e-10
7.0129466e-10
6.3414526e-10
5.8044603e-10
5.4081924e-10
5.1388596e-10
4.9593397e-10
4.8377066e-10
4.7522577e-10
4.6709616e-10
4.5804913e-10
4.4788654e-10
4.3664877e-10
4.2447015e-10
4.1165296e-10
3.9823443e-10
3.8446527e-10
3.7052494e-10
3.5681152e-10
3.424167e-10
3.2900469e-10
3.1732776e-10
3.0707739e-10
2.9814224e-10
2.9038468e-10
2.8426624e-10
2.7879409e-10
2.7396805e-10
2.6984886e-10
2.6638932e-10
2.6351948e-10
2.6116519e-10
2.5927543e-10
2.5778069e-10
2.5661683e-10
2.5572991e-10
2.5507356e-10
2.5460861e-10
2.5430244e-10
2.5412713e-10
2.5405877e-10
2.5407726e-10
2.5416521e-10
2.5430768e-10
2.544919e-10
2.5470695e-10
2.5494372e-10
2.5519459e-10
2.5545327e-10
2.5571461e-10
2.559745e-10
2.5622959e-10
2.5647697e-10
2.5671468e-10
2.569411e-10
2.571551e-10
6.3669148e-08
5.5843982e-08