/*--------------------------------*- C++ -*----------------------------------*\
| =========                 |                                                 |
| \\      /  F ield         | OpenFOAM: The Open Source CFD Toolbox           |
|  \\    /   O peration     | Version:  v2006                                 |
|   \\  /    A nd           | Website:  www.openfoam.com                      |
|    \\/     M anipulation  |                                                 |
\*---------------------------------------------------------------------------*/
FoamFile
{
    version     2.0;
    format      ascii;
    class       volScalarField;
    location    "9000";
    object      nutMean;
}
// * * * * * * * * * * * * * * * * * * * * * * * * * * * * * * * * * * * * * //

dimensions      [0 2 -1 0 0 0 0];


internalField   nonuniform List<scalar> 
55713
(
3.116934e-10
2.9280701e-09
2.8938268e-08
6.9334879e-08
8.9603238e-08
9.5654599e-08
9.5892049e-08
9.5044876e-08
9.4484713e-08
9.427974e-08
9.4246378e-08
9.4257901e-08
9.4269043e-08
9.4273352e-08
9.4273988e-08
9.4274062e-08
9.4274229e-08
9.4274509e-08
9.427477e-08
9.427488e-08
9.4274785e-08
9.4274589e-08
9.4274344e-08
9.4274063e-08
9.4273795e-08
9.4273624e-08
9.4273511e-08
9.4273385e-08
9.427323e-08
9.4273038e-08
9.4272823e-08
9.4272593e-08
9.427238e-08
9.4272266e-08
9.4272396e-08
9.4272895e-08
9.4272941e-08
9.4272461e-08
9.4271652e-08
9.4270703e-08
9.4269811e-08
9.4269002e-08
9.426812e-08
9.4267098e-08
9.426603e-08
9.4264991e-08
9.4263988e-08
9.4263026e-08
9.4262095e-08
9.4261165e-08
9.4260197e-08
9.4259169e-08
9.4258087e-08
9.4256992e-08
9.4255906e-08
9.4254834e-08
9.4253773e-08
9.4252641e-08
9.4251387e-08
3.7496523e-10
4.2277895e-09
3.597893e-08
7.6183297e-08
9.3040244e-08
9.6960599e-08
9.6587618e-08
9.5761376e-08
9.5331694e-08
9.5206844e-08
9.5200303e-08
9.5213767e-08
9.5221508e-08
9.5223296e-08
9.5223001e-08
9.5222679e-08
9.522248e-08
9.5222357e-08
9.5222213e-08
9.5221917e-08
9.5221404e-08
9.5220802e-08
9.5220186e-08
9.5219538e-08
9.5218928e-08
9.5218424e-08
9.5217971e-08
9.5217503e-08
9.5217016e-08
9.521649e-08
9.5215941e-08
9.5215371e-08
9.5214802e-08
9.5214314e-08
9.5214063e-08
9.521432e-08
9.5214156e-08
9.5213351e-08
9.5212194e-08
9.5210861e-08
9.5209579e-08
9.5208413e-08
9.5207195e-08
9.5205798e-08
9.5204315e-08
9.5202846e-08
9.5201403e-08
9.5199983e-08
9.5198581e-08
9.5197168e-08
9.5195699e-08
9.5194138e-08
9.5192477e-08
9.5190754e-08
9.5188995e-08
9.5187192e-08
9.5185335e-08
9.5183332e-08
9.5181115e-08
4.6443527e-10
5.9357419e-09
4.3482071e-08
8.2294193e-08
9.5714415e-08
9.8027772e-08
9.730995e-08
9.65697e-08
9.626066e-08
9.6195309e-08
9.6203429e-08
9.6215502e-08
9.6219651e-08
9.6219469e-08
9.6218733e-08
9.6218076e-08
9.6217493e-08
9.6216951e-08
9.6216406e-08
9.621569e-08
9.6214768e-08
9.6213802e-08
9.621283e-08
9.6211837e-08
9.6210907e-08
9.6210086e-08
9.6209307e-08
9.6208515e-08
9.6207711e-08
9.620687e-08
9.6206004e-08
9.6205115e-08
9.6204218e-08
9.6203373e-08
9.6202748e-08
9.6202732e-08
9.620244e-08
9.6201348e-08
9.6199864e-08
9.6198168e-08
9.6196509e-08
9.6195009e-08
9.6193491e-08
9.6191759e-08
9.6189891e-08
9.6188024e-08
9.6186173e-08
9.6184332e-08
9.6182497e-08
9.6180641e-08
9.6178717e-08
9.6176676e-08
9.6174493e-08
9.6172199e-08
9.6169833e-08
9.6167371e-08
9.6164799e-08
9.6162013e-08
9.6158914e-08
5.9271365e-10
8.2669683e-09
5.1624033e-08
8.7798553e-08
9.7948288e-08
9.8978117e-08
9.8085781e-08
9.747537e-08
9.7274766e-08
9.7250791e-08
9.7264512e-08
9.7272668e-08
9.7273567e-08
9.7272563e-08
9.727157e-08
9.727055e-08
9.7269566e-08
9.7268646e-08
9.7267733e-08
9.7266618e-08
9.7265323e-08
9.726402e-08
9.7262716e-08
9.7261406e-08
9.7260187e-08
9.7259072e-08
9.7257992e-08
9.7256903e-08
9.7255807e-08
9.7254677e-08
9.7253523e-08
9.7252342e-08
9.7251146e-08
9.7249979e-08
9.7248998e-08
9.7248687e-08
9.7248333e-08
9.7247008e-08
9.724523e-08
9.7243196e-08
9.7241178e-08
9.7239361e-08
9.7237586e-08
9.723557e-08
9.7233353e-08
9.7231119e-08
9.7228899e-08
9.7226673e-08
9.7224443e-08
9.7222183e-08
9.7219846e-08
9.7217376e-08
9.7214724e-08
9.721191e-08
9.7208988e-08
9.7205929e-08
9.7202702e-08
9.7199208e-08
9.7195299e-08
7.7752864e-10
1.1365888e-08
6.0114853e-08
9.2544875e-08
9.9778142e-08
9.9867637e-08
9.8948489e-08
9.8487273e-08
9.8373114e-08
9.8373582e-08
9.8386306e-08
9.8389833e-08
9.8388993e-08
9.8387664e-08
9.8386367e-08
9.8384968e-08
9.8383611e-08
9.8382356e-08
9.83811e-08
9.8379605e-08
9.8377972e-08
9.8376362e-08
9.8374754e-08
9.8373163e-08
9.8371686e-08
9.8370303e-08
9.8368951e-08
9.8367596e-08
9.8366238e-08
9.836485e-08
9.8363438e-08
9.8361998e-08
9.8360538e-08
9.8359089e-08
9.8357786e-08
9.8357159e-08
9.8356781e-08
9.8355317e-08
9.8353284e-08
9.8350945e-08
9.8348591e-08
9.8346479e-08
9.8344493e-08
9.834226e-08
9.8339743e-08
9.8337183e-08
9.8334642e-08
9.833208e-08
9.8329507e-08
9.8326895e-08
9.8324203e-08
9.8321369e-08
9.8318321e-08
9.8315058e-08
9.8311653e-08
9.8308083e-08
9.8304288e-08
9.8300189e-08
9.8295573e-08
1.0464984e-09
1.5429724e-08
6.8683969e-08
9.6124853e-08
1.0130596e-07
1.0075907e-07
9.9922605e-08
9.9608058e-08
9.9555469e-08
9.9566769e-08
9.9574684e-08
9.9575088e-08
9.9573394e-08
9.9571876e-08
9.9570231e-08
9.9568471e-08
9.956679e-08
9.9565252e-08
9.9563679e-08
9.9561832e-08
9.9559906e-08
9.9558023e-08
9.9556149e-08
9.9554319e-08
9.9552621e-08
9.9551005e-08
9.9549417e-08
9.9547832e-08
9.9546249e-08
9.9544638e-08
9.9543008e-08
9.9541349e-08
9.9539666e-08
9.953798e-08
9.9536405e-08
9.9535465e-08
9.9535043e-08
9.9533592e-08
9.9531348e-08
9.9528745e-08
9.9526084e-08
9.9523699e-08
9.9521552e-08
9.9519182e-08
9.9516428e-08
9.9513591e-08
9.9510788e-08
9.9507949e-08
9.9505093e-08
9.9502192e-08
9.949921e-08
9.9496088e-08
9.9492731e-08
9.9489104e-08
9.9485301e-08
9.948132e-08
9.947706e-08
9.9472477e-08
9.9467274e-08
1.4429684e-09
2.0669603e-08
7.6935789e-08
9.9004789e-08
1.0254995e-07
1.0169248e-07
1.0102649e-07
1.0083812e-07
1.0082345e-07
1.0083507e-07
1.008384e-07
1.008369e-07
1.008349e-07
1.0083321e-07
1.0083119e-07
1.0082911e-07
1.0082717e-07
1.0082541e-07
1.0082355e-07
1.0082139e-07
1.0081923e-07
1.0081711e-07
1.0081502e-07
1.00813e-07
1.0081112e-07
1.0080932e-07
1.0080754e-07
1.0080577e-07
1.00804e-07
1.0080222e-07
1.0080042e-07
1.0079858e-07
1.0079673e-07
1.0079486e-07
1.0079307e-07
1.0079185e-07
1.0079133e-07
1.0079007e-07
1.0078769e-07
1.0078487e-07
1.0078194e-07
1.007793e-07
1.0077705e-07
1.0077464e-07
1.0077173e-07
1.0076868e-07
1.0076569e-07
1.0076264e-07
1.0075958e-07
1.0075647e-07
1.0075328e-07
1.0074996e-07
1.007464e-07
1.0074252e-07
1.0073842e-07
1.0073415e-07
1.0072955e-07
1.0072463e-07
1.0071899e-07
2.0416424e-09
2.7308786e-08
8.5018562e-08
1.0202535e-07
1.0364904e-07
1.0273819e-07
1.0227236e-07
1.0217592e-07
1.0218081e-07
1.0218767e-07
1.0218755e-07
1.0218509e-07
1.0218308e-07
1.0218115e-07
1.021788e-07
1.0217646e-07
1.0217435e-07
1.0217243e-07
1.0217032e-07
1.021679e-07
1.0216555e-07
1.0216325e-07
1.0216101e-07
1.0215886e-07
1.0215685e-07
1.0215491e-07
1.0215299e-07
1.021511e-07
1.021492e-07
1.0214729e-07
1.0214538e-07
1.0214343e-07
1.0214147e-07
1.0213948e-07
1.0213754e-07
1.0213608e-07
1.0213545e-07
1.0213452e-07
1.0213212e-07
1.0212915e-07
1.02126e-07
1.0212315e-07
1.0212083e-07
1.0211852e-07
1.0211556e-07
1.0211236e-07
1.0210927e-07
1.0210611e-07
1.0210294e-07
1.0209972e-07
1.0209642e-07
1.0209301e-07
1.0208937e-07
1.0208538e-07
1.020811e-07
1.020767e-07
1.0207192e-07
1.0206684e-07
1.0206094e-07
2.9904455e-09
3.5556849e-08
9.2215077e-08
1.0432182e-07
1.0476101e-07
1.0395846e-07
1.0366272e-07
1.0362465e-07
1.0363365e-07
1.0363577e-07
1.0363389e-07
1.0363114e-07
1.036292e-07
1.03627e-07
1.0362437e-07
1.0362187e-07
1.0361968e-07
1.0361769e-07
1.0361536e-07
1.0361276e-07
1.0361028e-07
1.0360788e-07
1.0360556e-07
1.0360336e-07
1.0360128e-07
1.0359926e-07
1.0359728e-07
1.0359532e-07
1.0359337e-07
1.035914e-07
1.0358944e-07
1.0358746e-07
1.0358546e-07
1.0358342e-07
1.0358142e-07
1.0357979e-07
1.0357908e-07
1.0357849e-07
1.0357635e-07
1.0357329e-07
1.0356997e-07
1.0356696e-07
1.0356462e-07
1.0356254e-07
1.0355967e-07
1.0355643e-07
1.0355335e-07
1.0355019e-07
1.0354702e-07
1.0354383e-07
1.0354054e-07
1.0353717e-07
1.0353362e-07
1.0352969e-07
1.0352539e-07
1.0352104e-07
1.0351628e-07
1.0351126e-07
1.0350533e-07
4.6160759e-09
4.5564308e-08
9.8574582e-08
1.0632025e-07
1.0598917e-07
1.0535781e-07
1.0519519e-07
1.051892e-07
1.0519524e-07
1.0519377e-07
1.0519123e-07
1.051885e-07
1.0518667e-07
1.0518423e-07
1.051814e-07
1.0517887e-07
1.051767e-07
1.0517474e-07
1.0517224e-07
1.0516953e-07
1.0516702e-07
1.0516462e-07
1.0516231e-07
1.0516013e-07
1.0515806e-07
1.0515606e-07
1.051541e-07
1.0515216e-07
1.0515023e-07
1.051483e-07
1.0514638e-07
1.0514444e-07
1.051425e-07
1.0514053e-07
1.0513856e-07
1.0513686e-07
1.0513608e-07
1.0513585e-07
1.051343e-07
1.0513125e-07
1.0512782e-07
1.0512474e-07
1.0512245e-07
1.051207e-07
1.0511813e-07
1.0511496e-07
1.0511204e-07
1.0510902e-07
1.0510601e-07
1.05103e-07
1.0509988e-07
1.0509673e-07
1.0509342e-07
1.0508979e-07
1.0508568e-07
1.0508159e-07
1.0507711e-07
1.050724e-07
1.0506672e-07
7.3276082e-09
5.7356976e-08
1.038218e-07
1.0809431e-07
1.0737915e-07
1.0694683e-07
1.0687453e-07
1.0688032e-07
1.0688115e-07
1.0687791e-07
1.0687559e-07
1.0687297e-07
1.0687131e-07
1.0686868e-07
1.0686581e-07
1.0686338e-07
1.068614e-07
1.0685957e-07
1.0685696e-07
1.0685424e-07
1.0685185e-07
1.0684957e-07
1.0684737e-07
1.0684531e-07
1.0684336e-07
1.0684148e-07
1.0683964e-07
1.0683783e-07
1.0683603e-07
1.0683425e-07
1.0683247e-07
1.068307e-07
1.0682892e-07
1.0682713e-07
1.0682533e-07
1.0682371e-07
1.0682289e-07
1.0682302e-07
1.0682239e-07
1.0681957e-07
1.0681608e-07
1.0681303e-07
1.068109e-07
1.0680959e-07
1.0680758e-07
1.0680462e-07
1.0680206e-07
1.0679935e-07
1.0679665e-07
1.0679406e-07
1.067913e-07
1.0678857e-07
1.0678573e-07
1.0678267e-07
1.0677901e-07
1.0677543e-07
1.0677158e-07
1.0676745e-07
1.067624e-07
1.120111e-08
7.0872977e-08
1.0727737e-07
1.096999e-07
1.089729e-07
1.0872957e-07
1.0870721e-07
1.0871235e-07
1.0870966e-07
1.0870633e-07
1.087047e-07
1.0870218e-07
1.0870085e-07
1.0869809e-07
1.0869544e-07
1.0869332e-07
1.086917e-07
1.0869012e-07
1.0868748e-07
1.0868491e-07
1.0868283e-07
1.0868082e-07
1.0867884e-07
1.0867704e-07
1.0867535e-07
1.0867373e-07
1.0867215e-07
1.086706e-07
1.0866907e-07
1.0866756e-07
1.0866608e-07
1.086646e-07
1.0866314e-07
1.0866167e-07
1.086602e-07
1.0865882e-07
1.0865809e-07
1.0865855e-07
1.0865904e-07
1.0865688e-07
1.0865339e-07
1.086505e-07
1.086487e-07
1.0864787e-07
1.0864678e-07
1.0864417e-07
1.0864225e-07
1.0864003e-07
1.0863786e-07
1.0863592e-07
1.0863378e-07
1.0863172e-07
1.086296e-07
1.0862737e-07
1.0862457e-07
1.0862176e-07
1.0861895e-07
1.0861572e-07
1.0861174e-07
1.6953711e-08
8.6041002e-08
1.0959189e-07
1.1120695e-07
1.107912e-07
1.1070222e-07
1.1069969e-07
1.1070022e-07
1.1069701e-07
1.1069459e-07
1.1069386e-07
1.106915e-07
1.1069071e-07
1.1068813e-07
1.1068599e-07
1.1068444e-07
1.1068342e-07
1.1068221e-07
1.1067973e-07
1.1067761e-07
1.1067607e-07
1.1067448e-07
1.1067292e-07
1.1067156e-07
1.1067032e-07
1.1066912e-07
1.1066797e-07
1.1066685e-07
1.1066576e-07
1.106647e-07
1.1066367e-07
1.1066266e-07
1.1066167e-07
1.1066071e-07
1.1065975e-07
1.1065886e-07
1.1065843e-07
1.1065909e-07
1.1066064e-07
1.1065964e-07
1.1065646e-07
1.1065395e-07
1.1065266e-07
1.1065238e-07
1.1065241e-07
1.1065038e-07
1.106494e-07
1.1064792e-07
1.1064647e-07
1.1064545e-07
1.1064422e-07
1.1064307e-07
1.1064195e-07
1.1064081e-07
1.1063927e-07
1.1063753e-07
1.1063613e-07
1.1063423e-07
1.1063178e-07
2.4939562e-08
1.0254266e-07
1.1276824e-07
1.1294079e-07
1.1284755e-07
1.1284204e-07
1.1284269e-07
1.1284146e-07
1.1283936e-07
1.1283827e-07
1.1283827e-07
1.1283653e-07
1.1283617e-07
1.1283455e-07
1.128333e-07
1.1283264e-07
1.1283235e-07
1.1283169e-07
1.1282997e-07
1.1282875e-07
1.1282802e-07
1.1282716e-07
1.1282632e-07
1.1282569e-07
1.128251e-07
1.1282455e-07
1.1282403e-07
1.1282355e-07
1.128231e-07
1.1282268e-07
1.1282229e-07
1.1282194e-07
1.1282161e-07
1.1282132e-07
1.1282105e-07
1.1282082e-07
1.1282084e-07
1.1282142e-07
1.128234e-07
1.1282364e-07
1.1282163e-07
1.128202e-07
1.1281975e-07
1.1282004e-07
1.1282061e-07
1.1282e-07
1.1282013e-07
1.1281968e-07
1.1281934e-07
1.1281935e-07
1.1281933e-07
1.1281931e-07
1.1281938e-07
1.1281946e-07
1.128194e-07
1.1281916e-07
1.1281929e-07
1.1281908e-07
1.1281868e-07
8.5580419e-08
8.5578664e-08
8.5577496e-08
8.5578755e-08
8.5579443e-08
8.5580348e-08
8.5581211e-08
8.5582109e-08
8.5583029e-08
8.5583958e-08
8.5584885e-08
8.5585802e-08
8.5586712e-08
8.5587626e-08
8.5588551e-08
8.5589489e-08
8.5590434e-08
8.5591377e-08
8.5592307e-08
8.559321e-08
8.5594073e-08
8.5594867e-08
8.5595515e-08
8.5595931e-08
8.5596084e-08
8.5596037e-08
8.5595914e-08
8.5595822e-08
8.5595794e-08
8.5595799e-08
8.5595795e-08
8.5595768e-08
8.5595727e-08
8.5595686e-08
8.5595623e-08
8.5595498e-08
8.5595272e-08
8.5594939e-08
8.5594532e-08
8.5594015e-08
8.5592858e-08
8.5589567e-08
8.5582538e-08
8.5574908e-08
8.558493e-08
8.5657217e-08
8.5857927e-08
8.6224339e-08
8.6638555e-08
8.6620895e-08
8.5093493e-08
8.0238579e-08
6.939337e-08
5.0686247e-08
2.7059278e-08
8.6659722e-09
1.6605656e-09
4.7988016e-10
6.4596989e-10
8.5871032e-08
8.5869527e-08
8.5869318e-08
8.5870357e-08
8.5871171e-08
8.587205e-08
8.5872932e-08
8.5873836e-08
8.587476e-08
8.5875689e-08
8.5876613e-08
8.5877526e-08
8.5878431e-08
8.587934e-08
8.5880261e-08
8.5881196e-08
8.588214e-08
8.5883083e-08
8.5884012e-08
8.5884911e-08
8.588577e-08
8.5886556e-08
8.5887194e-08
8.5887597e-08
8.5887736e-08
8.5887676e-08
8.5887547e-08
8.5887455e-08
8.5887427e-08
8.5887428e-08
8.5887418e-08
8.5887385e-08
8.588734e-08
8.5887294e-08
8.5887228e-08
8.5887102e-08
8.5886883e-08
8.5886566e-08
8.5886157e-08
8.5885551e-08
8.5884199e-08
8.5880798e-08
8.5874215e-08
8.5867782e-08
8.5878453e-08
8.5947088e-08
8.6135592e-08
8.648419e-08
8.689794e-08
8.6949989e-08
8.5635244e-08
8.116697e-08
7.1015336e-08
5.2907061e-08
2.9104357e-08
9.657216e-09
1.8084991e-09
4.4694459e-10
5.7933996e-10
8.6190759e-08
8.6189456e-08
8.6189608e-08
8.619058e-08
8.6191444e-08
8.6192326e-08
8.6193222e-08
8.6194137e-08
8.6195069e-08
8.6196004e-08
8.619693e-08
8.6197843e-08
8.6198747e-08
8.6199653e-08
8.6200573e-08
8.6201507e-08
8.620245e-08
8.6203393e-08
8.620432e-08
8.6205215e-08
8.6206067e-08
8.6206848e-08
8.6207482e-08
8.6207879e-08
8.6208011e-08
8.6207942e-08
8.6207807e-08
8.6207714e-08
8.6207685e-08
8.6207685e-08
8.6207674e-08
8.6207638e-08
8.6207591e-08
8.6207546e-08
8.6207489e-08
8.6207377e-08
8.6207171e-08
8.6206861e-08
8.6206463e-08
8.6205952e-08
8.6204947e-08
8.6202264e-08
8.6196276e-08
8.6188231e-08
8.6190696e-08
8.6239339e-08
8.6396141e-08
8.6718473e-08
8.7159354e-08
8.7375899e-08
8.646754e-08
8.2731495e-08
7.3608532e-08
5.6358466e-08
3.22555e-08
1.1185915e-08
2.0473595e-09
4.2778752e-10
5.1432955e-10
8.6543002e-08
8.6541974e-08
8.6542481e-08
8.6543401e-08
8.6544302e-08
8.6545188e-08
8.6546096e-08
8.6547019e-08
8.6547955e-08
8.6548891e-08
8.6549816e-08
8.6550726e-08
8.6551625e-08
8.6552527e-08
8.6553443e-08
8.6554374e-08
8.6555316e-08
8.6556257e-08
8.6557181e-08
8.6558068e-08
8.6558913e-08
8.6559686e-08
8.6560311e-08
8.6560697e-08
8.6560815e-08
8.6560732e-08
8.6560591e-08
8.6560497e-08
8.6560469e-08
8.6560469e-08
8.6560456e-08
8.6560417e-08
8.6560366e-08
8.6560322e-08
8.6560271e-08
8.6560171e-08
8.655998e-08
8.6559682e-08
8.6559289e-08
8.6558799e-08
8.6557949e-08
8.655576e-08
8.655058e-08
8.65425e-08
8.6540624e-08
8.6574926e-08
8.6703596e-08
8.6992919e-08
8.7433667e-08
8.7761263e-08
8.7183851e-08
8.4098216e-08
7.5973323e-08
5.9706603e-08
3.5562666e-08
1.2924967e-08
2.3635459e-09
4.1918137e-10
4.600514e-10
8.6931744e-08
8.6931065e-08
8.6931795e-08
8.6932696e-08
8.6933614e-08
8.6934509e-08
8.6935424e-08
8.6936354e-08
8.6937291e-08
8.6938226e-08
8.6939147e-08
8.694005e-08
8.6940943e-08
8.6941838e-08
8.6942749e-08
8.6943677e-08
8.6944616e-08
8.6945554e-08
8.694647e-08
8.6947348e-08
8.6948183e-08
8.6948947e-08
8.694956e-08
8.6949932e-08
8.6950033e-08
8.6949932e-08
8.6949783e-08
8.694969e-08
8.6949664e-08
8.6949664e-08
8.694965e-08
8.6949609e-08
8.6949556e-08
8.6949512e-08
8.6949468e-08
8.6949382e-08
8.6949209e-08
8.6948926e-08
8.6948542e-08
8.6948079e-08
8.6947382e-08
8.6945679e-08
8.6941339e-08
8.6933452e-08
8.692782e-08
8.6948509e-08
8.7048591e-08
8.7300331e-08
8.7728865e-08
8.814859e-08
8.7887453e-08
8.5460802e-08
7.838813e-08
6.3263944e-08
3.9296958e-08
1.5020822e-08
2.787562e-09
4.2168412e-10
4.1043112e-10
8.7361672e-08
8.7361389e-08
8.7362265e-08
8.7363166e-08
8.736409e-08
8.7364993e-08
8.7365913e-08
8.7366844e-08
8.736778e-08
8.736871e-08
8.7369623e-08
8.7370516e-08
8.7371398e-08
8.7372285e-08
8.7373189e-08
8.737411e-08
8.7375044e-08
8.7375976e-08
8.7376882e-08
8.7377747e-08
8.7378569e-08
8.7379322e-08
8.7379921e-08
8.7380274e-08
8.738035e-08
8.7380228e-08
8.738007e-08
8.737998e-08
8.7379957e-08
8.7379958e-08
8.7379944e-08
8.7379901e-08
8.7379846e-08
8.7379802e-08
8.7379765e-08
8.7379695e-08
8.7379542e-08
8.7379279e-08
8.7378906e-08
8.7378457e-08
8.7377864e-08
8.737657e-08
8.737311e-08
8.7365948e-08
8.7358056e-08
8.7367549e-08
8.7440621e-08
8.7650948e-08
8.805137e-08
8.853126e-08
8.8546286e-08
8.6752576e-08
8.0745329e-08
6.6929621e-08
4.3408136e-08
1.7517977e-08
3.3403727e-09
4.3850235e-10
3.6865344e-10
8.7838359e-08
8.7838428e-08
8.7839383e-08
8.7840293e-08
8.7841217e-08
8.7842125e-08
8.7843046e-08
8.7843975e-08
8.7844905e-08
8.7845824e-08
8.7846724e-08
8.7847602e-08
8.784847e-08
8.7849345e-08
8.7850238e-08
8.7851151e-08
8.7852077e-08
8.7852998e-08
8.785389e-08
8.7854737e-08
8.7855544e-08
8.7856282e-08
8.7856862e-08
8.785719e-08
8.7857237e-08
8.7857088e-08
8.785692e-08
8.7856833e-08
8.7856815e-08
8.7856818e-08
8.7856804e-08
8.785676e-08
8.7856703e-08
8.785666e-08
8.785663e-08
8.7856578e-08
8.7856448e-08
8.785621e-08
8.7855856e-08
8.7855418e-08
8.7854896e-08
8.7853931e-08
8.7851308e-08
8.7845186e-08
8.7836247e-08
8.7836951e-08
8.7885431e-08
8.8052619e-08
8.8411765e-08
8.8920539e-08
8.9166742e-08
8.7973007e-08
8.2978137e-08
7.0682761e-08
4.7918215e-08
2.0516505e-08
4.0666376e-09
4.7308507e-10
3.3255096e-10
8.8368333e-08
8.8368685e-08
8.8369667e-08
8.8370586e-08
8.8371504e-08
8.8372411e-08
8.8373327e-08
8.8374248e-08
8.8375166e-08
8.8376069e-08
8.8376949e-08
8.8377806e-08
8.8378655e-08
8.8379512e-08
8.8380391e-08
8.838129e-08
8.8382203e-08
8.8383109e-08
8.8383979e-08
8.8384803e-08
8.8385591e-08
8.838631e-08
8.8386866e-08
8.8387163e-08
8.8387172e-08
8.8386989e-08
8.8386812e-08
8.8386729e-08
8.8386717e-08
8.8386722e-08
8.8386709e-08
8.8386665e-08
8.8386607e-08
8.8386564e-08
8.8386543e-08
8.8386511e-08
8.8386409e-08
8.8386201e-08
8.8385872e-08
8.8385448e-08
8.8384968e-08
8.8384247e-08
8.8382372e-08
8.8377492e-08
8.8368658e-08
8.8363214e-08
8.8390554e-08
8.8514928e-08
8.882184e-08
8.9327506e-08
8.9748559e-08
8.9099248e-08
8.519656e-08
7.4459857e-08
5.2807098e-08
2.4103104e-08
5.0250106e-09
5.2822376e-10
3.0203983e-10
8.8959362e-08
8.8959899e-08
8.8960888e-08
8.8961808e-08
8.8962715e-08
8.8963613e-08
8.8964518e-08
8.8965422e-08
8.896632e-08
8.8967197e-08
8.8968049e-08
8.8968877e-08
8.8969698e-08
8.8970532e-08
8.8971389e-08
8.8972268e-08
8.8973162e-08
8.8974044e-08
8.8974885e-08
8.8975679e-08
8.8976442e-08
8.8977138e-08
8.8977663e-08
8.897792e-08
8.8977881e-08
8.8977656e-08
8.897747e-08
8.8977394e-08
8.8977387e-08
8.8977396e-08
8.8977384e-08
8.8977341e-08
8.8977283e-08
8.8977242e-08
8.897723e-08
8.8977221e-08
8.8977151e-08
8.8976981e-08
8.8976689e-08
8.8976286e-08
8.8975829e-08
8.897527e-08
8.897401e-08
8.8970415e-08
8.8962599e-08
8.8953621e-08
8.896411e-08
8.9048371e-08
8.9295629e-08
8.9768742e-08
9.0307377e-08
9.0129049e-08
8.726698e-08
7.820911e-08
5.8038244e-08
2.837036e-08
6.2907745e-09
6.1244874e-10
2.7689772e-10
8.9620772e-08
8.9621419e-08
8.9622399e-08
8.9623308e-08
8.9624196e-08
8.9625076e-08
8.9625958e-08
8.9626836e-08
8.9627702e-08
8.9628543e-08
8.9629353e-08
8.963014e-08
8.9630924e-08
8.9631724e-08
8.9632551e-08
8.9633402e-08
8.9634267e-08
8.9635114e-08
8.9635913e-08
8.9636668e-08
8.9637401e-08
8.9638066e-08
8.9638551e-08
8.9638758e-08
8.9638658e-08
8.963838e-08
8.9638187e-08
8.963812e-08
8.9638119e-08
8.9638131e-08
8.9638122e-08
8.9638082e-08
8.9638025e-08
8.9637986e-08
8.9637986e-08
8.9638006e-08
8.9637974e-08
8.9637849e-08
8.9637605e-08
8.9637239e-08
8.9636802e-08
8.9636335e-08
8.9635524e-08
8.9633126e-08
8.9626941e-08
8.9616813e-08
8.9615277e-08
8.9664483e-08
8.9849072e-08
9.0263684e-08
9.0858717e-08
9.1067259e-08
8.9182712e-08
8.1824898e-08
6.3546496e-08
3.3406502e-08
7.9756079e-09
7.3475599e-10
2.5733364e-10
9.0363876e-08
9.036458e-08
9.0365534e-08
9.0366419e-08
9.0367276e-08
9.0368125e-08
9.036897e-08
9.0369807e-08
9.0370626e-08
9.0371414e-08
9.0372168e-08
9.0372899e-08
9.0373632e-08
9.0374386e-08
9.0375169e-08
9.0375979e-08
9.0376803e-08
9.0377599e-08
9.0378341e-08
9.0379046e-08
9.0379741e-08
9.0380365e-08
9.0380798e-08
9.0380944e-08
9.0380764e-08
9.0380418e-08
9.0380221e-08
9.0380167e-08
9.0380172e-08
9.0380187e-08
9.0380181e-08
9.0380146e-08
9.0380095e-08
9.038006e-08
9.0380072e-08
9.0380128e-08
9.0380143e-08
9.0380072e-08
9.0379892e-08
9.0379582e-08
9.0379173e-08
9.0378758e-08
9.0378234e-08
9.0376809e-08
9.0372522e-08
9.0363179e-08
9.0354538e-08
9.0375752e-08
9.0499796e-08
9.0836847e-08
9.1427513e-08
9.1919916e-08
9.0918335e-08
8.5094798e-08
6.9237871e-08
3.9280074e-08
1.0229801e-08
9.0665216e-10
2.4424883e-10
9.1202363e-08
9.1203104e-08
9.1204018e-08
9.1204863e-08
9.1205675e-08
9.1206476e-08
9.1207268e-08
9.1208047e-08
9.12088e-08
9.1209515e-08
9.1210192e-08
9.121085e-08
9.1211515e-08
9.1212207e-08
9.1212932e-08
9.1213686e-08
9.121445e-08
9.1215175e-08
9.121584e-08
9.1216483e-08
9.121713e-08
9.1217702e-08
9.1218068e-08
9.1218141e-08
9.1217846e-08
9.1217424e-08
9.1217224e-08
9.1217191e-08
9.12172e-08
9.1217218e-08
9.1217217e-08
9.121719e-08
9.1217148e-08
9.1217121e-08
9.1217149e-08
9.1217247e-08
9.1217321e-08
9.1217318e-08
9.1217218e-08
9.1216989e-08
9.1216629e-08
9.1216254e-08
9.121589e-08
9.1215159e-08
9.1212642e-08
9.12054e-08
9.1194141e-08
9.1195724e-08
9.1266364e-08
9.1515871e-08
9.204857e-08
9.2704563e-08
9.2442559e-08
8.8336303e-08
7.4971999e-08
4.6019527e-08
1.326086e-08
1.1468344e-09
2.4026013e-10
9.2152328e-08
9.2153114e-08
9.2153995e-08
9.2154786e-08
9.2155537e-08
9.2156273e-08
9.2156998e-08
9.2157705e-08
9.2158375e-08
9.2158998e-08
9.2159581e-08
9.2160149e-08
9.2160733e-08
9.2161352e-08
9.2162007e-08
9.216269e-08
9.2163373e-08
9.2164003e-08
9.2164571e-08
9.2165141e-08
9.2165735e-08
9.2166244e-08
9.2166532e-08
9.2166511e-08
9.2166036e-08
9.2165568e-08
9.216537e-08
9.2165353e-08
9.2165366e-08
9.2165386e-08
9.2165397e-08
9.2165381e-08
9.2165354e-08
9.2165339e-08
9.2165395e-08
9.2165536e-08
9.2165677e-08
9.2165756e-08
9.2165756e-08
9.2165635e-08
9.2165354e-08
9.2165025e-08
9.2164745e-08
9.2164425e-08
9.2163272e-08
9.2158694e-08
9.2148331e-08
9.213893e-08
9.2167544e-08
9.2329509e-08
9.2764782e-08
9.3477138e-08
9.3777953e-08
9.1220164e-08
8.0617648e-08
5.358703e-08
1.7341201e-08
1.5087107e-09
2.4919381e-10
9.3230228e-08
9.3231162e-08
9.323202e-08
9.3232756e-08
9.3233453e-08
9.3234135e-08
9.3234801e-08
9.3235442e-08
9.3236032e-08
9.3236563e-08
9.3237051e-08
9.3237531e-08
9.3238037e-08
9.3238585e-08
9.3239174e-08
9.3239798e-08
9.3240407e-08
9.3240931e-08
9.3241393e-08
9.32419e-08
9.3242454e-08
9.3242912e-08
9.3243128e-08
9.3242933e-08
9.3242263e-08
9.324181e-08
9.3241637e-08
9.3241619e-08
9.3241637e-08
9.3241662e-08
9.3241689e-08
9.3241691e-08
9.3241687e-08
9.3241694e-08
9.3241783e-08
9.3241972e-08
9.3242173e-08
9.3242345e-08
9.3242457e-08
9.3242466e-08
9.3242296e-08
9.324202e-08
9.3241777e-08
9.3241634e-08
9.3241329e-08
9.323923e-08
9.3231877e-08
9.3219131e-08
9.3219784e-08
9.3304184e-08
9.361726e-08
9.4285132e-08
9.4969225e-08
9.3769919e-08
8.5923148e-08
6.1864927e-08
2.2785553e-08
2.0886345e-09
2.6946924e-10
7.0942529e-10
7.4338596e-10
7.6470971e-10
7.7991266e-10
7.9268596e-10
8.0423728e-10
8.1455794e-10
8.2331214e-10
8.3019888e-10
8.3501111e-10
8.3756485e-10
8.3767364e-10
8.3510947e-10
8.2959135e-10
8.2076884e-10
8.0823394e-10
7.9152289e-10
7.7015148e-10
7.4364458e-10
7.115853e-10
6.7369017e-10
6.299637e-10
5.8078039e-10
5.2671897e-10
4.6854676e-10
4.0740849e-10
3.450559e-10
2.8255186e-10
2.2279927e-10
1.6843619e-10
1.2155119e-10
8.5058346e-11
6.1233315e-11
4.8660728e-11
4.8476331e-11
6.2979422e-11
9.1184315e-11
1.2749371e-10
1.6918243e-10
2.1595656e-10
2.6722994e-10
3.2161076e-10
3.7888726e-10
4.363256e-10
4.9286791e-10
5.4812413e-10
6.0132716e-10
6.5167412e-10
6.9869553e-10
7.4233021e-10
7.82683e-10
8.1993396e-10
8.5421995e-10
8.8555445e-10
9.140844e-10
9.4012961e-10
9.6397252e-10
9.8580654e-10
1.0058195e-09
1.0242106e-09
1.0411202e-09
1.0566407e-09
1.070867e-09
1.0839006e-09
1.095842e-09
1.1067864e-09
1.1168239e-09
1.126037e-09
1.1345021e-09
1.142285e-09
1.1494503e-09
1.1560376e-09
1.1621173e-09
1.1676671e-09
5.2734037e-10
5.6153611e-10
5.92958e-10
6.2122246e-10
6.4544281e-10
6.6583001e-10
6.8284172e-10
6.9684453e-10
7.0806922e-10
7.1668146e-10
7.227992e-10
7.2648787e-10
7.277387e-10
7.2645861e-10
7.2246029e-10
7.1547166e-10
7.0514165e-10
6.9106502e-10
6.7281036e-10
6.4995378e-10
6.2214797e-10
5.8884123e-10
5.4957411e-10
5.0468928e-10
4.5507662e-10
4.0194384e-10
3.469416e-10
2.9187605e-10
2.3852081e-10
1.8869623e-10
1.4541885e-10
1.0776148e-10
7.8223199e-11
5.9339592e-11
5.0123593e-11
5.1150414e-11
6.2781034e-11
8.2930781e-11
1.0942196e-10
1.4084699e-10
1.7636818e-10
2.1502027e-10
2.5656929e-10
2.9967113e-10
3.4320783e-10
3.8660039e-10
4.2932878e-10
4.7079887e-10
5.1047916e-10
5.4805993e-10
5.8339669e-10
6.1646429e-10
6.4730026e-10
6.759022e-10
7.0230059e-10
7.2660791e-10
7.4897125e-10
7.6953526e-10
7.8843734e-10
8.0581596e-10
8.2180375e-10
8.3651374e-10
8.5004617e-10
8.6249291e-10
8.7393895e-10
8.8446405e-10
8.941415e-10
9.0304101e-10
9.1122549e-10
9.1875463e-10
9.2568281e-10
9.3205791e-10
9.3793272e-10
9.4332341e-10
1.4163748e-09
1.1873744e-09
1.0036899e-09
8.6111575e-10
7.5654023e-10
6.8401569e-10
6.3702581e-10
6.1109021e-10
6.0142681e-10
6.027516e-10
6.105307e-10
6.2122714e-10
6.3234161e-10
6.4215084e-10
6.4953775e-10
6.5382827e-10
6.5462804e-10
6.5169269e-10
6.4482992e-10
6.3384563e-10
6.1855042e-10
5.9869082e-10
5.7394474e-10
5.4416592e-10
5.0952085e-10
4.7049782e-10
4.2794422e-10
3.8298468e-10
3.3661465e-10
2.9025685e-10
2.455522e-10
2.0425842e-10
1.6707934e-10
1.3571128e-10
1.1120423e-10
9.5217512e-11
8.6707075e-11
8.5099271e-11
8.9623921e-11
9.9327313e-11
1.1366321e-10
1.3175912e-10
1.5300793e-10
1.7671e-10
2.0214373e-10
2.2871735e-10
2.559457e-10
2.8339442e-10
3.1065888e-10
3.3740123e-10
3.6335896e-10
3.8835289e-10
4.1225536e-10
4.3488439e-10
4.5616511e-10
4.7608852e-10
4.946962e-10
5.1203141e-10
5.2815346e-10
5.4315302e-10
5.5710236e-10
5.7006544e-10
5.8210254e-10
5.932712e-10
6.0362677e-10
6.1322241e-10
6.2210873e-10
6.3033416e-10
6.3794453e-10
6.4498339e-10
6.5149212e-10
6.5750955e-10
6.6307575e-10
6.6821333e-10
6.5574166e-09
4.6950482e-09
3.4108507e-09
2.5598609e-09
2.0077413e-09
1.6345207e-09
1.3650941e-09
1.155408e-09
9.8608478e-10
8.5386729e-10
7.5736843e-10
6.8863557e-10
6.4328824e-10
6.1660545e-10
6.0375908e-10
6.0038444e-10
6.0267061e-10
6.0761102e-10
6.1271849e-10
6.1593482e-10
6.154379e-10
6.1047385e-10
6.011166e-10
5.874317e-10
5.6946793e-10
5.4736551e-10
5.2141548e-10
4.9216933e-10
4.6045034e-10
4.2694721e-10
3.9220514e-10
3.5729286e-10
3.2300885e-10
2.9003297e-10
2.5928374e-10
2.3229886e-10
2.0937057e-10
1.9127665e-10
1.7781863e-10
1.6857753e-10
1.6284219e-10
1.6024028e-10
1.606145e-10
1.6358735e-10
1.6874893e-10
1.7570699e-10
1.8407558e-10
1.9355088e-10
2.0385794e-10
2.1474654e-10
2.2599006e-10
2.3739584e-10
2.4881301e-10
2.6011061e-10
2.7117722e-10
2.8192529e-10
2.9228958e-10
3.0222562e-10
3.1170449e-10
3.207109e-10
3.2923909e-10
3.372907e-10
3.4487301e-10
3.5199746e-10
3.586786e-10
3.6493318e-10
3.707794e-10
3.762365e-10
3.8132415e-10
3.860622e-10
3.9047058e-10
3.9456617e-10
3.9837209e-10
4.0189021e-10
2.183648e-08
1.6379029e-08
1.2029217e-08
8.736027e-09
6.3468951e-09
4.6652763e-09
3.5141958e-09
2.7245234e-09
2.1656097e-09
1.7735084e-09
1.487749e-09
1.2698497e-09
1.0964116e-09
9.5569694e-10
8.4255266e-10
7.5781868e-10
6.9531504e-10
6.5209382e-10
6.2479556e-10
6.109625e-10
6.0707706e-10
6.0836879e-10
6.1096454e-10
6.1174876e-10
6.0957643e-10
6.0426347e-10
5.9581498e-10
5.8429858e-10
5.6996279e-10
5.5314141e-10
5.3413007e-10
5.133039e-10
4.9123681e-10
4.6782099e-10
4.4454667e-10
4.2146595e-10
3.9891738e-10
3.7794793e-10
3.5909063e-10
3.4246461e-10
3.2768788e-10
3.1513729e-10
3.0468386e-10
2.9613863e-10
2.8932911e-10
2.8405879e-10
2.8013366e-10
2.7734312e-10
2.7551748e-10
2.7448444e-10
2.7411822e-10
2.7431904e-10
2.7499141e-10
2.7604615e-10
2.7740117e-10
2.7898935e-10
2.8074904e-10
2.8262709e-10
2.8458129e-10
2.8657643e-10
2.8858301e-10
2.9057729e-10
2.9254059e-10
2.9445826e-10
2.9631913e-10
2.9811486e-10
2.9983956e-10
3.0148938e-10
3.0306218e-10
3.0455717e-10
3.059748e-10
3.0731562e-10
3.0858428e-10
3.0977153e-10
4.3889219e-08
3.5778629e-08
2.8316812e-08
2.1885062e-08
1.6599981e-08
1.243114e-08
9.2616571e-09
6.920609e-09
5.2113874e-09
3.9851868e-09
3.1100732e-09
2.4879326e-09
2.0387371e-09
1.70378e-09
1.4536087e-09
1.2598888e-09
1.1055539e-09
9.7853408e-10
8.7394508e-10
7.9059583e-10
7.2803158e-10
6.8356939e-10
6.5620467e-10
6.4157432e-10
6.3528403e-10
6.3358117e-10
6.3369078e-10
6.3313954e-10
6.3115144e-10
6.2753384e-10
6.2229013e-10
6.154769e-10
6.0727348e-10
5.9787347e-10
5.8743351e-10
5.7619586e-10
5.6450415e-10
5.5223327e-10
5.3967838e-10
5.2761981e-10
5.1622969e-10
5.0559661e-10
4.9572062e-10
4.8672945e-10
4.7859423e-10
4.7123433e-10
4.6462489e-10
4.5872774e-10
4.5349177e-10
4.4885708e-10
4.4476687e-10
4.4117388e-10
4.3802195e-10
4.3525981e-10
4.328416e-10
4.3072742e-10
4.2888188e-10
4.2727432e-10
4.2587581e-10
4.2466066e-10
4.2360668e-10
4.2269437e-10
4.2190642e-10
4.2122743e-10
4.20644e-10
4.2014413e-10
4.1971715e-10
4.1935441e-10
4.1904831e-10
4.1879227e-10
4.185805e-10
4.1840827e-10
4.18271e-10
4.1816655e-10
6.3582397e-08
5.5736163e-08
4.7501956e-08