/*--------------------------------*- C++ -*----------------------------------*\
| =========                 |                                                 |
| \\      /  F ield         | OpenFOAM: The Open Source CFD Toolbox           |
|  \\    /   O peration     | Version:  v2006                                 |
|   \\  /    A nd           | Website:  www.openfoam.com                      |
|    \\/     M anipulation  |                                                 |
\*---------------------------------------------------------------------------*/
FoamFile
{
    version     2.0;
    format      ascii;
    class       volScalarField;
    location    "9000";
    object      omega;
}
// * * * * * * * * * * * * * * * * * * * * * * * * * * * * * * * * * * * * * //

dimensions      [0 0 -1 0 0 0 0];


internalField   nonuniform List<scalar> 
55713
(
5.6488824
1.3887735
0.45950975
0.29936544
0.26964614
0.2623831
0.26188485
0.26264559
0.26320365
0.26342775
0.2634744
0.26346666
0.26345468
0.26344874
0.26344838
0.26344925
0.26344989
0.2634502
0.26345008
0.26344959
0.26344876
0.26344762
0.26344624
0.26344492
0.26344375
0.26344262
0.26344132
0.26343984
0.26343812
0.26343611
0.26343393
0.26343162
0.26342918
0.26342671
0.26342413
0.26342133
0.2634181
0.2634145
0.2634106
0.26340654
0.26340242
0.26339817
0.26339345
0.26338835
0.26338326
0.26337834
0.26337342
0.26336842
0.26336328
0.26335799
0.26335248
0.26334676
0.26334087
0.26333486
0.26332868
0.26332246
0.26331662
0.26331159
0.26330705
5.1536849
1.2776686
0.43861399
0.30194943
0.27782299
0.27271707
0.2728101
0.273612
0.27407942
0.27422825
0.27423962
0.27422024
0.2742041
0.2741949
0.27418999
0.27418589
0.27418162
0.27417735
0.27417284
0.27416791
0.27416263
0.27415705
0.27415136
0.27414587
0.27414065
0.27413549
0.2741302
0.27412474
0.2741191
0.27411315
0.27410706
0.27410081
0.27409444
0.27408801
0.27408154
0.27407486
0.27406768
0.27405993
0.27405179
0.27404338
0.2740349
0.27402628
0.27401711
0.2740073
0.27399729
0.27398732
0.2739772
0.27396678
0.27395601
0.27394485
0.27393317
0.27392091
0.27390803
0.27389458
0.27388041
0.27386543
0.27384995
0.2738343
0.27381849
4.7199234
1.1857452
0.42333652
0.30680931
0.2877052
0.28415237
0.28465903
0.28545936
0.28583004
0.28591232
0.28589699
0.28586978
0.28585017
0.28583747
0.28582756
0.28581796
0.28580869
0.28579994
0.28579101
0.2857816
0.28577173
0.2857616
0.28575152
0.28574184
0.28573251
0.28572326
0.28571393
0.28570448
0.28569488
0.28568499
0.28567497
0.28566477
0.28565443
0.28564403
0.28563363
0.2856231
0.28561202
0.28560016
0.28558773
0.28557497
0.28556211
0.28554918
0.28553562
0.28552117
0.28550626
0.28549128
0.28547601
0.28546025
0.28544393
0.28542697
0.28540925
0.28539059
0.28537088
0.28535013
0.28532815
0.28530464
0.28527976
0.28525379
0.28522689
4.337913
1.1020561
0.41220226
0.3137248
0.29890826
0.29676681
0.29761365
0.29835618
0.29861865
0.29864455
0.29861086
0.29857922
0.29855672
0.29853999
0.29852477
0.29850964
0.29849541
0.29848222
0.29846897
0.29845507
0.2984406
0.29842593
0.29841156
0.29839776
0.29838435
0.29837104
0.29835769
0.29834427
0.29833076
0.29831701
0.2983031
0.29828902
0.29827478
0.29826046
0.29824617
0.29823189
0.29821709
0.2982012
0.29818455
0.29816747
0.29815027
0.29813307
0.29811529
0.29809632
0.2980766
0.29805666
0.29803634
0.29801533
0.29799357
0.29797094
0.29794728
0.29792237
0.29789595
0.29786801
0.29783837
0.2978065
0.29777235
0.2977362
0.29769832
3.9998147
1.0265046
0.40514463
0.32284267
0.31162524
0.31072458
0.31179754
0.31242832
0.31258561
0.31256918
0.31252495
0.31249063
0.31246518
0.31244393
0.31242326
0.31240269
0.31238354
0.31236597
0.31234843
0.31233012
0.31231107
0.3122919
0.31227337
0.31225558
0.31223816
0.3122209
0.31220359
0.31218633
0.31216897
0.31215147
0.31213378
0.31211595
0.31209794
0.31207982
0.31206175
0.31204383
0.31202563
0.31200591
0.31198519
0.31196389
0.31194243
0.31192111
0.31189933
0.31187615
0.31185179
0.31182707
0.31180191
0.31177589
0.31174894
0.31172089
0.31169161
0.31166077
0.311628
0.31159318
0.31155624
0.31151644
0.31147342
0.31142755
0.31137913
3.6992384
0.95791772
0.4019947
0.33566561
0.32602275
0.32620689
0.32737111
0.32784894
0.32791652
0.32787033
0.32782198
0.32778581
0.32775708
0.32773105
0.3277051
0.32767933
0.32765538
0.32763348
0.32761179
0.32758917
0.32756566
0.32754221
0.32751979
0.32749817
0.32747693
0.32745584
0.32743481
0.32741387
0.32739289
0.32737183
0.32735059
0.3273292
0.32730766
0.32728595
0.32726429
0.3272429
0.32722176
0.32719856
0.327174
0.32714868
0.32712315
0.32709792
0.32707252
0.32704556
0.32701692
0.32698768
0.32695801
0.32692734
0.32689561
0.32686259
0.32682812
0.32679186
0.32675326
0.32671208
0.32666835
0.32662128
0.32657003
0.32651514
0.32645685
3.4309456
0.89550189
0.40270673
0.3509773
0.34257168
0.34346403
0.3445229
0.3448312
0.34483085
0.34476977
0.34471998
0.34468184
0.3446494
0.34461872
0.34458787
0.34455735
0.34452882
0.34450275
0.34447704
0.34445037
0.34442263
0.34439527
0.34436938
0.34434425
0.34431943
0.34429481
0.34427037
0.34424607
0.34422181
0.34419751
0.34417305
0.34414847
0.34412374
0.34409882
0.34407391
0.34404934
0.34402577
0.34399974
0.34397172
0.34394273
0.34391345
0.34388464
0.34385613
0.34382608
0.34379371
0.3437604
0.34372675
0.343692
0.34365613
0.34361879
0.34357982
0.3435389
0.3434953
0.34344855
0.34339883
0.34334551
0.34328701
0.3432242
0.34315713
3.1906358
0.83859236
0.40727704
0.36643596
0.36140177
0.36266222
0.36348838
0.3636479
0.36359891
0.36353414
0.36348442
0.36344425
0.3634081
0.36337309
0.36333792
0.36330341
0.36327082
0.36324087
0.3632114
0.36318096
0.36314941
0.36311878
0.36309009
0.36306195
0.36303398
0.36300627
0.36297887
0.36295172
0.36292466
0.36289764
0.36287049
0.36284325
0.36281588
0.36278832
0.36276071
0.36273349
0.36270795
0.36268022
0.36264938
0.36261724
0.36258469
0.36255281
0.36252187
0.36248977
0.36245452
0.36241788
0.36238102
0.36234304
0.36230395
0.36226328
0.36222082
0.36217633
0.36212895
0.3620779
0.36202333
0.36196526
0.36190099
0.36183186
0.36175767
2.9748262
0.78667344
0.41562464
0.38513478
0.38261605
0.38399691
0.38458353
0.38462911
0.38455775
0.38449274
0.38444307
0.38440065
0.38436131
0.3843225
0.38428387
0.38424662
0.38421095
0.38417761
0.38414468
0.38411098
0.38407642
0.38404347
0.38401292
0.38398251
0.38395203
0.38392191
0.38389224
0.38386297
0.38383385
0.38380487
0.3837758
0.38374671
0.38371752
0.38368814
0.38365867
0.3836296
0.38360272
0.3835749
0.38354233
0.38350778
0.3834727
0.3834385
0.38340606
0.3833734
0.38333654
0.38329769
0.3832588
0.38321878
0.38317784
0.3831353
0.38309082
0.38304431
0.38299488
0.38294144
0.3828837
0.38282299
0.3827552
0.38268204
0.38260321
2.7808597
0.73935159
0.42795113
0.40686274
0.40654067
0.40787623
0.40822488
0.40819283
0.40811533
0.40805284
0.40800414
0.40796014
0.40791844
0.40787663
0.40783589
0.40779782
0.40776056
0.40772439
0.40768853
0.40765258
0.40761639
0.40758244
0.40755125
0.40751953
0.40748754
0.40745598
0.40742511
0.40739479
0.40736472
0.40733486
0.40730502
0.40727524
0.40724541
0.40721544
0.40718533
0.40715563
0.40712848
0.40710214
0.40707006
0.4070343
0.40699759
0.40696222
0.40692957
0.40689836
0.40686185
0.40682245
0.4067833
0.40674295
0.40670211
0.40665982
0.40661541
0.40656913
0.40652003
0.40646706
0.40640866
0.40634823
0.40628028
0.40620631
0.40612647
2.6065822
0.69633273
0.44532407
0.43230736
0.43367315
0.43478
0.43492755
0.4348577
0.43478563
0.43472711
0.43468069
0.43463667
0.43459377
0.43455055
0.43450986
0.43447399
0.43443653
0.43439819
0.43436054
0.43432448
0.43428887
0.43425544
0.43422494
0.43419317
0.43416116
0.43412982
0.43409937
0.43406963
0.43404023
0.43401115
0.43398216
0.43395337
0.4339246
0.43389585
0.43386688
0.43383828
0.4338123
0.43378935
0.43376139
0.43372645
0.43368931
0.43365437
0.43362351
0.43359585
0.43356309
0.43352551
0.43348876
0.43345041
0.43341238
0.43337352
0.43333211
0.43328923
0.43324383
0.43319532
0.4331403
0.43308392
0.43302095
0.43295053
0.43287495
2.449588
0.65749991
0.47162682
0.46252212
0.46459753
0.46532932
0.46534278
0.46527199
0.46520874
0.46515613
0.46511478
0.46507327
0.46503105
0.46498953
0.46495307
0.46492351
0.46488549
0.46484665
0.46480992
0.46477779
0.46474623
0.46471489
0.46468622
0.46465628
0.46462678
0.46459834
0.46457081
0.46454404
0.46451766
0.46449172
0.46446598
0.4644406
0.46441535
0.46439033
0.46436518
0.46434025
0.46431757
0.46430002
0.46428091
0.46425062
0.4642152
0.46418286
0.46415627
0.4641347
0.46411071
0.46407807
0.46404799
0.46401471
0.46398338
0.46395221
0.46391807
0.46388288
0.46384599
0.46380697
0.46376197
0.46371416
0.46366384
0.46360272
0.4635389
2.308718
0.62273893
0.50601743
0.49857217
0.50000333
0.50029338
0.50024927
0.50019534
0.50014786
0.50010609
0.5000747
0.50004093
0.50000314
0.49996814
0.49994416
0.49992299
0.49988218
0.49984673
0.49981671
0.49979586
0.49977349
0.49974653
0.49972159
0.49969629
0.49967256
0.4996504
0.49962925
0.49960875
0.49958879
0.49956935
0.49955032
0.49953182
0.49951362
0.49949585
0.49947821
0.49946085
0.49944506
0.49943504
0.49942838
0.49941007
0.49938041
0.4993537
0.49933492
0.49932294
0.49931169
0.49928902
0.49927115
0.49924845
0.49922921
0.4992104
0.4991897
0.4991677
0.49914584
0.49912221
0.49909588
0.49906295
0.49903461
0.49899175
0.49894971
2.1825327
0.59147493
0.54115097
0.5400564
0.54042265
0.54041026
0.54038012
0.54035031
0.54032353
0.54029952
0.54028683
0.54026297
0.54023805
0.5402172
0.54021282
0.54019949
0.54016479
0.54014099
0.54013011
0.54012692
0.54011775
0.5400952
0.54007793
0.54006428
0.54005252
0.54004182
0.5400319
0.54002249
0.5400138
0.54000556
0.53999805
0.53999102
0.53998461
0.53997865
0.53997328
0.53996826
0.53996428
0.53996471
0.53997241
0.53997155
0.5399543
0.53994285
0.53993927
0.53994002
0.53994158
0.53993818
0.53993696
0.5399348
0.53993419
0.53993304
0.53993285
0.53993127
0.53993146
0.53993037
0.53993006
0.53992391
0.53992436
0.53991489
0.53990776
0.17901069
0.17901
0.17900891
0.17901223
0.17901476
0.17901781
0.17902089
0.17902406
0.17902725
0.17903044
0.17903358
0.17903667
0.17903968
0.17904261
0.17904546
0.17904822
0.17905093
0.17905361
0.17905624
0.17905878
0.17906114
0.17906325
0.17906509
0.17906666
0.17906805
0.17906928
0.17907028
0.179071
0.17907145
0.1790716
0.17907146
0.17907101
0.17907026
0.17906924
0.17906799
0.17906655
0.17906492
0.17906307
0.17906092
0.17905847
0.17905607
0.17905455
0.17905464
0.17905444
0.17904462
0.1790038
0.17890096
0.17871594
0.17848843
0.17840175
0.1789256
0.1811443
0.18855542
0.21030598
0.2722902
0.45015666
0.99039085
3.1721289
15.453891
0.18146454
0.18146404
0.18146462
0.1814676
0.1814704
0.18147345
0.18147659
0.18147979
0.18148302
0.18148621
0.18148937
0.18149246
0.18149548
0.18149841
0.18150125
0.18150402
0.18150674
0.18150944
0.1815121
0.18151465
0.18151701
0.18151911
0.18152094
0.18152252
0.18152391
0.18152514
0.18152613
0.18152683
0.18152725
0.18152738
0.18152721
0.18152674
0.18152597
0.18152494
0.18152369
0.18152224
0.18152059
0.18151872
0.18151656
0.18151415
0.18151182
0.18151035
0.18151026
0.18150962
0.18149961
0.18146003
0.18136076
0.18117928
0.18094591
0.18082596
0.18126784
0.1833796
0.19012132
0.21032024
0.26860556
0.43766764
0.95584081
3.0648076
14.652006
0.18418867
0.18418838
0.18418959
0.18419249
0.18419541
0.1841985
0.18420171
0.18420496
0.18420822
0.18421145
0.18421463
0.18421774
0.18422077
0.18422371
0.18422657
0.18422935
0.18423209
0.18423481
0.18423749
0.18424005
0.18424241
0.18424452
0.18424635
0.18424794
0.18424935
0.18425058
0.18425157
0.18425228
0.1842527
0.18425285
0.18425269
0.18425224
0.18425149
0.18425048
0.18424925
0.18424782
0.18424621
0.18424437
0.18424225
0.18423982
0.18423734
0.18423555
0.18423531
0.18423569
0.18422972
0.18419907
0.18411293
0.18394167
0.1836984
0.18352017
0.18380706
0.18553967
0.19132342
0.2092664
0.2623244
0.41909702
0.90815505
2.9073122
13.854115
0.18722317
0.18722311
0.18722499
0.18722782
0.18723085
0.18723398
0.18723724
0.18724053
0.18724382
0.18724707
0.18725026
0.18725337
0.1872564
0.18725934
0.18726219
0.18726497
0.18726772
0.18727046
0.18727316
0.18727572
0.18727807
0.18728017
0.187282
0.18728359
0.187285
0.18728624
0.18728722
0.18728792
0.18728834
0.18728849
0.18728834
0.18728789
0.18728715
0.18728616
0.18728494
0.18728355
0.18728196
0.18728016
0.18727808
0.18727566
0.18727312
0.1872711
0.18727056
0.18727121
0.18726769
0.1872438
0.18716959
0.18701069
0.18676495
0.18654147
0.18670066
0.18813618
0.19312294
0.20906413
0.25722881
0.40246478
0.86319654
2.7559893
13.063506
0.19061322
0.19061351
0.19061584
0.19061866
0.19062176
0.19062494
0.19062824
0.19063155
0.19063485
0.1906381
0.19064129
0.19064439
0.1906474
0.19065032
0.19065316
0.19065593
0.19065868
0.19066143
0.19066414
0.19066669
0.19066902
0.1906711
0.19067292
0.1906745
0.19067592
0.19067715
0.19067812
0.1906788
0.19067923
0.19067938
0.19067924
0.1906788
0.19067807
0.1906771
0.19067591
0.19067455
0.190673
0.19067124
0.19066921
0.19066684
0.19066424
0.190662
0.19066113
0.19066193
0.1906607
0.19064365
0.19058231
0.19043863
0.19019557
0.1899316
0.18996054
0.19109425
0.19531598
0.20930286
0.25253249
0.38607671
0.81831924
2.6055767
12.283344
0.19441364
0.19441443
0.19441705
0.1944199
0.19442303
0.19442625
0.19442957
0.19443289
0.19443619
0.19443942
0.19444259
0.19444566
0.19444864
0.19445152
0.19445432
0.19445707
0.19445981
0.19446255
0.19446524
0.19446777
0.19447007
0.19447212
0.19447391
0.19447548
0.19447689
0.1944781
0.19447905
0.19447972
0.19448014
0.19448029
0.19448016
0.19447973
0.19447902
0.19447807
0.19447692
0.1944756
0.1944741
0.1944724
0.19447043
0.19446812
0.19446551
0.19446309
0.19446184
0.19446252
0.19446295
0.19445201
0.1944036
0.19427761
0.1940438
0.19374945
0.19365661
0.19450096
0.19803456
0.21013006
0.24859409
0.37052265
0.77428208
2.4572966
11.516779
0.19869078
0.19869207
0.19869483
0.19869771
0.19870086
0.1987041
0.19870742
0.19871072
0.19871399
0.19871717
0.19872028
0.19872329
0.19872621
0.19872902
0.19873177
0.19873447
0.19873717
0.19873989
0.19874254
0.19874502
0.19874727
0.19874926
0.19875101
0.19875256
0.19875394
0.19875512
0.19875603
0.19875668
0.19875709
0.19875724
0.19875712
0.19875671
0.19875603
0.1987551
0.198754
0.19875273
0.19875131
0.19874968
0.19874779
0.19874557
0.198743
0.19874045
0.19873882
0.19873916
0.19874071
0.19873508
0.19869933
0.19859307
0.19837494
0.19806179
0.19785859
0.19841819
0.20146465
0.2116018
0.24546808
0.35589088
0.73127049
2.3117559
10.76681
0.20352554
0.20352721
0.20352999
0.2035329
0.20353605
0.20353929
0.20354258
0.20354582
0.20354901
0.20355211
0.20355513
0.20355803
0.20356084
0.20356355
0.2035662
0.20356882
0.20357146
0.20357411
0.2035767
0.20357909
0.20358125
0.20358317
0.20358486
0.20358635
0.20358769
0.20358882
0.20358969
0.2035903
0.2035907
0.20359085
0.20359074
0.20359035
0.20358969
0.20358881
0.20358776
0.20358657
0.20358523
0.2035837
0.20358193
0.20357982
0.20357735
0.20357474
0.20357278
0.20357264
0.20357469
0.20357335
0.20354949
0.20346435
0.20326812
0.20294936
0.2026582
0.20295208
0.20533591
0.21383909
0.24329452
0.34239592
0.68958914
2.169675
10.03627
0.20901764
0.20901952
0.20902228
0.20902518
0.2090283
0.20903148
0.20903469
0.20903782
0.20904088
0.20904384
0.2090467
0.20904944
0.20905208
0.20905463
0.20905713
0.20905962
0.20906215
0.2090647
0.20906716
0.20906942
0.20907145
0.20907325
0.20907485
0.20907627
0.20907754
0.20907858
0.20907939
0.20907996
0.20908032
0.20908047
0.20908038
0.20908001
0.2090794
0.20907857
0.2090776
0.20907651
0.20907529
0.20907389
0.20907226
0.20907033
0.20906802
0.20906545
0.20906323
0.20906256
0.20906453
0.20906631
0.20905304
0.20898954
0.20882098
0.20850964
0.20814744
0.20820022
0.20999665
0.21692271
0.24220714
0.33024121
0.64954234
2.0318685
9.3277815
0.21529143
0.21529335
0.21529605
0.21529891
0.21530194
0.21530501
0.21530806
0.21531101
0.21531386
0.21531659
0.21531922
0.21532171
0.2153241
0.21532641
0.21532869
0.21533098
0.21533334
0.21533571
0.21533798
0.21534003
0.21534188
0.21534352
0.21534498
0.21534628
0.21534743
0.21534836
0.21534906
0.21534957
0.2153499
0.21535005
0.21534997
0.21534964
0.21534908
0.21534833
0.21534746
0.21534651
0.21534546
0.21534424
0.21534281
0.2153411
0.21533904
0.21533665
0.21533432
0.21533312
0.21533454
0.21533824
0.21533371
0.21529118
0.21515491
0.21486581
0.21445632
0.21428499
0.2155225
0.22108012
0.24235614
0.31964891
0.61144389
1.8993704
8.6437129
0.22250394
0.22250578
0.22250838
0.22251112
0.22251398
0.22251685
0.22251965
0.22252231
0.22252484
0.22252724
0.22252951
0.22253164
0.22253367
0.22253562
0.22253758
0.22253957
0.22254166
0.22254375
0.22254572
0.22254747
0.22254905
0.22255045
0.22255171
0.22255283
0.2225538
0.22255456
0.22255513
0.22255554
0.22255583
0.22255596
0.22255591
0.22255563
0.22255515
0.22255451
0.22255378
0.22255301
0.2225522
0.22255124
0.22255008
0.22254868
0.22254697
0.2225449
0.22254269
0.22254112
0.22254168
0.22254612
0.22254809
0.22252459
0.22242317
0.22217
0.22174311
0.22138263
0.22208528
0.22684161
0.24390747
0.31085745
0.57559594
1.7736051
7.9861507
0.2308552
0.23085698
0.23085943
0.23086195
0.23086457
0.23086713
0.23086955
0.23087178
0.23087386
0.23087577
0.23087753
0.23087914
0.23088065
0.23088211
0.23088359
0.23088515
0.23088683
0.2308885
0.23089003
0.23089135
0.23089255
0.23089362
0.23089459
0.23089544
0.23089614
0.23089665
0.23089703
0.23089732
0.23089754
0.23089765
0.23089765
0.23089744
0.23089708
0.23089659
0.23089606
0.23089555
0.23089506
0.23089447
0.2308937
0.23089272
0.23089149
0.23088992
0.23088805
0.23088638
0.23088613
0.23089027
0.2308963
0.23088864
0.23082225
0.23061615
0.23020319
0.22971789
0.22994738
0.23338455
0.24711418
0.30413086
0.5422494
1.6566537
7.3568759
0.24060038
0.24060226
0.24060445
0.24060667
0.24060895
0.24061108
0.24061298
0.24061464
0.24061609
0.24061735
0.24061842
0.24061934
0.24062016
0.24062093
0.24062177
0.24062275
0.24062387
0.24062495
0.24062585
0.24062659
0.24062728
0.24062792
0.24062848
0.24062895
0.24062928
0.24062944
0.24062955
0.24062969
0.24062983
0.24062991
0.24062999
0.24062989
0.24062969
0.24062942
0.24062916
0.240629
0.24062896
0.24062889
0.24062867
0.24062827
0.24062766
0.24062678
0.24062554
0.24062409
0.24062339
0.24062647
0.24063425
0.24063814
0.24060414
0.24045325
0.24008098
0.23951194
0.23934182
0.24167364
0.25216468
0.29977065
0.51152239
1.5514415
6.7573273
0.25205307
0.25205504
0.25205691
0.25205884
0.25206079
0.25206245
0.25206377
0.2520648
0.25206559
0.25206612
0.25206643
0.25206657
0.25206662
0.25206664
0.25206674
0.25206706
0.25206755
0.25206792
0.25206806
0.25206813
0.25206826
0.2520684
0.2520685
0.25206852
0.25206838
0.25206813
0.25206796
0.25206794
0.252068
0.2520681
0.25206828
0.25206835
0.25206838
0.25206841
0.25206849
0.25206878
0.25206932
0.25206993
0.25207042
0.25207075
0.25207093
0.25207088
0.25207047
0.25206966
0.25206895
0.25207066
0.25207831
0.2520888
0.25208121
0.25198863
0.25168655
0.25109042
0.25056212
0.25187593
0.25966388
0.29813438
0.48314502
1.4605223
6.1885977
17.032397
19.707881
22.773833
26.280231
30.281786
34.838026
40.013298
45.876634
52.501513
59.965432
68.349312
77.736706
88.212774
99.863076
112.77213
127.02173
142.68916
159.84522
178.55212
198.86136
220.81176
244.42749
269.71625
296.66787
325.25325
355.4237
387.11096
420.22645
454.6646
490.3018
526.99871
564.60523
602.95557
641.8789
681.20196
720.74591
760.3343
799.78957
838.94457
877.64265
915.73675
953.09258
989.58986
1025.1194
1059.5904
1092.9276
1125.0685
1155.9633
1185.5787
1213.8936
1240.8971
1266.5907
1290.9837
1314.0942
1335.9478
1356.5752
1376.0129
1394.2998
1411.4784
1427.5943
1442.6931
1456.8219
1470.0277
1482.3584
1493.8608
1504.581
1514.5637
1523.8525
1532.4895
1540.5148
1547.9675
1554.8836
1561.2992
1567.2476
3.6939596
4.3517107
5.0479514
5.7984594
6.6238051
7.5425486
8.5710024
9.7240701
11.016012
12.460922
14.072936
15.866281
17.855093
20.053295
22.474183
25.130242
28.032507
31.190384
34.61089
38.298715
42.25518
46.478238
50.962051
55.698593
60.671067
65.869359
71.275763
76.862009
82.608717
88.472105
94.526424
100.68384
106.85096
113.09736
119.33986
125.6085
132.05657
138.54718
144.92068
151.19907
157.4061
163.52426
169.47032
175.21101
180.68993
186.15741
191.57901
196.88717
202.04173
207.01908
211.80582
216.39594
220.79429
224.94558
228.84415
232.50866
235.95755
239.19553
242.22377
245.06435
247.73163
250.23216
252.57271
254.76044
256.80256
258.70704
260.48064
262.13181
263.66709
265.0952
266.42433
267.66178
268.80045
269.92503
1.1021132
1.2691359
1.4675149
1.6959884
1.9556395
2.248605
2.5777694
2.9466297
3.3591823
3.8198128
4.3331705
4.9040536
5.5372718
6.2375299
7.0092689
7.8565483
8.7828333
9.790876
10.882446
12.058239
13.317626
14.658387
16.076651
17.567363
19.122324
20.734064
22.393797
24.089184
25.810188
27.541522
29.288186
31.038205
32.770831
34.486992
36.178582
37.844479
39.504808
41.158993
42.791116
44.395472
45.973694
47.523299
49.040796
50.520373
51.96109
53.375547
54.760953
56.11405
57.431996
58.711656
59.950053
61.145323
62.284567
63.345829
64.335286
65.258593
66.12356
66.930542
67.69406
68.420655
69.110766
69.764491
70.382249
70.964683
71.512749
72.027533
72.510233
72.962165
73.384701
73.779462
74.148171
74.493167
74.813802
75.117811
0.49348066
0.55868025
0.6372806
0.72963394
0.83679898
0.95996536
1.100386
1.2594119
1.4385363
1.6394081
1.8638314
2.1137363
2.3911303
2.6980423
3.0364447
3.4081803
3.8148552
4.2577629
4.7377478
5.2551252
5.8095792
6.3999613
7.0242514
7.6797813
8.3622209
9.0672593
9.7900235
10.523757
11.262561
11.998727
12.728981
13.449447
14.152789
14.835866
15.495211
16.128772
16.740032
17.330614
17.89933
18.445942
18.971771
19.476977
19.962324
20.428293
20.877013
21.311288
21.730036
22.132763
22.519788
22.891475
23.248163
23.589994
23.916381
24.227128
24.522562
24.803042
25.068638
25.319607
25.556681
25.780264
25.990737
26.188611
26.374448
26.54881
26.712247
26.865293
27.008464
27.142269
27.267191
27.383705
27.492172
27.592805
27.685592
27.773388
0.28970566
0.31725123
0.35183443
0.39387168
0.44413243
0.50345078
0.57263224
0.65243485
0.7435901
0.8468326
0.962931
1.0927035
1.2370174
1.3967772
1.5728902
1.7662329
1.9775886
2.2076031
2.4567021
2.7250387
3.0124356
3.3182645
3.641403
3.9803633
4.3327163
4.6959811
5.067371
5.4430307
5.8194827
6.1926268
6.5595812
6.9178024
7.2639676
7.5962396
7.9128278
8.2125712
8.4962069
8.7641303
9.0162441
9.2529837
9.4753301
9.6839469
9.8795034
10.063335
10.237127
10.402328
10.558997
10.707203
10.847269
10.979569
11.104485
11.222375
11.333369
11.437758
11.536072
11.628773
11.716119
11.798349
11.87576
11.948535
12.016812
12.080775
12.14064
12.196632
12.248969
12.297866
12.343526
12.386148
12.425916
12.463017
12.497606
12.52987
12.559881
12.588186
0.21706259
0.22889953
0.24479509
0.26513605
0.2904677
0.32138785
0.35849621
0.40235811
0.45348473
0.51233304
0.57931734
0.65482703
0.73924055
0.83293584
0.93628561
1.0496497
1.1733462
1.3076272
1.4526341
1.6083603
1.7746201
1.9509695
2.1366805
2.3308239
2.531887
2.738362
2.9485731
3.1601777
3.3710837
3.5789311
3.781998
3.9787026
4.1671657
4.3464235
4.5156221
4.6742792
4.8229124
4.9618338
5.0910788
5.2109861
5.3222119
5.4252501
5.5206641
5.6089625
5.6910538
5.7678805
5.8397009
5.9067181
5.96923
6.0275452
6.0819542
6.1327251
6.180024
6.2240662
6.2651532
6.3035548
6.3394637
6.3730475
6.4044832
6.4338981
6.4613893
6.4870641
6.5110348
6.5334127
6.5543027
6.5738058
6.5920156
6.6090221
6.6249083
6.6397519
6.6536224
6.6665789
6.6787101
6.6900302
0.19015186
0.1944468
0.20130058
0.21099152
0.22388081
0.2403761
0.26091027
0.28591725
0.31580584
0.35093999
0.3916282
0.43812326
0.49062816
0.54930567
0.61428494
0.6856661
0.76351247
0.84784415
0.93861385
1.0356895
1.1388351
1.2476619
1.3616155
1.4800291
1.601869
1.7261374
1.8517545
1.9772186
2.1012205
2.2223392
2.3395399
2.451914
2.5584302
2.6585896
2.7520233
2.838597
2.9187317
2.992774
3.0609152
3.123479
3.1809422
3.2336855
3.2821152
3.3265837
3.3676168
3.4057551
3.4411909
3.4740678
3.5045747
3.5329028
3.5592258
3.5837002
3.6064294
3.6275332
3.6471682
3.6654847
3.6825921
3.6985804
3.7135386
3.7275318
3.7406111
3.7528292
3.7642408
3.7749005
3.7848596
3.7941684
3.8028725
3.811016
3.8186392
3.8257792
3.8324745
3.8387437
3.8446748
3.8500715
0.18030675
0.18079074
0.18290946
0.18690081
0.19301841
0.20153696
0.21275333
0.22697969
0.24452899
0.26569647
0.29074215
0.3198781
0.3532618
0.39099579
0.43313052
0.47966957
0.53057059
0.58574651
0.64505746
0.7083043
0.77522075
0.84544513
0.91851419
0.99390643
1.0708633
1.1486773
1.2266094
1.303657
1.3789736
1.4516863
1.5211621
1.5868876
1.6483323
1.7052799
1.7576258
1.8054131
1.8489846
1.8886595
1.924675
1.9573227
1.9869586
2.013877
2.0383659
2.0606754
2.081122
2.1000172
2.1174963
2.1336558
2.1486082
2.1624624
2.1753143
2.1872477
2.1983211
2.2085993
2.2181624
2.2270898
2.235438
2.2432494
2.2505639
2.2574137
2.263824
2.2698201
2.2754284
2.2806753
2.2855854
2.2901828
2.2944891
2.2985251
2.30231
2.3058608
2.3091981
2.3123207
2.3153108
2.3179136
0.17697219
0.175588
0.1752412
0.17610336
0.17837995
0.18227625
0.18800227
0.19577619
0.20582234
0.21836311
0.23360685
0.25173454
0.27288817
0.29716284
0.3246024
0.35519952
0.38889553
0.4255837
0.46510622
0.50725527
0.55177106
0.59832831
0.64653584
0.6959686
0.74604922
0.79625548
0.84605699
0.89476133
0.94181113
0.98666377
1.0289363
1.0683491
1.1046514
1.1377891
1.1677943
1.1947915
1.219065
1.2408872
1.2604784
1.278074
1.2939286
1.3082526
1.3212377
1.3330473
1.3438687
1.3538719
1.3631603
1.3717993
1.3798443
1.3873454
1.3943453
1.4008806
1.4069771
1.4126638
1.4179776
1.4229495
1.4276027
1.4319593
1.4360411
1.4398651
1.4434453
1.4467954
1.4499296
1.452862
1.4556058
1.4581739
1.4605784
1.4628303
1.4649407
1.4669188
1.4687777
1.4705118
1.4721886
1.4735804
0.17602358
0.17386614
0.17215439
0.17143368
0.17157547
0.17277787
0.17521276
0.17904339
0.18443087
0.19153477
0.2005094
0.21149643
0.22461586
0.23995717
0.25757181
0.27746854
0.29961015
0.3239133
0.3502473
0.3784352
0.40825533
0.43943539
0.47165168
0.50457123
0.53771281
0.57082698
0.60331904
0.63476086
0.66481586
0.6931418
0.71950734
0.74377045
0.76583304
0.78572478
0.80353836
0.81942226
0.8336099
0.84632156
0.85773702
0.86803056
0.87737387
0.88590526
0.89373678
0.90099979
0.90779332
0.91420396
0.92024301
0.92591455
0.93124021
0.93624426
0.94094735
0.94536667
0.94951451
0.95340542
0.95705848
0.96049216
0.96372038
0.96675439
0.96960478
0.97228044
0.97478919
0.97713905
0.97933861
0.98139654
0.98332138
0.98512143
0.98680471
0.98837873
0.98985096
0.99122759
0.99251804
0.99371644
0.99487714
0.99581136
0.17594019
0.17344234
0.17133598
0.16968722
0.16863963
0.1683016
0.16878652
0.1702133
0.17270021
0.17636247
0.18131071
0.18764821
0.19546656
0.20483991
0.21581869
0.2284241
0.24264299
0.25842542
0.27568139
0.29428125
0.31405631
0.33479623
0.35625037
0.37815752
0.40017894
0.42193133
0.44331421
0.46388794
0.48336613
0.50153975
0.51828493
0.53354543
0.54730654
0.55963779
0.57065197
0.58049327
0.5893483
0.59738772
0.60474617
0.61154286
0.61788508
0.62387868
0.62958715
0.63501495
0.64019936
0.64517743
0.64995656
0.65453355
0.65890877
0.66308437
0.66706188
0.6708426
0.6744273
0.67781958
0.68102676
0.68405695
0.68691674
0.68961203
0.69214883
0.69453304
0.69677041
0.69886709
0.70082968
0.70266505
0.70438006
0.70598154
0.70747613
0.7088703
0.71017044
0.71138207
0.7125133
0.71356022
0.71456617
0.71538354
0.17612595
0.17350367
0.17120274
0.16920726
0.16758495
0.16640727
0.16578113
0.16577786
0.16648628
0.16799112
0.17037216
0.17370303
0.1780494
0.18346637
0.1899949
0.19765786
0.20645576
0.21636325
0.22732573
0.23925761
0.25204222
0.26552854
0.27953567
0.29386555
0.30827514
0.32253383
0.33643065
0.34974636
0.36229585
0.37393877
0.38460645
0.39428921
0.40301437
0.41086538
0.41795406
0.4244076
0.4303711
0.43597204
0.44129973
0.44644508
0.45147493
0.45639531
0.46121849
0.46594963
0.47059483
0.47515642
0.47961949
0.48396362
0.48817288
0.49223524
0.49614068
0.49988118
0.5034507
0.50684669
0.51007016
0.51312394
0.51601118
0.51873542
0.5213009
0.52371233
0.5259749
0.52809428
0.53007665
0.53192854
0.5336566
0.5352675
0.53676789
0.53816423
0.53946294
0.54066975
0.54179217
0.54282906
0.54381355
0.54463657
0.17633443
0.17370269
0.17133385
0.16921648
0.16735906
0.16579453
0.16457559
0.16376447
0.16342329
0.16361316
0.16439187
0.16581236
0.16792125
0.1707576
0.17435121
0.17872056
0.18387011
0.1897878
0.19644185
0.20377881
0.21172259
0.22017079
0.22900075
0.23806757
0.24721571
0.25625122
0.26505563
0.27347292
0.28138122
0.28870046
0.29540384
0.30151127
0.30707308
0.31217634
0.3169248
0.32142577
0.32579134
0.33010584
0.33445178
0.33885264
0.34331806
0.34784622
0.35242351
0.35702838
0.36163956
0.3662347
0.37078292
0.3752518
0.3796144
0.38384927
0.38793892
0.39186964
0.39563136
0.39921803
0.40262731
0.40585934
0.40891564
0.41179886
0.41451277
0.41706202
0.41945205
0.42168889
0.42377915
0.42572971
0.42754765
0.42924008
0.43081406
0.4322765
0.43363419
0.43489336
0.4360615
0.43713963
0.43815384
0.43902577
0.17647981
0.17388959
0.17152829
0.16938568
0.16745338
0.16573551
0.16424948
0.16302837
0.16211249
0.16154365
0.16136466
0.16161193
0.1623192
0.16351464
0.16521958
0.16744751
0.17020281
0.17347904
0.17725724
0.18150389
0.18617045
0.19118929
0.19647992
0.20194201
0.20747634
0.21295469
0.21828266
0.22337193
0.22815478
0.23259271
0.23668873
0.24048309
0.24403965
0.24744549
0.25079489
0.25417934
0.25767732
0.26137123
0.26527621
0.26939564
0.27371972
0.27822258
0.2828675
0.2876124
0.29241626
0.29723938
0.3020394
0.30677558
0.31141362
0.31592589
0.32029028
0.32448968
0.32851171
0.33234843
0.33599583
0.3394528
0.3427203
0.3458009
0.34869856
0.35141837
0.3539663
0.35634901
0.35857365
0.3606477
0.36257881
0.36437466
0.36604285
0.36759086
0.36902601
0.37035514
0.37158583
0.37272115
0.37378133
0.37471426
0.17655497
0.17401453
0.17169398
0.16957335
0.16763862
0.16588159
0.16430094
0.16290564
0.16171305
0.16075158
0.16002164
0.15960049
0.15947776
0.15967481
0.16020929
0.16109208
0.16232724
0.16391147
0.16583289
0.16806997
0.17059133
0.17335229
0.1763014
0.17936903
0.18249795
0.1855962
0.18861347
0.19149804
0.19422008
0.19677494
0.19918932
0.20151856
0.20383539
0.20622545
0.20877613
0.21155977
0.21465483
0.21808751
0.22186391
0.22596933
0.23037293
0.23502952