/*--------------------------------*- C++ -*----------------------------------*\
| =========                 |                                                 |
| \\      /  F ield         | OpenFOAM: The Open Source CFD Toolbox           |
|  \\    /   O peration     | Version:  v2006                                 |
|   \\  /    A nd           | Website:  www.openfoam.com                      |
|    \\/     M anipulation  |                                                 |
\*---------------------------------------------------------------------------*/
FoamFile
{
    version     2.0;
    format      ascii;
    class       volScalarField;
    location    "9000";
    object      p;
}
// * * * * * * * * * * * * * * * * * * * * * * * * * * * * * * * * * * * * * //

dimensions      [1 -1 -2 0 0 0 0];


internalField   nonuniform List<scalar> 
55713
(
1.0000297
1.0000297
1.0000297
1.0000297
1.0000297
1.0000297
1.0000297
1.0000297
1.0000297
1.0000297
1.0000297
1.0000297
1.0000297
1.0000297
1.0000297
1.0000297
1.0000297
1.0000297
1.0000297
1.0000297
1.0000297
1.0000297
1.0000297
1.0000297
1.0000297
1.0000297
1.0000297
1.0000297
1.0000297
1.0000297
1.0000297
1.0000297
1.0000297
1.0000297
1.0000297
1.0000297
1.0000297
1.0000297
1.0000297
1.0000297
1.0000297
1.0000297
1.0000297
1.0000297
1.0000297
1.0000297
1.0000297
1.0000297
1.0000297
1.0000297
1.0000297
1.0000297
1.0000297
1.0000297
1.0000297
1.0000297
1.0000297
1.0000297
1.0000297
1.0000278
1.0000278
1.0000278
1.0000278
1.0000278
1.0000278
1.0000278
1.0000278
1.0000278
1.0000278
1.0000278
1.0000278
1.0000278
1.0000278
1.0000278
1.0000278
1.0000278
1.0000278
1.0000278
1.0000278
1.0000278
1.0000278
1.0000278
1.0000278
1.0000278
1.0000278
1.0000278
1.0000278
1.0000278
1.0000278
1.0000278
1.0000278
1.0000278
1.0000278
1.0000278
1.0000278
1.0000278
1.0000278
1.0000278
1.0000278
1.0000278
1.0000278
1.0000278
1.0000278
1.0000278
1.0000278
1.0000278
1.0000278
1.0000278
1.0000278
1.0000278
1.0000278
1.0000278
1.0000278
1.0000278
1.0000278
1.0000278
1.0000278
1.0000278
1.0000261
1.0000261
1.0000261
1.0000261
1.0000261
1.0000261
1.0000261
1.0000261
1.0000261
1.0000261
1.0000261
1.0000261
1.0000261
1.0000261
1.0000261
1.0000261
1.0000261
1.0000261
1.0000261
1.0000261
1.0000261
1.0000261
1.0000261
1.0000261
1.0000261
1.0000261
1.0000261
1.0000261
1.0000261
1.0000261
1.0000261
1.0000261
1.0000261
1.0000261
1.0000261
1.0000261
1.0000261
1.0000261
1.0000261
1.0000261
1.0000261
1.0000261
1.0000261
1.0000261
1.0000261
1.0000261
1.0000261
1.0000261
1.0000261
1.0000261
1.0000261
1.0000261
1.0000261
1.0000261
1.0000261
1.0000261
1.0000261
1.0000261
1.0000261
1.0000246
1.0000246
1.0000246
1.0000246
1.0000246
1.0000246
1.0000246
1.0000246
1.0000246
1.0000246
1.0000246
1.0000247
1.0000247
1.0000247
1.0000247
1.0000247
1.0000247
1.0000247
1.0000247
1.0000247
1.0000247
1.0000247
1.0000247
1.0000247
1.0000247
1.0000247
1.0000247
1.0000247
1.0000247
1.0000247
1.0000247
1.0000247
1.0000247
1.0000247
1.0000247
1.0000247
1.0000247
1.0000247
1.0000247
1.0000247
1.0000247
1.0000247
1.0000247
1.0000247
1.0000247
1.0000247
1.0000247
1.0000247
1.0000247
1.0000247
1.0000247
1.0000247
1.0000247
1.0000247
1.0000247
1.0000247
1.0000247
1.0000247
1.0000247
1.0000234
1.0000234
1.0000234
1.0000234
1.0000234
1.0000234
1.0000234
1.0000234
1.0000234
1.0000234
1.0000234
1.0000234
1.0000234
1.0000234
1.0000234
1.0000234
1.0000234
1.0000234
1.0000234
1.0000234
1.0000234
1.0000234
1.0000234
1.0000234
1.0000234
1.0000234
1.0000234
1.0000234
1.0000234
1.0000234
1.0000234
1.0000234
1.0000234
1.0000234
1.0000234
1.0000234
1.0000234
1.0000234
1.0000234
1.0000234
1.0000234
1.0000234
1.0000234
1.0000234
1.0000234
1.0000234
1.0000234
1.0000234
1.0000234
1.0000234
1.0000234
1.0000234
1.0000234
1.0000234
1.0000234
1.0000234
1.0000234
1.0000234
1.0000234
1.0000223
1.0000223
1.0000223
1.0000223
1.0000223
1.0000223
1.0000223
1.0000223
1.0000223
1.0000223
1.0000223
1.0000223
1.0000223
1.0000223
1.0000223
1.0000223
1.0000223
1.0000223
1.0000223
1.0000223
1.0000223
1.0000223
1.0000223
1.0000223
1.0000223
1.0000223
1.0000223
1.0000223
1.0000223
1.0000223
1.0000223
1.0000223
1.0000223
1.0000223
1.0000223
1.0000223
1.0000223
1.0000223
1.0000223
1.0000223
1.0000224
1.0000224
1.0000224
1.0000224
1.0000224
1.0000224
1.0000224
1.0000224
1.0000224
1.0000224
1.0000224
1.0000224
1.0000224
1.0000224
1.0000224
1.0000224
1.0000224
1.0000224
1.0000224
1.0000213
1.0000213
1.0000213
1.0000213
1.0000213
1.0000213
1.0000213
1.0000213
1.0000213
1.0000213
1.0000213
1.0000213
1.0000213
1.0000214
1.0000214
1.0000214
1.0000214
1.0000214
1.0000214
1.0000214
1.0000214
1.0000214
1.0000214
1.0000214
1.0000214
1.0000214
1.0000214
1.0000214
1.0000214
1.0000214
1.0000214
1.0000214
1.0000214
1.0000214
1.0000214
1.0000214
1.0000214
1.0000214
1.0000214
1.0000214
1.0000214
1.0000214
1.0000214
1.0000214
1.0000214
1.0000214
1.0000214
1.0000214
1.0000214
1.0000214
1.0000214
1.0000214
1.0000214
1.0000214
1.0000214
1.0000214
1.0000214
1.0000214
1.0000214
1.0000205
1.0000205
1.0000205
1.0000205
1.0000205
1.0000205
1.0000205
1.0000205
1.0000205
1.0000205
1.0000205
1.0000205
1.0000205
1.0000205
1.0000205
1.0000205
1.0000205
1.0000205
1.0000205
1.0000205
1.0000205
1.0000205
1.0000205
1.0000205
1.0000205
1.0000205
1.0000205
1.0000205
1.0000205
1.0000205
1.0000205
1.0000205
1.0000205
1.0000205
1.0000205
1.0000205
1.0000205
1.0000205
1.0000205
1.0000205
1.0000205
1.0000205
1.0000205
1.0000205
1.0000205
1.0000205
1.0000205
1.0000205
1.0000205
1.0000205
1.0000205
1.0000205
1.0000205
1.0000205
1.0000205
1.0000205
1.0000205
1.0000205
1.0000205
1.00002
1.00002
1.00002
1.00002
1.00002
1.00002
1.00002
1.00002
1.00002
1.00002
1.00002
1.00002
1.00002
1.00002
1.00002
1.00002
1.00002
1.00002
1.00002
1.00002
1.00002
1.00002
1.00002
1.00002
1.00002
1.00002
1.00002
1.00002
1.00002
1.00002
1.00002
1.00002
1.00002
1.00002
1.00002
1.00002
1.00002
1.00002
1.00002
1.00002
1.00002
1.00002
1.00002
1.00002
1.00002
1.00002
1.00002
1.00002
1.00002
1.00002
1.00002
1.00002
1.00002
1.00002
1.00002
1.00002
1.00002
1.00002
1.00002
1.0000196
1.0000196
1.0000197
1.0000197
1.0000197
1.0000197
1.0000197
1.0000197
1.0000197
1.0000197
1.0000197
1.0000197
1.0000197
1.0000197
1.0000197
1.0000197
1.0000197
1.0000197
1.0000197
1.0000197
1.0000197
1.0000197
1.0000197
1.0000197
1.0000197
1.0000197
1.0000197
1.0000197
1.0000197
1.0000197
1.0000197
1.0000197
1.0000197
1.0000197
1.0000197
1.0000197
1.0000197
1.0000197
1.0000197
1.0000197
1.0000197
1.0000197
1.0000197
1.0000197
1.0000197
1.0000197
1.0000197
1.0000197
1.0000197
1.0000197
1.0000197
1.0000197
1.0000197
1.0000197
1.0000197
1.0000197
1.0000197
1.0000197
1.0000197
1.0000178
1.0000178
1.0000178
1.0000178
1.0000179
1.0000179
1.0000179
1.0000179
1.0000179
1.0000179
1.0000179
1.0000179
1.0000179
1.0000179
1.0000179
1.0000179
1.0000179
1.0000179
1.0000179
1.0000179
1.0000179
1.0000179
1.0000179
1.0000179
1.0000179
1.0000179
1.0000179
1.0000179
1.0000179
1.0000179
1.0000179
1.0000179
1.0000179
1.0000179
1.0000179
1.0000179
1.0000179
1.0000179
1.0000179
1.0000179
1.0000179
1.0000179
1.0000179
1.0000179
1.0000179
1.0000179
1.0000179
1.0000179
1.0000179
1.0000179
1.0000179
1.0000179
1.0000179
1.0000179
1.0000179
1.0000179
1.0000179
1.0000179
1.0000179
1.0000178
1.0000178
1.0000178
1.0000178
1.0000178
1.0000178
1.0000178
1.0000178
1.0000177
1.0000177
1.0000177
1.0000177
1.0000177
1.0000177
1.0000177
1.0000177
1.0000177
1.0000177
1.0000177
1.0000177
1.0000177
1.0000177
1.0000177
1.0000177
1.0000177
1.0000177
1.0000177
1.0000177
1.0000177
1.0000177
1.0000177
1.0000177
1.0000177
1.0000176
1.0000176
1.0000176
1.0000176
1.0000176
1.0000176
1.0000176
1.0000176
1.0000176
1.0000176
1.0000176
1.0000176
1.0000176
1.0000176
1.0000176
1.0000176
1.0000176
1.0000176
1.0000176
1.0000176
1.0000176
1.0000176
1.0000176
1.0000176
1.0000175
1.0000175
1.0000268
1.0000268
1.0000268
1.0000268
1.0000268
1.0000268
1.0000268
1.0000268
1.0000268
1.0000268
1.0000268
1.0000268
1.0000268
1.0000268
1.0000268
1.0000268
1.0000268
1.0000268
1.0000268
1.0000268
1.0000268
1.0000268
1.0000268
1.0000268
1.0000268
1.0000268
1.0000268
1.0000268
1.0000268
1.0000268
1.0000268
1.0000268
1.0000268
1.0000268
1.0000268
1.0000268
1.0000268
1.0000268
1.0000268
1.0000268
1.0000268
1.0000268
1.0000268
1.0000268
1.0000268
1.0000268
1.0000268
1.0000268
1.0000268
1.0000268
1.0000268
1.0000268
1.0000268
1.0000268
1.0000268
1.0000268
1.0000268
1.0000268
1.0000268
1.000017
1.000017
1.000017
1.000017
1.000017
1.000017
1.000017
1.000017
1.000017
1.000017
1.000017
1.0000171
1.0000171
1.0000171
1.0000171
1.0000171
1.0000171
1.0000171
1.0000171
1.0000171
1.0000171
1.0000171
1.0000171
1.0000171
1.0000171
1.0000171
1.0000171
1.0000171
1.0000171
1.0000171
1.0000171
1.0000171
1.0000171
1.0000171
1.0000171
1.0000171
1.0000171
1.0000171
1.0000171
1.0000171
1.0000171
1.0000171
1.0000171
1.0000171
1.0000171
1.0000171
1.0000171
1.0000171
1.0000171
1.0000171
1.0000171
1.0000171
1.0000171
1.0000171
1.0000171
1.0000171
1.0000171
1.0000171
1.0000171
1.0001109
1.0001109
1.000111
1.000111
1.000111
1.0001111
1.0001111
1.0001111
1.0001112
1.0001112
1.0001112
1.0001113
1.0001113
1.0001113
1.0001114
1.0001114
1.0001114
1.0001114
1.0001115
1.0001115
1.0001115
1.0001116
1.0001116
1.0001116
1.0001116
1.0001116
1.0001117
1.0001117
1.0001117
1.0001117
1.0001117
1.0001118
1.0001118
1.0001118
1.0001118
1.0001118
1.0001118
1.0001119
1.0001119
1.0001119
1.0001119
1.0001119
1.0001119
1.0001119
1.0001119
1.0001119
1.000112
1.000112
1.000112
1.000112
1.000112
1.000112
1.000112
1.000112
1.000112
1.000112
1.000112
1.000112
1.000112
1.0001018
1.0001018
1.0001018
1.0001018
1.0001019
1.0001019
1.0001019
1.000102
1.000102
1.000102
1.000102
1.0001021
1.0001021
1.0001021
1.0001021
1.0001022
1.0001022
1.0001022
1.0001022
1.0001022
1.0001023
1.0001023
1.0001023
1.0001023
1.0001023
1.0001024
1.0001024
1.0001024
1.0001024
1.0001024
1.0001024
1.0001025
1.0001025
1.0001025
1.0001025
1.0001025
1.0001025
1.0001025
1.0001025
1.0001026
1.0001026
1.0001026
1.0001026
1.0001026
1.0001026
1.0001026
1.0001026
1.0001026
1.0001026
1.0001026
1.0001026
1.0001026
1.0001026
1.0001026
1.0001027
1.0001027
1.0001027
1.0001027
1.0001027
1.0000932
1.0000932
1.0000933
1.0000933
1.0000933
1.0000933
1.0000933
1.0000934
1.0000934
1.0000934
1.0000934
1.0000935
1.0000935
1.0000935
1.0000935
1.0000935
1.0000936
1.0000936
1.0000936
1.0000936
1.0000936
1.0000936
1.0000937
1.0000937
1.0000937
1.0000937
1.0000937
1.0000937
1.0000937
1.0000938
1.0000938
1.0000938
1.0000938
1.0000938
1.0000938
1.0000938
1.0000938
1.0000938
1.0000939
1.0000939
1.0000939
1.0000939
1.0000939
1.0000939
1.0000939
1.0000939
1.0000939
1.0000939
1.0000939
1.0000939
1.0000939
1.0000939
1.0000939
1.0000939
1.0000939
1.0000939
1.0000939
1.0000939
1.0000939
1.0000852
1.0000852
1.0000852
1.0000853
1.0000853
1.0000853
1.0000853
1.0000853
1.0000853
1.0000854
1.0000854
1.0000854
1.0000854
1.0000854
1.0000854
1.0000855
1.0000855
1.0000855
1.0000855
1.0000855
1.0000855
1.0000855
1.0000856
1.0000856
1.0000856
1.0000856
1.0000856
1.0000856
1.0000856
1.0000856
1.0000857
1.0000857
1.0000857
1.0000857
1.0000857
1.0000857
1.0000857
1.0000857
1.0000857
1.0000857
1.0000857
1.0000857
1.0000857
1.0000858
1.0000858
1.0000858
1.0000858
1.0000858
1.0000858
1.0000858
1.0000858
1.0000858
1.0000858
1.0000858
1.0000858
1.0000858
1.0000858
1.0000858
1.0000858
1.0000777
1.0000778
1.0000778
1.0000778
1.0000778
1.0000778
1.0000778
1.0000778
1.0000779
1.0000779
1.0000779
1.0000779
1.0000779
1.0000779
1.0000779
1.000078
1.000078
1.000078
1.000078
1.000078
1.000078
1.000078
1.000078
1.000078
1.0000781
1.0000781
1.0000781
1.0000781
1.0000781
1.0000781
1.0000781
1.0000781
1.0000781
1.0000781
1.0000781
1.0000781
1.0000782
1.0000782
1.0000782
1.0000782
1.0000782
1.0000782
1.0000782
1.0000782
1.0000782
1.0000782
1.0000782
1.0000782
1.0000782
1.0000782
1.0000782
1.0000782
1.0000782
1.0000782
1.0000782
1.0000782
1.0000782
1.0000782
1.0000782
1.0000708
1.0000708
1.0000708
1.0000708
1.0000709
1.0000709
1.0000709
1.0000709
1.0000709
1.0000709
1.0000709
1.0000709
1.000071
1.000071
1.000071
1.000071
1.000071
1.000071
1.000071
1.000071
1.000071
1.000071
1.000071
1.0000711
1.0000711
1.0000711
1.0000711
1.0000711
1.0000711
1.0000711
1.0000711
1.0000711
1.0000711
1.0000711
1.0000711
1.0000711
1.0000711
1.0000711
1.0000711
1.0000712
1.0000712
1.0000712
1.0000712
1.0000712
1.0000712
1.0000712
1.0000712
1.0000712
1.0000712
1.0000712
1.0000712
1.0000712
1.0000712
1.0000712
1.0000712
1.0000712
1.0000712
1.0000712
1.0000712
1.0000644
1.0000644
1.0000644
1.0000644
1.0000644
1.0000644
1.0000644
1.0000645
1.0000645
1.0000645
1.0000645
1.0000645
1.0000645
1.0000645
1.0000645
1.0000645
1.0000645
1.0000645
1.0000646
1.0000646
1.0000646
1.0000646
1.0000646
1.0000646
1.0000646
1.0000646
1.0000646
1.0000646
1.0000646
1.0000646
1.0000646
1.0000646
1.0000646
1.0000646
1.0000646
1.0000646
1.0000647
1.0000647
1.0000647
1.0000647
1.0000647
1.0000647
1.0000647
1.0000647
1.0000647
1.0000647
1.0000647
1.0000647
1.0000647
1.0000647
1.0000647
1.0000647
1.0000647
1.0000647
1.0000647
1.0000647
1.0000647
1.0000647
1.0000647
1.0000585
1.0000585
1.0000585
1.0000585
1.0000585
1.0000585
1.0000585
1.0000585
1.0000585
1.0000585
1.0000585
1.0000585
1.0000586
1.0000586
1.0000586
1.0000586
1.0000586
1.0000586
1.0000586
1.0000586
1.0000586
1.0000586
1.0000586
1.0000586
1.0000586
1.0000586
1.0000586
1.0000586
1.0000586
1.0000586
1.0000586
1.0000587
1.0000587
1.0000587
1.0000587
1.0000587
1.0000587
1.0000587
1.0000587
1.0000587
1.0000587
1.0000587
1.0000587
1.0000587
1.0000587
1.0000587
1.0000587
1.0000587
1.0000587
1.0000587
1.0000587
1.0000587
1.0000587
1.0000587
1.0000587
1.0000587
1.0000587
1.0000587
1.0000587
1.000053
1.000053
1.000053
1.000053
1.000053
1.000053
1.000053
1.000053
1.0000531
1.0000531
1.0000531
1.0000531
1.0000531
1.0000531
1.0000531
1.0000531
1.0000531
1.0000531
1.0000531
1.0000531
1.0000531
1.0000531
1.0000531
1.0000531
1.0000531
1.0000531
1.0000531
1.0000531
1.0000531
1.0000532
1.0000532
1.0000532
1.0000532
1.0000532
1.0000532
1.0000532
1.0000532
1.0000532
1.0000532
1.0000532
1.0000532
1.0000532
1.0000532
1.0000532
1.0000532
1.0000532
1.0000532
1.0000532
1.0000532
1.0000532
1.0000532
1.0000532
1.0000532
1.0000532
1.0000532
1.0000532
1.0000532
1.0000532
1.0000532
1.000048
1.000048
1.000048
1.000048
1.000048
1.000048
1.000048
1.000048
1.000048
1.000048
1.0000481
1.0000481
1.0000481
1.0000481
1.0000481
1.0000481
1.0000481
1.0000481
1.0000481
1.0000481
1.0000481
1.0000481
1.0000481
1.0000481
1.0000481
1.0000481
1.0000481
1.0000481
1.0000481
1.0000481
1.0000481
1.0000481
1.0000481
1.0000481
1.0000481
1.0000481
1.0000481
1.0000481
1.0000481
1.0000481
1.0000481
1.0000481
1.0000481
1.0000481
1.0000481
1.0000481
1.0000482
1.0000482
1.0000482
1.0000482
1.0000482
1.0000482
1.0000482
1.0000482
1.0000482
1.0000482
1.0000482
1.0000482
1.0000482
1.0000434
1.0000434
1.0000434
1.0000434
1.0000434
1.0000435
1.0000435
1.0000435
1.0000435
1.0000435
1.0000435
1.0000435
1.0000435
1.0000435
1.0000435
1.0000435
1.0000435
1.0000435
1.0000435
1.0000435
1.0000435
1.0000435
1.0000435
1.0000435
1.0000435
1.0000435
1.0000435
1.0000435
1.0000435
1.0000435
1.0000435
1.0000435
1.0000435
1.0000435
1.0000435
1.0000435
1.0000435
1.0000435
1.0000435
1.0000435
1.0000435
1.0000435
1.0000435
1.0000435
1.0000435
1.0000435
1.0000436
1.0000436
1.0000436
1.0000436
1.0000436
1.0000436
1.0000436
1.0000436
1.0000436
1.0000436
1.0000436
1.0000436
1.0000436
1.0000393
1.0000393
1.0000393
1.0000393
1.0000393
1.0000393
1.0000393
1.0000393
1.0000393
1.0000393
1.0000393
1.0000393
1.0000393
1.0000393
1.0000393
1.0000393
1.0000393
1.0000393
1.0000393
1.0000393
1.0000393
1.0000393
1.0000393
1.0000393
1.0000393
1.0000393
1.0000393
1.0000393
1.0000393
1.0000393
1.0000393
1.0000393
1.0000393
1.0000393
1.0000393
1.0000393
1.0000393
1.0000393
1.0000393
1.0000393
1.0000394
1.0000394
1.0000394
1.0000394
1.0000394
1.0000394
1.0000394
1.0000394
1.0000394
1.0000394
1.0000394
1.0000394
1.0000394
1.0000394
1.0000394
1.0000394
1.0000394
1.0000394
1.0000394
1.0000355
1.0000355
1.0000355
1.0000355
1.0000355
1.0000355
1.0000355
1.0000355
1.0000355
1.0000355
1.0000355
1.0000355
1.0000355
1.0000355
1.0000355
1.0000355
1.0000355
1.0000355
1.0000355
1.0000355
1.0000355
1.0000355
1.0000355
1.0000355
1.0000355
1.0000355
1.0000355
1.0000355
1.0000355
1.0000355
1.0000355
1.0000355
1.0000355
1.0000355
1.0000355
1.0000355
1.0000356
1.0000356
1.0000356
1.0000356
1.0000356
1.0000356
1.0000356
1.0000356
1.0000356
1.0000356
1.0000356
1.0000356
1.0000356
1.0000356
1.0000356
1.0000356
1.0000356
1.0000356
1.0000356
1.0000356
1.0000356
1.0000356
1.0000356
1.0000322
1.0000322
1.0000322
1.0000322
1.0000322
1.0000322
1.0000322
1.0000322
1.0000322
1.0000322
1.0000322
1.0000322
1.0000322
1.0000322
1.0000322
1.0000322
1.0000322
1.0000322
1.0000322
1.0000322
1.0000322
1.0000322
1.0000322
1.0000322
1.0000322
1.0000322
1.0000322
1.0000322
1.0000322
1.0000322
1.0000322
1.0000322
1.0000322
1.0000322
1.0000322
1.0000322
1.0000322
1.0000322
1.0000322
1.0000322
1.0000322
1.0000322
1.0000322
1.0000322
1.0000322
1.0000322
1.0000322
1.0000322
1.0000322
1.0000322
1.0000322
1.0000322
1.0000322
1.0000322
1.0000322
1.0000322
1.0000322
1.0000322
1.0000322
1.000123
1.0001365
1.0001514
1.0001678
1.0001856
1.000205
1.000226
1.0002488
1.0002733
1.0002996
1.0003278
1.0003578
1.0003895
1.0004229
1.0004578
1.0004939
1.0005308
1.0005683
1.0006056
1.0006421
1.000677
1.0007094
1.0007381
1.0007621
1.0007802
1.0007907
1.0007929
1.0007861
1.0007684
1.0007395
1.0006994
1.0006474
1.0005839
1.0005099
1.0004259
1.0003332
1.0002332
1.0001265
1.0000149
0.99990025
0.99978362
0.99966609
0.99954904
0.99943348
0.99932037
0.99920958
0.99910145
0.99899747
0.99889774
0.99880231
0.99871132
0.99862481
0.99854283
0.99846576
0.99839325
0.99832477
0.99826034
0.99819999
0.99814337
0.99809018
0.99804055
0.99799435
0.99795132
0.99791125
0.99787399
0.99783936
0.99780719
0.99777732
0.99774961
0.99772392
0.99770013
0.99767814
0.99765784
0.99763893
1.000123
1.0001365
1.0001514
1.0001678
1.0001856
1.000205
1.000226
1.0002488
1.0002733
1.0002996
1.0003278
1.0003578
1.0003895
1.0004229
1.0004578
1.0004939
1.0005308
1.0005683
1.0006056
1.0006421
1.000677
1.0007094
1.0007381
1.0007621
1.0007802
1.0007907
1.0007929
1.0007861
1.0007684
1.0007395
1.0006994
1.0006474
1.0005839
1.0005099
1.0004259
1.0003332
1.0002331
1.0001264
1.0000149
0.99990025
0.99978362
0.99966607
0.99954901
0.99943343
0.99932034
0.99920959
0.99910145
0.99899745
0.99889772
0.99880228
0.99871129
0.99862477
0.99854279
0.99846574
0.99839323
0.99832475
0.99826031
0.99819995
0.99814332
0.9980901
0.99804046
0.99799427
0.99795124
0.99791118
0.99787393
0.9978393
0.99780713
0.99777727
0.99774955
0.99772386
0.99770005
0.99767804
0.99765775
0.99763886
1.000123
1.0001365
1.0001514
1.0001678
1.0001856
1.000205
1.000226
1.0002488
1.0002733
1.0002996
1.0003278
1.0003578
1.0003895
1.0004229
1.0004578
1.0004939
1.0005308
1.0005683
1.0006056
1.0006421
1.000677
1.0007094
1.0007382
1.0007621
1.0007802
1.0007907
1.0007929
1.0007861
1.0007685
1.0007396
1.0006994
1.0006474
1.0005839
1.0005099
1.0004259
1.0003332
1.0002332
1.0001265
1.0000149
0.99990028
0.99978365
0.99966611
0.99954905
0.99943346
0.9993203
0.99920952
0.99910144
0.99899747
0.99889774
0.99880231
0.99871132
0.99862478
0.99854277
0.99846569
0.99839322
0.99832475
0.99826033
0.99820002
0.99814344
0.9980902
0.99804054
0.99799433
0.99795129
0.99791123
0.99787395
0.99783932
0.99780715
0.99777728
0.99774957
0.99772386
0.99770009
0.99767816
0.99765791
0.99763898
1.000123
1.0001365
1.0001514
1.0001678
1.0001856
1.000205
1.000226
1.0002488
1.0002733
1.0002996
1.0003278
1.0003578
1.0003895
1.0004229
1.0004578
1.0004939
1.0005308
1.0005683
1.0006056
1.0006421
1.000677
1.0007094
1.0007382
1.0007621
1.0007803
1.0007907
1.0007929
1.0007862
1.0007685
1.0007396
1.0006994
1.0006475
1.000584
1.00051
1.000426
1.0003333
1.0002332
1.0001266
1.000015
0.99990038
0.99978374
0.99966622
0.99954916
0.99943355
0.99932033
0.99920955
0.99910154
0.99899756
0.99889782
0.99880238
0.99871138
0.99862487
0.99854292
0.99846581
0.99839323
0.99832473
0.99826029
0.99819992
0.99814326
0.99809009
0.99804049
0.9979943
0.99795128
0.99791123
0.99787398
0.99783935
0.99780718
0.99777731
0.99774958
0.9977238
0.99769982
0.99767785
0.9976579
0.99763926
1.000123
1.0001364
1.0001514
1.0001678
1.0001856
1.000205
1.000226
1.0002488
1.0002733
1.0002996
1.0003278
1.0003578
1.0003895
1.0004229
1.0004578
1.0004938
1.0005308
1.0005682
1.0006056
1.0006421
1.000677
1.0007094
1.0007382
1.0007621
1.0007803
1.0007907
1.0007929
1.0007862
1.0007686
1.0007397
1.0006995
1.0006476
1.0005841
1.0005101
1.0004261
1.0003335
1.0002334
1.0001267
1.0000152
0.99990054
0.99978391
0.99966639
0.99954932
0.9994337
0.99932043
0.99920964
0.99910167
0.99899769
0.99889795
0.99880251
0.99871152
0.99862502
0.99854309
0.99846591
0.99839325
0.99832479
0.99826036
0.99819996
0.99814336
0.99809025
0.99804066
0.99799447
0.99795143
0.99791137
0.9978741
0.99783946
0.99780729
0.99777743
0.99774972
0.99772404
0.99770028
0.99767836
0.99765806
0.99763917
1.000123
1.0001364
1.0001514
1.0001678
1.0001856
1.000205
1.000226
1.0002488
1.0002733
1.0002996
1.0003278
1.0003578
1.0003895
1.0004229
1.0004578
1.0004938
1.0005308
1.0005682
1.0006056
1.0006421
1.000677
1.0007094
1.0007382
1.0007621
1.0007803
1.0007908
1.000793
1.0007863
1.0007687
1.0007398
1.0006997
1.0006477
1.0005843
1.0005103
1.0004263
1.0003337
1.0002336
1.000127
1.0000155
0.9999008
0.99978416
0.99966666
0.99954959
0.99943395
0.99932063
0.99920982
0.9991019
0.99899793
0.99889817
0.99880273
0.99871173
0.99862525
0.99854333
0.99846613
0.99839343
0.99832494
0.99826049
0.99820005
0.99814341
0.99809034
0.99804077
0.99799457
0.99795154
0.99791148
0.99787423
0.9978396
0.99780744
0.99777758
0.99774987
0.99772418
0.99770036
0.99767833
0.997658
0.99763918
1.000123
1.0001364
1.0001514
1.0001678
1.0001856
1.000205
1.000226
1.0002488
1.0002733
1.0002996
1.0003278
1.0003578
1.0003895
1.0004229
1.0004577
1.0004938
1.0005308
1.0005682
1.0006055
1.0006421
1.000677
1.0007094
1.0007382
1.0007622
1.0007804
1.0007908
1.0007931
1.0007864
1.0007688
1.00074
1.0006998
1.000648
1.0005846
1.0005106
1.0004267
1.000334
1.0002339
1.0001273
1.0000158
0.99990118
0.99978455
0.99966705
0.99954998
0.99943433
0.99932094
0.99921012
0.99910225
0.99899827
0.99889851
0.99880306
0.99871206
0.99862559
0.99854369
0.99846644
0.99839368
0.99832515
0.9982607
0.99820025
0.99814362
0.99809059
0.99804105
0.99799486
0.99795184
0.99791178
0.99787452
0.99783989
0.99780772
0.99777787
0.99775018
0.99772451
0.99770074
0.99767873
0.99765837
0.99763949
1.000123
1.0001364
1.0001514
1.0001678
1.0001856
1.000205
1.000226
1.0002488
1.0002733
1.0002996
1.0003278
1.0003577
1.0003895
1.0004229
1.0004577
1.0004938
1.0005308
1.0005682
1.0006055
1.0006421
1.000677
1.0007094
1.0007382
1.0007622
1.0007804
1.0007909
1.0007932
1.0007866
1.000769
1.0007402
1.0007001
1.0006483
1.000585
1.000511
1.0004271
1.0003345
1.0002344
1.0001278
1.0000164
0.99990173
0.9997851
0.99966762
0.99955054
0.99943487
0.99932143
0.99921059
0.99910275
0.99899878
0.998899
0.99880355
0.99871254
0.99862607
0.99854417
0.99846689
0.99839408
0.99832553
0.99826107
0.9982006
0.99814395
0.99809093
0.99804139
0.9979952
0.99795217
0.99791211
0.99787485
0.99784022
0.99780805
0.9977782
0.9977505
0.99772483
0.99770103
0.99767899
0.9976586
0.99763971
1.000123
1.0001364
1.0001514
1.0001678
1.0001856
1.000205
1.000226
1.0002487
1.0002733
1.0002996
1.0003278
1.0003577
1.0003895
1.0004228
1.0004577
1.0004938
1.0005308
1.0005682
1.0006055
1.0006421
1.000677
1.0007094
1.0007383
1.0007623
1.0007805
1.000791
1.0007934
1.0007868
1.0007693
1.0007405
1.0007005
1.0006487
1.0005855
1.0005116
1.0004277
1.0003351
1.0002351
1.0001285
1.0000171
0.9999025
0.99978588
0.99966841
0.99955133
0.99943563
0.99932214
0.99921127
0.99910348
0.9989995
0.99889971
0.99880424
0.99871323
0.99862675
0.99854485
0.99846753
0.99839467
0.99832608
0.9982616
0.99820111
0.99814446
0.99809145
0.99804193
0.99799575
0.99795273
0.99791267
0.99787541
0.99784078
0.99780862
0.99777876
0.99775107
0.9977254
0.99770161
0.99767957
0.99765917
0.99764028
1.000123
1.0001364
1.0001514
1.0001678
1.0001856
1.0002049
1.000226
1.0002487
1.0002732
1.0002996
1.0003277
1.0003577
1.0003894
1.0004228
1.0004577
1.0004938
1.0005307
1.0005682
1.0006055
1.000642
1.000677
1.0007094
1.0007383
1.0007623
1.0007806
1.0007912
1.0007936
1.0007871
1.0007696
1.000741
1.000701
1.0006493
1.0005862
1.0005124
1.0004286
1.000336
1.000236
1.0001295
1.0000182
0.99990356
0.99978695
0.9996695
0.99955242
0.9994367
0.99932315
0.99921226
0.99910449
0.99900051
0.9989007
0.99880521
0.99871419
0.9986277
0.99854579
0.99846843
0.99839552
0.99832689
0.99826239
0.99820188
0.99814522
0.99809221
0.99804269
0.9979965
0.99795346
0.99791339
0.99787612
0.99784148
0.99780931
0.99777945
0.99775175
0.99772607
0.99770226
0.99768021
0.9976598
0.9976409
1.000123
1.0001364
1.0001514
1.0001678
1.0001856
1.0002049
1.000226
1.0002487
1.0002732
1.0002996
1.0003277
1.0003577
1.0003894
1.0004228
1.0004576
1.0004937
1.0005307
1.0005681
1.0006055
1.000642
1.000677
1.0007095
1.0007383
1.0007624
1.0007808
1.0007914
1.0007938
1.0007874
1.0007701
1.0007415
1.0007017
1.0006501
1.0005871
1.0005134
1.0004297
1.0003373
1.0002373
1.0001309
1.0000196
0.99990501
0.99978842
0.99967099
0.99955391
0.99943816
0.99932456
0.99921364
0.99910588
0.99900189
0.99890206
0.99880655
0.99871551
0.998629
0.99854706
0.99846966
0.9983967
0.99832802
0.9982635
0.99820297
0.99814628
0.99809326
0.99804374
0.99799755
0.99795451
0.99791444
0.99787717
0.99784253
0.99781035
0.99778049
0.99775278
0.99772709
0.99770328
0.99768123
0.9976608
0.99764189
1.000123
1.0001364
1.0001514
1.0001677
1.0001855
1.0002049
1.0002259
1.0002487
1.0002732
1.0002995
1.0003277
1.0003577
1.0003894
1.0004228
1.0004576
1.0004937
1.0005307
1.0005681
1.0006054
1.000642
1.000677
1.0007095
1.0007384
1.0007625
1.000781
1.0007916
1.0007942
1.0007879
1.0007707
1.0007423
1.0007026
1.0006512
1.0005883
1.0005147
1.0004312
1.0003389
1.000239
1.0001327
1.0000215
0.99990696
0.9997904
0.99967299
0.99955591
0.99944014
0.99932649
0.99921554
0.99910778
0.99900378
0.99890392
0.99880838
0.9987173
0.99863077
0.99854879
0.99847134
0.99839833
0.99832961
0.99826504
0.99820449
0.99814778
0.99809474
0.99804521
0.997999
0.99795594
0.99791585
0.99787856
0.9978439
0.99781171
0.99778183
0.99775411
0.9977284
0.99770458
0.99768251
0.99766208
0.99764316
1.000123
1.0001364
1.0001514
1.0001677
1.0001855
1.0002049
1.0002259
1.0002487
1.0002732
1.0002995
1.0003276
1.0003576
1.0003893
1.0004227
1.0004576
1.0004936
1.0005306
1.0005681
1.0006054
1.000642
1.000677
1.0007095
1.0007385
1.0007627
1.0007812
1.0007919
1.0007946
1.0007885
1.0007714
1.0007432
1.0007037
1.0006525
1.0005899
1.0005165
1.0004332
1.000341
1.0002412
1.0001351
1.000024
0.99990955
0.99979304
0.99967566
0.99955859
0.9994428
0.9993291
0.99921811
0.99911034
0.99900632
0.99890641
0.99881084
0.99871972
0.99863314
0.99855112
0.99847361
0.99840053
0.99833176
0.99826715
0.99820656
0.99814981
0.99809675
0.99804719
0.99800096
0.99795788
0.99791778
0.99788047
0.99784579
0.99781359
0.99778369
0.99775595
0.99773023
0.99770639
0.99768431
0.99766386
0.99764492
1.000123
1.0001364
1.0001514
1.0001677
1.0001855
1.0002049
1.0002259
1.0002486
1.0002731
1.0002995
1.0003276
1.0003576
1.0003893
1.0004227
1.0004575
1.0004936
1.0005306
1.000568
1.0006054
1.000642
1.000677
1.0007095
1.0007386
1.0007628
1.0007815
1.0007923
1.0007952
1.0007893
1.0007724
1.0007445
1.0007052
1.0006543
1.0005919
1.0005189
1.0004358
1.0003438
1.0002442
1.0001382
1.0000273
0.99991297
0.99979652
0.99967919
0.99956213
0.99944632
0.99933258
0.99922155
0.99911375
0.9990097
0.99890974
0.99881411
0.99872294
0.9986363
0.99855422
0.99847664
0.9984035
0.99833466
0.99826999
0.99820935
0.99815256
0.99809946
0.99804986
0.9980036
0.99796049
0.99792035
0.99788301
0.99784831
0.99781607
0.99778615
0.99775839
0.99773265
0.9977088
0.9976867
0.99766623
0.99764728
1.000123
1.0001364
1.0001513
1.0001677
1.0001855
1.0002049
1.0002259
1.0002486
1.0002731
1.0002994
1.0003276
1.0003575
1.0003892
1.0004226
1.0004574
1.0004935
1.0005305
1.0005679
1.0006053
1.0006419
1.000677
1.0007096
1.0007387
1.0007631
1.0007818
1.0007929
1.0007959
1.0007903
1.0007737
1.0007461
1.0007071
1.0006566
1.0005946
1.0005219
1.0004391
1.0003475
1.0002481
1.0001424
1.0000317
0.99991744
0.99980109
0.99968382
0.99956678
0.99945096
0.99933718
0.9992261
0.99911826
0.99901416
0.99891414
0.99881844
0.99872719
0.99864048
0.99855831
0.99848066
0.99840743
0.99833851
0.99827377
0.99821306
0.99815621
0.99810305
0.99805341
0.9980071
0.99796394
0.99792376
0.99788639
0.99785165
0.99781938
0.99778942
0.99776163
0.99773586
0.99771197
0.99768984
0.99766935
0.99765037
1.000123
1.0001364
1.0001513
1.0001677
1.0001855
1.0002048
1.0002259
1.0002486
1.0002731
1.0002994
1.0003275
1.0003575
1.0003892
1.0004225
1.0004573
1.0004934
1.0005304
1.0005678
1.0006052
1.0006419
1.000677
1.0007096
1.0007388
1.0007633
1.0007822
1.0007935
1.0007969
1.0007915
1.0007753
1.0007481
1.0007096
1.0006595
1.000598
1.0005257
1.0004434
1.0003522
1.0002532
1.0001477
1.0000373
0.99992324
0.99980702
0.99968984
0.99957284
0.99945702
0.99934319
0.99923206
0.99912417
0.99902
0.9989199
0.9988241
0.99873276
0.99864595
0.99856369
0.99848593
0.9984126
0.99834359
0.99827876
0.99821796
0.99816104
0.99810781
0.99805809
0.99801172
0.99796851
0.99792827
0.99789085
0.99785606
0.99782375
0.99779375
0.99776592
0.99774012
0.9977162
0.99769404
0.99767353
0.99765453
1.0001229
1.0001363
1.0001513
1.0001677
1.0001854
1.0002048
1.0002258
1.0002485
1.000273
1.0002993
1.0003274
1.0003574
1.0003891
1.0004224
1.0004572
1.0004933
1.0005303
1.0005677
1.0006051
1.0006418
1.000677
1.0007097
1.000739
1.0007637
1.0007827
1.0007943
1.000798
1.000793
1.0007773
1.0007506
1.0007127
1.0006632
1.0006023
1.0005307
1.0004489
1.0003582
1.0002597
1.0001546
1.0000445
0.99993071
0.99981468
0.99969762
0.99958068
0.99946485
0.999351
0.9992398
0.99913184
0.99902758
0.99892738
0.99883147
0.99874
0.99865307
0.99857067
0.99849279