/*--------------------------------*- C++ -*----------------------------------*\
| =========                 |                                                 |
| \\      /  F ield         | OpenFOAM: The Open Source CFD Toolbox           |
|  \\    /   O peration     | Version:  v2006                                 |
|   \\  /    A nd           | Website:  www.openfoam.com                      |
|    \\/     M anipulation  |                                                 |
\*---------------------------------------------------------------------------*/
FoamFile
{
    version     2.0;
    format      ascii;
    class       surfaceScalarField;
    location    "9000";
    object      phi;
}
// * * * * * * * * * * * * * * * * * * * * * * * * * * * * * * * * * * * * * //

dimensions      [1 0 -1 0 0 0 0];
oriented        oriented;


internalField   nonuniform List<scalar> 
110670
(
1.7248893e-05
-0.00037606968
0.00035882101
3.0311061e-05
-0.00035388675
0.00034082479
4.0130968e-05
-0.00033465039
0.00032483067
4.7403192e-05
-0.00031768454
0.00031041249
5.2653529e-05
-0.0003026071
0.00029735691
5.6284689e-05
-0.00028913588
0.00028550485
5.8608491e-05
-0.00027705177
0.00027472808
5.9869361e-05
-0.00026617808
0.00026491732
6.0260536e-05
-0.00025637018
0.00025597909
5.9936398e-05
-0.00024750691
0.00024783114
5.902083e-05
-0.00023948734
0.00024040298
5.7614091e-05
-0.00023222232
0.00023362914
5.579775e-05
-0.00022563892
0.00022745532
5.3638838e-05
-0.00021967395
0.00022183292
5.1192793e-05
-0.00021427338
0.00021671947
4.8505648e-05
-0.00020939135
0.00021207855
4.5615774e-05
-0.00020498731
0.00020787723
4.2555276e-05
-0.0002010259
0.00020408645
3.9351118e-05
-0.00019747595
0.00020068015
3.6026165e-05
-0.00019431058
0.00019763558
3.2599915e-05
-0.00019150694
0.00019493322
2.9089216e-05
-0.00018904573
0.00019255648
2.5508638e-05
-0.0001869108
0.00019049141
2.1870903e-05
-0.00018508815
0.00018872594
1.8187065e-05
-0.00018356575
0.00018724961
1.4467017e-05
-0.00018233339
0.00018605349
1.0719631e-05
-0.00018138294
0.00018513035
6.953214e-06
-0.00018070824
0.00018447471
3.1755076e-06
-0.00018030509
0.00018408282
-6.0592108e-07
-0.00018017097
0.00018395245
-4.3836839e-06
-0.00018030508
0.00018408286
-8.1502137e-06
-0.00018070822
0.00018447479
-1.1897746e-05
-0.00018138289
0.00018513045
-1.5617965e-05
-0.00018233327
0.00018605353
-1.9301958e-05
-0.00018356544
0.00018724946
-2.2939851e-05
-0.00018508744
0.00018872537
-2.652062e-05
-0.00018690946
0.00019049024
-3.0031619e-05
-0.00018904367
0.0001925547
-3.3458341e-05
-0.00019150433
0.00019493106
-3.678392e-05
-0.00019430784
0.00019763345
-3.9988827e-05
-0.00019747349
0.0002006784
-4.3050153e-05
-0.00020102391
0.00020408527
-4.5940979e-05
-0.00020498579
0.00020787663
-4.862924e-05
-0.00020939015
0.00021207844
-5.1076636e-05
-0.00021427231
0.00021671971
-5.3237116e-05
-0.0002196728
0.00022183331
-5.505527e-05
-0.00022563756
0.00022745572
-5.6463972e-05
-0.00023222092
0.00023362965
-5.7381523e-05
-0.00023948627
0.00024040382
-5.7707511e-05
-0.00024750618
0.00024783219
-5.7318215e-05
-0.00025636913
0.00025597984
-5.6059557e-05
-0.00026617615
0.00026491752
-5.3738503e-05
-0.00027704931
0.00027472826
-5.0110723e-05
-0.00028913411
0.00028550635
-4.4864268e-05
-0.0003026078
0.00029736134
-3.7595735e-05
-0.00031768829
0.00031041978
-2.777671e-05
-0.00033464887
0.00032482984
-1.4704836e-05
-0.00035383319
0.00034076133
-0.0003756874
0.00035841378
2.5687761e-06
1.7286724e-05
-0.00039335657
3.0378954e-05
-0.00036697913
4.0217961e-05
-0.00034448954
4.750256e-05
-0.00032496926
5.2759887e-05
-0.00030786453
5.6393656e-05
-0.00029276973
5.8716732e-05
-0.00027937491
5.9974177e-05
-0.00026743558
6.0359806e-05
-0.00025675585
6.0028391e-05
-0.00024717553
5.910409e-05
-0.00023856307
5.7687397e-05
-0.00023080565
5.5860095e-05
-0.00022381163
5.3689447e-05
-0.00021750331
5.123102e-05
-0.00021181496
4.8530932e-05
-0.00020669127
4.5627688e-05
-0.00020208407
4.2553433e-05
-0.00019795166
3.9335262e-05
-0.00019425777
3.5996033e-05
-0.00019097136
3.255536e-05
-0.00018806625
2.9030084e-05
-0.00018552045
2.5434851e-05
-0.00018331555
2.1782346e-05
-0.00018143563
1.8083671e-05
-0.00017986706
1.4348704e-05
-0.0001785984
1.0586363e-05
-0.00017762059
6.8049539e-06
-0.00017692682
3.0122697e-06
-0.0001765124
-7.841293e-07
-0.00017637456
-4.5768154e-06
-0.00017651238
-8.358251e-06
-0.00017692678
-1.2120609e-05
-0.00017762052
-1.5855621e-05
-0.00017859826
-1.9554305e-05
-0.00017986674
-2.3206819e-05
-0.00018143493
-2.6802051e-05
-0.00018331421
-3.0327384e-05
-0.00018551832
-3.3768237e-05
-0.00018806346
-3.7107741e-05
-0.00019096832
-4.0326252e-05
-0.00019425496
-4.3400833e-05
-0.00019794932
-4.6304461e-05
-0.00020208215
-4.9005084e-05
-0.00020668951
-5.1464322e-05
-0.00021181306
-5.3636044e-05
-0.00021750107
-5.5464627e-05
-0.00022380896
-5.6882746e-05
-0.00023080279
-5.7808413e-05
-0.00023856059
-5.8140962e-05
-0.00024717362
-5.7756326e-05
-0.00025675376
-5.6500066e-05
-0.0002674324
-5.4178615e-05
-0.00027937075
-5.0546952e-05
-0.00029276576
-4.5292222e-05
-0.00030786251
-3.8010026e-05
-0.00032497047
-2.8170453e-05
-0.00034448843
-1.5069088e-05
-0.00036693454
-0.00039300191
2.2454366e-06
1.7327571e-05
-0.00041068413
3.0450341e-05
-0.0003801019
4.0309767e-05
-0.00035434894
4.7607703e-05
-0.00033226718
5.2872835e-05
-0.00031312964
5.6510096e-05
-0.00029640697
5.8833294e-05
-0.00028169809
6.0088164e-05
-0.00026869044
6.0469056e-05
-0.00025713672
6.0131134e-05
-0.00024683759
5.9198851e-05
-0.00023763076
5.7772864e-05
-0.00022937964
5.5935274e-05
-0.00022197403
5.3753591e-05
-0.00021532159
5.1283474e-05
-0.00020934483
4.8571215e-05
-0.00020397898
4.5655345e-05
-0.00019916819
4.2568149e-05
-0.00019486443
3.9336673e-05
-0.00019102629
3.5983895e-05
-0.00018761856
3.2529446e-05
-0.00018461178
2.8990286e-05
-0.00018198128
2.5381102e-05
-0.00017970634
2.1714572e-05
-0.00017776909
1.8001811e-05
-0.00017615427
1.4252642e-05
-0.00017484922
1.0476038e-05
-0.00017384396
6.6802836e-06
-0.00017313104
2.8732316e-06
-0.00017270532
-9.3755333e-07
-0.00017256375
-4.7445958e-06
-0.00017270532
-8.5403227e-06
-0.00017313103
-1.2316909e-05
-0.00017384391
-1.6066036e-05
-0.0001748491
-1.9778753e-05
-0.00017615401
-2.3445152e-05
-0.0001777685
-2.7054183e-05
-0.00017970516
-3.0593169e-05
-0.00018197931
-3.4047539e-05
-0.00018460908
-3.7400318e-05
-0.00018761552
-4.0631839e-05
-0.00019102343
-4.3719075e-05
-0.00019486206
-4.6634988e-05
-0.00019916623
-4.9347447e-05
-0.00020397703
-5.1818032e-05
-0.00020934247
-5.4000476e-05
-0.00021531861
-5.5838988e-05
-0.00022197044
-5.7265986e-05
-0.00022937578
-5.8199225e-05
-0.00023762734
-5.853776e-05
-0.00024683507
-5.815724e-05
-0.00025713427
-5.6902855e-05
-0.00026868677
-5.4580578e-05
-0.00028169302
-5.0944671e-05
-0.00029640165
-4.5681409e-05
-0.00031312577
-3.8385373e-05
-0.0003322665
-2.8525266e-05
-0.00035434853
-1.5394621e-05
-0.00038006518
-0.00041035691
1.9603741e-06
1.7368204e-05
-0.00042805234
3.051994e-05
-0.00039325364
4.0400295e-05
-0.00036422931
4.7712034e-05
-0.00033957893
5.2985489e-05
-0.00031840311
5.6626845e-05
-0.00030004835
5.8950868e-05
-0.00028402212
6.0203842e-05
-0.00026994344
6.0580715e-05
-0.0002575136
6.0237006e-05
-0.00024649391
5.9297371e-05
-0.00023669113
5.7862643e-05
-0.00022794493
5.6015278e-05
-0.00022012666
5.3823005e-05
-0.00021312932
5.1341733e-05
-0.00020686357
4.8617893e-05
-0.00020125512
4.5690122e-05
-0.00019624044
4.2590724e-05
-0.00019176502
3.9346692e-05
-0.00018778229
3.5981078e-05
-0.00018425294
3.2513489e-05
-0.00018114423
2.8961048e-05
-0.00017842885
2.5338479e-05
-0.00017608381
2.1658521e-05
-0.00017408917
1.7932277e-05
-0.00017242804
1.4169541e-05
-0.00017108653
1.037935e-05
-0.00017005378
6.5699306e-06
-0.00016932166
2.7492123e-06
-0.0001688846
-1.0753092e-06
-0.00016873925
-4.8960886e-06
-0.00016888454
-8.7055691e-06
-0.00016932155
-1.2495874e-05
-0.00017005362
-1.6258634e-05
-0.00017108634
-1.9984867e-05
-0.00017242779
-2.3664637e-05
-0.00017408873
-2.7286925e-05
-0.0001760829
-3.0839056e-05
-0.00017842718
-3.4306415e-05
-0.00018114174
-3.7671948e-05
-0.00018425
-4.09159e-05
-0.00018777949
-4.4015223e-05
-0.00019176275
-4.6942806e-05
-0.00019623866
-4.9666483e-05
-0.00020125337
-5.2147756e-05
-0.0002068612
-5.4340257e-05
-0.00021312612
-5.6187964e-05
-0.00022012274
-5.7623119e-05
-0.00022794063
-5.8563208e-05
-0.00023668726
-5.8907057e-05
-0.00024649123
-5.8529996e-05
-0.00025751134
-5.7276878e-05
-0.0002699399
-5.4953181e-05
-0.00028401672
-5.1312528e-05
-0.00030004231
-4.6040198e-05
-0.00031839811
-3.8729897e-05
-0.0003395768
-2.8848858e-05
-0.00036422958
-1.5688674e-05
-0.00039322536
-0.00042775258
1.7069897e-06
1.7408796e-05
-0.00044546111
3.0590604e-05
-0.0004064354
4.0492031e-05
-0.00037413072
4.7817854e-05
-0.00034690472
5.3100074e-05
-0.00032368533
5.6746052e-05
-0.00030369431
5.9071481e-05
-0.00028634755
6.0323265e-05
-0.00027119522
6.0696858e-05
-0.00025788719
6.0348205e-05
-0.00024614527
5.9402025e-05
-0.00023574495
5.795929e-05
-0.00022650222
5.6102816e-05
-0.00021827018
5.3900527e-05
-0.00021092705
5.1408571e-05
-0.0002043716
4.8673637e-05
-0.0001985202
4.5734522e-05
-0.00019330133
4.2623415e-05
-0.00018865391
3.9367384e-05
-0.00018452627
3.5989453e-05
-0.000180875
3.2509314e-05
-0.00017766412
2.8944166e-05
-0.0001748637
2.5308753e-05
-0.00017244842
2.1615872e-05
-0.0001703963
1.7876567e-05
-0.00016868877
1.4100754e-05
-0.00016731073
1.0297414e-05
-0.00016625046
6.4748765e-06
-0.00016549915
2.6410168e-06
-0.00016505075
-1.1966222e-06
-0.00016490164
-5.0305348e-06
-0.00016505064
-8.853165e-06
-0.00016549894
-1.2656614e-05
-0.00016625018
-1.6432522e-05
-0.00016731045
-2.017184e-05
-0.00016868849
-2.3864627e-05
-0.00017039595
-2.7499788e-05
-0.00017244775
-3.1064661e-05
-0.00017486233
-3.4544594e-05
-0.00017766182
-3.7922495e-05
-0.00018087211
-4.1178499e-05
-0.00018452351
-4.4289482e-05
-0.00018865179
-4.7228288e-05
-0.00019329987
-4.9962693e-05
-0.00019851898
-5.245414e-05
-0.00020436977
-5.4656129e-05
-0.00021092415
-5.6512429e-05
-0.00021826646
-5.7955174e-05
-0.0002264979
-5.8901652e-05
-0.00023574079
-5.9250419e-05
-0.00024614248
-5.8876462e-05
-0.00025788531
-5.7624224e-05
-0.00027119215
-5.5298721e-05
-0.00028634223
-5.165299e-05
-0.00030368806
-4.6371275e-05
-0.00032367983
-3.9046423e-05
-0.00034690167
-2.9144253e-05
-0.00037413175
-1.5954429e-05
-0.0004064152
-0.00044518899
1.4819853e-06
1.7449356e-05
-0.00046291051
3.0660835e-05
-0.00041964693
4.0583663e-05
-0.00038405359
4.7923865e-05
-0.00035424497
5.3215259e-05
-0.00032897675
5.6866321e-05
-0.0003073454
5.9193656e-05
-0.00028867492
6.0444658e-05
-0.00027244624
6.0815439e-05
-0.000258258
6.0462359e-05
-0.0002457922
5.9510086e-05
-0.00023479271
5.8059851e-05
-0.000225052
5.6194864e-05
-0.00021640522
5.3983198e-05
-0.00020871542
5.1481132e-05
-0.00020186955
4.8735701e-05
-0.0001957748
4.5785731e-05
-0.00019035137
4.2663339e-05
-0.00018553155
3.9395746e-05
-0.00018125867
3.6005881e-05
-0.00017748516
3.2513652e-05
-0.00017417188
2.8936266e-05
-0.00017128633
2.5288566e-05
-0.00016880072
2.1583227e-05
-0.00016669096
1.7831325e-05
-0.00016493687
1.4042804e-05
-0.00016352221
1.0226688e-05
-0.00016243435
6.3913776e-06
-0.00016166385
2.544728e-06
-0.00016120412
-1.3056545e-06
-0.00016105127
-5.152282e-06
-0.00016120402
-8.9875702e-06
-0.00016166367
-1.2803634e-05
-0.00016243413
-1.6592123e-05
-0.00016352198
-2.0343955e-05
-0.00016493666
-2.4049185e-05
-0.00016669074
-2.7696654e-05
-0.00016880028
-3.1273743e-05
-0.00017128525
-3.476579e-05
-0.00017416977
-3.8155667e-05
-0.00017748224
-4.1423353e-05
-0.00018125582
-4.4545633e-05
-0.00018552951
-4.7495321e-05
-0.00019035018
-5.0240104e-05
-0.00019577421
-5.274134e-05
-0.00020186853
-5.4952465e-05
-0.00020871303
-5.6816969e-05
-0.00021640195
-5.8266914e-05
-0.00022504796
-5.9219415e-05
-0.00023478829
-5.9572735e-05
-0.00024578916
-5.9201514e-05
-0.00025825653
-5.7949778e-05
-0.00027244389
-5.5622111e-05
-0.0002886699
-5.1971047e-05
-0.00030733913
-4.6679725e-05
-0.00032897115
-3.9340144e-05
-0.00035424125
-2.9416804e-05
-0.00038405509
-1.6197374e-05
-0.00041963463
-0.00046266596
1.2795995e-06
1.7490426e-05
-0.00048040094
3.0732196e-05
-0.00043288873
4.067674e-05
-0.00039399813
4.8031594e-05
-0.00036159984
5.3332453e-05
-0.00033427761
5.6988894e-05
-0.00031100185
5.9318371e-05
-0.00029100439
6.0568801e-05
-0.00027369667
6.0937103e-05
-0.00025862631
6.0579882e-05
-0.00024543497
5.9621772e-05
-0.00023383461
5.8164392e-05
-0.00022359461
5.6291454e-05
-0.0002145323
5.4071018e-05
-0.00020649498
5.1559502e-05
-0.00019935805
4.880439e-05
-0.0001930197
4.5844205e-05
-0.00018739119
4.2711124e-05
-0.00018239849
3.9432451e-05
-0.00017798
3.6031111e-05
-0.00017408384
3.2527177e-05
-0.00017066795
2.8938014e-05
-0.00016769718
2.5278474e-05
-0.00016514118
2.1561133e-05
-0.00016297363
1.7797071e-05
-0.00016117281
1.3996231e-05
-0.00015972137
1.0167711e-05
-0.00015860584
6.3199268e-06
-0.00015781606
2.4607892e-06
-0.00015734499
-1.4020728e-06
-0.00015718841
-5.2611523e-06
-0.00015734495
-9.1088341e-06
-0.00015781599
-1.293722e-05
-0.00015860575
-1.6737924e-05
-0.00015972128
-2.0501858e-05
-0.00016117273
-2.4219045e-05
-0.00016297356
-2.7878353e-05
-0.00016514098
-3.146717e-05
-0.00016769644
-3.4970884e-05
-0.00017066606
-3.8372286e-05
-0.00017408085
-4.1651233e-05
-0.00017797687
-4.478435e-05
-0.00018239641
-4.7744478e-05
-0.00018739005
-5.0499189e-05
-0.0001930195
-5.3009777e-05
-0.00019935795
-5.5229735e-05
-0.00020649308
-5.7102117e-05
-0.00021452957
-5.855889e-05
-0.0002235912
-5.9517043e-05
-0.00023383014
-5.9874553e-05
-0.00024543166
-5.9505743e-05
-0.00025862534
-5.8254213e-05
-0.00027369543
-5.5924074e-05
-0.00029100004
-5.2267486e-05
-0.00031099572
-4.6966407e-05
-0.00033427223
-3.9611946e-05
-0.00036159572
-2.9667457e-05
-0.00039399958
-1.6418509e-05
-0.00043288358
-0.00048018328
1.0988086e-06
1.7531983e-05
-0.00049793294
3.0803617e-05
-0.00044616037
4.0770552e-05
-0.00040396508
4.8140413e-05
-0.00036896971
5.3451097e-05
-0.0003395883
5.7113351e-05
-0.00031466412
5.944522e-05
-0.00029333627
6.0695339e-05
-0.00027494681
6.1061593e-05
-0.00025899257
6.0700455e-05
-0.00024507385
5.9736697e-05
-0.00023287086
5.8272528e-05
-0.00022213045
5.6392146e-05
-0.00021265193
5.4163311e-05
-0.00020426615
5.1642756e-05
-0.00019683751
4.8878452e-05
-0.00019025541
4.5908361e-05
-0.00018442112
4.2764843e-05
-0.00017925499
3.9475279e-05
-0.00017469046
3.6062554e-05
-0.00017067114
3.2547048e-05
-0.00016715246
2.8946305e-05
-0.00016409646
2.5275103e-05
-0.00016146999
2.1545949e-05
-0.0001592445
1.7769942e-05
-0.00015739681
1.3957043e-05
-0.0001559085
1.0116394e-05
-0.0001547652
6.256409e-06
-0.0001539561
2.3850448e-06
-0.00015347363
-1.4900801e-06
-0.0001533133
-5.3614216e-06
-0.00015347362
-9.2213549e-06
-0.00015395608
-1.3061947e-05
-0.00015476517
-1.6874787e-05
-0.00015590846
-2.0650752e-05
-0.00015739678
-2.4379834e-05
-0.0001592445
-2.8050878e-05
-0.00016146995
-3.1651263e-05
-0.00016409607
-3.5166453e-05
-0.00016715088
-3.8579169e-05
-0.00017066815
-4.1869202e-05
-0.00017468685
-4.5012899e-05
-0.00017925273
-4.7983193e-05
-0.00018441977
-5.0747541e-05
-0.00019025517
-5.3267149e-05
-0.00019683835
-5.5495729e-05
-0.00020426452
-5.7375742e-05
-0.00021264957
-5.8839042e-05
-0.00022212791
-5.9802547e-05
-0.00023286664
-6.0163946e-05
-0.00024507027
-5.9797233e-05
-0.00025899205
-5.8545546e-05
-0.00027494713
-5.6212423e-05
-0.00029333317
-5.2549777e-05
-0.00031465838
-4.723847e-05
-0.00033958354
-3.9868297e-05
-0.0003689659
-2.99019e-05
-0.00040396598
-1.6622285e-05
-0.00044616321
-0.00049774231
9.3674039e-07
1.7570238e-05
-0.00051550318
3.0871269e-05
-0.0004594614
4.0860701e-05
-0.00041395452
4.8244994e-05
-0.00037635401
5.3565326e-05
-0.00034490864
5.7233789e-05
-0.00031833259
5.9567772e-05
-0.00029567026
6.0817666e-05
-0.00027619671
6.1182392e-05
-0.0002593573
6.0817226e-05
-0.0002447087
5.9847612e-05
-0.00023190125
5.8377036e-05
-0.0002206599
5.6489533e-05
-0.00021076443
5.4252605e-05
-0.00020202924
5.1723336e-05
-0.00019430825
4.8949984e-05
-0.00018748207
4.597005e-05
-0.0001814412
4.2816147e-05
-0.00017610109
3.9515676e-05
-0.00017139
3.6091555e-05
-0.00016724703
3.2564659e-05
-0.00016362558
2.8952522e-05
-0.00016048434
2.5269788e-05
-0.00015778727
2.1528927e-05
-0.00015550366
1.7741069e-05
-0.00015360897
1.3916265e-05
-0.00015208371
1.0063669e-05
-0.00015091262
6.1917049e-06
-0.00015008416
2.3083294e-06
-0.00014959027
-1.5788344e-06
-0.00014942616
-5.4622264e-06
-0.00014959024
-9.3342105e-06
-0.00015008411
-1.3186832e-05
-0.00015091256
-1.7011655e-05
-0.00015208365
-2.0799519e-05
-0.00015360893
-2.4540363e-05
-0.00015550367
-2.8222994e-05
-0.00015778733
-3.1834782e-05
-0.0001604843
-3.5361247e-05
-0.00016362443
-3.8785041e-05
-0.00016724437
-4.2085977e-05
-0.00017138592
-4.5240051e-05
-0.00017609867
-4.822026e-05
-0.00018143957
-5.0994022e-05
-0.00018748143
-5.3522496e-05
-0.00019430988
-5.5759468e-05
-0.00020202756
-5.7646954e-05
-0.00021076208
-5.9116638e-05
-0.00022065825
-6.0085354e-05
-0.00023189793
-6.0450615e-05
-0.00024470503
-6.0085972e-05
-0.0002593567
-5.8834113e-05
-0.000276199
-5.6497946e-05
-0.00029566933
-5.2829147e-05
-0.00031832719
-4.7508189e-05
-0.0003449045
-4.0122185e-05
-0.00037635192
-3.0134522e-05
-0.00041395364
-1.6824317e-05
-0.00045947343
-0.00051534298
7.7636134e-07
1.760696e-05
-0.00053311015
3.0936072e-05
-0.00047279053
4.0946986e-05
-0.00042396545
4.8342829e-05
-0.00038374987
5.3671082e-05
-0.00035023691
5.7346643e-05
-0.00032200817
5.9681561e-05
-0.0002980052
6.0931507e-05
-0.00027744668
6.1296449e-05
-0.00025972226
6.0926989e-05
-0.00024433926
5.995155e-05
-0.00023092583
5.8476518e-05
-0.00021918488
5.6583451e-05
-0.00020887137
5.434038e-05
-0.00019978619
5.1804423e-05
-0.00019177231
4.9022969e-05
-0.00018470063
4.6035096e-05
-0.00017845333
4.2872655e-05
-0.00017293866
3.9562577e-05
-0.00016807993
3.6128974e-05
-0.00016381344
3.2592863e-05
-0.00016008948
2.897127e-05
-0.00015686276
2.5278831e-05
-0.00015409485
2.1528086e-05
-0.00015175293
1.7730195e-05
-0.00014981109
1.3895256e-05
-0.00014824879
1.0032451e-05
-0.00014704982
6.1502177e-06
-0.00014620194
2.2565094e-06
-0.00014569657
-1.6410149e-06
-0.00014552865
-5.5347485e-06
-0.00014569652
-9.4170227e-06
-0.00014620185
-1.3279878e-05
-0.00014704971
-1.7114868e-05
-0.00014824868
-2.0912802e-05
-0.000149811
-2.4663586e-05
-0.0001517529
-2.8356005e-05
-0.00015409491
-3.1977524e-05
-0.0001568628
-3.5513307e-05
-0.00016008865
-3.894618e-05
-0.00016381152
-4.225615e-05
-0.00016807596
-4.5418976e-05
-0.00017293586
-4.8407184e-05
-0.00017845136
-5.1188586e-05
-0.00018470004
-5.3724911e-05
-0.00019177356
-5.596834e-05
-0.00019978415
-5.786174e-05
-0.00020886869
-5.9336247e-05
-0.00021918375
-6.0308636e-05
-0.00023092554
-6.0676633e-05
-0.00024433705
-6.0313125e-05
-0.00025972021
-5.9060261e-05
-0.00027745188
-5.672082e-05
-0.00029800877
-5.3045508e-05
-0.00032200252
-4.7717867e-05
-0.00035023214
-4.0317081e-05
-0.00038375272
-3.0313082e-05
-0.00042395764
-1.6975962e-05
-0.00047281056
-0.00053298012
6.6117975e-07
1.7649821e-05
-0.00055075999
3.0999139e-05
-0.00048613986
4.1037601e-05
-0.00043400393
4.8441276e-05
-0.00039115356
5.3777117e-05
-0.00035557277
5.7463294e-05
-0.00032569436
5.9793304e-05
-0.00030033522
6.1040788e-05
-0.00027869417
6.1407778e-05
-0.00026008927
6.103337e-05
-0.00024396486
6.0050885e-05
-0.00022994336
5.8572922e-05
-0.00021770694
5.6674363e-05
-0.00020697283
5.4425779e-05
-0.00019753762
5.1883812e-05
-0.00018923036
4.9092326e-05
-0.00018190917
4.6097159e-05
-0.00017545818
4.2926049e-05
-0.00016976758
3.9605458e-05
-0.00016475936
3.6162957e-05
-0.00016037096
3.2618356e-05
-0.00015654489
2.8987227e-05
-0.00015323165
2.5284849e-05
-0.00015039248
2.1524382e-05
-0.00014799248
1.771684e-05
-0.00014600357
1.387224e-05
-0.00014440421
9.9997798e-06
-0.00014317738
6.1078918e-06
-0.00014231008
2.2045469e-06
-0.00014179324
-1.7025711e-06
-0.00014162156
-5.6058395e-06
-0.00014179326
-9.4976217e-06
-0.0001423101
-1.3369931e-05
-0.00014317741
-1.7214348e-05
-0.00014440429
-2.1021666e-05
-0.00014600369
-2.4781856e-05
-0.00014799274
-2.8483665e-05
-0.00015039311
-3.2115238e-05
-0.00015323125
-3.5659268e-05
-0.00015654463
-3.9100297e-05
-0.00016037051
-4.2418663e-05
-0.0001647576
-4.5590602e-05
-0.00016976394
-4.8585706e-05
-0.00017545627
-5.1374111e-05
-0.00018191166
-5.3918937e-05
-0.00018922874
-5.616682e-05
-0.00019753628
-5.806526e-05
-0.00020697025
-5.9542744e-05
-0.00021770629
-6.0516258e-05
-0.00022995203
-6.088517e-05
-0.00024396815
-6.05203e-05
-0.00026008508
-5.926267e-05
-0.00027870953
-5.6916782e-05
-0.00030035467
-5.3229345e-05
-0.00032568998
-4.7898483e-05
-0.000355563
-4.0475533e-05
-0.00039117569
-3.0457733e-05
-0.00043397544
-1.7082936e-05
-0.00048618538
-0.00055066635
6.0330082e-07
1.7711433e-05
-0.00056847143
3.1118846e-05
-0.00049954729
4.1194373e-05
-0.00044407947
4.8624741e-05
-0.00039858394
5.398964e-05
-0.00036093768
5.7680653e-05
-0.00032938539
6.0014563e-05
-0.00030266915
6.1274108e-05
-0.00027995374
6.16329e-05
-0.00026044808
6.1246978e-05
-0.00024357896
6.0259815e-05
-0.00022895622
5.876374e-05
-0.00021621089
5.6849703e-05
-0.00020505882
5.4579094e-05
-0.00019526704
5.2017246e-05
-0.00018666853
4.9211723e-05
-0.00017910367
4.6195825e-05
-0.00017244231
4.3002478e-05
-0.00016657426
3.9660146e-05
-0.00016141705
3.6195314e-05
-0.00015690616
3.2626152e-05
-0.00015297575
2.8972436e-05
-0.00014957797
2.5247174e-05
-0.00014666724
2.1462605e-05
-0.00014420795
1.7630645e-05
-0.00014217163
1.3761627e-05
-0.00014053523
9.8648427e-06
-0.00013928062
5.9488163e-06
-0.00013839409
2.0215921e-06
-0.00013786604
-1.9092821e-06
-0.00013769072
-5.8364519e-06
-0.00013786611
-9.7523999e-06
-0.00013839419
-1.364906e-05
-0.00013928077
-1.7517939e-05
-0.00014053545
-2.1349725e-05
-0.00014217192
-2.5134125e-05
-0.00014420837
-2.8859394e-05
-0.00014666786
-3.2511937e-05
-0.00014957875
-3.6080378e-05
-0.0001529762
-3.95454e-05
-0.00015690553
-4.2884723e-05
-0.00016141829
-4.6077498e-05
-0.0001665712
-4.9095933e-05
-0.00017243784
-5.1903854e-05
-0.00017910378
-5.4462438e-05
-0.00018667016
-5.6731426e-05
-0.00019526734
-5.8647404e-05
-0.00020505428
-6.0141919e-05
-0.00021621181
-6.1132967e-05
-0.00022896098
-6.1511065e-05
-0.00024359009
-6.1158518e-05
-0.00026043762
-5.9904757e-05
-0.00027996333
-5.7563484e-05
-0.00030269593
-5.3864552e-05
-0.00032938894
-4.8513018e-05
-0.00036091452
-4.1062528e-05
-0.00039862622
-3.0999578e-05
-0.00044403837
-1.7576269e-05
-0.00049960872
-0.00056842097
1.7836623e-07
1.7579785e-05
-0.00058605123
3.1067495e-05
-0.00051303501
4.1124096e-05
-0.00045413608
4.861348e-05
-0.00040607334
5.3967708e-05
-0.00036629192
5.7634785e-05
-0.00033305248
6.0016915e-05
-0.00030505129
6.127849e-05
-0.00028121533
6.1616908e-05
-0.00026078651
6.1236876e-05
-0.00024319895
6.0246842e-05
-0.00022796619
5.8743203e-05
-0.00021470726
5.6821804e-05
-0.00020313743
5.4564251e-05
-0.0001930095
5.2015591e-05
-0.00018411988
4.9207533e-05
-0.00017629563
4.6177084e-05
-0.00016941187
4.2971337e-05
-0.00016336853
3.9627628e-05
-0.00015807335
3.6168241e-05
-0.00015344679
3.2612951e-05
-0.00014942047
2.897436e-05
-0.0001459394
2.5263638e-05
-0.00014295653
2.1492973e-05
-0.00014043731
1.7674232e-05
-0.0001383529
1.3817808e-05
-0.00013667883
9.9330251e-06
-0.00013539584
6.0284252e-06
-0.00013448951
2.1120639e-06
-0.00013394969
-1.8082674e-06
-0.00013377042
-5.7246993e-06
-0.00013394969
-9.6294145e-06
-0.0001344895
-1.3514369e-05
-0.00013539583
-1.7371033e-05
-0.0001366788
-2.1190089e-05
-0.00013835287
-2.4961174e-05
-0.00014043731
-2.8672549e-05
-0.00014295649
-3.231048e-05
-0.00014594084
-3.5863723e-05
-0.00014942297
-3.9319882e-05
-0.00015344939
-4.2662272e-05
-0.0001580759
-4.5866067e-05
-0.00016336743
-4.8899293e-05
-0.00016940462
-5.1721044e-05
-0.00017628204
-5.4283553e-05
-0.00018410766
-5.6545339e-05
-0.00019300557
-5.8461722e-05
-0.0002031379
-5.9965505e-05
-0.00021470805
-6.0963852e-05
-0.00022796265
-6.1353566e-05
-0.0002432004
-6.1001423e-05
-0.00026078977
-5.9763238e-05
-0.00028120153
-5.7420371e-05
-0.0003050388
-5.3739943e-05
-0.00033306939
-4.8345481e-05
-0.00036630898
-4.0925947e-05
-0.00040604577
-3.0805315e-05
-0.00045415899
-1.7435709e-05
-0.00051297836
-0.0005861121
2.5544137e-07
1.7609467e-05
3.110946e-05
4.11738e-05
4.8673952e-05
5.4022867e-05
5.7697973e-05
6.0086546e-05
6.1338896e-05
6.1681252e-05
6.1307561e-05
6.0314742e-05
5.8816956e-05
5.6896732e-05
5.464467e-05
5.209776e-05
4.9285236e-05
4.6255673e-05
4.3051877e-05
3.9709576e-05
3.6251213e-05
3.2697744e-05
2.9058341e-05
2.5346624e-05
2.1575856e-05
1.7757215e-05
1.3900831e-05
1.0016002e-05
6.1111901e-06
2.1944644e-06
-1.7263305e-06
-5.6431025e-06
-9.5479629e-06
-1.3432834e-05
-1.7289284e-05
-2.1107974e-05
-2.4878825e-05
-2.8590354e-05
-3.2230289e-05
-3.5781701e-05
-3.9235529e-05
-4.2577182e-05
-4.5779624e-05
-4.8808493e-05
-5.1628638e-05
-5.4193241e-05
-5.6449023e-05
-5.8360865e-05
-5.9858754e-05
-6.0848044e-05
-6.1233617e-05
-6.087016e-05
-5.9624897e-05
-5.7267775e-05
-5.3582546e-05
-4.8178807e-05
-4.0750972e-05
-3.0617366e-05
-1.7227543e-05
4.8797833e-07
-6.4204506e-06
-0.00022317327
0.00021726243
1.2331327e-05
-1.2931626e-06
-0.0002238706
0.00021874333
3.1226992e-06
-0.00022460079
0.00022018495
6.8911085e-06
-0.00022535458
0.00022158619
1.0069109e-05
-0.00022612367
0.00022294569
1.2707761e-05
-0.00022690114
0.0002242625
1.485303e-05
-0.00022768067
0.00022553542
1.6546411e-05
-0.0002284566
0.00022676324
1.7825579e-05
-0.00022922409
0.00022794494
1.8724821e-05
-0.00022997855
0.00022907932
1.927559e-05
-0.00023071611
0.00023016536
1.9506694e-05
-0.00023143312
0.00023120203
1.9444799e-05
-0.00023212642
0.00023218833
1.9114584e-05
-0.00023279316
0.0002331234
1.8539036e-05
-0.00023343065
0.00023400623
1.7739636e-05
-0.00023403667
0.00023483609
1.673657e-05
-0.00023460917
0.00023561227
1.5548864e-05
-0.00023514638
0.00023633411
1.4194549e-05
-0.00023564658
0.00023700091
1.2690755e-05
-0.00023610815
0.00023761196
1.1053857e-05
-0.00023652957
0.00023816649
9.2995318e-06
-0.0002369095
0.00023866384
7.4428914e-06
-0.00023724693
0.00023910359
5.4985333e-06
-0.00023754111
0.00023948549
3.4806533e-06
-0.00023779153
0.00023980943
1.4031008e-06
-0.00023799756
0.00024007512
-7.2053711e-07
-0.00023815854
0.00024028218
-2.8768921e-06
-0.00023827384
0.0002404302
-5.0527194e-06
-0.000238343
0.00024051883
-7.2348722e-06
-0.00023836575
0.0002405479
-9.4102471e-06
-0.00023834202
0.0002405174
-1.1565748e-05
-0.00023827194
0.00024042744
-1.3688216e-05
-0.00023815587
0.00024027835
-1.5764349e-05
-0.00023799438
0.00024007051
-1.7780568e-05
-0.00023778805
0.00023980428
-1.9722953e-05
-0.00023753739
0.00023947977
-2.1577209e-05
-0.00023724275
0.00023909701
-2.3328687e-05
-0.00023690451
0.00023865599
-2.4962325e-05
-0.00023652341
0.00023815706
-2.646256e-05
-0.00023610064
0.00023760087
-2.7813147e-05
-0.0002356377
0.00023698829
-2.8997039e-05
-0.00023513624
0.00023632013
-2.9996255e-05
-0.00023459789
0.00023559711
-3.0791788e-05
-0.00023402438
0.00023481992
-3.1363464e-05
-0.00023341751
0.00023398919
-3.1689822e-05
-0.00023277938
0.00023310574
-3.1747833e-05
-0.0002321122
0.00023217022
-3.1512775e-05
-0.00023141861
0.00023118356
-3.0957924e-05
-0.00023070122
0.00023014637
-3.0054414e-05
-0.00022996296
0.00022905945
-2.8770861e-05
-0.00022920722
0.00022792367
-2.7073084e-05
-0.00022843793
0.00022674015
-2.4923705e-05
-0.00022766017
0.00022551079
-2.2281769e-05
-0.00022688055
0.00022423862
-1.9102555e-05
-0.00022610982
0.0002229306
-1.5337237e-05
-0.00022536856
0.00022160329
-1.093332e-05
-0.00022470215
0.00022029828
-5.8366083e-06
-0.00022422571
0.00021912904
-0.000224268
0.00021843139
-5.1958943e-06
-0.00022953868
1.1561262e-05
3.2165367e-07
-0.00022938818
5.0694324e-06
-0.00022934859
9.116649e-06
-0.00022940183
1.2525092e-05
-0.00022953214
1.5350003e-05
-0.00022972608
1.7641115e-05
-0.00022997181
1.9443304e-05
-0.00023025882
2.0797326e-05
-0.00023057813
2.1740275e-05
-0.00023092153
2.230618e-05
-0.00023128203
2.252621e-05
-0.00023165317
2.2429217e-05
-0.00023202944
2.2041911e-05
-0.00023240588
2.1389163e-05
-0.00023277793
2.0494232e-05
-0.00023314176
1.9378964e-05
-0.00023349392
1.8063941e-05
-0.00023383138
1.6568654e-05
-0.00023415131
1.4911614e-05
-0.00023445113
1.3110501e-05
-0.00023472847
1.1182264e-05
-0.00023498128
9.1432553e-06
-0.00023520793
7.0092854e-06
-0.00023540716
4.7957209e-06
-0.00023557798
2.517533e-06
-0.00023571938
1.8940527e-07
-0.00023583041
-2.1742302e-06
-0.00023591021
-4.5590831e-06
-0.00023595815
-6.9509541e-06
-0.00023597388
-9.3356604e-06
-0.00023595731
-1.1699007e-05
-0.0002359086
-1.4026699e-05
-0.00023582818
-1.6304293e-05
-0.00023571678
-1.8517107e-05
-0.00023557524
-2.0650151e-05
-0.00023540434
-2.2688046e-05
-0.00023520486
-2.4614966e-05
-0.00023497759
-2.641457e-05
-0.00023472381
-2.8069917e-05
-0.00023444529
-2.9563354e-05
-0.00023414426
-3.0876389e-05
-0.0002338232
-3.198956e-05
-0.00023348472
-3.2882307e-05
-0.00023313164
-3.3532803e-05
-0.00023276702
-3.3917802e-05
-0.00023239438
-3.4012426e-05
-0.00023201758
-3.378992e-05
-0.00023164112
-3.3221384e-05
-0.00023126976
-3.227563e-05
-0.00023090871
-3.0918632e-05
-0.00023056422
-2.9113323e-05
-0.00023024323
-2.6819127e-05
-0.00022995437
-2.399152e-05
-0.00022970816
-2.0581538e-05
-0.0002295198
-1.6535743e-05
-0.0002294144
-1.1796025e-05
-0.00022944191
-6.3019111e-06
-0.00022971987
-0.00023056991
-3.9396701e-06
-0.00023639641
1.079733e-05
2.0008045e-06
-0.0002353287
7.1085594e-06
-0.00023445638
1.1458464e-05
-0.00023375178
1.5117331e-05
-0.00023319104
1.8144909e-05
-0.00023275371
2.0594986e-05
-0.00023242192
2.251611e-05
-0.00023217999
2.3952359e-05
-0.00023201442
2.4943857e-05
-0.00023191307
2.5527414e-05
-0.00023186563
2.5736748e-05
-0.00023186255
2.5603069e-05
-0.0002318958
2.5155275e-05
-0.00023195813
2.4420275e-05
-0.00023204296
2.342323e-05
-0.00023214475
2.2187771e-05
-0.00023225849
2.0736171e-05
-0.0002323798
1.9089507e-05
-0.00023250466
1.7267801e-05
-0.00023262944
1.5290174e-05
-0.00023275086
1.3174966e-05
-0.00023286608
1.0939863e-05
-0.00023297284
8.6019758e-06