/*--------------------------------*- C++ -*----------------------------------*\
| =========                 |                                                 |
| \\      /  F ield         | OpenFOAM: The Open Source CFD Toolbox           |
|  \\    /   O peration     | Version:  v2006                                 |
|   \\  /    A nd           | Website:  www.openfoam.com                      |
|    \\/     M anipulation  |                                                 |
\*---------------------------------------------------------------------------*/
FoamFile
{
    version     2.0;
    format      ascii;
    class       volScalarField;
    location    "9000";
    object      pMean;
}
// * * * * * * * * * * * * * * * * * * * * * * * * * * * * * * * * * * * * * //

dimensions      [1 -1 -2 0 0 0 0];


internalField   nonuniform List<scalar> 
55713
(
1.0000319
1.0000319
1.0000319
1.0000319
1.0000319
1.0000319
1.0000319
1.0000319
1.0000319
1.0000319
1.0000319
1.0000319
1.0000319
1.0000319
1.0000319
1.0000319
1.0000319
1.0000319
1.0000319
1.0000319
1.0000319
1.0000319
1.0000319
1.0000319
1.0000319
1.0000319
1.0000319
1.0000319
1.0000319
1.0000319
1.0000319
1.0000319
1.0000319
1.0000319
1.0000319
1.0000319
1.0000319
1.0000319
1.0000319
1.0000319
1.0000319
1.0000319
1.0000319
1.0000319
1.0000319
1.0000319
1.0000319
1.0000319
1.0000319
1.0000319
1.0000319
1.0000319
1.0000319
1.0000319
1.0000319
1.0000319
1.0000319
1.0000319
1.0000319
1.0000298
1.0000298
1.0000298
1.0000298
1.0000298
1.0000298
1.0000298
1.0000298
1.0000298
1.0000298
1.0000298
1.0000298
1.0000298
1.0000298
1.0000298
1.0000298
1.0000298
1.0000298
1.0000298
1.0000298
1.0000298
1.0000298
1.0000298
1.0000298
1.0000298
1.0000298
1.0000298
1.0000298
1.0000298
1.0000298
1.0000298
1.0000298
1.0000298
1.0000298
1.0000298
1.0000298
1.0000298
1.0000298
1.0000298
1.0000298
1.0000298
1.0000298
1.0000298
1.0000298
1.0000298
1.0000298
1.0000298
1.0000298
1.0000298
1.0000298
1.0000298
1.0000298
1.0000298
1.0000298
1.0000298
1.0000298
1.0000298
1.0000298
1.0000298
1.000028
1.000028
1.000028
1.000028
1.000028
1.000028
1.000028
1.000028
1.000028
1.000028
1.000028
1.000028
1.000028
1.000028
1.000028
1.000028
1.000028
1.000028
1.000028
1.000028
1.000028
1.000028
1.000028
1.000028
1.000028
1.000028
1.000028
1.000028
1.000028
1.000028
1.000028
1.000028
1.000028
1.000028
1.000028
1.000028
1.000028
1.000028
1.000028
1.000028
1.000028
1.000028
1.000028
1.000028
1.000028
1.000028
1.000028
1.000028
1.000028
1.000028
1.000028
1.000028
1.000028
1.000028
1.000028
1.000028
1.000028
1.000028
1.000028
1.0000264
1.0000264
1.0000264
1.0000264
1.0000264
1.0000264
1.0000264
1.0000264
1.0000264
1.0000264
1.0000264
1.0000264
1.0000264
1.0000264
1.0000264
1.0000264
1.0000264
1.0000264
1.0000264
1.0000264
1.0000264
1.0000264
1.0000265
1.0000265
1.0000265
1.0000265
1.0000265
1.0000265
1.0000265
1.0000265
1.0000265
1.0000265
1.0000265
1.0000265
1.0000265
1.0000265
1.0000265
1.0000265
1.0000265
1.0000265
1.0000265
1.0000265
1.0000265
1.0000265
1.0000265
1.0000265
1.0000265
1.0000265
1.0000265
1.0000265
1.0000265
1.0000265
1.0000265
1.0000265
1.0000265
1.0000265
1.0000265
1.0000265
1.0000265
1.000025
1.0000251
1.0000251
1.0000251
1.0000251
1.0000251
1.0000251
1.0000251
1.0000251
1.0000251
1.0000251
1.0000251
1.0000251
1.0000251
1.0000251
1.0000251
1.0000251
1.0000251
1.0000251
1.0000251
1.0000251
1.0000251
1.0000251
1.0000251
1.0000251
1.0000251
1.0000251
1.0000251
1.0000251
1.0000251
1.0000251
1.0000251
1.0000251
1.0000251
1.0000251
1.0000251
1.0000251
1.0000251
1.0000251
1.0000251
1.0000251
1.0000251
1.0000251
1.0000251
1.0000251
1.0000251
1.0000251
1.0000251
1.0000251
1.0000251
1.0000251
1.0000251
1.0000251
1.0000251
1.0000251
1.0000251
1.0000251
1.0000251
1.0000251
1.0000239
1.0000239
1.0000239
1.0000239
1.0000239
1.0000239
1.0000239
1.0000239
1.0000239
1.0000239
1.0000239
1.0000239
1.0000239
1.0000239
1.0000239
1.0000239
1.0000239
1.0000239
1.0000239
1.0000239
1.0000239
1.0000239
1.0000239
1.0000239
1.0000239
1.0000239
1.0000239
1.000024
1.000024
1.000024
1.000024
1.000024
1.000024
1.000024
1.000024
1.000024
1.000024
1.000024
1.000024
1.000024
1.000024
1.000024
1.000024
1.000024
1.000024
1.000024
1.000024
1.000024
1.000024
1.000024
1.000024
1.000024
1.000024
1.000024
1.000024
1.000024
1.000024
1.000024
1.000024
1.0000229
1.0000229
1.0000229
1.0000229
1.0000229
1.0000229
1.0000229
1.0000229
1.0000229
1.0000229
1.0000229
1.0000229
1.0000229
1.0000229
1.0000229
1.0000229
1.0000229
1.0000229
1.0000229
1.0000229
1.0000229
1.0000229
1.0000229
1.0000229
1.0000229
1.0000229
1.0000229
1.0000229
1.0000229
1.0000229
1.0000229
1.0000229
1.0000229
1.0000229
1.0000229
1.0000229
1.0000229
1.0000229
1.0000229
1.0000229
1.0000229
1.0000229
1.0000229
1.0000229
1.0000229
1.0000229
1.0000229
1.0000229
1.0000229
1.0000229
1.0000229
1.0000229
1.0000229
1.0000229
1.0000229
1.0000229
1.0000229
1.000023
1.000023
1.0000219
1.0000219
1.000022
1.000022
1.000022
1.000022
1.000022
1.000022
1.000022
1.000022
1.000022
1.000022
1.000022
1.000022
1.000022
1.000022
1.000022
1.000022
1.000022
1.000022
1.000022
1.000022
1.000022
1.000022
1.000022
1.000022
1.000022
1.000022
1.000022
1.000022
1.000022
1.000022
1.000022
1.000022
1.000022
1.000022
1.000022
1.000022
1.000022
1.000022
1.000022
1.000022
1.000022
1.000022
1.000022
1.000022
1.000022
1.000022
1.000022
1.000022
1.000022
1.000022
1.000022
1.000022
1.000022
1.000022
1.000022
1.000022
1.000022
1.0000215
1.0000215
1.0000215
1.0000215
1.0000215
1.0000215
1.0000215
1.0000215
1.0000215
1.0000215
1.0000215
1.0000215
1.0000215
1.0000215
1.0000215
1.0000215
1.0000215
1.0000215
1.0000215
1.0000215
1.0000215
1.0000215
1.0000215
1.0000215
1.0000215
1.0000215
1.0000215
1.0000215
1.0000215
1.0000215
1.0000215
1.0000215
1.0000215
1.0000215
1.0000215
1.0000215
1.0000215
1.0000215
1.0000215
1.0000215
1.0000215
1.0000215
1.0000215
1.0000215
1.0000215
1.0000215
1.0000215
1.0000215
1.0000215
1.0000215
1.0000215
1.0000215
1.0000215
1.0000215
1.0000215
1.0000215
1.0000215
1.0000215
1.0000215
1.0000211
1.0000211
1.0000211
1.0000211
1.0000211
1.0000211
1.0000211
1.0000211
1.0000211
1.0000211
1.0000211
1.0000211
1.0000211
1.0000211
1.0000211
1.0000211
1.0000211
1.0000211
1.0000211
1.0000211
1.0000211
1.0000211
1.0000211
1.0000211
1.0000211
1.0000211
1.0000211
1.0000211
1.0000211
1.0000211
1.0000211
1.0000211
1.0000211
1.0000211
1.0000211
1.0000211
1.0000211
1.0000211
1.0000211
1.0000211
1.0000211
1.0000211
1.0000211
1.0000211
1.0000212
1.0000212
1.0000212
1.0000212
1.0000212
1.0000212
1.0000212
1.0000212
1.0000212
1.0000212
1.0000212
1.0000212
1.0000212
1.0000212
1.0000212
1.0000192
1.0000192
1.0000192
1.0000192
1.0000192
1.0000192
1.0000192
1.0000192
1.0000192
1.0000192
1.0000192
1.0000192
1.0000192
1.0000192
1.0000192
1.0000192
1.0000192
1.0000192
1.0000192
1.0000192
1.0000192
1.0000192
1.0000192
1.0000192
1.0000192
1.0000192
1.0000192
1.0000192
1.0000192
1.0000192
1.0000192
1.0000192
1.0000192
1.0000192
1.0000192
1.0000192
1.0000192
1.0000192
1.0000192
1.0000192
1.0000192
1.0000192
1.0000192
1.0000192
1.0000192
1.0000192
1.0000192
1.0000192
1.0000192
1.0000192
1.0000192
1.0000192
1.0000192
1.0000192
1.0000192
1.0000192
1.0000192
1.0000192
1.0000192
1.0000191
1.0000191
1.0000191
1.0000191
1.0000191
1.000019
1.000019
1.000019
1.000019
1.000019
1.000019
1.000019
1.000019
1.000019
1.000019
1.000019
1.000019
1.000019
1.000019
1.000019
1.000019
1.000019
1.000019
1.000019
1.000019
1.0000189
1.0000189
1.0000189
1.0000189
1.0000189
1.0000189
1.0000189
1.0000189
1.0000189
1.0000189
1.0000189
1.0000189
1.0000189
1.0000189
1.0000189
1.0000189
1.0000189
1.0000189
1.0000189
1.0000189
1.0000189
1.0000189
1.0000189
1.0000189
1.0000189
1.0000189
1.0000189
1.0000189
1.0000189
1.0000188
1.0000188
1.0000188
1.0000188
1.0000188
1.0000289
1.0000289
1.0000288
1.0000288
1.0000288
1.0000288
1.0000288
1.0000288
1.0000288
1.0000288
1.0000288
1.0000288
1.0000288
1.0000288
1.0000288
1.0000288
1.0000288
1.0000288
1.0000288
1.0000288
1.0000288
1.0000288
1.0000288
1.0000288
1.0000288
1.0000288
1.0000288
1.0000288
1.0000288
1.0000288
1.0000288
1.0000288
1.0000288
1.0000288
1.0000288
1.0000288
1.0000288
1.0000288
1.0000288
1.0000288
1.0000288
1.0000288
1.0000288
1.0000288
1.0000288
1.0000288
1.0000288
1.0000288
1.0000288
1.0000288
1.0000288
1.0000288
1.0000288
1.0000288
1.0000288
1.0000288
1.0000288
1.0000288
1.0000288
1.0000183
1.0000183
1.0000183
1.0000183
1.0000183
1.0000184
1.0000184
1.0000184
1.0000184
1.0000184
1.0000184
1.0000184
1.0000184
1.0000184
1.0000184
1.0000184
1.0000184
1.0000184
1.0000184
1.0000184
1.0000184
1.0000184
1.0000184
1.0000184
1.0000184
1.0000184
1.0000184
1.0000184
1.0000184
1.0000184
1.0000184
1.0000184
1.0000184
1.0000184
1.0000184
1.0000184
1.0000184
1.0000184
1.0000184
1.0000184
1.0000184
1.0000184
1.0000184
1.0000184
1.0000184
1.0000184
1.0000184
1.0000184
1.0000184
1.0000184
1.0000184
1.0000184
1.0000184
1.0000184
1.0000184
1.0000184
1.0000184
1.0000184
1.0000184
1.0001208
1.0001209
1.0001209
1.0001209
1.000121
1.000121
1.000121
1.0001211
1.0001211
1.0001212
1.0001212
1.0001212
1.0001213
1.0001213
1.0001213
1.0001214
1.0001214
1.0001214
1.0001214
1.0001215
1.0001215
1.0001215
1.0001216
1.0001216
1.0001216
1.0001216
1.0001217
1.0001217
1.0001217
1.0001217
1.0001218
1.0001218
1.0001218
1.0001218
1.0001218
1.0001218
1.0001219
1.0001219
1.0001219
1.0001219
1.0001219
1.0001219
1.0001219
1.000122
1.000122
1.000122
1.000122
1.000122
1.000122
1.000122
1.000122
1.000122
1.000122
1.000122
1.000122
1.000122
1.000122
1.000122
1.000122
1.0001107
1.0001108
1.0001108
1.0001108
1.0001109
1.0001109
1.0001109
1.000111
1.000111
1.000111
1.000111
1.0001111
1.0001111
1.0001111
1.0001111
1.0001112
1.0001112
1.0001112
1.0001112
1.0001113
1.0001113
1.0001113
1.0001113
1.0001114
1.0001114
1.0001114
1.0001114
1.0001114
1.0001115
1.0001115
1.0001115
1.0001115
1.0001115
1.0001115
1.0001116
1.0001116
1.0001116
1.0001116
1.0001116
1.0001116
1.0001116
1.0001117
1.0001117
1.0001117
1.0001117
1.0001117
1.0001117
1.0001117
1.0001117
1.0001117
1.0001117
1.0001117
1.0001117
1.0001117
1.0001117
1.0001117
1.0001117
1.0001117
1.0001117
1.0001013
1.0001013
1.0001014
1.0001014
1.0001014
1.0001015
1.0001015
1.0001015
1.0001015
1.0001016
1.0001016
1.0001016
1.0001016
1.0001016
1.0001017
1.0001017
1.0001017
1.0001017
1.0001017
1.0001018
1.0001018
1.0001018
1.0001018
1.0001018
1.0001019
1.0001019
1.0001019
1.0001019
1.0001019
1.0001019
1.000102
1.000102
1.000102
1.000102
1.000102
1.000102
1.000102
1.000102
1.000102
1.0001021
1.0001021
1.0001021
1.0001021
1.0001021
1.0001021
1.0001021
1.0001021
1.0001021
1.0001021
1.0001021
1.0001021
1.0001021
1.0001021
1.0001021
1.0001021
1.0001021
1.0001021
1.0001021
1.0001021
1.0000925
1.0000925
1.0000926
1.0000926
1.0000926
1.0000926
1.0000926
1.0000927
1.0000927
1.0000927
1.0000927
1.0000927
1.0000928
1.0000928
1.0000928
1.0000928
1.0000928
1.0000929
1.0000929
1.0000929
1.0000929
1.0000929
1.0000929
1.0000929
1.000093
1.000093
1.000093
1.000093
1.000093
1.000093
1.000093
1.000093
1.000093
1.0000931
1.0000931
1.0000931
1.0000931
1.0000931
1.0000931
1.0000931
1.0000931
1.0000931
1.0000931
1.0000931
1.0000931
1.0000931
1.0000932
1.0000932
1.0000932
1.0000932
1.0000932
1.0000932
1.0000932
1.0000932
1.0000932
1.0000932
1.0000932
1.0000932
1.0000932
1.0000843
1.0000844
1.0000844
1.0000844
1.0000844
1.0000844
1.0000844
1.0000845
1.0000845
1.0000845
1.0000845
1.0000845
1.0000845
1.0000845
1.0000846
1.0000846
1.0000846
1.0000846
1.0000846
1.0000846
1.0000846
1.0000847
1.0000847
1.0000847
1.0000847
1.0000847
1.0000847
1.0000847
1.0000847
1.0000847
1.0000847
1.0000848
1.0000848
1.0000848
1.0000848
1.0000848
1.0000848
1.0000848
1.0000848
1.0000848
1.0000848
1.0000848
1.0000848
1.0000848
1.0000848
1.0000848
1.0000848
1.0000849
1.0000849
1.0000849
1.0000849
1.0000849
1.0000849
1.0000849
1.0000849
1.0000849
1.0000849
1.0000849
1.0000849
1.0000767
1.0000767
1.0000768
1.0000768
1.0000768
1.0000768
1.0000768
1.0000768
1.0000768
1.0000769
1.0000769
1.0000769
1.0000769
1.0000769
1.0000769
1.0000769
1.0000769
1.0000769
1.000077
1.000077
1.000077
1.000077
1.000077
1.000077
1.000077
1.000077
1.000077
1.000077
1.000077
1.0000771
1.0000771
1.0000771
1.0000771
1.0000771
1.0000771
1.0000771
1.0000771
1.0000771
1.0000771
1.0000771
1.0000771
1.0000771
1.0000771
1.0000771
1.0000771
1.0000771
1.0000771
1.0000771
1.0000771
1.0000772
1.0000772
1.0000772
1.0000772
1.0000772
1.0000772
1.0000772
1.0000772
1.0000772
1.0000772
1.0000697
1.0000697
1.0000697
1.0000697
1.0000697
1.0000698
1.0000698
1.0000698
1.0000698
1.0000698
1.0000698
1.0000698
1.0000698
1.0000698
1.0000698
1.0000699
1.0000699
1.0000699
1.0000699
1.0000699
1.0000699
1.0000699
1.0000699
1.0000699
1.0000699
1.0000699
1.0000699
1.0000699
1.00007
1.00007
1.00007
1.00007
1.00007
1.00007
1.00007
1.00007
1.00007
1.00007
1.00007
1.00007
1.00007
1.00007
1.00007
1.00007
1.00007
1.00007
1.00007
1.00007
1.00007
1.00007
1.00007
1.00007
1.00007
1.00007
1.00007
1.00007
1.00007
1.00007
1.00007
1.0000632
1.0000632
1.0000632
1.0000632
1.0000633
1.0000633
1.0000633
1.0000633
1.0000633
1.0000633
1.0000633
1.0000633
1.0000633
1.0000633
1.0000633
1.0000633
1.0000633
1.0000634
1.0000634
1.0000634
1.0000634
1.0000634
1.0000634
1.0000634
1.0000634
1.0000634
1.0000634
1.0000634
1.0000634
1.0000634
1.0000634
1.0000634
1.0000634
1.0000634
1.0000634
1.0000634
1.0000634
1.0000635
1.0000635
1.0000635
1.0000635
1.0000635
1.0000635
1.0000635
1.0000635
1.0000635
1.0000635
1.0000635
1.0000635
1.0000635
1.0000635
1.0000635
1.0000635
1.0000635
1.0000635
1.0000635
1.0000635
1.0000635
1.0000635
1.0000572
1.0000573
1.0000573
1.0000573
1.0000573
1.0000573
1.0000573
1.0000573
1.0000573
1.0000573
1.0000573
1.0000573
1.0000573
1.0000573
1.0000573
1.0000574
1.0000574
1.0000574
1.0000574
1.0000574
1.0000574
1.0000574
1.0000574
1.0000574
1.0000574
1.0000574
1.0000574
1.0000574
1.0000574
1.0000574
1.0000574
1.0000574
1.0000574
1.0000574
1.0000574
1.0000574
1.0000574
1.0000574
1.0000574
1.0000574
1.0000574
1.0000575
1.0000575
1.0000575
1.0000575
1.0000575
1.0000575
1.0000575
1.0000575
1.0000575
1.0000575
1.0000575
1.0000575
1.0000575
1.0000575
1.0000575
1.0000575
1.0000575
1.0000575
1.0000518
1.0000518
1.0000518
1.0000518
1.0000518
1.0000518
1.0000518
1.0000518
1.0000518
1.0000518
1.0000518
1.0000519
1.0000519
1.0000519
1.0000519
1.0000519
1.0000519
1.0000519
1.0000519
1.0000519
1.0000519
1.0000519
1.0000519
1.0000519
1.0000519
1.0000519
1.0000519
1.0000519
1.0000519
1.0000519
1.0000519
1.0000519
1.0000519
1.0000519
1.0000519
1.0000519
1.0000519
1.0000519
1.0000519
1.0000519
1.0000519
1.0000519
1.000052
1.000052
1.000052
1.000052
1.000052
1.000052
1.000052
1.000052
1.000052
1.000052
1.000052
1.000052
1.000052
1.000052
1.000052
1.000052
1.000052
1.0000468
1.0000468
1.0000468
1.0000468
1.0000468
1.0000468
1.0000468
1.0000468
1.0000468
1.0000469
1.0000469
1.0000469
1.0000469
1.0000469
1.0000469
1.0000469
1.0000469
1.0000469
1.0000469
1.0000469
1.0000469
1.0000469
1.0000469
1.0000469
1.0000469
1.0000469
1.0000469
1.0000469
1.0000469
1.0000469
1.0000469
1.0000469
1.0000469
1.0000469
1.0000469
1.0000469
1.0000469
1.0000469
1.0000469
1.0000469
1.0000469
1.0000469
1.0000469
1.0000469
1.0000469
1.0000469
1.0000469
1.0000469
1.0000469
1.0000469
1.0000469
1.0000469
1.0000469
1.0000469
1.0000469
1.0000469
1.0000469
1.000047
1.000047
1.0000423
1.0000423
1.0000423
1.0000423
1.0000423
1.0000423
1.0000423
1.0000423
1.0000423
1.0000423
1.0000423
1.0000423
1.0000423
1.0000423
1.0000423
1.0000423
1.0000423
1.0000423
1.0000423
1.0000423
1.0000423
1.0000423
1.0000423
1.0000423
1.0000423
1.0000423
1.0000423
1.0000424
1.0000424
1.0000424
1.0000424
1.0000424
1.0000424
1.0000424
1.0000424
1.0000424
1.0000424
1.0000424
1.0000424
1.0000424
1.0000424
1.0000424
1.0000424
1.0000424
1.0000424
1.0000424
1.0000424
1.0000424
1.0000424
1.0000424
1.0000424
1.0000424
1.0000424
1.0000424
1.0000424
1.0000424
1.0000424
1.0000424
1.0000424
1.0000382
1.0000382
1.0000382
1.0000382
1.0000382
1.0000382
1.0000382
1.0000382
1.0000382
1.0000382
1.0000382
1.0000382
1.0000382
1.0000382
1.0000382
1.0000382
1.0000382
1.0000382
1.0000382
1.0000382
1.0000382
1.0000382
1.0000382
1.0000382
1.0000382
1.0000382
1.0000382
1.0000382
1.0000382
1.0000382
1.0000382
1.0000382
1.0000382
1.0000382
1.0000382
1.0000382
1.0000382
1.0000382
1.0000382
1.0000382
1.0000382
1.0000382
1.0000382
1.0000382
1.0000382
1.0000382
1.0000382
1.0000382
1.0000382
1.0000382
1.0000382
1.0000383
1.0000383
1.0000383
1.0000383
1.0000383
1.0000383
1.0000383
1.0000383
1.0000346
1.0000346
1.0000346
1.0000346
1.0000346
1.0000346
1.0000346
1.0000346
1.0000346
1.0000346
1.0000346
1.0000346
1.0000346
1.0000346
1.0000346
1.0000346
1.0000346
1.0000346
1.0000346
1.0000346
1.0000346
1.0000346
1.0000346
1.0000346
1.0000346
1.0000346
1.0000346
1.0000346
1.0000346
1.0000346
1.0000346
1.0000346
1.0000346
1.0000346
1.0000346
1.0000346
1.0000346
1.0000346
1.0000346
1.0000346
1.0000346
1.0000346
1.0000346
1.0000346
1.0000346
1.0000346
1.0000346
1.0000346
1.0000346
1.0000346
1.0000346
1.0000346
1.0000346
1.0000346
1.0000346
1.0000346
1.0000346
1.0000346
1.0000346
1.0001342
1.000149
1.0001656
1.0001838
1.0002036
1.0002251
1.0002486
1.000274
1.0003015
1.0003311
1.0003629
1.0003969
1.0004331
1.0004713
1.0005115
1.0005535
1.000597
1.0006415
1.0006866
1.0007317
1.0007758
1.0008183
1.000858
1.0008937
1.0009244
1.0009487
1.0009654
1.0009736
1.0009721
1.0009601
1.0009372
1.0009033
1.0008584
1.0008031
1.000738
1.0006642
1.0005829
1.000495
1.0004021
1.0003053
1.0002061
1.0001056
1.0000047
0.99990446
0.99980585
0.99970922
0.99961494
0.99952362
0.99943571
0.99935142
0.99927088
0.99919416
0.99912126
0.99905231
0.99898732
0.99892603
0.99886829
0.99881404
0.99876315
0.99871542
0.99867071
0.99862892
0.99858992
0.99855353
0.99851961
0.99848802
0.99845861
0.99843124
0.99840578
0.99838211
0.99836012
0.99833968
0.99832073
0.99830308
1.0001342
1.000149
1.0001656
1.0001838
1.0002036
1.0002251
1.0002486
1.000274
1.0003015
1.0003311
1.0003629
1.0003969
1.0004331
1.0004713
1.0005115
1.0005535
1.000597
1.0006415
1.0006866
1.0007317
1.0007759
1.0008183
1.000858
1.0008938
1.0009244
1.0009487
1.0009654
1.0009736
1.0009721
1.0009601
1.0009372
1.0009033
1.0008584
1.0008031
1.000738
1.0006642
1.0005828
1.000495
1.000402
1.0003053
1.0002061
1.0001056
1.0000047
0.99990443
0.99980581
0.9997092
0.99961493
0.99952361
0.9994357
0.9993514
0.99927085
0.99919413
0.99912123
0.99905228
0.9989873
0.99892601
0.99886827
0.99881402
0.99876312
0.99871538
0.99867066
0.99862887
0.99858987
0.99855348
0.99851956
0.99848797
0.99845856
0.9984312
0.99840574
0.99838207
0.99836007
0.99833963
0.99832069
0.99830303
1.0001342
1.000149
1.0001656
1.0001838
1.0002036
1.0002251
1.0002486
1.000274
1.0003015
1.0003311
1.0003629
1.0003969
1.0004331
1.0004713
1.0005115
1.0005535
1.000597
1.0006415
1.0006866
1.0007317
1.0007759
1.0008183
1.000858
1.0008938
1.0009244
1.0009487
1.0009654
1.0009736
1.0009721
1.0009601
1.0009373
1.0009034
1.0008584
1.0008031
1.000738
1.0006642
1.0005829
1.000495
1.0004021
1.0003054
1.0002062
1.0001056
1.0000047
0.99990447
0.99980582
0.99970919
0.99961491
0.99952361
0.9994357
0.99935141
0.99927086
0.99919414
0.99912122
0.99905226
0.99898728
0.99892599
0.99886827
0.99881403
0.99876316
0.99871543
0.99867072
0.99862893
0.99858992
0.99855353
0.99851962
0.99848802
0.99845861
0.99843125
0.9984058
0.99838213
0.99836013
0.9983397
0.99832077
0.9983031
1.0001342
1.000149
1.0001656
1.0001838
1.0002035
1.0002251
1.0002486
1.000274
1.0003015
1.0003311
1.0003629
1.0003969
1.000433
1.0004713
1.0005115
1.0005535
1.000597
1.0006415
1.0006866
1.0007317
1.0007759
1.0008183
1.000858
1.0008938
1.0009245
1.0009488
1.0009655
1.0009736
1.0009721
1.0009601
1.0009373
1.0009034
1.0008585
1.0008032
1.0007381
1.0006643
1.0005829
1.0004951
1.0004022
1.0003054
1.0002063
1.0001057
1.0000048
0.99990456
0.99980589
0.99970924
0.99961498
0.99952368
0.99943577
0.99935148
0.99927093
0.9991942
0.99912131
0.99905236
0.99898735
0.99892603
0.99886829
0.99881404
0.99876313
0.99871539
0.99867068
0.9986289
0.9985899
0.99855352
0.99851961
0.99848803
0.99845862
0.99843126
0.99840581
0.99838213
0.99836011
0.99833964
0.99832075
0.99830323
1.0001342
1.000149
1.0001656
1.0001838
1.0002035
1.0002251
1.0002486
1.000274
1.0003015
1.0003311
1.0003629
1.0003969
1.000433
1.0004713
1.0005115
1.0005535
1.000597
1.0006415
1.0006866
1.0007317
1.0007758
1.0008183
1.000858
1.0008938
1.0009245
1.0009488
1.0009655
1.0009737
1.0009722
1.0009602
1.0009374
1.0009035
1.0008586
1.0008033
1.0007382
1.0006644
1.0005831
1.0004953
1.0004023
1.0003056
1.0002064
1.0001058
1.0000049
0.99990471
0.99980602
0.99970935
0.9996151
0.9995238
0.9994359
0.9993516
0.99927105
0.99919432
0.99912144
0.99905249
0.99898743
0.99892611
0.99886837
0.99881412
0.99876322
0.99871549
0.9986708
0.99862904
0.99859004
0.99855367
0.99851976
0.99848817
0.99845877
0.99843141
0.99840596
0.9983823
0.99836032
0.9983399
0.99832096
0.99830335
1.0001342
1.000149
1.0001656
1.0001838
1.0002035
1.0002251
1.0002486
1.000274
1.0003015
1.0003311
1.0003629
1.0003969
1.000433
1.0004713
1.0005115
1.0005535
1.000597
1.0006415
1.0006866
1.0007317
1.0007758
1.0008183
1.000858
1.0008938
1.0009245
1.0009488
1.0009656
1.0009737
1.0009723
1.0009603
1.0009375
1.0009037
1.0008588
1.0008035
1.0007384
1.0006646
1.0005833
1.0004955
1.0004025
1.0003058
1.0002066
1.0001061
1.0000052
0.99990495
0.99980624
0.99970955
0.9996153
0.99952401
0.99943611
0.99935181
0.99927125
0.99919453
0.99912166
0.9990527
0.99898763
0.9989263
0.99886855
0.99881427
0.99876335
0.99871562
0.99867094
0.99862917
0.99859017
0.9985538
0.99851989
0.99848831
0.99845891
0.99843155
0.9984061
0.99838245
0.99836046
0.99834002
0.99832106
0.99830345
1.0001342
1.000149
1.0001656
1.0001838
1.0002035
1.0002251
1.0002486
1.000274
1.0003015
1.0003311
1.0003629
1.0003969
1.000433
1.0004713
1.0005115
1.0005535
1.000597
1.0006415
1.0006866
1.0007316
1.0007758
1.0008183
1.000858
1.0008938
1.0009245
1.0009489
1.0009656
1.0009738
1.0009724
1.0009605
1.0009377
1.0009039
1.000859
1.0008037
1.0007387
1.0006649
1.0005836
1.0004958
1.0004029
1.0003062
1.000207
1.0001064
1.0000055
0.99990531
0.99980658
0.99970987
0.99961562
0.99952434
0.99943643
0.99935212
0.99927156
0.99919483
0.99912197
0.99905301
0.99898792
0.99892656
0.9988688
0.99881451
0.99876359
0.99871587
0.99867119
0.99862944
0.99859045
0.99855409
0.99852019
0.99848861
0.99845921
0.99843185
0.99840641
0.99838276
0.99836078
0.99834035
0.99832139
0.99830375
1.0001342
1.000149
1.0001656
1.0001837
1.0002035
1.0002251
1.0002486
1.000274
1.0003015
1.0003311
1.0003629
1.0003968
1.000433
1.0004712
1.0005115
1.0005535
1.0005969
1.0006415
1.0006866
1.0007316
1.0007758
1.0008183
1.000858
1.0008938
1.0009246
1.0009489
1.0009657
1.000974
1.0009726
1.0009607
1.0009379
1.0009041
1.0008593
1.0008041
1.0007391
1.0006654
1.0005841
1.0004963
1.0004034
1.0003067
1.0002075
1.000107
1.0000061
0.99990584
0.99980708
0.99971035
0.9996161
0.99952482
0.9994369
0.99935259
0.99927202
0.99919529
0.99912243
0.99905346
0.99898835
0.99892697
0.9988692
0.99881491
0.99876397
0.99871624
0.99867157
0.99862981
0.99859082
0.99855444
0.99852054
0.99848896
0.99845956
0.9984322
0.99840676
0.9983831
0.99836111
0.99834068
0.9983217
0.99830406
1.0001342
1.000149
1.0001656
1.0001837
1.0002035
1.0002251
1.0002485
1.000274
1.0003015
1.0003311
1.0003629
1.0003968
1.000433
1.0004712
1.0005114
1.0005534
1.0005969
1.0006414
1.0006866
1.0007316
1.0007758
1.0008183
1.000858
1.0008939
1.0009246
1.000949
1.0009658
1.0009741
1.0009728
1.0009609
1.0009383
1.0009045
1.0008598
1.0008046
1.0007397
1.000666
1.0005847
1.000497
1.0004041
1.0003074
1.0002082
1.0001077
1.0000068
0.99990658
0.9998078
0.99971105
0.99961679
0.99952551
0.99943758
0.99935326
0.99927268
0.99919594
0.99912308
0.9990541
0.99898896
0.99892756
0.99886977
0.99881546
0.99876452
0.99871678
0.99867211
0.99863036
0.99859137
0.99855501
0.99852111
0.99848953
0.99846013
0.99843277
0.99840733
0.99838368
0.99836169
0.99834126
0.99832228
0.99830463
1.0001342
1.000149
1.0001656
1.0001837
1.0002035
1.0002251
1.0002485
1.000274
1.0003014
1.000331
1.0003628
1.0003968
1.0004329
1.0004712
1.0005114
1.0005534
1.0005969
1.0006414
1.0006865
1.0007316
1.0007758
1.0008183
1.000858
1.0008939
1.0009247
1.0009491
1.000966
1.0009744
1.0009731
1.0009613
1.0009387
1.0009051
1.0008604
1.0008053
1.0007404
1.0006668
1.0005856
1.0004979
1.000405
1.0003084
1.0002093
1.0001087
1.0000079
0.99990761
0.9998088
0.99971203
0.99961776
0.99952648
0.99943854
0.99935421
0.99927361
0.99919686
0.99912399
0.99905499
0.99898983
0.99892841
0.9988706
0.99881628
0.99876532
0.99871757
0.9986729
0.99863114
0.99859215
0.99855577
0.99852186
0.99849028
0.99846087
0.99843351
0.99840806
0.99838439
0.9983624
0.99834195
0.99832297
0.99830531
1.0001342
1.000149
1.0001656
1.0001837
1.0002035
1.0002251
1.0002485
1.0002739
1.0003014
1.000331
1.0003628
1.0003968
1.0004329
1.0004712
1.0005114
1.0005534
1.0005968
1.0006414
1.0006865
1.0007315
1.0007758
1.0008183
1.0008581
1.0008939
1.0009248
1.0009493
1.0009662
1.0009747
1.0009735
1.0009618
1.0009393
1.0009058
1.0008612
1.0008062
1.0007415
1.0006679
1.0005868
1.0004991
1.0004064
1.0003098
1.0002106
1.0001101
1.0000093
0.99990902
0.99981019
0.99971339
0.99961911
0.99952782
0.99943987
0.99935551
0.9992749
0.99919813
0.99912524
0.99905623
0.99899104
0.99892958
0.99887175
0.99881741
0.99876643
0.99871867
0.99867399
0.99863222
0.99859322
0.99855685
0.99852293
0.99849135
0.99846194
0.99843457
0.99840911
0.99838545
0.99836344
0.99834299
0.998324
0.99830633
1.0001342
1.000149
1.0001656
1.0001837
1.0002035
1.000225
1.0002485
1.0002739
1.0003014
1.000331
1.0003628
1.0003967
1.0004329
1.0004711
1.0005113
1.0005533
1.0005968
1.0006413
1.0006864
1.0007315
1.0007757
1.0008183
1.0008581
1.000894
1.0009249
1.0009495
1.0009665
1.000975
1.000974
1.0009624
1.0009401
1.0009067
1.0008623
1.0008075
1.0007428
1.0006694
1.0005884
1.0005008
1.0004081
1.0003116
1.0002125
1.000112
1.0000112
0.99991093
0.99981208
0.99971525
0.99962096
0.99952964
0.99944168
0.9993573
0.99927666
0.99919987
0.99912695
0.99905791
0.99899268
0.9989312
0.99887333
0.99881897
0.99876797
0.9987202
0.99867549
0.99863371
0.9985947
0.99855831
0.99852439
0.99849278
0.99846336
0.99843598
0.99841051
0.99838683
0.99836481
0.99834435
0.99832535
0.99830767
1.0001342
1.000149
1.0001656
1.0001837
1.0002035
1.000225
1.0002485
1.0002739
1.0003014
1.000331
1.0003627
1.0003967
1.0004328
1.0004711
1.0005113
1.0005532
1.0005967
1.0006412
1.0006864
1.0007314
1.0007757
1.0008182
1.0008581
1.0008941
1.0009251
1.0009497
1.0009668
1.0009755
1.0009746
1.0009633
1.0009411
1.0009079
1.0008638
1.0008091
1.0007447
1.0006714
1.0005905
1.0005031
1.0004105
1.000314
1.000215
1.0001146
1.0000137
0.99991349
0.99981462
0.99971777
0.99962345
0.99953211
0.99944412
0.9993597
0.99927904
0.99920221
0.99912926
0.99906017
0.99899491
0.99893338
0.99887548
0.99882109
0.99877006
0.99872226
0.99867753
0.99863573
0.9985967
0.99856029
0.99852635
0.99849473
0.9984653
0.9984379
0.99841242
0.99838872
0.99836669
0.99834622
0.99832719
0.9983095
1.0001341
1.000149
1.0001655
1.0001837
1.0002034
1.000225
1.0002484
1.0002739
1.0003013
1.0003309
1.0003627
1.0003966
1.0004328
1.000471
1.0005112
1.0005532
1.0005966
1.0006412
1.0006863
1.0007314
1.0007756
1.0008182
1.0008581
1.0008942
1.0009252
1.00095
1.0009673
1.0009762
1.0009755
1.0009643
1.0009424
1.0009095
1.0008656
1.0008112
1.000747
1.000674
1.0005933
1.000506
1.0004136
1.0003173
1.0002183
1.0001179
1.0000171
0.99991689
0.999818
0.99972112
0.99962677
0.99953541
0.99944737
0.99936292
0.99928221
0.99920533
0.99913233
0.9990632
0.99899789
0.99893631
0.99887837
0.99882393
0.99877287
0.99872503
0.99868027
0.99863844
0.99859938
0.99856295
0.99852898
0.99849734
0.99846788
0.99844046
0.99841496
0.99839124
0.99836919
0.9983487
0.99832966
0.99831195
1.0001341
1.000149
1.0001655
1.0001837
1.0002034
1.000225
1.0002484
1.0002738
1.0003013
1.0003309
1.0003626
1.0003966
1.0004327
1.0004709
1.0005111
1.0005531
1.0005965
1.0006411
1.0006862
1.0007313
1.0007756
1.0008182
1.0008581
1.0008943
1.0009255
1.0009504
1.0009678
1.0009769
1.0009765
1.0009657
1.0009441
1.0009115
1.000868
1.0008139
1.0007501
1.0006774
1.0005969
1.0005099
1.0004177
1.0003215
1.0002227
1.0001223
1.0000216
0.99992136
0.99982246
0.99972555
0.99963117
0.99953976
0.99945168
0.99936717
0.9992864
0.99920947
0.99913641
0.99906721
0.99900184
0.9989402
0.9988822
0.9988277
0.99877659
0.9987287
0.9986839
0.99864203
0.99860293
0.99856646
0.99853246
0.99850078
0.99847129
0.99844384
0.9984183
0.99839456
0.99837248
0.99835196
0.99833289
0.99831517
1.0001341
1.0001489
1.0001655
1.0001836
1.0002034
1.0002249
1.0002484
1.0002738
1.0003012
1.0003308
1.0003626
1.0003965
1.0004326
1.0004708
1.000511
1.000553
1.0005964
1.0006409
1.0006861
1.0007312
1.0007755
1.0008182
1.0008582
1.0008944
1.0009257
1.0009509
1.0009685
1.0009779
1.0009779
1.0009674
1.0009462
1.0009141
1.000871
1.0008175
1.000754
1.0006817
1.0006016
1.0005149
1.0004229
1.000327
1.0002283
1.0001281
1.0000274
0.9999272
0.99982829
0.99973135
0.99963693
0.99954547
0.99945733
0.99937275
0.9992919
0.99921489
0.99914175
0.99907248
0.99900702
0.99894531
0.99888723
0.99883267
0.99878149
0.99873354
0.99868868
0.99864675
0.99860761
0.99857108
0.99853704
0.99850532
0.99847578
0.9984483
0.99842273
0.99839895
0.99837685
0.9983563
0.9983372
0.99831945
1.0001341
1.0001489
1.0001655
1.0001836
1.0002034
1.0002249
1.0002483
1.0002737
1.0003012
1.0003308
1.0003625
1.0003964
1.0004325
1.0004707
1.0005109
1.0005528
1.0005962
1.0006408
1.0006859
1.000731
1.0007754
1.0008181
1.0008582
1.0008946
1.0009261
1.0009514
1.0009694
1.0009792
1.0009795
1.0009696
1.000949
1.0009174
1.0008749
1.0008219
1.0007591
1.0006873
1.0006077
1.0005214
1.0004297
1.000334
1.0002356
1.0001355
1.0000349
0.99993476
0.99983585
0.99973888
0.99964441
0.99955289
0.99946467
0.99938
0.99929906
0.99922195
0.9991487
0.99907933
0.99901377
0.99895196
0.99889379
0.99883913
0.99878787
0.99873984
0.9986949
0.9986529
0.99861368
0.99857709
0.99854298
0.9985112
0.99848161
0.99845407
0.99842845
0.99840462
0.99838247
0.99836188