/*--------------------------------*- C++ -*----------------------------------*\
| =========                 |                                                 |
| \\      /  F ield         | OpenFOAM: The Open Source CFD Toolbox           |
|  \\    /   O peration     | Version:  v2006                                 |
|   \\  /    A nd           | Website:  www.openfoam.com                      |
|    \\/     M anipulation  |                                                 |
\*---------------------------------------------------------------------------*/
FoamFile
{
    version     2.0;
    format      ascii;
    class       volScalarField;
    location    "9000";
    object      rho;
}
// * * * * * * * * * * * * * * * * * * * * * * * * * * * * * * * * * * * * * //

dimensions      [1 -3 0 0 0 0 0];


internalField   nonuniform List<scalar> 
55713
(
1.0000225
1.0000213
1.0000206
1.0000203
1.0000202
1.0000202
1.0000202
1.0000202
1.0000202
1.0000202
1.0000202
1.0000202
1.0000202
1.0000202
1.0000202
1.0000202
1.0000202
1.0000202
1.0000202
1.0000203
1.0000203
1.0000203
1.0000203
1.0000203
1.0000203
1.0000203
1.0000203
1.0000203
1.0000203
1.0000203
1.0000203
1.0000203
1.0000203
1.0000203
1.0000203
1.0000203
1.0000203
1.0000203
1.0000202
1.0000202
1.0000202
1.0000202
1.0000202
1.0000202
1.0000202
1.0000202
1.0000202
1.0000202
1.0000202
1.0000202
1.0000202
1.0000202
1.0000202
1.0000202
1.0000202
1.0000202
1.0000202
1.0000202
1.0000202
1.0000209
1.0000197
1.0000191
1.0000189
1.0000188
1.0000188
1.0000188
1.0000188
1.0000188
1.0000188
1.0000188
1.0000188
1.0000188
1.0000188
1.0000188
1.0000189
1.0000189
1.0000189
1.0000189
1.0000189
1.0000189
1.0000189
1.0000189
1.0000189
1.0000189
1.0000189
1.0000189
1.0000189
1.0000189
1.0000189
1.0000189
1.0000189
1.0000189
1.0000189
1.0000189
1.0000189
1.0000189
1.0000189
1.0000189
1.0000189
1.0000189
1.0000189
1.0000189
1.0000189
1.0000189
1.0000189
1.0000189
1.0000189
1.0000189
1.0000189
1.0000189
1.0000189
1.0000188
1.0000188
1.0000188
1.0000188
1.0000188
1.0000188
1.0000188
1.0000195
1.0000184
1.0000178
1.0000176
1.0000176
1.0000176
1.0000176
1.0000176
1.0000177
1.0000177
1.0000176
1.0000176
1.0000177
1.0000177
1.0000177
1.0000177
1.0000177
1.0000177
1.0000177
1.0000177
1.0000177
1.0000177
1.0000177
1.0000177
1.0000177
1.0000177
1.0000177
1.0000177
1.0000177
1.0000177
1.0000177
1.0000177
1.0000177
1.0000177
1.0000177
1.0000177
1.0000177
1.0000177
1.0000177
1.0000177
1.0000177
1.0000177
1.0000177
1.0000177
1.0000177
1.0000177
1.0000177
1.0000177
1.0000177
1.0000177
1.0000177
1.0000177
1.0000177
1.0000177
1.0000176
1.0000176
1.0000177
1.0000177
1.0000176
1.0000182
1.0000172
1.0000167
1.0000166
1.0000166
1.0000166
1.0000166
1.0000166
1.0000166
1.0000166
1.0000166
1.0000166
1.0000166
1.0000166
1.0000166
1.0000166
1.0000166
1.0000167
1.0000167
1.0000167
1.0000167
1.0000167
1.0000167
1.0000167
1.0000167
1.0000167
1.0000167
1.0000167
1.0000167
1.0000167
1.0000167
1.0000167
1.0000167
1.0000167
1.0000167
1.0000167
1.0000167
1.0000167
1.0000167
1.0000167
1.0000167
1.0000167
1.0000167
1.0000167
1.0000167
1.0000167
1.0000166
1.0000166
1.0000166
1.0000167
1.0000167
1.0000167
1.0000166
1.0000166
1.0000166
1.0000166
1.0000166
1.0000166
1.0000166
1.0000171
1.0000162
1.0000158
1.0000157
1.0000157
1.0000157
1.0000157
1.0000157
1.0000157
1.0000157
1.0000157
1.0000157
1.0000157
1.0000157
1.0000157
1.0000157
1.0000157
1.0000158
1.0000158
1.0000158
1.0000158
1.0000158
1.0000158
1.0000158
1.0000158
1.0000158
1.0000158
1.0000158
1.0000158
1.0000158
1.0000158
1.0000158
1.0000158
1.0000158
1.0000158
1.0000158
1.0000158
1.0000158
1.0000158
1.0000158
1.0000158
1.0000158
1.0000158
1.0000158
1.0000158
1.0000158
1.0000158
1.0000157
1.0000158
1.0000158
1.0000158
1.0000158
1.0000158
1.0000157
1.0000157
1.0000157
1.0000157
1.0000157
1.0000157
1.0000162
1.0000153
1.000015
1.0000149
1.0000149
1.0000149
1.0000149
1.000015
1.000015
1.000015
1.000015
1.000015
1.000015
1.000015
1.000015
1.000015
1.000015
1.000015
1.000015
1.000015
1.0000151
1.0000151
1.000015
1.000015
1.000015
1.000015
1.000015
1.000015
1.000015
1.000015
1.000015
1.000015
1.000015
1.000015
1.000015
1.000015
1.000015
1.000015
1.000015
1.000015
1.000015
1.000015
1.000015
1.000015
1.000015
1.000015
1.000015
1.000015
1.000015
1.000015
1.000015
1.000015
1.000015
1.000015
1.000015
1.0000149
1.000015
1.000015
1.000015
1.0000153
1.0000145
1.0000142
1.0000142
1.0000142
1.0000142
1.0000143
1.0000143
1.0000143
1.0000143
1.0000143
1.0000143
1.0000143
1.0000143
1.0000143
1.0000143
1.0000143
1.0000143
1.0000143
1.0000144
1.0000144
1.0000144
1.0000143
1.0000143
1.0000143
1.0000143
1.0000143
1.0000143
1.0000143
1.0000143
1.0000143
1.0000143
1.0000143
1.0000143
1.0000143
1.0000143
1.0000143
1.0000143
1.0000143
1.0000143
1.0000143
1.0000143
1.0000143
1.0000143
1.0000143
1.0000143
1.0000143
1.0000143
1.0000143
1.0000143
1.0000143
1.0000143
1.0000143
1.0000143
1.0000143
1.0000142
1.0000143
1.0000143
1.0000143
1.0000146
1.0000138
1.0000136
1.0000136
1.0000136
1.0000136
1.0000136
1.0000136
1.0000136
1.0000136
1.0000136
1.0000137
1.0000136
1.0000136
1.0000136
1.0000137
1.0000137
1.0000137
1.0000137
1.0000137
1.0000137
1.0000137
1.0000137
1.0000137
1.0000137
1.0000137
1.0000137
1.0000137
1.0000137
1.0000137
1.0000137
1.0000137
1.0000137
1.0000137
1.0000137
1.0000137
1.0000137
1.0000137
1.0000137
1.0000137
1.0000137
1.0000137
1.0000137
1.0000137
1.0000137
1.0000137
1.0000137
1.0000136
1.0000136
1.0000137
1.0000137
1.0000137
1.0000136
1.0000136
1.0000136
1.0000136
1.0000136
1.0000136
1.0000136
1.0000142
1.0000134
1.0000133
1.0000133
1.0000133
1.0000133
1.0000134
1.0000133
1.0000133
1.0000134
1.0000134
1.0000134
1.0000134
1.0000134
1.0000134
1.0000134
1.0000134
1.0000134
1.0000134
1.0000135
1.0000135
1.0000134
1.0000134
1.0000134
1.0000134
1.0000134
1.0000134
1.0000134
1.0000134
1.0000134
1.0000134
1.0000134
1.0000134
1.0000134
1.0000134
1.0000134
1.0000134
1.0000134
1.0000134
1.0000134
1.0000134
1.0000134
1.0000134
1.0000134
1.0000134
1.0000134
1.0000134
1.0000134
1.0000134
1.0000134
1.0000134
1.0000134
1.0000134
1.0000134
1.0000133
1.0000133
1.0000133
1.0000133
1.0000133
1.0000138
1.0000131
1.0000131
1.0000131
1.0000131
1.0000131
1.0000131
1.0000131
1.0000131
1.0000131
1.0000132
1.0000132
1.0000131
1.0000131
1.0000132
1.0000132
1.0000132
1.0000132
1.0000132
1.0000133
1.0000132
1.0000132
1.0000132
1.0000132
1.0000132
1.0000132
1.0000132
1.0000132
1.0000132
1.0000132
1.0000132
1.0000132
1.0000132
1.0000132
1.0000132
1.0000132
1.0000132
1.0000132
1.0000132
1.0000132
1.0000132
1.0000132
1.0000132
1.0000132
1.0000132
1.0000132
1.0000132
1.0000132
1.0000132
1.0000132
1.0000132
1.0000132
1.0000132
1.0000132
1.0000132
1.0000131
1.0000131
1.0000132
1.0000132
1.0000121
1.0000116
1.0000116
1.0000115
1.0000116
1.0000116
1.0000116
1.0000116
1.0000116
1.0000117
1.0000117
1.0000116
1.0000116
1.0000116
1.0000117
1.0000117
1.0000117
1.0000117
1.0000118
1.0000118
1.0000117
1.0000117
1.0000117
1.0000117
1.0000117
1.0000117
1.0000117
1.0000117
1.0000117
1.0000117
1.0000117
1.0000117
1.0000117
1.0000117
1.0000117
1.0000117
1.0000117
1.0000117
1.0000117
1.0000117
1.0000117
1.0000117
1.0000117
1.0000117
1.0000117
1.0000117
1.0000117
1.0000117
1.0000117
1.0000117
1.0000117
1.0000117
1.0000117
1.0000116
1.0000116
1.0000116
1.0000115
1.0000116
1.0000116
1.0000121
1.0000114
1.0000117
1.0000115
1.0000115
1.0000117
1.0000114
1.0000115
1.0000116
1.0000117
1.0000117
1.0000116
1.0000116
1.0000116
1.0000116
1.0000116
1.0000116
1.0000117
1.0000118
1.0000117
1.0000116
1.0000116
1.0000116
1.0000116
1.0000116
1.0000117
1.0000117
1.0000117
1.0000117
1.0000117
1.0000117
1.0000117
1.0000117
1.0000116
1.0000116
1.0000116
1.0000116
1.0000116
1.0000116
1.0000116
1.0000116
1.0000116
1.0000115
1.0000115
1.0000116
1.0000116
1.0000116
1.0000115
1.0000115
1.0000115
1.0000115
1.0000114
1.0000116
1.0000114
1.0000114
1.0000115
1.0000112
1.0000115
1.0000115
1.0000198
1.0000193
1.0000197
1.0000194
1.0000197
1.0000197
1.0000194
1.0000197
1.0000196
1.0000196
1.0000196
1.0000195
1.0000195
1.0000195
1.0000195
1.0000196
1.0000197
1.0000197
1.0000197
1.0000196
1.0000196
1.0000194
1.0000194
1.0000195
1.0000195
1.0000195
1.0000195
1.0000195
1.0000195
1.0000195
1.0000195
1.0000195
1.0000195
1.0000195
1.0000195
1.0000195
1.0000195
1.0000194
1.0000195
1.0000195
1.0000195
1.0000195
1.0000196
1.0000195
1.0000195
1.0000196
1.0000195
1.0000195
1.0000195
1.0000195
1.0000195
1.0000195
1.0000196
1.0000196
1.0000194
1.0000197
1.0000193
1.0000196
1.0000196
1.0000112
1.0000122
1.0000117
1.0000122
1.0000117
1.0000115
1.000012
1.0000118
1.0000118
1.0000117
1.0000117
1.0000121
1.0000123
1.0000123
1.0000123
1.0000122
1.0000121
1.0000119
1.0000118
1.0000118
1.0000119
1.0000122
1.0000123
1.0000124
1.0000124
1.0000124
1.0000124
1.0000124
1.0000124
1.0000124
1.0000124
1.0000124
1.0000124
1.0000124
1.0000124
1.0000124
1.0000124
1.0000123
1.0000121
1.000012
1.0000119
1.0000119
1.0000118
1.0000117
1.0000115
1.0000114
1.0000116
1.0000117
1.0000116
1.0000116
1.0000115
1.0000115
1.0000114
1.0000117
1.0000119
1.0000117
1.0000123
1.0000114
1.0000114
1.0000782
1.0000782
1.0000782
1.0000782
1.0000782
1.0000783
1.0000783
1.0000783
1.0000783
1.0000784
1.0000784
1.0000784
1.0000784
1.0000785
1.0000785
1.0000785
1.0000785
1.0000786
1.0000786
1.0000786
1.0000786
1.0000786
1.0000787
1.0000787
1.0000787
1.0000787
1.0000787
1.0000788
1.0000788
1.0000788
1.0000788
1.0000788
1.0000788
1.0000789
1.0000789
1.0000789
1.0000789
1.0000789
1.0000789
1.0000789
1.0000789
1.0000789
1.0000789
1.0000789
1.0000789
1.0000789
1.0000789
1.0000789
1.0000789
1.0000789
1.0000789
1.0000789
1.0000791
1.0000793
1.0000798
1.0000807
1.0000824
1.0000852
1.000089
1.0000716
1.0000716
1.0000716
1.0000717
1.0000717
1.0000717
1.0000717
1.0000717
1.0000718
1.0000718
1.0000718
1.0000718
1.0000718
1.0000719
1.0000719
1.0000719
1.0000719
1.0000719
1.000072
1.000072
1.000072
1.000072
1.000072
1.000072
1.0000721
1.0000721
1.0000721
1.0000721
1.0000721
1.0000721
1.0000721
1.0000721
1.0000722
1.0000722
1.0000722
1.0000722
1.0000722
1.0000722
1.0000722
1.0000722
1.0000722
1.0000722
1.0000722
1.0000722
1.0000722
1.0000722
1.0000722
1.0000722
1.0000722
1.0000722
1.0000722
1.0000723
1.0000724
1.0000726
1.000073
1.0000739
1.0000754
1.000078
1.0000815
1.0000655
1.0000655
1.0000655
1.0000656
1.0000656
1.0000656
1.0000656
1.0000656
1.0000656
1.0000657
1.0000657
1.0000657
1.0000657
1.0000657
1.0000657
1.0000658
1.0000658
1.0000658
1.0000658
1.0000658
1.0000658
1.0000658
1.0000659
1.0000659
1.0000659
1.0000659
1.0000659
1.0000659
1.0000659
1.0000659
1.0000659
1.000066
1.000066
1.000066
1.000066
1.000066
1.000066
1.000066
1.000066
1.000066
1.000066
1.000066
1.000066
1.000066
1.000066
1.000066
1.000066
1.000066
1.000066
1.000066
1.000066
1.000066
1.0000661
1.0000663
1.0000667
1.0000675
1.0000689
1.0000713
1.0000745
1.0000598
1.0000598
1.0000598
1.0000598
1.0000598
1.0000598
1.0000599
1.0000599
1.0000599
1.0000599
1.0000599
1.0000599
1.0000599
1.00006
1.00006
1.00006
1.00006
1.00006
1.00006
1.00006
1.00006
1.0000601
1.0000601
1.0000601
1.0000601
1.0000601
1.0000601
1.0000601
1.0000601
1.0000601
1.0000602
1.0000602
1.0000602
1.0000602
1.0000602
1.0000602
1.0000602
1.0000602
1.0000602
1.0000602
1.0000602
1.0000602
1.0000602
1.0000602
1.0000602
1.0000602
1.0000602
1.0000602
1.0000602
1.0000602
1.0000602
1.0000602
1.0000603
1.0000604
1.0000608
1.0000615
1.0000628
1.000065
1.0000679
1.0000545
1.0000545
1.0000545
1.0000545
1.0000545
1.0000545
1.0000545
1.0000545
1.0000546
1.0000546
1.0000546
1.0000546
1.0000546
1.0000546
1.0000546
1.0000546
1.0000546
1.0000547
1.0000547
1.0000547
1.0000547
1.0000547
1.0000547
1.0000547
1.0000547
1.0000547
1.0000547
1.0000548
1.0000548
1.0000548
1.0000548
1.0000548
1.0000548
1.0000548
1.0000548
1.0000548
1.0000548
1.0000548
1.0000548
1.0000548
1.0000548
1.0000548
1.0000548
1.0000548
1.0000548
1.0000548
1.0000548
1.0000548
1.0000548
1.0000548
1.0000548
1.0000548
1.0000549
1.000055
1.0000553
1.0000559
1.0000571
1.0000592
1.0000618
1.0000495
1.0000495
1.0000495
1.0000495
1.0000495
1.0000496
1.0000496
1.0000496
1.0000496
1.0000496
1.0000496
1.0000496
1.0000496
1.0000496
1.0000496
1.0000497
1.0000497
1.0000497
1.0000497
1.0000497
1.0000497
1.0000497
1.0000497
1.0000497
1.0000497
1.0000497
1.0000497
1.0000498
1.0000498
1.0000498
1.0000498
1.0000498
1.0000498
1.0000498
1.0000498
1.0000498
1.0000498
1.0000498
1.0000498
1.0000498
1.0000498
1.0000498
1.0000498
1.0000498
1.0000498
1.0000498
1.0000498
1.0000498
1.0000498
1.0000498
1.0000498
1.0000498
1.0000498
1.0000499
1.0000502
1.0000508
1.0000518
1.0000537
1.0000561
1.0000449
1.0000449
1.0000449
1.0000449
1.000045
1.000045
1.000045
1.000045
1.000045
1.000045
1.000045
1.000045
1.000045
1.000045
1.000045
1.0000451
1.0000451
1.0000451
1.0000451
1.0000451
1.0000451
1.0000451
1.0000451
1.0000451
1.0000451
1.0000451
1.0000451
1.0000451
1.0000451
1.0000451
1.0000452
1.0000452
1.0000452
1.0000452
1.0000452
1.0000452
1.0000452
1.0000452
1.0000452
1.0000451
1.0000451
1.0000451
1.0000451
1.0000451
1.0000451
1.0000451
1.0000451
1.0000451
1.0000451
1.0000451
1.0000451
1.0000451
1.0000452
1.0000453
1.0000455
1.000046
1.000047
1.0000487
1.0000509
1.0000407
1.0000407
1.0000407
1.0000407
1.0000407
1.0000407
1.0000407
1.0000407
1.0000408
1.0000408
1.0000408
1.0000408
1.0000408
1.0000408
1.0000408
1.0000408
1.0000408
1.0000408
1.0000408
1.0000408
1.0000408
1.0000408
1.0000409
1.0000409
1.0000409
1.0000409
1.0000409
1.0000409
1.0000409
1.0000409
1.0000409
1.0000409
1.0000409
1.0000409
1.0000409
1.0000409
1.0000409
1.0000409
1.0000409
1.0000409
1.0000409
1.0000409
1.0000409
1.0000409
1.0000409
1.0000409
1.0000409
1.0000409
1.0000409
1.0000409
1.0000409
1.0000409
1.0000409
1.000041
1.0000412
1.0000416
1.0000424
1.0000441
1.0000461
1.0000368
1.0000368
1.0000368
1.0000368
1.0000368
1.0000368
1.0000368
1.0000368
1.0000369
1.0000369
1.0000369
1.0000369
1.0000369
1.0000369
1.0000369
1.0000369
1.0000369
1.0000369
1.0000369
1.0000369
1.0000369
1.0000369
1.0000369
1.0000369
1.000037
1.000037
1.000037
1.000037
1.000037
1.000037
1.000037
1.000037
1.000037
1.000037
1.000037
1.000037
1.000037
1.000037
1.000037
1.000037
1.000037
1.000037
1.000037
1.0000369
1.0000369
1.0000369
1.0000369
1.0000369
1.0000369
1.0000369
1.0000369
1.0000369
1.0000369
1.000037
1.0000372
1.0000375
1.0000383
1.0000398
1.0000416
1.0000332
1.0000332
1.0000332
1.0000332
1.0000332
1.0000332
1.0000333
1.0000333
1.0000333
1.0000333
1.0000333
1.0000333
1.0000333
1.0000333
1.0000333
1.0000333
1.0000333
1.0000333
1.0000333
1.0000333
1.0000333
1.0000333
1.0000334
1.0000334
1.0000334
1.0000334
1.0000334
1.0000334
1.0000334
1.0000334
1.0000334
1.0000334
1.0000334
1.0000334
1.0000334
1.0000334
1.0000334
1.0000334
1.0000334
1.0000334
1.0000334
1.0000334
1.0000334
1.0000334
1.0000333
1.0000333
1.0000333
1.0000333
1.0000334
1.0000333
1.0000333
1.0000333
1.0000333
1.0000334
1.0000335
1.0000338
1.0000345
1.0000358
1.0000375
1.00003
1.00003
1.00003
1.00003
1.00003
1.00003
1.00003
1.00003
1.00003
1.00003
1.00003
1.00003
1.00003
1.00003
1.00003
1.00003
1.0000301
1.0000301
1.0000301
1.0000301
1.0000301
1.0000301
1.0000301
1.0000301
1.0000301
1.0000301
1.0000301
1.0000301
1.0000301
1.0000301
1.0000301
1.0000301
1.0000301
1.0000301
1.0000301
1.0000301
1.0000301
1.0000301
1.0000301
1.0000301
1.0000301
1.0000301
1.0000301
1.0000301
1.0000301
1.0000301
1.0000301
1.0000301
1.0000301
1.0000301
1.0000301
1.0000301
1.00003
1.0000301
1.0000302
1.0000304
1.000031
1.0000322
1.0000338
1.000027
1.000027
1.000027
1.000027
1.000027
1.000027
1.000027
1.000027
1.000027
1.000027
1.000027
1.000027
1.000027
1.000027
1.0000271
1.0000271
1.0000271
1.0000271
1.0000271
1.0000271
1.0000271
1.0000271
1.0000271
1.0000271
1.0000271
1.0000271
1.0000271
1.0000271
1.0000271
1.0000271
1.0000271
1.0000271
1.0000271
1.0000271
1.0000271
1.0000271
1.0000271
1.0000271
1.0000271
1.0000271
1.0000271
1.0000271
1.0000271
1.0000271
1.0000271
1.0000271
1.0000271
1.0000271
1.0000271
1.0000271
1.0000271
1.0000271
1.0000271
1.0000271
1.0000271
1.0000273
1.0000279
1.0000289
1.0000304
1.0000243
1.0000243
1.0000243
1.0000243
1.0000243
1.0000243
1.0000243
1.0000243
1.0000243
1.0000243
1.0000243
1.0000243
1.0000243
1.0000243
1.0000244
1.0000244
1.0000244
1.0000244
1.0000244
1.0000244
1.0000244
1.0000244
1.0000244
1.0000244
1.0000244
1.0000244
1.0000244
1.0000244
1.0000244
1.0000244
1.0000244
1.0000244
1.0000244
1.0000244
1.0000244
1.0000244
1.0000244
1.0000244
1.0000244
1.0000244
1.0000244
1.0000244
1.0000244
1.0000244
1.0000244
1.0000244
1.0000244
1.0000244
1.0000244
1.0000244
1.0000244
1.0000244
1.0000243
1.0000243
1.0000244
1.0000246
1.000025
1.0000259
1.0000273
1.0000219
1.0000219
1.0000219
1.0000219
1.000022
1.000022
1.000022
1.000022
1.000022
1.000022
1.000022
1.000022
1.000022
1.000022
1.000022
1.000022
1.000022
1.000022
1.000022
1.000022
1.000022
1.000022
1.0000221
1.0000221
1.000022
1.000022
1.0000221
1.0000221
1.0000221
1.0000221
1.0000221
1.0000221
1.0000221
1.0000221
1.0000221
1.0000221
1.0000221
1.0000221
1.0000221
1.0000221
1.000022
1.000022
1.000022
1.000022
1.000022
1.000022
1.000022
1.000022
1.000022
1.000022
1.000022
1.000022
1.000022
1.000022
1.000022
1.0000221
1.0000225
1.0000233
1.0000246
1.0000979
1.0001088
1.0001211
1.0001344
1.0001489
1.0001648
1.000182
1.0002007
1.000221
1.0002428
1.0002661
1.000291
1.0003174
1.0003453
1.0003745
1.0004047
1.0004358
1.0004674
1.0004989
1.0005299
1.0005597
1.0005875
1.0006125
1.0006335
1.0006498
1.0006599
1.0006631
1.0006591
1.000646
1.0006236
1.0005919
1.0005493
1.0004985
1.0004388
1.0003693
1.0002936
1.0002114
1.0001224
1.0000296
0.99993441
0.99983762
0.99973995
0.99964281
0.99954686
0.99945295
0.9993606
0.99927008
0.99918286
0.99909913
0.99901898
0.99894277
0.99887036
0.99880168
0.99873709
0.99867631
0.99861889
0.99856482
0.99851418
0.99846666
0.998422
0.99838029
0.99834144
0.99830523
0.9982715
0.99824012
0.99821093
0.99818381
0.99815863
0.99813525
0.99811357
0.99809349
0.99807491
0.99805777
0.99804178
1.0000939
1.0001045
1.0001163
1.0001294
1.0001436
1.0001591
1.000176
1.0001942
1.000214
1.0002353
1.0002581
1.0002824
1.0003083
1.0003356
1.0003643
1.000394
1.0004246
1.0004558
1.000487
1.0005178
1.0005475
1.0005754
1.0006006
1.0006222
1.0006393
1.0006505
1.0006551
1.0006528
1.0006418
1.0006218
1.0005929
1.0005541
1.0005061
1.0004496
1.0003848
1.000313
1.0002351
1.0001514
1.0000631
0.99997205
0.99987906
0.99978503
0.9996912
0.99959818
0.99950734
0.99941616
0.99932793
0.99924358
0.9991627
0.99908518
0.99901116
0.99894066
0.99887376
0.99881098
0.99875191
0.99869602
0.99864331
0.99859388
0.99854743
0.99850366
0.99846276
0.99842464
0.9983891
0.99835598
0.99832516
0.99829649
0.99826985
0.9982451
0.99822213
0.99820083
0.99818108
0.99816281
0.99814597
0.99813026
1.0000908
1.000101
1.0001126
1.0001252
1.0001391
1.0001541
1.0001705
1.0001883
1.0002076
1.0002283
1.0002505
1.0002742
1.0002994
1.000326
1.0003539
1.0003829
1.0004127
1.0004432
1.0004737
1.0005039
1.0005331
1.0005606
1.0005855
1.000607
1.0006243
1.0006358
1.0006411
1.0006398
1.0006302
1.0006119
1.0005851
1.0005492
1.0005042
1.0004509
1.0003898
1.0003217
1.0002478
1.0001685
1.000085
0.99999879
0.99991069
0.9998215
0.99973241
0.99964413
0.99955764
0.99947264
0.99938932
0.99930894
0.99923167
0.99915756
0.99908679
0.9990193
0.99895552
0.99889642
0.99883997
0.99878592
0.99873492
0.99868724
0.99864213
0.99859953
0.99855986
0.99852302
0.99848878
0.99845693
0.99842733
0.99839982
0.99837438
0.99835079
0.9983289
0.99830857
0.99828976
0.99827238
0.99825637
0.99824134
1.0000889
1.0000989
1.0001102
1.0001226
1.0001361
1.0001508
1.0001668
1.0001841
1.0002029
1.0002231
1.0002448
1.0002679
1.0002925
1.0003184
1.0003456
1.0003739
1.000403
1.0004327
1.0004624
1.0004918
1.0005203
1.0005471
1.0005714
1.0005923
1.0006092
1.0006204
1.0006256
1.0006245
1.0006152
1.0005975
1.0005716
1.0005368
1.0004933
1.0004419
1.0003829
1.0003172
1.0002459
1.0001694
1.000089
1.000006
0.99992138
0.99983575
0.99975023
0.99966552
0.99958242
0.99950095
0.99942127
0.99934443
0.99927058
0.99919979
0.99913217
0.99906778
0.99900666
0.99894914
0.99889498
0.99884378
0.99879553
0.99875028
0.99870777
0.99866779
0.99863047
0.99859568
0.99856325
0.99853304
0.99850493
0.99847879
0.99845449
0.99843192
0.99841096
0.99839148
0.99837336
0.99835695
0.99834217
0.99832817
1.0000879
1.0000977
1.0001088
1.0001209
1.0001342
1.0001486
1.0001643
1.0001814
1.0001998
1.0002196
1.0002408
1.0002635
1.0002876
1.000313
1.0003396
1.0003672
1.0003957
1.0004247
1.0004537
1.0004824
1.0005101
1.0005361
1.0005597
1.0005799
1.0005961
1.0006067
1.0006114
1.0006099
1.0006003
1.0005825
1.0005565
1.0005219
1.0004788
1.000428
1.0003697
1.0003049
1.0002346
1.0001594
1.0000804
0.99999898
0.99991597
0.99983211
0.99974844
0.99966564
0.99958444
0.99950492
0.99942726
0.9993524
0.99928053
0.99921169
0.99914598
0.99908348
0.99902419
0.99896831
0.99891568
0.99886605
0.9988193
0.99877546
0.99873437
0.99869576
0.9986597
0.9986261
0.99859477
0.99856561
0.99853841
0.99851336
0.99849018
0.99846861
0.99844856
0.99842991
0.99841263
0.99839663
0.99838183
0.99836797
1.0000873
1.000097
1.000108
1.00012
1.000133
1.0001473
1.0001628
1.0001796
1.0001977
1.0002172
1.0002382
1.0002605
1.0002842
1.0003092
1.0003353
1.0003625
1.0003904
1.0004188
1.0004473
1.0004753
1.0005023
1.0005277
1.0005506
1.0005701
1.0005856
1.0005956
1.0005997
1.0005975
1.0005874
1.0005691
1.0005427
1.0005078
1.0004645
1.0004135
1.0003551
1.0002904
1.0002202
1.0001452
1.0000666
0.99998554
0.99990298
0.99981967
0.99973659
0.99965441
0.99957385
0.99949503
0.99941815
0.99934406
0.99927295
0.99920487
0.99913993
0.99907819
0.99901967
0.9989645
0.99891256
0.99886359
0.99881749
0.99877425
0.99873373
0.99869574
0.99866024
0.99862715
0.99859633
0.99856763
0.99854093
0.99851612
0.99849306
0.99847165
0.99845178
0.99843335
0.99841626
0.99840045
0.99838586
0.99837235
1.000087
1.0000967
1.0001075
1.0001194
1.0001323
1.0001465
1.0001618
1.0001784
1.0001964
1.0002157
1.0002364
1.0002584
1.0002819
1.0003065
1.0003323
1.0003591
1.0003867
1.0004146
1.0004426
1.0004702
1.0004967
1.0005215
1.0005438
1.0005627
1.0005777
1.000587
1.0005905
1.0005878
1.0005771
1.0005583
1.0005314
1.000496
1.0004523
1.0004009
1.0003422
1.0002771
1.0002067
1.0001315
1.0000527
0.99997154
0.99988889
0.99980554
0.99972243
0.99964026
0.99955969
0.99948092
0.99940416
0.99933016
0.99925916
0.99919121
0.99912641
0.99906482
0.99900646
0.99895142
0.99889958
0.99885074
0.99880479
0.9987617
0.99872133
0.99868351
0.99864817
0.99861523
0.99858454
0.99855596
0.99852938
0.99850467
0.99848171
0.9984604
0.99844063
0.99842231
0.99840534
0.99838962
0.99837508
0.9983616
1.0000868
1.0000964
1.0001072
1.0001191
1.0001319
1.0001459
1.0001612
1.0001777
1.0001955
1.0002147
1.0002352
1.0002571
1.0002803
1.0003047
1.0003303
1.0003568
1.000384
1.0004117
1.0004393
1.0004665
1.0004926
1.000517
1.0005388
1.0005573
1.0005718
1.0005807
1.0005837
1.0005805
1.0005693
1.0005501
1.0005227
1.0004869
1.0004428
1.000391
1.0003319
1.0002665
1.0001958
1.0001203
1.0000412
0.99995979
0.99987691
0.99979336
0.99971005
0.9996277
0.99954693
0.999468
0.99939115
0.99931705
0.99924594
0.99917789
0.99911301
0.99905136
0.99899295
0.99893783
0.99888591
0.99883701
0.99879103
0.99874789
0.99870748
0.99866964
0.99863429
0.99860133
0.99857062
0.99854203
0.99851543
0.99849071
0.99846775
0.99844644
0.99842666
0.99840833
0.99839133
0.99837559
0.99836102
0.99834753
1.0000868
1.0000963
1.0001071
1.0001189
1.0001317
1.0001456
1.0001608
1.0001772
1.0001949
1.000214
1.0002344
1.0002561
1.0002792
1.0003034
1.0003288
1.0003551
1.0003821
1.0004095
1.0004369
1.0004638
1.0004896
1.0005137
1.0005352
1.0005534
1.0005675
1.000576
1.0005787
1.0005751
1.0005636
1.000544
1.0005164
1.0004802
1.0004358
1.0003837
1.0003244
1.0002587
1.0001877
1.000112
1.0000327
0.99995108
0.99986799
0.99978425
0.99970077
0.99961824
0.99953728
0.99945819
0.99938124
0.99930701
0.99923578
0.99916763
0.99910265
0.9990409
0.99898242
0.9989272
0.99887517
0.99882618
0.99878013
0.99873693
0.99869646
0.99865859
0.99862322
0.99859022
0.99855948
0.99853086
0.99850424
0.99847949
0.99845651
0.99843517
0.99841538
0.99839703
0.99838002
0.99836426
0.99834968
0.99833616
1.0000867
1.0000963
1.000107
1.0001188
1.0001315
1.0001454
1.0001605
1.0001769
1.0001946
1.0002135
1.0002338
1.0002555
1.0002784
1.0003026
1.0003278
1.000354
1.0003808
1.000408
1.0004352
1.0004619
1.0004875
1.0005113
1.0005327
1.0005505
1.0005644
1.0005727
1.0005751
1.0005713
1.0005596
1.0005398
1.0005119
1.0004756
1.000431
1.0003787
1.0003192
1.0002534
1.0001822
1.0001063
1.0000269
0.99994516
0.99986195
0.99977809
0.99969449
0.99961184
0.99953074
0.99945153
0.99937452
0.99930022
0.99922891
0.99916068
0.99909563
0.99903382
0.99897527
0.99891998
0.99886787
0.99881882
0.99877272
0.99872947
0.99868896
0.99865106
0.99861566
0.99858264
0.99855187
0.99852322
0.99849657
0.99847179
0.99844879
0.99842743
0.99840761
0.99838924
0.99837221
0.99835644
0.99834183
0.9983283
1.0000867
1.0000963
1.000107
1.0001187
1.0001314
1.0001453
1.0001604
1.0001767
1.0001943
1.0002132
1.0002335
1.000255
1.0002779
1.0003019
1.0003271
1.0003531
1.0003799
1.0004069
1.000434
1.0004605
1.000486
1.0005097
1.0005308
1.0005485
1.0005623
1.0005705
1.0005726
1.0005687
1.0005569
1.000537
1.000509
1.0004725
1.0004278
1.0003755
1.0003159
1.0002501
1.0001788
1.0001028
1.0000234
0.99994155
0.99985827
0.99977435
0.99969068
0.99960796
0.99952677
0.99944749
0.99937045
0.99929611
0.99922474
0.99915646
0.99909137
0.99902952
0.99897093
0.99891559
0.99886342
0.99881432
0.99876818
0.9987249
0.99868436
0.99864645
0.99861103
0.99857799
0.99854721
0.99851855
0.99849189
0.99846711
0.99844409
0.99842272
0.9984029
0.99838452
0.99836748
0.99835169
0.99833708
0.99832353
1.0000867
1.0000963
1.000107
1.0001187
1.0001314
1.0001452
1.0001603
1.0001766
1.0001941
1.000213
1.0002332
1.0002547
1.0002775
1.0003015
1.0003266
1.0003525
1.0003792
1.0004062
1.0004331
1.0004595
1.0004849
1.0005085
1.0005295
1.0005471
1.0005608
1.0005689
1.0005709
1.000567
1.0005551
1.0005352
1.0005072
1.0004708
1.0004261
1.0003737
1.0003142
1.0002483
1.000177
1.0001011
1.0000216
0.99993979
0.99985648
0.99977255
0.99968885
0.99960608
0.99952483
0.9994455
0.99936845
0.99929408
0.99922267
0.99915436
0.99908924
0.99902736
0.99896874
0.99891335
0.99886114
0.998812
0.99876583
0.99872252
0.99868196
0.99864403
0.9986086
0.99857555
0.99854475
0.99851607
0.9984894
0.9984646
0.99844157
0.99842019
0.99840035
0.99838196
0.99836491
0.99834911
0.99833449
0.99832094
1.0000867
1.0000963
1.000107
1.0001186
1.0001314
1.0001452
1.0001602
1.0001765
1.000194
1.0002129
1.000233
1.0002545
1.0002772
1.0003012
1.0003262
1.0003521
1.0003787
1.0004056
1.0004325
1.0004589
1.0004841
1.0005076
1.0005286
1.0005462
1.0005599
1.0005674
1.0005698
1.0005661
1.0005542
1.0005343
1.0005063
1.00047
1.0004254
1.0003731
1.0003137
1.0002478
1.0001766
1.0001007
1.0000213
0.99993951
0.99985621
0.99977229
0.99968858
0.99960578
0.99952448
0.99944512
0.99936806
0.99929367
0.99922223
0.99915389
0.99908873
0.99902682
0.99896817
0.99891274
0.99886048
0.9988113
0.9987651
0.99872176
0.99868118
0.99864323
0.99860779
0.99857472
0.99854391
0.99851522
0.99848853
0.99846373
0.99844068
0.99841929
0.99839944
0.99838104
0.99836398
0.99834817
0.99833353
0.99831998
1.0000867
1.0000963
1.000107
1.0001186
1.0001313
1.0001452
1.0001602
1.0001764
1.0001939
1.0002128
1.0002329
1.0002543
1.000277
1.0003009
1.0003259
1.0003518
1.0003783
1.0004052
1.000432
1.0004584
1.0004836
1.0005071
1.000528
1.0005456
1.0005592
1.0005673
1.0005694
1.0005656
1.0005538
1.000534
1.0005062
1.00047
1.0004256
1.0003735
1.0003142
1.0002485
1.0001773
1.0001016
1.0000223
0.99994053
0.99985727
0.99977337
0.99968967
0.99960686
0.99952553
0.99944614
0.99936905
0.99929465
0.99922317
0.99915479
0.9990896
0.99902765
0.99896896
0.99891349
0.99886118
0.99881196
0.99876572
0.99872235
0.99868174
0.99864376
0.99860829
0.9985752
0.99854437
0.99851566
0.99848895
0.99846413
0.99844107
0.99841966
0.9983998
0.99838138
0.99836431
0.99834849
0.99833385
0.99832028
1.0000867
1.0000963
1.0001069
1.0001186
1.0001313
1.0001452
1.0001602
1.0001764
1.0001939
1.0002127
1.0002328
1.0002542
1.0002769
1.0003008
1.0003257
1.0003516
1.0003781
1.0004049
1.0004317
1.000458
1.0004832
1.0005067
1.0005277
1.0005452
1.000559
1.0005666
1.0005692
1.0005656
1.000554
1.0005344
1.0005068
1.0004708
1.0004266
1.0003747
1.0003157
1.0002502
1.0001792
1.0001036
1.0000245
0.99994279
0.9998596
0.99977575
0.99969206
0.99960924
0.99952789
0.99944846
0.99937136
0.99929692
0.9992254
0.99915697
0.99909173
0.99902973
0.99897098
0.99891546
0.9988631
0.99881382
0.99876753
0.99872412
0.99868347
0.99864545
0.99860995
0.99857683
0.99854596
0.99851723
0.99849049
0.99846564
0.99844256
0.99842113
0.99840125
0.99838281
0.99836571
0.99834988
0.99833521
0.99832163
1.0000867
1.0000962
1.0001069
1.0001186
1.0001313
1.0001451
1.0001601
1.0001764
1.0001938
1.0002126
1.0002327
1.0002541
1.0002768
1.0003006
1.0003256
1.0003514
1.0003778
1.0004047
1.0004315
1.0004577
1.0004829
1.0005064
1.0005275
1.0005451
1.0005589
1.0005668
1.0005695
1.000566
1.0005546
1.0005353
1.000508
1.0004723
1.0004285
1.0003769
1.0003182
1.000253
1.0001822
1.0001068
1.0000279
0.99994633
0.99986324
0.99977945
0.99969579
0.99961297
0.99953159
0.99945213
0.99937499
0.99930051
0.99922894
0.99916045
0.99909515
0.99903308
0.99897426
0.99891867
0.99886624
0.9988169
0.99877055
0.99872708
0.99868638
0.99864831
0.99861277
0.9985796
0.9985487
0.99851993
0.99849316
0.99846828
0.99844517
0.99842371
0.9984038
0.99838534
0.99836823
0.99835237
0.99833769
0.99832409
1.0000867
1.0000962
1.0001069
1.0001186
1.0001313
1.0001451
1.0001601
1.0001763
1.0001938
1.0002126
1.0002327
1.0002541
1.0002767
1.0003005
1.0003254
1.0003512
1.0003777
1.0004045
1.0004313
1.0004575
1.0004828
1.0005063
1.0005274
1.0005451
1.000559
1.0005672
1.0005701
1.0005668
1.0005557
1.0005368
1.0005098
1.0004746
1.0004312
1.00038
1.0003217
1.0002569
1.0001865
1.0001114
1.0000326
0.99995129
0.99986833
0.99978464
0.99970102
0.99961821
0.99953681
0.99945731
0.99938012
0.99930559
0.99923395
0.99916538
0.99909999
0.99903784
0.99897894