/*--------------------------------*- C++ -*----------------------------------*\
| =========                 |                                                 |
| \\      /  F ield         | OpenFOAM: The Open Source CFD Toolbox           |
|  \\    /   O peration     | Version:  v2006                                 |
|   \\  /    A nd           | Website:  www.openfoam.com                      |
|    \\/     M anipulation  |                                                 |
\*---------------------------------------------------------------------------*/
FoamFile
{
    version     2.0;
    format      ascii;
    class       volScalarField;
    location    "9000";
    object      T;
}
// * * * * * * * * * * * * * * * * * * * * * * * * * * * * * * * * * * * * * //

dimensions      [0 0 0 1 0 0 0];


internalField   nonuniform List<scalar> 
55713
(
1.0000062
1.0000074
1.0000081
1.0000084
1.0000085
1.0000085
1.0000085
1.0000085
1.0000085
1.0000085
1.0000085
1.0000085
1.0000085
1.0000085
1.0000085
1.0000085
1.0000085
1.0000085
1.0000085
1.0000084
1.0000084
1.0000084
1.0000084
1.0000084
1.0000084
1.0000085
1.0000085
1.0000085
1.0000084
1.0000084
1.0000084
1.0000084
1.0000084
1.0000085
1.0000085
1.0000085
1.0000085
1.0000085
1.0000085
1.0000085
1.0000085
1.0000085
1.0000085
1.0000085
1.0000085
1.0000085
1.0000085
1.0000085
1.0000085
1.0000085
1.0000085
1.0000085
1.0000085
1.0000085
1.0000085
1.0000085
1.0000085
1.0000085
1.0000085
1.0000059
1.0000071
1.0000077
1.0000079
1.000008
1.000008
1.000008
1.000008
1.0000079
1.0000079
1.0000079
1.0000079
1.0000079
1.0000079
1.0000079
1.0000079
1.0000079
1.0000079
1.0000079
1.0000079
1.0000079
1.0000079
1.0000079
1.0000079
1.0000079
1.0000079
1.0000079
1.0000079
1.0000079
1.0000079
1.0000079
1.0000079
1.0000079
1.0000079
1.0000079
1.0000079
1.0000079
1.0000079
1.0000079
1.000008
1.000008
1.000008
1.000008
1.0000079
1.0000079
1.0000079
1.0000079
1.0000079
1.0000079
1.0000079
1.0000079
1.000008
1.000008
1.000008
1.000008
1.000008
1.000008
1.000008
1.000008
1.0000057
1.0000067
1.0000073
1.0000075
1.0000075
1.0000075
1.0000075
1.0000075
1.0000075
1.0000075
1.0000074
1.0000074
1.0000074
1.0000074
1.0000074
1.0000074
1.0000074
1.0000074
1.0000074
1.0000074
1.0000074
1.0000074
1.0000074
1.0000074
1.0000074
1.0000074
1.0000074
1.0000074
1.0000074
1.0000074
1.0000074
1.0000074
1.0000074
1.0000074
1.0000074
1.0000074
1.0000074
1.0000074
1.0000075
1.0000075
1.0000075
1.0000075
1.0000075
1.0000075
1.0000074
1.0000074
1.0000075
1.0000075
1.0000075
1.0000075
1.0000075
1.0000075
1.0000075
1.0000075
1.0000075
1.0000075
1.0000075
1.0000075
1.0000075
1.0000054
1.0000065
1.0000069
1.0000071
1.0000071
1.0000071
1.0000071
1.0000071
1.000007
1.000007
1.000007
1.000007
1.000007
1.000007
1.000007
1.000007
1.000007
1.000007
1.000007
1.000007
1.000007
1.000007
1.000007
1.000007
1.000007
1.000007
1.000007
1.000007
1.000007
1.000007
1.000007
1.000007
1.000007
1.000007
1.000007
1.000007
1.000007
1.000007
1.000007
1.0000071
1.0000071
1.0000071
1.0000071
1.000007
1.000007
1.000007
1.000007
1.0000071
1.0000071
1.0000071
1.0000071
1.0000071
1.0000071
1.0000071
1.0000071
1.0000071
1.0000071
1.0000071
1.0000071
1.0000053
1.0000062
1.0000066
1.0000067
1.0000067
1.0000067
1.0000067
1.0000067
1.0000067
1.0000067
1.0000067
1.0000066
1.0000066
1.0000066
1.0000066
1.0000066
1.0000067
1.0000067
1.0000067
1.0000066
1.0000066
1.0000066
1.0000066
1.0000067
1.0000067
1.0000067
1.0000067
1.0000066
1.0000066
1.0000066
1.0000066
1.0000066
1.0000066
1.0000067
1.0000067
1.0000067
1.0000067
1.0000067
1.0000067
1.0000067
1.0000067
1.0000067
1.0000067
1.0000067
1.0000067
1.0000067
1.0000067
1.0000067
1.0000067
1.0000067
1.0000067
1.0000067
1.0000067
1.0000067
1.0000068
1.0000068
1.0000067
1.0000067
1.0000068
1.0000051
1.000006
1.0000064
1.0000064
1.0000064
1.0000064
1.0000064
1.0000064
1.0000064
1.0000064
1.0000064
1.0000063
1.0000063
1.0000063
1.0000063
1.0000063
1.0000064
1.0000064
1.0000064
1.0000063
1.0000063
1.0000063
1.0000063
1.0000064
1.0000064
1.0000064
1.0000063
1.0000063
1.0000063
1.0000063
1.0000063
1.0000063
1.0000063
1.0000063
1.0000063
1.0000063
1.0000063
1.0000063
1.0000064
1.0000064
1.0000064
1.0000064
1.0000064
1.0000064
1.0000064
1.0000064
1.0000064
1.0000064
1.0000064
1.0000064
1.0000064
1.0000064
1.0000064
1.0000064
1.0000064
1.0000065
1.0000064
1.0000064
1.0000064
1.000005
1.0000058
1.0000061
1.0000062
1.0000061
1.0000061
1.0000061
1.0000061
1.0000061
1.0000061
1.0000061
1.0000061
1.0000061
1.0000061
1.0000061
1.0000061
1.0000061
1.0000061
1.0000061
1.0000061
1.000006
1.000006
1.0000061
1.0000061
1.0000061
1.0000061
1.0000061
1.0000061
1.0000061
1.0000061
1.0000061
1.0000061
1.0000061
1.0000061
1.0000061
1.0000061
1.0000061
1.0000061
1.0000061
1.0000061
1.0000061
1.0000061
1.0000061
1.0000061
1.0000061
1.0000061
1.0000061
1.0000061
1.0000061
1.0000061
1.0000061
1.0000061
1.0000061
1.0000061
1.0000062
1.0000062
1.0000062
1.0000062
1.0000062
1.0000049
1.0000057
1.0000059
1.0000059
1.0000059
1.0000059
1.0000059
1.0000059
1.0000059
1.0000059
1.0000059
1.0000058
1.0000058
1.0000059
1.0000059
1.0000059
1.0000059
1.0000059
1.0000058
1.0000058
1.0000058
1.0000058
1.0000058
1.0000059
1.0000059
1.0000058
1.0000058
1.0000058
1.0000058
1.0000058
1.0000058
1.0000058
1.0000058
1.0000058
1.0000058
1.0000058
1.0000058
1.0000058
1.0000058
1.0000059
1.0000059
1.0000059
1.0000059
1.0000059
1.0000059
1.0000059
1.0000059
1.0000059
1.0000059
1.0000059
1.0000059
1.0000059
1.0000059
1.0000059
1.0000059
1.000006
1.0000059
1.0000059
1.0000059
1.0000049
1.0000056
1.0000058
1.0000058
1.0000057
1.0000057
1.0000057
1.0000057
1.0000057
1.0000057
1.0000057
1.0000057
1.0000057
1.0000057
1.0000057
1.0000057
1.0000057
1.0000057
1.0000057
1.0000056
1.0000056
1.0000057
1.0000057
1.0000057
1.0000057
1.0000057
1.0000057
1.0000057
1.0000056
1.0000056
1.0000056
1.0000056
1.0000056
1.0000057
1.0000057
1.0000057
1.0000057
1.0000057
1.0000057
1.0000057
1.0000057
1.0000058
1.0000058
1.0000057
1.0000057
1.0000057
1.0000057
1.0000057
1.0000057
1.0000057
1.0000057
1.0000057
1.0000057
1.0000057
1.0000057
1.0000058
1.0000058
1.0000057
1.0000057
1.0000049
1.0000056
1.0000056
1.0000056
1.0000056
1.0000056
1.0000055
1.0000056
1.0000056
1.0000056
1.0000055
1.0000055
1.0000055
1.0000056
1.0000056
1.0000056
1.0000055
1.0000055
1.0000055
1.0000055
1.0000055
1.0000055
1.0000056
1.0000056
1.0000055
1.0000055
1.0000055
1.0000055
1.0000055
1.0000055
1.0000055
1.0000055
1.0000055
1.0000055
1.0000055
1.0000055
1.0000055
1.0000055
1.0000055
1.0000055
1.0000056
1.0000056
1.0000056
1.0000056
1.0000056
1.0000056
1.0000056
1.0000056
1.0000056
1.0000056
1.0000056
1.0000055
1.0000056
1.0000056
1.0000056
1.0000056
1.0000056
1.0000056
1.0000056
1.0000048
1.0000053
1.0000053
1.0000053
1.0000053
1.0000053
1.0000053
1.0000053
1.0000053
1.0000053
1.0000052
1.0000052
1.0000053
1.0000053
1.0000053
1.0000052
1.0000052
1.0000052
1.0000052
1.0000051
1.0000052
1.0000053
1.0000053
1.0000052
1.0000052
1.0000052
1.0000052
1.0000052
1.0000052
1.0000052
1.0000052
1.0000052
1.0000052
1.0000052
1.0000052
1.0000052
1.0000052
1.0000052
1.0000052
1.0000052
1.0000052
1.0000053
1.0000053
1.0000053
1.0000053
1.0000053
1.0000053
1.0000052
1.0000053
1.0000053
1.0000053
1.0000053
1.0000052
1.0000053
1.0000053
1.0000053
1.0000054
1.0000053
1.0000053
1.0000047
1.0000054
1.0000052
1.0000053
1.0000052
1.0000051
1.0000053
1.0000052
1.0000053
1.0000051
1.000005
1.000005
1.0000052
1.0000051
1.0000051
1.0000051
1.0000051
1.000005
1.0000049
1.000005
1.0000051
1.0000051
1.0000051
1.0000051
1.0000051
1.000005
1.000005
1.000005
1.000005
1.000005
1.000005
1.000005
1.000005
1.000005
1.000005
1.000005
1.0000051
1.000005
1.0000051
1.000005
1.000005
1.0000051
1.0000051
1.0000051
1.0000051
1.0000051
1.0000051
1.000005
1.0000051
1.0000052
1.0000051
1.0000052
1.000005
1.0000052
1.0000053
1.0000051
1.0000054
1.0000051
1.0000051
1.000006
1.0000065
1.0000062
1.0000065
1.0000061
1.0000061
1.0000065
1.0000062
1.0000063
1.0000063
1.0000063
1.0000062
1.0000062
1.0000063
1.0000063
1.0000062
1.0000061
1.0000061
1.0000061
1.0000062
1.0000062
1.0000064
1.0000063
1.0000063
1.0000063
1.0000063
1.0000063
1.0000063
1.0000063
1.0000063
1.0000063
1.0000063
1.0000063
1.0000063
1.0000063
1.0000063
1.0000063
1.0000063
1.0000063
1.0000063
1.0000063
1.0000062
1.0000063
1.0000063
1.0000064
1.0000063
1.0000064
1.0000062
1.0000062
1.0000064
1.0000064
1.0000064
1.0000062
1.0000061
1.0000065
1.0000061
1.0000065
1.0000062
1.0000062
1.0000047
1.0000038
1.0000043
1.0000039
1.0000044
1.0000045
1.000004
1.0000042
1.0000041
1.0000043
1.0000044
1.0000045
1.0000041
1.0000038
1.0000038
1.0000037
1.0000039
1.000004
1.0000043
1.0000043
1.0000042
1.0000039
1.0000038
1.0000038
1.0000038
1.0000038
1.0000038
1.0000038
1.0000038
1.0000038
1.0000038
1.0000038
1.0000038
1.0000038
1.0000038
1.0000038
1.0000037
1.0000037
1.0000037
1.0000037
1.0000037
1.0000038
1.0000039
1.0000041
1.0000043
1.0000045
1.0000044
1.0000046
1.0000046
1.0000043
1.0000044
1.0000045
1.0000048
1.0000044
1.0000039
1.0000044
1.0000039
1.0000047
1.0000047
1.0000318
1.0000318
1.0000318
1.0000318
1.0000318
1.0000318
1.0000318
1.0000318
1.0000319
1.0000319
1.0000319
1.0000319
1.0000319
1.0000319
1.0000319
1.0000319
1.0000319
1.0000319
1.0000319
1.0000319
1.0000319
1.0000319
1.0000319
1.0000319
1.0000319
1.0000319
1.000032
1.000032
1.000032
1.000032
1.000032
1.000032
1.000032
1.000032
1.000032
1.000032
1.000032
1.000032
1.000032
1.000032
1.000032
1.0000321
1.0000321
1.0000321
1.0000321
1.0000321
1.0000321
1.0000321
1.0000321
1.0000321
1.0000321
1.0000321
1.0000319
1.0000317
1.0000312
1.0000303
1.0000287
1.0000258
1.000022
1.0000292
1.0000292
1.0000292
1.0000292
1.0000292
1.0000292
1.0000292
1.0000292
1.0000292
1.0000292
1.0000293
1.0000293
1.0000293
1.0000293
1.0000293
1.0000293
1.0000293
1.0000293
1.0000293
1.0000293
1.0000293
1.0000293
1.0000293
1.0000293
1.0000293
1.0000293
1.0000293
1.0000293
1.0000293
1.0000293
1.0000293
1.0000293
1.0000293
1.0000293
1.0000293
1.0000293
1.0000293
1.0000294
1.0000294
1.0000294
1.0000294
1.0000294
1.0000294
1.0000294
1.0000294
1.0000294
1.0000294
1.0000294
1.0000294
1.0000295
1.0000294
1.0000294
1.0000293
1.0000291
1.0000286
1.0000278
1.0000263
1.0000236
1.0000202
1.0000267
1.0000267
1.0000267
1.0000268
1.0000268
1.0000268
1.0000268
1.0000268
1.0000268
1.0000268
1.0000268
1.0000268
1.0000268
1.0000268
1.0000268
1.0000268
1.0000268
1.0000268
1.0000268
1.0000268
1.0000268
1.0000268
1.0000268
1.0000268
1.0000268
1.0000268
1.0000268
1.0000268
1.0000268
1.0000268
1.0000268
1.0000268
1.0000268
1.0000268
1.0000268
1.0000268
1.0000268
1.0000269
1.0000269
1.0000269
1.0000269
1.0000269
1.0000269
1.0000269
1.0000269
1.0000269
1.0000269
1.0000269
1.0000269
1.000027
1.0000269
1.0000269
1.0000268
1.0000266
1.0000263
1.0000255
1.0000241
1.0000217
1.0000185
1.0000244
1.0000244
1.0000245
1.0000245
1.0000245
1.0000245
1.0000245
1.0000245
1.0000245
1.0000245
1.0000245
1.0000245
1.0000245
1.0000245
1.0000245
1.0000245
1.0000245
1.0000245
1.0000245
1.0000245
1.0000245
1.0000245
1.0000245
1.0000245
1.0000245
1.0000245
1.0000245
1.0000245
1.0000245
1.0000245
1.0000245
1.0000245
1.0000245
1.0000245
1.0000245
1.0000245
1.0000245
1.0000245
1.0000245
1.0000245
1.0000246
1.0000246
1.0000246
1.0000246
1.0000246
1.0000246
1.0000246
1.0000246
1.0000246
1.0000246
1.0000246
1.0000246
1.0000245
1.0000244
1.000024
1.0000233
1.000022
1.0000198
1.0000169
1.0000223
1.0000223
1.0000223
1.0000223
1.0000223
1.0000223
1.0000223
1.0000223
1.0000223
1.0000223
1.0000223
1.0000223
1.0000224
1.0000224
1.0000224
1.0000224
1.0000224
1.0000224
1.0000224
1.0000224
1.0000224
1.0000224
1.0000224
1.0000223
1.0000223
1.0000223
1.0000223
1.0000223
1.0000224
1.0000224
1.0000224
1.0000224
1.0000224
1.0000223
1.0000223
1.0000223
1.0000224
1.0000224
1.0000224
1.0000224
1.0000224
1.0000224
1.0000224
1.0000224
1.0000224
1.0000224
1.0000224
1.0000224
1.0000224
1.0000225
1.0000225
1.0000224
1.0000224
1.0000222
1.0000219
1.0000213
1.0000201
1.0000181
1.0000155
1.0000203
1.0000203
1.0000203
1.0000203
1.0000203
1.0000203
1.0000203
1.0000203
1.0000203
1.0000203
1.0000203
1.0000203
1.0000204
1.0000204
1.0000204
1.0000204
1.0000204
1.0000204
1.0000204
1.0000204
1.0000204
1.0000204
1.0000204
1.0000203
1.0000203
1.0000203
1.0000203
1.0000203
1.0000203
1.0000203
1.0000203
1.0000203
1.0000203
1.0000203
1.0000203
1.0000203
1.0000203
1.0000203
1.0000204
1.0000204
1.0000204
1.0000204
1.0000204
1.0000204
1.0000204
1.0000204
1.0000204
1.0000204
1.0000204
1.0000204
1.0000204
1.0000204
1.0000204
1.0000203
1.00002
1.0000194
1.0000184
1.0000165
1.0000141
1.0000185
1.0000185
1.0000185
1.0000185
1.0000185
1.0000185
1.0000185
1.0000185
1.0000185
1.0000185
1.0000185
1.0000185
1.0000185
1.0000185
1.0000185
1.0000185
1.0000185
1.0000185
1.0000185
1.0000185
1.0000185
1.0000185
1.0000185
1.0000185
1.0000185
1.0000185
1.0000185
1.0000185
1.0000185
1.0000185
1.0000185
1.0000185
1.0000185
1.0000185
1.0000185
1.0000185
1.0000185
1.0000185
1.0000185
1.0000185
1.0000185
1.0000185
1.0000185
1.0000186
1.0000186
1.0000186
1.0000186
1.0000186
1.0000186
1.0000186
1.0000186
1.0000186
1.0000185
1.0000184
1.0000182
1.0000177
1.0000168
1.000015
1.0000128
1.0000168
1.0000168
1.0000168
1.0000168
1.0000168
1.0000168
1.0000168
1.0000168
1.0000168
1.0000168
1.0000168
1.0000168
1.0000168
1.0000168
1.0000168
1.0000168
1.0000168
1.0000168
1.0000168
1.0000168
1.0000168
1.0000168
1.0000168
1.0000168
1.0000168
1.0000168
1.0000168
1.0000168
1.0000168
1.0000168
1.0000168
1.0000168
1.0000168
1.0000168
1.0000168
1.0000168
1.0000168
1.0000168
1.0000168
1.0000168
1.0000168
1.0000168
1.0000168
1.0000168
1.0000169
1.0000169
1.0000169
1.0000169
1.0000169
1.0000169
1.0000169
1.0000169
1.0000168
1.0000168
1.0000166
1.0000161
1.0000153
1.0000137
1.0000117
1.0000152
1.0000152
1.0000152
1.0000152
1.0000152
1.0000152
1.0000152
1.0000152
1.0000152
1.0000152
1.0000152
1.0000152
1.0000152
1.0000153
1.0000153
1.0000153
1.0000152
1.0000152
1.0000152
1.0000152
1.0000152
1.0000152
1.0000152
1.0000152
1.0000152
1.0000152
1.0000152
1.0000152
1.0000152
1.0000152
1.0000152
1.0000152
1.0000152
1.0000152
1.0000152
1.0000152
1.0000152
1.0000152
1.0000152
1.0000152
1.0000152
1.0000152
1.0000152
1.0000153
1.0000153
1.0000153
1.0000153
1.0000153
1.0000153
1.0000153
1.0000153
1.0000153
1.0000153
1.0000152
1.0000151
1.0000147
1.0000139
1.0000125
1.0000106
1.0000138
1.0000138
1.0000138
1.0000138
1.0000138
1.0000138
1.0000138
1.0000138
1.0000138
1.0000138
1.0000138
1.0000138
1.0000138
1.0000138
1.0000138
1.0000138
1.0000138
1.0000138
1.0000138
1.0000138
1.0000138
1.0000138
1.0000138
1.0000138
1.0000138
1.0000138
1.0000138
1.0000138
1.0000138
1.0000138
1.0000138
1.0000138
1.0000138
1.0000138
1.0000137
1.0000137
1.0000137
1.0000137
1.0000138
1.0000138
1.0000138
1.0000138
1.0000138
1.0000138
1.0000138
1.0000139
1.0000139
1.0000138
1.0000138
1.0000138
1.0000138
1.0000138
1.0000138
1.0000138
1.0000137
1.0000134
1.0000127
1.0000113
1.0000096
1.0000125
1.0000125
1.0000125
1.0000125
1.0000125
1.0000125
1.0000125
1.0000125
1.0000125
1.0000125
1.0000125
1.0000125
1.0000125
1.0000125
1.0000125
1.0000125
1.0000125
1.0000125
1.0000125
1.0000125
1.0000125
1.0000125
1.0000125
1.0000125
1.0000125
1.0000124
1.0000124
1.0000124
1.0000124
1.0000124
1.0000124
1.0000124
1.0000124
1.0000124
1.0000124
1.0000124
1.0000124
1.0000124
1.0000124
1.0000124
1.0000125
1.0000125
1.0000125
1.0000125
1.0000125
1.0000125
1.0000125
1.0000125
1.0000125
1.0000125
1.0000125
1.0000125
1.0000125
1.0000125
1.0000124
1.0000121
1.0000116
1.0000103
1.0000088
1.0000113
1.0000113
1.0000113
1.0000113
1.0000113
1.0000113
1.0000113
1.0000113
1.0000113
1.0000113
1.0000113
1.0000113
1.0000113
1.0000113
1.0000113
1.0000113
1.0000113
1.0000113
1.0000113
1.0000113
1.0000113
1.0000113
1.0000113
1.0000113
1.0000113
1.0000113
1.0000112
1.0000112
1.0000112
1.0000112
1.0000112
1.0000112
1.0000112
1.0000112
1.0000112
1.0000112
1.0000112
1.0000112
1.0000112
1.0000112
1.0000113
1.0000113
1.0000113
1.0000113
1.0000113
1.0000113
1.0000113
1.0000113
1.0000113
1.0000113
1.0000113
1.0000113
1.0000113
1.0000113
1.0000113
1.000011
1.0000105
1.0000095
1.000008
1.0000102
1.0000102
1.0000102
1.0000102
1.0000102
1.0000102
1.0000102
1.0000102
1.0000102
1.0000102
1.0000102
1.0000102
1.0000102
1.0000102
1.0000102
1.0000102
1.0000102
1.0000102
1.0000102
1.0000102
1.0000102
1.0000102
1.0000102
1.0000102
1.0000102
1.0000102
1.0000102
1.0000102
1.0000102
1.0000102
1.0000102
1.0000102
1.0000102
1.0000102
1.0000101
1.0000101
1.0000101
1.0000101
1.0000102
1.0000102
1.0000102
1.0000102
1.0000102
1.0000102
1.0000102
1.0000102
1.0000102
1.0000102
1.0000102
1.0000102
1.0000102
1.0000102
1.0000103
1.0000103
1.0000102
1.00001
1.0000096
1.0000086
1.0000073
1.0000093
1.0000093
1.0000093
1.0000093
1.0000093
1.0000093
1.0000092
1.0000092
1.0000092
1.0000092
1.0000092
1.0000092
1.0000092
1.0000092
1.0000092
1.0000092
1.0000092
1.0000093
1.0000093
1.0000093
1.0000092
1.0000092
1.0000092
1.0000092
1.0000092
1.0000092
1.0000092
1.0000092
1.0000092
1.0000092
1.0000092
1.0000092
1.0000092
1.0000092
1.0000092
1.0000092
1.0000092
1.0000092
1.0000092
1.0000092
1.0000092
1.0000092
1.0000092
1.0000092
1.0000092
1.0000092
1.0000092
1.0000092
1.0000092
1.0000092
1.0000092
1.0000093
1.0000093
1.0000093
1.0000093
1.0000091
1.0000088
1.0000079
1.0000067
1.0000241
1.0000267
1.0000294
1.0000325
1.0000358
1.0000393
1.0000431
1.0000471
1.0000514
1.000056
1.0000608
1.0000659
1.0000712
1.0000767
1.0000824
1.0000882
1.0000941
1.0001
1.0001058
1.0001113
1.0001164
1.000121
1.0001249
1.0001278
1.0001297
1.0001301
1.0001291
1.0001264
1.0001219
1.0001154
1.0001071
1.0000978
1.0000851
1.0000708
1.0000564
1.0000395
1.0000218
1.0000041
0.99998539
0.99996598
0.99994618
0.99992636
0.99990648
0.9998869
0.99986772
0.99984931
0.99983171
0.99981496
0.99979897
0.99978369
0.9997689
0.9997548
0.99974149
0.999729
0.99971726
0.9997062
0.99969582
0.9996861
0.99967698
0.99966845
0.99966051
0.99965315
0.99964631
0.99963996
0.99963408
0.99962862
0.99962356
0.99961886
0.99961452
0.9996105
0.99960678
0.99960336
0.99960019
0.99959727
1.0000282
1.000031
1.0000341
1.0000375
1.0000411
1.000045
1.0000491
1.0000536
1.0000584
1.0000634
1.0000688
1.0000744
1.0000803
1.0000864
1.0000926
1.0000989
1.0001053
1.0001116
1.0001177
1.0001234
1.0001286
1.0001331
1.0001367
1.0001391
1.0001402
1.0001395
1.0001371
1.0001327
1.0001261
1.0001172
1.000106
1.0000929
1.0000775
1.00006
1.0000408
1.0000201
0.99999796
0.99997511
0.99995182
0.99992831
0.99990471
0.99988122
0.99985802
0.99983549
0.99981325
0.99979371
0.9997738
0.99975414
0.99973529
0.99971737
0.99970039
0.99968436
0.99966927
0.99965497
0.99964153
0.99962892
0.99961717
0.99960623
0.99959603
0.99958657
0.99957782
0.99956972
0.99956222
0.99955527
0.99954882
0.99954285
0.99953731
0.99953217
0.99952742
0.99952301
0.99951894
0.99951519
0.99951172
0.99950854
1.0000313
1.0000345
1.0000379
1.0000416
1.0000456
1.0000499
1.0000545
1.0000595
1.0000648
1.0000705
1.0000764
1.0000827
1.0000892
1.000096
1.000103
1.0001101
1.0001172
1.0001242
1.0001309
1.0001373
1.000143
1.000148
1.0001518
1.0001543
1.0001552
1.0001542
1.0001511
1.0001457
1.0001377
1.0001271
1.0001138
1.0000978
1.0000794
1.0000587
1.0000359
1.0000114
0.99998527
0.99995799
0.99992996
0.99990156
0.99987306
0.99984475
0.9998168
0.9997895
0.99976285
0.99973708
0.99971233
0.99968872
0.99966626
0.99964492
0.99962469
0.99960563
0.99958736
0.99956935
0.99955332
0.9995389
0.99952545
0.99951279
0.99950132
0.99949066
0.99948065
0.99947124
0.99946243
0.99945419
0.9994465
0.99943935
0.9994326
0.99942631
0.99942047
0.99941507
0.9994101
0.99940552
0.99940129
0.99939737
1.0000332
1.0000366
1.0000403
1.0000443
1.0000486
1.0000533
1.0000583
1.0000637
1.0000695
1.0000756
1.0000821
1.000089
1.0000961
1.0001036
1.0001112
1.0001191
1.0001269
1.0001347
1.0001422
1.0001494
1.0001558
1.0001615
1.000166
1.000169
1.0001703
1.0001696
1.0001666
1.0001611
1.0001527
1.0001415
1.0001274
1.0001103
1.0000903
1.0000678
1.0000428
1.0000159
0.99998723
0.99995712
0.99992603
0.99989436
0.99986244
0.99983057
0.99979905
0.99976816
0.99973806
0.99970875
0.99968042
0.99965327
0.99962736
0.9996027
0.9995793
0.99955715
0.99953629
0.99951667
0.99949823
0.99948091
0.9994647
0.99944955
0.99943538
0.99942215
0.99940985
0.99939842
0.9993878
0.99937794
0.99936878
0.99936027
0.99935238
0.99934506
0.99933827
0.99933197
0.99932607
0.99932047
0.9993153
0.99931065
1.0000342
1.0000378
1.0000417
1.0000459
1.0000505
1.0000554
1.0000608
1.0000665
1.0000726
1.0000791
1.000086
1.0000934
1.000101
1.000109
1.0001173
1.0001257
1.0001342
1.0001427
1.0001509
1.0001588
1.000166
1.0001724
1.0001777
1.0001814
1.0001834
1.0001833
1.0001808
1.0001757
1.0001677
1.0001566
1.0001425
1.0001252
1.0001049
1.0000819
1.0000562
1.0000284
0.99999861
0.99996726
0.99993478
0.99990157
0.99986799
0.99983435
0.99980098
0.99976817
0.99973611
0.99970484
0.99967453
0.9996454
0.9996175
0.99959089
0.99956558
0.99954157
0.99951889
0.99949756
0.9994775
0.99945864
0.99944093
0.99942435
0.99940882
0.99939428
0.99938073
0.99936811
0.99935637
0.99934545
0.99933536
0.99932573
0.99931673
0.9993084
0.99930074
0.99929368
0.99928719
0.99928124
0.99927573
0.99927068
1.0000348
1.0000385
1.0000425
1.0000469
1.0000516
1.0000568
1.0000623
1.0000683
1.0000746
1.0000815
1.0000887
1.0000964
1.0001044
1.0001128
1.0001215
1.0001304
1.0001395
1.0001485
1.0001573
1.0001658
1.0001738
1.0001808
1.0001867
1.0001912
1.0001939
1.0001944
1.0001926
1.0001881
1.0001807
1.0001701
1.0001564
1.0001395
1.0001195
1.0000965
1.000071
1.0000431
1.0000132
0.99998164
0.99994885
0.99991526
0.99988121
0.99984704
0.99981308
0.99977963
0.99974687
0.99971488
0.99968385
0.99965395
0.99962529
0.99959791
0.99957183
0.99954706
0.99952364
0.99950157
0.99948079
0.99946123
0.99944285
0.99942562
0.99940948
0.99939437
0.99938027
0.99936713
0.99935489
0.99934351
0.99933293
0.9993231
0.99931397
0.99930549
0.99929764
0.99929035
0.9992836
0.99927737
0.99927161
0.99926628
1.0000351
1.0000388
1.000043
1.0000474
1.0000523
1.0000576
1.0000633
1.0000694
1.000076
1.000083
1.0000905
1.0000984
1.0001067
1.0001154
1.0001245
1.0001338
1.0001432
1.0001527
1.000162
1.000171
1.0001794
1.000187
1.0001935
1.0001986
1.0002019
1.000203
1.0002018
1.000198
1.0001911
1.0001811
1.0001679
1.0001515
1.0001319
1.0001094
1.0000842
1.0000567
1.000027
0.9999957
0.99996309
0.99992963
0.99989568
0.99986156
0.99982763
0.99979415
0.99976134
0.99972929
0.99969817
0.99966818
0.9996394
0.99961189
0.99958567
0.99956076
0.99953719
0.99951495
0.99949401
0.99947429
0.99945575
0.99943837
0.99942209
0.99940684
0.99939261
0.99937934
0.99936698
0.99935547
0.99934477
0.99933483
0.99932559
0.99931702
0.99930908
0.99930171
0.9992949
0.99928859
0.99928275
0.99927734
1.0000352
1.000039
1.0000432
1.0000478
1.0000527
1.0000581
1.0000639
1.0000701
1.0000768
1.000084
1.0000916
1.0000997
1.0001083
1.0001172
1.0001265
1.0001361
1.0001458
1.0001556
1.0001653
1.0001747
1.0001835
1.0001916
1.0001985
1.0002041
1.0002079
1.0002095
1.0002088
1.0002054
1.0001991
1.0001896
1.0001769
1.0001609
1.0001418
1.0001197
1.0000949
1.0000677
1.0000384
1.0000074
0.99997511
0.99994191
0.9999082
0.9998743
0.99984056
0.99980725
0.99977458
0.99974267
0.99971168
0.9996818
0.99965312
0.99962569
0.99959954
0.9995747
0.99955119
0.99952899
0.99950808
0.99948839
0.99946989
0.99945253
0.99943626
0.99942105
0.99940683
0.99939358
0.99938123
0.99936973
0.99935904
0.99934911
0.99933988
0.99933132
0.99932338
0.99931602
0.9993092
0.99930288
0.99929704
0.99929163
1.0000353
1.0000391
1.0000434
1.000048
1.000053
1.0000584
1.0000643
1.0000706
1.0000774
1.0000847
1.0000924
1.0001007
1.0001094
1.0001185
1.000128
1.0001377
1.0001477
1.0001577
1.0001677
1.0001773
1.0001865
1.0001949
1.0002022
1.0002081
1.0002122
1.0002142
1.0002139
1.000211
1.000205
1.0001959
1.0001836
1.000168
1.0001493
1.0001275
1.0001031
1.0000762
1.0000472
1.0000164
0.99998436
0.9999514
0.99991789
0.99988419
0.99985062
0.99981747
0.99978494
0.99975317
0.99972232
0.99969255
0.99966398
0.99963665
0.99961059
0.99958584
0.9995624
0.99954027
0.99951941
0.99949977
0.99948131
0.999464
0.99944779
0.99943262
0.99941845
0.99940523
0.99939292
0.99938146
0.9993708
0.99936089
0.99935169
0.99934316
0.99933524
0.9993279
0.99932109
0.9993148
0.99930896
0.99930357
1.0000353
1.0000392
1.0000434
1.0000481
1.0000531
1.0000586
1.0000645
1.0000709
1.0000778
1.0000851
1.000093
1.0001013
1.0001101
1.0001193
1.000129
1.0001389
1.000149
1.0001592
1.0001694
1.0001792
1.0001886
1.0001972
1.0002048
1.000211
1.0002154
1.0002177
1.0002177
1.0002151
1.0002094
1.0002006
1.0001886
1.0001733
1.0001548
1.0001333
1.0001091
1.0000824
1.0000536
1.0000231
0.99999118
0.99995837
0.99992501
0.99989144
0.99985799
0.99982493
0.99979249
0.99976081
0.99973004
0.99970035
0.99967184
0.99964457
0.99961857
0.99959387
0.99957048
0.99954838
0.99952755
0.99950794
0.99948952
0.99947223
0.99945605
0.99944091
0.99942676
0.99941357
0.99940128
0.99938983
0.99937919
0.9993693
0.99936011
0.99935159
0.99934368
0.99933635
0.99932956
0.99932327
0.99931744
0.99931206
1.0000353
1.0000392
1.0000435
1.0000481
1.0000532
1.0000587
1.0000646
1.0000711
1.000078
1.0000854
1.0000933
1.0001017
1.0001106
1.0001199
1.0001296
1.0001397
1.0001499
1.0001603
1.0001706
1.0001806
1.0001901
1.0001989
1.0002067
1.000213
1.0002177
1.0002201
1.0002205
1.000218
1.0002126
1.000204
1.0001922
1.0001771
1.0001588
1.0001375
1.0001135
1.000087
1.0000583
1.0000279
0.99999613
0.99996343
0.99993016
0.99989667
0.99986328
0.99983027
0.99979787
0.99976623
0.9997355
0.99970585
0.99967737
0.99965013
0.99962415
0.99959947
0.99957609
0.99955401
0.99953318
0.99951358
0.99949517
0.99947789
0.99946171
0.99944658
0.99943245
0.99941927
0.99940699
0.99939555
0.99938492
0.99937503
0.99936585
0.99935733
0.99934943
0.9993421
0.99933532
0.99932903
0.9993232
0.99931782
1.0000353
1.0000392
1.0000435
1.0000481
1.0000532
1.0000587
1.0000647
1.0000712
1.0000781
1.0000856
1.0000935
1.000102
1.0001109
1.0001203
1.0001301
1.0001402
1.0001506
1.000161
1.0001714
1.0001815
1.0001912
1.0002001
1.000208
1.0002145
1.0002194
1.000222
1.0002225
1.0002202
1.0002149
1.0002065
1.0001948
1.0001799
1.0001618
1.0001407
1.0001167
1.0000903
1.0000618
1.0000315
0.99999977
0.99996713
0.99993392
0.99990047
0.99986711
0.99983413
0.99980174
0.99977011
0.9997394
0.99970976
0.99968129
0.99965405
0.99962808
0.9996034
0.99958002
0.99955792
0.99953709
0.99951749
0.99949907
0.99948179
0.99946561
0.99945048
0.99943634
0.99942316
0.99941088
0.99939944
0.9993888
0.99937891
0.99936973
0.99936121
0.99935331
0.99934598
0.99933919
0.9993329
0.99932707
0.99932168
1.0000353
1.0000392
1.0000435
1.0000481
1.0000532
1.0000588
1.0000648
1.0000712
1.0000782
1.0000857
1.0000937
1.0001022
1.0001112
1.0001206
1.0001304
1.0001406
1.000151
1.0001615
1.000172
1.0001822
1.000192
1.000201
1.000209
1.0002157
1.0002204
1.0002241
1.0002241
1.0002217
1.0002166
1.0002083
1.0001968
1.000182
1.0001641
1.0001431
1.0001192
1.0000929
1.0000645
1.0000342
1.0000026
0.99996999
0.99993681
0.99990339
0.99987005
0.99983708
0.99980468
0.99977306
0.99974235
0.99971271
0.99968423
0.99965698
0.999631
0.99960631
0.99958291
0.9995608
0.99953996
0.99952033
0.9995019
0.99948461
0.99946842
0.99945328
0.99943914
0.99942595
0.99941366
0.99940222
0.99939158
0.99938168
0.9993725
0.99936397
0.99935606
0.99934873
0.99934193
0.99933563
0.99932981
0.99932441
1.0000353
1.0000392
1.0000435
1.0000481
1.0000532
1.0000588
1.0000648
1.0000713
1.0000783
1.0000858
1.0000938
1.0001023
1.0001113
1.0001208
1.0001306
1.0001409
1.0001513
1.0001619
1.0001724
1.0001827
1.0001925
1.0002016
1.0002097
1.0002164
1.0002214
1.0002242
1.0002251
1.0002231
1.000218
1.0002099
1.0001985
1.0001838
1.000166
1.0001451
1.0001213
1.0000951
1.0000667
1.0000365
1.000005
0.99997241
0.99993926
0.99990585
0.99987252
0.99983954
0.99980713
0.99977549
0.99974478
0.99971512
0.99968662
0.99965936
0.99963336
0.99960865
0.99958523
0.9995631
0.99954223
0.99952259
0.99950414
0.99948683
0.99947062
0.99945547
0.99944132
0.99942811
0.99941581
0.99940436
0.99939371
0.9993838
0.99937461
0.99936607
0.99935815
0.99935081
0.99934401
0.99933771
0.99933188
0.99932648
1.0000353
1.0000392
1.0000434
1.0000481
1.0000532
1.0000588
1.0000648
1.0000713
1.0000783
1.0000858
1.0000938
1.0001024
1.0001114
1.0001209
1.0001308
1.000141
1.0001515
1.0001621
1.0001727
1.000183
1.0001929
1.000202
1.0002102
1.000217
1.000222
1.0002253
1.0002259
1.0002239
1.000219
1.000211
1.0001998
1.0001853
1.0001676
1.0001468
1.0001232
1.0000971
1.0000688
1.0000387
1.0000071
0.99997463
0.9999415
0.99990811
0.99987478
0.99984179
0.99980938
0.99977772
0.99974699
0.99971731
0.9996888
0.9996615
0.99963548
0.99961074
0.9995873
0.99956514
0.99954425
0.99952458
0.9995061
0.99948878
0.99947255
0.99945738
0.99944321
0.99942999
0.99941767
0.99940621
0.99939554
0.99938563
0.99937642
0.99936787
0.99935994
0.99935259
0.99934578
0.99933947
0.99933363
0.99932822
1.0000353
1.0000392
1.0000434
1.0000481
1.0000532
1.0000588
1.0000648
1.0000713
1.0000783
1.0000858
1.0000939
1.0001024
1.0001114
1.0001209
1.0001309
1.0001411
1.0001516
1.0001623
1.0001728
1.0001832
1.0001931
1.0002023
1.0002105
1.0002174
1.0002225
1.0002259
1.0002266
1.0002247
1.00022
1.0002121
1.000201
1.0001867
1.0001691
1.0001484
1.000125
1.000099
1.0000708
1.0000408
1.0000093
0.99997687
0.99994378
0.99991042
0.9998771
0.99984411
0.99981168
0.99978
0.99974925
0.99971955
0.99969101
0.99966369
0.99963763
0.99961286
0.99958939
0.9995672
0.99954627
0.99952658
0.99950807
0.99949072
0.99947447
0.99945927
0.99944508
0.99943184
0.99941951
0.99940802
0.99939734
0.99938741
0.99937819
0.99936963
0.99936169
0.99935433
0.99934751
0.99934119
0.99933533
0.99932992
1.0000353
1.0000392
1.0000434
1.0000481
1.0000532
1.0000588
1.0000648
1.0000713
1.0000783
1.0000858
1.0000939
1.0001024
1.0001115
1.000121
1.0001309
1.0001412
1.0001517
1.0001623
1.0001729
1.0001833
1.0001933
1.0002025
1.0002108
1.0002177
1.0002229
1.0002264
1.0002272
1.0002255
1.0002209
1.0002132
1.0002023
1.0001881
1.0001707
1.0001502
1.0001269
1.0001011
1.000073
1.0000431
1.0000118
0.99997938
0.99994634
0.99991301
0.99987971
0.99984671