/*--------------------------------*- C++ -*----------------------------------*\
| =========                 |                                                 |
| \\      /  F ield         | OpenFOAM: The Open Source CFD Toolbox           |
|  \\    /   O peration     | Version:  v2006                                 |
|   \\  /    A nd           | Website:  www.openfoam.com                      |
|    \\/     M anipulation  |                                                 |
\*---------------------------------------------------------------------------*/
FoamFile
{
    version     2.0;
    format      ascii;
    class       volScalarField;
    location    "9000";
    object      TMean;
}
// * * * * * * * * * * * * * * * * * * * * * * * * * * * * * * * * * * * * * //

dimensions      [0 0 0 1 0 0 0];


internalField   nonuniform List<scalar> 
55713
(
1.0000068
1.0000081
1.0000089
1.0000092
1.0000093
1.0000093
1.0000093
1.0000093
1.0000093
1.0000093
1.0000093
1.0000093
1.0000093
1.0000093
1.0000093
1.0000093
1.0000093
1.0000093
1.0000093
1.0000093
1.0000093
1.0000093
1.0000093
1.0000093
1.0000093
1.0000093
1.0000093
1.0000093
1.0000092
1.0000093
1.0000093
1.0000093
1.0000093
1.0000093
1.0000093
1.0000093
1.0000093
1.0000093
1.0000093
1.0000093
1.0000093
1.0000093
1.0000093
1.0000093
1.0000093
1.0000093
1.0000093
1.0000093
1.0000093
1.0000093
1.0000093
1.0000093
1.0000093
1.0000093
1.0000093
1.0000093
1.0000093
1.0000093
1.0000093
1.0000065
1.0000077
1.0000084
1.0000087
1.0000087
1.0000087
1.0000087
1.0000087
1.0000087
1.0000087
1.0000087
1.0000087
1.0000087
1.0000087
1.0000087
1.0000087
1.0000087
1.0000087
1.0000087
1.0000087
1.0000087
1.0000087
1.0000087
1.0000087
1.0000087
1.0000087
1.0000087
1.0000086
1.0000086
1.0000086
1.0000087
1.0000087
1.0000087
1.0000087
1.0000087
1.0000087
1.0000087
1.0000087
1.0000087
1.0000087
1.0000087
1.0000087
1.0000087
1.0000087
1.0000087
1.0000087
1.0000087
1.0000087
1.0000087
1.0000087
1.0000087
1.0000087
1.0000087
1.0000087
1.0000087
1.0000087
1.0000087
1.0000087
1.0000087
1.0000062
1.0000074
1.000008
1.0000082
1.0000082
1.0000082
1.0000082
1.0000082
1.0000082
1.0000082
1.0000082
1.0000082
1.0000082
1.0000082
1.0000082
1.0000082
1.0000082
1.0000082
1.0000081
1.0000081
1.0000081
1.0000081
1.0000081
1.0000081
1.0000081
1.0000081
1.0000081
1.0000081
1.0000081
1.0000081
1.0000081
1.0000081
1.0000081
1.0000081
1.0000082
1.0000081
1.0000081
1.0000081
1.0000082
1.0000082
1.0000082
1.0000082
1.0000082
1.0000082
1.0000082
1.0000082
1.0000082
1.0000082
1.0000082
1.0000082
1.0000082
1.0000082
1.0000082
1.0000082
1.0000082
1.0000082
1.0000082
1.0000082
1.0000082
1.0000059
1.000007
1.0000076
1.0000077
1.0000077
1.0000077
1.0000077
1.0000077
1.0000077
1.0000077
1.0000077
1.0000077
1.0000077
1.0000077
1.0000077
1.0000077
1.0000077
1.0000077
1.0000077
1.0000077
1.0000077
1.0000077
1.0000077
1.0000077
1.0000077
1.0000077
1.0000077
1.0000077
1.0000077
1.0000077
1.0000077
1.0000077
1.0000077
1.0000077
1.0000077
1.0000077
1.0000077
1.0000077
1.0000077
1.0000077
1.0000077
1.0000077
1.0000077
1.0000077
1.0000077
1.0000077
1.0000077
1.0000077
1.0000077
1.0000077
1.0000077
1.0000077
1.0000077
1.0000077
1.0000078
1.0000078
1.0000078
1.0000078
1.0000078
1.0000058
1.0000068
1.0000072
1.0000073
1.0000073
1.0000073
1.0000073
1.0000073
1.0000073
1.0000073
1.0000073
1.0000073
1.0000073
1.0000073
1.0000073
1.0000073
1.0000073
1.0000073
1.0000073
1.0000073
1.0000073
1.0000073
1.0000073
1.0000073
1.0000073
1.0000073
1.0000073
1.0000073
1.0000073
1.0000073
1.0000073
1.0000073
1.0000073
1.0000073
1.0000073
1.0000073
1.0000073
1.0000073
1.0000073
1.0000073
1.0000073
1.0000073
1.0000073
1.0000073
1.0000073
1.0000073
1.0000073
1.0000073
1.0000073
1.0000073
1.0000073
1.0000073
1.0000073
1.0000073
1.0000074
1.0000074
1.0000074
1.0000074
1.0000074
1.0000056
1.0000066
1.0000069
1.000007
1.000007
1.000007
1.000007
1.000007
1.000007
1.000007
1.000007
1.000007
1.000007
1.000007
1.000007
1.000007
1.000007
1.0000069
1.0000069
1.0000069
1.0000069
1.0000069
1.0000069
1.0000069
1.0000069
1.0000069
1.0000069
1.0000069
1.0000069
1.0000069
1.0000069
1.0000069
1.0000069
1.0000069
1.000007
1.000007
1.000007
1.0000069
1.0000069
1.000007
1.000007
1.000007
1.000007
1.000007
1.000007
1.000007
1.000007
1.000007
1.000007
1.000007
1.000007
1.000007
1.000007
1.000007
1.000007
1.000007
1.000007
1.000007
1.000007
1.0000055
1.0000064
1.0000067
1.0000067
1.0000067
1.0000067
1.0000067
1.0000067
1.0000067
1.0000067
1.0000067
1.0000067
1.0000067
1.0000067
1.0000067
1.0000067
1.0000067
1.0000066
1.0000066
1.0000066
1.0000066
1.0000066
1.0000066
1.0000066
1.0000066
1.0000066
1.0000066
1.0000066
1.0000066
1.0000066
1.0000066
1.0000066
1.0000066
1.0000066
1.0000067
1.0000067
1.0000067
1.0000066
1.0000066
1.0000067
1.0000067
1.0000067
1.0000067
1.0000067
1.0000067
1.0000067
1.0000067
1.0000067
1.0000067
1.0000067
1.0000067
1.0000067
1.0000067
1.0000067
1.0000067
1.0000067
1.0000067
1.0000067
1.0000067
1.0000054
1.0000062
1.0000065
1.0000065
1.0000064
1.0000064
1.0000064
1.0000064
1.0000064
1.0000064
1.0000064
1.0000064
1.0000064
1.0000064
1.0000064
1.0000064
1.0000064
1.0000064
1.0000064
1.0000064
1.0000064
1.0000064
1.0000064
1.0000064
1.0000064
1.0000064
1.0000064
1.0000064
1.0000063
1.0000063
1.0000064
1.0000064
1.0000064
1.0000064
1.0000064
1.0000064
1.0000064
1.0000064
1.0000064
1.0000064
1.0000064
1.0000064
1.0000064
1.0000064
1.0000064
1.0000064
1.0000064
1.0000064
1.0000064
1.0000064
1.0000064
1.0000064
1.0000064
1.0000064
1.0000064
1.0000065
1.0000065
1.0000064
1.0000065
1.0000053
1.0000061
1.0000063
1.0000063
1.0000062
1.0000062
1.0000062
1.0000062
1.0000063
1.0000062
1.0000062
1.0000062
1.0000062
1.0000062
1.0000062
1.0000062
1.0000062
1.0000062
1.0000062
1.0000062
1.0000062
1.0000062
1.0000062
1.0000062
1.0000062
1.0000062
1.0000062
1.0000062
1.0000062
1.0000062
1.0000062
1.0000062
1.0000062
1.0000062
1.0000062
1.0000062
1.0000062
1.0000062
1.0000062
1.0000062
1.0000062
1.0000062
1.0000062
1.0000062
1.0000062
1.0000062
1.0000062
1.0000062
1.0000062
1.0000062
1.0000062
1.0000062
1.0000062
1.0000062
1.0000062
1.0000063
1.0000063
1.0000063
1.0000063
1.0000053
1.0000061
1.0000061
1.0000061
1.0000061
1.0000061
1.000006
1.0000061
1.0000061
1.0000061
1.0000061
1.0000061
1.0000061
1.0000061
1.0000061
1.000006
1.000006
1.000006
1.000006
1.000006
1.000006
1.000006
1.000006
1.000006
1.000006
1.000006
1.000006
1.000006
1.000006
1.000006
1.000006
1.000006
1.000006
1.000006
1.000006
1.000006
1.000006
1.000006
1.000006
1.000006
1.000006
1.0000061
1.0000061
1.0000061
1.000006
1.000006
1.0000061
1.0000061
1.0000061
1.0000061
1.0000061
1.0000061
1.0000061
1.0000061
1.0000061
1.0000061
1.0000061
1.0000061
1.0000061
1.0000052
1.0000058
1.0000058
1.0000058
1.0000058
1.0000057
1.0000058
1.0000058
1.0000058
1.0000057
1.0000057
1.0000057
1.0000058
1.0000057
1.0000057
1.0000057
1.0000057
1.0000057
1.0000057
1.0000057
1.0000057
1.0000057
1.0000057
1.0000057
1.0000057
1.0000057
1.0000057
1.0000057
1.0000056
1.0000056
1.0000057
1.0000057
1.0000057
1.0000057
1.0000057
1.0000057
1.0000057
1.0000057
1.0000057
1.0000057
1.0000057
1.0000057
1.0000057
1.0000057
1.0000057
1.0000057
1.0000057
1.0000057
1.0000057
1.0000057
1.0000057
1.0000057
1.0000057
1.0000058
1.0000057
1.0000058
1.0000059
1.0000057
1.0000057
1.0000051
1.0000059
1.0000056
1.0000058
1.0000057
1.0000055
1.0000058
1.0000058
1.0000056
1.0000056
1.0000056
1.0000056
1.0000056
1.0000056
1.0000055
1.0000055
1.0000055
1.0000055
1.0000055
1.0000055
1.0000055
1.0000055
1.0000055
1.0000055
1.0000055
1.0000055
1.0000055
1.0000055
1.0000055
1.0000055
1.0000055
1.0000055
1.0000055
1.0000055
1.0000055
1.0000055
1.0000055
1.0000055
1.0000055
1.0000055
1.0000055
1.0000055
1.0000055
1.0000056
1.0000055
1.0000055
1.0000055
1.0000056
1.0000056
1.0000056
1.0000055
1.0000056
1.0000055
1.0000057
1.0000056
1.0000056
1.0000059
1.0000055
1.0000055
1.0000066
1.0000071
1.0000067
1.0000071
1.0000067
1.0000067
1.000007
1.0000068
1.0000068
1.0000068
1.0000068
1.0000069
1.0000069
1.0000068
1.0000068
1.0000068
1.0000069
1.0000069
1.0000069
1.0000069
1.0000069
1.0000069
1.0000069
1.0000069
1.0000069
1.0000069
1.0000069
1.0000069
1.0000069
1.0000069
1.0000069
1.0000069
1.0000069
1.0000069
1.0000069
1.0000069
1.0000069
1.0000069
1.0000069
1.0000069
1.0000068
1.0000068
1.0000068
1.0000069
1.0000069
1.0000068
1.0000069
1.0000068
1.0000068
1.0000069
1.0000069
1.0000069
1.0000068
1.0000068
1.0000069
1.0000067
1.0000071
1.0000068
1.0000068
1.0000054
1.0000042
1.0000047
1.0000042
1.0000048
1.000005
1.0000045
1.0000046
1.0000048
1.0000048
1.0000047
1.0000045
1.0000044
1.0000044
1.0000045
1.0000045
1.0000044
1.0000043
1.0000042
1.0000042
1.0000041
1.0000041
1.0000041
1.0000041
1.0000041
1.0000041
1.0000041
1.0000041
1.0000041
1.0000041
1.0000041
1.0000041
1.0000041
1.0000041
1.0000041
1.0000041
1.0000041
1.0000042
1.0000044
1.0000044
1.0000046
1.0000047
1.0000048
1.0000048
1.000005
1.0000051
1.0000049
1.0000048
1.0000049
1.0000049
1.000005
1.000005
1.0000051
1.0000049
1.0000048
1.0000049
1.0000042
1.0000052
1.0000052
1.000035
1.000035
1.000035
1.0000351
1.0000351
1.0000351
1.0000351
1.0000351
1.0000351
1.0000351
1.0000351
1.0000352
1.0000352
1.0000352
1.0000352
1.0000352
1.0000352
1.0000352
1.0000352
1.0000352
1.0000353
1.0000353
1.0000353
1.0000353
1.0000353
1.0000353
1.0000353
1.0000353
1.0000353
1.0000353
1.0000353
1.0000353
1.0000353
1.0000353
1.0000353
1.0000353
1.0000353
1.0000354
1.0000354
1.0000354
1.0000354
1.0000354
1.0000354
1.0000354
1.0000354
1.0000354
1.0000354
1.0000354
1.0000354
1.0000354
1.0000354
1.0000353
1.0000352
1.000035
1.0000344
1.0000334
1.0000316
1.0000285
1.0000244
1.0000321
1.0000321
1.0000321
1.0000322
1.0000322
1.0000322
1.0000322
1.0000322
1.0000322
1.0000322
1.0000322
1.0000323
1.0000323
1.0000323
1.0000323
1.0000323
1.0000323
1.0000323
1.0000323
1.0000323
1.0000323
1.0000323
1.0000323
1.0000323
1.0000323
1.0000323
1.0000323
1.0000323
1.0000323
1.0000323
1.0000323
1.0000324
1.0000324
1.0000324
1.0000324
1.0000324
1.0000324
1.0000324
1.0000324
1.0000324
1.0000324
1.0000324
1.0000324
1.0000324
1.0000324
1.0000324
1.0000324
1.0000324
1.0000324
1.0000325
1.0000324
1.0000324
1.0000323
1.000032
1.0000316
1.0000306
1.000029
1.0000261
1.0000223
1.0000294
1.0000294
1.0000294
1.0000294
1.0000294
1.0000295
1.0000295
1.0000295
1.0000295
1.0000295
1.0000295
1.0000295
1.0000295
1.0000295
1.0000295
1.0000295
1.0000295
1.0000295
1.0000296
1.0000296
1.0000296
1.0000296
1.0000296
1.0000296
1.0000296
1.0000296
1.0000296
1.0000296
1.0000296
1.0000296
1.0000296
1.0000296
1.0000296
1.0000296
1.0000296
1.0000296
1.0000296
1.0000296
1.0000296
1.0000297
1.0000297
1.0000297
1.0000297
1.0000297
1.0000297
1.0000297
1.0000297
1.0000297
1.0000297
1.0000297
1.0000297
1.0000296
1.0000295
1.0000293
1.0000289
1.0000281
1.0000265
1.0000239
1.0000204
1.0000269
1.0000269
1.0000269
1.0000269
1.0000269
1.0000269
1.0000269
1.0000269
1.0000269
1.0000269
1.0000269
1.000027
1.000027
1.000027
1.000027
1.000027
1.000027
1.000027
1.000027
1.000027
1.000027
1.000027
1.000027
1.000027
1.000027
1.000027
1.000027
1.000027
1.000027
1.000027
1.000027
1.000027
1.000027
1.000027
1.000027
1.000027
1.000027
1.0000271
1.0000271
1.0000271
1.0000271
1.0000271
1.0000271
1.0000271
1.0000271
1.0000271
1.0000271
1.0000271
1.0000271
1.0000271
1.0000271
1.0000271
1.000027
1.0000268
1.0000264
1.0000257
1.0000243
1.0000218
1.0000187
1.0000245
1.0000245
1.0000245
1.0000245
1.0000245
1.0000245
1.0000245
1.0000246
1.0000246
1.0000246
1.0000246
1.0000246
1.0000246
1.0000246
1.0000246
1.0000246
1.0000246
1.0000246
1.0000246
1.0000246
1.0000246
1.0000246
1.0000246
1.0000246
1.0000246
1.0000246
1.0000246
1.0000246
1.0000246
1.0000246
1.0000246
1.0000246
1.0000246
1.0000246
1.0000246
1.0000246
1.0000246
1.0000247
1.0000247
1.0000247
1.0000247
1.0000247
1.0000247
1.0000247
1.0000247
1.0000247
1.0000247
1.0000247
1.0000247
1.0000247
1.0000247
1.0000247
1.0000246
1.0000244
1.0000241
1.0000234
1.0000222
1.0000199
1.000017
1.0000223
1.0000223
1.0000223
1.0000223
1.0000223
1.0000223
1.0000223
1.0000224
1.0000224
1.0000224
1.0000224
1.0000224
1.0000224
1.0000224
1.0000224
1.0000224
1.0000224
1.0000224
1.0000224
1.0000224
1.0000224
1.0000224
1.0000224
1.0000224
1.0000224
1.0000224
1.0000224
1.0000224
1.0000224
1.0000224
1.0000224
1.0000224
1.0000224
1.0000224
1.0000224
1.0000224
1.0000224
1.0000224
1.0000224
1.0000224
1.0000224
1.0000224
1.0000225
1.0000225
1.0000225
1.0000225
1.0000224
1.0000224
1.0000225
1.0000225
1.0000225
1.0000225
1.0000224
1.0000223
1.000022
1.0000214
1.0000202
1.0000181
1.0000155
1.0000203
1.0000203
1.0000203
1.0000203
1.0000203
1.0000203
1.0000203
1.0000203
1.0000203
1.0000203
1.0000203
1.0000203
1.0000203
1.0000203
1.0000203
1.0000203
1.0000203
1.0000203
1.0000203
1.0000204
1.0000204
1.0000203
1.0000203
1.0000203
1.0000203
1.0000203
1.0000203
1.0000203
1.0000203
1.0000203
1.0000203
1.0000203
1.0000203
1.0000203
1.0000204
1.0000204
1.0000204
1.0000204
1.0000204
1.0000204
1.0000204
1.0000204
1.0000204
1.0000204
1.0000204
1.0000204
1.0000204
1.0000204
1.0000204
1.0000204
1.0000204
1.0000204
1.0000204
1.0000203
1.00002
1.0000195
1.0000184
1.0000165
1.0000141
1.0000184
1.0000184
1.0000184
1.0000184
1.0000184
1.0000184
1.0000184
1.0000184
1.0000184
1.0000184
1.0000184
1.0000184
1.0000184
1.0000185
1.0000185
1.0000185
1.0000185
1.0000185
1.0000185
1.0000185
1.0000185
1.0000185
1.0000185
1.0000184
1.0000184
1.0000184
1.0000184
1.0000184
1.0000184
1.0000184
1.0000184
1.0000184
1.0000184
1.0000185
1.0000185
1.0000185
1.0000185
1.0000185
1.0000185
1.0000185
1.0000185
1.0000185
1.0000185
1.0000185
1.0000185
1.0000185
1.0000185
1.0000185
1.0000185
1.0000185
1.0000185
1.0000185
1.0000185
1.0000184
1.0000182
1.0000177
1.0000168
1.000015
1.0000129
1.0000167
1.0000167
1.0000167
1.0000167
1.0000167
1.0000167
1.0000167
1.0000167
1.0000167
1.0000167
1.0000167
1.0000167
1.0000167
1.0000167
1.0000167
1.0000167
1.0000167
1.0000167
1.0000167
1.0000167
1.0000167
1.0000167
1.0000167
1.0000167
1.0000167
1.0000167
1.0000167
1.0000167
1.0000167
1.0000167
1.0000167
1.0000167
1.0000167
1.0000167
1.0000167
1.0000167
1.0000167
1.0000167
1.0000167
1.0000167
1.0000167
1.0000168
1.0000168
1.0000168
1.0000168
1.0000168
1.0000168
1.0000168
1.0000168
1.0000168
1.0000168
1.0000168
1.0000168
1.0000167
1.0000165
1.0000161
1.0000153
1.0000137
1.0000117
1.0000151
1.0000151
1.0000151
1.0000151
1.0000151
1.0000151
1.0000151
1.0000151
1.0000151
1.0000151
1.0000151
1.0000151
1.0000151
1.0000151
1.0000151
1.0000151
1.0000151
1.0000151
1.0000151
1.0000151
1.0000151
1.0000151
1.0000151
1.0000151
1.0000151
1.0000151
1.0000151
1.0000151
1.0000151
1.0000151
1.0000151
1.0000151
1.0000151
1.0000151
1.0000151
1.0000151
1.0000151
1.0000151
1.0000151
1.0000151
1.0000152
1.0000152
1.0000152
1.0000152
1.0000152
1.0000152
1.0000152
1.0000152
1.0000152
1.0000152
1.0000152
1.0000152
1.0000152
1.0000151
1.000015
1.0000146
1.0000139
1.0000125
1.0000106
1.0000137
1.0000137
1.0000137
1.0000137
1.0000137
1.0000137
1.0000137
1.0000137
1.0000137
1.0000137
1.0000137
1.0000137
1.0000137
1.0000137
1.0000137
1.0000137
1.0000137
1.0000137
1.0000137
1.0000137
1.0000137
1.0000137
1.0000137
1.0000137
1.0000137
1.0000137
1.0000137
1.0000137
1.0000137
1.0000137
1.0000137
1.0000137
1.0000137
1.0000137
1.0000137
1.0000137
1.0000137
1.0000137
1.0000137
1.0000137
1.0000137
1.0000137
1.0000137
1.0000137
1.0000137
1.0000137
1.0000137
1.0000137
1.0000137
1.0000137
1.0000137
1.0000137
1.0000137
1.0000137
1.0000136
1.0000133
1.0000127
1.0000114
1.0000096
1.0000124
1.0000124
1.0000124
1.0000124
1.0000124
1.0000124
1.0000124
1.0000124
1.0000124
1.0000124
1.0000124
1.0000124
1.0000124
1.0000124
1.0000124
1.0000124
1.0000124
1.0000124
1.0000124
1.0000124
1.0000124
1.0000124
1.0000123
1.0000123
1.0000123
1.0000123
1.0000123
1.0000123
1.0000123
1.0000123
1.0000123
1.0000123
1.0000123
1.0000123
1.0000123
1.0000123
1.0000124
1.0000124
1.0000124
1.0000124
1.0000124
1.0000124
1.0000124
1.0000124
1.0000124
1.0000124
1.0000124
1.0000124
1.0000124
1.0000124
1.0000124
1.0000124
1.0000124
1.0000124
1.0000123
1.0000121
1.0000115
1.0000104
1.0000088
1.0000112
1.0000112
1.0000112
1.0000112
1.0000112
1.0000112
1.0000112
1.0000112
1.0000112
1.0000112
1.0000112
1.0000112
1.0000112
1.0000112
1.0000112
1.0000112
1.0000112
1.0000112
1.0000112
1.0000112
1.0000112
1.0000112
1.0000111
1.0000111
1.0000111
1.0000111
1.0000111
1.0000111
1.0000111
1.0000111
1.0000111
1.0000111
1.0000111
1.0000111
1.0000111
1.0000112
1.0000112
1.0000112
1.0000112
1.0000112
1.0000112
1.0000112
1.0000112
1.0000112
1.0000112
1.0000112
1.0000112
1.0000112
1.0000112
1.0000112
1.0000112
1.0000112
1.0000112
1.0000112
1.0000112
1.000011
1.0000105
1.0000095
1.000008
1.0000101
1.0000101
1.0000101
1.0000101
1.0000101
1.0000101
1.0000101
1.0000101
1.0000101
1.0000101
1.0000101
1.0000101
1.0000101
1.0000101
1.0000101
1.0000101
1.0000101
1.0000101
1.0000101
1.0000101
1.0000101
1.0000101
1.0000101
1.0000101
1.0000101
1.0000101
1.0000101
1.0000101
1.0000101
1.0000101
1.0000101
1.0000101
1.0000101
1.0000101
1.0000101
1.0000101
1.0000101
1.0000101
1.0000101
1.0000101
1.0000101
1.0000101
1.0000101
1.0000101
1.0000101
1.0000101
1.0000101
1.0000101
1.0000101
1.0000101
1.0000101
1.0000101
1.0000101
1.0000102
1.0000101
1.00001
1.0000096
1.0000087
1.0000073
1.0000267
1.0000295
1.0000326
1.000036
1.0000397
1.0000437
1.000048
1.0000526
1.0000575
1.0000627
1.0000682
1.0000741
1.0000803
1.0000867
1.0000935
1.0001005
1.0001076
1.0001148
1.0001221
1.0001292
1.0001361
1.0001426
1.0001485
1.0001536
1.0001578
1.0001609
1.0001625
1.0001626
1.000161
1.0001577
1.0001524
1.0001459
1.0001371
1.0001265
1.0001147
1.0001016
1.0000873
1.0000723
1.0000568
1.0000406
1.0000241
1.0000075
0.99999079
0.99997423
0.99995795
0.99994208
0.99992677
0.99991209
0.99989804
0.99988466
0.99987178
0.99985946
0.99984778
0.99983679
0.99982647
0.99981679
0.99980771
0.9997992
0.99979125
0.9997838
0.99977686
0.99977038
0.99976436
0.99975875
0.99975355
0.99974871
0.99974422
0.99974005
0.99973618
0.9997326
0.99972927
0.99972619
0.99972333
0.9997207
1.0000312
1.0000344
1.0000378
1.0000416
1.0000457
1.00005
1.0000547
1.0000598
1.0000652
1.000071
1.0000772
1.0000837
1.0000905
1.0000976
1.000105
1.0001126
1.0001204
1.0001282
1.0001359
1.0001434
1.0001506
1.0001572
1.000163
1.0001679
1.0001715
1.0001737
1.0001743
1.000173
1.0001696
1.0001642
1.0001566
1.000147
1.0001353
1.0001216
1.0001063
1.0000894
1.0000712
1.0000521
1.0000324
1.0000123
0.99999206
0.99997186
0.99995185
0.99993222
0.99991307
0.99989494
0.99987763
0.99986075
0.99984448
0.99982892
0.99981414
0.99980013
0.99978691
0.99977443
0.99976268
0.99975166
0.99974133
0.99973168
0.99972266
0.99971424
0.99970642
0.99969915
0.99969241
0.99968616
0.99968036
0.99967498
0.99967
0.99966539
0.99966111
0.99965715
0.99965348
0.99965009
0.99964695
0.99964408
1.0000346
1.0000381
1.000042
1.0000461
1.0000506
1.0000555
1.0000607
1.0000663
1.0000724
1.0000788
1.0000857
1.0000929
1.0001005
1.0001084
1.0001167
1.0001252
1.0001338
1.0001425
1.000151
1.0001594
1.0001673
1.0001745
1.0001809
1.0001861
1.0001899
1.000192
1.0001922
1.0001903
1.000186
1.0001792
1.0001699
1.0001581
1.0001439
1.0001274
1.0001089
1.0000886
1.0000669
1.0000439
1.0000201
0.99999583
0.9999713
0.99994679
0.99992253
0.99989872
0.99987548
0.99985294
0.99983122
0.99981042
0.99979058
0.99977172
0.99975384
0.99973693
0.99972099
0.99970566
0.99969124
0.99967799
0.99966573
0.99965432
0.99964374
0.99963396
0.99962487
0.9996164
0.99960851
0.99960116
0.99959432
0.99958796
0.99958204
0.99957654
0.99957143
0.99956669
0.99956231
0.99955826
0.99955451
0.99955107
1.0000366
1.0000404
1.0000445
1.000049
1.0000539
1.0000592
1.0000649
1.000071
1.0000775
1.0000845
1.000092
1.0000998
1.0001082
1.0001169
1.0001259
1.0001352
1.0001447
1.0001543
1.0001638
1.0001731
1.0001819
1.0001901
1.0001973
1.0002033
1.0002077
1.0002104
1.000211
1.0002092
1.0002049
1.0001979
1.0001881
1.0001755
1.0001602
1.0001423
1.0001221
1.0000999
1.000076
1.0000507
1.0000243
0.99999724
0.99996978
0.99994224
0.99991486
0.99988792
0.99986158
0.99983595
0.99981115
0.99978729
0.99976445
0.99974269
0.99972201
0.99970242
0.99968392
0.99966651
0.99965012
0.99963472
0.99962029
0.9996068
0.9995942
0.99958243
0.99957147
0.99956127
0.99955181
0.99954302
0.99953488
0.99952733
0.99952033
0.99951385
0.99950784
0.99950228
0.99949713
0.99949235
0.99948789
0.99948381
1.0000377
1.0000417
1.0000461
1.0000508
1.000056
1.0000615
1.0000675
1.000074
1.000081
1.0000884
1.0000963
1.0001047
1.0001136
1.0001229
1.0001326
1.0001426
1.0001529
1.0001633
1.0001736
1.0001837
1.0001935
1.0002025
1.0002106
1.0002175
1.0002229
1.0002263
1.0002277
1.0002266
1.0002228
1.0002162
1.0002067
1.0001942
1.0001789
1.0001608
1.0001402
1.0001175
1.0000928
1.0000666
1.0000391
1.0000109
0.9999821
0.99995313
0.99992424
0.99989571
0.99986774
0.99984046
0.99981398
0.99978844
0.99976393
0.99974051
0.9997182
0.99969702
0.99967697
0.99965806
0.99964027
0.99962355
0.99960785
0.99959314
0.99957937
0.99956651
0.9995545
0.99954331
0.99953289
0.9995232
0.99951421
0.99950583
0.99949798
0.99949068
0.99948392
0.99947768
0.99947191
0.99946661
0.9994617
0.99945723
1.0000384
1.0000425
1.000047
1.0000519
1.0000572
1.000063
1.0000692
1.000076
1.0000832
1.000091
1.0000992
1.000108
1.0001173
1.0001271
1.0001373
1.0001479
1.0001588
1.0001698
1.0001808
1.0001917
1.0002021
1.000212
1.0002209
1.0002286
1.0002348
1.0002391
1.0002413
1.000241
1.0002379
1.000232
1.0002231
1.0002112
1.0001964
1.0001787
1.0001584
1.0001358
1.0001113
1.0000851
1.0000575
1.0000291
1.0000001
0.99997082
0.99994156
0.9999126
0.99988415
0.99985635
0.99982933
0.99980322
0.99977813
0.99975411
0.9997312
0.99970942
0.99968878
0.99966929
0.99965092
0.99963364
0.9996174
0.99960217
0.99958791
0.99957457
0.99956211
0.99955048
0.99953966
0.99952959
0.99952022
0.99951153
0.99950345
0.99949597
0.99948903
0.9994826
0.99947664
0.99947114
0.99946605
0.99946135
1.0000387
1.0000429
1.0000475
1.0000525
1.000058
1.0000639
1.0000703
1.0000772
1.0000847
1.0000927
1.0001012
1.0001103
1.0001199
1.00013
1.0001406
1.0001516
1.0001629
1.0001744
1.000186
1.0001974
1.0002085
1.000219
1.0002286
1.000237
1.0002439
1.0002489
1.0002518
1.0002522
1.00025
1.0002447
1.0002365
1.0002253
1.000211
1.0001939
1.0001741
1.000152
1.0001279
1.0001021
1.0000749
1.0000467
1.0000179
0.99998886
0.99995976
0.99993091
0.99990254
0.9998748
0.99984781
0.99982171
0.99979661
0.99977256
0.99974961
0.99972778
0.99970708
0.99968751
0.99966906
0.99965169
0.99963536
0.99962005
0.9996057
0.99959227
0.99957973
0.99956803
0.99955713
0.99954698
0.99953754
0.99952877
0.99952063
0.99951307
0.99950607
0.99949958
0.99949357
0.99948802
0.99948288
0.99947813
1.0000389
1.0000431
1.0000478
1.0000529
1.0000584
1.0000645
1.000071
1.000078
1.0000856
1.0000938
1.0001025
1.0001118
1.0001216
1.000132
1.0001429
1.0001542
1.0001659
1.0001778
1.0001897
1.0002016
1.0002131
1.0002241
1.0002342
1.0002432
1.0002507
1.0002563
1.0002598
1.0002608
1.0002591
1.0002545
1.0002469
1.0002362
1.0002225
1.0002059
1.0001867
1.000165
1.0001413
1.0001159
1.0000891
1.0000613
1.0000329
1.0000041
0.9999753
0.99994671
0.99991857
0.99989103
0.99986424
0.99983831
0.99981337
0.99978947
0.99976665
0.99974494
0.99972434
0.99970487
0.9996865
0.9996692
0.99965294
0.99963769
0.99962339
0.99961002
0.99959752
0.99958586
0.999575
0.99956488
0.99955547
0.99954673
0.99953861
0.99953108
0.9995241
0.99951763
0.99951164
0.9995061
0.99950097
0.99949623
1.0000389
1.0000432
1.0000479
1.0000531
1.0000587
1.0000648
1.0000714
1.0000786
1.0000863
1.0000945
1.0001034
1.0001128
1.0001228
1.0001334
1.0001445
1.000156
1.000168
1.0001801
1.0001924
1.0002046
1.0002165
1.0002278
1.0002383
1.0002477
1.0002556
1.0002617
1.0002656
1.0002671
1.0002659
1.0002618
1.0002546
1.0002444
1.0002311
1.000215
1.0001961
1.0001749
1.0001516
1.0001265
1.0001
1.0000725
1.0000443
1.0000158
0.99998724
0.99995887
0.99993092
0.99990356
0.99987694
0.99985118
0.99982638
0.99980261
0.99977991
0.99975832
0.99973783
0.99971845
0.99970016
0.99968295
0.99966676
0.99965157
0.99963734
0.99962403
0.99961159
0.99959998
0.99958916
0.99957909
0.99956973
0.99956103
0.99955295
0.99954545
0.9995385
0.99953206
0.99952609
0.99952058
0.99951547
0.99951076
1.000039
1.0000433
1.000048
1.0000532
1.0000589
1.000065
1.0000717
1.0000789
1.0000867
1.000095
1.000104
1.0001135
1.0001237
1.0001344
1.0001456
1.0001573
1.0001694
1.0001818
1.0001943
1.0002067
1.0002188
1.0002305
1.0002413
1.000251
1.0002592
1.0002656
1.0002699
1.0002718
1.0002709
1.0002671
1.0002603
1.0002504
1.0002375
1.0002216
1.0002031
1.0001822
1.0001591
1.0001343
1.000108
1.0000807
1.0000527
1.0000244
0.99999594
0.9999677
0.99993988
0.99991264
0.99988612
0.99986046
0.99983574
0.99981205
0.99978943
0.9997679
0.99974747
0.99972815
0.99970992
0.99969274
0.9996766
0.99966145
0.99964726
0.99963398
0.99962157
0.99961
0.99959921
0.99958917
0.99957983
0.99957115
0.99956309
0.99955561
0.99954868
0.99954226
0.99953632
0.99953081
0.99952572
0.99952103
1.000039
1.0000433
1.0000481
1.0000533
1.000059
1.0000651
1.0000718
1.0000791
1.0000869
1.0000953
1.0001044
1.000114
1.0001242
1.000135
1.0001464
1.0001582
1.0001704
1.000183
1.0001956
1.0002082
1.0002206
1.0002324
1.0002434
1.0002533
1.0002618
1.0002685
1.000273
1.0002751
1.0002745
1.000271
1.0002645
1.0002548
1.0002421
1.0002265
1.0002082
1.0001874
1.0001646
1.0001399
1.0001138
1.0000866
1.0000587
1.0000305
1.0000022
0.999974
0.99994624
0.99991905
0.99989259
0.99986697
0.9998423
0.99981865
0.99979606
0.99977456
0.99975416
0.99973486
0.99971664
0.99969949
0.99968336
0.99966823
0.99965405
0.99964079
0.9996284
0.99961684
0.99960606
0.99959603
0.99958671
0.99957804
0.99956999
0.99956253
0.99955561
0.9995492
0.99954326
0.99953777
0.99953269
0.999528
1.000039
1.0000433
1.0000481
1.0000533
1.000059
1.0000652
1.0000719
1.0000792
1.0000871
1.0000956
1.0001046
1.0001143
1.0001246
1.0001355
1.0001469
1.0001588
1.0001712
1.0001838
1.0001966
1.0002093
1.0002218
1.0002338
1.0002449
1.000255
1.0002637
1.0002705
1.0002753
1.0002776
1.0002772
1.0002739
1.0002675
1.0002581
1.0002456
1.0002301
1.000212
1.0001913
1.0001686
1.000144
1.000118
1.0000909
1.0000631
1.0000349
1.0000066
0.99997852
0.99995079
0.99992362
0.99989718
0.99987158
0.99984692
0.99982328
0.9998007
0.99977921
0.99975881
0.99973952
0.9997213
0.99970415
0.99968802
0.99967289
0.99965871
0.99964545
0.99963307
0.99962151
0.99961074
0.99960071
0.99959139
0.99958273
0.99957468
0.99956722
0.9995603
0.99955389
0.99954796
0.99954247
0.99953739
0.9995327
1.000039
1.0000433
1.0000481
1.0000533
1.000059
1.0000652
1.000072
1.0000793
1.0000872
1.0000957
1.0001048
1.0001145
1.0001249
1.0001358
1.0001473
1.0001593
1.0001717
1.0001844
1.0001972
1.00021
1.0002226
1.0002347
1.000246
1.0002562
1.000265
1.000272
1.0002769
1.0002794
1.0002791
1.000276
1.0002698
1.0002605
1.0002481
1.0002328
1.0002148
1.0001943
1.0001716
1.0001471
1.0001212
1.0000942
1.0000664
1.0000383
1.00001
0.99998189
0.99995417
0.99992701
0.99990057
0.99987497
0.99985031
0.99982667
0.99980408
0.99978258
0.99976218
0.99974287
0.99972465
0.99970749
0.99969135
0.99967621
0.99966203
0.99964877
0.99963638
0.99962481
0.99961404
0.99960401
0.99959469
0.99958602
0.99957798
0.99957052
0.9995636
0.99955719
0.99955126
0.99954577
0.99954069
0.999536
1.0000389
1.0000433
1.0000481
1.0000533
1.000059
1.0000653
1.000072
1.0000793
1.0000873
1.0000958
1.0001049
1.0001147
1.000125
1.000136
1.0001475
1.0001596
1.000172
1.0001848
1.0001977
1.0002106
1.0002232
1.0002354
1.0002468
1.0002571
1.000266
1.0002731
1.0002781
1.0002807
1.0002806
1.0002776
1.0002715
1.0002624
1.0002502
1.000235
1.0002171
1.0001966
1.0001741
1.0001497
1.0001238
1.0000968
1.0000691
1.0000409
1.0000127
0.99998459
0.99995687
0.9999297
0.99990325
0.99987765
0.99985298
0.99982932
0.99980672
0.9997852
0.99976479
0.99974547
0.99972723
0.99971005
0.99969391
0.99967876
0.99966456
0.99965129
0.99963889
0.99962732
0.99961654
0.99960651
0.99959718
0.99958851
0.99958046
0.99957299
0.99956607
0.99955966
0.99955372
0.99954823
0.99954315
0.99953846
1.0000389
1.0000433
1.0000481
1.0000533
1.000059
1.0000653
1.000072
1.0000794
1.0000873
1.0000958
1.000105
1.0001147
1.0001251
1.0001361
1.0001477
1.0001597
1.0001722
1.000185
1.000198
1.0002109
1.0002236
1.0002359
1.0002473
1.0002577
1.0002667
1.0002739
1.000279
1.0002817
1.0002817
1.0002789
1.0002729
1.0002639
1.0002518
1.0002368
1.000219
1.0001987
1.0001762
1.0001519
1.000126
1.0000991
1.0000714
1.0000433
1.0000151
0.99998698
0.99995925
0.99993208
0.99990561
0.99987999
0.99985531
0.99983163
0.99980901
0.99978748
0.99976704
0.9997477
0.99972944
0.99971225
0.99969608
0.99968092
0.99966671
0.99965342
0.99964101
0.99962943
0.99961864
0.9996086
0.99959926
0.99959058
0.99958252
0.99957505
0.99956812
0.99956171
0.99955577
0.99955027
0.99954518
0.99954049
1.0000389
1.0000433
1.0000481
1.0000533
1.000059
1.0000652
1.000072
1.0000794
1.0000873
1.0000958
1.000105
1.0001148
1.0001252
1.0001362
1.0001478
1.0001599
1.0001724
1.0001852
1.0001982
1.0002111
1.0002239
1.0002362
1.0002477
1.0002582
1.0002672
1.0002745
1.0002797
1.0002825
1.0002827
1.00028
1.0002742
1.0002653
1.0002534
1.0002385
1.0002208
1.0002006
1.0001782
1.000154
1.0001282
1.0001014
1.0000737
1.0000457
1.0000174
0.99998934
0.99996161
0.99993442
0.99990795
0.99988231
0.9998576
0.9998339
0.99981126
0.9997897
0.99976924
0.99974987
0.99973159
0.99971437
0.99969819
0.999683
0.99966877
0.99965547
0.99964304
0.99963145
0.99962064
0.99961059
0.99960124
0.99959255
0.99958448
0.999577
0.99957007
0.99956364
0.9995577
0.99955219
0.9995471
0.9995424
1.0000389
1.0000433
1.0000481
1.0000533
1.000059
1.0000652
1.000072
1.0000794
1.0000873
1.0000958
1.000105
1.0001148
1.0001252
1.0001362
1.0001478
1.0001599
1.0001724
1.0001853
1.0001983
1.0002113
1.0002241
1.0002364
1.000248
1.0002585
1.0002676
1.000275
1.0002803
1.0002832
1.0002836
1.000281
1.0002754
1.0002667
1.0002549
1.0002402
1.0002227
1.0002026
1.0001804
1.0001563
1.0001306
1.0001038
1.0000762
1.0000482
1.00002
0.99999192
0.99996418
0.99993699
0.99991049
0.99988483
0.9998601
0.99983637
0.9998137
0.99979211
0.99977162
0.99975222