/*--------------------------------*- C++ -*----------------------------------*\
| =========                 |                                                 |
| \\      /  F ield         | OpenFOAM: The Open Source CFD Toolbox           |
|  \\    /   O peration     | Version:  v2006                                 |
|   \\  /    A nd           | Website:  www.openfoam.com                      |
|    \\/     M anipulation  |                                                 |
\*---------------------------------------------------------------------------*/
FoamFile
{
    version     2.0;
    format      ascii;
    class       volVectorField;
    location    "9000";
    object      U;
}
// * * * * * * * * * * * * * * * * * * * * * * * * * * * * * * * * * * * * * //

dimensions      [0 1 -1 0 0 0 0];


internalField   nonuniform List<vector> 
55713
(
(0.1032341 6.0219954e-07 0)
(0.10314085 -3.0374454e-07 0)
(0.10312372 8.0944905e-07 2.5656004e-18)
(0.1031214 6.3605581e-07 -2.5522414e-18)
(0.10312255 1.344301e-06 2.5703895e-18)
(0.10312378 1.3665191e-06 3.5041131e-28)
(0.10312439 1.7962058e-06 -2.6459802e-18)
(0.10312452 1.9111629e-06 0)
(0.10312452 2.2031252e-06 1.0710389e-20)
(0.10312474 2.4213301e-06 0)
(0.10312524 2.669112e-06 -1.1107426e-20)
(0.10312571 2.9064028e-06 -1.1311921e-20)
(0.10312585 3.1337253e-06 0)
(0.10312568 3.3231463e-06 3.0031042e-18)
(0.10312548 3.4783087e-06 -3.057782e-18)
(0.10312551 3.6481628e-06 -6.080135e-21)
(0.10312589 3.8387786e-06 3.1749805e-18)
(0.10312648 4.0383117e-06 -3.2250154e-18)
(0.10312698 4.2317189e-06 6.4095125e-21)
(0.10312712 4.4001759e-06 -3.3387383e-18)
(0.10312683 4.5803598e-06 3.3895436e-18)
(0.10312632 4.7778852e-06 0)
(0.10312591 4.9726751e-06 0)
(0.10312582 5.1509831e-06 -1.7921385e-18)
(0.10312602 5.3199955e-06 1.8144116e-18)
(0.10312637 5.4786272e-06 0)
(0.1031267 5.631159e-06 0)
(0.10312694 5.7753761e-06 0)
(0.10312708 5.9165022e-06 2.4143094e-19)
(0.10312712 6.073521e-06 -1.2667029e-28)
(0.10312709 6.241537e-06 -2.4386253e-19)
(0.10312697 6.424716e-06 0)
(0.10312673 6.612888e-06 0)
(0.10312637 6.7888643e-06 0)
(0.10312592 6.953819e-06 0)
(0.1031255 7.120617e-06 1.803524e-18)
(0.10312527 7.290631e-06 -1.7671719e-18)
(0.10312533 7.462936e-06 -3.489572e-18)
(0.10312561 7.6392995e-06 1.4462775e-27)
(0.10312589 7.8197938e-06 3.3665499e-18)
(0.10312594 7.9956683e-06 0)
(0.10312573 8.1747281e-06 6.363439e-21)
(0.10312542 8.3658352e-06 -3.2011583e-18)
(0.10312526 8.5585221e-06 3.1446791e-18)
(0.10312537 8.7627957e-06 3.0886955e-18)
(0.10312562 8.9651672e-06 -3.0391981e-18)
(0.10312575 9.1795684e-06 0)
(0.10312564 9.393131e-06 0)
(0.10312534 9.6321889e-06 -2.8601754e-18)
(0.10312496 9.846856e-06 2.8193711e-18)
(0.10312462 1.0105072e-05 0)
(0.10312436 1.0327614e-05 0)
(0.10312416 1.0613799e-05 0)
(0.10312395 1.0848708e-05 0)
(0.10312369 1.1173418e-05 2.5865652e-18)
(0.10312353 1.142396e-05 -3.3611618e-27)
(0.10312371 1.177932e-05 -3.7763597e-18)
(0.10312391 1.2149699e-05 1.2270223e-18)
(0.10312374 1.2248714e-05 -1.926418e-20)
(0.1032394 9.9225864e-07 0)
(0.10315463 -2.4538223e-07 2.4224047e-18)
(0.10314144 9.4350101e-07 -2.5049456e-18)
(0.10314017 6.1967566e-07 3.9160267e-20)
(0.10314154 1.1976707e-06 -2.537423e-18)
(0.10314267 1.1368234e-06 5.1417626e-18)
(0.10314313 1.5133614e-06 2.2209402e-27)
(0.10314314 1.5844531e-06 -2.6836989e-18)
(0.10314312 1.8699594e-06 -1.0692834e-20)
(0.10314345 2.1003788e-06 2.1809387e-20)
(0.10314411 2.3941557e-06 -2.8352568e-18)
(0.10314467 2.6597516e-06 2.9130255e-18)
(0.10314481 2.8942675e-06 2.9575031e-18)
(0.1031446 3.0618222e-06 2.4290291e-27)
(0.10314434 3.1551852e-06 4.4125659e-27)
(0.10314433 3.2313244e-06 -3.1212403e-18)
(0.10314469 3.3195608e-06 -6.2199806e-21)
(0.10314526 3.4450272e-06 0)
(0.10314569 3.5991951e-06 3.2936517e-18)
(0.10314572 3.7847478e-06 -6.7165719e-18)
(0.10314532 4.0470967e-06 3.4234408e-18)
(0.10314474 4.2851857e-06 1.3576255e-20)
(0.10314433 4.4657594e-06 0)
(0.10314429 4.6426363e-06 7.0190583e-21)
(0.10314455 4.7627353e-06 0)
(0.10314492 4.8338875e-06 9.1366404e-19)
(0.10314525 4.8964569e-06 -1.8861098e-18)
(0.10314547 4.9761788e-06 9.4295863e-19)
(0.10314559 5.0779922e-06 2.4318628e-19)
(0.10314563 5.2241561e-06 -2.6150112e-19)
(0.10314559 5.4276103e-06 0)
(0.10314548 5.6549577e-06 9.5130202e-19)
(0.10314526 5.8499081e-06 -1.9028725e-18)
(0.1031449 6.0204178e-06 9.3644578e-19)
(0.10314445 6.1967902e-06 0)
(0.10314399 6.3648738e-06 1.8129857e-18)
(0.10314371 6.5090916e-06 -1.7900954e-18)
(0.10314373 6.6366456e-06 1.3698191e-20)
(0.10314402 6.7903778e-06 0)
(0.10314437 6.9310611e-06 6.617961e-21)
(0.1031445 7.0238968e-06 3.3296101e-18)
(0.10314435 7.1247512e-06 -6.5485986e-18)
(0.10314403 7.2608902e-06 -1.1396753e-27)
(0.10314382 7.4177336e-06 3.1549432e-18)
(0.10314387 7.608845e-06 -3.0973029e-18)
(0.10314408 7.7856071e-06 6.0859072e-18)
(0.10314421 7.9974648e-06 -5.9660682e-18)
(0.10314409 8.2114072e-06 2.9265023e-18)
(0.10314376 8.4803415e-06 -1.1212737e-20)
(0.10314335 8.6728097e-06 0)
(0.10314298 8.9407124e-06 0)
(0.10314268 9.1076279e-06 0)
(0.10314247 9.389327e-06 -2.6743528e-18)
(0.10314226 9.5668713e-06 2.6225656e-18)
(0.10314197 9.8902897e-06 0)
(0.10314173 1.0072772e-05 3.9143789e-20)
(0.10314188 1.0449245e-05 0)
(0.10314212 1.0660174e-05 1.8904963e-20)
(0.10314192 1.1006288e-05 1.8546588e-20)
(0.10324398 1.1395897e-06 0)
(0.10316823 -2.4336515e-07 3.7321241e-20)
(0.10315699 9.0108844e-07 -3.7934555e-20)
(0.10315665 5.2787577e-07 -3.8471438e-20)
(0.10315817 1.013126e-06 -2.5448813e-18)
(0.10315917 9.81016e-07 2.5789285e-18)
(0.10315949 1.2962016e-06 0)
(0.1031594 1.3603795e-06 2.0894295e-20)
(0.10315936 1.5876506e-06 -5.4655204e-18)
(0.10315979 1.7386652e-06 5.5382915e-18)
(0.10316059 1.9228463e-06 0)
(0.1031612 2.1108283e-06 -2.2714047e-20)
(0.10316132 2.3591229e-06 0)
(0.10316107 2.6479808e-06 3.0005867e-18)
(0.10316079 2.9447639e-06 -6.1655028e-18)
(0.10316077 3.1129284e-06 3.1413788e-18)
(0.10316115 3.1984336e-06 -3.1876141e-18)
(0.1031617 3.2558812e-06 -5.5639276e-27)
(0.10316207 3.2658886e-06 3.3180283e-18)
(0.10316198 3.3014557e-06 -3.3772609e-18)
(0.10316145 3.3972804e-06 -3.7354781e-27)
(0.10316081 3.5674744e-06 3.4963535e-18)
(0.10316044 3.8186383e-06 0)
(0.10316047 4.074295e-06 1.7940056e-18)
(0.1031608 4.2722906e-06 4.8210528e-28)
(0.10316121 4.3943727e-06 -1.8392187e-18)
(0.10316153 4.4422342e-06 -1.4832914e-20)
(0.10316174 4.4820985e-06 4.9726817e-19)
(0.10316184 4.5070012e-06 -4.8972374e-19)
(0.10316187 4.5414588e-06 2.4769412e-19)
(0.10316183 4.6358929e-06 -2.4673998e-19)
(0.10316173 4.7481589e-06 3.0369521e-20)
(0.10316152 4.9057911e-06 0)
(0.10316119 5.1425865e-06 1.4709984e-20)
(0.10316073 5.376593e-06 -1.4472633e-20)
(0.10316025 5.5471826e-06 -1.4235695e-20)
(0.10315991 5.6749635e-06 -1.3999339e-20)
(0.10315988 5.7666174e-06 -1.3763676e-20)
(0.10316018 5.9042661e-06 3.4498198e-18)
(0.1031606 6.0758093e-06 -3.4033869e-18)
(0.10316085 6.2022209e-06 0)
(0.10316077 6.2543591e-06 3.2840052e-18)
(0.10316045 6.2982078e-06 -3.2119514e-18)
(0.10316016 6.3933735e-06 3.1899361e-18)
(0.1031601 6.5349157e-06 -3.1059626e-18)
(0.10316024 6.6701481e-06 -3.0229902e-18)
(0.10316034 6.9006112e-06 -4.7420556e-27)
(0.10316022 7.1110217e-06 2.9057915e-18)
(0.1031599 7.4213998e-06 2.2419673e-20)
(0.1031595 7.5661163e-06 0)
(0.10315912 7.8140463e-06 0)
(0.10315879 7.8808365e-06 0)
(0.10315856 8.1458915e-06 2.0587589e-20)
(0.10315837 8.2508393e-06 -2.0134186e-20)
(0.10315807 8.5727791e-06 0)
(0.10315775 8.6880819e-06 2.4624664e-18)
(0.10315787 9.0659145e-06 -2.4060375e-18)
(0.10315816 9.1983069e-06 0)
(0.10315795 9.6314583e-06 0)
(0.10324756 1.1649264e-06 6.8433232e-20)
(0.10317925 -2.5056176e-07 -7.2490218e-20)
(0.10317066 7.9101547e-07 -2.3352694e-18)
(0.10317106 4.8026862e-07 2.4197158e-18)
(0.10317262 9.1496907e-07 3.8672706e-20)
(0.10317347 9.3357314e-07 0)
(0.10317365 1.2477231e-06 -2.6014561e-18)
(0.10317346 1.3492866e-06 7.9747772e-18)
(0.10317341 1.5582552e-06 -1.0912275e-17)
(0.10317397 1.6719559e-06 5.6021902e-18)
(0.10317487 1.8037267e-06 -2.8517811e-18)
(0.10317545 1.9041508e-06 2.2757651e-20)
(0.10317551 1.9968021e-06 5.9477128e-18)
(0.10317523 2.1253503e-06 -3.0107609e-18)
(0.10317492 2.3485572e-06 0)
(0.10317492 2.6062683e-06 0)
(0.10317536 2.8048339e-06 -1.2559423e-20)
(0.10317594 2.9184531e-06 0)
(0.10317625 2.9797093e-06 0)
(0.10317604 3.0216627e-06 2.6527959e-20)
(0.10317539 3.0355234e-06 -1.3499534e-20)
(0.1031747 3.0603959e-06 -2.7471335e-20)
(0.10317438 3.1553549e-06 -1.7884711e-18)
(0.10317452 3.3159922e-06 1.8330703e-18)
(0.10317493 3.5321788e-06 1.4447902e-20)
(0.10317536 3.7683599e-06 -1.4686523e-20)
(0.10317568 3.9682441e-06 9.7015484e-19)
(0.10317587 4.101643e-06 -9.7052202e-19)
(0.10317596 4.1722851e-06 1.5402865e-20)
(0.10317598 4.18023e-06 -2.3361391e-19)
(0.10317595 4.1569832e-06 -2.4808613e-19)
(0.10317585 4.16638e-06 4.732303e-19)
(0.10317566 4.2160112e-06 0)
(0.10317535 4.2927513e-06 -1.9072053e-18)
(0.1031749 4.4048548e-06 1.4544322e-20)
(0.10317439 4.5401616e-06 3.6905818e-18)
(0.10317398 4.6773373e-06 -1.7863115e-18)
(0.10317389 4.8030831e-06 0)
(0.10317418 4.9889386e-06 1.3588981e-20)
(0.10317468 5.2019881e-06 0)
(0.10317505 5.3841101e-06 0)
(0.10317507 5.5335338e-06 2.575527e-20)
(0.10317477 5.6666008e-06 -1.2640864e-20)
(0.10317439 5.7249388e-06 -3.2001947e-18)
(0.1031742 5.8178344e-06 3.1145983e-18)
(0.10317424 5.9088897e-06 -3.2265611e-26)
(0.1031743 6.1207123e-06 2.3378387e-20)
(0.10317419 6.2397593e-06 3.0989385e-26)
(0.10317392 6.4244104e-06 -2.2415089e-20)
(0.10317356 6.4780738e-06 -5.5918877e-18)
(0.10317319 6.6510045e-06 5.4884384e-18)
(0.10317284 6.728597e-06 4.1890643e-20)
(0.10317257 6.9796547e-06 -2.6580763e-18)
(0.10317241 7.0942913e-06 5.1053407e-18)
(0.10317214 7.3818601e-06 -5.0135705e-18)
(0.10317172 7.5061226e-06 2.4210679e-18)
(0.1031718 7.8799718e-06 -7.35488e-20)
(0.10317217 7.9233044e-06 0)
(0.10317194 8.4940364e-06 0)
(0.10325028 1.0639805e-06 -6.6138281e-20)
(0.10318933 -1.9063249e-07 7.0439564e-20)
(0.10318261 6.8418903e-07 -2.3190797e-18)
(0.10318362 4.6506594e-07 2.304539e-18)
(0.10318517 8.579891e-07 -2.4453118e-18)
(0.10318585 9.3255036e-07 2.5554141e-18)
(0.10318592 1.2223044e-06 2.5463487e-18)
(0.10318563 1.3445382e-06 -2.6558529e-18)
(0.10318559 1.5373387e-06 5.403987e-18)
(0.10318629 1.6666441e-06 -1.1113703e-17)
(0.10318725 1.791866e-06 5.7085858e-18)
(0.10318772 1.8637061e-06 -2.2799942e-20)
(0.10318767 1.9109505e-06 -2.9817516e-18)
(0.10318734 1.9158508e-06 6.0889458e-18)
(0.103187 1.9447901e-06 -3.1066644e-18)
(0.10318708 2.0461006e-06 -3.1684203e-18)
(0.10318765 2.1801446e-06 2.5233146e-20)
(0.10318829 2.2909447e-06 3.2653326e-18)
(0.10318855 2.3976403e-06 -2.618838e-20)
(0.1031882 2.5226736e-06 -5.3330356e-20)
(0.10318741 2.6365774e-06 1.3571079e-20)
(0.1031867 2.709916e-06 1.3809869e-20)
(0.10318648 2.7502583e-06 0)
(0.10318674 2.8022559e-06 -1.8289831e-18)
(0.10318722 2.902201e-06 -1.4529409e-20)
(0.10318767 3.0460305e-06 1.9053927e-18)
(0.10318798 3.2292602e-06 0)
(0.10318815 3.4349275e-06 0)
(0.10318823 3.6058545e-06 -3.0990632e-20)
(0.10318825 3.7385829e-06 2.3492544e-19)
(0.10318822 3.8188966e-06 -2.4935145e-19)
(0.10318813 3.845399e-06 0)
(0.10318796 3.8375003e-06 0)
(0.10318767 3.8123642e-06 -1.901422e-18)
(0.10318723 3.8200616e-06 3.7407005e-18)
(0.1031867 3.8743899e-06 -1.8537248e-18)
(0.10318621 3.9773395e-06 -1.7801822e-18)
(0.10318603 4.0757257e-06 1.7775953e-18)
(0.10318628 4.1883389e-06 0)
(0.10318685 4.3046906e-06 0)
(0.10318736 4.4665658e-06 -3.3969303e-18)
(0.1031875 4.632925e-06 3.2831895e-18)
(0.10318723 4.8040921e-06 2.536989e-20)
(0.10318677 4.8985044e-06 -3.1854201e-18)
(0.10318642 5.0479111e-06 6.2219141e-18)
(0.10318635 5.1637309e-06 -3.0843612e-18)
(0.1031864 5.3160022e-06 -3.0206213e-18)
(0.10318631 5.3571869e-06 5.8666213e-18)
(0.1031861 5.4646148e-06 -2.8686471e-18)
(0.10318581 5.5089588e-06 -6.5697469e-20)
(0.10318547 5.69076e-06 0)
(0.10318511 5.7959767e-06 -4.1698372e-20)
(0.1031848 6.0168869e-06 2.5995001e-18)
(0.10318465 6.1245542e-06 -5.0573584e-18)
(0.10318444 6.3622289e-06 2.532695e-18)
(0.10318392 6.4779744e-06 3.7201983e-20)
(0.10318396 6.8139673e-06 1.4394448e-19)
(0.10318441 6.8359805e-06 6.9431461e-20)
(0.10318418 7.4453691e-06 6.6601162e-20)
(0.10325213 8.8028903e-07 -1.0235375e-18)
(0.10319772 -1.1228625e-07 -1.0957499e-18)
(0.10319303 5.5128523e-07 2.3389304e-18)
(0.10319449 4.4696723e-07 -2.2666082e-18)
(0.10319598 7.3907636e-07 -5.5726195e-27)
(0.10319648 8.0370387e-07 2.456167e-18)
(0.10319646 1.0012208e-06 4.0189195e-20)
(0.10319606 1.0824495e-06 5.2928761e-18)
(0.10319607 1.2215445e-06 4.2474622e-20)
(0.10319696 1.3236844e-06 -5.6202446e-18)
(0.10319789 1.4310415e-06 5.6687182e-18)
(0.10319813 1.5119236e-06 -5.8244665e-18)
(0.10319794 1.6039796e-06 -2.9894486e-18)
(0.10319754 1.6977474e-06 3.0542269e-18)
(0.10319717 1.7491069e-06 2.436053e-20)
(0.10319743 1.7781717e-06 0)
(0.10319821 1.8448606e-06 -2.5343659e-20)
(0.10319894 1.9351415e-06 3.3320286e-18)
(0.10319914 2.0492633e-06 -6.7099336e-18)
(0.10319861 2.1824842e-06 2.1857982e-26)
(0.10319766 2.3043877e-06 2.7277752e-20)
(0.10319695 2.3959651e-06 3.553238e-18)
(0.10319687 2.4465055e-06 -1.8074955e-18)
(0.10319728 2.4738649e-06 1.8384371e-18)
(0.10319783 2.5079633e-06 1.869463e-18)
(0.10319827 2.5569866e-06 -1.9154304e-18)
(0.10319856 2.6351528e-06 9.6589174e-19)
(0.10319871 2.7489636e-06 -9.8151959e-19)
(0.10319878 2.8960396e-06 -2.3370688e-19)
(0.1031988 3.0491954e-06 1.5742222e-20)
(0.10319877 3.1937665e-06 2.5051649e-19)
(0.1031987 3.3179499e-06 0)
(0.10319855 3.4089825e-06 -1.5165372e-20)
(0.10319828 3.4698746e-06 0)
(0.10319786 3.5075313e-06 -1.4675001e-20)
(0.1031973 3.5357392e-06 -1.8471521e-18)
(0.10319674 3.5795312e-06 -2.8374851e-20)
(0.10319643 3.5914313e-06 5.3546788e-18)
(0.1031966 3.6259041e-06 -7.0153306e-18)
(0.10319722 3.6713514e-06 -2.6918309e-20)
(0.10319789 3.7870701e-06 6.819548e-18)
(0.10319817 3.8850817e-06 -3.3209624e-18)
(0.10319792 4.0096611e-06 3.2073813e-18)
(0.10319738 4.1046592e-06 -3.2201612e-18)
(0.10319688 4.2573044e-06 2.4465172e-20)
(0.1031967 4.3415203e-06 0)
(0.10319678 4.4374689e-06 0)
(0.10319673 4.4841421e-06 4.5869773e-20)
(0.10319659 4.6080015e-06 5.7364083e-18)
(0.10319637 4.6922424e-06 -5.5549681e-18)
(0.10319607 4.8645093e-06 -4.2638883e-20)
(0.10319573 4.9694092e-06 2.6565689e-18)
(0.10319536 5.1442862e-06 -5.1238562e-18)
(0.10319519 5.2482255e-06 -3.7743012e-27)
(0.10319509 5.4484452e-06 2.3873704e-18)
(0.10319446 5.5643862e-06 -7.4720243e-26)
(0.10319443 5.844142e-06 -2.254549e-18)
(0.10319499 5.876374e-06 2.0945764e-18)
(0.10319475 6.4271298e-06 -6.437151e-20)
(0.10325348 6.5668827e-07 0)
(0.1032054 -4.1838912e-08 6.6619448e-20)
(0.10320232 4.1096087e-07 -6.3501761e-26)
(0.10320408 3.8678554e-07 0)
(0.10320547 5.6094757e-07 -2.4630546e-18)
(0.1032058 6.4062344e-07 2.5131343e-18)
(0.1032057 7.651368e-07 0)
(0.10320518 8.304069e-07 4.1202405e-20)
(0.10320531 9.3027288e-07 0)
(0.10320643 1.0150987e-06 5.6180305e-18)
(0.10320726 1.1104403e-06 -5.6731689e-18)
(0.10320715 1.1987509e-06 2.9287372e-18)
(0.10320685 1.3085894e-06 4.7431383e-27)
(0.10320635 1.4452102e-06 -3.0636922e-18)
(0.10320595 1.5725007e-06 -3.1537144e-18)
(0.10320653 1.6696064e-06 3.1938217e-18)
(0.10320758 1.7421048e-06 0)
(0.10320836 1.8089684e-06 2.5942682e-20)
(0.10320847 1.8867493e-06 -2.643213e-20)
(0.1032077 1.9722606e-06 2.4757755e-26)
(0.10320657 2.0578718e-06 -2.7404856e-20)
(0.10320592 2.1369567e-06 0)
(0.10320603 2.1998384e-06 0)
(0.10320659 2.247608e-06 0)
(0.10320718 2.2677092e-06 0)
(0.10320761 2.2701268e-06 0)
(0.10320787 2.2772708e-06 -9.5536426e-19)
(0.103208 2.3105499e-06 5.0855257e-19)
(0.10320806 2.3651422e-06 5.0103118e-19)
(0.10320807 2.4422843e-06 2.372211e-19)
(0.10320805 2.5413257e-06 -7.546954e-19)
(0.10320798 2.6629154e-06 5.1065064e-19)
(0.10320785 2.791818e-06 1.5226121e-20)
(0.10320762 2.9131734e-06 0)
(0.10320722 3.0136088e-06 1.4732206e-20)
(0.10320665 3.0789784e-06 0)
(0.10320601 3.116863e-06 0)
(0.10320555 3.125368e-06 3.6113121e-18)
(0.10320558 3.172554e-06 -7.0140802e-18)
(0.1032062 3.2025794e-06 6.9434179e-18)
(0.10320705 3.2773121e-06 -6.8439066e-18)
(0.10320752 3.3218624e-06 6.6646938e-18)
(0.10320731 3.4119756e-06 -3.2432779e-18)
(0.10320671 3.4793728e-06 2.5036419e-20)
(0.10320604 3.5738303e-06 3.1642277e-18)
(0.10320572 3.6226289e-06 -3.0737336e-18)
(0.10320589 3.7050612e-06 2.3488781e-20)
(0.1032059 3.7801801e-06 -2.2953072e-20)
(0.10320582 3.9046124e-06 5.7355558e-18)
(0.10320568 3.9982675e-06 -1.113901e-17)
(0.10320543 4.1321713e-06 5.4852988e-18)
(0.10320512 4.2176519e-06 4.1321989e-20)
(0.10320469 4.3593579e-06 0)
(0.10320445 4.4648205e-06 -2.5208073e-18)
(0.10320452 4.622968e-06 2.3952779e-18)
(0.10320376 4.7392495e-06 -7.2003963e-20)
(0.10320363 4.9581769e-06 2.1387875e-18)
(0.10320431 5.0189516e-06 -2.0395104e-18)
(0.10320409 5.4889648e-06 1.2454373e-19)
(0.10325434 3.6936497e-07 0)
(0.1032119 2.5468231e-08 -2.2044787e-18)
(0.10321048 2.8297991e-07 -6.7875454e-20)
(0.10321235 3.7384957e-07 4.6016039e-18)
(0.10321363 4.8350169e-07 7.3776994e-20)
(0.10321381 5.7818093e-07 -4.9846428e-18)
(0.10321365 6.7252132e-07 2.5428072e-18)
(0.10321298 7.6497454e-07 5.1726756e-18)
(0.10321335 8.5000705e-07 -5.37424e-18)
(0.10321475 9.3280994e-07 -2.8436111e-26)
(0.10321535 1.0096556e-06 4.4702878e-20)
(0.10321487 1.0849841e-06 -2.291873e-20)
(0.10321458 1.163745e-06 0)
(0.10321393 1.2567139e-06 2.4006272e-20)
(0.1032135 1.3419648e-06 3.1644731e-18)
(0.10321461 1.4431746e-06 -3.2057401e-18)
(0.10321588 1.5252114e-06 3.2449073e-18)
(0.10321664 1.584894e-06 -3.3343294e-18)
(0.10321662 1.6258441e-06 1.7453114e-26)
(0.10321549 1.6654174e-06 -3.4333086e-18)
(0.10321418 1.7148796e-06 7.0181428e-18)
(0.10321367 1.7869517e-06 -3.5851657e-18)
(0.10321403 1.8595376e-06 0)
(0.10321473 1.9397066e-06 1.4491721e-20)
(0.10321534 2.0099278e-06 -1.9009778e-18)
(0.10321574 2.061464e-06 1.9026888e-18)
(0.10321597 2.0788964e-06 -1.5228447e-20)
(0.10321608 2.067223e-06 4.7975928e-19)
(0.10321613 2.0600533e-06 -5.0318536e-19)
(0.10321614 2.0739895e-06 1.5878077e-20)
(0.10321612 2.1081133e-06 5.0495368e-19)
(0.10321606 2.1648929e-06 -5.1245771e-19)
(0.10321595 2.2358991e-06 -1.5279087e-20)
(0.10321575 2.3277133e-06 0)
(0.10321539 2.417984e-06 0)
(0.10321482 2.4906546e-06 -1.875158e-18)
(0.10321411 2.567144e-06 1.8291735e-18)
(0.10321349 2.613292e-06 -2.8090418e-20)
(0.10321331 2.6678103e-06 -2.7600009e-20)
(0.10321389 2.7072073e-06 0)
(0.10321491 2.7649223e-06 2.6614789e-20)
(0.10321567 2.8153962e-06 -3.3169328e-18)
(0.10321549 2.8916076e-06 3.2531728e-18)
(0.10321486 2.9426091e-06 -3.2136892e-18)
(0.10321403 3.0190057e-06 3.1229397e-18)
(0.10321345 3.0687463e-06 2.4063014e-20)
(0.1032138 3.15261e-06 -2.3523776e-20)
(0.10321392 3.2281935e-06 0)
(0.10321387 3.3231353e-06 0)
(0.10321382 3.3974189e-06 -4.3624822e-20)
(0.10321362 3.4985552e-06 0)
(0.10321335 3.5796152e-06 -4.1136853e-20)
(0.1032129 3.6948912e-06 0)
(0.1032125 3.7889806e-06 2.5361416e-18)
(0.10321277 3.9071952e-06 -2.291994e-18)
(0.10321193 4.033209e-06 7.0854245e-20)
(0.10321163 4.1966891e-06 -2.1626997e-18)
(0.10321247 4.2842471e-06 3.0766355e-18)
(0.10321226 4.5890078e-06 -1.0852591e-18)
(0.10325324 1.3589613e-07 1.1629315e-19)
(0.10321591 8.3218035e-08 -2.0203498e-18)
(0.10321642 1.5683799e-07 -2.3395075e-27)
(0.10321814 3.0842627e-07 2.1604554e-18)
(0.10321935 3.4489626e-07 0)
(0.10321944 4.9814474e-07 3.8025898e-20)
(0.10321913 5.4280939e-07 -3.9502696e-20)
(0.10321833 6.5879423e-07 5.2764911e-18)
(0.10321915 7.096605e-07 -1.081241e-17)
(0.10322076 8.0994256e-07 -4.3510211e-20)
(0.10322098 8.5649474e-07 5.6811046e-18)
(0.10322023 9.2420541e-07 2.9612359e-18)
(0.10322012 9.5960232e-07 -3.011054e-18)
(0.10321925 1.0232143e-06 -2.4074991e-20)
(0.10321881 1.0515532e-06 -2.4610988e-20)
(0.10322067 1.1093185e-06 0)
(0.10322197 1.1576187e-06 2.5646109e-20)
(0.10322263 1.2147363e-06 -2.6149947e-20)
(0.10322243 1.2547117e-06 2.6647248e-20)
(0.10322076 1.2936646e-06 0)
(0.10321934 1.3246339e-06 3.5641718e-18)
(0.10321909 1.3675699e-06 -5.3984048e-18)
(0.10321975 1.4159338e-06 1.8163275e-18)
(0.10322055 1.4890311e-06 1.8472887e-18)
(0.10322115 1.5675982e-06 -1.8635667e-18)
(0.10322151 1.6514494e-06 -9.4727001e-19)
(0.1032217 1.7143495e-06 9.7812746e-19)
(0.10322179 1.7557041e-06 0)
(0.10322184 1.7782325e-06 -2.525077e-19)
(0.10322184 1.7997861e-06 2.5489393e-19)
(0.10322183 1.8094749e-06 4.9061498e-19)
(0.10322178 1.8270918e-06 -1.5106525e-18)
(0.10322169 1.8401721e-06 9.9596582e-19)
(0.10322152 1.8840469e-06 1.5072909e-20)
(0.1032212 1.9488596e-06 -1.9123987e-18)
(0.10322067 2.0147874e-06 1.880563e-18)
(0.1032199 2.0753715e-06 0)
(0.10321913 2.121493e-06 -3.6062333e-18)
(0.10321866 2.1663412e-06 3.5433954e-18)
(0.10321916 2.2039229e-06 0)
(0.10322033 2.2533235e-06 0)
(0.1032215 2.3029464e-06 -2.6194215e-20)
(0.10322138 2.3527384e-06 2.5687648e-20)
(0.10322074 2.4093307e-06 0)
(0.10321978 2.4557796e-06 0)
(0.10321874 2.5188499e-06 -2.4109572e-20)
(0.10321935 2.566196e-06 0)
(0.10321961 2.6403094e-06 0)
(0.10321957 2.6988479e-06 5.7333344e-18)
(0.10321958 2.7686695e-06 -5.5763946e-18)
(0.10321943 2.8456702e-06 0)
(0.10321924 2.9252178e-06 4.0951961e-20)
(0.10321882 3.0159352e-06 -3.9550593e-20)
(0.10321816 3.1018024e-06 -2.4749165e-18)
(0.1032186 3.2188636e-06 2.2640935e-18)
(0.10321779 3.3072134e-06 -6.9734072e-20)
(0.10321718 3.4324922e-06 2.0529369e-18)
(0.10321827 3.5194663e-06 -2.12424e-18)
(0.10321809 3.7442848e-06 0)
(0.10325121 -9.4640544e-08 -1.128082e-19)
(0.10321946 1.9944019e-07 2.0297699e-18)
(0.10322206 -2.315253e-08 -2.0835568e-18)
(0.10322311 4.6904801e-07 -6.86263e-20)
(0.10322435 2.6974785e-07 3.6054233e-20)
(0.10322467 4.3171659e-07 0)
(0.10322376 4.5597636e-07 3.9274935e-20)
(0.103223 5.2469081e-07 0)
(0.1032247 5.8187703e-07 5.3535689e-18)
(0.103226 6.6048169e-07 7.1260221e-27)
(0.10322565 6.8663006e-07 -5.7518237e-18)
(0.1032251 7.5515511e-07 2.29903e-20)
(0.10322528 7.8333393e-07 0)
(0.10322414 8.4420704e-07 0)
(0.10322374 8.6719859e-07 3.159957e-18)
(0.10322645 9.2132009e-07 -3.2530816e-18)
(0.10322762 9.5848648e-07 0)
(0.10322811 1.0085346e-06 -1.3121272e-20)
(0.10322754 1.0467703e-06 0)
(0.10322522 1.0861771e-06 0)
(0.10322391 1.1031015e-06 0)
(0.10322404 1.1331673e-06 -1.8054091e-18)
(0.10322501 1.1607859e-06 1.8508059e-18)
(0.10322586 1.1983246e-06 0)
(0.1032264 1.2243726e-06 -1.4834047e-20)
(0.1032267 1.2771538e-06 0)
(0.10322685 1.3332138e-06 -1.5326226e-20)
(0.10322693 1.4014994e-06 -5.1397716e-19)
(0.10322697 1.455291e-06 5.0642182e-19)
(0.10322697 1.4996701e-06 -1.5971634e-20)
(0.10322695 1.5360013e-06 5.3932706e-19)
(0.10322691 1.5547067e-06 -1.4984439e-18)
(0.10322683 1.5640556e-06 9.6749009e-19)
(0.10322669 1.585421e-06 -3.0214435e-20)
(0.10322641 1.6164698e-06 1.6044921e-26)
(0.10322592 1.6650945e-06 0)
(0.10322512 1.7056749e-06 0)
(0.10322419 1.7573677e-06 0)
(0.10322339 1.7916733e-06 1.3878427e-20)
(0.10322381 1.8410482e-06 -3.4898984e-18)
(0.10322503 1.8792238e-06 6.8661918e-18)
(0.10322674 1.9288959e-06 4.8096432e-27)
(0.10322672 1.9827674e-06 -6.5937906e-18)
(0.10322606 2.027804e-06 3.255576e-18)
(0.10322489 2.0790688e-06 0)
(0.10322334 2.1265986e-06 0)
(0.10322421 2.1685977e-06 0)
(0.10322466 2.2347167e-06 5.8888711e-18)
(0.10322462 2.290203e-06 -5.7549762e-18)
(0.10322461 2.3428518e-06 2.1755531e-20)
(0.10322451 2.4190978e-06 -4.2175907e-20)
(0.10322441 2.465756e-06 -4.4043204e-26)
(0.10322408 2.5514391e-06 4.2455577e-26)
(0.10322312 2.6235948e-06 -3.7734456e-20)
(0.10322335 2.67424e-06 3.6080789e-20)
(0.10322302 2.7928654e-06 0)
(0.10322166 2.7934348e-06 7.0208813e-26)
(0.10322334 3.0315776e-06 6.0935458e-20)
(0.10322319 3.0066212e-06 0)
(0.10325552 -6.8961804e-07 9.307255e-19)
(0.10322871 7.783676e-07 -9.5920428e-19)
(0.10323324 -3.4621014e-07 0)
(0.1032319 2.1607944e-07 6.7594204e-20)
(0.10323348 -1.4302527e-08 -3.5647836e-20)
(0.10323536 1.8022512e-07 2.4308543e-18)
(0.10323211 1.9057161e-07 -2.5380797e-18)
(0.10323217 1.6030278e-07 5.1970758e-18)
(0.10323594 2.4794909e-07 1.3534054e-26)
(0.10323502 2.9945035e-07 -5.5632496e-18)
(0.10323404 3.2013855e-07 -5.6878854e-18)
(0.10323543 3.5948037e-07 5.8708983e-18)
(0.10323565 4.1620521e-07 0)
(0.10323447 4.7352292e-07 0)
(0.1032342 5.2633068e-07 3.1691118e-18)
(0.10323679 5.6283064e-07 -3.1999403e-18)
(0.1032387 6.0760568e-07 -1.2908795e-20)
(0.10323885 6.6285333e-07 1.2944237e-26)
(0.10323716 7.0667384e-07 0)
(0.10323476 7.6080914e-07 1.3658951e-20)
(0.10323399 8.135592e-07 -3.5589186e-18)
(0.1032344 8.6601777e-07 3.6065867e-18)
(0.10323561 9.1191955e-07 1.8411888e-18)
(0.10323656 9.6458081e-07 -1.8720469e-18)
(0.10323707 1.0186629e-06 0)
(0.10323734 1.0633516e-06 0)
(0.10323748 1.0994535e-06 -9.5214619e-19)
(0.10323755 1.1684319e-06 1.0143569e-18)
(0.10323759 1.2626272e-06 0)
(0.1032376 1.3524884e-06 1.599864e-20)
(0.10323759 1.4450821e-06 -1.5885276e-20)
(0.10323756 1.5158316e-06 1.5630915e-20)
(0.10323748 1.563458e-06 9.8426822e-19)
(0.10323735 1.5824062e-06 9.8345609e-19)
(0.10323711 1.6276773e-06 1.4883369e-20)
(0.10323666 1.657987e-06 -1.8883697e-18)
(0.10323581 1.7329772e-06 -1.8281635e-18)
(0.10323456 1.756209e-06 -1.811451e-18)
(0.10323372 1.8320318e-06 3.5466637e-18)
(0.10323405 1.8095209e-06 1.3663652e-20)
(0.10323513 1.8925496e-06 -2.683269e-20)
(0.10323724 1.893766e-06 1.3165329e-20)
(0.10323771 1.9491763e-06 -1.2909548e-20)
(0.10323693 2.0012227e-06 -2.5295511e-20)
(0.1032348 1.9978033e-06 -1.2378394e-20)
(0.1032336 2.1022726e-06 -2.419973e-20)
(0.10323451 2.0775544e-06 0)
(0.1032353 2.1595296e-06 0)
(0.10323533 2.20499e-06 -5.7091382e-18)
(0.10323506 2.2358834e-06 -4.3455518e-20)
(0.10323506 2.3319412e-06 5.4262544e-18)
(0.1032352 2.3473764e-06 -4.0595908e-20)
(0.10323486 2.4597953e-06 3.9043702e-20)
(0.10323391 2.5366211e-06 2.4309484e-18)
(0.10323229 2.4856423e-06 -2.3175289e-18)
(0.10323415 2.744972e-06 -2.1631329e-18)
(0.1032305 2.3887286e-06 4.1377501e-18)
(0.10323417 3.2565445e-06 -8.9194501e-19)
(0.10323409 2.3058952e-06 -8.2476231e-19)
(0.10325217 -1.7192359e-06 -1.0634658e-19)
(0.10322535 8.1708514e-07 5.8455796e-20)
(0.10323888 1.1471906e-07 3.1277678e-20)
(0.10323034 7.2846576e-07 0)
(0.1032344 5.3853572e-07 0)
(0.10324087 8.521303e-07 2.3358697e-18)
(0.10322889 7.24154e-07 -2.4644457e-18)
(0.10323235 7.6936548e-07 5.1962278e-18)
(0.10324215 7.9147185e-07 -5.3512964e-18)
(0.1032367 8.2799362e-07 5.5580673e-18)
(0.10323448 7.7867289e-07 -5.7784486e-18)
(0.10324104 8.1561275e-07 -5.8999996e-18)
(0.10324013 7.557561e-07 3.0291392e-18)
(0.10323961 8.1949441e-07 6.2215193e-18)
(0.10323968 7.0058592e-07 -3.1770261e-18)
(0.10323936 7.7602929e-07 5.6559287e-26)
(0.10324491 7.1351847e-07 1.2944208e-20)
(0.10324378 7.6800286e-07 -3.3526668e-18)
(0.10323981 7.1603296e-07 6.8858746e-18)
(0.10323916 7.0788497e-07 -3.5329876e-18)
(0.1032394 6.5003645e-07 0)
(0.10323913 6.2286669e-07 1.4174875e-20)
(0.10324037 5.7957511e-07 0)
(0.1032419 5.4913187e-07 7.3263859e-21)
(0.10324262 5.0398648e-07 -7.4465653e-21)
(0.10324296 4.7185896e-07 0)
(0.10324318 4.3090022e-07 -2.3070757e-20)
(0.10324329 3.6565413e-07 0)
(0.10324336 2.9643066e-07 0)
(0.10324341 2.5769966e-07 0)
(0.10324342 2.390292e-07 0)
(0.10324338 2.1230088e-07 0)
(0.1032433 1.9072625e-07 2.3065653e-20)
(0.10324314 1.6274918e-07 7.5645187e-21)
(0.10324286 1.2133292e-07 0)
(0.10324226 9.2976509e-08 2.196137e-20)
(0.10324117 5.3488645e-08 -1.4399572e-20)
(0.10323859 2.0882411e-08 7.0794922e-21)
(0.1032395 5.0690717e-09 -6.9588834e-21)
(0.10323949 -5.8027793e-08 -1.367475e-20)
(0.10323987 -6.9165182e-08 3.4512211e-18)
(0.10324122 -9.4171829e-08 -6.7607043e-18)
(0.10324393 -9.2056977e-08 1.29229e-20)
(0.10324235 -1.0992575e-07 3.2536021e-18)
(0.10323765 -1.1289293e-07 1.2388404e-20)
(0.10323944 -9.6330507e-08 2.4212371e-20)
(0.10323908 -1.5004644e-07 0)
(0.103241 -1.3046108e-07 -5.8780312e-18)
(0.10324147 -1.3259482e-07 2.2357665e-20)
(0.10323997 -1.3407112e-07 5.591892e-18)
(0.10324031 -9.5602268e-08 2.0951796e-20)
(0.10324135 -7.6779204e-08 0)
(0.10324022 -1.7939395e-08 -2.4800458e-18)
(0.10324037 3.6625108e-08 2.3882951e-18)
(0.10323083 1.0312113e-07 0)
(0.10324079 2.0002572e-07 3.3254666e-20)
(0.10322926 3.2148591e-07 -2.0276041e-18)
(0.10324037 5.9589924e-07 1.7982861e-18)
(0.10324041 1.808495e-07 -1.0679372e-19)
(0.10320801 -1.8175246e-06 5.1688283e-20)
(0.10319086 -1.0783606e-06 1.7681773e-18)
(0.10320371 -8.2241647e-07 -1.9946407e-18)
(0.10319385 -9.914507e-07 2.1001341e-18)
(0.10320488 -3.8812473e-07 -4.4613438e-18)
(0.10320271 -8.4783758e-07 4.7080952e-18)
(0.10319174 -6.6469359e-07 -2.4603606e-18)
(0.10320541 -4.2066442e-07 5.1375177e-18)
(0.10320485 -4.7540609e-07 -1.0474228e-20)
(0.10319674 -5.1419998e-07 -5.5451561e-18)
(0.10320203 -4.5114713e-07 -5.7152843e-18)
(0.10319997 -4.7990285e-07 5.9150033e-18)
(0.10320305 -4.6738861e-07 0)
(0.10319687 -4.9899177e-07 -1.2158534e-20)
(0.10320031 -3.5483898e-07 6.2219714e-21)
(0.10320726 -3.2070045e-07 -1.2717225e-20)
(0.10320663 -3.2514252e-07 -3.3165432e-18)
(0.10320375 -3.8025308e-07 3.3750408e-18)
(0.10319952 -3.9443108e-07 -6.7414444e-21)
(0.10319836 -3.6767517e-07 3.527174e-18)
(0.10319637 -3.2233276e-07 -7.1483711e-18)
(0.10319911 -2.3281799e-07 5.4513556e-18)
(0.10320019 -1.4629724e-07 -1.8470149e-18)
(0.10320004 -6.9279476e-08 -3.6659012e-21)
(0.10320011 1.10886e-08 -1.8996121e-18)
(0.1032002 8.1920903e-08 1.9412575e-18)
(0.10320023 1.454714e-07 7.6885717e-21)
(0.10320028 2.1153582e-07 0)
(0.1032003 2.7288767e-07 0)
(0.10320031 3.3276361e-07 0)
(0.10320032 4.0368346e-07 0)
(0.10320032 4.7748667e-07 -1.0004246e-18)
(0.10320031 5.4377524e-07 9.7680813e-19)
(0.10320031 6.2397925e-07 -1.9414459e-18)
(0.10320027 7.0653328e-07 1.9030418e-18)
(0.10320026 7.7763046e-07 -3.6644655e-21)
(0.10320023 8.3884663e-07 0)
(0.1032007 9.2961622e-07 3.6312833e-18)
(0.10319685 1.0116081e-06 -3.5636712e-18)
(0.10319718 1.0815946e-06 0)
(0.10320102 1.1077233e-06 -3.4539388e-18)
(0.10320247 1.0883922e-06 3.3901881e-18)
(0.10320219 1.0323228e-06 -3.3116508e-18)
(0.10320429 9.7348295e-07 3.2314378e-18)
(0.10320401 9.4939127e-07 -3.1802967e-18)