/*--------------------------------*- C++ -*----------------------------------*\
| =========                 |                                                 |
| \\      /  F ield         | OpenFOAM: The Open Source CFD Toolbox           |
|  \\    /   O peration     | Version:  v2006                                 |
|   \\  /    A nd           | Website:  www.openfoam.com                      |
|    \\/     M anipulation  |                                                 |
\*---------------------------------------------------------------------------*/
FoamFile
{
    version     2.0;
    format      ascii;
    class       volVectorField;
    location    "9000";
    object      UMean;
}
// * * * * * * * * * * * * * * * * * * * * * * * * * * * * * * * * * * * * * //

dimensions      [0 1 -1 0 0 0 0];


internalField   nonuniform List<vector> 
55713
(
(0.10322021 6.5169157e-07 0)
(0.10311944 -3.27095e-07 0)
(0.10310073 8.7861731e-07 2.5660341e-18)
(0.10309821 6.8917248e-07 -2.5526529e-18)
(0.10309942 1.4282664e-06 2.5707725e-18)
(0.1031007 1.4364151e-06 1.5309689e-27)
(0.1031013 1.9061661e-06 -2.6462872e-18)
(0.10310133 2.0510862e-06 0)
(0.10310109 2.3663766e-06 1.0711301e-20)
(0.10310092 2.5931898e-06 0)
(0.10310096 2.8450614e-06 -1.1108109e-20)
(0.10310111 3.0841949e-06 -1.1312476e-20)
(0.10310118 3.3210164e-06 0)
(0.10310123 3.5505052e-06 3.0031605e-18)
(0.10310136 3.7731179e-06 -3.0577889e-18)
(0.10310161 3.9899049e-06 -6.0800548e-21)
(0.10310186 4.2022828e-06 3.1748968e-18)
(0.10310199 4.409461e-06 -3.224892e-18)
(0.103102 4.6121376e-06 6.4091842e-21)
(0.10310199 4.8099341e-06 -3.3385134e-18)
(0.10310207 5.0019532e-06 3.3892476e-18)
(0.10310228 5.189001e-06 0)
(0.10310257 5.3732508e-06 0)
(0.10310287 5.5557686e-06 -1.7918615e-18)
(0.10310313 5.7367958e-06 1.8140959e-18)
(0.10310333 5.9168498e-06 0)
(0.10310349 6.0963899e-06 0)
(0.10310359 6.2760474e-06 0)
(0.10310366 6.4556458e-06 2.4137135e-19)
(0.10310367 6.635558e-06 -8.5189072e-29)
(0.10310362 6.8151735e-06 -2.4400963e-19)
(0.10310347 6.9948878e-06 0)
(0.10310323 7.1761145e-06 0)
(0.10310286 7.3585473e-06 0)
(0.10310242 7.5425749e-06 0)
(0.10310202 7.7278006e-06 1.8046687e-18)
(0.10310179 7.9148526e-06 -1.7683024e-18)
(0.10310185 8.1048637e-06 -3.4918218e-18)
(0.10310214 8.2984036e-06 1.9651463e-27)
(0.10310243 8.4953271e-06 3.3687524e-18)
(0.10310251 8.6954918e-06 0)
(0.10310231 8.8988101e-06 6.3676523e-21)
(0.10310197 9.1063838e-06 -3.2032903e-18)
(0.10310171 9.3170519e-06 3.1467862e-18)
(0.10310166 9.5338711e-06 3.0907783e-18)
(0.10310176 9.7540308e-06 -3.0412599e-18)
(0.10310187 9.983755e-06 0)
(0.10310189 1.0214897e-05 0)
(0.1031018 1.0461688e-05 -2.8621396e-18)
(0.10310162 1.0702905e-05 2.821315e-18)
(0.10310141 1.0975331e-05 0)
(0.10310122 1.1223503e-05 0)
(0.10310107 1.1534113e-05 0)
(0.10310087 1.1785902e-05 0)
(0.1031006 1.214961e-05 2.5884084e-18)
(0.10310047 1.2407794e-05 -3.7477554e-27)
(0.10310072 1.2813481e-05 -3.7791039e-18)
(0.10310102 1.3196168e-05 1.227925e-18)
(0.10310087 1.3320465e-05 -1.9267985e-20)
(0.10322609 1.0678497e-06 0)
(0.1031346 -2.5757356e-07 2.4227832e-18)
(0.10312005 1.0178759e-06 -2.5053402e-18)
(0.10311867 6.6934968e-07 3.9166189e-20)
(0.10312012 1.3118744e-06 -2.5377816e-18)
(0.10312129 1.2904678e-06 5.1424151e-18)
(0.10312173 1.756313e-06 3.7381921e-27)
(0.10312163 1.8514906e-06 -2.6839584e-18)
(0.10312133 2.1644941e-06 -1.0693738e-20)
(0.10312119 2.34933e-06 2.1811009e-20)
(0.1031213 2.5684862e-06 -2.8354411e-18)
(0.10312145 2.7696495e-06 2.9131843e-18)
(0.10312149 2.9699853e-06 2.9576267e-18)
(0.10312151 3.1628603e-06 2.6479458e-27)
(0.10312167 3.3508236e-06 2.5018112e-27)
(0.10312195 3.5347859e-06 -3.1212357e-18)
(0.1031222 3.715374e-06 -6.219901e-21)
(0.10312228 3.8923803e-06 0)
(0.10312224 4.0663966e-06 3.2935383e-18)
(0.10312222 4.2369412e-06 -6.7162409e-18)
(0.10312231 4.4049285e-06 3.4232079e-18)
(0.10312254 4.570984e-06 1.3575048e-20)
(0.10312284 4.7352494e-06 0)
(0.10312313 4.8980279e-06 7.0181585e-21)
(0.10312337 5.0597209e-06 0)
(0.10312356 5.2205524e-06 9.1351749e-19)
(0.10312369 5.3801678e-06 -1.8857784e-18)
(0.10312378 5.5393888e-06 9.4277806e-19)
(0.10312384 5.6979201e-06 2.4313581e-19)
(0.10312384 5.856669e-06 -2.6154201e-19)
(0.10312379 6.0144098e-06 0)
(0.10312365 6.1712676e-06 9.5181646e-19)
(0.10312341 6.3299952e-06 -1.903911e-18)
(0.10312305 6.4893266e-06 9.3696124e-19)
(0.10312259 6.6485358e-06 0)
(0.10312214 6.8070914e-06 1.8139988e-18)
(0.10312187 6.968626e-06 -1.791103e-18)
(0.10312189 7.1359836e-06 1.3705958e-20)
(0.10312217 7.3075495e-06 0)
(0.10312252 7.4797395e-06 6.6217676e-21)
(0.10312266 7.6524438e-06 3.3315368e-18)
(0.10312249 7.82589e-06 -6.5524095e-18)
(0.10312211 8.0058603e-06 -4.8151825e-28)
(0.10312178 8.1887422e-06 3.1568006e-18)
(0.10312166 8.3817434e-06 -3.0991379e-18)
(0.10312176 8.5730443e-06 6.0895353e-18)
(0.10312189 8.7790494e-06 -5.9696433e-18)
(0.10312193 8.9750264e-06 2.9282626e-18)
(0.10312184 9.1987156e-06 -1.1219503e-20)
(0.10312165 9.3976014e-06 0)
(0.10312142 9.6593012e-06 0)
(0.1031212 9.8554529e-06 0)
(0.10312103 1.0174767e-05 -2.6759971e-18)
(0.10312084 1.0360833e-05 2.6241882e-18)
(0.10312054 1.0745974e-05 0)
(0.1031203 1.0926402e-05 3.9168364e-20)
(0.10312052 1.136337e-05 0)
(0.10312085 1.1568443e-05 1.8917024e-20)
(0.10312067 1.1967702e-05 1.8550032e-20)
(0.10323114 1.2249048e-06 0)
(0.10314923 -2.6134365e-07 3.7326747e-20)
(0.10313698 9.7500968e-07 -3.7940179e-20)
(0.1031366 6.0582708e-07 -3.8477002e-20)
(0.10313821 1.168972e-06 -2.5452283e-18)
(0.10313925 1.1643801e-06 2.5792453e-18)
(0.10313954 1.5555273e-06 0)
(0.10313932 1.6582969e-06 2.0896292e-20)
(0.10313898 1.9279822e-06 -5.4659851e-18)
(0.10313891 2.094899e-06 5.5387144e-18)
(0.1031391 2.2964534e-06 0)
(0.10313924 2.4716669e-06 -2.2715374e-20)
(0.10313923 2.64882e-06 0)
(0.10313924 2.8150723e-06 3.0006844e-18)
(0.10313946 2.9763879e-06 -6.1656149e-18)
(0.10313978 3.1326695e-06 3.1413953e-18)
(0.10314001 3.2870659e-06 -3.1875988e-18)
(0.10314004 3.4390149e-06 -3.6259371e-27)
(0.10313995 3.5883256e-06 3.3179473e-18)
(0.10313992 3.7338205e-06 -3.3771302e-18)
(0.10314005 3.8768118e-06 -3.3923314e-27)
(0.1031403 4.0181853e-06 3.496085e-18)
(0.10314061 4.1578399e-06 0)
(0.10314089 4.2963121e-06 1.7938042e-18)
(0.10314111 4.4343693e-06 1.5943556e-27)
(0.10314128 4.5711028e-06 -1.8389618e-18)
(0.10314141 4.7063883e-06 -1.4830645e-20)
(0.10314149 4.8423466e-06 4.9718528e-19)
(0.10314153 4.9771848e-06 -4.8963529e-19)
(0.10314153 5.1118631e-06 2.4772965e-19)
(0.10314148 5.2460042e-06 -2.4685874e-19)
(0.10314135 5.3781063e-06 3.0384284e-20)
(0.10314112 5.5111753e-06 0)
(0.10314077 5.6449714e-06 1.4717269e-20)
(0.10314031 5.7804186e-06 -1.4479855e-20)
(0.10313982 5.9155405e-06 -1.424285e-20)
(0.10313948 6.0529595e-06 -1.4006422e-20)
(0.10313945 6.1942861e-06 -1.3770693e-20)
(0.10313973 6.3391323e-06 3.4515898e-18)
(0.10314014 6.4841248e-06 -3.4051446e-18)
(0.10314036 6.6333359e-06 0)
(0.10314023 6.7812471e-06 3.2857199e-18)
(0.10313982 6.9374075e-06 -3.2136374e-18)
(0.10313941 7.0909778e-06 3.1916204e-18)
(0.10313922 7.2606817e-06 -3.1076127e-18)
(0.1031393 7.4190383e-06 -3.0246059e-18)
(0.10313946 7.6071026e-06 -2.1736857e-27)
(0.10313952 7.7664029e-06 2.907359e-18)
(0.10313944 7.9782167e-06 2.2431802e-20)
(0.10313926 8.132151e-06 0)
(0.10313901 8.393369e-06 0)
(0.10313875 8.5240329e-06 0)
(0.10313857 8.8567732e-06 2.0598897e-20)
(0.1031384 8.954118e-06 -2.0145297e-20)
(0.10313808 9.3557488e-06 0)
(0.10313773 9.4456036e-06 2.46384e-18)
(0.10313791 9.8949382e-06 -2.4073855e-18)
(0.10313831 1.0005215e-05 0)
(0.10313809 1.0503012e-05 0)
(0.1032351 1.2542033e-06 6.8440167e-20)
(0.1031612 -2.5084995e-07 -7.2500361e-20)
(0.10315183 8.7174249e-07 -2.3355977e-18)
(0.10315226 5.5297937e-07 2.4200505e-18)
(0.10315392 1.022117e-06 3.8677745e-20)
(0.1031548 1.0389047e-06 0)
(0.10315495 1.366258e-06 -2.6017276e-18)
(0.10315462 1.4642686e-06 7.9755207e-18)
(0.10315427 1.695286e-06 -1.0913194e-17)
(0.1031543 1.8415693e-06 5.6026209e-18)
(0.10315457 2.0176791e-06 -2.8519797e-18)
(0.10315467 2.1702605e-06 2.2759033e-20)
(0.10315459 2.3242092e-06 5.9480051e-18)
(0.10315463 2.4680892e-06 -3.0108669e-18)
(0.10315492 2.6082656e-06 0)
(0.10315527 2.7445421e-06 0)
(0.10315547 2.8782294e-06 -1.2559417e-20)
(0.10315543 3.0085544e-06 0)
(0.10315531 3.1363833e-06 0)
(0.10315529 3.261713e-06 2.6527106e-20)
(0.10315545 3.385547e-06 -1.3498856e-20)
(0.10315574 3.508143e-06 -2.7469431e-20)
(0.10315605 3.6292082e-06 -1.7883152e-18)
(0.10315632 3.7488963e-06 1.8328843e-18)
(0.10315653 3.8674625e-06 1.4446253e-20)
(0.10315668 3.9854591e-06 -1.4684683e-20)
(0.10315679 4.1039201e-06 9.7002178e-19)
(0.10315687 4.222655e-06 -9.7037732e-19)
(0.10315691 4.3407846e-06 1.5400376e-20)
(0.1031569 4.4570237e-06 -2.336448e-19)
(0.10315685 4.5710253e-06 -2.4819466e-19)
(0.10315673 4.6829848e-06 4.7343926e-19)
(0.10315652 4.7959179e-06 0)
(0.10315619 4.9093037e-06 -1.9080634e-18)
(0.10315572 5.0239861e-06 1.455092e-20)
(0.1031552 5.1377456e-06 3.6922685e-18)
(0.10315479 5.2543952e-06 -1.7871336e-18)
(0.1031547 5.3717373e-06 0)
(0.10315497 5.4940264e-06 1.3595327e-20)
(0.10315543 5.6146447e-06 0)
(0.10315575 5.744812e-06 0)
(0.10315568 5.8699673e-06 2.5767516e-20)
(0.10315527 6.0097729e-06 -1.2646907e-20)
(0.10315477 6.1355176e-06 -3.2017329e-18)
(0.1031545 6.2881534e-06 3.1161035e-18)
(0.10315455 6.4116638e-06 -3.4764559e-26)
(0.10315474 6.5855702e-06 2.3389793e-20)
(0.10315483 6.7076888e-06 3.3359432e-26)
(0.10315477 6.9098549e-06 -2.2426097e-20)
(0.1031546 7.0221713e-06 -5.59464e-18)
(0.10315434 7.2663278e-06 5.4911467e-18)
(0.10315405 7.3640633e-06 4.1911375e-20)
(0.10315384 7.6549302e-06 -2.6593956e-18)
(0.1031537 7.7484412e-06 5.1078822e-18)
(0.10315339 8.0862159e-06 -5.0160755e-18)
(0.10315292 8.1843274e-06 2.4222817e-18)
(0.10315304 8.603516e-06 -7.3585725e-20)
(0.10315352 8.6471986e-06 0)
(0.10315329 9.2660557e-06 0)
(0.10323812 1.1439422e-06 -6.6144844e-20)
(0.10317211 -1.946051e-07 7.0449004e-20)
(0.10316482 7.397532e-07 -2.3193935e-18)
(0.1031659 5.0709989e-07 2.3048467e-18)
(0.10316755 8.7898489e-07 -2.4456188e-18)
(0.10316826 9.2891614e-07 2.5557045e-18)
(0.10316829 1.1959117e-06 2.5466093e-18)
(0.10316786 1.2893922e-06 -2.6560997e-18)
(0.10316752 1.487761e-06 5.4044495e-18)
(0.10316769 1.6140567e-06 -1.1114589e-17)
(0.10316803 1.7684872e-06 5.709005e-18)
(0.10316804 1.8998383e-06 -2.2801429e-20)
(0.1031679 2.0327033e-06 -2.981913e-18)
(0.103168 2.1558458e-06 6.0891901e-18)
(0.10316838 2.2758589e-06 -3.1067421e-18)
(0.10316875 2.3923821e-06 -3.1684625e-18)
(0.1031689 2.5065457e-06 2.5233295e-20)
(0.10316878 2.6176554e-06 3.265332e-18)
(0.10316863 2.7265291e-06 -2.6188143e-20)
(0.10316864 2.8334257e-06 -5.3329127e-20)
(0.10316885 2.9390738e-06 1.3570529e-20)
(0.10316917 3.0435999e-06 1.3809056e-20)
(0.10316948 3.1466567e-06 0)
(0.10316974 3.2484306e-06 -1.8288236e-18)
(0.10316993 3.3490973e-06 -1.4527989e-20)
(0.10317008 3.4493968e-06 1.9051871e-18)
(0.10317018 3.5506975e-06 0)
(0.10317024 3.6521122e-06 0)
(0.10317028 3.753332e-06 -3.0986288e-20)
(0.10317027 3.8528449e-06 2.3495424e-19)
(0.10317023 3.9501657e-06 -2.4944968e-19)
(0.10317012 4.0454631e-06 0)
(0.10316993 4.1422678e-06 0)
(0.10316961 4.2389758e-06 -1.9021891e-18)
(0.10316916 4.3393052e-06 3.7422218e-18)
(0.10316861 4.43666e-06 -1.8544842e-18)
(0.10316813 4.5370739e-06 -1.7809172e-18)
(0.10316795 4.6315809e-06 1.778335e-18)
(0.1031682 4.7338711e-06 0)
(0.10316871 4.8303844e-06 0)
(0.10316914 4.9458807e-06 -3.3983778e-18)
(0.10316917 5.0496332e-06 3.2845978e-18)
(0.10316876 5.1767672e-06 2.538084e-20)
(0.10316819 5.2765653e-06 -3.1868037e-18)
(0.1031678 5.4142187e-06 6.2246311e-18)
(0.10316781 5.510911e-06 -3.0857143e-18)
(0.10316803 5.66843e-06 -3.0219512e-18)
(0.10316816 5.7663138e-06 5.8692127e-18)
(0.10316813 5.9465705e-06 -2.869918e-18)
(0.10316797 6.042551e-06 -6.5726647e-20)
(0.10316772 6.2509834e-06 0)
(0.10316741 6.3466505e-06 -4.1716977e-20)
(0.10316714 6.5862771e-06 2.6006616e-18)
(0.10316702 6.6872982e-06 -5.0596213e-18)
(0.10316677 6.9641175e-06 2.5338305e-18)
(0.10316616 7.072815e-06 3.7218691e-20)
(0.10316622 7.4453342e-06 1.4400909e-19)
(0.1031668 7.4696286e-06 6.9462499e-20)
(0.10316655 8.1230333e-06 6.6611677e-20)
(0.10324019 9.4195266e-07 -1.0236376e-18)
(0.1031812 -1.1852635e-07 -1.0958919e-18)
(0.10317612 5.8784241e-07 2.3392396e-18)
(0.1031777 4.7515727e-07 -2.2669055e-18)
(0.10317928 7.565424e-07 -6.6117611e-27)
(0.10317979 8.2468246e-07 2.4564452e-18)
(0.10317972 1.0367967e-06 4.0193367e-20)
(0.10317918 1.1263564e-06 5.2933839e-18)
(0.10317889 1.2928007e-06 4.2478448e-20)
(0.10317926 1.400627e-06 -5.6207224e-18)
(0.10317963 1.5344853e-06 5.6691679e-18)
(0.10317949 1.6474526e-06 -5.824882e-18)
(0.10317931 1.7602541e-06 -2.9896279e-18)
(0.10317953 1.8660898e-06 3.0543652e-18)
(0.10317999 1.9677527e-06 2.4361248e-20)
(0.10318038 2.0676659e-06 0)
(0.10318043 2.1644553e-06 -2.5344023e-20)
(0.10318023 2.2587494e-06 3.3320622e-18)
(0.10318007 2.3505176e-06 -6.7099456e-18)
(0.10318014 2.4409305e-06 2.4996088e-26)
(0.1031804 2.530024e-06 2.7276946e-20)
(0.10318074 2.6181631e-06 3.5530723e-18)
(0.10318105 2.7050549e-06 -1.8073872e-18)
(0.10318129 2.7908193e-06 1.8383079e-18)
(0.10318148 2.8760946e-06 1.8693157e-18)
(0.10318161 2.9618002e-06 -1.9152625e-18)
(0.1031817 3.0475092e-06 9.6579829e-19)
(0.10318176 3.1335137e-06 -9.8141519e-19)
(0.10318179 3.2191073e-06 -2.336797e-19)
(0.10318179 3.3023811e-06 1.5744018e-20)
(0.10318174 3.3839922e-06 2.5060463e-19)
(0.10318165 3.4637137e-06 0)
(0.10318148 3.5457814e-06 -1.5170785e-20)
(0.10318119 3.6257096e-06 0)
(0.10318075 3.7113148e-06 -1.4680312e-20)
(0.10318018 3.7910349e-06 -1.847825e-18)
(0.10317963 3.8784417e-06 -2.838526e-20)
(0.10317935 3.9530985e-06 5.3566587e-18)
(0.10317954 4.0435811e-06 -7.0179469e-18)
(0.10318011 4.1212069e-06 -2.6928439e-20)
(0.10318067 4.2250075e-06 6.8221392e-18)
(0.10318081 4.3070258e-06 -3.3222351e-18)
(0.10318044 4.421549e-06 3.2086202e-18)
(0.1031798 4.5020694e-06 -3.2214148e-18)
(0.10317927 4.6263421e-06 2.4474761e-20)
(0.10317921 4.7060679e-06 0)
(0.10317948 4.8434494e-06 0)
(0.10317965 4.9287073e-06 4.5887952e-20)
(0.10317964 5.0819199e-06 5.7386894e-18)
(0.10317951 5.1713581e-06 -5.5571833e-18)
(0.10317926 5.3434439e-06 -4.265592e-20)
(0.10317894 5.4397815e-06 2.657632e-18)
(0.10317861 5.634347e-06 -5.1259076e-18)
(0.10317849 5.7396157e-06 -4.0883499e-27)
(0.10317835 5.9664288e-06 2.3883264e-18)
(0.1031776 6.0821669e-06 -8.0171831e-26)
(0.10317757 6.3876268e-06 -2.2554502e-18)
(0.10317825 6.4258849e-06 2.0954076e-18)
(0.10317801 7.0144629e-06 -6.438123e-20)
(0.10324167 6.9861807e-07 0)
(0.10318948 -4.364571e-08 6.6627817e-20)
(0.10318617 4.3831213e-07 -6.7859638e-26)
(0.10318808 4.1615854e-07 0)
(0.10318954 6.1572665e-07 -2.4633527e-18)
(0.10318987 7.2263628e-07 2.5134141e-18)
(0.10318972 8.7320736e-07 0)
(0.10318905 9.7205137e-07 4.1206371e-20)
(0.10318888 1.0998377e-06 0)
(0.10318949 1.2009308e-06 5.6185173e-18)
(0.10318981 1.3125169e-06 -5.6736295e-18)
(0.10318945 1.4126249e-06 2.9289506e-18)
(0.10318932 1.5051316e-06 4.7900378e-27)
(0.10318969 1.597761e-06 -3.063832e-18)
(0.10319023 1.6824035e-06 -3.153809e-18)
(0.10319059 1.7685684e-06 3.1938945e-18)
(0.10319054 1.849482e-06 0)
(0.10319024 1.9301515e-06 2.5943179e-20)
(0.1031901 2.0071367e-06 -2.6432437e-20)
(0.10319024 2.0846735e-06 2.6498801e-26)
(0.10319056 2.1599474e-06 -2.7404305e-20)
(0.10319092 2.2352466e-06 0)
(0.10319122 2.308285e-06 0)
(0.10319145 2.3814791e-06 0)
(0.10319161 2.4535237e-06 0)
(0.10319173 2.5261058e-06 0)
(0.10319182 2.5984314e-06 -9.5529137e-19)
(0.10319187 2.6706976e-06 5.0850947e-19)
(0.1031919 2.7418689e-06 5.0098437e-19)
(0.1031919 2.8114934e-06 2.3724631e-19)
(0.10319186 2.8797969e-06 -7.5493148e-19)
(0.10319178 2.9464471e-06 5.1081172e-19)
(0.10319163 3.0161812e-06 1.523096e-20)
(0.10319137 3.0823687e-06 0)
(0.10319096 3.1545939e-06 1.4736953e-20)
(0.10319038 3.2181486e-06 0)
(0.10318976 3.293436e-06 0)
(0.10318936 3.352115e-06 3.6124992e-18)
(0.10318946 3.4364117e-06 -7.0164045e-18)
(0.10319007 3.4980088e-06 6.9457419e-18)
(0.10319076 3.5893267e-06 -6.8462233e-18)
(0.10319106 3.6562397e-06 6.6669739e-18)
(0.10319076 3.7533771e-06 -3.2443969e-18)
(0.10319007 3.823278e-06 2.5045137e-20)
(0.10318939 3.9257555e-06 3.1653383e-18)
(0.10318918 3.9982555e-06 -3.0748187e-18)
(0.10318951 4.108261e-06 2.3497108e-20)
(0.10318976 4.1879132e-06 -2.2961229e-20)
(0.10318976 4.3100512e-06 5.7376012e-18)
(0.10318965 4.3963819e-06 -1.1142995e-17)
(0.10318941 4.5318586e-06 5.4872651e-18)
(0.10318911 4.6265851e-06 4.1336813e-20)
(0.10318872 4.7816793e-06 0)
(0.10318853 4.8863648e-06 -2.5217093e-18)
(0.10318858 5.0649113e-06 2.3961337e-18)
(0.10318768 5.1846271e-06 -7.2029701e-20)
(0.10318752 5.4337718e-06 2.1395487e-18)
(0.10318833 5.5022226e-06 -2.0402289e-18)
(0.10318809 5.9921588e-06 1.2456179e-19)
(0.10324262 3.8825426e-07 0)
(0.10319647 3.1200935e-08 -2.2047502e-18)
(0.103195 3.0603157e-07 -6.7884086e-20)
(0.10319704 4.1258573e-07 4.6021843e-18)
(0.10319836 5.3283354e-07 7.3785726e-20)
(0.10319852 6.4572912e-07 -4.9851896e-18)
(0.1031983 7.5474168e-07 2.543068e-18)
(0.10319749 8.57463e-07 5.1731773e-18)
(0.10319755 9.4873888e-07 -5.3747382e-18)
(0.10319842 1.0447557e-06 -3.0459473e-26)
(0.10319858 1.1277152e-06 4.4706644e-20)
(0.10319794 1.2176351e-06 -2.2920488e-20)
(0.103198 1.2870754e-06 0)
(0.10319855 1.3705453e-06 2.4007465e-20)
(0.10319913 1.4368311e-06 3.1645848e-18)
(0.10319945 1.513236e-06 -3.2058468e-18)
(0.10319924 1.5777121e-06 3.2450242e-18)
(0.10319886 1.6467183e-06 -3.3344492e-18)
(0.10319878 1.7072248e-06 1.866866e-26)
(0.10319902 1.7737496e-06 -3.4333555e-18)
(0.1031994 1.833442e-06 7.0181139e-18)
(0.10319976 1.8969802e-06 -3.5851022e-18)
(0.10320004 1.9553338e-06 0)
(0.10320026 2.0172939e-06 1.4491262e-20)
(0.10320042 2.0764011e-06 -1.9009077e-18)
(0.10320053 2.1382164e-06 1.9026077e-18)
(0.1032006 2.1980718e-06 -1.5227699e-20)
(0.10320066 2.2585237e-06 4.7973242e-19)
(0.10320068 2.3173558e-06 -5.0315356e-19)
(0.10320068 2.374124e-06 1.587965e-20)
(0.10320065 2.4292579e-06 5.050886e-19)
(0.10320058 2.4831937e-06 -5.1259594e-19)
(0.10320046 2.538864e-06 -1.5283247e-20)
(0.10320023 2.5914565e-06 0)
(0.10319986 2.6529756e-06 0)
(0.10319929 2.7051619e-06 -1.8756808e-18)
(0.1031986 2.7714694e-06 1.829687e-18)
(0.10319806 2.8256349e-06 -2.8098372e-20)
(0.10319804 2.8929018e-06 -2.7607887e-20)
(0.10319866 2.9494249e-06 0)
(0.1031995 3.0222129e-06 2.6622577e-20)
(0.1032 3.0824237e-06 -3.3179169e-18)
(0.10319978 3.1631576e-06 3.2541463e-18)
(0.1031991 3.2247958e-06 -3.2146603e-18)
(0.10319826 3.3114744e-06 3.1238925e-18)
(0.1031978 3.3747755e-06 2.4070405e-20)
(0.10319822 3.4654832e-06 -2.3531052e-20)
(0.10319857 3.5406176e-06 0)
(0.10319857 3.6397176e-06 0)
(0.1031985 3.7212797e-06 -4.3638466e-20)
(0.10319827 3.8319689e-06 0)
(0.103198 3.9235941e-06 -4.114978e-20)
(0.10319757 4.0459688e-06 0)
(0.10319724 4.1523629e-06 2.536936e-18)
(0.10319753 4.2900304e-06 -2.2927101e-18)
(0.10319651 4.4185545e-06 7.0876412e-20)
(0.10319616 4.5851955e-06 -2.1633739e-18)
(0.10319715 4.6792232e-06 3.0775832e-18)
(0.10319692 5.0168129e-06 -1.085411e-18)
(0.10324148 1.3088945e-07 1.1630441e-19)
(0.10320084 9.5622921e-08 -2.020595e-18)
(0.10320145 1.6437456e-07 -2.494004e-27)
(0.10320333 3.388576e-07 2.1607231e-18)
(0.10320456 3.7292368e-07 0)
(0.10320463 5.3866419e-07 3.803005e-20)
(0.10320425 5.8098229e-07 -3.9506778e-20)
(0.10320329 7.0022805e-07 5.2770129e-18)
(0.10320378 7.4128217e-07 -1.0813445e-17)
(0.10320487 8.4999353e-07 -4.3514224e-20)
(0.10320469 9.0030576e-07 5.6815993e-18)
(0.10320377 9.8584976e-07 2.9614762e-18)
(0.10320421 1.0309352e-06 -3.0112678e-18)
(0.10320493 1.1090299e-06 -2.4076299e-20)
(0.1032055 1.1549583e-06 -2.461201e-20)
(0.10320575 1.22534e-06 0)
(0.10320532 1.2706344e-06 2.5647451e-20)
(0.1032049 1.3353998e-06 -2.6151339e-20)
(0.10320493 1.3801138e-06 2.6648469e-20)
(0.10320529 1.4412456e-06 0)
(0.1032057 1.486051e-06 3.5642077e-18)
(0.10320605 1.5439582e-06 -5.3983977e-18)
(0.10320633 1.5880047e-06 1.8163145e-18)
(0.10320653 1.6433259e-06 1.8472684e-18)
(0.10320667 1.686765e-06 -1.8635383e-18)
(0.10320678 1.7365529e-06 -9.4725104e-19)
(0.10320685 1.7802905e-06 9.7810259e-19)
(0.1032069 1.8270271e-06 0)
(0.10320693 1.8740934e-06 -2.5249833e-19)
(0.10320693 1.9213277e-06 2.5491758e-19)
(0.1032069 1.9707811e-06 4.9072647e-19)
(0.10320685 2.0188446e-06 -1.5109991e-18)
(0.10320674 2.0686191e-06 9.961967e-19)
(0.10320655 2.1191647e-06 1.5076438e-20)
(0.10320622 2.1634809e-06 -1.9128506e-18)
(0.10320568 2.2122594e-06 1.8810109e-18)
(0.10320495 2.2588678e-06 0)
(0.10320425 2.3046446e-06 -3.6071067e-18)
(0.10320404 2.354654e-06 3.54426e-18)
(0.10320466 2.3991133e-06 0)
(0.10320562 2.4524401e-06 0)
(0.10320639 2.5045308e-06 -2.6200901e-20)
(0.10320626 2.5597564e-06 2.5694254e-20)
(0.10320564 2.6184471e-06 0)
(0.10320468 2.6732355e-06 0)
(0.10320382 2.7399532e-06 -2.4115936e-20)
(0.10320435 2.7921977e-06 0)
(0.10320484 2.8660783e-06 0)
(0.10320484 2.9332356e-06 5.7348749e-18)
(0.10320481 3.014249e-06 -5.5779024e-18)
(0.10320457 3.0906965e-06 0)
(0.10320436 3.1786413e-06 4.0963128e-20)
(0.10320394 3.2805602e-06 -3.9561386e-20)
(0.10320335 3.3753518e-06 -2.4755902e-18)
(0.10320387 3.488669e-06 2.2647076e-18)
(0.10320288 3.5953685e-06 -6.9753044e-20)
(0.10320216 3.7414123e-06 2.0534948e-18)
(0.10320344 3.8281781e-06 -2.1248095e-18)
(0.10320324 4.0820279e-06 0)
(0.10323929 -1.2667199e-07 -1.1281935e-19)
(0.10320462 2.2554545e-07 2.0300188e-18)
(0.10320754 -2.3434759e-08 -2.0838195e-18)
(0.10320866 5.0371767e-07 -6.8634927e-20)
(0.10320994 2.9538292e-07 3.6058547e-20)
(0.10321025 4.7026012e-07 0)
(0.10320923 4.8167026e-07 3.9279227e-20)
(0.1032083 5.7578824e-07 0)
(0.10320962 6.2713031e-07 5.3541238e-18)
(0.10321067 7.1663587e-07 7.7780326e-27)
(0.10320996 7.4838985e-07 -5.7523248e-18)
(0.10320889 8.2429119e-07 2.2992219e-20)
(0.10320988 8.5179546e-07 0)
(0.10321072 9.2646608e-07 0)
(0.10321123 9.5634674e-07 3.1600981e-18)
(0.10321136 1.0263989e-06 -3.2532576e-18)
(0.10321068 1.0557872e-06 0)
(0.10321028 1.1136761e-06 -1.3122088e-20)
(0.10321047 1.1357246e-06 0)
(0.10321093 1.1919131e-06 0)
(0.10321137 1.2147697e-06 0)
(0.1032117 1.2650309e-06 -1.8054147e-18)
(0.10321195 1.2886624e-06 1.8508041e-18)
(0.10321213 1.3385543e-06 0)
(0.10321226 1.3708153e-06 -1.4833926e-20)
(0.10321236 1.4210512e-06 0)
(0.10321242 1.4603212e-06 -1.5325954e-20)
(0.10321246 1.5046708e-06 -5.1396532e-19)
(0.10321249 1.545279e-06 5.0640736e-19)
(0.10321248 1.5855047e-06 -1.5973029e-20)
(0.10321245 1.6242798e-06 5.3943886e-19)
(0.10321241 1.6620613e-06 -1.4987574e-18)
(0.10321231 1.7011325e-06 9.6769445e-19)
(0.10321215 1.7394997e-06 -3.0220881e-20)
(0.10321186 1.7832152e-06 1.6998788e-26)
(0.10321136 1.8272655e-06 0)
(0.10321059 1.8713029e-06 0)
(0.1032097 1.9213027e-06 0)
(0.10320927 1.9618104e-06 1.3881512e-20)
(0.10320985 2.0137893e-06 -3.4906824e-18)
(0.10321085 2.0594354e-06 6.8677569e-18)
(0.10321197 2.1105197e-06 5.0673215e-27)
(0.10321197 2.1659248e-06 -6.5953377e-18)
(0.10321143 2.2179909e-06 3.2563435e-18)
(0.10321038 2.2727428e-06 0)
(0.10320897 2.3290352e-06 0)
(0.10320959 2.374706e-06 0)
(0.10321028 2.4459625e-06 5.8903098e-18)
(0.10321031 2.5014505e-06 -5.7563864e-18)
(0.10321027 2.5718032e-06 2.1760897e-20)
(0.10321001 2.636894e-06 -4.2186384e-20)
(0.1032099 2.7033164e-06 -4.6704979e-26)
(0.10320953 2.7875199e-06 4.5022976e-26)
(0.10320863 2.8655434e-06 -3.7743838e-20)
(0.103209 2.9372072e-06 3.6089703e-20)
(0.10320851 3.0321684e-06 0)
(0.10320693 3.0581494e-06 7.4477929e-26)
(0.10320889 3.2909504e-06 6.09502e-20)
(0.10320868 3.28151e-06 0)
(0.10324384 -7.7743406e-07 9.3082166e-19)
(0.10321446 8.6056036e-07 -9.5932673e-19)
(0.10321957 -3.8546053e-07 0)
(0.10321799 2.1271129e-07 6.7603288e-20)
(0.10321972 -2.3383718e-08 -3.5652507e-20)
(0.10322176 1.7450356e-07 2.4311585e-18)
(0.10321819 1.7444808e-07 -2.5383975e-18)
(0.1032182 1.6706963e-07 5.1977114e-18)
(0.10322148 2.4220238e-07 1.4992927e-26)
(0.10322158 3.035525e-07 -5.563833e-18)
(0.10322035 3.5887931e-07 -5.6883884e-18)
(0.10321978 4.1234543e-07 5.8714428e-18)
(0.1032209 4.6168684e-07 0)
(0.10322221 5.1087059e-07 0)
(0.10322262 5.7017371e-07 3.1693039e-18)
(0.10322234 6.2285875e-07 -3.2001573e-18)
(0.10322165 6.7414795e-07 -1.2909828e-20)
(0.10322146 7.4158978e-07 1.4034154e-26)
(0.10322173 7.9490722e-07 0)
(0.10322228 8.552545e-07 1.3659403e-20)
(0.10322279 9.1165405e-07 -3.5589925e-18)
(0.10322313 9.9058077e-07 3.60663e-18)
(0.10322337 1.0529137e-06 1.8412015e-18)
(0.10322356 1.1320967e-06 -1.8720527e-18)
(0.10322369 1.1954652e-06 0)
(0.10322379 1.2702223e-06 0)
(0.10322385 1.3283721e-06 -9.5213584e-19)
(0.1032239 1.3930399e-06 1.0143405e-18)
(0.10322393 1.4482747e-06 0)
(0.10322393 1.5120218e-06 1.5999959e-20)
(0.10322391 1.5612507e-06 -1.5888303e-20)
(0.10322387 1.6235441e-06 1.5633927e-20)
(0.10322378 1.6737487e-06 9.8445996e-19)
(0.10322364 1.7402153e-06 9.8365e-19)
(0.10322338 1.7922965e-06 1.4886338e-20)
(0.1032229 1.8584117e-06 -1.8887503e-18)
(0.10322205 1.8977292e-06 -1.8285349e-18)
(0.10322093 1.928741e-06 -1.8118216e-18)
(0.10322044 1.9853268e-06 3.5474032e-18)
(0.1032209 1.9844225e-06 1.3666537e-20)
(0.10322184 2.0563494e-06 -2.6838411e-20)
(0.10322323 2.0689109e-06 1.3168217e-20)
(0.10322363 2.1217211e-06 -1.2912425e-20)
(0.10322317 2.1718209e-06 -2.5301155e-20)
(0.10322159 2.1893618e-06 -1.2381171e-20)
(0.10322011 2.2870523e-06 -2.4205283e-20)
(0.10322067 2.2661227e-06 0)
(0.10322162 2.3530116e-06 0)
(0.10322188 2.3820332e-06 -5.7104712e-18)
(0.10322154 2.461383e-06 -4.3465739e-20)
(0.10322139 2.5074926e-06 5.4275372e-18)
(0.10322149 2.5461526e-06 -4.0605561e-20)
(0.10322114 2.6877869e-06 3.9052995e-20)
(0.10322026 2.7101704e-06 2.4315251e-18)
(0.10321862 2.7687073e-06 -2.3180767e-18)
(0.10322051 2.93818e-06 -2.1636424e-18)
(0.10321646 2.6312781e-06 4.13873e-18)
(0.10322054 3.5191334e-06 -8.9214926e-19)
(0.10322043 2.5087799e-06 -8.2486937e-19)
(0.10324038 -1.9066459e-06 -1.0635744e-19)
(0.10321102 9.3032746e-07 5.8462699e-20)
(0.10322584 1.3950439e-07 3.1281099e-20)
(0.10321565 8.0274788e-07 0)
(0.10322066 6.3568374e-07 0)
(0.10322789 9.5297657e-07 2.336076e-18)
(0.10321493 8.4009655e-07 -2.4646631e-18)
(0.10321889 8.6903787e-07 5.1966375e-18)
(0.10322774 9.064019e-07 -5.3517535e-18)
(0.10322583 8.9592682e-07 5.5583659e-18)
(0.10322402 9.121479e-07 -5.778789e-18)
(0.10322522 8.6002349e-07 -5.9004627e-18)
(0.10322455 8.575153e-07 3.0293514e-18)
(0.10322793 8.350146e-07 6.2217591e-18)
(0.10322829 8.2785601e-07 -3.177148e-18)
(0.10322693 8.0148765e-07 6.0939248e-26)
(0.10322698 7.7352169e-07 1.2945417e-20)
(0.10322728 7.4452338e-07 -3.3529713e-18)
(0.10322721 6.9529941e-07 6.8863579e-18)
(0.10322786 6.7671108e-07 -3.5331989e-18)
(0.10322875 6.1846965e-07 0)
(0.10322923 5.8439726e-07 1.4175622e-20)
(0.10322952 5.3159194e-07 0)
(0.10322977 4.9224519e-07 7.3268463e-21)
(0.10322996 4.3554556e-07 -7.4470444e-21)
(0.1032301 3.9695682e-07 0)
(0.10323019 3.5031586e-07 -2.3072229e-20)
(0.10323027 3.253819e-07 0)
(0.10323032 2.8926609e-07 0)
(0.10323037 2.6400249e-07 0)
(0.10323037 2.3041585e-07 0)
(0.10323031 2.0070806e-07 0)
(0.10323022 1.6239313e-07 2.3067845e-20)
(0.10323005 1.3098136e-07 7.5652462e-21)
(0.10322973 8.7966527e-08 0)
(0.10322909 6.2406821e-08 2.1963515e-20)
(0.10322781 1.4621092e-08 -1.4400988e-20)
(0.10322636 -1.3546398e-08 7.0801746e-21)
(0.10322677 -4.9227387e-08 -6.9595502e-21)
(0.10322659 -9.8614639e-08 -1.3676092e-20)
(0.10322746 -1.155909e-07 3.4515678e-18)
(0.10322823 -1.4796726e-07 -6.7613781e-18)
(0.10323029 -1.5686836e-07 1.2924185e-20)
(0.10322961 -1.6604627e-07 3.2539243e-18)
(0.10322548 -1.7390025e-07 1.238961e-20)
(0.10322641 -1.5341817e-07 2.4214813e-20)
(0.10322613 -2.1892504e-07 0)
(0.10322724 -2.0350863e-07 -5.8786495e-18)
(0.10322855 -2.0949608e-07 2.2360005e-20)
(0.10322676 -1.8062087e-07 5.5925221e-18)
(0.10322728 -1.6020995e-07 2.095422e-20)
(0.10322815 -1.4179465e-07 0)
(0.10322701 -6.0621425e-08 -2.4803522e-18)
(0.1032273 -1.1144337e-08 2.3885978e-18)
(0.10321779 7.8712556e-08 0)
(0.10322778 1.7663718e-07 3.3259198e-20)
(0.10321525 3.2376441e-07 -2.027904e-18)
(0.10322723 6.2024826e-07 1.7985516e-18)
(0.10322723 1.8545959e-07 -1.0680682e-19)
(0.10319268 -2.0407676e-06 5.1696125e-20)
(0.10317389 -1.2350077e-06 1.7684742e-18)
(0.1031878 -9.6943075e-07 -1.9949863e-18)
(0.10317715 -1.138207e-06 2.1005055e-18)
(0.10318908 -5.3612233e-07 -4.4621265e-18)
(0.10318654 -9.9836496e-07 4.7089635e-18)
(0.10317497 -8.2462522e-07 -2.4608269e-18)
(0.10318963 -5.7597729e-07 5.1384713e-18)
(0.10318563 -6.1551006e-07 -1.0476042e-20)
(0.10318423 -6.0816766e-07 -5.5459587e-18)
(0.10318213 -5.6760195e-07 -5.7160754e-18)
(0.10318137 -4.8849411e-07 5.9154812e-18)
(0.1031861 -4.0105831e-07 0)
(0.10318608 -3.5802512e-07 -1.2158722e-20)
(0.10318467 -3.16057e-07 6.2223478e-21)
(0.10318363 -2.916603e-07 -1.2718076e-20)
(0.10318323 -2.1174014e-07 -3.3165536e-18)
(0.10318214 -1.5780653e-07 3.3747021e-18)
(0.10318297 -4.6951711e-08 -6.7401273e-21)
(0.10318361 2.5081394e-08 3.5263036e-18)
(0.1031835 1.3026511e-07 -7.1464261e-18)
(0.10318357 2.0746837e-07 5.4498474e-18)
(0.10318373 2.9218331e-07 -1.8464951e-18)
(0.10318383 3.8070356e-07 -3.6648377e-21)
(0.10318392 4.4272354e-07 -1.8990428e-18)
(0.10318398 5.3464228e-07 1.9406539e-18)
(0.10318403 5.8801239e-07 7.6860863e-21)
(0.10318408 6.7567002e-07 0)
(0.1031841 7.2722752e-07 0)
(0.10318412 8.0950408e-07 0)
(0.10318412 8.6808872e-07 0)
(0.10318412 9.5645422e-07 -1.0009298e-18)
(0.10318411 1.0229112e-06 9.7730073e-19)
(0.10318409 1.1168768e-06 -1.9424241e-18)
(0.10318406 1.1842393e-06 1.9039998e-18)
(0.10318402 1.2653706e-06 -3.6663078e-21)
(0.10318401 1.3452469e-06 0)
(0.10318329 1.433481e-06 3.6331068e-18)
(0.10318093 1.5156952e-06 -3.5654383e-18)
(0.10318218 1.5733925e-06 0)
(0.10318332 1.5889549e-06 -3.4555929e-18)
(0.1031846 1.5708919e-06 3.3917887e-18)
(0.10318597 1.5232542e-06 -3.3131993e-18)
(0.10318802 1.4658937e-06 3.2329369e-18)
(0.10318759 1.4357077e-06 -3.1817451e-18)