/*--------------------------------*- C++ -*----------------------------------*\
| =========                 |                                                 |
| \\      /  F ield         | OpenFOAM: The Open Source CFD Toolbox           |
|  \\    /   O peration     | Version:  v2006                                 |
|   \\  /    A nd           | Website:  www.openfoam.com                      |
|    \\/     M anipulation  |                                                 |
\*---------------------------------------------------------------------------*/
FoamFile
{
    version     2.0;
    format      ascii;
    class       volVectorField;
    location    "9000";
    object      wallShearStress;
}
// * * * * * * * * * * * * * * * * * * * * * * * * * * * * * * * * * * * * * //

dimensions      [1 -1 -2 0 0 0 0];


internalField   uniform (0 0 0);

boundaryField
{
    Side
    {
        type            empty;
    }
    Ground
    {
        type            calculated;
        value           uniform (0 0 0);
    }
    Inlet
    {
        type            calculated;
        value           uniform (0 0 0);
    }
    Airfoil
    {
        type            calculated;
        value           nonuniform List<vector> 
527
(
(4.4583419e-06 1.9127533e-06 -2.4979526e-20)
(5.0198741e-06 1.7511501e-06 3.4689571e-20)
(5.1227268e-06 1.2686421e-06 1.829799e-20)
(4.1244728e-06 1.1344489e-06 -1.9225632e-20)
(4.1578207e-06 1.1688157e-06 -1.9739757e-20)
(3.7973391e-06 1.0495673e-06 2.02807e-20)
(3.5843442e-06 9.5903734e-07 1.0101124e-23)
(3.4532129e-06 9.0973884e-07 -1.0312886e-23)
(3.4457652e-06 8.9818903e-07 -8.625296e-28)
(3.4699109e-06 8.9676201e-07 -8.1641756e-38)
(3.4981799e-06 8.8254204e-07 0)
(3.509539e-06 8.70061e-07 1.1146562e-20)
(3.5307714e-06 8.5984885e-07 -1.1278865e-20)
(3.5383563e-06 8.4714684e-07 -1.1436055e-20)
(3.549719e-06 8.4188138e-07 1.1566285e-20)
(3.5610823e-06 8.2991378e-07 1.1754944e-38)
(3.5663713e-06 8.223906e-07 -5.8774718e-39)
(3.5789372e-06 8.0866688e-07 -1.1902681e-20)
(3.5857104e-06 7.9994392e-07 -2.3529967e-23)
(3.5963936e-06 7.8258585e-07 1.2167835e-20)
(3.6053456e-06 7.7482983e-07 1.2261716e-20)
(3.608144e-06 7.5044101e-07 -1.2375789e-20)
(3.6151838e-06 7.4488233e-07 -1.2497273e-20)
(3.6145165e-06 7.1929567e-07 -2.4714934e-23)
(3.61848e-06 7.1000595e-07 2.4030892e-27)
(3.6148851e-06 6.9128567e-07 -2.5145412e-23)
(3.6135027e-06 6.7381383e-07 2.5355066e-23)
(3.6099892e-06 6.6196385e-07 1.3076482e-20)
(3.5995085e-06 6.3654997e-07 5.1690621e-23)
(3.5956348e-06 6.236184e-07 1.3310033e-20)
(3.579602e-06 6.001839e-07 -1.3439803e-20)
(3.564615e-06 5.7338755e-07 -1.3553344e-20)
(3.5541795e-06 5.5498672e-07 -1.3686985e-20)
(3.5181747e-06 5.2007738e-07 -1.3786818e-20)
(3.5030231e-06 4.9239403e-07 -1.3883599e-20)
(3.4766739e-06 4.690435e-07 5.4738867e-23)
(3.4123716e-06 4.2407052e-07 -2.1835923e-27)
(3.4043271e-06 3.9176051e-07 1.4168056e-20)
(3.3519501e-06 3.6075963e-07 -2.3509887e-38)
(3.2624698e-06 3.0720409e-07 -7.1794175e-21)
(3.2426212e-06 2.6936275e-07 -5.6884458e-23)
(3.168983e-06 2.3330951e-07 7.3268318e-21)
(3.0486188e-06 1.7828932e-07 7.34718e-21)
(2.9900306e-06 1.3003972e-07 1.1641858e-22)
(2.8977326e-06 8.3737421e-08 7.4372534e-21)
(2.7566114e-06 2.4650969e-08 6.1713453e-37)
(2.6089908e-06 -3.9071714e-08 5.9539625e-23)
(2.5542303e-06 -9.1340239e-08 -7.6657456e-21)
(2.3445855e-06 -1.4848084e-07 -7.8625797e-21)
(2.0791398e-06 -2.4717846e-07 -7.7340561e-21)
(2.0325417e-06 -2.9559148e-07 -7.3468397e-39)
(1.7770142e-06 -3.7830554e-07 -1.9321327e-39)
(1.4260284e-06 -4.748189e-07 6.8647033e-39)
(1.1387459e-06 -5.5062135e-07 -6.2613854e-23)
(1.0865441e-06 -6.3961119e-07 8.2264492e-21)
(5.9540648e-07 -7.4069567e-07 -8.1407827e-21)
(1.7687755e-08 -8.8314511e-07 -6.410982e-23)
(-7.9342426e-08 -9.8082945e-07 -7.1746481e-43)
(-3.7666399e-07 -1.0999832e-06 -6.5023979e-23)
(-9.5977294e-07 -1.2106343e-06 8.4354613e-21)
(-1.520262e-06 -1.3292661e-06 -6.5812532e-23)
(-1.6979492e-06 -1.4353613e-06 6.6032093e-23)
(-2.1027558e-06 -1.5575145e-06 -2.0305976e-37)
(-2.7612533e-06 -1.6701909e-06 -8.7243721e-40)
(-3.3239097e-06 -1.7862089e-06 6.6890764e-23)
(-3.5982248e-06 -1.9114871e-06 -6.7486311e-23)
(-4.0697536e-06 -2.0509943e-06 -6.7649109e-23)
(-4.9006747e-06 -2.1675576e-06 8.7534671e-21)
(-5.5873699e-06 -2.2882919e-06 1.7485478e-37)
(-5.9036731e-06 -2.4276847e-06 -9.5508916e-39)
(-6.3628475e-06 -2.6025549e-06 -4.3441502e-21)
(-7.5005342e-06 -2.7072903e-06 -9.1642079e-27)
(-8.5305486e-06 -2.8104251e-06 -8.9693443e-27)
(-8.8019678e-06 -2.9475332e-06 -9.0178502e-21)
(-9.076592e-06 -3.1715279e-06 -7.0160965e-23)
(-1.0448468e-05 -3.2515209e-06 1.4037019e-22)
(-1.2004926e-05 -3.2977046e-06 -4.6606941e-21)
(-1.2162317e-05 -3.4432299e-06 -4.3931615e-21)
(-1.2533167e-05 -3.6357824e-06 -1.0841401e-26)
(-1.3438452e-05 -3.7754092e-06 -1.431664e-22)
(-1.501657e-05 -3.8067085e-06 7.1621204e-23)
(-1.5826571e-05 -3.8937108e-06 7.2229904e-23)
(-1.6122304e-05 -4.04848e-06 4.5678918e-21)
(-1.6435796e-05 -4.2929392e-06 9.3325941e-21)
(-1.7933889e-05 -4.3235085e-06 -4.6792388e-21)
(-1.9514763e-05 -4.3213635e-06 9.7669422e-27)
(-1.9648169e-05 -4.4913257e-06 3.6923566e-23)
(-2.0087645e-05 -4.6806503e-06 -3.7128039e-23)
(-2.0848994e-05 -4.8562762e-06 4.7631277e-21)
(-2.2536022e-05 -4.8458664e-06 -4.7883006e-21)
(-2.3720637e-05 -4.8756968e-06 -3.7501968e-23)
(-2.396915e-05 -5.0483603e-06 -4.7933888e-21)
(-2.4319033e-05 -5.296443e-06 4.8659903e-21)
(-2.5551159e-05 -5.3960874e-06 -8.8162076e-39)
(-2.7621399e-05 -5.3014154e-06 -4.852104e-21)
(-2.8548954e-05 -5.3520381e-06 9.7433176e-21)
(-2.8779049e-05 -5.5414734e-06 -4.8945449e-21)
(-2.9027956e-05 -5.8463468e-06 3.8893046e-23)
(-3.0607922e-05 -5.8799258e-06 -5.0143143e-21)
(-3.3065091e-05 -5.6882338e-06 -1.5428363e-37)
(-3.3842599e-05 -5.7509237e-06 2.5089773e-21)
(-3.4027183e-05 -5.9446933e-06 2.5584387e-21)
(-3.4239333e-05 -6.2566127e-06 2.5422589e-21)
(-3.5781946e-05 -6.2846132e-06 2.5045098e-21)
(-3.8380132e-05 -6.027524e-06 -2.5050197e-21)
(-3.9309738e-05 -6.0455788e-06 -1.2023617e-26)
(-3.943681e-05 -6.2361708e-06 2.5348202e-21)
(-3.9648786e-05 -6.515528e-06 0)
(-4.0789368e-05 -6.6331889e-06 -8.4055308e-38)
(-4.3404822e-05 -6.3461848e-06 -1.5097756e-37)
(-4.4891311e-05 -6.2502544e-06 -2.6183823e-21)
(-4.4925464e-05 -6.4433864e-06 2.6329567e-21)
(-4.5176689e-05 -6.6641121e-06 -2.6453243e-21)
(-4.5595193e-05 -6.9726906e-06 4.1712386e-23)
(-4.8106735e-05 -6.6876767e-06 -6.7712839e-27)
(-5.0517177e-05 -6.3993547e-06 -2.7134816e-21)
(-5.0359184e-05 -6.6259822e-06 5.3870593e-21)
(-5.0710805e-05 -6.7878755e-06 2.6640865e-21)
(-5.0946732e-05 -7.087352e-06 4.2587841e-23)
(-5.2580526e-05 -7.0279885e-06 4.2720223e-23)
(-5.5062086e-05 -6.7306199e-06 -8.5494794e-23)
(-5.5831423e-05 -6.7803452e-06 -2.7105839e-21)
(-5.6127446e-05 -6.9352975e-06 -7.4203081e-38)
(-5.6463653e-05 -7.140655e-06 -5.5679132e-21)
(-5.6942119e-05 -7.4185172e-06 2.7624619e-21)
(-5.9200324e-05 -7.1726023e-06 8.7717609e-23)
(-6.1462446e-05 -6.9274591e-06 -4.3958728e-23)
(-6.1476324e-05 -7.1489147e-06 2.8370208e-21)
(-6.1923055e-05 -7.3021318e-06 -4.4560505e-23)
(-6.2144288e-05 -7.6135325e-06 8.9569698e-23)
(-6.3401378e-05 -7.7181775e-06 -2.9297239e-21)
(-6.658285e-05 -7.2579695e-06 1.4398826e-21)
(-6.8566426e-05 -7.0595682e-06 1.3985889e-21)
(-6.8467744e-05 -7.2884352e-06 1.5020714e-21)
(-6.8656063e-05 -7.4948459e-06 1.5099056e-21)
(-6.8536278e-05 -7.9527866e-06 1.4267996e-21)
(-7.0715563e-05 -7.8192298e-06 1.4778369e-21)
(-7.532083e-05 -7.0022435e-06 -4.6012183e-23)
(-7.7023225e-05 -6.81025e-06 4.6131378e-23)
(-7.6569675e-05 -7.0604384e-06 -4.6549777e-23)
(-7.645544e-05 -7.288091e-06 1.4987458e-21)
(-7.6024318e-05 -7.7904529e-06 9.4288019e-23)
(-7.8427183e-05 -7.5504835e-06 1.5116614e-21)
(-8.3697996e-05 -6.5209171e-06 -1.5525117e-21)
(-8.5384319e-05 -6.2759228e-06 1.5090308e-21)
(-8.4612871e-05 -6.5495973e-06 1.4349296e-41)
(-8.4504756e-05 -6.7055583e-06 1.5329802e-21)
(-8.4239068e-05 -7.0266734e-06 -7.7509159e-38)
(-8.5452177e-05 -7.0123614e-06 -1.5004394e-21)
(-8.8995717e-05 -6.3590886e-06 -4.8410507e-23)
(-9.0853512e-05 -6.0955247e-06 4.8543198e-23)
(-9.0330709e-05 -6.3360335e-06 -5.1475226e-27)
(-9.0520402e-05 -6.4286343e-06 -4.9266745e-23)
(-9.0695017e-05 -6.5776311e-06 2.3222901e-38)
(-9.1109323e-05 -6.7225297e-06 2.4884027e-23)
(-9.259176e-05 -6.5813168e-06 -2.5008888e-23)
(-9.4002731e-05 -6.4906061e-06 -7.7872913e-22)
(-9.4108068e-05 -6.6673057e-06 -2.5246107e-23)
(-9.4545984e-05 -6.7666115e-06 8.1265517e-22)
(-9.4591454e-05 -6.9979224e-06 -7.3468397e-40)
(-9.4392632e-05 -7.4172677e-06 -8.4995948e-22)
(-9.7223458e-05 -7.0387292e-06 8.4786416e-22)
(-0.00010158832 -6.3575124e-06 -1.6203129e-21)
(-0.00010176417 -6.5271001e-06 -5.167895e-23)
(-0.00010126787 -6.781176e-06 -8.0598855e-22)
(-0.00010059141 -7.0915966e-06 -8.1156473e-22)
(-9.8342222e-05 -7.9675052e-06 8.4765542e-22)
(-9.8790449e-05 -8.7057703e-06 8.2328288e-22)
(-0.00011394468 -6.0290043e-06 -2.5741884e-23)
(-0.00012581511 -2.8000545e-06 -3.8281037e-22)
(-0.00011849932 -4.291189e-06 2.5743004e-23)
(-0.00011621876 -4.5476022e-06 -2.6083281e-23)
(-0.00011241777 -5.3580553e-06 2.6388367e-23)
(-0.00010728553 -6.9041601e-06 -2.6826911e-23)
(-0.00011504433 -5.9026546e-06 4.2095048e-22)
(-0.00014175841 4.5762504e-07 -1.366053e-39)
(-0.00015121836 3.4236142e-06 -2.2261713e-22)
(-0.00013864541 1.3090512e-06 -7.5268216e-23)
(-0.00013409028 9.2261136e-07 -2.181093e-40)
(-0.00012703316 -3.0442671e-07 0)
(-0.00011854542 -2.5931145e-06 -2.7369111e-47)
(-0.00013249479 -2.387503e-07 3.5827808e-28)
(-0.00016414872 9.0191903e-06 5.6305924e-40)
(-0.00016642224 1.1069526e-05 2.8928181e-38)
(-0.00015426821 8.7889132e-06 -7.8573786e-22)
(-0.00014798626 8.0743199e-06 -1.3775324e-38)
(-0.00014010409 6.7085332e-06 8.1895755e-22)
(-0.00013166856 4.6827817e-06 -2.1122164e-39)
(-0.00014168064 6.4388146e-06 2.5428668e-23)
(-0.00016773918 1.4974298e-05 -2.426481e-23)
(-0.00017012364 1.7131078e-05 -7.9450564e-22)
(-0.00015754087 1.4552155e-05 4.9030571e-23)
(-0.00015074598 1.3615585e-05 -2.5102449e-23)
(-0.00014249682 1.2094293e-05 8.4741726e-22)
(-0.00013205718 9.9403039e-06 8.462774e-22)
(-0.00013579126 1.0814819e-05 -2.5893422e-23)
(-0.00017190398 2.1173248e-05 -7.3654633e-22)
(-0.00018828598 2.8629816e-05 1.8235624e-26)
(-0.00016716516 2.348131e-05 -2.3771284e-23)
(-0.00015932039 2.2368845e-05 -2.9387359e-39)
(-0.00015095994 2.0758184e-05 1.6368123e-21)
(-0.00014117061 1.8676867e-05 -2.5857108e-23)
(-0.00013438022 1.7290691e-05 -1.6821221e-21)
(-0.00015801851 2.4054027e-05 -1.2177602e-23)
(-0.00018232478 3.357036e-05 1.1844519e-23)
(-0.00016912018 3.1010344e-05 2.2379162e-38)
(-0.00015902431 2.8902346e-05 0)
(-0.00015123791 2.7308169e-05 7.3468397e-40)
(-0.00014427524 2.5766971e-05 -1.6456175e-21)
(-0.00013632584 2.3937167e-05 7.3468397e-39)
(-0.00013425124 2.3714647e-05 -1.672704e-21)
(-0.00015515245 3.0479984e-05 1.5767965e-21)
(-0.00016767074 3.647271e-05 1.5478858e-21)
(-0.0001511629 3.1895235e-05 0)
(-0.0001450512 3.0729441e-05 5.4967742e-27)
(-0.00013809155 2.9053154e-05 1.6890183e-21)
(-0.00013188062 2.74842e-05 1.715976e-21)
(-0.00012459879 2.5751345e-05 -1.3747425e-23)
(-0.00012468654 2.6380279e-05 -1.7490529e-21)
(-0.00014894402 3.4333822e-05 1.609814e-21)
(-0.00016218889 4.0853666e-05 2.2958874e-41)
(-0.00014467407 3.567291e-05 1.6063645e-21)
(-0.00013882704 3.4453383e-05 1.3062743e-23)
(-0.00013199615 3.2665277e-05 4.7812124e-27)
(-0.00012645726 3.1149857e-05 1.3686087e-23)
(-0.00012041612 2.9620312e-05 1.7786813e-21)
(-0.00011873336 2.985834e-05 1.4693679e-39)
(-0.00013394454 3.509213e-05 -1.3090297e-23)
(-0.00014746982 4.0985832e-05 1.2955873e-23)
(-0.00013827201 3.8740016e-05 -1.6534435e-21)
(-0.00013081457 3.6733793e-05 -1.34084e-23)
(-0.00012498889 3.5144508e-05 1.3746758e-23)
(-0.00011994395 3.3671592e-05 1.7843761e-21)
(-0.0001152562 3.2226575e-05 -2.0571151e-38)
(-0.00011109749 3.133706e-05 1.4368783e-44)
(-0.00011296482 3.2768005e-05 6.7358736e-40)
(-0.00012694169 3.7792764e-05 2.9387359e-39)
(-0.00013283198 4.1073553e-05 -1.7415659e-21)
(-0.00012142146 3.7348055e-05 -3.2268152e-27)
(-0.00011706961 3.6189585e-05 -3.039691e-27)
(-0.0001118907 3.4606749e-05 2.9118701e-23)
(-0.00010770048 3.3292935e-05 -2.9760751e-23)
(-0.00010377686 3.2008315e-05 1.5192159e-23)
(-0.0001005977 3.1337208e-05 -3.9476995e-21)
(-0.0001037436 3.3502941e-05 1.9131964e-21)
(-0.00011970834 3.9211262e-05 -1.8734441e-38)
(-0.00012696256 4.3286615e-05 1.7707862e-21)
(-0.00011508465 3.9180947e-05 2.9387359e-39)
(-0.0001112937 3.8134061e-05 3.7532761e-21)
(-0.00010659971 3.6608984e-05 -1.7632415e-38)
(-0.00010306613 3.5447308e-05 0)
(-9.9844778e-05 3.4373096e-05 -9.9577786e-22)
(-9.7346936e-05 3.3664342e-05 1.0110188e-21)
(-9.7239931e-05 3.4174601e-05 -4.4081038e-39)
(-0.00010317534 3.664186e-05 7.539085e-24)
(-0.00010962546 3.9646776e-05 9.4859443e-22)
(-0.00010679723 3.9062752e-05 9.6024515e-22)
(-0.00010166516 3.7302535e-05 -5.8774718e-39)
(-9.8418951e-05 3.6216926e-05 -1.0048271e-21)
(-9.5277452e-05 3.5130938e-05 -7.3468397e-39)
(-9.2605323e-05 3.420427e-05 -1.4693679e-39)
(-9.036055e-05 3.3429303e-05 1.0564378e-21)
(-8.8812568e-05 3.3026617e-05 -8.3362402e-24)
(-8.922682e-05 3.3685385e-05 1.0711677e-21)
(-9.3828377e-05 3.5817278e-05 -1.5939071e-23)
(-9.8739673e-05 3.7999196e-05 7.9121154e-24)
(-9.6609843e-05 3.747417e-05 -3.9760843e-24)
(-9.2297326e-05 3.5923973e-05 1.0505654e-21)
(-8.9515071e-05 3.493429e-05 2.11481e-28)
(-8.6731855e-05 3.3917759e-05 -4.2323769e-24)
(-8.4336895e-05 3.304882e-05 -1.1019869e-21)
(-8.2429809e-05 3.2345156e-05 2.2387317e-21)
(-8.1242341e-05 3.1960933e-05 -1.1754944e-38)
(-8.1065965e-05 3.2302201e-05 5.8774718e-39)
(-8.4240437e-05 3.4531854e-05 2.1630679e-21)
(-9.3010065e-05 3.8147552e-05 3.9781086e-24)
(-9.7893279e-05 4.0630943e-05 1.0167008e-21)
(-9.1723321e-05 3.8305509e-05 4.0879681e-24)
(-8.9162495e-05 3.740668e-05 -1.7632415e-38)
(-8.6289808e-05 3.6327444e-05 -1.091532e-21)
(-8.4103942e-05 3.5495583e-05 2.0873616e-28)
(-8.2092614e-05 3.4738375e-05 -2.2038974e-24)
(-8.0447441e-05 3.4138605e-05 3.4438311e-41)
(-7.920541e-05 3.3721669e-05 1.2323176e-38)
(-7.8515071e-05 3.3601389e-05 -5.6051939e-45)
(-7.8881244e-05 3.4104436e-05 1.8168068e-27)
(-8.1123769e-05 3.5350885e-05 -8.5647362e-42)
(-8.3658582e-05 3.6516414e-05 2.9387359e-39)
(-8.2702176e-05 3.6150771e-05 -5.6284482e-22)
(-7.9879097e-05 3.503841e-05 5.7281044e-22)
(-7.8153064e-05 3.4360641e-05 1.1387653e-24)
(-7.636205e-05 3.3644767e-05 5.9283698e-22)
(-7.4835685e-05 3.3037374e-05 -1.1709583e-24)
(-7.346127e-05 3.250743e-05 -6.0732364e-22)
(-7.2377997e-05 3.211721e-05 -2.9123728e-29)
(-7.172112e-05 3.1901278e-05 -1.2346036e-21)
(-7.1538259e-05 3.1975137e-05 6.160749e-22)
(-7.2010429e-05 3.255801e-05 -2.9387359e-39)
(-7.4059853e-05 3.3939055e-05 -1.4118858e-25)
(-7.7733229e-05 3.5567753e-05 1.4104732e-25)
(-7.917848e-05 3.6132863e-05 -2.9387359e-39)
(-7.5449729e-05 3.4656886e-05 5.9533576e-22)
(-7.4054427e-05 3.4099411e-05 -6.0633676e-22)
(-7.2155161e-05 3.3318483e-05 3.0073627e-25)
(-7.0706586e-05 3.2716324e-05 0)
(-6.932027e-05 3.2145921e-05 6.1837865e-25)
(-6.8151696e-05 3.1676606e-05 2.4793291e-29)
(-6.7205594e-05 3.1310503e-05 -6.3201742e-25)
(-6.657383e-05 3.1102504e-05 6.520236e-22)
(-6.6319733e-05 3.1113283e-05 -6.5233374e-22)
(-6.6479213e-05 3.1415637e-05 1.2974472e-21)
(-6.729008e-05 3.2182961e-05 -1.2477136e-24)
(-6.9269751e-05 3.3426131e-05 1.2211038e-24)
(-7.1711527e-05 3.4483788e-05 -3.096339e-22)
(-7.1808696e-05 3.4379075e-05 0)
(-6.8824454e-05 3.3166441e-05 6.3538651e-22)
(-6.7301378e-05 3.2516371e-05 1.2678835e-24)
(-6.5477173e-05 3.1723349e-05 -3.3191322e-22)
(-6.3982526e-05 3.1057819e-05 1.3133929e-24)
(-6.253098e-05 3.0409963e-05 3.4159885e-22)
(-6.1224415e-05 2.9823646e-05 -3.4819323e-22)
(-6.0041224e-05 2.9278978e-05 1.3739247e-24)
(-5.8994526e-05 2.880632e-05 1.3912994e-24)
(-5.8112262e-05 2.8432839e-05 -1.4068181e-24)
(-5.7435504e-05 2.8185532e-05 -7.6166065e-39)
(-5.6986444e-05 2.807952e-05 1.1210388e-44)
(-5.6780051e-05 2.8158824e-05 -7.4526099e-29)
(-5.6957004e-05 2.8496992e-05 -3.6495022e-22)
(-5.7715214e-05 2.9001762e-05 1.4050256e-24)
(-5.857065e-05 2.9254377e-05 3.5999041e-22)
(-5.8113137e-05 2.8889456e-05 2.9387359e-39)
(-5.6504234e-05 2.8238048e-05 -1.4399184e-24)
(-5.565495e-05 2.7913252e-05 -3.7217903e-22)
(-5.4858242e-05 2.7647211e-05 1.8731489e-22)
(-5.4443995e-05 2.7581251e-05 2.9694759e-24)
(-5.4318027e-05 2.767543e-05 -2.9654927e-24)
(-5.4530237e-05 2.7956488e-05 1.4726866e-24)
(-5.5098792e-05 2.8452912e-05 -5.8774718e-39)
(-5.6061627e-05 2.9192746e-05 3.666049e-22)
(-5.7448562e-05 3.0205922e-05 -3.5802025e-22)
(-5.9293809e-05 3.1530738e-05 1.7343806e-22)
(-6.1658973e-05 3.3202575e-05 -1.6800048e-22)
(-6.4586892e-05 3.5209566e-05 6.2727199e-25)
(-6.7956701e-05 3.7517123e-05 1.533629e-22)
(-7.1741925e-05 4.0249751e-05 2.9140562e-22)
(-7.6750486e-05 4.3340091e-05 2.7032768e-25)
(-8.2835399e-05 4.5375935e-05 -1.0346156e-26)
(-8.4453453e-05 4.657428e-05 -1.2542328e-22)
(-8.5090555e-05 5.2705631e-05 5.7828484e-26)
(-3.8658309e-05 -3.9879554e-06 -3.6734198e-40)
(-3.5644739e-05 -3.3255716e-06 -3.0704403e-24)
(-3.6582797e-05 -3.1845345e-06 3.0742708e-24)
(-3.5061761e-05 -2.496492e-06 -6.3042586e-21)
(-3.3382912e-05 -2.0487031e-06 1.5207958e-37)
(-3.2410972e-05 -1.6863968e-06 -3.0886809e-24)
(-3.066083e-05 -1.2773416e-06 -6.3317963e-21)
(-2.954792e-05 -1.1311496e-06 3.1688636e-21)
(-2.9416095e-05 -1.0988814e-06 3.1773221e-21)
(-2.9064554e-05 -1.0450025e-06 -3.1758645e-21)
(-2.8738567e-05 -1.0063175e-06 -3.1030035e-24)
(-2.852856e-05 -9.894023e-07 -3.1786371e-21)
(-2.8533335e-05 -1.0029979e-06 1.5523794e-24)
(-2.8651053e-05 -1.0036462e-06 3.1812979e-21)
(-2.863885e-05 -9.7225917e-07 3.1800637e-21)
(-2.8680557e-05 -9.2803864e-07 -6.3608574e-21)
(-2.839751e-05 -8.0751974e-07 -6.926627e-30)
(-2.7909016e-05 -6.9825195e-07 -3.18215e-21)
(-2.7701446e-05 -6.2301663e-07 3.1830787e-21)
(-2.7491483e-05 -5.4006955e-07 -3.1837951e-21)
(-2.7069493e-05 -4.3992223e-07 -1.5923552e-21)
(-2.6777201e-05 -3.8726347e-07 -1.5928467e-21)
(-2.6740903e-05 -3.3871296e-07 3.1869994e-21)
(-2.6464062e-05 -2.6184271e-07 -1.5560432e-24)
(-2.6216778e-05 -2.1767961e-07 -7.9570889e-22)
(-2.6309039e-05 -1.7896953e-07 -7.9734159e-22)
(-2.5995101e-05 -8.0214174e-08 3.9852089e-22)
(-2.5553756e-05 -1.6117098e-08 -9.965999e-23)
(-2.5505107e-05 3.8550428e-08 2.5111268e-42)
(-2.5086772e-05 1.2662187e-07 7.9755849e-22)
(-2.4715894e-05 1.648392e-07 -1.5955946e-21)
(-2.4758896e-05 2.01263e-07 -7.9788858e-22)
(-2.452594e-05 2.6522466e-07 -1.5959288e-21)
(-2.4187866e-05 3.1209654e-07 7.2888685e-38)
(-2.415295e-05 3.6008585e-07 0)
(-2.3702144e-05 4.4762567e-07 1.5959322e-21)
(-2.3174113e-05 4.8649352e-07 -3.1945216e-21)
(-2.3054931e-05 5.2910473e-07 3.1959111e-21)
(-2.2710727e-05 5.7762849e-07 -3.1956631e-21)
(-2.2364741e-05 6.0665659e-07 -3.1964273e-21)
(-2.2233078e-05 6.4165533e-07 -2.2643499e-37)
(-2.1908084e-05 6.9605573e-07 -3.1958546e-21)
(-2.1348715e-05 7.4310818e-07 -3.198336e-21)
(-2.0863216e-05 7.8113879e-07 -3.2009469e-21)
(-2.0384145e-05 8.3163329e-07 1.5627718e-24)
(-1.9442549e-05 8.7579899e-07 -3.1267779e-24)
(-1.8458603e-05 8.7574878e-07 -1.2813822e-20)
(-1.7629952e-05 8.7180275e-07 -6.4114471e-21)
(-1.663078e-05 8.2358149e-07 -9.3270426e-42)
(-1.5938622e-05 7.4704712e-07 -6.4227432e-21)
(-1.5449419e-05 6.606645e-07 -2.706604e-28)
(-1.503106e-05 5.5470112e-07 3.215882e-21)
(-1.4588758e-05 4.2016413e-07 -3.2139949e-21)
(-1.4765695e-05 2.4570535e-07 -3.2144385e-21)
(-1.5289884e-05 8.2097004e-08 3.1391623e-24)
(-1.5588352e-05 -1.2670822e-07 -6.2780457e-24)
(-1.6204927e-05 -3.6601962e-07 3.1384283e-24)
(-1.7134229e-05 -6.383092e-07 3.2096703e-21)
(-1.823299e-05 -9.6349575e-07 3.136366e-24)
(-1.951263e-05 -1.3293699e-06 -6.4234538e-21)
(-2.0909467e-05 -1.736211e-06 3.1333916e-24)
(-2.2641212e-05 -2.1964068e-06 -1.2829239e-20)
(-2.4339379e-05 -2.7134525e-06 3.1291198e-24)
(-2.7287116e-05 -3.3729785e-06 1.279673e-20)
(-2.9623325e-05 -4.1497201e-06 -1.2780716e-20)
(-3.722884e-05 -5.1342047e-06 6.234437e-24)
(-3.1382199e-05 -5.3229292e-06 1.2718496e-20)
(-6.8657873e-05 -1.1111087e-05 -1.7467111e-36)
(-5.6136486e-05 6.4257691e-06 6.0565505e-21)
(-0.00011823222 -8.6237787e-05 -9.3682728e-22)
(-8.8486297e-05 -5.6347176e-05 3.424624e-23)
(-8.9663326e-05 -5.4214128e-05 -7.1681837e-27)
(-0.00010323041 -6.0596053e-05 -3.6742594e-21)
(-0.00015851533 -9.9669291e-05 1.5505012e-21)
(-0.00013404177 -6.3460237e-05 -1.5117306e-21)
(-1.9039563e-05 1.8002148e-06 -5.8774718e-39)
(-1.7591114e-05 -2.1372099e-07 4.4990286e-21)
(-2.2698614e-05 -4.2292659e-06 1.6677326e-37)
(5.7484099e-06 5.0076778e-06 3.7698611e-21)
(-2.978005e-07 3.4655313e-06 1.7602578e-26)
(-1.3514578e-05 -6.7526085e-08 1.1179482e-26)
(-2.129778e-05 -1.759613e-06 -2.0236838e-23)
(-3.0969236e-05 -4.2013055e-06 -4.636719e-21)
(-3.6772501e-05 -5.4126859e-06 -4.2235509e-21)
(-3.7015482e-05 -5.1105475e-06 -3.875846e-21)
(-3.7247587e-05 -5.1713092e-06 -1.4013257e-23)
(-4.2064026e-05 -6.2314775e-06 -6.4659332e-24)
(-3.9794123e-05 -4.9050896e-06 -6.0205197e-21)
(-3.6393978e-05 -4.3398428e-06 5.5394388e-24)
(-4.0359061e-05 -5.1330153e-06 5.3810965e-21)
(-1.9110315e-06 -1.203642e-05 5.5549708e-22)
(-2.777043e-06 -1.8146114e-05 3.6734198e-40)
(-4.0242923e-06 -2.6137524e-05 1.0323846e-21)
(-6.2474344e-06 -3.6421157e-05 -9.7735247e-22)
(-9.0963627e-06 -4.0303578e-05 -9.3081031e-22)
(-1.0081992e-05 -4.323938e-05 8.9345731e-22)
(-1.2657379e-05 -5.2509453e-05 0)
(-1.5488491e-05 -6.1744719e-05 2.4370329e-23)
(-2.184335e-05 -8.6772917e-05 -7.1884006e-22)
(-3.2164632e-05 -9.0484682e-05 -4.3221182e-23)
(-3.1647572e-05 -7.0940804e-05 4.7523628e-27)
(-3.2311861e-05 -6.7550948e-05 -1.4463312e-21)
(-3.816566e-05 -7.8425233e-05 1.3836926e-21)
(-4.7216433e-05 -9.4594585e-05 1.2658877e-21)
(-5.0062547e-05 -9.0540504e-05 2.9387359e-39)
(-4.9466557e-05 -8.5254279e-05 2.4624334e-21)
(-5.8078394e-05 -9.7810705e-05 -9.6365098e-27)
(-6.727948e-05 -0.00010931771 3.151467e-23)
(-9.6931282e-05 -0.00016167728 -3.5230546e-21)
(-9.8351767e-05 -0.00012623193 -2.7768176e-23)
(-6.4192876e-05 -6.6703779e-05 4.6580646e-21)
(-6.8535394e-05 -6.83833e-05 1.1754944e-38)
(-8.4253111e-05 -8.4342026e-05 0)
(-0.00011060795 -0.00011309017 0)
(-9.9511534e-05 -8.9706661e-05 -2.964996e-23)
(-7.1947439e-05 -5.5790649e-05 3.6362402e-23)
(-7.8796745e-05 -5.9542369e-05 2.2254789e-21)
(-9.187387e-05 -6.8664221e-05 -1.9339048e-21)
(-0.00012465503 -9.7910625e-05 -2.9387359e-39)
(-5.9304661e-07 -3.050323e-06 3.5820513e-23)
(-6.1823116e-07 6.8274897e-06 -6.1439331e-22)
(-1.3755239e-06 1.3577195e-05 -3.6734198e-40)
(-2.4259079e-06 2.1533242e-05 2.2040519e-39)
(-4.3800627e-06 2.6490866e-05 -9.6808597e-22)
(-5.6711209e-06 3.0824049e-05 -8.8783911e-22)
(-6.9126395e-06 3.6544627e-05 -7.9933924e-22)
(-8.4212838e-06 4.3900193e-05 -1.102026e-39)
(-1.1258222e-05 5.1021155e-05 -5.7759555e-22)
(-1.2741569e-05 7.0207763e-05 4.7363462e-27)
(-1.973189e-05 7.2539192e-05 1.051228e-21)
(-2.2716221e-05 6.1628359e-05 2.3509887e-38)
(-2.4660219e-05 6.034871e-05 1.7349429e-23)
(-2.7442102e-05 6.5600921e-05 -1.5753683e-23)
(-3.1029404e-05 7.1585271e-05 4.5698582e-22)
(-3.4781382e-05 8.4588313e-05 -4.2016529e-22)
(-3.8795105e-05 8.8648064e-05 -8.0362527e-22)
(-4.0471043e-05 8.1683951e-05 -4.2426427e-22)
(-4.2044602e-05 7.946412e-05 -4.0761403e-22)
(-4.500432e-05 8.2732193e-05 -3.6628085e-22)
(-4.9119654e-05 8.8529847e-05 3.3314403e-22)
(-5.4371796e-05 9.7321683e-05 -9.6615599e-24)
(-6.1412936e-05 0.00010577666 -5.2710937e-22)
(-7.0064096e-05 0.00013419618 2.4825531e-22)
(-7.5938235e-05 0.00013736991 -8.9623679e-24)
(-6.7473603e-05 8.8718975e-05 1.2126501e-23)
(-6.0065546e-05 6.8698823e-05 -4.6454532e-22)
(-5.9110773e-05 6.5073595e-05 -7.8782134e-24)
(-6.3079179e-05 6.6157754e-05 4.8768389e-22)
(-6.9137186e-05 7.1227662e-05 0)
(-7.6193424e-05 7.8693278e-05 0)
(-8.4702112e-05 9.165016e-05 0)
(-9.0542729e-05 0.00010641804 3.672499e-22)
(-8.2560766e-05 9.1729034e-05 6.8408581e-24)
(-6.8050997e-05 6.0169025e-05 -5.7345514e-22)
(-6.0302854e-05 4.8121277e-05 6.8052567e-22)
(-5.7807992e-05 4.4055331e-05 7.399203e-22)
(-5.9658608e-05 4.3179654e-05 7.2538616e-22)
(-6.3880035e-05 4.6065701e-05 2.1596654e-23)
(-6.8712412e-05 5.0808535e-05 3.0953052e-22)
(-7.3805657e-05 5.6495388e-05 5.8862859e-22)
(-7.9560369e-05 6.2346652e-05 -5.8774718e-39)
(-8.6809396e-05 7.0431314e-05 -7.7417797e-24)
(-9.253386e-05 8.4265588e-05 -2.5139564e-22)
(-8.3629383e-05 7.6321584e-05 6.1554315e-22)
(-6.4043947e-05 4.6163288e-05 -1.2766527e-23)
(-5.2957197e-05 3.2385276e-05 -5.0772866e-22)
(-4.7664927e-05 2.5830956e-05 6.2410271e-22)
(-4.5689139e-05 2.1877298e-05 -6.6275633e-22)
(-4.5174138e-05 2.0522795e-05 2.087296e-23)
(-4.5679749e-05 2.0947126e-05 1.2919568e-21)
(-4.6415044e-05 2.2186357e-05 6.3686417e-22)
(-4.7745111e-05 2.3805046e-05 1.2261094e-21)
(-4.9779302e-05 2.5801851e-05 -1.8344678e-23)
(-5.248919e-05 2.7986896e-05 1.751443e-23)
(-5.5778249e-05 3.0382838e-05 2.662579e-22)
(-6.0152421e-05 3.3581848e-05 1.5590471e-23)
(-6.224277e-05 3.8843435e-05 -1.5128148e-23)
(-6.9872615e-05 2.3629865e-05 2.1247202e-22)
)
;
    }
    Outlet
    {
        type            calculated;
        value           uniform (0 0 0);
    }
}


// ************************************************************************* //
