/*--------------------------------*- C++ -*----------------------------------*\
| =========                 |                                                 |
| \\      /  F ield         | OpenFOAM: The Open Source CFD Toolbox           |
|  \\    /   O peration     | Version:  v2006                                 |
|   \\  /    A nd           | Website:  www.openfoam.com                      |
|    \\/     M anipulation  |                                                 |
\*---------------------------------------------------------------------------*/
FoamFile
{
    version     2.0;
    format      ascii;
    class       volScalarField;
    location    "9000";
    object      yPlus;
}
// * * * * * * * * * * * * * * * * * * * * * * * * * * * * * * * * * * * * * //

dimensions      [0 0 0 0 0 0 0];


internalField   uniform 0;

boundaryField
{
    Side
    {
        type            empty;
    }
    Ground
    {
        type            calculated;
        value           nonuniform List<scalar> 
519
(
1.1936555
1.2031328
1.2135805
1.2262713
1.241139
1.2584322
1.2770467
1.2970343
1.324673
1.3560366
1.3602093
1.3969025
1.6019361
1.5658773
1.6422092
1.5925821
1.5474048
1.503346
1.4612278
1.4210283
1.3828669
1.3469508
1.3134458
1.2826666
1.254996
1.2308143
1.2108718
1.1968033
1.6688658
1.6717589
1.6742784
1.6763014
1.6777779
1.6787602
1.6790866
1.6785914
1.6771461
1.6746246
1.6709015
1.6658171
1.6591791
1.6507483
1.6402277
1.627266
1.6114288
1.5922207
1.5690595
1.5412321
1.5080633
1.4686674
1.4217491
1.3666171
1.3012988
1.2237531
1.1336063
1.0270535
0.89761432
0.73304564
0.4851334
0.068831848
0.53603015
0.75996968
0.9282835
1.0870769
1.2125401
1.3007737
1.3815072
1.4555689
1.5228236
1.5828124
1.6373392
1.6859385
1.7296344
1.7684607
1.8024233
1.8316916
1.8571483
1.8795193
1.8992869
1.9168469
1.932252
1.9456189
1.9574975
1.9682947
1.9780121
1.9867104
1.9946705
2.001948
2.0084317
2.0141786
2.0193132
2.02392
2.02806
2.0317873
2.0351523
2.0381938
2.0409476
2.0434325
2.0456636
2.0476182
2.0494288
2.0509935
1.7815272
1.7436168
1.7160678
1.7019108
1.6856009
1.6722054
1.660393
1.6507795
1.642498
1.6354565
1.6294073
1.6244381
1.6203293
1.6168647
1.6139512
1.6113595
1.6090678
1.6069428
1.6049923
1.6031293
1.6013407
1.5994625
1.5975931
1.5954873
1.5932468
1.5907934
1.5881025
1.5850812
1.581553
1.5777579
1.5734557
1.5685862
1.5632017
1.5571977
1.5507236
1.543626
1.5356534
1.5270152
1.5173584
1.5065344
1.4951143
1.4830171
1.4699366
1.455934
1.4407228
1.424022
1.4060283
1.3869761
1.3671786
1.3470721
1.3253936
1.3026182
1.2783459
1.2532828
1.2281892
1.2032867
1.1787736
1.1548138
1.1302615
1.1025084
1.0686522
1.0298282
0.98768616
0.94513812
0.9048652
0.86832732
0.83475751
0.79493136
0.75836103
0.71517967
0.67238797
0.61802227
0.55736812
0.49454632
0.43737902
0.39913388
0.39362674
0.42043121
0.46469086
0.51343843
0.5607941
0.60523102
0.64608223
0.68416291
0.72151414
0.75996085
0.79973197
0.8386846
0.875577
0.90888362
0.93738748
0.96050305
0.97896921
0.99514631
1.0115874
1.0306823
1.053097
1.0779429
1.1033517
1.126929
1.1468434
1.1617528
1.1725417
1.1814919
1.1908579
1.2024097
1.2161548
1.2313217
1.2466856
1.2608658
1.2734308
1.2841939
1.2933933
1.3017801
1.3097676
1.3179342
1.3264517
1.3350699
1.3441296
1.3535459
1.3633656
1.3732269
1.3823132
1.3904574
1.3982534
1.4068143
1.4171747
1.4293532
1.442254
1.4548814
1.4667375
1.4786089
1.491676
1.5062407
1.5216067
1.5370061
1.5520183
1.567183
1.5831152
1.5995091
1.6159041
1.6321289
1.6480705
1.6639506
1.6799818
1.6957371
1.710806
1.7249742
1.7384264
1.7519965
1.7660508
1.7799546
1.7932349
1.8058716
1.8177376
1.8289756
1.8397328
1.8499155
1.859288
1.8678457
1.8756531
1.8827875
1.889547
1.896092
1.9019227
1.9069015
1.9110852
1.9145278
1.9175249
1.9211137
1.9250975
1.9280852
1.9305231
1.9322461
1.9333722
1.9348067
1.9376361
1.9407348
1.9430113
1.9448853
1.946181
1.946948
1.9483659
1.9515021
1.9546789
1.9570902
1.9592994
1.9612724
1.9627233
1.964446
1.9673839
1.9704568
1.9730355
1.9754528
1.9775903
1.9792955
1.981014
1.9842322
1.9884728
1.9920565
1.9955875
1.9987827
2.0016381
2.0040991
2.0073409
2.0118857
2.0161601
2.0201966
2.0238969
2.0273565
2.0305374
2.0334299
2.0369095
2.0411945
2.0452883
2.0493151
2.0525559
2.0556151
2.0588951
2.0618586
2.0653224
2.0696848
2.0735342
2.0772649
2.0807429
2.0840412
2.087107
2.0899246
2.0931266
2.097
2.1006563
2.1041115
2.107359
2.1104166
2.113294
2.1159626
2.1184654
2.1213542
2.1246252
2.1275392
2.1303336
2.132915
2.1353284
2.1375737
2.1396253
2.1414925
2.1437465
2.1464626
2.1488875
2.1512399
2.1533889
2.155386
2.1572226
2.1589012
2.1604134
2.1619555
2.1637243
2.1654597
2.1670286
2.1684737
2.1697772
2.1709303
2.1719479
2.1728457
2.1735993
2.1743291
2.1751898
2.1760097
2.1766852
2.1772485
2.1776912
2.1780138
2.1782206
2.1783283
2.1783255
2.1782066
2.1782257
2.1784676
2.1785581
2.1785604
2.1784431
2.1782315
2.1779196
2.1775075
2.1770027
2.1764118
2.1757222
2.1749965
2.1743168
2.1736013
2.1727844
2.1718866
2.1709012
2.169838
2.1686909
2.1674673
2.1661704
2.1648011
2.1633617
2.1618653
2.1604333
2.1590765
2.1576189
2.1561099
2.1545346
2.152903
2.1512104
2.1494628
2.1476607
2.1458089
2.1439078
2.1419612
2.1399621
2.1379352
2.1359514
2.1339934
2.1319755
2.1299164
2.1278094
2.1256645
2.1234772
2.1212505
2.1189895
2.1166942
2.1143637
2.1120032
2.1096161
2.1071985
2.1047537
2.1023007
2.0998651
2.0974281
2.0949582
2.092467
2.0899506
2.0874111
2.0848496
2.0822681
2.079668
2.0770508
2.0744169
2.0717691
2.0691098
2.0664404
2.0637616
2.0610817
2.0584157
2.0557406
2.0530469
0.91328706
0.9321032
0.94815693
0.96054867
0.96799466
0.96847117
0.95855369
0.93314563
0.88823808
0.82984133
0.7824333
0.7729227
0.79657953
0.83075551
0.8674855
0.90659136
0.94771944
0.99086989
1.0363111
1.0843768
1.1352855
1.1889212
1.2451311
1.3042068
1.3670185
1.4334461
1.502947
1.5744277
1.646014
1.7148469
1.777958
1.8330078
1.8773607
1.908796
1.9257827
1.9286988
1.919777
1.9024244
1.8807192
1.8578667
1.8364792
1.822605
1.8116755
1.7919523
0.89264989
0.87238802
0.85406678
0.83763351
0.82289226
0.80962797
0.79762654
0.78668033
0.77662428
0.76732971
0.75871028
0.75069752
0.74323972
0.73627782
0.72980518
0.72371905
0.71813392
0.712711
0.70807075
0.70289317
0.69964481
0.69343805
0.69329085
0.68562861
)
;
    }
    Inlet
    {
        type            calculated;
        value           uniform 0;
    }
    Airfoil
    {
        type            calculated;
        value           nonuniform List<scalar> 
527
(
1.537324
1.8188714
1.8528319
1.6328356
1.6075691
1.5148466
1.4515914
1.4032186
1.3798691
1.3629977
1.349176
1.3317709
1.3165881
1.2991262
1.2817752
1.2654493
1.247641
1.2322363
1.2154086
1.2006899
1.1846169
1.1699606
1.1538478
1.139279
1.1235677
1.1079614
1.0928361
1.0765806
1.0614849
1.0456021
1.0292619
1.013667
0.99758322
0.98070463
0.96562682
0.94826821
0.92997698
0.91647705
0.8966367
0.87616179
0.86207265
0.84050379
0.81595723
0.79807173
0.77495288
0.74717603
0.71869008
0.70162165
0.66377113
0.61984618
0.60530986
0.55949859
0.49974184
0.44763325
0.43697768
0.3565139
0.33031695
0.34699559
0.38418617
0.46034336
0.53466482
0.55581812
0.60033132
0.66606496
0.71749467
0.73780443
0.77311216
0.83359892
0.88008568
0.89543508
0.91977943
0.98399928
1.0415429
1.0481024
1.0557287
1.1166315
1.192092
1.1903139
1.1980316
1.227938
1.2893066
1.3165577
1.3177761
1.3202944
1.3647894
1.4202762
1.41416
1.4186795
1.433473
1.4801917
1.5130481
1.5096832
1.509811
1.5348162
1.5897981
1.6102352
1.60558
1.6020517
1.6321286
1.6937407
1.7078787
1.7016872
1.6967362
1.722302
1.7811887
1.7983323
1.7907762
1.7855116
1.8000069
1.8515936
1.8818734
1.8726007
1.8679663
1.8670499
1.9077144
1.9580349
1.9455566
1.9427936
1.9382153
1.9587164
2.0027746
2.0116893
2.0079151
2.0049823
2.0047544
2.0350204
2.0744495
2.0661455
2.0650217
2.0604904
2.0725104
2.1201219
2.1527601
2.1432862
2.1383482
2.1291821
2.1542134
2.2261477
2.2544163
2.240708
2.2320387
2.2192951
2.2464013
2.3260634
2.3543847
2.3376152
2.3299877
2.3204521
2.3308496
2.3781736
2.4058925
2.3934768
2.390467
2.3873217
2.3873707
2.4016728
2.4183274
2.4144909
2.4148937
2.4104144
2.4031448
2.4332841
2.4923573
2.4938649
2.4833228
2.4706181
2.439094
2.4410875
2.623192
2.800342
2.7150657
2.6863945
2.6397428
2.5773001
2.6659829
2.9979344
3.1508074
3.0172849
2.9681696
2.8894395
2.7922549
2.952601
3.3485525
3.4197426
3.296028
3.2327533
3.1492071
3.0563702
3.1758625
3.5037993
3.572503
3.4437833
3.3758989
3.2883734
3.1710778
3.2234965
3.6634907
3.9110185
3.6924832
3.6161863
3.529772
3.4222508
3.3482598
3.6471867
3.9812987
3.856738
3.7527642
3.6723261
3.5985976
3.5091012
3.494748
3.7777197
3.97279
3.7829781
3.7202344
3.6426819
3.5719984
3.4838515
3.4995055
3.8469711
4.0522564
3.8389169
3.7763698
3.6962131
3.631158
3.5566331
3.5472676
3.7864494
3.996112
3.8844591
3.7935384
3.7229097
3.6608976
3.6018632
3.5509135
3.5978169
3.8313272
3.9306535
3.771092
3.7181969
3.6489678
3.5933407
3.5400355
3.4999272
3.5729194
3.8535822
3.9689826
3.7919637
3.7445602
3.6789389
3.6311161
3.5871517
3.5557057
3.5694943
3.692135
3.8111419
3.7669122
3.6888523
3.64305
3.5974545
3.5592793
3.5282307
3.510881
3.534088
3.6386902
3.7341734
3.6960087
3.6250925
3.5824469
3.5382864
3.5007443
3.472179
3.4585603
3.4688482
3.553724
3.7461696
3.8211028
3.7071945
3.6675857
3.6201663
3.5856065
3.5538772
3.5293114
3.5131387
3.5094314
3.5305378
3.5928526
3.648733
3.6255599
3.5738789
3.5455476
3.5149755
3.4896967
3.4674657
3.4516857
3.4456689
3.4517584
3.4755199
3.537375
3.6317272
3.6436978
3.5672164
3.543508
3.5074067
3.481134
3.4558818
3.4355105
3.4203456
3.4130525
3.4157879
3.4301716
3.4626847
3.5238878
3.5843857
3.5672985
3.5016741
3.4709969
3.4321122
3.4006246
3.3696269
3.3417661
3.3165406
3.2947155
3.2773337
3.2657643
3.2608659
3.263589
3.2778247
3.3071813
3.3277182
3.3047708
3.2661924
3.2487114
3.2330922
3.2285123
3.2325958
3.2468822
3.2721605
3.3095062
3.3597139
3.4235588
3.5021401
3.5955144
3.6999713
3.8144149
3.9515485
4.0991402
4.1564014
4.2125612
1.8209547
1.7403881
1.7547536
1.7071882
1.6583338
1.6272679
1.5765612
1.5448291
1.539248
1.5280878
1.5178392
1.5108843
1.5098732
1.5116672
1.5098238
1.5093353
1.4998549
1.4852616
1.4783759
1.4714904
1.4589771
1.4502789
1.4485945
1.4403794
1.4331798
1.4353297
1.4263469
1.4140341
1.4126546
1.401101
1.3909239
1.3924195
1.3862865
1.3772195
1.3768402
1.3648651
1.3504651
1.3479325
1.3389691
1.3298384
1.3270924
1.3188811
1.3036353
1.2904382
1.2775373
1.2501238
1.2201624
1.1944662
1.161722
1.1379713
1.1204676
1.1045765
1.0866671
1.0894451
1.1043115
1.1095798
1.1244386
1.1477339
1.1739399
1.2032085
1.2332161
1.2697725
1.301671
1.3612495
1.3982984
1.5529895
1.4096379
2.0098506
2.1726823
4.1474117
3.4867673
3.4558009
3.6653032
4.5600617
3.8298067
1.3067132
1.265499
1.4208059
0.7786882
0.46652834
1.0619041
1.3428354
1.6297894
1.7791547
1.7817826
1.7923692
1.9112623
1.849098
1.7729634
1.8739377
1.0419881
1.2757857
1.528687
1.8161354
1.949419
2.0177335
2.2237008
2.4120183
2.8627475
3.0461453
2.7595193
2.7128636
2.9363349
3.249072
3.2360553
3.1704529
3.420911
3.6493825
4.4529434
4.108698
3.1459898
3.2390368
3.6276335
4.2168707
3.8501447
3.2105471
3.3805101
3.6865843
4.3945587
0.50628884
0.80572861
1.207574
1.5897913
1.8054243
2.0389145
2.3140249
2.6355247
2.9477262
3.5697582
3.4734094
3.2869989
3.3603209
3.5995014
3.8596803
4.2802111
4.252503
4.16505
4.2110636
4.3854193
4.6234374
4.930456
5.2380929
5.8927013
4.9830751
4.2914002
3.916046
3.8849308
4.0060995
4.2161634
4.4693383
4.8168492
4.785527
4.0653457
3.5277569
3.2663738
3.1927528
3.2356658
3.3659521
3.527663
3.7019767
3.883164
4.1048298
4.0999959
3.3753169
2.8480204
2.529219
2.3732237
2.3018014
2.2843969
2.3065942
2.3425268
2.3946773
2.4640595
2.5471259
2.6404961
2.7543121
2.8705919
2.8795785
)
;
    }
    Outlet
    {
        type            calculated;
        value           uniform 0;
    }
}


// ************************************************************************* //
