/*--------------------------------*- C++ -*----------------------------------*\
| =========                 |                                                 |
| \\      /  F ield         | OpenFOAM: The Open Source CFD Toolbox           |
|  \\    /   O peration     | Version:  v2006                                 |
|   \\  /    A nd           | Website:  www.openfoam.com                      |
|    \\/     M anipulation  |                                                 |
\*---------------------------------------------------------------------------*/
FoamFile
{
    version     2.0;
    format      ascii;
    class       volScalarField;
    location    "4000";
    object      alphat;
}
// * * * * * * * * * * * * * * * * * * * * * * * * * * * * * * * * * * * * * //

dimensions      [1 -1 -1 0 0 0 0];


internalField   nonuniform List<scalar> 
55713
(
2.7617319e-10
2.8719761e-09
2.8896327e-08
6.9327862e-08
8.9620716e-08
9.567344e-08
9.5903652e-08
9.5051043e-08
9.4489054e-08
9.4284382e-08
9.425169e-08
9.4263123e-08
9.4273373e-08
9.4276217e-08
9.4275285e-08
9.4275199e-08
9.4276357e-08
9.4277787e-08
9.4278573e-08
9.4278262e-08
9.4277688e-08
9.4277569e-08
9.4277791e-08
9.4277929e-08
9.4277948e-08
9.4277862e-08
9.4277811e-08
9.4277677e-08
9.4277556e-08
9.4277364e-08
9.4277161e-08
9.4276935e-08
9.4276727e-08
9.4276589e-08
9.4276642e-08
9.42769e-08
9.4276832e-08
9.4276309e-08
9.4275511e-08
9.4274595e-08
9.427373e-08
9.4272899e-08
9.4272016e-08
9.427106e-08
9.4270123e-08
9.4269192e-08
9.4268287e-08
9.4267398e-08
9.4266496e-08
9.426553e-08
9.426452e-08
9.4263452e-08
9.426235e-08
9.4261227e-08
9.4260121e-08
9.425901e-08
9.4257916e-08
9.4256759e-08
9.4255521e-08
3.3383976e-10
4.1673435e-09
3.5929346e-08
7.6179871e-08
9.3060477e-08
9.697809e-08
9.6597054e-08
9.5766283e-08
9.5335632e-08
9.521149e-08
9.5205578e-08
9.5218734e-08
9.5225379e-08
9.5225339e-08
9.5223785e-08
9.5223585e-08
9.5224647e-08
9.5225623e-08
9.5225569e-08
9.5224729e-08
9.5223961e-08
9.5223624e-08
9.522347e-08
9.5223205e-08
9.5222841e-08
9.5222422e-08
9.5222019e-08
9.5221557e-08
9.5221088e-08
9.5220558e-08
9.5220013e-08
9.5219452e-08
9.521889e-08
9.5218388e-08
9.5218071e-08
9.5218115e-08
9.5217801e-08
9.5216961e-08
9.5215816e-08
9.5214526e-08
9.521327e-08
9.5212077e-08
9.5210832e-08
9.5209479e-08
9.5208107e-08
9.5206742e-08
9.5205401e-08
9.5204082e-08
9.5202733e-08
9.5201304e-08
9.5199801e-08
9.5198206e-08
9.5196524e-08
9.5194775e-08
9.5192994e-08
9.5191159e-08
9.5189266e-08
9.5187237e-08
9.5185032e-08
4.1653116e-10
5.8615215e-09
4.3423405e-08
8.2297155e-08
9.5736326e-08
9.8043146e-08
9.7317359e-08
9.6573669e-08
9.626439e-08
9.6200068e-08
9.6208618e-08
9.6220232e-08
9.6222706e-08
9.6220823e-08
9.6219169e-08
9.6219132e-08
9.6219815e-08
9.6219954e-08
9.6219215e-08
9.621803e-08
9.6217098e-08
9.6216494e-08
9.6215967e-08
9.6215311e-08
9.6214602e-08
9.621386e-08
9.6213137e-08
9.6212351e-08
9.6211558e-08
9.6210702e-08
9.6209839e-08
9.6208951e-08
9.6208067e-08
9.6207216e-08
9.620654e-08
9.6206322e-08
9.6205875e-08
9.6204736e-08
9.6203269e-08
9.6201622e-08
9.6199998e-08
9.619846e-08
9.6196888e-08
9.6195169e-08
9.6193387e-08
9.6191608e-08
9.6189867e-08
9.6188152e-08
9.6186403e-08
9.6184555e-08
9.6182612e-08
9.6180543e-08
9.617834e-08
9.617602e-08
9.617363e-08
9.617114e-08
9.6168531e-08
9.6165716e-08
9.6162627e-08
5.3640144e-10
8.1780249e-09
5.1568925e-08
8.7809179e-08
9.797018e-08
9.8990907e-08
9.8091419e-08
9.7478696e-08
9.7278424e-08
9.7255622e-08
9.7269646e-08
9.7276826e-08
9.7276004e-08
9.7273249e-08
9.7271741e-08
9.7271785e-08
9.7272024e-08
9.727143e-08
9.7270086e-08
9.7268603e-08
9.7267478e-08
9.7266594e-08
9.7265693e-08
9.7264693e-08
9.7263665e-08
9.7262637e-08
9.7261609e-08
9.7260542e-08
9.7259456e-08
9.7258309e-08
9.725715e-08
9.7255967e-08
9.7254781e-08
9.725361e-08
9.7252585e-08
9.7252079e-08
9.7251592e-08
9.7250186e-08
9.7248423e-08
9.724645e-08
9.7244477e-08
9.7242626e-08
9.7240766e-08
9.723873e-08
9.7236568e-08
9.7234405e-08
9.7232293e-08
9.723022e-08
9.7228106e-08
9.7225884e-08
9.7223546e-08
9.7221056e-08
9.7218385e-08
9.7215545e-08
9.7212596e-08
9.7209511e-08
9.7206245e-08
9.720272e-08
9.7198816e-08
7.1079784e-10
1.1264905e-08
6.0069613e-08
9.256149e-08
9.9798606e-08
9.987775e-08
9.8952708e-08
9.8490203e-08
9.8376807e-08
9.8378491e-08
9.8391184e-08
9.8393504e-08
9.8390771e-08
9.8387672e-08
9.838636e-08
9.8386419e-08
9.8386141e-08
9.8384852e-08
9.8383009e-08
9.8381312e-08
9.8379989e-08
9.8378816e-08
9.8377572e-08
9.837627e-08
9.8374962e-08
9.8373665e-08
9.8372361e-08
9.8371032e-08
9.8369683e-08
9.8368287e-08
9.836687e-08
9.8365431e-08
9.8363969e-08
9.8362517e-08
9.836117e-08
9.8360366e-08
9.8359857e-08
9.835828e-08
9.8356252e-08
9.8353984e-08
9.8351696e-08
9.8349566e-08
9.834747e-08
9.8345178e-08
9.834269e-08
9.8340178e-08
9.833774e-08
9.8335356e-08
9.8332928e-08
9.8330386e-08
9.8327709e-08
9.8324866e-08
9.8321799e-08
9.8318512e-08
9.8315076e-08
9.8311482e-08
9.8307648e-08
9.8303515e-08
9.82989e-08
9.6672519e-10
1.5317093e-08
6.8649886e-08
9.6144932e-08
1.01324e-07
1.0076665e-07
9.9925781e-08
9.9610778e-08
9.9559321e-08
9.9571613e-08
9.9579233e-08
9.9578264e-08
9.9574459e-08
9.9571255e-08
9.9570128e-08
9.9570117e-08
9.9569275e-08
9.9567379e-08
9.9565171e-08
9.9563312e-08
9.9561789e-08
9.9560339e-08
9.9558806e-08
9.9557254e-08
9.9555705e-08
9.9554168e-08
9.9552617e-08
9.9551057e-08
9.9549475e-08
9.9547867e-08
9.954623e-08
9.9544576e-08
9.9542889e-08
9.95412e-08
9.9539582e-08
9.9538479e-08
9.9537934e-08
9.9536332e-08
9.9534077e-08
9.9531542e-08
9.9528975e-08
9.9526607e-08
9.9524338e-08
9.952186e-08
9.9519109e-08
9.9516292e-08
9.9513579e-08
9.9510939e-08
9.9508266e-08
9.9505467e-08
9.9502524e-08
9.9499401e-08
9.9496028e-08
9.9492381e-08
9.9488541e-08
9.9484537e-08
9.948024e-08
9.9475619e-08
9.9470412e-08
1.3465378e-09
2.0547727e-08
7.6909078e-08
9.9027701e-08
1.0256482e-07
1.0169784e-07
1.0102898e-07
1.0084078e-07
1.0082741e-07
1.0083974e-07
1.0084262e-07
1.008396e-07
1.0083527e-07
1.0083201e-07
1.0083106e-07
1.0083091e-07
1.0082951e-07
1.0082712e-07
1.0082469e-07
1.008227e-07
1.0082099e-07
1.0081929e-07
1.0081753e-07
1.0081577e-07
1.0081403e-07
1.0081229e-07
1.0081054e-07
1.0080879e-07
1.0080702e-07
1.0080524e-07
1.0080343e-07
1.008016e-07
1.0079975e-07
1.0079787e-07
1.0079604e-07
1.0079467e-07
1.0079402e-07
1.0079261e-07
1.0079017e-07
1.007874e-07
1.0078459e-07
1.0078203e-07
1.0077965e-07
1.0077707e-07
1.0077414e-07
1.0077108e-07
1.0076817e-07
1.0076534e-07
1.007625e-07
1.0075953e-07
1.0075639e-07
1.0075308e-07
1.0074951e-07
1.0074561e-07
1.0074147e-07
1.0073718e-07
1.0073255e-07
1.0072759e-07
1.0072194e-07
1.9224997e-09
2.7182387e-08
8.5014552e-08
1.0205058e-07
1.0366024e-07
1.0274188e-07
1.0227444e-07
1.0217865e-07
1.021847e-07
1.0219205e-07
1.0219142e-07
1.0218736e-07
1.021828e-07
1.0217944e-07
1.0217865e-07
1.0217833e-07
1.0217643e-07
1.0217373e-07
1.0217118e-07
1.021691e-07
1.021672e-07
1.0216531e-07
1.0216337e-07
1.0216147e-07
1.0215957e-07
1.0215769e-07
1.0215579e-07
1.0215392e-07
1.02152e-07
1.0215012e-07
1.0214818e-07
1.0214625e-07
1.0214428e-07
1.0214229e-07
1.0214031e-07
1.0213872e-07
1.0213792e-07
1.0213689e-07
1.0213435e-07
1.0213141e-07
1.0212838e-07
1.0212568e-07
1.0212327e-07
1.021207e-07
1.0211769e-07
1.0211447e-07
1.0211144e-07
1.0210851e-07
1.021056e-07
1.0210255e-07
1.0209933e-07
1.0209594e-07
1.0209229e-07
1.0208829e-07
1.0208397e-07
1.0207954e-07
1.0207473e-07
1.0206961e-07
1.0206369e-07
2.8400924e-09
3.5434174e-08
9.2222425e-08
1.0434274e-07
1.0476865e-07
1.0396114e-07
1.0366459e-07
1.0362749e-07
1.0363732e-07
1.0363982e-07
1.0363748e-07
1.036331e-07
1.0362843e-07
1.0362486e-07
1.0362423e-07
1.0362374e-07
1.0362149e-07
1.0361866e-07
1.0361606e-07
1.036139e-07
1.0361187e-07
1.0360985e-07
1.036078e-07
1.0360582e-07
1.0360382e-07
1.0360187e-07
1.0359989e-07
1.0359796e-07
1.0359597e-07
1.0359405e-07
1.0359205e-07
1.035901e-07
1.0358808e-07
1.0358606e-07
1.0358402e-07
1.0358227e-07
1.0358137e-07
1.035807e-07
1.0357834e-07
1.0357527e-07
1.0357209e-07
1.0356931e-07
1.0356694e-07
1.035645e-07
1.0356154e-07
1.0355827e-07
1.0355524e-07
1.0355231e-07
1.0354945e-07
1.0354645e-07
1.0354326e-07
1.0353993e-07
1.0353635e-07
1.0353243e-07
1.0352808e-07
1.035237e-07
1.0351891e-07
1.0351384e-07
1.035079e-07
4.4343416e-09
4.5456587e-08
9.8589842e-08
1.063363e-07
1.0599416e-07
1.0535992e-07
1.0519689e-07
1.0519206e-07
1.0519852e-07
1.0519747e-07
1.051946e-07
1.0519038e-07
1.0518565e-07
1.0518177e-07
1.0518126e-07
1.0518064e-07
1.0517823e-07
1.0517542e-07
1.0517284e-07
1.0517065e-07
1.0516855e-07
1.0516648e-07
1.0516442e-07
1.0516243e-07
1.0516043e-07
1.0515849e-07
1.0515651e-07
1.0515461e-07
1.0515264e-07
1.0515076e-07
1.0514879e-07
1.051469e-07
1.0514493e-07
1.0514298e-07
1.0514098e-07
1.0513919e-07
1.0513817e-07
1.0513789e-07
1.0513607e-07
1.0513293e-07
1.0512966e-07
1.0512688e-07
1.0512462e-07
1.0512244e-07
1.0511972e-07
1.0511652e-07
1.0511366e-07
1.0511084e-07
1.051082e-07
1.0510541e-07
1.0510241e-07
1.0509929e-07
1.0509596e-07
1.0509235e-07
1.0508818e-07
1.0508407e-07
1.0507957e-07
1.050748e-07
1.0506911e-07
7.1437391e-09
5.7272599e-08
1.0383827e-07
1.0810495e-07
1.0738217e-07
1.0694848e-07
1.0687602e-07
1.0688291e-07
1.0688379e-07
1.0688124e-07
1.0687867e-07
1.0687498e-07
1.0687031e-07
1.0686601e-07
1.068656e-07
1.0686477e-07
1.0686241e-07
1.0685975e-07
1.0685732e-07
1.068552e-07
1.0685315e-07
1.0685117e-07
1.068492e-07
1.0684731e-07
1.068454e-07
1.0684358e-07
1.0684171e-07
1.0683995e-07
1.068381e-07
1.0683638e-07
1.0683454e-07
1.0683283e-07
1.06831e-07
1.0682926e-07
1.0682742e-07
1.0682576e-07
1.0682469e-07
1.0682469e-07
1.0682386e-07
1.0682075e-07
1.0681743e-07
1.0681478e-07
1.0681275e-07
1.0681092e-07
1.0680872e-07
1.0680574e-07
1.0680325e-07
1.068007e-07
1.0679847e-07
1.0679609e-07
1.0679347e-07
1.0679078e-07
1.067879e-07
1.0678487e-07
1.0678116e-07
1.0677757e-07
1.0677368e-07
1.0676951e-07
1.0676445e-07
1.1009235e-08
7.0808026e-08
1.0729142e-07
1.0970632e-07
1.0897485e-07
1.0873105e-07
1.087086e-07
1.0871472e-07
1.0871187e-07
1.0870955e-07
1.087077e-07
1.0870466e-07
1.0870044e-07
1.0869563e-07
1.0869535e-07
1.0869426e-07
1.0869209e-07
1.086898e-07
1.0868773e-07
1.0868585e-07
1.0868402e-07
1.0868226e-07
1.0868053e-07
1.0867886e-07
1.086772e-07
1.0867563e-07
1.08674e-07
1.086725e-07
1.0867092e-07
1.0866948e-07
1.0866791e-07
1.0866652e-07
1.0866498e-07
1.086636e-07
1.0866205e-07
1.0866073e-07
1.0865977e-07
1.0866007e-07
1.0866033e-07
1.0865759e-07
1.0865433e-07
1.0865199e-07
1.0865034e-07
1.0864886e-07
1.0864756e-07
1.0864494e-07
1.0864312e-07
1.08641e-07
1.0863945e-07
1.0863769e-07
1.0863569e-07
1.0863367e-07
1.0863152e-07
1.0862931e-07
1.0862646e-07
1.0862366e-07
1.0862078e-07
1.0861754e-07
1.0861355e-07
1.6789462e-08
8.6001161e-08
1.0960051e-07
1.1121125e-07
1.1079354e-07
1.1070442e-07
1.1070189e-07
1.1070324e-07
1.1069956e-07
1.1069838e-07
1.1069721e-07
1.1069461e-07
1.1069181e-07
1.1068718e-07
1.1068706e-07
1.1068583e-07
1.1068403e-07
1.1068233e-07
1.106808e-07
1.1067936e-07
1.1067795e-07
1.106766e-07
1.1067528e-07
1.1067402e-07
1.1067278e-07
1.1067162e-07
1.1067044e-07
1.1066935e-07
1.1066822e-07
1.1066721e-07
1.1066612e-07
1.1066518e-07
1.1066412e-07
1.1066323e-07
1.1066221e-07
1.106614e-07
1.1066086e-07
1.1066141e-07
1.1066277e-07
1.106608e-07
1.1065788e-07
1.1065603e-07
1.1065485e-07
1.1065405e-07
1.1065372e-07
1.1065174e-07
1.1065081e-07
1.1064953e-07
1.1064885e-07
1.1064785e-07
1.1064674e-07
1.1064561e-07
1.1064448e-07
1.1064336e-07
1.1064177e-07
1.1064005e-07
1.106386e-07
1.1063666e-07
1.1063423e-07
2.4871062e-08
1.0252946e-07
1.1277081e-07
1.1294244e-07
1.1284876e-07
1.1284338e-07
1.1284397e-07
1.1284318e-07
1.1284059e-07
1.1284024e-07
1.1283934e-07
1.128374e-07
1.1283655e-07
1.1283504e-07
1.1283504e-07
1.1283352e-07
1.1283237e-07
1.1283146e-07
1.1283064e-07
1.1282987e-07
1.1282913e-07
1.1282843e-07
1.1282777e-07
1.1282715e-07
1.1282656e-07
1.1282601e-07
1.128255e-07
1.1282502e-07
1.1282457e-07
1.1282415e-07
1.1282376e-07
1.1282342e-07
1.1282307e-07
1.128228e-07
1.128225e-07
1.128223e-07
1.1282235e-07
1.1282292e-07
1.1282468e-07
1.1282414e-07
1.1282235e-07
1.128213e-07
1.1282082e-07
1.128211e-07
1.1282144e-07
1.1282084e-07
1.1282112e-07
1.1282077e-07
1.1282078e-07
1.1282076e-07
1.1282074e-07
1.1282071e-07
1.1282077e-07
1.1282088e-07
1.1282082e-07
1.1282054e-07
1.1282074e-07
1.128204e-07
1.1282001e-07
8.559056e-08
8.5589068e-08
8.5588046e-08
8.5589308e-08
8.5590049e-08
8.5591018e-08
8.5591931e-08
8.5592883e-08
8.5593835e-08
8.5594798e-08
8.559575e-08
8.5596697e-08
8.5597631e-08
8.5598566e-08
8.5599505e-08
8.5600458e-08
8.5601428e-08
8.5602401e-08
8.5603333e-08
8.5604182e-08
8.5604934e-08
8.56056e-08
8.5606152e-08
8.5606539e-08
8.560674e-08
8.5606793e-08
8.5606768e-08
8.5606737e-08
8.5606729e-08
8.5606728e-08
8.5606693e-08
8.5606591e-08
8.5606399e-08
8.5606131e-08
8.560586e-08
8.5605685e-08
8.5605597e-08
8.5605399e-08
8.5604867e-08
8.5603936e-08
8.5602383e-08
8.5599096e-08
8.5592565e-08
8.5585612e-08
8.5596045e-08
8.5668288e-08
8.5868867e-08
8.6235953e-08
8.6652698e-08
8.6639993e-08
8.5119156e-08
8.0269664e-08
6.9425039e-08
5.0709112e-08
2.7064813e-08
8.6468116e-09
1.6164505e-09
4.433177e-10
5.9086976e-10
8.5880655e-08
8.5879388e-08
8.5879267e-08
8.5880334e-08
8.5881196e-08
8.5882139e-08
8.5883067e-08
8.5884019e-08
8.5884971e-08
8.5885929e-08
8.5886874e-08
8.5887813e-08
8.588874e-08
8.5889666e-08
8.5890596e-08
8.5891541e-08
8.5892501e-08
8.5893464e-08
8.5894384e-08
8.5895219e-08
8.5895963e-08
8.5896626e-08
8.5897178e-08
8.5897567e-08
8.5897767e-08
8.5897814e-08
8.5897781e-08
8.5897748e-08
8.5897738e-08
8.5897734e-08
8.5897691e-08
8.5897581e-08
8.5897384e-08
8.5897117e-08
8.5896844e-08
8.589666e-08
8.589656e-08
8.5896367e-08
8.589584e-08
8.589484e-08
8.5893099e-08
8.5889688e-08
8.5883577e-08
8.5877818e-08
8.5888938e-08
8.5957603e-08
8.6146037e-08
8.6495281e-08
8.6911347e-08
8.69679e-08
8.5659177e-08
8.1194889e-08
7.104463e-08
5.2927329e-08
2.9107247e-08
9.640727e-09
1.7660146e-09
4.1392504e-10
5.2982364e-10
8.6199847e-08
8.619877e-08
8.6198975e-08
8.6199994e-08
8.6200902e-08
8.6201848e-08
8.6202788e-08
8.6203748e-08
8.6204703e-08
8.6205664e-08
8.6206609e-08
8.6207546e-08
8.6208468e-08
8.6209388e-08
8.6210309e-08
8.6211244e-08
8.6212193e-08
8.6213147e-08
8.6214057e-08
8.6214884e-08
8.6215622e-08
8.6216286e-08
8.6216843e-08
8.6217239e-08
8.6217438e-08
8.621748e-08
8.6217441e-08
8.6217405e-08
8.6217392e-08
8.6217389e-08
8.6217347e-08
8.6217243e-08
8.6217051e-08
8.6216782e-08
8.6216493e-08
8.6216289e-08
8.621619e-08
8.6216033e-08
8.6215566e-08
8.6214675e-08
8.6213234e-08
8.6210464e-08
8.6204904e-08
8.6197567e-08
8.6200574e-08
8.6249322e-08
8.6406014e-08
8.6728769e-08
8.7171555e-08
8.7392055e-08
8.6489273e-08
8.2758463e-08
7.3635909e-08
5.6377001e-08
3.2256242e-08
1.1169166e-08
2.0077244e-09
3.9740217e-10
4.6954925e-10
8.6551574e-08
8.6550743e-08
8.6551293e-08
8.6552268e-08
8.6553212e-08
8.6554161e-08
8.655511e-08
8.6556073e-08
8.655703e-08
8.6557989e-08
8.6558931e-08
8.6559862e-08
8.6560776e-08
8.6561688e-08
8.6562598e-08
8.6563522e-08
8.6564459e-08
8.6565402e-08
8.65663e-08
8.6567117e-08
8.6567847e-08
8.6568511e-08
8.656907e-08
8.6569468e-08
8.6569663e-08
8.6569695e-08
8.6569647e-08
8.656961e-08
8.6569596e-08
8.6569594e-08
8.6569553e-08
8.6569451e-08
8.6569262e-08
8.6568995e-08
8.6568695e-08
8.6568473e-08
8.6568368e-08
8.6568242e-08
8.6567825e-08
8.6566981e-08
8.6565663e-08
8.6563314e-08
8.6558505e-08
8.6551143e-08
8.6549885e-08
8.6584381e-08
8.6712948e-08
8.7002545e-08
8.7444876e-08
8.7775995e-08
8.7203709e-08
8.412294e-08
7.5999136e-08
5.9724058e-08
3.5561357e-08
1.2905447e-08
2.3268139e-09
3.9109218e-10
4.1945131e-10
8.6939809e-08
8.6939305e-08
8.6940065e-08
8.6941023e-08
8.6941984e-08
8.6942939e-08
8.6943892e-08
8.6944858e-08
8.6945815e-08
8.694677e-08
8.6947707e-08
8.6948631e-08
8.6949537e-08
8.6950439e-08
8.6951337e-08
8.6952249e-08
8.6953174e-08
8.6954105e-08
8.695499e-08
8.6955795e-08
8.6956518e-08
8.6957182e-08
8.6957743e-08
8.695814e-08
8.6958326e-08
8.6958345e-08
8.6958287e-08
8.6958248e-08
8.6958235e-08
8.6958235e-08
8.6958196e-08
8.6958098e-08
8.6957914e-08
8.6957649e-08
8.695734e-08
8.6957098e-08
8.6956987e-08
8.6956896e-08
8.6956541e-08
8.6955758e-08
8.695456e-08
8.6952609e-08
8.6948566e-08
8.6941397e-08
8.693646e-08
8.6957442e-08
8.7057439e-08
8.7309309e-08
8.7739103e-08
8.8161931e-08
8.7905578e-08
8.5483772e-08
7.8412631e-08
6.3280965e-08
3.9294576e-08
1.4997484e-08
2.7527777e-09
3.9543627e-10
3.7317362e-10
8.7369234e-08
8.7369118e-08
8.7370003e-08
8.7370959e-08
8.7371926e-08
8.7372885e-08
8.737384e-08
8.7374804e-08
8.7375758e-08
8.7376709e-08
8.7377639e-08
8.7378555e-08
8.737945e-08
8.7380341e-08
8.7381226e-08
8.7382124e-08
8.7383035e-08
8.7383952e-08
8.7384822e-08
8.7385612e-08
8.7386328e-08
8.738699e-08
8.7387551e-08
8.7387942e-08
8.7388114e-08
8.7388114e-08
8.7388046e-08
8.7388005e-08
8.7387995e-08
8.7387997e-08
8.7387961e-08
8.7387867e-08
8.738769e-08
8.738743e-08
8.7387114e-08
8.7386851e-08
8.7386731e-08
8.7386673e-08
8.7386388e-08
8.7385664e-08
8.7384543e-08
8.7382906e-08
8.7379651e-08
8.737319e-08
8.7366063e-08
8.7375959e-08
8.7448988e-08
8.7659327e-08
8.8060707e-08
8.8543294e-08
8.8562763e-08
8.6773841e-08
8.0768646e-08
6.6946583e-08
4.3405987e-08
1.7490827e-08
3.3045038e-09
4.1374782e-10
3.3452529e-10
8.7845458e-08
8.7845631e-08
8.78466e-08
8.784756e-08
8.7848525e-08
8.7849483e-08
8.7850437e-08
8.7851397e-08
8.7852346e-08
8.7853289e-08
8.7854211e-08
8.7855116e-08
8.7855999e-08
8.7856876e-08
8.7857745e-08
8.7858625e-08
8.7859519e-08
8.7860419e-08
8.7861269e-08
8.7862043e-08
8.7862749e-08
8.7863408e-08
8.7863965e-08
8.7864345e-08
8.7864496e-08
8.7864471e-08
8.7864391e-08
8.7864351e-08
8.7864343e-08
8.7864349e-08
8.7864316e-08
8.7864227e-08
8.7864059e-08
8.7863806e-08
8.7863487e-08
8.7863203e-08
8.7863068e-08
8.7863043e-08
8.7862837e-08
8.7862182e-08
8.7861113e-08
8.7859703e-08
8.7857171e-08
8.7851716e-08
8.7843606e-08
8.7844831e-08
8.7893337e-08
8.8060444e-08
8.8420259e-08
8.8931326e-08
8.918165e-08
8.7992683e-08
8.3000162e-08
7.0699866e-08
4.7917428e-08
2.0489891e-08
4.029978e-09
4.4813745e-10
3.0088124e-10
8.8374978e-08
8.8375401e-08
8.8376387e-08
8.8377348e-08
8.8378305e-08
8.8379259e-08
8.8380206e-08
8.8381157e-08
8.8382097e-08
8.8383029e-08
8.8383937e-08
8.8384825e-08
8.838569e-08
8.8386547e-08
8.8387394e-08
8.838825e-08
8.8389121e-08
8.8389997e-08
8.8390822e-08
8.8391574e-08
8.8392268e-08
8.8392922e-08
8.839347e-08
8.8393831e-08
8.8393952e-08
8.8393896e-08
8.8393803e-08
8.8393763e-08
8.8393759e-08
8.8393769e-08
8.839374e-08
8.8393659e-08
8.83935e-08
8.839326e-08
8.8392941e-08
8.8392639e-08
8.8392483e-08
8.8392484e-08
8.8392367e-08
8.8391799e-08
8.8390765e-08
8.8389493e-08
8.8387573e-08
8.8383309e-08
8.8375349e-08
8.8370555e-08
8.839802e-08
8.8522256e-08
8.8829562e-08
8.9337108e-08
8.976194e-08
8.9117403e-08
8.5217667e-08
7.4477261e-08
5.2807932e-08
2.4077142e-08
4.9880123e-09
5.0412468e-10
2.7232214e-10
8.8965556e-08
8.8966152e-08
8.8967142e-08
8.8968102e-08
8.8969046e-08
8.8969991e-08
8.8970925e-08
8.8971862e-08
8.8972783e-08
8.8973696e-08
8.897458e-08
8.8975443e-08
8.8976278e-08
8.8977105e-08
8.8977919e-08
8.8978744e-08
8.8979583e-08
8.8980428e-08
8.8981218e-08
8.8981944e-08
8.8982623e-08
8.8983267e-08
8.8983797e-08
8.8984131e-08
8.898421e-08
8.8984116e-08
8.8984009e-08
8.898397e-08
8.898397e-08
8.8983984e-08
8.8983961e-08
8.8983887e-08
8.8983742e-08
8.8983518e-08
8.8983208e-08
8.898289e-08
8.8982707e-08
8.8982726e-08
8.8982704e-08
8.8982248e-08
8.8981253e-08
8.8980039e-08
8.8978583e-08
8.8975503e-08
8.89686e-08
8.896041e-08
8.8971153e-08
8.9055262e-08
8.9302664e-08
8.9777223e-08
9.0319259e-08
9.014569e-08
8.7287151e-08
7.8226963e-08
5.8041268e-08
2.8345683e-08
6.2508531e-09
5.8729761e-10
2.4864119e-10
8.9626555e-08
8.9627246e-08
8.9628233e-08
8.9629182e-08
8.9630108e-08
8.9631033e-08
8.9631943e-08
8.9632852e-08
8.9633744e-08
8.9634623e-08
8.9635469e-08
8.9636291e-08
8.9637085e-08
8.9637868e-08
8.963864e-08
8.9639421e-08
8.9640218e-08
8.964102e-08
8.9641768e-08
8.9642459e-08
8.9643118e-08
8.9643746e-08
8.9644249e-08
8.9644542e-08
8.9644568e-08
8.9644423e-08
8.9644304e-08
8.9644267e-08
8.964427e-08
8.9644287e-08
8.9644271e-08
8.9644207e-08
8.9644078e-08
8.9643876e-08
8.9643584e-08
8.9643258e-08
8.9643045e-08
8.9643066e-08
8.964314e-08
8.9642828e-08
8.9641897e-08
8.9640678e-08
8.9639496e-08
8.9637487e-08
8.9632229e-08
8.9623027e-08
8.9621908e-08
8.9671e-08
8.9855519e-08
9.0271127e-08
9.0869114e-08
9.1082361e-08
8.9201937e-08
8.1843117e-08
6.3551836e-08
3.3384395e-08
7.9329661e-09
7.072525e-10
2.3002813e-10
9.0369284e-08
9.0370023e-08
9.037099e-08
9.0371915e-08
9.037281e-08
9.0373699e-08
9.037457e-08
9.0375437e-08
9.0376282e-08
9.0377111e-08
9.0377903e-08
9.0378667e-08
9.0379401e-08
9.0380127e-08
9.038084e-08
9.0381566e-08
9.0382307e-08
9.0383053e-08
9.0383746e-08
9.0384395e-08
9.0385027e-08
9.0385628e-08
9.038609e-08
9.0386328e-08
9.0386284e-08
9.0386073e-08
9.0385946e-08
9.0385913e-08
9.0385918e-08
9.0385937e-08
9.0385929e-08
9.0385875e-08
9.0385766e-08
9.0385594e-08
9.0385333e-08
9.0385013e-08
9.0384767e-08
9.0384771e-08
9.0384937e-08
9.0384805e-08
9.0383987e-08
9.0382742e-08
9.0381646e-08
9.038045e-08
9.0377072e-08
9.0368787e-08
9.0360759e-08
9.0381954e-08
9.050577e-08
9.0843357e-08
9.1436436e-08
9.1933398e-08
9.093657e-08
8.5113154e-08
6.9245558e-08
3.9261777e-08
1.0185546e-08
8.7561105e-10
2.1724397e-10
9.1207442e-08
9.1208193e-08
9.1209122e-08
9.1210002e-08
9.1210852e-08
9.1211687e-08
9.1212503e-08
9.1213307e-08
9.121409e-08
9.1214847e-08
9.1215566e-08
9.1216251e-08
9.1216907e-08
9.1217556e-08
9.12182e-08
9.1218853e-08
9.1219525e-08
9.1220198e-08
9.1220823e-08
9.1221417e-08
9.1222014e-08
9.1222574e-08
9.1222977e-08
9.1223144e-08
9.1223013e-08
9.1222711e-08
9.1222583e-08
9.1222558e-08
9.1222566e-08
9.1222583e-08
9.1222586e-08
9.122254e-08
9.1222459e-08
9.1222323e-08
9.1222112e-08
9.1221818e-08
9.1221545e-08
9.1221506e-08
9.1221755e-08
9.1221835e-08
9.12212e-08
9.1219959e-08
9.1218805e-08
9.1218085e-08
9.1216425e-08
9.1210362e-08
9.1199943e-08
9.1201662e-08
9.1271999e-08
9.15216e-08
9.2056067e-08
9.2716291e-08
9.2459667e-08
8.835509e-08
7.4981771e-08
4.6005559e-08
1.321806e-08
1.1090715e-09
2.1243694e-10
9.215706e-08
9.2157842e-08
9.2158745e-08
9.2159568e-08
9.216036e-08
9.2161124e-08
9.2161874e-08
9.2162604e-08
9.216331e-08
9.2163978e-08
9.2164605e-08
9.216519e-08
9.2165753e-08
9.2166312e-08
9.2166875e-08
9.2167444e-08
9.2168029e-08
9.2168615e-08
9.2169155e-08
9.2169685e-08
9.2170242e-08
9.2170748e-08
9.2171074e-08
9.2171165e-08
9.2170878e-08
9.2170508e-08
9.2170379e-08
9.2170363e-08
9.2170376e-08
9.2170388e-08
9.2170402e-08
9.2170365e-08
9.2170316e-08
9.2170226e-08
9.2170089e-08
9.2169848e-08
9.2169551e-08
9.2169437e-08
9.2169776e-08
9.2170093e-08
9.2169707e-08
9.2168545e-08
9.2167264e-08
9.2166698e-08
9.2166226e-08
9.2162969e-08
9.2153691e-08
9.2144643e-08
9.2172985e-08
9.2334663e-08
9.2770971e-08
9.3486954e-08
9.3793621e-08
9.1239393e-08
8.062969e-08
5.3576528e-08
1.7304027e-08
1.46491e-09
2.2090249e-10
9.3234644e-08
9.3235562e-08
9.3236446e-08
9.3237212e-08
9.3237951e-08
9.3238654e-08
9.3239348e-08
9.3240009e-08
9.324064e-08
9.3241218e-08
9.3241755e-08
9.3242234e-08
9.3242699e-08
9.3243167e-08
9.3243652e-08
9.3244142e-08
9.3244663e-08
9.3245154e-08
9.3245612e-08
9.3246088e-08
9.3246614e-08
9.3247068e-08
9.3247322e-08
9.3247259e-08
9.3246792e-08
9.3246433e-08
9.3246314e-08
9.3246288e-08
9.3246305e-08
9.3246316e-08
9.3246345e-08
9.3246313e-08
9.324631e-08
9.3246257e-08
9.3246217e-08
9.3246064e-08
9.3245789e-08
9.3245567e-08
9.3245893e-08
9.3246513e-08
9.3246428e-08
9.3245412e-08
9.3244019e-08
9.3243275e-08
9.3243431e-08
9.3242763e-08
9.3236731e-08
9.3224608e-08
9.3225142e-08
9.3308986e-08
9.362235e-08
9.4292972e-08
9.4982965e-08
9.3789307e-08
8.5938039e-08
6.1855954e-08
2.2747489e-08
2.039179e-09
2.3826328e-10
6.4973139e-10
6.8139162e-10
7.0126579e-10
7.1532314e-10
7.270184e-10
7.3746952e-10
7.4665032e-10
7.5423001e-10
7.599148e-10
7.6349591e-10
7.6478901e-10
7.6359941e-10
7.5969073e-10
7.5277596e-10
7.4250792e-10
7.2849127e-10
7.102814e-10
6.8742498e-10
6.5947297e-10
6.2606933e-10
5.8690744e-10
5.4212532e-10
4.9221203e-10
4.3799226e-10
3.803078e-10
3.2026328e-10
2.5949708e-10
2.0067395e-10
1.4333194e-10
9.3226982e-11
5.1887596e-11
2.1153617e-11
3.340233e-12
2.0433935e-12
9.2898318e-12
2.9291887e-11
6.4813102e-11
1.1326471e-10
1.6823229e-10
2.2253035e-10
2.788235e-10
3.378754e-10
3.9945952e-10
4.6272135e-10
5.2391744e-10
5.833067e-10
6.4077832e-10
6.958436e-10
7.4766083e-10
7.9542553e-10
8.3896271e-10
8.7862008e-10
9.1478718e-10
9.4784589e-10
9.781073e-10
1.0055547e-09
1.0302533e-09
1.0526422e-09
1.07313e-09
1.0919398e-09
1.1092101e-09
1.1250642e-09
1.1395994e-09
1.1529303e-09
1.1652257e-09
1.1765822e-09
1.1870275e-09
1.1966101e-09
1.2054018e-09
1.2134693e-09
1.2208812e-09
1.2276845e-09
1.2339592e-09
1.2396806e-09
4.8522826e-10
5.1469048e-10
5.4249552e-10
5.6811281e-10
5.9035561e-10
6.091826e-10
6.2485951e-10
6.3764261e-10
6.4769515e-10
6.5513676e-10
6.6006207e-10
6.6252397e-10
6.6250241e-10
6.5989541e-10
6.5451181e-10
6.4608442e-10
6.3427428e-10
6.1870004e-10
5.9895123e-10
5.7466472e-10
5.454616e-10
5.1127705e-10
4.7106165e-10
4.2485525e-10
3.7443396e-10
3.2138395e-10
2.6722354e-10
2.14016e-10
1.6356462e-10
1.1773601e-10
7.7687681e-11
4.9458954e-11
2.4546321e-11
9.1915773e-12
9.0692856e-12
1.6524747e-11
3.4324949e-11
6.2152747e-11
9.7763659e-11
1.3683211e-10
1.7821107e-10
2.2166348e-10
2.6713984e-10
3.1469657e-10
3.6247731e-10
4.0958566e-10
4.5553655e-10
5.0016075e-10
5.4316883e-10
5.8401817e-10
6.2231762e-10
6.5793648e-10
6.9090937e-10
7.2136833e-10
7.4947813e-10
7.7543365e-10
7.9934134e-10
8.2113984e-10
8.4101721e-10
8.5918521e-10
8.7582221e-10
8.9107695e-10
9.0507405e-10
9.1791736e-10
9.297096e-10
9.4055765e-10
9.505408e-10
9.5972798e-10
9.681809e-10
9.7595864e-10
9.8311509e-10
9.8969842e-10
9.9576445e-10
1.001331e-09
1.3747356e-09
1.147903e-09
9.6552196e-10
8.2339294e-10
7.1799941e-10
6.4407708e-10
5.9439988e-10
5.653516e-10
5.5283245e-10
5.5156893e-10
5.5691418e-10
5.653613e-10
5.7440176e-10
5.8226787e-10
5.8778788e-10
5.9023553e-10
5.8917942e-10
5.8435425e-10
5.7555987e-10
5.6262629e-10
5.4534363e-10
5.2363345e-10
4.9715263e-10
4.655972e-10
4.2927476e-10
3.8894263e-10
3.4559434e-10
3.0055847e-10
2.5524199e-10
2.1050553e-10
1.6822622e-10
1.29857e-10
9.7689177e-11
7.0045482e-11
5.1462286e-11
3.8636097e-11
3.8338831e-11
4.3956594e-11
5.5741178e-11
7.1955888e-11
9.2101227e-11
1.1549374e-10
1.4147507e-10
1.6958459e-10
1.991501e-10
2.2953676e-10
2.6021306e-10
2.9079316e-10
3.209701e-10
3.5044587e-10
3.7895694e-10
4.0629948e-10
4.3233512e-10
4.5698586e-10
4.8022614e-10
5.0197624e-10
5.2223753e-10
5.4105715e-10
5.585012e-10
5.746458e-10
5.8957267e-10
6.0336194e-10
6.1609479e-10
6.2784184e-10
6.3870789e-10
6.4875814e-10
6.5805136e-10
6.666421e-10
6.7458117e-10
6.8191602e-10
6.8869128e-10
6.9494721e-10
7.0072596e-10
7.0605443e-10
6.5264044e-09
4.6567101e-09
3.365331e-09
2.5076988e-09
1.9524113e-09
1.5812347e-09
1.3201795e-09
1.1174185e-09
9.4570199e-10
8.1478789e-10
7.1728591e-10
6.4610076e-10
5.9770086e-10
5.6772536e-10
5.5158459e-10
5.448588e-10
5.4385063e-10
5.4559735e-10
5.4782349e-10
5.4855152e-10
5.4560224e-10
5.3810518e-10
5.2619416e-10
5.0991843e-10
4.8933553e-10
4.6467104e-10
4.3634163e-10
4.0494386e-10
3.7143956e-10
3.3692762e-10
3.0220801e-10
2.6736055e-10
2.3416161e-10
2.0286137e-10
1.7447941e-10
1.4860146e-10
1.2853828e-10
1.1445582e-10
1.0396228e-10
1.0098421e-10
1.0087202e-10
1.0351069e-10
1.0859783e-10
1.155495e-10
1.2426192e-10
1.3455039e-10
1.4607697e-10
1.5853009e-10
1.7163313e-10
1.8514218e-10
1.9884357e-10
2.1255368e-10
2.2611868e-10
2.3941432e-10
2.5234125e-10
2.6482232e-10
2.7679886e-10
2.8822894e-10
2.990869e-10
3.0936035e-10
3.190483e-10
3.2815829e-10
3.3670408e-10
3.4470413e-10
3.521808e-10
3.5915785e-10
3.6566028e-10
3.7171356e-10
3.7734297e-10
3.8257335e-10
3.8742915e-10
3.9193242e-10
3.961106e-10
3.9996839e-10
2.183786e-08
1.6370005e-08
1.2014684e-08
8.713665e-09
6.3150941e-09
4.6139047e-09
3.457833e-09
2.6698702e-09
2.1079311e-09
1.7177633e-09
1.4362563e-09
1.2251565e-09
1.0576729e-09
9.149493e-10
8.0280924e-10
7.1643337e-10
6.5126993e-10
6.0432278e-10
5.7195796e-10
5.530386e-10
5.4446243e-10
5.4182107e-10
5.4150316e-10
5.3898776e-10
5.3338138e-10
5.2457993e-10
5.126372e-10
4.9764983e-10
4.798733e-10
4.5981048e-10
4.380136e-10
4.147928e-10
3.9056046e-10
3.6633561e-10
3.4039938e-10
3.1755626e-10
2.9488496e-10
2.7386162e-10
2.5454316e-10
2.3832397e-10
2.2510497e-10
2.1454291e-10
2.0671164e-10
1.9980153e-10
1.9569086e-10
1.9286734e-10
1.9108001e-10
1.9018965e-10
1.9006962e-10
1.9063006e-10
1.9176238e-10
1.9336462e-10
1.9534287e-10
1.9761261e-10
2.0009963e-10
2.0273924e-10
2.0547531e-10
2.0826053e-10
2.1105514e-10
2.1382677e-10
2.165496e-10
2.1920325e-10
2.2177204e-10
2.2424447e-10
2.2661254e-10
2.2887078e-10
2.3101605e-10
2.330472e-10
2.3496463e-10
2.3676984e-10
2.3846537e-10
2.4005388e-10
2.4154135e-10
2.4292128e-10
4.3913766e-08
3.5800911e-08
2.8335566e-08
2.1898373e-08
1.6606272e-08
1.2421347e-08
9.2357746e-09
6.8872862e-09
5.1698009e-09
3.9369651e-09
3.0540773e-09
2.4318308e-09
1.9845824e-09
1.6506973e-09
1.4037887e-09
1.2152391e-09
1.0643187e-09
9.41466e-10
8.339821e-10
7.4984279e-10
6.8297904e-10
6.3170418e-10
5.9840807e-10
5.7827702e-10
5.6698336e-10
5.6139478e-10
5.5775739e-10
5.5329041e-10
5.4728173e-10
5.3959355e-10
5.3032612e-10
5.1968167e-10
5.0776499e-10
4.9495951e-10
4.8143506e-10
4.6733599e-10
4.5298945e-10
4.3869517e-10
4.2436755e-10
4.0964996e-10
3.9595436e-10
3.8392795e-10
3.731055e-10
3.634712e-10
3.5498824e-10
3.4755499e-10
3.4103963e-10
3.3554617e-10
3.3081791e-10
3.2654084e-10
3.2271044e-10
3.1934502e-10
3.164066e-10
3.1384801e-10
3.1162531e-10
3.096976e-10
3.0802603e-10
3.0657577e-10
3.0531719e-10
3.0422388e-10
3.0327804e-10
3.0245689e-10
3.0173975e-10
3.0111134e-10
3.0055935e-10
3.000733e-10
2.9964409e-10
2.9926374e-10
2.9892537e-10
2.9862303e-10
2.9835153e-10
2.9810651e-10
2.9788395e-10
2.9768078e-10
6.3616824e-08
5.5773657e-08
4.7541447e-08
3.9487885e-08