/*--------------------------------*- C++ -*----------------------------------*\
| =========                 |                                                 |
| \\      /  F ield         | OpenFOAM: The Open Source CFD Toolbox           |
|  \\    /   O peration     | Version:  v2006                                 |
|   \\  /    A nd           | Website:  www.openfoam.com                      |
|    \\/     M anipulation  |                                                 |
\*---------------------------------------------------------------------------*/
FoamFile
{
    version     2.0;
    format      ascii;
    class       volScalarField;
    location    "4000";
    object      Cp;
}
// * * * * * * * * * * * * * * * * * * * * * * * * * * * * * * * * * * * * * //

dimensions      [0 0 0 0 0 0 0];


internalField   nonuniform List<scalar> 
55713
(
0.0055831178
0.0055837245
0.0055836395
0.0055840468
0.0055840411
0.0055843178
0.005584459
0.0055847144
0.0055849243
0.0055851698
0.0055853562
0.0055854917
0.0055855368
0.0055854888
0.0055853672
0.0055852837
0.005585228
0.0055851721
0.005585135
0.0055851192
0.0055851138
0.0055851093
0.0055851053
0.0055851007
0.0055850911
0.005585074
0.0055850459
0.0055850005
0.0055849386
0.0055848746
0.0055848249
0.005584785
0.0055847375
0.0055846833
0.0055846095
0.0055845143
0.0055843967
0.0055842652
0.0055841274
0.005583996
0.0055838806
0.0055837777
0.0055836728
0.0055835483
0.0055833934
0.0055832116
0.0055830223
0.0055828408
0.0055826679
0.0055824941
0.0055823178
0.0055821288
0.0055819323
0.0055817151
0.0055814899
0.0055812414
0.0055809723
0.0055807097
0.0055802924
0.005202057
0.0052032047
0.005203194
0.0052039753
0.005204124
0.0052047145
0.0052048903
0.0052052578
0.0052055361
0.0052058916
0.00520632
0.0052067733
0.005207183
0.0052075159
0.0052077566
0.0052079122
0.0052079584
0.005207925
0.0052078282
0.0052077864
0.0052078109
0.0052078552
0.0052079373
0.0052080401
0.0052081701
0.0052082906
0.0052084016
0.0052085023
0.0052085526
0.0052085107
0.0052085114
0.0052085305
0.0052086082
0.0052087466
0.0052089172
0.00520908
0.0052091944
0.0052092551
0.0052092691
0.0052091889
0.0052091318
0.0052091096
0.0052090887
0.0052090562
0.0052089632
0.0052088998
0.0052089171
0.0052089901
0.0052090962
0.0052091984
0.0052092852
0.0052093536
0.0052094196
0.0052094626
0.0052095091
0.0052095414
0.0052095654
0.0052095905
0.0052095614
0.0048745193
0.0048758912
0.0048760541
0.0048769769
0.0048772234
0.0048778028
0.0048780014
0.0048782751
0.0048783936
0.0048785449
0.0048787041
0.0048789505
0.0048792907
0.0048797566
0.004880298
0.0048807901
0.0048812015
0.0048815243
0.0048817673
0.0048819286
0.0048819973
0.0048819752
0.0048819237
0.0048819235
0.0048819462
0.0048819599
0.0048819813
0.0048820459
0.0048821511
0.0048822475
0.0048822531
0.0048822048
0.0048822563
0.0048823789
0.0048826017
0.0048828897
0.0048832113
0.004883515
0.0048837689
0.0048839552
0.004884024
0.0048839865
0.0048839518
0.0048840154
0.0048841985
0.00488446
0.0048847834
0.0048850863
0.0048853319
0.0048855046
0.0048856261
0.0048857096
0.0048858377
0.0048858833
0.0048861247
0.0048861623
0.0048865605
0.0048865654
0.0048870407
0.0045875317
0.0045889923
0.004589232
0.0045901765
0.0045904996
0.0045910897
0.0045914116
0.0045917995
0.0045920708
0.0045923039
0.0045924568
0.0045925851
0.0045926887
0.0045928355
0.0045930465
0.0045933671
0.004593783
0.0045942643
0.0045947407
0.0045951489
0.0045954753
0.0045957197
0.004595894
0.0045960107
0.0045961081
0.0045962173
0.0045963517
0.0045965139
0.0045966947
0.0045968758
0.0045970214
0.0045971016
0.0045971207
0.0045971186
0.0045971753
0.0045972957
0.0045974885
0.0045977196
0.0045980147
0.0045983757
0.004598712
0.0045990135
0.0045993243
0.0045996818
0.0046000926
0.004600444
0.004600733
0.0046009008
0.0046010695
0.0046011453
0.0046013267
0.0046013793
0.0046016289
0.0046016728
0.0046020586
0.004602105
0.0046026758
0.0046027023
0.0046034283
0.004339483
0.0043408983
0.0043411736
0.0043420549
0.004342462
0.0043430802
0.0043435379
0.0043440669
0.0043445436
0.0043449854
0.0043453673
0.0043456791
0.0043459071
0.0043460638
0.004346171
0.0043462601
0.004346368
0.0043465143
0.004346722
0.0043469977
0.004347344
0.0043477421
0.0043481198
0.0043484659
0.0043487887
0.0043491057
0.0043494233
0.0043497402
0.0043500503
0.0043503449
0.0043506138
0.0043508417
0.0043510177
0.0043511159
0.0043511538
0.0043511745
0.0043512069
0.0043512824
0.0043514275
0.0043516637
0.0043519949
0.0043523542
0.0043526822
0.0043529337
0.0043531447
0.0043532827
0.004353443
0.0043535657
0.0043538025
0.0043539632
0.0043542789
0.0043544374
0.0043548225
0.0043549697
0.0043554475
0.0043555664
0.0043561634
0.0043562206
0.004357009
0.0041285581
0.0041298583
0.0041301777
0.0041309758
0.0041313889
0.0041320059
0.0041324607
0.0041330139
0.0041334885
0.0041340168
0.0041345154
0.0041349822
0.0041353892
0.0041357298
0.0041360056
0.0041361955
0.0041363301
0.0041364293
0.0041365338
0.0041366543
0.0041368031
0.0041370052
0.0041372638
0.0041375604
0.0041378611
0.0041381502
0.0041384334
0.0041387227
0.0041390278
0.0041393554
0.0041396951
0.0041400209
0.0041403122
0.0041405568
0.0041407604
0.0041409224
0.0041410527
0.0041411612
0.004141264
0.0041413703
0.0041414829
0.004141596
0.0041417319
0.0041418606
0.0041420264
0.0041421566
0.0041423825
0.0041425458
0.0041428395
0.0041430001
0.0041433396
0.0041434902
0.0041439043
0.0041440558
0.0041445393
0.0041446655
0.0041452491
0.0041453377
0.0041461136
0.003939437
0.0039405836
0.0039409427
0.0039416634
0.0039421214
0.0039426678
0.0039430757
0.0039435035
0.0039438467
0.0039442001
0.0039445317
0.0039448995
0.0039452955
0.0039457227
0.003946116
0.0039464593
0.0039467523
0.0039470132
0.003947258
0.0039474793
0.0039476625
0.0039477972
0.0039479056
0.0039480105
0.0039481165
0.0039482237
0.0039483337
0.0039484544
0.0039485909
0.0039487518
0.0039489501
0.0039491828
0.0039494632
0.0039497688
0.0039500646
0.0039503281
0.0039505649
0.0039507678
0.0039509493
0.0039510888
0.0039512497
0.0039513926
0.0039516009
0.0039517712
0.0039520129
0.0039521919
0.0039524689
0.0039526487
0.0039529505
0.0039531206
0.0039534609
0.0039536455
0.0039540451
0.0039542253
0.0039546859
0.0039548445
0.0039553973
0.0039554932
0.0039562256
0.0037720427
0.0037728377
0.0037731191
0.0037736196
0.003773874
0.003774273
0.0037745052
0.0037747963
0.0037749852
0.0037751751
0.0037753193
0.0037754554
0.003775597
0.0037757646
0.0037759767
0.0037762292
0.0037765121
0.0037767928
0.0037770539
0.0037772785
0.0037774649
0.0037776305
0.0037777663
0.0037778789
0.0037779746
0.0037780498
0.0037781053
0.0037781448
0.0037781739
0.0037782027
0.0037782404
0.0037783005
0.0037783885
0.0037785114
0.0037786597
0.0037788146
0.0037789802
0.0037791187
0.0037792718
0.0037793895
0.0037795412
0.0037796509
0.0037798106
0.0037799091
0.0037800802
0.0037801708
0.0037803569
0.0037804297
0.0037806353
0.0037806941
0.0037809325
0.0037809794
0.0037812518
0.003781278
0.0037815823
0.0037815894
0.0037819537
0.003781936
0.0037823542
0.003683268
0.0036837705
0.0036838932
0.0036842194
0.0036845191
0.0036846739
0.0036849068
0.0036850508
0.0036852401
0.0036853811
0.0036855208
0.0036856315
0.003685728
0.0036858111
0.0036858912
0.0036859736
0.0036860688
0.0036861586
0.0036862367
0.0036863061
0.0036863862
0.0036864704
0.0036865851
0.0036867062
0.0036868291
0.0036869377
0.0036870266
0.0036870968
0.0036871432
0.0036871694
0.0036871796
0.0036871761
0.0036871722
0.0036871802
0.0036871997
0.0036872413
0.0036872767
0.0036873287
0.0036873697
0.0036874152
0.0036874647
0.003687504
0.0036875577
0.0036875961
0.0036876568
0.0036876964
0.0036877502
0.0036878086
0.0036878574
0.0036879272
0.0036879727
0.0036880493
0.0036880783
0.0036881225
0.0036881847
0.003688192
0.0036882056
0.0036881932
0.0036881836
0.0036059389
0.0036070016
0.0036078549
0.0036079192
0.0036086396
0.0036087467
0.0036092892
0.0036094456
0.003609882
0.0036100374
0.0036104165
0.0036105796
0.0036109018
0.0036110636
0.0036113298
0.0036114908
0.0036117105
0.0036118562
0.0036120596
0.003612224
0.0036124283
0.0036126269
0.0036128533
0.0036130916
0.0036133455
0.003613619
0.003613904
0.0036141798
0.0036144448
0.0036146938
0.0036149304
0.0036151593
0.0036153848
0.0036156112
0.0036158475
0.003616093
0.0036163408
0.0036165921
0.0036168452
0.0036171013
0.0036173629
0.0036176278
0.003617899
0.0036181772
0.0036184595
0.0036187549
0.0036190558
0.0036193657
0.0036196915
0.0036200229
0.0036203801
0.0036207425
0.0036211384
0.0036215686
0.0036219847
0.0036224866
0.0036229837
0.0036236651
0.003624361
0.0032709745
0.0032709631
0.0032720222
0.0032725887
0.0032732971
0.003273947
0.0032745604
0.0032751033
0.0032756156
0.0032760896
0.0032765422
0.0032769437
0.0032773047
0.0032776407
0.0032779472
0.0032782287
0.0032784894
0.0032787314
0.0032789506
0.0032791766
0.0032793573
0.0032795288
0.0032796477
0.0032797433
0.0032798253
0.0032798898
0.0032799577
0.0032800367
0.0032801311
0.0032802333
0.0032803199
0.0032804046
0.0032804534
0.0032804979
0.0032805016
0.0032805096
0.0032805065
0.0032804953
0.003280479
0.0032804488
0.0032804078
0.0032803562
0.0032802893
0.0032802092
0.0032801131
0.0032800167
0.0032798972
0.0032797557
0.0032795964
0.0032794076
0.0032792023
0.0032789656
0.0032787118
0.0032784315
0.0032781002
0.003277792
0.0032773258
0.0032770124
0.0032765337
0.0032536459
0.0032503235
0.0032491036
0.0032470376
0.0032456006
0.003244178
0.0032427016
0.0032415392
0.0032403585
0.0032392696
0.0032382087
0.0032372505
0.0032363477
0.0032354659
0.0032346632
0.0032338525
0.0032331343
0.0032324091
0.0032317271
0.0032310674
0.0032304163
0.0032298092
0.0032292072
0.003228667
0.0032280741
0.0032275553
0.0032269885
0.0032264909
0.0032259412
0.0032254559
0.0032249226
0.0032244432
0.0032239246
0.0032234512
0.0032229453
0.0032224821
0.0032219667
0.0032215244
0.0032210063
0.0032205684
0.0032200575
0.0032195909
0.0032190734
0.003218566
0.0032179995
0.0032174603
0.0032168129
0.0032162925
0.0032155388
0.0032149883
0.003214121
0.0032134866
0.0032125083
0.0032117094
0.0032105708
0.0032096423
0.0032082768
0.0032071524
0.0032051814
0.0049092342
0.0049080456
0.0049069056
0.0049059865
0.0049050508
0.0049042069
0.0049033419
0.0049025349
0.0049018441
0.004901209
0.0049005715
0.0048999857
0.0048994539
0.0048989694
0.0048985272
0.0048981026
0.0048977312
0.0048974103
0.0048971229
0.0048968674
0.0048966344
0.0048964323
0.0048962439
0.0048960746
0.0048959289
0.0048957995
0.004895687
0.0048955911
0.0048955112
0.004895447
0.0048953972
0.0048953611
0.0048953406
0.0048953325
0.0048953362
0.0048953548
0.0048953822
0.0048954212
0.0048954686
0.0048955219
0.0048955801
0.0048956471
0.0048957221
0.004895813
0.0048959298
0.0048960695
0.0048962249
0.004896389
0.004896579
0.0048967932
0.004897043
0.0048973097
0.0048976309
0.0048979564
0.0048984009
0.0048987365
0.0048993187
0.0048996561
0.0049002866
0.0031157154
0.0031194161
0.0031192838
0.0031221628
0.0031221509
0.0031241597
0.0031246336
0.0031261642
0.0031264637
0.0031277889
0.0031281204
0.0031292363
0.0031294827
0.0031303828
0.0031306078
0.0031313561
0.0031315589
0.0031321101
0.0031323094
0.0031326988
0.0031328908
0.0031331848
0.0031333479
0.0031335864
0.0031337215
0.0031339114
0.0031340203
0.0031341669
0.0031342508
0.0031343578
0.0031344172
0.0031344897
0.0031345234
0.0031345579
0.0031345594
0.0031345536
0.003134532
0.0031344951
0.003134443
0.0031343757
0.0031342988
0.0031342123
0.0031341185
0.0031340188
0.003133908
0.003133777
0.0031336188
0.0031334469
0.0031332589
0.0031330441
0.0031328121
0.0031325362
0.0031322461
0.0031318896
0.0031315298
0.0031310172
0.0031305618
0.0031297789
0.0031292076
0.021688344
0.021694281
0.021701774
0.021708381
0.021715276
0.021721953
0.021728593
0.021735142
0.021741608
0.021747989
0.021754282
0.021760486
0.021766597
0.021772614
0.021778534
0.021784354
0.021790071
0.021795681
0.02180118
0.021806564
0.021811828
0.021816965
0.021821972
0.021826843
0.021831572
0.021836155
0.021840589
0.02184487
0.021848997
0.021852967
0.021856779
0.021860435
0.021863933
0.021867276
0.021870465
0.021873501
0.021876386
0.021879122
0.021881711
0.021884154
0.021886455
0.021888616
0.021890636
0.02189252
0.021894268
0.021895881
0.021897363
0.021898713
0.021899934
0.021901027
0.021901992
0.021902832
0.021903543
0.021904128
0.0219046
0.021904939
0.021905174
0.021905298
0.021905315
0.01986375
0.019868921
0.019875181
0.019880856
0.019886628
0.019892254
0.019897801
0.019903258
0.019908624
0.0199139
0.019919085
0.019924179
0.019929179
0.019934087
0.019938899
0.019943616
0.019948236
0.019952759
0.019957182
0.019961506
0.019965728
0.019969847
0.019973864
0.019977775
0.019981581
0.019985281
0.019988873
0.019992357
0.019995732
0.019998996
0.020002151
0.020005194
0.020008125
0.020010943
0.020013649
0.020016242
0.020018722
0.020021087
0.020023339
0.020025477
0.020027501
0.020029411
0.020031208
0.020032892
0.020034462
0.02003592
0.020037267
0.020038502
0.020039626
0.02004064
0.020041545
0.02004234
0.020043024
0.020043601
0.020044076
0.020044416
0.020044667
0.020044823
0.020044865
0.018162235
0.018166629
0.018171794
0.018176536
0.018181295
0.018185941
0.018190501
0.018194979
0.018199371
0.018203682
0.018207909
0.018212055
0.018216119
0.0182201
0.018224
0.018227818
0.018231553
0.018235205
0.018238774
0.018242259
0.01824566
0.018248975
0.018252206
0.01825535
0.018258409
0.01826138
0.018264264
0.01826706
0.018269768
0.018272388
0.018274919
0.018277361
0.018279713
0.018281976
0.01828415
0.018286233
0.018288226
0.018290129
0.018291943
0.018293666
0.0182953
0.018296844
0.018298298
0.018299663
0.018300939
0.018302126
0.018303225
0.018304235
0.018305157
0.018305992
0.018306739
0.018307398
0.018307966
0.018308455
0.018308843
0.018309134
0.018309343
0.018309474
0.018309508
0.01656878
0.016572564
0.016576813
0.016580793
0.016584719
0.016588562
0.016592315
0.016595992
0.016599589
0.01660311
0.016606557
0.016609931
0.016613232
0.016616462
0.01661962
0.016622709
0.016625727
0.016628675
0.016631553
0.016634362
0.016637101
0.01663977
0.01664237
0.0166449
0.016647361
0.016649751
0.016652071
0.016654322
0.016656501
0.016658611
0.01666065
0.016662618
0.016664516
0.016666343
0.016668099
0.016669784
0.016671398
0.016672941
0.016674413
0.016675814
0.016677144
0.016678403
0.016679592
0.01668071
0.016681756
0.016682733
0.016683638
0.016684473
0.016685238
0.016685932
0.016686555
0.016687105
0.016687585
0.016687998
0.016688309
0.016688558
0.016688736
0.016688849
0.016688878
0.015087395
0.015090658
0.01509412
0.015097438
0.01510066
0.015103814
0.015106884
0.015109881
0.015112805
0.015115661
0.01511845
0.015121174
0.015123834
0.015126432
0.015128969
0.015131446
0.015133864
0.015136223
0.015138523
0.015140767
0.015142953
0.015145083
0.015147156
0.015149173
0.015151134
0.015153039
0.015154888
0.015156681
0.015158419
0.015160101
0.015161728
0.0151633
0.015164816
0.015166276
0.015167681
0.015169031
0.015170325
0.015171564
0.015172747
0.015173875
0.015174948
0.015175965
0.015176927
0.015177833
0.015178684
0.015179479
0.015180219
0.015180902
0.01518153
0.015182102
0.015182617
0.015183073
0.015183478
0.015183812
0.015184076
0.015184284
0.015184434
0.01518453
0.015184555
0.013710891
0.013713737
0.013716551
0.013719313
0.013721961
0.013724548
0.013727057
0.013729499
0.013731875
0.013734189
0.013736444
0.01373864
0.013740781
0.013742869
0.013744903
0.013746887
0.01374882
0.013750705
0.013752541
0.01375433
0.013756072
0.013757768
0.013759417
0.013761022
0.013762582
0.013764097
0.013765568
0.013766994
0.013768377
0.013769716
0.013771012
0.013772264
0.013773473
0.013774638
0.013775761
0.01377684
0.013777877
0.01377887
0.01377982
0.013780728
0.013781592
0.013782413
0.013783192
0.013783927
0.013784618
0.013785267
0.013785871
0.013786432
0.013786948
0.01378742
0.013787845
0.013788228
0.013788566
0.013788834
0.013789058
0.013789234
0.013789361
0.013789444
0.013789465
0.012437791
0.012440285
0.01244258
0.012444865
0.012447039
0.012449155
0.012451201
0.012453185
0.01245511
0.012456979
0.012458795
0.01246056
0.012462277
0.012463948
0.012465573
0.012467155
0.012468695
0.012470193
0.012471652
0.012473072
0.012474454
0.012475798
0.012477105
0.012478375
0.01247961
0.01248081
0.012481974
0.012483104
0.012484199
0.012485261
0.012486288
0.012487281
0.012488241
0.012489168
0.012490061
0.012490921
0.012491747
0.012492541
0.012493301
0.012494028
0.012494722
0.012495383
0.01249601
0.012496604
0.012497164
0.012497691
0.012498183
0.012498641
0.012499063
0.01249945
0.012499803
0.012500122
0.012500387
0.012500614
0.0125008
0.012500949
0.012501055
0.012501126
0.012501144
0.011263214
0.011265343
0.011267236
0.01126912
0.011270903
0.011272632
0.011274297
0.011275907
0.011277464
0.011278971
0.011280431
0.011281848
0.011283222
0.011284555
0.011285851
0.011287109
0.011288333
0.011289522
0.011290678
0.011291801
0.011292894
0.011293956
0.011294989
0.011295992
0.011296967
0.011297913
0.011298833
0.011299724
0.01130059
0.011301428
0.011302241
0.011303027
0.011303788
0.011304523
0.011305232
0.011305916
0.011306575
0.011307209
0.011307817
0.0113084
0.011308957
0.01130949
0.011309997
0.011310478
0.011310933
0.011311362
0.011311765
0.011312141
0.01131249
0.011312812
0.011313108
0.011313365
0.011313586
0.011313777
0.011313936
0.011314063
0.011314152
0.011314215
0.011314229
0.01018346
0.010185239
0.0101868
0.010188351
0.010189811
0.010191218
0.01019257
0.010193871
0.010195124
0.010196333
0.010197501
0.010198631
0.010199724
0.010200782
0.010201807
0.010202802
0.010203766
0.010204702
0.010205611
0.010206493
0.01020735
0.010208182
0.010208991
0.010209776
0.010210538
0.010211279
0.010211998
0.010212695
0.010213372
0.010214028
0.010214665
0.010215281
0.010215877
0.010216454
0.010217012
0.01021755
0.010218069
0.010218568
0.010219049
0.01021951
0.010219953
0.010220376
0.010220779
0.010221163
0.010221528
0.010221872
0.010222196
0.010222499
0.010222783
0.010223047
0.010223278
0.010223484
0.010223666
0.010223824
0.010223955
0.010224061
0.010224133
0.010224189
0.0102242
0.0091942644
0.0091957411
0.0091970283
0.009198303
0.0091995012
0.0092006489
0.0092017475
0.0092028008
0.0092038124
0.0092047852
0.0092057221
0.0092066254
0.0092074973
0.0092083396
0.0092091541
0.0092099422
0.0092107053
0.0092114447
0.0092121615
0.0092128567
0.0092135312
0.0092141857
0.0092148211
0.009215438
0.0092160369
0.0092166183
0.0092171829
0.0092177312
0.0092182634
0.00921878
0.0092192811
0.0092197671
0.0092202382
0.0092206946
0.0092211364
0.0092215637
0.0092219766
0.0092223753
0.0092227597
0.0092231299
0.0092234857
0.0092238273
0.0092241542
0.0092244665
0.0092247636
0.0092250455
0.0092253123
0.0092255642
0.0092257995
0.0092260079
0.0092261974
0.0092263689
0.0092265222
0.0092266558
0.009226767
0.0092268592
0.0092269186
0.00922697
0.0092269768
0.0082919496
0.0082931743
0.0082942325
0.0082952707
0.0082962472
0.0082971761
0.0082980616
0.0082989069
0.0082997156
0.0083004902
0.0083012336
0.008301948
0.0083026353
0.0083032975
0.0083039361
0.0083045526
0.0083051484
0.0083057245
0.0083062819
0.0083068216
0.0083073443
0.0083078508
0.0083083419
0.008308818
0.00830928
0.0083097285
0.0083101641
0.0083105873
0.0083109982
0.0083113971
0.0083117842
0.0083121599
0.0083125243
0.0083128778
0.0083132205
0.0083135524
0.0083138739
0.0083141848
0.0083144853
0.0083147752
0.0083150545
0.0083153231
0.0083155807
0.0083158271
0.0083160621
0.0083162869
0.0083165009
0.0083166986
0.0083168786
0.0083170463
0.0083172005
0.0083173411
0.0083174669
0.0083175776
0.008317669
0.0083177473
0.0083177941
0.0083178419
0.008317842
0.0074694574
0.0074704713
0.0074713496
0.0074721942
0.0074729903
0.0074737434
0.0074744586
0.0074751381
0.0074757856
0.0074764033
0.0074769937
0.0074775589
0.0074781007
0.0074786211
0.0074791217
0.0074796041
0.0074800695
0.0074805188
0.0074809526
0.0074813716
0.0074817765
0.0074821681
0.007482547
0.0074829142
0.0074832705
0.0074836169
0.0074839539
0.0074842815
0.0074845996
0.0074849081
0.0074852077
0.0074854989
0.0074857821
0.0074860573
0.0074863247
0.0074865845
0.0074868368
0.0074870815
0.0074873183
0.0074875473
0.0074877685
0.0074879819
0.0074881873
0.0074883852
0.0074885757
0.0074887573
0.0074889243
0.0074890837
0.0074892337
0.0074893741
0.0074895043
0.0074896241
0.0074897321
0.0074898291
0.0074899083
0.0074899823
0.0074900199
0.0074900695
0.0074900653
0.0067244353
0.0067252639
0.0067260161
0.0067267209
0.0067273806
0.0067280014
0.0067285886
0.0067291428
0.0067296689
0.0067301679
0.0067306426
0.0067310945
0.0067315253
0.0067319365
0.0067323301
0.0067327079
0.0067330714
0.0067334214
0.0067337587
0.0067340839
0.0067343983
0.0067347025
0.0067349978
0.006735285
0.0067355653
0.0067358392
0.0067361062
0.0067363655
0.0067366167
0.0067368606
0.0067370989
0.0067373327
0.0067375621
0.006737787
0.006738007
0.0067382222
0.0067384325
0.0067386374
0.0067388365
0.0067390297
0.0067392161
0.0067393936
0.0067395623
0.0067397235
0.0067398753
0.0067400211
0.0067401616
0.0067402964
0.0067404249
0.0067405458
0.0067406579
0.0067407627
0.006740856
0.0067409431
0.006741012
0.0067410846
0.0067411145
0.0067411683
0.0067411703
0.0060729388
0.0060735979
0.0060742234
0.0060748316
0.0060754014
0.0060759377
0.0060764483
0.0060769298
0.0060773892
0.0060778255
0.0060782426
0.0060786404
0.0060790201
0.0060793813
0.0060797235
0.0060800457
0.006080349
0.0060806359
0.0060809112
0.0060811797
0.0060814436
0.006081703
0.0060819565
0.0060822026
0.0060824396
0.0060826659
0.0060828804
0.0060830825
0.0060832742
0.0060834598
0.0060836405
0.0060838136
0.0060839781
0.0060841348
0.0060842843
0.0060844266
0.0060845619
0.0060846901
0.0060848115
0.0060849261
0.0060850346
0.0060851408
0.0060852434
0.0060853432
0.0060854446
0.0060855522
0.0060856629
0.0060857701
0.0060858686
0.0060859537
0.0060860231
0.0060860848
0.0060861311
0.0060861806
0.0060862132
0.0060862672
0.0060862934
0.0060863665
0.0060863825
0.024110677
0.026791418
0.029789869
0.033068883
0.036642496
0.040537944
0.04477183
0.049359283
0.054314245
0.059647808
0.065367878
0.071474754
0.07796402
0.084819222
0.092014612
0.099507853
0.10724288
0.11514106
0.12310567
0.13101198
0.13871512
0.14603891
0.15281359
0.15878532
0.16375214
0.16749612
0.16973565
0.17031966
0.16910966
0.16587679
0.16056465
0.15319156
0.143761
0.13232137
0.11907766
0.10421473
0.087963745
0.070573645
0.052222475
0.033144375
0.013633241
-0.0060624372
-0.025773963
-0.045359941
-0.064601825
-0.083353973
-0.10157684
-0.11925223
-0.13634639
-0.15271364
-0.16830552
-0.18313493
-0.19721056
-0.21052926
-0.22312097
-0.23496029
-0.24603307
-0.25642857
-0.26620356
-0.27536309
-0.283932
-0.29193673
-0.29940892
-0.30637149
-0.31287417
-0.31894581
-0.32458412
-0.32981928
-0.33468401
-0.33920285
-0.34339696
-0.34729135
-0.35089961
-0.35425895
0.024110651
0.026791401
0.029789837
0.033068844
0.036642457
0.040537907
0.044771797
0.049359255
0.054314224
0.059647794
0.065367874
0.07147478
0.07796407
0.084819305
0.092014736
0.099508034
0.10724312
0.11514138
0.12310607
0.13101251
0.13871567
0.14603963
0.15281432
0.15878608
0.16375302
0.16749705
0.16973652
0.1703205
0.16911048
0.16587799
0.16056643
0.15319207
0.14375854
0.13232169
0.11907831
0.10421514
0.087959835
0.070564912
0.052214072
0.033141013
0.013633648
-0.0060624583
-0.025774131
-0.045363507
-0.064609259
-0.083363192
-0.10158281
-0.11925173
-0.1363448
-0.15271456
-0.16830914
-0.18313999
-0.19721604
-0.21053545
-0.22312753
-0.23496396
-0.24603403
-0.2564305
-0.26620912
-0.2753703
-0.28394002
-0.29194535
-0.29941746
-0.30637968
-0.31288668
-0.31896257
-0.3245996
-0.32983291
-0.33469643
-0.33921428
-0.34340738
-0.34730058
-0.35090734
-0.35426595
0.024110447
0.026791217
0.029789612
0.033068592
0.036642184
0.040537613
0.04477148
0.049358914
0.054313862
0.059647415
0.065367479
0.071474372
0.077963647
0.084818878
0.09201431
0.099507626
0.10724274
0.11514106
0.12310583
0.13101239
0.1387158
0.14603986
0.15281506
0.15878726
0.16375445
0.16749899
0.16973892
0.1703235
0.16911422
0.16588239
0.16057128
0.15319629
0.14376354
0.13232846
0.11908539
0.10422265
0.087967488
0.07057097
0.05221982
0.033147945
0.013640303
-0.0060576617
-0.025770476
-0.045355788
-0.064600748
-0.083362036
-0.10159091
-0.11926504
-0.13635088
-0.15271496
-0.16830476
-0.18313545
-0.19721111
-0.2105296
-0.22313012
-0.23497484
-0.24604046
-0.25642836
-0.26620196
-0.27536254
-0.28393155
-0.29193597
-0.29940764
-0.30635698
-0.31285615
-0.31894122
-0.32458266
-0.32981808
-0.33468299
-0.33920217
-0.34339743
-0.34729218
-0.3509028
-0.35426795
0.024110014
0.026790907
0.029789217
0.033068152
0.036641711
0.040537103
0.04477093
0.049358324
0.054313223
0.059646724
0.065366735
0.071473586
0.07796282
0.084818027
0.092013446
0.099506776
0.10724193
0.11514034
0.12310524
0.13101205
0.13871576
0.14604092
0.15281616
0.15878881
0.16375687
0.16750251
0.16974341
0.17032922
0.16912142
0.16589102
0.16058146
0.15320719
0.14377506
0.13234217
0.11910047
0.10423899
0.087983472
0.070584004
0.052232038
0.033162496
0.013656975
-0.0060410417
-0.025753699
-0.045335639
-0.064581986
-0.083349824
-0.10158611
-0.11926089
-0.13633703
-0.15269823
-0.16829106
-0.18312407
-0.19720052
-0.21052022
-0.22310966
-0.23494466
-0.24602257
-0.2564296
-0.26620916
-0.27537436
-0.28394583
-0.29195194
-0.29942459
-0.30638728
-0.31289093
-0.31895945
-0.32459231
-0.32982404
-0.33468545
-0.33920008
-0.3433903
-0.34728074
-0.35088898
-0.3542376
0.024109402
0.026790454
0.029788644
0.033067507
0.036641001
0.040536319
0.044770066
0.049357376
0.05431219
0.059645611
0.065365535
0.071472316
0.077961476
0.084816637
0.092012024
0.099505373
0.10724059
0.11513914
0.12310422
0.1310113
0.13871543
0.1460411
0.15281746
0.15879106
0.1637605
0.16750785
0.16975035
0.17033819
0.16913291
0.16590488
0.16059784
0.15322502
0.14379452
0.1323651
0.11912568
0.10426598
0.08801073
0.070609359
0.052257643
0.033190948
0.013687111
-0.0060118972
-0.025725456
-0.045304754
-0.064551668
-0.083325337
-0.10156836
-0.11924576
-0.13631715
-0.15267592
-0.16826913
-0.18310155
-0.19717721
-0.21049563
-0.2230791
-0.23491731
-0.24601163
-0.25642369
-0.26619632
-0.275358
-0.28392682
-0.29193071
-0.29940244
-0.30636631
-0.31286285
-0.31892187
-0.32455484
-0.3297888
-0.3346519
-0.33916847
-0.34336147
-0.3472535
-0.35086387
-0.35421373
0.024108648
0.026789844
0.029787891
0.033066658
0.036640063
0.040535282
0.04476892
0.049356114
0.054310804
0.059644099
0.06536388
0.071470536
0.077959563
0.084814623
0.092009923
0.099503251
0.10723849
0.11513719
0.12310253
0.13101012
0.13871485
0.14604167
0.15281913
0.15879417
0.16376559
0.16751546
0.16976041
0.17035137
0.16914991
0.16592549
0.1606223
0.15325238
0.14382494
0.13240023
0.11916418
0.10430729
0.088053217
0.070650417
0.05229906
0.033235245
0.013733357
-0.0059660861
-0.025679939
-0.045256174
-0.064503823
-0.083284069
-0.10153479
-0.11921523
-0.13628053
-0.1526351
-0.16822873
-0.18306227
-0.19713866
-0.21045772
-0.22303715
-0.23487363
-0.24597324
-0.25639009
-0.26616858
-0.27533412
-0.28390729
-0.29191495
-0.29938871
-0.30635752
-0.31285389
-0.31890787
-0.32453927
-0.32977128
-0.33463171
-0.33914596
-0.34333668
-0.34722639
-0.3508347
-0.35418276
0.024107758
0.026789064
0.029786947
0.033065592
0.036638879
0.040533965
0.044767456
0.049354492
0.054309011
0.059642129
0.065361714
0.071468194
0.077957033
0.084811945
0.092007116
0.099500395
0.10723566
0.11513453
0.12310018
0.13100836
0.13871389
0.14604192
0.1528211
0.15879828
0.16377248
0.16752593
0.1697744
0.17036986
0.16917394
0.16595476
0.16065723
0.15329203
0.1438694
0.13245116
0.11922016
0.10436749
0.088115706
0.070712406
0.052362218
0.033302074
0.013802738
-0.0058969062
-0.025611261
-0.045185107
-0.06443408
-0.083221188
-0.1014795
-0.11916288
-0.13622328
-0.15257518
-0.16817029
-0.18300515
-0.19708173
-0.21040056
-0.22297619
-0.23481258
-0.24592164
-0.25634794
-0.26613009
-0.27529436
-0.28386505
-0.2918706
-0.29934256
-0.30631005
-0.31280362
-0.31885237
-0.3244796
-0.32971001
-0.33457016
-0.33908477
-0.34327649
-0.34716773
-0.35077805
-0.35412979
0.024106721
0.026788102
0.029785801
0.033064293
0.036637431
0.040532346
0.044765648
0.049352478
0.054306773
0.059639656
0.065358981
0.071465216
0.077953795
0.084808489
0.092003466
0.099496649
0.10723191
0.11513096
0.123097
0.13100593
0.13871247
0.14604214
0.15282364
0.15880368
0.16378164
0.16753998
0.16979335
0.1703951
0.16920694
0.16599517
0.16070566
0.15334763
0.14393226
0.13252291
0.11929919
0.10445265
0.088204835
0.070802363
0.052454386
0.033398644
0.013902324
-0.0057972048
-0.02551192
-0.045083515
-0.064333859
-0.083127918
-0.10139404
-0.119081
-0.13613758
-0.15248686
-0.1680829
-0.18291895
-0.19699612
-0.21031558
-0.22288978
-0.23472738
-0.24584343
-0.25627538
-0.26605994
-0.27522554
-0.28379848
-0.29180725
-0.29928212
-0.30625244
-0.31274762
-0.31879593
-0.32442291
-0.32965376
-0.334514
-0.33902821
-0.34321927
-0.34710971
-0.35071896
-0.35406988
0.024105535
0.026786956
0.029784443
0.033062749
0.0366357
0.040530403
0.044763466
0.049350036
0.054304045
0.059636624
0.065355609
0.071461518
0.077949752
0.084804141
0.091998844
0.099491868
0.10722708
0.11512634
0.12309282
0.13100267
0.13871057
0.14604243
0.15282669
0.15881064
0.1637936
0.16755852
0.16981853
0.17042887
0.16925142
0.16604986
0.16077149
0.1534239
0.14401905
0.13262178
0.11940835
0.10457059
0.088328993
0.070929291
0.05258501
0.033534842
0.014042476
-0.0056562552
-0.025371059
-0.044940751
-0.064192896
-0.082994285
-0.10126853
-0.11895949
-0.13601333
-0.15236075
-0.16795847
-0.18279673
-0.19687536
-0.2101961
-0.22277009
-0.23460941
-0.24573206
-0.25617114
-0.2659606
-0.27512889
-0.28370317
-0.29171234
-0.29918661
-0.30615568
-0.3126487
-0.31869389
-0.32431795
-0.32954673
-0.3344057
-0.3389194
-0.34311071
-0.34700208
-0.35061288
-0.35396575
0.024104202
0.026785619
0.029782865
0.033060945
0.036633666
0.040528106
0.044760875
0.049347119
0.054300768
0.059632961
0.065351516
0.071457001
0.077944782
0.084798763
0.091993092
0.099485872
0.10722099
0.11512044
0.12308746
0.13099844
0.13870803
0.14604273
0.15283033
0.15881954
0.16380906
0.16758268
0.16985162
0.17047348
0.1693104
0.16612274
0.16085962
0.1535268
0.14413681
0.13275589
0.11955678
0.10473135
0.088499178
0.071104879
0.052766426
0.033723443
0.014236213
-0.0054608974
-0.025175451
-0.044743569
-0.063997808
-0.082806638
-0.10108912
-0.11878461