/*--------------------------------*- C++ -*----------------------------------*\
| =========                 |                                                 |
| \\      /  F ield         | OpenFOAM: The Open Source CFD Toolbox           |
|  \\    /   O peration     | Version:  v2006                                 |
|   \\  /    A nd           | Website:  www.openfoam.com                      |
|    \\/     M anipulation  |                                                 |
\*---------------------------------------------------------------------------*/
FoamFile
{
    version     2.0;
    format      ascii;
    class       volScalarField;
    location    "4000";
    object      k;
}
// * * * * * * * * * * * * * * * * * * * * * * * * * * * * * * * * * * * * * //

dimensions      [0 2 -2 0 0 0 0];


internalField   nonuniform List<scalar> 
55713
(
1.5600365e-09
3.9886989e-09
1.3278488e-08
2.0754496e-08
2.4165829e-08
2.5102924e-08
2.5115495e-08
2.4964519e-08
2.4869657e-08
2.4836925e-08
2.4832727e-08
2.4835029e-08
2.4836619e-08
2.4836773e-08
2.4836393e-08
2.4836442e-08
2.4836862e-08
2.4837288e-08
2.483744e-08
2.4837305e-08
2.4837107e-08
2.4836993e-08
2.4836941e-08
2.483687e-08
2.4836773e-08
2.4836641e-08
2.4836499e-08
2.4836321e-08
2.4836125e-08
2.4835883e-08
2.4835624e-08
2.4835344e-08
2.4835059e-08
2.4834785e-08
2.4834554e-08
2.4834354e-08
2.4834033e-08
2.4833558e-08
2.4832982e-08
2.4832358e-08
2.4831742e-08
2.4831119e-08
2.4830441e-08
2.482971e-08
2.4828987e-08
2.4828279e-08
2.4827578e-08
2.4826875e-08
2.4826156e-08
2.4825404e-08
2.4824621e-08
2.4823802e-08
2.4822958e-08
2.4822096e-08
2.4821222e-08
2.4820341e-08
2.4819502e-08
2.4818721e-08
2.4817966e-08
1.7204694e-09
5.324719e-09
1.5759419e-08
2.3002561e-08
2.5854299e-08
2.6447443e-08
2.6352482e-08
2.6202641e-08
2.6129379e-08
2.6109527e-08
2.6109e-08
2.6110783e-08
2.6111095e-08
2.6110158e-08
2.6109155e-08
2.6108716e-08
2.6108693e-08
2.6108573e-08
2.6108077e-08
2.6107352e-08
2.6106648e-08
2.6106046e-08
2.6105495e-08
2.6104926e-08
2.6104338e-08
2.6103726e-08
2.6103106e-08
2.6102456e-08
2.610179e-08
2.6101079e-08
2.610035e-08
2.60996e-08
2.6098836e-08
2.6098084e-08
2.6097375e-08
2.6096747e-08
2.6095975e-08
2.609501e-08
2.6093922e-08
2.6092768e-08
2.6091616e-08
2.6090465e-08
2.6089248e-08
2.6087945e-08
2.608662e-08
2.6085297e-08
2.6083969e-08
2.6082619e-08
2.6081228e-08
2.6079776e-08
2.6078255e-08
2.6076653e-08
2.6074968e-08
2.607321e-08
2.6071373e-08
2.6069443e-08
2.6067449e-08
2.6065403e-08
2.6063294e-08
1.9659554e-09
6.9505252e-09
1.8382926e-08
2.524959e-08
2.7543799e-08
2.7859083e-08
2.7702139e-08
2.7567743e-08
2.7515142e-08
2.7504668e-08
2.7505644e-08
2.7506369e-08
2.7505224e-08
2.7503395e-08
2.7501857e-08
2.7500951e-08
2.7500366e-08
2.7499581e-08
2.7498445e-08
2.7497152e-08
2.749593e-08
2.7494816e-08
2.7493748e-08
2.7492663e-08
2.7491571e-08
2.749046e-08
2.7489348e-08
2.7488208e-08
2.7487058e-08
2.7485864e-08
2.7484654e-08
2.748342e-08
2.7482171e-08
2.7480926e-08
2.7479726e-08
2.7478644e-08
2.7477445e-08
2.7475979e-08
2.7474366e-08
2.7472668e-08
2.7470967e-08
2.7469278e-08
2.7467522e-08
2.7465642e-08
2.7463703e-08
2.7461755e-08
2.7459792e-08
2.7457791e-08
2.7455727e-08
2.7453572e-08
2.7451316e-08
2.7448933e-08
2.7446411e-08
2.7443755e-08
2.744096e-08
2.7437987e-08
2.7434849e-08
2.7431546e-08
2.7428078e-08
2.3268158e-09
9.0129299e-09
2.1256968e-08
2.754796e-08
2.9284066e-08
2.9377132e-08
2.9193258e-08
2.9083298e-08
2.9049075e-08
2.9044775e-08
2.9045686e-08
2.9044777e-08
2.9042382e-08
2.9039848e-08
2.9037799e-08
2.9036398e-08
2.9035217e-08
2.9033761e-08
2.9031975e-08
2.9030109e-08
2.9028361e-08
2.9026728e-08
2.902513e-08
2.9023528e-08
2.9021921e-08
2.9020311e-08
2.9018696e-08
2.9017067e-08
2.9015426e-08
2.9013745e-08
2.9012048e-08
2.9010329e-08
2.9008592e-08
2.900685e-08
2.9005151e-08
2.9003602e-08
2.9002009e-08
2.9000044e-08
2.89979e-08
2.8995649e-08
2.8993385e-08
2.8991156e-08
2.8988867e-08
2.8986418e-08
2.8983858e-08
2.8981277e-08
2.8978675e-08
2.8976021e-08
2.897328e-08
2.8970423e-08
2.896743e-08
2.896427e-08
2.8960908e-08
2.8957349e-08
2.895359e-08
2.8949572e-08
2.8945277e-08
2.8940712e-08
2.8935867e-08
2.8430011e-09
1.1563772e-08
2.4336945e-08
2.9882832e-08
3.109974e-08
3.1034409e-08
3.0853152e-08
3.0771086e-08
3.0751122e-08
3.0750017e-08
3.0749624e-08
3.0746997e-08
3.0743686e-08
3.0740522e-08
3.0737958e-08
3.0736039e-08
3.0734225e-08
3.0732071e-08
3.0729639e-08
3.0727211e-08
3.0724937e-08
3.0722778e-08
3.0720646e-08
3.0718524e-08
3.0716403e-08
3.0714292e-08
3.0712175e-08
3.0710057e-08
3.0707924e-08
3.0705764e-08
3.0703583e-08
3.070138e-08
3.0699155e-08
3.0696922e-08
3.0694725e-08
3.0692705e-08
3.0690742e-08
3.0688309e-08
3.0685637e-08
3.0682831e-08
3.0680002e-08
3.0677236e-08
3.0674433e-08
3.0671438e-08
3.0668271e-08
3.0665062e-08
3.0661833e-08
3.065854e-08
3.0655138e-08
3.0651594e-08
3.0647883e-08
3.0643969e-08
3.0639792e-08
3.0635349e-08
3.0630647e-08
3.0625614e-08
3.0620187e-08
3.061439e-08
3.0608192e-08
3.5760703e-09
1.4672807e-08
2.7596887e-08
3.2272531e-08
3.3033899e-08
3.2870721e-08
3.2712768e-08
3.2657266e-08
3.2647109e-08
3.2646526e-08
3.264418e-08
3.2640287e-08
3.2636228e-08
3.2632466e-08
3.2629388e-08
3.2626937e-08
3.2624454e-08
3.26216e-08
3.2618541e-08
3.2615572e-08
3.261278e-08
3.2610096e-08
3.260744e-08
3.2604805e-08
3.2602182e-08
3.2599577e-08
3.2596972e-08
3.2594375e-08
3.2591765e-08
3.258914e-08
3.2586488e-08
3.2583819e-08
3.2581123e-08
3.2578413e-08
3.2575729e-08
3.2573239e-08
3.2570936e-08
3.2568101e-08
3.2564915e-08
3.2561559e-08
3.2558171e-08
3.2554882e-08
3.2551603e-08
3.2548109e-08
3.2544366e-08
3.2540546e-08
3.2536717e-08
3.2532813e-08
3.2528786e-08
3.2524589e-08
3.2520197e-08
3.2515572e-08
3.251063e-08
3.2505345e-08
3.2499742e-08
3.2493751e-08
3.2487245e-08
3.2480275e-08
3.2472776e-08
4.6197927e-09
1.8400759e-08
3.0971733e-08
3.4756475e-08
3.5135764e-08
3.4929501e-08
3.480676e-08
3.4773041e-08
3.4768386e-08
3.4766458e-08
3.4762367e-08
3.4757504e-08
3.4752791e-08
3.4748456e-08
3.474489e-08
3.4741894e-08
3.4738724e-08
3.4735185e-08
3.4731541e-08
3.4728063e-08
3.4724775e-08
3.4721582e-08
3.4718426e-08
3.4715301e-08
3.4712201e-08
3.4709125e-08
3.4706061e-08
3.4703008e-08
3.469995e-08
3.4696888e-08
3.4693796e-08
3.4690692e-08
3.468756e-08
3.4684407e-08
3.4681269e-08
3.4678324e-08
3.4675707e-08
3.4672591e-08
3.4668921e-08
3.4665036e-08
3.4661107e-08
3.4657322e-08
3.4653624e-08
3.4649708e-08
3.4645448e-08
3.4641059e-08
3.4636683e-08
3.4632224e-08
3.4627634e-08
3.4622849e-08
3.4617842e-08
3.4612582e-08
3.4606961e-08
3.4600918e-08
3.459449e-08
3.4587647e-08
3.4580158e-08
3.4572126e-08
3.4563431e-08
6.1338448e-09
2.2795091e-08
3.4624366e-08
3.7394964e-08
3.7462946e-08
3.7260542e-08
3.7175527e-08
3.7157058e-08
3.7154255e-08
3.7150275e-08
3.7144852e-08
3.7139266e-08
3.7133995e-08
3.7129126e-08
3.7125116e-08
3.7121575e-08
3.711772e-08
3.7113554e-08
3.7109392e-08
3.710546e-08
3.7101709e-08
3.7098052e-08
3.7094435e-08
3.709087e-08
3.7087335e-08
3.7083842e-08
3.708036e-08
3.7076907e-08
3.7073446e-08
3.7070002e-08
3.7066523e-08
3.7063042e-08
3.705953e-08
3.7055996e-08
3.7052461e-08
3.7049109e-08
3.7046201e-08
3.704298e-08
3.7038901e-08
3.703453e-08
3.7030094e-08
3.7025864e-08
3.7021824e-08
3.7017614e-08
3.7012938e-08
3.7008056e-08
3.7003222e-08
3.69983e-08
3.6993252e-08
3.6987988e-08
3.6982473e-08
3.69767e-08
3.6970538e-08
3.6963884e-08
3.6956753e-08
3.6949225e-08
3.6940919e-08
3.6932006e-08
3.6922295e-08
8.4485461e-09
2.7875168e-08
3.8329766e-08
4.018594e-08
4.0086085e-08
3.9920666e-08
3.986761e-08
3.9858166e-08
3.9854567e-08
3.9848735e-08
3.984247e-08
3.9836353e-08
3.9830638e-08
3.9825298e-08
3.9820923e-08
3.9816849e-08
3.9812358e-08
3.9807668e-08
3.9803092e-08
3.9798783e-08
3.9794638e-08
3.979059e-08
3.978659e-08
3.9782663e-08
3.9778771e-08
3.9774939e-08
3.977112e-08
3.976735e-08
3.9763569e-08
3.975983e-08
3.9756049e-08
3.9752286e-08
3.9748487e-08
3.9744672e-08
3.9740837e-08
3.9737168e-08
3.9734031e-08
3.9730871e-08
3.9726576e-08
3.9721795e-08
3.9716917e-08
3.971232e-08
3.9708052e-08
3.9703736e-08
3.9698806e-08
3.9693559e-08
3.9688413e-08
3.9683169e-08
3.9677828e-08
3.9672259e-08
3.966641e-08
3.966031e-08
3.9653816e-08
3.9646787e-08
3.9639153e-08
3.9631197e-08
3.9622342e-08
3.9612823e-08
3.9602391e-08
1.2330892e-08
3.3608319e-08
4.2191448e-08
4.3264142e-08
4.3090804e-08
4.2973659e-08
4.2943845e-08
4.2938714e-08
4.293318e-08
4.292609e-08
4.2919392e-08
4.2912969e-08
4.2906945e-08
4.2901249e-08
4.2896644e-08
4.289208e-08
4.2887074e-08
4.2882027e-08
4.2877182e-08
4.2872617e-08
4.2868195e-08
4.2863878e-08
4.2859623e-08
4.2855458e-08
4.2851337e-08
4.2847294e-08
4.2843267e-08
4.283931e-08
4.2835344e-08
4.2831442e-08
4.2827496e-08
4.28236e-08
4.2819656e-08
4.2815717e-08
4.2811736e-08
4.2807901e-08
4.2804634e-08
4.2801725e-08
4.279757e-08
4.2792498e-08
4.2787283e-08
4.2782454e-08
4.2778111e-08
4.2773954e-08
4.2769033e-08
4.2763622e-08
4.2758395e-08
4.2753041e-08
4.274766e-08
4.2742056e-08
4.2736138e-08
4.2729997e-08
4.2723476e-08
4.2716444e-08
4.2708626e-08
4.2700612e-08
4.2691638e-08
4.2681923e-08
4.2671227e-08
1.8620199e-08
3.9880595e-08
4.624151e-08
4.6734421e-08
4.6568622e-08
4.6498889e-08
4.6483157e-08
4.6479072e-08
4.6471636e-08
4.6464117e-08
4.6457403e-08
4.6450926e-08
4.644479e-08
4.6438952e-08
4.6434349e-08
4.64294e-08
4.6424102e-08
4.6418936e-08
4.6414042e-08
4.6409409e-08
4.6404906e-08
4.6400517e-08
4.6396207e-08
4.6392e-08
4.638785e-08
4.6383794e-08
4.6379764e-08
4.6375825e-08
4.6371882e-08
4.6368026e-08
4.6364129e-08
4.6360315e-08
4.6356445e-08
4.6352623e-08
4.6348729e-08
4.6344972e-08
4.6341752e-08
4.6339283e-08
4.6335838e-08
4.6330693e-08
4.63253e-08
4.6320464e-08
4.6316299e-08
4.6312574e-08
4.6308123e-08
4.6302848e-08
4.6297905e-08
4.6292755e-08
4.6287707e-08
4.6282481e-08
4.6276897e-08
4.6271143e-08
4.626504e-08
4.6258542e-08
4.625108e-08
4.6243512e-08
4.6235103e-08
4.6225771e-08
4.6215512e-08
2.6967336e-08
4.6555909e-08
5.0601257e-08
5.0741355e-08
5.0629192e-08
5.0595448e-08
5.0586467e-08
5.0582187e-08
5.0573717e-08
5.0566727e-08
5.0560551e-08
5.0554221e-08
5.0548347e-08
5.0542745e-08
5.0538524e-08
5.0533447e-08
5.0528199e-08
5.0523279e-08
5.0518668e-08
5.0514274e-08
5.0509999e-08
5.0505853e-08
5.0501799e-08
5.049786e-08
5.0493991e-08
5.0490234e-08
5.0486512e-08
5.0482904e-08
5.0479301e-08
5.0475812e-08
5.0472288e-08
5.0468883e-08
5.0465423e-08
5.0462063e-08
5.0458616e-08
5.0455309e-08
5.0452448e-08
5.0450686e-08
5.0448567e-08
5.0443852e-08
5.0438543e-08
5.0434051e-08
5.0430448e-08
5.0427458e-08
5.0424217e-08
5.0419482e-08
5.0415394e-08
5.0410894e-08
5.0406712e-08
5.0402462e-08
5.039781e-08
5.0393047e-08
5.0388023e-08
5.0382755e-08
5.0376564e-08
5.0370086e-08
5.0363292e-08
5.0355133e-08
5.0346352e-08
3.8761027e-08
5.3555358e-08
5.5458896e-08
5.5445994e-08
5.5396252e-08
5.5383789e-08
5.5377621e-08
5.5373019e-08
5.5365405e-08
5.5360158e-08
5.5355257e-08
5.5349536e-08
5.5344594e-08
5.5339874e-08
5.5336633e-08
5.5331947e-08
5.5327368e-08
5.5323265e-08
5.5319442e-08
5.5315788e-08
5.5312252e-08
5.5308844e-08
5.5305541e-08
5.5302352e-08
5.5299253e-08
5.5296266e-08
5.5293339e-08
5.5290527e-08
5.5287754e-08
5.5285097e-08
5.5282447e-08
5.5279929e-08
5.5277388e-08
5.5274972e-08
5.5272513e-08
5.5270194e-08
5.5268233e-08
5.5267446e-08
5.5267194e-08
5.5263795e-08
5.5259174e-08
5.5255593e-08
5.5253058e-08
5.525133e-08
5.524994e-08
5.5246441e-08
5.5244049e-08
5.5240854e-08
5.5238259e-08
5.5235711e-08
5.5232868e-08
5.5229874e-08
5.5226869e-08
5.5223673e-08
5.5219982e-08
5.5215502e-08
5.5211646e-08
5.5205931e-08
5.5200062e-08
5.4281447e-08
6.0643022e-08
6.1025397e-08
6.0994624e-08
6.0985391e-08
6.0981088e-08
6.0977909e-08
6.0974647e-08
6.0969598e-08
6.0967236e-08
6.0964426e-08
6.0960501e-08
6.0957412e-08
6.0954788e-08
6.0953208e-08
6.0949902e-08
6.0947154e-08
6.0944796e-08
6.0942593e-08
6.0940509e-08
6.093852e-08
6.0936644e-08
6.093486e-08
6.0933182e-08
6.0931593e-08
6.0930101e-08
6.0928696e-08
6.0927381e-08
6.0926149e-08
6.0925004e-08
6.0923935e-08
6.0922968e-08
6.0922051e-08
6.0921237e-08
6.0920462e-08
6.0919794e-08
6.0919384e-08
6.0919789e-08
6.0921324e-08
6.0920454e-08
6.0918026e-08
6.0916527e-08
6.0915825e-08
6.0916052e-08
6.0916427e-08
6.0915735e-08
6.0915869e-08
6.0915152e-08
6.0915049e-08
6.0915043e-08
6.0915003e-08
6.0914831e-08
6.0914864e-08
6.0914772e-08
6.0914696e-08
6.0913901e-08
6.0914002e-08
6.0912816e-08
6.091179e-08
1.5319943e-08
1.5319546e-08
1.5319229e-08
1.5319746e-08
1.5320086e-08
1.5320518e-08
1.5320941e-08
1.5321379e-08
1.532182e-08
1.5322262e-08
1.5322698e-08
1.5323129e-08
1.5323551e-08
1.5323967e-08
1.5324375e-08
1.532478e-08
1.5325182e-08
1.5325581e-08
1.532597e-08
1.5326335e-08
1.5326669e-08
1.5326968e-08
1.5327222e-08
1.5327426e-08
1.5327581e-08
1.5327696e-08
1.5327778e-08
1.5327835e-08
1.5327871e-08
1.5327883e-08
1.5327863e-08
1.5327806e-08
1.5327709e-08
1.5327578e-08
1.5327425e-08
1.5327265e-08
1.5327094e-08
1.5326879e-08
1.5326587e-08
1.5326213e-08
1.5325744e-08
1.5325042e-08
1.532389e-08
1.5322629e-08
1.5323646e-08
1.5333057e-08
1.5360088e-08
1.5409759e-08
1.5464518e-08
1.5454834e-08
1.5228373e-08
1.4539405e-08
1.3090538e-08
1.0665954e-08
7.3718365e-09
3.8942519e-09
1.6016711e-09
1.4067893e-09
9.1306582e-09
1.5582733e-08
1.5582398e-08
1.5582405e-08
1.5582854e-08
1.5583246e-08
1.5583676e-08
1.5584112e-08
1.5584556e-08
1.5585003e-08
1.5585449e-08
1.5585889e-08
1.5586322e-08
1.5586746e-08
1.5587163e-08
1.5587574e-08
1.5587981e-08
1.5588386e-08
1.5588788e-08
1.558918e-08
1.5589547e-08
1.5589882e-08
1.5590182e-08
1.5590438e-08
1.5590643e-08
1.55908e-08
1.5590914e-08
1.5590994e-08
1.5591049e-08
1.5591083e-08
1.5591092e-08
1.5591069e-08
1.5591008e-08
1.5590908e-08
1.5590775e-08
1.559062e-08
1.5590456e-08
1.5590281e-08
1.5590064e-08
1.5589769e-08
1.5589382e-08
1.5588881e-08
1.5588151e-08
1.5587045e-08
1.5585945e-08
1.5587095e-08
1.5596135e-08
1.562174e-08
1.5669345e-08
1.5724437e-08
1.5724309e-08
1.5525731e-08
1.4888447e-08
1.3507031e-08
1.1132934e-08
7.8204989e-09
4.2211491e-09
1.6887074e-09
1.2690016e-09
7.7625213e-09
1.5875609e-08
1.5875331e-08
1.5875455e-08
1.5875892e-08
1.5876308e-08
1.5876746e-08
1.5877193e-08
1.5877647e-08
1.5878102e-08
1.5878555e-08
1.5879001e-08
1.5879439e-08
1.5879868e-08
1.5880288e-08
1.5880701e-08
1.5881111e-08
1.5881519e-08
1.5881926e-08
1.5882321e-08
1.5882691e-08
1.5883028e-08
1.588333e-08
1.5883589e-08
1.5883798e-08
1.5883956e-08
1.5884071e-08
1.588415e-08
1.5884205e-08
1.588424e-08
1.5884251e-08
1.5884229e-08
1.588417e-08
1.5884072e-08
1.5883939e-08
1.5883783e-08
1.5883617e-08
1.5883444e-08
1.5883233e-08
1.5882946e-08
1.5882571e-08
1.5882106e-08
1.588146e-08
1.5880428e-08
1.5879112e-08
1.5879148e-08
1.5885469e-08
1.590686e-08
1.5951392e-08
1.6011614e-08
1.6036588e-08
1.5895893e-08
1.5353915e-08
1.4088017e-08
1.1798691e-08
8.4634468e-09
4.6825641e-09
1.8239414e-09
1.1556707e-09
6.5048288e-09
1.6203164e-08
1.6202958e-08
1.620321e-08
1.6203636e-08
1.6204072e-08
1.620452e-08
1.6204977e-08
1.620544e-08
1.6205901e-08
1.620636e-08
1.620681e-08
1.6207252e-08
1.6207683e-08
1.6208105e-08
1.620852e-08
1.6208932e-08
1.6209343e-08
1.6209753e-08
1.6210151e-08
1.6210522e-08
1.621086e-08
1.6211164e-08
1.6211425e-08
1.6211636e-08
1.6211795e-08
1.6211908e-08
1.6211985e-08
1.621204e-08
1.6212074e-08
1.6212086e-08
1.6212064e-08
1.6212006e-08
1.6211909e-08
1.6211777e-08
1.6211619e-08
1.6211452e-08
1.6211278e-08
1.6211073e-08
1.6210792e-08
1.6210421e-08
1.6209968e-08
1.6209374e-08
1.620844e-08
1.6207124e-08
1.6206584e-08
1.6210966e-08
1.6228581e-08
1.6268926e-08
1.6330133e-08
1.6372383e-08
1.6279642e-08
1.5825531e-08
1.4676784e-08
1.2486747e-08
9.1489876e-09
5.1954831e-09
2.0090704e-09
1.0780678e-09
5.4792226e-09
1.6570707e-08
1.6570601e-08
1.6570937e-08
1.6571363e-08
1.6571814e-08
1.6572271e-08
1.6572738e-08
1.6573208e-08
1.6573676e-08
1.6574138e-08
1.6574592e-08
1.6575036e-08
1.6575469e-08
1.6575892e-08
1.6576308e-08
1.6576721e-08
1.6577134e-08
1.6577547e-08
1.6577947e-08
1.6578319e-08
1.6578658e-08
1.6578963e-08
1.6579226e-08
1.6579437e-08
1.6579595e-08
1.6579706e-08
1.657978e-08
1.6579834e-08
1.6579868e-08
1.6579881e-08
1.657986e-08
1.6579804e-08
1.6579708e-08
1.6579577e-08
1.6579418e-08
1.657925e-08
1.6579077e-08
1.6578879e-08
1.6578608e-08
1.6578243e-08
1.6577802e-08
1.6577257e-08
1.6576427e-08
1.6575139e-08
1.6574095e-08
1.6576609e-08
1.6590315e-08
1.6625741e-08
1.6686237e-08
1.6743392e-08
1.6697341e-08
1.6334456e-08
1.5314788e-08
1.3245255e-08
9.9244682e-09
5.7915697e-09
2.2531969e-09
1.0305002e-09
4.5836001e-09
1.6984724e-08
1.6984742e-08
1.6985136e-08
1.698557e-08
1.698603e-08
1.6986497e-08
1.6986971e-08
1.6987448e-08
1.698792e-08
1.6988385e-08
1.698884e-08
1.6989285e-08
1.6989718e-08
1.6990141e-08
1.6990556e-08
1.6990969e-08
1.6991383e-08
1.6991797e-08
1.6992197e-08
1.6992569e-08
1.6992907e-08
1.6993212e-08
1.6993475e-08
1.6993686e-08
1.6993841e-08
1.6993947e-08
1.6994018e-08
1.699407e-08
1.6994105e-08
1.6994118e-08
1.6994099e-08
1.6994044e-08
1.699395e-08
1.699382e-08
1.6993663e-08
1.6993493e-08
1.6993322e-08
1.6993131e-08
1.6992873e-08
1.6992517e-08
1.6992082e-08
1.6991575e-08
1.6990851e-08
1.6989666e-08
1.6988326e-08
1.6989297e-08
1.6999252e-08
1.7029072e-08
1.7086432e-08
1.7154007e-08
1.714962e-08
1.6876643e-08
1.5994478e-08
1.406767e-08
1.0791528e-08
6.4820285e-09
2.5591564e-09
1.0168327e-09
3.8524838e-09
1.7453152e-08
1.7453278e-08
1.7453709e-08
1.7454153e-08
1.7454621e-08
1.7455096e-08
1.7455576e-08
1.7456056e-08
1.7456529e-08
1.7456996e-08
1.745745e-08
1.7457893e-08
1.7458323e-08
1.7458743e-08
1.7459155e-08
1.7459565e-08
1.7459978e-08
1.7460393e-08
1.7460791e-08
1.7461159e-08
1.7461494e-08
1.7461798e-08
1.746206e-08
1.7462269e-08
1.7462418e-08
1.7462517e-08
1.7462583e-08
1.7462633e-08
1.7462667e-08
1.7462682e-08
1.7462664e-08
1.7462611e-08
1.746252e-08
1.7462393e-08
1.7462237e-08
1.7462068e-08
1.7461898e-08
1.7461718e-08
1.7461476e-08
1.7461131e-08
1.7460701e-08
1.7460221e-08
1.7459596e-08
1.7458556e-08
1.7457093e-08
1.7456849e-08
1.7463342e-08
1.7487167e-08
1.7539306e-08
1.7612825e-08
1.7644321e-08
1.7458457e-08
1.6721017e-08
1.4960256e-08
1.1763019e-08
7.2933306e-09
2.9475438e-09
1.0360999e-09
3.2393991e-09
1.7985746e-08
1.7985964e-08
1.7986409e-08
1.7986863e-08
1.7987336e-08
1.7987816e-08
1.7988299e-08
1.7988779e-08
1.798925e-08
1.7989713e-08
1.7990163e-08
1.79906e-08
1.7991023e-08
1.7991435e-08
1.799184e-08
1.7992245e-08
1.7992653e-08
1.7993064e-08
1.7993456e-08
1.7993818e-08
1.7994148e-08
1.7994448e-08
1.7994705e-08
1.7994908e-08
1.7995049e-08
1.7995138e-08
1.7995197e-08
1.7995244e-08
1.7995278e-08
1.7995294e-08
1.7995278e-08
1.7995228e-08
1.799514e-08
1.7995018e-08
1.7994865e-08
1.7994698e-08
1.7994532e-08
1.7994363e-08
1.7994141e-08
1.7993815e-08
1.7993391e-08
1.7992925e-08
1.7992385e-08
1.799152e-08
1.7990098e-08
1.7989016e-08
1.79925e-08
1.8010235e-08
1.8055302e-08
1.812997e-08
1.819007e-08
1.8085743e-08
1.749768e-08
1.5926076e-08
1.2848486e-08
8.2449585e-09
3.4402323e-09
1.0938954e-09
2.7329961e-09
1.8594657e-08
1.8594938e-08
1.859539e-08
1.8595851e-08
1.8596325e-08
1.8596807e-08
1.8597287e-08
1.8597763e-08
1.8598227e-08
1.859868e-08
1.8599118e-08
1.8599542e-08
1.8599951e-08
1.860035e-08
1.8600742e-08
1.8601135e-08
1.8601533e-08
1.8601934e-08
1.8602315e-08
1.8602665e-08
1.8602985e-08
1.8603278e-08
1.8603527e-08
1.860372e-08
1.8603847e-08
1.8603921e-08
1.8603971e-08
1.8604015e-08
1.8604048e-08
1.8604064e-08
1.8604051e-08
1.8604004e-08
1.8603921e-08
1.8603806e-08
1.860366e-08
1.8603497e-08
1.8603336e-08
1.8603181e-08
1.8602987e-08
1.8602689e-08
1.8602275e-08
1.8601816e-08
1.8601339e-08
1.8600655e-08
1.8599408e-08
1.8597873e-08
1.8598944e-08
1.8610861e-08
1.8647488e-08
1.8718608e-08
1.8798914e-08
1.876761e-08
1.8329458e-08
1.6969062e-08
1.4058423e-08
9.3618189e-09
4.0607662e-09
1.1934234e-09
2.3191908e-09
1.9295222e-08
1.9295535e-08
1.9295989e-08
1.9296451e-08
1.9296922e-08
1.9297399e-08
1.9297868e-08
1.9298329e-08
1.9298776e-08
1.9299211e-08
1.9299627e-08
1.9300028e-08
1.9300412e-08
1.9300788e-08
1.9301157e-08
1.930153e-08
1.930191e-08
1.9302293e-08
1.9302655e-08
1.9302986e-08
1.9303291e-08
1.930357e-08
1.9303805e-08
1.9303982e-08
1.9304088e-08
1.9304141e-08
1.930418e-08
1.9304218e-08
1.9304249e-08
1.9304266e-08
1.9304256e-08
1.9304214e-08
1.9304139e-08
1.9304033e-08
1.9303897e-08
1.9303743e-08
1.9303591e-08
1.9303453e-08
1.9303293e-08
1.9303036e-08
1.9302645e-08
1.9302189e-08
1.9301752e-08
1.9301233e-08
1.9300254e-08
1.9298627e-08
1.9297992e-08
1.9304743e-08
1.9332201e-08
1.9395496e-08
1.9486761e-08
1.9516927e-08
1.9224508e-08
1.8093702e-08
1.5402436e-08
1.0672049e-08
4.8511625e-09
1.3434626e-09
1.9882344e-09
2.0107008e-08
2.0107338e-08
2.0107788e-08
2.0108244e-08
2.0108703e-08
2.0109163e-08
2.0109611e-08
2.0110045e-08
2.0110462e-08
2.0110863e-08
2.0111244e-08
2.0111607e-08
2.0111953e-08
2.0112291e-08
2.0112626e-08
2.0112966e-08
2.0113317e-08
2.0113671e-08
2.0114e-08
2.0114302e-08
2.0114582e-08
2.011484e-08
2.0115053e-08
2.0115203e-08
2.011528e-08
2.0115302e-08
2.0115326e-08
2.0115358e-08
2.0115385e-08
2.0115402e-08
2.0115396e-08
2.0115361e-08
2.0115296e-08
2.0115204e-08
2.0115085e-08
2.0114947e-08
2.0114809e-08
2.0114693e-08
2.0114576e-08
2.0114378e-08
2.011403e-08
2.0113585e-08
2.0113165e-08
2.0112778e-08
2.0112106e-08
2.0110694e-08
2.0109102e-08
2.0111693e-08
2.0130047e-08
2.0182107e-08
2.0274819e-08
2.0351893e-08
2.0195203e-08
1.9306947e-08
1.6889641e-08
1.2205418e-08
5.8633684e-09
1.553149e-09
1.7348927e-09
2.1055299e-08
2.1055635e-08
2.1056073e-08
2.1056509e-08
2.1056945e-08
2.1057374e-08
2.1057784e-08
2.1058174e-08
2.1058544e-08
2.1058893e-08
2.1059218e-08
2.1059523e-08
2.1059812e-08
2.1060096e-08
2.1060378e-08
2.106067e-08
2.1060975e-08
2.1061282e-08
2.1061563e-08
2.106182e-08
2.1062065e-08
2.1062289e-08
2.1062466e-08
2.1062579e-08
2.1062612e-08
2.106259e-08
2.1062595e-08
2.1062617e-08
2.106264e-08
2.1062654e-08
2.1062656e-08
2.1062629e-08
2.1062579e-08
2.1062508e-08
2.1062415e-08
2.1062303e-08
2.1062188e-08
2.10621e-08
2.1062039e-08
2.1061923e-08
2.1061648e-08
2.1061234e-08
2.1060819e-08
2.1060518e-08
2.1060138e-08
2.1059157e-08
2.1057323e-08
2.1057022e-08
2.1067184e-08
2.1105909e-08
2.1191127e-08
2.129812e-08
2.1260448e-08
2.0620468e-08
1.8529113e-08
1.3992156e-08
7.1680715e-09
1.8375487e-09
1.5628293e-09
2.2172703e-08
2.2173065e-08
2.2173485e-08
2.217389e-08
2.2174292e-08
2.2174674e-08
2.217503e-08
2.2175359e-08
2.2175662e-08
2.2175938e-08
2.2176187e-08
2.2176412e-08
2.2176622e-08
2.2176829e-08
2.2177041e-08
2.2177266e-08
2.2177508e-08
2.2177747e-08
2.2177959e-08
2.2178154e-08
2.2178349e-08
2.2178526e-08
2.2178652e-08
2.2178715e-08
2.2178675e-08
2.2178603e-08
2.2178584e-08
2.2178594e-08
2.2178609e-08
2.2178621e-08
2.2178633e-08
2.2178618e-08
2.2178591e-08
2.2178548e-08
2.2178493e-08
2.2178422e-08
2.2178345e-08
2.217829e-08
2.2178304e-08
2.2178297e-08
2.2178131e-08
2.2177787e-08
2.2177378e-08
2.2177116e-08
2.2176961e-08
2.2176516e-08
2.2175026e-08
2.2173206e-08
2.2176876e-08
2.220182e-08
2.2272174e-08
2.2390862e-08
2.244839e-08
2.2049928e-08
2.0331972e-08
1.606098e-08
8.851891e-09
2.2728942e-09
1.4926739e-09
2.3499843e-08
2.3500259e-08
2.3500657e-08
2.3501032e-08
2.3501401e-08
2.3501734e-08
2.3502032e-08
2.3502294e-08
2.3502525e-08
2.3502719e-08
2.3502881e-08
2.3503013e-08
2.3503134e-08
2.3503254e-08
2.3503386e-08
2.3503538e-08
2.3503713e-08
2.3503872e-08
2.3504001e-08
2.3504127e-08
2.350427e-08
2.3504393e-08
2.3504463e-08
2.3504445e-08
2.3504315e-08
2.3504204e-08
2.3504161e-08
2.3504153e-08
2.3504165e-08
2.3504178e-08
2.3504203e-08
2.3504206e-08
2.3504212e-08
2.3504205e-08
2.3504202e-08
2.3504187e-08
2.3504165e-08
2.3504154e-08
2.350424e-08
2.3504383e-08
2.3504363e-08
2.3504135e-08
2.3503747e-08
2.3503465e-08
2.3503451e-08
2.3503521e-08
2.3502742e-08
2.3500659e-08
2.3500067e-08
2.3512544e-08
2.356321e-08
2.3675773e-08
2.3798857e-08
2.3623072e-08
2.2315008e-08
1.8441593e-08
1.0990782e-08
2.9784722e-09
1.4744824e-09
1.1065721e-08
1.3427735e-08
1.5969079e-08
1.8796927e-08
2.2012832e-08
2.5688551e-08
2.9871416e-08
3.4595613e-08
3.988899e-08
4.5773466e-08
5.2260172e-08
5.9343728e-08
6.6994412e-08
7.5149703e-08
8.3703752e-08
9.2497315e-08
1.013053e-07
1.0982953e-07
1.1768989e-07
1.2443219e-07
1.2951928e-07
1.3242662e-07
1.3266865e-07
1.2984654e-07
1.2360503e-07
1.1374192e-07
1.0037479e-07
8.426051e-08
6.5114647e-08
4.5671783e-08
2.7322341e-08
1.1933783e-08
2.0124283e-09
1.3106198e-09
6.3236794e-09
2.1097577e-08
4.9248289e-08
9.0535436e-08
1.4106491e-07
1.9521469e-07
2.5523191e-07
3.2192616e-07
3.9520494e-07
4.7426299e-07
5.5508121e-07
6.3748977e-07
7.2094164e-07
8.0444742e-07
8.8655517e-07
9.6578162e-07
1.0413674e-06
1.1132388e-06
1.1814516e-06
1.2461278e-06
1.3073643e-06
1.3648695e-06
1.4184939e-06
1.4686425e-06
1.5157337e-06
1.5599687e-06
1.6014567e-06
1.6403078e-06
1.6766123e-06
1.7105021e-06
1.7422049e-06
1.7718541e-06
1.7994871e-06
1.8251796e-06
1.8490484e-06
1.8712077e-06
1.8917788e-06
1.910852e-06
1.9285733e-06
1.9449255e-06
1.7930901e-09
2.2406507e-09
2.7396229e-09
3.2956907e-09
3.912428e-09
4.5974928e-09
5.3592414e-09
6.2051395e-09
7.1410271e-09
8.1712697e-09
9.2987008e-09
1.0523895e-08
1.1844054e-08
1.325149e-08
1.473203e-08
1.6263192e-08
1.7812366e-08
1.9335128e-08
2.0773916e-08
2.2058613e-08
2.3104292e-08
2.3824422e-08
2.4071695e-08
2.3731264e-08
2.2785997e-08
2.123504e-08
1.9106182e-08
1.6502603e-08
1.3556087e-08
1.0452938e-08
7.3639521e-09
4.9911274e-09
2.6304088e-09
1.0425447e-09
1.0855147e-09
2.0811107e-09
4.5369569e-09
8.6078204e-09
1.4164475e-08
2.0691097e-08
2.8048999e-08
3.6228891e-08
4.5247758e-08
5.5131413e-08
6.5526605e-08
7.6235053e-08
8.7125539e-08
9.8162082e-08
1.092723e-07
1.2028256e-07
1.310425e-07
1.4145727e-07
1.5147283e-07
1.6106241e-07
1.7021741e-07
1.7896309e-07
1.8728439e-07
1.9507948e-07
2.023657e-07
2.0917892e-07
2.1555249e-07
2.2151298e-07
2.2708476e-07
2.3228185e-07
2.3712345e-07
2.4164257e-07
2.4585734e-07
2.4978463e-07
2.5343892e-07
2.5683692e-07
2.5999302e-07
2.6292292e-07
2.6563511e-07
2.6821878e-07
1.5159599e-09
1.4578049e-09
1.4180022e-09
1.3977e-09
1.4055821e-09
1.4499842e-09
1.5343165e-09
1.6685084e-09
1.860444e-09
2.1112993e-09
2.4189941e-09
2.7801505e-09
3.1905085e-09
3.6446785e-09
4.1362647e-09
4.6577654e-09
5.2002515e-09
5.752753e-09
6.301546e-09
6.8296481e-09
7.3159048e-09
7.7370291e-09
8.0620147e-09
8.2559638e-09
8.2916799e-09
8.1513327e-09
7.8273001e-09
7.3271362e-09
6.6705793e-09
5.8741032e-09
4.9925189e-09
4.08375e-09
3.2447411e-09
2.4489196e-09
1.8876502e-09
1.4822608e-09
1.5341174e-09
1.8304555e-09
2.4111301e-09
3.227125e-09
4.2743489e-09
5.5360734e-09
6.9923831e-09
8.6282102e-09
1.0413679e-08
1.2316853e-08
1.4308245e-08
1.6364586e-08
1.8464398e-08
2.0584362e-08
2.2702004e-08
2.4797391e-08
2.6853811e-08
2.8858251e-08
3.0801153e-08
3.2663747e-08
3.4436835e-08
3.6118114e-08
3.7707711e-08
3.9206667e-08
4.0617151e-08
4.1941742e-08
4.3183907e-08
4.4346323e-08
4.5437453e-08
4.6460553e-08
4.7418593e-08
4.8314609e-08
4.9151645e-08
4.9932737e-08
5.0660882e-08
5.133911e-08
5.1969607e-08
5.2559516e-08
3.2224774e-09
2.6033869e-09
2.1464002e-09
1.8314538e-09
1.6356106e-09
1.5199232e-09
1.4549312e-09
1.4098012e-09
1.3632531e-09
1.3389996e-09
1.3406598e-09
1.3701435e-09
1.4345807e-09
1.5384246e-09
1.6832506e-09
1.8676291e-09
2.088276e-09
2.3402511e-09
2.6171871e-09
2.9098386e-09
3.2030686e-09
3.484193e-09
3.7440881e-09
3.9719722e-09
4.1561126e-09
4.2853386e-09
4.3507074e-09
4.3463438e-09
4.2724446e-09
4.134679e-09
3.9390309e-09
3.6854461e-09
3.4000356e-09
3.0907182e-09
2.7789351e-09
2.4654634e-09
2.2142364e-09
2.0412545e-09
1.9148174e-09
1.9165782e-09
1.9686e-09
2.0732292e-09
2.228486e-09
2.4254074e-09
2.6639671e-09
2.9421783e-09
3.2541732e-09
3.5940601e-09
3.9559434e-09
4.3341162e-09
4.7232994e-09
5.1186978e-09
5.515998e-09
5.9115102e-09
6.30191e-09
6.6843915e-09
7.0567176e-09
7.4170657e-09
7.7640395e-09
8.0965844e-09
8.4140131e-09
8.7159596e-09
9.0022852e-09
9.273093e-09
9.5286606e-09
9.7693276e-09
9.9955269e-09
1.0207775e-08
1.0406632e-08
1.0592688e-08
1.0766547e-08
1.0928824e-08
1.1080074e-08
1.1221276e-08
6.3292866e-09
5.1964131e-09
4.2303147e-09
3.4352284e-09
2.8078837e-09
2.3259976e-09
1.9832257e-09
1.7451907e-09
1.5708903e-09
1.4584059e-09
1.3871803e-09
1.3434383e-09
1.313724e-09
1.28408e-09
1.2697324e-09
1.2735112e-09
1.2974831e-09
1.3454539e-09
1.4188012e-09
1.5237382e-09
1.6607091e-09
1.8232876e-09
2.0030348e-09
2.183153e-09
2.3561971e-09
2.5165542e-09
2.6589751e-09
2.7783168e-09
2.8702932e-09
2.9328576e-09
2.9653809e-09
2.9669853e-09
2.9388385e-09
2.8877208e-09
2.7997988e-09
2.7151595e-09
2.6118562e-09
2.5048788e-09
2.397526e-09
2.3057728e-09
2.2318946e-09
2.1753535e-09
2.139418e-09
2.1072052e-09
2.0997895e-09
2.1027032e-09
2.1142165e-09
2.1335347e-09
2.1597276e-09
2.1921243e-09
2.2297822e-09
2.2717728e-09
2.3171881e-09
2.3651864e-09
2.4149784e-09
2.4658362e-09
2.5171484e-09
2.5684076e-09
2.6191703e-09
2.6690529e-09
2.7177395e-09
2.76498e-09
2.8105775e-09
2.8543925e-09
2.8963335e-09
2.9363341e-09
2.9743558e-09
3.0103925e-09
3.0444608e-09
3.0765944e-09
3.1068406e-09
3.1352566e-09
3.1619125e-09
3.1868412e-09
9.5342442e-09
8.1978207e-09
6.9401099e-09
5.8102851e-09
4.8281886e-09
3.996889e-09
3.3159232e-09
2.7761581e-09
2.3494823e-09
2.0221828e-09
1.7745861e-09
1.5980182e-09
1.4730983e-09
1.3814933e-09
1.3216535e-09
1.2838068e-09
1.2581477e-09
1.241707e-09
1.2234931e-09
1.2197264e-09
1.2277284e-09
1.2505523e-09
1.2998299e-09
1.372943e-09
1.465426e-09
1.5728505e-09
1.6864488e-09
1.7973287e-09
1.9011097e-09
1.9949836e-09
2.0770441e-09
2.1461771e-09
2.2014346e-09
2.2433075e-09
2.2718921e-09
2.2875846e-09
2.292049e-09
2.2873566e-09
2.2737779e-09
2.2499191e-09
2.2240951e-09
2.2009677e-09
2.1789863e-09
2.1588939e-09
2.1412044e-09
2.1260337e-09
2.1132523e-09
2.104093e-09
2.0973652e-09
2.0913537e-09
2.0862587e-09
2.0824244e-09
2.0798069e-09
2.0782821e-09
2.077709e-09
2.0779348e-09
2.0788257e-09
2.0802682e-09
2.0821641e-09
2.0844161e-09
2.0869726e-09
2.0897395e-09
2.092628e-09
2.0955823e-09
2.0985632e-09
2.1015369e-09
2.1044736e-09
2.1073506e-09
2.1101504e-09
2.1128596e-09
2.1154686e-09
2.1179706e-09
2.1203628e-09
2.1226315e-09
1.2097578e-08