/*--------------------------------*- C++ -*----------------------------------*\
| =========                 |                                                 |
| \\      /  F ield         | OpenFOAM: The Open Source CFD Toolbox           |
|  \\    /   O peration     | Version:  v2006                                 |
|   \\  /    A nd           | Website:  www.openfoam.com                      |
|    \\/     M anipulation  |                                                 |
\*---------------------------------------------------------------------------*/
FoamFile
{
    version     2.0;
    format      ascii;
    class       volScalarField;
    location    "4000";
    object      nut;
}
// * * * * * * * * * * * * * * * * * * * * * * * * * * * * * * * * * * * * * //

dimensions      [0 2 -1 0 0 0 0];


internalField   nonuniform List<scalar> 
55713
(
2.7616694e-10
2.8719146e-09
2.8895729e-08
6.9326447e-08
8.9618894e-08
9.5671496e-08
9.5901702e-08
9.5049109e-08
9.4487131e-08
9.4282462e-08
9.4249771e-08
9.4261204e-08
9.4271453e-08
9.4274296e-08
9.4273363e-08
9.4273277e-08
9.4274435e-08
9.4275865e-08
9.427665e-08
9.4276339e-08
9.4275765e-08
9.4275645e-08
9.4275867e-08
9.4276004e-08
9.4276023e-08
9.4275937e-08
9.4275885e-08
9.4275752e-08
9.4275631e-08
9.4275439e-08
9.4275236e-08
9.4275011e-08
9.4274803e-08
9.4274666e-08
9.427472e-08
9.4274977e-08
9.4274909e-08
9.4274387e-08
9.4273589e-08
9.4272674e-08
9.4271809e-08
9.4270978e-08
9.4270095e-08
9.4269139e-08
9.4268203e-08
9.4267273e-08
9.4266369e-08
9.426548e-08
9.4264577e-08
9.4263611e-08
9.4262602e-08
9.4261535e-08
9.4260433e-08
9.4259312e-08
9.4258206e-08
9.4257095e-08
9.4256001e-08
9.4254845e-08
9.4253607e-08
3.3383278e-10
4.167261e-09
3.5928657e-08
7.617843e-08
9.3058722e-08
9.697626e-08
9.659523e-08
9.5764473e-08
9.533383e-08
9.520969e-08
9.5203777e-08
9.5216933e-08
9.5223577e-08
9.5223536e-08
9.5221982e-08
9.5221782e-08
9.5222843e-08
9.5223819e-08
9.5223765e-08
9.5222925e-08
9.5222157e-08
9.5221818e-08
9.5221664e-08
9.5221398e-08
9.5221034e-08
9.5220614e-08
9.5220212e-08
9.5219749e-08
9.521928e-08
9.5218751e-08
9.5218206e-08
9.5217646e-08
9.5217085e-08
9.5216584e-08
9.5216266e-08
9.521631e-08
9.5215996e-08
9.5215156e-08
9.5214012e-08
9.5212723e-08
9.5211467e-08
9.5210273e-08
9.5209028e-08
9.5207675e-08
9.5206304e-08
9.520494e-08
9.52036e-08
9.5202281e-08
9.5200932e-08
9.5199503e-08
9.5197999e-08
9.5196405e-08
9.5194723e-08
9.5192976e-08
9.5191196e-08
9.518936e-08
9.5187467e-08
9.5185439e-08
9.5183234e-08
4.1652305e-10
5.8614138e-09
4.3422631e-08
8.2295703e-08
9.573464e-08
9.8041418e-08
9.7315642e-08
9.6571964e-08
9.626269e-08
9.6198369e-08
9.6206918e-08
9.6218532e-08
9.6221004e-08
9.621912e-08
9.6217466e-08
9.6217429e-08
9.6218112e-08
9.6218251e-08
9.6217512e-08
9.6216327e-08
9.6215394e-08
9.6214789e-08
9.6214261e-08
9.6213605e-08
9.6212895e-08
9.6212153e-08
9.621143e-08
9.6210644e-08
9.6209851e-08
9.6208995e-08
9.6208132e-08
9.6207245e-08
9.6206362e-08
9.6205512e-08
9.6204836e-08
9.6204618e-08
9.6204171e-08
9.6203031e-08
9.6201565e-08
9.6199919e-08
9.6198296e-08
9.6196757e-08
9.6195184e-08
9.6193465e-08
9.6191684e-08
9.6189906e-08
9.6188166e-08
9.6186451e-08
9.6184702e-08
9.6182854e-08
9.618091e-08
9.6178842e-08
9.6176639e-08
9.617432e-08
9.6171932e-08
9.6169442e-08
9.6166832e-08
9.6164017e-08
9.6160929e-08
5.363917e-10
8.1778847e-09
5.1568066e-08
8.7807728e-08
9.7968561e-08
9.8989271e-08
9.8089796e-08
9.7477082e-08
9.7276812e-08
9.725401e-08
9.7268034e-08
9.7275214e-08
9.727439e-08
9.7271634e-08
9.7270126e-08
9.727017e-08
9.7270409e-08
9.7269815e-08
9.726847e-08
9.7266987e-08
9.7265861e-08
9.7264976e-08
9.7264075e-08
9.7263074e-08
9.7262046e-08
9.7261017e-08
9.725999e-08
9.7258922e-08
9.7257836e-08
9.7256689e-08
9.7255531e-08
9.7254349e-08
9.7253163e-08
9.7251993e-08
9.7250969e-08
9.7250462e-08
9.7249975e-08
9.7248569e-08
9.7246806e-08
9.7244834e-08
9.7242862e-08
9.724101e-08
9.7239149e-08
9.7237113e-08
9.7234952e-08
9.7232789e-08
9.7230679e-08
9.7228606e-08
9.7226492e-08
9.722427e-08
9.7221931e-08
9.7219442e-08
9.7216771e-08
9.7213933e-08
9.7210985e-08
9.7207901e-08
9.7204634e-08
9.7201109e-08
9.7197205e-08
7.1078574e-10
1.1264724e-08
6.0068671e-08
9.2560048e-08
9.9797051e-08
9.9876193e-08
9.8951164e-08
9.8488664e-08
9.8375269e-08
9.8376954e-08
9.8389647e-08
9.8391965e-08
9.838923e-08
9.8386131e-08
9.838482e-08
9.8384879e-08
9.83846e-08
9.8383311e-08
9.8381468e-08
9.837977e-08
9.8378447e-08
9.8377273e-08
9.8376028e-08
9.8374726e-08
9.8373417e-08
9.8372119e-08
9.8370815e-08
9.8369487e-08
9.8368137e-08
9.8366741e-08
9.8365325e-08
9.8363886e-08
9.8362425e-08
9.8360974e-08
9.8359628e-08
9.8358824e-08
9.8358314e-08
9.8356736e-08
9.8354709e-08
9.8352442e-08
9.8350155e-08
9.8348025e-08
9.8345928e-08
9.8343635e-08
9.8341147e-08
9.8338637e-08
9.83362e-08
9.8333816e-08
9.8331388e-08
9.8328845e-08
9.8326169e-08
9.8323326e-08
9.8320259e-08
9.8316973e-08
9.8313538e-08
9.8309945e-08
9.8306111e-08
9.8301978e-08
9.8297363e-08
9.6670967e-10
1.5316861e-08
6.8648869e-08
9.6143512e-08
1.013225e-07
1.0076516e-07
9.9924301e-08
9.9609302e-08
9.9557846e-08
9.9570138e-08
9.9577756e-08
9.9576785e-08
9.957298e-08
9.9569775e-08
9.9568649e-08
9.9568638e-08
9.9567796e-08
9.95659e-08
9.9563691e-08
9.9561832e-08
9.9560307e-08
9.9558856e-08
9.9557323e-08
9.9555771e-08
9.9554221e-08
9.9552683e-08
9.9551133e-08
9.9549572e-08
9.9547991e-08
9.9546382e-08
9.9544745e-08
9.9543092e-08
9.9541407e-08
9.9539718e-08
9.9538101e-08
9.9536998e-08
9.9536453e-08
9.953485e-08
9.9532595e-08
9.9530061e-08
9.9527495e-08
9.9525127e-08
9.9522858e-08
9.9520378e-08
9.9517627e-08
9.9514812e-08
9.95121e-08
9.9509461e-08
9.9506787e-08
9.9503987e-08
9.9501044e-08
9.9497922e-08
9.949455e-08
9.9490903e-08
9.9487065e-08
9.9483062e-08
9.9478764e-08
9.9474143e-08
9.9468936e-08
1.3465173e-09
2.0547432e-08
7.6907997e-08
9.9026311e-08
1.0256337e-07
1.0169641e-07
1.0102756e-07
1.0083935e-07
1.0082599e-07
1.0083832e-07
1.008412e-07
1.0083818e-07
1.0083384e-07
1.0083059e-07
1.0082964e-07
1.0082948e-07
1.0082808e-07
1.008257e-07
1.0082327e-07
1.0082128e-07
1.0081956e-07
1.0081786e-07
1.008161e-07
1.0081434e-07
1.008126e-07
1.0081086e-07
1.0080911e-07
1.0080736e-07
1.0080559e-07
1.0080381e-07
1.00802e-07
1.0080017e-07
1.0079832e-07
1.0079644e-07
1.0079462e-07
1.0079325e-07
1.007926e-07
1.0079118e-07
1.0078874e-07
1.0078598e-07
1.0078316e-07
1.007806e-07
1.0077823e-07
1.0077565e-07
1.0077271e-07
1.0076966e-07
1.0076674e-07
1.0076392e-07
1.0076108e-07
1.007581e-07
1.0075497e-07
1.0075166e-07
1.0074809e-07
1.0074419e-07
1.0074005e-07
1.0073576e-07
1.0073113e-07
1.0072617e-07
1.0072051e-07
1.922472e-09
2.7182017e-08
8.5013414e-08
1.0204921e-07
1.0365885e-07
1.027405e-07
1.0227307e-07
1.0217728e-07
1.0218333e-07
1.0219067e-07
1.0219005e-07
1.0218598e-07
1.0218142e-07
1.0217807e-07
1.0217728e-07
1.0217695e-07
1.0217505e-07
1.0217235e-07
1.021698e-07
1.0216772e-07
1.0216583e-07
1.0216393e-07
1.0216199e-07
1.0216009e-07
1.0215819e-07
1.0215631e-07
1.0215441e-07
1.0215254e-07
1.0215062e-07
1.0214874e-07
1.021468e-07
1.0214487e-07
1.021429e-07
1.0214091e-07
1.0213893e-07
1.0213734e-07
1.0213655e-07
1.0213551e-07
1.0213298e-07
1.0213003e-07
1.0212701e-07
1.0212431e-07
1.0212189e-07
1.0211932e-07
1.0211631e-07
1.021131e-07
1.0211006e-07
1.0210714e-07
1.0210423e-07
1.0210117e-07
1.0209795e-07
1.0209456e-07
1.0209091e-07
1.0208691e-07
1.0208259e-07
1.0207817e-07
1.0207336e-07
1.0206823e-07
1.0206232e-07
2.8400528e-09
3.5433706e-08
9.222122e-08
1.0434138e-07
1.0476727e-07
1.0395978e-07
1.0366322e-07
1.0362613e-07
1.0363596e-07
1.0363846e-07
1.0363612e-07
1.0363174e-07
1.0362707e-07
1.036235e-07
1.0362286e-07
1.0362238e-07
1.0362013e-07
1.0361729e-07
1.0361469e-07
1.0361254e-07
1.036105e-07
1.0360848e-07
1.0360644e-07
1.0360445e-07
1.0360245e-07
1.036005e-07
1.0359852e-07
1.0359659e-07
1.0359461e-07
1.0359268e-07
1.0359068e-07
1.0358873e-07
1.0358671e-07
1.0358469e-07
1.0358265e-07
1.0358091e-07
1.0358e-07
1.0357934e-07
1.0357697e-07
1.0357391e-07
1.0357073e-07
1.0356795e-07
1.0356557e-07
1.0356313e-07
1.0356017e-07
1.035569e-07
1.0355388e-07
1.0355095e-07
1.0354809e-07
1.0354509e-07
1.035419e-07
1.0353856e-07
1.0353499e-07
1.0353107e-07
1.0352672e-07
1.0352235e-07
1.0351756e-07
1.0351248e-07
1.0350654e-07
4.4342816e-09
4.5456002e-08
9.8588579e-08
1.0633493e-07
1.0599279e-07
1.0535856e-07
1.0519554e-07
1.0519071e-07
1.0519716e-07
1.0519611e-07
1.0519323e-07
1.0518902e-07
1.0518429e-07
1.0518041e-07
1.051799e-07
1.0517928e-07
1.0517687e-07
1.0517406e-07
1.0517148e-07
1.0516929e-07
1.0516718e-07
1.0516512e-07
1.0516306e-07
1.0516107e-07
1.0515906e-07
1.0515713e-07
1.0515515e-07
1.0515325e-07
1.0515128e-07
1.051494e-07
1.0514742e-07
1.0514554e-07
1.0514356e-07
1.0514162e-07
1.0513962e-07
1.0513783e-07
1.0513681e-07
1.0513652e-07
1.051347e-07
1.0513157e-07
1.0512829e-07
1.0512552e-07
1.0512326e-07
1.0512108e-07
1.0511836e-07
1.0511515e-07
1.051123e-07
1.0510948e-07
1.0510684e-07
1.0510405e-07
1.0510105e-07
1.0509793e-07
1.050946e-07
1.0509099e-07
1.0508682e-07
1.0508271e-07
1.0507821e-07
1.0507344e-07
1.0506775e-07
7.1436541e-09
5.7271951e-08
1.0383709e-07
1.0810373e-07
1.0738095e-07
1.0694726e-07
1.068748e-07
1.068817e-07
1.0688257e-07
1.0688002e-07
1.0687744e-07
1.0687376e-07
1.0686908e-07
1.0686479e-07
1.0686438e-07
1.0686355e-07
1.0686119e-07
1.0685853e-07
1.068561e-07
1.0685398e-07
1.0685192e-07
1.0684994e-07
1.0684797e-07
1.0684608e-07
1.0684417e-07
1.0684235e-07
1.0684048e-07
1.0683872e-07
1.0683687e-07
1.0683515e-07
1.0683331e-07
1.068316e-07
1.0682977e-07
1.0682804e-07
1.0682619e-07
1.0682454e-07
1.0682346e-07
1.0682346e-07
1.0682263e-07
1.0681952e-07
1.0681621e-07
1.0681356e-07
1.0681153e-07
1.068097e-07
1.0680749e-07
1.0680451e-07
1.0680202e-07
1.0679948e-07
1.0679725e-07
1.0679487e-07
1.0679225e-07
1.0678955e-07
1.0678668e-07
1.0678365e-07
1.0677994e-07
1.0677635e-07
1.0677247e-07
1.0676829e-07
1.0676323e-07
1.1009105e-08
7.0807241e-08
1.072902e-07
1.097051e-07
1.0897362e-07
1.0872981e-07
1.0870738e-07
1.087135e-07
1.0871064e-07
1.087083e-07
1.0870646e-07
1.0870343e-07
1.0869921e-07
1.086944e-07
1.0869411e-07
1.0869302e-07
1.0869085e-07
1.0868856e-07
1.0868649e-07
1.0868461e-07
1.0868278e-07
1.0868102e-07
1.0867929e-07
1.0867762e-07
1.0867596e-07
1.0867439e-07
1.0867277e-07
1.0867126e-07
1.0866968e-07
1.0866824e-07
1.0866668e-07
1.0866528e-07
1.0866374e-07
1.0866236e-07
1.0866082e-07
1.086595e-07
1.0865855e-07
1.0865885e-07
1.086591e-07
1.0865636e-07
1.086531e-07
1.0865075e-07
1.0864911e-07
1.0864763e-07
1.0864633e-07
1.0864371e-07
1.0864189e-07
1.0863978e-07
1.0863823e-07
1.0863647e-07
1.0863447e-07
1.0863245e-07
1.0863029e-07
1.086281e-07
1.0862525e-07
1.0862245e-07
1.086196e-07
1.0861632e-07
1.0861233e-07
1.6789137e-08
8.5999534e-08
1.095984e-07
1.1120914e-07
1.107914e-07
1.1070229e-07
1.1069979e-07
1.1070111e-07
1.1069744e-07
1.1069626e-07
1.106951e-07
1.1069249e-07
1.1068969e-07
1.1068507e-07
1.1068495e-07
1.1068372e-07
1.1068192e-07
1.1068022e-07
1.1067869e-07
1.1067725e-07
1.1067584e-07
1.1067449e-07
1.1067317e-07
1.1067191e-07
1.1067067e-07
1.106695e-07
1.1066832e-07
1.1066724e-07
1.1066611e-07
1.106651e-07
1.10664e-07
1.1066307e-07
1.1066201e-07
1.1066112e-07
1.106601e-07
1.1065929e-07
1.1065875e-07
1.106593e-07
1.1066066e-07
1.1065869e-07
1.1065577e-07
1.1065391e-07
1.1065273e-07
1.1065193e-07
1.1065161e-07
1.1064962e-07
1.106487e-07
1.1064742e-07
1.1064673e-07
1.1064574e-07
1.1064463e-07
1.106435e-07
1.1064236e-07
1.1064124e-07
1.1063966e-07
1.1063792e-07
1.106365e-07
1.1063454e-07
1.1063211e-07
2.4870792e-08
1.0252823e-07
1.1276952e-07
1.1294108e-07
1.1284747e-07
1.128421e-07
1.1284264e-07
1.1284186e-07
1.1283929e-07
1.1283896e-07
1.1283806e-07
1.128361e-07
1.1283523e-07
1.128337e-07
1.1283368e-07
1.1283216e-07
1.12831e-07
1.1283009e-07
1.1282927e-07
1.128285e-07
1.1282776e-07
1.1282706e-07
1.128264e-07
1.1282578e-07
1.128252e-07
1.1282465e-07
1.1282413e-07
1.1282365e-07
1.128232e-07
1.1282278e-07
1.1282239e-07
1.1282205e-07
1.128217e-07
1.1282143e-07
1.1282114e-07
1.1282094e-07
1.1282099e-07
1.1282157e-07
1.1282335e-07
1.1282283e-07
1.1282104e-07
1.1282e-07
1.1281953e-07
1.1281981e-07
1.1282017e-07
1.1281958e-07
1.1281983e-07
1.1281948e-07
1.1281949e-07
1.1281948e-07
1.1281947e-07
1.1281944e-07
1.1281951e-07
1.1281958e-07
1.1281952e-07
1.1281925e-07
1.1281938e-07
1.1281914e-07
1.1281875e-07
8.5583549e-08
8.5582056e-08
8.5581032e-08
8.5582292e-08
8.5583031e-08
8.5583998e-08
8.5584908e-08
8.5585858e-08
8.5586808e-08
8.5587769e-08
8.5588718e-08
8.5589663e-08
8.5590595e-08
8.5591528e-08
8.5592464e-08
8.5593415e-08
8.5594382e-08
8.5595353e-08
8.5596283e-08
8.5597131e-08
8.5597881e-08
8.5598545e-08
8.5599094e-08
8.5599479e-08
8.5599678e-08
8.559973e-08
8.5599703e-08
8.5599671e-08
8.5599661e-08
8.5599659e-08
8.5599622e-08
8.5599519e-08
8.5599327e-08
8.5599058e-08
8.5598786e-08
8.5598611e-08
8.5598522e-08
8.5598324e-08
8.5597792e-08
8.559686e-08
8.5595307e-08
8.559202e-08
8.558549e-08
8.5578537e-08
8.5588969e-08
8.5661205e-08
8.5861767e-08
8.6228823e-08
8.6645534e-08
8.6632829e-08
8.5112116e-08
8.0263021e-08
6.9419286e-08
5.0704898e-08
2.7062551e-08
8.6460808e-09
1.6163111e-09
4.4327814e-10
5.9081466e-10
8.5874221e-08
8.5872954e-08
8.5872831e-08
8.5873896e-08
8.5874756e-08
8.5875697e-08
8.5876623e-08
8.5877573e-08
8.5878523e-08
8.5879479e-08
8.5880423e-08
8.588136e-08
8.5882285e-08
8.588321e-08
8.5884138e-08
8.5885081e-08
8.5886038e-08
8.5886999e-08
8.5887917e-08
8.5888752e-08
8.5889494e-08
8.5890155e-08
8.5890705e-08
8.5891093e-08
8.5891291e-08
8.5891337e-08
8.5891303e-08
8.5891269e-08
8.5891257e-08
8.5891252e-08
8.5891208e-08
8.5891097e-08
8.5890899e-08
8.5890632e-08
8.5890358e-08
8.5890173e-08
8.5890073e-08
8.588988e-08
8.5889353e-08
8.5888353e-08
8.5886612e-08
8.5883201e-08
8.587709e-08
8.5871331e-08
8.5882449e-08
8.5951108e-08
8.6139528e-08
8.6488746e-08
8.690478e-08
8.6961329e-08
8.5652704e-08
8.118875e-08
7.1039251e-08
5.2923309e-08
2.9105024e-08
9.6399823e-09
1.7658754e-09
4.1389127e-10
5.2977848e-10
8.619395e-08
8.6192873e-08
8.6193075e-08
8.6194093e-08
8.6195e-08
8.6195944e-08
8.6196883e-08
8.619784e-08
8.6198794e-08
8.6199753e-08
8.6200697e-08
8.6201632e-08
8.6202553e-08
8.6203472e-08
8.6204391e-08
8.6205324e-08
8.6206271e-08
8.6207223e-08
8.6208132e-08
8.6208959e-08
8.6209695e-08
8.6210358e-08
8.6210913e-08
8.6211307e-08
8.6211506e-08
8.6211547e-08
8.6211506e-08
8.6211469e-08
8.6211455e-08
8.6211451e-08
8.6211408e-08
8.6211303e-08
8.621111e-08
8.6210841e-08
8.6210552e-08
8.6210348e-08
8.6210248e-08
8.6210091e-08
8.6209624e-08
8.6208733e-08
8.6207292e-08
8.6204522e-08
8.6198963e-08
8.6191626e-08
8.6194632e-08
8.6243376e-08
8.6400057e-08
8.672279e-08
8.7165546e-08
8.7386031e-08
8.648331e-08
8.2752755e-08
7.3630824e-08
5.6373096e-08
3.2253996e-08
1.1168379e-08
2.0075801e-09
3.973726e-10
4.6951275e-10
8.6546181e-08
8.6545349e-08
8.6545898e-08
8.6546871e-08
8.6547814e-08
8.6548762e-08
8.6549709e-08
8.6550671e-08
8.6551627e-08
8.6552585e-08
8.6553525e-08
8.6554455e-08
8.6555368e-08
8.6556279e-08
8.6557187e-08
8.6558109e-08
8.6559045e-08
8.6559987e-08
8.6560884e-08
8.6561699e-08
8.6562429e-08
8.6563091e-08
8.6563649e-08
8.6564046e-08
8.656424e-08
8.6564271e-08
8.6564223e-08
8.6564184e-08
8.656417e-08
8.6564166e-08
8.6564124e-08
8.6564021e-08
8.6563832e-08
8.6563564e-08
8.6563265e-08
8.6563043e-08
8.6562938e-08
8.6562812e-08
8.6562395e-08
8.6561551e-08
8.6560233e-08
8.6557884e-08
8.6553075e-08
8.6545714e-08
8.6544456e-08
8.6578949e-08
8.6707508e-08
8.6997086e-08
8.743939e-08
8.7770489e-08
8.7198238e-08
8.411766e-08
7.599436e-08
5.9720295e-08
3.5559104e-08
1.2904621e-08
2.3266618e-09
3.9106569e-10
4.1942164e-10
8.6934885e-08
8.693438e-08
8.6935138e-08
8.6936095e-08
8.6937055e-08
8.6938009e-08
8.6938961e-08
8.6939926e-08
8.6940881e-08
8.6941836e-08
8.6942771e-08
8.6943694e-08
8.6944599e-08
8.69455e-08
8.6946397e-08
8.6947307e-08
8.6948231e-08
8.6949161e-08
8.6950045e-08
8.695085e-08
8.6951572e-08
8.6952235e-08
8.6952794e-08
8.695319e-08
8.6953376e-08
8.6953394e-08
8.6953336e-08
8.6953296e-08
8.6953282e-08
8.6953281e-08
8.6953241e-08
8.6953142e-08
8.6952958e-08
8.6952693e-08
8.6952384e-08
8.6952142e-08
8.6952031e-08
8.695194e-08
8.6951585e-08
8.6950802e-08
8.6949604e-08
8.6947654e-08
8.6943611e-08
8.6936443e-08
8.6931505e-08
8.6952486e-08
8.7052477e-08
8.7304332e-08
8.7734102e-08
8.8156907e-08
8.7900568e-08
8.5478899e-08
7.8408157e-08
6.3277345e-08
3.9292316e-08
1.4996612e-08
2.7526143e-09
3.9541196e-10
3.7314964e-10
8.7364746e-08
8.7364629e-08
8.7365513e-08
8.7366468e-08
8.7367434e-08
8.7368392e-08
8.7369346e-08
8.7370309e-08
8.7371262e-08
8.7372212e-08
8.7373141e-08
8.7374055e-08
8.737495e-08
8.737584e-08
8.7376724e-08
8.737762e-08
8.737853e-08
8.7379447e-08
8.7380316e-08
8.7381106e-08
8.7381821e-08
8.7382482e-08
8.7383042e-08
8.7383432e-08
8.7383603e-08
8.7383602e-08
8.7383534e-08
8.7383493e-08
8.7383482e-08
8.7383483e-08
8.7383446e-08
8.7383351e-08
8.7383174e-08
8.7382914e-08
8.7382598e-08
8.7382336e-08
8.7382215e-08
8.7382158e-08
8.7381873e-08
8.7381148e-08
8.7380028e-08
8.7378391e-08
8.7375137e-08
8.7368676e-08
8.736155e-08
8.7371445e-08
8.744447e-08
8.7654797e-08
8.8056158e-08
8.853872e-08
8.8558188e-08
8.6769358e-08
8.0764469e-08
6.6943113e-08
4.3403725e-08
1.7489906e-08
3.3043262e-09
4.1372477e-10
3.345058e-10
8.7841373e-08
8.7841545e-08
8.7842513e-08
8.7843472e-08
8.7844436e-08
8.7845394e-08
8.7846347e-08
8.7847305e-08
8.7848254e-08
8.7849196e-08
8.7850117e-08
8.7851021e-08
8.7851904e-08
8.785278e-08
8.7853648e-08
8.7854527e-08
8.785542e-08
8.7856319e-08
8.7857168e-08
8.7857942e-08
8.7858647e-08
8.7859306e-08
8.7859862e-08
8.7860241e-08
8.7860391e-08
8.7860366e-08
8.7860286e-08
8.7860245e-08
8.7860237e-08
8.7860241e-08
8.7860208e-08
8.7860119e-08
8.785995e-08
8.7859698e-08
8.7859378e-08
8.7859095e-08
8.785896e-08
8.7858935e-08
8.7858729e-08
8.7858074e-08
8.7857005e-08
8.7855596e-08
8.7853065e-08
8.784761e-08
8.7839501e-08
8.7840725e-08
8.7889228e-08
8.8056328e-08
8.8416126e-08
8.892717e-08
8.9177483e-08
8.7988571e-08
8.2996281e-08
7.0696553e-08
4.7915171e-08
2.0488915e-08
4.0297823e-09
4.4811488e-10
3.008654e-10
8.8371265e-08
8.8371687e-08
8.8372672e-08
8.8373633e-08
8.8374589e-08
8.8375543e-08
8.8376489e-08
8.8377439e-08
8.8378378e-08
8.8379309e-08
8.8380216e-08
8.8381104e-08
8.8381969e-08
8.8382824e-08
8.838367e-08
8.8384526e-08
8.8385396e-08
8.8386271e-08
8.8387095e-08
8.8387848e-08
8.8388542e-08
8.8389195e-08
8.8389741e-08
8.8390102e-08
8.8390222e-08
8.8390166e-08
8.8390073e-08
8.8390032e-08
8.8390028e-08
8.8390036e-08
8.8390007e-08
8.8389925e-08
8.8389767e-08
8.8389526e-08
8.8389208e-08
8.8388906e-08
8.838875e-08
8.8388752e-08
8.8388635e-08
8.8388066e-08
8.8387033e-08
8.8385762e-08
8.8383841e-08
8.8379579e-08
8.8371619e-08
8.8366825e-08
8.8394288e-08
8.8518519e-08
8.8825813e-08
8.9333337e-08
8.9758152e-08
8.9113642e-08
8.5214069e-08
7.4474111e-08
5.2805688e-08
2.4076109e-08
4.9877938e-09
5.0410178e-10
2.7230919e-10
8.8962186e-08
8.8962781e-08
8.8963771e-08
8.896473e-08
8.8965674e-08
8.8966618e-08
8.8967551e-08
8.8968487e-08
8.8969408e-08
8.897032e-08
8.8971203e-08
8.8972065e-08
8.89729e-08
8.8973726e-08
8.897454e-08
8.8975364e-08
8.8976201e-08
8.8977046e-08
8.8977836e-08
8.8978562e-08
8.897924e-08
8.8979884e-08
8.8980413e-08
8.8980746e-08
8.8980825e-08
8.8980731e-08
8.8980623e-08
8.8980584e-08
8.8980583e-08
8.8980596e-08
8.8980573e-08
8.8980499e-08
8.8980353e-08
8.898013e-08
8.8979819e-08
8.8979502e-08
8.897932e-08
8.8979339e-08
8.8979317e-08
8.8978861e-08
8.8977866e-08
8.8976652e-08
8.8975197e-08
8.8972118e-08
8.8965215e-08
8.8957025e-08
8.8967767e-08
8.9051873e-08
8.9299266e-08
8.9773808e-08
9.0315824e-08
9.0142262e-08
8.7283831e-08
7.8223983e-08
5.8039047e-08
2.8344588e-08
6.2506068e-09
5.872736e-10
2.4863054e-10
8.9623499e-08
8.9624189e-08
8.9625176e-08
8.9626124e-08
8.962705e-08
8.9627974e-08
8.9628883e-08
8.9629792e-08
8.9630682e-08
8.9631561e-08
8.9632407e-08
8.9633229e-08
8.9634022e-08
8.9634805e-08
8.9635575e-08
8.9636356e-08
8.9637151e-08
8.9637953e-08
8.9638701e-08
8.9639392e-08
8.9640051e-08
8.9640677e-08
8.964118e-08
8.9641473e-08
8.9641498e-08
8.9641353e-08
8.9641234e-08
8.9641196e-08
8.9641199e-08
8.9641215e-08
8.9641199e-08
8.9641134e-08
8.9641005e-08
8.9640803e-08
8.9640511e-08
8.9640186e-08
8.9639973e-08
8.9639994e-08
8.9640069e-08
8.9639757e-08
8.9638826e-08
8.9637607e-08
8.9636426e-08
8.9634417e-08
8.962916e-08
8.9619958e-08
8.9618839e-08
8.9667929e-08
8.9852442e-08
9.0268037e-08
9.0866004e-08
9.1079244e-08
8.9198885e-08
8.1840313e-08
6.3549651e-08
3.3383236e-08
7.9326854e-09
7.0722652e-10
2.3001927e-10
9.0366514e-08
9.0367252e-08
9.0368219e-08
9.0369143e-08
9.0370038e-08
9.0370927e-08
9.0371797e-08
9.0372663e-08
9.0373507e-08
9.0374335e-08
9.0375127e-08
9.0375891e-08
9.0376625e-08
9.037735e-08
9.0378063e-08
9.0378787e-08
9.0379527e-08
9.0380274e-08
9.0380966e-08
9.0381615e-08
9.0382247e-08
9.0382847e-08
9.0383308e-08
9.0383546e-08
9.0383501e-08
9.0383291e-08
9.0383164e-08
9.038313e-08
9.0383134e-08
9.0383153e-08
9.0383144e-08
9.038309e-08
9.0382981e-08
9.0382809e-08
9.0382548e-08
9.0382229e-08
9.0381983e-08
9.0381988e-08
9.0382154e-08
9.0382022e-08
9.0381204e-08
9.0379959e-08
9.0378864e-08
9.0377668e-08
9.0374291e-08
9.0366006e-08
9.0357978e-08
9.0379172e-08
9.0502985e-08
9.0840562e-08
9.1433624e-08
9.1930571e-08
9.0933775e-08
8.5110535e-08
6.9243421e-08
3.9260555e-08
1.0185223e-08
8.7558222e-10
2.1723646e-10
9.1204933e-08
9.1205684e-08
9.1206612e-08
9.1207492e-08
9.1208342e-08
9.1209176e-08
9.1209991e-08
9.1210795e-08
9.1211577e-08
9.1212334e-08
9.1213052e-08
9.1213737e-08
9.1214393e-08
9.1215042e-08
9.1215684e-08
9.1216336e-08
9.1217007e-08
9.1217681e-08
9.1218305e-08
9.1218899e-08
9.1219496e-08
9.1220055e-08
9.1220458e-08
9.1220624e-08
9.1220493e-08
9.1220191e-08
9.1220063e-08
9.1220038e-08
9.1220045e-08
9.1220061e-08
9.1220063e-08
9.1220018e-08
9.1219936e-08
9.12198e-08
9.121959e-08
9.1219296e-08
9.1219024e-08
9.1218985e-08
9.1219234e-08
9.1219314e-08
9.1218679e-08
9.1217439e-08
9.1216285e-08
9.1215566e-08
9.1213906e-08
9.1207844e-08
9.1197425e-08
9.1199144e-08
9.1269479e-08
9.1519074e-08
9.2053526e-08
9.2713733e-08
9.2457118e-08
8.8352653e-08
7.4979697e-08
4.6004277e-08
1.3217685e-08
1.1090389e-09
2.1243036e-10
9.2154788e-08
9.215557e-08
9.2156472e-08
9.2157295e-08
9.2158087e-08
9.215885e-08
9.2159599e-08
9.2160328e-08
9.2161033e-08
9.2161701e-08
9.2162328e-08
9.2162913e-08
9.2163475e-08
9.2164035e-08
9.2164596e-08
9.2165164e-08
9.2165749e-08
9.2166335e-08
9.2166875e-08
9.2167405e-08
9.2167961e-08
9.2168466e-08
9.2168791e-08
9.2168882e-08
9.2168596e-08
9.2168225e-08
9.2168096e-08
9.216808e-08
9.2168091e-08
9.2168103e-08
9.2168117e-08
9.2168079e-08
9.2168031e-08
9.2167941e-08
9.2167804e-08
9.2167563e-08
9.2167267e-08
9.2167154e-08
9.2167492e-08
9.2167809e-08
9.2167423e-08
9.2166262e-08
9.2164982e-08
9.2164416e-08
9.2163944e-08
9.2160687e-08
9.2151411e-08
9.2142363e-08
9.2170704e-08
9.2332379e-08
9.2768676e-08
9.3484643e-08
9.3791303e-08
9.1237138e-08
8.0627693e-08
5.3575193e-08
1.7303589e-08
1.4648714e-09
2.2089636e-10
9.3232577e-08
9.3233494e-08
9.3234377e-08
9.3235143e-08
9.3235882e-08
9.3236584e-08
9.3237277e-08
9.3237937e-08
9.3238568e-08
9.3239146e-08
9.3239682e-08
9.3240162e-08
9.3240626e-08
9.3241094e-08
9.3241577e-08
9.3242066e-08
9.3242587e-08
9.3243078e-08
9.3243537e-08
9.3244012e-08
9.3244537e-08
9.324499e-08
9.3245244e-08
9.3245181e-08
9.3244714e-08
9.3244355e-08
9.3244236e-08
9.3244209e-08
9.3244225e-08
9.3244236e-08
9.3244264e-08
9.3244232e-08
9.3244229e-08
9.3244177e-08
9.3244136e-08
9.3243984e-08
9.324371e-08
9.3243488e-08
9.3243815e-08
9.3244434e-08
9.324435e-08
9.3243334e-08
9.3241941e-08
9.3241197e-08
9.3241353e-08
9.3240686e-08
9.3234655e-08
9.3222533e-08
9.3223066e-08
9.3306908e-08
9.3620267e-08
9.4290875e-08
9.4980854e-08
9.3787223e-08
8.5936127e-08
6.185457e-08
2.2746972e-08
2.0391309e-09
2.3825736e-10
6.4966459e-10
6.8131361e-10
7.0117633e-10
7.1522165e-10
7.269039e-10
7.373408e-10
7.4650611e-10
7.540691e-10
7.5973605e-10
7.6329829e-10
7.6457163e-10
7.6336163e-10
7.5943218e-10
7.5249671e-10
7.4220856e-10
7.2817305e-10
7.0994642e-10
6.8707629e-10
6.591147e-10
6.2570673e-10
5.865469e-10
5.4177409e-10
4.9187775e-10
4.3768261e-10
3.8002997e-10
3.2002351e-10
2.5929976e-10
2.0052047e-10
1.4322282e-10
9.315716e-11
5.1849856e-11
2.113888e-11
3.3380425e-12
2.0421529e-12
9.2847209e-12
2.9277653e-11
6.4786237e-11
1.1322638e-10
1.6818897e-10
2.224919e-10
2.7879947e-10
3.3787577e-10
3.9949484e-10
4.6280248e-10
5.2405403e-10
5.8350724e-10
6.410504e-10
6.9619373e-10
7.4809409e-10
7.9594483e-10
8.3956902e-10
8.7931333e-10
9.1556659e-10
9.4871e-10
9.790542e-10
1.0065817e-09
1.0313568e-09
1.0538189e-09
1.0743767e-09
1.0932534e-09
1.1105872e-09
1.1265015e-09
1.1410937e-09
1.1544781e-09
1.1668242e-09
1.1782285e-09
1.1887186e-09
1.1983431e-09
1.207174e-09
1.2152781e-09
1.2227242e-09
1.2295595e-09
1.2358639e-09
1.2416129e-09
4.8518047e-10
5.1463396e-10
5.4242904e-10
5.6803527e-10
5.9026603e-10
6.0908e-10
6.2474291e-10
6.3751104e-10
6.4754767e-10
6.5497247e-10
6.5988018e-10
6.623238e-10
6.6228349e-10
6.5965756e-10
6.5425522e-10
6.4580979e-10
6.3398295e-10
6.1839414e-10
5.9863377e-10
5.743397e-10
5.4513405e-10
5.1095289e-10
4.707482e-10
4.2456056e-10
3.7416521e-10
3.2114715e-10
2.6702319e-10
2.1385428e-10
1.6344129e-10
1.1764844e-10
7.7631384e-11
4.9424493e-11
2.4530128e-11
9.1859346e-12
9.0642048e-12
1.6516494e-11
3.4310106e-11
6.213035e-11
9.773591e-11
1.3680424e-10
1.7818948e-10
2.2165518e-10
2.6715229e-10
3.1473763e-10
3.6255445e-10
4.0970589e-10
4.5570608e-10
5.0038537e-10
5.4345367e-10
5.8436607e-10
6.2273048e-10
6.5841537e-10
6.9145457e-10
7.2197943e-10
7.5015423e-10
7.7617332e-10
8.0014255e-10
8.220002e-10
8.4193435e-10
8.6015663e-10
8.7684536e-10
8.9214927e-10
9.0619297e-10
9.1908031e-10
9.3091415e-10
9.4180148e-10
9.5182154e-10
9.6104335e-10
9.6952872e-10
9.7733684e-10
9.8452169e-10
9.9113157e-10
9.9722234e-10
1.002812e-09
1.3746047e-09
1.1477812e-09
9.6540751e-10
8.2328418e-10
7.1789391e-10
6.43972e-10
5.942924e-10
5.6523853e-10
5.5271039e-10
5.5143477e-10
5.5676528e-10
5.6519553e-10
5.7421752e-10
5.8206409e-10
5.8756408e-10
5.8999179e-10
5.8891644e-10
5.8407339e-10
5.7526321e-10
5.6231671e-10
5.4502489e-10
5.2331016e-10
4.968303e-10
4.6528232e-10
4.2897412e-10
3.8866274e-10
3.4534104e-10
3.0033617e-10
2.5505335e-10
2.103518e-10
1.6810627e-10
1.2976776e-10
9.7625393e-11
7.0002741e-11
5.1433478e-11
3.8616682e-11
3.8321992e-11
4.3940289e-11
5.5724541e-11
7.1939869e-11
9.2087911e-11
1.1548619e-10
1.4147708e-10
1.6960048e-10
1.9918436e-10
2.2959383e-10
2.6029717e-10
2.9090823e-10
3.2111971e-10
3.5063294e-10
3.7918372e-10
4.0656767e-10
4.3264583e-10
4.5733966e-10
4.8062325e-10
5.0241602e-10
5.2271886e-10
5.4157911e-10
5.590631e-10
5.7524634e-10
5.902103e-10
6.0403502e-10
6.1680165e-10
6.2858073e-10
6.3947729e-10
6.4955655e-10
6.5887714e-10
6.6749361e-10
6.7545688e-10
6.8281444e-10
6.8961099e-10
6.9588686e-10
7.0168424e-10
7.0703018e-10
6.5257957e-09
4.6562259e-09
3.3649404e-09
2.5073746e-09
1.9521306e-09
1.5809824e-09
1.3199461e-09
1.1172e-09
9.454979e-10
8.1459421e-10
7.1709852e-10
6.4591568e-10
5.9751357e-10
5.675313e-10
5.5137948e-10
5.4463909e-10
5.4361363e-10
5.4534135e-10
5.4754788e-10
5.4825693e-10
5.4529104e-10
5.3778098e-10
5.2586126e-10
5.0958195e-10
4.8900115e-10
4.6434477e-10
4.3602957e-10
4.046516e-10
3.7117164e-10
3.3668743e-10
3.0199761e-10
2.6718107e-10
2.3401216e-10
2.0274026e-10
1.7438372e-10
1.4852817e-10
1.2848272e-10
1.1441388e-10
1.0393144e-10
1.0096162e-10
1.0085703e-10
1.0350317e-10
1.0859824e-10
1.1555874e-10
1.2428119e-10
1.3458113e-10
1.4612079e-10
1.5858865e-10
1.7170807e-10
1.85235e-10
1.9895553e-10
2.1268586e-10
2.2627195e-10
2.3958929e-10
2.5253836e-10
2.6504161e-10
2.7704031e-10
2.8849241e-10
2.9937207e-10
3.0966671e-10
3.1937526e-10
3.2850516e-10
3.3707013e-10
3.4508857e-10
3.5258285e-10
3.5957675e-10
3.660952e-10
3.7216364e-10
3.7780737e-10
3.8305122e-10
3.8791971e-10
3.9243488e-10
3.9662424e-10
4.0049248e-10
2.1835847e-08
1.6368323e-08
1.2013308e-08
8.7125531e-09
6.3141986e-09
4.6131789e-09
3.4572306e-09
2.669356e-09
2.1074832e-09
1.7173614e-09
1.4358872e-09
1.2248113e-09
1.057347e-09
9.1464188e-10
8.0251592e-10
7.1614961e-10
6.5099125e-10
6.0404445e-10
5.716756e-10
5.5274729e-10
5.4415794e-10
5.4150112e-10
5.4116752e-10
5.3863947e-10
5.3302463e-10
5.2421959e-10
5.1227872e-10
4.9729886e-10
4.795353e-10
4.5949063e-10
4.377163e-10
4.145216e-10
3.9031799e-10
3.6612316e-10
3.4021834e-10
3.1740467e-10
2.9476193e-10
2.7376511e-10
2.5447093e-10
2.3827343e-10
2.2507379e-10
2.1452918e-10
2.0671387e-10
1.9981857e-10
1.9572191e-10
1.9291177e-10
1.9113736e-10
1.9025961e-10
1.9015199e-10
1.9072467e-10
1.9186906e-10
1.9348324e-10
1.9547332e-10
1.9775474e-10
2.0025328e-10
2.0290422e-10
2.0565136e-10
2.0844738e-10
2.1125251e-10
2.1403435e-10
2.1676705e-10
2.194302e-10
2.2200811e-10
2.2448927e-10
2.2686567e-10
2.2913186e-10
2.3128468e-10
2.3332298e-10
2.3524714e-10
2.3705868e-10
2.3876017e-10
2.4035431e-10
2.4184705e-10
2.4323194e-10
4.3909742e-08
3.5797258e-08
2.8332343e-08
2.1895601e-08
1.6603937e-08
1.2419411e-08
9.2341804e-09
6.8859727e-09
5.1687135e-09
3.9360538e-09
3.0533009e-09
2.4311534e-09
1.9839782e-09
1.6501494e-09
1.4032822e-09
1.214764e-09
1.0638694e-09
9.4103832e-10
8.3357618e-10
7.4945353e-10
6.8260278e-10
6.3133692e-10
5.9804309e-10
5.7790951e-10
5.6661063e-10
5.6101602e-10
5.573746e-10
5.5290777e-10
5.4690411e-10
5.3922628e-10
5.2997439e-10
5.193502e-10
5.0745807e-10
4.9468072e-10
4.8118713e-10
4.6712086e-10
4.5280818e-10
4.3854802e-10
4.2425427e-10
4.0956987e-10
3.9590596e-10
3.8390949e-10
3.731153e-10
3.6350763e-10
3.5504967e-10
3.4763987e-10
3.4114652e-10
3.3567385e-10
3.3096524e-10
3.2670658e-10
3.228934e-10
3.1954412e-10
3.1662086e-10
3.1407649e-10
3.1186714e-10
3.0995195e-10
3.0829209e-10
3.068528e-10
3.0560452e-10
3.0452086e-10
3.0358408e-10
3.027714e-10
3.0206218e-10
3.0144117e-10
3.0089608e-10
3.0041648e-10
2.9999328e-10
2.9961854e-10
2.9928538e-10
2.9898788e-10
2.9872089e-10
2.9848006e-10
2.9826139e-10
2.9806184e-10
6.3611014e-08
5.5767987e-08