/*--------------------------------*- C++ -*----------------------------------*\
| =========                 |                                                 |
| \\      /  F ield         | OpenFOAM: The Open Source CFD Toolbox           |
|  \\    /   O peration     | Version:  v2006                                 |
|   \\  /    A nd           | Website:  www.openfoam.com                      |
|    \\/     M anipulation  |                                                 |
\*---------------------------------------------------------------------------*/
FoamFile
{
    version     2.0;
    format      ascii;
    class       volScalarField;
    location    "4000";
    object      nutMean;
}
// * * * * * * * * * * * * * * * * * * * * * * * * * * * * * * * * * * * * * //

dimensions      [0 2 -1 0 0 0 0];


internalField   nonuniform List<scalar> 
55713
(
3.5715834e-10
2.9905601e-09
2.8969089e-08
6.9333289e-08
8.95841e-08
9.5637564e-08
9.5883167e-08
9.5041365e-08
9.4483052e-08
9.4278197e-08
9.4244533e-08
9.4255876e-08
9.4266994e-08
9.427135e-08
9.427215e-08
9.4272253e-08
9.4272318e-08
9.4272523e-08
9.4272788e-08
9.4272843e-08
9.4272614e-08
9.4272271e-08
9.4271929e-08
9.4271607e-08
9.4271354e-08
9.4271217e-08
9.4271138e-08
9.4271041e-08
9.4270892e-08
9.4270702e-08
9.427049e-08
9.427026e-08
9.4270049e-08
9.4269953e-08
9.4270128e-08
9.4270691e-08
9.4270858e-08
9.4270459e-08
9.4269703e-08
9.426876e-08
9.4267843e-08
9.4266994e-08
9.4266062e-08
9.4264978e-08
9.4263847e-08
9.4262747e-08
9.4261693e-08
9.4260695e-08
9.4259747e-08
9.4258811e-08
9.4257847e-08
9.4256831e-08
9.4255768e-08
9.4254696e-08
9.4253635e-08
9.4252596e-08
9.4251577e-08
9.4250459e-08
9.4249188e-08
4.254389e-10
4.2924657e-09
3.6020396e-08
7.6181362e-08
9.3019759e-08
9.6945229e-08
9.6580705e-08
9.5758844e-08
9.5330298e-08
9.5205332e-08
9.5198498e-08
9.521184e-08
9.521958e-08
9.5221466e-08
9.5221338e-08
9.5221013e-08
9.5220659e-08
9.5220481e-08
9.5220369e-08
9.5219988e-08
9.521933e-08
9.5218587e-08
9.5217873e-08
9.5217195e-08
9.5216608e-08
9.5216145e-08
9.5215727e-08
9.5215288e-08
9.5214805e-08
9.5214281e-08
9.5213734e-08
9.5213164e-08
9.5212594e-08
9.5212121e-08
9.5211909e-08
9.5212223e-08
9.521219e-08
9.5211473e-08
9.5210377e-08
9.5209056e-08
9.5207748e-08
9.5206544e-08
9.5205278e-08
9.5203817e-08
9.5202267e-08
9.5200735e-08
9.5199236e-08
9.5197778e-08
9.5196357e-08
9.5194936e-08
9.5193467e-08
9.5191917e-08
9.5190275e-08
9.5188575e-08
9.5186841e-08
9.5185067e-08
9.5183253e-08
9.5181272e-08
9.5179035e-08
5.2103927e-10
6.0137452e-09
4.3535614e-08
8.2288086e-08
9.5693257e-08
9.8014646e-08
9.7304842e-08
9.6567876e-08
9.6259416e-08
9.61938e-08
9.6201702e-08
9.6213673e-08
9.6217846e-08
9.6217824e-08
9.6217242e-08
9.6216519e-08
9.6215753e-08
9.62152e-08
9.6214689e-08
9.6213865e-08
9.6212799e-08
9.6211688e-08
9.6210622e-08
9.6209607e-08
9.620871e-08
9.6207934e-08
9.6207192e-08
9.6206427e-08
9.6205625e-08
9.6204786e-08
9.6203922e-08
9.6203033e-08
9.6202135e-08
9.6201295e-08
9.6200713e-08
9.6200744e-08
9.620058e-08
9.619959e-08
9.6198177e-08
9.6196501e-08
9.6194819e-08
9.6193279e-08
9.6191718e-08
9.618992e-08
9.6187981e-08
9.6186046e-08
9.6184137e-08
9.6182253e-08
9.6180397e-08
9.6178531e-08
9.6176604e-08
9.6174571e-08
9.6172406e-08
9.6170137e-08
9.6167795e-08
9.616536e-08
9.616283e-08
9.6160074e-08
9.6156951e-08
6.5700208e-10
8.3592447e-09
5.1675046e-08
8.7786344e-08
9.7927837e-08
9.8967563e-08
9.8082208e-08
9.7474021e-08
9.7273604e-08
9.7249317e-08
9.7262853e-08
9.7270946e-08
9.7271924e-08
9.72711e-08
9.727023e-08
9.7269079e-08
9.7267916e-08
9.7267032e-08
9.7266137e-08
9.7264902e-08
9.726346e-08
9.7262005e-08
9.7260612e-08
9.7259292e-08
9.7258115e-08
9.725705e-08
9.7256007e-08
9.7254943e-08
9.7253848e-08
9.725272e-08
9.7251566e-08
9.7250385e-08
9.7249188e-08
9.7248024e-08
9.7247082e-08
9.7246814e-08
9.7246574e-08
9.7245369e-08
9.7243672e-08
9.724167e-08
9.7239633e-08
9.7237774e-08
9.7235957e-08
9.7233877e-08
9.7231586e-08
9.7229279e-08
9.7226995e-08
9.7224721e-08
9.7222468e-08
9.7220197e-08
9.7217855e-08
9.7215389e-08
9.7212753e-08
9.7209965e-08
9.7207069e-08
9.7204035e-08
9.7200847e-08
9.7197392e-08
9.7193455e-08
8.5135982e-10
1.1468809e-08
6.0156481e-08
9.2528052e-08
9.9759526e-08
9.9859633e-08
9.8946108e-08
9.8486205e-08
9.8371996e-08
9.8372148e-08
9.8384737e-08
9.838826e-08
9.8387521e-08
9.8386389e-08
9.8385167e-08
9.8383573e-08
9.8382056e-08
9.8380886e-08
9.8379626e-08
9.8378005e-08
9.8376217e-08
9.8374444e-08
9.8372755e-08
9.837117e-08
9.8369745e-08
9.8368418e-08
9.83671e-08
9.8365767e-08
9.8364408e-08
9.8363022e-08
9.836161e-08
9.836017e-08
9.8358709e-08
9.8357261e-08
9.8355991e-08
9.8355408e-08
9.8355121e-08
9.8353796e-08
9.8351856e-08
9.8349562e-08
9.8347195e-08
9.8345039e-08
9.8343011e-08
9.8340719e-08
9.8338124e-08
9.8335486e-08
9.8332874e-08
9.8330258e-08
9.8327659e-08
9.8325036e-08
9.8322337e-08
9.8319503e-08
9.8316468e-08
9.8313231e-08
9.8309856e-08
9.8306309e-08
9.8302549e-08
9.82985e-08
9.8293852e-08
1.1323566e-09
1.554295e-08
6.8715454e-08
9.6105797e-08
1.0128992e-07
1.0075343e-07
9.992107e-08
9.9607137e-08
9.9554372e-08
9.9565397e-08
9.9573261e-08
9.9573665e-08
9.9572105e-08
9.9570791e-08
9.956916e-08
9.9567142e-08
9.9565346e-08
9.9563931e-08
9.9562331e-08
9.9560361e-08
9.9558259e-08
9.9556201e-08
9.9554259e-08
9.9552457e-08
9.9550819e-08
9.9549261e-08
9.9547705e-08
9.9546138e-08
9.9544552e-08
9.9542946e-08
9.9541314e-08
9.9539655e-08
9.953797e-08
9.9536285e-08
9.9534737e-08
9.953384e-08
9.9533491e-08
9.9532187e-08
9.9530053e-08
9.952751e-08
9.9524843e-08
9.9522411e-08
9.9520219e-08
9.9517799e-08
9.9514965e-08
9.9512044e-08
9.9509161e-08
9.9506261e-08
9.9503376e-08
9.9500465e-08
9.9497476e-08
9.949435e-08
9.9491002e-08
9.9487401e-08
9.9483629e-08
9.9479673e-08
9.947544e-08
9.9470919e-08
9.9465679e-08
1.544379e-09
2.0790787e-08
7.6961737e-08
9.8983405e-08
1.0253705e-07
1.0168886e-07
1.0102547e-07
1.0083728e-07
1.0082239e-07
1.008338e-07
1.0083714e-07
1.0083564e-07
1.0083381e-07
1.0083231e-07
1.0083025e-07
1.0082785e-07
1.0082586e-07
1.0082425e-07
1.0082234e-07
1.0082006e-07
1.0081768e-07
1.0081539e-07
1.0081325e-07
1.0081128e-07
1.0080947e-07
1.0080772e-07
1.0080597e-07
1.0080422e-07
1.0080245e-07
1.0080067e-07
1.0079886e-07
1.0079703e-07
1.0079517e-07
1.007933e-07
1.0079153e-07
1.0079035e-07
1.007899e-07
1.0078878e-07
1.0078653e-07
1.0078379e-07
1.0078086e-07
1.0077818e-07
1.0077587e-07
1.0077342e-07
1.0077044e-07
1.0076729e-07
1.0076421e-07
1.007611e-07
1.00758e-07
1.0075488e-07
1.0075168e-07
1.0074836e-07
1.007448e-07
1.0074095e-07
1.0073688e-07
1.0073264e-07
1.0072806e-07
1.0072321e-07
1.0071753e-07
2.1646799e-09
2.7433287e-08
8.5022199e-08
1.0200186e-07
1.0363965e-07
1.0273608e-07
1.0227161e-07
1.0217514e-07
1.0217983e-07
1.0218654e-07
1.0218644e-07
1.0218401e-07
1.0218221e-07
1.0218045e-07
1.0217796e-07
1.0217527e-07
1.021732e-07
1.0217144e-07
1.0216927e-07
1.0216672e-07
1.021641e-07
1.0216163e-07
1.0215937e-07
1.021573e-07
1.0215537e-07
1.0215347e-07
1.0215158e-07
1.021497e-07
1.021478e-07
1.021459e-07
1.0214397e-07
1.0214203e-07
1.0214006e-07
1.0213807e-07
1.0213615e-07
1.0213473e-07
1.0213416e-07
1.0213334e-07
1.021311e-07
1.0212823e-07
1.021251e-07
1.021222e-07
1.0211982e-07
1.0211747e-07
1.0211444e-07
1.0211115e-07
1.0210795e-07
1.0210471e-07
1.021015e-07
1.0209828e-07
1.0209497e-07
1.0209155e-07
1.0208792e-07
1.0208395e-07
1.020797e-07
1.0207534e-07
1.0207057e-07
1.0206557e-07
1.0205963e-07
3.1427694e-09
3.5676684e-08
9.2208675e-08
1.0430285e-07
1.0475503e-07
1.0395727e-07
1.0366209e-07
1.0362396e-07
1.0363279e-07
1.0363479e-07
1.0363297e-07
1.0363025e-07
1.0362858e-07
1.036265e-07
1.0362364e-07
1.0362077e-07
1.0361872e-07
1.0361688e-07
1.036145e-07
1.0361172e-07
1.0360893e-07
1.0360638e-07
1.0360408e-07
1.0360198e-07
1.0359997e-07
1.03598e-07
1.0359604e-07
1.0359408e-07
1.0359213e-07
1.0359017e-07
1.035882e-07
1.0358622e-07
1.0358422e-07
1.0358219e-07
1.0358019e-07
1.035786e-07
1.0357793e-07
1.0357744e-07
1.0357547e-07
1.0357254e-07
1.0356926e-07
1.0356621e-07
1.035638e-07
1.0356167e-07
1.0355875e-07
1.035554e-07
1.0355221e-07
1.0354896e-07
1.0354574e-07
1.0354254e-07
1.0353925e-07
1.0353588e-07
1.0353232e-07
1.0352841e-07
1.0352414e-07
1.0351984e-07
1.0351507e-07
1.0351015e-07
1.0350417e-07
4.7940893e-09
4.5669188e-08
9.8561099e-08
1.0630602e-07
1.059857e-07
1.0535716e-07
1.0519464e-07
1.0518865e-07
1.0519452e-07
1.0519296e-07
1.0519053e-07
1.0518783e-07
1.0518632e-07
1.051839e-07
1.0518076e-07
1.0517788e-07
1.0517596e-07
1.0517416e-07
1.0517159e-07
1.0516863e-07
1.0516577e-07
1.0516327e-07
1.0516103e-07
1.0515896e-07
1.0515696e-07
1.0515499e-07
1.0515304e-07
1.0515111e-07
1.0514917e-07
1.0514725e-07
1.0514532e-07
1.0514339e-07
1.0514144e-07
1.0513947e-07
1.0513751e-07
1.0513585e-07
1.051351e-07
1.0513496e-07
1.0513357e-07
1.0513069e-07
1.0512732e-07
1.0512421e-07
1.0512183e-07
1.0512003e-07
1.0511742e-07
1.0511415e-07
1.051111e-07
1.0510797e-07
1.051049e-07
1.0510189e-07
1.0509877e-07
1.0509562e-07
1.0509231e-07
1.0508869e-07
1.050846e-07
1.0508057e-07
1.0507608e-07
1.0507147e-07
1.0506575e-07
7.5071757e-09
5.7440233e-08
1.0380703e-07
1.0808511e-07
1.0737745e-07
1.0694646e-07
1.0687408e-07
1.0687997e-07
1.0688059e-07
1.0687728e-07
1.0687514e-07
1.0687253e-07
1.0687124e-07
1.0686851e-07
1.0686525e-07
1.0686255e-07
1.0686093e-07
1.0685927e-07
1.0685652e-07
1.0685345e-07
1.068507e-07
1.0684839e-07
1.0684633e-07
1.0684438e-07
1.0684248e-07
1.0684062e-07
1.0683879e-07
1.0683698e-07
1.0683518e-07
1.068334e-07
1.0683162e-07
1.0682985e-07
1.0682807e-07
1.0682628e-07
1.0682448e-07
1.0682289e-07
1.068221e-07
1.0682229e-07
1.0682181e-07
1.0681922e-07
1.0681581e-07
1.0681273e-07
1.0681051e-07
1.0680913e-07
1.0680709e-07
1.0680405e-07
1.0680135e-07
1.0679851e-07
1.0679575e-07
1.0679315e-07
1.0679039e-07
1.0678767e-07
1.0678481e-07
1.0678176e-07
1.0677813e-07
1.0677461e-07
1.0677074e-07
1.0676672e-07
1.0676163e-07
1.138738e-08
7.0938044e-08
1.0726482e-07
1.0969476e-07
1.0897223e-07
1.0872939e-07
1.0870688e-07
1.087122e-07
1.0870923e-07
1.0870592e-07
1.0870456e-07
1.0870197e-07
1.0870107e-07
1.0869807e-07
1.0869496e-07
1.0869269e-07
1.0869162e-07
1.0869014e-07
1.0868722e-07
1.0868422e-07
1.0868182e-07
1.0867987e-07
1.0867809e-07
1.0867638e-07
1.0867472e-07
1.0867311e-07
1.0867153e-07
1.0866998e-07
1.0866845e-07
1.0866695e-07
1.0866545e-07
1.0866398e-07
1.0866251e-07
1.0866105e-07
1.0865957e-07
1.0865822e-07
1.0865751e-07
1.0865802e-07
1.0865863e-07
1.0865676e-07
1.0865338e-07
1.0865047e-07
1.0864857e-07
1.0864764e-07
1.0864653e-07
1.0864386e-07
1.086418e-07
1.0863944e-07
1.0863718e-07
1.0863525e-07
1.0863309e-07
1.0863105e-07
1.0862891e-07
1.0862669e-07
1.0862391e-07
1.0862116e-07
1.0861834e-07
1.0861521e-07
1.0861118e-07
1.7114219e-08
8.6083399e-08
1.0958565e-07
1.1120474e-07
1.1079102e-07
1.1070217e-07
1.1069947e-07
1.107001e-07
1.1069676e-07
1.1069444e-07
1.1069407e-07
1.1069152e-07
1.106912e-07
1.1068822e-07
1.1068564e-07
1.1068412e-07
1.1068378e-07
1.1068255e-07
1.1067962e-07
1.1067708e-07
1.106753e-07
1.1067386e-07
1.1067251e-07
1.1067122e-07
1.1066997e-07
1.1066878e-07
1.1066762e-07
1.106665e-07
1.1066541e-07
1.1066435e-07
1.1066332e-07
1.1066231e-07
1.1066132e-07
1.1066036e-07
1.106594e-07
1.1065852e-07
1.1065808e-07
1.1065879e-07
1.1066044e-07
1.1065977e-07
1.1065673e-07
1.1065419e-07
1.106528e-07
1.1065241e-07
1.1065241e-07
1.1065036e-07
1.1064925e-07
1.1064761e-07
1.1064608e-07
1.1064505e-07
1.1064381e-07
1.1064268e-07
1.1064155e-07
1.1064042e-07
1.1063888e-07
1.1063721e-07
1.1063579e-07
1.1063397e-07
1.1063148e-07
2.5008364e-08
1.0255793e-07
1.1276702e-07
1.1294052e-07
1.1284766e-07
1.1284199e-07
1.1284269e-07
1.1284148e-07
1.1283929e-07
1.1283831e-07
1.1283864e-07
1.1283667e-07
1.1283664e-07
1.1283465e-07
1.1283309e-07
1.1283264e-07
1.1283289e-07
1.1283212e-07
1.1282992e-07
1.128285e-07
1.1282765e-07
1.1282694e-07
1.1282625e-07
1.1282561e-07
1.1282502e-07
1.1282447e-07
1.1282395e-07
1.1282347e-07
1.1282301e-07
1.1282259e-07
1.1282221e-07
1.1282186e-07
1.1282153e-07
1.1282124e-07
1.1282096e-07
1.1282074e-07
1.1282074e-07
1.1282132e-07
1.1282338e-07
1.1282389e-07
1.1282199e-07
1.1282054e-07
1.1281998e-07
1.1282019e-07
1.1282074e-07
1.1282013e-07
1.1282019e-07
1.1281962e-07
1.1281924e-07
1.1281923e-07
1.1281921e-07
1.128192e-07
1.1281925e-07
1.1281934e-07
1.1281929e-07
1.1281909e-07
1.128192e-07
1.1281904e-07
1.1281863e-07
8.5577498e-08
8.5575148e-08
8.5573575e-08
8.557493e-08
8.5575545e-08
8.5576424e-08
8.557724e-08
8.5578106e-08
8.5579002e-08
8.5579915e-08
8.5580829e-08
8.5581739e-08
8.5582651e-08
8.5583582e-08
8.5584542e-08
8.5585527e-08
8.5586515e-08
8.5587492e-08
8.5588444e-08
8.5589362e-08
8.5590231e-08
8.5591013e-08
8.5591623e-08
8.5591979e-08
8.5592061e-08
8.5591949e-08
8.5591775e-08
8.5591649e-08
8.5591603e-08
8.5591607e-08
8.5591608e-08
8.5591581e-08
8.559154e-08
8.559151e-08
8.5591482e-08
8.5591417e-08
8.559127e-08
8.5591013e-08
8.5590663e-08
8.559018e-08
8.5589023e-08
8.5585681e-08
8.5578594e-08
8.5571053e-08
8.558155e-08
8.5654829e-08
8.5856706e-08
8.6223235e-08
8.6634275e-08
8.6607461e-08
8.5063457e-08
8.0185966e-08
6.9319526e-08
5.060747e-08
2.7004222e-08
8.6657161e-09
1.7458637e-09
5.5870324e-10
7.7055743e-10
8.5867927e-08
8.5865886e-08
8.5865444e-08
8.5866516e-08
8.5867284e-08
8.5868125e-08
8.5868967e-08
8.5869842e-08
8.5870746e-08
8.5871662e-08
8.5872576e-08
8.5873484e-08
8.5874393e-08
8.5875323e-08
8.5876281e-08
8.5877263e-08
8.587825e-08
8.5879226e-08
8.5880178e-08
8.5881095e-08
8.5881961e-08
8.5882737e-08
8.5883339e-08
8.5883682e-08
8.5883751e-08
8.5883626e-08
8.5883447e-08
8.5883321e-08
8.5883275e-08
8.5883273e-08
8.5883266e-08
8.5883231e-08
8.5883184e-08
8.5883149e-08
8.5883117e-08
8.5883052e-08
8.5882912e-08
8.5882671e-08
8.5882317e-08
8.5881742e-08
8.588039e-08
8.5876951e-08
8.5870331e-08
8.5863996e-08
8.5875086e-08
8.5944552e-08
8.6133985e-08
8.6482575e-08
8.6893515e-08
8.6937677e-08
8.5608521e-08
8.1121932e-08
7.0949386e-08
5.2836464e-08
2.9057551e-08
9.658126e-09
1.8858314e-09
5.1666805e-10
6.9020682e-10
8.6187632e-08
8.6185808e-08
8.61858e-08
8.618678e-08
8.6187605e-08
8.6188448e-08
8.6189307e-08
8.6190194e-08
8.6191107e-08
8.619203e-08
8.6192947e-08
8.6193857e-08
8.6194766e-08
8.6195695e-08
8.6196652e-08
8.6197633e-08
8.6198619e-08
8.6199596e-08
8.6200548e-08
8.6201462e-08
8.6202324e-08
8.6203097e-08
8.6203695e-08
8.6204034e-08
8.6204095e-08
8.6203961e-08
8.6203777e-08
8.620365e-08
8.6203601e-08
8.6203597e-08
8.6203587e-08
8.6203548e-08
8.6203496e-08
8.620346e-08
8.6203434e-08
8.6203382e-08
8.6203255e-08
8.6203023e-08
8.6202684e-08
8.620221e-08
8.6201215e-08
8.6198503e-08
8.6192467e-08
8.6184458e-08
8.6187218e-08
8.6236534e-08
8.6394205e-08
8.671679e-08
8.7155717e-08
8.7366048e-08
8.6445589e-08
8.2691895e-08
7.3551065e-08
5.6295794e-08
3.2214348e-08
1.1187132e-08
2.1150317e-09
4.9008206e-10
6.121279e-10
8.6539863e-08
8.6538342e-08
8.6538756e-08
8.6539669e-08
8.6540537e-08
8.6541384e-08
8.6542256e-08
8.6543153e-08
8.6544071e-08
8.6544997e-08
8.6545914e-08
8.6546821e-08
8.6547727e-08
8.6548653e-08
8.6549608e-08
8.6550586e-08
8.6551572e-08
8.6552547e-08
8.6553497e-08
8.6554406e-08
8.6555262e-08
8.6556028e-08
8.6556618e-08
8.6556945e-08
8.6556992e-08
8.6556844e-08
8.6556654e-08
8.6556527e-08
8.655648e-08
8.6556474e-08
8.6556461e-08
8.6556417e-08
8.655636e-08
8.6556322e-08
8.65563e-08
8.6556258e-08
8.6556147e-08
8.655593e-08
8.6555598e-08
8.6555147e-08
8.6554314e-08
8.6552108e-08
8.6546883e-08
8.6538811e-08
8.6537144e-08
8.6571978e-08
8.6701395e-08
8.6991049e-08
8.7430382e-08
8.7752994e-08
8.7165499e-08
8.4064765e-08
7.5923159e-08
5.9650529e-08
3.5527151e-08
1.2931775e-08
2.4221268e-09
4.7519193e-10
5.4697237e-10
8.6928608e-08
8.6927484e-08
8.6928172e-08
8.6929058e-08
8.6929945e-08
8.6930801e-08
8.6931682e-08
8.6932587e-08
8.6933508e-08
8.6934432e-08
8.6935345e-08
8.6936246e-08
8.6937148e-08
8.6938069e-08
8.693902e-08
8.6939996e-08
8.6940978e-08
8.6941951e-08
8.6942896e-08
8.6943797e-08
8.6944645e-08
8.6945403e-08
8.6945982e-08
8.6946293e-08
8.6946322e-08
8.6946156e-08
8.6945958e-08
8.6945834e-08
8.6945789e-08
8.6945783e-08
8.6945768e-08
8.694572e-08
8.6945659e-08
8.6945618e-08
8.69456e-08
8.6945571e-08
8.6945479e-08
8.694528e-08
8.694496e-08
8.694454e-08
8.6943867e-08
8.6942156e-08
8.6937774e-08
8.6929868e-08
8.6924372e-08
8.6945472e-08
8.7046196e-08
8.7298332e-08
8.7725913e-08
8.8141724e-08
8.7872212e-08
8.5432464e-08
7.8344449e-08
6.3213453e-08
3.9264995e-08
1.5034334e-08
2.8412724e-09
4.7231925e-10
4.8766898e-10
8.7358528e-08
8.7357904e-08
8.7358759e-08
8.735964e-08
8.7360533e-08
8.7361397e-08
8.7362285e-08
8.7363192e-08
8.7364112e-08
8.7365031e-08
8.7365936e-08
8.7366828e-08
8.7367721e-08
8.7368635e-08
8.7369581e-08
8.7370552e-08
8.737153e-08
8.7372498e-08
8.7373435e-08
8.7374325e-08
8.7375162e-08
8.7375908e-08
8.7376471e-08
8.7376762e-08
8.7376765e-08
8.7376578e-08
8.7376373e-08
8.7376252e-08
8.7376212e-08
8.7376207e-08
8.737619e-08
8.7376139e-08
8.7376073e-08
8.7376029e-08
8.7376015e-08
8.7376e-08
8.7375929e-08
8.7375753e-08
8.737545e-08
8.7375046e-08
8.7374483e-08
8.7373191e-08
8.7369695e-08
8.7362497e-08
8.7354683e-08
8.7364482e-08
8.7438089e-08
8.7648836e-08
8.8048653e-08
8.8525503e-08
8.8533642e-08
8.6728745e-08
8.0707642e-08
6.6884372e-08
4.3377784e-08
1.7533107e-08
3.3919341e-09
4.849526e-10
4.3769218e-10
8.7835224e-08
8.7835057e-08
8.7836002e-08
8.7836891e-08
8.7837783e-08
8.7838653e-08
8.7839543e-08
8.7840449e-08
8.7841363e-08
8.7842272e-08
8.7843164e-08
8.7844042e-08
8.7844922e-08
8.7845827e-08
8.7846765e-08
8.7847728e-08
8.7848698e-08
8.7849658e-08
8.7850582e-08
8.7851456e-08
8.7852278e-08
8.7853009e-08
8.7853551e-08
8.7853816e-08
8.7853787e-08
8.7853573e-08
8.785336e-08
8.7853245e-08
8.785321e-08
8.7853207e-08
8.7853189e-08
8.7853136e-08
8.7853066e-08
8.7853019e-08
8.7853009e-08
8.7853009e-08
8.7852963e-08
8.7852816e-08
8.7852535e-08
8.7852147e-08
8.7851658e-08
8.7850705e-08
8.7848054e-08
8.7841884e-08
8.7832978e-08
8.7833899e-08
8.7882817e-08
8.8050425e-08
8.8409237e-08
8.8915685e-08
8.9156245e-08
8.7953006e-08
8.2946295e-08
7.0642397e-08
4.7888834e-08
2.0529023e-08
4.11545e-09
5.148204e-10
3.943899e-10
8.836526e-08
8.8365436e-08
8.8366419e-08
8.8367317e-08
8.8368201e-08
8.8369072e-08
8.8369959e-08
8.8370858e-08
8.837176e-08
8.8372651e-08
8.8373524e-08
8.8374382e-08
8.8375246e-08
8.8376136e-08
8.8377061e-08
8.8378011e-08
8.8378969e-08
8.8379915e-08
8.838082e-08
8.8381673e-08
8.8382476e-08
8.8383186e-08
8.8383702e-08
8.8383933e-08
8.8383865e-08
8.8383617e-08
8.8383396e-08
8.8383288e-08
8.838326e-08
8.8383259e-08
8.8383242e-08
8.8383188e-08
8.8383114e-08
8.8383064e-08
8.8383059e-08
8.8383076e-08
8.8383057e-08
8.8382945e-08
8.8382695e-08
8.8382323e-08
8.838188e-08
8.8381179e-08
8.8379287e-08
8.8374354e-08
8.8365516e-08
8.8360217e-08
8.8387904e-08
8.851268e-08
8.8819466e-08
8.9323393e-08
8.9739848e-08
8.9082452e-08
8.516922e-08
7.4424074e-08
5.2778735e-08
2.4112595e-08
5.0717345e-09
5.690004e-10
3.5785842e-10
8.8956376e-08
8.8956791e-08
8.8957782e-08
8.8958679e-08
8.8959551e-08
8.8960414e-08
8.896129e-08
8.8962174e-08
8.8963055e-08
8.8963922e-08
8.8964766e-08
8.8965597e-08
8.8966435e-08
8.8967304e-08
8.8968209e-08
8.896914e-08
8.897008e-08
8.8971004e-08
8.8971882e-08
8.8972706e-08
8.8973484e-08
8.8974169e-08
8.8974651e-08
8.8974838e-08
8.897472e-08
8.8974431e-08
8.8974203e-08
8.8974104e-08
8.8974084e-08
8.8974087e-08
8.8974071e-08
8.8974018e-08
8.8973941e-08
8.8973888e-08
8.8973888e-08
8.8973924e-08
8.8973936e-08
8.8973867e-08
8.8973659e-08
8.8973312e-08
8.8972895e-08
8.8972365e-08
8.8971098e-08
8.8967454e-08
8.8959602e-08
8.8950709e-08
8.8961462e-08
8.9046095e-08
8.9293387e-08
8.9765248e-08
9.0300155e-08
9.0114947e-08
8.7243634e-08
7.817748e-08
5.8010957e-08
2.8376548e-08
6.3369317e-09
6.5241308e-10
3.2770493e-10
8.9617887e-08
8.9618459e-08
8.9619439e-08
8.9620323e-08
8.9621174e-08
8.9622021e-08
8.9622876e-08
8.9623734e-08
8.9624584e-08
8.9625414e-08
8.9626218e-08
8.962701e-08
8.9627813e-08
8.9628651e-08
8.9629527e-08
8.963043e-08
8.9631343e-08
8.9632235e-08
8.9633073e-08
8.9633859e-08
8.9634605e-08
8.9635256e-08
8.9635694e-08
8.9635827e-08
8.9635645e-08
8.9635306e-08
8.9635073e-08
8.9634986e-08
8.9634974e-08
8.9634981e-08
8.9634968e-08
8.9634916e-08
8.9634839e-08
8.9634785e-08
8.9634789e-08
8.9634848e-08
8.9634898e-08
8.9634878e-08
8.9634727e-08
8.9634419e-08
8.9634024e-08
8.9633593e-08
8.9632791e-08
8.9630347e-08
8.9624104e-08
8.9614015e-08
8.9612666e-08
8.9662202e-08
8.9846946e-08
9.0260722e-08
9.0852767e-08
9.1055399e-08
8.9162696e-08
8.1797137e-08
6.3520629e-08
3.3408513e-08
8.0212167e-09
7.761605e-10
3.0410806e-10
9.0361111e-08
9.0361773e-08
9.0362724e-08
9.0363582e-08
9.0364401e-08
9.0365219e-08
9.0366038e-08
9.0366856e-08
9.036766e-08
9.0368437e-08
9.0369185e-08
9.0369923e-08
9.0370678e-08
9.0371473e-08
9.0372307e-08
9.037317e-08
9.0374043e-08
9.0374887e-08
9.0375669e-08
9.0376405e-08
9.0377111e-08
9.0377718e-08
9.0378099e-08
9.0378164e-08
9.0377899e-08
9.0377496e-08
9.0377263e-08
9.0377192e-08
9.0377187e-08
9.0377198e-08
9.0377189e-08
9.0377142e-08
9.0377068e-08
9.0377014e-08
9.0377025e-08
9.037711e-08
9.0377204e-08
9.0377245e-08
9.0377166e-08
9.0376919e-08
9.0376552e-08
9.0376177e-08
9.0375681e-08
9.0374225e-08
9.0369853e-08
9.0360515e-08
9.0351993e-08
9.0373484e-08
9.0497767e-08
9.0834343e-08
9.1422686e-08
9.1909978e-08
9.0901047e-08
8.5070931e-08
6.9213967e-08
3.9277527e-08
1.0272384e-08
9.5130471e-10
2.8786397e-10
9.119973e-08
9.1200453e-08
9.1201361e-08
9.1202177e-08
9.1202951e-08
9.1203722e-08
9.120449e-08
9.1205251e-08
9.1205988e-08
9.1206693e-08
9.1207368e-08
9.1208034e-08
9.1208724e-08
9.120946e-08
9.1210237e-08
9.1211045e-08
9.1211861e-08
9.1212635e-08
9.1213342e-08
9.1214014e-08
9.121467e-08
9.121522e-08
9.1215528e-08
9.1215512e-08
9.121513e-08
9.1214658e-08
9.1214426e-08
9.1214378e-08
9.1214379e-08
9.1214393e-08
9.121439e-08
9.1214351e-08
9.1214285e-08
9.1214235e-08
9.1214254e-08
9.1214372e-08
9.1214519e-08
9.1214631e-08
9.1214645e-08
9.1214486e-08
9.1214167e-08
9.1213829e-08
9.1213513e-08
9.1212771e-08
9.121016e-08
9.1202892e-08
9.119169e-08
9.1193488e-08
9.1264408e-08
9.1513749e-08
9.2044761e-08
9.2696378e-08
9.2427481e-08
8.8314927e-08
7.4950517e-08
4.6013532e-08
1.3296041e-08
1.1979329e-09
2.8121807e-10
9.214984e-08
9.2150621e-08
9.2151495e-08
9.2152253e-08
9.2152968e-08
9.2153676e-08
9.2154378e-08
9.2155066e-08
9.2155721e-08
9.2156336e-08
9.2156918e-08
9.2157498e-08
9.215811e-08
9.2158775e-08
9.2159485e-08
9.2160223e-08
9.2160961e-08
9.2161642e-08
9.2162251e-08
9.216285e-08
9.2163449e-08
9.2163929e-08
9.2164154e-08
9.2164028e-08
9.2163473e-08
9.216296e-08
9.2162734e-08
9.2162704e-08
9.2162713e-08
9.2162729e-08
9.2162738e-08
9.2162711e-08
9.2162659e-08
9.2162618e-08
9.2162654e-08
9.2162805e-08
9.2163009e-08
9.2163205e-08
9.2163334e-08
9.2163296e-08
9.2163053e-08
9.2162754e-08
9.2162538e-08
9.2162234e-08
9.2160997e-08
9.2156356e-08
9.2145998e-08
9.2136747e-08
9.2165637e-08
9.2327682e-08
9.276188e-08
9.3470647e-08
9.376491e-08
9.1200564e-08
8.0598089e-08
5.3580712e-08
1.7366453e-08
1.5641231e-09
2.8989221e-10
9.3227894e-08
9.3228835e-08
9.3229683e-08
9.3230382e-08
9.3231043e-08
9.3231698e-08
9.3232342e-08
9.3232964e-08
9.3233539e-08
9.3234064e-08
9.3234556e-08
9.323505e-08
9.3235588e-08
9.3236185e-08
9.3236831e-08
9.3237514e-08
9.3238182e-08
9.3238756e-08
9.3239258e-08
9.3239792e-08
9.3240347e-08
9.3240764e-08
9.3240907e-08
9.3240597e-08
9.323986e-08
9.323936e-08
9.3239164e-08
9.3239137e-08
9.3239153e-08
9.3239176e-08
9.3239201e-08
9.3239195e-08
9.3239163e-08
9.3239139e-08
9.32392e-08
9.3239386e-08
9.3239639e-08
9.3239918e-08
9.3240178e-08
9.3240294e-08
9.3240163e-08
9.3239904e-08
9.3239735e-08
9.3239647e-08
9.3239281e-08
9.3237066e-08
9.3229688e-08
9.3217021e-08
9.3217909e-08
9.3302551e-08
9.3615114e-08
9.4280295e-08
9.4958303e-08
9.3751605e-08
8.5904121e-08
6.1861466e-08
2.2811228e-08
2.1465735e-09
3.1196558e-10
8.4738884e-10
8.8897511e-10
9.1598369e-10
9.3577575e-10
9.5279591e-10
9.6857049e-10
9.8313493e-10
9.9612052e-10
1.0071952e-09
1.0161473e-09
1.0227959e-09
1.026968e-09
1.0284405e-09
1.0269277e-09
1.0220474e-09
1.0133364e-09
1.0002417e-09
9.8216519e-10
9.5848501e-10
9.2861757e-10
8.9205203e-10
8.4845326e-10
7.9777761e-10
7.4044718e-10
6.7715349e-10
6.0883946e-10
5.3675536e-10
4.6264375e-10
3.8830068e-10
3.1601328e-10
2.4836085e-10
1.8779578e-10
1.3654788e-10
9.6544993e-11
6.8346395e-11
5.1522039e-11
4.6151967e-11
5.2256147e-11
6.829092e-11
9.1465652e-11
1.1986381e-10
1.5202862e-10
1.867587e-10
2.2358387e-10
2.6121104e-10
2.9891917e-10
3.3602971e-10
3.722653e-10
4.0733626e-10
4.4093312e-10
4.7278129e-10
5.0269669e-10
5.3059917e-10
5.5650708e-10
5.8050288e-10
6.0266526e-10
6.2306292e-10
6.4179869e-10
6.590128e-10
6.7485334e-10
6.8945337e-10
7.0292679e-10
7.153719e-10
7.2687473e-10
7.3751648e-10
7.4737256e-10
7.5651078e-10
7.6499032e-10
7.7286621e-10
7.8018619e-10
7.8699867e-10
7.9333658e-10
7.9925212e-10
8.04719e-10
6.2073215e-10
6.6667237e-10
7.087382e-10
7.4535922e-10
7.7617943e-10
8.0202296e-10
8.2381831e-10
8.422186e-10
8.576109e-10
8.7025531e-10
8.8032453e-10
8.879222e-10
8.9306165e-10
8.9566155e-10
8.9552652e-10
8.9235542e-10
8.8573858e-10
8.7518636e-10
8.6015089e-10
8.4007522e-10
8.1442409e-10
7.8276652e-10
7.44599e-10
6.9946314e-10
6.4742122e-10
5.8944133e-10
5.2704538e-10
4.6194968e-10
3.9607083e-10
3.3139711e-10
2.6987608e-10
2.1397367e-10
1.6484453e-10
1.2334837e-10
9.0831083e-11
6.7643182e-11
5.3637053e-11
4.8812402e-11
5.2709088e-11
6.3512587e-11
7.9700844e-11
9.991116e-11
1.2303899e-10
1.4845614e-10
1.7552407e-10
2.0354157e-10
2.3184267e-10
2.599771e-10
2.8758419e-10
3.1441224e-10
3.4023954e-10
3.648882e-10
3.8823512e-10
4.1021187e-10
4.3080941e-10
4.5005177e-10
4.6797762e-10
4.8462494e-10
5.0004252e-10
5.1429775e-10
5.2746777e-10
5.3963087e-10
5.5086309e-10
5.6123555e-10
5.7081421e-10
5.7966163e-10
5.8783509e-10
5.9538833e-10
6.0236931e-10
6.0882324e-10
6.1479089e-10
6.2030886e-10
6.2541881e-10
6.3013138e-10
1.5073122e-09
1.2732608e-09
1.0852097e-09
9.4322264e-10
8.4201426e-10
7.7434536e-10
7.3397293e-10
7.1604056e-10
7.1474616e-10
7.2419707e-10
7.3951198e-10
7.5715329e-10
7.7462736e-10
7.9027392e-10
8.0307638e-10
8.124661e-10
8.1813503e-10
8.1988452e-10
8.1751593e-10
8.1078759e-10
7.9939865e-10
7.8303778e-10
7.6134251e-10
7.3390986e-10
7.0044264e-10
6.6100288e-10
6.161044e-10
5.6663104e-10
5.1380834e-10
4.5888733e-10
4.0337603e-10
3.4877761e-10
2.969033e-10
2.4899271e-10
2.0634802e-10
1.6987768e-10
1.4059997e-10
1.1880007e-10
1.0416866e-10
9.5496421e-11
9.2450961e-11
9.4055201e-11
9.9501279e-11
1.0808984e-10
1.1916515e-10
1.3214875e-10
1.4654579e-10
1.6194125e-10
1.7794981e-10
1.9424781e-10
2.1056738e-10
2.2671142e-10
2.4253015e-10
2.5784697e-10
2.7254583e-10
2.8655465e-10
2.9985279e-10
3.1241902e-10
3.2423328e-10
3.3530863e-10
3.4566617e-10
3.5533233e-10
3.6433798e-10
3.7271591e-10
3.8050151e-10
3.8773069e-10
3.9443812e-10
4.0065743e-10
4.0642071e-10
4.1175853e-10
4.1670013e-10
4.2127214e-10
4.255035e-10
4.2940823e-10
6.593561e-09
4.7602354e-09
3.4998537e-09
2.6664085e-09
2.1255885e-09
1.7548277e-09
1.4771432e-09
1.2571475e-09
1.0783251e-09
9.4644818e-10
8.513038e-10
7.8714052e-10
7.4874719e-10
7.3040669e-10
7.2654216e-10
7.3215821e-10
7.4325369e-10
7.5662504e-10
7.6945765e-10
7.7937326e-10
7.8466581e-10
7.8521875e-10
7.8114964e-10
7.7242449e-10
7.5890542e-10
7.4047865e-10
7.1717619e-10
6.8923398e-10
6.5711232e-10
6.2156067e-10
5.8342982e-10
5.434875e-10
5.0266426e-10
4.6192119e-10
4.2211347e-10
3.839911e-10
3.483347e-10
3.1605151e-10
2.8763055e-10
2.6391635e-10
2.4435135e-10
2.2862055e-10
2.1657785e-10
2.0773712e-10
2.0159392e-10
1.9773615e-10
1.9573687e-10
1.9531839e-10
1.9622804e-10
1.9822721e-10
2.0108573e-10
2.0460364e-10
2.0863374e-10
2.1304583e-10
2.1771579e-10
2.2253729e-10
2.2742281e-10
2.3230507e-10
2.3712787e-10
2.4184631e-10
2.4642583e-10
2.508408e-10
2.5507296e-10
2.5911027e-10
2.62946e-10
2.6657751e-10
2.7000534e-10
2.7323266e-10
2.7626448e-10
2.791072e-10
2.8176838e-10
2.8425506e-10
2.8658041e-10
2.887346e-10
2.1786291e-08
1.6352885e-08
1.2029676e-08
8.7595599e-09
6.3955019e-09
4.7473015e-09
3.6217144e-09
2.8392378e-09
2.2925527e-09
1.903153e-09
1.6129688e-09
1.3852232e-09
1.2010754e-09
1.0517575e-09
9.3911933e-10
8.5613448e-10
7.9868232e-10
7.6324952e-10
7.4610668e-10
7.4447851e-10
7.5218008e-10
7.6376287e-10
7.7468793e-10
7.827655e-10
7.8759535e-10
7.8905705e-10
7.8701627e-10
7.8136863e-10
7.7209201e-10
7.5933483e-10
7.4339147e-10
7.2464e-10
7.0346858e-10
6.8053855e-10
6.5567113e-10
6.3027941e-10
6.0438341e-10
5.789404e-10
5.5449349e-10
5.3107758e-10
5.090553e-10
4.8863384e-10
4.7023073e-10
4.5398983e-10
4.3993778e-10
4.2793271e-10
4.177157e-10
4.0898119e-10
4.0151275e-10
3.9508425e-10
3.8956506e-10
3.8487034e-10
3.8091011e-10
3.7759388e-10
3.7483215e-10
3.7255548e-10
3.7069374e-10
3.691834e-10
3.6797407e-10
3.6702111e-10
3.6628456e-10
3.6573015e-10
3.6532869e-10
3.6505512e-10
3.6488808e-10
3.6480921e-10
3.6480307e-10
3.6485669e-10
3.6495933e-10
3.6510198e-10
3.6527751e-10
3.6547909e-10
3.6570493e-10
3.6593924e-10
4.379791e-08
3.5681993e-08
2.8226399e-08
2.1809142e-08
1.6545136e-08
1.2408259e-08
9.2776165e-09
6.9608912e-09
5.2791075e-09
4.0761543e-09
3.220153e-09
2.6096623e-09
2.1613242e-09
1.8294363e-09
1.5759512e-09
1.3748248e-09
1.2108563e-09
1.0752631e-09
9.6723154e-10
8.8621504e-10
8.2946105e-10
7.9606125e-10
7.8191773e-10
7.8045148e-10
7.8646973e-10
7.9563936e-10
8.0467822e-10
8.1237565e-10
8.1827039e-10
8.2212339e-10
8.2381309e-10
8.2332894e-10
8.2073276e-10
8.1618687e-10
8.099813e-10
8.0228555e-10
7.9344557e-10
7.8362211e-10
7.7307246e-10
7.6192677e-10
7.5039053e-10
7.3886267e-10
7.2748364e-10
7.1641978e-10
7.0591347e-10
6.9615972e-10
6.8719268e-10
6.7900796e-10
6.7158295e-10
6.6485267e-10
6.5875123e-10
6.5323973e-10
6.48263e-10
6.4377187e-10
6.3972352e-10
6.3608115e-10
6.328103e-10
6.2988009e-10
6.2725774e-10
6.2491295e-10
6.2281928e-10
6.2095305e-10
6.192924e-10
6.1781735e-10
6.165101e-10
6.1535422e-10
6.1433456e-10
6.1343908e-10
6.1265689e-10
6.1197826e-10
6.1139447e-10
6.1089827e-10
6.1048241e-10
6.1014436e-10
6.3492377e-08