/*--------------------------------*- C++ -*----------------------------------*\
| =========                 |                                                 |
| \\      /  F ield         | OpenFOAM: The Open Source CFD Toolbox           |
|  \\    /   O peration     | Version:  v2006                                 |
|   \\  /    A nd           | Website:  www.openfoam.com                      |
|    \\/     M anipulation  |                                                 |
\*---------------------------------------------------------------------------*/
FoamFile
{
    version     2.0;
    format      ascii;
    class       volScalarField;
    location    "4000";
    object      omega;
}
// * * * * * * * * * * * * * * * * * * * * * * * * * * * * * * * * * * * * * //

dimensions      [0 0 -1 0 0 0 0];


internalField   nonuniform List<scalar> 
55713
(
5.6488892
1.3888641
0.45953116
0.29937343
0.26965105
0.26238665
0.26188789
0.26264864
0.26320682
0.26343102
0.26347785
0.26347031
0.26345853
0.26345222
0.2634508
0.26345156
0.26345278
0.2634533
0.26345272
0.26345215
0.26345167
0.26345079
0.26344962
0.26344848
0.2634474
0.26344623
0.26344488
0.26344336
0.26344162
0.26343959
0.26343741
0.26343507
0.26343263
0.26343011
0.2634275
0.26342466
0.26342145
0.26341786
0.26341399
0.26340993
0.26340581
0.26340152
0.2633968
0.26339172
0.26338666
0.26338175
0.26337684
0.26337186
0.26336675
0.26336148
0.263356
0.26335029
0.2633444
0.2633384
0.26333222
0.26332597
0.26332012
0.26331507
0.26331052
5.1536864
1.2777503
0.4386309
0.30195635
0.27782779
0.2727208
0.27281349
0.27361547
0.27408297
0.27423183
0.27424332
0.27422416
0.2742083
0.27419858
0.27419252
0.27418848
0.27418519
0.27418111
0.27417607
0.27417087
0.27416568
0.27416033
0.27415499
0.27414978
0.27414466
0.27413944
0.27413409
0.27412859
0.27412295
0.27411701
0.27411092
0.27410465
0.27409825
0.27409179
0.27408526
0.27407853
0.27407134
0.27406362
0.27405548
0.27404707
0.27403859
0.27402993
0.27402074
0.27401095
0.27400097
0.27399101
0.27398091
0.27397053
0.2739598
0.27394866
0.27393701
0.27392477
0.27391191
0.27389847
0.27388429
0.27386929
0.2738538
0.27383813
0.27382231
4.7199197
1.1858104
0.42334897
0.30681541
0.28770985
0.28415626
0.28466276
0.28546321
0.28583392
0.28591616
0.28590089
0.28587392
0.28585467
0.28584126
0.2858302
0.28582089
0.28581278
0.28580421
0.2857946
0.28578468
0.28577475
0.28576497
0.28575543
0.2857461
0.28573686
0.28572752
0.28571811
0.28570859
0.28569899
0.28568913
0.28567911
0.28566892
0.28565856
0.28564814
0.28563768
0.28562708
0.28561594
0.28560409
0.28559168
0.28557891
0.28556604
0.28555306
0.28553947
0.28552503
0.28551016
0.28549519
0.28547994
0.28546423
0.28544796
0.28543105
0.28541335
0.28539472
0.28537503
0.28535429
0.28533231
0.28530879
0.2852839
0.28525791
0.285231
4.3379042
1.1021102
0.41221185
0.31373047
0.29891289
0.29677087
0.29761769
0.29836037
0.29862281
0.29864861
0.29861492
0.29858353
0.29856144
0.29854385
0.29852742
0.29851287
0.2985
0.29848685
0.29847262
0.29845799
0.29844347
0.2984294
0.29841573
0.29840233
0.29838897
0.29837557
0.29836212
0.29834864
0.2983351
0.29832134
0.29830744
0.29829338
0.29827916
0.29826484
0.29825051
0.29823614
0.29822125
0.29820535
0.29818871
0.29817161
0.29815438
0.29813714
0.29811929
0.29810035
0.29808066
0.29806074
0.29804044
0.2980195
0.29799779
0.29797522
0.2979516
0.29792672
0.29790033
0.29787242
0.29784278
0.29781089
0.29777672
0.29774055
0.29770266
3.9998005
1.0265474
0.40515204
0.32284806
0.31162985
0.31072879
0.31180181
0.31243277
0.31258997
0.31257338
0.31252906
0.312495
0.31247004
0.31244772
0.31242582
0.31240613
0.31238857
0.31237078
0.3123519
0.31233262
0.3123137
0.31229548
0.31227776
0.31226033
0.31224292
0.31222558
0.3122082
0.31219088
0.31217348
0.31215596
0.31213827
0.31212045
0.31210247
0.31208437
0.3120663
0.31204831
0.31202997
0.31201024
0.3119895
0.31196816
0.31194665
0.31192529
0.31190343
0.31188026
0.31185594
0.31183127
0.31180616
0.31178023
0.31175333
0.31172535
0.3116961
0.3116653
0.31163254
0.31159777
0.31156082
0.31152101
0.31147797
0.31143209
0.31138365
3.6992185
0.95795129
0.40200061
0.3356704
0.32602728
0.32621118
0.3273755
0.32785358
0.327921
0.32787467
0.32782603
0.32779013
0.32776189
0.32773465
0.32770745
0.32768287
0.3276607
0.32763828
0.32761482
0.32759112
0.3275681
0.32754591
0.32752428
0.32750292
0.32748166
0.32746056
0.32743949
0.32741854
0.32739751
0.32737644
0.32735518
0.3273338
0.32731226
0.32729059
0.32726894
0.32724755
0.32722621
0.327203
0.32717839
0.32715301
0.32712741
0.32710214
0.32707665
0.3270497
0.32702112
0.32699199
0.32696242
0.32693186
0.32690017
0.32686719
0.32683273
0.32679649
0.3267579
0.32671675
0.32667304
0.32662596
0.32657468
0.32651978
0.32646148
3.4309195
0.89552597
0.40271148
0.35098223
0.34257613
0.34346837
0.34452738
0.34483601
0.34483554
0.34477428
0.34472386
0.34468596
0.34465403
0.34462217
0.34459004
0.34456086
0.34453421
0.34450726
0.34447942
0.34445173
0.34442497
0.34439912
0.34437383
0.34434882
0.34432404
0.34429947
0.34427505
0.34425076
0.34422646
0.34420216
0.34417767
0.3441531
0.34412836
0.34410348
0.34407859
0.34405405
0.34403029
0.3440042
0.34397612
0.34394701
0.34391763
0.34388881
0.34386023
0.34383018
0.34379791
0.34376478
0.3437313
0.34369668
0.34366082
0.34362348
0.34358446
0.34354354
0.34349994
0.34345324
0.34340354
0.34335022
0.34329168
0.34322885
0.34316178
3.1906029
0.83860925
0.40728121
0.3664405
0.36140616
0.36266655
0.36349283
0.36365284
0.36360388
0.3635388
0.36348796
0.36344776
0.3634124
0.36337667
0.36334024
0.36330673
0.36327577
0.36324458
0.36321292
0.36318184
0.36315185
0.3631228
0.36309428
0.36306614
0.3630383
0.36301077
0.36298344
0.36295631
0.36292922
0.36290221
0.36287503
0.36284781
0.36282043
0.36279289
0.36276531
0.36273815
0.36271248
0.36268462
0.36265369
0.36262136
0.36258865
0.36255681
0.36252584
0.36249373
0.36245864
0.36242224
0.36238565
0.36234783
0.36230872
0.36226799
0.36222542
0.36218089
0.36213348
0.36208248
0.36202796
0.3619699
0.36190559
0.36183643
0.36176226
2.9747848
0.78668508
0.41562848
0.38513906
0.38262029
0.38400107
0.38458779
0.38463434
0.3845631
0.38449756
0.3844458
0.38440303
0.3843652
0.38432689
0.38428703
0.3842495
0.38421453
0.38417978
0.38414525
0.38411165
0.38407919
0.38404762
0.38401659
0.38398605
0.38395589
0.38392611
0.3838966
0.38386735
0.38383822
0.38380924
0.38378015
0.38375108
0.38372187
0.38369252
0.38366306
0.38363409
0.38360716
0.38357913
0.3835464
0.3835116
0.38347627
0.38344218
0.38340977
0.38337712
0.38334048
0.38330192
0.38326342
0.38322362
0.38318261
0.38313993
0.38309524
0.38304868
0.38299918
0.3829458
0.38288813
0.38282746
0.38275962
0.38268644
0.38260763
2.7808095
0.73935933
0.42795472
0.40686668
0.40654467
0.40788008
0.40822877
0.40819874
0.40812108
0.40805775
0.40800525
0.40796054
0.4079216
0.4078825
0.40784068
0.4077997
0.40776144
0.40772438
0.40768831
0.40765338
0.40761951
0.40758645
0.40755399
0.4075221
0.40749068
0.40745973
0.4074291
0.40739884
0.40736876
0.40733892
0.40730905
0.40727929
0.40724943
0.4072195
0.40718939
0.40715983
0.40713271
0.40710615
0.40707368
0.40703755
0.40700064
0.40696547
0.40693289
0.40690177
0.40686551
0.40682642
0.40678776
0.4067477
0.40670672
0.40666421
0.40661952
0.40657317
0.40652398
0.40647104
0.40641276
0.40635238
0.4062844
0.40621039
0.40613057
2.606537
0.69633729
0.44532747
0.43231089
0.43367677
0.43478336
0.43493094
0.43486466
0.43479151
0.43473155
0.43467922
0.4346336
0.43459519
0.43455802
0.43451662
0.43447369
0.4344337
0.43439618
0.43436026
0.43432552
0.43429173
0.43425871
0.43422638
0.4341947
0.4341636
0.43413304
0.4341029
0.43407321
0.4340438
0.43401472
0.43398572
0.43395694
0.43392816
0.43389942
0.43387046
0.43384202
0.43381623
0.43379311
0.43376425
0.4337287
0.43369168
0.43365716
0.43362641
0.43359896
0.43356624
0.43352897
0.43349277
0.43345489
0.43341666
0.43337739
0.43333574
0.43329279
0.43324728
0.43319873
0.43314389
0.43308758
0.43302457
0.43295412
0.43287855
2.4495485
0.6575021
0.47162979
0.46252504
0.46460043
0.4653319
0.46534528
0.4652797
0.46521404
0.46515975
0.46511081
0.46506556
0.46502957
0.46499861
0.46496099
0.46491896
0.46487996
0.46484449
0.46481093
0.46477854
0.46474705
0.4647164
0.46468651
0.46465738
0.46462891
0.46460105
0.46457373
0.46454695
0.46452056
0.4644946
0.46446887
0.46444348
0.46441824
0.4643932
0.46436807
0.46434328
0.46432103
0.46430354
0.46428295
0.46425127
0.46421632
0.46418501
0.46415886
0.46413766
0.4641134
0.46408101
0.46405116
0.46401874
0.46398686
0.46395526
0.46392099
0.46388578
0.46384873
0.46380959
0.46376476
0.4637171
0.46366672
0.46360559
0.46354176
2.3086968
0.62274009
0.50601921
0.49857405
0.50000498
0.50029489
0.50025048
0.50020292
0.50015072
0.50010867
0.50006964
0.50002973
0.49999772
0.49997595
0.49994721
0.49991042
0.4998772
0.49984779
0.49982017
0.49979367
0.49976809
0.4997434
0.49971949
0.49969638
0.49967396
0.49965224
0.49963113
0.49961063
0.49959065
0.49957122
0.4995522
0.49953367
0.4995155
0.49949769
0.49948007
0.49946276
0.49944746
0.49943786
0.49942949
0.49940766
0.49937907
0.49935507
0.49933748
0.49932548
0.49931439
0.49929173
0.49927429
0.49925119
0.49923081
0.49921226
0.49919159
0.49916963
0.4991476
0.49912378
0.49909753
0.4990649
0.49903643
0.49899363
0.49895154
2.1825379
0.59147631
0.54115153
0.54005701
0.5404232
0.54041077
0.54038001
0.54035485
0.54032243
0.54030308
0.54028249
0.54025705
0.54023386
0.54021792
0.54020402
0.54018202
0.54016318
0.54014664
0.54013106
0.54011627
0.5401022
0.54008889
0.54007625
0.54006434
0.54005307
0.54004248
0.54003249
0.54002315
0.54001438
0.54000623
0.53999864
0.53999167
0.53998521
0.5399793
0.53997385
0.53996887
0.539965
0.53996582
0.53997089
0.53996569
0.53995271
0.53994437
0.53994042
0.53994109
0.53994272
0.53993938
0.53993936
0.53993471
0.53993373
0.53993374
0.53993342
0.53993204
0.53993201
0.53993086
0.53993046
0.53992469
0.53992497
0.53991562
0.5399084
0.1790057
0.17900418
0.17900262
0.17900602
0.17900845
0.17901148
0.17901452
0.17901765
0.17902081
0.17902396
0.17902708
0.17903014
0.17903312
0.17903602
0.17903884
0.17904158
0.17904425
0.17904688
0.17904948
0.17905198
0.17905431
0.1790564
0.17905823
0.1790598
0.1790612
0.17906243
0.17906345
0.17906418
0.17906463
0.17906477
0.17906461
0.17906416
0.17906343
0.17906246
0.17906125
0.17905974
0.17905793
0.17905583
0.17905353
0.17905111
0.17904888
0.17904756
0.17904776
0.17904757
0.17903763
0.17899652
0.17889322
0.17870776
0.17848026
0.17839466
0.17892133
0.181147
0.18857207
0.21035352
0.27239992
0.45040661
0.99094233
3.1736039
15.454353
0.18145996
0.18145874
0.18145908
0.18146206
0.18146481
0.18146783
0.18147094
0.18147411
0.18147731
0.18148048
0.1814836
0.18148667
0.18148966
0.18149256
0.18149538
0.18149812
0.18150081
0.18150347
0.18150609
0.1815086
0.18151093
0.18151302
0.18151484
0.18151641
0.18151782
0.18151905
0.18152005
0.18152076
0.18152118
0.18152131
0.18152113
0.18152065
0.18151991
0.18151892
0.18151769
0.18151618
0.18151435
0.18151223
0.18150991
0.18150752
0.18150536
0.18150408
0.18150411
0.18150348
0.18149337
0.18145356
0.18135391
0.18117207
0.18093869
0.18081956
0.18126376
0.18338067
0.19013477
0.21035974
0.26869928
0.43787934
0.95630046
3.0660266
14.652391
0.18418472
0.1841838
0.18418481
0.1841877
0.18419059
0.18419366
0.18419683
0.18420006
0.1842033
0.1842065
0.18420966
0.18421274
0.18421575
0.18421866
0.18422149
0.18422425
0.18422696
0.18422964
0.18423228
0.18423481
0.18423714
0.18423923
0.18424105
0.18424263
0.18424404
0.18424529
0.18424629
0.18424701
0.18424744
0.18424758
0.18424741
0.18424695
0.18424623
0.18424526
0.18424407
0.18424258
0.18424078
0.18423867
0.18423634
0.1842339
0.18423159
0.18423001
0.18422991
0.18423033
0.18422433
0.1841935
0.18410705
0.18393541
0.183692
0.18351432
0.18380301
0.18553963
0.19133314
0.20929649
0.26239995
0.41926979
0.90852733
2.9082798
13.854424
0.18721986
0.18721928
0.18722101
0.18722382
0.18722682
0.18722994
0.18723317
0.18723644
0.18723971
0.18724293
0.1872461
0.18724919
0.1872522
0.18725511
0.18725794
0.18726069
0.18726342
0.18726612
0.18726877
0.1872713
0.18727363
0.18727571
0.18727752
0.1872791
0.18728051
0.18728175
0.18728275
0.18728346
0.18728389
0.18728403
0.18728387
0.18728342
0.18728271
0.18728176
0.18728058
0.18727913
0.18727736
0.18727526
0.18727292
0.18727046
0.18726807
0.18726629
0.18726591
0.18726663
0.18726311
0.18723912
0.18716465
0.18700541
0.18675946
0.18653631
0.18669691
0.18813566
0.19312991
0.20908717
0.2572896
0.40260642
0.86349913
2.7567435
13.063758
0.19061056
0.19061044
0.19061265
0.19061545
0.19061853
0.1906217
0.19062498
0.19062828
0.19063156
0.19063479
0.19063795
0.19064104
0.19064403
0.19064693
0.19064974
0.19065249
0.19065522
0.19065793
0.19066059
0.19066311
0.19066542
0.19066747
0.19066927
0.19067083
0.19067224
0.19067348
0.19067446
0.19067516
0.19067559
0.19067574
0.19067559
0.19067515
0.19067445
0.19067353
0.19067238
0.19067098
0.19066923
0.19066715
0.19066481
0.19066234
0.19065989
0.1906579
0.19065721
0.19065813
0.19065694
0.19063985
0.19057832
0.19043432
0.190191
0.18992718
0.18995715
0.19109343
0.19532136
0.20932065
0.25258038
0.38619187
0.81856612
2.6061431
12.283544
0.19441164
0.19441211
0.19441466
0.19441749
0.19442061
0.19442383
0.19442713
0.19443044
0.19443372
0.19443694
0.19444008
0.19444313
0.19444609
0.19444895
0.19445174
0.19445447
0.19445718
0.19445988
0.19446253
0.19446503
0.1944673
0.19446932
0.19447109
0.19447264
0.19447403
0.19447524
0.1944762
0.19447689
0.19447731
0.19447746
0.19447733
0.1944769
0.19447622
0.19447532
0.19447422
0.19447286
0.19447117
0.19446912
0.1944668
0.19446433
0.19446185
0.19445969
0.19445865
0.19445946
0.19445999
0.19444907
0.19440054
0.19427428
0.19404018
0.19374583
0.1936537
0.19450004
0.19803855
0.21014365
0.24863139
0.3706154
0.7744866
2.4577515
11.516942
0.19868942
0.19869047
0.19869319
0.19869607
0.19869922
0.19870246
0.19870577
0.19870907
0.19871231
0.19871548
0.19871858
0.19872157
0.19872447
0.19872727
0.19872999
0.19873268
0.19873536
0.19873804
0.19874065
0.1987431
0.19874531
0.19874728
0.198749
0.19875052
0.19875189
0.19875307
0.19875399
0.19875466
0.19875507
0.19875522
0.1987551
0.19875469
0.19875403
0.19875317
0.19875211
0.19875083
0.19874921
0.19874721
0.19874491
0.19874248
0.19874
0.19873772
0.19873633
0.19873683
0.19873852
0.19873298
0.19869718
0.19859069
0.19837226
0.19805899
0.19785623
0.19841733
0.20146707
0.21161224
0.24549675
0.3559647
0.73143995
2.3121301
10.766938
0.20352482
0.20352632
0.20352909
0.20353201
0.20353516
0.20353839
0.20354167
0.20354492
0.20354809
0.20355119
0.20355419
0.20355709
0.20355988
0.20356258
0.20356521
0.20356782
0.20357044
0.20357306
0.2035756
0.20357796
0.2035801
0.20358199
0.20358364
0.20358511
0.20358643
0.20358756
0.20358844
0.20358906
0.20358946
0.20358962
0.20358951
0.20358913
0.2035885
0.20358767
0.20358668
0.20358548
0.20358396
0.20358204
0.20357981
0.20357743
0.20357501
0.20357267
0.20357098
0.20357101
0.20357325
0.20357206
0.20354821
0.2034629
0.20326638
0.20294741
0.20265647
0.20295145
0.20533792
0.21384715
0.24331633
0.34245395
0.68973025
2.1699891
10.036371
0.20901753
0.2090193
0.20902205
0.20902498
0.20902809
0.20903129
0.2090345
0.20903764
0.20904069
0.20904365
0.2090465
0.20904924
0.20905187
0.20905441
0.2090569
0.20905938
0.20906189
0.20906441
0.20906684
0.20906907
0.20907107
0.20907285
0.20907441
0.20907579
0.20907704
0.20907809
0.2090789
0.20907948
0.20907986
0.20908002
0.20907992
0.20907957
0.20907898
0.20907821
0.2090773
0.20907621
0.20907483
0.20907304
0.20907091
0.20906863
0.20906632
0.20906401
0.20906207
0.20906162
0.20906382
0.20906581
0.20905261
0.20898899
0.20882017
0.20850856
0.2081464
0.2081999
0.20999832
0.21692915
0.24222353
0.33028594
0.64965951
2.0321421
9.3278599
0.215292
0.21529383
0.21529652
0.2152994
0.21530244
0.21530553
0.21530859
0.21531155
0.2153144
0.21531713
0.21531975
0.21532224
0.21532463
0.21532694
0.2153292
0.21533149
0.21533382
0.21533617
0.2153384
0.21534044
0.21534225
0.21534387
0.21534528
0.21534655
0.21534768
0.21534861
0.21534933
0.21534985
0.21535019
0.21535034
0.21535027
0.21534996
0.21534942
0.21534873
0.21534792
0.21534698
0.21534579
0.2153442
0.21534224
0.21534012
0.21533799
0.21533584
0.2153338
0.21533283
0.21533454
0.2153385
0.2153341
0.2152915
0.21515499
0.2148656
0.21445601
0.21428512
0.21552408
0.22108544
0.24236854
0.31968286
0.61154102
1.8996214
8.6437729
0.22250508
0.22250691
0.22250951
0.22251228
0.22251516
0.22251806
0.22252087
0.22252354
0.22252608
0.22252848
0.22253074
0.22253287
0.2225349
0.22253686
0.2225388
0.22254079
0.22254284
0.22254492
0.22254686
0.2225486
0.22255015
0.22255152
0.22255274
0.22255382
0.22255477
0.22255554
0.22255612
0.22255655
0.22255684
0.22255698
0.22255694
0.22255669
0.22255623
0.22255564
0.22255497
0.22255423
0.2225533
0.22255201
0.22255031
0.22254844
0.2225466
0.22254474
0.2225428
0.22254146
0.22254234
0.22254711
0.22254927
0.22252575
0.22242412
0.22217066
0.22174358
0.22138329
0.22208693
0.22684556
0.24391691
0.31088245
0.57567406
1.7738471
7.9861947
0.23085702
0.2308588
0.23086126
0.23086381
0.23086644
0.23086903
0.23087146
0.2308737
0.23087578
0.23087769
0.23087944
0.23088105
0.23088256
0.23088402
0.23088549
0.23088704
0.23088869
0.23089035
0.23089185
0.23089316
0.23089433
0.23089538
0.2308963
0.23089712
0.23089781
0.23089833
0.23089872
0.23089902
0.23089925
0.23089936
0.23089938
0.2308992
0.23089886
0.23089842
0.23089794
0.23089745
0.23089688
0.23089602
0.23089471
0.23089324
0.23089183
0.23089043
0.2308888
0.23088733
0.23088736
0.23089195
0.23089822
0.23089056
0.23082398
0.2306176
0.2302044
0.22971915
0.22994928
0.23338821
0.24712174
0.30414903
0.54230915
1.656884
7.3569019
0.24060283
0.24060472
0.24060692
0.24060917
0.24061146
0.24061362
0.24061552
0.24061718
0.24061864
0.24061989
0.24062095
0.24062186
0.24062268
0.24062346
0.24062429
0.24062526
0.24062635
0.24062742
0.2406283
0.24062903
0.2406297
0.2406303
0.24063082
0.24063126
0.24063158
0.24063176
0.24063189
0.24063205
0.24063219
0.24063228
0.24063238
0.24063231
0.24063214
0.24063192
0.24063167
0.24063153
0.24063146
0.24063116
0.24063044
0.24062954
0.24062874
0.24062803
0.24062695
0.24062558
0.24062513
0.2406288
0.24063686
0.24064074
0.24060656
0.24045541
0.24008291
0.2395138
0.23934405
0.24167711
0.25217108
0.29978389
0.51156388
1.5515998
6.7573494
0.25205613
0.25205812
0.25206
0.25206195
0.25206391
0.25206559
0.25206691
0.25206793
0.25206871
0.25206922
0.25206951
0.25206963
0.25206967
0.2520697
0.25206981
0.25207011
0.25207058
0.25207095
0.2520711
0.25207117
0.25207128
0.25207138
0.25207144
0.25207142
0.25207128
0.25207107
0.25207092
0.25207092
0.252071
0.25207111
0.25207131
0.25207142
0.25207149
0.25207156
0.25207164
0.25207189
0.2520724
0.25207287
0.25207291
0.25207277
0.25207279
0.25207309
0.25207269
0.25207168
0.2520711
0.25207366
0.25208161
0.25209205
0.25208426
0.25199146
0.2516892
0.25109294
0.25056479
0.25187943
0.2596697
0.29814438
0.48317561
1.4606576
6.1886124
17.032976
19.708596
22.774698
26.281261
30.283001
34.839454
40.014965
45.878571
52.503748
59.967992
68.352224
77.739993
88.216451
99.867152
112.77659
127.02656
142.69429
159.85056
178.55753
198.86663
220.81658
244.43144
269.71876
296.66827
325.25075
355.41739
387.09943
420.20903
454.63878
490.26594
526.95115
564.5419
602.87677
641.7834
681.0845
720.60341
760.16591
799.59667
838.72865
877.4013
915.46769
952.79445
989.26168
1024.7633
1059.2061
1092.5139
1124.6255
1155.4936
1185.0851
1213.3776
1240.3595
1266.032
1290.4049
1313.4971
1335.3339
1355.9451
1375.3668
1393.6384
1410.8028
1426.905
1441.9909
1456.108
1469.303
1481.6237
1493.1169
1503.8289
1513.8041
1523.0859
1531.7166
1539.7362
1547.1835
1554.0949
1560.5063
1566.4508
3.6957179
4.3538727
5.0506568
5.801912
6.6282453
7.5482577
8.5783149
9.7333836
11.027802
12.475745
14.091499
15.88935
17.883662
20.088438
22.517253
25.182635
28.09597
31.266675
34.702211
38.40691
42.382772
46.627433
51.134969
55.896064
60.898224
66.122463
71.55252
77.167514
82.941631
88.848929
94.857925
100.9849
107.23176
113.49359
119.7584
126.00197
132.23384
138.54453
144.926
151.24602
157.41108
163.44707
169.37065
175.16626
180.7359
186.07263
191.18801
196.17297
201.07012
205.83426
210.43213
214.84504
219.06404
223.08448
226.90989
230.57104
234.06378
237.32291
240.35805
243.18701
245.82725
248.29139
250.59206
252.73292
254.72107
256.57484
258.30193
259.90985
261.40424
262.79263
264.08054
265.27549
266.37501
267.46665
1.1028333
1.270107
1.4688121
1.6977127
1.9579246
2.2516262
2.5817536
2.951866
3.3660377
3.8287381
4.3447287
4.9189181
5.5562716
6.2616446
7.0396828
7.8946275
8.8302026
9.8493668
10.954196
12.145554
13.423066
14.784787
16.226898
17.743988
19.329091
20.972766
22.665421
24.396449
26.153663
27.925139
29.698587
31.469681
33.23665
34.983196
36.700807
38.383949
40.032299
41.657795
43.268729
44.858644
46.415961
47.937102
49.42414
50.873737
52.281608
53.646273
54.968887
56.25343
57.500046
58.706299
59.870725
60.992038
62.068808
63.100259
64.085857
65.013346
65.880223
66.690376
67.448041
68.156309
68.818099
69.435943
70.012632
70.549926
71.054053
71.526572
71.968794
72.38213
72.767999
73.127828
73.462986
73.775082
74.064093
74.338433
0.49380605
0.55911954
0.63787169
0.73042686
0.83785918
0.96137895
1.1022657
1.2619058
1.4418362
1.6437627
1.8695615
2.1212421
2.4009174
2.7107309
3.0527988
3.4291131
3.8414709
4.2913509
4.7798324
5.3074361
5.8740533
6.4788327
7.1199162
7.7945701
8.4991879
9.2287861
9.9780099
10.740953
11.510698
12.280468
13.043252
13.793814
14.529312
15.244719
15.935748
16.599299
17.233729
17.840969
18.423851
18.983234
19.518719
20.030587
20.520461
20.988524
21.434999
21.861745
22.270433
22.662783
23.038773
23.397934
23.740478
24.06694
24.377736
24.673516
24.954268
25.220159
25.471808
25.709743
25.934415
26.146125
26.345225
26.532185
26.707455
26.871632
27.025309
27.168963
27.303081
27.428191
27.544809
27.653451
27.754576
27.848758
27.935947
28.018693
0.28985762
0.31746765
0.35213572
0.39428493
0.44469359
0.5042071
0.57364577
0.65378719
0.74538686
0.84921316
0.9660789
1.0968534
1.242472
1.4039156
1.5821897
1.7782753
1.9930883
2.2274087
2.4818291
2.7566634
3.0518881
3.3670984
3.7013212
4.0530876
4.4204282
4.8005726
5.1904852
5.5868153
5.9855724
6.3828453
6.7746641
7.1576132
7.5293444
7.8872935
8.2294176
8.5542517
8.8609007
9.149737
9.4216104
9.6770034
9.9162793
10.140129
10.349659
10.545592
10.728433
10.899818
11.061242
11.213808
11.357902
11.493659
11.621375
11.741445
11.854242
11.960201
12.059619
12.15271
12.239882
12.321611
12.398292
12.470208
12.537605
12.600727
12.659796
12.715051
12.766733
12.815041
12.860151
12.902254
12.941542
12.978197
13.012391
13.044312
13.074017
13.102067
0.21713278
0.22900694
0.24495362
0.26536312
0.29078578
0.32182598
0.35909231
0.40316136
0.45455843
0.51375893
0.5812025
0.65730868
0.74249724
0.83719282
0.94183017
1.0568364
1.1826149
1.3195074
1.467764
1.6274877
1.7985986
1.9808003
2.1734721
2.3757059
2.5863016
2.8035751
3.0257009
3.2506845
3.4761299
3.6997152
3.9191405
4.1324276
4.3381606
4.5348595
4.7214316
4.8972008
5.0618542
5.2157496
5.3594696
5.4933707
5.617736
5.7330382
5.839981
5.9390607
6.0307179
6.1156211
6.1945593
6.268266
6.3371162
6.4013209
6.4611377
6.5168603
6.5687615
6.6171209
6.6621608
6.7040544
6.7430394
6.7793686
6.8132633
6.8449042
6.8744469
6.9020373
6.9278053
6.9518784
6.9743789
6.9954115
7.0150692
7.0334454
7.0506297
7.0667064
7.0817567
7.0958527
7.1090755
7.1214468
0.19018055
0.19449673
0.20138135
0.21111531
0.22406316
0.24063679
0.26127474
0.28641807
0.31648463
0.35184943
0.39283574
0.439714
0.49271134
0.55201855
0.61780187
0.69020259
0.76933686
0.85528036
0.94805452
1.0475969
1.1537377
1.2661864
1.3844507
1.5078771
1.6356414
1.7666201
1.8996289
2.033403
2.1664329
2.2972917
2.4246087
2.5472339
2.664371
2.7752409
2.8793082
2.9763067
3.0662045
3.1493453
3.2262123
3.2971676
3.3625142
3.4226279
3.477986
3.5289482
3.5758326
3.6190468
3.6590434
3.6962372
3.7308574
3.7630409
3.7929418
3.8207318
3.8465678
3.8706032
3.8929622
3.9137419
3.9330641
3.9510621
3.9678562
3.9835433
3.9982032
4.0119086
4.0247249
4.0367155
4.0479393
4.0584497
4.0682927
4.0775144
4.0861584
4.094266
4.1018799
4.1090226
4.1157877
4.1219687
0.18031455
0.18080949
0.182946
0.18696384
0.19311906
0.20168944
0.21297573
0.22729506
0.24496658
0.2662931
0.29154426
0.3209432
0.35466218
0.39282083
0.43549187
0.48270388
0.5344465
0.59066658
0.6512665
0.71608916
0.78490931
0.85742453
0.9332105
1.0117458
1.0924116
1.1744058
1.25691
1.3390792
1.4199277
1.4985543
1.5741329
1.6459956
1.7137106
1.776906
1.8353744
1.8890809
1.938134
1.9828449
2.0235995
2.0607204
2.094488
2.1252036
2.1532022
2.1787486
2.2020698
2.2234238
2.2430784
2.261271
2.2781436
2.2937855
2.3082874
2.3217443
2.3342406
2.3458562
2.3566558
2.3666926
2.376029
2.3847318
2.3928589
2.4004563
2.4075623
2.4142122
2.4204381
2.4262701
2.4317381
2.4368678
2.4416813
2.4462004
2.450446
2.4544369
2.4581959
2.4617225
2.4651059
2.4680665
0.17696919
0.1755949
0.17525516
0.17613153
0.17843089
0.18236053
0.18813323
0.1959707
0.20610173
0.21875422
0.2341434
0.25245811
0.27385032
0.29842635
0.32624436
0.35731265
0.39159266
0.4289982
0.46939765
0.51260838
0.55839477
0.60646832
0.65645797
0.70793488
0.76041309
0.81329419
0.86598902
0.91791109
0.96839803
1.0168723
1.0628343
1.1059067
1.1458748
1.1825927
1.2160286
1.246262
1.2734585
1.2978884
1.3198561
1.3396231
1.3574162
1.3734586
1.3879764
1.401149
1.4131262
1.4240637
1.4341167
1.4434121
1.4520521
1.4600925
1.4675777
1.4745515
1.4810527
1.4871174
1.4927752
1.4980512
1.502974
1.5075739
1.5118781
1.5159087
1.5196847
1.5232235
1.5265412
1.5296529
1.532571
1.5353086
1.5378773
1.5402885
1.5425536
1.5446819
1.5466872
1.5485629
1.5503809
1.551896
0.17601677
0.17385841
0.1721627
0.17144393
0.17159723
0.17281958
0.1752844
0.1791575
0.18460323
0.19178524
0.20086295
0.21198395
0.22527557
0.2408355
0.25872518
0.27896414
0.30152842
0.32634826
0.35330948
0.38225061
0.41296475
0.44520042
0.47864822
0.51295816
0.54774518
0.58255573
0.61695198
0.65051679
0.68279544
0.71341349
0.74206996
0.76855891
0.79279169
0.81474274
0.83446528
0.85208301
0.86776831
0.88174555
0.89424789
0.90547359
0.91558886
0.92474528
0.93308735
0.94071783
0.94775353
0.95428629
0.96039034
0.9661291
0.97151521
0.97656008
0.98128287
0.98570578
0.98984896
0.9937307
0.99736618
1.0007688
1.003954
1.0069383
1.0097367
1.0123616
1.0148235
1.0171322
1.019297
1.0213265
1.023229
1.0250123
1.0266839
1.0282507
1.0297199
1.0310973
1.0323924
1.0335983
1.0347722
1.035712
0.17593176
0.17343208
0.17132746
0.16968438
0.16864375
0.16831933
0.16882268
0.17027615
0.17280128
0.17651658
0.1815365
0.18796879
0.19591055
0.20544218
0.21662161
0.22947808
0.24400803
0.26017105
0.27788854
0.29704102
0.31746897
0.33897521
0.3613163
0.38421571
0.40738454
0.430441
0.45315324
0.47513826
0.49607046
0.51571683
0.53390457
0.55053297
0.56558518
0.5790953
0.59115058
0.60188153
0.6114437
0.62001411
0.62776544
0.63483843
0.6413451
0.6473769
0.65304145
0.65840203
0.66346659
0.66825996
0.67281527
0.67715908
0.68130215
0.68524619
0.68899353
0.69254872
0.69591653
0.69910189
0.70210953
0.70494457
0.70761397
0.71012602
0.7124887
0.71470916
0.71679405
0.71874994
0.72058333
0.72230064
0.72390817
0.72541208
0.72681834
0.72813275
0.72936114
0.73050845
0.73158235
0.73257792
0.7335403
0.73431139
0.17611688
0.17349334
0.17119084
0.16919596
0.1675839
0.16637357
0.16578356
0.16580478
0.16654009
0.16808053
0.17051016
0.17390649
0.17833952
0.1838692
0.19054222
0.1983877
0.20741337
0.21760123
0.22890493
0.24124622
0.25451474
0.26856807
0.28322766
0.29828884
0.31352928
0.32869183
0.34352426
0.35784032
0.37140736
0.38405312
0.39566983
0.40621419
0.41570833
0.42421471
0.4318308
0.43867822
0.44488797
0.45059529
0.45592391
0.46096313
0.46579806
0.47048564
0.47503329
0.47945334
0.48375115
0.48793136
0.49199802
0.49595094
0.49978191
0.50347905
0.50703274
0.51043681
0.51368713
0.51678139
0.51971872
0.5224999
0.52512761
0.52760619
0.52994055
0.53213576
0.53419709
0.53612999
0.53794016
0.53963338
0.54121552
0.54269239
0.54406982
0.54535351
0.54654912
0.54766175
0.54869831
0.5496568
0.55057143
0.55132502
0.17632543
0.1736925
0.17132212
0.16920285
0.16734954
0.16578676
0.16456846
0.16376698
0.16344284
0.16365702
0.16446886
0.16593409
0.1681028
0.17101789
0.17471361
0.1792133
0.18452701
0.19064835
0.19755182
0.2051896
0.21348999
0.22235727
0.23166689
0.24127741
0.25101918
0.26073626
0.27020867
0.27931777
0.28792145
0.29591533
0.30323826
0.30987955
0.3158793
0.32130968
0.32626555
0.33085369
0.33517984
0.33934484
0.3434284
0.34750909
0.35160176
0.35571163
0.35983923
0.3639739
0.36809738
0.37219108
0.37623773
0.38021928
0.38411499
0.3879041
0.39156944
0.39509823
0.39848109
0.40171155
0.40478568
0.40770193
0.41046102
0.41306546
0.41551885
0.41782552
0.41999034
0.42201863
0.42391609
0.4256887
0.42734256
0.42888383
0.43031869
0.43165321
0.43289339
0.43404475
0.4351141
0.43610159
0.43703402
0.43782617
0.17647124
0.17387968
0.17151711
0.1693726
0.16743967
0.16572651
0.16424119
0.16302218
0.16211372
0.16155786
0.16140197
0.16167954
0.1624271
0.16367615
0.16545159
0.16777069
0.17064198
0.17406345
0.17802078
0.18248482
0.1874101
0.19273393
0.19837297
0.20423225
0.21019196
0.21615236
0.2219616
0.22753208
0.23277934
0.23764747
0.24211547
0.24619977
0.24995347
0.25345246
0.25678549
0.26004392
0.26331177
0.26665954
0.27015534
0.27380993
0.27762323
0.28158209
0.28566377
0.28983653
0.29406396
0.29831089
0.30254508
0.30673627
0.31085514
0.31487492
0.31877358
0.32253422
0.32614431
0.32959504
0.3328809
0.33599922
0.33894983
0.34173452
0.34435654
0.34682017
0.34913047
0.35129314
0.3533143
0.3552004
0.35695803
0.35859389
0.36011464
0.36152683
0.36283695
0.36405107
0.36517605
0.3662141
0.36718587
0.36803345
0.17654684
0.17400506
0.17168327
0.16956126
0.16762464
0.16586883
0.16428997
0.16289642
0.16170556
0.16075843
0.15999386
0.1596176
0.1595318
0.15976877
0.16035266
0.16129869
0.1626147
0.16430086
0.16634885
0.16874047
0.17144627
0.17442565
0.17762298
0.18097486
0.18440236
0.18783726
0.19118491
0.194391
0.19740805
0.20021393
0.20281605
0.20525119
0.20758284
0.20988959
0.21225469
0.21475788
0.21746366
0.22043401
0.22368565
0.22721968
0.23101777
0.23504736
0.2392671
0.24362937
0.24808439
0.25258493