/*--------------------------------*- C++ -*----------------------------------*\
| =========                 |                                                 |
| \\      /  F ield         | OpenFOAM: The Open Source CFD Toolbox           |
|  \\    /   O peration     | Version:  v2006                                 |
|   \\  /    A nd           | Website:  www.openfoam.com                      |
|    \\/     M anipulation  |                                                 |
\*---------------------------------------------------------------------------*/
FoamFile
{
    version     2.0;
    format      ascii;
    class       volScalarField;
    location    "4000";
    object      p;
}
// * * * * * * * * * * * * * * * * * * * * * * * * * * * * * * * * * * * * * //

dimensions      [1 -1 -2 0 0 0 0];


internalField   nonuniform List<scalar> 
55713
(
1.0000299
1.0000299
1.0000299
1.0000299
1.0000299
1.0000299
1.0000299
1.0000299
1.0000299
1.0000299
1.0000299
1.0000299
1.0000299
1.0000299
1.0000299
1.0000299
1.0000299
1.0000299
1.0000299
1.0000299
1.0000299
1.0000299
1.0000299
1.0000299
1.0000299
1.0000299
1.0000299
1.0000299
1.0000299
1.0000299
1.0000299
1.0000299
1.0000299
1.0000299
1.0000299
1.0000299
1.0000299
1.0000299
1.0000299
1.0000299
1.0000299
1.0000299
1.0000299
1.0000299
1.0000299
1.0000299
1.0000299
1.0000299
1.0000299
1.0000299
1.0000298
1.0000298
1.0000298
1.0000298
1.0000298
1.0000298
1.0000298
1.0000298
1.0000298
1.0000278
1.0000278
1.0000278
1.0000278
1.0000278
1.0000278
1.0000278
1.0000278
1.0000278
1.0000278
1.0000278
1.0000278
1.0000278
1.0000278
1.0000278
1.0000278
1.0000278
1.0000278
1.0000278
1.0000278
1.0000278
1.0000278
1.0000278
1.0000278
1.0000278
1.0000278
1.0000279
1.0000279
1.0000279
1.0000279
1.0000279
1.0000279
1.0000279
1.0000279
1.0000279
1.0000279
1.0000279
1.0000279
1.0000279
1.0000279
1.0000279
1.0000279
1.0000279
1.0000279
1.0000279
1.0000279
1.0000279
1.0000279
1.0000279
1.0000279
1.0000279
1.0000279
1.0000279
1.0000279
1.0000279
1.0000279
1.0000279
1.0000279
1.0000279
1.0000261
1.0000261
1.0000261
1.0000261
1.0000261
1.0000261
1.0000261
1.0000261
1.0000261
1.0000261
1.0000261
1.0000261
1.0000261
1.0000261
1.0000261
1.0000261
1.0000261
1.0000261
1.0000261
1.0000261
1.0000261
1.0000261
1.0000261
1.0000261
1.0000261
1.0000261
1.0000261
1.0000261
1.0000261
1.0000261
1.0000261
1.0000261
1.0000261
1.0000261
1.0000261
1.0000261
1.0000261
1.0000261
1.0000261
1.0000261
1.0000261
1.0000261
1.0000261
1.0000261
1.0000261
1.0000261
1.0000261
1.0000261
1.0000261
1.0000261
1.0000261
1.0000261
1.0000261
1.0000261
1.0000261
1.0000261
1.0000261
1.0000261
1.0000261
1.0000245
1.0000245
1.0000245
1.0000245
1.0000245
1.0000245
1.0000246
1.0000246
1.0000246
1.0000246
1.0000246
1.0000246
1.0000246
1.0000246
1.0000246
1.0000246
1.0000246
1.0000246
1.0000246
1.0000246
1.0000246
1.0000246
1.0000246
1.0000246
1.0000246
1.0000246
1.0000246
1.0000246
1.0000246
1.0000246
1.0000246
1.0000246
1.0000246
1.0000246
1.0000246
1.0000246
1.0000246
1.0000246
1.0000246
1.0000246
1.0000246
1.0000246
1.0000246
1.0000246
1.0000246
1.0000246
1.0000246
1.0000246
1.0000246
1.0000246
1.0000246
1.0000246
1.0000246
1.0000246
1.0000246
1.0000246
1.0000246
1.0000246
1.0000246
1.0000232
1.0000232
1.0000232
1.0000232
1.0000232
1.0000232
1.0000232
1.0000232
1.0000232
1.0000232
1.0000232
1.0000232
1.0000232
1.0000232
1.0000232
1.0000232
1.0000232
1.0000232
1.0000232
1.0000232
1.0000232
1.0000232
1.0000232
1.0000233
1.0000233
1.0000233
1.0000233
1.0000233
1.0000233
1.0000233
1.0000233
1.0000233
1.0000233
1.0000233
1.0000233
1.0000233
1.0000233
1.0000233
1.0000233
1.0000233
1.0000233
1.0000233
1.0000233
1.0000233
1.0000233
1.0000233
1.0000233
1.0000233
1.0000233
1.0000233
1.0000233
1.0000233
1.0000233
1.0000233
1.0000233
1.0000233
1.0000233
1.0000233
1.0000233
1.0000221
1.0000221
1.0000221
1.0000221
1.0000221
1.0000221
1.0000221
1.0000221
1.0000221
1.0000221
1.0000221
1.0000221
1.0000221
1.0000221
1.0000221
1.0000221
1.0000221
1.0000221
1.0000221
1.0000221
1.0000221
1.0000221
1.0000221
1.0000221
1.0000221
1.0000221
1.0000221
1.0000221
1.0000221
1.0000221
1.0000221
1.0000221
1.0000221
1.0000221
1.0000221
1.0000221
1.0000221
1.0000221
1.0000221
1.0000221
1.0000221
1.0000221
1.0000221
1.0000221
1.0000221
1.0000221
1.0000221
1.0000222
1.0000222
1.0000222
1.0000222
1.0000222
1.0000222
1.0000222
1.0000222
1.0000222
1.0000222
1.0000222
1.0000222
1.0000211
1.0000211
1.0000211
1.0000211
1.0000211
1.0000211
1.0000211
1.0000211
1.0000211
1.0000211
1.0000211
1.0000211
1.0000211
1.0000211
1.0000211
1.0000211
1.0000211
1.0000211
1.0000211
1.0000211
1.0000211
1.0000211
1.0000211
1.0000211
1.0000211
1.0000211
1.0000211
1.0000211
1.0000211
1.0000211
1.0000211
1.0000211
1.0000211
1.0000211
1.0000211
1.0000211
1.0000211
1.0000211
1.0000211
1.0000211
1.0000211
1.0000211
1.0000211
1.0000211
1.0000211
1.0000211
1.0000211
1.0000211
1.0000211
1.0000211
1.0000211
1.0000211
1.0000211
1.0000211
1.0000211
1.0000211
1.0000212
1.0000212
1.0000212
1.0000202
1.0000202
1.0000202
1.0000202
1.0000202
1.0000202
1.0000202
1.0000202
1.0000202
1.0000202
1.0000202
1.0000202
1.0000202
1.0000202
1.0000202
1.0000202
1.0000202
1.0000202
1.0000202
1.0000202
1.0000202
1.0000202
1.0000202
1.0000202
1.0000202
1.0000202
1.0000202
1.0000202
1.0000202
1.0000202
1.0000202
1.0000202
1.0000202
1.0000202
1.0000202
1.0000202
1.0000202
1.0000202
1.0000202
1.0000202
1.0000202
1.0000202
1.0000202
1.0000202
1.0000202
1.0000202
1.0000202
1.0000202
1.0000202
1.0000202
1.0000202
1.0000202
1.0000202
1.0000202
1.0000202
1.0000202
1.0000202
1.0000202
1.0000202
1.0000197
1.0000197
1.0000197
1.0000197
1.0000197
1.0000197
1.0000197
1.0000197
1.0000197
1.0000197
1.0000197
1.0000197
1.0000197
1.0000197
1.0000197
1.0000197
1.0000197
1.0000197
1.0000197
1.0000197
1.0000197
1.0000197
1.0000197
1.0000197
1.0000197
1.0000197
1.0000197
1.0000197
1.0000197
1.0000197
1.0000197
1.0000197
1.0000197
1.0000197
1.0000197
1.0000197
1.0000197
1.0000197
1.0000197
1.0000197
1.0000197
1.0000197
1.0000197
1.0000197
1.0000197
1.0000197
1.0000197
1.0000197
1.0000197
1.0000197
1.0000197
1.0000197
1.0000197
1.0000197
1.0000197
1.0000197
1.0000197
1.0000197
1.0000197
1.0000193
1.0000193
1.0000193
1.0000193
1.0000193
1.0000193
1.0000193
1.0000193
1.0000193
1.0000193
1.0000193
1.0000193
1.0000193
1.0000193
1.0000193
1.0000193
1.0000193
1.0000193
1.0000193
1.0000193
1.0000193
1.0000193
1.0000193
1.0000193
1.0000193
1.0000193
1.0000193
1.0000193
1.0000193
1.0000193
1.0000193
1.0000193
1.0000193
1.0000193
1.0000193
1.0000193
1.0000193
1.0000193
1.0000193
1.0000193
1.0000193
1.0000193
1.0000193
1.0000193
1.0000193
1.0000193
1.0000194
1.0000194
1.0000194
1.0000194
1.0000194
1.0000194
1.0000194
1.0000194
1.0000194
1.0000194
1.0000194
1.0000194
1.0000194
1.0000175
1.0000175
1.0000175
1.0000175
1.0000175
1.0000175
1.0000175
1.0000175
1.0000175
1.0000175
1.0000175
1.0000175
1.0000175
1.0000175
1.0000175
1.0000175
1.0000175
1.0000175
1.0000175
1.0000175
1.0000175
1.0000175
1.0000175
1.0000175
1.0000175
1.0000175
1.0000175
1.0000175
1.0000175
1.0000175
1.0000175
1.0000175
1.0000175
1.0000175
1.0000175
1.0000175
1.0000175
1.0000175
1.0000175
1.0000175
1.0000175
1.0000175
1.0000175
1.0000175
1.0000175
1.0000175
1.0000175
1.0000175
1.0000175
1.0000175
1.0000175
1.0000175
1.0000175
1.0000175
1.0000175
1.0000175
1.0000175
1.0000175
1.0000175
1.0000174
1.0000174
1.0000174
1.0000174
1.0000174
1.0000173
1.0000173
1.0000173
1.0000173
1.0000173
1.0000173
1.0000173
1.0000173
1.0000173
1.0000173
1.0000173
1.0000173
1.0000173
1.0000173
1.0000173
1.0000173
1.0000173
1.0000173
1.0000173
1.0000173
1.0000173
1.0000173
1.0000173
1.0000172
1.0000172
1.0000172
1.0000172
1.0000172
1.0000172
1.0000172
1.0000172
1.0000172
1.0000172
1.0000172
1.0000172
1.0000172
1.0000172
1.0000172
1.0000172
1.0000172
1.0000172
1.0000172
1.0000172
1.0000172
1.0000172
1.0000172
1.0000172
1.0000172
1.0000172
1.0000172
1.0000172
1.0000172
1.0000171
1.0000171
1.0000263
1.0000262
1.0000262
1.0000262
1.0000262
1.0000262
1.0000262
1.0000262
1.0000262
1.0000262
1.0000262
1.0000262
1.0000262
1.0000262
1.0000262
1.0000262
1.0000262
1.0000262
1.0000262
1.0000262
1.0000262
1.0000262
1.0000262
1.0000262
1.0000262
1.0000262
1.0000262
1.0000262
1.0000262
1.0000262
1.0000262
1.0000262
1.0000262
1.0000262
1.0000262
1.0000262
1.0000262
1.0000262
1.0000262
1.0000262
1.0000262
1.0000262
1.0000262
1.0000262
1.0000262
1.0000262
1.0000262
1.0000262
1.0000262
1.0000262
1.0000262
1.0000262
1.0000262
1.0000262
1.0000262
1.0000262
1.0000262
1.0000262
1.0000262
1.0000167
1.0000167
1.0000167
1.0000167
1.0000167
1.0000167
1.0000167
1.0000167
1.0000167
1.0000167
1.0000167
1.0000167
1.0000167
1.0000167
1.0000167
1.0000167
1.0000167
1.0000167
1.0000167
1.0000168
1.0000168
1.0000168
1.0000168
1.0000168
1.0000168
1.0000168
1.0000168
1.0000168
1.0000168
1.0000168
1.0000168
1.0000168
1.0000168
1.0000168
1.0000168
1.0000168
1.0000168
1.0000168
1.0000168
1.0000168
1.0000168
1.0000168
1.0000168
1.0000168
1.0000168
1.0000168
1.0000168
1.0000168
1.0000168
1.0000168
1.0000168
1.0000168
1.0000167
1.0000167
1.0000167
1.0000167
1.0000167
1.0000167
1.0000167
1.000116
1.000116
1.000116
1.0001161
1.0001161
1.0001162
1.0001162
1.0001162
1.0001163
1.0001163
1.0001163
1.0001164
1.0001164
1.0001164
1.0001165
1.0001165
1.0001165
1.0001165
1.0001166
1.0001166
1.0001166
1.0001167
1.0001167
1.0001167
1.0001167
1.0001168
1.0001168
1.0001168
1.0001168
1.0001169
1.0001169
1.0001169
1.0001169
1.0001169
1.0001169
1.000117
1.000117
1.000117
1.000117
1.000117
1.000117
1.000117
1.0001171
1.0001171
1.0001171
1.0001171
1.0001171
1.0001171
1.0001171
1.0001171
1.0001171
1.0001171
1.0001171
1.0001171
1.0001171
1.0001171
1.0001171
1.0001171
1.0001171
1.0001062
1.0001062
1.0001063
1.0001063
1.0001063
1.0001064
1.0001064
1.0001064
1.0001065
1.0001065
1.0001065
1.0001065
1.0001066
1.0001066
1.0001066
1.0001066
1.0001067
1.0001067
1.0001067
1.0001067
1.0001068
1.0001068
1.0001068
1.0001068
1.0001068
1.0001069
1.0001069
1.0001069
1.0001069
1.0001069
1.000107
1.000107
1.000107
1.000107
1.000107
1.000107
1.000107
1.0001071
1.0001071
1.0001071
1.0001071
1.0001071
1.0001071
1.0001071
1.0001071
1.0001071
1.0001071
1.0001071
1.0001072
1.0001072
1.0001072
1.0001072
1.0001072
1.0001072
1.0001072
1.0001072
1.0001072
1.0001072
1.0001072
1.0000971
1.0000971
1.0000972
1.0000972
1.0000972
1.0000972
1.0000973
1.0000973
1.0000973
1.0000973
1.0000974
1.0000974
1.0000974
1.0000974
1.0000974
1.0000975
1.0000975
1.0000975
1.0000975
1.0000975
1.0000976
1.0000976
1.0000976
1.0000976
1.0000976
1.0000976
1.0000977
1.0000977
1.0000977
1.0000977
1.0000977
1.0000977
1.0000977
1.0000978
1.0000978
1.0000978
1.0000978
1.0000978
1.0000978
1.0000978
1.0000978
1.0000978
1.0000978
1.0000979
1.0000979
1.0000979
1.0000979
1.0000979
1.0000979
1.0000979
1.0000979
1.0000979
1.0000979
1.0000979
1.0000979
1.0000979
1.0000979
1.0000979
1.0000979
1.0000886
1.0000886
1.0000886
1.0000887
1.0000887
1.0000887
1.0000887
1.0000887
1.0000888
1.0000888
1.0000888
1.0000888
1.0000888
1.0000889
1.0000889
1.0000889
1.0000889
1.0000889
1.0000889
1.0000889
1.000089
1.000089
1.000089
1.000089
1.000089
1.000089
1.000089
1.0000891
1.0000891
1.0000891
1.0000891
1.0000891
1.0000891
1.0000891
1.0000891
1.0000891
1.0000891
1.0000892
1.0000892
1.0000892
1.0000892
1.0000892
1.0000892
1.0000892
1.0000892
1.0000892
1.0000892
1.0000892
1.0000892
1.0000892
1.0000892
1.0000892
1.0000892
1.0000892
1.0000892
1.0000892
1.0000892
1.0000892
1.0000892
1.0000807
1.0000807
1.0000807
1.0000807
1.0000807
1.0000808
1.0000808
1.0000808
1.0000808
1.0000808
1.0000808
1.0000809
1.0000809
1.0000809
1.0000809
1.0000809
1.0000809
1.0000809
1.0000809
1.000081
1.000081
1.000081
1.000081
1.000081
1.000081
1.000081
1.000081
1.000081
1.0000811
1.0000811
1.0000811
1.0000811
1.0000811
1.0000811
1.0000811
1.0000811
1.0000811
1.0000811
1.0000811
1.0000811
1.0000811
1.0000811
1.0000812
1.0000812
1.0000812
1.0000812
1.0000812
1.0000812
1.0000812
1.0000812
1.0000812
1.0000812
1.0000812
1.0000812
1.0000812
1.0000812
1.0000812
1.0000812
1.0000812
1.0000733
1.0000733
1.0000733
1.0000734
1.0000734
1.0000734
1.0000734
1.0000734
1.0000734
1.0000734
1.0000735
1.0000735
1.0000735
1.0000735
1.0000735
1.0000735
1.0000735
1.0000735
1.0000735
1.0000735
1.0000736
1.0000736
1.0000736
1.0000736
1.0000736
1.0000736
1.0000736
1.0000736
1.0000736
1.0000736
1.0000736
1.0000736
1.0000736
1.0000737
1.0000737
1.0000737
1.0000737
1.0000737
1.0000737
1.0000737
1.0000737
1.0000737
1.0000737
1.0000737
1.0000737
1.0000737
1.0000737
1.0000737
1.0000737
1.0000737
1.0000737
1.0000737
1.0000737
1.0000737
1.0000737
1.0000737
1.0000737
1.0000737
1.0000737
1.0000665
1.0000665
1.0000665
1.0000665
1.0000666
1.0000666
1.0000666
1.0000666
1.0000666
1.0000666
1.0000666
1.0000666
1.0000666
1.0000666
1.0000667
1.0000667
1.0000667
1.0000667
1.0000667
1.0000667
1.0000667
1.0000667
1.0000667
1.0000667
1.0000667
1.0000667
1.0000667
1.0000667
1.0000668
1.0000668
1.0000668
1.0000668
1.0000668
1.0000668
1.0000668
1.0000668
1.0000668
1.0000668
1.0000668
1.0000668
1.0000668
1.0000668
1.0000668
1.0000668
1.0000668
1.0000668
1.0000668
1.0000668
1.0000668
1.0000668
1.0000668
1.0000668
1.0000668
1.0000668
1.0000668
1.0000668
1.0000668
1.0000668
1.0000668
1.0000602
1.0000602
1.0000602
1.0000603
1.0000603
1.0000603
1.0000603
1.0000603
1.0000603
1.0000603
1.0000603
1.0000603
1.0000603
1.0000603
1.0000603
1.0000604
1.0000604
1.0000604
1.0000604
1.0000604
1.0000604
1.0000604
1.0000604
1.0000604
1.0000604
1.0000604
1.0000604
1.0000604
1.0000604
1.0000604
1.0000604
1.0000604
1.0000604
1.0000604
1.0000605
1.0000605
1.0000605
1.0000605
1.0000605
1.0000605
1.0000605
1.0000605
1.0000605
1.0000605
1.0000605
1.0000605
1.0000605
1.0000605
1.0000605
1.0000605
1.0000605
1.0000605
1.0000605
1.0000605
1.0000605
1.0000605
1.0000605
1.0000605
1.0000605
1.0000545
1.0000545
1.0000545
1.0000545
1.0000545
1.0000545
1.0000545
1.0000545
1.0000545
1.0000545
1.0000545
1.0000545
1.0000545
1.0000545
1.0000546
1.0000546
1.0000546
1.0000546
1.0000546
1.0000546
1.0000546
1.0000546
1.0000546
1.0000546
1.0000546
1.0000546
1.0000546
1.0000546
1.0000546
1.0000546
1.0000546
1.0000546
1.0000546
1.0000546
1.0000546
1.0000546
1.0000546
1.0000546
1.0000546
1.0000546
1.0000546
1.0000546
1.0000547
1.0000547
1.0000547
1.0000547
1.0000547
1.0000547
1.0000547
1.0000547
1.0000547
1.0000547
1.0000547
1.0000547
1.0000547
1.0000547
1.0000547
1.0000547
1.0000547
1.0000492
1.0000492
1.0000492
1.0000492
1.0000492
1.0000492
1.0000492
1.0000492
1.0000492
1.0000492
1.0000492
1.0000492
1.0000492
1.0000492
1.0000492
1.0000492
1.0000493
1.0000493
1.0000493
1.0000493
1.0000493
1.0000493
1.0000493
1.0000493
1.0000493
1.0000493
1.0000493
1.0000493
1.0000493
1.0000493
1.0000493
1.0000493
1.0000493
1.0000493
1.0000493
1.0000493
1.0000493
1.0000493
1.0000493
1.0000493
1.0000493
1.0000493
1.0000493
1.0000493
1.0000493
1.0000493
1.0000493
1.0000493
1.0000493
1.0000493
1.0000493
1.0000493
1.0000493
1.0000493
1.0000493
1.0000493
1.0000493
1.0000493
1.0000493
1.0000443
1.0000443
1.0000444
1.0000444
1.0000444
1.0000444
1.0000444
1.0000444
1.0000444
1.0000444
1.0000444
1.0000444
1.0000444
1.0000444
1.0000444
1.0000444
1.0000444
1.0000444
1.0000444
1.0000444
1.0000444
1.0000444
1.0000444
1.0000444
1.0000444
1.0000444
1.0000444
1.0000444
1.0000444
1.0000444
1.0000444
1.0000444
1.0000444
1.0000445
1.0000445
1.0000445
1.0000445
1.0000445
1.0000445
1.0000445
1.0000445
1.0000445
1.0000445
1.0000445
1.0000445
1.0000445
1.0000445
1.0000445
1.0000445
1.0000445
1.0000445
1.0000445
1.0000445
1.0000445
1.0000445
1.0000445
1.0000445
1.0000445
1.0000445
1.0000399
1.0000399
1.00004
1.00004
1.00004
1.00004
1.00004
1.00004
1.00004
1.00004
1.00004
1.00004
1.00004
1.00004
1.00004
1.00004
1.00004
1.00004
1.00004
1.00004
1.00004
1.00004
1.00004
1.00004
1.00004
1.00004
1.00004
1.00004
1.00004
1.00004
1.00004
1.00004
1.00004
1.00004
1.00004
1.00004
1.00004
1.00004
1.00004
1.00004
1.00004
1.00004
1.00004
1.00004
1.00004
1.00004
1.00004
1.00004
1.00004
1.00004
1.00004
1.00004
1.00004
1.00004
1.00004
1.00004
1.0000401
1.0000401
1.0000401
1.000036
1.000036
1.000036
1.000036
1.000036
1.000036
1.000036
1.000036
1.000036
1.000036
1.000036
1.000036
1.000036
1.000036
1.000036
1.000036
1.000036
1.000036
1.000036
1.000036
1.000036
1.000036
1.000036
1.000036
1.000036
1.000036
1.000036
1.000036
1.000036
1.000036
1.000036
1.000036
1.000036
1.000036
1.000036
1.000036
1.000036
1.000036
1.000036
1.000036
1.000036
1.000036
1.000036
1.000036
1.000036
1.000036
1.000036
1.000036
1.000036
1.000036
1.000036
1.000036
1.000036
1.000036
1.000036
1.000036
1.000036
1.000036
1.000036
1.0000325
1.0000325
1.0000325
1.0000325
1.0000325
1.0000325
1.0000325
1.0000325
1.0000325
1.0000325
1.0000325
1.0000325
1.0000325
1.0000325
1.0000325
1.0000325
1.0000325
1.0000325
1.0000325
1.0000325
1.0000325
1.0000325
1.0000325
1.0000325
1.0000325
1.0000325
1.0000325
1.0000325
1.0000325
1.0000325
1.0000325
1.0000325
1.0000325
1.0000325
1.0000325
1.0000325
1.0000325
1.0000325
1.0000325
1.0000325
1.0000325
1.0000325
1.0000325
1.0000325
1.0000325
1.0000325
1.0000325
1.0000325
1.0000325
1.0000325
1.0000325
1.0000325
1.0000325
1.0000325
1.0000325
1.0000325
1.0000325
1.0000325
1.0000325
1.0001289
1.0001433
1.0001593
1.0001768
1.0001959
1.0002168
1.0002394
1.0002639
1.0002904
1.0003189
1.0003495
1.0003822
1.0004169
1.0004535
1.000492
1.0005321
1.0005734
1.0006157
1.0006583
1.0007005
1.0007417
1.0007809
1.0008171
1.000849
1.0008756
1.0008956
1.0009076
1.0009107
1.0009043
1.000887
1.0008586
1.0008191
1.0007687
1.0007075
1.0006367
1.0005572
1.0004704
1.0003774
1.0002792
1.0001772
1.0000729
0.99996758
0.99986218
0.99975745
0.99965457
0.9995543
0.99945686
0.99936234
0.99927094
0.99918342
0.99910005
0.99902075
0.99894549
0.99887427
0.99880694
0.99874364
0.99868443
0.99862884
0.99857657
0.9985276
0.99848178
0.99843898
0.99839902
0.99836179
0.99832702
0.99829455
0.99826441
0.99823641
0.9982104
0.99818624
0.99816381
0.99814299
0.99812369
0.99810573
1.0001289
1.0001433
1.0001593
1.0001768
1.0001959
1.0002168
1.0002394
1.0002639
1.0002904
1.0003189
1.0003495
1.0003822
1.0004169
1.0004535
1.000492
1.0005321
1.0005734
1.0006157
1.0006583
1.0007005
1.0007417
1.0007809
1.0008171
1.0008491
1.0008756
1.0008956
1.0009076
1.0009107
1.0009043
1.000887
1.0008586
1.0008191
1.0007687
1.0007075
1.0006367
1.0005573
1.0004703
1.0003773
1.0002792
1.0001772
1.0000729
0.99996758
0.99986218
0.99975744
0.99965453
0.99955425
0.99945682
0.99936235
0.99927095
0.99918342
0.99910003
0.99902073
0.99894546
0.99887424
0.99880691
0.99874362
0.99868442
0.99862883
0.99857654
0.99852756
0.99848174
0.99843893
0.99839898
0.99836175
0.99832695
0.99829447
0.99826432
0.99823634
0.99821033
0.99818618
0.99816376
0.99814294
0.99812365
0.99810569
1.0001289
1.0001433
1.0001593
1.0001768
1.0001959
1.0002168
1.0002394
1.0002639
1.0002904
1.0003189
1.0003495
1.0003822
1.0004169
1.0004535
1.000492
1.0005321
1.0005734
1.0006157
1.0006583
1.0007005
1.0007417
1.0007809
1.0008171
1.0008491
1.0008756
1.0008956
1.0009076
1.0009107
1.0009043
1.000887
1.0008586
1.0008192
1.0007687
1.0007076
1.0006368
1.0005573
1.0004704
1.0003774
1.0002792
1.0001772
1.0000729
0.99996761
0.9998622
0.99975748
0.99965457
0.99955425
0.99945678
0.99936227
0.99927091
0.99918341
0.99910005
0.99902075
0.99894549
0.99887427
0.99880689
0.99874356
0.99868439
0.99862884
0.99857658
0.9985276
0.99848178
0.99843898
0.99839903
0.99836187
0.99832712
0.99829458
0.99826441
0.99823642
0.99821041
0.99818624
0.99816381
0.99814298
0.99812368
0.99810568
1.0001289
1.0001433
1.0001593
1.0001768
1.0001959
1.0002168
1.0002394
1.0002639
1.0002904
1.0003189
1.0003495
1.0003822
1.0004169
1.0004535
1.000492
1.0005321
1.0005734
1.0006157
1.0006583
1.0007005
1.0007417
1.0007809
1.0008171
1.0008491
1.0008756
1.0008957
1.0009076
1.0009108
1.0009043
1.000887
1.0008587
1.0008192
1.0007688
1.0007077
1.0006368
1.0005574
1.0004705
1.0003774
1.0002793
1.0001773
1.000073
0.9999677
0.99986229
0.99975758
0.99965467
0.99955432
0.99945681
0.9993623
0.99927099
0.9991835
0.99910013
0.99902081
0.99894554
0.99887432
0.998807
0.99874372
0.99868448
0.99862884
0.99857654
0.99852754
0.9984817
0.99843889
0.99839894
0.99836171
0.99832693
0.99829448
0.99826436
0.99823639
0.99821039
0.99818625
0.99816385
0.99814304
0.99812375
0.99810584
1.0001289
1.0001433
1.0001593
1.0001768
1.0001959
1.0002168
1.0002394
1.0002639
1.0002904
1.0003189
1.0003495
1.0003822
1.0004169
1.0004535
1.000492
1.0005321
1.0005734
1.0006157
1.0006583
1.0007005
1.0007417
1.0007809
1.0008171
1.0008491
1.0008756
1.0008957
1.0009077
1.0009108
1.0009044
1.0008871
1.0008587
1.0008193
1.0007689
1.0007078
1.000637
1.0005575
1.0004706
1.0003776
1.0002794
1.0001775
1.0000732
0.99996785
0.99986244
0.99975775
0.99965483
0.99955445
0.9994569
0.99936238
0.99927109
0.99918362
0.99910024
0.99902093
0.99894567
0.99887445
0.99880717
0.99874387
0.99868454
0.99862887
0.99857661
0.99852762
0.99848181
0.99843901
0.99839906
0.99836182
0.99832708
0.99829468
0.99826456
0.99823658
0.99821057
0.99818642
0.998164
0.99814319
0.99812388
0.99810597
1.0001289
1.0001432
1.0001593
1.0001768
1.0001959
1.0002167
1.0002394
1.0002639
1.0002904
1.0003189
1.0003495
1.0003822
1.0004169
1.0004535
1.000492
1.0005321
1.0005734
1.0006157
1.0006582
1.0007005
1.0007417
1.0007809
1.0008171
1.0008491
1.0008757
1.0008957
1.0009077
1.0009109
1.0009045
1.0008872
1.0008589
1.0008195
1.0007691
1.000708
1.0006372
1.0005577
1.0004708
1.0003778
1.0002796
1.0001777
1.0000734
0.9999681
0.99986269
0.99975801
0.99965509
0.99955467
0.99945708
0.99936254
0.99927129
0.99918384
0.99910046
0.99902114
0.99894587
0.99887465
0.99880739
0.9987441
0.99868475
0.99862905
0.99857676
0.99852775
0.99848191
0.99843909
0.99839913
0.99836187
0.99832713
0.99829476
0.99826465
0.99823667
0.99821068
0.99818654
0.99816413
0.99814333
0.99812404
0.99810614
1.0001289
1.0001432
1.0001593
1.0001768
1.0001959
1.0002167
1.0002394
1.0002639
1.0002904
1.0003189
1.0003495
1.0003821
1.0004168
1.0004535
1.000492
1.000532
1.0005734
1.0006156
1.0006582
1.0007005
1.0007417
1.0007809
1.0008172
1.0008491
1.0008757
1.0008958
1.0009078
1.000911
1.0009046
1.0008874
1.0008591
1.0008197
1.0007693
1.0007082
1.0006375
1.0005581
1.0004712
1.0003781
1.00028
1.0001781
1.0000738
0.99996847
0.99986305
0.99975839
0.99965546
0.99955501
0.99945738
0.99936282
0.9992716
0.99918416
0.99910077
0.99902145
0.99894618
0.99887496
0.99880772
0.99874443
0.99868502
0.99862927
0.99857697
0.99852796
0.99848214
0.99843933
0.99839938
0.99836212
0.9983274
0.99829505
0.99826496
0.998237
0.99821101
0.99818687
0.99816446
0.99814365
0.99812434
0.99810642
1.0001289
1.0001432
1.0001593
1.0001768
1.0001959
1.0002167
1.0002394
1.0002639
1.0002904
1.0003189
1.0003495
1.0003821
1.0004168
1.0004535
1.000492
1.000532
1.0005734
1.0006156
1.0006582
1.0007005
1.0007417
1.0007809
1.0008172
1.0008491
1.0008758
1.0008959
1.0009079
1.0009111
1.0009048
1.0008876
1.0008593
1.00082
1.0007696
1.0007086
1.0006379
1.0005585
1.0004716
1.0003786
1.0002805
1.0001786
1.0000743
0.999969
0.99986358
0.99975893
0.999656
0.9995555
0.99945783
0.99936326
0.99927205
0.99918463
0.99910124
0.99902191
0.99894664
0.99887541
0.99880818
0.99874488
0.99868544
0.99862966
0.99857734
0.99852833
0.99848249
0.99843967
0.9983997
0.99836243
0.9983277
0.99829536
0.99826527
0.9982373
0.99821131
0.99818717
0.99816476
0.99814396
0.99812466
0.99810674
1.0001289
1.0001432
1.0001593
1.0001768
1.0001959
1.0002167
1.0002394
1.0002639
1.0002904
1.0003189
1.0003495
1.0003821
1.0004168
1.0004535
1.0004919
1.000532
1.0005734
1.0006156
1.0006582
1.0007005
1.0007417
1.0007809
1.0008172
1.0008492
1.0008758
1.000896
1.000908
1.0009113
1.000905
1.0008879
1.0008597
1.0008204
1.0007701
1.0007091
1.0006385
1.0005592
1.0004723
1.0003793
1.0002812
1.0001793
1.0000751
0.99996976
0.99986434
0.9997597
0.99965675
0.99955622
0.9994585
0.99936391
0.99927272
0.99918531
0.9991019
0.99902256
0.99894728
0.99887605
0.99880882
0.99874551
0.99868604
0.99863022
0.99857787
0.99852885
0.998483
0.99844018
0.99840021
0.99836295
0.99832823
0.9982959
0.99826583
0.99823787
0.99821189
0.99818775
0.99816534
0.99814453
0.99812523
0.9981073
1.0001289
1.0001432
1.0001593
1.0001768
1.0001959
1.0002167
1.0002393
1.0002639
1.0002904
1.0003189
1.0003494
1.0003821
1.0004168
1.0004534
1.0004919
1.000532
1.0005733
1.0006156
1.0006582
1.0007005
1.0007417
1.0007809
1.0008172
1.0008492
1.0008759
1.0008961
1.0009082
1.0009115
1.0009053
1.0008883
1.0008601
1.0008209
1.0007707
1.0007099
1.0006393
1.00056
1.0004732
1.0003802
1.0002821
1.0001803
1.0000761
0.9999708
0.99986538
0.99976075
0.9996578
0.99955722
0.99945946
0.99936484
0.99927366
0.99918625
0.99910284
0.99902348
0.99894819
0.99887695
0.99880971
0.99874639
0.99868688
0.99863103
0.99857866
0.99852962
0.99848376
0.99844093
0.99840095
0.99836367
0.99832894
0.99829661
0.99826653
0.99823856
0.99821257
0.99818843
0.99816601
0.9981452
0.99812589
0.99810796
1.0001289
1.0001432
1.0001592
1.0001768
1.0001959
1.0002167
1.0002393
1.0002638
1.0002903
1.0003188
1.0003494
1.0003821
1.0004167
1.0004534
1.0004919
1.0005319
1.0005733
1.0006155
1.0006581
1.0007004
1.0007417
1.0007809
1.0008172
1.0008493
1.000876
1.0008963
1.0009084
1.0009119
1.0009057
1.0008888
1.0008608
1.0008217
1.0007716
1.0007108
1.0006404
1.0005612
1.0004744
1.0003815
1.0002835
1.0001817
1.0000775
0.99997223
0.99986682
0.99976219
0.99965922
0.99955861
0.9994608
0.99936616
0.99927497
0.99918756
0.99910413
0.99902476
0.99894945
0.99887819
0.99881093
0.99874759
0.99868804
0.99863215
0.99857976
0.9985307
0.99848482
0.99844197
0.99840198
0.9983647
0.99832997
0.99829764
0.99826756
0.9982396
0.99821361
0.99818946
0.99816704
0.99814623
0.99812691
0.99810897
1.0001289
1.0001432
1.0001592
1.0001768
1.0001959
1.0002167
1.0002393
1.0002638
1.0002903
1.0003188
1.0003494
1.000382
1.0004167
1.0004534
1.0004918
1.0005319
1.0005732
1.0006155
1.0006581
1.0007004
1.0007416
1.0007809
1.0008173
1.0008494
1.0008761
1.0008965
1.0009087
1.0009123
1.0009063
1.0008895
1.0008616
1.0008226
1.0007727
1.0007121
1.0006418
1.0005627
1.0004761
1.0003832
1.0002853
1.0001836
1.0000794
0.99997416
0.99986875
0.99976413
0.99966115
0.9995605
0.99946265
0.99936796
0.99927677
0.99918935
0.99910589
0.99902649
0.99895116
0.99887988
0.99881259
0.99874922
0.99868963
0.99863371
0.99858128
0.99853219
0.99848629
0.99844342
0.99840342
0.99836612
0.99833137
0.99829903
0.99826894
0.99824096
0.99821495
0.9981908
0.99816837
0.99814754
0.99812821
0.99811027
1.0001289
1.0001432
1.0001592
1.0001767
1.0001958
1.0002167
1.0002393
1.0002638
1.0002903
1.0003188
1.0003493
1.000382
1.0004167
1.0004533
1.0004918
1.0005318
1.0005732
1.0006154
1.000658
1.0007004
1.0007416
1.0007809
1.0008173
1.0008495
1.0008763
1.0008967
1.0009091
1.0009128
1.000907
1.0008903
1.0008626
1.0008239
1.0007741
1.0007138
1.0006436
1.0005647
1.0004783
1.0003855
1.0002876
1.000186
1.000082
0.99997673
0.99987135
0.99976673
0.99966374
0.99956304
0.99946514
0.99937042
0.9992792
0.99919176
0.99910827
0.99902883
0.99895347
0.99888215
0.99881483
0.99875141
0.99869178
0.99863581
0.99858334
0.99853422
0.99848829
0.9984454
0.99840537
0.99836805
0.99833329
0.99830093
0.99827082
0.99824283
0.99821682
0.99819265
0.9981702
0.99814937
0.99813002
0.99811207
1.0001289
1.0001432
1.0001592
1.0001767
1.0001958
1.0002166
1.0002393
1.0002638
1.0002902
1.0003187
1.0003493
1.0003819
1.0004166
1.0004532
1.0004917
1.0005317
1.0005731
1.0006153
1.000658
1.0007003
1.0007416
1.0007809
1.0008173
1.0008496
1.0008765
1.0008971
1.0009096
1.0009135
1.0009078
1.0008915
1.000864
1.0008255
1.000776
1.0007159
1.0006461
1.0005674
1.0004811
1.0003885
1.0002908
1.0001893
1.0000853
0.99998014
0.99987478
0.99977018
0.99966717
0.99956643
0.99946848
0.99937371
0.99928245
0.99919497
0.99911145
0.99903196
0.99895654
0.99888518
0.99881781
0.99875434
0.99869466
0.99863864
0.99858612
0.99853696
0.99849099
0.99844806
0.998408
0.99837065
0.99833586
0.99830348
0.99827335
0.99824533
0.9982193
0.99819511
0.99817265
0.99815179
0.99813244
0.99811447
1.0001288
1.0001432
1.0001592
1.0001767
1.0001958
1.0002166
1.0002392
1.0002637
1.0002902
1.0003187
1.0003493
1.0003819
1.0004165
1.0004532
1.0004916
1.0005317
1.000573
1.0006152
1.0006579
1.0007002
1.0007415
1.0007809
1.0008174
1.0008497
1.0008768
1.0008975
1.0009102
1.0009143
1.000909
1.0008929
1.0008658
1.0008276
1.0007785
1.0007188
1.0006492
1.0005709
1.0004849
1.0003925
1.0002949
1.0001936
1.0000897
0.99998462
0.9998793
0.99977471
0.99967168
0.9995709
0.99947289
0.99937807
0.99928676
0.99919923
0.99911564
0.9990361
0.99896062
0.99888919
0.99882175
0.99875821
0.99869847
0.99864238
0.99858981
0.99854059
0.99849457
0.99845159
0.99841149
0.9983741
0.99833928
0.99830685
0.99827669
0.99824865
0.99822258
0.99819837
0.99817588
0.998155
0.99813562
0.99811763
1.0001288
1.0001432
1.0001592
1.0001767
1.0001958
1.0002166
1.0002392
1.0002637
1.0002902
1.0003186
1.0003492
1.0003818
1.0004165
1.0004531
1.0004915
1.0005315
1.0005729
1.0006151
1.0006578
1.0007001
1.0007415
1.0007809
1.0008174
1.0008499
1.0008771
1.000898
1.000911
1.0009154
1.0009104
1.0008947
1.000868
1.0008303
1.0007817
1.0007224
1.0006533
1.0005753
1.0004897
1.0003976
1.0003003
1.0001991
1.0000955
0.99999044
0.99988518
0.99978062
0.99967758
0.99957675
0.99947868
0.99938379
0.99929242
0.99920482
0.99912115
0.99904152
0.99896596
0.99889444
0.99882692
0.99876331
0.99870348
0.99864732
0.99859467
0.99854538
0.9984993
0.99845626
0.9984161
0.99837866
0.99834379
0.99831132
0.99828112
0.99825304
0.99822694
0.99820269
0.99818017
0.99815926
0.99813986
0.99812184
1.0001288
1.0001431
1.0001592
1.0001767
1.0001958
1.0002166
1.0002392
1.0002637
1.0002901
1.0003186
1.0003491
1.0003817
1.0004164
1.000453
1.0004914
1.0005314
1.0005728
1.000615
1.0006576
1.0007
1.0007414
1.0007809
1.0008175
1.0008501
1.0008775
1.0008986
1.000912
1.0009168
1.0009121
1.000897
1.0008708
1.0008337
1.0007857
1.000727
1.0006585
1.000581
1.0004958
1.0004041
1.0003072
1.0002063
1.0001028
0.99999796
0.99989278
0.99978826
0.99968521
0.99958434
0.99948621
0.99939124
0.99929978
0.99921208
0.99912831
0.99904858
0.99897291
0.99890128
0.99883365