/*--------------------------------*- C++ -*----------------------------------*\
| =========                 |                                                 |
| \\      /  F ield         | OpenFOAM: The Open Source CFD Toolbox           |
|  \\    /   O peration     | Version:  v2006                                 |
|   \\  /    A nd           | Website:  www.openfoam.com                      |
|    \\/     M anipulation  |                                                 |
\*---------------------------------------------------------------------------*/
FoamFile
{
    version     2.0;
    format      ascii;
    class       surfaceScalarField;
    location    "4000";
    object      phi;
}
// * * * * * * * * * * * * * * * * * * * * * * * * * * * * * * * * * * * * * //

dimensions      [1 0 -1 0 0 0 0];
oriented        oriented;


internalField   nonuniform List<scalar> 
110670
(
1.7251512e-05
-0.00037606262
0.00035881103
3.0316087e-05
-0.00035388328
0.00034081863
4.0139046e-05
-0.00033464612
0.00032482309
4.7414254e-05
-0.0003176808
0.00031040553
5.2667451e-05
-0.00030260373
0.00029735048
5.6301333e-05
-0.00028913268
0.00028549875
5.8627744e-05
-0.00027704861
0.00027472216
5.9891109e-05
-0.00026617487
0.00026491147
6.0284653e-05
-0.00025636673
0.00025597316
5.9962688e-05
-0.00024750306
0.00024782501
5.9049011e-05
-0.00023948304
0.00024039669
5.7643829e-05
-0.00023221775
0.00023362292
5.5828764e-05
-0.00022563439
0.00022744944
5.3670994e-05
-0.00021966969
0.00022182745
5.1226093e-05
-0.00021426931
0.00021671419
4.8540177e-05
-0.00020938704
0.00021207295
4.5651624e-05
-0.00020498234
0.00020787088
4.2592599e-05
-0.00020102026
0.00020407928
3.9390112e-05
-0.00019747018
0.00020067265
3.606706e-05
-0.00019430551
0.00019762855
3.2642909e-05
-0.00019150328
0.00019492741
2.913438e-05
-0.00018904366
0.00019255218
2.5555925e-05
-0.00018690988
0.00019048832
2.1920147e-05
-0.00018508764
0.0001887234
1.823816e-05
-0.00018356503
0.000187247
1.4519863e-05
-0.00018233218
0.00018605047
1.0774241e-05
-0.00018138127
0.00018512689
7.0095749e-06
-0.00018070625
0.00018447091
3.233652e-06
-0.0001803029
0.00018407882
-5.4600807e-07
-0.00018016868
0.00018394834
-4.3219903e-06
-0.00018030274
0.00018407871
-8.0867385e-06
-0.00018070586
0.00018447061
-1.1832482e-05
-0.00018138053
0.00018512626
-1.555092e-05
-0.0001823309
0.00018604934
-1.9233144e-05
-0.00018356307
0.00018724528
-2.2869276e-05
-0.00018508508
0.00018872121
-2.6448269e-05
-0.00018690709
0.00019048607
-2.9957472e-05
-0.00018904124
0.00019255044
-3.3382349e-05
-0.00019150179
0.00019492666
-3.6706072e-05
-0.00019430513
0.00019762885
-3.99091e-05
-0.00019747061
0.00020067363
-4.2968559e-05
-0.00020102087
0.00020408033
-4.5857473e-05
-0.0002049826
0.00020787151
-4.8543752e-05
-0.00020938685
0.00021207313
-5.0988997e-05
-0.000214269
0.00021671425
-5.3147192e-05
-0.00021966956
0.00022182775
-5.4962926e-05
-0.00022563442
0.00022745016
-5.6369186e-05
-0.00023221788
0.00023362413
-5.7284264e-05
-0.00023948328
0.00024039836
-5.7607798e-05
-0.0002475032
0.00024782673
-5.7215986e-05
-0.00025636613
0.00025597432
-5.5954775e-05
-0.00026617308
0.00026491187
-5.3631061e-05
-0.00027704614
0.00027472243
-5.0000557e-05
-0.0002891308
0.00028550029
-4.4751271e-05
-0.00030260427
0.00029735499
-3.7479846e-05
-0.00031768455
0.00031041312
-2.7657801e-05
-0.00033464496
0.00032482292
-1.4582795e-05
-0.00035382917
0.00034075416
-0.00037568313
0.00035840626
2.6940803e-06
1.7289818e-05
-0.00039335237
3.0385587e-05
-0.00036697898
4.0227842e-05
-0.00034448832
4.7515474e-05
-0.00032496839
5.277563e-05
-0.00030786383
5.6412017e-05
-0.00029276905
5.8737569e-05
-0.00027937412
5.9997318e-05
-0.0002674346
6.0385123e-05
-0.0002567545
6.0055673e-05
-0.0002471736
5.9133026e-05
-0.00023856037
5.7717557e-05
-0.00023080226
5.5891142e-05
-0.00022380796
5.372125e-05
-0.00021749978
5.126365e-05
-0.00021181169
4.8564539e-05
-0.00020668791
4.5662386e-05
-0.00020208018
4.2589407e-05
-0.00019794727
3.9372698e-05
-0.00019425347
3.6035181e-05
-0.00019096798
3.2596353e-05
-0.00018806445
2.9072977e-05
-0.00018552028
2.5479529e-05
-0.00018331643
2.1828658e-05
-0.00018143676
1.8131493e-05
-0.00017986786
1.4397969e-05
-0.00017859866
1.0637083e-05
-0.00017762038
6.8571333e-06
-0.0001769263
3.0659374e-06
-0.0001765117
-7.2898519e-07
-0.00017637376
-4.5202109e-06
-0.00017651151
-8.3002106e-06
-0.00017692586
-1.206115e-05
-0.00017761958
-1.5794743e-05
-0.00017859731
-1.9492015e-05
-0.00017986579
-2.3143109e-05
-0.00018143399
-2.6736917e-05
-0.00018331327
-3.02608e-05
-0.00018551736
-3.3700151e-05
-0.00018806243
-3.7038099e-05
-0.00019096718
-4.0255032e-05
-0.00019425367
-4.3328033e-05
-0.00019794787
-4.6230067e-05
-0.00020208056
-4.8929008e-05
-0.00020668791
-5.1386401e-05
-0.00021181161
-5.3556099e-05
-0.00021749986
-5.5382529e-05
-0.00022380799
-5.6798456e-05
-0.00023080195
-5.7721946e-05
-0.00023855979
-5.8052352e-05
-0.0002471728
-5.7665547e-05
-0.00025675293
-5.6407067e-05
-0.00026743157
-5.4083302e-05
-0.0002793699
-5.0449225e-05
-0.00029276488
-4.5191985e-05
-0.00030786151
-3.7907187e-05
-0.00032496935
-2.8064886e-05
-0.00034448725
-1.4960624e-05
-0.00036693344
-0.00039300071
2.3569574e-06
1.7330269e-05
-0.00041068263
3.0455618e-05
-0.00038010429
4.031767e-05
-0.00035435038
4.7618099e-05
-0.0003322688
5.2885523e-05
-0.00031313127
5.6524995e-05
-0.00029640852
5.8850326e-05
-0.00028169945
6.0107261e-05
-0.00026869154
6.0490165e-05
-0.00025713741
6.015412e-05
-0.00024683756
5.922342e-05
-0.00023762966
5.7798545e-05
-0.0002293774
5.5961721e-05
-0.00022197112
5.3780597e-05
-0.00021531867
5.1311136e-05
-0.00020934222
4.8599563e-05
-0.00020397635
4.5684552e-05
-0.00019916515
4.2598358e-05
-0.00019486107
3.9368199e-05
-0.00019102328
3.6017e-05
-0.00018761677
3.25643e-05
-0.00018461174
2.902691e-05
-0.00018198285
2.541929e-05
-0.00017970881
2.1754187e-05
-0.00017777162
1.8042643e-05
-0.00017615633
1.4294725e-05
-0.00017485071
1.051934e-05
-0.00017384502
6.724876e-06
-0.00017313183
2.9191214e-06
-0.00017270596
-8.9035428e-07
-0.0001725643
-4.6960765e-06
-0.00017270579
-8.4905571e-06
-0.00017313141
-1.2265903e-05
-0.00017384422
-1.6013886e-05
-0.00017484935
-1.972545e-05
-0.00017615421
-2.339076e-05
-0.00017776868
-2.6998667e-05
-0.00017970535
-3.0536518e-05
-0.0001819795
-3.3989657e-05
-0.00018460928
-3.7341124e-05
-0.0001876157
-4.0571245e-05
-0.00019102355
-4.3657021e-05
-0.00019486208
-4.657142e-05
-0.00019916616
-4.9282297e-05
-0.00020397702
-5.1751193e-05
-0.00020934271
-5.3931822e-05
-0.00021531923
-5.5768402e-05
-0.00022197141
-5.7193429e-05
-0.00022937693
-5.8124703e-05
-0.00023762851
-5.8461311e-05
-0.00024683619
-5.8078829e-05
-0.0002571354
-5.6822427e-05
-0.00026868797
-5.4498008e-05
-0.00028169432
-5.0859862e-05
-0.00029640303
-4.5594233e-05
-0.00031312713
-3.8295757e-05
-0.00033226783
-2.8433063e-05
-0.00035434994
-1.5299648e-05
-0.00038006685
-0.00041035868
2.0583299e-06
1.7370893e-05
-0.00042805352
3.0525146e-05
-0.00039325854
4.040795e-05
-0.00036423317
4.772198e-05
-0.00033958281
5.2997585e-05
-0.00031840687
5.664102e-05
-0.00030005191
5.8966994e-05
-0.00028402544
6.0221942e-05
-0.00026994645
6.0600706e-05
-0.00025751619
6.0258945e-05
-0.00024649578
5.9320935e-05
-0.00023669167
5.7887539e-05
-0.000227944
5.6041193e-05
-0.00022012479
5.3849854e-05
-0.00021312735
5.1369486e-05
-0.00020686185
4.8646421e-05
-0.00020125331
4.5719424e-05
-0.00019623814
4.2620833e-05
-0.00019176251
3.9377941e-05
-0.00018778038
3.6013689e-05
-0.00018425253
3.2547755e-05
-0.00018114578
2.8996941e-05
-0.00017843204
2.5375829e-05
-0.00017608768
2.1697088e-05
-0.00017409286
1.7971878e-05
-0.00017243112
1.4210168e-05
-0.00017108899
1.0420975e-05
-0.00017005582
6.6126343e-06
-0.00016932348
2.7929937e-06
-0.00016888631
-1.030379e-06
-0.00016874092
-4.8499857e-06
-0.00016888617
-8.6582652e-06
-0.00016932313
-1.2447369e-05
-0.00017005511
-1.6208987e-05
-0.00017108772
-1.9934127e-05
-0.00017242906
-2.3612882e-05
-0.00017408992
-2.723416e-05
-0.00017608407
-3.0785256e-05
-0.0001784284
-3.4251521e-05
-0.00018114301
-3.7615936e-05
-0.00018425129
-4.0858721e-05
-0.00018778076
-4.3956823e-05
-0.00019176398
-4.6883102e-05
-0.00019623988
-4.9605409e-05
-0.00020125472
-5.2085212e-05
-0.0002068629
-5.4276137e-05
-0.00021312831
-5.6122189e-05
-0.00022012535
-5.7555656e-05
-0.00022794346
-5.8494063e-05
-0.0002366901
-5.8836232e-05
-0.00024649402
-5.8457457e-05
-0.00025751417
-5.7202528e-05
-0.0002699429
-5.4876895e-05
-0.00028401994
-5.1234193e-05
-0.00030004573
-4.5959702e-05
-0.00031840162
-3.8647169e-05
-0.00033958036
-2.876377e-05
-0.00036423333
-1.5601031e-05
-0.00039322959
-0.00042775713
1.7974278e-06
1.7411549e-05
-0.00044546518
3.0595653e-05
-0.00040644278
4.0499416e-05
-0.00037413701
4.7827318e-05
-0.00034691081
5.3111484e-05
-0.0003236911
5.675922e-05
-0.00030369971
5.9086256e-05
-0.00028635252
6.0339563e-05
-0.00027119979
6.0714652e-05
-0.00025789132
6.0367555e-05
-0.00024614869
5.9422612e-05
-0.00023574677
5.7980984e-05
-0.00022650237
5.6125536e-05
-0.00021826939
5.3924481e-05
-0.00021092629
5.1433767e-05
-0.00020437118
4.8699909e-05
-0.00019851947
4.5761648e-05
-0.00019329992
4.265143e-05
-0.00018865232
3.9396488e-05
-0.00018452546
3.6019845e-05
-0.00018087593
3.2541223e-05
-0.00017766718
2.8977456e-05
-0.00017486832
2.5343259e-05
-0.00017245348
2.1651254e-05
-0.0001704009
1.7912752e-05
-0.0001686926
1.4137639e-05
-0.00016731391
1.0335048e-05
-0.00016625321
6.5132628e-06
-0.00016550171
2.680188e-06
-0.00016505323
-1.1566152e-06
-0.00016490412
-4.9896595e-06
-0.00016505313
-8.8113265e-06
-0.00016550145
-1.2613764e-05
-0.00016625268
-1.6388592e-05
-0.00016731289
-2.0126813e-05
-0.00016869085
-2.3818502e-05
-0.00017039824
-2.7452555e-05
-0.00017245002
-3.1016321e-05
-0.00017486465
-3.4495099e-05
-0.00017766424
-3.7871865e-05
-0.00018087455
-4.1126722e-05
-0.0001845259
-4.4236568e-05
-0.00018865416
-4.7174121e-05
-0.00019330232
-4.9907203e-05
-0.00019852166
-5.2397214e-05
-0.00020437288
-5.4597751e-05
-0.00021092779
-5.6452601e-05
-0.00021827049
-5.7893933e-05
-0.00022650214
-5.8838961e-05
-0.00023574506
-5.9186266e-05
-0.00024614673
-5.8810777e-05
-0.00025788965
-5.7556937e-05
-0.00027119675
-5.5229711e-05
-0.00028634716
-5.1582151e-05
-0.0003036933
-4.6298455e-05
-0.0003236853
-3.8971556e-05
-0.00034690727
-2.9067193e-05
-0.00037413769
-1.5874983e-05
-0.00040642182
-0.00044519621
1.5641023e-06
1.7452259e-05
-0.00046291734
3.0666116e-05
-0.00041965655
4.0591196e-05
-0.00038406201
4.7933376e-05
-0.00035425293
5.3226511e-05
-0.00032898416
5.6879081e-05
-0.00030735225
5.9207793e-05
-0.00028868116
6.0460018e-05
-0.00027245199
6.0832075e-05
-0.00025826332
6.0480205e-05
-0.0002457968
5.9528747e-05
-0.00023479526
5.8079212e-05
-0.0002250528
5.6215088e-05
-0.00021640523
5.4004666e-05
-0.00020871583
5.150401e-05
-0.00020187051
4.8759746e-05
-0.00019577516
4.5810678e-05
-0.00019035084
4.26893e-05
-0.00018553091
3.942281e-05
-0.00018125897
3.603435e-05
-0.00017748745
3.2543615e-05
-0.00017417644
2.8967557e-05
-0.00017129227
2.5320849e-05
-0.00016880676
2.1616228e-05
-0.00016669629
1.7864975e-05
-0.00016494133
1.4077058e-05
-0.000163526
1.0261595e-05
-0.00016243773
6.4268987e-06
-0.00016166701
2.5808781e-06
-0.00016120719
-1.2689075e-06
-0.00016105432
-5.114927e-06
-0.0001612071
-8.9495857e-06
-0.00016166679
-1.276497e-05
-0.00016243729
-1.6552692e-05
-0.00016352517
-2.0303679e-05
-0.00016493986
-2.4007985e-05
-0.00016669393
-2.7654493e-05
-0.00016880351
-3.1230551e-05
-0.00017128859
-3.4721454e-05
-0.00017417332
-3.8110089e-05
-0.00017748591
-4.1376544e-05
-0.00018125943
-4.449763e-05
-0.00018553307
-4.7446063e-05
-0.00019035387
-5.0189536e-05
-0.00019577819
-5.2689458e-05
-0.00020187295
-5.489934e-05
-0.00020871791
-5.6762703e-05
-0.00021640712
-5.8211556e-05
-0.00022505329
-5.9162894e-05
-0.00023479371
-5.9514985e-05
-0.00024579464
-5.9142482e-05
-0.00025826215
-5.7889402e-05
-0.00027244984
-5.5560293e-05
-0.00028867626
-5.1907651e-05
-0.00030734595
-4.661458e-05
-0.00032897837
-3.9273161e-05
-0.0003542487
-2.9347852e-05
-0.00038406299
-1.6126254e-05
-0.00041964342
-0.00046267565
1.3531934e-06
1.749302e-05
-0.00048041035
3.0736694e-05
-0.00043290019
4.0683074e-05
-0.00039400839
4.8039555e-05
-0.00036160939
5.3341783e-05
-0.00033428639
5.6999482e-05
-0.00031100994
5.9330084e-05
-0.00029101176
6.0581622e-05
-0.00027370354
6.0951085e-05
-0.00025863277
6.0594981e-05
-0.00024544071
5.9637268e-05
-0.00023383753
5.8180272e-05
-0.00022359582
5.6307979e-05
-0.00021453291
5.4088613e-05
-0.00020649647
5.1578393e-05
-0.00019936026
4.8824045e-05
-0.00019302081
4.5864505e-05
-0.00018739128
4.2732196e-05
-0.00018239858
3.9454421e-05
-0.00017798118
3.6054383e-05
-0.00017408739
3.255187e-05
-0.00017067392
2.8963927e-05
-0.0001677043
2.5305186e-05
-0.00016514802
2.1588455e-05
-0.00016297955
1.7824959e-05
-0.00016117784
1.4024749e-05
-0.00015972578
1.0196905e-05
-0.00015860988
6.3497985e-06
-0.0001578199
2.491336e-06
-0.00015734872
-1.3709039e-06
-0.00015719209
-5.2293815e-06
-0.00015734861
-9.0765113e-06
-0.00015781966
-1.2904348e-05
-0.00015860944
-1.6704499e-05
-0.00015972501
-2.0467831e-05
-0.00016117651
-2.4184362e-05
-0.0001629774
-2.7842937e-05
-0.00016514492
-3.1430915e-05
-0.00016770061
-3.4933597e-05
-0.00017067063
-3.8333809e-05
-0.0001740857
-4.1611602e-05
-0.00017798163
-4.4743725e-05
-0.00018240094
-4.7702839e-05
-0.00018739475
-5.0456499e-05
-0.00019302452
-5.2966034e-05
-0.00019936341
-5.5184979e-05
-0.00020649896
-5.7056419e-05
-0.00021453567
-5.8512309e-05
-0.0002235974
-5.94695e-05
-0.00023383651
-5.9825978e-05
-0.00024543817
-5.9456103e-05
-0.00025863201
-5.8203448e-05
-0.00027370249
-5.5872087e-05
-0.00029100761
-5.2214137e-05
-0.0003110039
-4.6911501e-05
-0.00033428099
-3.9555385e-05
-0.00036160482
-2.9609104e-05
-0.00039400926
-1.6358136e-05
-0.00043289439
-0.00048019527
1.1614961e-06
1.753448e-05
-0.00049794482
3.0807723e-05
-0.00044617343
4.0776327e-05
-0.00040397699
4.8147615e-05
-0.00036898066
5.3459536e-05
-0.00033959831
5.7122949e-05
-0.00031467333
5.9455819e-05
-0.00029334463
6.0706992e-05
-0.0002749547
6.1074256e-05
-0.00025900004
6.0714138e-05
-0.00024508058
5.9750201e-05
-0.0002328736
5.8286116e-05
-0.00022213174
5.6406127e-05
-0.00021265292
5.4178294e-05
-0.00020426865
5.1658894e-05
-0.00019684085
4.8894825e-05
-0.00019025675
4.5925043e-05
-0.00018442148
4.2781975e-05
-0.00017925552
3.9493052e-05
-0.00017469224
3.6081531e-05
-0.00017067587
3.256733e-05
-0.0001671597
2.8967493e-05
-0.00016410445
2.529674e-05
-0.00016147726
2.1567876e-05
-0.00015925067
1.7792171e-05
-0.00015740212
1.3979686e-05
-0.00015591329
1.013952e-05
-0.00015476971
6.280082e-06
-0.00015396046
2.4092777e-06
-0.00015347791
-1.4652822e-06
-0.00015331752
-5.3360724e-06
-0.00015347781
-9.1954819e-06
-0.00015396025
-1.3035575e-05
-0.00015476933
-1.6847941e-05
-0.00015591265
-2.0623421e-05
-0.00015740102
-2.4352001e-05
-0.00015924882
-2.802248e-05
-0.00016147443
-3.162225e-05
-0.00016410084
-3.5136619e-05
-0.00016715625
-3.8548346e-05
-0.00017067397
-4.183744e-05
-0.00017469252
-4.4980497e-05
-0.00017925788
-4.7950152e-05
-0.00018442509
-5.0713821e-05
-0.00019026085
-5.323269e-05
-0.00019684453
-5.5460521e-05
-0.00020427113
-5.733979e-05
-0.00021265639
-5.8802414e-05
-0.00022213478
-5.9765174e-05
-0.00023287375
-6.0125752e-05
-0.00024507759
-5.9758191e-05
-0.00025899957
-5.8505589e-05
-0.0002749551
-5.6171467e-05
-0.00029334173
-5.2507689e-05
-0.00031466768
-4.7195018e-05
-0.00033959365
-3.9823389e-05
-0.00036897645
-2.985541e-05
-0.00040397723
-1.6573967e-05
-0.00044617584
-0.00049775638
9.87154e-07
1.7572716e-05
-0.00051551757
3.08755e-05
-0.00045947625
4.086645e-05
-0.00041396795
4.8251933e-05
-0.00037636617
5.3573324e-05
-0.00034491971
5.724275e-05
-0.00031834277
5.9577551e-05
-0.00029567945
6.0828301e-05
-0.00027620545
6.1193747e-05
-0.0002593655
6.0829195e-05
-0.00024471603
5.9858888e-05
-0.0002319033
5.8387973e-05
-0.00022066082
5.6500632e-05
-0.00021076559
5.4264693e-05
-0.00020203271
5.173646e-05
-0.00019431263
4.8962957e-05
-0.00018748325
4.5983157e-05
-0.00018144168
4.2829595e-05
-0.00017610196
3.9529774e-05
-0.00017139242
3.6107061e-05
-0.00016725316
3.2581431e-05
-0.00016363407
2.8969954e-05
-0.00016049298
2.5287396e-05
-0.00015779469
2.1546581e-05
-0.00015550986
1.7758823e-05
-0.00015361436
1.3934198e-05
-0.00015208866
1.0081847e-05
-0.00015091735
6.21018e-06
-0.00015008879
2.3271378e-06
-0.00014959486
-1.5596624e-06
-0.00014943072
-5.4426702e-06
-0.00014959479
-9.3142617e-06
-0.00015008866
-1.3166487e-05
-0.0001509171
-1.6990922e-05
-0.00015208822
-2.0778394e-05
-0.00015361354
-2.4518853e-05
-0.00015550836
-2.8201063e-05
-0.00015779221
-3.1812445e-05
-0.00016048946
-3.5338304e-05
-0.00016363038
-3.8761339e-05
-0.00016725094
-4.2061548e-05
-0.0001713923
-4.5215276e-05
-0.00017610416
-4.8195158e-05
-0.00018144519
-5.0968564e-05
-0.00018748745
-5.3496548e-05
-0.00019431653
-5.5733078e-05
-0.00020203461
-5.7620063e-05
-0.0002107694
-5.9089269e-05
-0.00022066558
-6.005743e-05
-0.00023190557
-6.0422049e-05
-0.00024471298
-6.0056714e-05
-0.00025936489
-5.880411e-05
-0.00027620771
-5.6467116e-05
-0.00029567871
-5.2797381e-05
-0.00031833743
-4.7475255e-05
-0.00034491577
-4.0087953e-05
-0.00037636376
-3.0098852e-05
-0.00041396631
-1.678696e-05
-0.00045948775
-0.00051535902
8.157e-07
1.7609595e-05
-0.00053312713
3.0940278e-05
-0.0004728069
4.0952741e-05
-0.00042398038
4.8349669e-05
-0.00038376307
5.3678912e-05
-0.00035024892
5.7355406e-05
-0.00032201925
5.9691175e-05
-0.00029801519
6.0941983e-05
-0.00027745624
6.1307527e-05
-0.00025973102
6.0938178e-05
-0.00024434666
5.9963477e-05
-0.00023092858
5.8487963e-05
-0.00021918529
5.6595159e-05
-0.00020887276
5.4353169e-05
-0.00019979071
5.181816e-05
-0.0001917776
4.903694e-05
-0.00018470202
4.6049002e-05
-0.00017845373
4.2886885e-05
-0.00017293984
3.9578149e-05
-0.00016808367
3.614626e-05
-0.00016382127
3.2611227e-05
-0.00016009902
2.8990146e-05
-0.00015687189
2.5297803e-05
-0.00015410233
2.1547039e-05
-0.00015175909
1.7749193e-05
-0.0001498165
1.3914334e-05
-0.0001482538
1.0051638e-05
-0.00014705464
6.1695176e-06
-0.00014620667
2.2759467e-06
-0.00014570127
-1.6214256e-06
-0.00014553335
-5.5149763e-06
-0.00014570123
-9.3970469e-06
-0.00014620658
-1.3259679e-05
-0.00014705445
-1.7094444e-05
-0.00014825345
-2.0892157e-05
-0.00014981581
-2.4642746e-05
-0.00015175777
-2.8334967e-05
-0.00015409997
-3.1956214e-05
-0.00015686822
-3.5491657e-05
-0.00016009492
-3.8924151e-05
-0.00016381845
-4.2233679e-05
-0.00016808276
-4.5396326e-05
-0.00017294152
-4.8384434e-05
-0.00017845707
-5.1165626e-05
-0.00018470627
-5.3701553e-05
-0.00019178059
-5.5944816e-05
-0.00019979135
-5.7838008e-05
-0.00020887619
-5.9312209e-05
-0.00021919138
-6.0284218e-05
-0.00023093355
-6.0651759e-05
-0.00024434544
-6.0287677e-05
-0.00025972895
-5.9034207e-05
-0.00027746119
-5.669409e-05
-0.00029801881
-5.3017981e-05
-0.00032201355
-4.7689458e-05
-0.00035024427
-4.0287476e-05
-0.00038376576
-3.0282036e-05
-0.00042397173
-1.6943303e-05
-0.00047282649
-0.00053299808
6.9577891e-07
1.7651881e-05
-0.000550779
3.1002405e-05
-0.00048615741
4.1041683e-05
-0.00043401965
4.8444521e-05
-0.0003911659
5.3780319e-05
-0.00035558471
5.7466961e-05
-0.00032570588
5.9797781e-05
-0.00030034599
6.1045995e-05
-0.00027870444
6.1413221e-05
-0.00026009822
6.1037274e-05
-0.0002439707
6.005997e-05
-0.00022995125
5.8581256e-05
-0.00021770656
5.6682287e-05
-0.00020697377
5.4434573e-05
-0.00019754297
5.1893193e-05
-0.0001892362
4.910352e-05
-0.00018191232
4.6107265e-05
-0.00017545746
4.2936665e-05
-0.00016976921
3.9619244e-05
-0.00016476623
3.6178461e-05
-0.00016038046
3.2634348e-05
-0.00015655489
2.9004026e-05
-0.00015324155
2.5302298e-05
-0.00015040058
2.1542047e-05
-0.00014799882
1.7734622e-05
-0.00014600905
1.3890141e-05
-0.0001444093
1.0017769e-05
-0.00014318224
6.1259608e-06
-0.00014231484
2.2226732e-06
-0.00014179796
-1.6843893e-06
-0.00014162626
-5.5876166e-06
-0.00014179798
-9.4793536e-06
-0.00014231483
-1.3351614e-05
-0.00014318217
-1.7195957e-05
-0.00014440909
-2.1003239e-05
-0.00014600851
-2.4763359e-05
-0.00014799763
-2.8465273e-05
-0.00015039804
-3.2096044e-05
-0.00015323743
-3.564e-05
-0.00015655095
-3.9081388e-05
-0.00016037704
-4.2399261e-05
-0.00016476487
-4.5570784e-05
-0.00016976998
-4.8565893e-05
-0.00017546194
-5.1353691e-05
-0.00018191845
-5.3898358e-05
-0.00018923591
-5.6146232e-05
-0.00019754346
-5.8044758e-05
-0.00020697765
-5.9522062e-05
-0.00021771407
-6.0495399e-05
-0.0002299602
-6.0864144e-05
-0.00024397669
-6.0498815e-05
-0.00026009427
-5.9240806e-05
-0.00027871919
-5.6894518e-05
-0.00030036508
-5.3206572e-05
-0.00032570149
-4.787429e-05
-0.00035557654
-4.045056e-05
-0.00039118949
-3.0431254e-05
-0.00043399103
-1.7055352e-05
-0.00048620239
-0.00055068567
6.3224535e-07
1.7714456e-05
-0.00056849345
3.1123953e-05
-0.00049956691
4.1200621e-05
-0.00044409631
4.8632431e-05
-0.00039859771
5.3998553e-05
-0.00036095083
5.769036e-05
-0.00032939768
6.0025633e-05
-0.00030268126
6.1285778e-05
-0.00027996458
6.1645401e-05
-0.00026045784
6.1262377e-05
-0.00024358768
6.0269892e-05
-0.00022895877
5.8772162e-05
-0.00021620883
5.6858874e-05
-0.00020506048
5.4594244e-05
-0.00019527834
5.2030527e-05
-0.00018667248
4.9221333e-05
-0.00017910313
4.6202936e-05
-0.00017243905
4.3008917e-05
-0.00016657519
3.9667592e-05
-0.0001614249
3.6202661e-05
-0.00015691553
3.2634216e-05
-0.00015298644
2.8979495e-05
-0.00014958683
2.525336e-05
-0.00014667444
2.1468745e-05
-0.0001442142
1.7637055e-05
-0.00014217735
1.3768447e-05
-0.00014054069
9.8721394e-06
-0.00013928593
5.956614e-06
-0.00013839931
2.0298823e-06
-0.00013787122
-1.9004909e-06
-0.00013769589
-5.8271702e-06
-0.00013787129
-9.7426183e-06
-0.00013839938
-1.3638779e-05
-0.000139286
-1.7507152e-05
-0.00014054072
-2.1338398e-05
-0.00014217725
-2.5122283e-05
-0.00014421376
-2.8847101e-05
-0.00014667321
-3.2500303e-05
-0.00014958423
-3.6068315e-05
-0.00015298293
-3.9532216e-05
-0.00015691315
-4.287328e-05
-0.0001614238
-4.6067193e-05
-0.00016657607
-4.908441e-05
-0.00017244472
-5.1891515e-05
-0.00017911136
-5.4450061e-05
-0.00018667735
-5.6718426e-05
-0.0001952751
-5.8634044e-05
-0.00020506202
-6.0128051e-05
-0.00021622007
-6.1118336e-05
-0.0002289699
-6.1496188e-05
-0.00024359884
-6.1142744e-05
-0.0002604477
-5.9888644e-05
-0.00027997329
-5.7546387e-05
-0.00030270733
-5.3847387e-05
-0.0003294005
-4.8494181e-05
-0.00036092973
-4.1043079e-05
-0.0003986406
-3.0978873e-05
-0.00044405522
-1.7554609e-05
-0.00049962667
-0.00056844131
2.0104742e-07
1.7570757e-05
-0.00058606421
3.1057195e-05
-0.00051305335
4.1111631e-05
-0.00045415075
4.8601606e-05
-0.00040608769
5.3953993e-05
-0.00036630322
5.7619112e-05
-0.00033306281
5.9998919e-05
-0.00030506107
6.12583e-05
-0.00028122397
6.1595555e-05
-0.0002607951
6.1218164e-05
-0.00024321029
6.024172e-05
-0.00022798233
5.8764566e-05
-0.00021473168
5.6861902e-05
-0.00020315782
5.4603915e-05
-0.00019302036
5.2058163e-05
-0.00018412673
4.9267757e-05
-0.00017631273
4.6267468e-05
-0.00016943877
4.3090683e-05
-0.00016339842
3.9765666e-05
-0.00015809988
3.6316207e-05
-0.00015346608
3.2762476e-05
-0.00014943271
2.9121758e-05
-0.00014594612
2.5408968e-05
-0.00014296165
2.1637069e-05
-0.00014044232
1.7817508e-05
-0.00013835779
1.3960448e-05
-0.00013668364
1.0075137e-05
-0.00013540061
6.1700544e-06
-0.00013449424
2.2532393e-06
-0.00013395441
-1.6675429e-06
-0.00013377512
-5.5844249e-06
-0.0001339544
-9.4895917e-06
-0.00013449423
-1.3374998e-05
-0.00013540059
-1.7232127e-05
-0.0001366836
-2.1051616e-05
-0.00013835776
-2.4823174e-05
-0.00014044221
-2.8535005e-05
-0.00014296137
-3.2174856e-05
-0.0001459444
-3.5732007e-05
-0.00014942577
-3.9192941e-05
-0.00015345223
-4.2537852e-05
-0.00015807888
-4.5741036e-05
-0.0001633729
-4.8774284e-05
-0.00016941146
-5.1597616e-05
-0.00017628804
-5.4161968e-05
-0.00018411299
-5.6426309e-05
-0.00019301078
-5.8345096e-05
-0.00020314323
-5.9851408e-05
-0.00021471377
-6.0852481e-05
-0.00022796882
-6.1244088e-05
-0.00024320725
-6.0894349e-05
-0.00026079743
-5.9657729e-05
-0.00028120993
-5.7317302e-05
-0.00030504775
-5.3638969e-05
-0.00033307885
-4.8249841e-05
-0.00036631885
-4.0830851e-05
-0.00040605961
-3.0710834e-05
-0.00045417522
-1.7340934e-05
-0.00051299659
-0.00058613289
3.5066427e-07
1.759767e-05
3.1094728e-05
4.1155512e-05
4.865317e-05
5.3998221e-05
5.7670308e-05
6.0055369e-05
6.1304995e-05
6.1645131e-05
6.1269569e-05
6.0299353e-05
5.8828692e-05
5.6925439e-05
5.4667292e-05
5.2124982e-05
4.933418e-05
4.6334907e-05
4.3159558e-05
3.9835877e-05
3.6387465e-05
3.2834554e-05
2.9194363e-05
2.5481854e-05
2.1709987e-05
1.7890238e-05
1.4032773e-05
1.0146871e-05
6.2410049e-06
2.3232342e-06
-1.5986073e-06
-5.5164416e-06
-9.4223626e-06
-1.3308308e-05
-1.7165817e-05
-2.0985616e-05
-2.4757533e-05
-2.8470226e-05
-3.2110917e-05
-3.5666658e-05
-3.9126658e-05
-4.2468945e-05
-4.5669564e-05
-4.8699843e-05
-5.1522017e-05
-5.4088725e-05
-5.6347833e-05
-5.8262765e-05
-5.9763834e-05
-6.0756884e-05
-6.1144886e-05
-6.0784905e-05
-5.9541774e-05
-5.718849e-05
-5.3505783e-05
-4.8108649e-05
-4.0682357e-05
-3.0550591e-05
-1.716196e-05
5.5238784e-07
-7.2475085e-06
-0.00022307041
0.000217149
1.316883e-05
-2.1092558e-06
-0.00022376735
0.00021862904
2.3179839e-06
-0.00022449709
0.0002200698
6.0981709e-06
-0.00022525044
0.0002214702
9.2882977e-06
-0.00022601908
0.0002228289
1.1939417e-05
-0.00022679611
0.00022414494
1.4097454e-05
-0.00022757521
0.00022541712
1.5803902e-05
-0.0002283507
0.0002266442
1.7096397e-05
-0.00022911773
0.00022782519
1.8009219e-05
-0.00022987173
0.00022895887
1.8573785e-05
-0.00023060885
0.00023004424
1.88189e-05
-0.00023132545
0.00023108029
1.87712e-05
-0.00023201839
0.00023206604
1.8455367e-05
-0.00023268484
0.00023300063
1.7894362e-05
-0.00023332208
0.00023388304
1.7109682e-05
-0.00023392787
0.00023471251
1.6121497e-05
-0.00023450013
0.00023548827
1.4948846e-05
-0.00023503704
0.00023620965
1.3609741e-05
-0.00023553687
0.00023687593
1.212131e-05
-0.00023599801
0.00023748641
1.0499889e-05
-0.00023641896
0.00023804035
8.7611415e-06
-0.00023679843
0.00023853715
6.9201436e-06
-0.00023713547
0.00023897643
4.9914874e-06
-0.00023742937
0.000239358
2.989352e-06
-0.00023767964
0.00023968175
9.2759402e-07
-0.00023788563
0.00023994736
-1.1802171e-06
-0.00023804664
0.00024015443
-3.3207135e-06
-0.00023816203
0.00024030251
-5.4806691e-06
-0.00023823131
0.00024039125
-7.6469518e-06
-0.00023825426
0.00024042053
-9.8064741e-06
-0.00023823084
0.00024039035
-1.1946114e-05
-0.0002381612
0.00024030083
-1.4052664e-05
-0.00023804554
0.00024015208
-1.611277e-05
-0.00023788418
0.00023994428
-1.8112867e-05
-0.00023767752
0.00023967761
-2.0039115e-05
-0.00023742609
0.00023935233
-2.1877346e-05
-0.00023713053
0.00023896876
-2.3612992e-05
-0.00023679163
0.00023852727
-2.5231001e-05
-0.00023641041
0.00023802842
-2.6715741e-05
-0.00023598804
0.00023747277
-2.8050891e-05
-0.00023552581
0.00023686096
-2.9219348e-05
-0.00023502513
0.00023619358
-3.0203137e-05
-0.00023448747
0.00023547125
-3.0983291e-05
-0.00023391451
0.00023469466
-3.1539705e-05
-0.00023330808
0.00023386449
-3.185098e-05
-0.00023267032
0.00023298159
-3.1894143e-05
-0.00023200348
0.00023204664
-3.1644509e-05
-0.00023131019
0.00023106054
-3.1075367e-05
-0.00023059307
0.00023002392
-3.0157848e-05
-0.00022985508
0.00022893755
-2.8860573e-05
-0.00022909963
0.00022780234
-2.7149344e-05
-0.00022833062
0.00022661939
-2.4986826e-05
-0.00022755313
0.00022539061
-2.2332085e-05
-0.00022677379
0.00022411904
-1.9140394e-05
-0.0002260034
0.00022281171
-1.5363159e-05
-0.00022526272
0.00022148542
-1.0948094e-05
-0.00022459821
0.00022018309
-5.841988e-06
-0.00022412978
0.00021902362
-0.00022420281
0.00021836082
-5.9599547e-06
-0.00022944576
1.2335289e-05
-4.320694e-07
-0.00022929524
4.3263944e-06
-0.00022925556
8.3846295e-06
-0.00022930868
1.1804391e-05
-0.00022943885
1.4640915e-05
-0.00022963264
1.6943897e-05
-0.0002298782
1.8758214e-05
-0.00023016502
2.0124587e-05
-0.00023048411
2.1080113e-05
-0.00023082727
2.1658791e-05
-0.00023118754
2.1891794e-05
-0.00023155846
2.1807941e-05
-0.00023193455
2.1433948e-05
-0.00023231085
2.0794655e-05
-0.00023268279
1.9913326e-05
-0.00023304654
1.8811785e-05
-0.00023339859
1.7510633e-05
-0.00023373589
1.6029346e-05
-0.00023405559
1.4386442e-05
-0.00023435511
1.2599577e-05
-0.0002346321
1.0685692e-05
-0.00023488454
8.6611058e-06
-0.00023511088
6.5416213e-06
-0.00023530989
4.3425805e-06
-0.0002354806
2.0789522e-06
-0.000235622
-2.3459951e-07
-0.00023573309
-2.583643e-06
-0.00023581298
-4.953904e-06
-0.00023586105
-7.3311815e-06
-0.00023587698
-9.7013063e-06
-0.00023586072
-1.205008e-05
-0.00023581243
-1.4363211e-05
-0.00023573241
-1.6626246e-05
-0.00023562115
-1.8824507e-05
-0.00023547927
-2.0943015e-05
-0.00023530758
-2.2966423e-05
-0.00023510713
-2.4878925e-05
-0.00023487914
-2.6664187e-05
-0.00023462516
-2.8305246e-05
-0.00023434698
-2.978442e-05
-0.00023404665
-3.108319e-05
-0.00023372637
-3.21821e-05
-0.00023338857
-3.3060625e-05
-0.00023303599
-3.3697004e-05
-0.00023267171
-3.4068061e-05
-0.00023229927
-3.4148984e-05
-0.00023192256
-3.391305e-05
-0.00023154612
-3.3331369e-05
-0.00023117476
-3.2372742e-05
-0.00023081371
-3.1003123e-05
-0.00023046925
-2.9185453e-05
-0.0002301483
-2.6879136e-05
-0.00022985946
-2.4039664e-05
-0.00022961326
-2.0618142e-05
-0.00022942493
-1.6561043e-05
-0.00022931977
-1.1810649e-05
-0.00022934857
-6.3072864e-06
-0.0002296331
-0.0002305101
-4.6428641e-06
-0.00023631291
1.1510011e-05
1.3073978e-06
-0.0002352455
6.4252249e-06
-0.00023437339
1.0785478e-05
-0.00023366893
1.4454937e-05
-0.00023310831
1.749335e-05
-0.00023267105
1.995447e-05
-0.00023233931
2.188685e-05
-0.00023209739
2.3334534e-05
-0.00023193179
2.4337659e-05
-0.00023183038
2.4933002e-05
-0.00023178287
2.5154292e-05
-0.00023177973
2.5032708e-05
-0.00023181295
2.4597153e-05
-0.00023187528
2.3874501e-05
-0.00023196013
2.2889923e-05
-0.00023206194
2.1667027e-05
-0.00023217568
2.0228099e-05
-0.00023229694
1.859421e-05
-0.00023242169
1.6785396e-05
-0.00023254628
1.4820769e-05
-0.00023266746
1.2718662e-05
-0.00023278243
1.0496736e-05
-0.00023288895
8.1720867e-06
-0.00023298523