/*--------------------------------*- C++ -*----------------------------------*\
| =========                 |                                                 |
| \\      /  F ield         | OpenFOAM: The Open Source CFD Toolbox           |
|  \\    /   O peration     | Version:  v2006                                 |
|   \\  /    A nd           | Website:  www.openfoam.com                      |
|    \\/     M anipulation  |                                                 |
\*---------------------------------------------------------------------------*/
FoamFile
{
    version     2.0;
    format      ascii;
    class       volScalarField;
    location    "4000";
    object      pMean;
}
// * * * * * * * * * * * * * * * * * * * * * * * * * * * * * * * * * * * * * //

dimensions      [1 -1 -2 0 0 0 0];


internalField   nonuniform List<scalar> 
55713
(
1.0000344
1.0000344
1.0000344
1.0000344
1.0000344
1.0000344
1.0000344
1.0000344
1.0000344
1.0000344
1.0000344
1.0000344
1.0000344
1.0000344
1.0000344
1.0000344
1.0000344
1.0000344
1.0000344
1.0000344
1.0000344
1.0000344
1.0000344
1.0000344
1.0000344
1.0000344
1.0000344
1.0000344
1.0000344
1.0000344
1.0000344
1.0000344
1.0000344
1.0000344
1.0000344
1.0000344
1.0000344
1.0000344
1.0000344
1.0000344
1.0000344
1.0000344
1.0000344
1.0000344
1.0000344
1.0000344
1.0000344
1.0000344
1.0000344
1.0000344
1.0000344
1.0000344
1.0000344
1.0000344
1.0000344
1.0000344
1.0000344
1.0000344
1.0000344
1.0000321
1.0000322
1.0000322
1.0000322
1.0000322
1.0000322
1.0000322
1.0000322
1.0000322
1.0000322
1.0000322
1.0000322
1.0000322
1.0000322
1.0000322
1.0000322
1.0000322
1.0000322
1.0000322
1.0000322
1.0000322
1.0000322
1.0000322
1.0000322
1.0000322
1.0000322
1.0000322
1.0000322
1.0000322
1.0000322
1.0000322
1.0000322
1.0000322
1.0000322
1.0000322
1.0000322
1.0000322
1.0000322
1.0000322
1.0000322
1.0000322
1.0000322
1.0000322
1.0000322
1.0000322
1.0000322
1.0000322
1.0000322
1.0000322
1.0000322
1.0000322
1.0000322
1.0000322
1.0000322
1.0000322
1.0000322
1.0000322
1.0000322
1.0000322
1.0000302
1.0000302
1.0000302
1.0000302
1.0000302
1.0000302
1.0000302
1.0000302
1.0000302
1.0000302
1.0000302
1.0000302
1.0000302
1.0000302
1.0000302
1.0000302
1.0000302
1.0000302
1.0000302
1.0000302
1.0000302
1.0000302
1.0000302
1.0000302
1.0000302
1.0000302
1.0000302
1.0000302
1.0000302
1.0000303
1.0000303
1.0000303
1.0000303
1.0000303
1.0000303
1.0000303
1.0000303
1.0000303
1.0000303
1.0000303
1.0000303
1.0000303
1.0000303
1.0000303
1.0000303
1.0000303
1.0000303
1.0000303
1.0000303
1.0000303
1.0000303
1.0000303
1.0000303
1.0000303
1.0000303
1.0000303
1.0000303
1.0000303
1.0000303
1.0000285
1.0000285
1.0000285
1.0000285
1.0000285
1.0000285
1.0000285
1.0000285
1.0000285
1.0000285
1.0000285
1.0000285
1.0000285
1.0000285
1.0000285
1.0000285
1.0000285
1.0000285
1.0000285
1.0000286
1.0000286
1.0000286
1.0000286
1.0000286
1.0000286
1.0000286
1.0000286
1.0000286
1.0000286
1.0000286
1.0000286
1.0000286
1.0000286
1.0000286
1.0000286
1.0000286
1.0000286
1.0000286
1.0000286
1.0000286
1.0000286
1.0000286
1.0000286
1.0000286
1.0000286
1.0000286
1.0000286
1.0000286
1.0000286
1.0000286
1.0000286
1.0000286
1.0000286
1.0000286
1.0000286
1.0000286
1.0000286
1.0000286
1.0000286
1.000027
1.0000271
1.0000271
1.0000271
1.0000271
1.0000271
1.0000271
1.0000271
1.0000271
1.0000271
1.0000271
1.0000271
1.0000271
1.0000271
1.0000271
1.0000271
1.0000271
1.0000271
1.0000271
1.0000271
1.0000271
1.0000271
1.0000271
1.0000271
1.0000271
1.0000271
1.0000271
1.0000271
1.0000271
1.0000271
1.0000271
1.0000271
1.0000271
1.0000271
1.0000271
1.0000271
1.0000271
1.0000271
1.0000271
1.0000271
1.0000271
1.0000271
1.0000271
1.0000271
1.0000271
1.0000271
1.0000271
1.0000271
1.0000271
1.0000271
1.0000271
1.0000271
1.0000271
1.0000271
1.0000271
1.0000271
1.0000271
1.0000271
1.0000271
1.0000258
1.0000258
1.0000258
1.0000258
1.0000258
1.0000258
1.0000258
1.0000258
1.0000258
1.0000258
1.0000258
1.0000258
1.0000258
1.0000258
1.0000259
1.0000259
1.0000259
1.0000259
1.0000259
1.0000259
1.0000259
1.0000259
1.0000259
1.0000259
1.0000259
1.0000259
1.0000259
1.0000259
1.0000259
1.0000259
1.0000259
1.0000259
1.0000259
1.0000259
1.0000259
1.0000259
1.0000259
1.0000259
1.0000259
1.0000259
1.0000259
1.0000259
1.0000259
1.0000259
1.0000259
1.0000259
1.0000259
1.0000259
1.0000259
1.0000259
1.0000259
1.0000259
1.0000259
1.0000259
1.0000259
1.0000259
1.0000259
1.0000259
1.0000259
1.0000247
1.0000247
1.0000247
1.0000247
1.0000247
1.0000247
1.0000247
1.0000247
1.0000247
1.0000247
1.0000247
1.0000247
1.0000247
1.0000247
1.0000247
1.0000247
1.0000247
1.0000247
1.0000247
1.0000247
1.0000247
1.0000247
1.0000248
1.0000248
1.0000248
1.0000248
1.0000248
1.0000248
1.0000248
1.0000248
1.0000248
1.0000248
1.0000248
1.0000248
1.0000248
1.0000248
1.0000248
1.0000248
1.0000248
1.0000248
1.0000248
1.0000248
1.0000248
1.0000248
1.0000248
1.0000248
1.0000248
1.0000248
1.0000248
1.0000248
1.0000248
1.0000248
1.0000248
1.0000248
1.0000248
1.0000248
1.0000248
1.0000248
1.0000248
1.0000237
1.0000237
1.0000237
1.0000237
1.0000237
1.0000237
1.0000237
1.0000237
1.0000237
1.0000237
1.0000237
1.0000237
1.0000237
1.0000237
1.0000237
1.0000237
1.0000237
1.0000237
1.0000237
1.0000237
1.0000238
1.0000238
1.0000238
1.0000238
1.0000238
1.0000238
1.0000238
1.0000238
1.0000238
1.0000238
1.0000238
1.0000238
1.0000238
1.0000238
1.0000238
1.0000238
1.0000238
1.0000238
1.0000238
1.0000238
1.0000238
1.0000238
1.0000238
1.0000238
1.0000238
1.0000238
1.0000238
1.0000238
1.0000238
1.0000238
1.0000238
1.0000238
1.0000238
1.0000238
1.0000238
1.0000238
1.0000238
1.0000238
1.0000238
1.0000232
1.0000232
1.0000232
1.0000232
1.0000232
1.0000232
1.0000232
1.0000232
1.0000232
1.0000232
1.0000232
1.0000232
1.0000232
1.0000232
1.0000232
1.0000232
1.0000232
1.0000232
1.0000232
1.0000232
1.0000232
1.0000232
1.0000232
1.0000232
1.0000232
1.0000232
1.0000232
1.0000232
1.0000232
1.0000232
1.0000232
1.0000232
1.0000232
1.0000232
1.0000232
1.0000232
1.0000232
1.0000232
1.0000232
1.0000232
1.0000232
1.0000232
1.0000232
1.0000232
1.0000232
1.0000232
1.0000232
1.0000233
1.0000233
1.0000233
1.0000233
1.0000233
1.0000233
1.0000233
1.0000233
1.0000233
1.0000233
1.0000233
1.0000233
1.0000228
1.0000228
1.0000228
1.0000228
1.0000228
1.0000228
1.0000228
1.0000228
1.0000228
1.0000228
1.0000228
1.0000228
1.0000228
1.0000228
1.0000228
1.0000228
1.0000228
1.0000228
1.0000229
1.0000229
1.0000229
1.0000229
1.0000229
1.0000229
1.0000229
1.0000229
1.0000229
1.0000229
1.0000229
1.0000229
1.0000229
1.0000229
1.0000229
1.0000229
1.0000229
1.0000229
1.0000229
1.0000229
1.0000229
1.0000229
1.0000229
1.0000229
1.0000229
1.0000229
1.0000229
1.0000229
1.0000229
1.0000229
1.0000229
1.0000229
1.0000229
1.0000229
1.0000229
1.0000229
1.0000229
1.0000229
1.0000229
1.0000229
1.0000229
1.0000208
1.0000208
1.0000208
1.0000208
1.0000208
1.0000208
1.0000208
1.0000208
1.0000208
1.0000208
1.0000208
1.0000208
1.0000208
1.0000208
1.0000208
1.0000208
1.0000208
1.0000208
1.0000208
1.0000208
1.0000208
1.0000208
1.0000208
1.0000208
1.0000208
1.0000208
1.0000208
1.0000208
1.0000208
1.0000208
1.0000208
1.0000208
1.0000208
1.0000208
1.0000208
1.0000208
1.0000208
1.0000208
1.0000208
1.0000208
1.0000208
1.0000208
1.0000208
1.0000208
1.0000208
1.0000208
1.0000208
1.0000208
1.0000208
1.0000208
1.0000208
1.0000208
1.0000208
1.0000208
1.0000208
1.0000208
1.0000208
1.0000208
1.0000208
1.0000207
1.0000207
1.0000207
1.0000207
1.0000206
1.0000206
1.0000206
1.0000206
1.0000206
1.0000206
1.0000206
1.0000206
1.0000206
1.0000206
1.0000206
1.0000206
1.0000206
1.0000206
1.0000206
1.0000205
1.0000205
1.0000205
1.0000205
1.0000205
1.0000205
1.0000205
1.0000205
1.0000205
1.0000205
1.0000205
1.0000205
1.0000205
1.0000205
1.0000205
1.0000205
1.0000205
1.0000205
1.0000205
1.0000205
1.0000205
1.0000205
1.0000205
1.0000205
1.0000205
1.0000205
1.0000205
1.0000205
1.0000204
1.0000204
1.0000204
1.0000204
1.0000204
1.0000204
1.0000204
1.0000204
1.0000204
1.0000204
1.0000204
1.0000204
1.0000313
1.0000313
1.0000313
1.0000313
1.0000313
1.0000313
1.0000313
1.0000313
1.0000313
1.0000313
1.0000313
1.0000313
1.0000313
1.0000313
1.0000313
1.0000313
1.0000312
1.0000312
1.0000312
1.0000312
1.0000312
1.0000312
1.0000312
1.0000312
1.0000312
1.0000312
1.0000312
1.0000312
1.0000312
1.0000312
1.0000312
1.0000312
1.0000312
1.0000312
1.0000312
1.0000312
1.0000312
1.0000312
1.0000312
1.0000312
1.0000312
1.0000312
1.0000312
1.0000312
1.0000312
1.0000312
1.0000312
1.0000312
1.0000312
1.0000312
1.0000312
1.0000312
1.0000312
1.0000312
1.0000313
1.0000313
1.0000313
1.0000313
1.0000313
1.0000199
1.0000199
1.0000199
1.0000199
1.0000199
1.0000199
1.0000199
1.00002
1.00002
1.00002
1.00002
1.00002
1.00002
1.00002
1.00002
1.00002
1.00002
1.00002
1.00002
1.00002
1.00002
1.00002
1.00002
1.00002
1.00002
1.00002
1.00002
1.00002
1.00002
1.00002
1.00002
1.00002
1.00002
1.00002
1.00002
1.00002
1.00002
1.00002
1.00002
1.00002
1.00002
1.00002
1.00002
1.00002
1.00002
1.00002
1.00002
1.00002
1.00002
1.00002
1.00002
1.00002
1.00002
1.00002
1.00002
1.00002
1.00002
1.00002
1.00002
1.0001314
1.0001315
1.0001315
1.0001316
1.0001316
1.0001317
1.0001317
1.0001317
1.0001318
1.0001318
1.0001319
1.0001319
1.0001319
1.000132
1.000132
1.000132
1.0001321
1.0001321
1.0001321
1.0001322
1.0001322
1.0001322
1.0001323
1.0001323
1.0001323
1.0001324
1.0001324
1.0001324
1.0001324
1.0001325
1.0001325
1.0001325
1.0001325
1.0001325
1.0001326
1.0001326
1.0001326
1.0001326
1.0001326
1.0001326
1.0001327
1.0001327
1.0001327
1.0001327
1.0001327
1.0001327
1.0001327
1.0001327
1.0001327
1.0001328
1.0001328
1.0001328
1.0001328
1.0001328
1.0001328
1.0001328
1.0001328
1.0001328
1.0001328
1.0001204
1.0001204
1.0001205
1.0001205
1.0001205
1.0001206
1.0001206
1.0001206
1.0001207
1.0001207
1.0001207
1.0001208
1.0001208
1.0001208
1.0001209
1.0001209
1.0001209
1.0001209
1.000121
1.000121
1.000121
1.000121
1.0001211
1.0001211
1.0001211
1.0001211
1.0001212
1.0001212
1.0001212
1.0001212
1.0001212
1.0001213
1.0001213
1.0001213
1.0001213
1.0001213
1.0001213
1.0001214
1.0001214
1.0001214
1.0001214
1.0001214
1.0001214
1.0001214
1.0001214
1.0001215
1.0001215
1.0001215
1.0001215
1.0001215
1.0001215
1.0001215
1.0001215
1.0001215
1.0001215
1.0001215
1.0001215
1.0001215
1.0001215
1.0001101
1.0001101
1.0001102
1.0001102
1.0001102
1.0001102
1.0001103
1.0001103
1.0001103
1.0001104
1.0001104
1.0001104
1.0001104
1.0001105
1.0001105
1.0001105
1.0001105
1.0001105
1.0001106
1.0001106
1.0001106
1.0001106
1.0001107
1.0001107
1.0001107
1.0001107
1.0001107
1.0001107
1.0001108
1.0001108
1.0001108
1.0001108
1.0001108
1.0001108
1.0001108
1.0001109
1.0001109
1.0001109
1.0001109
1.0001109
1.0001109
1.0001109
1.0001109
1.0001109
1.000111
1.000111
1.000111
1.000111
1.000111
1.000111
1.000111
1.000111
1.000111
1.000111
1.000111
1.000111
1.000111
1.000111
1.000111
1.0001005
1.0001005
1.0001005
1.0001005
1.0001006
1.0001006
1.0001006
1.0001006
1.0001007
1.0001007
1.0001007
1.0001007
1.0001007
1.0001008
1.0001008
1.0001008
1.0001008
1.0001008
1.0001009
1.0001009
1.0001009
1.0001009
1.0001009
1.0001009
1.000101
1.000101
1.000101
1.000101
1.000101
1.000101
1.000101
1.000101
1.0001011
1.0001011
1.0001011
1.0001011
1.0001011
1.0001011
1.0001011
1.0001011
1.0001011
1.0001011
1.0001011
1.0001012
1.0001012
1.0001012
1.0001012
1.0001012
1.0001012
1.0001012
1.0001012
1.0001012
1.0001012
1.0001012
1.0001012
1.0001012
1.0001012
1.0001012
1.0001012
1.0000915
1.0000915
1.0000916
1.0000916
1.0000916
1.0000916
1.0000916
1.0000917
1.0000917
1.0000917
1.0000917
1.0000917
1.0000917
1.0000918
1.0000918
1.0000918
1.0000918
1.0000918
1.0000918
1.0000919
1.0000919
1.0000919
1.0000919
1.0000919
1.0000919
1.0000919
1.0000919
1.000092
1.000092
1.000092
1.000092
1.000092
1.000092
1.000092
1.000092
1.000092
1.000092
1.000092
1.000092
1.0000921
1.0000921
1.0000921
1.0000921
1.0000921
1.0000921
1.0000921
1.0000921
1.0000921
1.0000921
1.0000921
1.0000921
1.0000921
1.0000921
1.0000921
1.0000921
1.0000921
1.0000921
1.0000921
1.0000921
1.0000832
1.0000832
1.0000833
1.0000833
1.0000833
1.0000833
1.0000833
1.0000833
1.0000834
1.0000834
1.0000834
1.0000834
1.0000834
1.0000834
1.0000834
1.0000834
1.0000835
1.0000835
1.0000835
1.0000835
1.0000835
1.0000835
1.0000835
1.0000835
1.0000835
1.0000835
1.0000836
1.0000836
1.0000836
1.0000836
1.0000836
1.0000836
1.0000836
1.0000836
1.0000836
1.0000836
1.0000836
1.0000836
1.0000836
1.0000836
1.0000837
1.0000837
1.0000837
1.0000837
1.0000837
1.0000837
1.0000837
1.0000837
1.0000837
1.0000837
1.0000837
1.0000837
1.0000837
1.0000837
1.0000837
1.0000837
1.0000837
1.0000837
1.0000837
1.0000755
1.0000756
1.0000756
1.0000756
1.0000756
1.0000756
1.0000756
1.0000756
1.0000757
1.0000757
1.0000757
1.0000757
1.0000757
1.0000757
1.0000757
1.0000757
1.0000757
1.0000757
1.0000758
1.0000758
1.0000758
1.0000758
1.0000758
1.0000758
1.0000758
1.0000758
1.0000758
1.0000758
1.0000758
1.0000758
1.0000758
1.0000759
1.0000759
1.0000759
1.0000759
1.0000759
1.0000759
1.0000759
1.0000759
1.0000759
1.0000759
1.0000759
1.0000759
1.0000759
1.0000759
1.0000759
1.0000759
1.0000759
1.0000759
1.0000759
1.0000759
1.0000759
1.0000759
1.0000759
1.0000759
1.0000759
1.0000759
1.0000759
1.0000759
1.0000685
1.0000685
1.0000685
1.0000685
1.0000685
1.0000685
1.0000685
1.0000686
1.0000686
1.0000686
1.0000686
1.0000686
1.0000686
1.0000686
1.0000686
1.0000686
1.0000686
1.0000686
1.0000686
1.0000687
1.0000687
1.0000687
1.0000687
1.0000687
1.0000687
1.0000687
1.0000687
1.0000687
1.0000687
1.0000687
1.0000687
1.0000687
1.0000687
1.0000687
1.0000687
1.0000687
1.0000687
1.0000687
1.0000687
1.0000688
1.0000688
1.0000688
1.0000688
1.0000688
1.0000688
1.0000688
1.0000688
1.0000688
1.0000688
1.0000688
1.0000688
1.0000688
1.0000688
1.0000688
1.0000688
1.0000688
1.0000688
1.0000688
1.0000688
1.000062
1.000062
1.000062
1.000062
1.000062
1.000062
1.000062
1.000062
1.0000621
1.0000621
1.0000621
1.0000621
1.0000621
1.0000621
1.0000621
1.0000621
1.0000621
1.0000621
1.0000621
1.0000621
1.0000621
1.0000621
1.0000621
1.0000621
1.0000621
1.0000621
1.0000622
1.0000622
1.0000622
1.0000622
1.0000622
1.0000622
1.0000622
1.0000622
1.0000622
1.0000622
1.0000622
1.0000622
1.0000622
1.0000622
1.0000622
1.0000622
1.0000622
1.0000622
1.0000622
1.0000622
1.0000622
1.0000622
1.0000622
1.0000622
1.0000622
1.0000622
1.0000622
1.0000622
1.0000622
1.0000622
1.0000622
1.0000622
1.0000622
1.000056
1.000056
1.0000561
1.0000561
1.0000561
1.0000561
1.0000561
1.0000561
1.0000561
1.0000561
1.0000561
1.0000561
1.0000561
1.0000561
1.0000561
1.0000561
1.0000561
1.0000561
1.0000561
1.0000561
1.0000562
1.0000562
1.0000562
1.0000562
1.0000562
1.0000562
1.0000562
1.0000562
1.0000562
1.0000562
1.0000562
1.0000562
1.0000562
1.0000562
1.0000562
1.0000562
1.0000562
1.0000562
1.0000562
1.0000562
1.0000562
1.0000562
1.0000562
1.0000562
1.0000562
1.0000562
1.0000562
1.0000562
1.0000562
1.0000562
1.0000562
1.0000562
1.0000562
1.0000562
1.0000562
1.0000562
1.0000562
1.0000562
1.0000562
1.0000506
1.0000506
1.0000506
1.0000506
1.0000506
1.0000507
1.0000507
1.0000507
1.0000507
1.0000507
1.0000507
1.0000507
1.0000507
1.0000507
1.0000507
1.0000507
1.0000507
1.0000507
1.0000507
1.0000507
1.0000507
1.0000507
1.0000507
1.0000507
1.0000507
1.0000507
1.0000507
1.0000507
1.0000507
1.0000507
1.0000507
1.0000507
1.0000507
1.0000507
1.0000507
1.0000508
1.0000508
1.0000508
1.0000508
1.0000508
1.0000508
1.0000508
1.0000508
1.0000508
1.0000508
1.0000508
1.0000508
1.0000508
1.0000508
1.0000508
1.0000508
1.0000508
1.0000508
1.0000508
1.0000508
1.0000508
1.0000508
1.0000508
1.0000508
1.0000457
1.0000457
1.0000457
1.0000457
1.0000457
1.0000457
1.0000457
1.0000457
1.0000457
1.0000457
1.0000457
1.0000457
1.0000457
1.0000457
1.0000457
1.0000457
1.0000458
1.0000458
1.0000458
1.0000458
1.0000458
1.0000458
1.0000458
1.0000458
1.0000458
1.0000458
1.0000458
1.0000458
1.0000458
1.0000458
1.0000458
1.0000458
1.0000458
1.0000458
1.0000458
1.0000458
1.0000458
1.0000458
1.0000458
1.0000458
1.0000458
1.0000458
1.0000458
1.0000458
1.0000458
1.0000458
1.0000458
1.0000458
1.0000458
1.0000458
1.0000458
1.0000458
1.0000458
1.0000458
1.0000458
1.0000458
1.0000458
1.0000458
1.0000458
1.0000412
1.0000412
1.0000412
1.0000412
1.0000412
1.0000412
1.0000412
1.0000413
1.0000413
1.0000413
1.0000413
1.0000413
1.0000413
1.0000413
1.0000413
1.0000413
1.0000413
1.0000413
1.0000413
1.0000413
1.0000413
1.0000413
1.0000413
1.0000413
1.0000413
1.0000413
1.0000413
1.0000413
1.0000413
1.0000413
1.0000413
1.0000413
1.0000413
1.0000413
1.0000413
1.0000413
1.0000413
1.0000413
1.0000413
1.0000413
1.0000413
1.0000413
1.0000413
1.0000413
1.0000413
1.0000413
1.0000413
1.0000413
1.0000413
1.0000413
1.0000413
1.0000413
1.0000413
1.0000413
1.0000413
1.0000413
1.0000413
1.0000413
1.0000413
1.0000373
1.0000373
1.0000373
1.0000373
1.0000373
1.0000373
1.0000373
1.0000373
1.0000374
1.0000374
1.0000374
1.0000374
1.0000374
1.0000374
1.0000374
1.0000374
1.0000374
1.0000374
1.0000374
1.0000374
1.0000374
1.0000374
1.0000374
1.0000374
1.0000374
1.0000374
1.0000374
1.0000374
1.0000374
1.0000374
1.0000374
1.0000374
1.0000374
1.0000374
1.0000374
1.0000374
1.0000374
1.0000374
1.0000374
1.0000374
1.0000374
1.0000374
1.0000374
1.0000374
1.0000374
1.0000374
1.0000374
1.0000374
1.0000374
1.0000374
1.0000374
1.0000374
1.0000374
1.0000374
1.0000374
1.0000374
1.0000374
1.0000374
1.0000374
1.0001461
1.0001624
1.0001806
1.0002006
1.0002224
1.0002462
1.0002721
1.0003003
1.0003308
1.0003637
1.0003992
1.0004372
1.0004778
1.000521
1.0005666
1.0006146
1.0006645
1.0007162
1.0007692
1.0008228
1.0008763
1.0009288
1.0009794
1.0010271
1.0010705
1.0011084
1.0011396
1.001163
1.0011775
1.0011824
1.001177
1.001161
1.0011346
1.0010979
1.0010515
1.0009965
1.0009337
1.0008644
1.0007898
1.0007109
1.0006289
1.000545
1.0004601
1.0003752
1.0002908
1.0002079
1.0001268
1.0000481
0.99997195
0.9998986
0.99982829
0.99976112
0.99969713
0.99963637
0.99957882
0.99952439
0.99947307
0.99942478
0.9993794
0.99933679
0.99929682
0.99925937
0.99922432
0.99919154
0.9991609
0.99913227
0.99910554
0.9990806
0.99905732
0.9990356
0.99901536
0.99899647
0.99897889
0.99896245
1.0001461
1.0001624
1.0001806
1.0002006
1.0002224
1.0002462
1.0002721
1.0003003
1.0003308
1.0003637
1.0003992
1.0004372
1.0004778
1.000521
1.0005666
1.0006146
1.0006645
1.0007162
1.0007692
1.0008228
1.0008763
1.0009288
1.0009795
1.0010271
1.0010705
1.0011084
1.0011396
1.001163
1.0011775
1.0011824
1.001177
1.001161
1.0011346
1.0010979
1.0010515
1.0009965
1.0009337
1.0008644
1.0007897
1.0007109
1.0006289
1.000545
1.0004601
1.0003751
1.0002908
1.0002078
1.0001268
1.0000481
0.99997194
0.99989858
0.99982827
0.9997611
0.99969711
0.99963635
0.99957879
0.99952437
0.99947305
0.99942477
0.99937939
0.99933677
0.99929681
0.99925936
0.9992243
0.99919152
0.99916088
0.99913225
0.99910552
0.99908057
0.99905729
0.99903558
0.99901534
0.99899645
0.99897887
0.99896243
1.0001461
1.0001624
1.0001806
1.0002006
1.0002224
1.0002462
1.0002721
1.0003003
1.0003308
1.0003637
1.0003992
1.0004372
1.0004778
1.000521
1.0005666
1.0006145
1.0006645
1.0007162
1.0007692
1.0008228
1.0008763
1.0009288
1.0009795
1.0010271
1.0010705
1.0011084
1.0011397
1.001163
1.0011776
1.0011825
1.0011771
1.0011611
1.0011346
1.0010979
1.0010516
1.0009965
1.0009338
1.0008644
1.0007898
1.0007109
1.0006289
1.000545
1.0004601
1.0003752
1.0002908
1.0002079
1.0001268
1.0000481
0.99997193
0.99989857
0.99982826
0.99976109
0.9996971
0.99963635
0.99957879
0.99952436
0.99947303
0.99942475
0.99937938
0.99933678
0.99929682
0.99925938
0.99922433
0.99919156
0.99916093
0.99913231
0.99910559
0.99908065
0.99905739
0.99903568
0.99901544
0.99899656
0.99897897
0.99896248
1.0001461
1.0001624
1.0001806
1.0002006
1.0002224
1.0002462
1.0002721
1.0003003
1.0003308
1.0003637
1.0003992
1.0004372
1.0004778
1.000521
1.0005666
1.0006145
1.0006645
1.0007162
1.0007692
1.0008228
1.0008763
1.0009288
1.0009795
1.0010271
1.0010705
1.0011084
1.0011397
1.0011631
1.0011776
1.0011825
1.0011771
1.0011611
1.0011346
1.0010979
1.0010516
1.0009966
1.0009338
1.0008645
1.0007899
1.000711
1.000629
1.0005451
1.0004602
1.0003752
1.0002909
1.0002079
1.0001269
1.0000482
0.99997199
0.99989864
0.99982832
0.99976114
0.99969716
0.9996364
0.99957884
0.99952443
0.99947311
0.99942483
0.99937945
0.99933683
0.99929686
0.99925941
0.99922436
0.99919157
0.99916093
0.99913231
0.99910559
0.99908065
0.99905738
0.99903567
0.99901544
0.99899657
0.998979
0.99896259
1.0001461
1.0001624
1.0001806
1.0002006
1.0002224
1.0002462
1.0002721
1.0003002
1.0003307
1.0003637
1.0003991
1.0004372
1.0004778
1.000521
1.0005666
1.0006145
1.0006645
1.0007162
1.0007692
1.0008227
1.0008763
1.0009288
1.0009795
1.0010271
1.0010705
1.0011084
1.0011397
1.0011631
1.0011776
1.0011826
1.0011772
1.0011612
1.0011347
1.0010981
1.0010518
1.0009967
1.000934
1.0008647
1.00079
1.0007111
1.0006292
1.0005452
1.0004604
1.0003754
1.000291
1.0002081
1.000127
1.0000483
0.99997211
0.99989875
0.99982843
0.99976125
0.99969727
0.99963651
0.99957895
0.99952454
0.99947323
0.99942494
0.99937955
0.99933694
0.99929697
0.99925953
0.99922448
0.9991917
0.99916108
0.99913246
0.99910575
0.99908082
0.99905756
0.99903586
0.99901563
0.99899676
0.99897916
0.99896274
1.0001461
1.0001624
1.0001806
1.0002006
1.0002224
1.0002462
1.0002721
1.0003002
1.0003307
1.0003637
1.0003991
1.0004372
1.0004778
1.0005209
1.0005666
1.0006145
1.0006645
1.0007162
1.0007692
1.0008227
1.0008762
1.0009288
1.0009795
1.0010271
1.0010705
1.0011084
1.0011397
1.0011631
1.0011777
1.0011826
1.0011773
1.0011613
1.0011349
1.0010982
1.0010519
1.0009969
1.0009342
1.0008649
1.0007902
1.0007113
1.0006294
1.0005455
1.0004606
1.0003756
1.0002913
1.0002083
1.0001273
1.0000485
0.9999723
0.99989894
0.99982862
0.99976144
0.99969745
0.9996367
0.99957914
0.99952474
0.99947343
0.99942514
0.99937975
0.99933713
0.99929716
0.99925971
0.99922466
0.99919188
0.99916124
0.99913262
0.99910591
0.99908097
0.99905771
0.99903601
0.99901577
0.9989969
0.99897931
0.99896289
1.0001461
1.0001624
1.0001806
1.0002006
1.0002224
1.0002462
1.0002721
1.0003002
1.0003307
1.0003637
1.0003991
1.0004371
1.0004778
1.0005209
1.0005666
1.0006145
1.0006645
1.0007162
1.0007691
1.0008227
1.0008762
1.0009288
1.0009794
1.0010271
1.0010705
1.0011085
1.0011398
1.0011632
1.0011778
1.0011828
1.0011774
1.0011615
1.0011351
1.0010984
1.0010522
1.0009972
1.0009345
1.0008652
1.0007905
1.0007117
1.0006297
1.0005458
1.0004609
1.0003759
1.0002916
1.0002086
1.0001276
1.0000488
0.99997261
0.99989925
0.99982892
0.99976173
0.99969774
0.99963698
0.99957942
0.99952502
0.99947372
0.99942542
0.99938003
0.9993374
0.99929743
0.99925998
0.99922494
0.99919216
0.99916153
0.99913292
0.99910621
0.99908128
0.99905802
0.99903633
0.9990161
0.99899722
0.99897963
0.99896319
1.0001461
1.0001624
1.0001806
1.0002006
1.0002223
1.0002461
1.0002721
1.0003002
1.0003307
1.0003637
1.0003991
1.0004371
1.0004777
1.0005209
1.0005665
1.0006145
1.0006645
1.0007162
1.0007691
1.0008227
1.0008762
1.0009288
1.0009794
1.0010271
1.0010705
1.0011085
1.0011399
1.0011633
1.0011779
1.0011829
1.0011776
1.0011618
1.0011354
1.0010988
1.0010526
1.0009976
1.0009349
1.0008656
1.000791
1.0007121
1.0006302
1.0005463
1.0004614
1.0003764
1.0002921
1.0002091
1.0001281
1.0000493
0.99997306
0.99989969
0.99982936
0.99976217
0.99969818
0.99963741
0.99957985
0.99952545
0.99947415
0.99942585
0.99938045
0.99933782
0.99929785
0.9992604
0.99922535
0.99919257
0.99916193
0.99913332
0.9991066
0.99908166
0.9990584
0.9990367
0.99901646
0.99899758
0.99897998
0.99896354
1.0001461
1.0001624
1.0001806
1.0002006
1.0002223
1.0002461
1.0002721
1.0003002
1.0003307
1.0003636
1.0003991
1.0004371
1.0004777
1.0005209
1.0005665
1.0006144
1.0006644
1.0007161
1.0007691
1.0008227
1.0008762
1.0009288
1.0009794
1.0010271
1.0010706
1.0011086
1.00114
1.0011634
1.0011781
1.0011832
1.0011779
1.0011621
1.0011358
1.0010992
1.0010531
1.0009982
1.0009355
1.0008663
1.0007916
1.0007128
1.0006309
1.000547
1.0004621
1.0003771
1.0002928
1.0002098
1.0001287
1.0000499
0.99997372
0.99990034
0.99983
0.9997628
0.9996988
0.99963803
0.99958047
0.99952607
0.99947476
0.99942645
0.99938104
0.99933841
0.99929843
0.99926098
0.99922593
0.99919314
0.99916251
0.99913389
0.99910718
0.99908225
0.99905899
0.99903729
0.99901705
0.99899816
0.99898056
0.99896411
1.0001461
1.0001624
1.0001806
1.0002005
1.0002223
1.0002461
1.000272
1.0003002
1.0003307
1.0003636
1.0003991
1.0004371
1.0004777
1.0005208
1.0005665
1.0006144
1.0006644
1.0007161
1.000769
1.0008226
1.0008761
1.0009287
1.0009794
1.0010271
1.0010706
1.0011086
1.0011401
1.0011636
1.0011784
1.0011835
1.0011783
1.0011626
1.0011363
1.0010999
1.0010538
1.0009989
1.0009363
1.0008671
1.0007925
1.0007137
1.0006318
1.0005479
1.0004631
1.0003781
1.0002938
1.0002108
1.0001297
1.0000509
0.99997465
0.99990126
0.9998309
0.99976369
0.99969968
0.9996389
0.99958134
0.99952693
0.99947561
0.9994273
0.99938189
0.99933925
0.99929926
0.99926181
0.99922675
0.99919396
0.99916332
0.9991347
0.99910798
0.99908303
0.99905976
0.99903805
0.9990178
0.99899891
0.9989813
0.99896484
1.0001461
1.0001624
1.0001806
1.0002005
1.0002223
1.0002461
1.000272
1.0003002
1.0003307
1.0003636
1.000399
1.000437
1.0004776
1.0005208
1.0005664
1.0006143
1.0006643
1.000716
1.000769
1.0008226
1.0008761
1.0009287
1.0009794
1.0010271
1.0010706
1.0011087
1.0011402
1.0011638
1.0011787
1.0011839
1.0011788
1.0011632
1.0011371
1.0011007
1.0010547
1.0009999
1.0009374
1.0008683
1.0007938
1.000715
1.0006331
1.0005493
1.0004644
1.0003795
1.0002951
1.0002122
1.000131
1.0000522
0.99997594
0.99990254
0.99983216
0.99976493
0.99970091
0.99964012
0.99958254
0.99952812
0.9994768
0.99942848
0.99938305
0.9993404
0.9993004
0.99926294
0.99922787
0.99919508
0.99916443
0.9991358
0.99910907
0.99908413
0.99906085
0.99903914
0.99901888
0.99899998
0.99898236
0.99896589
1.0001461
1.0001623
1.0001806
1.0002005
1.0002223
1.0002461
1.000272
1.0003001
1.0003306
1.0003635
1.000399
1.000437
1.0004776
1.0005207
1.0005664
1.0006143
1.0006643
1.0007159
1.0007689
1.0008225
1.000876
1.0009286
1.0009794
1.0010271
1.0010707
1.0011089
1.0011404
1.0011641
1.0011791
1.0011844
1.0011795
1.001164
1.001138
1.0011018
1.0010559
1.0010013
1.0009389
1.0008699
1.0007954
1.0007167
1.0006349
1.0005511
1.0004662
1.0003813
1.000297
1.000214
1.0001328
1.000054
0.99997771
0.99990428
0.99983389
0.99976664
0.9997026
0.99964179
0.99958419
0.99952976
0.99947842
0.99943008
0.99938464
0.99934198
0.99930197
0.99926449
0.99922941
0.99919661
0.99916595
0.99913731
0.99911057
0.99908561
0.99906233
0.9990406
0.99902033
0.99900142
0.99898378
0.9989673
1.0001461
1.0001623
1.0001805
1.0002005
1.0002223
1.0002461
1.000272
1.0003001
1.0003306
1.0003635
1.0003989
1.0004369
1.0004775
1.0005207
1.0005663
1.0006142
1.0006642
1.0007159
1.0007688
1.0008224
1.0008759
1.0009286
1.0009793
1.0010271
1.0010708
1.001109
1.0011407
1.0011645
1.0011796
1.0011851
1.0011804
1.0011651
1.0011393
1.0011032
1.0010576
1.0010031
1.0009409
1.000872
1.0007976
1.000719
1.0006372
1.0005535
1.0004687
1.0003837
1.0002994
1.0002164
1.0001353
1.0000564
0.9999801
0.99990664
0.99983622
0.99976894
0.99970488
0.99964405
0.99958643
0.99953197
0.99948061
0.99943225
0.99938679
0.9993441
0.99930408
0.99926658
0.99923148
0.99919866
0.99916799
0.99913933
0.99911258
0.99908761
0.9990643
0.99904256
0.99902228
0.99900335
0.99898569
0.9989692
1.0001461
1.0001623
1.0001805
1.0002005
1.0002223
1.000246
1.0002719
1.0003001
1.0003305
1.0003635
1.0003989
1.0004369
1.0004775
1.0005206
1.0005662
1.0006141
1.0006641
1.0007157
1.0007687
1.0008223
1.0008758
1.0009285
1.0009793
1.0010271
1.0010708
1.0011092
1.001141
1.001165
1.0011803
1.001186
1.0011815
1.0011665
1.0011409
1.0011051
1.0010597
1.0010055
1.0009435
1.0008747
1.0008005
1.000722
1.0006404
1.0005567
1.0004719
1.000387
1.0003027
1.0002197
1.0001385
1.0000596
0.99998329
0.9999098
0.99983935
0.99977203
0.99970794
0.99964707
0.99958942
0.99953493
0.99948354
0.99943515
0.99938966
0.99934694
0.99930689
0.99926937
0.99923425
0.99920141
0.99917071
0.99914204
0.99911526
0.99909027
0.99906695
0.99904518
0.99902488
0.99900593
0.99898826
0.99897175
1.0001461
1.0001623
1.0001805
1.0002005
1.0002222
1.000246
1.0002719
1.0003
1.0003305
1.0003634
1.0003988
1.0004368
1.0004774
1.0005205
1.0005661
1.000614
1.0006639
1.0007156
1.0007685
1.0008221
1.0008757
1.0009284
1.0009792
1.0010271
1.0010709
1.0011094
1.0011414
1.0011656
1.0011811
1.0011871
1.0011829
1.0011682
1.001143
1.0011076
1.0010625
1.0010086
1.0009468
1.0008784
1.0008043
1.000726
1.0006445
1.0005609
1.0004762
1.0003913
1.000307
1.000224
1.0001428
1.0000639
0.99998752
0.99991399
0.99984349
0.99977613
0.99971199
0.99965107
0.99959338
0.99953885
0.99948741
0.99943898
0.99939345
0.9993507
0.99931061
0.99927306
0.99923791
0.99920503
0.9991743
0.9991456
0.99911879
0.99909377
0.99907042
0.99904862
0.99902829
0.99900932
0.99899162
0.99897508
1.000146
1.0001623
1.0001805
1.0002004
1.0002222
1.000246
1.0002719
1.0003
1.0003305
1.0003633
1.0003988
1.0004367
1.0004773
1.0005204
1.000566
1.0006138
1.0006638
1.0007154
1.0007684
1.000822
1.0008756
1.0009283
1.0009792
1.0010271
1.0010711
1.0011097
1.0011419
1.0011664
1.0011822
1.0011886
1.0011848
1.0011705
1.0011457
1.0011108
1.0010661
1.0010126
1.0009512
1.000883
1.0008093
1.0007312
1.0006498
1.0005663
1.0004817
1.0003969
1.0003127
1.0002297
1.0001485
1.0000695
0.99999306
0.99991948
0.99984892
0.99978151
0.9997173
0.99965633
0.99959858
0.99954399
0.9994925
0.99944402
0.99939843
0.99935563
0.9993155
0.99927789
0.9992427
0.99920978
0.99917901
0.99915027
0.99912343
0.99909837
0.99907498
0.99905316
0.9990328
0.9990138
0.99899607
0.9989795
1.000146
1.0001623
1.0001805
1.0002004
1.0002222
1.0002459
1.0002718
1.0002999
1.0003304
1.0003633
1.0003987
1.0004366
1.0004772
1.0005203
1.0005658
1.0006137
1.0006636
1.0007152
1.0007682
1.0008218
1.0008754
1.0009281
1.0009791
1.0010272
1.0010712
1.0011101
1.0011425
1.0011673
1.0011835
1.0011904
1.0011871
1.0011734
1.0011492
1.0011148
1.0010707
1.0010177
1.0009568
1.000889
1.0008157
1.0007378
1.0006567
1.0005734
1.0004889
1.0004042
1.00032
1.000237
1.0001558
1.0000767
1.0000003
0.99992662
0.99985599
0.99978851
0.99972423
0.99966318
0.99960534
0.99955068
0.99949912
0.99945056
0.99940491
0.99936204
0.99932184
0.99928417
0.99924891