/*--------------------------------*- C++ -*----------------------------------*\
| =========                 |                                                 |
| \\      /  F ield         | OpenFOAM: The Open Source CFD Toolbox           |
|  \\    /   O peration     | Version:  v2006                                 |
|   \\  /    A nd           | Website:  www.openfoam.com                      |
|    \\/     M anipulation  |                                                 |
\*---------------------------------------------------------------------------*/
FoamFile
{
    version     2.0;
    format      ascii;
    class       volScalarField;
    location    "4000";
    object      rho;
}
// * * * * * * * * * * * * * * * * * * * * * * * * * * * * * * * * * * * * * //

dimensions      [1 -3 0 0 0 0 0];


internalField   nonuniform List<scalar> 
55713
(
1.0000226
1.0000214
1.0000207
1.0000204
1.0000203
1.0000203
1.0000203
1.0000203
1.0000204
1.0000204
1.0000204
1.0000204
1.0000204
1.0000204
1.0000204
1.0000204
1.0000204
1.0000204
1.0000204
1.0000204
1.0000204
1.0000204
1.0000204
1.0000204
1.0000204
1.0000204
1.0000204
1.0000204
1.0000204
1.0000204
1.0000204
1.0000204
1.0000204
1.0000204
1.0000204
1.0000204
1.0000204
1.0000204
1.0000204
1.0000204
1.0000204
1.0000204
1.0000204
1.0000204
1.0000204
1.0000204
1.0000203
1.0000203
1.0000204
1.0000204
1.0000203
1.0000203
1.0000203
1.0000203
1.0000203
1.0000203
1.0000203
1.0000203
1.0000203
1.0000209
1.0000198
1.0000192
1.0000189
1.0000189
1.0000189
1.0000189
1.0000189
1.0000189
1.0000189
1.0000189
1.0000189
1.0000189
1.0000189
1.0000189
1.0000189
1.0000189
1.0000189
1.0000189
1.0000189
1.000019
1.000019
1.000019
1.000019
1.000019
1.000019
1.000019
1.000019
1.000019
1.000019
1.000019
1.000019
1.000019
1.000019
1.000019
1.000019
1.000019
1.000019
1.000019
1.0000189
1.0000189
1.0000189
1.0000189
1.0000189
1.0000189
1.0000189
1.0000189
1.0000189
1.0000189
1.0000189
1.0000189
1.0000189
1.0000189
1.0000189
1.0000189
1.0000189
1.0000189
1.0000189
1.0000189
1.0000195
1.0000184
1.0000178
1.0000176
1.0000176
1.0000176
1.0000176
1.0000177
1.0000177
1.0000177
1.0000177
1.0000177
1.0000177
1.0000177
1.0000177
1.0000177
1.0000177
1.0000177
1.0000177
1.0000177
1.0000177
1.0000177
1.0000177
1.0000177
1.0000177
1.0000177
1.0000177
1.0000177
1.0000177
1.0000177
1.0000177
1.0000177
1.0000177
1.0000177
1.0000177
1.0000177
1.0000177
1.0000177
1.0000177
1.0000177
1.0000177
1.0000177
1.0000177
1.0000177
1.0000177
1.0000177
1.0000177
1.0000177
1.0000177
1.0000177
1.0000177
1.0000177
1.0000177
1.0000177
1.0000177
1.0000177
1.0000177
1.0000177
1.0000177
1.0000182
1.0000171
1.0000167
1.0000165
1.0000165
1.0000165
1.0000165
1.0000166
1.0000166
1.0000166
1.0000166
1.0000166
1.0000166
1.0000166
1.0000166
1.0000166
1.0000166
1.0000166
1.0000166
1.0000166
1.0000166
1.0000166
1.0000166
1.0000166
1.0000166
1.0000167
1.0000167
1.0000167
1.0000167
1.0000167
1.0000166
1.0000166
1.0000166
1.0000166
1.0000166
1.0000166
1.0000166
1.0000166
1.0000166
1.0000166
1.0000166
1.0000166
1.0000166
1.0000166
1.0000166
1.0000166
1.0000166
1.0000166
1.0000166
1.0000166
1.0000166
1.0000166
1.0000166
1.0000166
1.0000166
1.0000166
1.0000166
1.0000166
1.0000166
1.000017
1.0000161
1.0000157
1.0000156
1.0000156
1.0000156
1.0000156
1.0000156
1.0000156
1.0000156
1.0000156
1.0000156
1.0000157
1.0000157
1.0000157
1.0000157
1.0000157
1.0000157
1.0000157
1.0000157
1.0000157
1.0000157
1.0000157
1.0000157
1.0000157
1.0000157
1.0000157
1.0000157
1.0000157
1.0000157
1.0000157
1.0000157
1.0000157
1.0000157
1.0000157
1.0000157
1.0000157
1.0000157
1.0000157
1.0000157
1.0000157
1.0000157
1.0000157
1.0000157
1.0000157
1.0000157
1.0000157
1.0000157
1.0000157
1.0000157
1.0000157
1.0000157
1.0000157
1.0000157
1.0000156
1.0000156
1.0000156
1.0000156
1.0000156
1.0000161
1.0000152
1.0000148
1.0000148
1.0000148
1.0000148
1.0000148
1.0000148
1.0000148
1.0000148
1.0000148
1.0000148
1.0000149
1.0000149
1.0000149
1.0000149
1.0000149
1.0000149
1.0000149
1.0000149
1.0000149
1.0000149
1.0000149
1.0000149
1.0000149
1.0000149
1.0000149
1.0000149
1.0000149
1.0000149
1.0000149
1.0000149
1.0000149
1.0000149
1.0000149
1.0000149
1.0000149
1.0000149
1.0000149
1.0000149
1.0000149
1.0000149
1.0000149
1.0000149
1.0000149
1.0000149
1.0000149
1.0000149
1.0000149
1.0000149
1.0000149
1.0000149
1.0000149
1.0000149
1.0000148
1.0000148
1.0000148
1.0000148
1.0000148
1.0000152
1.0000143
1.0000141
1.000014
1.0000141
1.0000141
1.0000141
1.0000141
1.0000141
1.0000141
1.0000141
1.0000141
1.0000141
1.0000141
1.0000141
1.0000141
1.0000141
1.0000141
1.0000141
1.0000141
1.0000142
1.0000142
1.0000142
1.0000142
1.0000142
1.0000142
1.0000142
1.0000142
1.0000142
1.0000142
1.0000142
1.0000142
1.0000142
1.0000142
1.0000141
1.0000141
1.0000141
1.0000142
1.0000142
1.0000142
1.0000141
1.0000141
1.0000141
1.0000142
1.0000142
1.0000142
1.0000141
1.0000141
1.0000141
1.0000141
1.0000141
1.0000141
1.0000141
1.0000141
1.0000141
1.0000141
1.0000141
1.0000141
1.0000141
1.0000144
1.0000136
1.0000134
1.0000134
1.0000134
1.0000134
1.0000134
1.0000134
1.0000134
1.0000134
1.0000135
1.0000135
1.0000135
1.0000135
1.0000135
1.0000135
1.0000135
1.0000135
1.0000135
1.0000135
1.0000135
1.0000135
1.0000135
1.0000135
1.0000135
1.0000135
1.0000135
1.0000135
1.0000135
1.0000135
1.0000135
1.0000135
1.0000135
1.0000135
1.0000135
1.0000135
1.0000135
1.0000135
1.0000135
1.0000135
1.0000135
1.0000135
1.0000135
1.0000135
1.0000135
1.0000135
1.0000135
1.0000135
1.0000135
1.0000135
1.0000135
1.0000135
1.0000135
1.0000135
1.0000134
1.0000134
1.0000134
1.0000134
1.0000134
1.0000139
1.0000132
1.0000131
1.0000131
1.0000131
1.0000131
1.0000131
1.0000131
1.0000131
1.0000131
1.0000132
1.0000132
1.0000132
1.0000131
1.0000131
1.0000131
1.0000132
1.0000132
1.0000132
1.0000132
1.0000132
1.0000132
1.0000132
1.0000132
1.0000132
1.0000132
1.0000132
1.0000132
1.0000132
1.0000132
1.0000132
1.0000132
1.0000132
1.0000132
1.0000132
1.0000132
1.0000132
1.0000132
1.0000132
1.0000132
1.0000132
1.0000132
1.0000132
1.0000132
1.0000132
1.0000132
1.0000132
1.0000131
1.0000131
1.0000131
1.0000132
1.0000132
1.0000131
1.0000131
1.0000131
1.0000131
1.0000131
1.0000131
1.0000131
1.0000135
1.0000129
1.0000128
1.0000128
1.0000129
1.0000129
1.0000129
1.0000129
1.0000129
1.0000129
1.0000129
1.0000129
1.0000129
1.0000129
1.0000129
1.0000129
1.0000129
1.0000129
1.0000129
1.000013
1.000013
1.000013
1.000013
1.000013
1.000013
1.000013
1.000013
1.000013
1.000013
1.000013
1.000013
1.000013
1.000013
1.000013
1.000013
1.0000129
1.0000129
1.0000129
1.000013
1.000013
1.000013
1.0000129
1.0000129
1.000013
1.000013
1.000013
1.000013
1.0000129
1.0000129
1.0000129
1.0000129
1.000013
1.0000129
1.0000129
1.000013
1.0000129
1.0000129
1.0000129
1.0000129
1.0000119
1.0000113
1.0000113
1.0000113
1.0000114
1.0000114
1.0000114
1.0000113
1.0000114
1.0000114
1.0000115
1.0000114
1.0000114
1.0000114
1.0000114
1.0000114
1.0000114
1.0000115
1.0000115
1.0000115
1.0000115
1.0000115
1.0000115
1.0000115
1.0000115
1.0000115
1.0000115
1.0000115
1.0000115
1.0000115
1.0000115
1.0000115
1.0000115
1.0000115
1.0000115
1.0000115
1.0000114
1.0000115
1.0000115
1.0000115
1.0000115
1.0000115
1.0000115
1.0000114
1.0000115
1.0000115
1.0000115
1.0000114
1.0000114
1.0000114
1.0000114
1.0000114
1.0000114
1.0000114
1.0000114
1.0000114
1.0000113
1.0000114
1.0000114
1.0000119
1.0000111
1.0000114
1.0000112
1.0000113
1.0000114
1.0000112
1.0000112
1.0000113
1.0000114
1.0000114
1.0000114
1.0000113
1.0000113
1.0000113
1.0000114
1.0000114
1.0000114
1.0000114
1.0000114
1.0000114
1.0000114
1.0000114
1.0000114
1.0000114
1.0000114
1.0000114
1.0000114
1.0000114
1.0000114
1.0000114
1.0000114
1.0000114
1.0000114
1.0000113
1.0000113
1.0000113
1.0000113
1.0000113
1.0000113
1.0000113
1.0000113
1.0000113
1.0000113
1.0000113
1.0000113
1.0000113
1.0000112
1.0000112
1.0000112
1.0000113
1.0000112
1.0000113
1.0000111
1.0000111
1.0000112
1.0000109
1.0000112
1.0000112
1.0000194
1.0000189
1.0000193
1.000019
1.0000193
1.0000193
1.000019
1.0000192
1.0000192
1.0000192
1.0000191
1.0000191
1.0000191
1.000019
1.0000191
1.000019
1.0000191
1.0000191
1.0000191
1.0000191
1.0000191
1.0000191
1.0000191
1.0000191
1.0000191
1.0000191
1.0000191
1.0000191
1.0000191
1.0000191
1.0000191
1.0000191
1.0000191
1.0000191
1.0000191
1.0000191
1.000019
1.000019
1.0000191
1.0000191
1.0000191
1.0000191
1.0000191
1.0000191
1.0000191
1.0000192
1.0000191
1.0000191
1.0000191
1.0000191
1.0000191
1.0000191
1.0000192
1.0000191
1.0000191
1.0000193
1.0000189
1.0000192
1.0000192
1.0000109
1.000012
1.0000115
1.000012
1.0000114
1.0000113
1.0000117
1.0000117
1.0000116
1.0000114
1.0000114
1.0000115
1.0000117
1.0000119
1.000012
1.0000121
1.0000121
1.0000121
1.0000121
1.0000121
1.0000121
1.0000121
1.0000121
1.0000121
1.0000121
1.0000121
1.0000121
1.0000121
1.0000121
1.0000121
1.0000121
1.0000121
1.0000121
1.0000121
1.0000121
1.0000121
1.0000121
1.000012
1.0000118
1.0000117
1.0000116
1.0000115
1.0000114
1.0000114
1.0000113
1.0000112
1.0000114
1.0000115
1.0000115
1.0000114
1.0000113
1.0000112
1.0000112
1.0000115
1.0000115
1.0000115
1.000012
1.0000111
1.0000111
1.0000819
1.0000819
1.000082
1.000082
1.000082
1.000082
1.0000821
1.0000821
1.0000821
1.0000821
1.0000822
1.0000822
1.0000822
1.0000822
1.0000823
1.0000823
1.0000823
1.0000823
1.0000824
1.0000824
1.0000824
1.0000824
1.0000824
1.0000825
1.0000825
1.0000825
1.0000825
1.0000825
1.0000826
1.0000826
1.0000826
1.0000826
1.0000826
1.0000826
1.0000826
1.0000826
1.0000826
1.0000827
1.0000827
1.0000827
1.0000827
1.0000827
1.0000827
1.0000827
1.0000827
1.0000827
1.0000827
1.0000827
1.0000827
1.0000827
1.0000827
1.0000828
1.0000829
1.0000831
1.0000836
1.0000845
1.0000862
1.0000892
1.0000933
1.0000749
1.0000749
1.000075
1.000075
1.000075
1.000075
1.000075
1.0000751
1.0000751
1.0000751
1.0000751
1.0000751
1.0000752
1.0000752
1.0000752
1.0000752
1.0000752
1.0000753
1.0000753
1.0000753
1.0000753
1.0000753
1.0000754
1.0000754
1.0000754
1.0000754
1.0000754
1.0000754
1.0000755
1.0000755
1.0000755
1.0000755
1.0000755
1.0000755
1.0000755
1.0000755
1.0000755
1.0000755
1.0000755
1.0000755
1.0000755
1.0000755
1.0000755
1.0000755
1.0000756
1.0000756
1.0000756
1.0000756
1.0000756
1.0000756
1.0000756
1.0000756
1.0000757
1.0000759
1.0000764
1.0000773
1.0000788
1.0000816
1.0000852
1.0000684
1.0000684
1.0000684
1.0000685
1.0000685
1.0000685
1.0000685
1.0000685
1.0000685
1.0000686
1.0000686
1.0000686
1.0000686
1.0000686
1.0000687
1.0000687
1.0000687
1.0000687
1.0000687
1.0000687
1.0000687
1.0000688
1.0000688
1.0000688
1.0000688
1.0000688
1.0000688
1.0000688
1.0000689
1.0000689
1.0000689
1.0000689
1.0000689
1.0000689
1.0000689
1.0000689
1.0000689
1.0000689
1.0000689
1.0000689
1.0000689
1.0000689
1.0000689
1.0000689
1.0000689
1.0000689
1.0000689
1.0000689
1.0000689
1.0000689
1.0000689
1.000069
1.0000691
1.0000693
1.0000697
1.0000704
1.0000719
1.0000744
1.0000778
1.0000623
1.0000623
1.0000623
1.0000624
1.0000624
1.0000624
1.0000624
1.0000624
1.0000624
1.0000624
1.0000625
1.0000625
1.0000625
1.0000625
1.0000625
1.0000625
1.0000625
1.0000626
1.0000626
1.0000626
1.0000626
1.0000626
1.0000626
1.0000626
1.0000627
1.0000627
1.0000627
1.0000627
1.0000627
1.0000627
1.0000627
1.0000627
1.0000627
1.0000627
1.0000627
1.0000627
1.0000627
1.0000627
1.0000627
1.0000627
1.0000627
1.0000627
1.0000627
1.0000627
1.0000627
1.0000627
1.0000627
1.0000627
1.0000627
1.0000627
1.0000627
1.0000628
1.0000628
1.000063
1.0000634
1.0000641
1.0000654
1.0000677
1.0000708
1.0000566
1.0000567
1.0000567
1.0000567
1.0000567
1.0000567
1.0000567
1.0000567
1.0000567
1.0000568
1.0000568
1.0000568
1.0000568
1.0000568
1.0000568
1.0000568
1.0000568
1.0000569
1.0000569
1.0000569
1.0000569
1.0000569
1.0000569
1.0000569
1.0000569
1.0000569
1.0000569
1.000057
1.000057
1.000057
1.000057
1.000057
1.000057
1.000057
1.000057
1.000057
1.000057
1.000057
1.000057
1.000057
1.000057
1.000057
1.000057
1.000057
1.000057
1.000057
1.000057
1.000057
1.000057
1.000057
1.000057
1.000057
1.0000571
1.0000572
1.0000575
1.0000582
1.0000594
1.0000615
1.0000643
1.0000514
1.0000514
1.0000514
1.0000514
1.0000514
1.0000514
1.0000514
1.0000515
1.0000515
1.0000515
1.0000515
1.0000515
1.0000515
1.0000515
1.0000515
1.0000515
1.0000516
1.0000516
1.0000516
1.0000516
1.0000516
1.0000516
1.0000516
1.0000516
1.0000516
1.0000516
1.0000516
1.0000516
1.0000516
1.0000517
1.0000517
1.0000517
1.0000517
1.0000517
1.0000517
1.0000517
1.0000517
1.0000517
1.0000517
1.0000517
1.0000517
1.0000517
1.0000517
1.0000517
1.0000517
1.0000517
1.0000517
1.0000517
1.0000517
1.0000517
1.0000517
1.0000517
1.0000517
1.0000518
1.0000521
1.0000527
1.0000537
1.0000557
1.0000582
1.0000465
1.0000465
1.0000465
1.0000465
1.0000465
1.0000466
1.0000466
1.0000466
1.0000466
1.0000466
1.0000466
1.0000466
1.0000466
1.0000466
1.0000466
1.0000466
1.0000467
1.0000467
1.0000467
1.0000467
1.0000467
1.0000467
1.0000467
1.0000467
1.0000467
1.0000467
1.0000467
1.0000467
1.0000467
1.0000468
1.0000468
1.0000468
1.0000468
1.0000468
1.0000468
1.0000468
1.0000468
1.0000468
1.0000468
1.0000468
1.0000468
1.0000468
1.0000467
1.0000467
1.0000467
1.0000467
1.0000467
1.0000468
1.0000467
1.0000467
1.0000467
1.0000467
1.0000468
1.0000469
1.0000471
1.0000476
1.0000486
1.0000504
1.0000527
1.000042
1.000042
1.000042
1.000042
1.000042
1.0000421
1.0000421
1.0000421
1.0000421
1.0000421
1.0000421
1.0000421
1.0000421
1.0000421
1.0000421
1.0000421
1.0000421
1.0000422
1.0000422
1.0000422
1.0000422
1.0000422
1.0000422
1.0000422
1.0000422
1.0000422
1.0000422
1.0000422
1.0000422
1.0000422
1.0000422
1.0000422
1.0000422
1.0000422
1.0000422
1.0000422
1.0000422
1.0000422
1.0000422
1.0000422
1.0000422
1.0000422
1.0000422
1.0000422
1.0000422
1.0000422
1.0000422
1.0000422
1.0000422
1.0000422
1.0000422
1.0000422
1.0000422
1.0000423
1.0000425
1.0000429
1.0000438
1.0000454
1.0000475
1.0000379
1.0000379
1.0000379
1.0000379
1.0000379
1.0000379
1.0000379
1.0000379
1.0000379
1.000038
1.000038
1.000038
1.000038
1.000038
1.000038
1.000038
1.000038
1.000038
1.000038
1.000038
1.000038
1.000038
1.000038
1.000038
1.000038
1.000038
1.000038
1.0000381
1.0000381
1.0000381
1.0000381
1.0000381
1.0000381
1.0000381
1.0000381
1.0000381
1.0000381
1.0000381
1.0000381
1.0000381
1.0000381
1.0000381
1.0000381
1.0000381
1.000038
1.000038
1.0000381
1.0000381
1.0000381
1.000038
1.000038
1.000038
1.000038
1.0000381
1.0000383
1.0000386
1.0000394
1.0000409
1.0000428
1.0000341
1.0000341
1.0000341
1.0000341
1.0000341
1.0000341
1.0000341
1.0000341
1.0000342
1.0000342
1.0000342
1.0000342
1.0000342
1.0000342
1.0000342
1.0000342
1.0000342
1.0000342
1.0000342
1.0000342
1.0000342
1.0000342
1.0000342
1.0000342
1.0000342
1.0000342
1.0000342
1.0000343
1.0000343
1.0000343
1.0000343
1.0000343
1.0000343
1.0000343
1.0000343
1.0000343
1.0000343
1.0000343
1.0000343
1.0000343
1.0000343
1.0000343
1.0000343
1.0000342
1.0000342
1.0000342
1.0000342
1.0000342
1.0000342
1.0000342
1.0000342
1.0000342
1.0000342
1.0000343
1.0000344
1.0000347
1.0000354
1.0000367
1.0000385
1.0000307
1.0000307
1.0000307
1.0000307
1.0000307
1.0000307
1.0000307
1.0000307
1.0000307
1.0000307
1.0000307
1.0000307
1.0000307
1.0000307
1.0000307
1.0000307
1.0000308
1.0000308
1.0000308
1.0000308
1.0000308
1.0000308
1.0000308
1.0000308
1.0000308
1.0000308
1.0000308
1.0000308
1.0000308
1.0000308
1.0000308
1.0000308
1.0000308
1.0000308
1.0000308
1.0000308
1.0000308
1.0000308
1.0000308
1.0000308
1.0000308
1.0000308
1.0000308
1.0000308
1.0000308
1.0000308
1.0000308
1.0000308
1.0000308
1.0000308
1.0000308
1.0000307
1.0000307
1.0000308
1.0000309
1.0000311
1.0000317
1.0000329
1.0000346
1.0000275
1.0000275
1.0000275
1.0000275
1.0000275
1.0000275
1.0000275
1.0000275
1.0000276
1.0000276
1.0000276
1.0000276
1.0000276
1.0000276
1.0000276
1.0000276
1.0000276
1.0000276
1.0000276
1.0000276
1.0000276
1.0000276
1.0000276
1.0000276
1.0000276
1.0000276
1.0000276
1.0000276
1.0000276
1.0000276
1.0000277
1.0000277
1.0000277
1.0000277
1.0000277
1.0000276
1.0000276
1.0000276
1.0000276
1.0000276
1.0000276
1.0000276
1.0000276
1.0000276
1.0000276
1.0000276
1.0000276
1.0000276
1.0000276
1.0000276
1.0000276
1.0000276
1.0000276
1.0000276
1.0000277
1.0000279
1.0000284
1.0000295
1.000031
1.0000247
1.0000247
1.0000247
1.0000247
1.0000247
1.0000247
1.0000247
1.0000247
1.0000247
1.0000247
1.0000247
1.0000247
1.0000247
1.0000247
1.0000247
1.0000247
1.0000247
1.0000247
1.0000247
1.0000247
1.0000247
1.0000248
1.0000248
1.0000248
1.0000248
1.0000248
1.0000248
1.0000248
1.0000248
1.0000248
1.0000248
1.0000248
1.0000248
1.0000248
1.0000248
1.0000248
1.0000248
1.0000248
1.0000248
1.0000248
1.0000248
1.0000248
1.0000248
1.0000248
1.0000248
1.0000248
1.0000247
1.0000247
1.0000247
1.0000247
1.0000247
1.0000247
1.0000247
1.0000247
1.0000248
1.0000249
1.0000254
1.0000263
1.0000277
1.0000222
1.0000222
1.0000222
1.0000222
1.0000222
1.0000222
1.0000222
1.0000222
1.0000222
1.0000222
1.0000222
1.0000222
1.0000222
1.0000222
1.0000223
1.0000223
1.0000223
1.0000223
1.0000223
1.0000223
1.0000223
1.0000223
1.0000223
1.0000223
1.0000223
1.0000223
1.0000223
1.0000223
1.0000223
1.0000223
1.0000223
1.0000223
1.0000223
1.0000223
1.0000223
1.0000223
1.0000223
1.0000223
1.0000223
1.0000223
1.0000223
1.0000223
1.0000223
1.0000223
1.0000223
1.0000223
1.0000223
1.0000223
1.0000223
1.0000223
1.0000223
1.0000222
1.0000222
1.0000222
1.0000222
1.0000224
1.0000227
1.0000236
1.0000249
1.0001028
1.0001145
1.0001276
1.0001419
1.0001575
1.0001746
1.0001932
1.0002134
1.0002353
1.0002589
1.0002843
1.0003115
1.0003404
1.0003711
1.0004033
1.000437
1.0004718
1.0005075
1.0005436
1.0005795
1.0006147
1.0006483
1.0006796
1.0007075
1.0007311
1.0007492
1.000761
1.0007654
1.0007619
1.0007495
1.0007279
1.0006971
1.0006562
1.0006075
1.0005505
1.0004862
1.0004147
1.0003386
1.0002576
1.0001728
1.0000862
0.99999889
0.99991157
0.9998247
0.99973936
0.99965633
0.99957557
0.99949707
0.99942085
0.99934757
0.99927784
0.9992116
0.99914872
0.99908917
0.99903284
0.99897976
0.99893007
0.99888346
0.99883961
0.99879851
0.99876004
0.9987241
0.99869054
0.99865925
0.99863005
0.99860278
0.99857741
0.99855384
0.99853194
0.99851158
0.99849268
0.99847513
0.99845886
0.99844369
1.0000985
1.0001098
1.0001226
1.0001365
1.0001518
1.0001685
1.0001866
1.0002064
1.0002278
1.0002508
1.0002756
1.0003022
1.0003305
1.0003606
1.0003922
1.0004253
1.0004595
1.0004947
1.0005303
1.0005659
1.0006009
1.0006344
1.0006659
1.0006941
1.0007183
1.0007374
1.0007503
1.0007562
1.0007546
1.0007443
1.0007252
1.0006972
1.0006601
1.0006143
1.0005605
1.0004997
1.0004326
1.0003605
1.0002839
1.0002037
1.0001211
1.0000374
0.99995338
0.99986955
0.99978725
0.99970656
0.99962798
0.99955111
0.99947588
0.99940465
0.99933701
0.99927267
0.99921151
0.99915357
0.99909872
0.99904704
0.99899867
0.99895334
0.99891067
0.99887065
0.99883314
0.99879805
0.99876525
0.99873465
0.99870605
0.9986793
0.99865443
0.99863131
0.99860982
0.99858984
0.99857128
0.99855403
0.99853805
0.99852312
1.0000952
1.0001062
1.0001185
1.0001321
1.0001469
1.0001632
1.0001808
1.0002
1.0002208
1.0002433
1.0002674
1.0002933
1.0003209
1.0003501
1.0003809
1.0004131
1.0004465
1.0004809
1.0005157
1.0005505
1.0005848
1.0006178
1.0006488
1.0006768
1.0007008
1.0007201
1.0007335
1.0007402
1.0007396
1.0007308
1.0007135
1.0006877
1.0006533
1.0006106
1.0005601
1.0005028
1.0004394
1.0003711
1.0002985
1.0002227
1.0001446
1.0000654
0.99998577
0.99990632
0.99982797
0.99975142
0.99967688
0.99960443
0.9995341
0.99946648
0.99940191
0.99934037
0.99928184
0.9992264
0.99917376
0.99912466
0.99907917
0.99903623
0.99899492
0.99895603
0.99891966
0.9988857
0.99885399
0.99882452
0.99879683
0.99877083
0.99874669
0.99872431
0.99870353
0.99868424
0.99866634
0.99864971
0.99863431
0.99861993
1.0000933
1.000104
1.0001161
1.0001293
1.0001438
1.0001596
1.0001768
1.0001956
1.0002159
1.0002378
1.0002613
1.0002865
1.0003134
1.0003419
1.000372
1.0004034
1.000436
1.0004694
1.0005034
1.0005373
1.0005707
1.0006029
1.0006331
1.0006603
1.0006838
1.0007026
1.0007157
1.0007223
1.0007218
1.0007134
1.0006967
1.0006718
1.0006386
1.0005974
1.0005487
1.0004935
1.0004324
1.0003666
1.0002967
1.0002237
1.0001487
1.0000726
0.99999623
0.99992009
0.99984499
0.99977159
0.99970013
0.99963072
0.99956351
0.99949892
0.99943726
0.9993785
0.99932263
0.9992697
0.99921948
0.99917262
0.99912846
0.99908672
0.99904744
0.99901067
0.99897627
0.99894409
0.99891401
0.99888597
0.99885971
0.99883501
0.99881201
0.99879065
0.99877082
0.99875244
0.99873542
0.99871963
0.99870498
0.9986914
1.0000922
1.0001027
1.0001146
1.0001276
1.0001418
1.0001573
1.0001743
1.0001926
1.0002125
1.000234
1.0002571
1.0002818
1.0003082
1.0003361
1.0003655
1.0003962
1.0004281
1.0004608
1.0004939
1.000527
1.0005596
1.0005908
1.0006202
1.0006466
1.0006693
1.0006874
1.0006998
1.0007058
1.0007049
1.0006961
1.0006792
1.0006542
1.0006212
1.0005803
1.0005321
1.0004776
1.0004174
1.0003525
1.0002838
1.0002121
1.0001385
1.000064
0.99998918
0.99991472
0.99984135
0.99976968
0.99969995
0.99963228
0.99956683
0.99950398
0.99944402
0.99938692
0.99933267
0.99928129
0.99923268
0.99918688
0.99914393
0.9991036
0.99906571
0.99903015
0.99899686
0.99896574
0.99893665
0.99890952
0.9988842
0.99886055
0.99883854
0.99881802
0.99879909
0.99878156
0.99876527
0.99875007
0.99873596
0.99872275
1.0000916
1.000102
1.0001138
1.0001266
1.0001406
1.000156
1.0001726
1.0001908
1.0002104
1.0002315
1.0002543
1.0002786
1.0003046
1.000332
1.0003609
1.0003911
1.0004224
1.0004545
1.000487
1.0005194
1.0005512
1.0005817
1.0006103
1.0006359
1.0006578
1.0006751
1.0006868
1.0006921
1.0006905
1.0006811
1.0006637
1.0006382
1.0006048
1.0005636
1.0005152
1.0004605
1.0004003
1.0003355
1.000267
1.0001955
1.0001222
1.0000481
0.99997374
0.9998998
0.99982697
0.99975586
0.9996867
0.99961965
0.99955486
0.99949268
0.99943337
0.99937692
0.99932331
0.99927255
0.99922458
0.99917939
0.99913699
0.99909719
0.99905982
0.99902475
0.99899192
0.99896124
0.99893259
0.99890585
0.99888091
0.99885765
0.99883599
0.99881584
0.99879711
0.9987797
0.99876352
0.99874849
0.99873452
0.99872155
1.0000913
1.0001017
1.0001133
1.000126
1.0001399
1.0001551
1.0001716
1.0001896
1.000209
1.0002299
1.0002524
1.0002765
1.0003021
1.0003292
1.0003578
1.0003875
1.0004184
1.00045
1.0004819
1.0005138
1.0005451
1.000575
1.0006029
1.0006279
1.0006491
1.0006658
1.0006767
1.0006813
1.0006791
1.0006691
1.0006511
1.0006251
1.0005911
1.0005494
1.0005006
1.0004455
1.000385
1.0003198
1.000251
1.0001794
1.0001059
1.0000316
0.99995714
0.99988314
0.99981027
0.99973911
0.99966994
0.9996029
0.99953818
0.99947608
0.99941685
0.99936048
0.99930696
0.9992563
0.99920845
0.99916337
0.99912105
0.99908132
0.99904403
0.99900907
0.99897636
0.99894579
0.99891724
0.9988906
0.99886576
0.9988426
0.99882104
0.99880098
0.99878232
0.99876498
0.99874886
0.99873387
0.99871996
0.99870702
1.0000912
1.0001015
1.000113
1.0001257
1.0001395
1.0001546
1.000171
1.0001888
1.0002081
1.0002289
1.0002512
1.000275
1.0003004
1.0003273
1.0003555
1.000385
1.0004155
1.0004468
1.0004784
1.0005098
1.0005406
1.0005701
1.0005975
1.000622
1.0006427
1.0006588
1.0006692
1.0006733
1.0006705
1.00066
1.0006415
1.000615
1.0005805
1.0005384
1.0004892
1.0004337
1.0003727
1.0003072
1.0002381
1.0001661
1.0000923
1.0000178
0.99994307
0.99986885
0.99979577
0.99972441
0.99965504
0.99958783
0.99952299
0.99946078
0.99940143
0.99934496
0.99929135
0.99924061
0.99919269
0.99914755
0.99910514
0.99906534
0.999028
0.99899299
0.99896023
0.99892962
0.99890102
0.99887435
0.99884947
0.99882629
0.99880471
0.99878463
0.99876596
0.9987486
0.99873246
0.99871747
0.99870355
0.9986906
1.0000911
1.0001014
1.0001129
1.0001255
1.0001392
1.0001543
1.0001706
1.0001883
1.0002075
1.0002281
1.0002503
1.000274
1.0002993
1.000326
1.000354
1.0003833
1.0004135
1.0004445
1.0004758
1.000507
1.0005374
1.0005665
1.0005936
1.0006177
1.000638
1.0006538
1.0006638
1.0006674
1.0006643
1.0006534
1.0006345
1.0006076
1.0005728
1.0005303
1.0004808
1.0004249
1.0003637
1.0002979
1.0002285
1.0001563
1.0000823
1.0000075
0.99993258
0.99985817
0.99978492
0.99971336
0.9996438
0.99957643
0.99951146
0.99944915
0.99938967
0.99933309
0.99927938
0.99922854
0.99918053
0.99913531
0.99909282
0.99905292
0.99901549
0.99898042
0.99894761
0.99891694
0.99888831
0.99886159
0.99883669
0.99881348
0.99879188
0.99877178
0.99875308
0.9987357
0.99871954
0.99870453
0.99869058
0.9986776
1.0000911
1.0001013
1.0001128
1.0001254
1.0001391
1.0001541
1.0001703
1.000188
1.0002071
1.0002277
1.0002498
1.0002734
1.0002985
1.000325
1.0003529
1.000382
1.0004121
1.0004429
1.000474
1.0005049
1.0005352
1.000564
1.0005908
1.0006147
1.0006347
1.0006501
1.00066
1.0006633
1.0006599
1.0006487
1.0006295
1.0006024
1.0005674
1.0005247
1.0004749
1.0004189
1.0003575
1.0002915
1.0002219
1.0001496
1.0000755
1.0000005
0.99992546
0.99985092
0.99977755
0.99970585
0.99963616
0.99956868
0.99950363
0.99944124
0.99938169
0.99932503
0.99927125
0.99922035
0.99917229
0.99912701
0.99908444
0.99904448
0.999007
0.99897188
0.99893903
0.99890832
0.99887965
0.9988529
0.99882796
0.99880473
0.9987831
0.99876297
0.99874425
0.99872685
0.99871067
0.99869564
0.99868167
0.99866868
1.0000911
1.0001013
1.0001128
1.0001253
1.000139
1.0001539
1.0001702
1.0001878
1.0002068
1.0002274
1.0002494
1.0002729
1.0002979
1.0003244
1.0003522
1.0003812
1.0004111
1.0004417
1.0004727
1.0005035
1.0005335
1.0005622
1.0005888
1.0006125
1.0006323
1.0006476
1.0006572
1.0006604
1.0006568
1.0006455
1.0006262
1.000599
1.0005638
1.000521
1.0004712
1.0004151
1.0003536
1.0002875
1.0002178
1.0001454
1.0000712
0.99999619
0.99992106
0.99984646
0.99977301
0.99970123
0.99963145
0.9995639
0.9994988
0.99943638
0.99937678
0.99932007
0.99926624
0.9992153
0.9991672
0.99912188
0.99907927
0.99903926
0.99900174
0.99896659
0.99893371
0.99890298
0.99887429
0.99884752
0.99882257
0.99879933
0.99877769
0.99875756
0.99873883
0.99872142
0.99870523
0.99869019
0.99867621
0.99866321
1.0000911
1.0001013
1.0001127
1.0001253
1.0001389
1.0001539
1.0001701
1.0001877
1.0002067
1.0002271
1.0002491
1.0002726
1.0002975
1.0003239
1.0003517
1.0003805
1.0004104
1.0004409
1.0004718
1.0005024
1.0005324
1.0005609
1.0005874
1.000611
1.0006307
1.0006459
1.0006553
1.0006584
1.0006549
1.0006435
1.0006242
1.0005969
1.0005617
1.0005189
1.0004691
1.000413
1.0003514
1.0002854
1.0002157
1.0001432
1.000069
0.99999395
0.99991878
0.99984415
0.99977067
0.99969883
0.99962899
0.99956139
0.99949627
0.99943382
0.99937419
0.99931744
0.99926359
0.99921262
0.99916449
0.99911914
0.9990765
0.99903645
0.9989989
0.99896373
0.99893082
0.99890007
0.99887137
0.99884458
0.99881962
0.99879636
0.99877471
0.99875456
0.99873582
0.9987184
0.9987022
0.99868715
0.99867316
0.99866015
1.0000911
1.0001013
1.0001127
1.0001253
1.0001389
1.0001538
1.00017
1.0001876
1.0002066
1.000227
1.0002489
1.0002724
1.0002973
1.0003236
1.0003513
1.0003801
1.0004099
1.0004403
1.0004711
1.0005017
1.0005315
1.00056
1.0005865
1.0006099
1.0006296
1.0006448
1.000654
1.0006573
1.0006537
1.0006424
1.0006231
1.0005959
1.0005608
1.0005181
1.0004683
1.0004123
1.0003508
1.0002847
1.000215
1.0001426
1.0000684
0.99999339
0.99991821
0.99984358
0.99977007
0.99969819
0.9996283
0.99956067
0.99949552
0.99943305
0.9993734
0.99931662
0.99926274
0.99921174
0.99916359
0.99911821
0.99907553
0.99903546
0.99899788
0.99896268
0.99892975
0.99889898
0.99887026
0.99884346
0.99881849
0.99879522
0.99877356
0.9987534
0.99873466
0.99871722
0.99870102
0.99868595
0.99867196
0.99865894
1.0000911
1.0001013
1.0001127
1.0001252
1.0001389
1.0001538
1.00017
1.0001875
1.0002065
1.0002269
1.0002488
1.0002722
1.0002971
1.0003234
1.000351
1.0003798
1.0004095
1.0004399
1.0004706
1.0005011
1.000531
1.0005594
1.0005858
1.0006093
1.0006289
1.0006441
1.0006533
1.0006567
1.0006532
1.000642
1.0006228
1.0005957
1.0005608
1.0005182
1.0004686
1.0004127
1.0003513
1.0002853
1.0002157
1.0001434
1.0000693
0.99999423
0.99991907
0.99984444
0.99977092
0.99969901
0.99962908
0.99956141
0.99949624
0.99943375
0.99937406
0.99931726
0.99926334
0.99921231
0.99916413
0.99911872
0.999076
0.99903589
0.99899828
0.99896305
0.9989301
0.99889931
0.99887056
0.99884375
0.99881875
0.99879547
0.99877379
0.99875362
0.99873486
0.99871741
0.9987012
0.99868612
0.99867212
0.99865909
1.0000911
1.0001013
1.0001127
1.0001252
1.0001389
1.0001538
1.0001699
1.0001875
1.0002064
1.0002268
1.0002487
1.0002721
1.0002969
1.0003232
1.0003508
1.0003795
1.0004092
1.0004396
1.0004702
1.0005007
1.0005305
1.000559
1.0005854
1.0006088
1.0006285
1.0006438
1.0006532
1.0006566
1.0006532
1.0006422
1.0006232
1.0005963
1.0005616
1.0005192
1.0004698
1.0004141
1.0003529
1.0002871
1.0002176
1.0001454
1.0000714
0.99999638
0.99992125
0.99984663
0.9997731
0.99970116
0.9996312
0.99956349
0.99949828
0.99943576
0.99937604
0.99931919
0.99926524
0.99921416
0.99916593
0.99912048
0.99907772
0.99903757
0.99899992
0.99896465
0.99893167
0.99890084
0.99887207
0.99884523
0.99882021
0.9987969
0.9987752
0.99875501
0.99873623
0.99871876
0.99870253
0.99868743
0.99867341
0.99866037
1.000091
1.0001012
1.0001127
1.0001252
1.0001389
1.0001537
1.0001699
1.0001874
1.0002064
1.0002267
1.0002486
1.000272
1.0002968
1.000323
1.0003506
1.0003793
1.000409
1.0004393
1.00047
1.0005005
1.0005302
1.0005587
1.0005851
1.0006086
1.0006284
1.0006437
1.0006534
1.0006569
1.0006537
1.0006429
1.0006242
1.0005976
1.0005632
1.0005212
1.0004721
1.0004167
1.0003557
1.0002901
1.0002208
1.0001487
1.0000748
0.99999988
0.9999248
0.99985019
0.99977666
0.9997047
0.99963469
0.99956694
0.99950169
0.99943911
0.99937934
0.99932244
0.99926843
0.9992173
0.99916901
0.9991235
0.99908069
0.99904049
0.99900279
0.99896748
0.99893445
0.99890358
0.99887477
0.99884789
0.99882284
0.9987995
0.99877778
0.99875756
0.99873875
0.99872126
0.99870501
0.9986899
0.99867586
0.9986628
1.000091
1.0001012
1.0001127
1.0001252
1.0001388
1.0001537
1.0001699
1.0001874
1.0002063
1.0002267
1.0002485
1.0002719
1.0002967
1.0003229
1.0003504
1.0003791
1.0004088
1.0004391
1.0004697
1.0005002
1.00053
1.0005585
1.0005849
1.0006085
1.0006284
1.0006438
1.0006538
1.0006575
1.0006547
1.0006442
1.0006259
1.0005997
1.0005657
1.0005241
1.0004754
1.0004203
1.0003597
1.0002944
1.0002253
1.0001534
1.0000796
1.0000049
0.99992983
0.99985525
0.99978172
0.99970973
0.99963968
0.99957187
0.99950656
0.99944393