/*--------------------------------*- C++ -*----------------------------------*\
| =========                 |                                                 |
| \\      /  F ield         | OpenFOAM: The Open Source CFD Toolbox           |
|  \\    /   O peration     | Version:  v2006                                 |
|   \\  /    A nd           | Website:  www.openfoam.com                      |
|    \\/     M anipulation  |                                                 |
\*---------------------------------------------------------------------------*/
FoamFile
{
    version     2.0;
    format      ascii;
    class       volScalarField;
    location    "4000";
    object      T;
}
// * * * * * * * * * * * * * * * * * * * * * * * * * * * * * * * * * * * * * //

dimensions      [0 0 0 1 0 0 0];


internalField   nonuniform List<scalar> 
55713
(
1.0000063
1.0000075
1.0000082
1.0000085
1.0000086
1.0000086
1.0000086
1.0000086
1.0000086
1.0000086
1.0000086
1.0000086
1.0000085
1.0000085
1.0000085
1.0000085
1.0000085
1.0000085
1.0000085
1.0000086
1.0000086
1.0000085
1.0000085
1.0000085
1.0000085
1.0000085
1.0000085
1.0000085
1.0000085
1.0000085
1.0000085
1.0000085
1.0000085
1.0000085
1.0000085
1.0000085
1.0000086
1.0000086
1.0000086
1.0000086
1.0000086
1.0000086
1.0000086
1.0000086
1.0000086
1.0000086
1.0000086
1.0000086
1.0000085
1.0000085
1.0000086
1.0000086
1.0000086
1.0000086
1.0000086
1.0000086
1.0000086
1.0000086
1.0000086
1.000006
1.0000071
1.0000077
1.000008
1.000008
1.000008
1.000008
1.000008
1.000008
1.000008
1.000008
1.000008
1.0000079
1.0000079
1.0000079
1.0000079
1.000008
1.000008
1.000008
1.000008
1.000008
1.000008
1.000008
1.0000079
1.0000079
1.0000079
1.0000079
1.0000079
1.0000079
1.0000079
1.0000079
1.0000079
1.000008
1.000008
1.000008
1.000008
1.000008
1.000008
1.000008
1.000008
1.000008
1.000008
1.000008
1.000008
1.000008
1.000008
1.000008
1.000008
1.000008
1.000008
1.000008
1.000008
1.000008
1.000008
1.000008
1.000008
1.000008
1.000008
1.000008
1.0000057
1.0000067
1.0000073
1.0000075
1.0000075
1.0000075
1.0000075
1.0000075
1.0000075
1.0000075
1.0000075
1.0000075
1.0000074
1.0000074
1.0000074
1.0000074
1.0000075
1.0000075
1.0000075
1.0000075
1.0000075
1.0000075
1.0000075
1.0000074
1.0000074
1.0000074
1.0000074
1.0000074
1.0000074
1.0000074
1.0000074
1.0000074
1.0000074
1.0000075
1.0000075
1.0000075
1.0000075
1.0000075
1.0000075
1.0000075
1.0000075
1.0000075
1.0000075
1.0000075
1.0000075
1.0000075
1.0000075
1.0000075
1.0000075
1.0000075
1.0000075
1.0000075
1.0000075
1.0000075
1.0000075
1.0000075
1.0000075
1.0000075
1.0000075
1.0000054
1.0000064
1.0000069
1.0000071
1.0000071
1.0000071
1.0000071
1.0000071
1.0000071
1.0000071
1.000007
1.000007
1.000007
1.000007
1.000007
1.000007
1.0000071
1.0000071
1.0000071
1.0000071
1.000007
1.000007
1.000007
1.000007
1.000007
1.000007
1.000007
1.000007
1.000007
1.000007
1.000007
1.000007
1.000007
1.000007
1.000007
1.000007
1.000007
1.000007
1.0000071
1.0000071
1.0000071
1.0000071
1.0000071
1.000007
1.000007
1.000007
1.000007
1.000007
1.000007
1.000007
1.000007
1.000007
1.0000071
1.0000071
1.0000071
1.0000071
1.0000071
1.0000071
1.0000071
1.0000052
1.0000062
1.0000066
1.0000067
1.0000067
1.0000067
1.0000067
1.0000067
1.0000067
1.0000067
1.0000067
1.0000066
1.0000066
1.0000066
1.0000066
1.0000067
1.0000067
1.0000067
1.0000067
1.0000067
1.0000067
1.0000066
1.0000066
1.0000066
1.0000066
1.0000066
1.0000066
1.0000066
1.0000066
1.0000066
1.0000066
1.0000066
1.0000066
1.0000066
1.0000066
1.0000066
1.0000067
1.0000067
1.0000067
1.0000067
1.0000067
1.0000067
1.0000067
1.0000067
1.0000066
1.0000066
1.0000067
1.0000067
1.0000067
1.0000067
1.0000067
1.0000067
1.0000067
1.0000067
1.0000067
1.0000067
1.0000067
1.0000067
1.0000067
1.0000051
1.000006
1.0000063
1.0000064
1.0000064
1.0000064
1.0000063
1.0000063
1.0000064
1.0000064
1.0000063
1.0000063
1.0000063
1.0000063
1.0000063
1.0000064
1.0000064
1.0000064
1.0000064
1.0000063
1.0000063
1.0000063
1.0000063
1.0000063
1.0000063
1.0000063
1.0000063
1.0000063
1.0000063
1.0000063
1.0000063
1.0000063
1.0000063
1.0000063
1.0000063
1.0000063
1.0000063
1.0000063
1.0000063
1.0000064
1.0000064
1.0000064
1.0000063
1.0000063
1.0000063
1.0000063
1.0000063
1.0000063
1.0000063
1.0000063
1.0000063
1.0000063
1.0000064
1.0000064
1.0000064
1.0000064
1.0000064
1.0000064
1.0000064
1.000005
1.0000058
1.0000061
1.0000061
1.0000061
1.0000061
1.000006
1.0000061
1.0000061
1.0000061
1.000006
1.000006
1.000006
1.000006
1.0000061
1.0000061
1.0000061
1.0000061
1.0000061
1.000006
1.000006
1.000006
1.000006
1.000006
1.000006
1.000006
1.000006
1.000006
1.000006
1.000006
1.000006
1.000006
1.000006
1.000006
1.000006
1.000006
1.000006
1.000006
1.000006
1.0000061
1.0000061
1.0000061
1.0000061
1.000006
1.000006
1.000006
1.000006
1.0000061
1.0000061
1.0000061
1.000006
1.000006
1.0000061
1.0000061
1.0000061
1.0000061
1.0000061
1.0000061
1.0000061
1.0000049
1.0000056
1.0000058
1.0000058
1.0000058
1.0000058
1.0000058
1.0000058
1.0000058
1.0000058
1.0000058
1.0000057
1.0000058
1.0000058
1.0000059
1.0000059
1.0000059
1.0000059
1.0000058
1.0000058
1.0000058
1.0000058
1.0000058
1.0000057
1.0000057
1.0000057
1.0000057
1.0000057
1.0000057
1.0000057
1.0000057
1.0000057
1.0000057
1.0000058
1.0000058
1.0000058
1.0000058
1.0000058
1.0000058
1.0000058
1.0000058
1.0000058
1.0000058
1.0000058
1.0000058
1.0000058
1.0000058
1.0000058
1.0000058
1.0000058
1.0000058
1.0000058
1.0000058
1.0000058
1.0000058
1.0000059
1.0000059
1.0000058
1.0000058
1.0000048
1.0000055
1.0000057
1.0000057
1.0000056
1.0000056
1.0000056
1.0000057
1.0000057
1.0000056
1.0000056
1.0000056
1.0000056
1.0000057
1.0000057
1.0000057
1.0000057
1.0000057
1.0000056
1.0000056
1.0000056
1.0000056
1.0000056
1.0000056
1.0000056
1.0000056
1.0000056
1.0000056
1.0000056
1.0000056
1.0000056
1.0000056
1.0000056
1.0000056
1.0000056
1.0000056
1.0000056
1.0000056
1.0000056
1.0000056
1.0000056
1.0000056
1.0000056
1.0000056
1.0000056
1.0000056
1.0000056
1.0000056
1.0000056
1.0000056
1.0000056
1.0000056
1.0000056
1.0000056
1.0000056
1.0000057
1.0000057
1.0000057
1.0000057
1.0000048
1.0000055
1.0000055
1.0000055
1.0000055
1.0000055
1.0000055
1.0000055
1.0000055
1.0000055
1.0000054
1.0000054
1.0000055
1.0000056
1.0000056
1.0000056
1.0000055
1.0000055
1.0000055
1.0000054
1.0000054
1.0000054
1.0000054
1.0000054
1.0000054
1.0000054
1.0000054
1.0000054
1.0000054
1.0000054
1.0000054
1.0000054
1.0000054
1.0000054
1.0000054
1.0000054
1.0000054
1.0000054
1.0000054
1.0000054
1.0000055
1.0000055
1.0000055
1.0000055
1.0000055
1.0000055
1.0000055
1.0000055
1.0000055
1.0000055
1.0000055
1.0000054
1.0000055
1.0000055
1.0000055
1.0000056
1.0000055
1.0000055
1.0000055
1.0000046
1.0000052
1.0000052
1.0000053
1.0000052
1.0000052
1.0000052
1.0000052
1.0000052
1.0000052
1.0000051
1.0000051
1.0000052
1.0000053
1.0000053
1.0000053
1.0000052
1.0000052
1.0000051
1.0000051
1.0000051
1.0000051
1.0000051
1.0000051
1.0000051
1.0000051
1.0000051
1.0000051
1.0000051
1.0000051
1.0000051
1.0000051
1.0000051
1.0000051
1.0000051
1.0000051
1.0000051
1.0000051
1.0000051
1.0000051
1.0000051
1.0000052
1.0000052
1.0000052
1.0000052
1.0000052
1.0000052
1.0000052
1.0000052
1.0000052
1.0000052
1.0000052
1.0000051
1.0000052
1.0000052
1.0000052
1.0000053
1.0000052
1.0000052
1.0000046
1.0000054
1.0000051
1.0000053
1.0000052
1.000005
1.0000052
1.0000051
1.0000051
1.000005
1.0000049
1.000005
1.0000051
1.0000052
1.0000053
1.0000051
1.0000051
1.000005
1.000005
1.0000049
1.0000049
1.0000049
1.0000049
1.0000049
1.0000049
1.0000049
1.0000049
1.0000049
1.0000049
1.0000049
1.0000049
1.0000049
1.0000049
1.0000049
1.0000049
1.0000049
1.0000049
1.0000049
1.0000049
1.0000049
1.000005
1.000005
1.0000051
1.0000051
1.000005
1.000005
1.000005
1.000005
1.000005
1.000005
1.000005
1.0000051
1.0000049
1.0000051
1.0000052
1.000005
1.0000053
1.000005
1.000005
1.0000059
1.0000064
1.000006
1.0000063
1.000006
1.000006
1.0000063
1.0000061
1.0000061
1.0000062
1.0000062
1.0000062
1.0000063
1.0000065
1.0000062
1.0000062
1.0000062
1.0000062
1.0000062
1.0000062
1.0000062
1.0000062
1.0000062
1.0000062
1.0000062
1.0000062
1.0000062
1.0000061
1.0000061
1.0000061
1.0000061
1.0000061
1.0000061
1.0000061
1.0000061
1.0000061
1.0000061
1.0000062
1.0000062
1.0000062
1.0000061
1.0000062
1.0000062
1.0000062
1.0000062
1.0000061
1.0000062
1.0000061
1.0000061
1.0000062
1.0000062
1.0000062
1.0000061
1.000006
1.0000063
1.000006
1.0000064
1.0000061
1.0000061
1.0000048
1.0000038
1.0000043
1.0000038
1.0000044
1.0000046
1.0000041
1.0000042
1.0000041
1.0000043
1.0000047
1.0000048
1.0000045
1.0000039
1.0000037
1.0000037
1.0000037
1.0000037
1.0000037
1.0000037
1.0000037
1.0000037
1.0000037
1.0000037
1.0000037
1.0000037
1.0000037
1.0000037
1.0000037
1.0000037
1.0000037
1.0000037
1.0000037
1.0000037
1.0000037
1.0000037
1.0000037
1.0000037
1.0000037
1.0000037
1.0000037
1.0000037
1.0000038
1.000004
1.0000043
1.0000045
1.0000044
1.0000046
1.0000047
1.0000046
1.0000047
1.0000046
1.0000048
1.0000045
1.000004
1.0000043
1.0000038
1.0000046
1.0000046
1.0000333
1.0000333
1.0000333
1.0000334
1.0000334
1.0000334
1.0000334
1.0000334
1.0000334
1.0000334
1.0000334
1.0000334
1.0000334
1.0000334
1.0000334
1.0000335
1.0000335
1.0000335
1.0000335
1.0000335
1.0000335
1.0000335
1.0000335
1.0000335
1.0000335
1.0000335
1.0000335
1.0000335
1.0000335
1.0000335
1.0000335
1.0000335
1.0000335
1.0000336
1.0000336
1.0000336
1.0000336
1.0000336
1.0000336
1.0000336
1.0000336
1.0000336
1.0000336
1.0000337
1.0000337
1.0000337
1.0000337
1.0000337
1.0000337
1.0000337
1.0000337
1.0000336
1.0000335
1.0000333
1.0000328
1.0000319
1.0000302
1.0000272
1.0000232
1.0000305
1.0000306
1.0000306
1.0000306
1.0000306
1.0000306
1.0000306
1.0000306
1.0000306
1.0000306
1.0000306
1.0000306
1.0000306
1.0000306
1.0000306
1.0000306
1.0000307
1.0000307
1.0000307
1.0000307
1.0000307
1.0000307
1.0000307
1.0000307
1.0000307
1.0000307
1.0000307
1.0000307
1.0000307
1.0000307
1.0000307
1.0000307
1.0000307
1.0000307
1.0000307
1.0000307
1.0000307
1.0000307
1.0000307
1.0000307
1.0000307
1.0000308
1.0000308
1.0000308
1.0000308
1.0000308
1.0000308
1.0000308
1.0000308
1.0000308
1.0000308
1.0000308
1.0000307
1.0000305
1.00003
1.0000292
1.0000276
1.0000249
1.0000212
1.0000279
1.0000279
1.0000279
1.000028
1.000028
1.000028
1.000028
1.000028
1.000028
1.000028
1.000028
1.000028
1.000028
1.000028
1.000028
1.000028
1.000028
1.000028
1.000028
1.000028
1.000028
1.0000281
1.0000281
1.0000281
1.0000281
1.0000281
1.0000281
1.0000281
1.0000281
1.0000281
1.0000281
1.0000281
1.0000281
1.0000281
1.0000281
1.0000281
1.0000281
1.0000281
1.0000281
1.0000281
1.0000281
1.0000281
1.0000281
1.0000281
1.0000281
1.0000281
1.0000281
1.0000281
1.0000281
1.0000282
1.0000282
1.0000281
1.0000281
1.0000279
1.0000275
1.0000267
1.0000253
1.0000227
1.0000194
1.0000255
1.0000255
1.0000255
1.0000255
1.0000255
1.0000255
1.0000255
1.0000255
1.0000255
1.0000255
1.0000255
1.0000255
1.0000255
1.0000255
1.0000256
1.0000256
1.0000256
1.0000256
1.0000256
1.0000256
1.0000256
1.0000256
1.0000256
1.0000256
1.0000256
1.0000256
1.0000256
1.0000256
1.0000256
1.0000256
1.0000256
1.0000256
1.0000256
1.0000256
1.0000256
1.0000256
1.0000256
1.0000256
1.0000256
1.0000256
1.0000256
1.0000256
1.0000256
1.0000256
1.0000256
1.0000256
1.0000256
1.0000256
1.0000257
1.0000257
1.0000257
1.0000257
1.0000256
1.0000254
1.0000251
1.0000244
1.0000231
1.0000207
1.0000177
1.0000232
1.0000232
1.0000232
1.0000232
1.0000232
1.0000232
1.0000232
1.0000232
1.0000232
1.0000232
1.0000232
1.0000232
1.0000232
1.0000233
1.0000233
1.0000233
1.0000233
1.0000233
1.0000233
1.0000233
1.0000233
1.0000233
1.0000233
1.0000233
1.0000233
1.0000233
1.0000233
1.0000233
1.0000233
1.0000233
1.0000233
1.0000233
1.0000233
1.0000233
1.0000233
1.0000233
1.0000233
1.0000233
1.0000233
1.0000233
1.0000233
1.0000233
1.0000233
1.0000233
1.0000233
1.0000233
1.0000233
1.0000233
1.0000233
1.0000234
1.0000234
1.0000234
1.0000233
1.0000232
1.0000229
1.0000222
1.000021
1.0000189
1.0000161
1.0000211
1.0000211
1.0000211
1.0000211
1.0000211
1.0000211
1.0000211
1.0000211
1.0000211
1.0000211
1.0000211
1.0000211
1.0000211
1.0000211
1.0000211
1.0000211
1.0000211
1.0000212
1.0000212
1.0000212
1.0000212
1.0000212
1.0000212
1.0000212
1.0000212
1.0000212
1.0000212
1.0000211
1.0000211
1.0000211
1.0000211
1.0000211
1.0000211
1.0000211
1.0000211
1.0000211
1.0000211
1.0000211
1.0000211
1.0000211
1.0000211
1.0000211
1.0000211
1.0000211
1.0000211
1.0000212
1.0000212
1.0000212
1.0000212
1.0000212
1.0000212
1.0000212
1.0000212
1.0000211
1.0000208
1.0000202
1.0000192
1.0000172
1.0000147
1.0000191
1.0000192
1.0000192
1.0000192
1.0000192
1.0000192
1.0000192
1.0000192
1.0000192
1.0000192
1.0000192
1.0000192
1.0000192
1.0000192
1.0000192
1.0000192
1.0000192
1.0000192
1.0000192
1.0000192
1.0000192
1.0000192
1.0000192
1.0000192
1.0000192
1.0000192
1.0000192
1.0000192
1.0000192
1.0000192
1.0000192
1.0000192
1.0000192
1.0000192
1.0000192
1.0000192
1.0000192
1.0000192
1.0000191
1.0000191
1.0000191
1.0000191
1.0000191
1.0000191
1.0000192
1.0000192
1.0000192
1.0000192
1.0000192
1.0000192
1.0000193
1.0000193
1.0000192
1.0000191
1.0000189
1.0000184
1.0000174
1.0000156
1.0000133
1.0000173
1.0000174
1.0000174
1.0000174
1.0000174
1.0000174
1.0000174
1.0000174
1.0000173
1.0000173
1.0000173
1.0000173
1.0000174
1.0000174
1.0000174
1.0000174
1.0000174
1.0000174
1.0000174
1.0000174
1.0000174
1.0000174
1.0000174
1.0000174
1.0000174
1.0000174
1.0000174
1.0000174
1.0000173
1.0000173
1.0000173
1.0000173
1.0000173
1.0000173
1.0000173
1.0000173
1.0000173
1.0000173
1.0000173
1.0000173
1.0000173
1.0000173
1.0000173
1.0000173
1.0000173
1.0000173
1.0000174
1.0000174
1.0000174
1.0000174
1.0000174
1.0000174
1.0000174
1.0000173
1.0000171
1.0000167
1.0000158
1.0000142
1.0000121
1.0000157
1.0000157
1.0000157
1.0000157
1.0000157
1.0000157
1.0000157
1.0000157
1.0000157
1.0000157
1.0000157
1.0000157
1.0000157
1.0000157
1.0000157
1.0000157
1.0000157
1.0000157
1.0000157
1.0000157
1.0000157
1.0000157
1.0000157
1.0000157
1.0000157
1.0000157
1.0000157
1.0000157
1.0000157
1.0000157
1.0000157
1.0000157
1.0000157
1.0000157
1.0000157
1.0000157
1.0000157
1.0000157
1.0000157
1.0000156
1.0000156
1.0000156
1.0000156
1.0000156
1.0000156
1.0000157
1.0000157
1.0000157
1.0000157
1.0000157
1.0000157
1.0000158
1.0000157
1.0000157
1.0000155
1.0000152
1.0000144
1.0000129
1.000011
1.0000142
1.0000142
1.0000142
1.0000142
1.0000142
1.0000142
1.0000142
1.0000142
1.0000142
1.0000141
1.0000141
1.0000142
1.0000142
1.0000142
1.0000142
1.0000142
1.0000142
1.0000142
1.0000142
1.0000142
1.0000142
1.0000142
1.0000142
1.0000142
1.0000142
1.0000142
1.0000141
1.0000141
1.0000141
1.0000141
1.0000141
1.0000141
1.0000141
1.0000141
1.0000141
1.0000141
1.0000141
1.0000141
1.0000141
1.0000141
1.0000141
1.0000141
1.0000141
1.0000141
1.0000141
1.0000141
1.0000141
1.0000142
1.0000142
1.0000142
1.0000142
1.0000142
1.0000142
1.0000142
1.0000141
1.0000137
1.0000131
1.0000117
1.0000099
1.0000128
1.0000128
1.0000128
1.0000128
1.0000128
1.0000128
1.0000128
1.0000128
1.0000128
1.0000128
1.0000128
1.0000128
1.0000128
1.0000128
1.0000128
1.0000128
1.0000128
1.0000128
1.0000128
1.0000128
1.0000128
1.0000128
1.0000128
1.0000128
1.0000128
1.0000128
1.0000128
1.0000127
1.0000127
1.0000127
1.0000127
1.0000127
1.0000127
1.0000127
1.0000127
1.0000127
1.0000128
1.0000127
1.0000127
1.0000127
1.0000127
1.0000127
1.0000127
1.0000127
1.0000127
1.0000127
1.0000127
1.0000128
1.0000128
1.0000128
1.0000128
1.0000128
1.0000128
1.0000128
1.0000127
1.0000124
1.0000119
1.0000107
1.000009
1.0000115
1.0000115
1.0000115
1.0000115
1.0000115
1.0000115
1.0000115
1.0000115
1.0000115
1.0000115
1.0000115
1.0000115
1.0000115
1.0000115
1.0000115
1.0000115
1.0000115
1.0000115
1.0000115
1.0000115
1.0000115
1.0000115
1.0000115
1.0000115
1.0000115
1.0000115
1.0000115
1.0000115
1.0000115
1.0000115
1.0000115
1.0000115
1.0000115
1.0000115
1.0000115
1.0000115
1.0000115
1.0000115
1.0000115
1.0000115
1.0000115
1.0000114
1.0000114
1.0000114
1.0000114
1.0000115
1.0000115
1.0000115
1.0000115
1.0000115
1.0000115
1.0000116
1.0000116
1.0000115
1.0000115
1.0000113
1.0000108
1.0000097
1.0000082
1.0000104
1.0000104
1.0000104
1.0000104
1.0000104
1.0000104
1.0000104
1.0000104
1.0000103
1.0000103
1.0000103
1.0000104
1.0000104
1.0000104
1.0000104
1.0000104
1.0000104
1.0000104
1.0000104
1.0000104
1.0000104
1.0000104
1.0000104
1.0000103
1.0000103
1.0000103
1.0000103
1.0000103
1.0000103
1.0000103
1.0000103
1.0000103
1.0000103
1.0000103
1.0000103
1.0000103
1.0000103
1.0000103
1.0000103
1.0000103
1.0000103
1.0000103
1.0000103
1.0000103
1.0000103
1.0000103
1.0000103
1.0000104
1.0000104
1.0000104
1.0000104
1.0000104
1.0000104
1.0000104
1.0000104
1.0000102
1.0000098
1.0000088
1.0000074
1.0000094
1.0000094
1.0000094
1.0000094
1.0000094
1.0000094
1.0000094
1.0000093
1.0000093
1.0000093
1.0000093
1.0000093
1.0000094
1.0000094
1.0000094
1.0000094
1.0000094
1.0000094
1.0000094
1.0000094
1.0000094
1.0000093
1.0000093
1.0000093
1.0000093
1.0000093
1.0000093
1.0000093
1.0000093
1.0000093
1.0000093
1.0000093
1.0000093
1.0000093
1.0000093
1.0000093
1.0000093
1.0000093
1.0000093
1.0000093
1.0000093
1.0000093
1.0000093
1.0000093
1.0000093
1.0000093
1.0000093
1.0000093
1.0000093
1.0000094
1.0000094
1.0000094
1.0000094
1.0000094
1.0000094
1.0000092
1.0000089
1.0000081
1.0000068
1.0000254
1.0000281
1.0000311
1.0000344
1.0000379
1.0000417
1.0000459
1.0000502
1.0000549
1.0000599
1.0000652
1.0000708
1.0000767
1.0000828
1.0000892
1.0000958
1.0001025
1.0001092
1.000116
1.0001226
1.0001288
1.0001347
1.0001399
1.0001443
1.0001477
1.0001499
1.0001506
1.0001498
1.0001472
1.0001429
1.0001367
1.0001285
1.0001197
1.0001077
1.0000945
1.0000801
1.0000652
1.0000489
1.0000325
1.0000158
0.99999862
0.99998111
0.99996353
0.9999462
0.99992903
0.99991221
0.99989596
0.9998804
0.99986568
0.99985176
0.99983843
0.99982566
0.99981356
0.99980214
0.9997914
0.99978136
0.99977199
0.99976322
0.99975498
0.99974726
0.99974004
0.99973331
0.99972704
0.99972119
0.99971574
0.99971067
0.99970596
0.99970159
0.99969754
0.99969379
0.99969031
0.99968709
0.9996841
0.99968136
1.0000297
1.0000328
1.0000361
1.0000397
1.0000436
1.0000478
1.0000524
1.0000572
1.0000624
1.000068
1.0000738
1.00008
1.0000865
1.0000933
1.0001003
1.0001074
1.0001147
1.000122
1.0001292
1.0001361
1.0001426
1.0001485
1.0001536
1.0001576
1.0001604
1.0001616
1.0001611
1.0001588
1.0001544
1.0001479
1.0001392
1.0001282
1.0001155
1.0001008
1.0000843
1.0000662
1.000047
1.0000267
1.0000057
0.99998453
0.99996331
0.99994224
0.99992139
0.99990096
0.99988077
0.99986162
0.99984313
0.99982616
0.99981036
0.99979422
0.99977873
0.99976406
0.99975022
0.99973718
0.99972496
0.99971352
0.99970284
0.99969276
0.9996833
0.9996745
0.99966633
0.99965874
0.99965171
0.99964518
0.99963911
0.99963349
0.99962828
0.99962347
0.99961902
0.99961491
0.99961109
0.99960757
0.99960431
0.99960132
1.000033
1.0000364
1.0000401
1.0000441
1.0000484
1.0000531
1.0000581
1.0000635
1.0000693
1.0000755
1.000082
1.0000889
1.0000962
1.0001037
1.0001115
1.0001195
1.0001276
1.0001357
1.0001437
1.0001514
1.0001585
1.000165
1.0001705
1.0001748
1.0001777
1.0001787
1.0001778
1.0001747
1.0001693
1.0001612
1.0001507
1.0001376
1.000122
1.0001043
1.0000845
1.0000629
1.0000399
1.0000158
0.99999076
0.99996521
0.99993948
0.99991387
0.99988856
0.99986378
0.9998396
0.99981622
0.99979367
0.99977202
0.99975138
0.99973179
0.99971328
0.99969579
0.99967931
0.99966375
0.99964931
0.99963505
0.99962145
0.99960925
0.99959852
0.99958857
0.99957923
0.99957049
0.99956234
0.99955473
0.99954787
0.99954146
0.99953548
0.9995299
0.9995247
0.99951987
0.99951538
0.99951121
0.99950733
0.99950374
1.0000349
1.0000386
1.0000426
1.0000469
1.0000516
1.0000567
1.0000621
1.000068
1.0000743
1.000081
1.0000881
1.0000956
1.0001035
1.0001118
1.0001204
1.0001292
1.0001381
1.0001471
1.000156
1.0001645
1.0001726
1.0001799
1.0001862
1.0001912
1.0001946
1.0001961
1.0001955
1.0001925
1.0001869
1.0001786
1.0001674
1.0001534
1.0001366
1.0001173
1.0000957
1.000072
1.0000467
1.0000201
0.99999237
0.99996394
0.99993517
0.99990638
0.99987782
0.99984971
0.99982228
0.9997957
0.99977003
0.99974529
0.99972156
0.99969893
0.99967748
0.99965718
0.99963803
0.99961994
0.9996031
0.99958671
0.99957188
0.99955818
0.99954528
0.99953315
0.99952184
0.9995113
0.99950153
0.9994924
0.9994841
0.99947649
0.99946943
0.99946287
0.9994567
0.99945089
0.9994455
0.9994405
0.99943588
0.99943157
1.000036
1.0000398
1.000044
1.0000486
1.0000536
1.0000589
1.0000647
1.0000709
1.0000776
1.0000847
1.0000923
1.0001003
1.0001088
1.0001176
1.0001268
1.0001363
1.000146
1.0001557
1.0001654
1.0001748
1.0001836
1.0001918
1.000199
1.0002048
1.000209
1.0002113
1.0002114
1.000209
1.0002038
1.0001958
1.0001848
1.0001708
1.000154
1.0001344
1.0001122
1.0000879
1.0000617
1.000034
1.0000052
0.99997544
0.99994525
0.99991494
0.99988475
0.99985496
0.99982579
0.99979744
0.99976999
0.99974348
0.999718
0.99969364
0.99967048
0.99964851
0.99962773
0.9996081
0.99958962
0.99957227
0.99955603
0.99954084
0.99952661
0.99951331
0.9995009
0.99948932
0.99947854
0.99946851
0.99945918
0.99945052
0.99944246
0.99943506
0.99942797
0.99942138
0.9994153
0.99940972
0.99940456
0.99939988
1.0000366
1.0000405
1.0000449
1.0000496
1.0000547
1.0000603
1.0000663
1.0000728
1.0000797
1.0000872
1.0000951
1.0001035
1.0001124
1.0001217
1.0001314
1.0001414
1.0001516
1.000162
1.0001723
1.0001824
1.000192
1.0002009
1.0002088
1.0002155
1.0002205
1.0002236
1.0002244
1.0002227
1.0002182
1.0002108
1.0002004
1.0001869
1.0001704
1.0001511
1.0001292
1.000105
1.0000789
1.0000511
1.0000221
0.99999209
0.99996158
0.99993088
0.99990025
0.99986995
0.99984023
0.99981128
0.99978321
0.99975606
0.99972994
0.99970493
0.99968111
0.99965848
0.99963705
0.99961679
0.99959769
0.99957974
0.99956292
0.99954716
0.99953239
0.99951857
0.99950566
0.99949362
0.9994824
0.99947195
0.99946222
0.99945318
0.99944479
0.999437
0.99942978
0.99942309
0.99941689
0.99941115
0.99940584
0.99940094
1.0000369
1.0000409
1.0000453
1.0000502
1.0000554
1.0000611
1.0000673
1.000074
1.0000811
1.0000888
1.0000969
1.0001056
1.0001148
1.0001245
1.0001345
1.0001449
1.0001556
1.0001664
1.0001773
1.0001879
1.0001981
1.0002076
1.0002162
1.0002235
1.0002292
1.0002329
1.0002344
1.0002334
1.0002297
1.0002229
1.0002131
1.0002002
1.0001843
1.0001655
1.000144
1.0001202
1.0000945
1.000067
1.0000382
1.0000085
0.99997817
0.99994761
0.99991708
0.99988686
0.99985717
0.99982822
0.99980012
0.99977294
0.99974677
0.9997217
0.99969779
0.99967507
0.99965354
0.99963318
0.99961398
0.99959592
0.99957898
0.99956309
0.99954821
0.99953428
0.99952127
0.99950913
0.99949781
0.99948727
0.99947747
0.99946835
0.99945987
0.99945201
0.99944472
0.99943796
0.9994317
0.9994259
0.99942053
0.99941557
1.000037
1.0000411
1.0000456
1.0000505
1.0000558
1.0000616
1.0000679
1.0000747
1.000082
1.0000898
1.0000982
1.0001071
1.0001165
1.0001264
1.0001367
1.0001474
1.0001584
1.0001696
1.0001808
1.0001918
1.0002025
1.0002125
1.0002216
1.0002294
1.0002356
1.0002399
1.000242
1.0002416
1.0002384
1.0002322
1.0002229
1.0002105
1.0001951
1.0001768
1.0001558
1.0001325
1.0001071
1.00008
1.0000516
1.0000222
0.99999217
0.99996188
0.9999316
0.9999016
0.99987211
0.99984333
0.99981539
0.99978835
0.99976231
0.99973737
0.99971357
0.99969095
0.9996695
0.99964922
0.99963009
0.99961209
0.9995952
0.99957935
0.99956451
0.99955062
0.99953765
0.99952553
0.99951424
0.99950372
0.99949394
0.99948484
0.99947639
0.99946854
0.99946127
0.99945453
0.99944828
0.99944249
0.99943714
0.99943219
1.0000371
1.0000412
1.0000457
1.0000507
1.0000561
1.000062
1.0000683
1.0000752
1.0000826
1.0000905
1.000099
1.000108
1.0001176
1.0001277
1.0001382
1.0001491
1.0001604
1.0001719
1.0001833
1.0001947
1.0002057
1.000216
1.0002255
1.0002337
1.0002403
1.0002451
1.0002476
1.0002476
1.0002448
1.0002391
1.0002302
1.0002183
1.0002033
1.0001854
1.0001648
1.0001418
1.0001167
1.00009
1.0000618
1.0000327
1.0000029
0.99997284
0.99994277
0.99991296
0.99988365
0.99985503
0.99982723
0.99980033
0.99977443
0.99974961
0.99972592
0.99970341
0.99968205
0.99966186
0.99964281
0.99962488
0.99960805
0.99959226
0.99957748
0.99956364
0.99955071
0.99953864
0.9995274
0.99951692
0.99950718
0.99949812
0.9994897
0.99948189
0.99947464
0.99946793
0.9994617
0.99945594
0.9994506
0.99944567
1.0000371
1.0000412
1.0000458
1.0000508
1.0000562
1.0000621
1.0000685
1.0000755
1.0000829
1.0000909
1.0000995
1.0001087
1.0001183
1.0001285
1.0001392
1.0001503
1.0001618
1.0001734
1.0001851
1.0001967
1.0002079
1.0002185
1.0002283
1.0002368
1.0002437
1.0002488
1.0002515
1.0002519
1.0002495
1.0002441
1.0002356
1.000224
1.0002093
1.0001917
1.0001714
1.0001486
1.0001238
1.0000973
1.0000693
1.0000404
1.0000107
0.99998083
0.9999509
0.99992122
0.99989202
0.9998635
0.99983579
0.99980897
0.99978315
0.99975841
0.99973479
0.99971233
0.99969104
0.9996709
0.9996519
0.99963402
0.99961722
0.99960147
0.99958671
0.9995729
0.99956
0.99954796
0.99953674
0.99952629
0.99951657
0.99950753
0.99949913
0.99949133
0.9994841
0.9994774
0.99947119
0.99946544
0.99946012
0.9994552
1.0000371
1.0000412
1.0000458
1.0000509
1.0000563
1.0000622
1.0000687
1.0000757
1.0000832
1.0000912
1.0000999
1.0001091
1.0001189
1.0001292
1.00014
1.0001512
1.0001627
1.0001745
1.0001864
1.0001981
1.0002095
1.0002203
1.0002303
1.000239
1.0002462
1.0002515
1.0002544
1.0002551
1.0002529
1.0002478
1.0002395
1.0002281
1.0002137
1.0001963
1.0001761
1.0001536
1.0001289
1.0001025
1.0000747
1.0000459
1.0000164
0.99998655
0.9999567
0.99992709
0.99989795
0.99986947
0.9998418
0.99981503
0.99978925
0.99976454
0.99974096
0.99971853
0.99969726
0.99967714
0.99965816
0.9996403
0.99962351
0.99960777
0.99959302
0.99957923
0.99956634
0.99955431
0.9995431
0.99953266
0.99952294
0.99951391
0.99950553
0.99949774
0.99949052
0.99948383
0.99947762
0.99947188
0.99946656
0.99946164
1.0000371
1.0000413
1.0000458
1.0000509
1.0000563
1.0000623
1.0000688
1.0000758
1.0000833
1.0000914
1.0001001
1.0001094
1.0001192
1.0001296
1.0001404
1.0001517
1.0001634
1.0001753
1.0001873
1.0001991
1.0002106
1.0002216
1.0002317
1.0002406
1.0002479
1.0002534
1.0002567
1.0002575
1.0002555
1.0002505
1.0002424
1.0002312
1.0002169
1.0001996
1.0001796
1.0001572
1.0001327
1.0001064
1.0000786
1.0000499
1.0000204
0.99999067
0.99996087
0.99993129
0.99990218
0.99987373
0.99984607
0.99981931
0.99979354
0.99976885
0.99974528
0.99972286
0.99970159
0.99968148
0.9996625
0.99964464
0.99962785
0.99961211
0.99959736
0.99958356
0.99957067
0.99955864
0.99954743
0.99953699
0.99952727
0.99951824
0.99950986
0.99950207
0.99949485
0.99948815
0.99948195
0.99947621
0.99947089
0.99946597
1.0000371
1.0000412
1.0000458
1.0000509
1.0000564
1.0000623
1.0000688
1.0000758
1.0000834
1.0000915
1.0001003
1.0001096
1.0001194
1.0001298
1.0001408
1.0001521
1.0001639
1.0001758
1.0001879
1.0001998
1.0002114
1.0002225
1.0002327
1.0002417
1.0002492
1.0002548
1.0002582
1.0002592
1.0002573
1.0002524
1.0002445
1.0002334
1.0002193
1.0002022
1.0001823
1.00016
1.0001355
1.0001093
1.0000816
1.0000529
1.0000235
0.9999938
0.99996402
0.99993446
0.99990536
0.9998769
0.99984924
0.99982248
0.99979671
0.99977201
0.99974844
0.99972601
0.99970474
0.99968461
0.99966563
0.99964775
0.99963095
0.9996152
0.99960044
0.99958663
0.99957373
0.99956169
0.99955048
0.99954003
0.99953031
0.99952128
0.99951288
0.9995051
0.99949787
0.99949117
0.99948496
0.99947921
0.99947389
0.99946896
1.0000371
1.0000412
1.0000458
1.0000509
1.0000564
1.0000623
1.0000688
1.0000759
1.0000834
1.0000916
1.0001003
1.0001097
1.0001196
1.00013
1.000141
1.0001524
1.0001642
1.0001762
1.0001883
1.0002003
1.000212
1.0002231
1.0002334
1.0002425
1.0002501
1.0002557
1.0002596
1.0002604
1.0002586
1.0002539
1.0002461
1.0002352
1.0002212
1.0002042
1.0001844
1.0001622
1.0001378
1.0001117
1.0000841
1.0000554
1.0000261
0.99999635
0.99996659
0.99993704
0.99990793
0.99987947
0.99985179
0.99982501
0.99979924
0.99977453
0.99975094
0.99972849
0.9997072
0.99968707
0.99966806
0.99965017
0.99963336
0.99961758
0.99960281
0.99958898
0.99957607
0.99956403
0.9995528
0.99954234
0.99953261
0.99952357
0.99951517
0.99950737
0.99950014
0.99949343
0.99948722
0.99948146
0.99947613
0.9994712
1.0000371
1.0000412
1.0000458
1.0000509
1.0000564
1.0000623
1.0000688
1.0000759
1.0000835
1.0000916
1.0001004
1.0001097
1.0001197
1.0001301
1.0001411
1.0001526
1.0001644
1.0001764
1.0001885
1.0002006
1.0002124
1.0002235
1.0002339
1.000243
1.0002507
1.0002565
1.0002604
1.0002614
1.0002597
1.0002551
1.0002475
1.0002367
1.0002228
1.0002059
1.0001863
1.0001642
1.0001399
1.0001138
1.0000863
1.0000577
1.0000283
0.99999866
0.99996891
0.99993936
0.99991025
0.99988178
0.99985408
0.99982729
0.99980149
0.99977676
0.99975315
0.99973069
0.99970938
0.99968922
0.99967019
0.99965228
0.99963544
0.99961965
0.99960485
0.99959101
0.99957808
0.99956602
0.99955478
0.99954431
0.99953457
0.99952551
0.9995171
0.99950929
0.99950205
0.99949534
0.99948912
0.99948335
0.99947802
0.99947308
1.0000371
1.0000412
1.0000458
1.0000509
1.0000564
1.0000623
1.0000688
1.0000759
1.0000835
1.0000917
1.0001004
1.0001098
1.0001197
1.0001302
1.0001412
1.0001526
1.0001645
1.0001765
1.0001887
1.0002008
1.0002126
1.0002238
1.0002342
1.0002435
1.0002512
1.0002571
1.0002608
1.0002621
1.0002607
1.0002562
1.0002487
1.0002381
1.0002243
1.0002076
1.0001881
1.0001661
1.0001419
1.0001159
1.0000885
1.0000599
1.0000306
1.000001
0.99997124
0.9999417
0.99991258
0.99988409
0.99985638
0.99982956
0.99980374
0.99977899
0.99975535
0.99973286
0.99971152
0.99969134
0.99967229
0.99965435
0.99963749
0.99962167
0.99960685
0.99959299
0.99958004
0.99956796
0.9995567
0.99954621
0.99953645
0.99952739
0.99951896
0.99951114
0.99950389
0.99949717
0.99949093
0.99948516
0.99947982
0.99947488
1.0000371
1.0000412
1.0000458
1.0000509
1.0000564
1.0000623
1.0000688
1.0000759
1.0000835
1.0000916
1.0001004
1.0001098
1.0001197
1.0001302
1.0001412
1.0001527
1.0001645
1.0001766
1.0001888
1.0002009
1.0002127
1.000224
1.0002345
1.0002438
1.0002516
1.0002576
1.0002614
1.0002628
1.0002615
1.0002572
1.0002499
1.0002394
1.0002258
1.0002093
1.00019
1.0001681
1.0001441
1.0001182
1.0000908
1.0000624
1.0000331
1.0000035
0.9999738
0.99994427
0.99991515
0.99988664
0.9998589
0.99983206
0.99980621
0.99978143