/*--------------------------------*- C++ -*----------------------------------*\
| =========                 |                                                 |
| \\      /  F ield         | OpenFOAM: The Open Source CFD Toolbox           |
|  \\    /   O peration     | Version:  v2006                                 |
|   \\  /    A nd           | Website:  www.openfoam.com                      |
|    \\/     M anipulation  |                                                 |
\*---------------------------------------------------------------------------*/
FoamFile
{
    version     2.0;
    format      ascii;
    class       volScalarField;
    location    "4000";
    object      TMean;
}
// * * * * * * * * * * * * * * * * * * * * * * * * * * * * * * * * * * * * * //

dimensions      [0 0 0 1 0 0 0];


internalField   nonuniform List<scalar> 
55713
(
1.0000075
1.0000089
1.0000098
1.0000101
1.0000103
1.0000103
1.0000103
1.0000102
1.0000102
1.0000102
1.0000102
1.0000103
1.0000103
1.0000103
1.0000103
1.0000103
1.0000103
1.0000102
1.0000102
1.0000102
1.0000102
1.0000102
1.0000102
1.0000102
1.0000102
1.0000102
1.0000102
1.0000102
1.0000102
1.0000102
1.0000102
1.0000102
1.0000102
1.0000102
1.0000102
1.0000102
1.0000102
1.0000102
1.0000102
1.0000103
1.0000103
1.0000103
1.0000102
1.0000102
1.0000102
1.0000102
1.0000102
1.0000102
1.0000102
1.0000102
1.0000102
1.0000102
1.0000102
1.0000102
1.0000102
1.0000102
1.0000102
1.0000102
1.0000102
1.0000071
1.0000085
1.0000092
1.0000095
1.0000096
1.0000096
1.0000096
1.0000096
1.0000096
1.0000096
1.0000096
1.0000096
1.0000096
1.0000096
1.0000096
1.0000096
1.0000096
1.0000096
1.0000096
1.0000096
1.0000096
1.0000096
1.0000096
1.0000096
1.0000096
1.0000096
1.0000095
1.0000095
1.0000095
1.0000095
1.0000095
1.0000096
1.0000096
1.0000096
1.0000096
1.0000096
1.0000096
1.0000096
1.0000096
1.0000096
1.0000096
1.0000096
1.0000096
1.0000096
1.0000096
1.0000096
1.0000096
1.0000096
1.0000096
1.0000096
1.0000096
1.0000096
1.0000096
1.0000096
1.0000096
1.0000096
1.0000096
1.0000096
1.0000096
1.0000068
1.0000081
1.0000088
1.000009
1.000009
1.000009
1.000009
1.000009
1.000009
1.000009
1.000009
1.000009
1.000009
1.000009
1.000009
1.000009
1.000009
1.000009
1.000009
1.000009
1.000009
1.000009
1.000009
1.000009
1.000009
1.000009
1.000009
1.000009
1.000009
1.000009
1.000009
1.000009
1.000009
1.000009
1.000009
1.000009
1.000009
1.000009
1.000009
1.000009
1.000009
1.000009
1.000009
1.000009
1.000009
1.000009
1.000009
1.000009
1.000009
1.000009
1.000009
1.000009
1.000009
1.000009
1.000009
1.000009
1.000009
1.000009
1.000009
1.0000066
1.0000078
1.0000083
1.0000085
1.0000085
1.0000085
1.0000085
1.0000085
1.0000085
1.0000085
1.0000085
1.0000085
1.0000085
1.0000085
1.0000085
1.0000085
1.0000085
1.0000085
1.0000085
1.0000085
1.0000085
1.0000085
1.0000085
1.0000085
1.0000085
1.0000085
1.0000085
1.0000085
1.0000085
1.0000085
1.0000085
1.0000085
1.0000085
1.0000085
1.0000085
1.0000085
1.0000085
1.0000085
1.0000085
1.0000085
1.0000085
1.0000085
1.0000085
1.0000085
1.0000085
1.0000085
1.0000085
1.0000085
1.0000085
1.0000085
1.0000085
1.0000085
1.0000085
1.0000085
1.0000085
1.0000085
1.0000085
1.0000085
1.0000085
1.0000063
1.0000075
1.000008
1.0000081
1.0000081
1.0000081
1.0000081
1.000008
1.000008
1.0000081
1.0000081
1.0000081
1.0000081
1.0000081
1.0000081
1.0000081
1.0000081
1.000008
1.000008
1.000008
1.000008
1.000008
1.000008
1.000008
1.000008
1.000008
1.000008
1.000008
1.000008
1.000008
1.000008
1.000008
1.000008
1.000008
1.000008
1.0000081
1.000008
1.000008
1.000008
1.0000081
1.0000081
1.0000081
1.0000081
1.0000081
1.0000081
1.0000081
1.0000081
1.0000081
1.0000081
1.0000081
1.0000081
1.0000081
1.0000081
1.0000081
1.0000081
1.0000081
1.0000081
1.0000081
1.0000081
1.0000062
1.0000072
1.0000076
1.0000077
1.0000077
1.0000077
1.0000077
1.0000077
1.0000077
1.0000077
1.0000077
1.0000077
1.0000077
1.0000077
1.0000077
1.0000077
1.0000077
1.0000077
1.0000077
1.0000077
1.0000077
1.0000077
1.0000077
1.0000077
1.0000076
1.0000076
1.0000076
1.0000076
1.0000076
1.0000076
1.0000076
1.0000076
1.0000076
1.0000077
1.0000077
1.0000077
1.0000077
1.0000077
1.0000077
1.0000077
1.0000077
1.0000077
1.0000077
1.0000077
1.0000077
1.0000077
1.0000077
1.0000077
1.0000077
1.0000077
1.0000077
1.0000077
1.0000077
1.0000077
1.0000077
1.0000077
1.0000077
1.0000077
1.0000077
1.000006
1.000007
1.0000073
1.0000074
1.0000074
1.0000074
1.0000073
1.0000073
1.0000073
1.0000074
1.0000074
1.0000073
1.0000073
1.0000074
1.0000074
1.0000073
1.0000073
1.0000073
1.0000073
1.0000073
1.0000073
1.0000073
1.0000073
1.0000073
1.0000073
1.0000073
1.0000073
1.0000073
1.0000073
1.0000073
1.0000073
1.0000073
1.0000073
1.0000073
1.0000073
1.0000073
1.0000073
1.0000073
1.0000073
1.0000073
1.0000074
1.0000074
1.0000074
1.0000073
1.0000073
1.0000073
1.0000074
1.0000074
1.0000074
1.0000074
1.0000074
1.0000074
1.0000074
1.0000074
1.0000074
1.0000074
1.0000074
1.0000074
1.0000074
1.0000059
1.0000068
1.0000071
1.0000071
1.0000071
1.0000071
1.000007
1.0000071
1.0000071
1.0000071
1.0000071
1.0000071
1.0000071
1.0000071
1.0000071
1.0000071
1.000007
1.000007
1.000007
1.000007
1.000007
1.000007
1.000007
1.000007
1.000007
1.000007
1.000007
1.000007
1.000007
1.000007
1.000007
1.000007
1.000007
1.000007
1.000007
1.000007
1.000007
1.000007
1.000007
1.000007
1.0000071
1.0000071
1.0000071
1.0000071
1.000007
1.000007
1.0000071
1.0000071
1.0000071
1.0000071
1.0000071
1.0000071
1.0000071
1.0000071
1.0000071
1.0000071
1.0000071
1.0000071
1.0000071
1.0000059
1.0000067
1.0000069
1.0000069
1.0000069
1.0000069
1.0000068
1.0000069
1.0000069
1.0000069
1.0000069
1.0000068
1.0000069
1.0000069
1.0000069
1.0000068
1.0000068
1.0000068
1.0000068
1.0000068
1.0000068
1.0000068
1.0000068
1.0000068
1.0000068
1.0000068
1.0000068
1.0000068
1.0000068
1.0000068
1.0000068
1.0000068
1.0000068
1.0000068
1.0000068
1.0000068
1.0000068
1.0000068
1.0000068
1.0000068
1.0000068
1.0000069
1.0000069
1.0000068
1.0000068
1.0000068
1.0000069
1.0000069
1.0000069
1.0000069
1.0000069
1.0000069
1.0000069
1.0000069
1.0000069
1.0000069
1.0000069
1.0000069
1.0000069
1.0000059
1.0000067
1.0000067
1.0000067
1.0000067
1.0000067
1.0000067
1.0000067
1.0000067
1.0000067
1.0000067
1.0000067
1.0000067
1.0000067
1.0000067
1.0000066
1.0000066
1.0000066
1.0000066
1.0000067
1.0000066
1.0000066
1.0000066
1.0000066
1.0000066
1.0000066
1.0000066
1.0000066
1.0000066
1.0000066
1.0000066
1.0000066
1.0000066
1.0000066
1.0000066
1.0000067
1.0000067
1.0000067
1.0000066
1.0000066
1.0000066
1.0000067
1.0000067
1.0000067
1.0000067
1.0000066
1.0000067
1.0000067
1.0000067
1.0000067
1.0000067
1.0000067
1.0000067
1.0000067
1.0000067
1.0000067
1.0000067
1.0000067
1.0000067
1.0000057
1.0000064
1.0000064
1.0000064
1.0000063
1.0000063
1.0000063
1.0000064
1.0000063
1.0000063
1.0000063
1.0000063
1.0000063
1.0000063
1.0000063
1.0000062
1.0000062
1.0000063
1.0000063
1.0000063
1.0000063
1.0000063
1.0000062
1.0000062
1.0000062
1.0000062
1.0000062
1.0000062
1.0000062
1.0000062
1.0000062
1.0000062
1.0000062
1.0000062
1.0000063
1.0000063
1.0000063
1.0000063
1.0000063
1.0000063
1.0000063
1.0000063
1.0000063
1.0000063
1.0000063
1.0000063
1.0000063
1.0000063
1.0000063
1.0000063
1.0000063
1.0000063
1.0000063
1.0000063
1.0000063
1.0000064
1.0000064
1.0000063
1.0000063
1.0000056
1.0000065
1.0000062
1.0000064
1.0000063
1.0000061
1.0000063
1.0000063
1.0000062
1.0000061
1.0000061
1.0000062
1.0000062
1.0000062
1.0000061
1.000006
1.0000061
1.0000061
1.0000061
1.0000061
1.0000061
1.0000061
1.000006
1.000006
1.000006
1.000006
1.000006
1.000006
1.000006
1.000006
1.000006
1.000006
1.000006
1.000006
1.000006
1.0000061
1.0000061
1.0000061
1.0000061
1.0000061
1.0000061
1.000006
1.0000061
1.0000061
1.0000061
1.0000061
1.0000061
1.0000061
1.0000061
1.0000061
1.0000061
1.0000062
1.000006
1.0000063
1.0000062
1.0000062
1.0000065
1.0000061
1.0000061
1.0000073
1.0000078
1.0000074
1.0000078
1.0000074
1.0000074
1.0000077
1.0000075
1.0000075
1.0000075
1.0000075
1.0000077
1.0000076
1.0000075
1.0000075
1.0000075
1.0000076
1.0000076
1.0000076
1.0000076
1.0000076
1.0000076
1.0000076
1.0000076
1.0000076
1.0000076
1.0000076
1.0000076
1.0000076
1.0000076
1.0000076
1.0000076
1.0000076
1.0000076
1.0000076
1.0000076
1.0000076
1.0000076
1.0000076
1.0000076
1.0000075
1.0000075
1.0000075
1.0000076
1.0000076
1.0000075
1.0000076
1.0000076
1.0000076
1.0000076
1.0000076
1.0000076
1.0000075
1.0000075
1.0000076
1.0000074
1.0000078
1.0000075
1.0000075
1.0000059
1.0000046
1.0000052
1.0000047
1.0000053
1.0000055
1.000005
1.0000051
1.0000053
1.0000052
1.0000052
1.0000049
1.0000049
1.0000049
1.0000049
1.0000049
1.0000048
1.0000047
1.0000046
1.0000046
1.0000045
1.0000045
1.0000045
1.0000045
1.0000045
1.0000045
1.0000045
1.0000045
1.0000045
1.0000045
1.0000045
1.0000045
1.0000045
1.0000045
1.0000045
1.0000045
1.0000045
1.0000046
1.0000048
1.0000048
1.000005
1.0000051
1.0000052
1.0000053
1.0000054
1.0000055
1.0000054
1.0000053
1.0000053
1.0000054
1.0000055
1.0000055
1.0000057
1.0000054
1.0000053
1.0000054
1.0000047
1.0000057
1.0000057
1.0000385
1.0000385
1.0000385
1.0000386
1.0000386
1.0000386
1.0000386
1.0000387
1.0000387
1.0000387
1.0000387
1.0000387
1.0000388
1.0000388
1.0000388
1.0000388
1.0000388
1.0000388
1.0000388
1.0000388
1.0000389
1.0000389
1.0000389
1.0000389
1.0000389
1.0000389
1.0000389
1.0000389
1.0000389
1.0000389
1.0000389
1.0000389
1.0000389
1.0000389
1.0000389
1.0000389
1.000039
1.000039
1.000039
1.000039
1.000039
1.000039
1.000039
1.000039
1.000039
1.000039
1.000039
1.000039
1.000039
1.000039
1.000039
1.0000389
1.0000388
1.0000385
1.0000379
1.0000368
1.0000348
1.0000314
1.0000269
1.0000353
1.0000353
1.0000354
1.0000354
1.0000354
1.0000354
1.0000354
1.0000355
1.0000355
1.0000355
1.0000355
1.0000355
1.0000355
1.0000356
1.0000356
1.0000356
1.0000356
1.0000356
1.0000356
1.0000356
1.0000356
1.0000356
1.0000356
1.0000356
1.0000356
1.0000356
1.0000356
1.0000356
1.0000356
1.0000356
1.0000356
1.0000357
1.0000357
1.0000357
1.0000357
1.0000357
1.0000357
1.0000357
1.0000357
1.0000357
1.0000357
1.0000357
1.0000357
1.0000357
1.0000357
1.0000357
1.0000357
1.0000357
1.0000357
1.0000357
1.0000357
1.0000357
1.0000355
1.0000353
1.0000347
1.0000337
1.0000319
1.0000288
1.0000246
1.0000323
1.0000323
1.0000324
1.0000324
1.0000324
1.0000324
1.0000324
1.0000324
1.0000324
1.0000325
1.0000325
1.0000325
1.0000325
1.0000325
1.0000325
1.0000325
1.0000326
1.0000326
1.0000326
1.0000326
1.0000326
1.0000326
1.0000326
1.0000326
1.0000326
1.0000326
1.0000326
1.0000326
1.0000326
1.0000326
1.0000326
1.0000326
1.0000326
1.0000326
1.0000326
1.0000326
1.0000326
1.0000327
1.0000327
1.0000327
1.0000327
1.0000327
1.0000327
1.0000327
1.0000327
1.0000327
1.0000327
1.0000327
1.0000327
1.0000327
1.0000327
1.0000326
1.0000325
1.0000323
1.0000318
1.0000309
1.0000292
1.0000263
1.0000226
1.0000295
1.0000295
1.0000296
1.0000296
1.0000296
1.0000296
1.0000296
1.0000296
1.0000296
1.0000296
1.0000297
1.0000297
1.0000297
1.0000297
1.0000297
1.0000297
1.0000297
1.0000297
1.0000297
1.0000298
1.0000298
1.0000298
1.0000298
1.0000297
1.0000297
1.0000297
1.0000297
1.0000298
1.0000298
1.0000298
1.0000298
1.0000298
1.0000298
1.0000298
1.0000298
1.0000298
1.0000298
1.0000298
1.0000298
1.0000298
1.0000298
1.0000298
1.0000298
1.0000298
1.0000298
1.0000298
1.0000298
1.0000298
1.0000298
1.0000298
1.0000298
1.0000298
1.0000297
1.0000295
1.0000291
1.0000282
1.0000267
1.000024
1.0000206
1.0000269
1.0000269
1.0000269
1.000027
1.000027
1.000027
1.000027
1.000027
1.000027
1.000027
1.000027
1.0000271
1.0000271
1.0000271
1.0000271
1.0000271
1.0000271
1.0000271
1.0000271
1.0000271
1.0000271
1.0000271
1.0000271
1.0000271
1.0000271
1.0000271
1.0000271
1.0000271
1.0000271
1.0000271
1.0000271
1.0000271
1.0000271
1.0000271
1.0000271
1.0000272
1.0000272
1.0000272
1.0000272
1.0000272
1.0000272
1.0000272
1.0000272
1.0000272
1.0000272
1.0000272
1.0000272
1.0000272
1.0000272
1.0000272
1.0000272
1.0000271
1.0000271
1.0000269
1.0000265
1.0000258
1.0000244
1.0000219
1.0000188
1.0000245
1.0000245
1.0000245
1.0000245
1.0000246
1.0000246
1.0000246
1.0000246
1.0000246
1.0000246
1.0000246
1.0000246
1.0000246
1.0000246
1.0000247
1.0000247
1.0000247
1.0000247
1.0000247
1.0000247
1.0000247
1.0000247
1.0000247
1.0000247
1.0000247
1.0000247
1.0000247
1.0000247
1.0000247
1.0000247
1.0000247
1.0000247
1.0000247
1.0000247
1.0000247
1.0000247
1.0000247
1.0000247
1.0000247
1.0000247
1.0000247
1.0000247
1.0000247
1.0000247
1.0000247
1.0000247
1.0000247
1.0000247
1.0000247
1.0000247
1.0000247
1.0000247
1.0000246
1.0000245
1.0000242
1.0000235
1.0000222
1.00002
1.0000171
1.0000223
1.0000223
1.0000223
1.0000223
1.0000223
1.0000223
1.0000223
1.0000223
1.0000223
1.0000224
1.0000224
1.0000224
1.0000224
1.0000224
1.0000224
1.0000224
1.0000224
1.0000224
1.0000224
1.0000224
1.0000224
1.0000224
1.0000224
1.0000224
1.0000224
1.0000224
1.0000224
1.0000224
1.0000224
1.0000224
1.0000224
1.0000224
1.0000224
1.0000224
1.0000224
1.0000224
1.0000224
1.0000224
1.0000225
1.0000225
1.0000225
1.0000225
1.0000225
1.0000225
1.0000225
1.0000225
1.0000224
1.0000224
1.0000224
1.0000224
1.0000224
1.0000224
1.0000224
1.0000223
1.000022
1.0000214
1.0000203
1.0000182
1.0000156
1.0000202
1.0000202
1.0000202
1.0000202
1.0000202
1.0000203
1.0000203
1.0000203
1.0000203
1.0000203
1.0000203
1.0000203
1.0000203
1.0000203
1.0000203
1.0000203
1.0000203
1.0000203
1.0000203
1.0000203
1.0000203
1.0000203
1.0000203
1.0000203
1.0000203
1.0000203
1.0000203
1.0000203
1.0000203
1.0000203
1.0000203
1.0000203
1.0000203
1.0000203
1.0000203
1.0000203
1.0000204
1.0000204
1.0000204
1.0000204
1.0000204
1.0000204
1.0000204
1.0000204
1.0000204
1.0000204
1.0000204
1.0000204
1.0000203
1.0000204
1.0000204
1.0000204
1.0000203
1.0000202
1.00002
1.0000195
1.0000184
1.0000166
1.0000142
1.0000183
1.0000183
1.0000183
1.0000183
1.0000183
1.0000184
1.0000184
1.0000184
1.0000184
1.0000184
1.0000184
1.0000184
1.0000184
1.0000184
1.0000184
1.0000184
1.0000184
1.0000184
1.0000184
1.0000184
1.0000184
1.0000184
1.0000184
1.0000184
1.0000184
1.0000184
1.0000184
1.0000184
1.0000184
1.0000184
1.0000184
1.0000184
1.0000184
1.0000184
1.0000184
1.0000184
1.0000184
1.0000184
1.0000184
1.0000185
1.0000185
1.0000185
1.0000185
1.0000185
1.0000185
1.0000184
1.0000184
1.0000184
1.0000184
1.0000184
1.0000184
1.0000184
1.0000184
1.0000183
1.0000182
1.0000177
1.0000168
1.0000151
1.0000129
1.0000166
1.0000166
1.0000166
1.0000166
1.0000166
1.0000166
1.0000166
1.0000166
1.0000166
1.0000166
1.0000166
1.0000166
1.0000167
1.0000167
1.0000167
1.0000167
1.0000167
1.0000167
1.0000167
1.0000167
1.0000167
1.0000167
1.0000167
1.0000167
1.0000167
1.0000167
1.0000167
1.0000167
1.0000167
1.0000166
1.0000167
1.0000167
1.0000167
1.0000167
1.0000167
1.0000167
1.0000167
1.0000167
1.0000167
1.0000167
1.0000167
1.0000167
1.0000167
1.0000167
1.0000167
1.0000167
1.0000167
1.0000167
1.0000167
1.0000167
1.0000167
1.0000167
1.0000167
1.0000166
1.0000165
1.0000161
1.0000153
1.0000137
1.0000117
1.000015
1.000015
1.000015
1.000015
1.000015
1.000015
1.000015
1.000015
1.000015
1.000015
1.000015
1.0000151
1.0000151
1.0000151
1.0000151
1.0000151
1.0000151
1.0000151
1.0000151
1.0000151
1.0000151
1.0000151
1.0000151
1.0000151
1.0000151
1.0000151
1.0000151
1.0000151
1.0000151
1.0000151
1.0000151
1.0000151
1.0000151
1.0000151
1.0000151
1.0000151
1.0000151
1.0000151
1.0000151
1.0000151
1.0000151
1.0000151
1.0000151
1.0000151
1.0000151
1.0000151
1.0000151
1.0000151
1.0000151
1.0000151
1.0000151
1.0000151
1.0000151
1.0000151
1.0000149
1.0000146
1.0000139
1.0000125
1.0000106
1.0000136
1.0000136
1.0000136
1.0000136
1.0000136
1.0000136
1.0000136
1.0000136
1.0000136
1.0000136
1.0000136
1.0000136
1.0000136
1.0000136
1.0000136
1.0000136
1.0000136
1.0000136
1.0000136
1.0000136
1.0000136
1.0000136
1.0000136
1.0000136
1.0000136
1.0000136
1.0000136
1.0000136
1.0000136
1.0000136
1.0000136
1.0000136
1.0000136
1.0000136
1.0000136
1.0000136
1.0000136
1.0000136
1.0000136
1.0000136
1.0000136
1.0000136
1.0000136
1.0000136
1.0000136
1.0000136
1.0000136
1.0000136
1.0000136
1.0000136
1.0000136
1.0000136
1.0000136
1.0000136
1.0000135
1.0000133
1.0000127
1.0000114
1.0000097
1.0000123
1.0000123
1.0000123
1.0000123
1.0000123
1.0000123
1.0000123
1.0000123
1.0000123
1.0000123
1.0000123
1.0000123
1.0000123
1.0000123
1.0000123
1.0000123
1.0000123
1.0000123
1.0000123
1.0000123
1.0000123
1.0000123
1.0000123
1.0000123
1.0000123
1.0000123
1.0000123
1.0000123
1.0000123
1.0000123
1.0000123
1.0000123
1.0000123
1.0000123
1.0000123
1.0000123
1.0000123
1.0000123
1.0000123
1.0000123
1.0000123
1.0000123
1.0000123
1.0000123
1.0000123
1.0000123
1.0000123
1.0000123
1.0000123
1.0000123
1.0000123
1.0000123
1.0000123
1.0000123
1.0000123
1.0000121
1.0000116
1.0000104
1.0000088
1.0000111
1.0000111
1.0000111
1.0000111
1.0000111
1.0000111
1.0000111
1.0000111
1.0000111
1.0000111
1.0000111
1.0000111
1.0000111
1.0000111
1.0000111
1.0000111
1.0000111
1.0000111
1.0000111
1.0000111
1.0000111
1.0000111
1.0000111
1.0000111
1.0000111
1.0000111
1.0000111
1.0000111
1.0000111
1.0000111
1.0000111
1.0000111
1.0000111
1.0000111
1.0000111
1.0000111
1.0000111
1.0000111
1.0000111
1.0000111
1.0000111
1.0000112
1.0000112
1.0000112
1.0000112
1.0000112
1.0000112
1.0000112
1.0000111
1.0000111
1.0000111
1.0000111
1.0000112
1.0000112
1.0000111
1.000011
1.0000106
1.0000096
1.0000081
1.0000295
1.0000326
1.0000361
1.0000399
1.000044
1.0000484
1.0000532
1.0000584
1.0000639
1.0000697
1.000076
1.0000827
1.0000897
1.0000971
1.0001049
1.0001131
1.0001215
1.0001301
1.0001388
1.0001476
1.0001562
1.0001646
1.0001726
1.00018
1.0001866
1.0001921
1.0001965
1.0001994
1.0002008
1.0002005
1.0001986
1.0001948
1.0001895
1.0001827
1.0001742
1.0001643
1.0001534
1.0001415
1.0001288
1.0001158
1.0001024
1.0000889
1.0000753
1.0000618
1.0000484
1.0000352
1.0000223
1.0000097
0.99999764
0.99998607
0.99997504
0.99996444
0.99995437
0.99994487
0.99993594
0.99992756
0.99991972
0.9999124
0.99990556
0.99989917
0.9998932
0.99988763
0.99988243
0.99987759
0.99987308
0.99986888
0.99986498
0.99986134
0.99985796
0.99985482
0.9998519
0.99984918
0.99984666
0.99984433
1.0000344
1.0000379
1.0000418
1.0000459
1.0000505
1.0000554
1.0000606
1.0000663
1.0000724
1.0000789
1.0000859
1.0000933
1.0001011
1.0001093
1.0001178
1.0001267
1.0001358
1.0001452
1.0001545
1.0001639
1.000173
1.0001817
1.0001898
1.0001972
1.0002035
1.0002085
1.000212
1.0002139
1.0002138
1.0002118
1.0002078
1.0002017
1.0001937
1.0001838
1.0001723
1.0001592
1.000145
1.0001296
1.0001135
1.0000969
1.0000799
1.0000629
1.000046
1.0000294
1.0000131
0.99999727
0.99998199
0.99996734
0.99995348
0.99994026
0.99992768
0.99991573
0.99990437
0.99989364
0.99988355
0.99987408
0.99986521
0.99985687
0.99984904
0.99984171
0.99983486
0.99982847
0.99982253
0.999817
0.99981187
0.9998071
0.99980268
0.99979858
0.99979478
0.99979126
0.999788
0.99978499
0.99978219
0.99977964
1.0000381
1.000042
1.0000463
1.0000509
1.0000559
1.0000613
1.0000672
1.0000735
1.0000802
1.0000875
1.0000952
1.0001034
1.0001121
1.0001213
1.0001308
1.0001407
1.0001508
1.0001612
1.0001716
1.0001819
1.000192
1.0002016
1.0002105
1.0002184
1.0002252
1.0002304
1.000234
1.0002355
1.0002349
1.000232
1.0002267
1.000219
1.0002089
1.0001967
1.0001825
1.0001665
1.000149
1.0001303
1.0001107
1.0000905
1.0000699
1.0000491
1.0000285
1.0000081
0.99998821
0.99996884
0.99995013
0.99993213
0.9999149
0.99989848
0.99988289
0.99986814
0.99985421
0.9998411
0.99982877
0.99981718
0.99980621
0.99979591
0.99978635
0.99977749
0.99976928
0.99976165
0.99975457
0.999748
0.99974191
0.99973628
0.99973106
0.99972624
0.99972178
0.99971767
0.99971387
0.99971037
0.99970712
0.99970415
1.0000403
1.0000445
1.0000491
1.0000541
1.0000595
1.0000654
1.0000717
1.0000786
1.0000859
1.0000938
1.0001022
1.0001111
1.0001206
1.0001305
1.000141
1.0001518
1.000163
1.0001744
1.0001859
1.0001973
1.0002085
1.0002192
1.0002291
1.0002381
1.0002457
1.0002518
1.000256
1.000258
1.0002577
1.0002549
1.0002495
1.0002414
1.0002307
1.0002175
1.0002021
1.0001846
1.0001654
1.0001447
1.000123
1.0001005
1.0000774
1.0000542
1.0000309
1.0000078
0.99998521
0.99996315
0.99994177
0.99992116
0.99990139
0.99988248
0.99986448
0.99984741
0.99983125
0.99981601
0.99980166
0.99978817
0.99977544
0.99976355
0.99975246
0.9997421
0.99973245
0.99972348
0.99971514
0.9997074
0.99970023
0.9996936
0.99968747
0.9996818
0.99967656
0.99967172
0.99966724
0.99966312
0.9996593
0.99965582
1.0000416
1.000046
1.0000508
1.0000561
1.0000618
1.000068
1.0000747
1.0000819
1.0000897
1.000098
1.000107
1.0001165
1.0001266
1.0001372
1.0001484
1.00016
1.000172
1.0001843
1.0001968
1.0002092
1.0002214
1.0002332
1.0002442
1.0002542
1.0002629
1.00027
1.0002752
1.0002781
1.0002786
1.0002765
1.0002716
1.0002639
1.0002535
1.0002404
1.0002249
1.0002072
1.0001876
1.0001664
1.000144
1.0001206
1.0000966
1.0000722
1.0000478
1.0000235
0.99999953
0.99997612
0.99995337
0.99993138
0.99991023
0.99988995
0.99987061
0.99985221
0.99983476
0.99981827
0.99980272
0.99978808
0.99977434
0.99976147
0.99974942
0.99973817
0.99972767
0.99971789
0.99970878
0.99970031
0.99969244
0.99968514
0.99967837
0.9996721
0.99966629
0.9996609
0.99965591
0.9996513
0.99964703
0.99964312
1.0000422
1.0000468
1.0000518
1.0000572
1.0000631
1.0000696
1.0000765
1.0000841
1.0000922
1.0001009
1.0001102
1.0001201
1.0001307
1.0001419
1.0001536
1.0001659
1.0001785
1.0001916
1.0002048
1.000218
1.0002311
1.0002438
1.0002557
1.0002667
1.0002764
1.0002845
1.0002906
1.0002945
1.000296
1.0002947
1.0002907
1.0002837
1.000274
1.0002615
1.0002465
1.0002293
1.00021
1.000189
1.0001668
1.0001434
1.0001194
1.000095
1.0000704
1.0000459
1.0000217
0.99999795
0.99997486
0.99995249
0.99993093
0.99991024
0.99989047
0.99987163
0.99985375
0.99983683
0.99982085
0.99980579
0.99979165
0.99977838
0.99976595
0.99975433
0.99974348
0.99973336
0.99972394
0.99971517
0.99970701
0.99969944
0.99969242
0.99968591
0.99967988
0.9996743
0.99966914
0.99966437
0.99965996
0.99965589
1.0000426
1.0000473
1.0000524
1.0000579
1.000064
1.0000706
1.0000777
1.0000854
1.0000938
1.0001027
1.0001124
1.0001226
1.0001335
1.0001451
1.0001572
1.00017
1.0001832
1.0001967
1.0002105
1.0002244
1.0002382
1.0002516
1.0002643
1.0002761
1.0002866
1.0002955
1.0003025
1.0003073
1.0003096
1.0003092
1.000306
1.0002998
1.0002909
1.0002791
1.0002648
1.0002482
1.0002295
1.0002091
1.0001873
1.0001644
1.0001407
1.0001166
1.0000923
1.0000681
1.0000441
1.0000206
0.99999761
0.99997537
0.99995391
0.99993329
0.99991358
0.99989478
0.99987693
0.99986002
0.99984404
0.99982898
0.99981482
0.99980153
0.99978909
0.99977744
0.99976656
0.99975641
0.99974695
0.99973814
0.99972996
0.99972235
0.99971529
0.99970875
0.99970269
0.99969707
0.99969188
0.99968708
0.99968264
0.99967856
1.0000428
1.0000475
1.0000527
1.0000583
1.0000645
1.0000712
1.0000785
1.0000863
1.0000948
1.000104
1.0001138
1.0001243
1.0001355
1.0001473
1.0001598
1.0001729
1.0001864
1.0002004
1.0002147
1.0002291
1.0002433
1.0002573
1.0002706
1.000283
1.0002942
1.0003038
1.0003115
1.000317
1.00032
1.0003203
1.0003177
1.0003123
1.000304
1.0002929
1.0002792
1.0002632
1.000245
1.0002251
1.0002038
1.0001814
1.0001582
1.0001345
1.0001106
1.0000867
1.000063
1.0000398
1.0000171
0.99999507
0.99997384
0.99995343
0.9999339
0.99991528
0.99989758
0.99988082
0.99986497
0.99985003
0.99983598
0.99982279
0.99981043
0.99979887
0.99978806
0.99977798
0.99976858
0.99975983
0.9997517
0.99974414
0.99973712
0.99973062
0.99972459
0.99971901
0.99971384
0.99970907
0.99970466
0.9997006
1.0000429
1.0000476
1.0000529
1.0000586
1.0000648
1.0000716
1.0000789
1.0000869
1.0000955
1.0001048
1.0001148
1.0001254
1.0001368
1.0001489
1.0001616
1.0001749
1.0001887
1.000203
1.0002176
1.0002324
1.0002471
1.0002614
1.0002752
1.0002881
1.0002997
1.0003099
1.0003181
1.0003241
1.0003276
1.0003285
1.0003265
1.0003216
1.0003139
1.0003033
1.0002901
1.0002745
1.0002568
1.0002373
1.0002164
1.0001944
1.0001715
1.0001481
1.0001245
1.0001008
1.0000774
1.0000544
1.000032
1.0000102
0.9999891
0.99996886
0.99994949
0.99993101
0.99991345
0.99989681
0.99988107
0.99986624
0.99985229
0.99983919
0.99982691
0.99981542
0.99980469
0.99979467
0.99978533
0.99977664
0.99976856
0.99976106
0.99975409
0.99974763
0.99974164
0.9997361
0.99973097
0.99972624
0.99972186
0.99971783
1.0000429
1.0000477
1.000053
1.0000587
1.000065
1.0000718
1.0000792
1.0000873
1.000096
1.0001054
1.0001154
1.0001262
1.0001377
1.0001499
1.0001628
1.0001763
1.0001904
1.0002049
1.0002198
1.0002348
1.0002497
1.0002644
1.0002785
1.0002918
1.0003038
1.0003143
1.0003229
1.0003293
1.0003333
1.0003346
1.000333
1.0003285
1.0003211
1.0003109
1.0002981
1.0002828
1.0002655
1.0002463
1.0002256
1.0002038
1.0001812
1.000158
1.0001346
1.0001111
1.0000879
1.000065
1.0000427
1.000021
1
0.99997991
0.99996063
0.99994223
0.99992475
0.99990818
0.99989251
0.99987774
0.99986385
0.9998508
0.99983857
0.99982713
0.99981644
0.99980646
0.99979716
0.99978851
0.99978046
0.99977299
0.99976605
0.99975962
0.99975366
0.99974814
0.99974304
0.99973833
0.99973397
0.99972997
1.0000429
1.0000477
1.000053
1.0000588
1.0000651
1.000072
1.0000794
1.0000875
1.0000963
1.0001057
1.0001159
1.0001268
1.0001384
1.0001507
1.0001637
1.0001773
1.0001915
1.0002062
1.0002213
1.0002365
1.0002517
1.0002666
1.0002809
1.0002944
1.0003067
1.0003175
1.0003264
1.0003331
1.0003374
1.000339
1.0003378
1.0003336
1.0003264
1.0003165
1.0003039
1.0002889
1.0002718
1.0002528
1.0002323
1.0002107
1.0001882
1.0001651
1.0001418
1.0001184
1.0000953
1.0000725
1.0000502
1.0000286
1.0000077
0.9999876
0.99996836
0.99995001
0.99993256
0.99991602
0.99990039
0.99988564
0.99987177
0.99985875
0.99984655
0.99983512
0.99982445
0.9998145
0.99980522
0.99979658
0.99978856
0.9997811
0.99977418
0.99976777
0.99976182
0.99975633
0.99975124
0.99974654
0.9997422
0.99973821
1.0000429
1.0000477
1.000053
1.0000588
1.0000652
1.000072
1.0000795
1.0000877
1.0000965
1.000106
1.0001162
1.0001271
1.0001388
1.0001512
1.0001643
1.000178
1.0001924
1.0002072
1.0002223
1.0002377
1.000253
1.0002681
1.0002826
1.0002963
1.0003088
1.0003198
1.000329
1.0003359
1.0003404
1.0003422
1.0003412
1.0003372
1.0003303
1.0003206
1.0003082
1.0002934
1.0002764
1.0002575
1.0002372
1.0002156
1.0001932
1.0001702
1.0001469
1.0001236
1.0001005
1.0000778
1.0000555
1.0000339
1.000013
0.99999297
0.99997375
0.99995541
0.99993797
0.99992144
0.99990582
0.99989108
0.99987722
0.99986421
0.99985201
0.9998406
0.99982994
0.99981999
0.99981072
0.99980209
0.99979407
0.99978663
0.99977971
0.99977331
0.99976738
0.99976189
0.99975681
0.99975212
0.99974779
0.99974381
1.0000429
1.0000477
1.000053
1.0000588
1.0000652
1.0000721
1.0000796
1.0000878
1.0000966
1.0001061
1.0001164
1.0001274
1.0001391
1.0001515
1.0001647
1.0001785
1.0001929
1.0002078
1.0002231
1.0002385
1.000254
1.0002692
1.0002838
1.0002977
1.0003103
1.0003215
1.0003308
1.0003379
1.0003426
1.0003446
1.0003438
1.00034
1.0003332
1.0003237
1.0003114
1.0002967
1.0002798
1.000261
1.0002408
1.0002193
1.0001969
1.000174
1.0001507
1.0001275
1.0001044
1.0000816
1.0000594
1.0000378
1.0000169
0.99999684
0.99997761
0.99995927
0.99994183
0.9999253
0.99990968
0.99989494
0.99988108
0.99986807
0.99985587
0.99984446
0.99983379
0.99982385
0.99981458
0.99980596
0.99979794
0.99979049
0.99978359
0.99977719
0.99977126
0.99976578
0.9997607
0.99975602
0.99975169
0.99974771
1.0000429
1.0000477
1.000053
1.0000588
1.0000652
1.0000721
1.0000796
1.0000878
1.0000967
1.0001062
1.0001165
1.0001275
1.0001393
1.0001518
1.000165
1.0001788
1.0001933
1.0002083
1.0002236
1.0002391
1.0002547
1.0002699
1.0002847
1.0002986
1.0003114
1.0003227
1.0003321
1.0003394
1.0003442
1.0003464
1.0003457
1.000342
1.0003354
1.000326
1.0003139
1.0002993
1.0002825
1.0002638
1.0002436
1.0002221
1.0001998
1.0001769
1.0001537
1.0001304
1.0001073
1.0000846
1.0000624
1.0000408
1.0000199
0.9999998
0.99998056
0.99996221
0.99994476
0.99992822
0.99991259
0.99989785
0.99988398
0.99987096
0.99985876
0.99984734
0.99983668
0.99982673
0.99981746
0.99980884
0.99980082
0.99979337
0.99978647
0.99978007
0.99977414
0.99976866
0.99976359
0.99975891
0.99975459
0.99975061
1.0000429
1.0000477
1.000053
1.0000588
1.0000652
1.0000721
1.0000797
1.0000879
1.0000967
1.0001063
1.0001166
1.0001276
1.0001394
1.0001519
1.0001652
1.0001791
1.0001936
1.0002086
1.0002239
1.0002395
1.0002551
1.0002705
1.0002853
1.0002993
1.0003122
1.0003236
1.0003331
1.0003405
1.0003455
1.0003477
1.0003472
1.0003437
1.0003372
1.0003279
1.0003159
1.0003014
1.0002847
1.0002661
1.000246
1.0002246
1.0002023
1.0001794
1.0001562
1.000133
1.0001099
1.0000871
1.0000649
1.0000433
1.0000224
1.0000023
0.99998304
0.99996468
0.99994721
0.99993066
0.99991502
0.99990027
0.99988639
0.99987336
0.99986115
0.99984972
0.99983905
0.9998291
0.99981983
0.9998112
0.99980318
0.99979573
0.99978882
0.99978242
0.99977649
0.99977101
0.99976594
0.99976126
0.99975694
0.99975296
1.0000429
1.0000477
1.000053
1.0000588
1.0000652
1.0000721
1.0000797
1.0000879
1.0000967
1.0001063
1.0001166
1.0001277
1.0001395
1.000152
1.0001653
1.0001792
1.0001937
1.0002088
1.0002242
1.0002398
1.0002554
1.0002708
1.0002857
1.0002998
1.0003127
1.0003242
1.0003338
1.0003414
1.0003465
1.0003489
1.0003484
1.0003451
1.0003388
1.0003296
1.0003177
1.0003034
1.0002868
1.0002683
1.0002482
1.0002269
1.0002046
1.0001818
1.0001586
1.0001354
1.0001123
1.0000896
1.0000673
1.0000457
1.0000248
1.0000047
0.99998539
0.99996701
0.99994953
0.99993296
0.9999173
0.99990253
0.99988864
0.9998756
0.99986338
0.99985194
0.99984126
0.9998313
0.99982202
0.99981338
0.99980536
0.99979791
0.999791
0.99978459
0.99977866
0.99977318
0.9997681
0.99976342
0.9997591
0.99975512
1.0000429
1.0000477
1.000053
1.0000588
1.0000652
1.0000721
1.0000797
1.0000879
1.0000967
1.0001063
1.0001166
1.0001277
1.0001395
1.000152
1.0001653
1.0001792
1.0001938
1.0002088
1.0002243
1.0002399
1.0002556
1.000271
1.0002859
1.0003001
1.0003131
1.0003247
1.0003344
1.0003421
1.0003473
1.0003498
1.0003496
1.0003464
1.0003403
1.0003313
1.0003195
1.0003053
1.0002889
1.0002705
1.0002505
1.0002293
1.0002071
1.0001843
1.0001612
1.0001379
1.0001149
1.0000921
1.0000699
1.0000482
1.0000273
1.0000072
0.99998788
0.99996948
0.99995198
0.99993539
0.9999197
0.99990492
0.99989101
0.99987795
0.99986571
0.99985426
0.99984357
0.99983359
0.9998243
0.99981565