/*--------------------------------*- C++ -*----------------------------------*\
| =========                 |                                                 |
| \\      /  F ield         | OpenFOAM: The Open Source CFD Toolbox           |
|  \\    /   O peration     | Version:  v2006                                 |
|   \\  /    A nd           | Website:  www.openfoam.com                      |
|    \\/     M anipulation  |                                                 |
\*---------------------------------------------------------------------------*/
FoamFile
{
    version     2.0;
    format      ascii;
    class       volVectorField;
    location    "4000";
    object      U;
}
// * * * * * * * * * * * * * * * * * * * * * * * * * * * * * * * * * * * * * //

dimensions      [0 1 -1 0 0 0 0];


internalField   nonuniform List<vector> 
55713
(
(0.10323172 6.3966321e-07 0)
(0.10313922 -3.1392504e-07 0)
(0.1031219 8.4537008e-07 2.5656037e-18)
(0.10311968 6.7061527e-07 -2.5522183e-18)
(0.1031209 1.3849315e-06 2.5703373e-18)
(0.10312214 1.3907236e-06 2.8868172e-27)
(0.10312273 1.8568006e-06 -2.6458802e-18)
(0.1031228 1.9874887e-06 0)
(0.10312266 2.2794233e-06 1.0709834e-20)
(0.10312269 2.4625354e-06 0)
(0.10312299 2.668986e-06 -1.1106718e-20)
(0.10312335 2.8821999e-06 -1.1311134e-20)
(0.10312351 3.1162465e-06 0)
(0.10312345 3.3744047e-06 3.0028599e-18)
(0.10312328 3.6151579e-06 -3.0575199e-18)
(0.10312312 3.809916e-06 -6.0795968e-21)
(0.1031231 4.0204113e-06 3.1746923e-18)
(0.10312326 4.2249019e-06 -3.2247117e-18)
(0.10312358 4.4308761e-06 6.4088672e-21)
(0.10312398 4.6411655e-06 -3.3383689e-18)
(0.10312435 4.8405199e-06 3.3891243e-18)
(0.10312464 5.0285958e-06 0)
(0.10312486 5.208708e-06 0)
(0.10312501 5.3832431e-06 -1.7918445e-18)
(0.10312513 5.5577311e-06 1.8140961e-18)
(0.10312522 5.732939e-06 0)
(0.10312529 5.8961176e-06 0)
(0.10312534 6.0426533e-06 0)
(0.10312536 6.1887938e-06 2.4138057e-19)
(0.10312535 6.3739172e-06 -7.4314593e-29)
(0.10312529 6.5766618e-06 -2.4392316e-19)
(0.10312516 6.7595317e-06 0)
(0.10312493 6.9326755e-06 0)
(0.10312457 7.0970834e-06 0)
(0.10312413 7.2529152e-06 0)
(0.10312373 7.4177255e-06 1.8039944e-18)
(0.10312351 7.6030767e-06 -1.7676363e-18)
(0.10312356 7.7911845e-06 -3.4904968e-18)
(0.10312379 7.9855261e-06 2.4694316e-27)
(0.10312401 8.1933959e-06 3.3674577e-18)
(0.10312401 8.4012681e-06 0)
(0.10312374 8.602558e-06 6.3651793e-21)
(0.10312339 8.7987853e-06 -3.202039e-18)
(0.1031232 8.9913866e-06 3.1455495e-18)
(0.10312331 9.1839853e-06 3.0895551e-18)
(0.10312359 9.3871236e-06 -3.0400492e-18)
(0.10312379 9.6127682e-06 0)
(0.10312377 9.8431902e-06 0)
(0.10312355 1.0084358e-05 -2.8609897e-18)
(0.10312324 1.0320367e-05 2.8201783e-18)
(0.10312294 1.0583606e-05 0)
(0.1031227 1.0823275e-05 0)
(0.10312251 1.1123246e-05 0)
(0.1031223 1.13647e-05 0)
(0.10312202 1.1719084e-05 2.5873344e-18)
(0.10312186 1.1965602e-05 -3.5231038e-27)
(0.10312204 1.2358733e-05 -3.7775112e-18)
(0.10312228 1.2728794e-05 1.2274026e-18)
(0.10312211 1.284994e-05 -1.9264384e-20)
(0.1032379 1.0449285e-06 0)
(0.10315424 -2.4411191e-07 2.4223946e-18)
(0.10314063 9.8793266e-07 -2.5049245e-18)
(0.10313946 6.6245891e-07 3.9159552e-20)
(0.1031409 1.2936494e-06 -2.5373521e-18)
(0.10314203 1.3224209e-06 5.1415772e-18)
(0.10314246 1.8550651e-06 3.8474836e-27)
(0.1031424 1.9481175e-06 -2.6835669e-18)
(0.10314222 2.2650247e-06 -1.0692246e-20)
(0.1031423 2.3720539e-06 2.1808075e-20)
(0.10314263 2.4833134e-06 -2.8350741e-18)
(0.10314292 2.6138658e-06 2.912826e-18)
(0.10314293 2.7396727e-06 2.9572886e-18)
(0.10314275 2.8886883e-06 4.6087151e-27)
(0.10314255 3.0635447e-06 3.2428533e-27)
(0.10314242 3.2486321e-06 -3.1209883e-18)
(0.10314245 3.4769243e-06 -6.2194696e-21)
(0.10314268 3.7374976e-06 0)
(0.10314306 3.9890272e-06 3.29335e-18)
(0.1031435 4.1819905e-06 -6.7158908e-18)
(0.10314388 4.3685135e-06 3.4230501e-18)
(0.10314416 4.5452217e-06 1.3574522e-20)
(0.10314436 4.7089437e-06 0)
(0.1031445 4.8511791e-06 7.018005e-21)
(0.10314461 4.9915323e-06 0)
(0.10314469 5.131777e-06 9.1351355e-19)
(0.10314475 5.2345963e-06 -1.8857864e-18)
(0.10314479 5.3255877e-06 9.427901e-19)
(0.1031448 5.4730066e-06 2.4314094e-19)
(0.10314479 5.6756332e-06 -2.6150333e-19)
(0.10314473 5.8881074e-06 0)
(0.1031446 6.0806704e-06 9.5150463e-19)
(0.10314437 6.2060469e-06 -1.9032817e-18)
(0.10314401 6.2767796e-06 9.3664871e-19)
(0.10314355 6.3402106e-06 0)
(0.10314309 6.440799e-06 1.8133832e-18)
(0.10314281 6.5989094e-06 -1.7904901e-18)
(0.10314282 6.7789723e-06 1.370123e-20)
(0.10314308 6.9868618e-06 0)
(0.10314337 7.1976485e-06 6.6194505e-21)
(0.10314344 7.3637737e-06 3.3303645e-18)
(0.10314323 7.5305081e-06 -6.5500925e-18)
(0.10314287 7.70728e-06 4.5803637e-28)
(0.10314266 7.8854954e-06 3.1556707e-18)
(0.10314277 8.0494895e-06 -3.0980202e-18)
(0.10314309 8.1918641e-06 6.0873238e-18)
(0.10314332 8.3910263e-06 -5.9674645e-18)
(0.10314328 8.6225348e-06 2.9271917e-18)
(0.103143 8.879626e-06 -1.1215396e-20)
(0.10314262 9.1023877e-06 0)
(0.10314227 9.3633442e-06 0)
(0.10314199 9.5502945e-06 0)
(0.10314179 9.8523171e-06 -2.6750017e-18)
(0.10314158 1.0020857e-05 2.6232063e-18)
(0.10314127 1.0389485e-05 0)
(0.10314101 1.0549213e-05 3.9153519e-20)
(0.10314117 1.0965343e-05 0)
(0.10314145 1.11595e-05 1.8909762e-20)
(0.10314126 1.1542795e-05 1.854664e-20)
(0.10324325 1.2007588e-06 0)
(0.10316851 -2.5289585e-07 3.7320899e-20)
(0.10315705 9.5580098e-07 -3.7934076e-20)
(0.1031568 6.172645e-07 -3.8470615e-20)
(0.10315836 1.1918645e-06 -2.5448054e-18)
(0.10315936 1.207445e-06 2.5788342e-18)
(0.10315965 1.6201986e-06 0)
(0.10315948 1.7447216e-06 2.0893287e-20)
(0.10315929 2.0480647e-06 -5.4652269e-18)
(0.10315945 2.2560055e-06 5.5379683e-18)
(0.10315983 2.4700113e-06 0)
(0.10316 2.620276e-06 -2.2712569e-20)
(0.10315985 2.7089634e-06 0)
(0.10315957 2.7584738e-06 3.0003733e-18)
(0.10315935 2.7929126e-06 -6.1650494e-18)
(0.10315926 2.8631707e-06 3.1411428e-18)
(0.10315935 2.9803746e-06 -3.1873713e-18)
(0.10315966 3.1164232e-06 -4.9194063e-27)
(0.10316012 3.2697458e-06 3.3177437e-18)
(0.10316059 3.45625e-06 -3.3769369e-18)
(0.10316098 3.7015923e-06 -4.2203557e-28)
(0.10316126 3.9671467e-06 3.495927e-18)
(0.10316145 4.166868e-06 0)
(0.10316158 4.3111451e-06 1.7937506e-18)
(0.10316168 4.4537932e-06 1.7829811e-28)
(0.10316175 4.5674134e-06 -1.8389352e-18)
(0.1031618 4.6460262e-06 -1.4830541e-20)
(0.10316184 4.6879518e-06 4.9718551e-19)
(0.10316185 4.7082024e-06 -4.8963905e-19)
(0.10316184 4.8345056e-06 2.4769471e-19)
(0.10316178 5.1011439e-06 -2.4678559e-19)
(0.10316166 5.3407794e-06 3.0375207e-20)
(0.10316144 5.4998842e-06 0)
(0.10316109 5.6039471e-06 1.4712804e-20)
(0.10316061 5.6618945e-06 -1.4475429e-20)
(0.1031601 5.6887584e-06 -1.4238461e-20)
(0.10315975 5.742992e-06 -1.400207e-20)
(0.10315972 5.8551339e-06 -1.3766378e-20)
(0.10315999 5.9442516e-06 3.4504991e-18)
(0.10316036 6.0685395e-06 -3.4040608e-18)
(0.10316054 6.2573687e-06 0)
(0.1031604 6.4317842e-06 3.2846616e-18)
(0.10316005 6.5689614e-06 -3.2125962e-18)
(0.10315979 6.6663474e-06 3.1905787e-18)
(0.10315986 6.8176151e-06 -3.1065891e-18)
(0.10316017 7.0059405e-06 -3.0236009e-18)
(0.10316042 7.2523337e-06 -5.0032612e-27)
(0.10316037 7.4998869e-06 2.9063834e-18)
(0.10316006 7.7939884e-06 2.2424269e-20)
(0.10315965 7.9934062e-06 0)
(0.10315926 8.2513877e-06 0)
(0.10315895 8.3710591e-06 0)
(0.10315873 8.6655618e-06 2.0591884e-20)
(0.10315854 8.7260031e-06 -2.0138404e-20)
(0.10315822 9.0828451e-06 0)
(0.10315786 9.1292568e-06 2.462988e-18)
(0.10315799 9.559855e-06 -2.4065495e-18)
(0.10315833 9.6494974e-06 0)
(0.10315811 1.0119866e-05 0)
(0.10324755 1.2362861e-06 6.8433121e-20)
(0.10318026 -2.3259809e-07 -7.2489134e-20)
(0.10317145 8.7037284e-07 -2.3352243e-18)
(0.10317194 5.6091145e-07 2.4196487e-18)
(0.10317354 1.0184033e-06 3.8671341e-20)
(0.10317438 1.00493e-06 0)
(0.10317452 1.2893594e-06 -2.6013349e-18)
(0.10317426 1.3561382e-06 7.9743658e-18)
(0.10317408 1.5924524e-06 -1.0911658e-17)
(0.10317437 1.7807143e-06 5.6018504e-18)
(0.10317477 2.0098021e-06 -2.8515998e-18)
(0.10317478 2.2324593e-06 2.2756165e-20)
(0.10317444 2.4481823e-06 5.9473084e-18)
(0.1031741 2.6286297e-06 -3.0105463e-18)
(0.10317389 2.7618229e-06 0)
(0.10317383 2.8486123e-06 0)
(0.103174 2.8845153e-06 -1.255844e-20)
(0.10317441 2.8950092e-06 0)
(0.10317494 2.9238683e-06 0)
(0.10317545 2.9920375e-06 2.6525301e-20)
(0.10317584 3.0788622e-06 -1.3498002e-20)
(0.1031761 3.1941017e-06 -2.7467866e-20)
(0.10317628 3.3403663e-06 -1.7882261e-18)
(0.1031764 3.4817682e-06 1.832806e-18)
(0.10317649 3.6054336e-06 1.4445739e-20)
(0.10317656 3.7066426e-06 -1.468426e-20)
(0.10317661 3.8006012e-06 9.7000047e-19)
(0.10317664 3.8992175e-06 -9.7036239e-19)
(0.10317666 3.9996767e-06 1.5400238e-20)
(0.10317664 4.1089771e-06 -2.3361334e-19)
(0.10317659 4.2479172e-06 -2.4812859e-19)
(0.10317648 4.4515217e-06 4.7331218e-19)
(0.10317627 4.7027966e-06 0)
(0.10317593 4.9255485e-06 -1.9075434e-18)
(0.10317545 5.0860717e-06 1.4546927e-20)
(0.10317491 5.1836887e-06 3.6912486e-18)
(0.10317449 5.2552838e-06 -1.7866361e-18)
(0.10317439 5.2885523e-06 0)
(0.10317467 5.2723181e-06 1.3591478e-20)
(0.10317513 5.2868933e-06 0)
(0.10317545 5.350468e-06 0)
(0.1031754 5.4480845e-06 2.5760047e-20)
(0.10317508 5.6198331e-06 -1.2643213e-20)
(0.10317475 5.8002747e-06 -3.2007896e-18)
(0.10317472 6.0420237e-06 3.1151759e-18)
(0.10317498 6.2670686e-06 -3.3885202e-26)
(0.10317522 6.503609e-06 2.3382706e-20)
(0.10317517 6.6077537e-06 3.2546385e-26)
(0.10317487 6.7758457e-06 -2.2419262e-20)
(0.10317446 6.8394661e-06 -5.5929332e-18)
(0.10317406 7.0483129e-06 5.4894662e-18)
(0.10317373 7.1429144e-06 4.1898492e-20)
(0.10317348 7.4025968e-06 -2.6585741e-18)
(0.10317332 7.4998003e-06 5.1062972e-18)
(0.10317302 7.8206448e-06 -5.0145107e-18)
(0.10317256 7.9130411e-06 2.4215225e-18)
(0.10317264 8.3152864e-06 -7.3562585e-20)
(0.10317305 8.3534692e-06 0)
(0.10317282 8.9568497e-06 0)
(0.10325094 1.1372698e-06 -6.6137797e-20)
(0.10319095 -1.83548e-07 7.0438155e-20)
(0.10318407 7.3734942e-07 -2.3190227e-18)
(0.10318516 4.9558193e-07 2.3044644e-18)
(0.10318674 8.3285429e-07 -2.4452173e-18)
(0.10318741 8.5306196e-07 2.5553033e-18)
(0.10318743 1.0771408e-06 2.546228e-18)
(0.10318708 1.1348232e-06 -2.6557163e-18)
(0.10318694 1.3103376e-06 5.4036883e-18)
(0.10318739 1.4222769e-06 -1.1113053e-17)
(0.10318776 1.5753457e-06 5.7082452e-18)
(0.10318754 1.7275799e-06 -2.2798578e-20)
(0.10318704 1.9048143e-06 -2.9815688e-18)
(0.10318667 2.1008568e-06 6.0885533e-18)
(0.10318649 2.3078632e-06 -3.1064507e-18)
(0.10318648 2.4948522e-06 -3.1681947e-18)
(0.10318675 2.6451646e-06 2.5231298e-20)
(0.10318727 2.7432019e-06 3.2650798e-18)
(0.10318788 2.795509e-06 -2.6186138e-20)
(0.10318841 2.8220334e-06 -5.3325162e-20)
(0.10318879 2.8153426e-06 1.3569578e-20)
(0.10318903 2.8262385e-06 1.380817e-20)
(0.10318919 2.8818482e-06 0)
(0.1031893 2.9598594e-06 -1.8287309e-18)
(0.10318939 3.0612245e-06 -1.4527351e-20)
(0.10318945 3.1685955e-06 1.9051156e-18)
(0.1031895 3.2769253e-06 0)
(0.10318952 3.3777046e-06 0)
(0.10318953 3.4588807e-06 -3.0985692e-20)
(0.10318952 3.5386274e-06 2.3492396e-19)
(0.10318947 3.6202641e-06 -2.4938883e-19)
(0.10318937 3.7075676e-06 0)
(0.10318919 3.8396876e-06 0)
(0.10318887 4.0244483e-06 -1.901712e-18)
(0.1031884 4.2165194e-06 3.7412759e-18)
(0.10318782 4.3802715e-06 -1.8540126e-18)
(0.10318733 4.5129566e-06 -1.7804611e-18)
(0.10318716 4.6135849e-06 1.7778763e-18)
(0.10318744 4.7033094e-06 0)
(0.10318799 4.7666035e-06 0)
(0.10318845 4.8463966e-06 -3.3974809e-18)
(0.10318854 4.9398432e-06 3.2837247e-18)
(0.10318825 5.0793569e-06 2.5374041e-20)
(0.10318786 5.2083491e-06 -3.1859427e-18)
(0.10318769 5.3694093e-06 6.2229329e-18)
(0.10318784 5.4381705e-06 -3.0848646e-18)
(0.10318804 5.5496601e-06 -3.021113e-18)
(0.103188 5.5854124e-06 5.8675768e-18)
(0.10318774 5.7324047e-06 -2.8691154e-18)
(0.10318737 5.8064666e-06 -6.5708223e-20)
(0.10318699 5.9975808e-06 0)
(0.10318665 6.0900069e-06 -4.1705177e-20)
(0.10318635 6.312718e-06 2.5999223e-18)
(0.10318621 6.4291607e-06 -5.0581765e-18)
(0.10318597 6.7058144e-06 2.5331033e-18)
(0.10318538 6.8261866e-06 3.7207961e-20)
(0.1031854 7.1895193e-06 1.4396747e-19)
(0.10318591 7.211199e-06 6.9442415e-20)
(0.10318567 7.8552311e-06 6.6600142e-20)
(0.10325342 9.3887884e-07 -1.023525e-18)
(0.10319989 -1.1279277e-07 -1.0957238e-18)
(0.10319508 5.8545558e-07 2.3388645e-18)
(0.1031966 4.6019938e-07 -2.266529e-18)
(0.10319809 7.20691e-07 -6.6906861e-27)
(0.10319859 7.8484175e-07 2.4560609e-18)
(0.10319851 9.935819e-07 4.0187337e-20)
(0.10319806 1.0866215e-06 5.2926127e-18)
(0.10319801 1.2385048e-06 4.2472375e-20)
(0.10319868 1.3071514e-06 -5.6199291e-18)
(0.10319892 1.4101714e-06 5.6684029e-18)
(0.10319839 1.4859127e-06 -5.8241483e-18)
(0.10319778 1.5732272e-06 -2.9892826e-18)
(0.10319745 1.6694519e-06 3.0540461e-18)
(0.10319731 1.7900263e-06 2.4358969e-20)
(0.10319737 1.929885e-06 0)
(0.10319775 2.0761469e-06 -2.5341951e-20)
(0.10319839 2.2101805e-06 3.3317897e-18)
(0.10319906 2.332781e-06 -6.7093944e-18)
(0.1031996 2.4581628e-06 2.6145759e-26)
(0.10319995 2.5775766e-06 2.7274863e-20)
(0.10320017 2.6747252e-06 3.5528202e-18)
(0.10320032 2.7388959e-06 -1.8072696e-18)
(0.10320042 2.7922931e-06 1.838199e-18)
(0.1032005 2.8609496e-06 1.8692156e-18)
(0.10320056 2.9432604e-06 -1.9151703e-18)
(0.1032006 3.0200189e-06 9.6575689e-19)
(0.10320063 3.089366e-06 -9.8137811e-19)
(0.10320064 3.1392337e-06 -2.3367206e-19)
(0.10320063 3.168933e-06 1.5742073e-20)
(0.10320059 3.1980037e-06 2.5054986e-19)
(0.1032005 3.2252853e-06 0)
(0.10320033 3.269646e-06 -1.5167398e-20)
(0.10320004 3.334632e-06 0)
(0.10319959 3.4287393e-06 -1.4676968e-20)
(0.103199 3.5432819e-06 -1.8474005e-18)
(0.10319844 3.6805842e-06 -2.8378686e-20)
(0.10319818 3.8232097e-06 5.3554079e-18)
(0.10319843 3.9836764e-06 -7.0162937e-18)
(0.10319906 4.1271368e-06 -2.6922042e-20)
(0.10319968 4.2493212e-06 6.8205067e-18)
(0.10319991 4.2920596e-06 -3.3214342e-18)
(0.10319967 4.355419e-06 3.2078399e-18)
(0.10319922 4.3988484e-06 -3.2206233e-18)
(0.10319888 4.5036237e-06 2.4468678e-20)
(0.10319888 4.548376e-06 0)
(0.10319905 4.6706764e-06 0)
(0.10319901 4.7468542e-06 4.5876263e-20)
(0.10319881 4.9037814e-06 5.7372186e-18)
(0.10319851 4.9888415e-06 -5.5557526e-18)
(0.10319816 5.1487238e-06 -4.2644884e-20)
(0.10319782 5.2380532e-06 2.6569403e-18)
(0.10319748 5.4206578e-06 -5.1245659e-18)
(0.10319732 5.5359674e-06 -4.1778862e-27)
(0.10319719 5.7576497e-06 2.3876952e-18)
(0.10319647 5.8767805e-06 -7.8443478e-26)
(0.10319641 6.1681806e-06 -2.2548499e-18)
(0.10319701 6.2072925e-06 2.0948503e-18)
(0.10319678 6.7869065e-06 -6.437023e-20)
(0.10325529 7.0709473e-07 0)
(0.10320799 -4.4918361e-08 6.6617675e-20)
(0.10320483 4.3936966e-07 -6.6218476e-26)
(0.10320664 4.0637243e-07 0)
(0.10320802 6.0320182e-07 -2.4629556e-18)
(0.10320834 7.2092456e-07 2.5130259e-18)
(0.10320818 8.9025485e-07 0)
(0.10320763 1.0044355e-06 4.1200381e-20)
(0.10320773 1.1520371e-06 0)
(0.10320869 1.2614634e-06 5.6177169e-18)
(0.1032086 1.3705734e-06 -5.6728657e-18)
(0.10320773 1.4359058e-06 2.9285853e-18)
(0.10320709 1.4659897e-06 6.5958659e-27)
(0.10320687 1.4902164e-06 -3.0635168e-18)
(0.10320679 1.5293008e-06 -3.1535175e-18)
(0.10320697 1.585719e-06 3.1936209e-18)
(0.1032075 1.6576386e-06 0)
(0.10320824 1.7430195e-06 2.5940945e-20)
(0.10320893 1.8372632e-06 -2.6430138e-20)
(0.10320943 1.946611e-06 2.585934e-26)
(0.10320975 2.0786295e-06 -2.7402087e-20)
(0.10320995 2.2186029e-06 0)
(0.10321008 2.3345558e-06 0)
(0.10321018 2.4220781e-06 0)
(0.10321025 2.4962193e-06 0)
(0.10321031 2.5729577e-06 0)
(0.10321036 2.6532432e-06 -9.5524195e-19)
(0.10321039 2.7343557e-06 5.0848534e-19)
(0.1032104 2.8138856e-06 5.0096265e-19)
(0.10321039 2.8689144e-06 2.3721817e-19)
(0.10321035 2.9063477e-06 -7.5478261e-19)
(0.10321028 2.9187235e-06 5.107101e-19)
(0.10321014 2.9127879e-06 1.5227901e-20)
(0.10320988 2.9192813e-06 0)
(0.10320946 2.9518595e-06 1.4733932e-20)
(0.10320888 2.9969278e-06 0)
(0.10320825 3.075855e-06 0)
(0.10320788 3.1594847e-06 3.6117374e-18)
(0.10320807 3.2813003e-06 -7.014909e-18)
(0.10320877 3.3653099e-06 6.9442459e-18)
(0.10320953 3.4589768e-06 -6.8447342e-18)
(0.10320989 3.5147918e-06 6.6655098e-18)
(0.1032097 3.6082299e-06 -3.2436757e-18)
(0.10320919 3.6731563e-06 2.503949e-20)
(0.10320867 3.771328e-06 3.1646138e-18)
(0.10320848 3.8401724e-06 -3.0741063e-18)
(0.10320867 3.9559765e-06 2.3491614e-20)
(0.10320865 4.037915e-06 -2.2955831e-20)
(0.10320851 4.157892e-06 5.7362411e-18)
(0.10320829 4.2363669e-06 -1.1140336e-17)
(0.10320797 4.3592892e-06 5.4859476e-18)
(0.10320766 4.4559995e-06 4.132682e-20)
(0.10320726 4.6115294e-06 0)
(0.10320704 4.7164872e-06 -2.5210931e-18)
(0.10320709 4.8949701e-06 2.3955452e-18)
(0.10320623 5.0142191e-06 -7.2011914e-20)
(0.10320605 5.2573033e-06 2.1390192e-18)
(0.10320677 5.3259128e-06 -2.0397249e-18)
(0.10320655 5.7960187e-06 1.2454076e-19)
(0.10325662 4.1515878e-07 0)
(0.1032148 2.3996952e-08 -2.2044145e-18)
(0.10321338 3.1252888e-07 -6.7873162e-20)
(0.10321528 4.0240433e-07 4.6014273e-18)
(0.10321655 5.2781844e-07 7.3773966e-20)
(0.1032167 6.3905611e-07 -4.9844264e-18)
(0.10321647 7.521671e-07 2.5426911e-18)
(0.1032158 8.4936792e-07 5.1724251e-18)
(0.10321618 9.4710636e-07 -5.3739627e-18)
(0.10321744 1.0536484e-06 -3.0123111e-26)
(0.10321673 1.159944e-06 4.4700734e-20)
(0.10321555 1.2632203e-06 -2.2917697e-20)
(0.10321505 1.3443474e-06 0)
(0.10321499 1.4068348e-06 2.4005065e-20)
(0.103215 1.4362837e-06 3.1642976e-18)
(0.10321536 1.4588834e-06 -3.2055701e-18)
(0.10321605 1.4803745e-06 3.2447392e-18)
(0.10321686 1.5357649e-06 -3.3341439e-18)
(0.10321753 1.6023031e-06 1.8510221e-26)
(0.10321798 1.6736275e-06 -3.4330451e-18)
(0.10321825 1.717646e-06 7.0175108e-18)
(0.10321842 1.7520325e-06 -3.5848126e-18)
(0.10321854 1.8079741e-06 0)
(0.10321863 1.8799214e-06 1.4490235e-20)
(0.1032187 1.9433845e-06 -1.9007816e-18)
(0.10321876 2.0171752e-06 1.9024897e-18)
(0.10321881 2.1092521e-06 -1.5226817e-20)
(0.10321884 2.1969376e-06 4.7970655e-19)
(0.10321885 2.2843994e-06 -5.0312831e-19)
(0.10321885 2.3716451e-06 1.5877836e-20)
(0.10321882 2.4488543e-06 5.0499696e-19)
(0.10321876 2.516902e-06 -5.1250215e-19)
(0.10321864 2.5639062e-06 -1.5280425e-20)
(0.10321843 2.5898337e-06 0)
(0.10321806 2.6086008e-06 0)
(0.1032175 2.6197434e-06 -1.8753245e-18)
(0.10321682 2.6568717e-06 1.829336e-18)
(0.10321633 2.6950563e-06 -2.8092926e-20)
(0.1032164 2.7619952e-06 -2.7602471e-20)
(0.10321714 2.8186852e-06 0)
(0.10321802 2.8974584e-06 2.6617228e-20)
(0.10321852 2.9617425e-06 -3.317243e-18)
(0.10321836 3.0453646e-06 3.2534757e-18)
(0.10321784 3.1048453e-06 -3.2139863e-18)
(0.10321715 3.1877828e-06 3.1232251e-18)
(0.10321667 3.2508038e-06 2.4065191e-20)
(0.103217 3.3369365e-06 -2.3525894e-20)
(0.10321702 3.4086506e-06 0)
(0.10321692 3.5009935e-06 0)
(0.10321679 3.5764439e-06 -4.3628681e-20)
(0.10321651 3.6850887e-06 0)
(0.10321625 3.7784976e-06 -4.1140407e-20)
(0.10321583 3.9000452e-06 0)
(0.10321546 4.001848e-06 2.5363513e-18)
(0.10321573 4.1346603e-06 -2.2921791e-18)
(0.10321477 4.2575174e-06 7.0859895e-20)
(0.10321441 4.4148111e-06 -2.1628682e-18)
(0.10321529 4.5050862e-06 3.0768657e-18)
(0.10321509 4.8489736e-06 -1.0852297e-18)
(0.10325598 1.7270231e-07 1.162903e-19)
(0.10321912 8.2114272e-08 -2.020285e-18)
(0.10321968 1.8531999e-07 -2.603066e-27)
(0.10322141 3.2577983e-07 2.160368e-18)
(0.10322259 3.7385169e-07 0)
(0.10322267 5.2649758e-07 3.8024218e-20)
(0.10322227 5.6709643e-07 -3.9500891e-20)
(0.1032215 6.7018965e-07 5.2762377e-18)
(0.10322233 7.0262757e-07 -1.0811865e-17)
(0.10322381 8.0046306e-07 -4.350795e-20)
(0.1032221 8.4844678e-07 5.6808712e-18)
(0.10322082 9.3377545e-07 2.9611256e-18)
(0.10322069 9.9872847e-07 -3.0109442e-18)
(0.1032208 1.094327e-06 -2.4073955e-20)
(0.10322091 1.1664656e-06 -2.4609799e-20)
(0.10322148 1.2451078e-06 0)
(0.1032223 1.2985276e-06 2.5645073e-20)
(0.10322313 1.3656807e-06 -2.6148787e-20)
(0.10322373 1.4081386e-06 2.6645848e-20)
(0.10322411 1.4462331e-06 0)
(0.10322433 1.4700321e-06 3.5638842e-18)
(0.10322448 1.4917797e-06 -5.3979344e-18)
(0.10322459 1.5011095e-06 1.8161673e-18)
(0.10322468 1.5356155e-06 1.847127e-18)
(0.10322475 1.5570198e-06 -1.8634035e-18)
(0.10322481 1.5854826e-06 -9.471864e-19)
(0.10322485 1.6305348e-06 9.7803965e-19)
(0.10322488 1.6743078e-06 0)
(0.1032249 1.7346596e-06 -2.5248394e-19)
(0.1032249 1.806288e-06 2.5488949e-19)
(0.10322488 1.8905677e-06 4.9064484e-19)
(0.10322483 1.9777038e-06 -1.5107452e-18)
(0.10322473 2.0439136e-06 9.9602752e-19)
(0.10322456 2.095464e-06 1.507385e-20)
(0.10322424 2.1236061e-06 -1.9125188e-18)
(0.10322372 2.1582931e-06 1.880681e-18)
(0.10322302 2.1880383e-06 0)
(0.10322238 2.2302303e-06 -3.6064594e-18)
(0.10322229 2.2767284e-06 3.5436154e-18)
(0.10322305 2.3213632e-06 0)
(0.10322402 2.3725971e-06 0)
(0.10322469 2.4230413e-06 -2.6195957e-20)
(0.10322457 2.4764184e-06 2.5689333e-20)
(0.10322404 2.5284558e-06 0)
(0.10322325 2.5840716e-06 0)
(0.10322232 2.6457703e-06 -2.4111051e-20)
(0.10322289 2.6892123e-06 0)
(0.10322301 2.7640867e-06 0)
(0.10322293 2.8235192e-06 5.733677e-18)
(0.10322288 2.9019518e-06 -5.5767241e-18)
(0.10322264 2.9735868e-06 0)
(0.10322244 3.0673328e-06 4.0954309e-20)
(0.10322205 3.1633781e-06 -3.9552799e-20)
(0.10322143 3.2530274e-06 -2.47505e-18)
(0.10322191 3.3628819e-06 2.2642113e-18)
(0.10322097 3.4896936e-06 -6.973765e-20)
(0.10322029 3.6327222e-06 2.0530394e-18)
(0.10322142 3.6990038e-06 -2.1243404e-18)
(0.10322125 3.9687893e-06 0)
(0.10325435 -6.7275516e-08 -1.1280501e-19)
(0.10322302 2.041045e-07 2.0296995e-18)
(0.1032256 5.6687845e-09 -2.0834748e-18)
(0.10322661 4.9771786e-07 -6.8623427e-20)
(0.10322783 3.0407508e-07 3.6052669e-20)
(0.10322814 4.6714683e-07 0)
(0.10322713 4.9207075e-07 3.9273103e-20)
(0.10322644 5.5808928e-07 0)
(0.10322812 6.2771954e-07 5.3532943e-18)
(0.10322921 6.9548989e-07 8.0395729e-27)
(0.10322644 7.2364441e-07 -5.7515878e-18)
(0.10322546 7.8416519e-07 2.2989437e-20)
(0.10322592 8.1432941e-07 0)
(0.10322622 8.9111653e-07 0)
(0.10322639 9.3284535e-07 3.1597891e-18)
(0.10322708 1.0095196e-06 -3.2529364e-18)
(0.10322798 1.0454399e-06 0)
(0.10322878 1.0923783e-06 -1.312064e-20)
(0.10322928 1.1096858e-06 0)
(0.10322958 1.1655788e-06 0)
(0.10322976 1.1886565e-06 0)
(0.1032299 1.237778e-06 -1.8052417e-18)
(0.10323 1.2774685e-06 1.8506353e-18)
(0.10323008 1.3244716e-06 0)
(0.10323014 1.3559175e-06 -1.4832698e-20)
(0.10323019 1.375792e-06 0)
(0.10323023 1.3907609e-06 -1.5324805e-20)
(0.10323026 1.4236725e-06 -5.1392864e-19)
(0.10323027 1.4550827e-06 5.0637304e-19)
(0.10323026 1.4934718e-06 -1.5971336e-20)
(0.10323024 1.5363629e-06 5.3935938e-19)
(0.1032302 1.584642e-06 -1.4985331e-18)
(0.10323012 1.6360444e-06 9.6754739e-19)
(0.10322997 1.6828922e-06 -3.0216216e-20)
(0.1032297 1.7287367e-06 1.6187838e-26)
(0.10322922 1.7702635e-06 0)
(0.10322851 1.8118619e-06 0)
(0.10322769 1.8602396e-06 0)
(0.10322739 1.8977422e-06 1.3879185e-20)
(0.10322815 1.9494382e-06 -3.490085e-18)
(0.10322913 1.9933071e-06 6.8665624e-18)
(0.10323009 2.0412773e-06 4.8142167e-27)
(0.10323004 2.0943521e-06 -6.5941588e-18)
(0.10322951 2.1464068e-06 3.255751e-18)
(0.1032286 2.1913584e-06 0)
(0.10322708 2.2514292e-06 0)
(0.10322795 2.2839773e-06 0)
(0.10322825 2.3612891e-06 5.8891537e-18)
(0.10322818 2.4094456e-06 -5.7552448e-18)
(0.10322814 2.4775543e-06 2.1756521e-20)
(0.10322794 2.5450397e-06 -4.217779e-20)
(0.10322784 2.6038034e-06 -4.4512672e-26)
(0.10322752 2.6838189e-06 4.2911224e-26)
(0.10322662 2.771293e-06 -3.7735944e-20)
(0.10322692 2.8333573e-06 3.6082128e-20)
(0.10322647 2.9248441e-06 0)
(0.10322503 2.9611883e-06 7.101039e-26)
(0.10322676 3.1582963e-06 6.0937419e-20)
(0.10322661 3.1813016e-06 0)
(0.10325885 -6.6121453e-07 9.3069654e-19)
(0.10323219 8.0171611e-07 -9.5917047e-19)
(0.10323687 -3.3951467e-07 0)
(0.10323541 2.1709737e-07 6.7591834e-20)
(0.10323699 -4.5958738e-09 -3.5646632e-20)
(0.1032389 1.8519943e-07 2.4307713e-18)
(0.10323558 1.9529656e-07 -2.5379917e-18)
(0.10323576 1.7048184e-07 5.196886e-18)
(0.10323941 2.6359309e-07 1.4163447e-26)
(0.10323799 3.0765411e-07 -5.563077e-18)
(0.10323565 3.5260231e-07 -5.6876881e-18)
(0.1032354 3.9264605e-07 5.8707443e-18)
(0.10323632 4.5622578e-07 0)
(0.10323701 4.987053e-07 0)
(0.10323721 5.6202855e-07 3.1689768e-18)
(0.10323768 6.0873227e-07 -3.1998217e-18)
(0.10323878 6.5347003e-07 -1.2908382e-20)
(0.10323956 7.107612e-07 1.333139e-26)
(0.10323999 7.5845589e-07 0)
(0.10324024 8.2566905e-07 1.3657919e-20)
(0.10324042 8.994307e-07 -3.5586248e-18)
(0.10324054 9.8374834e-07 3.6062759e-18)
(0.10324065 1.0732304e-06 1.8410295e-18)
(0.10324073 1.1526146e-06 -1.8718864e-18)
(0.1032408 1.2211781e-06 0)
(0.10324085 1.3143132e-06 0)
(0.1032409 1.374054e-06 -9.5206359e-19)
(0.10324093 1.4298927e-06 1.0142676e-18)
(0.10324095 1.4350651e-06 0)
(0.10324095 1.4643297e-06 1.5998336e-20)
(0.10324093 1.4837445e-06 -1.5886103e-20)
(0.1032409 1.5236733e-06 1.5631717e-20)
(0.10324082 1.5824892e-06 9.8431788e-19)
(0.10324069 1.6551974e-06 9.8350498e-19)
(0.10324044 1.7180163e-06 1.4884095e-20)
(0.10323999 1.7887328e-06 -1.8884597e-18)
(0.10323921 1.8259876e-06 -1.8282474e-18)
(0.10323819 1.8529237e-06 -1.8115304e-18)
(0.10323781 1.9051327e-06 3.5468205e-18)
(0.10323845 1.9071291e-06 1.3664235e-20)
(0.10323938 1.9747802e-06 -2.6833775e-20)
(0.10324063 1.9849736e-06 1.3165911e-20)
(0.10324099 2.0354718e-06 -1.2910124e-20)
(0.10324043 2.0752584e-06 -2.5296576e-20)
(0.10323866 2.1052883e-06 -1.2378893e-20)
(0.10323729 2.181083e-06 -2.4200681e-20)
(0.10323819 2.1629164e-06 0)
(0.1032389 2.2589872e-06 0)
(0.10323892 2.275777e-06 -5.7093322e-18)
(0.10323862 2.3435266e-06 -4.3456923e-20)
(0.10323856 2.4020494e-06 5.4264203e-18)
(0.10323868 2.4344669e-06 -4.0597095e-20)
(0.10323836 2.5704708e-06 3.9044759e-20)
(0.10323745 2.5732166e-06 2.431008e-18)
(0.10323587 2.6633096e-06 -2.3175794e-18)
(0.10323768 2.7899463e-06 -2.1631799e-18)
(0.10323399 2.526297e-06 4.1378314e-18)
(0.10323767 3.3395867e-06 -8.9196085e-19)
(0.1032376 2.4311471e-06 -8.2473456e-19)
(0.10325609 -1.7229648e-06 -1.0634281e-19)
(0.10322937 8.5867378e-07 5.8453425e-20)
(0.10324278 1.3638656e-07 3.1276321e-20)
(0.1032334 7.6000366e-07 0)
(0.10323787 5.8487332e-07 0)
(0.10324468 9.1999629e-07 2.335754e-18)
(0.10323287 7.8104701e-07 -2.4643147e-18)
(0.10323642 8.3906993e-07 5.1959401e-18)
(0.10324584 8.4671949e-07 -5.3509944e-18)
(0.10323872 9.2646134e-07 5.5577445e-18)
(0.10324001 8.4230545e-07 -5.7781485e-18)
(0.10324076 8.3681505e-07 -5.8998621e-18)
(0.10324045 7.8332158e-07 3.0290556e-18)
(0.10324271 8.0042408e-07 6.2211736e-18)
(0.10324311 7.5982991e-07 -3.1768618e-18)
(0.10324209 7.3167762e-07 5.5024085e-26)
(0.10324403 6.9313853e-07 1.2944019e-20)
(0.10324511 6.8676983e-07 -3.3525952e-18)
(0.10324565 6.2943372e-07 6.8855865e-18)
(0.10324595 6.0890782e-07 -3.5328174e-18)
(0.10324619 5.4964622e-07 0)
(0.10324634 5.2419805e-07 1.4174159e-20)
(0.10324648 4.5783747e-07 0)
(0.10324659 4.3547539e-07 7.3260899e-21)
(0.10324668 4.0632862e-07 -7.4462726e-21)
(0.10324676 3.7598396e-07 0)
(0.10324683 3.3739979e-07 -2.3069802e-20)
(0.10324689 3.1190384e-07 0)
(0.10324692 2.818396e-07 0)
(0.10324697 2.5329993e-07 0)
(0.10324697 2.2762954e-07 0)
(0.10324692 1.9711171e-07 0)
(0.10324684 1.6758723e-07 2.3065962e-20)
(0.10324668 1.3478325e-07 7.5646313e-21)
(0.10324636 9.8435635e-08 0)
(0.1032458 7.7719265e-08 2.1961757e-20)
(0.10324456 3.220278e-08 -1.4399838e-20)
(0.10324331 8.0720143e-09 7.0796001e-21)
(0.10324376 -2.7187155e-08 -6.9589784e-21)
(0.10324352 -6.6488971e-08 -1.3674971e-20)
(0.10324475 -7.9788534e-08 3.4512808e-18)
(0.10324519 -1.1617172e-07 -6.7607996e-18)
(0.10324734 -1.2132931e-07 1.2923039e-20)
(0.10324657 -1.2665533e-07 3.2536375e-18)
(0.10324161 -1.303354e-07 1.2388551e-20)
(0.10324326 -1.0892679e-07 2.4212654e-20)
(0.10324279 -1.6868398e-07 0)
(0.10324478 -1.3099857e-07 -5.8781012e-18)
(0.10324522 -1.4799582e-07 2.235792e-20)
(0.10324363 -1.2784466e-07 5.5919608e-18)
(0.10324408 -9.8135755e-08 2.0952017e-20)
(0.103245 -8.2746052e-08 0)
(0.10324387 -6.245324e-09 -2.4800699e-18)
(0.10324409 3.9905446e-08 2.3883166e-18)
(0.10323509 1.2119839e-07 0)
(0.10324449 2.1306485e-07 3.3254887e-20)
(0.10323315 3.4670539e-07 -2.0276119e-18)
(0.10324403 6.1986031e-07 1.798292e-18)
(0.10324408 2.5998775e-07 -1.0679004e-19)
(0.10321288 -1.84882e-06 5.1687203e-20)
(0.10319571 -1.1104718e-06 1.7681467e-18)
(0.10320838 -8.8015271e-07 -1.9946208e-18)
(0.10319864 -1.0065444e-06 2.1001223e-18)
(0.1032096 -5.0480218e-07 -4.4613406e-18)
(0.10320727 -8.8391701e-07 4.7081212e-18)
(0.10319664 -7.436466e-07 -2.4603898e-18)
(0.10320996 -5.1109734e-07 5.1376262e-18)
(0.10320948 -5.7977015e-07 -1.0474515e-20)
(0.10320268 -6.0848414e-07 -5.5452858e-18)
(0.10319937 -5.3170462e-07 -5.7152977e-18)
(0.10319884 -4.1438395e-07 5.9146584e-18)
(0.10320496 -3.3604094e-07 0)
(0.10320626 -2.6992277e-07 -1.2156756e-20)
(0.1032018 -1.8711709e-07 6.2211305e-21)
(0.10320446 -1.0678997e-07 -1.2714915e-20)
(0.10320418 4.5720595e-08 -3.3156288e-18)
(0.10320416 1.0621691e-07 3.373719e-18)
(0.10320432 2.2215575e-07 -6.7381823e-21)
(0.10320447 2.883773e-07 3.5253071e-18)
(0.10320457 3.7871594e-07 -7.144451e-18)
(0.10320468 4.6461893e-07 5.4483764e-18)
(0.10320477 5.1870104e-07 -1.846009e-18)
(0.10320484 6.1291623e-07 -3.6638981e-21)
(0.10320491 6.6976823e-07 -1.898567e-18)
(0.10320497 7.4534844e-07 1.9401791e-18)
(0.10320501 8.0380956e-07 7.6842536e-21)
(0.10320505 8.7372358e-07 0)
(0.10320507 9.2803546e-07 0)
(0.10320508 9.9674587e-07 0)
(0.10320509 1.0552134e-06 0)
(0.10320509 1.1303549e-06 -1.0009473e-18)
(0.10320508 1.1979656e-06 9.7730856e-19)
(0.10320506 1.2857001e-06 -1.9424211e-18)
(0.10320506 1.3461308e-06 1.9039788e-18)
(0.10320497 1.4089858e-06 -3.666234e-21)
(0.10320493 1.4885915e-06 0)
(0.10320411 1.56783e-06 3.6329618e-18)
(0.10320222 1.6418985e-06 -3.5652558e-18)
(0.10320373 1.6873598e-06 0)
(0.10320375 1.6930202e-06 -3.4553399e-18)
(0.10320511 1.6722162e-06 3.3915109e-18)
(0.10320757 1.6231487e-06 -3.3128995e-18)
(0.10320939 1.5605602e-06 3.2326258e-18)
(0.10320858 1.5289425e-06 -3.1814306e-18)