/*--------------------------------*- C++ -*----------------------------------*\
| =========                 |                                                 |
| \\      /  F ield         | OpenFOAM: The Open Source CFD Toolbox           |
|  \\    /   O peration     | Version:  v2006                                 |
|   \\  /    A nd           | Website:  www.openfoam.com                      |
|    \\/     M anipulation  |                                                 |
\*---------------------------------------------------------------------------*/
FoamFile
{
    version     2.0;
    format      ascii;
    class       volVectorField;
    location    "4000";
    object      UMean;
}
// * * * * * * * * * * * * * * * * * * * * * * * * * * * * * * * * * * * * * //

dimensions      [0 1 -1 0 0 0 0];


internalField   nonuniform List<vector> 
55713
(
(0.10320405 7.0108925e-07 0)
(0.10309447 -3.4928481e-07 0)
(0.10307391 9.5246946e-07 2.5665466e-18)
(0.1030711 7.5423573e-07 -2.5531444e-18)
(0.10307235 1.5520229e-06 2.5712341e-18)
(0.10307368 1.5670277e-06 1.6413233e-27)
(0.10307427 2.0763015e-06 -2.6466654e-18)
(0.10307425 2.2349901e-06 0)
(0.10307392 2.5797231e-06 1.0712441e-20)
(0.10307367 2.8256076e-06 0)
(0.10307364 3.1006115e-06 -1.1108915e-20)
(0.10307374 3.3604172e-06 -1.1313102e-20)
(0.10307379 3.6195571e-06 0)
(0.10307381 3.8714097e-06 3.0032198e-18)
(0.10307394 4.1151467e-06 -3.0577931e-18)
(0.10307419 4.3521833e-06 -6.0799502e-21)
(0.10307441 4.5837314e-06 3.1747839e-18)
(0.10307447 4.8091919e-06 -3.2247181e-18)
(0.10307438 5.029573e-06 6.40872e-21)
(0.1030743 5.2443787e-06 -3.3382092e-18)
(0.10307436 5.4531675e-06 3.3888735e-18)
(0.1030746 5.6570124e-06 0)
(0.10307493 5.858198e-06 0)
(0.10307528 6.0575406e-06 -1.7915551e-18)
(0.10307556 6.2551785e-06 1.8137481e-18)
(0.10307579 6.4518339e-06 0)
(0.10307596 6.6481798e-06 0)
(0.10307609 6.8443257e-06 0)
(0.10307618 7.0404328e-06 2.4130464e-19)
(0.1030762 7.2367596e-06 -9.3826952e-29)
(0.10307614 7.4326448e-06 -2.4417823e-19)
(0.10307598 7.6289399e-06 0)
(0.10307571 7.8267521e-06 0)
(0.10307532 8.0259799e-06 0)
(0.10307486 8.2271226e-06 0)
(0.10307443 8.4296454e-06 1.805982e-18)
(0.10307418 8.6341031e-06 -1.7695995e-18)
(0.1030742 8.841699e-06 -3.4944028e-18)
(0.10307446 9.0530182e-06 2.1564853e-27)
(0.10307474 9.2679639e-06 3.371278e-18)
(0.10307484 9.4864246e-06 0)
(0.10307467 9.7083654e-06 6.3724864e-21)
(0.10307436 9.9348527e-06 -3.2057366e-18)
(0.10307415 1.0164797e-05 3.1492025e-18)
(0.10307415 1.0401298e-05 3.093164e-18)
(0.10307433 1.0641785e-05 -3.043619e-18)
(0.10307452 1.0892065e-05 0)
(0.1030746 1.1144589e-05 0)
(0.10307456 1.1413185e-05 -2.8643925e-18)
(0.10307442 1.1677309e-05 2.823547e-18)
(0.10307425 1.1972935e-05 0)
(0.10307412 1.2244917e-05 0)
(0.10307403 1.2581919e-05 0)
(0.10307388 1.2857316e-05 0)
(0.10307364 1.3253695e-05 2.5905184e-18)
(0.10307356 1.3532865e-05 -4.1372543e-27)
(0.10307389 1.3978976e-05 -3.7822398e-18)
(0.10307429 1.4390295e-05 1.2289558e-18)
(0.10307417 1.4527818e-05 -1.9272436e-20)
(0.10321043 1.1486207e-06 0)
(0.10311107 -2.735501e-07 2.4232314e-18)
(0.10309495 1.1005802e-06 -2.5058107e-18)
(0.10309339 7.3167198e-07 3.9173324e-20)
(0.1030949 1.4250036e-06 -2.5382172e-18)
(0.10309611 1.4068272e-06 5.1432161e-18)
(0.10309653 1.910834e-06 4.0225837e-27)
(0.10309637 2.0158728e-06 -2.6842842e-18)
(0.10309598 2.3572907e-06 -1.0694871e-20)
(0.10309576 2.5572912e-06 2.1812991e-20)
(0.10309581 2.7969382e-06 -2.8356562e-18)
(0.10309592 3.0154362e-06 2.9133604e-18)
(0.10309593 3.2348434e-06 2.957759e-18)
(0.10309595 3.4462082e-06 2.8380414e-27)
(0.10309611 3.6521495e-06 2.6746802e-27)
(0.10309639 3.8536697e-06 -3.1212232e-18)
(0.1030966 4.0508454e-06 -6.2197757e-21)
(0.10309661 4.2435375e-06 0)
(0.10309647 4.433023e-06 3.2933655e-18)
(0.10309637 4.6187672e-06 -6.715778e-18)
(0.10309646 4.8020583e-06 3.4229137e-18)
(0.10309673 4.9828833e-06 1.3573642e-20)
(0.10309707 5.1618689e-06 0)
(0.1030974 5.3393644e-06 7.0171808e-21)
(0.10309767 5.5156431e-06 0)
(0.10309787 5.6910879e-06 9.1335686e-19)
(0.10309802 5.8658055e-06 -1.885412e-18)
(0.10309813 6.0396387e-06 9.4257735e-19)
(0.1030982 6.2130195e-06 2.4307949e-19)
(0.10309822 6.3865638e-06 -2.6158994e-19)
(0.10309816 6.5587422e-06 0)
(0.103098 6.730342e-06 9.5240781e-19)
(0.10309773 6.9036657e-06 -1.905105e-18)
(0.10309735 7.0777786e-06 9.3755409e-19)
(0.10309688 7.2514688e-06 0)
(0.10309641 7.4241444e-06 1.8151658e-18)
(0.1030961 7.6002142e-06 -1.7922644e-18)
(0.10309609 7.7834061e-06 1.3714913e-20)
(0.10309635 7.9713876e-06 0)
(0.10309668 8.1598768e-06 6.6261573e-21)
(0.10309683 8.3488665e-06 3.3337596e-18)
(0.10309668 8.5383341e-06 -6.5568084e-18)
(0.10309633 8.7339747e-06 -4.7692354e-28)
(0.10309604 8.9324804e-06 3.1589442e-18)
(0.10309598 9.1414954e-06 -3.1012534e-18)
(0.10309614 9.35025e-06 6.0937122e-18)
(0.10309634 9.5732533e-06 -5.9737571e-18)
(0.10309644 9.788103e-06 2.9302899e-18)
(0.10309641 1.0031386e-05 -1.1227308e-20)
(0.10309626 1.0251343e-05 0)
(0.10309606 1.0532975e-05 0)
(0.10309589 1.0748826e-05 0)
(0.10309578 1.1092576e-05 -2.6778939e-18)
(0.10309564 1.129625e-05 2.626058e-18)
(0.10309535 1.171652e-05 0)
(0.10309515 1.1910144e-05 3.9196609e-20)
(0.10309545 1.2393674e-05 0)
(0.10309588 1.2607803e-05 1.8930865e-20)
(0.10309572 1.3049721e-05 1.8554083e-20)
(0.10321592 1.3169752e-06 0)
(0.10312683 -2.780349e-07 3.7333281e-20)
(0.10311338 1.0516322e-06 -3.7946887e-20)
(0.10311291 6.6138035e-07 -3.8483701e-20)
(0.10311458 1.2677119e-06 -2.5456491e-18)
(0.10311565 1.2680791e-06 2.5796332e-18)
(0.10311592 1.6899623e-06 0)
(0.10311564 1.8034234e-06 2.0898788e-20)
(0.10311521 2.0972026e-06 -5.466564e-18)
(0.10311506 2.2790268e-06 5.5392272e-18)
(0.10311521 2.5003967e-06 0)
(0.10311532 2.6913747e-06 -2.2716854e-20)
(0.10311528 2.8837575e-06 0)
(0.10311529 3.0623124e-06 3.0007948e-18)
(0.10311552 3.2362642e-06 -6.1657517e-18)
(0.10311584 3.4071034e-06 3.1414193e-18)
(0.10311602 3.5763052e-06 -3.1875775e-18)
(0.10311596 3.7433309e-06 -3.8900516e-27)
(0.10311578 3.9076247e-06 3.3178313e-18)
(0.10311569 4.0668203e-06 -3.376963e-18)
(0.10311582 4.2232529e-06 -3.6382651e-27)
(0.10311613 4.3778271e-06 3.4958048e-18)
(0.10311648 4.5301933e-06 0)
(0.1031168 4.6810991e-06 1.7936035e-18)
(0.10311704 4.8320539e-06 1.711325e-27)
(0.10311722 4.9812702e-06 -1.8386972e-18)
(0.10311736 5.129384e-06 -1.4828271e-20)
(0.10311745 5.2774962e-06 4.9709761e-19)
(0.10311751 5.424745e-06 -4.8954089e-19)
(0.10311752 5.5718716e-06 2.4777152e-19)
(0.10311746 5.7182828e-06 -2.4699333e-19)
(0.10311731 5.8627628e-06 3.040101e-20)
(0.10311706 6.0080155e-06 0)
(0.10311669 6.1547359e-06 1.4725517e-20)
(0.10311621 6.3026244e-06 -1.4488039e-20)
(0.1031157 6.4499076e-06 -1.4250965e-20)
(0.10311534 6.5991472e-06 -1.4014466e-20)
(0.10311527 6.7533933e-06 -1.3778665e-20)
(0.10311553 6.9120347e-06 3.4536026e-18)
(0.10311591 7.070587e-06 -3.4071445e-18)
(0.10311613 7.2335037e-06 0)
(0.10311602 7.394775e-06 3.2876751e-18)
(0.10311564 7.5644948e-06 -3.2155612e-18)
(0.10311526 7.7315323e-06 3.1935419e-18)
(0.10311513 7.9142804e-06 -3.1094935e-18)
(0.10311527 8.0886034e-06 -3.0264455e-18)
(0.10311549 8.2906319e-06 -2.3247546e-27)
(0.10311561 8.4674153e-06 2.9091433e-18)
(0.10311559 8.6961443e-06 2.2445629e-20)
(0.10311544 8.8683203e-06 0)
(0.10311522 9.147935e-06 0)
(0.10311501 9.2962678e-06 0)
(0.10311488 9.6557076e-06 2.0611811e-20)
(0.10311475 9.7626041e-06 -2.0157978e-20)
(0.10311445 1.0204668e-05 0)
(0.10311412 1.0297879e-05 2.4654045e-18)
(0.10311437 1.0794345e-05 -2.4089204e-18)
(0.10311487 1.090712e-05 0)
(0.10311467 1.1454896e-05 0)
(0.10322021 1.3464173e-06 6.8448474e-20)
(0.10313982 -2.6586703e-07 -7.2512456e-20)
(0.10312954 9.3996629e-07 -2.3359926e-18)
(0.10312994 6.0318569e-07 2.4204566e-18)
(0.10313168 1.1088945e-06 3.8683914e-20)
(0.10313258 1.1317105e-06 0)
(0.1031327 1.483852e-06 -2.6020678e-18)
(0.10313231 1.5924447e-06 7.9764598e-18)
(0.10313186 1.8435081e-06 -1.0914348e-17)
(0.10313183 2.0028572e-06 5.6031466e-18)
(0.10313206 2.1961119e-06 -2.8522124e-18)
(0.10313213 2.3624028e-06 2.2760609e-20)
(0.10313203 2.5298706e-06 5.9483413e-18)
(0.10313208 2.6849996e-06 -3.0109981e-18)
(0.10313239 2.8359831e-06 0)
(0.10313275 2.9839009e-06 0)
(0.10313289 3.1297999e-06 -1.255948e-20)
(0.10313275 3.272559e-06 0)
(0.10313252 3.4128327e-06 0)
(0.10313246 3.5505612e-06 2.6526234e-20)
(0.10313265 3.686543e-06 -1.349823e-20)
(0.10313299 3.8210339e-06 -2.746778e-20)
(0.10313336 3.9539613e-06 -1.7881827e-18)
(0.10313366 4.0851153e-06 1.8327227e-18)
(0.10313388 4.214925e-06 1.4444776e-20)
(0.10313404 4.3434193e-06 -1.4682976e-20)
(0.10313416 4.472456e-06 9.6989524e-19)
(0.10313424 4.6017069e-06 -9.7023684e-19)
(0.1031343 4.7302837e-06 1.5397924e-20)
(0.1031343 4.8571879e-06 -2.3368134e-19)
(0.10313424 4.9814551e-06 -2.4831484e-19)
(0.1031341 5.1033493e-06 4.7367067e-19)
(0.10313387 5.2265829e-06 0)
(0.10313352 5.3504296e-06 -1.9090129e-18)
(0.10313304 5.4756296e-06 1.4558222e-20)
(0.1031325 5.5988723e-06 3.6941364e-18)
(0.10313207 5.7260508e-06 -1.7880449e-18)
(0.10313194 5.8557894e-06 0)
(0.10313218 5.9902811e-06 1.3602369e-20)
(0.10313262 6.1220996e-06 0)
(0.10313293 6.2637155e-06 0)
(0.10313288 6.400591e-06 2.578114e-20)
(0.10313249 6.5526189e-06 -1.2653636e-20)
(0.10313202 6.6914294e-06 -3.2034464e-18)
(0.10313179 6.8553956e-06 3.1177803e-18)
(0.1031319 6.9951412e-06 -3.7465898e-26)
(0.10313215 7.1805041e-06 2.3402499e-20)
(0.1031323 7.318078e-06 3.5951924e-26)
(0.10313229 7.5344531e-06 -2.2438388e-20)
(0.10313215 7.6603508e-06 -5.5977189e-18)
(0.10313191 7.9247597e-06 5.4941809e-18)
(0.10313166 8.0295025e-06 4.1934613e-20)
(0.1031315 8.3511776e-06 -2.6608748e-18)
(0.1031314 8.445877e-06 5.1107319e-18)
(0.10313111 8.8217901e-06 -5.018883e-18)
(0.10313065 8.9203496e-06 2.4236413e-18)
(0.10313084 9.377717e-06 -7.3627096e-20)
(0.10313142 9.4275808e-06 0)
(0.1031312 1.0096626e-05 0)
(0.10322346 1.223189e-06 -6.6152781e-20)
(0.10315165 -2.0427948e-07 7.046033e-20)
(0.10314365 7.9582091e-07 -2.3197734e-18)
(0.10314478 5.524263e-07 2.3052225e-18)
(0.10314651 9.534171e-07 -2.4459967e-18)
(0.10314722 1.0116073e-06 2.5560655e-18)
(0.10314722 1.2978053e-06 2.5469361e-18)
(0.10314672 1.4019992e-06 -2.6564103e-18)
(0.10314629 1.6166492e-06 5.4050239e-18)
(0.10314641 1.7544154e-06 -1.1115651e-17)
(0.10314672 1.9235333e-06 5.7094875e-18)
(0.10314671 2.0666844e-06 -2.28031e-20)
(0.10314655 2.2114625e-06 -2.9820977e-18)
(0.10314668 2.3444775e-06 6.0894963e-18)
(0.10314708 2.4737976e-06 -3.1068617e-18)
(0.10314745 2.6001156e-06 -3.168548e-18)
(0.10314753 2.7246985e-06 2.5233695e-20)
(0.10314729 2.8463837e-06 3.2653486e-18)
(0.10314704 2.966025e-06 -2.6187988e-20)
(0.10314703 3.0835349e-06 -5.33282e-20)
(0.10314729 3.1992921e-06 1.357013e-20)
(0.10314767 3.3140561e-06 1.3808479e-20)
(0.10314804 3.4272664e-06 0)
(0.10314832 3.5389726e-06 -1.8287019e-18)
(0.10314852 3.6490982e-06 -1.4526844e-20)
(0.10314867 3.7585454e-06 1.9050133e-18)
(0.10314877 3.8686345e-06 0)
(0.10314885 3.9787597e-06 0)
(0.10314889 4.0889863e-06 -3.0982296e-20)
(0.1031489 4.197564e-06 2.3498837e-19)
(0.10314884 4.3037776e-06 -2.4955687e-19)
(0.10314872 4.4074574e-06 0)
(0.1031485 4.5135167e-06 0)
(0.10314817 4.6191671e-06 -1.9030291e-18)
(0.1031477 4.7295504e-06 3.7438881e-18)
(0.10314714 4.8356746e-06 -1.8553168e-18)
(0.10314664 4.9453661e-06 -1.7817232e-18)
(0.10314643 5.0501687e-06 1.7791464e-18)
(0.10314664 5.161399e-06 0)
(0.10314713 5.2661659e-06 0)
(0.10314755 5.3913605e-06 -3.3999642e-18)
(0.10314758 5.5062962e-06 3.2861417e-18)
(0.1031472 5.6450896e-06 2.5392846e-20)
(0.10314665 5.7579523e-06 -3.1883206e-18)
(0.10314629 5.9052788e-06 6.2276111e-18)
(0.10314635 6.0147891e-06 -3.0871993e-18)
(0.10314664 6.1817167e-06 -3.0234123e-18)
(0.10314683 6.291384e-06 5.8720629e-18)
(0.10314684 6.4851103e-06 -2.8713176e-18)
(0.10314671 6.5900303e-06 -6.5758833e-20)
(0.10314647 6.818121e-06 0)
(0.10314619 6.9190507e-06 -4.1737555e-20)
(0.10314598 7.1844228e-06 2.6019475e-18)
(0.1031459 7.2888318e-06 -5.0621282e-18)
(0.10314566 7.5956089e-06 2.5350886e-18)
(0.10314505 7.7087384e-06 3.7237194e-20)
(0.10314517 8.1142126e-06 1.4408069e-19)
(0.10314585 8.1457662e-06 6.9496956e-20)
(0.10314561 8.8413111e-06 6.6624188e-20)
(0.10322568 1.0055326e-06 -1.0237595e-18)
(0.10316149 -1.2346854e-07 -1.0960623e-18)
(0.10315593 6.3218918e-07 2.3396126e-18)
(0.1031576 5.1644136e-07 -2.2672659e-18)
(0.10315925 8.20216e-07 -7.0863028e-27)
(0.10315977 8.978262e-07 2.4567848e-18)
(0.10315966 1.1241341e-06 4.0198468e-20)
(0.10315904 1.2248821e-06 5.2940031e-18)
(0.10315867 1.4041583e-06 4.2483019e-20)
(0.103159 1.5218734e-06 -5.6212724e-18)
(0.10315935 1.6679542e-06 5.6696657e-18)
(0.10315918 1.7913526e-06 -5.8253352e-18)
(0.10315901 1.9139038e-06 -2.9898299e-18)
(0.10315925 2.0285799e-06 3.0545393e-18)
(0.10315976 2.1379882e-06 2.4362378e-20)
(0.10316013 2.2465894e-06 0)
(0.1031601 2.3521911e-06 -2.5344696e-20)
(0.10315977 2.4554203e-06 3.3321192e-18)
(0.10315951 2.5564377e-06 -6.7099955e-18)
(0.10315958 2.6557314e-06 2.6830782e-26)
(0.10315992 2.753458e-06 2.7276571e-20)
(0.10316033 2.8503564e-06 3.5529845e-18)
(0.10316069 2.9456604e-06 -1.8073227e-18)
(0.10316095 3.0398215e-06 1.8382224e-18)
(0.10316113 3.1328562e-06 1.8692087e-18)
(0.10316126 3.2261711e-06 -1.915132e-18)
(0.10316135 3.3192211e-06 9.6572197e-19)
(0.10316142 3.4125977e-06 -9.8132687e-19)
(0.10316147 3.5060206e-06 -2.336561e-19)
(0.10316147 3.5970148e-06 1.5746149e-20)
(0.10316142 3.6864864e-06 2.5069997e-19)
(0.1031613 3.7735289e-06 0)
(0.10316111 3.8635337e-06 -1.5176664e-20)
(0.10316081 3.951133e-06 0)
(0.10316036 4.0455352e-06 -1.4686101e-20)
(0.10315978 4.1328723e-06 -1.8485599e-18)
(0.10315922 4.2287751e-06 -2.8396645e-20)
(0.10315891 4.3109457e-06 5.3588249e-18)
(0.10315906 4.4080231e-06 -7.0208089e-18)
(0.10315959 4.4937431e-06 -2.693951e-20)
(0.10316013 4.605329e-06 6.8249661e-18)
(0.10316028 4.6977554e-06 -3.3236217e-18)
(0.10315993 4.8207561e-06 3.2099687e-18)
(0.10315931 4.9127451e-06 -3.2227777e-18)
(0.10315881 5.0445659e-06 2.4485181e-20)
(0.10315878 5.1344902e-06 0)
(0.10315911 5.2818965e-06 0)
(0.10315935 5.3757228e-06 4.5907784e-20)
(0.10315938 5.5427359e-06 5.7411802e-18)
(0.10315927 5.6392399e-06 -5.5596053e-18)
(0.10315904 5.828789e-06 -4.2674581e-20)
(0.10315874 5.9310054e-06 2.6587985e-18)
(0.10315846 6.1462364e-06 -5.1281621e-18)
(0.10315838 6.257475e-06 -4.3305978e-27)
(0.10315826 6.5081012e-06 2.3893794e-18)
(0.10315748 6.6303873e-06 -8.6043194e-26)
(0.10315749 6.9594118e-06 -2.2564435e-18)
(0.10315829 7.003229e-06 2.096326e-18)
(0.10315805 7.6336204e-06 -6.4392829e-20)
(0.10322726 7.4013219e-07 0)
(0.10317048 -4.2445133e-08 6.663787e-20)
(0.10316684 4.7058621e-07 -7.2665172e-26)
(0.10316888 4.5247505e-07 0)
(0.10317039 6.6713112e-07 -2.4637153e-18)
(0.10317072 7.8573863e-07 2.5137562e-18)
(0.10317053 9.4701231e-07 0)
(0.10316978 1.0576564e-06 4.1211214e-20)
(0.10316953 1.1937802e-06 0)
(0.10317012 1.3048761e-06 5.6190809e-18)
(0.10317044 1.4255367e-06 -5.6741468e-18)
(0.10317004 1.5353525e-06 2.9291917e-18)
(0.10316992 1.6357581e-06 5.1106893e-27)
(0.10317035 1.7364237e-06 -3.0640261e-18)
(0.10317093 1.8274325e-06 -3.1539788e-18)
(0.10317128 1.9214524e-06 3.1940376e-18)
(0.1031711 2.0098275e-06 0)
(0.10317066 2.0982936e-06 2.5943911e-20)
(0.10317044 2.1829218e-06 -2.6432955e-20)
(0.10317062 2.2681134e-06 2.8372885e-26)
(0.10317104 2.3506118e-06 -2.740432e-20)
(0.10317147 2.4331702e-06 0)
(0.10317181 2.5131285e-06 0)
(0.10317205 2.5930244e-06 0)
(0.10317221 2.6715913e-06 0)
(0.10317233 2.750572e-06 0)
(0.10317241 2.8292465e-06 -9.5523697e-19)
(0.10317247 2.9079024e-06 5.0847565e-19)
(0.10317251 2.9855305e-06 5.0094623e-19)
(0.10317251 3.0620347e-06 2.3727632e-19)
(0.10317247 3.1366488e-06 -7.551856e-19)
(0.10317237 3.2098872e-06 5.1098529e-19)
(0.1031722 3.2858578e-06 1.5236185e-20)
(0.10317193 3.3592623e-06 0)
(0.10317151 3.4387765e-06 1.47421e-20)
(0.10317093 3.5096368e-06 0)
(0.10317029 3.5909364e-06 0)
(0.10316987 3.6562267e-06 3.613794e-18)
(0.10316993 3.7456006e-06 -7.0189422e-18)
(0.10317049 3.8156485e-06 6.9482765e-18)
(0.10317116 3.9125546e-06 -6.8487426e-18)
(0.10317146 3.9882086e-06 6.6694467e-18)
(0.10317117 4.0918501e-06 -3.2456092e-18)
(0.1031705 4.1701005e-06 2.5054565e-20)
(0.10316983 4.2805904e-06 3.1665379e-18)
(0.10316966 4.3608251e-06 -3.0759913e-18)
(0.10317004 4.4799318e-06 2.3506116e-20)
(0.10317035 4.5671337e-06 -2.2970075e-20)
(0.1031704 4.6999949e-06 5.7398213e-18)
(0.10317032 4.794046e-06 -1.1147325e-17)
(0.10317009 4.9415893e-06 5.4894059e-18)
(0.10316979 5.0442983e-06 4.1352991e-20)
(0.10316944 5.2140027e-06 0)
(0.1031693 5.3253519e-06 -2.5226987e-18)
(0.10316936 5.5222996e-06 2.3970742e-18)
(0.10316843 5.6495185e-06 -7.2057972e-20)
(0.10316829 5.9232387e-06 2.140386e-18)
(0.10316924 5.9965699e-06 -2.0410216e-18)
(0.10316898 6.5216339e-06 1.245834e-19)
(0.10322826 4.0147856e-07 0)
(0.10317803 3.6716189e-08 -2.2050771e-18)
(0.10317642 3.2683087e-07 -6.7894562e-20)
(0.1031786 4.5059368e-07 4.602891e-18)
(0.10317997 5.7565257e-07 7.3796394e-20)
(0.10318013 7.0225259e-07 -4.9858599e-18)
(0.10317987 8.1649463e-07 2.5433881e-18)
(0.10317896 9.3129261e-07 5.1737905e-18)
(0.10317895 1.0281898e-06 -5.3753349e-18)
(0.10317984 1.1340727e-06 -3.2509756e-26)
(0.10318 1.223717e-06 4.4710873e-20)
(0.10317929 1.3215509e-06 -2.292248e-20)
(0.1031794 1.3970966e-06 0)
(0.10318002 1.4881932e-06 2.4009136e-20)
(0.10318065 1.5599939e-06 3.1647782e-18)
(0.10318094 1.6443338e-06 -3.2060173e-18)
(0.10318057 1.7142608e-06 3.2451738e-18)
(0.10318003 1.7899012e-06 -3.3345796e-18)
(0.1031799 1.8559869e-06 1.992592e-26)
(0.10318023 1.9291853e-06 -3.4334341e-18)
(0.10318072 1.994931e-06 7.0182128e-18)
(0.10318116 2.0645825e-06 -3.5851218e-18)
(0.10318148 2.1284529e-06 0)
(0.10318169 2.1958717e-06 1.4491099e-20)
(0.10318183 2.2602451e-06 -1.9008707e-18)
(0.10318194 2.3274426e-06 1.902555e-18)
(0.10318202 2.3926268e-06 -1.5227153e-20)
(0.10318208 2.4590718e-06 4.7971121e-19)
(0.10318211 2.5235245e-06 -5.0312714e-19)
(0.10318211 2.5864035e-06 1.5881534e-20)
(0.10318208 2.6476207e-06 5.052381e-19)
(0.10318199 2.7077361e-06 -5.1274912e-19)
(0.10318185 2.7683176e-06 -1.5287858e-20)
(0.10318161 2.8278732e-06 0)
(0.10318123 2.8924685e-06 0)
(0.10318066 2.950201e-06 -1.8762626e-18)
(0.10317997 3.020881e-06 1.8302597e-18)
(0.10317941 3.0808219e-06 -2.8107251e-20)
(0.10317934 3.1541617e-06 -2.7616697e-20)
(0.10317991 3.2165606e-06 0)
(0.10318072 3.295674e-06 2.6631235e-20)
(0.10318121 3.3625242e-06 -3.3190052e-18)
(0.10318101 3.4490577e-06 3.2552224e-18)
(0.10318034 3.5190066e-06 -3.2157318e-18)
(0.10317951 3.6109389e-06 3.1249418e-18)
(0.10317907 3.6825971e-06 2.4078548e-20)
(0.10317953 3.7802646e-06 -2.3539064e-20)
(0.10317994 3.8634994e-06 0)
(0.10318 3.9708337e-06 0)
(0.10317996 4.0603972e-06 -4.3653539e-20)
(0.10317973 4.1813163e-06 0)
(0.10317946 4.2811566e-06 -4.1164107e-20)
(0.10317905 4.4140172e-06 0)
(0.10317877 4.5318566e-06 2.5378215e-18)
(0.10317908 4.6820943e-06 -2.2935102e-18)
(0.10317802 4.8197695e-06 7.0901144e-20)
(0.10317766 4.9987009e-06 -2.1641267e-18)
(0.1031788 5.0980742e-06 3.0786445e-18)
(0.10317855 5.4668581e-06 -1.0855932e-18)
(0.103227 1.1865123e-07 1.1631834e-19)
(0.10318281 1.1498467e-07 -2.0208909e-18)
(0.10318342 1.7009423e-07 -2.5973686e-27)
(0.10318543 3.7203401e-07 2.1610497e-18)
(0.10318671 4.055878e-07 0)
(0.10318678 5.8402085e-07 3.8035142e-20)
(0.10318635 6.3253046e-07 -3.951178e-20)
(0.10318528 7.5999559e-07 5.2776485e-18)
(0.10318573 8.0713286e-07 -1.0814673e-17)
(0.10318687 9.2317506e-07 -4.3518837e-20)
(0.10318668 9.7926847e-07 5.6821601e-18)
(0.10318565 1.0719354e-06 2.9617495e-18)
(0.10318622 1.1205987e-06 -3.0115213e-18)
(0.103187 1.2064582e-06 -2.4078136e-20)
(0.10318763 1.2560513e-06 -2.46137e-20)
(0.10318784 1.3343765e-06 0)
(0.1031872 1.3827605e-06 2.5648887e-20)
(0.1031866 1.4543384e-06 -2.6152647e-20)
(0.10318664 1.5024593e-06 2.6649613e-20)
(0.10318713 1.5697909e-06 0)
(0.10318767 1.6187757e-06 3.5643047e-18)
(0.1031881 1.6812975e-06 -5.3985036e-18)
(0.10318838 1.7293139e-06 1.8163369e-18)
(0.10318857 1.7887407e-06 1.8472778e-18)
(0.1031887 1.8369617e-06 -1.8635345e-18)
(0.1031888 1.8918256e-06 -9.4724239e-19)
(0.10318887 1.9397829e-06 9.7808667e-19)
(0.10318893 1.9903688e-06 0)
(0.10318897 2.0415177e-06 -2.5249062e-19)
(0.10318897 2.0920067e-06 2.5494601e-19)
(0.10318893 2.1444683e-06 4.9085352e-19)
(0.10318887 2.1948975e-06 -1.5113942e-18)
(0.10318874 2.2494191e-06 9.9645983e-19)
(0.10318854 2.30496e-06 1.508046e-20)
(0.10318821 2.3560158e-06 -1.913366e-18)
(0.10318767 2.410736e-06 1.8815226e-18)
(0.10318694 2.4608997e-06 0)
(0.10318623 2.5129411e-06 -3.6081077e-18)
(0.10318597 2.5655511e-06 3.5452542e-18)
(0.10318652 2.6163209e-06 0)
(0.10318745 2.6720498e-06 0)
(0.1031882 2.7295567e-06 -2.6208483e-20)
(0.1031881 2.7893034e-06 2.5701755e-20)
(0.10318748 2.851026e-06 0)
(0.10318653 2.9134244e-06 0)
(0.10318568 2.9842357e-06 -2.4123161e-20)
(0.10318622 3.0416513e-06 0)
(0.10318678 3.1206741e-06 0)
(0.10318684 3.1936496e-06 5.7366241e-18)
(0.10318684 3.2820061e-06 -5.5796122e-18)
(0.1031866 3.3625846e-06 0)
(0.10318639 3.460652e-06 4.09758e-20)
(0.10318597 3.5694295e-06 -3.9573663e-20)
(0.10318543 3.6658762e-06 -2.4763586e-18)
(0.10318598 3.792613e-06 2.2654099e-18)
(0.10318494 3.9163542e-06 -6.977468e-20)
(0.10318416 4.0663689e-06 2.0541306e-18)
(0.10318562 4.1617495e-06 -2.12546e-18)
(0.10318539 4.4441061e-06 0)
(0.10322458 -1.6415118e-07 -1.1283321e-19)
(0.10318687 2.5378975e-07 2.0303202e-18)
(0.10319 -3.6290941e-08 -2.0841408e-18)
(0.10319118 5.3622048e-07 -6.864549e-20)
(0.10319252 3.1839532e-07 3.6063843e-20)
(0.10319284 5.0483567e-07 0)
(0.10319175 5.2035437e-07 3.9284514e-20)
(0.10319067 6.2203233e-07 0)
(0.10319204 6.7635925e-07 5.3547841e-18)
(0.10319317 7.7337209e-07 8.2113002e-27)
(0.1031924 8.0838615e-07 -5.7529594e-18)
(0.10319117 8.9098096e-07 2.2994628e-20)
(0.10319239 9.2066277e-07 0)
(0.10319331 1.0026588e-06 0)
(0.10319389 1.035615e-06 3.1603595e-18)
(0.10319394 1.1121876e-06 -3.2535078e-18)
(0.10319298 1.1438705e-06 0)
(0.10319243 1.2066756e-06 -1.3122961e-20)
(0.10319269 1.2306249e-06 0)
(0.10319333 1.2927506e-06 0)
(0.1031939 1.3179345e-06 0)
(0.10319429 1.3722322e-06 -1.8054836e-18)
(0.10319454 1.3991046e-06 1.8508624e-18)
(0.10319471 1.4517557e-06 0)
(0.10319482 1.4867242e-06 -1.4834202e-20)
(0.1031949 1.5412752e-06 0)
(0.10319497 1.5840971e-06 -1.5326041e-20)
(0.10319501 1.6325207e-06 -5.1396503e-19)
(0.10319504 1.6767018e-06 5.0640387e-19)
(0.10319504 1.7208339e-06 -1.5974707e-20)
(0.103195 1.7636968e-06 5.3955865e-19)
(0.10319495 1.8057517e-06 -1.4990943e-18)
(0.10319483 1.8489603e-06 9.6791471e-19)
(0.10319466 1.8909866e-06 -3.0227845e-20)
(0.10319437 1.9380804e-06 1.8155553e-26)
(0.10319387 1.9839195e-06 0)
(0.10319311 2.0332051e-06 0)
(0.10319222 2.085208e-06 0)
(0.10319173 2.1326207e-06 1.3884917e-20)
(0.10319223 2.1859684e-06 -3.4915509e-18)
(0.10319319 2.2394475e-06 6.869488e-18)
(0.10319427 2.2931905e-06 5.3725337e-27)
(0.1031943 2.3529932e-06 -6.5970402e-18)
(0.10319377 2.4127791e-06 3.2571936e-18)
(0.10319272 2.4678721e-06 0)
(0.10319132 2.533291e-06 0)
(0.10319189 2.5819078e-06 0)
(0.10319267 2.6596873e-06 5.8919088e-18)
(0.10319275 2.7199454e-06 -5.7579596e-18)
(0.10319275 2.7971345e-06 2.176688e-20)
(0.1031925 2.8674428e-06 -4.2198049e-20)
(0.10319238 2.9431639e-06 -4.9886548e-26)
(0.10319197 3.0277009e-06 4.8089832e-26)
(0.10319109 3.1207582e-06 -3.7754379e-20)
(0.10319152 3.1968669e-06 3.6099772e-20)
(0.10319101 3.3019168e-06 0)
(0.10318927 3.3333043e-06 7.956029e-26)
(0.10319148 3.56944e-06 6.096688e-20)
(0.10319121 3.5702666e-06 0)
(0.10322944 -8.7570352e-07 9.3094061e-19)
(0.10319739 9.3890047e-07 -9.5947373e-19)
(0.10320301 -4.284363e-07 0)
(0.1032012 2.2479304e-07 6.7613956e-20)
(0.10320311 -3.1401771e-08 -3.565792e-20)
(0.10320533 1.8066236e-07 2.4315098e-18)
(0.10320146 1.8150834e-07 -2.5387615e-18)
(0.10320141 1.7332999e-07 5.1984394e-18)
(0.10320492 2.5448291e-07 1.6249085e-26)
(0.10320504 3.2047579e-07 -5.5645382e-18)
(0.10320369 3.8162537e-07 -5.6890834e-18)
(0.10320301 4.3878906e-07 5.8721287e-18)
(0.10320434 4.9115451e-07 0)
(0.10320585 5.4428957e-07 0)
(0.10320629 6.0963227e-07 3.1696102e-18)
(0.10320581 6.6731698e-07 -3.2004526e-18)
(0.10320481 7.2312785e-07 -1.2910968e-20)
(0.10320456 7.9422677e-07 1.504836e-26)
(0.10320494 8.5215205e-07 0)
(0.10320572 9.1618273e-07 1.3660342e-20)
(0.10320636 9.7819214e-07 -3.5592132e-18)
(0.10320674 1.0632815e-06 3.6068306e-18)
(0.10320697 1.1302016e-06 1.8412924e-18)
(0.10320713 1.2167786e-06 -1.8721336e-18)
(0.10320725 1.2851023e-06 0)
(0.10320733 1.369343e-06 0)
(0.1032074 1.4328566e-06 -9.5215994e-19)
(0.10320744 1.5028577e-06 1.0143601e-18)
(0.10320748 1.5625027e-06 0)
(0.10320748 1.6316586e-06 1.6001544e-20)
(0.10320746 1.6847708e-06 -1.589131e-20)
(0.10320741 1.7532781e-06 1.5636935e-20)
(0.10320731 1.8054104e-06 9.846525e-19)
(0.10320716 1.8791134e-06 9.8384563e-19)
(0.10320689 1.9323129e-06 1.4889349e-20)
(0.10320642 2.0058952e-06 -1.8891386e-18)
(0.10320558 2.0441096e-06 -1.828917e-18)
(0.10320447 2.0852419e-06 -1.8122066e-18)
(0.10320392 2.1372042e-06 3.5481699e-18)
(0.1032043 2.1483476e-06 1.3669542e-20)
(0.10320518 2.2129673e-06 -2.6844418e-20)
(0.10320654 2.2360706e-06 1.3171213e-20)
(0.10320696 2.2896316e-06 -1.2915408e-20)
(0.1032065 2.3387499e-06 -2.5307085e-20)
(0.10320495 2.3709848e-06 -1.2384113e-20)
(0.10320346 2.4604329e-06 -2.421112e-20)
(0.10320399 2.4491788e-06 0)
(0.10320499 2.5396869e-06 0)
(0.10320531 2.5683338e-06 -5.711894e-18)
(0.103205 2.6598069e-06 -4.3476667e-20)
(0.10320487 2.7012108e-06 5.4289128e-18)
(0.10320494 2.7536324e-06 -4.0615938e-20)
(0.10320457 2.8964188e-06 3.9063035e-20)
(0.10320375 2.9228585e-06 2.4321514e-18)
(0.10320203 2.9940442e-06 -2.318676e-18)
(0.10320403 3.1722034e-06 -2.1641993e-18)
(0.10319962 2.8512835e-06 4.1398041e-18)
(0.10320409 3.8033877e-06 -8.9237423e-19)
(0.10320394 2.709257e-06 -8.2499874e-19)
(0.10322561 -2.0917689e-06 -1.0637113e-19)
(0.10319366 1.0246274e-06 5.8471298e-20)
(0.10320982 1.4985493e-07 3.1285462e-20)
(0.10319865 8.7708465e-07 0)
(0.10320422 6.9882174e-07 0)
(0.10321199 1.0411925e-06 2.3363543e-18)
(0.10319792 9.2179407e-07 -2.4649601e-18)
(0.1032022 9.4912813e-07 5.1972199e-18)
(0.10321173 9.9369308e-07 -5.3523103e-18)
(0.10320973 9.7747769e-07 5.55892e-18)
(0.1032076 1.0014099e-06 -5.7793538e-18)
(0.10320896 9.3601471e-07 -5.90102e-18)
(0.10320805 9.3993351e-07 3.0296212e-18)
(0.1032123 9.1315233e-07 6.2222697e-18)
(0.10321247 9.1127542e-07 -3.1774036e-18)
(0.10321071 8.7838715e-07 6.6439294e-26)
(0.10321056 8.4705036e-07 1.294646e-20)
(0.10321099 8.1278128e-07 -3.3532364e-18)
(0.10321095 7.5959222e-07 6.8868843e-18)
(0.10321189 7.3882491e-07 -3.5334599e-18)
(0.10321291 6.7335041e-07 0)
(0.10321344 6.389027e-07 1.4176629e-20)
(0.10321374 5.8158244e-07 0)
(0.10321395 5.4041451e-07 7.3273587e-21)
(0.10321412 4.801877e-07 -7.447561e-21)
(0.10321424 4.3673563e-07 0)
(0.10321433 3.8369471e-07 -2.3073801e-20)
(0.10321441 3.5879359e-07 0)
(0.10321446 3.1938371e-07 0)
(0.10321452 2.934464e-07 0)
(0.10321452 2.5698159e-07 0)
(0.10321444 2.2515203e-07 0)
(0.10321435 1.8376039e-07 2.3070561e-20)
(0.10321417 1.5081805e-07 7.5661375e-21)
(0.10321385 1.0364246e-07 0)
(0.10321323 7.5586786e-08 2.1966092e-20)
(0.10321198 2.4408936e-08 -1.4402675e-20)
(0.10321047 -5.8439124e-09 7.0810089e-21)
(0.10321081 -4.6274135e-08 -6.9603758e-21)
(0.10321062 -9.6341937e-08 -1.3677722e-20)
(0.10321137 -1.1948536e-07 3.4519833e-18)
(0.10321214 -1.5119149e-07 -6.7622021e-18)
(0.10321412 -1.667914e-07 1.2925781e-20)
(0.10321351 -1.7454587e-07 3.2543305e-18)
(0.10320945 -1.8733645e-07 1.2391175e-20)
(0.10321021 -1.6556152e-07 2.4217936e-20)
(0.10321001 -2.3409975e-07 0)
(0.10321105 -2.1539635e-07 -5.8794383e-18)
(0.1032125 -2.2587574e-07 2.236306e-20)
(0.10321074 -1.9023073e-07 5.5932974e-18)
(0.10321129 -1.7101469e-07 2.0957204e-20)
(0.10321207 -1.4798803e-07 0)
(0.10321089 -6.212797e-08 -2.4807253e-18)
(0.10321135 -8.2129938e-09 2.3889633e-18)
(0.10320158 9.3422886e-08 0)
(0.10321191 2.0117384e-07 3.326461e-20)
(0.10319826 3.524546e-07 -2.0282597e-18)
(0.10321124 6.7973399e-07 1.7988655e-18)
(0.10321116 2.02747e-07 -1.0682275e-19)
(0.10317368 -2.2403367e-06 5.1704696e-20)
(0.10315327 -1.3604863e-06 1.7687913e-18)
(0.10316839 -1.0770136e-06 -1.9953443e-18)
(0.10315683 -1.2508991e-06 2.100883e-18)
(0.10316974 -6.2015792e-07 -4.4629055e-18)
(0.10316695 -1.1032487e-06 4.7098059e-18)
(0.10315448 -9.237524e-07 -2.4612671e-18)
(0.1031703 -6.5957953e-07 5.1393485e-18)
(0.1031659 -6.9944364e-07 -1.0477809e-20)
(0.10316454 -6.9143585e-07 -5.5468849e-18)
(0.10316199 -6.4607659e-07 -5.7170037e-18)
(0.10316115 -5.5346856e-07 5.9163854e-18)
(0.10316698 -4.5710692e-07 0)
(0.10316677 -4.1251403e-07 -1.216046e-20)
(0.10316491 -3.7620615e-07 6.2232437e-21)
(0.10316332 -3.4950207e-07 -1.2719863e-20)
(0.10316286 -2.5755574e-07 -3.316987e-18)
(0.10316164 -1.9367865e-07 3.3750968e-18)
(0.10316309 -6.2369686e-08 -6.7408114e-21)
(0.10316372 1.9080928e-08 3.5266193e-18)
(0.10316368 1.3929744e-07 -7.1469884e-18)
(0.10316375 2.2104951e-07 5.4502238e-18)
(0.10316387 3.1628545e-07 -1.846606e-18)
(0.10316399 4.1006125e-07 -3.665024e-21)
(0.10316407 4.7895758e-07 -1.8991236e-18)
(0.10316414 5.7946993e-07 1.9407195e-18)
(0.1031642 6.3496473e-07 7.6862751e-21)
(0.10316425 7.3314045e-07 0)
(0.10316428 7.8717198e-07 0)
(0.1031643 8.7838702e-07 0)
(0.1031643 9.4070799e-07 0)
(0.10316429 1.0380817e-06 -1.0011203e-18)
(0.10316428 1.1081898e-06 9.7749262e-19)
(0.10316425 1.2097444e-06 -1.9428173e-18)
(0.10316421 1.2850173e-06 1.9043969e-18)
(0.10316417 1.3752083e-06 -3.6670932e-21)
(0.10316415 1.4593038e-06 0)
(0.10316355 1.5551473e-06 3.6339301e-18)
(0.10316116 1.6452059e-06 -3.5662692e-18)
(0.10316229 1.7120729e-06 0)
(0.10316347 1.7378698e-06 -3.4564513e-18)
(0.10316463 1.7292312e-06 3.3926591e-18)
(0.10316606 1.6905774e-06 -3.3140733e-18)
(0.10316811 1.6394257e-06 3.2338076e-18)
(0.10316774 1.6134446e-06 -3.1826124e-18)