/*--------------------------------*- C++ -*----------------------------------*\
| =========                 |                                                 |
| \\      /  F ield         | OpenFOAM: The Open Source CFD Toolbox           |
|  \\    /   O peration     | Version:  v2006                                 |
|   \\  /    A nd           | Website:  www.openfoam.com                      |
|    \\/     M anipulation  |                                                 |
\*---------------------------------------------------------------------------*/
FoamFile
{
    version     2.0;
    format      ascii;
    class       volVectorField;
    location    "4000";
    object      wallShearStress;
}
// * * * * * * * * * * * * * * * * * * * * * * * * * * * * * * * * * * * * * //

dimensions      [1 -1 -2 0 0 0 0];


internalField   uniform (0 0 0);

boundaryField
{
    Side
    {
        type            empty;
    }
    Ground
    {
        type            calculated;
        value           uniform (0 0 0);
    }
    Inlet
    {
        type            calculated;
        value           uniform (0 0 0);
    }
    Airfoil
    {
        type            calculated;
        value           nonuniform List<vector> 
527
(
(4.2304842e-06 1.7606729e-06 -2.5251284e-20)
(4.604566e-06 1.6060389e-06 3.5132051e-20)
(4.808402e-06 1.1843537e-06 1.8471807e-20)
(3.8632424e-06 1.0614926e-06 -1.9358558e-20)
(3.9221601e-06 1.1017104e-06 -1.9849036e-20)
(3.5795998e-06 9.8953055e-07 2.0376233e-20)
(3.3829662e-06 9.0510242e-07 1.0143277e-23)
(3.2569119e-06 8.5832661e-07 -1.0352076e-23)
(3.2498489e-06 8.4753662e-07 -8.0352315e-28)
(3.2720252e-06 8.4615225e-07 3.0746524e-37)
(3.2993224e-06 8.3293948e-07 0)
(3.3102263e-06 8.2137863e-07 1.1183465e-20)
(3.3310597e-06 8.1205847e-07 -1.131534e-20)
(3.3383876e-06 8.0026795e-07 -1.1471989e-20)
(3.3499455e-06 7.9556439e-07 1.1601658e-20)
(3.3611779e-06 7.8460692e-07 0)
(3.3665858e-06 7.7777932e-07 5.8774718e-39)
(3.3783839e-06 7.650547e-07 -1.1935893e-20)
(3.3852567e-06 7.5704734e-07 -2.3594027e-23)
(3.3954444e-06 7.409254e-07 1.2199876e-20)
(3.40484e-06 7.3399803e-07 1.2293133e-20)
(3.4085888e-06 7.1175197e-07 -1.240645e-20)
(3.4156525e-06 7.0614613e-07 -1.2527359e-20)
(3.4149423e-06 6.827202e-07 -2.4772651e-23)
(3.418515e-06 6.7424468e-07 2.2054804e-27)
(3.4156747e-06 6.5702636e-07 -2.5201235e-23)
(3.4144856e-06 6.4089546e-07 2.5409738e-23)
(3.4118428e-06 6.3022924e-07 1.3103835e-20)
(3.4023348e-06 6.0650713e-07 5.1795544e-23)
(3.3984348e-06 5.9497493e-07 1.3336326e-20)
(3.3855184e-06 5.750729e-07 -1.3465509e-20)
(3.3718813e-06 5.509889e-07 -1.3578465e-20)
(3.3637313e-06 5.3370028e-07 -1.3711615e-20)
(3.3322123e-06 5.007445e-07 -1.3810745e-20)
(3.3190552e-06 4.7579323e-07 -1.390691e-20)
(3.2970926e-06 4.5505519e-07 5.482791e-23)
(3.2409854e-06 4.1105502e-07 -1.9956879e-27)
(3.2321467e-06 3.8413119e-07 1.4189559e-20)
(3.1877552e-06 3.5710635e-07 0)
(3.1102422e-06 3.085523e-07 -7.1894917e-21)
(3.0908517e-06 2.7431154e-07 -5.6961983e-23)
(3.0296193e-06 2.4115489e-07 7.3363806e-21)
(2.9276101e-06 1.9220574e-07 7.3561092e-21)
(2.8768392e-06 1.497958e-07 1.1655303e-22)
(2.7962346e-06 1.0849584e-07 7.4454485e-21)
(2.6721724e-06 5.3900384e-08 5.4660487e-37)
(2.5406369e-06 -1.846172e-09 5.9598308e-23)
(2.4909453e-06 -5.208842e-08 -7.6728687e-21)
(2.3074681e-06 -9.9953455e-08 -7.8695124e-21)
(2.0748365e-06 -1.8679561e-07 -7.7399649e-21)
(2.0341721e-06 -2.3158021e-07 -1.3224311e-38)
(1.8067297e-06 -3.043846e-07 -5.4312086e-40)
(1.5013375e-06 -3.9729529e-07 -1.3775324e-39)
(1.2444358e-06 -4.6641685e-07 -6.2641527e-23)
(1.2003092e-06 -5.4162253e-07 8.229592e-21)
(7.6143486e-07 -6.243778e-07 -8.1437911e-21)
(2.4809112e-07 -7.5173432e-07 -6.4120155e-23)
(1.639644e-07 -8.3870745e-07 -1.793662e-43)
(-1.0110685e-07 -9.486523e-07 -6.5029732e-23)
(-6.2288302e-07 -1.0552369e-06 8.4447598e-21)
(-1.1265664e-06 -1.1657399e-06 -6.5950855e-23)
(-1.2857303e-06 -1.2613219e-06 6.6175738e-23)
(-1.6512596e-06 -1.3747828e-06 1.051746e-37)
(-2.2458559e-06 -1.480595e-06 1.5956417e-39)
(-2.754425e-06 -1.5874862e-06 6.7070773e-23)
(-3.0043813e-06 -1.7015163e-06 -6.7672644e-23)
(-3.434108e-06 -1.829567e-06 -6.7845818e-23)
(-4.1917515e-06 -1.939122e-06 8.7810229e-21)
(-4.8176702e-06 -2.0512715e-06 2.4979255e-38)
(-5.1116643e-06 -2.1781565e-06 -1.102026e-38)
(-5.5344867e-06 -2.3377388e-06 -4.3590274e-21)
(-6.5789e-06 -2.4387127e-06 -8.4115465e-27)
(-7.5186595e-06 -2.5375912e-06 -8.2590677e-27)
(-7.773812e-06 -2.6641075e-06 -9.0536995e-21)
(-8.0290091e-06 -2.8700306e-06 -7.0440773e-23)
(-9.2992497e-06 -2.951677e-06 1.4098827e-22)
(-1.0727588e-05 -3.0022015e-06 -4.6822952e-21)
(-1.0878982e-05 -3.136707e-06 -4.4135179e-21)
(-1.123711e-05 -3.3131148e-06 -1.0022812e-26)
(-1.2084768e-05 -3.4447905e-06 -1.4385523e-22)
(-1.3546996e-05 -3.4786528e-06 7.1984854e-23)
(-1.4297768e-05 -3.5602198e-06 7.2606104e-23)
(-1.4581358e-05 -3.7013339e-06 4.5915732e-21)
(-1.4879899e-05 -3.9260484e-06 9.3807589e-21)
(-1.6280653e-05 -3.9608537e-06 -4.7050154e-21)
(-1.7741624e-05 -3.9627918e-06 8.941809e-27)
(-1.7870095e-05 -4.1176258e-06 3.7134128e-23)
(-1.8289205e-05 -4.2888016e-06 -3.7337737e-23)
(-1.9003196e-05 -4.4521726e-06 4.7906817e-21)
(-2.0572916e-05 -4.4459568e-06 -4.8174364e-21)
(-2.1666069e-05 -4.4780173e-06 -3.773678e-23)
(-2.1897911e-05 -4.6378046e-06 -4.8235179e-21)
(-2.2231845e-05 -4.8692983e-06 4.8963549e-21)
(-2.3390033e-05 -4.9704297e-06 -2.0571151e-38)
(-2.5319655e-05 -4.8915195e-06 -4.8849194e-21)
(-2.6180847e-05 -4.9447907e-06 9.8103949e-21)
(-2.6408271e-05 -5.1179696e-06 -4.9283221e-21)
(-2.6659168e-05 -5.4001271e-06 3.9158369e-23)
(-2.8152633e-05 -5.4393388e-06 -5.0495531e-21)
(-3.0445409e-05 -5.2628709e-06 -1.4987553e-37)
(-3.1169059e-05 -5.3161568e-06 2.5277738e-21)
(-3.1349191e-05 -5.4899119e-06 2.5775798e-21)
(-3.1557366e-05 -5.7742408e-06 2.5611126e-21)
(-3.3012653e-05 -5.8060848e-06 2.5236213e-21)
(-3.5428626e-05 -5.5733305e-06 -2.5251101e-21)
(-3.6282133e-05 -5.5924882e-06 -1.1115634e-26)
(-3.6402465e-05 -5.7693684e-06 2.5556204e-21)
(-3.6611683e-05 -6.0301826e-06 -7.3468397e-40)
(-3.769693e-05 -6.1472753e-06 -8.1813948e-38)
(-4.0147563e-05 -5.8891438e-06 -6.5019531e-38)
(-4.1522937e-05 -5.8012658e-06 -2.6415707e-21)
(-4.1559624e-05 -5.9774512e-06 2.6563638e-21)
(-4.1810127e-05 -6.1777067e-06 -2.6686802e-21)
(-4.2219907e-05 -6.4626658e-06 4.207745e-23)
(-4.4591198e-05 -6.2042325e-06 -6.2703052e-27)
(-4.6819146e-05 -5.9354246e-06 -2.7391515e-21)
(-4.6665118e-05 -6.1441653e-06 5.4383436e-21)
(-4.6999502e-05 -6.2923437e-06 2.6893963e-21)
(-4.7229887e-05 -6.571566e-06 4.2989986e-23)
(-4.8777011e-05 -6.5234383e-06 4.3133075e-23)
(-5.1089006e-05 -6.2510505e-06 -8.6349139e-23)
(-5.1796429e-05 -6.2974781e-06 -2.7380699e-21)
(-5.2076218e-05 -6.4403085e-06 -6.1713453e-38)
(-5.2400159e-05 -6.6287699e-06 -5.6244753e-21)
(-5.2861629e-05 -6.8877351e-06 2.7904198e-21)
(-5.4994436e-05 -6.6647413e-06 8.8634792e-23)
(-5.7085389e-05 -6.4357348e-06 -4.4430987e-23)
(-5.7092282e-05 -6.6400868e-06 2.8677367e-21)
(-5.7514703e-05 -6.7806328e-06 -4.5043682e-23)
(-5.7732164e-05 -7.0686159e-06 9.0537855e-23)
(-5.8932555e-05 -7.1712992e-06 -2.9617296e-21)
(-6.1914949e-05 -6.7510941e-06 1.4562753e-21)
(-6.3739031e-05 -6.5622891e-06 1.4149308e-21)
(-6.3640128e-05 -6.7707414e-06 1.519746e-21)
(-6.3826699e-05 -6.9609772e-06 1.5276512e-21)
(-6.3735266e-05 -7.3889196e-06 1.4434291e-21)
(-6.5816546e-05 -7.2769418e-06 1.495435e-21)
(-7.0114944e-05 -6.5178706e-06 -4.6590657e-23)
(-7.1665448e-05 -6.333056e-06 4.6725778e-23)
(-7.123336e-05 -6.5640114e-06 -4.7153742e-23)
(-7.1137801e-05 -6.7701017e-06 1.5181197e-21)
(-7.0758438e-05 -7.2414789e-06 9.5493429e-23)
(-7.3054733e-05 -7.0301296e-06 1.5314046e-21)
(-7.7971475e-05 -6.071411e-06 -1.5739668e-21)
(-7.9501582e-05 -5.8370708e-06 1.5304192e-21)
(-7.8772926e-05 -6.0903196e-06 0)
(-7.8679953e-05 -6.2333025e-06 1.5547437e-21)
(-7.8447354e-05 -6.5323854e-06 -6.9060293e-38)
(-7.9610341e-05 -6.5254324e-06 -1.5217801e-21)
(-8.2925995e-05 -5.9192964e-06 -4.9124442e-23)
(-8.462621e-05 -5.6691518e-06 4.9274804e-23)
(-8.4127261e-05 -5.892455e-06 -4.7526287e-27)
(-8.430313e-05 -5.9782552e-06 -5.0015017e-23)
(-8.4465906e-05 -6.116762e-06 3.1855438e-38)
(-8.4854727e-05 -6.2535811e-06 2.5264593e-23)
(-8.6242523e-05 -6.1242654e-06 -2.5397819e-23)
(-8.753786e-05 -6.0382855e-06 -7.9104437e-22)
(-8.7620752e-05 -6.2031417e-06 -2.5647817e-23)
(-8.802236e-05 -6.2948874e-06 8.2568274e-22)
(-8.8067525e-05 -6.5082398e-06 2.2040519e-39)
(-8.7888321e-05 -6.9029439e-06 -8.6363108e-22)
(-9.0555224e-05 -6.5579831e-06 8.6191243e-22)
(-9.458703e-05 -5.9193522e-06 -1.6483096e-21)
(-9.4693837e-05 -6.0756145e-06 -5.2586698e-23)
(-9.4192552e-05 -6.3115631e-06 -8.2026594e-22)
(-9.3559439e-05 -6.5925441e-06 -8.259887e-22)
(-9.1517744e-05 -7.3988348e-06 8.6255406e-22)
(-9.1997805e-05 -8.1195836e-06 8.3770846e-22)
(-0.00010620874 -5.6300335e-06 -2.62464e-23)
(-0.00011709885 -2.5934081e-06 -3.9092256e-22)
(-0.00011014543 -3.9861504e-06 2.6298103e-23)
(-0.00010798663 -4.2197471e-06 -2.6642029e-23)
(-0.00010447127 -4.9635584e-06 2.6947402e-23)
(-9.9722426e-05 -6.4378656e-06 -2.7376391e-23)
(-0.00010704478 -5.5443737e-06 4.3003329e-22)
(-0.0001319927 4.201604e-07 -1.7219156e-40)
(-0.00014066686 3.2245101e-06 -2.2852161e-22)
(-0.0001287725 1.2404594e-06 -7.726452e-23)
(-0.00012448394 8.9517254e-07 -8.9826595e-40)
(-0.00011794869 -2.6331105e-07 0)
(-0.000110012 -2.4376971e-06 -3.6127226e-46)
(-0.00012314842 -2.4932459e-07 3.3941138e-28)
(-0.00015273822 8.4110804e-06 5.8663398e-40)
(-0.00015474098 1.0355147e-05 1.937729e-38)
(-0.00014324558 8.2060071e-06 -8.1002576e-22)
(-0.00013736283 7.5397745e-06 0)
(-0.00013006012 6.2614547e-06 8.4348683e-22)
(-0.00012211079 4.3236466e-06 -2.7550649e-39)
(-0.00013147088 5.9213344e-06 2.6198925e-23)
(-0.00015591005 1.3947022e-05 -2.5061717e-23)
(-0.00015809643 1.5984356e-05 -8.2151199e-22)
(-0.00014619051 1.3550011e-05 5.0695553e-23)
(-0.00013981783 1.2675918e-05 -2.5946531e-23)
(-0.0001321818 1.1257495e-05 8.7535787e-22)
(-0.00012242122 9.2094002e-06 8.7322581e-22)
(-0.0001257503 9.9320734e-06 -2.673987e-23)
(-0.00015971298 1.9674492e-05 -7.6263505e-22)
(-0.00017525224 2.6728584e-05 1.752018e-26)
(-0.00015526402 2.186391e-05 -2.4657422e-23)
(-0.00014789295 2.0819461e-05 -1.4693679e-39)
(-0.00014014142 1.93224e-05 1.6961976e-21)
(-0.00013103383 1.7351815e-05 -2.6770072e-23)
(-0.00012439208 1.5959692e-05 -1.7417086e-21)
(-0.00014660759 2.2300067e-05 -1.2628143e-23)
(-0.00016968714 3.1295039e-05 1.2305113e-23)
(-0.00015727039 2.8888103e-05 3.2079287e-38)
(-0.00014774172 2.6894864e-05 0)
(-0.00014044669 2.5403074e-05 0)
(-0.00013398869 2.396559e-05 -1.7080388e-21)
(-0.00012652047 2.2217362e-05 8.0769319e-38)
(-0.00012433717 2.1927129e-05 -1.7360088e-21)
(-0.00014409638 2.830854e-05 1.6383182e-21)
(-0.00015607605 3.3985073e-05 1.6102334e-21)
(-0.00014042953 2.9657569e-05 2.2040519e-39)
(-0.00013470451 2.856709e-05 5.1584486e-27)
(-0.00012821794 2.7009126e-05 1.7559709e-21)
(-0.00012248789 2.5549811e-05 1.7827356e-21)
(-0.00011563058 2.3884996e-05 -1.4272023e-23)
(-0.00011544953 2.4394137e-05 -1.8176847e-21)
(-0.00013840844 3.1891563e-05 1.6749584e-21)
(-0.00015111983 3.8076586e-05 2.2958874e-41)
(-0.00013450752 3.3178103e-05 1.6732832e-21)
(-0.00012903842 3.2039447e-05 1.3603121e-23)
(-0.00012265319 3.0372141e-05 4.404829e-27)
(-0.00011751819 2.8959468e-05 1.424037e-23)
(-0.00011181903 2.7488611e-05 1.849724e-21)
(-0.00011002659 2.7637035e-05 -1.4693679e-39)
(-0.00012436739 3.255892e-05 -1.3638331e-23)
(-0.00013730302 3.8150395e-05 1.3509193e-23)
(-0.00012867386 3.6050458e-05 -1.7242249e-21)
(-0.00012164821 3.4158919e-05 -1.3979039e-23)
(-0.00011619646 3.2676752e-05 1.4328234e-23)
(-0.00011150188 3.131018e-05 1.8591822e-21)
(-0.00010713159 2.9959121e-05 -1.0285576e-38)
(-0.0001031612 2.9063254e-05 -5.4738221e-45)
(-0.00010477509 3.0361996e-05 8.6515046e-40)
(-0.00011804485 3.511563e-05 -2.9387359e-39)
(-0.00012374581 3.8239077e-05 -1.8176906e-21)
(-0.00011293098 3.4726239e-05 -3.1404402e-27)
(-0.00010889162 3.3654949e-05 -2.9671344e-27)
(-0.00010407234 3.2186226e-05 3.0369255e-23)
(-0.00010020524 3.097326e-05 -3.1021153e-23)
(-9.6553419e-05 2.9764977e-05 1.5826712e-23)
(-9.3487795e-05 2.9068176e-05 -4.1150541e-21)
(-9.6279406e-05 3.1046527e-05 1.9961395e-21)
(-0.00011144234 3.6413807e-05 -9.1835496e-39)
(-0.00011842349 4.033334e-05 1.8499645e-21)
(-0.00010714616 3.6454109e-05 0)
(-0.00010362251 3.5482075e-05 3.9202644e-21)
(-9.922627e-05 3.4056443e-05 -1.1754944e-38)
(-9.593656e-05 3.2973787e-05 -1.4693679e-39)
(-9.2919308e-05 3.1960426e-05 -1.0393535e-21)
(-9.0536021e-05 3.1269453e-05 1.0552718e-21)
(-9.0356828e-05 3.1711301e-05 0)
(-9.5924909e-05 3.4046492e-05 7.8812039e-24)
(-0.0001020901 3.688076e-05 9.9192293e-22)
(-9.9484155e-05 3.6352359e-05 1.0042923e-21)
(-9.4652832e-05 3.4698729e-05 0)
(-9.1629493e-05 3.3688991e-05 -1.0505637e-21)
(-8.8699764e-05 3.2677351e-05 -2.2040519e-38)
(-8.6205782e-05 3.1811662e-05 -2.9387359e-39)
(-8.4090053e-05 3.1077721e-05 1.1040604e-21)
(-8.259934e-05 3.0669374e-05 -8.7167194e-24)
(-8.2931632e-05 3.1257081e-05 1.1207157e-21)
(-8.7260072e-05 3.3263119e-05 -1.6684404e-23)
(-9.1956171e-05 3.5350018e-05 8.2828925e-24)
(-9.0018525e-05 3.4879863e-05 -4.1630501e-24)
(-8.5973076e-05 3.3430405e-05 1.0997133e-21)
(-8.3404869e-05 3.2519713e-05 4.4002282e-28)
(-8.0831123e-05 3.1580741e-05 -4.4271942e-24)
(-7.8612099e-05 3.0774309e-05 -1.1523615e-21)
(-7.6819313e-05 3.011206e-05 2.3406728e-21)
(-7.5681011e-05 2.9724646e-05 -1.1754944e-38)
(-7.5451963e-05 3.0002191e-05 -5.8774718e-39)
(-7.8358033e-05 3.2063819e-05 2.266615e-21)
(-8.6644841e-05 3.5528356e-05 4.1705341e-24)
(-9.1333716e-05 3.7844389e-05 1.0663434e-21)
(-8.5510056e-05 3.5666217e-05 4.287315e-24)
(-8.3133903e-05 3.482776e-05 -8.8162076e-39)
(-8.0444083e-05 3.3818603e-05 -1.1444339e-21)
(-7.8406152e-05 3.3042811e-05 2.0753923e-28)
(-7.6524455e-05 3.2333026e-05 -2.3103949e-24)
(-7.4976876e-05 3.1765448e-05 -8.6095778e-41)
(-7.379469e-05 3.1362142e-05 2.6184596e-38)
(-7.3115102e-05 3.1231689e-05 0)
(-7.3430403e-05 3.1687865e-05 1.7483858e-27)
(-7.5547511e-05 3.2874114e-05 -4.4550081e-41)
(-7.7993831e-05 3.3997599e-05 1.4693679e-39)
(-7.7137718e-05 3.3667669e-05 -5.9098485e-22)
(-7.4491564e-05 3.2627913e-05 6.0138757e-22)
(-7.2898517e-05 3.2002813e-05 1.195384e-24)
(-7.123604e-05 3.1339274e-05 6.2223243e-22)
(-6.9821728e-05 3.0776126e-05 -1.2288567e-24)
(-6.8540793e-05 3.0280796e-05 -6.3730625e-22)
(-6.7521286e-05 2.9911095e-05 -2.9666232e-29)
(-6.6887891e-05 2.9700394e-05 -1.2958697e-21)
(-6.6698313e-05 2.9744287e-05 6.4710583e-22)
(-6.7108204e-05 3.0265033e-05 0)
(-6.9019256e-05 3.1570603e-05 -1.4881179e-25)
(-7.2526971e-05 3.3142263e-05 1.4827365e-25)
(-7.3947091e-05 3.3689636e-05 -5.8774718e-39)
(-7.043591e-05 3.2309516e-05 6.259222e-22)
(-6.9167101e-05 3.1800643e-05 -6.3731475e-22)
(-6.7402659e-05 3.107698e-05 3.1603799e-25)
(-6.6068148e-05 3.0522923e-05 1.4349296e-42)
(-6.4785046e-05 2.9995813e-05 6.4958516e-25)
(-6.3701263e-05 2.956177e-05 2.5545434e-29)
(-6.2817747e-05 2.9224863e-05 -6.6380259e-25)
(-6.2232898e-05 2.9026325e-05 6.8482131e-22)
(-6.1997082e-05 2.9027621e-05 -6.8523889e-22)
(-6.2147142e-05 2.9301439e-05 1.3632039e-21)
(-6.2914617e-05 3.0023312e-05 -1.3111141e-24)
(-6.4808083e-05 3.1225653e-05 1.2828897e-24)
(-6.7181375e-05 3.2273555e-05 -3.251254e-22)
(-6.7350594e-05 3.2209283e-05 5.8774718e-39)
(-6.4578187e-05 3.1091919e-05 6.6684755e-22)
(-6.3211146e-05 3.0509668e-05 1.3297302e-24)
(-6.1552202e-05 2.9792315e-05 -3.4784613e-22)
(-6.0207335e-05 2.9197186e-05 1.375362e-24)
(-5.8902443e-05 2.8618763e-05 3.5742303e-22)
(-5.7732199e-05 2.8098891e-05 -3.6401605e-22)
(-5.66743e-05 2.7622502e-05 1.43521e-24)
(-5.5752653e-05 2.7204862e-05 1.4520935e-24)
(-5.4979524e-05 2.6875778e-05 -1.4670523e-24)
(-5.4399803e-05 2.6662959e-05 1.9285454e-39)
(-5.4036161e-05 2.6588603e-05 0)
(-5.3909305e-05 2.6688634e-05 -2.6341999e-28)
(-5.4134917e-05 2.7025967e-05 -3.7915397e-22)
(-5.4895202e-05 2.7531939e-05 1.45917e-24)
(-5.5750173e-05 2.781197e-05 3.7362603e-22)
(-5.5373268e-05 2.7499066e-05 0)
(-5.3896225e-05 2.6899621e-05 -1.4931508e-24)
(-5.3129073e-05 2.6599133e-05 -3.8566533e-22)
(-5.2399592e-05 2.634171e-05 1.9399949e-22)
(-5.2009896e-05 2.6267463e-05 3.0747986e-24)
(-5.1876858e-05 2.634125e-05 -3.072076e-24)
(-5.2052678e-05 2.6587202e-05 1.5265561e-24)
(-5.2557471e-05 2.7032928e-05 -2.9387359e-39)
(-5.3431609e-05 2.770859e-05 3.8066127e-22)
(-5.4706553e-05 2.8645857e-05 -3.7209157e-22)
(-5.6419452e-05 2.9884317e-05 1.8041243e-22)
(-5.8633927e-05 3.1460939e-05 -1.7488716e-22)
(-6.1392765e-05 3.3368194e-05 6.5334534e-25)
(-6.4580265e-05 3.5581436e-05 1.5977988e-22)
(-6.819769e-05 3.8229171e-05 3.0359854e-22)
(-7.3039753e-05 4.1241293e-05 2.8160595e-25)
(-7.8854462e-05 4.3334604e-05 -1.0217253e-26)
(-8.0580019e-05 4.4628938e-05 -1.3035137e-22)
(-8.1404238e-05 5.0585768e-05 6.0024172e-26)
(-3.882016e-05 -3.9875439e-06 -7.3468397e-40)
(-3.5787727e-05 -3.3320348e-06 -3.0691593e-24)
(-3.6751171e-05 -3.1950038e-06 3.0731012e-24)
(-3.5199468e-05 -2.5061006e-06 -6.3021592e-21)
(-3.3496613e-05 -2.052208e-06 -1.0359044e-37)
(-3.2527394e-05 -1.6900831e-06 -3.0879092e-24)
(-3.076132e-05 -1.278442e-06 -6.3303718e-21)
(-2.9639e-05 -1.1321175e-06 3.1682284e-21)
(-2.9505866e-05 -1.10027e-06 3.1767349e-21)
(-2.9151104e-05 -1.0464266e-06 -3.1753171e-21)
(-2.8823439e-05 -1.0078976e-06 -3.1025038e-24)
(-2.8612546e-05 -9.9111355e-07 -3.1781464e-21)
(-2.8617587e-05 -1.0049254e-06 1.5521437e-24)
(-2.873678e-05 -1.0061556e-06 3.18084e-21)
(-2.8725723e-05 -9.7457177e-07 3.179617e-21)
(-2.8765454e-05 -9.3020067e-07 -6.3599898e-21)
(-2.8480798e-05 -8.093534e-07 -5.3047569e-30)
(-2.7991716e-05 -7.0031926e-07 -3.1817438e-21)
(-2.7782689e-05 -6.2450476e-07 3.1826845e-21)
(-2.7571615e-05 -5.4084441e-07 -3.1834126e-21)
(-2.7147243e-05 -4.4118352e-07 -1.5921699e-21)
(-2.6853478e-05 -3.8815067e-07 -1.5926672e-21)
(-2.6817119e-05 -3.3921995e-07 3.1866485e-21)
(-2.6538845e-05 -2.6220121e-07 -1.5558759e-24)
(-2.6290096e-05 -2.1828518e-07 -7.9562554e-22)
(-2.6382365e-05 -1.7937109e-07 -7.9725975e-22)
(-2.6066633e-05 -8.0360137e-08 3.9848085e-22)
(-2.562332e-05 -1.6056553e-08 -9.9650254e-23)
(-2.5574751e-05 3.8679794e-08 -7.892113e-42)
(-2.5154332e-05 1.2696978e-07 7.9748375e-22)
(-2.4781539e-05 1.6526435e-07 -1.5954493e-21)
(-2.4824415e-05 2.017586e-07 -7.9781731e-22)
(-2.4589849e-05 2.65868e-07 -1.5957891e-21)
(-2.4249249e-05 3.128138e-07 7.9787827e-38)
(-2.4213663e-05 3.6091517e-07 4.5917748e-41)
(-2.3761269e-05 4.486535e-07 1.5958024e-21)
(-2.3230872e-05 4.8757342e-07 -3.1942695e-21)
(-2.3110386e-05 5.3025226e-07 3.1956655e-21)
(-2.2763994e-05 5.7884193e-07 -3.1954244e-21)
(-2.2415935e-05 6.0788886e-07 -3.1961959e-21)
(-2.2282716e-05 6.4291969e-07 -1.9873699e-37)
(-2.1955495e-05 6.9737883e-07 -3.1956367e-21)
(-2.1393338e-05 7.4446163e-07 -3.198126e-21)
(-2.0905084e-05 7.8248876e-07 -3.2007453e-21)
(-2.0423258e-05 8.3299898e-07 1.562679e-24)
(-1.9477734e-05 8.7713094e-07 -3.1265995e-24)
(-1.848981e-05 8.7695505e-07 -1.2813138e-20)
(-1.7657744e-05 8.7288922e-07 -6.4111271e-21)
(-1.665448e-05 8.2443444e-07 -2.8698593e-42)
(-1.5959333e-05 7.4768786e-07 -6.4224683e-21)
(-1.5467524e-05 6.6109049e-07 -2.7260993e-28)
(-1.5046897e-05 5.5492457e-07 3.2157625e-21)
(-1.4602463e-05 4.2017258e-07 -3.213883e-21)
(-1.4778309e-05 2.4553417e-07 -3.2143341e-21)
(-1.5302135e-05 8.1781424e-08 3.1390646e-24)
(-1.5600932e-05 -1.2717929e-07 -6.2778559e-24)
(-1.6215248e-05 -3.6622813e-07 3.1383384e-24)
(-1.7144335e-05 -6.3914693e-07 3.2095787e-21)
(-1.8245178e-05 -9.6453053e-07 3.1362772e-24)
(-1.9524636e-05 -1.3306492e-06 -6.4232777e-21)
(-2.0920507e-05 -1.7376648e-06 3.1333078e-24)
(-2.2652516e-05 -2.1980404e-06 -1.2828911e-20)
(-2.434704e-05 -2.7150828e-06 3.1290451e-24)
(-2.7294431e-05 -3.374615e-06 1.2796453e-20)
(-2.9620663e-05 -4.1506926e-06 -1.2780476e-20)
(-3.722952e-05 -5.1351603e-06 6.2343666e-24)
(-3.1329382e-05 -5.319101e-06 1.2718589e-20)
(-6.859068e-05 -1.1103497e-05 -1.5920602e-36)
(-5.6013089e-05 6.3942286e-06 6.0590395e-21)
(-0.00012028389 -8.7841369e-05 -9.2496929e-22)
(-8.9425057e-05 -5.6923907e-05 3.3935481e-23)
(-9.0438149e-05 -5.4585558e-05 -6.8644526e-27)
(-0.00010433031 -6.1122512e-05 -3.6457047e-21)
(-0.00016092248 -0.00010111962 1.5364599e-21)
(-0.00013549613 -6.4320798e-05 -1.4995195e-21)
(-1.7051112e-05 2.6329194e-06 -5.8774718e-39)
(-1.5276557e-05 6.3749267e-07 4.5290743e-21)
(-2.0598155e-05 -3.7102111e-06 2.6522091e-37)
(8.3049573e-06 5.6529592e-06 3.7660443e-21)
(1.3290267e-06 3.9700331e-06 1.8529665e-26)
(-1.2441857e-05 2.6855987e-07 1.190854e-26)
(-2.0573901e-05 -1.548375e-06 -2.0222337e-23)
(-3.0502559e-05 -4.0694702e-06 -4.6330904e-21)
(-3.6488699e-05 -5.3257974e-06 -4.2201233e-21)
(-3.6868147e-05 -5.0553089e-06 -3.8733464e-21)
(-3.7214722e-05 -5.1408698e-06 -1.4000811e-23)
(-4.2162083e-05 -6.2301675e-06 -6.4603116e-24)
(-3.9904207e-05 -4.8850737e-06 -6.0161857e-21)
(-3.650492e-05 -4.3392766e-06 5.5355365e-24)
(-4.0539811e-05 -5.1483387e-06 5.3775389e-21)
(-2.7385255e-06 -1.9739618e-05 5.3268431e-22)
(-3.4830074e-06 -2.4131097e-05 1.102026e-39)
(-4.8669476e-06 -3.2390506e-05 9.9281663e-22)
(-7.2556012e-06 -4.3460528e-05 -9.409295e-22)
(-1.0475462e-05 -4.6161243e-05 -9.019939e-22)
(-1.1225095e-05 -4.8362484e-05 8.6694288e-22)
(-1.394248e-05 -5.8004115e-05 0)
(-1.6914031e-05 -6.7733366e-05 2.3545749e-23)
(-2.3820153e-05 -9.4999204e-05 -6.9307153e-22)
(-3.4457243e-05 -9.7785065e-05 -4.1633563e-23)
(-3.3327851e-05 -7.5202428e-05 4.0062357e-27)
(-3.3773651e-05 -7.0481291e-05 -1.4198809e-21)
(-4.0014746e-05 -8.1887785e-05 1.3554615e-21)
(-4.9418238e-05 -9.8980541e-05 1.2387322e-21)
(-5.2262932e-05 -9.4534119e-05 2.9387359e-39)
(-5.1412938e-05 -8.8650801e-05 2.4163584e-21)
(-6.0356514e-05 -0.00010146447 -1.1676175e-26)
(-6.9936035e-05 -0.00011346737 3.0821126e-23)
(-0.00010072162 -0.00016800121 -3.4430213e-21)
(-0.00010163456 -0.0001308556 -2.7126794e-23)
(-6.5170269e-05 -6.765453e-05 4.5935461e-21)
(-6.9470102e-05 -6.9043356e-05 0)
(-8.5909354e-05 -8.5740935e-05 0)
(-0.00011328278 -0.00011567429 0)
(-0.00010150768 -9.1655616e-05 -2.9237019e-23)
(-7.2581555e-05 -5.6291952e-05 3.6066816e-23)
(-7.9587748e-05 -6.0016672e-05 2.2111495e-21)
(-9.2967046e-05 -6.9319185e-05 -1.9167763e-21)
(-0.0001268776 -9.9492795e-05 -2.9387359e-39)
(-3.9970172e-07 -1.1955916e-05 3.4430024e-23)
(-4.6763489e-07 5.5939408e-10 -6.2776368e-22)
(-5.9852335e-07 6.0437295e-06 1.102026e-39)
(-1.587719e-06 1.3597759e-05 4.4081038e-39)
(-3.3313782e-06 1.9067651e-05 -1.0398325e-21)
(-4.4793858e-06 2.3953769e-05 -9.5705503e-22)
(-5.6541679e-06 2.94836e-05 -8.6535277e-22)
(-7.0408312e-06 3.6345642e-05 -1.8367099e-40)
(-9.5683377e-06 4.3071045e-05 -6.3098005e-22)
(-1.089832e-05 6.0251874e-05 4.129119e-27)
(-1.716541e-05 6.2876805e-05 1.1511947e-21)
(-2.0164238e-05 5.450703e-05 -5.8774718e-39)
(-2.2080054e-05 5.41459e-05 1.8506428e-23)
(-2.4688899e-05 5.9272642e-05 -1.6817783e-23)
(-2.7871235e-05 6.4772685e-05 4.8926992e-22)
(-3.133608e-05 7.6660685e-05 -4.5079066e-22)
(-3.5113498e-05 8.0444911e-05 -8.6254874e-22)
(-3.6748616e-05 7.4449699e-05 -4.5401238e-22)
(-3.8372102e-05 7.2764771e-05 -4.3419612e-22)
(-4.1231965e-05 7.6009789e-05 -3.8987557e-22)
(-4.509969e-05 8.15008e-05 3.5455868e-22)
(-5.0016082e-05 8.9747467e-05 -1.028437e-23)
(-5.6526906e-05 9.7577429e-05 -5.6112338e-22)
(-6.4489479e-05 0.00012395522 2.6408658e-22)
(-6.9983297e-05 0.00012688746 -9.5491312e-24)
(-6.2250217e-05 8.2031609e-05 1.2876713e-23)
(-5.6025972e-05 6.3998643e-05 -4.9118954e-22)
(-5.5396619e-05 6.1074578e-05 -8.2723303e-24)
(-5.9281547e-05 6.2331577e-05 5.0946689e-22)
(-6.4824167e-05 6.7221596e-05 -2.9387359e-39)
(-7.134475e-05 7.4190293e-05 0)
(-7.9284577e-05 8.6306035e-05 0)
(-8.4746321e-05 0.00010012574 3.8526095e-22)
(-7.7473927e-05 8.6391896e-05 7.1694868e-24)
(-6.4046563e-05 5.6958105e-05 -5.9784928e-22)
(-5.7137332e-05 4.5731432e-05 7.0656632e-22)
(-5.5172051e-05 4.2181368e-05 7.6452096e-22)
(-5.7056825e-05 4.1633646e-05 7.4498202e-22)
(-6.1024051e-05 4.4402498e-05 2.2184772e-23)
(-6.547174e-05 4.8954325e-05 3.186242e-22)
(-7.0075044e-05 5.4289224e-05 6.0801042e-22)
(-7.5433728e-05 5.9676461e-05 0)
(-8.2173426e-05 6.7239735e-05 -8.0415292e-24)
(-8.7429271e-05 8.020669e-05 -2.6105418e-22)
(-7.9240599e-05 7.2433098e-05 6.3903767e-22)
(-6.0853831e-05 4.3958429e-05 -1.3171845e-23)
(-5.0757392e-05 3.1039167e-05 -5.2108815e-22)
(-4.5936144e-05 2.4963625e-05 6.3626918e-22)
(-4.4248755e-05 2.1413163e-05 -6.7189578e-22)
(-4.3911832e-05 2.0319488e-05 2.1029643e-23)
(-4.4439546e-05 2.0852514e-05 1.2979198e-21)
(-4.5110108e-05 2.21273e-05 6.4001799e-22)
(-4.6365193e-05 2.3694531e-05 1.2337056e-21)
(-4.8292918e-05 2.5615323e-05 -1.8492842e-23)
(-5.0800504e-05 2.7678401e-05 1.7704716e-23)
(-5.3824217e-05 2.9902685e-05 2.6999559e-22)
(-5.7687005e-05 3.2883387e-05 1.5887726e-23)
(-5.9634185e-05 3.7586104e-05 -1.5445074e-23)
(-6.7089511e-05 2.3337247e-05 2.1754573e-22)
)
;
    }
    Outlet
    {
        type            calculated;
        value           uniform (0 0 0);
    }
}


// ************************************************************************* //
