/*--------------------------------*- C++ -*----------------------------------*\
| =========                 |                                                 |
| \\      /  F ield         | OpenFOAM: The Open Source CFD Toolbox           |
|  \\    /   O peration     | Version:  v2006                                 |
|   \\  /    A nd           | Website:  www.openfoam.com                      |
|    \\/     M anipulation  |                                                 |
\*---------------------------------------------------------------------------*/
FoamFile
{
    version     2.0;
    format      ascii;
    class       volScalarField;
    location    "4000";
    object      yPlus;
}
// * * * * * * * * * * * * * * * * * * * * * * * * * * * * * * * * * * * * * //

dimensions      [0 0 0 0 0 0 0];


internalField   uniform 0;

boundaryField
{
    Side
    {
        type            empty;
    }
    Ground
    {
        type            calculated;
        value           nonuniform List<scalar> 
519
(
1.2015451
1.2083121
1.2161788
1.2263438
1.238608
1.2533996
1.2697806
1.2876964
1.3132856
1.3428353
1.345757
1.379808
1.5827852
1.5671437
1.6884575
1.6363504
1.5887337
1.5422595
1.4976953
1.4550482
1.4143827
1.3758994
1.3397532
1.3062538
1.2757712
1.2486544
1.2254187
1.2080295
1.7172746
1.7218396
1.7255195
1.7288236
1.7316284
1.7339743
1.735698
1.7366413
1.7366873
1.7357379
1.7336782
1.730379
1.7256723
1.7193472
1.7111402
1.7007345
1.6877415
1.6717121
1.6521115
1.6283511
1.5996947
1.5655551
1.5250039
1.4769126
1.4205724
1.3545445
1.2772611
1.1878114
1.083469
0.96047791
0.80855268
0.60549094
0.31151139
0.39201657
0.6547327
0.83310788
0.99253647
1.1213485
1.2213022
1.2976217
1.3675505
1.4311105
1.4884376
1.5393832
1.585113
1.6262786
1.6631894
1.6961173
1.7250661
1.7501751
1.7719977
1.7911766
1.8081421
1.8232555
1.8367468
1.8485697
1.8589077
1.8682221
1.8767287
1.8844669
1.8914839
1.8978505
1.9036125
1.9088564
1.9137184
1.91819
1.922227
1.9258792
1.9292097
1.93225
1.935041
1.9375812
1.9399635
1.9420433
1.7976338
1.7585226
1.7319153
1.7172481
1.7008442
1.6870121
1.6748412
1.6647253
1.6558912
1.6482166
1.6415009
1.6358305
1.6309884
1.6267961
1.623156
1.6198598
1.6168972
1.6141417
1.6115778
1.6091065
1.6067358
1.6043242
1.6019623
1.5994323
1.5968285
1.5939609
1.5908027
1.5873175
1.5833663
1.5792321
1.5748625
1.5701289
1.5648654
1.5589686
1.5526938
1.5459292
1.5385614
1.5308371
1.5224423
1.5132278
1.5035413
1.4929711
1.4811745
1.4684495
1.4548663
1.440405
1.4253158
1.4092821
1.3917385
1.3725975
1.3522579
1.3311649
1.3102102
1.289572
1.268561
1.2469888
1.2234632
1.1977562
1.16946
1.1386633
1.1075285
1.0778772
1.0511413
1.0257874
1.0007184
0.97404391
0.94457575
0.91041007
0.87044647
0.82497292
0.76982234
0.71627797
0.66504088
0.62344699
0.5847847
0.54844772
0.51300902
0.4763279
0.4390373
0.40586902
0.39198031
0.41180578
0.45588976
0.50477399
0.54931337
0.58743418
0.6197838
0.64831754
0.67538172
0.70270639
0.73156142
0.76178863
0.79269208
0.82319031
0.85236172
0.87900139
0.90188008
0.92089498
0.93647511
0.94997706
0.96286831
0.97607378
0.99064944
1.0070345
1.0250979
1.0438623
1.0616334
1.0771487
1.0898733
1.1002431
1.1095241
1.1189263
1.1294859
1.1420302
1.1564283
1.1718805
1.186959
1.2001707
1.2114104
1.2213493
1.2316034
1.2436078
1.25766
1.2732173
1.2890667
1.3040732
1.3180881
1.3318076
1.346051
1.3616091
1.3782285
1.3952987
1.4122887
1.4288936
1.4452944
1.4620178
1.4791657
1.4966787
1.5143419
1.5317331
1.5488565
1.5658268
1.5825228
1.5990618
1.6155331
1.6315283
1.6467344
1.661044
1.6747274
1.6885982
1.7027356
1.7165058
1.7297005
1.7423107
1.7541609
1.765237
1.775634
1.7854282
1.7946244
1.8032525
1.8110973
1.8180692
1.8245193
1.8306821
1.8363092
1.8413042
1.8454949
1.8488181
1.8515678
1.8548794
1.8587237
1.8616866
1.8640735
1.8656955
1.866673
1.8679587
1.8706611
1.8736213
1.8757072
1.8773265
1.878462
1.8792866
1.8807418
1.8836394
1.8865552
1.8888671
1.890925
1.8926715
1.8939935
1.8955659
1.8982344
1.9010699
1.9035053
1.9058038
1.9077659
1.9092739
1.9107882
1.9137618
1.9177886
1.9212157
1.9245139
1.9274343
1.9300131
1.9322153
1.9352324
1.9395333
1.9434862
1.947138
1.9504706
1.9536178
1.9565786
1.9593316
1.9627581
1.9669364
1.9705584
1.9740475
1.9772857
1.9803212
1.9830578
1.9855609
1.9888077
1.9928605
1.996407
1.9998681
2.0030673
2.0060863
2.0088719
2.011408
2.0142958
2.0178204
2.0211555
2.0243087
2.0272605
2.0300247
2.0326096
2.0349888
2.037201
2.0397677
2.0426862
2.0452371
2.0476583
2.0499284
2.0520918
2.054101
2.0559283
2.0575893
2.0596326
2.0621062
2.0642512
2.0663021
2.0681729
2.0699059
2.0715007
2.0729646
2.0742711
2.0755782
2.077058
2.0784785
2.079736
2.0808683
2.0818575
2.0827128
2.0834447
2.0840527
2.0845308
2.0850131
2.0856333
2.0862129
2.0866519
2.0869814
2.0871932
2.087288
2.0872696
2.0871543
2.0869331
2.0865996
2.0863929
2.0863946
2.0862497
2.0860164
2.0856657
2.0852197
2.0846726
2.0840171
2.0832601
2.082434
2.0815472
2.0806407
2.0797742
2.0788707
2.0778693
2.0767892
2.0756227
2.0743805
2.0730593
2.0716667
2.0702076
2.0686842
2.0670938
2.0654391
2.0638267
2.062269
2.060607
2.0588925
2.0571125
2.0552783
2.0533843
2.0514353
2.049431
2.0473769
2.0452738
2.0431245
2.0409256
2.0387007
2.036514
2.0343488
2.0321241
2.0298571
2.0275419
2.0251881
2.0227919
2.020357
2.0178885
2.0153857
2.012849
2.010287
2.0076926
2.0050466
2.0023526
1.9996389
1.9969345
1.9942243
1.9914777
1.988703
1.9858988
1.983068
1.980211
1.9773295
1.9744247
1.9714979
1.9685497
1.9655828
1.9625996
1.9596023
1.9565924
1.9535755
1.9505656
1.9475469
1.9445108
0.99614049
1.0198009
1.041817
1.061124
1.0764493
1.0859414
1.0863475
1.072151
1.0368198
0.98039237
0.92174938
0.89487699
0.90996072
0.94176474
0.97456783
1.0099863
1.0498858
1.0939586
1.1405265
1.1875341
1.2340427
1.2805022
1.328197
1.3779724
1.4306432
1.4871766
1.5481869
1.6127719
1.6789329
1.7433505
1.8026092
1.8540325
1.8948293
1.9231782
1.9382949
1.9403904
1.9312551
1.9138972
1.8926136
1.8705814
1.8501327
1.8367559
1.8267149
1.8096197
0.97197949
0.94930549
0.92890535
0.9098525
0.8915448
0.87372907
0.85637916
0.83957085
0.8233905
0.80795087
0.79331973
0.7795394
0.76664575
0.75460553
0.7434489
0.73302535
0.72344806
0.71431681
0.70616616
0.69785996
0.69175594
0.68377603
0.68233333
0.67461053
)
;
    }
    Inlet
    {
        type            calculated;
        value           uniform 0;
    }
    Airfoil
    {
        type            calculated;
        value           nonuniform List<scalar> 
527
(
1.4936207
1.7418193
1.7946103
1.5800621
1.5611507
1.4706403
1.4100854
1.3626341
1.3399576
1.3234585
1.310165
1.2933067
1.2787211
1.2617993
1.245104
1.2293457
1.2121263
1.1971569
1.1808952
1.1666189
1.151167
1.137127
1.1215174
1.1073663
1.0920779
1.0770061
1.0623305
1.0466441
1.0320317
1.0165723
1.0010665
0.98600738
0.97060599
0.95453641
0.9400517
0.92359794
0.9064097
0.89316336
0.87459884
0.85569373
0.84189532
0.82205272
0.79986568
0.78312042
0.7615804
0.73595262
0.70954793
0.69315801
0.6587444
0.61928049
0.60554606
0.56372114
0.51110364
0.46371026
0.45270973
0.37364432
0.31251349
0.31946448
0.33863406
0.4021286
0.47432654
0.4960377
0.54082664
0.60611602
0.65710447
0.67783101
0.71323714
0.77311469
0.81895686
0.83483205
0.85931156
0.92263085
0.97868777
0.98584636
0.99385467
1.0541256
1.1274393
1.1263359
1.1349276
1.16491
1.2249456
1.2516709
1.2535123
1.2565438
1.3006019
1.3544163
1.3488537
1.3538465
1.3687018
1.4143723
1.4461646
1.4431195
1.44372
1.468643
1.522278
1.5421881
1.5381977
1.5354626
1.5654667
1.6253985
1.6391492
1.6334522
1.6290129
1.6544037
1.7114305
1.7278068
1.7206268
1.7158944
1.7305763
1.7809222
1.8100592
1.8012501
1.79717
1.7967622
1.8368417
1.8851658
1.8730059
1.8705152
1.8663454
1.8867299
1.9293665
1.9378431
1.9343074
1.9317029
1.9318071
1.9616332
1.9994618
1.9913601
1.9904101
1.986251
1.9984024
2.0447454
2.0758932
2.0666434
2.0620706
2.0535597
2.0785889
2.1481947
2.174955
2.1615833
2.1533802
2.1414246
2.1684927
2.2455026
2.2722599
2.255933
2.2486854
2.2396993
2.2502213
2.2961198
2.3224609
2.3103184
2.3074089
2.3043821
2.3044799
2.3183934
2.3342254
2.3303301
2.3306467
2.3263677
2.319443
2.3489591
2.4055619
2.406303
2.3956415
2.3833413
2.3535753
2.3563549
2.5333562
2.7023856
2.6183917
2.5902787
2.5454969
2.4855722
2.5725102
2.8938215
3.0398847
2.9088196
2.8608047
2.7851075
2.6907754
2.8475776
3.2312352
3.2987049
3.1771884
3.1156216
3.0352454
2.9443195
3.0603332
3.3792249
3.4451339
3.3185586
3.2523504
3.1681931
3.0541779
3.1029949
3.5325145
3.7745902
3.5598584
3.4852798
3.4020935
3.298138
3.2223607
3.5142219
3.8421507
3.7204078
3.6183502
3.5400112
3.4690125
3.3815066
3.364121
3.6417585
3.8341141
3.647271
3.5861306
3.5110569
3.4434076
3.3569595
3.368186
3.7094351
3.9125536
3.7025427
3.6417343
3.5639161
3.5013286
3.4280557
3.4154162
3.6493962
3.8567615
3.7480586
3.6590124
3.5903671
3.5304977
3.473331
3.4222847
3.4655432
3.6953133
3.7944945
3.6375372
3.5866422
3.5198377
3.466693
3.4151673
3.3743282
3.4423931
3.7184633
3.8336973
3.6593825
3.61371
3.5499255
3.5037485
3.4609261
3.4294011
3.4411645
3.5605335
3.6781959
3.6360338
3.559738
3.5155107
3.4714111
3.4344329
3.4039132
3.386037
3.4073024
3.5092535
3.6039156
3.5679766
3.4989832
3.4583059
3.4160816
3.3800967
3.3521698
3.3381842
3.3465729
3.4274976
3.6161846
3.6908984
3.5796046
3.5415248
3.4954908
3.4621006
3.4312941
3.4072249
3.3910026
3.3865514
3.4063218
3.4672513
3.5231189
3.5015
3.4512978
3.4243106
3.3949732
3.3707721
3.3493117
3.3338327
3.3274909
3.3327298
3.3548605
3.4148082
3.5080828
3.5212272
3.4466971
3.4245665
3.3899232
3.364994
3.340897
3.3214279
3.3068246
3.2998352
3.3024229
3.3162704
3.3479977
3.4085384
3.4695076
3.454921
3.3921173
3.3640129
3.3278108
3.2989401
3.2705809
3.2452838
3.2225215
3.2031553
3.1879409
3.1783589
3.1753555
3.179922
3.1953834
3.225313
3.2467777
3.2261108
3.1899941
3.1740315
3.1594687
3.1550179
3.158514
3.1715552
3.1950041
3.2300768
3.2776767
3.3387195
3.4144465
3.5050109
3.6068238
3.7194229
3.8558547
4.0019804
4.0627981
4.1232811
1.8246759
1.7438233
1.7587464
1.7105091
1.6611273
1.6301644
1.5791215
1.5471902
1.541579
1.5303471
1.5200661
1.5130951
1.5120902
1.5139176
1.5121031
1.5115594
1.5020452
1.487454
1.4805361
1.4736274
1.4610657
1.4523383
1.4506529
1.4424089
1.4351787
1.437325
1.4283048
1.4159546
1.4145793
1.4029838
1.3927676
1.3942586
1.3880897
1.3789643
1.3785681
1.366565
1.3521167
1.3495516
1.3405375
1.3313588
1.3285724
1.3203069
1.3049965
1.2917319
1.2787621
1.2512542
1.2211932
1.1954073
1.1625495
1.1387105
1.1211242
1.1051587
1.087178
1.0899112
1.1047549
1.1100288
1.1247979
1.1480744
1.1743343
1.2035812
1.2335447
1.2700928
1.30188
1.3614364
1.3982421
1.55301
1.4084727
2.0088844
2.1702627
4.1834401
3.5046622
3.4694362
3.6833384
4.5935484
3.8507777
1.2354598
1.1754987
1.3523522
0.90440787
0.53394093
1.017745
1.3191877
1.6171007
1.7720163
1.7780294
1.7914127
1.9133652
1.8514926
1.775568
1.8780557
1.333895
1.4703994
1.701206
1.9831539
2.0865365
2.1334848
2.3368078
2.5257716
2.9946792
3.164725
2.8395151
2.7713777
3.0012658
3.323214
3.3062042
3.2324705
3.4846549
3.718227
4.5384932
4.1799218
3.1688659
3.2573453
3.6597492
4.265458
3.8892994
3.2244321
3.3957217
3.7063603
4.4315431
1.0000036
0.076459503
0.80392189
1.263422
1.5328087
1.7977851
2.0790464
2.3985541
2.7086899
3.3071969
3.2347558
3.0919885
3.1826004
3.4205924
3.6697456
4.0735018
4.0506744
3.9752258
4.028691
4.2027009
4.4353182
4.7339721
5.0304906
5.6623101
4.7893464
4.1257036
3.7815036
3.7630244
3.8867299
4.0900258
4.3333492
4.6688393
4.6376182
3.9427413
3.4273675
3.1821717
3.1214702
3.169327
3.295579
3.4509144
3.6161231
3.7889207
4.001352
3.9928686
3.2876758
2.77788
2.4768147
2.3309793
2.2679591
2.2564532
2.2803182
2.3156879
2.3664178
2.4336938
2.5126635
2.6003569
2.7049866
2.8142052
2.8276391
)
;
    }
    Outlet
    {
        type            calculated;
        value           uniform 0;
    }
}


// ************************************************************************* //
