# Force coefficients
# dragDir       : (1.00000000e+00 0.00000000e+00 0.00000000e+00)
# sideDir       : (0.00000000e+00 0.00000000e+00 -1.00000000e+00)
# liftDir       : (0.00000000e+00 1.00000000e+00 0.00000000e+00)
# rollAxis      : (1.00000000e+00 0.00000000e+00 0.00000000e+00)
# pitchAxis     : (0.00000000e+00 0.00000000e+00 -1.00000000e+00)
# yawAxis       : (0.00000000e+00 1.00000000e+00 0.00000000e+00)
# magUInf       : 1.03413075e-01
# lRef          : 1.00000000e+00
# Aref          : 1.00000000e+00
# CofR          : (0.00000000e+00 0.00000000e+00 0.00000000e+00)
#
# Time          	Cd              	Cs              	Cl              	CmRoll          	CmPitch         	CmYaw           	Cd(f)           	Cd(r)           	Cs(f)           	Cs(r)           	Cl(f)           	Cl(r)           
1               	5.82280267e+00	7.10302064e-18	-4.30956566e+00	2.15478283e+00	4.10037264e+00	2.91140133e+00	5.06618416e+00	7.56618501e-01	2.91140133e+00	-2.91140133e+00	1.94558981e+00	-6.25515548e+00
2               	2.05306777e+00	7.07187508e-18	-1.95002691e+00	9.75013457e-01	1.44281959e+00	1.02653389e+00	2.00154734e+00	5.15204288e-02	1.02653389e+00	-1.02653389e+00	4.67806134e-01	-2.41783305e+00
3               	-7.11219009e-01	7.09049565e-18	7.35899331e-02	-3.67949665e-02	-2.96772383e-01	-3.55609505e-01	-3.92404471e-01	-3.18814538e-01	-3.55609505e-01	3.55609505e-01	-2.59977417e-01	3.33567350e-01
4               	-8.92038734e-01	7.07331889e-18	1.31762903e-01	-6.58814513e-02	-2.48701075e-01	-4.46019367e-01	-5.11900818e-01	-3.80137916e-01	-4.46019367e-01	4.46019367e-01	-1.82819623e-01	3.14582526e-01
5               	-1.48300446e-01	7.05525468e-18	-3.40328826e-01	1.70164413e-01	1.66650696e-01	-7.41502231e-02	9.60141898e-02	-2.44314636e-01	-7.41502231e-02	7.41502231e-02	-3.51371662e-03	-3.36815109e-01
6               	2.57940496e-01	7.05237724e-18	-5.36674911e-01	2.68337456e-01	3.23217825e-01	1.28970248e-01	3.97307704e-01	-1.39367207e-01	1.28970248e-01	-1.28970248e-01	5.48803692e-02	-5.91555281e-01
7               	2.25961658e-01	7.05858641e-18	-4.91172060e-01	2.45586030e-01	2.85800523e-01	1.12980829e-01	3.58566859e-01	-1.32605201e-01	1.12980829e-01	-1.12980829e-01	4.02144936e-02	-5.31386553e-01
8               	7.96815462e-02	7.06367399e-18	-4.31543596e-01	2.15771798e-01	2.34193000e-01	3.98407731e-02	2.55612571e-01	-1.75931025e-01	3.98407731e-02	-3.98407731e-02	1.84212022e-02	-4.49964799e-01
9               	1.73883802e-02	7.06306147e-18	-4.33794165e-01	2.16897082e-01	2.25941399e-01	8.69419012e-03	2.25591272e-01	-2.08202892e-01	8.69419012e-03	-8.69419012e-03	9.04431648e-03	-4.42838481e-01
10              	3.29166238e-02	7.06115367e-18	-4.56170174e-01	2.28085087e-01	2.38841124e-01	1.64583119e-02	2.44543399e-01	-2.11626775e-01	1.64583119e-02	-1.64583119e-02	1.07560369e-02	-4.66926211e-01
11              	6.29152140e-02	7.05963907e-18	-4.68505582e-01	2.34252791e-01	2.49729284e-01	3.14576070e-02	2.65710398e-01	-2.02795184e-01	3.14576070e-02	-3.14576070e-02	1.54764934e-02	-4.83982075e-01
12              	7.38842840e-02	7.05955089e-18	-4.72429007e-01	2.36214504e-01	2.54698351e-01	3.69421420e-02	2.73156646e-01	-1.99272362e-01	3.69421420e-02	-3.69421420e-02	1.84838478e-02	-4.90912855e-01
13              	7.02727534e-02	7.05995958e-18	-4.76356084e-01	2.38178042e-01	2.56876217e-01	3.51363767e-02	2.73314419e-01	-2.03041665e-01	3.51363767e-02	-3.51363767e-02	1.86981755e-02	-4.95054259e-01
14              	6.47916648e-02	7.06014535e-18	-4.81497502e-01	2.40748751e-01	2.58598120e-01	3.23958324e-02	2.73144583e-01	-2.08352919e-01	3.23958324e-02	-3.23958324e-02	1.78493692e-02	-4.99346871e-01
15              	6.31994308e-02	7.05999210e-18	-4.85556009e-01	2.42778005e-01	2.60072596e-01	3.15997154e-02	2.74377720e-01	-2.11178289e-01	3.15997154e-02	-3.15997154e-02	1.72945911e-02	-5.02850600e-01
16              	6.44364416e-02	7.05974550e-18	-4.89505354e-01	2.44752677e-01	2.62123991e-01	3.22182208e-02	2.76970898e-01	-2.12534456e-01	3.22182208e-02	-3.22182208e-02	1.73713136e-02	-5.06876668e-01
17              	6.57689478e-02	7.05959907e-18	-4.93628752e-01	2.46814376e-01	2.64355350e-01	3.28844739e-02	2.79698850e-01	-2.13929902e-01	3.28844739e-02	-3.28844739e-02	1.75409739e-02	-5.11169726e-01
18              	6.61537152e-02	7.05956167e-18	-4.97331314e-01	2.48665657e-01	2.66257538e-01	3.30768576e-02	2.81742515e-01	-2.15588799e-01	3.30768576e-02	-3.30768576e-02	1.75918813e-02	-5.14923195e-01
19              	6.58490780e-02	7.05955517e-18	-5.00215326e-01	2.50107663e-01	2.67487898e-01	3.29245390e-02	2.83032202e-01	-2.17183124e-01	3.29245390e-02	-3.29245390e-02	1.73802352e-02	-5.17595561e-01
20              	6.54006996e-02	7.05953210e-18	-5.02623256e-01	2.51311628e-01	2.68331020e-01	3.27003498e-02	2.84011978e-01	-2.18611278e-01	3.27003498e-02	-3.27003498e-02	1.70193920e-02	-5.19642648e-01
21              	6.51644500e-02	7.05951046e-18	-5.05060743e-01	2.52530371e-01	2.69212566e-01	3.25822250e-02	2.85112596e-01	-2.19948146e-01	3.25822250e-02	-3.25822250e-02	1.66821944e-02	-5.21742937e-01
22              	6.50602089e-02	7.05949487e-18	-5.07446102e-01	2.53723051e-01	2.70126093e-01	3.25301044e-02	2.86253156e-01	-2.21192947e-01	3.25301044e-02	-3.25301044e-02	1.64030423e-02	-5.23849145e-01
23              	6.49364069e-02	7.05947682e-18	-5.09471554e-01	2.54735777e-01	2.70848468e-01	3.24682035e-02	2.87203980e-01	-2.22267573e-01	3.24682035e-02	-3.24682035e-02	1.61126908e-02	-5.25584245e-01
24              	6.47671438e-02	7.05947519e-18	-5.11117075e-01	2.55558538e-01	2.71327512e-01	3.23835719e-02	2.87942109e-01	-2.23174966e-01	3.23835719e-02	-3.23835719e-02	1.57689743e-02	-5.26886049e-01
25              	6.46016952e-02	7.05948840e-18	-5.12811317e-01	2.56405659e-01	2.71821163e-01	3.23008476e-02	2.88706506e-01	-2.24104811e-01	3.23008476e-02	-3.23008476e-02	1.54155043e-02	-5.28226821e-01
26              	6.44860467e-02	7.05951093e-18	-5.14568419e-01	2.57284209e-01	2.72365962e-01	3.22430234e-02	2.89527233e-01	-2.25041186e-01	3.22430234e-02	-3.22430234e-02	1.50817524e-02	-5.29650171e-01
27              	6.44066414e-02	7.05952987e-18	-5.16041119e-01	2.58020560e-01	2.72784532e-01	3.22033207e-02	2.90223880e-01	-2.25817239e-01	3.22033207e-02	-3.22033207e-02	1.47639726e-02	-5.30805092e-01
28              	6.43596009e-02	7.05955010e-18	-5.17517942e-01	2.58758971e-01	2.73199696e-01	3.21798005e-02	2.90938772e-01	-2.26579171e-01	3.21798005e-02	-3.21798005e-02	1.44407250e-02	-5.31958667e-01
29              	6.43410305e-02	7.05959333e-18	-5.19056330e-01	2.59528165e-01	2.73667267e-01	3.21705153e-02	2.91698680e-01	-2.27357650e-01	3.21705153e-02	-3.21705153e-02	1.41391013e-02	-5.33195432e-01
30              	6.43368079e-02	7.05963805e-18	-5.20450489e-01	2.60225245e-01	2.74081652e-01	3.21684039e-02	2.92393649e-01	-2.28056841e-01	3.21684039e-02	-3.21684039e-02	1.38564072e-02	-5.34306897e-01
31              	6.43486364e-02	7.05969296e-18	-5.21661361e-01	2.60830680e-01	2.74404466e-01	3.21743182e-02	2.93004999e-01	-2.28656362e-01	3.21743182e-02	-3.21743182e-02	1.35737859e-02	-5.35235147e-01
32              	6.43646072e-02	7.05974780e-18	-5.22850470e-01	2.61425235e-01	2.74717858e-01	3.21823036e-02	2.93607539e-01	-2.29242931e-01	3.21823036e-02	-3.21823036e-02	1.32926224e-02	-5.36143093e-01
33              	6.43831926e-02	7.05981726e-18	-5.24102585e-01	2.62051293e-01	2.75079034e-01	3.21915963e-02	2.94242889e-01	-2.29859696e-01	3.21915963e-02	-3.21915963e-02	1.30277409e-02	-5.37130326e-01
34              	6.44050434e-02	7.05988822e-18	-5.25273384e-01	2.62636692e-01	2.75430243e-01	3.22025217e-02	2.94839214e-01	-2.30434170e-01	3.22025217e-02	-3.22025217e-02	1.27935509e-02	-5.38066935e-01
35              	6.44131798e-02	7.05995276e-18	-5.26321183e-01	2.63160592e-01	2.75736443e-01	3.22065899e-02	2.95367182e-01	-2.30954002e-01	3.22065899e-02	-3.22065899e-02	1.25758516e-02	-5.38897035e-01
36              	6.44161879e-02	7.06003149e-18	-5.27373374e-01	2.63686687e-01	2.76067871e-01	3.22080940e-02	2.95894781e-01	-2.31478593e-01	3.22080940e-02	-3.22080940e-02	1.23811834e-02	-5.39754558e-01
37              	6.44112840e-02	7.06011682e-18	-5.28376559e-01	2.64188280e-01	2.76396296e-01	3.22056420e-02	2.96393922e-01	-2.31982638e-01	3.22056420e-02	-3.22056420e-02	1.22080163e-02	-5.40584576e-01
38              	6.43942866e-02	7.06019622e-18	-5.29378991e-01	2.64689496e-01	2.76739548e-01	3.21971433e-02	2.96886639e-01	-2.32492352e-01	3.21971433e-02	-3.21971433e-02	1.20500523e-02	-5.41429044e-01
39              	6.43570472e-02	7.06028166e-18	-5.30357974e-01	2.65178987e-01	2.77091037e-01	3.21785236e-02	2.97357511e-01	-2.33000464e-01	3.21785236e-02	-3.21785236e-02	1.19120496e-02	-5.42270024e-01
40              	6.42894581e-02	7.06036959e-18	-5.31361194e-01	2.65680597e-01	2.77473644e-01	3.21447290e-02	2.97825326e-01	-2.33535868e-01	3.21447290e-02	-3.21447290e-02	1.17930471e-02	-5.43154241e-01
41              	6.42009703e-02	7.06046597e-18	-5.32321182e-01	2.66160591e-01	2.77856357e-01	3.21004851e-02	2.98261076e-01	-2.34060106e-01	3.21004851e-02	-3.21004851e-02	1.16957654e-02	-5.44016948e-01
42              	6.41015125e-02	7.06058169e-18	-5.33208826e-01	2.66604413e-01	2.78217974e-01	3.20507562e-02	2.98655169e-01	-2.34553657e-01	3.20507562e-02	-3.20507562e-02	1.16135610e-02	-5.44822387e-01
43              	6.39895515e-02	7.06069565e-18	-5.34075846e-01	2.67037923e-01	2.78587699e-01	3.19947758e-02	2.99032699e-01	-2.35043147e-01	3.19947758e-02	-3.19947758e-02	1.15497757e-02	-5.45625622e-01
44              	6.38609622e-02	7.06081853e-18	-5.34942732e-01	2.67471366e-01	2.78966610e-01	3.19304811e-02	2.99401847e-01	-2.35540885e-01	3.19304811e-02	-3.19304811e-02	1.14952438e-02	-5.46437976e-01
45              	6.37349933e-02	7.06095986e-18	-5.35816793e-01	2.67908397e-01	2.79367043e-01	3.18674967e-02	2.99775893e-01	-2.36040900e-01	3.18674967e-02	-3.18674967e-02	1.14586462e-02	-5.47275440e-01
46              	6.35996235e-02	7.06110838e-18	-5.36678786e-01	2.68339393e-01	2.79770817e-01	3.17998118e-02	3.00139205e-01	-2.36539581e-01	3.17998118e-02	-3.17998118e-02	1.14314242e-02	-5.48110210e-01
47              	6.34511591e-02	7.06121954e-18	-5.37513064e-01	2.68756532e-01	2.80172400e-01	3.17255796e-02	3.00482112e-01	-2.37030953e-01	3.17255796e-02	-3.17255796e-02	1.14158674e-02	-5.48928932e-01
48              	6.32933821e-02	7.06132007e-18	-5.38325875e-01	2.69162937e-01	2.80576957e-01	3.16466910e-02	3.00809628e-01	-2.37516246e-01	3.16466910e-02	-3.16466910e-02	1.14140193e-02	-5.49739894e-01
49              	6.31291520e-02	7.06141999e-18	-5.39126685e-01	2.69563343e-01	2.80983479e-01	3.15645760e-02	3.01127919e-01	-2.37998767e-01	3.15645760e-02	-3.15645760e-02	1.14201361e-02	-5.50546821e-01
50              	6.29594317e-02	7.06151675e-18	-5.39913234e-01	2.69956617e-01	2.81390844e-01	3.14797158e-02	3.01436333e-01	-2.38476901e-01	3.14797158e-02	-3.14797158e-02	1.14342269e-02	-5.51347461e-01
51              	6.27853367e-02	7.06161606e-18	-5.40716176e-01	2.70358088e-01	2.81811442e-01	3.13926683e-02	3.01750756e-01	-2.38965420e-01	3.13926683e-02	-3.13926683e-02	1.14533538e-02	-5.52169530e-01
52              	6.26073081e-02	7.06172197e-18	-5.41526040e-01	2.70763020e-01	2.82242755e-01	3.13036541e-02	3.02066674e-01	-2.39459366e-01	3.13036541e-02	-3.13036541e-02	1.14797352e-02	-5.53005775e-01
53              	6.24224986e-02	7.06182560e-18	-5.42273960e-01	2.71136980e-01	2.82642349e-01	3.12112493e-02	3.02348229e-01	-2.39925730e-01	3.12112493e-02	-3.12112493e-02	1.15053688e-02	-5.53779328e-01
54              	6.22312273e-02	7.06192817e-18	-5.42996987e-01	2.71498494e-01	2.83030600e-01	3.11156137e-02	3.02614107e-01	-2.40382880e-01	3.11156137e-02	-3.11156137e-02	1.15321066e-02	-5.54529094e-01
55              	6.20382497e-02	7.06203420e-18	-5.43695303e-01	2.71847651e-01	2.83409089e-01	3.10191249e-02	3.02866776e-01	-2.40828526e-01	3.10191249e-02	-3.10191249e-02	1.15614381e-02	-5.55256741e-01
56              	6.18411797e-02	7.06213598e-18	-5.44358723e-01	2.72179361e-01	2.83767406e-01	3.09205899e-02	3.03099951e-01	-2.41258772e-01	3.09205899e-02	-3.09205899e-02	1.15880444e-02	-5.55946767e-01
57              	6.16401106e-02	7.06223936e-18	-5.45023257e-01	2.72511629e-01	2.84125373e-01	3.08200553e-02	3.03331684e-01	-2.41691573e-01	3.08200553e-02	-3.08200553e-02	1.16137444e-02	-5.56637001e-01
58              	6.14404647e-02	7.06235677e-18	-5.45683374e-01	2.72841687e-01	2.84485001e-01	3.07202323e-02	3.03561919e-01	-2.42121455e-01	3.07202323e-02	-3.07202323e-02	1.16433138e-02	-5.57326688e-01
59              	6.12341285e-02	7.06248401e-18	-5.46299560e-01	2.73149780e-01	2.84819945e-01	3.06170642e-02	3.03766844e-01	-2.42532716e-01	3.06170642e-02	-3.06170642e-02	1.16701648e-02	-5.57969725e-01
60              	6.10277524e-02	7.06261081e-18	-5.46911030e-01	2.73455515e-01	2.85153027e-01	3.05138762e-02	3.03969391e-01	-2.42941639e-01	3.05138762e-02	-3.05138762e-02	1.16975126e-02	-5.58608542e-01
61              	6.08213372e-02	7.06273476e-18	-5.47513735e-01	2.73756868e-01	2.85481294e-01	3.04106686e-02	3.04167536e-01	-2.43346199e-01	3.04106686e-02	-3.04106686e-02	1.17244264e-02	-5.59238162e-01
62              	6.06101362e-02	7.06285883e-18	-5.48092816e-01	2.74046408e-01	2.85791892e-01	3.03050681e-02	3.04351476e-01	-2.43741340e-01	3.03050681e-02	-3.03050681e-02	1.17454834e-02	-5.59838300e-01
63              	6.03992791e-02	7.06300343e-18	-5.48679929e-01	2.74339964e-01	2.86105997e-01	3.01996396e-02	3.04539604e-01	-2.44140325e-01	3.01996396e-02	-3.01996396e-02	1.17660321e-02	-5.60445961e-01
64              	6.01868755e-02	7.06315888e-18	-5.49275921e-01	2.74637960e-01	2.86421668e-01	3.00934378e-02	3.04731398e-01	-2.44544523e-01	3.00934378e-02	-3.00934378e-02	1.17837075e-02	-5.61059628e-01
65              	5.99721594e-02	7.06331784e-18	-5.49838267e-01	2.74919134e-01	2.86714745e-01	2.99860797e-02	3.04905213e-01	-2.44933054e-01	2.99860797e-02	-2.99860797e-02	1.17956110e-02	-5.61633878e-01
66              	5.97558249e-02	7.06347842e-18	-5.50394653e-01	2.75197327e-01	2.86998804e-01	2.98779125e-02	3.05075239e-01	-2.45319414e-01	2.98779125e-02	-2.98779125e-02	1.18014775e-02	-5.62196131e-01
67              	5.95353447e-02	7.06363681e-18	-5.50941272e-01	2.75470636e-01	2.87272553e-01	2.97676724e-02	3.05238308e-01	-2.45702964e-01	2.97676724e-02	-2.97676724e-02	1.18019165e-02	-5.62743189e-01
68              	5.93086004e-02	7.06379191e-18	-5.51453709e-01	2.75726855e-01	2.87520837e-01	2.96543002e-02	3.05381155e-01	-2.46072554e-01	2.96543002e-02	-2.96543002e-02	1.17939827e-02	-5.63247692e-01
69              	5.90791159e-02	7.06394378e-18	-5.51944053e-01	2.75972027e-01	2.87750360e-01	2.95395579e-02	3.05511584e-01	-2.46432469e-01	2.95395579e-02	-2.95395579e-02	1.17783337e-02	-5.63722387e-01
70              	5.88462475e-02	7.06409355e-18	-5.52444478e-01	2.76222239e-01	2.87973943e-01	2.94231237e-02	3.05645363e-01	-2.46799115e-01	2.94231237e-02	-2.94231237e-02	1.17517039e-02	-5.64196182e-01
71              	5.86147939e-02	7.06423121e-18	-5.52919739e-01	2.76459869e-01	2.88170584e-01	2.93073970e-02	3.05767266e-01	-2.47152472e-01	2.93073970e-02	-2.93073970e-02	1.17107142e-02	-5.64630453e-01
72              	5.83895185e-02	7.06437217e-18	-5.53383318e-01	2.76691659e-01	2.88349316e-01	2.91947593e-02	3.05886418e-01	-2.47496900e-01	2.91947593e-02	-2.91947593e-02	1.16576575e-02	-5.65040976e-01
73              	5.81740349e-02	7.06450035e-18	-5.53861009e-01	2.76930505e-01	2.88522464e-01	2.90870175e-02	3.06017522e-01	-2.47843487e-01	2.90870175e-02	-2.90870175e-02	1.15919594e-02	-5.65452969e-01
74              	5.79678846e-02	7.06462370e-18	-5.54326704e-01	2.77163352e-01	2.88673723e-01	2.89839423e-02	3.06147294e-01	-2.48179410e-01	2.89839423e-02	-2.89839423e-02	1.15103709e-02	-5.65837075e-01
75              	5.77764490e-02	7.06474151e-18	-5.54792279e-01	2.77396139e-01	2.88812905e-01	2.88882245e-02	3.06284364e-01	-2.48507915e-01	2.88882245e-02	-2.88882245e-02	1.14167657e-02	-5.66209044e-01
76              	5.76021460e-02	7.06485518e-18	-5.55283089e-01	2.77641544e-01	2.88950353e-01	2.88010730e-02	3.06442617e-01	-2.48840471e-01	2.88010730e-02	-2.88010730e-02	1.13088090e-02	-5.66591898e-01
77              	5.74413798e-02	7.06496276e-18	-5.55763857e-01	2.77881929e-01	2.89066217e-01	2.87206899e-02	3.06602619e-01	-2.49161239e-01	2.87206899e-02	-2.87206899e-02	1.11842885e-02	-5.66948146e-01
78              	5.72945120e-02	7.06506340e-18	-5.56239036e-01	2.78119518e-01	2.89163916e-01	2.86472560e-02	3.06766774e-01	-2.49472262e-01	2.86472560e-02	-2.86472560e-02	1.10443976e-02	-5.67283433e-01
79              	5.71620292e-02	7.06515673e-18	-5.56742437e-01	2.78371219e-01	2.89258614e-01	2.85810146e-02	3.06952233e-01	-2.49790204e-01	2.85810146e-02	-2.85810146e-02	1.08873953e-02	-5.67629832e-01
80              	5.70446556e-02	7.06524650e-18	-5.57258225e-01	2.78629112e-01	2.89346158e-01	2.85223278e-02	3.07151440e-01	-2.50106785e-01	2.85223278e-02	-2.85223278e-02	1.07170456e-02	-5.67975271e-01
81              	5.69394932e-02	7.06532669e-18	-5.57797789e-01	2.78898895e-01	2.89437146e-01	2.84697466e-02	3.07368641e-01	-2.50429148e-01	2.84697466e-02	-2.84697466e-02	1.05382515e-02	-5.68336040e-01
82              	5.68421449e-02	7.06539381e-18	-5.58364750e-01	2.79182375e-01	2.89530118e-01	2.84210724e-02	3.07603447e-01	-2.50761303e-01	2.84210724e-02	-2.84210724e-02	1.03477432e-02	-5.68712493e-01
83              	5.67484872e-02	7.06544883e-18	-5.58922478e-01	2.79461239e-01	2.89606433e-01	2.83742436e-02	3.07835483e-01	-2.51086996e-01	2.83742436e-02	-2.83742436e-02	1.01451935e-02	-5.69067672e-01
84              	5.66603330e-02	7.06549241e-18	-5.59488488e-01	2.79744244e-01	2.89678345e-01	2.83301665e-02	3.08074411e-01	-2.51414078e-01	2.83301665e-02	-2.83301665e-02	9.93410144e-03	-5.69422590e-01
85              	5.65763730e-02	7.06552498e-18	-5.60078700e-01	2.80039350e-01	2.89750629e-01	2.82881865e-02	3.08327536e-01	-2.51751163e-01	2.82881865e-02	-2.82881865e-02	9.71127963e-03	-5.69789979e-01
86              	5.64977634e-02	7.06554645e-18	-5.60689197e-01	2.80344599e-01	2.89821725e-01	2.82488817e-02	3.08593480e-01	-2.52095717e-01	2.82488817e-02	-2.82488817e-02	9.47712601e-03	-5.70166323e-01
87              	5.64250677e-02	7.06555819e-18	-5.61315590e-01	2.80657795e-01	2.89894876e-01	2.82125339e-02	3.08870329e-01	-2.52445261e-01	2.82125339e-02	-2.82125339e-02	9.23708107e-03	-5.70552671e-01
88              	5.63566512e-02	7.06555970e-18	-5.61959781e-01	2.80979890e-01	2.89965120e-01	2.81783256e-02	3.09158216e-01	-2.52801565e-01	2.81783256e-02	-2.81783256e-02	8.98522918e-03	-5.70945010e-01
89              	5.62923535e-02	7.06555420e-18	-5.62603518e-01	2.81301759e-01	2.90025108e-01	2.81461767e-02	3.09447936e-01	-2.53155582e-01	2.81461767e-02	-2.81461767e-02	8.72334870e-03	-5.71326866e-01
90              	5.62330123e-02	7.06554082e-18	-5.63266048e-01	2.81633024e-01	2.90084834e-01	2.81165062e-02	3.09749530e-01	-2.53516518e-01	2.81165062e-02	-2.81165062e-02	8.45180996e-03	-5.71717858e-01
91              	5.61790940e-02	7.06552156e-18	-5.63946941e-01	2.81973471e-01	2.90153145e-01	2.80895470e-02	3.10063018e-01	-2.53883924e-01	2.80895470e-02	-2.80895470e-02	8.17967449e-03	-5.72126616e-01
92              	5.61280852e-02	7.06549464e-18	-5.64650432e-01	2.82325216e-01	2.90225584e-01	2.80640426e-02	3.10389259e-01	-2.54261173e-01	2.80640426e-02	-2.80640426e-02	7.90036801e-03	-5.72550800e-01
93              	5.60791936e-02	7.06546023e-18	-5.65378786e-01	2.82689393e-01	2.90296199e-01	2.80395968e-02	3.10728990e-01	-2.54649796e-01	2.80395968e-02	-2.80395968e-02	7.60680562e-03	-5.72985592e-01
94              	5.60299960e-02	7.06542167e-18	-5.66084585e-01	2.83042293e-01	2.90352360e-01	2.80149980e-02	3.11057291e-01	-2.55027295e-01	2.80149980e-02	-2.80149980e-02	7.31006751e-03	-5.73394653e-01
95              	5.59826048e-02	7.06537850e-18	-5.66812900e-01	2.83406450e-01	2.90408533e-01	2.79913024e-02	3.11397752e-01	-2.55415148e-01	2.79913024e-02	-2.79913024e-02	7.00208313e-03	-5.73814983e-01
96              	5.59390225e-02	7.06541062e-18	-5.67553199e-01	2.83776600e-01	2.90459174e-01	2.79695112e-02	3.11746111e-01	-2.55807088e-01	2.79695112e-02	-2.79695112e-02	6.68257481e-03	-5.74235774e-01
97              	5.58995559e-02	7.06544478e-18	-5.68299645e-01	2.84149822e-01	2.90506230e-01	2.79497779e-02	3.12099600e-01	-2.56200044e-01	2.79497779e-02	-2.79497779e-02	6.35640799e-03	-5.74656053e-01
98              	5.58610986e-02	7.06548019e-18	-5.69059550e-01	2.84529775e-01	2.90548217e-01	2.79305493e-02	3.12460324e-01	-2.56599226e-01	2.79305493e-02	-2.79305493e-02	6.01844205e-03	-5.75077992e-01
99              	5.58220131e-02	7.06551854e-18	-5.69822511e-01	2.84911255e-01	2.90581613e-01	2.79110065e-02	3.12822262e-01	-2.57000249e-01	2.79110065e-02	-2.79110065e-02	5.67035809e-03	-5.75492869e-01
100             	5.57835190e-02	7.06556111e-18	-5.70584856e-01	2.85292428e-01	2.90604317e-01	2.78917595e-02	3.13184188e-01	-2.57400669e-01	2.78917595e-02	-2.78917595e-02	5.31188875e-03	-5.75896745e-01
101             	5.57479507e-02	7.06560850e-18	-5.71363040e-01	2.85681520e-01	2.90623333e-01	2.78739753e-02	3.13555495e-01	-2.57807545e-01	2.78739753e-02	-2.78739753e-02	4.94181347e-03	-5.76304854e-01
102             	5.57162053e-02	7.06566217e-18	-5.72164916e-01	2.86082458e-01	2.90643336e-01	2.78581026e-02	3.13940561e-01	-2.58224356e-01	2.78581026e-02	-2.78581026e-02	4.56087778e-03	-5.76725794e-01
103             	5.56879623e-02	7.06572359e-18	-5.72985297e-01	2.86492648e-01	2.90672233e-01	2.78439811e-02	3.14336629e-01	-2.58648667e-01	2.78439811e-02	-2.78439811e-02	4.17958479e-03	-5.77164881e-01
104             	5.56623726e-02	7.06579040e-18	-5.73866207e-01	2.86933104e-01	2.90717388e-01	2.78311863e-02	3.14764290e-01	-2.59101917e-01	2.78311863e-02	-2.78311863e-02	3.78428415e-03	-5.77650491e-01
105             	5.56348801e-02	7.06586722e-18	-5.74739347e-01	2.87369673e-01	2.90748148e-01	2.78174400e-02	3.15187113e-01	-2.59552233e-01	2.78174400e-02	-2.78174400e-02	3.37847468e-03	-5.78117821e-01
106             	5.56077583e-02	7.06595020e-18	-5.75638863e-01	2.87819432e-01	2.90768812e-01	2.78038792e-02	3.15623311e-01	-2.60015552e-01	2.78038792e-02	-2.78038792e-02	2.94937995e-03	-5.78588243e-01
107             	5.55821675e-02	7.06603314e-18	-5.76533619e-01	2.88266809e-01	2.90779624e-01	2.77910838e-02	3.16057893e-01	-2.60475726e-01	2.77910838e-02	-2.77910838e-02	2.51281447e-03	-5.79046433e-01
108             	5.55599110e-02	7.06612359e-18	-5.77462996e-01	2.88731498e-01	2.90801479e-01	2.77799555e-02	3.16511453e-01	-2.60951542e-01	2.77799555e-02	-2.77799555e-02	2.06998113e-03	-5.79532977e-01
109             	5.55426678e-02	7.06621954e-18	-5.78451251e-01	2.89225625e-01	2.90850553e-01	2.77713339e-02	3.16996959e-01	-2.61454292e-01	2.77713339e-02	-2.77713339e-02	1.62492729e-03	-5.80076178e-01
110             	5.55296763e-02	7.06631930e-18	-5.79491034e-01	2.89745517e-01	2.90922672e-01	2.77648381e-02	3.17510355e-01	-2.61980679e-01	2.77648381e-02	-2.77648381e-02	1.17715503e-03	-5.80668189e-01
111             	5.55181252e-02	7.06641968e-18	-5.80564634e-01	2.90282317e-01	2.91000600e-01	2.77590626e-02	3.18041380e-01	-2.62523255e-01	2.77590626e-02	-2.77590626e-02	7.18282514e-04	-5.81282917e-01
112             	5.55086978e-02	7.06651329e-18	-5.81668580e-01	2.90834290e-01	2.91091440e-01	2.77543489e-02	3.18588639e-01	-2.63079941e-01	2.77543489e-02	-2.77543489e-02	2.57149623e-04	-5.81925730e-01
113             	5.55012797e-02	7.06660377e-18	-5.82813485e-01	2.91406742e-01	2.91188463e-01	2.77506398e-02	3.19157382e-01	-2.63656103e-01	2.77506398e-02	-2.77506398e-02	-2.18279104e-04	-5.82595206e-01
114             	5.54934065e-02	7.06669482e-18	-5.83966829e-01	2.91983414e-01	2.91286539e-01	2.77467032e-02	3.19730118e-01	-2.64236711e-01	2.77467032e-02	-2.77467032e-02	-6.96875687e-04	-5.83269953e-01
115             	5.54871825e-02	7.06678713e-18	-5.85150656e-01	2.92575328e-01	2.91396980e-01	2.77435913e-02	3.20318919e-01	-2.64831737e-01	2.77435913e-02	-2.77435913e-02	-1.17834815e-03	-5.83972308e-01
116             	5.54855299e-02	7.06687061e-18	-5.86393680e-01	2.93196840e-01	2.91532862e-01	2.77427650e-02	3.20939605e-01	-2.65454075e-01	2.77427650e-02	-2.77427650e-02	-1.66397777e-03	-5.84729702e-01
117             	5.54856628e-02	7.06693974e-18	-5.87668570e-01	2.93834285e-01	2.91685258e-01	2.77428314e-02	3.21577116e-01	-2.66091454e-01	2.77428314e-02	-2.77428314e-02	-2.14902710e-03	-5.85519543e-01
118             	5.54845568e-02	7.06700419e-18	-5.88952030e-01	2.94476015e-01	2.91842507e-01	2.77422784e-02	3.22218294e-01	-2.66733737e-01	2.77422784e-02	-2.77422784e-02	-2.63350841e-03	-5.86318522e-01
119             	5.54847204e-02	7.06706633e-18	-5.90275207e-01	2.95137604e-01	2.92013431e-01	2.77423602e-02	3.22879964e-01	-2.67395243e-01	2.77423602e-02	-2.77423602e-02	-3.12417279e-03	-5.87151035e-01
120             	5.54856868e-02	7.06712828e-18	-5.91624094e-01	2.95812047e-01	2.92193737e-01	2.77428434e-02	3.23554890e-01	-2.68069203e-01	2.77428434e-02	-2.77428434e-02	-3.61831030e-03	-5.88005783e-01
121             	5.54877825e-02	7.06718969e-18	-5.92995348e-01	2.96497674e-01	2.92381530e-01	2.77438913e-02	3.24241565e-01	-2.68753783e-01	2.77438913e-02	-2.77438913e-02	-4.11614383e-03	-5.88879204e-01
122             	5.54888754e-02	7.06725263e-18	-5.94375555e-01	2.97187777e-01	2.92573115e-01	2.77444377e-02	3.24932215e-01	-2.69443340e-01	2.77444377e-02	-2.77444377e-02	-4.61466278e-03	-5.89760892e-01
123             	5.54887113e-02	7.06731750e-18	-5.95770798e-01	2.97885399e-01	2.92772569e-01	2.77443557e-02	3.25629755e-01	-2.70141044e-01	2.77443557e-02	-2.77443557e-02	-5.11283043e-03	-5.90657968e-01
124             	5.54886693e-02	7.06738315e-18	-5.97192630e-01	2.98596315e-01	2.92983619e-01	2.77443347e-02	3.26340650e-01	-2.70851980e-01	2.77443347e-02	-2.77443347e-02	-5.61269613e-03	-5.91579934e-01
125             	5.54883612e-02	7.06744942e-18	-5.98630931e-01	2.99315466e-01	2.93201179e-01	2.77441806e-02	3.27059646e-01	-2.71571285e-01	2.77441806e-02	-2.77441806e-02	-6.11428648e-03	-5.92516645e-01
126             	5.54873455e-02	7.06751472e-18	-6.00070654e-01	3.00035327e-01	2.93419613e-01	2.77436728e-02	3.27779000e-01	-2.72291654e-01	2.77436728e-02	-2.77436728e-02	-6.61571340e-03	-5.93454940e-01
127             	5.54842237e-02	7.06757969e-18	-6.01509555e-01	3.00754778e-01	2.93636460e-01	2.77421118e-02	3.28496889e-01	-2.73012666e-01	2.77421118e-02	-2.77421118e-02	-7.11831770e-03	-5.94391237e-01
128             	5.54787104e-02	7.06764426e-18	-6.02947885e-01	3.01473943e-01	2.93853957e-01	2.77393552e-02	3.29213298e-01	-2.73734587e-01	2.77393552e-02	-2.77393552e-02	-7.61998523e-03	-5.95327900e-01
129             	5.54697549e-02	7.06770871e-18	-6.04373636e-01	3.02186818e-01	2.94067757e-01	2.77348775e-02	3.29921695e-01	-2.74451940e-01	2.77348775e-02	-2.77348775e-02	-8.11906035e-03	-5.96254575e-01
130             	5.54597706e-02	7.06777105e-18	-6.05808527e-01	3.02904263e-01	2.94283693e-01	2.77298853e-02	3.30634149e-01	-2.75174378e-01	2.77298853e-02	-2.77298853e-02	-8.62057011e-03	-5.97187957e-01
131             	5.54480914e-02	7.06783248e-18	-6.07241864e-01	3.03620932e-01	2.94501061e-01	2.77240457e-02	3.31344978e-01	-2.75896886e-01	2.77240457e-02	-2.77240457e-02	-9.11987138e-03	-5.98121993e-01
132             	5.54338476e-02	7.06789467e-18	-6.08670527e-01	3.04335264e-01	2.94721009e-01	2.77169238e-02	3.32052188e-01	-2.76618340e-01	2.77169238e-02	-2.77169238e-02	-9.61425497e-03	-5.99056272e-01
133             	5.54168213e-02	7.06795662e-18	-6.10090137e-01	3.05045068e-01	2.94941243e-01	2.77084107e-02	3.32753479e-01	-2.77336658e-01	2.77084107e-02	-2.77084107e-02	-1.01038254e-02	-5.99986311e-01
134             	5.53991770e-02	7.06801783e-18	-6.11522934e-01	3.05761467e-01	2.95170094e-01	2.76995885e-02	3.33461056e-01	-2.78061879e-01	2.76995885e-02	-2.76995885e-02	-1.05913731e-02	-6.00931561e-01
135             	5.53805697e-02	7.06807773e-18	-6.12950599e-01	3.06475300e-01	2.95401142e-01	2.76902848e-02	3.34165584e-01	-2.78785015e-01	2.76902848e-02	-2.76902848e-02	-1.10741577e-02	-6.01876442e-01
136             	5.53594804e-02	7.06813667e-18	-6.14370384e-01	3.07185192e-01	2.95631158e-01	2.76797402e-02	3.34864932e-01	-2.79505452e-01	2.76797402e-02	-2.76797402e-02	-1.15540343e-02	-6.02816349e-01
137             	5.53355491e-02	7.06819434e-18	-6.15777401e-01	3.07888700e-01	2.95859120e-01	2.76677745e-02	3.35556475e-01	-2.80220926e-01	2.76677745e-02	-2.76677745e-02	-1.20295801e-02	-6.03747821e-01
138             	5.53090361e-02	7.06825048e-18	-6.17169559e-01	3.08584780e-01	2.96085337e-01	2.76545180e-02	3.36239298e-01	-2.80930262e-01	2.76545180e-02	-2.76545180e-02	-1.24994426e-02	-6.04670117e-01
139             	5.52810349e-02	7.06830325e-18	-6.18553526e-01	3.09276763e-01	2.96308507e-01	2.76405175e-02	3.36917281e-01	-2.81636246e-01	2.76405175e-02	-2.76405175e-02	-1.29682559e-02	-6.05585270e-01
140             	5.52523140e-02	7.06835373e-18	-6.19918012e-01	3.09959006e-01	2.96527398e-01	2.76261570e-02	3.37585163e-01	-2.82332849e-01	2.76261570e-02	-2.76261570e-02	-1.34316083e-02	-6.06486404e-01
141             	5.52209465e-02	7.06840286e-18	-6.21268056e-01	3.10634028e-01	2.96747189e-01	2.76104732e-02	3.38244501e-01	-2.83023555e-01	2.76104732e-02	-2.76104732e-02	-1.38868393e-02	-6.07381217e-01
142             	5.51890779e-02	7.06844787e-18	-6.22626624e-01	3.11313312e-01	2.96975622e-01	2.75945389e-02	3.38907851e-01	-2.83718773e-01	2.75945389e-02	-2.75945389e-02	-1.43376897e-02	-6.08288935e-01
143             	5.51565656e-02	7.06849020e-18	-6.23980955e-01	3.11990478e-01	2.97208168e-01	2.75782828e-02	3.39568761e-01	-2.84412195e-01	2.75782828e-02	-2.75782828e-02	-1.47823100e-02	-6.09198645e-01
144             	5.51218060e-02	7.06852966e-18	-6.25304569e-01	3.12652285e-01	2.97431890e-01	2.75609030e-02	3.40213188e-01	-2.85091382e-01	2.75609030e-02	-2.75609030e-02	-1.52203952e-02	-6.10084174e-01
145             	5.50882033e-02	7.06856424e-18	-6.26625195e-01	3.13312598e-01	2.97660216e-01	2.75441017e-02	3.40856699e-01	-2.85768496e-01	2.75441017e-02	-2.75441017e-02	-1.56523819e-02	-6.10972813e-01