/*--------------------------------*- C++ -*----------------------------------*\
| =========                 |                                                 |
| \\      /  F ield         | OpenFOAM: The Open Source CFD Toolbox           |
|  \\    /   O peration     | Version:  v2006                                 |
|   \\  /    A nd           | Website:  www.openfoam.com                      |
|    \\/     M anipulation  |                                                 |
\*---------------------------------------------------------------------------*/
FoamFile
{
    version     2.0;
    format      ascii;
    class       volScalarField;
    location    "3500";
    object      alphat;
}
// * * * * * * * * * * * * * * * * * * * * * * * * * * * * * * * * * * * * * //

dimensions      [1 -1 -1 0 0 0 0];


internalField   nonuniform List<scalar> 
19765
(
9.781295e-06
9.778254e-06
9.4910798e-06
9.5477728e-06
9.5490775e-06
9.7080679e-06
9.626321e-06
9.802756e-06
9.7750057e-06
9.5870432e-06
9.6929727e-06
1.0074701e-05
1.0298387e-05
1.049164e-05
1.0896907e-05
1.1068607e-05
1.102126e-05
1.1177135e-05
1.1595347e-05
1.1961265e-05
1.2207907e-05
1.2331788e-05
1.2551244e-05
1.2687802e-05
1.277808e-05
1.2832459e-05
1.2859439e-05
1.2797522e-05
1.2816106e-05
1.269826e-05
1.2468324e-05
1.2174638e-05
1.22063e-05
1.2350314e-05
1.2206262e-05
1.1867743e-05
1.1851774e-05
1.1786191e-05
1.1508785e-05
1.1598309e-05
1.1968482e-05
1.2117346e-05
1.2078212e-05
1.2385694e-05
1.2279905e-05
1.2513595e-05
1.2524445e-05
1.2500641e-05
1.2376136e-05
5.4256277e-05
5.6896994e-05
5.9121657e-05
6.0920373e-05
6.3092532e-05
6.5315203e-05
6.7556791e-05
6.9795214e-05
7.2103843e-05
7.4133754e-05
7.6525659e-05
7.9126715e-05
8.1362568e-05
8.3361102e-05
8.5412645e-05
8.6669748e-05
8.6981717e-05
8.7584264e-05
8.8835201e-05
9.0338692e-05
9.1772227e-05
9.2736196e-05
9.3559732e-05
9.4613021e-05
9.5641959e-05
9.6147174e-05
9.6369475e-05
9.6672538e-05
9.6894397e-05
9.6916276e-05
9.6823034e-05
9.666215e-05
9.665066e-05
9.64853e-05
9.5824197e-05
9.4872162e-05
9.4030407e-05
9.2895278e-05
9.147709e-05
9.0429312e-05
8.9508791e-05
8.7470049e-05
8.5297744e-05
8.1641416e-05
7.9038109e-05
7.2891831e-05
6.6048178e-05
5.922466e-05
5.4126661e-05
1.6004385e-05
1.5334849e-05
1.4860377e-05
1.5105455e-05
1.5228252e-05
1.5346159e-05
1.5283492e-05
1.5448884e-05
1.535325e-05
1.550225e-05
1.5746078e-05
1.5786008e-05
1.5620124e-05
1.5453304e-05
1.5165724e-05
1.4721903e-05
1.4366764e-05
1.4127266e-05
1.3945219e-05
1.3797555e-05
1.3740256e-05
1.3793592e-05
1.3817247e-05
1.3875728e-05
1.4172095e-05
1.4720948e-05
1.5227559e-05
1.5743001e-05
1.648229e-05
1.7273727e-05
1.8041123e-05
1.8753456e-05
1.9392029e-05
2.0386815e-05
2.1628374e-05
2.2663678e-05
2.3469843e-05
2.4530676e-05
2.5346522e-05
2.576504e-05
2.6480593e-05
2.772418e-05
2.8361698e-05
2.9536113e-05
3.0317686e-05
3.2525657e-05
3.5395785e-05
3.877311e-05
4.1115669e-05
6.2554031e-07
5.5996727e-07
5.2206124e-07
5.1668587e-07
5.0926737e-07
5.0255539e-07
4.9112155e-07
4.8722163e-07
4.7621687e-07
4.7129143e-07
4.6865439e-07
4.6065954e-07
4.4766543e-07
4.3578839e-07
4.2265337e-07
4.0733913e-07
3.9577147e-07
3.8820189e-07
3.818613e-07
3.756999e-07
3.7308457e-07
3.7524255e-07
3.7617747e-07
3.7819293e-07
3.8637384e-07
4.0174791e-07
4.1785693e-07
4.3589663e-07
4.6114887e-07
4.901823e-07
5.2150522e-07
5.5419568e-07
5.8791027e-07
6.3567546e-07
6.9649194e-07
7.5729375e-07
8.1732106e-07
8.9320614e-07
9.6551907e-07
1.0283185e-06
1.1132173e-06
1.2341729e-06
1.3417821e-06
1.5086864e-06
1.6709201e-06
1.9047353e-06
2.189646e-06
2.5522338e-06
2.9811459e-06
1.6361472e-07
1.6311696e-07
1.6340801e-07
1.6534289e-07
1.6704927e-07
1.6867449e-07
1.6976044e-07
1.7135523e-07
1.7219129e-07
1.7351584e-07
1.7514015e-07
1.7627076e-07
1.7689294e-07
1.7762617e-07
1.781289e-07
1.7822259e-07
1.7864557e-07
1.7950355e-07
1.8024445e-07
1.8086259e-07
1.8185182e-07
1.8321562e-07
1.8447526e-07
1.859182e-07
1.8802773e-07
1.9101447e-07
1.941244e-07
1.9737299e-07
2.013223e-07
2.0551833e-07
2.0972637e-07
2.1382274e-07
2.1765491e-07
2.2242427e-07
2.2785919e-07
2.3267314e-07
2.3679707e-07
2.4152724e-07
2.4541837e-07
2.4820334e-07
2.519198e-07
2.567926e-07
2.6029416e-07
2.6574413e-07
2.7027133e-07
2.7637998e-07
2.8233018e-07
2.8682072e-07
2.9113203e-07
1.415291e-07
1.4168651e-07
1.4218485e-07
1.4335934e-07
1.4427387e-07
1.4519322e-07
1.4590512e-07
1.4682407e-07
1.4740166e-07
1.4828273e-07
1.4913115e-07
1.4970144e-07
1.5010559e-07
1.5055584e-07
1.5088047e-07
1.5113172e-07
1.5162082e-07
1.5229301e-07
1.5291331e-07
1.5352864e-07
1.5427979e-07
1.5514729e-07
1.5618625e-07
1.5742295e-07
1.5898649e-07
1.6103816e-07
1.6325899e-07
1.6556421e-07
1.682238e-07
1.7110432e-07
1.7407061e-07
1.770793e-07
1.7993439e-07
1.8308743e-07
1.8663683e-07
1.9015284e-07
1.9327266e-07
1.9654318e-07
1.9965229e-07
2.0217635e-07
2.0463241e-07
2.0786985e-07
2.1046073e-07
2.1389231e-07
2.17039e-07
2.2082807e-07
2.2492485e-07
2.2936076e-07
2.3325365e-07
1.244143e-07
1.2435461e-07
1.2449392e-07
1.2503574e-07
1.2545112e-07
1.2588283e-07
1.2621694e-07
1.2668442e-07
1.269795e-07
1.2745834e-07
1.2794305e-07
1.2828364e-07
1.2853992e-07
1.2883246e-07
1.2906232e-07
1.2925447e-07
1.2959588e-07
1.300672e-07
1.3053258e-07
1.3101573e-07
1.3158159e-07
1.322161e-07
1.3295546e-07
1.3384046e-07
1.3494258e-07
1.3634034e-07
1.378441e-07
1.3942625e-07
1.4124533e-07
1.4321426e-07
1.4525756e-07
1.4734331e-07
1.4936615e-07
1.5159069e-07
1.5406106e-07
1.5651529e-07
1.5875885e-07
1.6110271e-07
1.6335762e-07
1.6528248e-07
1.6719525e-07
1.6953312e-07
1.7150957e-07
1.7393037e-07
1.7617259e-07
1.787259e-07
1.8138609e-07
1.8417226e-07
1.8669077e-07
1.1540945e-07
1.1536513e-07
1.1544018e-07
1.1575918e-07
1.160006e-07
1.1625092e-07
1.1644276e-07
1.1671184e-07
1.1688164e-07
1.1715985e-07
1.1744267e-07
1.1764773e-07
1.1781165e-07
1.1800341e-07
1.1816887e-07
1.1832585e-07
1.1858003e-07
1.1891953e-07
1.1927085e-07
1.1965228e-07
1.2009956e-07
1.2060203e-07
1.2119727e-07
1.2190381e-07
1.22756e-07
1.2380247e-07
1.2493476e-07
1.2613776e-07
1.2750702e-07
1.2899177e-07
1.3054605e-07
1.3214978e-07
1.3373707e-07
1.3546606e-07
1.37368e-07
1.3928507e-07
1.410911e-07
1.4297238e-07
1.44817e-07
1.4646983e-07
1.4811747e-07
1.5005017e-07
1.5177487e-07
1.5380362e-07
1.5575282e-07
1.5794056e-07
1.6025257e-07
1.6271382e-07
1.6505411e-07
1.0897629e-07
1.0891453e-07
1.0892895e-07
1.0910079e-07
1.0922788e-07
1.0936415e-07
1.09468e-07
1.0962286e-07
1.097207e-07
1.0988876e-07
1.1006363e-07
1.1019599e-07
1.1030886e-07
1.1044407e-07
1.105693e-07
1.1069669e-07
1.1089103e-07
1.1114537e-07
1.1141602e-07
1.1171494e-07
1.1206179e-07
1.1244801e-07
1.1289862e-07
1.1343259e-07
1.1407161e-07
1.1484321e-07
1.1568045e-07
1.1657628e-07
1.1759063e-07
1.1869151e-07
1.1985106e-07
1.210561e-07
1.2226561e-07
1.2357745e-07
1.2500973e-07
1.264616e-07
1.2785404e-07
1.2930222e-07
1.3073389e-07
1.3204876e-07
1.3336586e-07
1.348621e-07
1.362268e-07
1.3777875e-07
1.3927406e-07
1.4090991e-07
1.4260925e-07
1.4438279e-07
1.4605481e-07
1.0475744e-07
1.0471073e-07
1.047115e-07
1.0481471e-07
1.0488854e-07
1.0496861e-07
1.050286e-07
1.0512198e-07
1.0518076e-07
1.0528605e-07
1.053976e-07
1.0548545e-07
1.055649e-07
1.0566227e-07
1.0575793e-07
1.0586067e-07
1.060113e-07
1.0620552e-07
1.0641695e-07
1.0665411e-07
1.0692983e-07
1.072388e-07
1.0759669e-07
1.0801756e-07
1.0851642e-07
1.0911006e-07
1.0975605e-07
1.1045106e-07
1.1123503e-07
1.120878e-07
1.1299143e-07
1.1393721e-07
1.1489788e-07
1.1593736e-07
1.1706866e-07
1.1822537e-07
1.1935334e-07
1.2052772e-07
1.2170086e-07
1.2280326e-07
1.2391152e-07
1.2514883e-07
1.2630417e-07
1.2759497e-07
1.2885746e-07
1.3022867e-07
1.3165988e-07
1.3316651e-07
1.3461511e-07
1.017478e-07
1.0171065e-07
1.0170475e-07
1.0176832e-07
1.0181287e-07
1.0186232e-07
1.0189946e-07
1.0195957e-07
1.0199841e-07
1.0206936e-07
1.0214613e-07
1.0220977e-07
1.022707e-07
1.0234606e-07
1.0242343e-07
1.0250915e-07
1.0262988e-07
1.0278292e-07
1.0295167e-07
1.0314197e-07
1.0336232e-07
1.0360933e-07
1.0389272e-07
1.042233e-07
1.0461278e-07
1.0507151e-07
1.0557157e-07
1.0611173e-07
1.0671918e-07
1.0738069e-07
1.0808446e-07
1.0882461e-07
1.0958297e-07
1.1040223e-07
1.1129119e-07
1.1220468e-07
1.1310571e-07
1.1404393e-07
1.1498645e-07
1.1588451e-07
1.1678959e-07
1.1778338e-07
1.1872238e-07
1.1975222e-07
1.2076118e-07
1.2184081e-07
1.2295675e-07
1.241182e-07
1.2522988e-07
9.9591667e-08
9.956733e-08
9.9563098e-08
9.9606422e-08
9.9636693e-08
9.9670589e-08
9.9696646e-08
9.9738746e-08
9.9767519e-08
9.981899e-08
9.9875563e-08
9.9925084e-08
9.9974836e-08
1.0003626e-07
1.0010134e-07
1.0017475e-07
1.0027427e-07
1.0039814e-07
1.0053571e-07
1.0069112e-07
1.0087017e-07
1.0107106e-07
1.0129983e-07
1.0156413e-07
1.0187344e-07
1.022345e-07
1.0262847e-07
1.030553e-07
1.0353413e-07
1.0405606e-07
1.0461314e-07
1.0520163e-07
1.0580941e-07
1.0646613e-07
1.0717831e-07
1.0791455e-07
1.0864836e-07
1.0941367e-07
1.1018734e-07
1.1093396e-07
1.1168838e-07
1.1250915e-07
1.1329406e-07
1.1414644e-07
1.1498729e-07
1.1588241e-07
1.1680822e-07
1.1777448e-07
1.1870608e-07
9.8004299e-08
9.7990066e-08
9.7989128e-08
9.8021582e-08
9.8045087e-08
9.8071438e-08
9.8092858e-08
9.8125844e-08
9.8150493e-08
9.8191628e-08
9.8237253e-08
9.8279391e-08
9.8323211e-08
9.8376504e-08
9.843395e-08
9.8499003e-08
9.8583748e-08
9.8686995e-08
9.8801754e-08
9.8930911e-08
9.907849e-08
9.924358e-08
9.9429972e-08
9.964303e-08
9.9890547e-08
1.0017697e-07
1.0048942e-07
1.0082852e-07
1.0120777e-07
1.0162085e-07
1.0206256e-07
1.0253104e-07
1.0301837e-07
1.0354536e-07
1.0411654e-07
1.0470944e-07
1.0530485e-07
1.0592612e-07
1.0655656e-07
1.0717016e-07
1.077911e-07
1.0846038e-07
1.0910489e-07
1.0979722e-07
1.1048084e-07
1.1120189e-07
1.1194304e-07
1.1271119e-07
1.1344921e-07
9.6817827e-08
9.6812909e-08
9.6816636e-08
9.684405e-08
9.6865207e-08
9.6888643e-08
9.690902e-08
9.6937929e-08
9.6961703e-08
9.6997715e-08
9.7037674e-08
9.7076286e-08
9.7117259e-08
9.7165959e-08
9.7218797e-08
9.7278305e-08
9.7352786e-08
9.7441399e-08
9.753945e-08
9.7648959e-08
9.7772728e-08
9.7910332e-08
9.8064165e-08
9.8237994e-08
9.8438157e-08
9.8667656e-08
9.8917638e-08
9.9189117e-08
9.949136e-08
9.9819876e-08
1.0017208e-07
1.0054773e-07
1.0094146e-07
1.0136769e-07
1.0182943e-07
1.0231033e-07
1.0279625e-07
1.0330373e-07
1.038207e-07
1.0432778e-07
1.0484193e-07
1.0539314e-07
1.0592765e-07
1.0649832e-07
1.0706371e-07
1.0765764e-07
1.0826744e-07
1.0889948e-07
1.0950759e-07
9.5918927e-08
9.5921579e-08
9.5929915e-08
9.5955371e-08
9.5976497e-08
9.5999557e-08
9.6020851e-08
9.604864e-08
9.6073422e-08
9.6107512e-08
9.614512e-08
9.6182685e-08
9.6222875e-08
9.6269408e-08
9.6319809e-08
9.6375905e-08
9.6443424e-08
9.6521728e-08
9.6607588e-08
9.670238e-08
9.6808036e-08
9.6924356e-08
9.705283e-08
9.7196104e-08
9.7359302e-08
9.7544472e-08
9.7745538e-08
9.7963628e-08
9.8204503e-08
9.8465742e-08
9.8747403e-08
9.9049909e-08
9.9368664e-08
9.9713304e-08
1.0008584e-07
1.0047452e-07
1.0086907e-07
1.0128147e-07
1.0170291e-07
1.0211882e-07
1.0254126e-07
1.0299192e-07
1.0343103e-07
1.0389686e-07
1.0435873e-07
1.0484108e-07
1.0533422e-07
1.0584304e-07
1.0633087e-07
9.5229429e-08
9.523864e-08
9.5251544e-08
9.5276973e-08
9.5299453e-08
9.5323651e-08
9.5346994e-08
9.5375437e-08
9.5402324e-08
9.5436462e-08
9.5473781e-08
9.5511868e-08
9.555263e-08
9.5598644e-08
9.5648158e-08
9.570245e-08
9.576545e-08
9.5836633e-08
9.5913707e-08
9.5997559e-08
9.6089485e-08
9.6189362e-08
9.629808e-08
9.6417489e-08
9.6551692e-08
9.6702106e-08
9.6864602e-08
9.7040125e-08
9.7231497e-08
9.7439657e-08
9.76665e-08
9.7911163e-08
9.8168858e-08
9.8446395e-08
9.8745782e-08
9.9058868e-08
9.9378285e-08
9.9712869e-08
1.0005613e-07
1.00397e-07
1.0074403e-07
1.0111326e-07
1.0147477e-07
1.0185683e-07
1.022364e-07
1.0263154e-07
1.0303486e-07
1.0345059e-07
1.0384865e-07
9.4696091e-08
9.4710796e-08
9.4727926e-08
9.4754387e-08
9.4778944e-08
9.4805117e-08
9.4831113e-08
9.4861269e-08
9.4890895e-08
9.4926324e-08
9.4964689e-08
9.5004337e-08
9.5046615e-08
9.5093281e-08
9.5143059e-08
9.5196793e-08
9.5257123e-08
9.5323578e-08
9.539447e-08
9.5470295e-08
9.5551867e-08
9.5639058e-08
9.5732334e-08
9.5832976e-08
9.5944233e-08
9.6067096e-08
9.6198796e-08
9.6339768e-08
9.649067e-08
9.6657718e-08
9.684157e-08
9.7038329e-08
9.7244145e-08
9.7465181e-08
9.770376e-08
9.7954236e-08
9.8211239e-08
9.8481247e-08
9.8759379e-08
9.9037132e-08
9.9320577e-08
9.9621457e-08
9.9917179e-08
1.0022855e-07
1.0053813e-07
1.0085916e-07
1.0118586e-07
1.0152159e-07
1.0184186e-07
9.4280134e-08
9.4299626e-08
9.4320731e-08
9.4348912e-08
9.4375992e-08
9.4404662e-08
9.4433681e-08
9.4466227e-08
9.4498994e-08
9.4536542e-08
9.4576853e-08
9.4618789e-08
9.4663267e-08
9.4711455e-08
9.4762384e-08
9.4816545e-08
9.487564e-08
9.4939209e-08
9.5005943e-08
9.5076027e-08
9.514989e-08
9.5227354e-08
9.5308575e-08
9.5394429e-08
9.5487436e-08
9.5588299e-08
9.569518e-08
9.5807738e-08
9.5925784e-08
9.6062033e-08
9.6210396e-08
9.636524e-08
9.6526836e-08
9.6701017e-08
9.6889689e-08
9.7088806e-08
9.7294419e-08
9.7511265e-08
9.773562e-08
9.7960903e-08
9.8191398e-08
9.8435799e-08
9.8676923e-08
9.8930236e-08
9.9182467e-08
9.9443446e-08
9.9708613e-08
9.9980846e-08
1.0023984e-07
9.3954171e-08
9.3977841e-08
9.4002643e-08
9.4032939e-08
9.4062785e-08
9.4094257e-08
9.4126506e-08
9.4161878e-08
9.4198044e-08
9.4238277e-08
9.4281168e-08
9.4325921e-08
9.4373124e-08
9.4423504e-08
9.4476291e-08
9.4531683e-08
9.4590681e-08
9.4652806e-08
9.4716985e-08
9.478314e-08
9.4851393e-08
9.4921476e-08
9.4993315e-08
9.5067499e-08
9.5145919e-08
9.5229082e-08
9.5315739e-08
9.5404823e-08
9.5497292e-08
9.5609641e-08
9.5725491e-08
9.5843445e-08
9.5969074e-08
9.6104789e-08
9.6252299e-08
9.6409025e-08
9.6572007e-08
9.6744587e-08
9.6923866e-08
9.7104755e-08
9.7290303e-08
9.7486967e-08
9.7681656e-08
9.7885883e-08
9.8089481e-08
9.829972e-08
9.8512951e-08
9.8731523e-08
9.8938634e-08
9.3697739e-08
9.3725171e-08
9.3753476e-08
9.3786167e-08
9.3818947e-08
9.3853435e-08
9.3889066e-08
9.3927577e-08
9.3967339e-08
9.4010681e-08
9.4056628e-08
9.4104617e-08
9.4154975e-08
9.4208094e-08
9.4263325e-08
9.4320621e-08
9.4380447e-08
9.4442286e-08
9.4505199e-08
9.4568885e-08
9.4633211e-08
9.4697795e-08
9.4762389e-08
9.4827368e-08
9.4894092e-08
9.4962924e-08
9.5032959e-08
9.5103372e-08
9.517911e-08
9.5265398e-08
9.5350643e-08
9.5440273e-08
9.5537543e-08
9.5640725e-08
9.5754283e-08
9.5876062e-08
9.6003392e-08
9.6138606e-08
9.6279596e-08
9.642256e-08
9.6569744e-08
9.6726001e-08
9.688133e-08
9.704435e-08
9.7207223e-08
9.7375357e-08
9.7545802e-08
9.7720537e-08
9.788551e-08
9.3495893e-08
9.3526766e-08
9.3558416e-08
9.3593688e-08
9.3629516e-08
9.3667174e-08
9.3706303e-08
9.3748192e-08
9.3791716e-08
9.3838499e-08
9.3887884e-08
9.3939459e-08
9.3993343e-08
9.4049665e-08
9.4107844e-08
9.4167625e-08
9.422905e-08
9.429155e-08
9.4354253e-08
9.441666e-08
9.4478423e-08
9.4539036e-08
9.4598108e-08
9.4655844e-08
9.4713175e-08
9.4770335e-08
9.482668e-08
9.4885353e-08
9.496092e-08
9.5021018e-08
9.5069306e-08
9.5134069e-08
9.5204114e-08
9.5281614e-08
9.5367883e-08
9.5460035e-08
9.555643e-08
9.5659235e-08
9.5767151e-08
9.5877399e-08
9.5991625e-08
9.6113433e-08
9.6235154e-08
9.6363213e-08
9.6491532e-08
9.6624102e-08
9.6758512e-08
9.6896386e-08
9.7025982e-08
9.3337289e-08
9.3371393e-08
9.3406293e-08
9.3444305e-08
9.3483287e-08
9.3524252e-08
9.3566996e-08
9.3612469e-08
9.3659915e-08
9.3710428e-08
9.3763579e-08
9.3819055e-08
9.3876801e-08
9.3936738e-08
9.3998315e-08
9.4061093e-08
9.4124777e-08
9.4188733e-08
9.4252105e-08
9.4314219e-08
9.437454e-08
9.4432431e-08
9.4487383e-08
9.4539453e-08
9.4589237e-08
9.4636842e-08
9.4682096e-08
9.4725305e-08
9.4767144e-08
9.4809482e-08
9.4860265e-08
9.4905804e-08
9.4955901e-08
9.5010924e-08
9.5071324e-08
9.5136467e-08
9.5205618e-08
9.5280486e-08
9.5360117e-08
9.5442395e-08
9.5528466e-08
9.5620984e-08
9.5714077e-08
9.581253e-08
9.5911626e-08
9.601431e-08
9.6118597e-08
9.6225844e-08
9.6326197e-08
9.3213433e-08
9.3250631e-08
9.3288728e-08
9.3329614e-08
9.3371852e-08
9.3416257e-08
9.3462734e-08
9.3511985e-08
9.3563518e-08
9.3618025e-08
9.3675241e-08
9.3734912e-08
9.3796839e-08
9.3860771e-08
9.3926159e-08
9.3992398e-08
9.4058917e-08
9.4125009e-08
9.4189796e-08
9.4252447e-08
9.4312257e-08
9.4368462e-08
9.4420439e-08
9.4468125e-08
9.4511845e-08
9.4551606e-08
9.4587366e-08
9.4619862e-08
9.4652336e-08
9.4663981e-08
9.4703664e-08
9.4738261e-08
9.477085e-08
9.480538e-08
9.4843932e-08
9.4886532e-08
9.4932747e-08
9.4983875e-08
9.5039286e-08
9.5097449e-08
9.51592e-08
9.5226512e-08
9.5294924e-08
9.5367988e-08
9.5442047e-08
9.5519251e-08
9.5597957e-08
9.5679281e-08
9.5754951e-08
9.3117812e-08
9.3158034e-08
9.3199322e-08
9.3243218e-08
9.3288829e-08
9.3336813e-08
9.338716e-08
9.3440381e-08
9.3496179e-08
9.3554936e-08
9.3616504e-08
9.3680659e-08
9.3747079e-08
9.3815365e-08
9.3884952e-08
9.3955083e-08
9.4024954e-08
9.4093774e-08
9.4160623e-08
9.4224518e-08
9.42846e-08
9.4339983e-08
9.4389933e-08
9.4434282e-08
9.4473142e-08
9.4506416e-08
9.4534232e-08
9.4557406e-08
9.4576385e-08
9.4596279e-08
9.4611162e-08
9.4624745e-08
9.4639096e-08
9.4655766e-08
9.467565e-08
9.4698738e-08
9.4724886e-08
9.47552e-08
9.4789385e-08
9.4826407e-08
9.4866893e-08
9.4912305e-08
9.4959281e-08
9.5010442e-08
9.5062951e-08
9.5118365e-08
9.517531e-08
9.5234708e-08
9.52896e-08
9.3045476e-08
9.3088702e-08
9.3133212e-08
9.3180259e-08
9.322937e-08
9.3281084e-08
9.3335454e-08
9.3392846e-08
9.3453104e-08
9.3516367e-08
9.358257e-08
9.3651499e-08
9.3722721e-08
9.3795713e-08
9.386987e-08
9.3944301e-08
9.4017994e-08
9.4090072e-08
9.415955e-08
9.4225302e-08
9.4286327e-08
9.4341614e-08
9.4390328e-08
9.4432203e-08
9.4467179e-08
9.449507e-08
9.4516122e-08
9.4531084e-08
9.4541173e-08
9.4546599e-08
9.4549437e-08
9.4550849e-08
9.4551634e-08
9.4553122e-08
9.4556473e-08
9.4562177e-08
9.4570479e-08
9.4582383e-08
9.4597848e-08
9.4616232e-08
9.4638012e-08
9.4664264e-08
9.4692486e-08
9.4724594e-08
9.4758392e-08
9.4794985e-08
9.483322e-08
9.4873841e-08
9.4911006e-08
9.2992617e-08
9.3038875e-08
9.3086672e-08
9.3137019e-08
9.3189777e-08
9.3245389e-08
9.3303957e-08
9.3365732e-08
9.3430663e-08
9.3498696e-08
9.3569822e-08
9.364382e-08
9.3720159e-08
9.37982e-08
9.3877294e-08
9.3956413e-08
9.4034369e-08
9.4110184e-08
9.4182799e-08
9.4250949e-08
9.4313495e-08
9.4369307e-08
9.4417449e-08
9.4457567e-08
9.4489459e-08
9.4512855e-08
9.4528094e-08
9.4535967e-08
9.4537393e-08
9.4533589e-08
9.4525681e-08
9.451492e-08
9.4502533e-08
9.448993e-08
9.4478335e-08
9.4468486e-08
9.4460862e-08
9.4456374e-08
9.4455191e-08
9.4456992e-08
9.4462157e-08
9.4471482e-08
9.4483145e-08
9.449853e-08
9.4515946e-08
9.4536157e-08
9.455819e-08
9.4582639e-08
9.4604604e-08
9.2956336e-08
9.3005686e-08
9.3056865e-08
9.3110677e-08
9.3167246e-08
9.3226942e-08
9.3289901e-08
9.3356286e-08
9.3426122e-08
9.3499201e-08
9.3575543e-08
9.3654916e-08
9.3736692e-08
9.382013e-08
9.390452e-08
9.3988709e-08
9.4071342e-08
9.4151341e-08
9.4227555e-08
9.4298585e-08
9.436316e-08
9.4420031e-08
9.4468164e-08
9.4507123e-08
9.4536586e-08
9.4556208e-08
9.4566407e-08
9.4567981e-08
9.4561861e-08
9.4549192e-08
9.4531325e-08
9.4509656e-08
9.4485529e-08
9.4460305e-08
9.4435262e-08
9.4411373e-08
9.4389348e-08
9.4370063e-08
9.4353877e-08
9.4340738e-08
9.4330973e-08
9.4325172e-08
9.4322055e-08
9.43226e-08
9.4325517e-08
9.4331311e-08
9.4339155e-08
9.4349511e-08
9.4358282e-08
9.2934422e-08
9.2986959e-08
9.3041644e-08
9.30991e-08
9.3159663e-08
9.3223645e-08
9.3291211e-08
9.3362451e-08
9.3437445e-08
9.3515855e-08
9.3597722e-08
9.3682785e-08
9.3770329e-08
9.3859514e-08
9.3949561e-08
9.4039195e-08
9.4126904e-08
9.4211505e-08
9.4291745e-08
9.4366093e-08
9.4433149e-08
9.4491545e-08
9.4540152e-08
9.4578454e-08
9.4606028e-08
9.4622462e-08
9.4628237e-08
9.4624175e-08
9.4611181e-08
9.4590508e-08
9.4563591e-08
9.4531907e-08
9.4496936e-08
9.4460056e-08
9.4422633e-08
9.4385846e-08
9.435061e-08
9.4317792e-08
9.4287917e-08
9.4261163e-08
9.4237828e-08
9.4218355e-08
9.42019e-08
9.4189132e-08
9.4179082e-08
9.4172056e-08
9.4167349e-08
9.4165306e-08
9.4162519e-08
9.2925226e-08
9.2981069e-08
9.3039408e-08
9.3100701e-08
9.3165463e-08
9.3233953e-08
9.3306361e-08
9.3382719e-08
9.3463142e-08
9.3547187e-08
9.3634898e-08
9.372598e-08
9.3819635e-08
9.3914923e-08
9.4010993e-08
9.4106444e-08
9.4199619e-08
9.4289219e-08
9.4373887e-08
9.4451957e-08
9.4521899e-08
9.4582232e-08
9.463173e-08
9.46698e-08
9.4695932e-08
9.4709652e-08
9.4711498e-08
9.4702318e-08
9.4683019e-08
9.4654931e-08
9.4619587e-08
9.4578562e-08
9.4533467e-08
9.448572e-08
9.4436774e-08
9.4388e-08
9.4340492e-08
9.4295138e-08
9.4252614e-08
9.4213293e-08
9.417747e-08
9.4145486e-08
9.4116845e-08
9.4091987e-08
9.4070196e-08
9.405163e-08
9.4035683e-08
9.4022595e-08
9.4009554e-08
9.2927538e-08
9.2986832e-08
9.3048997e-08
9.3114339e-08
9.318352e-08
9.3256761e-08
9.3334268e-08
9.3416025e-08
9.3502169e-08
9.3592168e-08
9.3686059e-08
9.3783505e-08
9.3883624e-08
9.3985382e-08
9.4087843e-08
9.4189487e-08
9.4288509e-08
9.4383495e-08
9.4472971e-08
9.4555138e-08
9.4628339e-08
9.4690976e-08
9.474173e-08
9.4779929e-08
9.4804988e-08
9.4816381e-08
9.481469e-08
9.4800799e-08
9.4775628e-08
9.4740587e-08
9.4697306e-08
9.4647456e-08
9.4592779e-08
9.4534752e-08
9.4474928e-08
9.4414852e-08
9.4355788e-08
9.4298663e-08
9.4244291e-08
9.4193219e-08
9.4145754e-08
9.4102169e-08
9.4062255e-08
9.4026274e-08
9.3993719e-08
9.3964634e-08
9.3938494e-08
9.3915447e-08
9.3893198e-08
9.2940515e-08
9.3003429e-08
9.3069612e-08
9.313923e-08
9.3213073e-08
9.3291327e-08
9.337421e-08
9.3461665e-08
9.3553845e-08
9.3650136e-08
9.3750558e-08
9.3854728e-08
9.396168e-08
9.4070284e-08
9.4179516e-08
9.428773e-08
9.4392979e-08
9.4493728e-08
9.4588378e-08
9.4674997e-08
9.47518e-08
9.4817072e-08
9.4869401e-08
9.4908041e-08
9.4932336e-08
9.4941711e-08
9.4936796e-08
9.4918508e-08
9.4887793e-08
9.4846143e-08
9.4795281e-08
9.4736981e-08
9.4673115e-08
9.4605236e-08
9.4535005e-08
9.4464134e-08
9.4394046e-08
9.4325723e-08
9.426011e-08
9.4197905e-08
9.4139445e-08
9.408496e-08
9.4034477e-08
9.3988127e-08
9.3945572e-08
9.3906767e-08
9.387126e-08
9.3839109e-08
9.3808475e-08
9.2963621e-08
9.3030342e-08
9.3100757e-08
9.3174899e-08
9.3253664e-08
9.3337212e-08
9.3425771e-08
9.3519246e-08
9.3617796e-08
9.3720735e-08
9.3828058e-08
9.3939329e-08
9.4053499e-08
9.4169339e-08
9.4285728e-08
9.4400896e-08
9.4512753e-08
9.4619634e-08
9.4719814e-08
9.4811223e-08
9.4891948e-08
9.4960159e-08
9.5014349e-08
9.5053697e-08
9.5077484e-08
9.5085094e-08
9.5077198e-08
9.5054751e-08
9.5018734e-08
9.4970719e-08
9.4912526e-08
9.4846035e-08
9.4773247e-08
9.4695811e-08
9.4615502e-08
9.4534191e-08
9.4453455e-08
9.4374345e-08
9.4297928e-08
9.4225045e-08
9.4156065e-08
9.4091204e-08
9.403068e-08
9.3974531e-08
9.3922557e-08
9.3874646e-08
9.3830406e-08
9.3789816e-08
9.3751438e-08
9.2996581e-08
9.3067317e-08
9.31422e-08
9.3221129e-08
9.3305099e-08
9.3394245e-08
9.3488799e-08
9.3588638e-08
9.3693914e-08
9.3803878e-08
9.3918492e-08
9.4037261e-08
9.4159049e-08
9.4282529e-08
9.4406474e-08
9.4528985e-08
9.4647832e-08
9.4761213e-08
9.486727e-08
9.4963795e-08
9.5048745e-08
9.5120173e-08
9.517648e-08
9.5216768e-08
9.5240261e-08
9.5246308e-08
9.5235618e-08
9.5209187e-08
9.5168038e-08
9.5113824e-08
9.5048459e-08
9.4973937e-08
9.4892392e-08
9.4805579e-08
9.4715399e-08
9.4623878e-08
9.453274e-08
9.4443117e-08
9.4356196e-08
9.4272944e-08
9.4193777e-08
9.4118909e-08
9.4048725e-08
9.398319e-08
9.3922223e-08
9.3865661e-08
9.3813164e-08
9.3764636e-08
9.3719001e-08
9.3039355e-08
9.3114333e-08
9.319394e-08
9.3277941e-08
9.3367419e-08
9.3462486e-08
9.3563381e-08
9.3669947e-08
9.3782331e-08
9.3899719e-08
9.4022033e-08
9.4148717e-08
9.4278543e-08
9.441008e-08
9.4541991e-08
9.4672246e-08
9.4798468e-08
9.4918715e-08
9.5030991e-08
9.5132946e-08
9.5222408e-08
9.5297312e-08
9.5355966e-08
9.5397399e-08
9.5420778e-08
9.5425423e-08
9.541208e-08
9.5381788e-08
9.5335617e-08
9.5275298e-08
9.5202847e-08
9.5120373e-08
9.5030148e-08
9.4934046e-08
9.4834101e-08
9.4732494e-08
9.4631092e-08
9.4531115e-08
9.4433869e-08
9.4340439e-08
9.4251293e-08
9.416666e-08
9.4087063e-08
9.4012421e-08
9.3942752e-08
9.3877855e-08
9.3817436e-08
9.376133e-08
9.3708789e-08
9.3092115e-08
9.3171581e-08
9.325619e-08
9.3345568e-08
9.3440881e-08
9.3542218e-08
9.3649821e-08
9.3763504e-08
9.38834e-08
9.4008634e-08
9.4139082e-08
9.4274117e-08
9.4412419e-08
9.4552448e-08
9.4692749e-08
9.4831157e-08
9.4965143e-08
9.5092623e-08
9.5211454e-08
9.5319146e-08
9.5413393e-08
9.5492015e-08
9.5553225e-08
9.5595981e-08
9.5619397e-08
9.5622767e-08
9.5606875e-08
9.5572802e-08
9.5521669e-08
9.5455287e-08
9.5375772e-08
9.5285356e-08
9.5186456e-08
9.5081076e-08
9.497139e-08
9.485973e-08
9.4748109e-08
9.4637842e-08
9.4530347e-08
9.4426826e-08
9.4327805e-08
9.4233535e-08
9.4144663e-08
9.4061078e-08
9.3982885e-08
9.3909852e-08
9.3841732e-08
9.3778289e-08
9.3719085e-08
9.3155239e-08
9.323946e-08
9.3329372e-08
9.3424454e-08
9.352595e-08
9.363393e-08
9.3748635e-08
9.386985e-08
9.399769e-08
9.4131216e-08
9.4270254e-08
9.4414101e-08
9.4561338e-08
9.4710309e-08
9.4859439e-08
9.5006417e-08
9.5148563e-08
9.5283641e-08
9.540936e-08
9.5523086e-08
9.562238e-08
9.5704946e-08
9.5768904e-08
9.581314e-08
9.5836718e-08
9.5838914e-08
9.5820544e-08
9.5782736e-08
9.5726661e-08
9.5654209e-08
9.5567602e-08
9.54692e-08
9.5361571e-08
9.5246859e-08
9.5127385e-08
9.5005635e-08
9.4883762e-08
9.4763182e-08
9.4645431e-08
9.4531816e-08
9.4422927e-08
9.4319051e-08
9.4220945e-08
9.4128479e-08
9.4041837e-08
9.3960766e-08
9.3885058e-08
9.3814413e-08
9.3748682e-08
9.3229305e-08
9.331857e-08
9.341411e-08
9.3515248e-08
9.3623303e-08
9.3738325e-08
9.3860554e-08
9.3989742e-08
9.4125983e-08
9.4268277e-08
9.4416385e-08
9.4569527e-08
9.4726178e-08
9.4884563e-08
9.5042972e-08
9.5198948e-08
9.5349653e-08
9.5492696e-08
9.5625632e-08
9.5745681e-08
9.585027e-08
9.5936991e-08
9.600387e-08
9.6049724e-08
9.6073569e-08
9.6074668e-08
9.6053867e-08
9.6012341e-08
9.5951312e-08
9.5872749e-08
9.5778982e-08
9.5672506e-08
9.5556046e-08
9.5431898e-08
9.5302534e-08
9.5170592e-08
9.5038366e-08
9.490738e-08
9.4779283e-08
9.4655491e-08
9.4536662e-08
9.4423127e-08
9.4315741e-08
9.4214371e-08
9.4119269e-08
9.4030171e-08
9.3946906e-08
9.3869112e-08
9.379692e-08
9.3315105e-08
9.3409725e-08
9.3511244e-08
9.3618815e-08
9.3733832e-08
9.3856325e-08
9.3986528e-08
9.4124162e-08
9.4269292e-08
9.4420853e-08
9.4578541e-08
9.4741485e-08
9.4908051e-08
9.5076336e-08
9.524449e-08
9.54099e-08
9.5569568e-08
9.572094e-08
9.5861415e-08
9.5988065e-08
9.6098187e-08
9.6189258e-08
9.6259216e-08
9.6306809e-08
9.6331007e-08
9.6331067e-08
9.6307863e-08
9.6262614e-08
9.6196594e-08
9.6111849e-08
9.6010822e-08
9.5896152e-08
9.5770725e-08
9.5636996e-08
9.5497593e-08
9.5355306e-08
9.5212568e-08
9.5071018e-08
9.4932418e-08
9.4798292e-08
9.4669374e-08
9.4546044e-08
9.4429254e-08
9.4318875e-08
9.4215223e-08
9.4118027e-08
9.4027153e-08
9.3942176e-08
9.3863503e-08
9.3413652e-08
9.3513965e-08
9.3621843e-08
9.3736254e-08
9.3858668e-08
9.398909e-08
9.4127749e-08
9.4274332e-08
9.442887e-08
9.4590229e-08
9.4758032e-08
9.493131e-08
9.5108313e-08
9.5287002e-08
9.5465378e-08
9.5640667e-08
9.5809702e-08
9.5969764e-08
9.6118091e-08
9.6251609e-08
9.6367485e-08
9.6463085e-08
9.6536261e-08
9.6585696e-08
9.6610321e-08
9.6609384e-08
9.6583789e-08
9.6534798e-08
9.6463732e-08
9.6372717e-08
9.626431e-08
9.6141302e-08
9.6006747e-08
9.5863264e-08
9.5713638e-08
9.5560808e-08
9.5407349e-08
9.5255016e-08
9.5105691e-08
9.4961007e-08
9.4821777e-08
9.4688447e-08
9.4562056e-08
9.444249e-08
9.4330128e-08
9.4224697e-08
9.4126102e-08
9.403385e-08
9.3948631e-08
9.352621e-08
9.363258e-08
9.374723e-08
9.386892e-08
9.3999199e-08
9.4138044e-08
9.4285678e-08
9.4441747e-08
9.4606244e-08
9.4777962e-08
9.4956443e-08
9.5140612e-08
9.5328594e-08
9.5518207e-08
9.5707292e-08
9.5892907e-08
9.6071713e-08
9.6240818e-08
9.6397298e-08
9.6537935e-08
9.6659766e-08
9.6760055e-08
9.6836571e-08
9.6887936e-08
9.6913044e-08
9.6911141e-08
9.6883157e-08
9.6830393e-08
9.6754218e-08
9.6656831e-08
9.6540916e-08
9.6409416e-08
9.6265561e-08
9.6112132e-08
9.5952071e-08
9.5788467e-08
9.5624032e-08
9.5460645e-08
9.530031e-08
9.5144775e-08
9.4994944e-08
9.4851332e-08
9.4715067e-08
9.4586062e-08
9.4464755e-08
9.4350875e-08
9.4244365e-08
9.4144666e-08
9.4052756e-08
9.3654318e-08
9.3767143e-08
9.3889014e-08
9.4018461e-08
9.4157112e-08
9.4304914e-08
9.4462078e-08
9.4628207e-08
9.4803251e-08
9.4985922e-08
9.5175672e-08
9.5371312e-08
9.5570833e-08
9.57719e-08
9.5972188e-08
9.6168577e-08
9.6357549e-08
9.6536037e-08
9.6700954e-08
9.6848937e-08
9.6976904e-08
9.7082019e-08
9.7161976e-08
9.7215339e-08
9.7240973e-08
9.7238126e-08
9.7207748e-08
9.715118e-08
9.7069827e-08
9.6965969e-08
9.6842415e-08
9.6702273e-08
9.6548942e-08
9.6385369e-08
9.6214645e-08
9.6040005e-08
9.58643e-08
9.5689536e-08
9.551785e-08
9.5351109e-08
9.5190317e-08
9.503607e-08
9.4889591e-08
9.4750824e-08
9.4620269e-08
9.4497665e-08
9.4382995e-08
9.427563e-08
9.4176847e-08
9.3799833e-08
9.3919547e-08
9.4049134e-08
9.4186859e-08
9.4334432e-08
9.449177e-08
9.4659064e-08
9.4835871e-08
9.5022086e-08
9.5216339e-08
9.5417977e-08
9.5625691e-08
9.5837326e-08
9.6050386e-08
9.6262368e-08
9.646997e-08
9.6669491e-08
9.6857681e-08
9.7031291e-08
9.7186821e-08
9.7321073e-08
9.7431122e-08
9.7514595e-08
9.7570007e-08
9.7596196e-08
9.7592419e-08
9.7559643e-08
9.749924e-08
9.741265e-08
9.7302229e-08
9.7170923e-08
9.7022002e-08
9.6859034e-08
9.6685121e-08
9.6503499e-08
9.6317539e-08
9.6130232e-08
9.5943723e-08
9.5760286e-08
9.5581918e-08
9.5409737e-08
9.5244433e-08
9.5087321e-08
9.4938392e-08
9.4798208e-08
9.4666521e-08
9.4543355e-08
9.4428009e-08
9.4322081e-08
9.3964973e-08
9.4092058e-08
9.4229904e-08
9.437648e-08
9.4533583e-08
9.4701087e-08
9.4879163e-08
9.5067312e-08
9.5265369e-08
9.5471869e-08
9.5686045e-08
9.5906454e-08
9.6130789e-08
9.635638e-08
9.6580539e-08
9.6799776e-08
9.70102e-08
9.720838e-08
9.7390905e-08
9.7554142e-08
9.7694789e-08
9.7809844e-08
9.7896878e-08
9.7954366e-08
9.7981127e-08
9.7976431e-08
9.7941255e-08
9.7876998e-08
9.7785127e-08
9.7668076e-08
9.7528929e-08
9.7371125e-08
9.7198385e-08
9.7013955e-08
9.6821197e-08
9.6623617e-08
9.6424344e-08
9.6225675e-08
9.6030034e-08
9.583956e-08