/*--------------------------------*- C++ -*----------------------------------*\
| =========                 |                                                 |
| \\      /  F ield         | OpenFOAM: The Open Source CFD Toolbox           |
|  \\    /   O peration     | Version:  v2006                                 |
|   \\  /    A nd           | Website:  www.openfoam.com                      |
|    \\/     M anipulation  |                                                 |
\*---------------------------------------------------------------------------*/
FoamFile
{
    version     2.0;
    format      ascii;
    class       volScalarField;
    location    "3500";
    object      Cp;
}
// * * * * * * * * * * * * * * * * * * * * * * * * * * * * * * * * * * * * * //

dimensions      [0 0 0 0 0 0 0];


internalField   nonuniform List<scalar> 
19765
(
0.14939808
0.20551428
0.35623189
0.46145679
0.56566166
0.64396186
0.736121
0.78961202
0.85786949
0.91331578
0.95182999
0.98120098
1.004241
1.0159688
1.0188524
1.0150705
1.0050569
0.98868262
0.96576137
0.93604952
0.89860543
0.8538548
0.80580653
0.74953713
0.68132719
0.61044348
0.54963129
0.48049355
0.39389723
0.31584892
0.23441694
0.13609484
0.025195988
-0.12089669
-0.23862637
-0.32177697
-0.42836602
-0.58951982
-0.70127694
-0.82547128
-1.0293119
-1.2045405
-1.2322916
-1.3873952
-1.3808057
-1.4298489
-1.3857009
-1.3176648
-1.2310276
0.33737907
0.36606938
0.40281843
0.44687351
0.49359586
0.53856262
0.58562978
0.62517596
0.66655627
0.70750886
0.74213729
0.77085377
0.79731073
0.81584109
0.82622857
0.83332403
0.83549842
0.83018105
0.81908175
0.80116727
0.7766435
0.74700907
0.71049061
0.66749303
0.61955363
0.56706518
0.50795355
0.44337093
0.37434585
0.30023308
0.22168875
0.13959669
0.054533004
-0.030922398
-0.11549335
-0.20079261
-0.28810557
-0.37430412
-0.45399327
-0.52874903
-0.59469927
-0.6489717
-0.70104054
-0.74546513
-0.77705701
-0.80402289
-0.82454271
-0.8432894
-0.86211545
0.3297252
0.3658067
0.40655918
0.4470193
0.48710289
0.52467932
0.56156754
0.59312521
0.62432432
0.65335328
0.67904587
0.70140483
0.72133444
0.73638558
0.74600984
0.752062
0.75417907
0.75074372
0.74148555
0.72619437
0.70481151
0.67778887
0.6448192
0.60580117
0.5617331
0.51311114
0.45890919
0.39953129
0.33601622
0.26802572
0.19639406
0.1223871
0.047214031
-0.028012722
-0.1046518
-0.18214367
-0.25813007
-0.33214476
-0.40455852
-0.47279576
-0.53616596
-0.59810004
-0.65704223
-0.71105947
-0.76023571
-0.799834
-0.83486737
-0.86471939
-0.89229705
0.36308467
0.38663064
0.41119424
0.43725707
0.4639432
0.49049422
0.51718019
0.54153262
0.56600649
0.5898023
0.6110923
0.62984099
0.64676735
0.65986422
0.66839747
0.6741212
0.67684739
0.67482621
0.66766674
0.65510719
0.63738077
0.61538963
0.58847962
0.55612715
0.5192617
0.47856459
0.43314698
0.38306294
0.32943908
0.27223554
0.21214466
0.15036942
0.087755986
0.025387305
-0.037896741
-0.10149723
-0.1631957
-0.22224033
-0.27978876
-0.33329345
-0.38192356
-0.42933764
-0.47628809
-0.51838474
-0.56004712
-0.59841091
-0.63756443
-0.67594447
-0.71338031
0.34745653
0.36874318
0.39045203
0.41190773
0.43296595
0.45329626
0.47345676
0.49171888
0.50998239
0.52783401
0.54393798
0.55813835
0.57098904
0.58102482
0.58745571
0.5915568
0.5933137
0.59122216
0.58474314
0.57356692
0.55748798
0.53715283
0.51212755
0.48193395
0.44747686
0.40955011
0.36753487
0.32126284
0.27179794
0.21942389
0.16461819
0.10832992
0.051235434
-0.0056776168
-0.062816655
-0.11979928
-0.17536269
-0.22894489
-0.28114
-0.33059926
-0.37719243
-0.42301606
-0.46849704
-0.51128681
-0.55425733
-0.59544911
-0.63624418
-0.67574201
-0.7140748
0.34256432
0.35794274
0.37394656
0.38987526
0.40572501
0.42113607
0.43666975
0.45079978
0.46509423
0.47913488
0.49179759
0.50293019
0.51295531
0.52069019
0.52545402
0.52819911
0.52886612
0.52621631
0.51977535
0.50925976
0.49447781
0.47606573
0.45367317
0.42676847
0.39608239
0.3622673
0.32486648
0.28380412
0.23999803
0.19373539
0.14546868
0.096027136
0.046015719
-0.0037265633
-0.053469992
-0.10288231
-0.15096812
-0.1972798
-0.24220955
-0.28480882
-0.32498678
-0.36434019
-0.40307896
-0.44006087
-0.47707301
-0.51323643
-0.54981655
-0.58670283
-0.6232899
0.32580826
0.33882529
0.35226968
0.36528778
0.37801144
0.39019385
0.40241833
0.41345162
0.42461005
0.43556051
0.44539714
0.45397617
0.4616322
0.46740487
0.47070222
0.47225109
0.47196932
0.46880295
0.46231834
0.45222767
0.43833724
0.421074
0.40013884
0.37510816
0.34655496
0.31508532
0.28036287
0.24233143
0.20179712
0.15906076
0.11452149
0.06888796
0.022660731
-0.023408178
-0.069428353
-0.11511837
-0.15975939
-0.20297065
-0.24503583
-0.28530515
-0.32379201
-0.36156955
-0.39895295
-0.43514071
-0.47147401
-0.50735078
-0.5436896
-0.58025935
-0.61702542
0.31265803
0.32277465
0.33339995
0.3436765
0.35375251
0.3633754
0.37307656
0.3817807
0.39060587
0.39923761
0.4069177
0.41351273
0.4192888
0.42344596
0.42547735
0.42594488
0.42474696
0.42099483
0.41431042
0.40442259
0.3911693
0.374864
0.35527681
0.33207388
0.30568277
0.27662874
0.24465748
0.20976347
0.17265647
0.13361855
0.093025765
0.051508606
0.0095172353
-0.032281746
-0.073948427
-0.11523318
-0.15553688
-0.19453257
-0.23243898
-0.26873119
-0.3033952
-0.337326
-0.37075276
-0.40313621
-0.43552938
-0.46754657
-0.49998465
-0.53274696
-0.56579763
0.29647301
0.30487066
0.3137117
0.32215957
0.3303778
0.33815153
0.34596774
0.35290914
0.35993033
0.36675412
0.37274136
0.37776982
0.38205487
0.3849215
0.38593094
0.38552488
0.38359006
0.37936296
0.37250862
0.36277219
0.35001091
0.33443762
0.31585116
0.29399564
0.26919912
0.24192394
0.21197713
0.17937585
0.14474316
0.10834103
0.070511669
0.03180895
-0.0073797999
-0.046461404
-0.085446727
-0.12411041
-0.16196706
-0.19872163
-0.23454377
-0.26901989
-0.30215336
-0.33460225
-0.36662958
-0.39778579
-0.42895014
-0.459828
-0.49107343
-0.52263499
-0.55455927
0.28207929
0.28881639
0.2959984
0.30283654
0.30948683
0.31574245
0.32203325
0.32755763
0.33313211
0.33850071
0.34311721
0.34686712
0.34992406
0.35171055
0.35184546
0.35067901
0.3480923
0.34342739
0.33638929
0.32674392
0.31436449
0.2993989
0.28167713
0.26100676
0.23763882
0.21197807
0.18388061
0.15338738
0.12105145
0.087116488
0.051905081
0.015917208
-0.02049532
-0.056795228
-0.092968452
-0.12880293
-0.163872
-0.19790561
-0.23104149
-0.262919
-0.2935183
-0.32340162
-0.35279489
-0.38131935
-0.40974186
-0.437819
-0.46614301
-0.49468723
-0.52348005
0.26723586
0.27279917
0.27876857
0.28441013
0.28987007
0.29496137
0.300064
0.30447987
0.30890985
0.31312164
0.31664365
0.31936896
0.3214379
0.32235116
0.32177472
0.31998845
0.3168711
0.31184991
0.30466366
0.2950983
0.28303423
0.26858149
0.25158405
0.23189503
0.20971665
0.1853954
0.15882946
0.13007256
0.099614897
0.067680694
0.034569247
0.00072864758
-0.033528422
-0.067718494
-0.10181157
-0.13560954
-0.16874179
-0.20095965
-0.23237738
-0.26268303
-0.29185488
-0.3203375
-0.34836036
-0.37556548
-0.40263723
-0.42935581
-0.45624022
-0.48327662
-0.51055223
0.25358218
0.25809846
0.26299736
0.26760408
0.2720521
0.27616565
0.28027626
0.28377018
0.28724946
0.29050016
0.29311186
0.29498322
0.29622666
0.29640628
0.29522739
0.29291427
0.28934587
0.28402096
0.27670754
0.26721015
0.25541539
0.24141071
0.2250494
0.20622072
0.18509515
0.16196691
0.13676839
0.10956502
0.080795421
0.050668293
0.019466519
-0.012401127
-0.044647421
-0.076829318
-0.10890409
-0.14067956
-0.17181755
-0.20208392
-0.23157327
-0.26000019
-0.28732794
-0.31393993
-0.34004443
-0.36530423
-0.39034691
-0.41496226
-0.43962932
-0.46433334
-0.48914656
0.2402836
0.24399334
0.24805177
0.25184112
0.25548144
0.25881108
0.26211941
0.26486616
0.26756978
0.270034
0.2718989
0.27306843
0.27363205
0.27320625
0.27152921
0.26878094
0.26484213
0.25927139
0.25186176
0.24243458
0.23088285
0.21727778
0.20148031
0.18340605
0.16320314
0.14112238
0.11712224
0.091275862
0.063976643
0.035418302
0.0058668604
-0.024305332
-0.054836366
-0.085322125
-0.1157139
-0.14582826
-0.17535916
-0.20408882
-0.23209881
-0.2591298
-0.28514078
-0.31045055
-0.33526002
-0.35923734
-0.38296103
-0.40622406
-0.4294601
-0.45265156
-0.47590082
0.22790429
0.23091292
0.23424099
0.23732564
0.24027434
0.24293644
0.24556319
0.24767659
0.24972343
0.25152256
0.25275642
0.25333337
0.25332342
0.25238673
0.25028922
0.24717493
0.24292734
0.23715583
0.2296749
0.22032105
0.20899396
0.19575211
0.18046528
0.16306952
0.14369584
0.12255974
0.099640387
0.075017206
0.049045557
0.021906883
-0.0061464146
-0.034771563
-0.063725261
-0.092634418
-0.12144392
-0.14997444
-0.17794096
-0.20513681
-0.23163001
-0.25717747
-0.2817293
-0.30556229
-0.32886109
-0.35130335
-0.37342906
-0.39503241
-0.41651632
-0.43785656
-0.45914791
0.21610303
0.2185451
0.22127535
0.22378146
0.22615876
0.22826787
0.23032692
0.23191204
0.23340887
0.23465029
0.23535451
0.23543411
0.23494292
0.23357805
0.23112903
0.22771065
0.22320984
0.21727932
0.20975213
0.20047851
0.18936476
0.17645918
0.16164079
0.14486138
0.12623821
0.10595805
0.084016348
0.06049693
0.035722089
0.009862183
-0.016843385
-0.044078533
-0.071617234
-0.099115466
-0.12651523
-0.15364333
-0.18023591
-0.20609941
-0.23129303
-0.25559081
-0.27894019
-0.30157867
-0.32367998
-0.34492771
-0.36582554
-0.38616819
-0.40632622
-0.42626869
-0.44610543
0.20506007
0.2070128
0.20922506
0.21123119
0.21311574
0.21474908
0.21632012
0.21745163
0.2184767
0.21924067
0.21949221
0.21914769
0.21824723
0.21651942
0.21377401
0.21010165
0.20539311
0.19933841
0.19178658
0.18260028
0.17169228
0.1591026
0.14471966
0.12850792
0.11057347
0.091079471
0.07003461
0.047526036
0.023847677
-0.00083943589
-0.026307231
-0.052262367
-0.078492688
-0.10467873
-0.13075919
-0.15656487
-0.1818477
-0.20642406
-0.23034324
-0.25339165
-0.27551233
-0.29691282
-0.3177527
-0.33772517
-0.35730189
-0.37627996
-0.39500426
-0.41343772
-0.43168742
0.19461695
0.19616236
0.19793923
0.19952418
0.20099177
0.20222169
0.20337748
0.20412261
0.20474504
0.20510151
0.20496692
0.20426129
0.20301327
0.20097855
0.19798442
0.19410162
0.18922501
0.18307689
0.17552028
0.16642904
0.1557222
0.14343299
0.12945896
0.11377511
0.096478282
0.077711893
0.057495441
0.035918453
0.013250116
-0.010356716
-0.034684528
-0.059460333
-0.084484476
-0.10946009
-0.13432414
-0.15891255
-0.18299295
-0.20639278
-0.22915438
-0.25107754
-0.27210463
-0.29241712
-0.3121631
-0.33104568
-0.34950568
-0.36734352
-0.38487856
-0.40206806
-0.41902702
0.18481472
0.18600798
0.18740679
0.18862607
0.18973164
0.19061154
0.19140713
0.19181729
0.19209108
0.19209552
0.19162817
0.19061243
0.18906727
0.18677187
0.18356877
0.17951215
0.17450108
0.16828595
0.16074205
0.15175337
0.141245
0.12924448
0.11565801
0.10046965
0.083768518
0.065681331
0.04623663
0.025525785
0.0037963326
-0.018805871
-0.042072887
-0.065749596
-0.089646983
-0.11348804
-0.13720793
-0.16064688
-0.18358561
-0.20586083
-0.22750741
-0.24833608
-0.26828795
-0.28752273
-0.30617589
-0.32396291
-0.34129568
-0.35798018
-0.37431367
-0.39024945
-0.40590216
0.17556624
0.17646061
0.17753602
0.17844185
0.179236
0.17981433
0.1802989
0.18041964
0.18039206
0.1800926
0.17933854
0.17805657
0.17625757
0.17374124
0.17036353
0.16616485
0.16104854
0.15478958
0.14727407
0.13839521
0.12808401
0.11636299
0.10314701
0.088427205
0.072286254
0.054837352
0.036116104
0.016215474
-0.0046361814
-0.026299138
-0.048574362
-0.071222777
-0.094064935
-0.116842
-0.13948805
-0.1618482
-0.18371595
-0.2049377
-0.22554263
-0.24535308
-0.26431116
-0.2825581
-0.30021862
-0.31702159
-0.33335113
-0.34901996
-0.3643041
-0.37915347
-0.39368716
0.16686303
0.16749809
0.1682916
0.16892397
0.16944615
0.16976109
0.16997404
0.1698422
0.169552
0.16898847
0.16798612
0.16647477
0.16445851
0.16175506
0.15823219
0.15391883
0.14872257
0.14244
0.13496681
0.1262046
0.11608997
0.10464069
0.091781002
0.077507231
0.061896549
0.045051704
0.027012865
0.0078747042
-0.012151355
-0.032930955
-0.054273301
-0.075953663
-0.097801057
-0.11957301
-0.1412026
-0.16253959
-0.18338893
-0.20360571
-0.22321336
-0.24204454
-0.26004221
-0.27733151
-0.29402623
-0.30986987
-0.32522005
-0.33989783
-0.35415998
-0.36795472
-0.38140156
0.15864797
0.15906011
0.15960972
0.16000498
0.16029071
0.16037639
0.16035264
0.1600007
0.15948184
0.15868896
0.15747173
0.15576301
0.15356123
0.15070005
0.14705774
0.14265368
0.13739965
0.13111134
0.12369296
0.11505383
0.10513575
0.093952466
0.081437426
0.067590602
0.052484343
0.036213579
0.018821619
0.00040438007
-0.018841645
-0.038786877
-0.059248242
-0.080013987
-0.10092082
-0.12174126
-0.1424078
-0.16277512
-0.18265924
-0.20192394
-0.22058804
-0.2384948
-0.25558932
-0.27198316
-0.28778057
-0.30274049
-0.31719532
-0.33097528
-0.34431903
-0.35717357
-0.36966092
0.15089636
0.15111445
0.15145077
0.15163841
0.15171683
0.15160146
0.15137022
0.15082553
0.15010687
0.14911431
0.14771092
0.14583246
0.14347268
0.14047934
0.13674013
0.13226644
0.12697415
0.12069592
0.11334358
0.1048335
0.0951123
0.08419046
0.072009963
0.058573697
0.043949811
0.028226947
0.011450833
-0.006281894
-0.024787929
-0.04394197
-0.063568196
-0.08346661
-0.10348091
-0.12339732
-0.14314786
-0.16259211
-0.18155639
-0.19991252
-0.2176749
-0.23469666
-0.25092504
-0.26645954
-0.28139515
-0.29550664
-0.30910232
-0.32202242
-0.3344889
-0.34644875
-0.35802441
0.14356534
0.1436154
0.14376598
0.14377247
0.14366964
0.1433784
0.14296561
0.14225247
0.14135951
0.14019342
0.13862917
0.13660533
0.13411177
0.13100886
0.12719272
0.1226681
0.11735491
0.11110086
0.10382468
0.09544921
0.085925501
0.07526145
0.063406771
0.050366833
0.036206115
0.021008032
0.0048202865
-0.012260252
-0.030061979
-0.04846347
-0.067295757
-0.086369566
-0.10553504
-0.12459102
-0.14346931
-0.16203454
-0.18012288
-0.19761403
-0.21451873
-0.23069996
-0.24610781
-0.26083155
-0.27495802
-0.28827811
-0.30107737
-0.31320652
-0.32487187
-0.33602084
-0.34677705
0.13662634
0.13652999
0.136518
0.13636575
0.13610389
0.13565837
0.13508645
0.13422599
0.13318102
0.13186436
0.13016154
0.12801384
0.12540793
0.12221549
0.11834025
0.11378143
0.10846282
0.10224562
0.095054776
0.086819057
0.077493615
0.067084327
0.05554786
0.042891756
0.029177282
0.014483402
-0.0011405454
-0.017597872
-0.034727398
-0.052411248
-0.070486944
-0.088775029
-0.10713161
-0.12536715
-0.1434134
-0.16114
-0.17839244
-0.19505782
-0.21114351
-0.22652182
-0.24114567
-0.25509521
-0.2684496
-0.28101563
-0.29305731
-0.30443602
-0.31534362
-0.32572869
-0.33571485
0.13004451
0.1298212
0.12966746
0.12937661
0.12897569
0.12839532
0.12768439
0.12669559
0.12551862
0.12407192
0.12225047
0.11999818
0.11729913
0.11403516
0.11011685
0.1055389
0.10022883
0.094059917
0.086962754
0.078871567
0.069745279
0.059588212
0.048363269
0.036079911
0.02279658
0.0085883955
-0.006493961
-0.022354328
-0.03884086
-0.055838967
-0.073192344
-0.090730552
-0.10831527
-0.12576771
-0.14301976
-0.15994607
-0.17640107
-0.19227893
-0.20758423
-0.2221984
-0.23607753
-0.24929397
-0.2619201
-0.27377846
-0.28511285
-0.29579542
-0.30600455
-0.31569028
-0.32497644
0.12379205
0.12345853
0.12318116
0.12276931
0.12224692
0.12154887
0.1207168
0.11961664
0.11832556
0.11676723
0.11484511
0.11250561
0.10973073
0.10641148
0.10246468
0.09788125
0.092592368
0.08648214
0.079486289
0.071544069
0.062617878
0.052710856
0.041791493
0.029870942
0.017005142
0.003265849
-0.011295174
-0.026582588
-0.042452944
-0.058794727
-0.075457511
-0.09227918
-0.10912663
-0.12583103
-0.14232451
-0.15848671
-0.17418051
-0.18930675
-0.20386752
-0.21775288
-0.23092207
-0.24344045
-0.25537414
-0.26656087
-0.27722544
-0.28725059
-0.29680217
-0.30583219
-0.31446386
0.11783959
0.11741106
0.11702647
0.11650961
0.11588173
0.11508166
0.11414472
0.11294869
0.11155983
0.10990662
0.10790017
0.10548929
0.10265434
0.099294616
0.095332628
0.090756226
0.085500059
0.079458012
0.072570482
0.064781355
0.056056229
0.046397361
0.035778241
0.024211502
0.011750849
-0.0015349464
-0.01559328
-0.030329888
-0.045608911
-0.061321749
-0.077323584
-0.093460003
-0.10960283
-0.12559242
-0.14136134
-0.1567941
-0.17176164
-0.18617115
-0.20002257
-0.21321434
-0.22570893
-0.23756567
-0.24884516
-0.25939985
-0.26943683
-0.27884926
-0.28779139
-0.29621731
-0.30424964
0.11216186
0.11165185
0.11117469
0.1105672
0.10984826
0.10896038
0.10793336
0.10665563
0.10518389
0.10345112
0.10137529
0.098907558
0.096026977
0.092640366
0.088675441
0.084117546
0.078904673
0.07293953
0.066166787
0.058534599
0.050011507
0.040599124
0.030275407
0.019054271
0.0069874004
-0.0058591094
-0.019432046
-0.033638436
-0.048349321
-0.063458887
-0.078827683
-0.094308442
-0.10977763
-0.12508415
-0.14016105
-0.15489767
-0.1691725
-0.18289869
-0.19607434
-0.20860576
-0.22045856
-0.23168668
-0.24234568
-0.25230198
-0.26174614
-0.27058131
-0.278951
-0.28681166
-0.29428476
0.10673403
0.10615494
0.10559867
0.10491377
0.10411708
0.10315452
0.10205111
0.10070481
0.099163984
0.097365782
0.095234405
0.092723232
0.089810339
0.086409394
0.082452869
0.077924097
0.07276427
0.066884081
0.060232113
0.052760455
0.044440353
0.035272963
0.025240222
0.014357141
0.0026735515
-0.009746887
-0.022850573
-0.036546014
-0.050710565
-0.065241104
-0.080003316
-0.094856586
-0.10968178
-0.12433571
-0.13875202
-0.15282469
-0.16643939
-0.17951485
-0.19204759
-0.20395142
-0.21519508
-0.22582779
-0.23590067
-0.24529349
-0.25418146
-0.26247743
-0.27031494
-0.27765286
-0.28461147
0.10153417
0.1008973
0.1002742
0.099524014
0.098661851
0.097636761
0.096469603
0.095066947
0.093469846
0.091619326
0.089445237
0.086903091
0.083970244
0.080566612
0.076629032
0.07213924
0.067041491
0.061253715
0.054728085
0.047420317
0.039304137
0.030380392
0.020634548
0.010082541
-0.0012275303
-0.013234252
-0.025883848
-0.039086479
-0.052725309
-0.066699841
-0.080880692
-0.095133451
-0.10934315
-0.12337394
-0.13716009
-0.15060009
-0.16358631
-0.17604268
-0.18796433
-0.1992721
-0.2099377
-0.22000612
-0.22952445
-0.23838497
-0.24674865
-0.25453752
-0.26187588
-0.2687252
-0.27520409
0.096541661
0.095857495
0.095178952
0.094374785
0.093458586
0.092382335
0.091163258
0.089715702
0.088074302
0.086183702
0.083978885
0.081417407
0.078476122
0.075080658
0.071171866
0.066730243
0.061702964
0.056014536
0.049620428
0.0424797
0.034568346
0.025887016
0.016424292
0.0061968683
-0.0047488016
-0.01635341
-0.028563211
-0.041290181
-0.054422867
-0.067863358
-0.08148701
-0.095165211
-0.10878695
-0.12222318
-0.13540882
-0.14824668
-0.16063538
-0.17250368
-0.1838455
-0.19458827
-0.20470658
-0.21424166
-0.22323707
-0.2315969
-0.23946898
-0.24678409
-0.25365802
-0.26005484
-0.26609145
0.091738327
0.091016571
0.090293109
0.089445465
0.088485898
0.087369125
0.086109196
0.0846275
0.082953027
0.0810338
0.078809479
0.076239568
0.073300605
0.069923453
0.066052667
0.061667797
0.056718808
0.051136191
0.044878447
0.037907715
0.030202061
0.021762021
0.012578907
0.0026700139
-0.0079197963
-0.019133218
-0.030916748
-0.043184322
-0.055829523
-0.068757001
-0.081846681
-0.094975394
-0.10803588
-0.12090538
-0.13351951
-0.14578512
-0.15760668
-0.16891734
-0.17970993
-0.18991801
-0.19951878
-0.20855014
-0.21705239
-0.2249406
-0.23235045
-0.23922092
-0.24565992
-0.25163419
-0.25725859
0.087107705
0.086357412
0.085598846
0.084717555
0.08372463
0.082577342
0.081286958
0.079781261
0.078084269
0.076147159
0.073913862
0.071345742
0.068419177
0.065069836
0.061245693
0.056925609
0.052062209
0.046591436
0.040474584
0.033676629
0.026177521
0.017977738
0.0090709667
-0.00052504538
-0.010767011
-0.021599555
-0.032969625
-0.044793264
-0.056968794
-0.069403439
-0.08198154
-0.094585042
-0.10711026
-0.11944025
-0.13151129
-0.14323409
-0.15451843
-0.1653015
-0.17557512
-0.1852785
-0.1943913
-0.20294843
-0.21098733
-0.21843333
-0.22541096
-0.23186699
-0.23790204
-0.24348556
-0.24873024
0.082635577
0.08186515
0.081080592
0.080174826
0.079157905
0.077989491
0.076678408
0.075158251
0.073448651
0.071503736
0.069271339
0.066714599
0.063809867
0.06049723
0.056727828
0.052480052
0.047709058
0.042355767
0.036384047
0.029761485
0.022469742
0.014509274
0.005875807
-0.0034126006
-0.01331424
-0.023775629
-0.034744377
-0.046138776
-0.057861667
-0.069822864
-0.081910997
-0.094012845
-0.10602813
-0.11784527
-0.12940122
-0.14061022
-0.15138695
-0.16167217
-0.17145674
-0.18068498
-0.18933879
-0.19745029
-0.20505429
-0.21208555
-0.21865827
-0.22472643
-0.23038394
-0.23560299
-0.24049377
0.078309559
0.077526811
0.076724733
0.075803054
0.074770897
0.073590163
0.072267523
0.070741873
0.069028962
0.067085678
0.064863434
0.062327058
0.059452983
0.056185368
0.052478293
0.048309859
0.043637636
0.038407095
0.03258448
0.026139779
0.019056196
0.011334191
0.0029712106
-0.0060145162
-0.01558287
-0.025682246
-0.036261151
-0.047240273
-0.058526785
-0.070033151
-0.08165218
-0.093275242
-0.10480533
-0.1161358
-0.12720426
-0.13792819
-0.14822669
-0.15804366
-0.167369
-0.17615166
-0.18437549
-0.19207016
-0.19926812
-0.20591289
-0.21210928
-0.21781811
-0.22312709
-0.22801118
-0.23257797
0.074119363
0.07333149
0.072519709
0.07159005
0.070550797
0.069365952
0.068040281
0.066517519
0.064809981
0.062877136
0.060673682
0.058166058
0.055330871
0.052116043
0.048478381
0.04439586
0.039828345
0.034725474
0.029055684
0.022791173
0.01591653
0.0084322355
0.00033715356
-0.0083504588
-0.017592092
-0.027338028
-0.037537921
-0.04811499
-0.058980622
-0.070049998
-0.08122004
-0.092386507
-0.10345553
-0.11432508
-0.12493332
-0.13520071
-0.14505022
-0.15442851
-0.16332436
-0.17169084
-0.17951344
-0.18681943
-0.19363899
-0.19992359
-0.20576921
-0.21114299
-0.2161268
-0.22069846
-0.22496256
0.070056436
0.06927004
0.068455746
0.067525429
0.066486614
0.065305266
0.063984474
0.062472392
0.060778291
0.058864062
0.056687425
0.054216351
0.051427703
0.048272881
0.044711235
0.040720745
0.036263466
0.031292851
0.025779371
0.019697248
0.013032317
0.0057850839
-0.0020444573
-0.010438119
-0.019359117
-0.028759642
-0.03859068
-0.048778173
-0.059237619
-0.069887046
-0.080627435
-0.091358795
-0.10199033
-0.11242425
-0.12259926
-0.13243847
-0.14186826
-0.15083749
-0.1593338
-0.1673138
-0.17476438
-0.1817106
-0.18818061
-0.19413333
-0.19965682
-0.20472423
-0.20941214
-0.21370122
-0.21769297
0.066114161
0.065335191
0.064524902
0.063600592
0.062569099
0.061398226
0.060089577
0.058595347
0.056922119
0.055034045
0.052891631
0.050464313
0.047729275
0.044641141
0.041161634
0.037268856
0.032926941
0.028092852
0.022738938
0.016841284
0.010386833
0.0033761127
-0.0041900572
-0.012293576
-0.020899527
-0.029962051
-0.039433634
-0.04924321
-0.059310325
-0.069555971
-0.079885205
-0.090202193
-0.10041916
-0.11044231
-0.12021084
-0.12965014
-0.13868949
-0.14727949
-0.1554064
-0.16302976
-0.17013742
-0.17675212
-0.18289985
-0.18854604
-0.19377111
-0.19855358
-0.20296491
-0.20698881
-0.21072313
0.062287311
0.061521105
0.060720707
0.059808432
0.058790506
0.057636447
0.056346554
0.054876719
0.05323115
0.05137612
0.049274712
0.046897759
0.044222827
0.041207529
0.03781581
0.034025991
0.029804189
0.025110587
0.019919283
0.014208067
0.0079648719
0.0011902317
-0.0061144532
-0.013931223
-0.022227194
-0.030958515
-0.040079319
-0.049521782
-0.059209491
-0.069066582
-0.07900222
-0.088924731
-0.098749382
-0.10838614
-0.11777463
-0.12684225
-0.13552061
-0.14376155
-0.15154975
-0.15884709
-0.16564207
-0.17195531
-0.17781093
-0.18318057
-0.18813809
-0.19266728
-0.1968352
-0.20062835
-0.20414128
0.058572457
0.057823625
0.057038284
0.056143353
0.055144538
0.054012943
0.052747726
0.051308159
0.049696369
0.047880608
0.045826352
0.043505771
0.040896863
0.037960023
0.034661275
0.030979242
0.026881925
0.022332478
0.017306619
0.01178371
0.0057525641
-0.00078630555
-0.0078311207
-0.015364148
-0.023354663
-0.031760874
-0.040538767
-0.049623977
-0.058944197
-0.068426879
-0.077985435
-0.087532406
-0.096986189
-0.10626036
-0.11529497
-0.12401907
-0.13236607
-0.14028854
-0.14776918
-0.15477148
-0.16128398
-0.1673247
-0.17291538
-0.17803259
-0.18274335
-0.18703579
-0.19097236
-0.19454276
-0.19783744
0.05496689
0.054239452
0.053473717
0.0526008
0.051625983
0.050521837
0.049286535
0.047882441
0.046309872
0.044538935
0.042537335
0.040278528
0.037740993
0.034887711
0.031686658
0.028116827
0.024148012
0.019746101
0.014888326
0.0095554968
0.0037372137
-0.0025660562
-0.0093523389
-0.016604211
-0.024293217
-0.032379676
-0.040821642
-0.049558437
-0.058521931
-0.067643153
-0.076839915
-0.086029169
-0.095132598
-0.10406731
-0.11277378
-0.12118242
-0.12922798
-0.13686318
-0.14406844
-0.15080827
-0.15707088
-0.16287193
-0.16823136
-0.17313076
-0.17763195
-0.18172768
-0.18547703
-0.18887212
-0.1920006
0.051469746
0.050766903
0.050024512
0.049177487
0.048230782
0.04715832
0.045957433
0.044593311
0.043064705
0.041343467
0.039399383
0.03720715
0.034745771
0.031980638
0.02888156
0.025427951
0.021591308
0.017340042
0.012652799
0.0075117322
0.0019071472
-0.0041605542
-0.01068936
-0.017662226
-0.02505307
-0.032824354
-0.040936415
-0.049332496
-0.057948751
-0.066720058
-0.075568903
-0.084416929
-0.093189356
-0.10180683
-0.11021034
-0.11833139
-0.12610562
-0.13348533
-0.14044817
-0.14695865
-0.15300364
-0.15859539
-0.16375071
-0.16845396
-0.17276051
-0.17666589
-0.18022504
-0.18343316
-0.18637396
0.048079653
0.047404164
0.046688315
0.045870498
0.044955404
0.043918222
0.042755572
0.041435247
0.039954667
0.038287333
0.036404986
0.034283535
0.031902548
0.029229663
0.026236413
0.022902673
0.019201544
0.015103766
0.010589317
0.0056416067
0.00025158465
-0.0055804239
-0.011852508
-0.018548039
-0.025643433
-0.033103297
-0.040890454
-0.048952312
-0.057229388
-0.06566076
-0.074173904
-0.082695592
-0.09115491
-0.099476171
-0.10760101
-0.11546196
-0.12299517
-0.13015206
-0.13690714
-0.14322427
-0.1490887
-0.15450969
-0.15950218
-0.16405436
-0.16821799
-0.17199273
-0.17543153
-0.17853106
-0.18137395
0.044797738
0.044151408
0.043464319
0.042678119
0.041797265
0.04079815
0.03967678
0.038403358
0.036974164
0.035364269
0.033547258
0.031500221
0.029203331
0.026626328
0.023742356
0.020531777
0.016969201
0.01302751
0.0086879427
0.0039351092
-0.0012394438
-0.006835469
-0.012851268
-0.01927064
-0.026072628
-0.033223935
-0.040690075
-0.048422859
-0.056367251
-0.064466885
-0.072654662
-0.080863009
-0.089025288
-0.097069715
-0.1049389
-0.11256646
-0.11988888
-0.12685618
-0.13343907
-0.13959936
-0.14531886
-0.15060161
-0.15545768
-0.1598748
-0.16389748
-0.1675259
-0.17080858
-0.17374553
-0.1764154
0.041622383
0.041006953
0.040350519
0.039598003
0.038753547
0.037794749
0.036717098
0.035493064
0.034117981
0.03256844
0.030819776
0.028850245
0.026640662
0.024162737
0.021391126
0.018306687
0.01488543
0.011102199
0.0069394294
0.0023828951
-0.0025752786
-0.0079349197
-0.013694628
-0.019838602
-0.026348599
-0.033193266
-0.040341024
-0.047748343
-0.055364658
-0.063138635
-0.07100907
-0.078914736
-0.086793713
-0.094578517
-0.10221327
-0.10963305
-0.11677471
-0.12358662
-0.13003542
-0.13608032
-0.14169968
-0.14689353
-0.1516697
-0.1560189
-0.15998391
-0.16356912
-0.16682285
-0.16974506
-0.17241561
0.03855674
0.03797264
0.037347414
0.036629476
0.0358225
0.03490534
0.033873004
0.032700119
0.031381201
0.02989432
0.028216462
0.026327025
0.024207507
0.021831463
0.019174965
0.016219356
0.012941918
0.0093192697
0.005334982
0.00097600601
-0.0037649433
-0.0088877541
-0.014391373
-0.020260327
-0.026479178
-0.033018278
-0.039849149
-0.046933058
-0.054223885
-0.061675798
-0.069234093
-0.076844644
-0.084450765
-0.091989955
-0.099408758
-0.10664447
-0.11363459
-0.12032551
-0.12667894
-0.13264945
-0.13820884
-0.14334861
-0.14806782
-0.15235156
-0.15623187
-0.15970985
-0.16282726
-0.16558895
-0.16806852
0.035597074
0.035045312
0.034452041
0.033769635
0.033001047
0.032126513
0.03114063
0.030020147
0.02875891
0.02733648
0.025731411
0.023924237
0.021897156
0.01962545
0.0170865
0.014262115
0.011130722
0.0076705335
0.003866225
-0.00029400479
-0.0048167907
-0.0097020415
-0.014949034
-0.020542578
-0.026470289
-0.032704044
-0.03921864
-0.045980026
-0.052946317
-0.060077686
-0.067326319
-0.074645993
-0.08198572
-0.089289024
-0.096506302
-0.10357844
-0.11044439
-0.11704897
-0.12334909
-0.12929464
-0.13485183
-0.14000671
-0.14475561
-0.14908659
-0.1530326
-0.15660036
-0.15983372
-0.16273493
-0.16538099
0.032750244
0.032229419
0.031666737
0.031018921
0.030288052
0.029455836
0.028516501
0.027448855
0.026246184
0.024889509
0.023358847
0.021635791
0.019703214
0.017538001
0.015118759
0.012427787
0.0094445621
0.0061486962
0.0025258975
-0.0014342614
-0.005737669
-0.010384215
-0.015373456
-0.020690474
-0.026326081
-0.032253263
-0.03845053
-0.044888292
-0.051528758
-0.058338648
-0.065277407
-0.072307215
-0.079383218
-0.086456341
-0.093482528
-0.1004079
-0.10717393
-0.11372434
-0.12001077
-0.12597605
-0.13157563
-0.13678114
-0.14157214
-0.14592134
-0.14984184
-0.15332948
-0.15641574
-0.15911174
-0.16148211
0.030007671
0.029518021
0.028985828
0.02837245
0.027679002
0.026888814
0.025995943
0.024981301
0.023837805
0.022547921
0.021093034
0.019455728
0.017619531
0.015562833
0.013265403
0.010710026
0.0078770535
0.004747151
0.0013069269
-0.0024524438
-0.0065359951
-0.010943661
-0.015675242
-0.020715958
-0.02605912
-0.031677494
-0.037554041
-0.043663496
-0.049971976
-0.056453823
-0.063076384
-0.069810659
-0.076618588
-0.083460821
-0.090301019
-0.097092571
-0.10378082
-0.11030974
-0.11662715
-0.12267084
-0.12838977
-0.1337497
-0.13872812
-0.14330239
-0.14749113
-0.15129879
-0.15476306
-0.15788615
-0.16074158
0.027383767
0.026920597
0.026414898
0.025832333
0.025173403
0.024423002
0.023575121
0.022612605
0.021528117
0.020305524
0.018927531
0.017377637
0.015639885
0.013693856
0.011520183
0.0091019779
0.0064202717
0.0034565616
0.0001984236
-0.0033609443
-0.0072256239
-0.011395641
-0.015870854
-0.020636415
-0.025687893
-0.030997141
-0.0365518
-0.042329187
-0.048298816
-0.05444352
-0.060737429
-0.067161314
-0.073684758
-0.080281573
-0.08692622
-0.093582738
-0.10020304
-0.10673382
-0.11311957
-0.11928967
-0.12517678
-0.13072208
-0.13587114
-0.14056677
-0.14478739
-0.14850912
-0.15174266
-0.15450437
-0.15684287
0.024858018
0.024420966
0.023941417
0.023388686
0.022762922
0.022050627
0.021246243
0.020334828
0.019309317
0.018155035
0.016855835
0.015395722
0.013758757
0.011925196
0.0098762856
0.0075956786
0.0050655789
0.0022686289
-0.0008065304
-0.0041642497
-0.0078074053
-0.011735829