/*--------------------------------*- C++ -*----------------------------------*\
| =========                 |                                                 |
| \\      /  F ield         | OpenFOAM: The Open Source CFD Toolbox           |
|  \\    /   O peration     | Version:  v2006                                 |
|   \\  /    A nd           | Website:  www.openfoam.com                      |
|    \\/     M anipulation  |                                                 |
\*---------------------------------------------------------------------------*/
FoamFile
{
    version     2.0;
    format      ascii;
    class       volScalarField;
    location    "3500";
    object      k;
}
// * * * * * * * * * * * * * * * * * * * * * * * * * * * * * * * * * * * * * //

dimensions      [0 2 -2 0 0 0 0];


internalField   nonuniform List<scalar> 
19765
(
0.00015498262
0.00015792292
0.0001608955
0.00016390361
0.00016724771
0.0001705077
0.00017431984
0.00017746222
0.00018170356
0.00018430136
0.00018661446
0.00018938199
0.00019214732
0.00019405097
0.00019630835
0.00019899768
0.00020131967
0.00020334226
0.00020588127
0.00020871858
0.00021161501
0.00021418375
0.00021694426
0.00022008016
0.00022304843
0.00022537114
0.00022796727
0.0002309624
0.00023349364
0.00023607085
0.00023899545
0.00024233064
0.00024645962
0.00024930201
0.00025098941
0.00025356711
0.00025739037
0.00026002447
0.00026354869
0.00026872574
0.00027262944
0.00027389538
0.0002768778
0.00027705468
0.00027753772
0.00027733536
0.00027660343
0.00027509475
0.00027277842
0.0001562897
0.0001589967
0.00016260999
0.00017083448
0.00017862438
0.0001866191
0.00019358849
0.0002028182
0.0002103779
0.00022040302
0.00023149112
0.00024054865
0.00024714037
0.00025289501
0.00025677798
0.00025811942
0.0002591784
0.00026104794
0.0002633582
0.00026583161
0.00026888867
0.0002726298
0.00027614878
0.00028002403
0.00028606937
0.00029420386
0.00030169676
0.0003091854
0.00031886851
0.00032885964
0.00033824532
0.00034665121
0.00035364227
0.00036351662
0.00037502631
0.00038363575
0.00038914144
0.00039597294
0.00039929713
0.0003990418
0.000401785
0.00040479297
0.00039993815
0.00039874881
0.00039488733
0.0003903676
0.00038280603
0.00037305971
0.00036197344
1.6560523e-05
1.5920791e-05
1.5574689e-05
1.6331723e-05
1.6771661e-05
1.7184926e-05
1.7272348e-05
1.7762368e-05
1.7768382e-05
1.8267906e-05
1.8873112e-05
1.9054854e-05
1.887772e-05
1.8713895e-05
1.8311632e-05
1.7677543e-05
1.7253176e-05
1.7001417e-05
1.6765849e-05
1.6551216e-05
1.652081e-05
1.6723987e-05
1.6876738e-05
1.7036412e-05
1.758601e-05
1.8666308e-05
1.9781791e-05
2.0945021e-05
2.2592645e-05
2.4456606e-05
2.6367561e-05
2.8242942e-05
2.9929317e-05
3.2423953e-05
3.5685561e-05
3.8681118e-05
4.1094695e-05
4.4214276e-05
4.6836432e-05
4.8255132e-05
5.027603e-05
5.3993968e-05
5.591994e-05
5.9332229e-05
6.1627619e-05
6.7513835e-05
7.5420382e-05
8.5256837e-05
9.317164e-05
3.7222031e-07
3.3353989e-07
3.1370135e-07
3.1760852e-07
3.185144e-07
3.1987128e-07
3.1670022e-07
3.1963972e-07
3.1555119e-07
3.1736572e-07
3.2057748e-07
3.1819365e-07
3.1106036e-07
3.0481661e-07
2.9663843e-07
2.8601803e-07
2.789686e-07
2.7548983e-07
2.7220504e-07
2.6852729e-07
2.6849506e-07
2.7276813e-07
2.7562767e-07
2.7921863e-07
2.8883764e-07
3.064579e-07
3.2577345e-07
3.4714852e-07
3.7653711e-07
4.1103949e-07
4.4894222e-07
4.8930834e-07
5.3056972e-07
5.883867e-07
6.6430617e-07
7.4323273e-07
8.2073026e-07
9.1949235e-07
1.0165051e-06
1.098811e-06
1.2071688e-06
1.3712303e-06
1.5159272e-06
1.7495222e-06
1.9796481e-06
2.3107613e-06
2.7104854e-06
3.2123107e-06
3.8037605e-06
7.4606017e-08
7.4582573e-08
7.5162084e-08
7.7076766e-08
7.8632335e-08
8.0149744e-08
8.122743e-08
8.2775008e-08
8.3647216e-08
8.5082711e-08
8.6675639e-08
8.7750608e-08
8.8394629e-08
8.9140439e-08
8.9624421e-08
8.97822e-08
9.03279e-08
9.1289974e-08
9.2130347e-08
9.2866065e-08
9.391317e-08
9.5269262e-08
9.6613201e-08
9.8213886e-08
1.0054186e-07
1.0386411e-07
1.0743406e-07
1.111869e-07
1.1575398e-07
1.2075826e-07
1.2592743e-07
1.3112492e-07
1.3604109e-07
1.4198979e-07
1.4896126e-07
1.5558606e-07
1.6135425e-07
1.6783267e-07
1.7358515e-07
1.7780667e-07
1.826924e-07
1.8948031e-07
1.9441331e-07
2.0193581e-07
2.0834205e-07
2.1677578e-07
2.2544448e-07
2.3244619e-07
2.3814394e-07
5.3001026e-08
5.3147114e-08
5.3564412e-08
5.4522578e-08
5.5280328e-08
5.604398e-08
5.6641913e-08
5.7414465e-08
5.7909701e-08
5.8660979e-08
5.9398303e-08
5.9905e-08
6.0270452e-08
6.0676567e-08
6.0975025e-08
6.1202781e-08
6.1631057e-08
6.2222742e-08
6.2773165e-08
6.3321865e-08
6.400548e-08
6.4808736e-08
6.5744102e-08
6.6851791e-08
6.8263147e-08
7.0130212e-08
7.2172656e-08
7.4325827e-08
7.6851613e-08
7.9634359e-08
8.2551036e-08
8.5555808e-08
8.8457505e-08
9.1724262e-08
9.5475894e-08
9.926231e-08
1.0268687e-07
1.063344e-07
1.0985464e-07
1.1274746e-07
1.1560893e-07
1.1941437e-07
1.2252377e-07
1.2667321e-07
1.3055054e-07
1.3527416e-07
1.404676e-07
1.461748e-07
1.5126172e-07
4.1243396e-08
4.1235491e-08
4.1360792e-08
4.1761014e-08
4.2073707e-08
4.2397866e-08
4.2653931e-08
4.3003449e-08
4.3232657e-08
4.3590902e-08
4.3954593e-08
4.421825e-08
4.4423175e-08
4.4655164e-08
4.4844694e-08
4.5008649e-08
4.5279821e-08
4.5645706e-08
4.6009249e-08
4.6387184e-08
4.6826649e-08
4.7316754e-08
4.7890868e-08
4.8579448e-08
4.9436034e-08
5.0524113e-08
5.1707626e-08
5.2967729e-08
5.4429123e-08
5.6031098e-08
5.7717868e-08
5.9464654e-08
6.1186071e-08
6.3101756e-08
6.5258832e-08
6.7439174e-08
6.9468451e-08
7.1614473e-08
7.3710022e-08
7.5526374e-08
7.7349873e-08
7.9594164e-08
8.1526054e-08
8.390718e-08
8.6148512e-08
8.8726142e-08
9.1449672e-08
9.4337428e-08
9.6985823e-08
3.511568e-08
3.5112735e-08
3.5182973e-08
3.5406114e-08
3.5580088e-08
3.57599e-08
3.5902413e-08
3.6094856e-08
3.6223927e-08
3.6422672e-08
3.6625505e-08
3.6779288e-08
3.6906982e-08
3.7053387e-08
3.7183701e-08
3.7308706e-08
3.7497063e-08
3.7742082e-08
3.7995853e-08
3.8270245e-08
3.8589257e-08
3.8945514e-08
3.9363515e-08
3.9858138e-08
4.045393e-08
4.1185582e-08
4.1981923e-08
4.2834596e-08
4.381197e-08
4.4882017e-08
4.6014639e-08
4.7196405e-08
4.8380453e-08
4.9684712e-08
5.1137483e-08
5.2622281e-08
5.4040896e-08
5.5536554e-08
5.7021792e-08
5.8368396e-08
5.972581e-08
6.1334825e-08
6.2790259e-08
6.4520945e-08
6.6206515e-08
6.8122705e-08
7.0177521e-08
7.2395858e-08
7.4534524e-08
3.1252202e-08
3.1238845e-08
3.1268891e-08
3.1391193e-08
3.148662e-08
3.1587387e-08
3.1668688e-08
3.1780728e-08
3.1858837e-08
3.1978973e-08
3.2104003e-08
3.2204409e-08
3.229359e-08
3.2396865e-08
3.2495006e-08
3.2594705e-08
3.2734904e-08
3.2912053e-08
3.3099744e-08
3.3305115e-08
3.3540314e-08
3.3799737e-08
3.4099203e-08
3.445147e-08
3.4870324e-08
3.537385e-08
3.5921576e-08
3.6510272e-08
3.7179243e-08
3.7909869e-08
3.8685512e-08
3.9498326e-08
4.0321992e-08
4.1222991e-08
4.2216433e-08
4.3235045e-08
4.4223659e-08
4.5262218e-08
4.6300256e-08
4.7263968e-08
4.8238654e-08
4.935539e-08
5.038666e-08
5.1569457e-08
5.2722884e-08
5.3997428e-08
5.5337145e-08
5.6750801e-08
5.8099453e-08
2.8801228e-08
2.879677e-08
2.8817844e-08
2.8896235e-08
2.8957722e-08
2.9022732e-08
2.9076251e-08
2.9149127e-08
2.9202463e-08
2.9282432e-08
2.9366724e-08
2.9438289e-08
2.9505531e-08
2.9583624e-08
2.9661475e-08
2.9743585e-08
2.9853156e-08
2.9988139e-08
3.0133346e-08
3.0293495e-08
3.0476019e-08
3.0677398e-08
3.0906825e-08
3.1173374e-08
3.148595e-08
3.1854814e-08
3.2255654e-08
3.2687323e-08
3.317449e-08
3.3706082e-08
3.4272186e-08
3.4868138e-08
3.5477795e-08
3.6141963e-08
3.6870582e-08
3.7622413e-08
3.836258e-08
3.9139925e-08
3.9923673e-08
4.0666762e-08
4.142032e-08
4.2268884e-08
4.3069299e-08
4.3971559e-08
4.4863161e-08
4.5841221e-08
4.6873302e-08
4.7971263e-08
4.9037967e-08
2.713397e-08
2.7135145e-08
2.7152293e-08
2.7206938e-08
2.7251008e-08
2.7297833e-08
2.7337946e-08
2.739108e-08
2.74328e-08
2.7492388e-08
2.7555927e-08
2.7613062e-08
2.7669235e-08
2.7733954e-08
2.7800469e-08
2.7871794e-08
2.7962371e-08
2.8070979e-08
2.8188383e-08
2.8317582e-08
2.8463203e-08
2.8622911e-08
2.88021e-08
2.9007401e-08
2.9245301e-08
2.952173e-08
2.9821382e-08
3.0144117e-08
3.0505927e-08
3.0899939e-08
3.1320118e-08
3.17636e-08
3.2220272e-08
3.2715981e-08
3.3257064e-08
3.3817026e-08
3.4373503e-08
3.4957077e-08
3.5547839e-08
3.6114949e-08
3.669076e-08
3.7327839e-08
3.7934962e-08
3.8606033e-08
3.9269262e-08
3.9984959e-08
4.0731495e-08
4.1515218e-08
4.2271738e-08
2.5971824e-08
2.5980347e-08
2.5998647e-08
2.6041911e-08
2.6078171e-08
2.6116535e-08
2.6150877e-08
2.6194275e-08
2.623094e-08
2.6280051e-08
2.6332683e-08
2.6382409e-08
2.643285e-08
2.6490138e-08
2.6550046e-08
2.6614608e-08
2.6693025e-08
2.6784519e-08
2.6883285e-08
2.6991243e-08
2.7111358e-08
2.724217e-08
2.738682e-08
2.7549872e-08
2.7736295e-08
2.7949696e-08
2.8180103e-08
2.8427867e-08
2.870386e-08
2.9003799e-08
2.9323958e-08
2.966267e-08
3.001342e-08
3.0393403e-08
3.0807093e-08
3.123694e-08
3.1667778e-08
3.2119759e-08
3.2579627e-08
3.3026154e-08
3.348032e-08
3.3978053e-08
3.4457434e-08
3.4981961e-08
3.5503282e-08
3.6062647e-08
3.6645915e-08
3.7259465e-08
3.7855153e-08
2.5137885e-08
2.515223e-08
2.5172738e-08
2.5210403e-08
2.5243473e-08
2.527831e-08
2.5310863e-08
2.535003e-08
2.5385356e-08
2.5429711e-08
2.5477268e-08
2.5523934e-08
2.557214e-08
2.5625915e-08
2.568252e-08
2.5743287e-08
2.5814156e-08
2.589459e-08
2.5980794e-08
2.6073942e-08
2.6175904e-08
2.6285702e-08
2.6405121e-08
2.6537293e-08
2.6686096e-08
2.6853727e-08
2.703358e-08
2.7226239e-08
2.7439266e-08
2.7669977e-08
2.7916121e-08
2.8176812e-08
2.8447841e-08
2.87409e-08
2.9059154e-08
2.939067e-08
2.9725018e-08
3.0075699e-08
3.0433594e-08
3.0783772e-08
3.1140269e-08
3.1527232e-08
3.1902119e-08
3.2307693e-08
3.2710729e-08
3.3138837e-08
3.3581963e-08
3.4044296e-08
3.4490865e-08
2.4527345e-08
2.4547127e-08
2.4570713e-08
2.460628e-08
2.4638838e-08
2.4672958e-08
2.4705934e-08
2.4743951e-08
2.477998e-08
2.4822802e-08
2.4868578e-08
2.4914673e-08
2.496271e-08
2.5015353e-08
2.5070774e-08
2.5129787e-08
2.5196211e-08
2.5269626e-08
2.5347458e-08
2.543035e-08
2.5519438e-08
2.5613979e-08
2.5714927e-08
2.5824436e-08
2.5945498e-08
2.6079451e-08
2.6221881e-08
2.6373488e-08
2.6539663e-08
2.6718794e-08
2.6909651e-08
2.7111914e-08
2.732286e-08
2.7550646e-08
2.7797644e-08
2.8055653e-08
2.8317356e-08
2.8592098e-08
2.8873532e-08
2.9150923e-08
2.943379e-08
2.9739213e-08
3.0036945e-08
3.0357044e-08
3.0675982e-08
3.1013264e-08
3.136175e-08
3.1725158e-08
3.2076204e-08
2.4073844e-08
2.4098197e-08
2.4124935e-08
2.4160256e-08
2.4193721e-08
2.4228676e-08
2.4263302e-08
2.4301972e-08
2.433991e-08
2.4383166e-08
2.4429216e-08
2.447634e-08
2.4525595e-08
2.4578724e-08
2.4634463e-08
2.4693229e-08
2.4757412e-08
2.4826636e-08
2.4899072e-08
2.4974966e-08
2.5054929e-08
2.5138302e-08
2.5225504e-08
2.5318006e-08
2.5418087e-08
2.5526531e-08
2.564039e-08
2.576041e-08
2.5890487e-08
2.602978e-08
2.6177803e-08
2.6334563e-08
2.6498279e-08
2.6674738e-08
2.6865805e-08
2.7065854e-08
2.7269759e-08
2.7484089e-08
2.7704364e-08
2.7922757e-08
2.8145827e-08
2.8385566e-08
2.8620248e-08
2.8870981e-08
2.9120846e-08
2.9383457e-08
2.9653488e-08
2.9933641e-08
3.0202921e-08
2.3732743e-08
2.3761223e-08
2.3791197e-08
2.3827452e-08
2.3862705e-08
2.3899452e-08
2.393648e-08
2.3976922e-08
2.401752e-08
2.4062457e-08
2.4110091e-08
2.4159298e-08
2.4210722e-08
2.4265464e-08
2.4322613e-08
2.4382273e-08
2.4445833e-08
2.4512921e-08
2.4582155e-08
2.4653475e-08
2.4727094e-08
2.4802364e-08
2.4879335e-08
2.495899e-08
2.5043033e-08
2.5131877e-08
2.5223576e-08
2.531889e-08
2.5420673e-08
2.552873e-08
2.5643072e-08
2.5763807e-08
2.5889804e-08
2.6025352e-08
2.6172075e-08
2.6326187e-08
2.6484107e-08
2.6650538e-08
2.6822308e-08
2.6993658e-08
2.7169133e-08
2.7357371e-08
2.7542494e-08
2.773966e-08
2.7936504e-08
2.8142807e-08
2.8354572e-08
2.8574075e-08
2.8784502e-08
2.3474529e-08
2.3506671e-08
2.3539804e-08
2.3577679e-08
2.3615227e-08
2.3654342e-08
2.3694227e-08
2.3737154e-08
2.3780901e-08
2.3828348e-08
2.3878459e-08
2.3930492e-08
2.3984786e-08
2.4041981e-08
2.4101378e-08
2.4162829e-08
2.4227003e-08
2.4293497e-08
2.4361196e-08
2.4429782e-08
2.4499164e-08
2.4568649e-08
2.463802e-08
2.4707907e-08
2.4779537e-08
2.4853072e-08
2.4927261e-08
2.5002855e-08
2.508199e-08
2.5165065e-08
2.5252244e-08
2.5343602e-08
2.5438653e-08
2.55408e-08
2.5651524e-08
2.5768314e-08
2.5888675e-08
2.6015996e-08
2.6148037e-08
2.6280549e-08
2.6416705e-08
2.6562709e-08
2.670689e-08
2.6860126e-08
2.7013288e-08
2.7173342e-08
2.7337202e-08
2.7506608e-08
2.7668159e-08
2.3278141e-08
2.3313678e-08
2.3349945e-08
2.3389918e-08
2.3430118e-08
2.3472006e-08
2.3515076e-08
2.356099e-08
2.3608251e-08
2.3658809e-08
2.3712046e-08
2.3767473e-08
2.3825189e-08
2.3885498e-08
2.3947823e-08
2.4011802e-08
2.4077573e-08
2.4144675e-08
2.4212142e-08
2.4279438e-08
2.4346218e-08
2.4411718e-08
2.4475517e-08
2.4537982e-08
2.459994e-08
2.4661376e-08
2.4721532e-08
2.4781142e-08
2.4841877e-08
2.4904683e-08
2.4969392e-08
2.503629e-08
2.5105683e-08
2.5180356e-08
2.5261585e-08
2.5347726e-08
2.5437082e-08
2.5532152e-08
2.5631405e-08
2.5731737e-08
2.5835376e-08
2.5946838e-08
2.6057483e-08
2.6175202e-08
2.6293192e-08
2.6416486e-08
2.6542675e-08
2.6673193e-08
2.679712e-08
2.3129003e-08
2.3167718e-08
2.3207078e-08
2.3249471e-08
2.3292569e-08
2.3337516e-08
2.3384017e-08
2.3433292e-08
2.3484354e-08
2.3538482e-08
2.3595352e-08
2.3654633e-08
2.3716239e-08
2.3780212e-08
2.3846041e-08
2.3913179e-08
2.3981353e-08
2.4050034e-08
2.4118321e-08
2.4185485e-08
2.4250962e-08
2.4313901e-08
2.4373712e-08
2.4430566e-08
2.4484948e-08
2.4536713e-08
2.4585463e-08
2.4631909e-08
2.4677475e-08
2.4723514e-08
2.4769003e-08
2.4815309e-08
2.4863317e-08
2.4915071e-08
2.4971608e-08
2.5031972e-08
2.509513e-08
2.5162997e-08
2.5234592e-08
2.5307682e-08
2.5383839e-08
2.5466337e-08
2.5548777e-08
2.5636862e-08
2.5725493e-08
2.581827e-08
2.5913277e-08
2.6011634e-08
2.6104454e-08
2.3016387e-08
2.3058168e-08
2.310063e-08
2.3145702e-08
2.3191908e-08
2.3240157e-08
2.3290306e-08
2.3343255e-08
2.339838e-08
2.3456467e-08
2.3517395e-08
2.3580935e-08
2.3646849e-08
2.3714973e-08
2.3784819e-08
2.3855675e-08
2.3926943e-08
2.3998013e-08
2.4067991e-08
2.4135976e-08
2.4201211e-08
2.4262736e-08
2.4319823e-08
2.4372487e-08
2.4420923e-08
2.4464885e-08
2.4504243e-08
2.4539692e-08
2.4572577e-08
2.4604375e-08
2.4633027e-08
2.4662187e-08
2.4692161e-08
2.4724298e-08
2.4759654e-08
2.4797921e-08
2.483862e-08
2.4883263e-08
2.4931288e-08
2.4981128e-08
2.5033894e-08
2.5091964e-08
2.5150607e-08
2.5213947e-08
2.527815e-08
2.5345792e-08
2.5415334e-08
2.5487679e-08
2.5555513e-08
2.2932595e-08
2.2977379e-08
2.302297e-08
2.3070935e-08
2.3120433e-08
2.3172198e-08
2.32262e-08
2.3283101e-08
2.3342539e-08
2.3404931e-08
2.3470299e-08
2.3538474e-08
2.360909e-08
2.3681812e-08
2.3756148e-08
2.3831237e-08
2.390621e-08
2.3980367e-08
2.4052784e-08
2.4122393e-08
2.4188266e-08
2.4249322e-08
2.4304712e-08
2.4354314e-08
2.4398087e-08
2.44357e-08
2.4467219e-08
2.4493347e-08
2.4515439e-08
2.4534636e-08
2.454893e-08
2.456372e-08
2.4577756e-08
2.4592574e-08
2.4609433e-08
2.4628496e-08
2.4649682e-08
2.4674212e-08
2.4701846e-08
2.473154e-08
2.4764083e-08
2.4801193e-08
2.4839401e-08
2.4881662e-08
2.4925089e-08
2.4971496e-08
2.5019631e-08
2.5070195e-08
2.5117169e-08
2.2871868e-08
2.2919653e-08
2.2968438e-08
2.3019498e-08
2.3072473e-08
2.3127967e-08
2.3186031e-08
2.3247153e-08
2.3311159e-08
2.3378188e-08
2.3448359e-08
2.3521533e-08
2.3597235e-08
2.3674985e-08
2.3754264e-08
2.3834072e-08
2.391331e-08
2.3991175e-08
2.4066686e-08
2.4138618e-08
2.4205876e-08
2.4267257e-08
2.4321795e-08
2.4369248e-08
2.4409381e-08
2.4441784e-08
2.4466673e-08
2.4484775e-08
2.4497443e-08
2.4504601e-08
2.4509365e-08
2.4509671e-08
2.4509082e-08
2.450857e-08
2.4509158e-08
2.4511318e-08
2.4515306e-08
2.4522158e-08
2.4531905e-08
2.4543916e-08
2.4558762e-08
2.4577676e-08
2.4598158e-08
2.4622297e-08
2.464793e-08
2.4676313e-08
2.4706413e-08
2.4738779e-08
2.4768435e-08
2.2829977e-08
2.2880802e-08
2.2932871e-08
2.2987221e-08
2.3043863e-08
2.31033e-08
2.3165647e-08
2.3231259e-08
2.33001e-08
2.3372093e-08
2.3447425e-08
2.3525965e-08
2.3607138e-08
2.3690341e-08
2.3775007e-08
2.3860004e-08
2.3944031e-08
2.4026175e-08
2.4105375e-08
2.4180247e-08
2.4249543e-08
2.4311928e-08
2.4366322e-08
2.4412373e-08
2.4449688e-08
2.4477779e-08
2.4496982e-08
2.4508074e-08
2.4512281e-08
2.4505286e-08
2.4500814e-08
2.4491241e-08
2.4478392e-08
2.4464177e-08
2.445012e-08
2.4437106e-08
2.4425674e-08
2.4416734e-08
2.4410533e-08
2.4406778e-08
2.4405892e-08
2.4408756e-08
2.4413612e-08
2.4421909e-08
2.4432034e-08
2.4444823e-08
2.4459418e-08
2.4476226e-08
2.4491143e-08
2.2803748e-08
2.2857691e-08
2.2913164e-08
2.2971006e-08
2.3031518e-08
2.3095124e-08
2.3161993e-08
2.3232374e-08
2.3306335e-08
2.3383629e-08
2.3464484e-08
2.3548764e-08
2.3635805e-08
2.3724886e-08
2.3815385e-08
2.3906038e-08
2.3995359e-08
2.4082319e-08
2.4165756e-08
2.4244134e-08
2.4316046e-08
2.4380027e-08
2.4434883e-08
2.4480154e-08
2.4515315e-08
2.4539809e-08
2.4554064e-08
2.4558908e-08
2.4555007e-08
2.4544619e-08
2.4527314e-08
2.4505194e-08
2.4479999e-08
2.4453064e-08
2.4425678e-08
2.4398871e-08
2.4373402e-08
2.4350119e-08
2.4329465e-08
2.4311432e-08
2.429635e-08
2.4284844e-08
2.4275739e-08
2.4270001e-08
2.4266443e-08
2.4265589e-08
2.4266718e-08
2.4270121e-08
2.427241e-08
2.2790839e-08
2.2848008e-08
2.290703e-08
2.2968575e-08
2.3033175e-08
2.3101195e-08
2.3172841e-08
2.3248286e-08
2.3327671e-08
2.3410616e-08
2.349737e-08
2.3587782e-08
2.3681099e-08
2.3776496e-08
2.387328e-08
2.3970058e-08
2.406517e-08
2.4157463e-08
2.4245659e-08
2.4328066e-08
2.4403123e-08
2.4469228e-08
2.4525068e-08
2.4570085e-08
2.4603637e-08
2.4625101e-08
2.4634983e-08
2.4634126e-08
2.4623384e-08
2.4603863e-08
2.4577332e-08
2.4545326e-08
2.4509371e-08
2.4470791e-08
2.4431025e-08
2.4391386e-08
2.4352873e-08
2.4316321e-08
2.4282347e-08
2.4251176e-08
2.4223085e-08
2.4198511e-08
2.4176733e-08
2.415836e-08
2.4142533e-08
2.4129538e-08
2.4118764e-08
2.4110395e-08
2.4101654e-08
2.2789518e-08
2.285005e-08
2.2912794e-08
2.2978268e-08
2.3047193e-08
2.3119887e-08
2.3196591e-08
2.3277414e-08
2.3362552e-08
2.3451514e-08
2.3544562e-08
2.3641515e-08
2.3741538e-08
2.3843704e-08
2.3947238e-08
2.405062e-08
2.415202e-08
2.4250153e-08
2.4343614e-08
2.443055e-08
2.4509242e-08
2.457795e-08
2.4635239e-08
2.468045e-08
2.4712842e-08
2.4731728e-08
2.4737679e-08
2.4731582e-08
2.4714254e-08
2.4687148e-08
2.4651886e-08
2.4610138e-08
2.4563668e-08
2.4513894e-08
2.4462365e-08
2.4410602e-08
2.4359796e-08
2.4310792e-08
2.4264354e-08
2.4220911e-08
2.4180713e-08
2.4144066e-08
2.411061e-08
2.4080684e-08
2.4053687e-08
2.4029727e-08
2.4008279e-08
2.3989434e-08
2.3970928e-08
2.2798543e-08
2.2862602e-08
2.2929262e-08
2.2998908e-08
2.3072415e-08
2.3150067e-08
2.3232132e-08
2.3318669e-08
2.3409914e-08
2.3505286e-08
2.3605043e-08
2.370897e-08
2.3816152e-08
2.3925558e-08
2.4036327e-08
2.4146806e-08
2.4254999e-08
2.4359479e-08
2.4458702e-08
2.4550651e-08
2.4633445e-08
2.4705199e-08
2.4764354e-08
2.481015e-08
2.4841756e-08
2.4858425e-08
2.4860784e-08
2.4849762e-08
2.4826221e-08
2.479169e-08
2.4747961e-08
2.4696856e-08
2.46403e-08
2.4579785e-08
2.4516977e-08
2.4453595e-08
2.4391018e-08
2.433013e-08
2.4271836e-08
2.4216743e-08
2.4165096e-08
2.4117112e-08
2.407272e-08
2.4032054e-08
2.399472e-08
2.3960687e-08
2.3929498e-08
2.3901161e-08
2.3873852e-08
2.2817053e-08
2.2884827e-08
2.2955624e-08
2.3029702e-08
2.3108072e-08
2.3190988e-08
2.3278743e-08
2.3371356e-08
2.3469091e-08
2.3571289e-08
2.3678197e-08
2.3789559e-08
2.390438e-08
2.4021524e-08
2.4140035e-08
2.4258122e-08
2.4373626e-08
2.4484967e-08
2.4590451e-08
2.4687889e-08
2.4775236e-08
2.4850455e-08
2.4911859e-08
2.4958585e-08
2.4989719e-08
2.5004456e-08
2.5003475e-08
2.4987754e-08
2.4958202e-08
2.4916472e-08
2.4864495e-08
2.4804235e-08
2.4737788e-08
2.4666751e-08
2.4592924e-08
2.451822e-08
2.4444195e-08
2.4371789e-08
2.4302043e-08
2.4235721e-08
2.4173082e-08
2.4114283e-08
2.4059488e-08
2.400868e-08
2.3961625e-08
2.3918186e-08
2.3877963e-08
2.3840886e-08
2.3805511e-08
2.28445e-08
2.2916203e-08
2.299138e-08
2.3070174e-08
2.315371e-08
2.3242223e-08
2.3336025e-08
2.3435103e-08
2.3539741e-08
2.3649211e-08
2.3763742e-08
2.3883032e-08
2.4006e-08
2.4131408e-08
2.4258194e-08
2.4384427e-08
2.4507777e-08
2.4626506e-08
2.4738756e-08
2.4842161e-08
2.4934504e-08
2.501359e-08
2.50776e-08
2.5125568e-08
2.5156494e-08
2.5169525e-08
2.5165387e-08
2.5145109e-08
2.5109663e-08
2.5060828e-08
2.5000678e-08
2.4931333e-08
2.4855064e-08
2.4773593e-08
2.4688863e-08
2.4602975e-08
2.4517661e-08
2.4433934e-08
2.4352967e-08
2.4275665e-08
2.4202317e-08
2.4133043e-08
2.4068203e-08
2.4007663e-08
2.3951319e-08
2.3898954e-08
2.385021e-08
2.3804943e-08
2.3762045e-08
2.2880599e-08
2.2956468e-08
2.3036294e-08
2.3120109e-08
2.3209143e-08
2.3303613e-08
2.3403849e-08
2.3509812e-08
2.36218e-08
2.373902e-08
2.3861679e-08
2.3989422e-08
2.4121082e-08
2.4255313e-08
2.4390939e-08
2.4525881e-08
2.4657638e-08
2.4784298e-08
2.4903833e-08
2.5013689e-08
2.511147e-08
2.5194817e-08
2.5261773e-08
2.5311264e-08
2.5342211e-08
2.5353713e-08
2.5346539e-08
2.5321777e-08
2.5280474e-08
2.5224537e-08
2.5156194e-08
2.5077726e-08
2.4991586e-08
2.4899638e-08
2.4803982e-08
2.4706907e-08
2.4610317e-08
2.4515316e-08
2.4423204e-08
2.4335023e-08
2.4251098e-08
2.4171535e-08
2.4096852e-08
2.4026834e-08
2.3961479e-08
2.3900506e-08
2.3843592e-08
2.3790524e-08
2.3740492e-08
2.2925292e-08
2.3005586e-08
2.3090359e-08
2.3179527e-08
2.3274417e-08
2.3375233e-08
2.3482325e-08
2.3595626e-08
2.3715446e-08
2.3840933e-08
2.3972262e-08
2.4109022e-08
2.4249956e-08
2.4393606e-08
2.4538671e-08
2.4682921e-08
2.4823671e-08
2.4958831e-08
2.5086186e-08
2.5202988e-08
2.5306653e-08
2.5394651e-08
2.5464882e-08
2.5516158e-08
2.5547323e-08
2.5557432e-08
2.5547295e-08
2.5518063e-08
2.5470868e-08
2.5407754e-08
2.5331107e-08
2.5243379e-08
2.5147214e-08
2.5044634e-08
2.4937909e-08
2.4829517e-08
2.4721537e-08
2.4615178e-08
2.4511866e-08
2.4412773e-08
2.431827e-08
2.4228465e-08
2.4144012e-08
2.4064632e-08
2.3990409e-08
2.3921011e-08
2.3856144e-08
2.3795525e-08
2.3738613e-08
2.2978723e-08
2.306373e-08
2.3153773e-08
2.3248653e-08
2.3349789e-08
2.3457376e-08
2.3571778e-08
2.369291e-08
2.3821084e-08
2.3955393e-08
2.4095977e-08
2.4242361e-08
2.4393193e-08
2.4546898e-08
2.4702044e-08
2.4856235e-08
2.5006599e-08
2.5150854e-08
2.5286588e-08
2.5410847e-08
2.5520851e-08
2.5613892e-08
2.5687719e-08
2.5741027e-08
2.5772583e-08
2.57814e-08
2.576833e-08
2.5734591e-08
2.5681409e-08
2.5610971e-08
2.5525828e-08
2.5428617e-08
2.5322178e-08
2.520871e-08
2.5090663e-08
2.4970713e-08
2.4851115e-08
2.4733194e-08
2.4618508e-08
2.4508352e-08
2.4403153e-08
2.4303033e-08
2.4208762e-08
2.4120015e-08
2.4036949e-08
2.3959189e-08
2.3886464e-08
2.3818423e-08
2.3754774e-08
2.3041226e-08
2.3131259e-08
2.3226928e-08
2.3327911e-08
2.3435718e-08
2.3550535e-08
2.3672744e-08
2.380224e-08
2.3939333e-08
2.4083066e-08
2.4233535e-08
2.4390196e-08
2.45516e-08
2.4716043e-08
2.4881953e-08
2.5046761e-08
2.5207398e-08
2.5361376e-08
2.5506073e-08
2.5638321e-08
2.5755132e-08
2.5853613e-08
2.5931354e-08
2.5986932e-08
2.6019033e-08
2.6026632e-08
2.6010621e-08
2.597229e-08
2.5912972e-08
2.5834998e-08
2.5741098e-08
2.5634098e-08
2.5517049e-08
2.5392343e-08
2.5262624e-08
2.5130771e-08
2.4999221e-08
2.4869429e-08
2.4743086e-08
2.4621609e-08
2.4505488e-08
2.4394869e-08
2.4290625e-08
2.41924e-08
2.410041e-08
2.4014245e-08
2.3933654e-08
2.3858218e-08
2.3787877e-08
2.3113321e-08
2.3208723e-08
2.3310406e-08
2.3417918e-08
2.3532859e-08
2.3655408e-08
2.3785963e-08
2.39244e-08
2.407103e-08
2.4224838e-08
2.4385873e-08
2.4553519e-08
2.4726219e-08
2.4902135e-08
2.5079544e-08
2.5255692e-08
2.54273e-08
2.5591666e-08
2.5745942e-08
2.5886733e-08
2.6010837e-08
2.6115164e-08
2.619714e-08
2.6255218e-08
2.6288001e-08
2.6294432e-08
2.6275439e-08
2.6232394e-08
2.6166738e-08
2.608096e-08
2.5977971e-08
2.5860804e-08
2.5732729e-08
2.5596348e-08
2.5454514e-08
2.5310318e-08
2.5166387e-08
2.5024313e-08
2.4885929e-08
2.4752773e-08
2.4625404e-08
2.4504001e-08
2.438953e-08
2.4281615e-08
2.4180523e-08
2.4085813e-08
2.3997251e-08
2.3914349e-08
2.3837271e-08
2.3195713e-08
2.3296861e-08
2.3404984e-08
2.3519489e-08
2.3642069e-08
2.3772897e-08
2.3912387e-08
2.4060398e-08
2.4217232e-08
2.4381824e-08
2.4554166e-08
2.4733562e-08
2.4918341e-08
2.5106524e-08
2.5296221e-08
2.5484484e-08
2.5667811e-08
2.5843269e-08
2.6007774e-08
2.6157692e-08
2.6289593e-08
2.6400183e-08
2.6486719e-08
2.6547523e-08
2.6581114e-08
2.6586404e-08
2.6564362e-08
2.6516441e-08
2.6444201e-08
2.6350294e-08
2.6237823e-08
2.6110038e-08
2.5970445e-08
2.5821871e-08
2.5667394e-08
2.5510325e-08
2.535349e-08
2.5198633e-08
2.5047728e-08
2.490244e-08
2.4763402e-08
2.4630836e-08
2.4505791e-08
2.4387881e-08
2.4277418e-08
2.4173935e-08
2.4077212e-08
2.3986691e-08
2.3902755e-08
2.3289309e-08
2.3396615e-08
2.3511645e-08
2.3633653e-08
2.3764425e-08
2.390413e-08
2.4053198e-08
2.4211471e-08
2.4379243e-08
2.4555388e-08
2.4739844e-08
2.4931822e-08
2.512953e-08
2.5330835e-08
2.5533671e-08
2.573488e-08
2.5930725e-08
2.6118026e-08
2.6293449e-08
2.6453107e-08
2.6593333e-08
2.6710619e-08
2.6802045e-08
2.6865799e-08
2.6900314e-08
2.6904475e-08
2.6879288e-08
2.6826296e-08
2.6747184e-08
2.6644772e-08
2.6522366e-08
2.6383446e-08
2.6231769e-08
2.6070405e-08
2.5902674e-08
2.5732117e-08
2.5561767e-08
2.5393532e-08
2.5229535e-08
2.507157e-08
2.492035e-08
2.4776146e-08
2.4640091e-08
2.451179e-08
2.43916e-08
2.4279028e-08
2.4173869e-08
2.4075489e-08
2.3984495e-08
2.3395231e-08
2.3509149e-08
2.3631601e-08
2.376167e-08
2.3901241e-08
2.405048e-08
2.4209834e-08
2.4379123e-08
2.4558632e-08
2.4747173e-08
2.494462e-08
2.5150085e-08
2.5361644e-08
2.5577001e-08
2.5793895e-08
2.6008946e-08
2.6218164e-08
2.6418109e-08
2.6605179e-08
2.6775224e-08
2.6924327e-08
2.7048757e-08
2.7145413e-08
2.7212341e-08
2.7247888e-08
2.7250915e-08
2.7222466e-08
2.7164177e-08
2.7077864e-08
2.6966521e-08
2.6833669e-08
2.6683033e-08
2.6518637e-08
2.6343812e-08
2.6162134e-08
2.597739e-08
2.5792829e-08
2.5610532e-08
2.5432781e-08
2.5261499e-08
2.5097492e-08
2.4941086e-08
2.4793492e-08
2.4654318e-08
2.4523958e-08
2.4401901e-08
2.4287954e-08
2.4181403e-08
2.4083087e-08
2.3514846e-08
2.3635877e-08
2.3766319e-08
2.3905065e-08
2.4054106e-08
2.4213602e-08
2.4384016e-08
2.4565151e-08
2.4757275e-08
2.4959136e-08
2.5170533e-08
2.5390473e-08
2.5616889e-08
2.5847304e-08
2.6079251e-08
2.6309108e-08
2.6532618e-08
2.6746061e-08
2.6945554e-08
2.7126667e-08
2.7285225e-08
2.7417267e-08
2.7519499e-08
2.7589827e-08
2.7626509e-08
2.7628384e-08
2.7596533e-08
2.7532691e-08
2.7438811e-08
2.7318065e-08
2.7174202e-08
2.7011207e-08
2.6833389e-08
2.6644359e-08
2.6447966e-08
2.6248254e-08
2.6048697e-08
2.5851563e-08
2.5659298e-08
2.5473967e-08
2.5296469e-08
2.5127197e-08
2.4967441e-08
2.4816816e-08
2.4675755e-08
2.4543727e-08
2.4420551e-08
2.430543e-08
2.4199448e-08
2.3649806e-08
2.3778502e-08
2.3917566e-08
2.406567e-08
2.4224922e-08
2.4395474e-08
2.4577808e-08
2.4771702e-08
2.4977406e-08
2.5193601e-08
2.542e-08
2.5655496e-08
2.5897863e-08
2.6144431e-08
2.6392509e-08
2.6638213e-08
2.6877001e-08
2.7104855e-08
2.7317593e-08
2.7510494e-08
2.7679113e-08
2.781925e-08
2.7927415e-08
2.8001372e-08
2.8039285e-08
2.8039977e-08
2.8004566e-08
2.793489e-08
2.783304e-08
2.7702376e-08
2.7546883e-08
2.7370826e-08
2.7178818e-08
2.697477e-08
2.6762818e-08
2.6547271e-08
2.6331845e-08
2.6119002e-08
2.5911365e-08
2.5711146e-08
2.5519351e-08
2.5336446e-08
2.5163805e-08
2.5001055e-08
2.4848669e-08
2.4706099e-08
2.4573178e-08
2.4449017e-08
2.4334965e-08
2.3802092e-08
2.3939072e-08
2.408746e-08
2.4245682e-08
2.4415968e-08
2.4598463e-08
2.4793666e-08
2.5001331e-08
2.5221684e-08
2.5453328e-08
2.5695886e-08
2.5948121e-08
2.6207637e-08
2.6471549e-08
2.6736925e-08
2.69996e-08
2.7254724e-08
2.7497962e-08
2.7724818e-08
2.7930265e-08
2.8109577e-08
2.8258311e-08
2.8372777e-08
2.8450591e-08
2.8489829e-08
2.8489295e-08
2.8450149e-08
2.8374332e-08
2.8264077e-08
2.8122937e-08
2.7955145e-08
2.7765269e-08
2.7558245e-08
2.7338298e-08
2.7109863e-08
2.6877532e-08
2.6645266e-08
2.6415736e-08
2.6191757e-08
2.5975697e-08
2.5768681e-08
2.557126e-08
2.5384895e-08
2.5209234e-08
2.5044788e-08
2.4890997e-08
2.4747708e-08
2.4613933e-08
2.4491309e-08
2.3974083e-08
2.4120038e-08
2.4278538e-08
2.4447727e-08
2.4629968e-08
2.4825398e-08
2.5034529e-08
2.5257088e-08
2.5493273e-08
2.5741601e-08
2.6001593e-08
2.6271867e-08
2.6549839e-08
2.6832395e-08
2.7116334e-08
2.7397192e-08
2.7669787e-08
2.7929448e-08
2.8171344e-08
2.8390131e-08
2.8580795e-08
2.8738643e-08
2.8859784e-08
2.8941685e-08
2.8982336e-08
2.8980525e-08
2.8937453e-08
2.8855169e-08
2.8736045e-08
2.8583831e-08
2.8403029e-08
2.8198527e-08
2.7975601e-08
2.7738807e-08
2.7492891e-08
2.724273e-08
2.6992546e-08
2.6745236e-08
2.6503817e-08
2.6270834e-08
2.6047541e-08
2.583459e-08
2.5633537e-08
2.5444057e-08
2.5266708e-08
2.5100916e-08
2.4946548e-08
2.4802506e-08
2.4670746e-08
2.416863e-08
2.4324339e-08
2.4493843e-08
2.4674955e-08
2.4870188e-08
2.5079665e-08
2.5303911e-08
2.5542622e-08
2.5795958e-08
2.6062341e-08
2.6341175e-08
2.6630919e-08
2.6928782e-08
2.7231396e-08
2.753527e-08
2.7835616e-08
2.8126897e-08
2.8404082e-08
2.8661991e-08
2.8894949e-08
2.9097645e-08
2.9265135e-08
2.939333e-08
2.9479548e-08
2.9521695e-08
2.9518547e-08
2.9471346e-08
2.9382249e-08
2.9253767e-08
2.9089851e-08
2.8895289e-08
2.867531e-08
2.8435548e-08
2.8180895e-08
2.7916412e-08
2.7647273e-08
2.7377972e-08
2.711165e-08
2.685155e-08
2.6600408e-08
2.6359632e-08
2.6129987e-08
2.5913133e-08
2.5708784e-08
2.5517546e-08
2.5338833e-08
2.5172533e-08
2.5017431e-08
2.487584e-08
2.4389156e-08
2.4555506e-08
2.4737027e-08
2.493115e-08
2.5140552e-08
2.5365334e-08
2.5606037e-08
2.5862313e-08
2.613428e-08
2.6420248e-08
2.6719491e-08
2.7030285e-08
2.7349611e-08
2.7673824e-08
2.799912e-08
2.8320355e-08
2.8631616e-08
2.8927492e-08
2.9202431e-08
2.9450417e-08
2.9665841e-08
2.984351e-08
2.9979136e-08
3.0069896e-08
3.0113616e-08
3.0109064e-08
3.0057522e-08
2.9961257e-08
2.9822907e-08
2.9646635e-08
2.9437536e-08
2.9201198e-08
2.8943619e-08
2.8670028e-08
2.8385802e-08
2.8096416e-08
2.7806659e-08
2.7519937e-08
2.7239747e-08
2.6969045e-08
2.6709411e-08