/*--------------------------------*- C++ -*----------------------------------*\
| =========                 |                                                 |
| \\      /  F ield         | OpenFOAM: The Open Source CFD Toolbox           |
|  \\    /   O peration     | Version:  v2006                                 |
|   \\  /    A nd           | Website:  www.openfoam.com                      |
|    \\/     M anipulation  |                                                 |
\*---------------------------------------------------------------------------*/
FoamFile
{
    version     2.0;
    format      ascii;
    class       volScalarField;
    location    "3500";
    object      nut;
}
// * * * * * * * * * * * * * * * * * * * * * * * * * * * * * * * * * * * * * //

dimensions      [0 2 -1 0 0 0 0];


internalField   nonuniform List<scalar> 
19765
(
9.7765599e-06
9.7712759e-06
9.4779607e-06
9.5306275e-06
9.5278211e-06
9.6834874e-06
9.5982519e-06
9.7722682e-06
9.7418183e-06
9.5523519e-06
9.6564865e-06
1.003563e-05
1.0257482e-05
1.044951e-05
1.0853073e-05
1.1024282e-05
1.0977562e-05
1.1133549e-05
1.1551175e-05
1.1917092e-05
1.2164662e-05
1.229034e-05
1.251143e-05
1.2650345e-05
1.2743856e-05
1.2801796e-05
1.2831736e-05
1.2773352e-05
1.27964e-05
1.2682633e-05
1.2456908e-05
1.2168231e-05
1.220512e-05
1.2356634e-05
1.2218498e-05
1.1883474e-05
1.1872341e-05
1.1814778e-05
1.1541883e-05
1.1637192e-05
1.2018948e-05
1.2178106e-05
1.213943e-05
1.2457826e-05
1.2351204e-05
1.2590114e-05
1.2599398e-05
1.2572812e-05
1.2443657e-05
5.4189683e-05
5.6821737e-05
5.9035746e-05
6.0822012e-05
6.2979724e-05
6.5187501e-05
6.741242e-05
6.9635722e-05
7.1927298e-05
7.3939997e-05
7.6315148e-05
7.890005e-05
8.1120594e-05
8.3106898e-05
8.514864e-05
8.6399049e-05
8.670885e-05
8.7310997e-05
8.8561364e-05
9.0065965e-05
9.1503337e-05
9.2474404e-05
9.3308182e-05
9.4373733e-05
9.5417065e-05
9.5939788e-05
9.618301e-05
9.6509034e-05
9.6755695e-05
9.68047e-05
9.6740414e-05
9.6609839e-05
9.6629902e-05
9.6496301e-05
9.5866055e-05
9.4944435e-05
9.4133777e-05
9.3028586e-05
9.1636291e-05
9.0612739e-05
8.971369e-05
8.7688338e-05
8.5527638e-05
8.1875311e-05
7.9273035e-05
7.3115398e-05
6.6255422e-05
5.9414464e-05
5.4303871e-05
1.5984621e-05
1.5313751e-05
1.4837589e-05
1.5079998e-05
1.5200294e-05
1.5315846e-05
1.5251185e-05
1.5414467e-05
1.5317259e-05
1.5464259e-05
1.5706016e-05
1.5744547e-05
1.5577924e-05
1.5410688e-05
1.5123357e-05
1.468042e-05
1.432615e-05
1.4087502e-05
1.3906442e-05
1.3759971e-05
1.3703928e-05
1.375853e-05
1.3783838e-05
1.3844217e-05
1.4142274e-05
1.4692685e-05
1.5201455e-05
1.5719557e-05
1.6461706e-05
1.7256599e-05
1.802812e-05
1.8745177e-05
1.938896e-05
2.0389345e-05
2.163728e-05
2.2679617e-05
2.3493054e-05
2.4561737e-05
2.5385507e-05
2.5811292e-05
2.653442e-05
2.778701e-05
2.8432401e-05
2.9616023e-05
3.0405574e-05
3.2624863e-05
3.5508584e-05
3.8901251e-05
4.1256137e-05
6.2467285e-07
5.5914189e-07
5.212439e-07
5.1582628e-07
5.0836866e-07
5.0161783e-07
4.901549e-07
4.8621769e-07
4.7519057e-07
4.7023238e-07
4.6756303e-07
4.5955365e-07
4.4656117e-07
4.3469139e-07
4.2157562e-07
4.0629101e-07
3.9474843e-07
3.8720112e-07
3.8088698e-07
3.7475904e-07
3.7217524e-07
3.7435886e-07
3.7532943e-07
3.773864e-07
3.8560369e-07
4.0100878e-07
4.1715977e-07
4.35252e-07
4.6056045e-07
4.89663e-07
5.2107155e-07
5.5386449e-07
5.8769854e-07
6.3559652e-07
6.9657226e-07
7.5756361e-07
8.1780331e-07
8.9393166e-07
9.6651273e-07
1.0295838e-06
1.1147884e-06
1.2361313e-06
1.3441472e-06
1.5115781e-06
1.6743806e-06
1.9089476e-06
2.1948053e-06
2.5586077e-06
2.9889958e-06
1.6339912e-07
1.6288873e-07
1.6316576e-07
1.6508425e-07
1.6677457e-07
1.6838413e-07
1.6945513e-07
1.7103532e-07
1.7185782e-07
1.7316796e-07
1.7477831e-07
1.7589709e-07
1.765092e-07
1.7723404e-07
1.7773138e-07
1.7782201e-07
1.7824271e-07
1.7910013e-07
1.7984375e-07
1.8046817e-07
1.8146639e-07
1.8284149e-07
1.8411616e-07
1.8557779e-07
1.8770831e-07
1.9071767e-07
1.9385393e-07
1.97133e-07
2.0111565e-07
2.0534859e-07
2.0959725e-07
2.1373726e-07
2.1761567e-07
2.2243279e-07
2.2791789e-07
2.3278407e-07
2.3696066e-07
2.4174385e-07
2.4568784e-07
2.485233e-07
2.5228982e-07
2.5721501e-07
2.6076838e-07
2.6627193e-07
2.7085319e-07
2.7701884e-07
2.8302725e-07
2.8757272e-07
2.9193896e-07
1.4134437e-07
1.4149338e-07
1.4198236e-07
1.4314652e-07
1.4405099e-07
1.4496042e-07
1.4566246e-07
1.4657206e-07
1.4714057e-07
1.4801207e-07
1.4885174e-07
1.4941462e-07
1.4981217e-07
1.5025709e-07
1.5057838e-07
1.5082749e-07
1.5131515e-07
1.5198749e-07
1.5261026e-07
1.5323049e-07
1.5398886e-07
1.5486552e-07
1.5591581e-07
1.5716643e-07
1.5874596e-07
1.6081516e-07
1.6305605e-07
1.6538424e-07
1.6806894e-07
1.7097689e-07
1.7397294e-07
1.7701324e-07
1.7990154e-07
1.8308867e-07
1.8667342e-07
1.902259e-07
1.9338237e-07
1.9668937e-07
1.9983496e-07
2.0239414e-07
2.0488406e-07
2.0815656e-07
2.1078212e-07
2.1424896e-07
2.1743152e-07
2.2125783e-07
2.2539397e-07
2.298715e-07
2.3380571e-07
1.2426014e-07
1.2419437e-07
1.2432707e-07
1.2486197e-07
1.2527069e-07
1.2569596e-07
1.2602364e-07
1.2648516e-07
1.2677434e-07
1.2724705e-07
1.2772616e-07
1.2806199e-07
1.2831402e-07
1.2860321e-07
1.2883106e-07
1.2902207e-07
1.2936294e-07
1.2983496e-07
1.303027e-07
1.3079001e-07
1.3136186e-07
1.3200397e-07
1.3275274e-07
1.3364918e-07
1.3476444e-07
1.3617671e-07
1.3769691e-07
1.3929764e-07
1.4113693e-07
1.4312774e-07
1.4519457e-07
1.4730514e-07
1.4935393e-07
1.5160505e-07
1.5410282e-07
1.5658513e-07
1.5885693e-07
1.6122894e-07
1.6351202e-07
1.6546432e-07
1.6740394e-07
1.6976931e-07
1.7177327e-07
1.7422196e-07
1.7649265e-07
1.7907526e-07
1.8176604e-07
1.8458399e-07
1.8713463e-07
1.1527196e-07
1.1522329e-07
1.1529354e-07
1.1560762e-07
1.1584426e-07
1.1609001e-07
1.1627724e-07
1.1654212e-07
1.1670771e-07
1.1698162e-07
1.1726057e-07
1.1746237e-07
1.176234e-07
1.1781297e-07
1.1797728e-07
1.1813377e-07
1.1838804e-07
1.1872868e-07
1.1908245e-07
1.1946778e-07
1.1992043e-07
1.204296e-07
1.2103302e-07
1.2174936e-07
1.2261281e-07
1.2367174e-07
1.2481801e-07
1.2603667e-07
1.2742286e-07
1.2892581e-07
1.3049951e-07
1.3212359e-07
1.33732e-07
1.3548253e-07
1.3740652e-07
1.3934607e-07
1.4117462e-07
1.4307828e-07
1.4494522e-07
1.4661981e-07
1.4828873e-07
1.5024306e-07
1.5198939e-07
1.5403999e-07
1.5601147e-07
1.5822214e-07
1.6055816e-07
1.630445e-07
1.6541044e-07
1.0885328e-07
1.0878812e-07
1.0879881e-07
1.0896694e-07
1.0909045e-07
1.0922331e-07
1.0932373e-07
1.0947554e-07
1.0957028e-07
1.0973522e-07
1.0990734e-07
1.100374e-07
1.1014827e-07
1.1028207e-07
1.1040671e-07
1.1053407e-07
1.1072891e-07
1.1098465e-07
1.1125779e-07
1.1156043e-07
1.1191224e-07
1.123046e-07
1.1276262e-07
1.133054e-07
1.1395449e-07
1.1473724e-07
1.155869e-07
1.1649653e-07
1.1752572e-07
1.186425e-07
1.198189e-07
1.2104153e-07
1.2226924e-07
1.235996e-07
1.2505079e-07
1.2652186e-07
1.2793353e-07
1.2940081e-07
1.3085154e-07
1.3218508e-07
1.3352051e-07
1.3503526e-07
1.3641851e-07
1.379891e-07
1.3950341e-07
1.4115866e-07
1.4287814e-07
1.4467255e-07
1.4636589e-07
1.0464484e-07
1.0459551e-07
1.0459338e-07
1.0469375e-07
1.0476483e-07
1.0484232e-07
1.048997e-07
1.0499078e-07
1.0504723e-07
1.0515021e-07
1.0525976e-07
1.05346e-07
1.0542409e-07
1.0552061e-07
1.0561609e-07
1.0571915e-07
1.058706e-07
1.0606644e-07
1.0628043e-07
1.065212e-07
1.0680163e-07
1.0711632e-07
1.0748106e-07
1.0790999e-07
1.0841802e-07
1.0902179e-07
1.09679e-07
1.1038637e-07
1.111836e-07
1.1205049e-07
1.1296901e-07
1.1393025e-07
1.1490685e-07
1.1596249e-07
1.1711021e-07
1.1828352e-07
1.1942806e-07
1.2061884e-07
1.2180828e-07
1.2292663e-07
1.240505e-07
1.2530348e-07
1.2647446e-07
1.2778091e-07
1.2905926e-07
1.304466e-07
1.3189448e-07
1.3341836e-07
1.3488455e-07
1.0164421e-07
1.0160496e-07
1.0159672e-07
1.0165804e-07
1.0170041e-07
1.0174784e-07
1.0178293e-07
1.0184128e-07
1.0187833e-07
1.0194755e-07
1.0202285e-07
1.0208535e-07
1.0214538e-07
1.0222029e-07
1.0229779e-07
1.023841e-07
1.0250588e-07
1.0266069e-07
1.0283204e-07
1.0302588e-07
1.0325073e-07
1.0350317e-07
1.03793e-07
1.0413108e-07
1.0452906e-07
1.0499716e-07
1.0550756e-07
1.0605905e-07
1.0667861e-07
1.0735295e-07
1.0807022e-07
1.0882434e-07
1.0959707e-07
1.1043088e-07
1.1133457e-07
1.1226294e-07
1.131788e-07
1.1413169e-07
1.1508878e-07
1.1600111e-07
1.1692016e-07
1.1792791e-07
1.1888086e-07
1.1992455e-07
1.2094753e-07
1.2204132e-07
1.2317179e-07
1.2434817e-07
1.2547505e-07
9.9495417e-08
9.946941e-08
9.9463292e-08
9.9504831e-08
9.9533375e-08
9.9565682e-08
9.9590127e-08
9.9630878e-08
9.965828e-08
9.9708444e-08
9.976396e-08
9.9812714e-08
9.9861919e-08
9.9923205e-08
9.9988663e-08
1.0006286e-07
1.0016362e-07
1.0028938e-07
1.004296e-07
1.0058848e-07
1.0077189e-07
1.0097796e-07
1.0121284e-07
1.014842e-07
1.0180147e-07
1.0217129e-07
1.0257488e-07
1.0301219e-07
1.0350219e-07
1.0403593e-07
1.0460537e-07
1.0520662e-07
1.0582748e-07
1.064974e-07
1.0722293e-07
1.0797259e-07
1.0871975e-07
1.0949822e-07
1.1028492e-07
1.1104427e-07
1.1181112e-07
1.1264424e-07
1.1344144e-07
1.1430594e-07
1.15159e-07
1.1606638e-07
1.170047e-07
1.1798373e-07
1.1892829e-07
9.7914556e-08
9.7898966e-08
9.7896484e-08
9.7927498e-08
9.7949611e-08
9.7974698e-08
9.799484e-08
9.8026785e-08
9.8050382e-08
9.8090541e-08
9.8135419e-08
9.8177075e-08
9.8220624e-08
9.8274017e-08
9.8332037e-08
9.8398044e-08
9.8484167e-08
9.8589399e-08
9.8706827e-08
9.8839411e-08
9.8991216e-08
9.9161299e-08
9.9353521e-08
9.9573283e-08
9.9828326e-08
1.00123e-07
1.0044448e-07
1.0079338e-07
1.0118305e-07
1.0160711e-07
1.0206029e-07
1.0254058e-07
1.0303999e-07
1.0357916e-07
1.0416262e-07
1.0476785e-07
1.0537551e-07
1.0600884e-07
1.0665121e-07
1.0727645e-07
1.0790876e-07
1.0858928e-07
1.0924495e-07
1.0994825e-07
1.1064288e-07
1.113749e-07
1.1212719e-07
1.1290664e-07
1.1365608e-07
9.6733722e-08
9.6727714e-08
9.6730184e-08
9.6756442e-08
9.6776483e-08
9.6798921e-08
9.6818292e-08
9.684641e-08
9.6869391e-08
9.6904694e-08
9.6944157e-08
9.6982518e-08
9.7023442e-08
9.7072439e-08
9.7126006e-08
9.7186604e-08
9.7262579e-08
9.7353248e-08
9.7453985e-08
9.7566877e-08
9.7694762e-08
9.7837192e-08
9.7996624e-08
9.817685e-08
9.8384165e-08
9.862149e-08
9.8880002e-08
9.9160705e-08
9.9472727e-08
9.9811528e-08
1.0017444e-07
1.005611e-07
1.0096606e-07
1.014036e-07
1.0187672e-07
1.0236901e-07
1.0286621e-07
1.0338478e-07
1.0391269e-07
1.0443043e-07
1.0495494e-07
1.0551635e-07
1.0606096e-07
1.0664148e-07
1.0721671e-07
1.078204e-07
1.0844003e-07
1.0908199e-07
1.0970007e-07
9.583992e-08
9.584169e-08
9.5848997e-08
9.587352e-08
9.5893751e-08
9.5916024e-08
9.593653e-08
9.5963728e-08
9.5987927e-08
9.6021524e-08
9.6058839e-08
9.6096341e-08
9.6136663e-08
9.6183652e-08
9.623491e-08
9.6292204e-08
9.6361308e-08
9.6441724e-08
9.6530279e-08
9.662841e-08
9.6738086e-08
9.6859085e-08
9.6992956e-08
9.7142362e-08
9.7312388e-08
9.7505014e-08
9.771418e-08
9.7941e-08
9.819111e-08
9.846204e-08
9.875377e-08
9.9066605e-08
9.9395883e-08
9.9751102e-08
1.0013427e-07
1.0053357e-07
1.0093862e-07
1.0136133e-07
1.0179291e-07
1.022187e-07
1.0265073e-07
1.031108e-07
1.0355918e-07
1.0403404e-07
1.045049e-07
1.0499609e-07
1.0549811e-07
1.0601582e-07
1.0651255e-07
9.5154991e-08
9.51635e-08
9.5175569e-08
9.5200254e-08
9.5222025e-08
9.5245614e-08
9.5268354e-08
9.5296374e-08
9.5322855e-08
9.5356679e-08
9.5393874e-08
9.5432054e-08
9.54731e-08
9.5519702e-08
9.5570178e-08
9.5625759e-08
9.5690418e-08
9.5763753e-08
9.5843525e-08
9.5930674e-08
9.6026532e-08
9.6130956e-08
9.6244889e-08
9.6370194e-08
9.651094e-08
9.6668481e-08
9.6838698e-08
9.7022517e-08
9.7222647e-08
9.7439977e-08
9.7676328e-08
9.7930728e-08
9.8198325e-08
9.8485804e-08
9.879516e-08
9.9118182e-08
9.9447413e-08
9.9791605e-08
1.001443e-07
1.0049433e-07
1.0085024e-07
1.0122813e-07
1.0159817e-07
1.0198847e-07
1.0237621e-07
1.0277935e-07
1.0319065e-07
1.0361431e-07
1.0402028e-07
9.4625841e-08
9.4639988e-08
9.4656444e-08
9.4682318e-08
9.4706319e-08
9.4732031e-08
9.4757578e-08
9.4787451e-08
9.4816819e-08
9.4852085e-08
9.4890467e-08
9.4930339e-08
9.4973027e-08
9.5020391e-08
9.5071219e-08
9.5126315e-08
9.5188363e-08
9.5257001e-08
9.5330587e-08
9.5409668e-08
9.5495089e-08
9.5586705e-08
9.5685032e-08
9.5791358e-08
9.59089e-08
9.6038595e-08
9.6177678e-08
9.6326559e-08
9.6485794e-08
9.6661551e-08
9.6854417e-08
9.7060391e-08
9.7275564e-08
9.750598e-08
9.775395e-08
9.8013772e-08
9.8279987e-08
9.8559002e-08
9.8845962e-08
9.9132278e-08
9.9423996e-08
9.9732931e-08
1.0003656e-07
1.0035554e-07
1.0067263e-07
1.0100099e-07
1.0133495e-07
1.0167786e-07
1.0200528e-07
9.4213713e-08
9.4232774e-08
9.4253344e-08
9.4281069e-08
9.4307727e-08
9.4336063e-08
9.4364764e-08
9.4397148e-08
9.4429783e-08
9.4467296e-08
9.4507745e-08
9.4550015e-08
9.4595011e-08
9.4643989e-08
9.4696041e-08
9.4751625e-08
9.4812485e-08
9.4878257e-08
9.4947677e-08
9.5020974e-08
9.5098607e-08
9.5180384e-08
9.5266503e-08
9.5357847e-08
9.5456904e-08
9.5564332e-08
9.5678288e-08
9.5798406e-08
9.5924402e-08
9.6068944e-08
9.6225876e-08
9.6389465e-08
9.6559927e-08
9.6742985e-08
9.6940529e-08
9.7148458e-08
9.7362743e-08
9.7588053e-08
9.7820685e-08
9.8053981e-08
9.8292199e-08
9.8544093e-08
9.8792546e-08
9.9052886e-08
9.9312025e-08
9.9579697e-08
9.9851473e-08
1.001302e-07
1.0039561e-07
9.3891294e-08
9.3914638e-08
9.3939022e-08
9.3968976e-08
9.3998512e-08
9.4029757e-08
9.4061801e-08
9.4097113e-08
9.4133255e-08
9.4173564e-08
9.4216694e-08
9.4261877e-08
9.4309688e-08
9.4360937e-08
9.4414907e-08
9.4471771e-08
9.453257e-08
9.4596912e-08
9.4663765e-08
9.4733089e-08
9.4805035e-08
9.4879323e-08
9.495592e-08
9.5035414e-08
9.5119668e-08
9.5209149e-08
9.5302599e-08
9.5398924e-08
9.5498993e-08
9.5619259e-08
9.5743272e-08
9.5869545e-08
9.6003595e-08
9.614773e-08
9.6303645e-08
9.6468703e-08
9.6639873e-08
9.6820431e-08
9.7007497e-08
9.7195911e-08
9.73887e-08
9.7592367e-08
9.7793889e-08
9.8004642e-08
9.8214633e-08
9.8431038e-08
9.865033e-08
9.8874823e-08
9.9087764e-08
9.3638142e-08
9.366534e-08
9.3693329e-08
9.3725776e-08
9.3758343e-08
9.3792698e-08
9.3828222e-08
9.3866762e-08
9.3906595e-08
9.3950106e-08
9.3996382e-08
9.4044881e-08
9.4095925e-08
9.4149978e-08
9.4206442e-08
9.426525e-08
9.4326905e-08
9.4390968e-08
9.4456537e-08
9.4523348e-08
9.4591293e-08
9.465998e-08
9.4729197e-08
9.4799318e-08
9.4871677e-08
9.4946597e-08
9.5023164e-08
9.5100523e-08
9.518354e-08
9.5277396e-08
9.5370432e-08
9.546799e-08
9.5573274e-08
9.5684458e-08
9.580599e-08
9.5935663e-08
9.6070737e-08
9.6213483e-08
9.6361811e-08
9.6511852e-08
9.666583e-08
9.6828639e-08
9.6990341e-08
9.7159424e-08
9.7328214e-08
9.7502028e-08
9.767803e-08
9.7858163e-08
9.802843e-08
9.3439354e-08
9.347007e-08
9.3501492e-08
9.3536605e-08
9.3572305e-08
9.3609911e-08
9.3649018e-08
9.3691013e-08
9.3734689e-08
9.3781723e-08
9.3831513e-08
9.3883667e-08
9.3938302e-08
9.3995614e-08
9.4055068e-08
9.4116392e-08
9.4179666e-08
9.4244392e-08
9.4309729e-08
9.4375216e-08
9.4440525e-08
9.4505143e-08
9.4568711e-08
9.463143e-08
9.4694208e-08
9.475724e-08
9.4819874e-08
9.488522e-08
9.4967768e-08
9.5035112e-08
9.5090845e-08
9.5163175e-08
9.5240856e-08
9.5325972e-08
9.5419821e-08
9.5519464e-08
9.5623194e-08
9.5733123e-08
9.5847966e-08
9.5964884e-08
9.6085499e-08
9.6213453e-08
9.6341136e-08
9.6474849e-08
9.6608667e-08
9.6746496e-08
9.6886028e-08
9.7028852e-08
9.7163286e-08
9.3283606e-08
9.3317622e-08
9.335237e-08
9.3390296e-08
9.3429223e-08
9.3470208e-08
9.3513002e-08
9.3558649e-08
9.3606318e-08
9.3657154e-08
9.3710775e-08
9.376689e-08
9.3825443e-08
9.3886417e-08
9.3949302e-08
9.4013647e-08
9.4079193e-08
9.4145371e-08
9.4211353e-08
9.42765e-08
9.4340295e-08
9.4402098e-08
9.4461422e-08
9.4518325e-08
9.4573378e-08
9.4626654e-08
9.4677968e-08
9.4727593e-08
9.4776132e-08
9.4825413e-08
9.4883323e-08
9.4936093e-08
9.4993476e-08
9.5055758e-08
9.512337e-08
9.5195628e-08
9.5271735e-08
9.5353346e-08
9.5439524e-08
9.5528093e-08
9.5620178e-08
9.5718467e-08
9.5817141e-08
9.592087e-08
9.602508e-08
9.6132633e-08
9.6241644e-08
9.6353433e-08
9.6458207e-08
9.3162429e-08
9.3199597e-08
9.3237608e-08
9.3278472e-08
9.3320721e-08
9.3365207e-08
9.3411799e-08
9.3461282e-08
9.35131e-08
9.356799e-08
9.3625734e-08
9.3686095e-08
9.3748876e-08
9.3813884e-08
9.3880606e-08
9.3948431e-08
9.401682e-08
9.4085124e-08
9.4152496e-08
9.4218131e-08
9.4281344e-08
9.4341368e-08
9.43976e-08
9.4449975e-08
9.4498795e-08
9.4544036e-08
9.4585639e-08
9.4624309e-08
9.4663221e-08
9.4681524e-08
9.4728034e-08
9.4769548e-08
9.4809097e-08
9.4850549e-08
9.4895969e-08
9.4945334e-08
9.4998153e-08
9.5055672e-08
9.5117276e-08
9.5181381e-08
9.5248802e-08
9.532154e-08
9.5395186e-08
9.5473185e-08
9.5552011e-08
9.5633738e-08
9.5716815e-08
9.5802323e-08
9.5882053e-08
9.3069326e-08
9.3109569e-08
9.315083e-08
9.319476e-08
9.3240437e-08
9.3288556e-08
9.3339075e-08
9.3392579e-08
9.3448716e-08
9.350791e-08
9.3570054e-08
9.3634943e-08
9.3702257e-08
9.3771651e-08
9.3842592e-08
9.3914321e-08
9.3986065e-08
9.4057085e-08
9.4126487e-08
9.4193318e-08
9.4256733e-08
9.4315843e-08
9.4369935e-08
9.4418836e-08
9.4462634e-08
9.4501206e-08
9.4534659e-08
9.4563779e-08
9.4588949e-08
9.4615238e-08
9.4636662e-08
9.4656865e-08
9.4677867e-08
9.4701145e-08
9.4727574e-08
9.4757099e-08
9.478952e-08
9.4825897e-08
9.4865945e-08
9.4908582e-08
9.4954415e-08
9.5004933e-08
9.505682e-08
9.5112599e-08
9.5169555e-08
9.5229172e-08
9.5290166e-08
9.5353418e-08
9.541204e-08
9.2999365e-08
9.3042657e-08
9.308719e-08
9.3134319e-08
9.3183545e-08
9.3235442e-08
9.3290034e-08
9.3347752e-08
9.3408396e-08
9.3472143e-08
9.3538963e-08
9.3608663e-08
9.3680813e-08
9.3754937e-08
9.3830465e-08
9.39065e-08
9.3982064e-08
9.4056326e-08
9.4128325e-08
9.4196962e-08
9.426125e-08
9.4320176e-08
9.4372921e-08
9.4419215e-08
9.4458976e-08
9.4491989e-08
9.4518483e-08
9.4539174e-08
9.4555219e-08
9.4566787e-08
9.4575898e-08
9.4583651e-08
9.4590797e-08
9.4598596e-08
9.4608189e-08
9.4620021e-08
9.4634286e-08
9.4651943e-08
9.4672963e-08
9.4696657e-08
9.4723485e-08
9.4754546e-08
9.4787381e-08
9.4823817e-08
9.486177e-08
9.4902277e-08
9.4944268e-08
9.4988451e-08
9.5029054e-08
9.2948752e-08
9.2995114e-08
9.3042978e-08
9.309345e-08
9.3146366e-08
9.3202202e-08
9.3261034e-08
9.3323175e-08
9.3388532e-08
9.3457088e-08
9.3528866e-08
9.3603667e-08
9.368096e-08
9.3760155e-08
9.3840628e-08
9.3921356e-08
9.4001175e-08
9.4079155e-08
9.4154257e-08
9.422524e-08
9.4290979e-08
9.4350342e-08
9.4402407e-08
9.4446816e-08
9.4483345e-08
9.4511696e-08
9.4532191e-08
9.4545585e-08
9.4552743e-08
9.4554843e-08
9.4552955e-08
9.4548269e-08
9.4541969e-08
9.4535396e-08
9.4529757e-08
9.4525744e-08
9.4523791e-08
9.4524766e-08
9.4528848e-08
9.4535672e-08
9.4545604e-08
9.4559461e-08
9.457546e-08
9.4594902e-08
9.46162e-08
9.4640059e-08
9.4665579e-08
9.4693322e-08
9.4718456e-08
9.29146e-08
9.2964087e-08
9.3015373e-08
9.3069346e-08
9.3126111e-08
9.3186065e-08
9.3249326e-08
9.3316111e-08
9.3386408e-08
9.3460042e-08
9.3537068e-08
9.3617267e-08
9.370002e-08
9.3784626e-08
9.3870402e-08
9.3956198e-08
9.4040684e-08
9.4122825e-08
9.4201488e-08
9.4275299e-08
9.4342998e-08
9.4403334e-08
9.4455286e-08
9.4498411e-08
9.4532367e-08
9.4556784e-08
9.4572059e-08
9.4578957e-08
9.4578357e-08
9.4571362e-08
9.4559274e-08
9.454343e-08
9.4525129e-08
9.450567e-08
9.4486311e-08
9.4467984e-08
9.4451355e-08
9.4437259e-08
9.4426064e-08
9.4417681e-08
9.441242e-08
9.4410891e-08
9.4411852e-08
9.4416204e-08
9.4422754e-08
9.4431951e-08
9.4443038e-08
9.4456444e-08
9.4468143e-08
9.2894712e-08
9.2947413e-08
9.3002238e-08
9.3059887e-08
9.3120678e-08
9.3184949e-08
9.3252849e-08
9.3324517e-08
9.3400001e-08
9.3478996e-08
9.356157e-08
9.364748e-08
9.3736018e-08
9.3826381e-08
9.3917816e-08
9.4009052e-08
9.4098601e-08
9.4185317e-08
9.4267968e-08
9.4345043e-08
9.4415153e-08
9.4476929e-08
9.4529252e-08
9.4571599e-08
9.4603529e-08
9.4624602e-08
9.4635281e-08
9.4636355e-08
9.4628676e-08
9.4613461e-08
9.4592094e-08
9.4565995e-08
9.4536603e-08
9.4505237e-08
9.447324e-08
9.4441756e-08
9.4411654e-08
9.4383767e-08
9.4358627e-08
9.4336375e-08
9.4317298e-08
9.4301855e-08
9.4289236e-08
9.4280041e-08
9.4273391e-08
9.4269541e-08
9.4267851e-08
9.4268634e-08
9.4268555e-08
9.2887446e-08
9.2943478e-08
9.3001985e-08
9.3063498e-08
9.3128514e-08
9.3197321e-08
9.327009e-08
9.3346899e-08
9.3427837e-08
9.351249e-08
9.3600929e-08
9.3692874e-08
9.3787534e-08
9.3884007e-08
9.3981462e-08
9.4078506e-08
9.4173504e-08
9.4265192e-08
9.435223e-08
9.4432972e-08
9.4505899e-08
9.4569528e-08
9.4622641e-08
9.4664639e-08
9.4694991e-08
9.4713202e-08
9.4719786e-08
9.471556e-08
9.4701382e-08
9.4678545e-08
9.4648532e-08
9.4612865e-08
9.4573113e-08
9.4530641e-08
9.4486879e-08
9.4443161e-08
9.4400542e-08
9.4359875e-08
9.4321843e-08
9.4286786e-08
9.4254989e-08
9.4226807e-08
9.4201777e-08
9.4180274e-08
9.4161668e-08
9.4146069e-08
9.4132931e-08
9.4122466e-08
9.4111931e-08
9.2891603e-08
9.2951107e-08
9.3013462e-08
9.3079047e-08
9.3148506e-08
9.3222086e-08
9.3299976e-08
9.3382204e-08
9.3468883e-08
9.355951e-08
9.3654143e-08
9.3752464e-08
9.3853597e-08
9.3956541e-08
9.4060382e-08
9.4163607e-08
9.4264432e-08
9.4361475e-08
9.4453279e-08
9.4538063e-08
9.4614179e-08
9.4680028e-08
9.4734298e-08
9.477631e-08
9.4805461e-08
9.4821198e-08
9.4824087e-08
9.4814976e-08
9.4794738e-08
9.4764751e-08
9.4726591e-08
9.4681884e-08
9.4632327e-08
9.4579348e-08
9.4524477e-08
9.4469223e-08
9.4414815e-08
9.4362148e-08
9.431204e-08
9.4265008e-08
9.422135e-08
9.4181354e-08
9.4144838e-08
9.411201e-08
9.408244e-08
9.4056126e-08
9.4032604e-08
9.4011991e-08
9.3992062e-08
9.2906348e-08
9.2969488e-08
9.3035881e-08
9.3105762e-08
9.3179902e-08
9.3258511e-08
9.3341796e-08
9.3429739e-08
9.352247e-08
9.3619402e-08
9.3720578e-08
9.382563e-08
9.3933601e-08
9.4043389e-08
9.4153992e-08
9.4263771e-08
9.4370801e-08
9.4473574e-08
9.4570508e-08
9.4659688e-08
9.4739336e-08
9.4807738e-08
9.4863487e-08
9.4905827e-08
9.4934086e-08
9.4947667e-08
9.4947178e-08
9.4933502e-08
9.4907542e-08
9.4870755e-08
9.4824816e-08
9.4771452e-08
9.4712494e-08
9.4649447e-08
9.458395e-08
9.4517682e-08
9.4452029e-08
9.4387947e-08
9.4326381e-08
9.4268007e-08
9.4213149e-08
9.4162053e-08
9.4114771e-08
9.4071384e-08
9.4031627e-08
9.3995413e-08
9.3962346e-08
9.3932457e-08
9.3903975e-08
9.2931152e-08
9.2998112e-08
9.3068754e-08
9.3143173e-08
9.3222251e-08
9.3306169e-08
9.3395144e-08
9.3489119e-08
9.3588232e-08
9.3691823e-08
9.3799907e-08
9.3912065e-08
9.4027253e-08
9.4144273e-08
9.4262021e-08
9.4378736e-08
9.4492348e-08
9.4601218e-08
9.4703637e-08
9.4797549e-08
9.4881051e-08
9.4952309e-08
9.5009822e-08
9.5052761e-08
9.508039e-08
9.5092069e-08
9.508845e-08
9.5070454e-08
9.5039021e-08
9.4995688e-08
9.4942227e-08
9.4880475e-08
9.4812394e-08
9.4739585e-08
9.4663803e-08
9.4586886e-08
9.4510378e-08
9.4435303e-08
9.4362733e-08
9.4293481e-08
9.422791e-08
9.416625e-08
9.4108743e-08
9.405538e-08
9.4006029e-08
9.3960542e-08
9.3918578e-08
9.3880089e-08
9.3843707e-08
9.2965747e-08
9.3036731e-08
9.3111854e-08
9.3191072e-08
9.3275367e-08
9.3364893e-08
9.3459876e-08
9.3560221e-08
9.366607e-08
9.3776693e-08
9.3892072e-08
9.4011728e-08
9.4134532e-08
9.4259181e-08
9.4384471e-08
9.4508509e-08
9.4629083e-08
9.4744417e-08
9.4852665e-08
9.4951636e-08
9.5039292e-08
9.5113686e-08
9.5173222e-08
9.5216994e-08
9.5244209e-08
9.5254193e-08
9.5247636e-08
9.5225502e-08
9.5188772e-08
9.5139064e-08
9.5078251e-08
9.500828e-08
9.4931251e-08
9.4848871e-08
9.4763022e-08
9.4675698e-08
9.4588593e-08
9.4502812e-08
9.4419546e-08
9.433974e-08
9.4263802e-08
9.4191959e-08
9.4124618e-08
9.4061705e-08
9.4003199e-08
9.3948905e-08
9.3898532e-08
9.3851959e-08
9.3808178e-08
9.3010097e-08
9.3085331e-08
9.3165187e-08
9.3249486e-08
9.3339297e-08
9.3434752e-08
9.3536083e-08
9.3643162e-08
9.3756123e-08
9.3874173e-08
9.3997253e-08
9.4124821e-08
9.4255656e-08
9.4388352e-08
9.452159e-08
9.4653349e-08
9.4781267e-08
9.4903428e-08
9.5017848e-08
9.512219e-08
9.5214288e-08
9.5292078e-08
9.5353867e-08
9.5398679e-08
9.5425662e-08
9.5434117e-08
9.5424768e-08
9.5398623e-08
9.5356712e-08
9.5300733e-08
9.523266e-08
9.5154559e-08
9.5068668e-08
9.4976816e-08
9.4881017e-08
9.4783421e-08
9.4685867e-08
9.4589552e-08
9.4495782e-08
9.4405623e-08
9.4319538e-08
9.4237765e-08
9.416085e-08
9.4088677e-08
9.4021318e-08
9.3958544e-08
9.3900109e-08
9.3845821e-08
9.3795001e-08
9.3064381e-08
9.3144107e-08
9.3228972e-08
9.3318653e-08
9.3414304e-08
9.3516034e-08
9.3624078e-08
9.3738276e-08
9.3858751e-08
9.3984647e-08
9.4115858e-08
9.4251771e-08
9.4391073e-08
9.4532246e-08
9.4673855e-08
9.481374e-08
9.4949391e-08
9.5078744e-08
9.519967e-08
9.5309689e-08
9.5406503e-08
9.548793e-08
9.5552184e-08
9.5598215e-08
9.5625121e-08
9.5632176e-08
9.5620143e-08
9.5590073e-08
9.5543048e-08
9.5480846e-08
9.5405544e-08
9.5319332e-08
9.5224592e-08
9.5123289e-08
9.5017574e-08
9.4909752e-08
9.4801806e-08
9.469503e-08
9.4590845e-08
9.4490433e-08
9.4394314e-08
9.4302751e-08
9.4216411e-08
9.4135151e-08
9.4059128e-08
9.3988087e-08
9.392182e-08
9.3860071e-08
9.3802466e-08
9.3128979e-08
9.3213462e-08
9.3303634e-08
9.3399022e-08
9.3500859e-08
9.3609234e-08
9.3724381e-08
9.384611e-08
9.3974527e-08
9.4108714e-08
9.4248509e-08
9.4393224e-08
9.4541449e-08
9.4691549e-08
9.4841963e-08
9.499039e-08
9.5134167e-08
9.5271077e-08
9.539884e-08
9.5514834e-08
9.5616623e-08
9.5701914e-08
9.5768825e-08
9.5816235e-08
9.5843191e-08
9.584895e-08
9.5834309e-08
9.5800364e-08
9.5748251e-08
9.5679826e-08
9.5597275e-08
9.5502916e-08
9.5399283e-08
9.5288484e-08
9.5172818e-08
9.5054742e-08
9.4936382e-08
9.4819136e-08
9.4704538e-08
9.459388e-08
9.4487747e-08
9.4386436e-08
9.4290721e-08
9.4200449e-08
9.4115846e-08
9.4036642e-08
9.3962667e-08
9.3893599e-08
9.3829356e-08
9.3204474e-08
9.3294001e-08
9.3389801e-08
9.3491246e-08
9.3599642e-08
9.3715058e-08
9.3837728e-08
9.3967427e-08
9.4104242e-08
9.4247189e-08
9.4396047e-08
9.4550045e-08
9.4707669e-08
9.4867163e-08
9.5026833e-08
9.5184228e-08
9.5336528e-08
9.5481359e-08
9.5616287e-08
9.5738542e-08
9.5845558e-08
9.5934924e-08
9.6004666e-08
9.6053594e-08
9.6080708e-08
9.6085251e-08
9.6068052e-08
9.6030255e-08
9.5973046e-08
9.5898364e-08
9.5808501e-08
9.5705915e-08
9.5593298e-08
9.5472909e-08
9.5347199e-08
9.5218778e-08
9.5089915e-08
9.4962116e-08
9.4837027e-08
9.4716051e-08
9.4599842e-08
9.4488739e-08
9.4383617e-08
9.4284318e-08
9.4191136e-08
9.4103792e-08
9.4022151e-08
9.394583e-08
9.3875023e-08
9.3291659e-08
9.3386539e-08
9.3488317e-08
9.3596193e-08
9.371155e-08
9.3834432e-08
9.3965072e-08
9.4103212e-08
9.4248909e-08
9.4401115e-08
9.4559542e-08
9.4723329e-08
9.489085e-08
9.5060222e-08
9.522961e-08
9.5396408e-08
9.5557633e-08
9.5710748e-08
9.5853163e-08
9.5981958e-08
9.6094436e-08
9.6188072e-08
9.6260804e-08
9.6311372e-08
9.6338733e-08
9.6342122e-08
9.6322396e-08
9.6280745e-08
9.621841e-08
9.6137405e-08
9.6040139e-08
9.5929214e-08
9.5807485e-08
9.567737e-08
9.5541477e-08
9.5402569e-08
9.5263055e-08
9.5124554e-08
9.4988829e-08
9.4857389e-08
9.4730965e-08
9.4609947e-08
9.4495301e-08
9.4386879e-08
9.4285037e-08
9.4189489e-08
9.4100136e-08
9.4016533e-08
9.3939151e-08
9.339155e-08
9.3492118e-08
9.3600252e-08
9.3714964e-08
9.3837713e-08
9.396852e-08
9.4107611e-08
9.4254691e-08
9.4409787e-08
9.4571781e-08
9.4740309e-08
9.4914414e-08
9.5092353e-08
9.5272106e-08
9.5451687e-08
9.562833e-08
9.5798883e-08
9.5960642e-08
9.6110855e-08
9.6246456e-08
9.6364617e-08
9.6462703e-08
9.6538565e-08
9.6590878e-08
9.6618559e-08
9.6620839e-08
9.6598602e-08
9.6553082e-08
9.648557e-08
9.639816e-08
9.6293378e-08
9.6173978e-08
9.6042984e-08
9.5902981e-08
9.575673e-08
9.5607149e-08
9.5456784e-08
9.5307375e-08
9.5160801e-08
9.5018683e-08
9.4881833e-08
9.4750703e-08
9.4626347e-08
9.4508637e-08
9.4397986e-08
9.429411e-08
9.4196944e-08
9.4105982e-08
9.4021971e-08
9.3505411e-08
9.361203e-08
9.3726932e-08
9.3848917e-08
9.3979525e-08
9.4118748e-08
9.4266805e-08
9.4423361e-08
9.4588406e-08
9.4760747e-08
9.4939937e-08
9.5124915e-08
9.5313812e-08
9.5504463e-08
9.5694722e-08
9.5881657e-08
9.606194e-08
9.6232694e-08
9.6391005e-08
9.6533663e-08
9.6657709e-08
9.6760405e-08
9.6839519e-08
9.6893666e-08
9.6921726e-08
9.6922929e-08
9.6898185e-08
9.6848771e-08
9.6776022e-08
9.6682112e-08
9.6569691e-08
9.644167e-08
9.6301247e-08
9.6151171e-08
9.5994362e-08
9.5833883e-08
9.5672424e-08
9.5511845e-08
9.535415e-08
9.5201073e-08
9.5053517e-08
9.4912005e-08
9.4777677e-08
9.4650434e-08
9.4530745e-08
9.4418332e-08
9.4313165e-08
9.4214673e-08
9.4123889e-08
9.3634781e-08
9.3747847e-08
9.3869965e-08
9.39997e-08
9.4138672e-08
9.4286843e-08
9.4444421e-08
9.4611026e-08
9.4786605e-08
9.4969885e-08
9.5160327e-08
9.5356756e-08
9.5557169e-08
9.5759247e-08
9.5960677e-08
9.6158349e-08
9.6348756e-08
9.6528845e-08
9.6695537e-08
9.6845478e-08
9.6975589e-08
9.7083032e-08
9.7165499e-08
9.722155e-08
9.7250034e-08
9.7250183e-08
9.7222932e-08
9.7169593e-08
9.7091544e-08
9.6991039e-08
9.6870855e-08
9.6734069e-08
9.658405e-08
9.6423712e-08
9.6256125e-08
9.6084498e-08
9.5911659e-08
9.5739599e-08
9.5570452e-08
9.5406072e-08
9.5247462e-08
9.5095227e-08
9.4950599e-08
9.4813513e-08
9.46845e-08
9.456329e-08
9.4449893e-08
9.434367e-08
9.4245952e-08
9.3781517e-08
9.3901465e-08
9.403129e-08
9.4169295e-08
9.4317182e-08
9.4474878e-08
9.4642575e-08
9.4819845e-08
9.5006582e-08
9.5201428e-08
9.5403741e-08
9.5612222e-08
9.5824725e-08
9.6038767e-08
9.6251858e-08
9.6460704e-08
9.6661616e-08
9.6851358e-08
9.7026688e-08
9.7184112e-08
9.7320436e-08
9.7432734e-08
9.7518631e-08
9.7576635e-08
9.7605574e-08
9.7604687e-08
9.7574925e-08
9.7517635e-08
9.7434229e-08
9.7327042e-08
9.7198986e-08
9.7053306e-08
9.6893536e-08
9.6722748e-08
9.6544156e-08
9.6361106e-08
9.6176566e-08
9.5992668e-08
9.581168e-08
9.563559e-08
9.5465511e-08
9.5302141e-08
9.5146805e-08
9.4999484e-08
9.4860769e-08
9.4730404e-08
9.4608441e-08
9.4494168e-08
9.4389233e-08
9.3947837e-08
9.4075147e-08
9.4213224e-08
9.436007e-08
9.4517475e-08
9.4685327e-08
9.4863794e-08
9.5052393e-08
9.5250958e-08
9.5458033e-08
9.5672865e-08
9.5894019e-08
9.6119196e-08
9.634574e-08
9.6570974e-08
9.6791416e-08
9.7003187e-08
9.7202868e-08
9.7387055e-08
9.7552122e-08
9.769477e-08
9.7811995e-08
9.7901367e-08
9.7961353e-08
9.7990764e-08
9.7988851e-08
9.7956579e-08
9.7895321e-08
9.7806519e-08
9.7692585e-08
9.7556577e-08
9.7401902e-08
9.7232254e-08
9.7050844e-08
9.6861017e-08
9.6666252e-08
9.646966e-08
9.627352e-08
9.6080252e-08
9.5891986e-08