/*--------------------------------*- C++ -*----------------------------------*\
| =========                 |                                                 |
| \\      /  F ield         | OpenFOAM: The Open Source CFD Toolbox           |
|  \\    /   O peration     | Version:  v2006                                 |
|   \\  /    A nd           | Website:  www.openfoam.com                      |
|    \\/     M anipulation  |                                                 |
\*---------------------------------------------------------------------------*/
FoamFile
{
    version     2.0;
    format      ascii;
    class       volScalarField;
    location    "3500";
    object      nutMean;
}
// * * * * * * * * * * * * * * * * * * * * * * * * * * * * * * * * * * * * * //

dimensions      [0 2 -1 0 0 0 0];


internalField   nonuniform List<scalar> 
19765
(
9.9123035e-06
9.8972021e-06
9.5874577e-06
9.6226641e-06
9.6037561e-06
9.7454668e-06
9.6457829e-06
9.8062582e-06
9.7602227e-06
9.5577193e-06
9.6477918e-06
1.0012986e-05
1.022251e-05
1.0404042e-05
1.0797299e-05
1.0959537e-05
1.0902504e-05
1.1048926e-05
1.1454825e-05
1.1807555e-05
1.2041674e-05
1.215455e-05
1.2360773e-05
1.2485233e-05
1.2566086e-05
1.261393e-05
1.2635154e-05
1.2570074e-05
1.2586517e-05
1.2468814e-05
1.2240907e-05
1.1950928e-05
1.198048e-05
1.2124197e-05
1.1984938e-05
1.165171e-05
1.1635083e-05
1.1574163e-05
1.1301635e-05
1.1388029e-05
1.1755792e-05
1.1908809e-05
1.186643e-05
1.217506e-05
1.2069383e-05
1.230056e-05
1.2307971e-05
1.2281214e-05
1.215527e-05
5.5549879e-05
5.8328583e-05
6.0486999e-05
6.2149256e-05
6.419805e-05
6.6294664e-05
6.8402095e-05
7.0496238e-05
7.2668654e-05
7.4533842e-05
7.6745586e-05
7.9167098e-05
8.1234108e-05
8.3067884e-05
8.4966272e-05
8.6135214e-05
8.6432087e-05
8.701935e-05
8.8202604e-05
8.9587143e-05
9.0870062e-05
9.1680159e-05
9.236613e-05
9.3301727e-05
9.4212967e-05
9.459866e-05
9.4724744e-05
9.4958266e-05
9.512376e-05
9.5097116e-05
9.4961448e-05
9.4760721e-05
9.4714108e-05
9.4520891e-05
9.383722e-05
9.2871181e-05
9.202011e-05
9.0879155e-05
8.9454512e-05
8.8390511e-05
8.7447727e-05
8.5423088e-05
8.3281064e-05
7.9837317e-05
7.7263296e-05
7.1439898e-05
6.4887876e-05
5.8293613e-05
5.3374123e-05
1.6999053e-05
1.6218566e-05
1.5652192e-05
1.5840029e-05
1.5895564e-05
1.594535e-05
1.580854e-05
1.5909084e-05
1.5738301e-05
1.5825296e-05
1.6011728e-05
1.5989405e-05
1.5763674e-05
1.5548944e-05
1.5216961e-05
1.4734617e-05
1.4363521e-05
1.4124819e-05
1.393084e-05
1.3753737e-05
1.3646299e-05
1.36434e-05
1.362234e-05
1.3641451e-05
1.3891517e-05
1.4384343e-05
1.4839288e-05
1.5309459e-05
1.5998725e-05
1.6739049e-05
1.7457078e-05
1.8122336e-05
1.8717846e-05
1.9657297e-05
2.0832001e-05
2.1808261e-05
2.2565948e-05
2.3566312e-05
2.4328844e-05
2.4711255e-05
2.5377406e-05
2.6547746e-05
2.7142315e-05
2.8255964e-05
2.8995354e-05
3.0990154e-05
3.3616046e-05
3.6753336e-05
3.8924577e-05
6.9088696e-07
6.0970114e-07
5.6097038e-07
5.4978357e-07
5.3694251e-07
5.2550124e-07
5.0949419e-07
5.0208388e-07
4.8749108e-07
4.7986902e-07
4.7493636e-07
4.6464954e-07
4.496e-07
4.3614404e-07
4.2164707e-07
4.0524115e-07
3.9311858e-07
3.8528287e-07
3.7847263e-07
3.7172336e-07
3.6793868e-07
3.6858319e-07
3.6844366e-07
3.6965252e-07
3.768625e-07
3.9089727e-07
4.0559888e-07
4.2222305e-07
4.4569975e-07
4.7268454e-07
5.0177406e-07
5.3206932e-07
5.6325776e-07
6.0756945e-07
6.6394242e-07
7.2011585e-07
7.7543405e-07
8.4535831e-07
9.1170236e-07
9.6902768e-07
1.0466738e-06
1.1574065e-06
1.2555533e-06
1.4083901e-06
1.5571818e-06
1.7719173e-06
2.0330537e-06
2.3641241e-06
2.7537132e-06
1.6367474e-07
1.6293143e-07
1.6300923e-07
1.6477654e-07
1.6632588e-07
1.6779418e-07
1.6871975e-07
1.7016116e-07
1.7083499e-07
1.7201093e-07
1.7349191e-07
1.7447344e-07
1.7495009e-07
1.7554457e-07
1.7590377e-07
1.7585995e-07
1.761658e-07
1.7691536e-07
1.7755858e-07
1.7810051e-07
1.7895792e-07
1.8012006e-07
1.8124353e-07
1.826088e-07
1.8462681e-07
1.8746475e-07
1.9040633e-07
1.9349756e-07
1.9726717e-07
2.0126815e-07
2.052831e-07
2.0919133e-07
2.1284497e-07
2.1739712e-07
2.2258296e-07
2.2717066e-07
2.3109224e-07
2.3558902e-07
2.3927556e-07
2.4189363e-07
2.4539236e-07
2.4999379e-07
2.5327091e-07
2.584032e-07
2.6264238e-07
2.6838664e-07
2.7403622e-07
2.7841247e-07
2.8240819e-07
1.4098174e-07
1.4102599e-07
1.4142668e-07
1.4251123e-07
1.4333261e-07
1.4416141e-07
1.4478475e-07
1.4561448e-07
1.4610503e-07
1.4690127e-07
1.4766194e-07
1.4814598e-07
1.4846817e-07
1.4883685e-07
1.4907911e-07
1.4925165e-07
1.4966439e-07
1.5025847e-07
1.5080495e-07
1.5135797e-07
1.5204028e-07
1.5281576e-07
1.5377002e-07
1.5494098e-07
1.5643701e-07
1.5839249e-07
1.6050213e-07
1.6270404e-07
1.6525333e-07
1.6801339e-07
1.7085803e-07
1.7374353e-07
1.7648234e-07
1.7950925e-07
1.8291339e-07
1.8628048e-07
1.8926739e-07
1.9239785e-07
1.953679e-07
1.9777458e-07
2.0011754e-07
2.0320262e-07
2.0566681e-07
2.0893215e-07
2.1192297e-07
2.1552375e-07
2.1941761e-07
2.2362984e-07
2.2738392e-07
1.2377044e-07
1.236684e-07
1.237639e-07
1.2426084e-07
1.2462835e-07
1.2501086e-07
1.2529531e-07
1.2571086e-07
1.2595451e-07
1.2638139e-07
1.2681204e-07
1.2709944e-07
1.2730504e-07
1.2754729e-07
1.2772754e-07
1.278731e-07
1.281691e-07
1.2859372e-07
1.2901426e-07
1.2945775e-07
1.2998299e-07
1.3056839e-07
1.3125774e-07
1.3209912e-07
1.3315782e-07
1.3449704e-07
1.3593477e-07
1.3745484e-07
1.3920637e-07
1.4110098e-07
1.4306829e-07
1.4507647e-07
1.4702462e-07
1.4916815e-07
1.51547e-07
1.5390854e-07
1.5606809e-07
1.5832433e-07
1.6049265e-07
1.6234261e-07
1.6418224e-07
1.6642884e-07
1.6832754e-07
1.706543e-07
1.7280936e-07
1.7526433e-07
1.7782292e-07
1.8050124e-07
1.8292612e-07
1.1476862e-07
1.1469211e-07
1.1473593e-07
1.150227e-07
1.1523206e-07
1.1545055e-07
1.1561133e-07
1.1584818e-07
1.1598691e-07
1.1623311e-07
1.1648313e-07
1.1665641e-07
1.1678992e-07
1.1695125e-07
1.170867e-07
1.172147e-07
1.1743955e-07
1.1774862e-07
1.1807017e-07
1.1842362e-07
1.1884195e-07
1.1931133e-07
1.1987057e-07
1.2054281e-07
1.2136124e-07
1.2236496e-07
1.2344966e-07
1.2460693e-07
1.2592595e-07
1.2735525e-07
1.2885221e-07
1.3039676e-07
1.3192604e-07
1.3359204e-07
1.3542288e-07
1.3726669e-07
1.3900421e-07
1.4081371e-07
1.4258606e-07
1.4417354e-07
1.4575677e-07
1.4761115e-07
1.4926537e-07
1.5121051e-07
1.5307846e-07
1.5517443e-07
1.5738874e-07
1.5974524e-07
1.6198721e-07
1.0839673e-07
1.0831712e-07
1.0831271e-07
1.0846385e-07
1.0857037e-07
1.0868591e-07
1.0876948e-07
1.0890313e-07
1.0898062e-07
1.091273e-07
1.0928046e-07
1.0939204e-07
1.0948506e-07
1.0960049e-07
1.0970654e-07
1.0981539e-07
1.0999064e-07
1.1022514e-07
1.1047639e-07
1.1075683e-07
1.1108504e-07
1.1145115e-07
1.1187923e-07
1.1238976e-07
1.1300554e-07
1.1374867e-07
1.1455447e-07
1.1541973e-07
1.1640025e-07
1.1746374e-07
1.1858434e-07
1.1974892e-07
1.209183e-07
1.2218648e-07
1.2356985e-07
1.2497143e-07
1.263164e-07
1.2771494e-07
1.2909668e-07
1.3036591e-07
1.316378e-07
1.3308074e-07
1.3439727e-07
1.3589394e-07
1.3733627e-07
1.3891413e-07
1.4055362e-07
1.4226503e-07
1.4388031e-07
1.0423576e-07
1.0417699e-07
1.0416508e-07
1.0425409e-07
1.0431419e-07
1.0438058e-07
1.0442734e-07
1.0450691e-07
1.045526e-07
1.0464389e-07
1.0474136e-07
1.048159e-07
1.0488261e-07
1.0496726e-07
1.0505068e-07
1.0514145e-07
1.0527947e-07
1.0546051e-07
1.0565896e-07
1.0588343e-07
1.0614611e-07
1.0644113e-07
1.0678328e-07
1.0718687e-07
1.0766832e-07
1.0824128e-07
1.0886452e-07
1.0953703e-07
1.1029585e-07
1.1112064e-07
1.1199481e-07
1.1290963e-07
1.1383914e-07
1.1484454e-07
1.1593755e-07
1.1705439e-07
1.1814386e-07
1.1927765e-07
1.2040939e-07
1.2147286e-07
1.2254213e-07
1.2373402e-07
1.2484702e-07
1.2608961e-07
1.2730466e-07
1.2862373e-07
1.3000009e-07
1.3144843e-07
1.3284169e-07
1.0128886e-07
1.0124384e-07
1.0122935e-07
1.01283e-07
1.0131808e-07
1.0135811e-07
1.0138619e-07
1.0143688e-07
1.0146687e-07
1.0152826e-07
1.0159551e-07
1.0165028e-07
1.0170275e-07
1.0176971e-07
1.018391e-07
1.0191701e-07
1.0202938e-07
1.0217364e-07
1.0233377e-07
1.0251561e-07
1.0272721e-07
1.0296497e-07
1.0323786e-07
1.0355634e-07
1.039334e-07
1.0437761e-07
1.0486175e-07
1.05386e-07
1.059755e-07
1.0661696e-07
1.0729951e-07
1.0801724e-07
1.0875284e-07
1.0954704e-07
1.1040779e-07
1.1129175e-07
1.1216392e-07
1.1307162e-07
1.139829e-07
1.1485127e-07
1.1572648e-07
1.1668614e-07
1.1759315e-07
1.1858729e-07
1.1956136e-07
1.2060342e-07
1.2168057e-07
1.2280168e-07
1.2387575e-07
9.9186914e-08
9.9157256e-08
9.9147142e-08
9.9183525e-08
9.9207284e-08
9.9234746e-08
9.925466e-08
9.92904e-08
9.9313262e-08
9.9358256e-08
9.9408455e-08
9.9452135e-08
9.9496333e-08
9.9552266e-08
9.9612216e-08
9.9680586e-08
9.9774599e-08
9.9892678e-08
1.0002458e-07
1.0017437e-07
1.0034757e-07
1.0054221e-07
1.0076382e-07
1.0101959e-07
1.0131993e-07
1.0167057e-07
1.0205313e-07
1.0246841e-07
1.0293408e-07
1.0344126e-07
1.0398263e-07
1.0455437e-07
1.0514484e-07
1.0578221e-07
1.0647238e-07
1.0718526e-07
1.0789581e-07
1.086363e-07
1.0938431e-07
1.101061e-07
1.1083534e-07
1.1162751e-07
1.1238514e-07
1.1320717e-07
1.1401795e-07
1.1488059e-07
1.1577254e-07
1.1670306e-07
1.1760068e-07
9.7648284e-08
9.7630402e-08
9.7625352e-08
9.7652851e-08
9.7671778e-08
9.769364e-08
9.7710808e-08
9.7739431e-08
9.7760074e-08
9.7796772e-08
9.7838096e-08
9.7876379e-08
9.7916567e-08
9.7966302e-08
9.8020521e-08
9.8082405e-08
9.8163619e-08
9.8263157e-08
9.837431e-08
9.8499915e-08
9.8643775e-08
9.8804838e-08
9.8986517e-08
9.9193789e-08
9.9435032e-08
9.9714167e-08
1.0001863e-07
1.0034958e-07
1.0071949e-07
1.0112211e-07
1.0155264e-07
1.0200897e-07
1.0248343e-07
1.0299573e-07
1.0355002e-07
1.0412484e-07
1.0470205e-07
1.0530384e-07
1.0591409e-07
1.06508e-07
1.071089e-07
1.0775566e-07
1.0837861e-07
1.0904723e-07
1.0970743e-07
1.1040346e-07
1.1111883e-07
1.1186009e-07
1.1257283e-07
9.6503402e-08
9.6495999e-08
9.649688e-08
9.6520789e-08
9.6538762e-08
9.6559106e-08
9.6576582e-08
9.6602545e-08
9.6623653e-08
9.6656674e-08
9.6693786e-08
9.6729925e-08
9.67686e-08
9.6815088e-08
9.6866006e-08
9.6923646e-08
9.6995989e-08
9.7082362e-08
9.7178281e-08
9.7285713e-08
9.7407298e-08
9.7542475e-08
9.7693376e-08
9.7863437e-08
9.8059336e-08
9.8283849e-08
9.8528352e-08
9.8794212e-08
9.9090016e-08
9.9411377e-08
9.9755718e-08
1.0012242e-07
1.0050629e-07
1.0092105e-07
1.013695e-07
1.0183609e-07
1.0230746e-07
1.027993e-07
1.0329996e-07
1.0379096e-07
1.0428863e-07
1.0482136e-07
1.05338e-07
1.05889e-07
1.0643481e-07
1.0700779e-07
1.0759588e-07
1.082051e-07
1.0879158e-07
9.5640497e-08
9.5641448e-08
9.5647802e-08
9.5670763e-08
9.568967e-08
9.5710604e-08
9.5729929e-08
9.5755751e-08
9.5778791e-08
9.5810901e-08
9.5846676e-08
9.5882725e-08
9.5921547e-08
9.5966811e-08
9.6016205e-08
9.6071351e-08
9.6137729e-08
9.6214854e-08
9.6299651e-08
9.6393451e-08
9.6498063e-08
9.6613158e-08
9.6740044e-08
9.6881094e-08
9.7041587e-08
9.722354e-08
9.7421054e-08
9.7635531e-08
9.7872374e-08
9.8129078e-08
9.8405282e-08
9.8701095e-08
9.901228e-08
9.9348081e-08
9.9710412e-08
1.0008808e-07
1.0047138e-07
1.0087163e-07
1.0128034e-07
1.0168363e-07
1.0209304e-07
1.0252911e-07
1.0295405e-07
1.0340432e-07
1.0385072e-07
1.0431656e-07
1.0479271e-07
1.0528375e-07
1.0575488e-07
9.4981727e-08
9.4989808e-08
9.5001366e-08
9.5025052e-08
9.5046021e-08
9.5068799e-08
9.5090851e-08
9.5118035e-08
9.5143844e-08
9.5176731e-08
9.5212944e-08
9.5250197e-08
9.5290257e-08
9.5335673e-08
9.5384829e-08
9.543883e-08
9.5501413e-08
9.557219e-08
9.5648987e-08
9.573265e-08
9.5824382e-08
9.592394e-08
9.6032085e-08
9.6150444e-08
9.628315e-08
9.6431704e-08
9.6592128e-08
9.6765648e-08
9.6954992e-08
9.7160459e-08
9.7383328e-08
9.7622876e-08
9.7874876e-08
9.8145827e-08
9.8437598e-08
9.8742428e-08
9.9053347e-08
9.9378647e-08
9.971207e-08
1.0004304e-07
1.0037975e-07
1.0073732e-07
1.0108741e-07
1.0145685e-07
1.0182379e-07
1.0220542e-07
1.0259477e-07
1.0299582e-07
1.0338006e-07
9.4474833e-08
9.4488805e-08
9.450504e-08
9.4530302e-08
9.4553856e-08
9.4579115e-08
9.4604306e-08
9.463371e-08
9.4662733e-08
9.4697439e-08
9.4735221e-08
9.4774524e-08
9.4816576e-08
9.4863129e-08
9.4913016e-08
9.4966934e-08
9.502738e-08
9.5093999e-08
9.5165196e-08
9.5241435e-08
9.5323454e-08
9.5411017e-08
9.5504498e-08
9.5604996e-08
9.5715702e-08
9.5837763e-08
9.5968556e-08
9.6108858e-08
9.6259405e-08
9.6424711e-08
9.6605526e-08
9.6798632e-08
9.7000572e-08
9.7217067e-08
9.7450324e-08
9.769498e-08
9.7945904e-08
9.8209099e-08
9.8479853e-08
9.8750034e-08
9.9025438e-08
9.9317157e-08
9.9603836e-08
9.9905171e-08
1.002047e-07
1.0051498e-07
1.0083058e-07
1.0115469e-07
1.0146409e-07
9.4081579e-08
9.4100635e-08
9.4121182e-08
9.4148572e-08
9.4175028e-08
9.4203159e-08
9.4231731e-08
9.4263897e-08
9.4296408e-08
9.433362e-08
9.437373e-08
9.4415675e-08
9.4460274e-08
9.45087e-08
9.4560077e-08
9.4614771e-08
9.4674375e-08
9.4738531e-08
9.4806005e-08
9.4876954e-08
9.4951752e-08
9.5030116e-08
9.5112141e-08
9.5198547e-08
9.529175e-08
9.539264e-08
9.5499539e-08
9.5612761e-08
9.5731485e-08
9.5865878e-08
9.6012283e-08
9.6165174e-08
9.6324522e-08
9.6495923e-08
9.6681293e-08
9.6876657e-08
9.7078118e-08
9.7290013e-08
9.7508785e-08
9.7728177e-08
9.7952301e-08
9.8189385e-08
9.8423229e-08
9.8668436e-08
9.8912513e-08
9.9164753e-08
9.9420905e-08
9.9683652e-08
9.993379e-08
9.3775227e-08
9.3798674e-08
9.3823163e-08
9.3852971e-08
9.3882471e-08
9.3913679e-08
9.3945744e-08
9.3981007e-08
9.4017169e-08
9.4057352e-08
9.4100321e-08
9.4145341e-08
9.419292e-08
9.4243796e-08
9.4297276e-08
9.4353457e-08
9.4413255e-08
9.4476283e-08
9.4541526e-08
9.4608887e-08
9.4678444e-08
9.4749834e-08
9.4822937e-08
9.4898209e-08
9.4977416e-08
9.5061262e-08
9.5148688e-08
9.5239637e-08
9.5333969e-08
9.544356e-08
9.5558709e-08
9.5676329e-08
9.5800836e-08
9.5935487e-08
9.6081471e-08
9.6235951e-08
9.6396033e-08
9.6564882e-08
9.673984e-08
9.6916115e-08
9.7096644e-08
9.7287539e-08
9.7476478e-08
9.7674284e-08
9.7871422e-08
9.8074729e-08
9.8280821e-08
9.8491878e-08
9.8692025e-08
9.3535762e-08
9.3563132e-08
9.3591309e-08
9.362374e-08
9.3656383e-08
9.3690812e-08
9.3726455e-08
9.3765058e-08
9.3805004e-08
9.3848506e-08
9.3894738e-08
9.3943183e-08
9.3994103e-08
9.4047907e-08
9.410401e-08
9.4162282e-08
9.4223125e-08
9.4286102e-08
9.4350322e-08
9.4415469e-08
9.4481377e-08
9.454758e-08
9.4613794e-08
9.4680272e-08
9.4748253e-08
9.4818286e-08
9.4889594e-08
9.4961761e-08
9.5039291e-08
9.5125537e-08
9.5210343e-08
9.5300688e-08
9.5397798e-08
9.5501698e-08
9.561466e-08
9.5734807e-08
9.58599e-08
9.5992274e-08
9.613002e-08
9.6269528e-08
9.6412927e-08
9.6564783e-08
9.67157e-08
9.6873727e-08
9.703155e-08
9.7194223e-08
9.7359025e-08
9.752778e-08
9.7687243e-08
9.3348674e-08
9.3379601e-08
9.3411259e-08
9.3446444e-08
9.3482291e-08
9.3520042e-08
9.3559329e-08
9.3601457e-08
9.3645302e-08
9.3692403e-08
9.3742225e-08
9.3794394e-08
9.3848976e-08
9.390612e-08
9.3965302e-08
9.4026196e-08
9.4088799e-08
9.4152612e-08
9.42168e-08
9.428086e-08
9.4344414e-08
9.4406883e-08
9.4467846e-08
9.4527397e-08
9.4586355e-08
9.4645121e-08
9.4703351e-08
9.4762201e-08
9.483684e-08
9.4900913e-08
9.4952276e-08
9.5018187e-08
9.5089833e-08
9.5167794e-08
9.5253176e-08
9.5344091e-08
9.5439075e-08
9.5540101e-08
9.564592e-08
9.5753851e-08
9.5865426e-08
9.5984034e-08
9.6102498e-08
9.622678e-08
9.6351249e-08
9.6479607e-08
9.6609646e-08
9.6742857e-08
9.6868194e-08
9.3202946e-08
9.3237192e-08
9.3272204e-08
9.3310259e-08
9.3349376e-08
9.3390549e-08
9.3433558e-08
9.347938e-08
9.3527249e-08
9.3578197e-08
9.3631896e-08
9.3688067e-08
9.374661e-08
9.380747e-08
9.3870144e-08
9.3934134e-08
9.3999113e-08
9.406451e-08
9.41295e-08
9.4193407e-08
9.4255672e-08
9.4315598e-08
9.4372645e-08
9.4426773e-08
9.4478471e-08
9.4528007e-08
9.4575315e-08
9.4620967e-08
9.4663986e-08
9.4708226e-08
9.4761087e-08
9.4809259e-08
9.4860402e-08
9.4915816e-08
9.4976343e-08
9.5041385e-08
9.5110178e-08
9.5184248e-08
9.5262713e-08
9.534355e-08
9.5427837e-08
9.551808e-08
9.5608809e-08
9.5704437e-08
9.5800623e-08
9.5900075e-08
9.6000987e-08
9.6104598e-08
9.6201652e-08
9.3090377e-08
9.3127782e-08
9.3166068e-08
9.3207095e-08
9.3249557e-08
9.3294254e-08
9.3341077e-08
9.3390755e-08
9.3442786e-08
9.3497814e-08
9.355566e-08
9.3616099e-08
9.3678895e-08
9.3743822e-08
9.3810372e-08
9.3877894e-08
9.3945793e-08
9.4013418e-08
9.4079919e-08
9.4144463e-08
9.4206328e-08
9.4264699e-08
9.4318923e-08
9.4368848e-08
9.4414706e-08
9.4456637e-08
9.4494754e-08
9.452967e-08
9.4564381e-08
9.4581983e-08
9.462159e-08
9.4656939e-08
9.4690856e-08
9.4726682e-08
9.47662e-08
9.480939e-08
9.4855854e-08
9.4906796e-08
9.4961677e-08
9.5019047e-08
9.5079691e-08
9.5145469e-08
9.5212249e-08
9.5283275e-08
9.5355206e-08
9.5429997e-08
9.5506164e-08
9.5584713e-08
9.5657896e-08
9.3004688e-08
9.3045166e-08
9.30867e-08
9.3130812e-08
9.3176712e-08
9.322505e-08
9.3275802e-08
9.332951e-08
9.338586e-08
9.3445201e-08
9.3507458e-08
9.3572433e-08
9.3639772e-08
9.3709104e-08
9.3779898e-08
9.385136e-08
9.3922671e-08
9.3993089e-08
9.4061718e-08
9.4127575e-08
9.4189791e-08
9.4247431e-08
9.4299737e-08
9.4346461e-08
9.4387626e-08
9.4423255e-08
9.44536e-08
9.447942e-08
9.45011e-08
9.4522889e-08
9.4540241e-08
9.4556279e-08
9.4572778e-08
9.4591165e-08
9.4612361e-08
9.4636423e-08
9.4663251e-08
9.4693877e-08
9.4728068e-08
9.4764847e-08
9.4804796e-08
9.4849294e-08
9.4895244e-08
9.4945015e-08
9.4996037e-08
9.5049704e-08
9.5104784e-08
9.5162098e-08
9.5215148e-08
9.2941132e-08
9.298465e-08
9.3029447e-08
9.3076765e-08
9.3126213e-08
9.3178327e-08
9.3233146e-08
9.3291066e-08
9.3351914e-08
9.3415807e-08
9.3482742e-08
9.3552525e-08
9.3624702e-08
9.3698773e-08
9.3774167e-08
9.384996e-08
9.3925133e-08
9.3998852e-08
9.4070153e-08
9.4137914e-08
9.4201122e-08
9.4258728e-08
9.4309872e-08
9.4354218e-08
9.4391625e-08
9.4422002e-08
9.4445718e-08
9.446346e-08
9.4476291e-08
9.4484517e-08
9.4489973e-08
9.4493766e-08
9.4496731e-08
9.4500127e-08
9.4505095e-08
9.4512136e-08
9.4521508e-08
9.4534142e-08
9.4550053e-08
9.4568639e-08
9.4590342e-08
9.4616179e-08
9.4643868e-08
9.4675112e-08
9.4707946e-08
9.4743338e-08
9.478026e-08
9.4819366e-08
9.4855218e-08
9.2896065e-08
9.2942639e-08
9.2990754e-08
9.3041414e-08
9.3094544e-08
9.3150589e-08
9.3209636e-08
9.3271968e-08
9.3337515e-08
9.3406211e-08
9.3478096e-08
9.3552973e-08
9.3630289e-08
9.3709431e-08
9.3789778e-08
9.3870278e-08
9.3949738e-08
9.4027222e-08
9.4101685e-08
9.417187e-08
9.4236627e-08
9.4294795e-08
9.4345415e-08
9.4388067e-08
9.4422476e-08
9.4448453e-08
9.4466445e-08
9.4477182e-08
9.4481479e-08
9.4480476e-08
9.4475277e-08
9.4467087e-08
9.4457107e-08
9.4446656e-08
9.4436939e-08
9.4428702e-08
9.4422436e-08
9.4418994e-08
9.4418593e-08
9.4420941e-08
9.4426392e-08
9.4435699e-08
9.4447221e-08
9.4462164e-08
9.4479035e-08
9.4498483e-08
9.4519645e-08
9.4543035e-08
9.4564107e-08
9.2866729e-08
9.2916412e-08
9.2967931e-08
9.3022085e-08
9.3079051e-08
9.3139202e-08
9.3202662e-08
9.3269623e-08
9.3340093e-08
9.3413855e-08
9.3490977e-08
9.3571241e-08
9.3654007e-08
9.3738558e-08
9.3824208e-08
9.3909787e-08
9.3993937e-08
9.4075616e-08
9.415369e-08
9.4226765e-08
9.4293564e-08
9.4352808e-08
9.4403443e-08
9.4444975e-08
9.4477012e-08
9.4499274e-08
9.4512279e-08
9.4516766e-08
9.451357e-08
9.450379e-08
9.4488731e-08
9.4469737e-08
9.4448129e-08
9.4425196e-08
9.4402202e-08
9.4380121e-08
9.4359669e-08
9.434167e-08
9.4326525e-08
9.4314204e-08
9.4305011e-08
9.4299505e-08
9.4296559e-08
9.4296999e-08
9.4299708e-08
9.4305092e-08
9.4312422e-08
9.4322088e-08
9.4330305e-08
9.2851031e-08
9.2903912e-08
9.2958951e-08
9.3016769e-08
9.3077747e-08
9.3142199e-08
9.3210278e-08
9.3282107e-08
9.3357744e-08
9.3436851e-08
9.3519508e-08
9.3605469e-08
9.3694009e-08
9.378431e-08
9.3875618e-08
9.3966642e-08
9.4055871e-08
9.4142155e-08
9.4224256e-08
9.4300647e-08
9.4369924e-08
9.4430694e-08
9.448181e-08
9.4522701e-08
9.4552881e-08
9.4571987e-08
9.4580591e-08
9.4579463e-08
9.4569418e-08
9.4551664e-08
9.4527597e-08
9.4498645e-08
9.4466266e-08
9.4431776e-08
9.4396524e-08
9.4361689e-08
9.4328182e-08
9.429683e-08
9.4268192e-08
9.4242459e-08
9.4219915e-08
9.420098e-08
9.4184937e-08
9.4172327e-08
9.4162331e-08
9.4155172e-08
9.4150232e-08
9.4147789e-08
9.4144715e-08
9.2847422e-08
9.2903615e-08
9.2962316e-08
9.3023986e-08
9.3089171e-08
9.315814e-08
9.323107e-08
9.3308022e-08
9.3389092e-08
9.3473841e-08
9.3562347e-08
9.3654328e-08
9.3748978e-08
9.3845381e-08
9.3942705e-08
9.4039541e-08
9.4134231e-08
9.4225509e-08
9.4312029e-08
9.4392131e-08
9.4464282e-08
9.4526977e-08
9.4578975e-08
9.4619633e-08
9.4648381e-08
9.4664784e-08
9.4669459e-08
9.4663205e-08
9.4646851e-08
9.4621687e-08
9.4589203e-08
9.4550932e-08
9.4508465e-08
9.4463162e-08
9.4416465e-08
9.4369736e-08
9.4324066e-08
9.4280305e-08
9.4239159e-08
9.4201011e-08
9.4166141e-08
9.4134878e-08
9.4106832e-08
9.4082333e-08
9.40608e-08
9.4042315e-08
9.4026354e-08
9.4013096e-08
9.3999974e-08
9.2854776e-08
9.2914423e-08
9.2976953e-08
9.3042679e-08
9.3112289e-08
9.3186013e-08
9.3264044e-08
9.3346395e-08
9.3433187e-08
9.3523892e-08
9.3618577e-08
9.3716918e-08
9.3818028e-08
9.3920895e-08
9.4024601e-08
9.4127618e-08
9.4228146e-08
9.4324798e-08
9.441611e-08
9.450029e-08
9.4575678e-08
9.4640655e-08
9.4693888e-08
9.473466e-08
9.4762329e-08
9.4776396e-08
9.4777515e-08
9.4766523e-08
9.474427e-08
9.471213e-08
9.4671691e-08
9.4624589e-08
9.4572543e-08
9.4516983e-08
9.4459447e-08
9.4401472e-08
9.4344315e-08
9.4288869e-08
9.4235974e-08
9.4186181e-08
9.4139786e-08
9.4097056e-08
9.405787e-08
9.40224e-08
9.3990253e-08
9.396141e-08
9.3935422e-08
9.3912377e-08
9.3890203e-08
9.2872323e-08
9.2935588e-08
9.3002136e-08
9.3072142e-08
9.3146414e-08
9.322515e-08
9.3308556e-08
9.3396603e-08
9.3489427e-08
9.3586422e-08
9.3687633e-08
9.3792691e-08
9.3900627e-08
9.401033e-08
9.4120793e-08
9.4230365e-08
9.4337107e-08
9.4439503e-08
9.4535969e-08
9.4624576e-08
9.4703537e-08
9.477112e-08
9.4825898e-08
9.4867082e-08
9.4893966e-08
9.4905993e-08
9.4903853e-08
9.488842e-08
9.4860578e-08
9.4821784e-08
9.4773724e-08
9.4718142e-08
9.4656886e-08
9.4591467e-08
9.4523536e-08
9.4454791e-08
9.4386646e-08
9.4320054e-08
9.4255981e-08
9.4195126e-08
9.4137816e-08
9.4084281e-08
9.403462e-08
9.3988889e-08
9.3946851e-08
9.3908407e-08
9.3873172e-08
9.3841153e-08
9.3810708e-08
9.2899588e-08
9.2966655e-08
9.3037432e-08
9.3111961e-08
9.3191153e-08
9.3275179e-08
9.3364257e-08
9.3458318e-08
9.3557505e-08
9.3661143e-08
9.3769248e-08
9.3881398e-08
9.3996541e-08
9.4113467e-08
9.4231072e-08
9.434758e-08
9.4460911e-08
9.456942e-08
9.467139e-08
9.4764757e-08
9.4847607e-08
9.4918092e-08
9.4974691e-08
9.5016547e-08
9.504289e-08
9.5053117e-08
9.5047948e-08
9.5028298e-08
9.4995093e-08
9.4949873e-08
9.4894425e-08
9.4830601e-08
9.4760383e-08
9.4685378e-08
9.4607354e-08
9.4528169e-08
9.4449386e-08
9.4372031e-08
9.4297188e-08
9.4225696e-08
9.4157917e-08
9.4094067e-08
9.4034429e-08
9.3978973e-08
9.3927591e-08
9.3880124e-08
9.3836241e-08
9.3795874e-08
9.3757764e-08
9.2936349e-08
9.3007424e-08
9.3082663e-08
9.3161976e-08
9.3246367e-08
9.3335984e-08
9.3431051e-08
9.3531466e-08
9.3637372e-08
9.3748026e-08
9.3863413e-08
9.3983049e-08
9.4105797e-08
9.4230348e-08
9.4355491e-08
9.4479325e-08
9.4599624e-08
9.4714609e-08
9.4822428e-08
9.4920877e-08
9.5007913e-08
9.5081574e-08
9.5140244e-08
9.5182996e-08
9.5209004e-08
9.5217622e-08
9.52096e-08
9.5185897e-08
9.5147487e-08
9.5095992e-08
9.5033301e-08
9.4961381e-08
9.4882348e-08
9.4797921e-08
9.4709992e-08
9.4620573e-08
9.4531376e-08
9.4443506e-08
9.4358168e-08
9.4276323e-08
9.4198383e-08
9.4124563e-08
9.4055301e-08
9.3990508e-08
9.3930182e-08
9.3874119e-08
9.3822036e-08
9.3773795e-08
9.3728481e-08
9.2982609e-08
9.3057918e-08
9.3137873e-08
9.3222251e-08
9.3312144e-08
9.3407673e-08
9.3509071e-08
9.3616204e-08
9.3729207e-08
9.3847275e-08
9.3970351e-08
9.4097888e-08
9.4228659e-08
9.4361251e-08
9.4494342e-08
9.4625898e-08
9.475355e-08
9.4875374e-08
9.4989381e-08
9.5093225e-08
9.5184731e-08
9.5261822e-08
9.532279e-08
9.5366634e-08
9.5392478e-08
9.5399641e-08
9.53889e-08
9.5361257e-08
9.5317741e-08
9.5260056e-08
9.5190196e-08
9.5110247e-08
9.5022464e-08
9.4928688e-08
9.4830942e-08
9.4731394e-08
9.4631897e-08
9.4533651e-08
9.4437973e-08
9.4345945e-08
9.4258029e-08
9.4174457e-08
9.40958e-08
9.4021927e-08
9.3952927e-08
9.3888564e-08
9.3828596e-08
9.3772818e-08
9.372063e-08
9.3038582e-08
9.3118369e-08
9.3203317e-08
9.3293063e-08
9.338878e-08
9.3490569e-08
9.3598665e-08
9.3712902e-08
9.3833405e-08
9.3959308e-08
9.4090504e-08
9.4226378e-08
9.436561e-08
9.4506676e-08
9.4648137e-08
9.4787823e-08
9.4923215e-08
9.5052245e-08
9.5172774e-08
9.5282316e-08
9.5378563e-08
9.5459323e-08
9.5522794e-08
9.5567905e-08
9.5593729e-08
9.5599557e-08
9.5586193e-08
9.5554684e-08
9.5506113e-08
9.5442272e-08
9.5365257e-08
9.5277281e-08
9.5180742e-08
9.5077615e-08
9.4970061e-08
9.48604e-08
9.4750629e-08
9.4642048e-08
9.4536086e-08
9.4433939e-08
9.4336129e-08
9.4242914e-08
9.415498e-08
9.4072173e-08
9.3994661e-08
9.3922182e-08
9.3854534e-08
9.3791446e-08
9.3732612e-08
9.3104677e-08
9.3189208e-08
9.3279447e-08
9.3374888e-08
9.3476778e-08
9.3585197e-08
9.3700384e-08
9.3822139e-08
9.3950572e-08
9.4084754e-08
9.4224526e-08
9.4369195e-08
9.4517345e-08
9.4667337e-08
9.4817604e-08
9.4965838e-08
9.5109365e-08
9.5245964e-08
9.5373348e-08
9.5488884e-08
9.5590132e-08
9.5674784e-08
9.5740946e-08
9.5787477e-08
9.5813401e-08
9.581799e-08
9.5802068e-08
9.5766733e-08
9.5713122e-08
9.5643112e-08
9.5558909e-08
9.5462855e-08
9.5357499e-08
9.5244956e-08
9.5127533e-08
9.5007703e-08
9.4887607e-08
9.4768647e-08
9.465237e-08
9.454008e-08
9.4432365e-08
9.4329518e-08
9.4232328e-08
9.4140633e-08
9.4054668e-08
9.3974155e-08
9.3898928e-08
9.3828652e-08
9.37633e-08
9.3181502e-08
9.3271065e-08
9.336692e-08
9.3468405e-08
9.3576842e-08
9.3692291e-08
9.3814988e-08
9.3944703e-08
9.4081523e-08
9.4224457e-08
9.4373284e-08
9.4527232e-08
9.4684778e-08
9.4844164e-08
9.5003689e-08
9.5160898e-08
9.5312959e-08
9.5457492e-08
9.5592058e-08
9.5713877e-08
9.5820373e-08
9.5909127e-08
9.5978151e-08
9.6026236e-08
9.6052362e-08
9.6055783e-08
9.6037348e-08
9.5998198e-08
9.593953e-08
9.5863306e-08
9.5771843e-08
9.566762e-08
9.5553339e-08
9.5431265e-08
9.5303858e-08
9.5173742e-08
9.50432e-08
9.4913749e-08
9.4787047e-08
9.466451e-08
9.4546795e-08
9.4434242e-08
9.4327735e-08
9.4227111e-08
9.4132668e-08
9.404412e-08
9.3961334e-08
9.3883914e-08
9.38121e-08
9.326987e-08
9.3364776e-08
9.3466599e-08
9.3574505e-08
9.3689892e-08
9.3812798e-08
9.3943455e-08
9.4081601e-08
9.4227295e-08
9.4379482e-08
9.4537872e-08
9.4701604e-08
9.4869048e-08
9.5038313e-08
9.5207561e-08
9.5374181e-08
9.5535178e-08
9.5688011e-08
9.583008e-08
9.5958459e-08
9.607044e-08
9.6163489e-08
9.6235531e-08
9.6285289e-08
9.63117e-08
9.6314009e-08
9.6293083e-08
9.6250111e-08
9.6186348e-08
9.6103837e-08
9.6005014e-08
9.5892497e-08
9.5769149e-08
9.5637392e-08
9.5499839e-08
9.5359268e-08
9.5218105e-08
9.5077984e-08
9.4940681e-08
9.480772e-08
9.4679837e-08
9.4557424e-08
9.4441456e-08
9.433178e-08
9.4228752e-08
9.4132083e-08
9.4041671e-08
9.395706e-08
9.3878754e-08
9.3370814e-08
9.3471401e-08
9.3579571e-08
9.3694305e-08
9.3817077e-08
9.3947899e-08
9.4087e-08
9.423408e-08
9.4389167e-08
9.4551136e-08
9.4719625e-08
9.4893673e-08
9.5071535e-08
9.5251184e-08
9.5430632e-08
9.5607105e-08
9.5777444e-08
9.5938936e-08
9.6088822e-08
9.6224027e-08
9.6341714e-08
9.6439237e-08
9.6514436e-08
9.6565968e-08
9.6592734e-08
9.6593969e-08
9.6570563e-08
9.6523748e-08
9.6454832e-08
9.6365945e-08
9.6259641e-08
9.6138685e-08
9.6006106e-08
9.5864483e-08
9.5716587e-08
9.556535e-08
9.5413341e-08
9.5262315e-08
9.5114171e-08
9.4970545e-08
9.4832256e-08
9.4699759e-08
9.4574117e-08
9.4455196e-08
9.434341e-08
9.4238469e-08
9.4140307e-08
9.4048405e-08
9.3963534e-08
9.3485609e-08
9.3592242e-08
9.3707173e-08
9.3829177e-08
9.3959802e-08
9.4099036e-08
9.4247099e-08
9.4403651e-08
9.4568683e-08
9.4740998e-08
9.4920148e-08
9.510507e-08
9.5293891e-08
9.5484443e-08
9.5674577e-08
9.5861352e-08
9.6041435e-08
9.6211939e-08
9.6369943e-08
9.6512225e-08
9.6635819e-08
9.6737976e-08
9.6816452e-08
9.6869846e-08
9.689702e-08
9.689721e-08
9.6871325e-08
9.6820635e-08
9.6746504e-08
9.6651142e-08
9.6537226e-08
9.6407677e-08
9.6265686e-08
9.6113996e-08
9.5955534e-08
9.5793384e-08
9.5630259e-08
9.5468044e-08
9.5308762e-08
9.5154166e-08
9.5005168e-08
9.4862294e-08
9.4726692e-08
9.4598259e-08
9.4477463e-08
9.4364021e-08
9.4257899e-08
9.4158514e-08
9.4066915e-08
9.36158e-08
9.3728878e-08
9.3851022e-08
9.3980774e-08
9.4119762e-08
9.4267944e-08
9.4425527e-08
9.4592129e-08
9.4767697e-08
9.4950952e-08
9.5141357e-08
9.5337733e-08
9.5538075e-08
9.574006e-08
9.5941373e-08
9.6138897e-08
9.6329119e-08
9.6508977e-08
9.6675382e-08
9.682497e-08
9.6954651e-08
9.7061578e-08
9.7143431e-08
9.7198754e-08
9.7226379e-08
9.7225543e-08
9.7197173e-08
9.7142576e-08
9.7063163e-08
9.6961228e-08
9.6839573e-08
9.6701275e-08
9.654969e-08
9.6387723e-08
9.6218454e-08
9.6045116e-08
9.5870568e-08
9.569683e-08
9.552606e-08
9.5360131e-08
9.5200058e-08
9.5046448e-08
9.490054e-08
9.4762266e-08
9.4632154e-08
9.450993e-08
9.4395598e-08
9.4288507e-08
9.4189998e-08
9.3763243e-08
9.3883205e-08
9.4013057e-08
9.4151082e-08
9.4298988e-08
9.4456699e-08
9.4624407e-08
9.480168e-08
9.4988412e-08
9.518324e-08
9.5385523e-08
9.5593958e-08
9.5806398e-08
9.6020356e-08
9.6233341e-08
9.6442053e-08
9.6642795e-08
9.6832324e-08
9.7007388e-08
9.7164482e-08
9.73004e-08
9.7412205e-08
9.7497511e-08
9.7554812e-08
9.7582918e-08
9.7581068e-08
9.7550208e-08
9.7491676e-08
9.7406924e-08
9.7298326e-08
9.7168816e-08
9.7021627e-08
9.6860277e-08
9.6687823e-08
9.6507495e-08
9.6322672e-08
9.613636e-08
9.5950725e-08
9.5768063e-08
9.5590381e-08
9.5418805e-08
9.5254035e-08
9.5097402e-08
9.4948883e-08
9.4809065e-08
9.4677688e-08
9.4554795e-08
9.4439666e-08
9.4333953e-08
9.3930154e-08
9.4057483e-08
9.4195593e-08
9.4342467e-08
9.4499899e-08
9.4667775e-08
9.4846264e-08
9.5034879e-08
9.5233451e-08
9.5440524e-08
9.565534e-08
9.5876462e-08
9.6101588e-08
9.6328061e-08
9.6553201e-08
9.6773522e-08
9.698514e-08
9.7184629e-08
9.7368573e-08
9.7533333e-08
9.7675598e-08
9.7792354e-08
9.7881159e-08
9.7940465e-08
9.7969066e-08
9.7966212e-08
9.7932861e-08
9.7870376e-08
9.7780244e-08
9.7664918e-08
9.7527465e-08
9.7371272e-08
9.7200006e-08
9.7016869e-08
9.6825229e-08
9.6628607e-08
9.6430163e-08
9.6232213e-08
9.603721e-08
9.5847302e-08