/*--------------------------------*- C++ -*----------------------------------*\
| =========                 |                                                 |
| \\      /  F ield         | OpenFOAM: The Open Source CFD Toolbox           |
|  \\    /   O peration     | Version:  v2006                                 |
|   \\  /    A nd           | Website:  www.openfoam.com                      |
|    \\/     M anipulation  |                                                 |
\*---------------------------------------------------------------------------*/
FoamFile
{
    version     2.0;
    format      ascii;
    class       surfaceScalarField;
    location    "3500";
    object      phi;
}
// * * * * * * * * * * * * * * * * * * * * * * * * * * * * * * * * * * * * * //

dimensions      [1 0 -1 0 0 0 0];
oriented        oriented;


internalField   nonuniform List<scalar> 
39234
(
-0.00063016066
-6.2579724e-06
0.00063641863
-0.0006083612
-2.1799459e-05
-0.00055825082
-5.0110377e-05
-0.00051441182
-4.3839002e-05
-0.00047051533
-4.3896493e-05
-0.00043139244
-3.9122882e-05
-0.00038529976
-4.6092681e-05
-0.00034572145
-3.957831e-05
-0.00029950228
-4.6219175e-05
-0.00025263564
-4.686664e-05
-0.00020984143
-4.2794211e-05
-0.00016858435
-4.1257079e-05
-0.0001264751
-4.2109251e-05
-8.4955651e-05
-4.1519446e-05
-4.2723389e-05
-4.2232262e-05
9.3996527e-07
-4.3663354e-05
4.5262161e-05
-4.4322196e-05
9.0910698e-05
-4.5648537e-05
0.00013822774
-4.7317038e-05
0.00018740784
-4.9180099e-05
0.00023754745
-5.0139612e-05
0.00028654939
-4.9001939e-05
0.00033655258
-5.0003196e-05
0.00038764917
-5.1096582e-05
0.00043495659
-4.7307421e-05
0.00047581051
-4.0853924e-05
0.00051628216
-4.0471652e-05
0.00055668668
-4.0404512e-05
0.00059119463
-3.4507959e-05
0.00062355053
-3.2355897e-05
0.00065615317
-3.2602634e-05
0.00068999383
-3.3840668e-05
0.00072672822
-3.6734384e-05
0.00075304759
-2.6319376e-05
0.0007708536
-1.780601e-05
0.00079265872
-2.180512e-05
0.00082083643
-2.8177705e-05
0.00084091415
-2.0077725e-05
0.0008667774
-2.5863241e-05
0.00090412158
-3.7344185e-05
0.00093139924
-2.7277657e-05
0.00093939568
-7.9964435e-06
0.00096117503
-2.177935e-05
0.00095676217
4.4128661e-06
0.00095992471
-3.162542e-06
0.00094302293
1.6901778e-05
0.00092136909
2.1653841e-05
0.00089540431
2.5964784e-05
1.9772129e-05
0.00087563218
-0.0005907215
-2.3166588e-05
0.00060763011
-0.0005711701
-4.1350857e-05
-0.00054809355
-7.3186925e-05
-0.00052213844
-6.9794118e-05
-0.00049503859
-7.0996344e-05
-0.00046755684
-6.6604627e-05
-0.00043941298
-7.4236542e-05
-0.00041068855
-6.8302737e-05
-0.00038072014
-7.618759e-05
-0.00034861521
-7.8971564e-05
-0.00031490777
-7.6501658e-05
-0.00027961202
-7.6552823e-05
-0.00024202957
-7.9691701e-05
-0.00020241565
-8.1133371e-05
-0.00016060167
-8.4046243e-05
-0.00011553579
-8.872923e-05
-6.7109033e-05
-9.2748954e-05
-1.623374e-05
-9.6523829e-05
3.6978634e-05
-0.00010052941
9.228048e-05
-0.00010448195
0.00014948773
-0.00010734687
0.00020831385
-0.00010782805
0.00026761448
-0.00010930383
0.00032669876
-0.00011018087
0.00038541454
-0.0001060232
0.00044328475
-9.8724133e-05
0.00049881957
-9.600647e-05
0.0005514615
-9.3046449e-05
0.00060120644
-8.4252891e-05
0.00064737439
-7.8523849e-05
0.0006896422
-7.4870443e-05
0.00072788729
-7.2085764e-05
0.00076172752
-7.0574611e-05
0.00079210922
-5.6701079e-05
0.00081985562
-4.555241e-05
0.000844868
-4.6817496e-05
0.00086699632
-5.0306029e-05
0.00088721368
-4.0295082e-05
0.00090546219
-4.4111749e-05
0.00092096005
-5.2842045e-05
0.00093422062
-4.0538224e-05
0.00094739271
-2.1168541e-05
0.00095913288
-3.3519513e-05
0.00097049341
-6.947668e-06
0.00098080792
-1.347705e-05
0.00098958708
8.1226204e-06
0.00099697047
1.4270447e-05
0.0010030297
1.9905596e-05
1.4176905e-05
0.0010086249
-0.00065523289
-3.8322169e-05
0.00067038847
-0.00063662163
-5.9962109e-05
-0.00061518841
-9.462015e-05
-0.00059220747
-9.2775055e-05
-0.00056809292
-9.5110898e-05
-0.00054313368
-9.1563867e-05
-0.00051701205
-0.00010035817
-0.00048984868
-9.5466112e-05
-0.00046105161
-0.00010498465
-0.00043000826
-0.00011001492
-0.00039669881
-0.00010981111
-0.00036097455
-0.00011227708
-0.00032242032
-0.00011824593
-0.0002810517
-0.00012250199
-0.00023670598
-0.00012839196
-0.00018866394
-0.00013677128
-0.00013667395
-0.00014473894
-8.126275e-05
-0.00015193503
-2.2653716e-05
-0.00015913845
3.8768355e-05
-0.00016590402
0.00010262404
-0.00017120255
0.00016851052
-0.00017371452
0.00023532242
-0.00017611573
0.00030220507
-0.00017706352
0.0003687707
-0.00017258883
0.00043445467
-0.0001644081
0.00049789951
-0.00015945131
0.00055842678
-0.00015357371
0.00061587371
-0.00014169982
0.00066943655
-0.00013208669
0.00071861961
-0.00012405351
0.00076312438
-0.00011659053
0.00080278644
-0.00011023667
0.00083863839
-9.2553025e-05
0.00087095281
-7.7866839e-05
0.00089928204
-7.5146724e-05
0.00092395287
-7.4976856e-05
0.00094618347
-6.2525681e-05
0.00096547642
-6.3404701e-05
0.00098186343
-6.9229052e-05
0.00099661524
-5.5290036e-05
0.0010101156
-3.4668855e-05
0.0010209519
-4.43559e-05
0.0010304844
-1.6480114e-05
0.0010378569
-2.0849568e-05
0.0010441255
1.8540282e-06
0.0010490976
9.2983121e-06
0.0010534954
1.5507784e-05
1.0382958e-05
0.0010572894
-0.00068201369
-5.1726877e-05
0.0006954184
-0.00066769939
-7.4276414e-05
-0.0006522806
-0.00011003894
-0.0006352831
-0.00010977256
-0.00061686186
-0.00011353214
-0.00059693616
-0.00011148957
-0.00057535123
-0.0001219431
-0.00055186533
-0.00011895201
-0.00052617396
-0.00013067603
-0.00049771203
-0.00013847684
-0.00046629517
-0.00014122798
-0.0004316803
-0.00014689195
-0.00039350123
-0.000156425
-0.00035167187
-0.00016433136
-0.00030599789
-0.00017406594
-0.00025596635
-0.00018680281
-0.00020143207
-0.00019927322
-0.00014279977
-0.00021056733
-8.0325626e-05
-0.00022161259
-1.4447378e-05
-0.00023178226
5.4403069e-05
-0.000240053
0.00012581922
-0.00024513068
0.00019865397
-0.00024895048
0.00027192731
-0.00025033686
0.00034510162
-0.00024576313
0.00041747485
-0.00023678134
0.00048758266
-0.00022955912
0.00055453836
-0.00022052941
0.00061802293
-0.0002051844
0.00067716305
-0.0001912268
0.00073137501
-0.00017826547
0.000780352
-0.00016556752
0.00082392362
-0.00015380829
0.00086305458
-0.00013168398
0.00089798538
-0.00011279764
0.00092828529
-0.00010544664
0.00095421436
-0.00010090592
0.00097701278
-8.5324104e-05
0.00099628798
-8.2679902e-05
0.0010121535
-8.5094548e-05
0.0010261452
-6.9281794e-05
0.0010392441
-4.7767735e-05
0.0010502667
-5.5378475e-05
0.0010610594
-2.7272796e-05
0.0010706057
-3.0395906e-05
0.0010803658
-7.9060209e-06
0.0010900696
-4.0548343e-07
0.0011000339
5.5434279e-06
3.5220273e-07
0.0011100647
-0.00072825012
-6.4456016e-05
0.00074097926
-0.00071476226
-8.7764277e-05
-0.00070029921
-0.00012450199
-0.00068464205
-0.00012542972
-0.00066767766
-0.00013049652
-0.00064920361
-0.00012996362
-0.00062894399
-0.00014220272
-0.00060659727
-0.00014129872
-0.00058180553
-0.00015546777
-0.00055400633
-0.00016627604
-0.00052288668
-0.00017234763
-0.0004881247
-0.00018165392
-0.00044933888
-0.00019521082
-0.00040630817
-0.00020736207
-0.00035881637
-0.00022155775
-0.00030649676
-0.00023912241
-0.00024917583
-0.00025659415
-0.000187107
-0.00027263616
-0.0001205516
-0.00028816799
-4.990763e-05
-0.00030242624
2.4294117e-05
-0.00031425475
0.00010127692
-0.00032211348
0.00017988938
-0.00032756294
0.00025918129
-0.00032962877
0.00033841718
-0.00032499902
0.00041671915
-0.00031508331
0.00049267336
-0.00030551333
0.0005653163
-0.00029317235
0.00063413546
-0.00027400356
0.00069824483
-0.00025533617
0.00075703502
-0.00023705566
0.0008101776
-0.0002187101
0.00085751814
-0.00020114882
0.00089978136
-0.0001739472
0.0009371606
-0.00015017688
0.00096940077
-0.0001376868
0.00099685173
-0.00012835688
0.0010205911
-0.00010906342
0.0010405052
-0.00010259403
0.0010569206
-0.00010150997
0.0010711448
-8.3505968e-05
0.0010839927
-6.0615684e-05
0.0010947565
-6.61422e-05
0.0011050169
-3.7533251e-05
0.0011141008
-3.9479768e-05
0.0011229388
-1.6744023e-05
0.0011313281
-8.7947883e-06
0.0011394842
-2.6126907e-06
-7.7272863e-06
0.0011475637
-0.00077611229
-7.538787e-05
0.00078704414
-0.00076448795
-9.9388612e-05
-0.00075176751
-0.00013722243
-0.00073775496
-0.00013944227
-0.00072224498
-0.0001460065
-0.00070499697
-0.00014721163
-0.00068564855
-0.00016155115
-0.00066391699
-0.00016303028
-0.00063936473
-0.00018002003
-0.00061147794
-0.00019416283
-0.00057992674
-0.00020389883
-0.00054433898
-0.00021724168
-0.00050429898
-0.00023525082
-0.00045955022
-0.00025211083
-0.00040984597
-0.00027126199
-0.00035483192
-0.00029413646
-0.0002943597
-0.00031706637
-0.00022866749
-0.00033832837
-0.00015805394
-0.00035878154
-8.2999591e-05
-0.00037748059
-4.0724562e-06
-0.00039318188
7.8035204e-05
-0.00040422114
0.00016217721
-0.00041170495
0.00024728496
-0.00041473652
0.00033245405
-0.00041016811
0.00041668107
-0.00039931033
0.00049853566
-0.00038736792
0.00057696455
-0.00037160124
0.00065132221
-0.00034836122
0.00072070125
-0.00032471522
0.00078445854
-0.00030081295
0.00084222895
-0.00027648051
0.0008938326
-0.00025275248
0.00093984937
-0.00021996397
0.00098047828
-0.0001908058
0.0010155949
-0.00017280343
0.0010455606
-0.00015832254
0.0010713417
-0.00013484461
0.0010930077
-0.00012425999
0.0011109502
-0.00011945243
0.0011263096
-9.8865435e-05
0.0011399082
-7.4214215e-05
0.0011513908
-7.7624844e-05
0.001162099
-4.8241479e-05
0.0011717339
-4.9114639e-05
0.001181196
-2.6206103e-05
0.0011905955
-1.8194314e-05
0.0012000757
-1.2092871e-05
-1.7221175e-05
0.0012095696
-0.00083045312
-8.5768859e-05
0.00084083411
-0.00081939135
-0.00011045038
-0.00080722404
-0.00014938975
-0.00079378787
-0.00015287844
-0.00077880321
-0.00016099116
-0.00076198139
-0.00016403345
-0.00074290035
-0.00018063218
-0.0007212429
-0.00018468773
-0.00069651692
-0.00020474602
-0.00066820394
-0.00022247582
-0.00063592602
-0.00023617675
-0.0005992618
-0.0002539059
-0.00055776076
-0.00027675186
-0.00051112069
-0.0002987509
-0.0004590611
-0.00032332159
-0.00040123698
-0.00035196059
-0.00033750772
-0.00038079563
-0.00026808203
-0.00040775406
-0.00019325781
-0.00043360576
-0.00011352344
-0.00045721496
-2.9511177e-05
-0.00047719415
5.8007823e-05
-0.00049174014
0.0001478493
-0.00050154642
0.00023885628
-0.0005057435
0.00033001406
-0.00050132589
0.00042020967
-0.00048950593
0.00050797872
-0.00047513697
0.00059219679
-0.0004558193
0.00067210706
-0.00042827149
0.00074676223
-0.0003993704
0.00081548575
-0.00036953646
0.00087788089
-0.00033887565
0.00093375391
-0.0003086255
0.00098359314
-0.00026980319
0.0010275775
-0.0002347902
0.0010656454
-0.00021087123
0.0010981976
-0.00019087477
0.0011261641
-0.0001628111
0.0011496986
-0.00014779447
0.0011692611
-0.00013901497
0.0011859618
-0.00011556612
0.0012005986
-8.8851017e-05
0.0012129551
-8.9981365e-05
0.0012242958
-5.9582173e-05
0.0012344224
-5.9241244e-05
0.0012441904
-3.5974044e-05
0.0012536931
-2.7697017e-05
0.0012632034
-2.1603177e-05
-2.6838166e-05
0.0012728204
-0.00088794891
-9.5265931e-05
0.00089744598
-0.00087765688
-0.00012074241
-0.00086612672
-0.00016091991
-0.00085320429
-0.00016580087
-0.00083858035
-0.0001756151
-0.00082194669
-0.00018066711
-0.00080284682
-0.00019973205
-0.00078094934
-0.0002065852
-0.00075571898
-0.00022997637
-0.00072663614
-0.00025155866
-0.00069329108
-0.00026952181
-0.00065522196
-0.00029197502
-0.0006119438
-0.00032003002
-0.00056311924
-0.00034757545
-0.00050843868
-0.00037800214
-0.00044755395
-0.00041284531
-0.00038033094
-0.00044801864
-0.00030696489
-0.00048112011
-0.00022776199
-0.00051280866
-0.00014323446
-0.00054174248
-5.4062943e-05
-0.00056636567
3.8926481e-05
-0.00058472957
0.00013453519
-0.00059715514
0.00023152788
-0.00060273619
0.00032877776
-0.00059857577
0.00042506842
-0.00058579659
0.00051888503
-0.00056895358
0.00060902301
-0.00054595728
0.00069462599
-0.00051387448
0.00077470724
-0.00047945165
0.00084855145
-0.00044338067
0.000915726
-0.0004060502
0.00097601275
-0.00036891226
0.0010298234
-0.00032361389
0.0010773396
-0.00028230631
0.0011185656
-0.00025209728
0.0011539164
-0.00022622554
0.0011842818
-0.00019317656
0.0012099016
-0.0001734142
0.0012312693
-0.00016038275
0.001249438
-0.00013373482
0.0012652123
-0.0001046253
0.00127851
-0.00010327904
0.0012905224
-7.1594611e-05
0.0013011768
-6.9895635e-05
0.001311303
-4.6100261e-05
0.0013210814
-3.7475363e-05
0.0013308279
-3.1349678e-05
-3.6652108e-05
0.0013406418
-0.00094987753
-0.00010435309
0.0009589647
-0.00093992026
-0.00013069968
-0.00092865047
-0.0001721897
-0.00091590218
-0.00017854915
-0.00090133395
-0.00019018333
-0.00088460865
-0.00019739241
-0.00086524145
-0.00021909926
-0.00084286991
-0.00022895673
-0.00081692517
-0.00025592112
-0.00078687126
-0.00028161257
-0.0007522593
-0.00030413377
-0.00071258746
-0.00033164686
-0.00066733705
-0.00036528043
-0.00061613336
-0.00039877914
-0.00055863628
-0.00043549923
-0.00049449099
-0.0004769906
-0.0004235645
-0.00051894513
-0.00034603951
-0.0005586451
-0.00026222851
-0.00059661966
-0.00017266376
-0.00063130723
-7.8064018e-05
-0.00066096541
2.0680756e-05
-0.00068347434
0.00012231982
-0.0006987942
0.00022554207
-0.00070595845
0.00032912189
-0.00070215558
0.00043174329
-0.00068841799
0.00053183413
-0.00066904442
0.00062811322
-0.00064223638
0.000719631
-0.00060539226
0.00080535356
-0.00056517421
0.00088452507
-0.00052255218
0.00095667879
-0.00047820392
0.001021577
-0.00043381045
0.0010795751
-0.00038161197
0.0011308466
-0.00033357788
0.0011754349
-0.00029668553
0.0012137762
-0.0002645669
0.0012467461
-0.00022614644
0.0012746368
-0.00020130489
0.0012979821
-0.00018372803
0.0013178281
-0.00015358083
0.0013349782
-0.00012177544
0.0013494276
-0.00011772842
0.0013623434
-8.451036e-05
0.0013737089
-8.126119e-05
0.0013843508
-5.6742125e-05
0.001394469
-4.7593605e-05
0.0014043904
-4.1271041e-05
-4.6525835e-05
0.0014142641
-0.0010154661
-0.00011300986
0.0010241229
-0.0010058233
-0.00014034253
-0.00099475729
-0.00018325572
-0.00098208453
-0.00019122191
-0.0009674446
-0.00020482325
-0.00095047841
-0.0002143586
-0.00093068025
-0.00023889742
-0.00090765925
-0.00025197773
-0.00088081773
-0.00028276264
-0.0008496003
-0.00031283
-0.00081352132
-0.00034021275
-0.00077204158
-0.00037312661
-0.00072460883
-0.00041271318
-0.00067081251
-0.00045257546
-0.00061028344
-0.0004960283
-0.00054265633
-0.00054461771
-0.00046779573
-0.00059380573
-0.00038587489
-0.00064056593
-0.00029721495
-0.00068527961
-0.00020237137
-0.00072615081
-0.00010210473
-0.00076123205
2.6365979e-06
-0.00078821567
0.0001105483
-0.0008067059
0.00022024297
-0.00081565312
0.00033039839
-0.000812311
0.0004395989
-0.0007976185
0.00054620569
-0.00077565121
0.00064885586
-0.00074488655
0.00074650893
-0.00070304533
0.00083808008
-0.00065674536
0.0009227689
-0.000607241
0.0010000715
-0.00055550655
0.0010697258
-0.00050346473
0.0011320378
-0.00044392398
0.00118718
-0.00038872007
0.001235234
-0.00034473951
0.0012766508
-0.00030598368
0.001312294
-0.00026178963
0.0013425108
-0.00023152171
0.0013678647
-0.00020908197
0.0013893868
-0.00017510295
0.0014078941
-0.00014028268
0.0014234562
-0.00013329051
0.001437218
-9.8272235e-05
0.001449227
-9.3270123e-05
0.0014603073
-6.7822452e-05
0.0014706994
-5.7985658e-05
0.0014807566
-5.1328323e-05
-5.6407486e-05
0.0014906383
-0.0010852518
-0.00012143647
0.0010936784
-0.0010757414
-0.00014985293
-0.0010647163
-0.0001942808
-0.0010519654
-0.00020397286
-0.0010371067
-0.00021968189
-0.0010197551
-0.00023171027
-0.00099938467
-0.00025926783
-0.00097556999
-0.00027579241
-0.00094768697
-0.00031064566
-0.00091515452
-0.00034536245
-0.00087744707
-0.00037792021
-0.00083398746
-0.00041658621
-0.00078418956
-0.00046251108
-0.00072760576
-0.00050915925
-0.00066383712
-0.00055979695
-0.00059250611
-0.00061594872
-0.00051347245
-0.00067283939
-0.00042690117
-0.00072713721
-0.00033312296
-0.00077905783
-0.00023271725
-0.00082655651
-0.0001264855
-0.0008674638
-1.5443683e-05
-0.00089925749
9.9048322e-05
-0.00092119791
0.00021552886
-0.00093213366
0.00033257064
-0.00092935278
0.00044865943
-0.00091370728
0.00056208361
-0.00088907539
0.00067139678
-0.00085419972
0.00077546885
-0.0008071174
0.00087315959
-0.00075443611
0.00096362212
-0.00069770353
0.0010463156
-0.00063820005
0.0011209553
-0.00057810439
0.0011878076
-0.0005107763
0.001247042
-0.00044795442
0.001298769
-0.00039646652
0.001343458
-0.00035067274
0.0013819723
-0.0003003039
0.0014147019
-0.0002642513
0.0014422434
-0.00023662352
0.0014656344
-0.00019849392
0.0014857023
-0.00016035061
0.0015025713
-0.00015015948
0.0015173843
-0.00011308529
0.001530228
-0.00010611377
0.0015419353
-7.9529744e-05
0.001552766
-6.8816381e-05
0.0015630888
-6.1651145e-05
-6.6415486e-05
0.0015730968
-0.0011591074
-0.00012967594
0.0011673468
-0.0011496754
-0.0001592849
-0.0011386263
-0.00020532992
-0.0011257178
-0.00021688132
-0.0011105501
-0.00023484956
-0.0010927125
-0.00024954786
-0.0010716605
-0.00028031982
-0.0010469329
-0.00030052004
-0.0010178801
-0.00033969851
-0.0009838918
-0.0003793507
-0.00094440178
-0.00041741023
-0.00089879475
-0.00046219324
-0.00084644973
-0.0005148561
-0.00078688146
-0.00056872752
-0.00071966093
-0.00062701748
-0.00064439642
-0.00069121323
-0.00056094075
-0.00075629505
-0.00046945201
-0.00081862595
-0.00037027191
-0.00087823793
-0.00026400602
-0.00093282241
-0.00015149996
-0.00097996986
-3.3834724e-05
-0.0010169227
8.7565762e-05
-0.0010425984
0.00021116062
-0.0010557285
0.00033541881
-0.001053611
0.0004587242
-0.0010370127
0.00057928512
-0.0010096363
0.00069556706
-0.00097048166
0.00080634907
-0.0009178994
0.00091043099
-0.00085851803
0.0010069157
-0.00079418825
0.0010952229
-0.00072650721
0.0011750423
-0.00065792382
0.0012466044
-0.00058233843
0.0013100771
-0.00051142705
0.001365598
-0.00045198749
0.0014136534
-0.00039872808
0.0014551091
-0.00034175963
0.0014903993
-0.00029954149
0.0015201516
-0.00026637579
0.0015454091
-0.0002237514
0.0015670183
-0.00018195989
0.0015851574
-0.00016829851
0.0016009705
-0.00012889843
0.0016145869
-0.00011973013
0.0016268497
-9.1792551e-05
0.0016380445
-8.0011157e-05
0.0016485588
-7.2165499e-05
-7.6451797e-05
0.0016585951
-0.0012374111
-0.00013783263
0.0012455678
-0.0012279598
-0.00016873623
-0.0012167936
-0.00021649612
-0.0012036349
-0.00023003997
-0.0011880642
-0.00025042034
-0.0011696426
-0.00026796938
-0.0011478063
-0.00030215613
-0.0011220549
-0.00032627145
-0.001091713
-0.00037004047
-0.0010561373
-0.00041492632
-0.0010147185
-0.00045882906
-0.00096680171
-0.00051011005
-0.0009117299
-0.00056992791
-0.00084897873
-0.00063147869
-0.00077808814
-0.00069790807
-0.00069865078
-0.0007706506
-0.00061051104
-0.00084443479
-0.00051382097
-0.00091531602
-0.00040893456
-0.00098312434
-0.00029648549
-0.0010452715
-0.00017736627
-0.0010990891
-5.2723074e-05
-0.0011415659
7.5949643e-05
-0.0011712711
0.00020702505
-0.0011868039
0.00033886747
-0.0011854534
0.00046975525
-0.0011679005
0.00059781008
-0.0011376911
0.00072140537
-0.0010940769
0.00083922773
-0.0010357218
0.00095001293
-0.00096930324
0.0010528112
-0.00089698647
0.0011470017
-0.00082069771
0.0012322492
-0.00074317141
0.0013087536
-0.00065884277
0.0013766816
-0.00057935507
0.0014361959
-0.00051150178
0.0014878022
-0.00045033434
0.0015323761
-0.00038633358
0.0015703925
-0.00033755792
0.0016025126
-0.00029849591
0.0016297957
-0.00025103445
0.0016531074
-0.00020527158
0.0016726717
-0.00018786288
0.0016896436
-0.00014587026
0.0017041851
-0.00013427165
0.0017171546
-0.00010476206
0.0017288562
-9.1712798e-05
0.0017396935
-8.3002801e-05
-8.6651622e-05
0.0017498934
-0.0013202692
-0.00014595394
0.0013283906
-0.0013107478
-0.0001782577
-0.0012994087
-0.00022783517
-0.0012859366
-0.00024351209
-0.001269892
-0.0002664649
-0.0012508076
-0.0002870538
-0.0012280988
-0.00032486494
-0.0012012245
-0.00035314575
-0.0011694824
-0.00040178262
-0.0011321932
-0.00045221545
-0.0010887025
-0.00050231981
-0.0010383145
-0.00056049802
-0.00098033456
-0.00062790786
-0.00091419773
-0.00069761551
-0.00083941189
-0.00077269391
-0.0007555525
-0.00085450999
-0.00066245425
-0.00093753304
-0.00056026384
-0.0010175064
-0.00044934892
-0.0010940393
-0.00033037346
-0.0011642469
-0.00020427959
-0.001225183
-7.2281486e-05
-0.001273564
6.4050822e-05
-0.0013076034
0.00020299921
-0.0013257523
0.0003428199
-0.0013252741
0.00048168144
-0.001306762
0.00061761191
-0.0012736216
0.00074888761
-0.0012253527
0.00087409979
-0.0011609339
0.00099191551
-0.001087119
0.0011013287
-0.0010063996
0.0012016758
-0.00092104481
0.0012925947
-0.00083409038
0.0013742564
-0.00074050445
0.0014468272
-0.00065192581
0.0015104929
-0.00057516754
0.001565779
-0.00050562045
0.0016135739
-0.00043412847
0.0016543937
-0.00037837766
0.0016889336
-0.00033303584
0.001718271
-0.00028037181
0.0017432958
-0.00023029639
0.001764279
-0.00020884605
0.0017823892
-0.00016398048
0.0017978243
-0.00014970678
0.0018114598
-0.0001183976
0.0018236217
-0.00010387467
0.001834731
-9.4112127e-05
-9.6946769e-05
0.0018450262
-0.001408023
-0.00015410515
0.0014161742
-0.0013983676
-0.00018791311
-0.0013867912
-0.0002394115
-0.001372938
-0.00025736531
-0.0013563473
-0.00028305565
-0.0013365208
-0.00030688029
-0.001312852
-0.00034853372
-0.0012847563
-0.0003812414
-0.0012515031
-0.00043503583
-0.001212374
-0.00049134462
-0.0011666668
-0.000548027
-0.001113643
-0.00061352174
-0.0010525684
-0.00068898248
-0.00098283573
-0.00076734821
-0.00090391932
-0.00085161032
-0.00081537607
-0.00094305324
-0.00071702973
-0.0010358794
-0.00060902237
-0.0011255138
-0.00049173654
-0.0012113251
-0.00036586874
-0.0012901147
-0.00023241354
-0.0013586382
-9.2656495e-05
-0.0014133211
5.1751745e-05
-0.0014520117
0.00019899608
-0.0014729966
0.00034722007
-0.0014734981
0.00049447767
-0.0014540196
0.0006386965
-0.0014178404
0.00077805064
-0.0013647068
0.0009110326
-0.0012939159
0.0010362363
-0.0012123227
0.0011525963
-0.0011227597
0.0012594048
-0.0010278532
0.0013562722
-0.00093095777
0.0014433435
-0.00082757573
0.0015207855
-0.00072936789
0.0015888076
-0.00064318965
0.0016479576
-0.00056477039
0.0016991415
-0.00048531234
0.0017429172
-0.00042215336
0.0017800169
-0.00037013555
0.0018115422
-0.00031189719
0.0018384095
-0.00025716362
0.001860934
-0.00023137059
0.0018803035
-0.00018334996
0.0018967481
-0.00016615145
0.0019111636
-0.00013281304
0.0019238955
-0.0001166066
0.0019353824
-0.00010559901
-0.00010744739
0.001945883
-0.0015008956
-0.00016232781
0.0015091183
-0.0014910625
-0.00019774629
-0.0014792008
-0.00025127314
-0.0014649121
-0.00027165401
-0.0014477134
-0.00030025433
-0.0014270742
-0.00032751952
-0.0014023641
-0.00037324378
-0.0013729531
-0.00041065246
-0.0013380802
-0.00046990869
-0.0012969848
-0.00053244001
-0.0012489151
-0.00059609677
-0.0011930874
-0.00066934935
-0.0011287259
-0.00075334403
-0.001055179
-0.00084089508
-0.00097188618
-0.00093490316
-0.00087838418
-0.0010365552
-0.00077448481
-0.0011397787
-0.00066032603
-0.0012396726
-0.00053630664
-0.0013353445
-0.000403158
-0.0014232634
-0.00026193026
-0.0014998659
-0.00011398424
-0.0015612671
3.8943546e-05
-0.0016049394
0.0001949352
-0.0016289883
0.00035201636
-0.0016305792
0.00050812088
-0.0016101241
0.00066106879
-0.0015707883
0.00080892622
-0.0015125642
0.00095008282
-0.0014350725
0.0010830545
-0.0013452944
0.001206713
-0.0012464181
0.0013203033
-0.0011414436
0.0014234073
-0.0010340617
0.001516145
-0.00092031348
0.0015986843
-0.00081190717
0.0016712571
-0.00071576241
0.0017344345
-0.0006279478
0.0017891432
-0.00054002102
0.0018359837
-0.00046899391
0.0018757268
-0.00040987864
0.0019095012
-0.00034567153
0.001938253
-0.0002859155
0.0019623437
-0.00025546125
0.0019829832
-0.00020398946
0.0020004366
-0.00018360481
0.0020156218
-0.00014799825
0.0020289068
-0.00012989166
0.0020407492
-0.00011744133
-0.00011812055
0.0020514223
-0.0015992311
-0.0001706687
0.001607572
-0.0015891723
-0.00020780512
-0.0015769742
-0.00026347123
-0.0015621937
-0.00028643452
-0.0015443239
-0.00031812413
-0.0015227998
-0.00034904356
-0.0014969656
-0.00039907798
-0.0014661431
-0.00044147503
-0.001429539
-0.00050651274
-0.0013863474
-0.00057563166
-0.0013357639
-0.00064668027
-0.0012769576
-0.00072815561
-0.0012091085
-0.00082119316
-0.0011315187
-0.00091848489
-0.0010435909
-0.0010228309
-0.00094484025
-0.0011353059
-0.00083506568
-0.0012495533
-0.00071440144
-0.0013603368
-0.00058326405
-0.0014664819
-0.00044242207
-0.0015641054
-0.00029298454
-0.0016493034
-0.00013639176
-0.0017178599
2.5528391e-05
-0.0017668596
0.00019074905
-0.001794209
0.00035717201
-0.0017970022
0.00052260503
-0.0017755571
0.00068475324
-0.0017329366
0.00084156878
-0.0016693798
0.00099133389
-0.0015848376
0.0011324816
-0.0014864421
0.001263817
-0.0013777535
0.0013845362
-0.0012621628
0.0014941909
-0.0011437164
0.0015928782
-0.0010190008
0.0016807677
-0.00089979664
0.0017581146
-0.00079310935
0.0018255161
-0.00069534935
0.0018839237
-0.0005984286
0.0019339825
-0.0005190527
0.0019765048
-0.0004524009
0.0020126513
-0.00038181804
0.0020434012
-0.00031666541
0.0020691619
-0.000281222
0.0020911699
-0.00022599738
0.0021097243
-0.00020215923
0.0021257681
-0.00016404206
0.0021396917
-0.0001438153
0.0021519725
-0.00012972207
-0.00012905186
0.0021629038
-0.0017033286
-0.00017916373
0.0017118236
-0.0016930054
-0.00021812831
-0.0016804273
-0.0002760493
-0.0016651047
-0.00030175718
-0.0016465051
-0.00033672376
-0.0016240273
-0.00037152137
-0.0015969876
-0.0004261176
-0.0015646575
-0.0004738052
-0.0015262091
-0.0005449611
-0.0014807879
-0.00062105286
-0.0014275345
-0.00069993371
-0.0013655679
-0.00079012212
-0.0012940216
-0.00089273954
-0.0012121489
-0.0010003575
-0.0011193141
-0.0011156657
-0.0010150092
-0.0012396108
-0.00089901902
-0.0013655434
-0.0007714748
-0.001487881
-0.00063281209
-0.0016051446
-0.00048383921
-0.0017130782
-0.0003257277
-0.0018074149
-0.00016000186
-0.0018835857
1.1413487e-05
-0.0019382749
0.0001863758
-0.0019691713
0.00036265647
-0.0019732829
0.00053793072
-0.0019508314
0.00070978121
-0.001904787
0.00087603957
-0.0018356381
0.0010348755
-0.0017436735
0.0011846339
-0.0016362005
0.0013240492
-0.0015171689
0.0014522661
-0.0013903796
0.0015688046
-0.0012602549
0.0016737394
-0.0011239356
0.0017672424
-0.00099329965
0.0018495925
-0.00087545941
0.0019214142
-0.0007671711
0.0019836867
-0.00066070113
0.0020371014
-0.00057246736
0.0020825142
-0.00049781371
0.0021211212
-0.00042042503
0.0021539378
-0.00034948203
0.0021814194
-0.00030870357
0.0022048319
-0.00024940991
0.0022245114
-0.00022183873
0.0022414282
-0.00018095883
0.0022559975
-0.00015838461
0.0022687182
-0.00014244279
-0.00014023553
0.0022799019
-0.0018135552
-0.00018785014
0.0018222417
-0.0018029276
-0.00022875597
-0.0017899247
-0.00028905223
-0.0017740081
-0.00031767371
-0.0017546184
-0.00035611351
-0.0017311157
-0.000395024
-0.0017027867
-0.00045444663
-0.0016688494
-0.00050774254
-0.001628439
-0.00058537148
-0.0015806492
-0.00066884264
-0.0015245625
-0.00075602041
-0.0014592452
-0.00085543942
-0.0013837813
-0.00096820347
-0.0012973731
-0.0010867657
-0.0011993443
-0.0012136946
-0.0010891619
-0.0013497932
-0.00096659623
-0.0014881092
-0.00083177549
-0.0016227018
-0.00068515584
-0.0017517642
-0.00052758807
-0.001870646
-0.00036030996
-0.001974693
-0.00018493456
-0.0020589611
-3.4900394e-06
-0.0021197195
0.00018175875
-0.0021544201
0.00036844597
-0.0021599701
0.000554107
-0.0021364924
0.00073619419
-0.0020868742
0.00091241178
-0.0020118557
0.0010808113
-0.001912073
0.001239644
-0.0017950333
0.00138757
-0.0016650949
0.0015236794
-0.001526489
0.0016474593
-0.0013840348
0.0017589629
-0.0012354392
0.0018583651
-0.0010927019
0.0019459694
-0.00096306371
0.0020224305
-0.00084363213
0.0020887588
-0.00072702944
0.0021456945
-0.00062940306
0.0021941407
-0.00054625992
0.0022353332
-0.00046161752
0.0022703271
-0.000384476
0.0022996275
-0.00033800388
0.0023245334
-0.00027431589
0.0023454189
-0.00024272424
0.0023632841
-0.00019882402
0.0023785703
-0.00017367075
0.0023917994
-0.00015567187
-0.00015174044
0.0024033043
-0.0019302695
-0.00019675997
0.0019391794
-0.0019193016
-0.00023972393
-0.0019058322
-0.00030252162
-0.0018892723
-0.00033423355
-0.0018690333
-0.00037635256
-0.0018444348
-0.00041962249
-0.0018147311
-0.00048415032
-0.0017790843
-0.00054338931
-0.0017365901
-0.00062786574
-0.0016862869
-0.00071914577
-0.0016271961
-0.00081511122
-0.0015583282
-0.00092430731
-0.0014787149
-0.0010478168
-0.0013875049
-0.0011779758
-0.0012839789
-0.0013172206
-0.0011675776
-0.0014661944
-0.0010380555
-0.0016176313
-0.00089553839
-0.0017652188
-0.00074050456
-0.0019067981
-0.00057385
-0.0020373006
-0.00039688269
-0.0021516604
-0.00021130923
-0.0022445346
-1.9269365e-05
-0.0023117593
0.00017684393
-0.0023505334
0.0003745213
-0.0023576475
0.00057114892
-0.00233312
0.00076404099
-0.0022797663
0.00095076702
-0.0021985818
0.0011292543
-0.0020905602
0.001297655
-0.001963434
0.0014545501
-0.0018219899
0.0015989723
-0.0016709112
0.0017303744
-0.0015154369
0.0018487882
-0.001353853
0.0019543923
-0.001198306
0.0020475154
-0.0010561868
0.002128844
-0.00092496077
0.0021994235
-0.00079760893
0.0022600448
-0.00069002438
0.0023116609
-0.000597876
0.0023555508
-0.00050550744
0.002392813
-0.00042173814
0.0024240039
-0.0003691948
0.0024504597
-0.00030077174
0.0024725945
-0.00026485902
0.0024914411
-0.00021767058
0.0025074689
-0.00018969862
0.0025212252
-0.00016942817
-0.00016357941
0.0025330642
-0.0020538757
-0.00020592566
0.0020630414
-0.0020425308
-0.00025106884
-0.0020285523
-0.00031650017
-0.0020112982
-0.00035148766
-0.0019901486
-0.00039750211
-0.0019643804
-0.00044539068
-0.0019332132
-0.00051531757
-0.00189575
-0.00058085243
-0.0018510441
-0.00067257164
-0.0017980756
-0.00077211436
-0.0017358009
-0.00087738588
-0.0016631717
-0.00099693649
-0.0015791644
-0.001131824
-0.0014828711
-0.0012742691
-0.0013735274
-0.0014265643
-0.0012505459
-0.0015891759
-0.0011136641
-0.0017545131
-0.00096300607
-0.0019158769
-0.00079907364
-0.0020707305
-0.00062281097
-0.0022135632
-0.00043560051
-0.0023388708
-0.00023924809
-0.002440887
-3.601092e-05
-0.0025149965
0.00017158148
-0.0025581258
0.00038086773
-0.0025669337
0.00058907753
-0.0025413298
0.00079337802
-0.0024840668
0.00099119628
-0.0023964
0.0011803288
-0.0022796928