/*--------------------------------*- C++ -*----------------------------------*\
| =========                 |                                                 |
| \\      /  F ield         | OpenFOAM: The Open Source CFD Toolbox           |
|  \\    /   O peration     | Version:  v2006                                 |
|   \\  /    A nd           | Website:  www.openfoam.com                      |
|    \\/     M anipulation  |                                                 |
\*---------------------------------------------------------------------------*/
FoamFile
{
    version     2.0;
    format      ascii;
    class       volScalarField;
    location    "3500";
    object      pMean;
}
// * * * * * * * * * * * * * * * * * * * * * * * * * * * * * * * * * * * * * //

dimensions      [1 -1 -2 0 0 0 0];


internalField   nonuniform List<scalar> 
19765
(
1.000458
1.0007403
1.0015685
1.00214
1.0027127
1.0031408
1.0036629
1.003962
1.0043624
1.0046955
1.0049263
1.0051047
1.0052555
1.0053421
1.0053799
1.0053876
1.0053628
1.0053023
1.005206
1.0050732
1.0049007
1.0046912
1.0044622
1.0041907
1.0038599
1.0035134
1.0032114
1.0028662
1.0024343
1.002041
1.0016281
1.0011297
1.0005666
0.99982654
0.9992244
0.99879139
0.9982392
0.99741216
0.99683029
0.99618258
0.99513089
0.99422117
0.99405349
0.99324037
0.99324732
0.99297083
0.99316954
0.99349131
0.99390971
1.0016101
1.001758
1.0019497
1.0021851
1.0024366
1.0026815
1.0029385
1.0031574
1.0033861
1.003616
1.0038146
1.0039823
1.0041382
1.004253
1.004325
1.00438
1.004411
1.0044036
1.0043648
1.0042895
1.004179
1.0040413
1.0038675
1.0036591
1.0034239
1.0031649
1.0028718
1.0025489
1.0022015
1.0018276
1.0014292
1.0010107
1.0005754
1.0001357
0.9997001
0.99926008
0.99880809
0.9983597
0.99794424
0.99755265
0.99720403
0.99691529
0.99664008
0.99640009
0.99622627
0.9960771
0.99596057
0.99585325
0.99574458
1.0015744
1.001766
1.0019848
1.0022047
1.0024241
1.002632
1.0028366
1.0030148
1.0031906
1.0033553
1.0035036
1.0036352
1.0037543
1.0038483
1.0039142
1.0039613
1.0039878
1.0039859
1.003954
1.0038905
1.0037952
1.0036706
1.0035147
1.0033266
1.0031114
1.0028719
1.0026031
1.0023062
1.0019865
1.0016432
1.0012797
1.0009025
1.000518
1.0001315
0.99973749
0.99933848
0.99894554
0.99856091
0.9981845
0.99782832
0.99749521
0.99716929
0.99685976
0.99657249
0.99631126
0.99609665
0.99590673
0.99574316
0.9955922
1.001796
1.0019231
1.0020537
1.0021938
1.0023382
1.0024833
1.0026293
1.0027648
1.0029009
1.0030339
1.003155
1.0032638
1.0033635
1.003444
1.0035011
1.0035437
1.0035711
1.0035741
1.0035505
1.0034988
1.0034197
1.0033181
1.0031906
1.003034
1.0028532
1.002652
1.0024259
1.0021746
1.0019038
1.0016139
1.001308
1.0009922
1.0006707
1.0003494
1.0000231
0.99969483
0.99937498
0.99906756
0.99876783
0.99848805
0.99823214
0.99798272
0.99773641
0.99751369
0.99729368
0.99709035
0.99688339
0.99667987
0.99648059
1.0017232
1.001839
1.0019565
1.0020736
1.002189
1.0023015
1.0024131
1.0025158
1.0026185
1.0027193
1.0028118
1.002895
1.0029716
1.003034
1.0030782
1.0031103
1.0031306
1.0031311
1.0031091
1.0030627
1.0029909
1.002897
1.0027785
1.0026327
1.0024639
1.0022767
1.0020678
1.0018359
1.0015865
1.0013215
1.0010429
1.0007556
1.0004631
1.0001707
0.99987675
0.99958313
0.99929576
0.99901767
0.99874655
0.99848881
0.99824494
0.99800506
0.99776725
0.99754208
0.99731634
0.99709895
0.99688323
0.99667356
0.9964693
1.0017182
1.001802
1.0018882
1.0019747
1.0020613
1.0021462
1.002232
1.0023113
1.0023916
1.0024709
1.0025438
1.0026094
1.0026696
1.0027185
1.0027524
1.002776
1.0027891
1.0027853
1.002762
1.0027176
1.002651
1.0025655
1.002459
1.0023288
1.0021783
1.002011
1.0018247
1.0016185
1.0013973
1.0011627
1.000917
1.0006642
1.0004076
1.0001515
0.99989517
0.99964009
0.99939098
0.99915029
0.99891656
0.99869428
0.99848381
0.99827764
0.99807483
0.99788031
0.99768589
0.99749543
0.99730283
0.99710847
0.99691502
1.0016382
1.0017098
1.0017831
1.0018545
1.0019247
1.0019924
1.0020605
1.002123
1.0021862
1.0022487
1.0023059
1.0023571
1.0024039
1.0024413
1.0024663
1.0024825
1.0024894
1.0024817
1.0024569
1.0024135
1.0023505
1.0022699
1.0021701
1.0020488
1.0019086
1.001753
1.0015799
1.001389
1.0011844
1.0009679
1.0007412
1.0005082
1.0002713
1.0000346
0.99979778
0.99956229
0.9993315
0.99910747
0.99888919
0.99867969
0.99847883
0.99828161
0.99808656
0.99789698
0.99770684
0.99751861
0.99732794
0.99713576
0.99694222
1.0015803
1.001636
1.0016939
1.0017503
1.0018059
1.0018595
1.0019137
1.0019632
1.0020134
1.002063
1.0021081
1.0021481
1.0021842
1.0022123
1.0022298
1.0022393
1.0022405
1.0022288
1.002202
1.0021587
1.0020979
1.0020213
1.0019276
1.0018148
1.0016851
1.0015411
1.0013816
1.0012062
1.0010187
1.0008207
1.0006139
1.0004017
1.0001863
0.9999713
0.99975667
0.99954363
0.99933502
0.99913263
0.99893569
0.99874665
0.99856554
0.99838818
0.99821351
0.99804367
0.99787393
0.99770578
0.99753544
0.9973632
0.9971892
1.0015017
1.0015483
1.0015969
1.0016436
1.0016893
1.0017329
1.0017769
1.0018168
1.0018572
1.0018968
1.0019325
1.0019637
1.0019913
1.0020119
1.0020233
1.0020275
1.0020241
1.002009
1.0019805
1.0019371
1.0018781
1.0018046
1.0017153
1.0016088
1.0014867
1.0013514
1.0012018
1.0010379
1.0008628
1.0006782
1.0004855
1.0002877
1.0000868
0.9998859
0.99968523
0.99948587
0.99929016
0.99909967
0.99891385
0.99873461
0.9985619
0.99839268
0.9982257
0.99806274
0.99789984
0.99773812
0.99757447
0.99740895
0.99724131
1.0014331
1.0014706
1.0015101
1.0015481
1.0015852
1.0016205
1.0016561
1.0016881
1.0017205
1.0017521
1.0017802
1.0018041
1.0018248
1.0018392
1.0018453
1.001845
1.0018374
1.0018194
1.0017892
1.0017456
1.0016879
1.0016168
1.0015313
1.0014304
1.0013151
1.0011876
1.0010471
1.0008936
1.00073
1.0005577
1.0003783
1.0001942
1.0000074
0.99982073
0.99963441
0.9994495
0.99926806
0.99909156
0.99891952
0.99875365
0.99859402
0.99843803
0.99828458
0.99813522
0.99798646
0.99783922
0.99769067
0.9975408
0.99738943
1.0013601
1.0013913
1.0014244
1.0014559
1.0014866
1.0015156
1.0015448
1.0015707
1.0015968
1.001622
1.001644
1.0016622
1.0016772
1.0016865
1.0016884
1.0016843
1.0016735
1.001653
1.0016214
1.0015776
1.001521
1.0014519
1.0013696
1.0012732
1.0011636
1.0010426
1.0009096
1.0007647
1.0006105
1.0004483
1.0002795
1.0001064
0.99993065
0.99975482
0.99957923
0.99940487
0.99923353
0.99906655
0.99890356
0.99874602
0.99859403
0.99844554
0.99829944
0.99815721
0.99801574
0.99787586
0.99773508
0.99759336
0.99745023
1.0012932
1.0013187
1.001346
1.0013719
1.0013971
1.0014207
1.0014444
1.0014653
1.0014861
1.001506
1.0015229
1.0015362
1.0015466
1.0015517
1.00155
1.0015426
1.0015289
1.0015064
1.0014736
1.0014297
1.0013739
1.0013066
1.0012271
1.0011347
1.0010301
1.0009148
1.0007885
1.0006513
1.0005056
1.0003524
1.0001932
1.0000301
0.99986466
0.99969909
0.99953381
0.9993698
0.9992087
0.99905177
0.9988987
0.99875084
0.99860838
0.99846955
0.99833333
0.99820117
0.99807016
0.99794117
0.99781186
0.99768223
0.99755187
1.0012273
1.0012484
1.0012711
1.0012926
1.0013134
1.0013328
1.0013522
1.0013689
1.0013855
1.001401
1.0014137
1.0014231
1.0014295
1.0014311
1.0014264
1.0014164
1.0014004
1.0013761
1.0013424
1.0012983
1.0012433
1.0011777
1.0011007
1.0010117
1.0009115
1.0008013
1.0006808
1.0005504
1.000412
1.0002667
1.0001159
0.99996138
0.99980465
0.99964777
0.99949115
0.99933569
0.99918291
0.99903398
0.99888862
0.99874808
0.99861257
0.99848061
0.99835123
0.99822588
0.99810187
0.99798007
0.99785838
0.99773679
0.99761477
1.0011659
1.0011832
1.001202
1.0012196
1.0012366
1.0012523
1.001268
1.0012811
1.0012941
1.001306
1.0013151
1.0013211
1.0013243
1.0013229
1.0013157
1.0013034
1.0012854
1.0012597
1.0012252
1.0011812
1.0011269
1.0010628
1.000988
1.0009022
1.0008059
1.0007003
1.0005851
1.0004607
1.0003289
1.0001907
1.0000475
0.99990082
0.99975213
0.99960331
0.99945478
0.99930744
0.9991627
0.99902167
0.99888413
0.99875126
0.9986233
0.99849899
0.99837741
0.99826003
0.99814429
0.99803109
0.99791848
0.9978065
0.99769466
1.001107
1.0011212
1.0011368
1.0011513
1.0011652
1.0011779
1.0011904
1.0012006
1.0012105
1.0012193
1.0012255
1.0012287
1.0012291
1.0012252
1.0012159
1.0012017
1.001182
1.0011551
1.0011201
1.0010761
1.0010226
1.0009598
1.0008871
1.0008042
1.0007115
1.0006099
1.0004995
1.0003806
1.0002548
1.000123
0.99998657
0.999847
0.99970552
0.99956392
0.99942262
0.99928248
0.99914483
0.99901071
0.99887991
0.99875355
0.99863189
0.99851383
0.99839853
0.99828743
0.99817815
0.9980716
0.99796598
0.99786137
0.99775722
1.0010519
1.0010634
1.0010761
1.0010879
1.0010991
1.0011092
1.001119
1.0011267
1.001134
1.0011401
1.0011438
1.0011445
1.0011426
1.0011365
1.0011254
1.0011096
1.0010886
1.0010608
1.0010253
1.0009815
1.0009287
1.0008672
1.0007965
1.0007162
1.0006267
1.000529
1.000423
1.000309
1.0001887
1.0000629
0.99993266
0.99979958
0.99966476
0.99952987
0.99939532
0.99926197
0.99913106
0.99900358
0.99887936
0.99875946
0.99864417
0.99853254
0.99842377
0.99831929
0.99821687
0.99811741
0.99801924
0.99792248
0.9978266
1.0009996
1.0010088
1.0010192
1.0010287
1.0010376
1.0010455
1.001053
1.0010586
1.0010636
1.0010675
1.0010689
1.0010676
1.0010637
1.0010558
1.0010432
1.0010261
1.0010039
1.0009753
1.0009395
1.0008959
1.0008439
1.0007837
1.0007148
1.0006369
1.0005505
1.0004563
1.0003543
1.000245
1.0001298
1.0000093
0.99988488
0.99975779
0.99962912
0.99950042
0.9993721
0.999245
0.99912029
0.99899889
0.99888067
0.99876661
0.99865702
0.99855107
0.998448
0.99834924
0.99825266
0.99815919
0.99806726
0.99797704
0.99788794
1.0009504
1.0009577
1.000966
1.0009735
1.0009805
1.0009864
1.0009919
1.0009957
1.0009988
1.0010006
1.0010002
1.0009971
1.0009914
1.000982
1.0009681
1.0009498
1.0009268
1.0008976
1.0008616
1.0008182
1.000767
1.0007081
1.0006409
1.0005653
1.0004818
1.0003909
1.0002927
1.0001877
1.0000771
0.99996175
0.99984265
0.99972114
0.99959822
0.99947533
0.99935287
0.99923167
0.99911284
0.99899725
0.99888478
0.9987764
0.99867239
0.99857203
0.99847463
0.99838157
0.99829086
0.99820339
0.99811771
0.99803402
0.99795174
1.0009039
1.0009096
1.0009161
1.0009219
1.0009272
1.0009314
1.0009352
1.0009373
1.0009388
1.0009389
1.0009369
1.0009322
1.0009251
1.0009143
1.0008993
1.0008801
1.0008563
1.0008267
1.0007906
1.0007476
1.0006972
1.0006394
1.0005739
1.0005006
1.0004197
1.0003319
1.0002373
1.0001363
1.0000301
0.99991949
0.99980541
0.99968912
0.99957158
0.99945413
0.99933718
0.99922153
0.99910822
0.99899807
0.99889099
0.99878789
0.99868906
0.99859384
0.99850161
0.9984137
0.99832822
0.99824607
0.99816589
0.9980879
0.99801149
1.0008602
1.0008644
1.0008694
1.0008736
1.0008774
1.0008802
1.0008825
1.0008832
1.0008832
1.0008818
1.0008783
1.0008724
1.000864
1.0008521
1.0008361
1.0008162
1.0007918
1.0007618
1.0007258
1.0006831
1.0006335
1.000577
1.0005131
1.0004418
1.0003636
1.0002787
1.0001874
1.0000902
0.99998819
0.99988201
0.99977265
0.99966129
0.99954883
0.99943653
0.99932479
0.99921439
0.99910633
0.99900137
0.99889946
0.99880143
0.99870758
0.99861734
0.99853014
0.99844722
0.99836684
0.99828986
0.998215
0.99814251
0.99807177
1.0008188
1.0008217
1.0008254
1.0008284
1.0008308
1.0008323
1.0008334
1.0008328
1.0008315
1.0008288
1.0008241
1.000817
1.0008075
1.0007947
1.0007779
1.0007574
1.0007325
1.0007023
1.0006664
1.0006242
1.0005754
1.00052
1.0004577
1.0003885
1.0003127
1.0002306
1.0001425
1.0000489
0.99995081
0.99984883
0.99974394
0.99963724
0.99952958
0.99942215
0.99931536
0.99920995
0.99910686
0.99900683
0.9989098
0.99881657
0.99872742
0.99864184
0.9985593
0.998481
0.99840529
0.99833301
0.99826296
0.99819539
0.99812968
1.0007797
1.0007816
1.0007841
1.0007859
1.0007872
1.0007876
1.0007875
1.0007858
1.0007834
1.0007796
1.0007738
1.0007657
1.0007552
1.0007416
1.0007242
1.0007031
1.0006779
1.0006476
1.0006119
1.0005701
1.0005222
1.000468
1.0004073
1.00034
1.0002665
1.0001871
1.0001021
1.0000119
0.99991752
0.99981954
0.99971889
0.9996166
0.9995135
0.99941071
0.99930863
0.99920797
0.99910963
0.99901429
0.99892193
0.99883329
0.99874864
0.99866753
0.99858947
0.99851559
0.99844436
0.99837657
0.99831109
0.9982482
0.99818726
1.0007426
1.0007436
1.0007451
1.0007459
1.0007462
1.0007456
1.0007445
1.0007419
1.0007385
1.0007337
1.000727
1.000718
1.0007067
1.0006924
1.0006745
1.000653
1.0006275
1.0005972
1.0005617
1.0005205
1.0004734
1.0004204
1.0003612
1.0002959
1.0002246
1.0001478
1.0000657
0.9999788
0.99988793
0.99979375
0.99969713
0.99959905
0.9995003
0.99940193
0.99930432
0.99920819
0.99911437
0.99902351
0.99893559
0.99885131
0.99877093
0.99869404
0.9986202
0.99855045
0.99848338
0.99841972
0.99835843
0.99829978
0.99824314
1.0007076
1.0007077
1.0007083
1.0007082
1.0007077
1.0007062
1.0007042
1.0007008
1.0006965
1.0006908
1.0006833
1.0006736
1.0006617
1.0006467
1.0006284
1.0006066
1.000581
1.0005507
1.0005155
1.0004749
1.0004287
1.0003769
1.0003192
1.0002557
1.0001866
1.0001123
1.000033
0.99994917
0.99986169
0.99977114
0.99967837
0.9995843
0.99948969
0.99939553
0.9993022
0.99921039
0.9991209
0.99903431
0.99895063
0.99887052
0.99879422
0.99872136
0.99865154
0.99858572
0.9985226
0.99846285
0.99840553
0.99835087
0.99829826
1.0006743
1.0006737
1.0006735
1.0006727
1.0006713
1.0006691
1.0006663
1.0006622
1.0006571
1.0006507
1.0006425
1.0006322
1.0006196
1.0006043
1.0005856
1.0005636
1.0005378
1.0005077
1.0004729
1.0004329
1.0003876
1.0003369
1.0002807
1.000219
1.000152
1.0000801
1.0000035
0.99992271
0.99983847
0.99975141
0.99966231
0.99957208
0.99948142
0.99939128
0.99930205
0.99921437
0.99912899
0.99904648
0.99896685
0.99889071
0.99881828
0.99874924
0.99868321
0.99862109
0.99856166
0.99850556
0.99845189
0.99840089
0.99835194
1.0006426
1.0006414
1.0006406
1.000639
1.000637
1.0006341
1.0006306
1.0006258
1.0006201
1.0006131
1.0006043
1.0005934
1.0005804
1.0005646
1.0005457
1.0005236
1.0004979
1.0004679
1.0004335
1.0003942
1.0003498
1.0003003
1.0002455
1.0001856
1.0001206
1.000051
0.99997705
0.99989913
0.99981801
0.99973428
0.9996487
0.99956213
0.99947526
0.99938897
0.99930364
0.99921991
0.99913847
0.99905985
0.99898409
0.99891173
0.998843
0.99877759
0.99871517
0.99865655
0.99860062
0.99854795
0.99849772
0.99845015
0.99840463
1.0006124
1.0006107
1.0006092
1.0006071
1.0006045
1.0006011
1.000597
1.0005916
1.0005854
1.0005778
1.0005685
1.0005572
1.0005437
1.0005277
1.0005086
1.0004864
1.0004607
1.0004311
1.000397
1.0003584
1.0003149
1.0002666
1.0002133
1.0001551
1.0000921
1.0000248
0.99995332
0.99987817
0.99980005
0.99971951
0.99963731
0.99955425
0.999471
0.99938839
0.9993068
0.99922683
0.99914915
0.99907426
0.99900217
0.99893342
0.9988682
0.99880624
0.99874723
0.99869192
0.99863926
0.9985898
0.99854276
0.99849835
0.99845598
1.0005836
1.0005814
1.0005795
1.0005768
1.0005737
1.0005698
1.0005652
1.0005593
1.0005526
1.0005445
1.0005348
1.0005231
1.0005094
1.0004931
1.0004739
1.0004517
1.0004262
1.0003968
1.0003633
1.0003254
1.0002828
1.0002357
1.0001838
1.0001273
1.0000663
1.0000011
0.99993208
0.99985961
0.99978436
0.9997069
0.99962794
0.99954824
0.99946845
0.99938936
0.99931134
0.99923497
0.99916088
0.99908953
0.99902096
0.99895564
0.99889377
0.99883508
0.99877931
0.99872712
0.99867756
0.99863112
0.99858707
0.99854563
0.99850618
1.000556
1.0005535
1.000551
1.000548
1.0005444
1.0005401
1.000535
1.0005288
1.0005216
1.0005132
1.0005031
1.0004911
1.0004771
1.0004607
1.0004415
1.0004193
1.000394
1.000365
1.000332
1.0002948
1.0002532
1.0002073
1.0001568
1.0001019
1.0000428
0.99997981
0.99991312
0.99984323
0.99977076
0.99969625
0.99962039
0.99954391
0.99946743
0.99939171
0.99931711
0.99924417
0.9991735
0.99910553
0.9990403
0.99897825
0.99891955
0.99886398
0.99881126
0.99876202
0.99871537
0.99867175
0.99863049
0.99859179
0.99855504
1.0005296
1.0005267
1.0005239
1.0005205
1.0005165
1.0005118
1.0005064
1.0004998
1.0004923
1.0004835
1.0004732
1.000461
1.0004468
1.0004303
1.0004111
1.0003891
1.000364
1.0003354
1.000303
1.0002666
1.0002259
1.0001812
1.0001321
1.0000788
1.0000216
0.99996064
0.99989624
0.99982884
0.99975905
0.99968738
0.9996145
0.9995411
0.9994678
0.99939529
0.99932395
0.99925429
0.99918688
0.99912213
0.99906008
0.99900113
0.99894545
0.99889282
0.998843
0.99879654
0.99875263
0.99871167
0.99867302
0.99863688
0.99860265
1.0005042
1.000501
1.0004979
1.0004942
1.0004899
1.0004849
1.0004791
1.0004723
1.0004645
1.0004555
1.0004449
1.0004326
1.0004183
1.0004018
1.0003827
1.0003608
1.000336
1.0003078
1.000276
1.0002404
1.0002008
1.0001572
1.0001095
1.0000578
1.0000024
0.99994345
0.99988127
0.99981629
0.99974907
0.99968013
0.99961011
0.99953967
0.9994694
0.99939997
0.99933173
0.9992652
0.9992009
0.9991392
0.99908017
0.99902417
0.99897134
0.9989215
0.99887441
0.99883057
0.99878924
0.99875075
0.99871454
0.99868078
0.99864887
1.0004797
1.0004763
1.0004729
1.0004689
1.0004644
1.0004591
1.0004532
1.0004461
1.0004381
1.0004289
1.0004182
1.0004057
1.0003914
1.0003749
1.0003559
1.0003343
1.0003099
1.0002822
1.000251
1.0002162
1.0001775
1.0001351
1.0000888
1.0000387
0.99998506
0.99992809
0.99986807
0.99980542
0.99974069
0.99967438
0.99960709
0.99953949
0.99947212
0.99940562
0.99934034
0.99927678
0.99921543
0.99915664
0.99910046
0.99904725
0.99899713
0.99894992
0.99890541
0.99886404
0.99882513
0.99878898
0.99875504
0.99872349
0.99869375
1.000456
1.0004525
1.0004489
1.0004447
1.00044
1.0004345
1.0004284
1.0004211
1.000413
1.0004036
1.0003928
1.0003803
1.0003661
1.0003497
1.0003309
1.0003095
1.0002854
1.0002583
1.0002277
1.0001937
1.0001561
1.0001148
1.0000699
1.0000214
0.99996947
0.99991442
0.99985648
0.99979609
0.99973376
0.99966998
0.99960533
0.99954043
0.99947583
0.99941212
0.99934967
0.99928893
0.99923037
0.99917433
0.99912086
0.99907029
0.99902272
0.99897799
0.99893591
0.99889685
0.9988602
0.99882623
0.99879442
0.99876492
0.99873717
1.0004332
1.0004295
1.0004258
1.0004214
1.0004166
1.000411
1.0004047
1.0003973
1.0003891
1.0003796
1.0003688
1.0003563
1.0003421
1.0003258
1.0003073
1.0002863
1.0002626
1.0002359
1.0002061
1.000173
1.0001363
1.0000963
1.0000527
1.0000057
0.99995547
0.9999023
0.9998464
0.9997882
0.99972818
0.99966683
0.9996047
0.9995424
0.99948043
0.99941939
0.99935961
0.99930154
0.99924563
0.99919219
0.99914128
0.99909319
0.99904803
0.99900563
0.99896582
0.99892894
0.99889442
0.99886248
0.99883265
0.99880507
0.99877918
1.000411
1.0004073
1.0004034
1.000399
1.000394
1.0003883
1.0003819
1.0003745
1.0003662
1.0003568
1.0003459
1.0003335
1.0003194
1.0003034
1.0002851
1.0002644
1.0002412
1.0002151
1.000186
1.0001537
1.0001181
1.0000792
1.000037
0.9999915
0.99994297
0.99989162
0.99983771
0.99978162
0.99972384
0.99966483
0.99960512
0.99954529
0.99948584
0.99942733
0.99937009
0.99931455
0.99926113
0.99921014
0.99916163
0.99911588
0.99907296
0.99903275
0.99899508
0.99896023
0.99892768
0.99889763
0.99886963
0.99884381
0.99881963
1.0003896
1.0003857
1.0003818
1.0003773
1.0003723
1.0003666
1.0003601
1.0003527
1.0003444
1.000335
1.0003242
1.0003119
1.000298
1.0002821
1.0002641
1.0002439
1.0002212
1.0001957
1.0001673
1.0001359
1.0001013
1.0000636
1.0000227
0.99997873
0.99993184
0.99988229
0.9998303
0.99977627
0.99972065
0.99966389
0.9996065
0.99954903
0.99949198
0.99943586
0.99938102
0.99932787
0.9992768
0.9992281
0.99918185
0.99913827
0.99909747
0.9990593
0.99902361
0.99899066
0.99895995
0.99893166
0.99890538
0.9988812
0.99885861
1.0003687
1.0003649
1.0003609
1.0003564
1.0003514
1.0003456
1.0003392
1.0003318
1.0003236
1.0003142
1.0003035
1.0002914
1.0002776
1.0002621
1.0002444
1.0002246
1.0002024
1.0001776
1.00015
1.0001194
1.0000859
1.0000494
1.0000098
0.99996727
0.99992201
0.9998742
0.9998241
0.99977206
0.99971853
0.99966393
0.99960876
0.99955355
0.99949877
0.99944493
0.99939235
0.99934144
0.99929257
0.99924602
0.99920186
0.99916032
0.99912147
0.99908519
0.99905135
0.99902014
0.99899114
0.99896446
0.99893974
0.99891705
0.9988959
1.0003484
1.0003446
1.0003407
1.0003362
1.0003312
1.0003255
1.0003191
1.0003118
1.0003036
1.0002943
1.0002838
1.0002718
1.0002584
1.0002431
1.0002258
1.0002065
1.0001848
1.0001607
1.0001338
1.0001042
1.0000717
1.0000364
0.9999981
0.99995705
0.99991337
0.99986729
0.99981901
0.99976892
0.9997174
0.99966489
0.99961185
0.9995588
0.99950617
0.99945448
0.99940402
0.9993552
0.99930839
0.99926383
0.99922162
0.99918196
0.99914492
0.99911039
0.99907825
0.99904866
0.99902123
0.99899606
0.99897279
0.99895151
0.99893171
1.0003287
1.000325
1.0003211
1.0003166
1.0003117
1.000306
1.0002997
1.0002925
1.0002844
1.0002753
1.000265
1.0002533
1.00024
1.0002251
1.0002083
1.0001894
1.0001683
1.0001449
1.0001188
1.0000902
1.0000587
1.0000245
0.99998758
0.99994797
0.99990587
0.99986147
0.99981499
0.99976677
0.99971722
0.99966671
0.99961571
0.99956471
0.99951413
0.99946446
0.999416
0.99936913
0.99932422
0.99928151
0.99924108
0.99920315
0.99916776
0.99913483
0.99910423
0.99907611
0.99905009
0.99902627
0.99900429
0.99898423
0.99896562
1.0003096
1.0003059
1.0003021
1.0002977
1.0002928
1.0002873
1.0002811
1.000274
1.0002661
1.0002572
1.000247
1.0002356
1.0002227
1.0002081
1.0001917
1.0001734
1.0001529
1.0001301
1.0001049
1.0000772
1.0000468
1.0000138
0.99997815
0.99993998
0.99989943
0.99985668
0.99981195
0.99976557
0.99971791
0.99966934
0.9996203
0.99957126
0.99952262
0.99947485
0.99942825
0.9993832
0.99934003
0.99929901
0.99926021
0.99922384
0.99918996
0.99915848
0.99912928
0.9991025
0.9990778
0.99905523
0.99903448
0.9990156
0.99899813
1.000291
1.0002874
1.0002836
1.0002794
1.0002746
1.0002692
1.0002631
1.0002562
1.0002485
1.0002398
1.0002299
1.0002187
1.0002061
1.000192
1.0001761
1.0001583
1.0001384
1.0001164
1.000092
1.0000652
1.0000359
1.0000041
0.99996975
0.999933
0.99989398
0.99985286
0.99980986
0.99976527
0.99971945
0.99967275
0.99962559
0.99957841
0.99953161
0.99948563
0.99944076
0.99939737
0.99935581
0.99931631
0.99927899
0.99924402
0.99921147
0.99918127
0.99915331
0.9991277
0.99910412
0.9990826
0.99906285
0.99904492
0.99902835
1.0002729
1.0002694
1.0002658
1.0002616
1.000257
1.0002517
1.0002458
1.0002391
1.0002316
1.0002231
1.0002135
1.0002026
1.0001904
1.0001767
1.0001613
1.0001441
1.0001249
1.0001036
1.0000801
1.0000542
1.000026
0.99999534
0.99996231
0.99992698
0.99988947
0.99984996
0.99980865
0.99976582
0.99972179
0.9996769
0.99963156
0.99958616
0.9995411
0.99949679
0.99945352
0.99941167
0.99937155
0.99933342
0.9992974
0.99926367
0.99923229
0.99920321
0.99917636
0.9991518
0.99912925
0.99910875
0.99909002
0.99907307
0.99905749
1.0002553
1.000252
1.0002485
1.0002445
1.00024
1.0002349
1.0002292
1.0002227
1.0002154
1.0002071
1.0001978
1.0001873
1.0001755
1.0001622
1.0001473
1.0001307
1.0001122
1.0000917
1.000069
1.0000441
1.000017
0.99998751
0.99995579
0.99992186
0.99988586
0.99984794
0.99980829
0.99976718
0.9997249
0.99968178
0.99963819
0.9995945
0.99955109
0.99950834
0.99946656
0.99942609
0.99938727
0.99935035
0.99931545
0.99928277
0.99925238
0.99922424
0.99919827
0.99917454
0.99915278
0.999133
0.99911493
0.99909859
0.99908356
1.0002383
1.0002351
1.0002318
1.0002279
1.0002236
1.0002187
1.0002131
1.0002069
1.0001998
1.0001919
1.0001829
1.0001727
1.0001613
1.0001485
1.0001342
1.0001181
1.0001003
1.0000806
1.0000588
1.0000349
1.0000088
0.99998055
0.99995012
0.9999176
0.99988309
0.99984675
0.99980875
0.99976933
0.99972877
0.99968738
0.99964548
0.99960343
0.99956159
0.9995203
0.99947989
0.99944068
0.999403
0.99936712
0.99933317
0.99930135
0.99927177
0.9992444
0.99921918
0.99919619
0.9991752
0.99915621
0.99913897
0.99912349
0.99910936
1.0002218
1.0002188
1.0002156
1.0002119
1.0002077
1.000203
1.0001977
1.0001917
1.0001849
1.0001772
1.0001686
1.0001588
1.0001479
1.0001355
1.0001217
1.0001063
1.0000892
1.0000703
1.0000494
1.0000264
1.0000015
0.99997439
0.99994526
0.99991414
0.99988112
0.99984635
0.99980998
0.99977224
0.99973338
0.99969367
0.99965343
0.99961298
0.99957262
0.99953273
0.99949357
0.99945549
0.9994188
0.99938378
0.99935059
0.99931944
0.99929043
0.99926358
0.99923884
0.99921627
0.99919563
0.99917692
0.9991599
0.99914455
0.99913048
1.0002059
1.000203
1.0001999
1.0001964
1.0001924
1.0001879
1.0001828
1.0001771
1.0001706
1.0001632
1.0001549
1.0001455
1.000135
1.0001232
1.00011
1.0000952
1.0000788
1.0000607
1.0000407
1.0000188
0.99999486
0.999969
0.99994117
0.99991145
0.99987991
0.9998467
0.99981196
0.99977588
0.99973871
0.99970068
0.99966206
0.99962316
0.99958425
0.99954566
0.99950767
0.99947059
0.99943475
0.99940042
0.9993678
0.9993371
0.99930848
0.99928198
0.99925759
0.99923541
0.99921526
0.99919713
0.99918083
0.99916632
0.99915323
1.0001904
1.0001877
1.0001848
1.0001815
1.0001777
1.0001734
1.0001685
1.000163
1.0001568
1.0001498
1.0001418
1.0001329
1.0001228
1.0001115
1.0000989
1.0000848
1.0000691
1.0000518
1.0000327
1.0000118
0.99998899
0.99996433
0.9999378
0.99990948
0.99987943
0.99984778
0.99981466
0.99978025
0.99974475
0.99970838
0.99967138
0.999634
0.9995965
0.99955918
0.99952228
0.99948611
0.99945097
0.99941716
0.99938489
0.9993544
0.99932588
0.99929938
0.99927493
0.99925258
0.99923217
0.99921367
0.99919686
0.99918173
0.99916788
1.0001756
1.000173
1.0001703
1.0001671
1.0001635
1.0001594
1.0001548
1.0001495
1.0001436
1.0001369
1.0001293
1.0001208
1.0001112
1.0001004
1.0000884
1.000075
1.0000601
1.0000435
1.0000254
1.0000055
0.99998379
0.99996034
0.99993512
0.99990821
0.99987965
0.99984957
0.99981807
0.99978533
0.99975151
0.99971681
0.99968142
0.99964557
0.99960946
0.99957336
0.9995375
0.99950215
0.99946761
0.99943416
0.99940204
0.99937154
0.99934289
0.99931622
0.99929162
0.99926925
0.99924903
0.99923097
0.99921493
0.99920084
0.99918838
1.0001612
1.0001588
1.0001562
1.0001532
1.0001498
1.0001459
1.0001416
1.0001366
1.0001309
1.0001245
1.0001174
1.0001092
1.0001001
1.0000899
1.0000785
1.0000657
1.0000516
1.0000359
1.0000187
0.99999978
0.99997922
0.99995699
0.99993308
0.99990757
0.9998805
0.999852
0.99982215
0.99979109
0.99975899
0.99972598
0.99969224
0.99965793
0.99962324
0.99958838
0.99955352
0.99951893
0.99948486
0.9994516
0.99941942
0.99938863
0.99935946
0.99933211
0.99930666
0.99928325
0.99926177
0.9992422
0.99922435
0.99920822
0.99919343
1.0001475
1.0001452
1.0001428
1.0001399
1.0001367
1.000133
1.0001288
1.0001241
1.0001187
1.0001127
1.0001059
1.0000982
1.0000896
1.0000799
1.0000691
1.0000571
1.0000437
1.0000289
1.0000126
0.99999467
0.99997522
0.9999542
0.99993159
0.99990749
0.99988191
0.99985498
0.99982678
0.99979743
0.99976706
0.9997358
0.99970377
0.99967107
0.99963787
0.99960431
0.99957051
0.99953667
0.99950303
0.99946986
0.99943743
0.99940609
0.99937618
0.99934798
0.99932177
0.99929781
0.99927623
0.99925712
0.99924045
0.99922613
0.9992139
1.0001343
1.0001321
1.0001298
1.0001271
1.000124
1.0001205
1.0001165
1.000112
1.000107
1.0001013
1.0000949
1.0000877
1.0000796
1.0000705
1.0000603
1.000049
1.0000363
1.0000224
1.000007
0.99999011
0.99997179
0.99995198
0.99993071
0.99990804
0.99988398
0.99985864
0.99983208
0.99980442
0.9997758
0.99974627
0.99971596
0.99968493
0.99965329
0.99962111
0.99958845
0.99955544
0.99952228
0.99948917
0.99945637
0.99942422
0.99939306
0.9993632
0.99933489
0.99930838
0.99928371
0.99926094
0.99923995
0.99922079
0.99920311
1.0001217
1.0001196
1.0001173
1.0001147
1.0001118
1.0001084
1.0001047
1.0001004
1.0000957
1.0000904
1.0000843
1.0000776
1.00007
1.0000615
1.000052
1.0000413
1.0000295
1.0000164
1.000002
0.99998617
0.999969
0.99995047
0.99993058
0.9999094
0.99988691
0.99986324
0.99983839
0.99981252
0.9997857
0.99975798
0.99972946
0.99970016
0.99967013
0.99963934
0.99960784
0.99957566
0.99954293
0.99950982
0.99947656
0.99944348
0.99941102
0.99937962
0.99934979
0.99932212
0.99929705
0.999275
0.99925619
0.99924057
0.99922806
1.0001094
1.0001074
1.0001052
1.0001027
1.0000999
1.0000967
1.0000932
1.0000892
1.0000848
1.0000798
1.0000742
1.0000679
1.0000608
1.000053
1.0000441
1.0000342
1.0000232
1.000011
0.99999745
0.99998266
0.9999666
0.99994926
0.99993065
0.99991082
0.99988981
0.99986781
0.99984476
0.99982084
0.99979607
0.99977049
0.99974408
0.99971689
0.99968884
0.99965983
0.99962983
0.99959875
0.99956665
0.99953356
0.99949962
0.99946509
0.99943033
0.99939575
0.9993618
0.9993289
0.99929732
0.99926731
0.99923891
0.99921243
0.9991876
1.0000979
1.0000959
1.0000937
1.0000912
1.0000884
1.0000853
1.0000819
1.0000781
1.000074
1.0000694
1.0000643
1.0000585
1.0000521
1.0000449
1.0000367
1.0000275
1.0000172
1.0000057
0.99999298
0.99997905
0.99996394
0.99994759
0.99993005
0.99991137
0.99989161
0.99987099
0.99984944
0.99982718
0.99980423
0.99978054
0.99975636
0.99973145
0.99970579
0.99967915
0.99965143
0.9996224
0.99959196
0.99955996
0.9995264
0.99949138
0.99945523
0.99941843
0.9993818
0.99934644
0.99931364
0.99928459
0.99926038
0.99924134
0.99922779
1.0000863
1.0000842
1.0000819
1.0000795
1.0000768
1.000074
1.0000709
1.0000676
1.0000639
1.0000598
1.0000552
1.00005
1.0000441
1.0000374
1.0000298
1.0000212
1.0000116
1.000001
0.99998918
0.99997636
0.99996251
0.99994761
0.99993171
0.99991486
0.99989696
0.99987797
0.99985785
0.99983709
0.99981539
0.99979257
0.99977022
0.99974673
0.99972266
0.99969746
0.99967135
0.99964377
0.9996147
0.99958365
0.99955056
0.99951515
0.99947761
0.99943789
0.99939622
0.99935267
0.99930766
0.99926146
0.99921488
0.99916844
0.99912421
1.0000761
1.000074
1.0000717
1.0000692
1.0000666
1.0000637
1.0000606
1.0000573
1.0000537
1.0000498
1.0000455
1.0000407
1.0000355
1.0000296
1.0000231
1.0000157
1.0000075
0.99999831
0.99998791
0.9999767
0.9999649
0.99995232
0.99993901
0.99992498
0.99991004
0.9998941
0.99987708
0.99985967
0.99984112
0.9998222
0.99980235
0.99978201
0.99976011
0.999737
0.99971247
0.99968618
0.99965793
0.99962697
0.99959311
0.99955547
0.99951429
0.99946921
0.99942155
0.99937276
0.99932553
0.99928248
0.99924809
0.99922221
0.99921073
1.0000647
1.0000612
1.0000578
1.0000546
1.0000515
1.0000487
1.0000461
1.0000435
1.0000407
1.0000378
1.0000345
1.0000308
1.0000267
1.0000221
1.0000168
1.0000105
1.0000031
0.99999414
0.99998372
0.99997269
0.99996113
0.99994856
0.999935
0.99992051
0.99990542
0.99989032
0.99987507
0.9998601
0.99984469
0.99983376
0.9998153
0.9998021
0.9997851
0.99976978
0.99975145
0.999733
0.99971142
0.99968828
0.99966115
0.99963075
0.99959472
0.99955277
0.99950014
0.99943851
0.99936427
0.99927492
0.99917084
0.99905105
0.9989299
1.0000528
1.0000503
1.0000481
1.0000469
1.000046
1.000045
1.0000438
1.0000422
1.0000403
1.0000379
1.0000349
1.000031
1.0000261
1.00002
1.0000127
1.000004
0.99999376
0.99998204
0.99996985
0.99995688
0.99994177