/*--------------------------------*- C++ -*----------------------------------*\
| =========                 |                                                 |
| \\      /  F ield         | OpenFOAM: The Open Source CFD Toolbox           |
|  \\    /   O peration     | Version:  v2006                                 |
|   \\  /    A nd           | Website:  www.openfoam.com                      |
|    \\/     M anipulation  |                                                 |
\*---------------------------------------------------------------------------*/
FoamFile
{
    version     2.0;
    format      ascii;
    class       volScalarField;
    location    "3500";
    object      rho;
}
// * * * * * * * * * * * * * * * * * * * * * * * * * * * * * * * * * * * * * //

dimensions      [1 -3 0 0 0 0 0];


internalField   nonuniform List<scalar> 
19765
(
1.0004843
1.0007141
1.0013842
1.001799
1.002231
1.0025384
1.0029244
1.0031198
1.0034067
1.0036317
1.0037784
1.0038933
1.0039878
1.0040318
1.0040388
1.0040207
1.0039807
1.0039148
1.003824
1.0037067
1.003555
1.0033724
1.0031822
1.0029609
1.0026856
1.0023952
1.002159
1.0018923
1.00154
1.0012322
1.0009164
1.0005265
1.0000967
0.99948854
0.99899857
0.99867621
0.99826763
0.99758042
0.99713234
0.99665866
0.9958012
0.99501072
0.99495716
0.9942099
0.99422733
0.9939223
0.99405105
0.9942598
0.99457382
1.0012289
1.0013244
1.0014552
1.0016172
1.0017912
1.001959
1.0021416
1.0022904
1.0024545
1.0026205
1.0027584
1.0028728
1.0029829
1.0030588
1.0031005
1.0031331
1.0031469
1.0031298
1.0030921
1.0030281
1.0029386
1.002831
1.0026959
1.0025355
1.002357
1.0021616
1.0019387
1.0016942
1.0014335
1.0011526
1.000854
1.0005415
1.0002148
0.999886
0.99956337
0.99923878
0.99890189
0.99856702
0.99826269
0.9979757
0.99771608
0.99751062
0.99731205
0.99714329
0.9970365
0.99694227
0.99687204
0.99680542
0.99673669
1.0012364
1.0013777
1.0015358
1.0016881
1.0018394
1.0019792
1.0021183
1.0022328
1.0023497
1.0024567
1.0025507
1.0026334
1.002709
1.0027653
1.0028014
1.0028257
1.0028349
1.0028226
1.0027885
1.0027315
1.0026509
1.0025484
1.0024237
1.0022761
1.0021087
1.0019236
1.0017172
1.0014914
1.0012504
1.0009926
1.0007212
1.0004417
1.0001583
0.99987592
0.99958839
0.9992972
0.999012
0.99873541
0.99846428
0.99820808
0.99797145
0.99773889
0.99751328
0.9973018
0.9971095
0.99695921
0.99682332
0.996706
0.99659523
1.0013887
1.0014762
1.0015681
1.0016664
1.0017678
1.0018691
1.0019721
1.0020648
1.0021597
1.0022522
1.0023341
1.0024064
1.0024728
1.0025236
1.0025565
1.0025797
1.0025916
1.0025846
1.002558
1.0025106
1.0024433
1.0023605
1.0022594
1.0021372
1.0019973
1.0018432
1.0016712
1.001481
1.0012776
1.0010605
1.0008323
1.000598
1.0003603
1.0001242
0.99988469
0.99964378
0.9994103
0.99918839
0.99897191
0.99877108
0.99859061
0.9984157
0.99824043
0.99808702
0.99793323
0.99779339
0.99764934
0.99750883
0.99737376
1.0013195
1.0014011
1.0014847
1.0015667
1.0016471
1.0017244
1.0018017
1.0018704
1.0019404
1.002009
1.0020703
1.0021244
1.0021741
1.0022125
1.0022367
1.0022527
1.0022601
1.0022525
1.002228
1.0021855
1.0021239
1.0020462
1.0019504
1.0018343
1.0017017
1.0015562
1.0013952
1.0012174
1.0010275
1.0008265
1.000616
1.0003999
1.0001803
0.99996171
0.99974243
0.9995235
0.99930961
0.99910395
0.99890319
0.99871253
0.99853334
0.99835776
0.99818148
0.99801782
0.99785176
0.99769382
0.99753712
0.99738501
0.99723597
1.0013069
1.001365
1.0014261
1.0014867
1.0015473
1.001606
1.0016659
1.0017193
1.0017744
1.0018286
1.0018771
1.0019197
1.0019586
1.0019883
1.0020063
1.0020171
1.0020201
1.0020102
1.0019858
1.0019458
1.0018894
1.0018195
1.0017345
1.0016321
1.0015152
1.0013867
1.0012446
1.0010882
1.0009214
1.0007453
1.0005614
1.0003732
1.0001825
0.99999323
0.999804
0.99961589
0.99943272
0.99925675
0.9990859
0.99892395
0.9987717
0.99862262
0.99847524
0.99833537
0.99819472
0.99805765
0.99791865
0.99777816
0.99763879
1.0012406
1.0012902
1.001342
1.0013917
1.0014404
1.0014867
1.0015338
1.0015754
1.0016183
1.0016605
1.001698
1.0017308
1.0017605
1.0017827
1.0017951
1.0018013
1.0018006
1.0017887
1.0017642
1.0017258
1.0016727
1.0016069
1.001527
1.0014313
1.0013219
1.0012016
1.0010689
1.0009233
1.0007681
1.0006045
1.0004339
1.0002591
1.0000818
0.99990532
0.99972907
0.99955395
0.9993826
0.99921703
0.99905569
0.99890103
0.99875336
0.99860874
0.9984648
0.9983263
0.99818658
0.99804911
0.99790966
0.99776942
0.99762817
1.0011927
1.001231
1.0012719
1.001311
1.0013495
1.0013861
1.0014235
1.0014563
1.0014903
1.0015236
1.0015529
1.0015781
1.0016005
1.0016164
1.001624
1.001626
1.0016217
1.0016075
1.0015821
1.0015444
1.0014938
1.0014317
1.0013571
1.0012686
1.0011678
1.0010571
1.0009353
1.0008021
1.0006605
1.0005116
1.0003567
1.0001983
1.0000379
0.9998785
0.99971966
0.99956222
0.99940841
0.99925986
0.99911539
0.99897705
0.99884511
0.99871611
0.99858862
0.99846557
0.99834212
0.99822033
0.99809672
0.99797183
0.99784581
1.0011301
1.001162
1.0011962
1.0012284
1.0012599
1.0012894
1.0013196
1.0013458
1.0013729
1.0013992
1.001422
1.0014412
1.0014579
1.0014689
1.0014727
1.0014713
1.0014642
1.0014482
1.0014221
1.001385
1.0013363
1.001277
1.001206
1.0011226
1.0010277
1.0009236
1.0008093
1.0006846
1.0005522
1.0004131
1.0002684
1.0001204
0.99997032
0.9998208
0.9996717
0.99952374
0.99937869
0.99923805
0.99910088
0.99896874
0.9988418
0.99871771
0.99859473
0.99847558
0.99835601
0.9982378
0.99811805
0.99799713
0.99787462
1.0010761
1.0011015
1.0011293
1.0011553
1.0011808
1.0012046
1.0012289
1.0012496
1.0012712
1.0012918
1.0013095
1.0013238
1.0013357
1.0013426
1.001343
1.0013386
1.001329
1.0013112
1.0012845
1.0012477
1.0012004
1.0011434
1.0010758
1.0009969
1.0009076
1.0008097
1.0007026
1.000586
1.0004626
1.000333
1.0001985
1.0000611
0.99992189
0.99978328
0.99964521
0.9995084
0.99937441
0.99924456
0.99911809
0.99899638
0.99887965
0.99876582
0.99865351
0.9985449
0.99843639
0.99832939
0.99822131
0.99811239
0.99800247
1.0010191
1.0010402
1.0010634
1.0010848
1.0011058
1.0011252
1.0011449
1.0011615
1.0011786
1.0011949
1.0012083
1.0012187
1.0012269
1.0012304
1.0012281
1.0012214
1.0012097
1.0011906
1.0011633
1.0011268
1.0010807
1.0010257
1.0009608
1.0008856
1.0008009
1.000708
1.0006067
1.0004967
1.0003803
1.0002583
1.0001317
1.0000024
0.99987135
0.99974064
0.99961033
0.99948109
0.99935427
0.9992311
0.9991109
0.99899488
0.99888323
0.9987744
0.99866695
0.99856299
0.99845925
0.99835705
0.99825411
0.99815062
0.99804604
1.0009674
1.0009844
1.0010034
1.001021
1.001038
1.0010537
1.0010696
1.0010827
1.0010961
1.0011087
1.0011187
1.0011258
1.0011307
1.0011315
1.0011269
1.0011182
1.0011047
1.0010844
1.0010566
1.0010204
1.0009753
1.000922
1.0008595
1.0007876
1.0007069
1.0006186
1.0005225
1.0004185
1.0003086
1.0001936
1.0000743
0.9999526
0.9998293
0.99970635
0.99958385
0.99946246
0.99934342
0.99922785
0.99911521
0.99900658
0.9989022
0.99880073
0.99870088
0.99860459
0.99850889
0.99841498
0.99832077
0.99822645
0.99813161
1.0009165
1.0009305
1.0009463
1.0009608
1.0009747
1.0009874
1.0010002
1.0010105
1.001021
1.0010305
1.0010377
1.0010421
1.0010445
1.0010429
1.0010364
1.001026
1.0010111
1.0009899
1.0009617
1.0009257
1.0008816
1.0008298
1.0007695
1.0007005
1.0006233
1.000539
1.0004474
1.0003486
1.0002443
1.0001352
1.0000223
0.99990697
0.9997902
0.99967369
0.99955755
0.99944244
0.99932945
0.99921966
0.99911255
0.99900913
0.99890963
0.99881297
0.9987179
0.99862634
0.99853548
0.99844656
0.99835763
0.99826892
0.99817982
1.0008694
1.0008808
1.0008937
1.0009055
1.0009168
1.0009269
1.0009371
1.000945
1.000953
1.0009599
1.0009646
1.0009669
1.000967
1.0009634
1.0009554
1.0009436
1.0009275
1.0009055
1.000877
1.0008413
1.0007981
1.0007476
1.0006892
1.0006228
1.0005488
1.0004681
1.0003806
1.0002865
1.0001873
1.0000836
0.99997642
0.99986706
0.99975635
0.99964589
0.99953582
0.9994268
0.99931985
0.99921597
0.99911473
0.99901706
0.99892324
0.99883231
0.99874314
0.99865754
0.99857293
0.99849047
0.99840837
0.99832687
0.99824541
1.0008244
1.0008336
1.0008442
1.0008537
1.0008629
1.0008709
1.0008789
1.0008848
1.0008907
1.0008955
1.0008982
1.0008985
1.0008968
1.0008916
1.0008822
1.0008692
1.0008522
1.0008296
1.0008009
1.0007655
1.0007231
1.0006739
1.0006173
1.0005532
1.0004821
1.0004047
1.0003209
1.000231
1.0001364
1.0000376
0.99993553
0.99983147
0.99972616
0.99962107
0.99951637
0.99941269
0.99931097
0.99921214
0.99911582
0.99902288
0.99893359
0.99884716
0.99876249
0.99868138
0.99860137
0.99852365
0.99844652
0.99837028
0.99829426
1.0007823
1.0007896
1.0007983
1.0008059
1.0008131
1.0008193
1.0008255
1.0008297
1.0008337
1.0008367
1.0008377
1.0008363
1.000833
1.0008265
1.0008159
1.000802
1.0007841
1.000761
1.0007323
1.0006972
1.0006556
1.0006076
1.0005527
1.0004908
1.0004223
1.0003478
1.0002675
1.0001815
1.000091
0.99999672
0.99989938
0.99980021
0.99969992
0.99959985
0.9995002
0.99940158
0.99930489
0.999211
0.99911957
0.99903145
0.99894689
0.99886522
0.99878543
0.99870924
0.99863434
0.99856189
0.9984903
0.9984199
0.99835002
1.0007424
1.0007482
1.0007552
1.0007612
1.0007668
1.0007715
1.000776
1.0007788
1.0007813
1.0007827
1.0007822
1.0007795
1.0007748
1.0007671
1.0007556
1.0007409
1.0007224
1.0006989
1.0006701
1.0006354
1.0005946
1.0005477
1.0004944
1.0004345
1.0003684
1.0002968
1.0002196
1.0001371
1.0000505
0.99996034
0.99986736
0.9997727
0.99967702
0.99958158
0.99948656
0.99939258
0.99930048
0.99921108
0.99912406
0.99904022
0.99895982
0.99888227
0.99880664
0.99873457
0.99866391
0.99859577
0.99852869
0.998463
0.998398
1.000705
1.0007094
1.000715
1.0007196
1.0007239
1.0007272
1.0007303
1.0007318
1.0007329
1.000733
1.0007312
1.0007274
1.0007216
1.0007128
1.0007006
1.0006852
1.0006661
1.0006424
1.0006137
1.0005794
1.0005393
1.0004935
1.0004416
1.0003836
1.0003198
1.0002508
1.0001766
1.0000974
1.0000144
0.99992806
0.99983913
0.99974867
0.9996573
0.99956619
0.99947556
0.99938597
0.99929825
0.99921314
0.99913039
0.99905075
0.99897448
0.99890106
0.99882963
0.99876177
0.99869545
0.99863174
0.99856928
0.99850842
0.99844845
1.0006697
1.000673
1.0006773
1.0006807
1.0006838
1.000686
1.0006879
1.0006883
1.0006883
1.0006872
1.0006843
1.0006794
1.0006726
1.0006631
1.0006502
1.0006342
1.0006147
1.0005909
1.0005622
1.0005283
1.000489
1.0004443
1.0003938
1.0003376
1.000276
1.0002094
1.0001379
1.0000618
0.99998218
0.99989942
0.99981429
0.99972775
0.99964042
0.99955338
0.99946684
0.99938137
0.99929774
0.99921666
0.99913789
0.99906213
0.99898965
0.99891999
0.99885236
0.99878823
0.99872573
0.99866589
0.99860741
0.9985507
0.99849497
1.0006365
1.0006388
1.000642
1.0006443
1.0006464
1.0006476
1.0006485
1.0006479
1.0006469
1.0006448
1.0006409
1.0006352
1.0006276
1.0006173
1.0006038
1.0005874
1.0005676
1.0005437
1.0005152
1.0004818
1.0004431
1.0003995
1.0003504
1.0002959
1.0002363
1.000172
1.0001031
1.00003
0.99995346
0.99987407
0.99979251
0.99970967
0.99962614
0.99954295
0.99946029
0.99937874
0.99929901
0.99922177
0.99914681
0.9990748
0.999006
0.99894
0.99887607
0.99881562
0.99875688
0.99870083
0.99864628
0.99859361
0.99854206
1.0006051
1.0006066
1.0006088
1.0006103
1.0006114
1.0006117
1.0006117
1.0006103
1.0006084
1.0006054
1.0006008
1.0005943
1.0005859
1.000575
1.0005611
1.0005444
1.0005244
1.0005004
1.0004721
1.0004391
1.0004013
1.0003586
1.0003109
1.000258
1.0002003
1.0001382
1.0000718
1.0000014
0.99992789
0.99985169
0.99977349
0.99969415
0.99961422
0.99953466
0.99945569
0.99937784
0.9993018
0.99922819
0.99915684
0.99908837
0.99902302
0.99896043
0.99889994
0.99884285
0.99878753
0.9987349
0.99868385
0.99863477
0.99858687
1.0005755
1.0005762
1.0005776
1.0005783
1.0005787
1.0005782
1.0005774
1.0005753
1.0005726
1.0005688
1.0005635
1.0005563
1.0005474
1.000536
1.0005217
1.0005047
1.0004845
1.0004606
1.0004326
1.0004001
1.000363
1.0003213
1.0002748
1.0002235
1.0001677
1.0001077
1.0000436
0.99997585
0.99990516
0.99983199
0.99975698
0.99968096
0.99960444
0.99952834
0.99945286
0.99937854
0.99930602
0.99923589
0.99916799
0.9991029
0.99904087
0.99898156
0.99892437
0.99887053
0.9988185
0.99876917
0.99872148
0.99867582
0.99863142
1.0005475
1.0005476
1.0005483
1.0005483
1.0005479
1.0005468
1.0005453
1.0005425
1.0005392
1.0005347
1.0005288
1.0005211
1.0005116
1.0004998
1.0004852
1.000468
1.0004478
1.0004239
1.0003962
1.0003642
1.0003279
1.0002872
1.000242
1.0001922
1.0001381
1.0000801
1.0000183
0.99995301
0.99988501
0.99981471
0.99974274
0.99966986
0.99959659
0.99952378
0.99945164
0.99938067
0.99931151
0.99924468
0.99918006
0.99911819
0.99905929
0.99900308
0.99894898
0.99889816
0.99884917
0.99880286
0.99875823
0.99871567
0.99867439
1.000521
1.0005205
1.0005206
1.00052
1.000519
1.0005173
1.0005152
1.0005118
1.0005079
1.0005029
1.0004964
1.0004882
1.0004783
1.0004662
1.0004514
1.000434
1.0004138
1.0003901
1.0003627
1.0003312
1.0002957
1.0002559
1.0002119
1.0001636
1.0001112
1.0000551
0.99999548
0.99993261
0.99986718
0.99979962
0.99973054
0.99966067
0.9995905
0.99952082
0.99945185
0.9993841
0.99931813
0.99925446
0.99919297
0.99913417
0.99907827
0.99902502
0.99897388
0.99892594
0.99887985
0.99883641
0.99879468
0.99875505
0.99871672
1.0004958
1.0004949
1.0004944
1.0004933
1.0004918
1.0004895
1.0004869
1.0004831
1.0004786
1.0004731
1.0004662
1.0004576
1.0004474
1.0004349
1.00042
1.0004025
1.0003823
1.0003588
1.0003317
1.0003009
1.000266
1.0002273
1.0001845
1.0001376
1.0000868
1.0000326
0.99997502
0.99991443
0.99985146
0.99978652
0.99972021
0.9996532
0.99958598
0.99951929
0.99945336
0.99938867
0.99932575
0.99926509
0.99920658
0.99915071
0.99909766
0.9990472
0.99899886
0.99895361
0.99891023
0.99886945
0.99883039
0.99879343
0.99875777
1.0004719
1.0004706
1.0004696
1.000468
1.000466
1.0004634
1.0004602
1.000456
1.0004511
1.0004452
1.0004379
1.000429
1.0004184
1.0004058
1.0003907
1.0003733
1.0003531
1.0003298
1.0003031
1.0002729
1.0002388
1.000201
1.0001593
1.0001138
1.0000647
1.0000123
0.99995666
0.99989827
0.99983765
0.99977522
0.99971155
0.99964728
0.99958288
0.99951906
0.99945603
0.99939426
0.99933425
0.99927646
0.9992208
0.99916772
0.99911738
0.99906959
0.9990239
0.99898122
0.99894041
0.99890214
0.99886559
0.99883115
0.99879799
1.0004492
1.0004475
1.0004461
1.0004441
1.0004417
1.0004387
1.0004351
1.0004305
1.0004253
1.000419
1.0004113
1.0004022
1.0003914
1.0003786
1.0003635
1.000346
1.000326
1.000303
1.0002767
1.000247
1.0002137
1.0001769
1.0001363
1.0000922
1.0000446
0.99999391
0.99994024
0.99988395
0.99982559
0.99976556
0.99970442
0.99964277
0.99958107
0.99951998
0.99945972
0.99940073
0.99934351
0.99928846
0.99923552
0.99918508
0.99913733
0.99909206
0.99904888
0.99900861
0.9989702
0.99893427
0.99890005
0.99886791
0.99883705
1.0004275
1.0004255
1.0004237
1.0004214
1.0004187
1.0004153
1.0004114
1.0004065
1.0004009
1.0003943
1.0003864
1.000377
1.000366
1.0003531
1.000338
1.0003206
1.0003008
1.000278
1.0002522
1.0002231
1.0001906
1.0001547
1.0001153
1.0000725
1.0000264
0.99997738
0.99992556
0.9998713
0.99981512
0.9997574
0.99969868
0.99963953
0.99958041
0.99952193
0.99946432
0.99940799
0.99935342
0.99930099
0.99925062
0.99920272
0.99915742
0.99911455
0.99907375
0.99903576
0.99899962
0.9989659
0.99893387
0.9989039
0.99887518
1.0004067
1.0004044
1.0004024
1.0003998
1.0003967
1.0003931
1.0003889
1.0003837
1.0003779
1.000371
1.0003629
1.0003533
1.0003423
1.0003293
1.0003142
1.000297
1.0002773
1.0002549
1.0002295
1.000201
1.0001693
1.0001343
1.0000961
1.0000545
1.0000099
0.99996252
0.9999125
0.99986019
0.9998061
0.99975059
0.99969419
0.99963744
0.99958078
0.9995248
0.99946971
0.99941593
0.99936389
0.99931394
0.99926603
0.99922053
0.99917756
0.99913696
0.99909841
0.99906257
0.99902856
0.99899689
0.9989669
0.99893892
0.99891217
1.0003868
1.0003843
1.000382
1.0003792
1.0003759
1.000372
1.0003675
1.0003622
1.0003561
1.0003491
1.0003408
1.0003311
1.0003199
1.000307
1.000292
1.0002748
1.0002554
1.0002334
1.0002085
1.0001806
1.0001497
1.0001156
1.0000784
1.0000382
0.99999502
0.99994919
0.9999009
0.99985048
0.9997984
0.99974502
0.99969084
0.99963639
0.99958209
0.99952849
0.99947581
0.99942445
0.99937481
0.99932723
0.99928166
0.99923844
0.99919768
0.99915923
0.99912281
0.99908899
0.99905699
0.99902726
0.99899918
0.99897307
0.99894816
1.0003678
1.0003651
1.0003626
1.0003595
1.000356
1.0003519
1.0003473
1.0003417
1.0003355
1.0003283
1.0003199
1.0003101
1.0002989
1.000286
1.0002711
1.0002542
1.000235
1.0002133
1.000189
1.0001617
1.0001316
1.0000984
1.0000624
1.0000233
0.99998156
0.99993727
0.99989066
0.99984206
0.99979191
0.99974058
0.99968853
0.99963628
0.99958423
0.9995329
0.99948252
0.99943346
0.99938611
0.99934077
0.99929742
0.99925636
0.99921769
0.99918128
0.99914686
0.99911495
0.99908484
0.99905691
0.99903061
0.99900623
0.99898301
1.0003494
1.0003466
1.0003439
1.0003406
1.000337
1.0003327
1.0003279
1.0003223
1.0003159
1.0003086
1.0003001
1.0002903
1.0002791
1.0002663
1.0002515
1.0002348
1.0002159
1.0001947
1.0001708
1.0001442
1.0001149
1.0000827
1.0000476
1.0000098
0.99996944
0.99992665
0.99988167
0.99983482
0.99978654
0.99973717
0.99968716
0.99963702
0.99958711
0.99953795
0.99948976
0.99944289
0.9993977
0.99935449
0.99931324
0.99927422
0.99923753
0.99920305
0.99917051
0.9991404
0.99911205
0.99908583
0.99906119
0.99903842
0.99901678
1.0003317
1.0003287
1.0003259
1.0003225
1.0003188
1.0003144
1.0003095
1.0003037
1.0002973
1.0002899
1.0002814
1.0002716
1.0002605
1.0002477
1.0002331
1.0002167
1.0001981
1.0001773
1.000154
1.0001281
1.0000995
1.0000682
1.0000342
0.99999763
0.99995855
0.99991722
0.99987382
0.99982868
0.99978219
0.9997347
0.99968666
0.99963852
0.99959067
0.99954357
0.99949745
0.99945265
0.99940952
0.99936833
0.99932906
0.99929197
0.99925714
0.99922446
0.9991937
0.99916528
0.99913858
0.99911393
0.99909084
0.99906956
0.99904937
1.0003146
1.0003116
1.0003086
1.0003052
1.0003013
1.0002968
1.0002918
1.000286
1.0002795
1.0002721
1.0002636
1.0002539
1.0002428
1.0002302
1.0002158
1.0001997
1.0001815
1.0001611
1.0001383
1.0001131
1.0000853
1.0000549
1.000022
0.99998659
0.99994881
0.9999089
0.99986704
0.99982354
0.99977878
0.99973311
0.99968694
0.99964072
0.99959482
0.99954968
0.99950553
0.9994627
0.9994215
0.99938221
0.9993448
0.99930953
0.99927645
0.99924547
0.99921637
0.99918953
0.99916439
0.99914122
0.99911957
0.99909968
0.99908085
1.000298
1.000295
1.000292
1.0002884
1.0002845
1.00028
1.000275
1.0002691
1.0002626
1.0002552
1.0002468
1.0002371
1.0002261
1.0002137
1.0001996
1.0001837
1.0001659
1.000146
1.0001238
1.0000992
1.0000722
1.0000428
1.0000109
0.99997663
0.99994014
0.99990161
0.99986124
0.99981933
0.99977625
0.99973231
0.99968794
0.99964356
0.99959951
0.99955623
0.99951394
0.99947296
0.99943359
0.99939608
0.99936043
0.99932685
0.99929541
0.99926602
0.99923848
0.99921311
0.99918941
0.99916761
0.99914729
0.99912868
0.9991111
1.000282
1.0002789
1.0002759
1.0002723
1.0002683
1.0002638
1.0002588
1.000253
1.0002465
1.0002391
1.0002307
1.0002212
1.0002104
1.0001981
1.0001843
1.0001687
1.0001513
1.0001319
1.0001103
1.0000864
1.0000602
1.0000317
1.0000008
0.9999677
0.99993246
0.99989529
0.99985637
0.99981599
0.99977452
0.99973226
0.99968961
0.99964697
0.99960469
0.99956317
0.99952263
0.99948339
0.99944573
0.99940989
0.99937588
0.99934389
0.99931399
0.99928608
0.99925999
0.99923599
0.99921363
0.99919312
0.99917404
0.99915663
0.99914021
1.0002664
1.0002634
1.0002603
1.0002567
1.0002528
1.0002483
1.0002433
1.0002375
1.000231
1.0002237
1.0002155
1.000206
1.0001954
1.0001834
1.0001698
1.0001546
1.0001377
1.0001187
1.0000977
1.0000746
1.0000492
1.0000216
0.99999171
0.99995972
0.9999257
0.99988985
0.99985234
0.99981346
0.99977354
0.99973289
0.99969189
0.99965091
0.9996103
0.99957044
0.99953155
0.99949394
0.99945788
0.9994236
0.99939112
0.99936061
0.99933213
0.9993056
0.99928085
0.99925813
0.999237
0.99921766
0.99919972
0.99918339
0.99916801
1.0002513
1.0002483
1.0002452
1.0002417
1.0002378
1.0002333
1.0002283
1.0002226
1.0002163
1.0002091
1.0002009
1.0001917
1.0001813
1.0001695
1.0001563
1.0001414
1.0001249
1.0001065
1.0000861
1.0000636
1.000039
1.0000123
0.9999835
0.99995262
0.99991981
0.99988526
0.99984912
0.99981169
0.99977327
0.99973417
0.99969474
0.99965535
0.99961631
0.99957802
0.99954068
0.99950459
0.99947002
0.99943719
0.99940613
0.99937699
0.99934983
0.99932457
0.99930106
0.99927951
0.99925954
0.99924129
0.99922442
0.9992091
0.99919472
1.0002367
1.0002337
1.0002307
1.0002272
1.0002233
1.0002189
1.000214
1.0002084
1.0002021
1.0001951
1.0001871
1.000178
1.0001678
1.0001564
1.0001434
1.000129
1.0001129
1.0000951
1.0000753
1.0000535
1.0000298
1.000004
0.99997613
0.99994635
0.99991473
0.99988145
0.99984666
0.99981063
0.99977367
0.99973606
0.99969813
0.99966024
0.9996227
0.99958587
0.99954998
0.99951531
0.99948213
0.99945064
0.99942088
0.999393
0.99936705
0.99934295
0.99932057
0.99930009
0.99928115
0.99926387
0.99924793
0.9992335
0.99921997
1.0002224
1.0002195
1.0002166
1.0002131
1.0002093
1.000205
1.0002002
1.0001947
1.0001886
1.0001817
1.0001738
1.000165
1.0001551
1.0001439
1.0001314
1.0001173
1.0001017
1.0000844
1.0000653
1.0000443
1.0000213
0.99999639
0.99996956
0.99994087
0.99991042
0.99987838
0.9998449
0.99981024
0.99977469
0.99973852
0.99970203
0.99966557
0.99962943
0.99959398
0.99955944
0.99952609
0.99949419
0.99946394
0.99943537
0.99940864
0.99938379
0.99936075
0.9993394
0.9993199
0.99930191
0.99928555
0.99927051
0.99925694
0.99924427
1.0002087
1.0002058
1.0002029
1.0001996
1.0001959
1.0001917
1.000187
1.0001816
1.0001756
1.0001689
1.0001612
1.0001526
1.000143
1.0001321
1.00012
1.0001064
1.0000913
1.0000745
1.000056
1.0000357
1.0000136
0.99998957
0.99996373
0.99993612
0.99990683
0.99987601
0.99984382
0.9998105
0.99977632
0.99974152
0.99970641
0.99967131
0.9996365
0.99960235
0.99956907
0.99953694
0.99950622
0.99947709
0.99944961
0.9994239
0.99940003
0.99937792
0.99935748
0.99933881
0.99932164
0.99930603
0.99929171
0.9992788
0.99926676
1.0001953
1.0001926
1.0001898
1.0001865
1.0001829
1.0001788
1.0001742
1.000169
1.0001632
1.0001566
1.0001492
1.0001409
1.0001315
1.000121
1.0001092
1.0000961
1.0000815
1.0000653
1.0000474
1.0000279
1.0000065
0.99998346
0.99995861
0.99993207
0.99990392
0.99987431
0.99984339
0.99981137
0.99977852
0.99974506
0.99971127
0.99967746
0.99964391
0.99961098
0.99957888
0.99954788
0.99951824
0.99949012
0.99946359
0.99943879
0.99941577
0.99939448
0.99937482
0.99935692
0.9993405
0.99932563
0.99931205
0.99929986
0.99928856
1.0001824
1.0001798
1.0001771
1.0001739
1.0001704
1.0001664
1.000162
1.000157
1.0001513
1.0001449
1.0001378
1.0001297
1.0001206
1.0001104
1.000099
1.0000864
1.0000723
1.0000567
1.0000395
1.0000207
1.0000002
0.99997801
0.99995415
0.99992867
0.99990166
0.99987325
0.99984356
0.99981283
0.99978128
0.99974912
0.9997166
0.99968402
0.99965168
0.99961989
0.9995889
0.99955894
0.99953026
0.99950303
0.99947733
0.99945328
0.99943096
0.99941032
0.99939129
0.99937396
0.99935807
0.99934369
0.99933055
0.99931875
0.9993078
1.0001699
1.0001674
1.0001648
1.0001618
1.0001584
1.0001546
1.0001503
1.0001454
1.0001399
1.0001338
1.0001268
1.000119
1.0001103
1.0001005
1.0000895
1.0000773
1.0000637
1.0000487
1.0000322
1.0000142
0.99999448
0.9999732
0.99995032
0.9999259
0.99990002
0.99987279
0.99984433
0.99981486
0.99978459
0.99975368
0.99972239
0.999691
0.99965981
0.99962913
0.99959917
0.99957016
0.99954232
0.99951585
0.99949081
0.99946738
0.9994456
0.99942549
0.99940697
0.99939014
0.99937479
0.99936097
0.99934844
0.99933728
0.99932703
1.0001579
1.0001555
1.000153
1.0001501
1.0001469
1.0001432
1.0001391
1.0001344
1.0001291
1.0001232
1.0001164
1.0001089
1.0001005
1.000091
1.0000805
1.0000687
1.0000557
1.0000413
1.0000255
1.0000082
0.99998935
0.99996898
0.99994708
0.99992372
0.99989896
0.9998729
0.99984567
0.99981745
0.99978843
0.99975875
0.99972866
0.99969844
0.99966837
0.99963874
0.99960973
0.99958157
0.99955445
0.99952858
0.99950405
0.99948103
0.99945962
0.99943981
0.99942157
0.99940496
0.9993898
0.9993761
0.99936363
0.99935248
0.99934216
1.0001464
1.0001441
1.0001417
1.0001389
1.0001358
1.0001323
1.0001283
1.0001238
1.0001187
1.000113
1.0001066
1.0000993
1.0000912
1.0000821
1.000072
1.0000607
1.0000483
1.0000345
1.0000194
1.0000028
0.99998478
0.99996531
0.9999444
0.9999221
0.99989846
0.99987357
0.99984755
0.99982058
0.99979279
0.99976433
0.99973542
0.99970635
0.99967739
0.99964877
0.99962065
0.99959322
0.99956669
0.99954125
0.99951705
0.99949428
0.99947305
0.99945341
0.99943537
0.999419
0.99940416
0.99939089
0.99937898
0.99936848
0.99935898
1.0001352
1.000133
1.0001308
1.0001281
1.0001252
1.0001218
1.000118
1.0001137
1.0001089
1.0001034
1.0000972
1.0000902
1.0000824
1.0000737
1.000064
1.0000532
1.0000413
1.0000282
1.0000137
0.99999791
0.99998073
0.99996218
0.99994225
0.99992101
0.99989849
0.99987478
0.99984996
0.99982423
0.99979768
0.99977041
0.99974269
0.99971479
0.99968692
0.99965928
0.99963197
0.99960516
0.99957906
0.9995539
0.99952984
0.99950711
0.99948584
0.99946611
0.99944791
0.99943131
0.99941617
0.99940249
0.99939005
0.99937893
0.99936865
1.0001244
1.0001223
1.0001202
1.0001177
1.0001149
1.0001117
1.0001081
1.000104
1.0000994
1.0000942
1.0000883
1.0000816
1.0000741
1.0000658
1.0000565
1.0000462
1.0000348
1.0000223
1.0000086
0.99999353
0.99997719
0.99995955
0.99994061
0.99992044
0.99989904
0.9998765
0.9998529
0.99982841
0.99980309
0.99977703
0.99975052
0.9997238
0.99969704
0.99967033
0.99964374
0.99961743
0.99959165
0.99956662
0.99954255
0.99951969
0.99949823
0.99947829
0.99945993
0.99944328
0.99942829
0.99941499
0.99940322
0.99939301
0.99938399
1.0001139
1.000112
1.00011
1.0001076
1.000105
1.000102
1.0000986
1.0000947
1.0000903
1.0000853
1.0000797
1.0000734
1.0000663
1.0000583
1.0000495
1.0000396
1.0000288
1.0000169
1.0000039
0.9999896
0.99997411
0.99995739
0.99993944
0.99992033
0.99990005
0.99987871
0.99985634
0.99983311
0.99980904
0.99978422
0.99975896
0.99973348
0.99970782
0.99968199
0.99965605
0.99963016
0.99960458
0.99957956
0.99955532
0.99953214
0.9995102
0.99948965
0.99947054
0.999453
0.9994369
0.99942226
0.99940889
0.99939685
0.9993857
1.0001037
1.0001019
1.0001
1.0000978
1.0000953
1.0000925
1.0000893
1.0000856
1.0000815
1.0000768
1.0000716
1.0000656
1.0000589
1.0000513
1.0000429
1.0000336
1.0000232
1.0000119
0.99999957
0.99998609
0.99997144
0.99995563
0.99993867
0.99992061
0.99990146
0.99988129
0.99986016
0.99983821
0.9998154
0.99979187
0.99976796
0.99974378
0.99971925
0.9996943
0.999669
0.99964352
0.99961811
0.99959303
0.99956852
0.99954486
0.99952229
0.99950106
0.99948136
0.99946343
0.99944735
0.99943321
0.99942098
0.9994106
0.99940188
1.0000938
1.0000921
1.0000903
1.0000882
1.0000859
1.0000832
1.0000802
1.0000768
1.0000729
1.0000686
1.0000636
1.0000581
1.0000518
1.0000447
1.0000368
1.0000279
1.0000181
1.0000074
0.99999568
0.99998298
0.99996919
0.9999543
0.99993835
0.99992138
0.99990337
0.9998844
0.99986449
0.9998438
0.99982224
0.9998
0.9997775
0.99975463
0.99973121
0.99970714
0.99968251
0.99965751
0.99963237
0.99960728
0.99958244
0.99955811
0.99953454
0.99951195
0.99949053
0.99947048
0.99945178
0.99943451
0.99941852
0.99940394
0.9993903
1.0000844
1.0000828
1.000081
1.000079
1.0000768
1.0000742
1.0000714
1.0000682
1.0000646
1.0000605
1.000056
1.0000508
1.000045
1.0000384
1.000031
1.0000227
1.0000134
1.0000033
0.99999227
0.99998036
0.99996746
0.99995355
0.99993866
0.99992283
0.99990603
0.99988832
0.99986969
0.99985034
0.99983008
0.99980922
0.99978819
0.99976662
0.99974424
0.99972099
0.99969705
0.99967255
0.99964767
0.99962253
0.99959731
0.99957224
0.99954766
0.9995239
0.99950138
0.99948054
0.99946176
0.99944538
0.99943158
0.9994203
0.99941163
1.0000753
1.0000737
1.000072
1.0000701
1.000068
1.0000656
1.0000628
1.0000598
1.0000564
1.0000527
1.0000484
1.0000437
1.0000384
1.0000324
1.0000256
1.0000179
1.0000092
0.99999963
0.99998923
0.99997806
0.999966
0.99995298
0.99993904
0.99992422
0.99990853
0.99989209
0.99987485
0.99985698
0.99983826
0.99981916
0.99979989
0.99977985
0.99975876
0.99973668
0.99971376
0.99969005
0.9996656
0.99964041
0.99961458
0.99958829
0.99956182
0.99953547
0.99950956
0.99948442
0.99946021
0.99943711
0.99941509
0.99939452
0.99937484
1.0000668
1.0000653
1.0000636
1.0000616
1.0000595
1.0000571
1.0000545
1.0000516
1.0000485
1.000045
1.0000411
1.0000368
1.000032
1.0000266
1.0000204
1.0000132
1.0000051
0.99999596
0.99998602
0.99997544
0.99996405
0.99995174
0.99993855
0.99992455
0.99990975
0.9998943
0.99987814
0.99986149
0.99984409
0.99982656
0.99980914
0.99979064
0.9997712
0.99975086
0.99972977
0.99970771
0.99968463
0.99966035
0.99963487
0.99960826
0.99958077
0.99955278
0.99952494
0.99949815
0.99947346
0.99945183
0.9994342
0.99942071
0.99941187
1.0000584
1.0000568
1.000055
1.0000531
1.0000511
1.0000489
1.0000466
1.000044
1.0000411
1.0000379
1.0000344
1.0000304
1.000026
1.0000209
1.0000152
1.0000087
1.0000012
0.99999273
0.99998345
0.99997369
0.9999633
0.99995213
0.99994026
0.99992773
0.99991439
0.99990015
0.99988498
0.99986932
0.99985264
0.99983559
0.99981953
0.99980161
0.99978309
0.99976362
0.99974369
0.99972261
0.99970052
0.99967686
0.99965174
0.99962482
0.99959635
0.99956624
0.99953465
0.99950152
0.99946711
0.99943132
0.99939486
0.99935776
0.99932196
1.0000512
1.0000496
1.0000479
1.000046
1.0000439
1.0000417
1.0000392
1.0000366
1.0000338
1.0000307
1.0000273
1.0000237
1.0000198
1.0000155
1.0000108
1.0000055
0.99999938
0.99999216
0.9999839
0.9999754
0.99996676
0.9999576
0.99994796
0.99993783
0.99992701
0.99991534
0.99990277
0.99988989
0.99987578
0.99986237
0.99984789
0.99983202
0.99981506
0.99979699
0.99977808
0.9997576
0.9997358
0.99971171
0.99968561
0.99965638
0.9996247
0.99958995
0.99955351
0.99951649
0.99948088
0.99944868
0.99942441
0.99940632
0.99940294
1.0000432
1.0000405
1.0000379
1.0000354
1.000033
1.0000308
1.0000287
1.0000266
1.0000245
1.0000221
1.0000195
1.0000168
1.0000138
1.0000104
1.0000065
1.000002
0.99999653
0.99998937
0.99998075
0.99997208
0.9999634
0.999954
0.99994384
0.99993301
0.99992181
0.99991073
0.99989962
0.9998888
0.99987761
0.99987284
0.99985792
0.99984824
0.99983541
0.99982442
0.99981084
0.99979723
0.99978108
0.99976382
0.99974356
0.9997209
0.99969412
0.99966298
0.99962292
0.999576
0.99951714
0.99944674
0.9993633
0.99926537
0.99916797
1.0000355
1.0000339
1.0000322
1.0000314
1.0000306
1.0000298
1.0000286
1.0000272
1.0000254
1.0000231
1.0000202
1.0000167
1.0000121
1.0000067
1.0000003
0.99999304
0.9999846
0.99997498