/*--------------------------------*- C++ -*----------------------------------*\
| =========                 |                                                 |
| \\      /  F ield         | OpenFOAM: The Open Source CFD Toolbox           |
|  \\    /   O peration     | Version:  v2006                                 |
|   \\  /    A nd           | Website:  www.openfoam.com                      |
|    \\/     M anipulation  |                                                 |
\*---------------------------------------------------------------------------*/
FoamFile
{
    version     2.0;
    format      ascii;
    class       volScalarField;
    location    "3500";
    object      T;
}
// * * * * * * * * * * * * * * * * * * * * * * * * * * * * * * * * * * * * * //

dimensions      [0 0 0 1 0 0 0];


internalField   nonuniform List<scalar> 
19765
(
1.0003134
1.0003835
1.000519
1.0006663
1.0007909
1.0009017
1.0010078
1.0010979
1.0011755
1.0012464
1.0013052
1.0013471
1.0013756
1.0013942
1.0014025
1.0014004
1.001387
1.0013655
1.001334
1.0012928
1.0012446
1.0011883
1.0011221
1.0010429
1.0009541
1.0008659
1.0007774
1.0006748
1.0005644
1.0004552
1.0003358
1.0002002
1.0000371
0.99986402
0.99972426
0.99960176
0.99943995
0.99926464
0.99911439
0.99892293
0.99868852
0.99854026
0.99844487
0.99836112
0.99837906
0.99842161
0.99852977
0.99868601
0.99883649
1.0005734
1.0006312
1.0006967
1.0007701
1.0008457
1.000918
1.0009868
1.0010491
1.001106
1.0011587
1.0012056
1.0012445
1.0012757
1.0012987
1.0013124
1.0013177
1.0013155
1.0013042
1.0012827
1.0012511
1.0012097
1.0011591
1.0010993
1.0010301
1.0009527
1.0008677
1.000775
1.0006745
1.0005664
1.0004513
1.0003301
1.0002039
1.0000758
0.99994771
0.99981805
0.99968638
0.99955615
0.99942977
0.99930761
0.99919444
0.999101
0.99901586
0.9989356
0.99886644
0.998804
0.99875377
0.99871407
0.99868025
0.99864812
1.000525
1.0005765
1.0006362
1.0007
1.0007629
1.0008238
1.0008816
1.0009357
1.0009854
1.0010333
1.0010765
1.0011132
1.0011441
1.001168
1.0011833
1.0011914
1.0011934
1.0011874
1.0011721
1.0011475
1.0011139
1.0010721
1.0010208
1.00096
1.0008921
1.0008176
1.0007344
1.0006431
1.0005447
1.0004392
1.0003277
1.0002117
1.0000932
0.99997335
0.99985102
0.99972772
0.99960642
0.99948699
0.99937059
0.99926156
0.99915896
0.99905993
0.99896993
0.99889215
0.99882108
0.99875927
0.9987075
0.99866491
0.99862794
1.0005511
1.0005894
1.0006287
1.0006696
1.0007107
1.0007513
1.0007908
1.0008282
1.0008639
1.0008986
1.0009303
1.0009581
1.0009822
1.0010013
1.001014
1.0010213
1.001024
1.0010202
1.0010085
1.0009889
1.0009616
1.0009269
1.0008843
1.0008338
1.0007768
1.0007135
1.0006429
1.0005655
1.0004824
1.0003938
1.0003009
1.000205
1.000108
1.0000106
0.99991172
0.99981249
0.99971595
0.99962201
0.9995306
0.99944513
0.99936536
0.99928651
0.99921047
0.99913852
0.99906926
0.99900369
0.99893808
0.99887307
0.99880764
1.0005367
1.0005688
1.0006013
1.0006338
1.0006659
1.0006973
1.0007277
1.0007565
1.0007841
1.0008108
1.0008355
1.0008573
1.0008762
1.0008914
1.0009016
1.0009074
1.0009094
1.0009059
1.0008957
1.0008785
1.0008542
1.0008234
1.0007855
1.0007404
1.0006889
1.0006318
1.0005683
1.0004988
1.0004244
1.0003455
1.0002631
1.0001783
1.0000927
1.000007
0.99992071
0.99983489
0.99975158
0.99967061
0.99959213
0.99951814
0.99944801
0.99937836
0.99931121
0.99924582
0.99918186
0.99911926
0.99905754
0.99899816
0.99894192
1.0005232
1.0005473
1.0005716
1.0005962
1.0006203
1.0006439
1.000667
1.000689
1.0007103
1.0007311
1.0007503
1.0007671
1.0007818
1.0007934
1.0008008
1.0008047
1.0008052
1.000801
1.000791
1.0007748
1.0007523
1.0007238
1.0006892
1.0006479
1.0006008
1.0005487
1.0004909
1.0004279
1.0003606
1.0002894
1.0002153
1.0001393
1.0000625
0.99998589
0.99990912
0.99983297
0.99975895
0.99968719
0.99961767
0.99955171
0.99948898
0.99942747
0.99936753
0.99930947
0.99925201
0.99919551
0.99913867
0.99908168
0.99902515
1.0005
1.0005199
1.0005399
1.0005598
1.0005791
1.0005979
1.0006161
1.0006334
1.0006501
1.0006664
1.0006814
1.0006945
1.0007057
1.0007144
1.0007196
1.0007217
1.0007208
1.0007158
1.0007057
1.0006902
1.0006691
1.0006426
1.0006107
1.0005727
1.0005296
1.0004817
1.0004288
1.0003712
1.0003098
1.0002449
1.0001774
1.0001082
1.0000384
0.99996856
0.99989871
0.99982947
0.99976205
0.99969647
0.99963278
0.99957198
0.99951373
0.9994562
0.99940008
0.9993449
0.99929016
0.99923558
0.9991805
0.99912496
0.99906936
1.0004776
1.0004934
1.0005093
1.0005251
1.0005404
1.0005552
1.0005696
1.0005833
1.0005964
1.0006093
1.000621
1.0006311
1.0006395
1.0006458
1.0006491
1.0006496
1.0006475
1.0006416
1.0006313
1.0006162
1.000596
1.0005709
1.0005409
1.0005055
1.0004652
1.0004207
1.0003716
1.0003184
1.0002616
1.0002018
1.0001398
1.0000762
1.000012
0.99994793
0.99988394
0.99982058
0.99975882
0.99969878
0.99964046
0.99958464
0.9995311
0.99947854
0.99942716
0.9993769
0.99932698
0.99927741
0.99922738
0.99917688
0.99912597
1.0004537
1.0004667
1.0004798
1.0004927
1.0005051
1.0005171
1.0005287
1.0005396
1.00055
1.0005602
1.0005693
1.000577
1.0005832
1.0005875
1.0005891
1.0005883
1.0005851
1.0005785
1.000568
1.0005531
1.0005336
1.0005097
1.0004813
1.000448
1.0004103
1.0003687
1.0003229
1.0002734
1.0002207
1.0001652
1.0001077
1.0000487
0.99998926
0.99992979
0.99987041
0.99981159
0.99975415
0.99969818
0.99964372
0.99959141
0.99954106
0.99949153
0.99944312
0.99939554
0.99934832
0.99930126
0.99925376
0.99920574
0.99915734
1.0004308
1.0004414
1.000452
1.0004625
1.0004726
1.0004822
1.0004915
1.0005003
1.0005085
1.0005165
1.0005236
1.0005293
1.0005337
1.0005364
1.0005367
1.0005348
1.0005306
1.0005235
1.0005126
1.0004979
1.000479
1.000456
1.0004289
1.0003974
1.0003618
1.0003225
1.0002795
1.000233
1.0001837
1.0001318
1.0000781
1.0000231
0.99996756
0.99991205
0.99985667
0.99980182
0.99974824
0.99969603
0.99964524
0.9995964
0.99954942
0.99950335
0.99945837
0.99941434
0.99937073
0.99932746
0.99928394
0.99924007
0.99919587
1.0004084
1.0004171
1.0004258
1.0004345
1.0004427
1.0004506
1.0004581
1.0004651
1.0004716
1.0004779
1.0004832
1.0004874
1.0004903
1.0004917
1.0004909
1.000488
1.0004831
1.0004754
1.0004643
1.0004497
1.0004312
1.0004091
1.0003831
1.0003531
1.0003193
1.0002821
1.0002415
1.0001977
1.0001513
1.0001026
1.0000521
1.0000005
0.9999484
0.99989628
0.99984426
0.99979272
0.99974232
0.99969316
0.99964528
0.99959916
0.99955473
0.99951116
0.99946866
0.99942704
0.9993859
0.9993451
0.99930415
0.99926293
0.9992215
1.0003872
1.0003943
1.0004015
1.0004086
1.0004153
1.0004216
1.0004277
1.0004332
1.0004384
1.0004432
1.0004472
1.00045
1.0004518
1.000452
1.0004503
1.0004466
1.000441
1.0004328
1.0004216
1.0004071
1.0003891
1.0003676
1.0003426
1.0003139
1.0002817
1.0002463
1.0002078
1.0001663
1.0001224
1.0000764
1.0000288
0.99998014
0.999931
0.99988184
0.9998328
0.99978423
0.99973673
0.99969039
0.99964527
0.99960182
0.99955998
0.99951906
0.99947923
0.99944035
0.99940204
0.9993642
0.99932639
0.99928849
0.99925052
1.000367
1.0003728
1.0003787
1.0003845
1.00039
1.0003951
1.0004
1.0004044
1.0004083
1.000412
1.0004148
1.0004166
1.0004173
1.0004166
1.0004141
1.0004098
1.0004036
1.0003951
1.0003837
1.0003693
1.0003517
1.0003308
1.0003067
1.0002791
1.0002483
1.0002145
1.0001778
1.0001385
1.0000968
1.0000532
1.0000082
0.9999621
0.99991561
0.99986909
0.99982268
0.99977672
0.99973174
0.99968786
0.99964512
0.99960393
0.99956426
0.99952549
0.99948781
0.99945107
0.99941497
0.99937939
0.99934396
0.99930854
0.9992732
1.0003479
1.0003527
1.0003575
1.0003623
1.0003667
1.0003708
1.0003747
1.000378
1.000381
1.0003837
1.0003855
1.0003864
1.0003863
1.0003848
1.0003816
1.0003768
1.0003702
1.0003613
1.0003499
1.0003355
1.0003183
1.000298
1.0002746
1.000248
1.0002185
1.0001862
1.0001512
1.0001136
1.000074
1.0000325
0.99998976
0.99994605
0.99990192
0.99985778
0.99981376
0.99977018
0.99972753
0.99968593
0.99964545
0.99960644
0.9995689
0.99953231
0.99949681
0.99946232
0.99942853
0.99939538
0.9993625
0.99932979
0.99929729
1.0003299
1.0003338
1.0003377
1.0003416
1.0003451
1.0003484
1.0003514
1.000354
1.0003561
1.0003579
1.000359
1.0003591
1.0003582
1.0003561
1.0003524
1.0003471
1.0003401
1.000331
1.0003195
1.0003053
1.0002883
1.0002685
1.0002459
1.0002203
1.0001919
1.0001609
1.0001273
1.0000915
1.0000537
1.0000142
0.99997345
0.99993187
0.99988991
0.99984793
0.99980608
0.99976467
0.99972414
0.99968462
0.99964616
0.9996091
0.99957347
0.99953878
0.99950518
0.9994726
0.99944078
0.99940964
0.99937889
0.99934839
0.99931824
1.000313
1.0003161
1.0003193
1.0003224
1.0003252
1.0003277
1.00033
1.0003319
1.0003333
1.0003344
1.0003348
1.0003342
1.0003327
1.0003301
1.0003259
1.0003202
1.0003129
1.0003037
1.0002921
1.000278
1.0002614
1.0002421
1.0002201
1.0001953
1.000168
1.0001382
1.000106
1.0000717
1.0000355
0.99999784
0.99995899
0.99991936
0.99987938
0.9998394
0.99979956
0.99976015
0.9997216
0.99968402
0.99964749
0.99961231
0.99957851
0.99954568
0.99951396
0.99948328
0.99945342
0.99942432
0.9993957
0.99936745
0.99933965
1.0002971
1.0002995
1.0003021
1.0003045
1.0003067
1.0003086
1.0003103
1.0003115
1.0003123
1.0003128
1.0003126
1.0003115
1.0003095
1.0003064
1.0003018
1.0002958
1.0002883
1.0002789
1.0002673
1.0002534
1.000237
1.0002182
1.0001968
1.0001729
1.0001465
1.0001178
1.0000869
1.000054
1.0000194
0.99998332
0.99994621
0.99990838
0.99987024
0.9998321
0.99979413
0.99975659
0.99971988
0.99968411
0.99964936
0.99961592
0.99958382
0.99955268
0.99952266
0.99949369
0.99946557
0.99943826
0.9994115
0.99938519
0.99935943
1.0002821
1.000284
1.000286
1.0002879
1.0002895
1.0002909
1.000292
1.0002927
1.000293
1.000293
1.0002922
1.0002907
1.0002882
1.0002847
1.0002798
1.0002736
1.0002658
1.0002563
1.0002447
1.000231
1.0002149
1.0001965
1.0001758
1.0001526
1.0001271
1.0000994
1.0000697
1.0000381
1.0000049
0.99997043
0.99993493
0.99989878
0.99986235
0.99982594
0.99978971
0.99975393
0.99971895
0.99968489
0.99965184
0.99962005
0.99958958
0.99956008
0.9995317
0.99950439
0.99947797
0.99945239
0.99942745
0.99940302
0.99937923
1.0002679
1.0002694
1.0002709
1.0002723
1.0002735
1.0002744
1.000275
1.0002753
1.0002752
1.0002747
1.0002735
1.0002715
1.0002687
1.0002648
1.0002597
1.0002532
1.0002453
1.0002357
1.0002242
1.0002106
1.0001949
1.0001769
1.0001567
1.0001342
1.0001096
1.0000829
1.0000543
1.0000239
0.99999208
0.999959
0.99992501
0.99989043
0.9998556
0.99982082
0.99978623
0.9997521
0.99971875
0.99968631
0.99965485
0.99962463
0.99959568
0.99956771
0.99954086
0.99951507
0.9994902
0.9994662
0.99944288
0.99942013
0.99939807
1.0002547
1.0002557
1.0002568
1.0002578
1.0002585
1.000259
1.0002593
1.0002592
1.0002586
1.0002577
1.0002562
1.0002539
1.0002507
1.0002465
1.0002412
1.0002345
1.0002265
1.0002169
1.0002054
1.000192
1.0001766
1.000159
1.0001394
1.0001176
1.0000937
1.000068
1.0000404
1.0000112
0.99998061
0.99994888
0.99991631
0.99988321
0.99984989
0.99981664
0.99978361
0.99975103
0.99971924
0.99968833
0.9996584
0.99962966
0.99960217
0.99957567
0.99955027
0.99952595
0.99950256
0.99948006
0.99945829
0.99943714
0.99941674
1.0002421
1.0002428
1.0002435
1.0002442
1.0002446
1.0002447
1.0002446
1.0002441
1.0002433
1.000242
1.0002401
1.0002375
1.0002341
1.0002297
1.0002241
1.0002174
1.0002093
1.0001996
1.0001883
1.000175
1.0001599
1.0001427
1.0001236
1.0001024
1.0000794
1.0000545
1.0000279
0.9999998
0.9999704
0.99993995
0.99990872
0.99987701
0.99984513
0.99981333
0.99978177
0.99975067
0.99972035
0.9996909
0.99966241
0.99963508
0.99960898
0.99958385
0.99955983
0.99953687
0.99951485
0.99949374
0.99947338
0.99945368
0.99943475
1.0002303
1.0002307
1.0002311
1.0002314
1.0002315
1.0002313
1.0002309
1.0002301
1.000229
1.0002274
1.0002253
1.0002224
1.0002187
1.0002141
1.0002084
1.0002015
1.0001934
1.0001838
1.0001725
1.0001594
1.0001446
1.0001279
1.0001092
1.0000887
1.0000663
1.0000423
1.0000167
0.9999896
0.99996133
0.99993208
0.99990213
0.99987174
0.99984121
0.9998108
0.99978063
0.99975095
0.99972202
0.99969396
0.99966684
0.99964087
0.99961608
0.99959227
0.99956956
0.9995479
0.99952718
0.99950738
0.99948836
0.99947002
0.99945248
1.0002191
1.0002193
1.0002194
1.0002194
1.0002192
1.0002188
1.0002181
1.0002171
1.0002156
1.0002138
1.0002114
1.0002083
1.0002044
1.0001997
1.0001938
1.0001869
1.0001787
1.0001691
1.000158
1.0001451
1.0001306
1.0001142
1.0000961
1.0000762
1.0000545
1.0000313
1.0000066
0.99998048
0.99995329
0.99992518
0.99989644
0.99986731
0.99983807
0.99980897
0.99978014
0.99975179
0.9997242
0.99969747
0.99967166
0.99964696
0.99962343
0.99960087
0.99957938
0.99955894
0.99953945
0.99952086
0.99950307
0.99948597
0.99946969
1.0002085
1.0002085
1.0002083
1.0002081
1.0002077
1.000207
1.0002061
1.0002048
1.0002032
1.0002011
1.0001985
1.0001952
1.0001912
1.0001863
1.0001803
1.0001733
1.0001652
1.0001556
1.0001446
1.000132
1.0001177
1.0001018
1.0000841
1.0000648
1.0000438
1.0000214
0.99999747
0.99997234
0.99994617
0.99991916
0.99989157
0.99986364
0.99983563
0.99980778
0.99978022
0.99975315
0.99972684
0.99970136
0.9996768
0.99965333
0.999631
0.99960962
0.9995893
0.99957002
0.99955167
0.99953423
0.9995176
0.99950166
0.99948655
1.0001985
1.0001982
1.0001979
1.0001975
1.0001968
1.000196
1.0001948
1.0001933
1.0001915
1.0001893
1.0001865
1.000183
1.0001788
1.0001738
1.0001678
1.0001608
1.0001526
1.0001432
1.0001323
1.0001199
1.0001059
1.0000904
1.0000732
1.0000544
1.0000341
1.0000124
0.99998931
0.99996508
0.99993989
0.99991393
0.99988744
0.99986065
0.99983382
0.99980716
0.99978081
0.99975497
0.99972987
0.99970559
0.99968223
0.99965992
0.99963872
0.99961847
0.99959926
0.99958107
0.9995638
0.99954743
0.99953186
0.99951699
0.99950296
1.000189
1.0001885
1.000188
1.0001874
1.0001866
1.0001855
1.0001842
1.0001825
1.0001805
1.0001781
1.0001752
1.0001716
1.0001673
1.0001622
1.0001562
1.0001491
1.000141
1.0001316
1.0001209
1.0001087
1.0000951
1.0000799
1.0000632
1.0000449
1.0000253
1.0000042
0.99998198
0.99995863
0.99993438
0.99990942
0.99988398
0.99985828
0.99983258
0.99980706
0.99978187
0.99975719
0.99973325
0.99971012
0.99968789
0.9996667
0.99964658
0.9996274
0.99960924
0.99959208
0.99957583
0.99956046
0.9995459
0.99953203
0.99951899
1.0001799
1.0001793
1.0001786
1.0001779
1.0001769
1.0001757
1.0001742
1.0001724
1.0001702
1.0001677
1.0001646
1.0001609
1.0001565
1.0001514
1.0001453
1.0001383
1.0001302
1.0001209
1.0001104
1.0000984
1.0000851
1.0000703
1.000054
1.0000363
1.0000173
0.99999692
0.99997543
0.99995292
0.99992957
0.99990556
0.99988113
0.99985648
0.99983184
0.99980741
0.99978333
0.99975977
0.99973693
0.9997149
0.99969375
0.99967361
0.99965452
0.99963636
0.99961919
0.999603
0.99958771
0.99957328
0.99955965
0.9995467
0.99953459
1.0001712
1.0001705
1.0001697
1.0001688
1.0001677
1.0001663
1.0001647
1.0001628
1.0001605
1.0001578
1.0001547
1.0001509
1.0001464
1.0001412
1.0001351
1.0001281
1.0001201
1.000111
1.0001006
1.0000889
1.0000758
1.0000614
1.0000456
1.0000284
1.00001
0.99999033
0.99996958
0.99994787
0.99992538
0.9999023
0.99987883
0.99985518
0.99983157
0.99980818
0.99978515
0.99976265
0.99974086
0.99971988
0.99969976
0.99968063
0.99966252
0.99964532
0.9996291
0.99961383
0.99959943
0.99958589
0.99957313
0.99956105
0.99954978
1.000163
1.0001622
1.0001612
1.0001602
1.000159
1.0001575
1.0001558
1.0001537
1.0001513
1.0001486
1.0001453
1.0001414
1.000137
1.0001317
1.0001257
1.0001187
1.0001108
1.0001018
1.0000916
1.0000801
1.0000674
1.0000533
1.0000379
1.0000213
1.0000034
0.9999844
0.99996436
0.99994343
0.99992178
0.99989958
0.99987703
0.99985434
0.9998317
0.99980931
0.99978729
0.9997658
0.99974502
0.99972503
0.99970589
0.99968772
0.99967054
0.99965426
0.99963892
0.99962452
0.99961097
0.99959826
0.99958631
0.99957503
0.99956455
1.0001551
1.0001541
1.0001531
1.000152
1.0001507
1.0001491
1.0001473
1.0001451
1.0001427
1.0001398
1.0001365
1.0001326
1.0001281
1.0001228
1.0001168
1.0001099
1.0001021
1.0000932
1.0000832
1.000072
1.0000595
1.0000459
1.0000309
1.0000148
0.99999746
0.99997908
0.99995973
0.99993955
0.9999187
0.99989735
0.99987569
0.99985391
0.99983221
0.99981077
0.99978971
0.99976918
0.99974936
0.99973031
0.99971211
0.99969484
0.99967855
0.99966313
0.99964864
0.99963505
0.99962231
0.99961037
0.99959918
0.99958865
0.9995789
1.0001475
1.0001465
1.0001454
1.0001442
1.0001427
1.0001411
1.0001392
1.000137
1.0001345
1.0001316
1.0001282
1.0001242
1.0001197
1.0001145
1.0001085
1.0001017
1.0000939
1.0000852
1.0000754
1.0000645
1.0000523
1.000039
1.0000245
1.0000089
0.9999921
0.99997433
0.99995565
0.99993619
0.99991611
0.99989557
0.99987475
0.99985385
0.99983305
0.99981251
0.99979236
0.99977275
0.99975384
0.9997357
0.99971838
0.99970197
0.99968652
0.99967192
0.99965822
0.99964541
0.99963341
0.9996222
0.99961173
0.99960189
0.99959281
1.0001401
1.0001391
1.0001379
1.0001367
1.0001352
1.0001335
1.0001315
1.0001293
1.0001267
1.0001237
1.0001203
1.0001164
1.0001118
1.0001066
1.0001007
1.000094
1.0000864
1.0000778
1.0000682
1.0000575
1.0000457
1.0000327
1.0000187
1.0000035
0.99998726
0.99997009
0.99995206
0.9999333
0.99991396
0.9998942
0.9998742
0.99985413
0.99983418
0.9998145
0.99979523
0.99977649
0.99975844
0.99974115
0.99972467
0.99970909
0.99969442
0.9996806
0.99966765
0.99965556
0.99964427
0.99963374
0.99962394
0.99961474
0.99960629
1.0001331
1.000132
1.0001308
1.0001295
1.0001279
1.0001262
1.0001242
1.0001219
1.0001193
1.0001163
1.0001129
1.0001089
1.0001044
1.0000993
1.0000934
1.0000868
1.0000793
1.0000709
1.0000615
1.0000511
1.0000396
1.000027
1.0000133
0.99999861
0.99998292
0.99996633
0.99994893
0.99993084
0.99991222
0.99989321
0.99987398
0.99985471
0.99983557
0.99981672
0.99979827
0.99978036
0.99976314
0.99974665
0.99973097
0.99971615
0.99970224
0.99968914
0.9996769
0.99966549
0.99965486
0.99964497
0.99963578
0.99962719
0.99961932
1.0001263
1.0001252
1.0001239
1.0001226
1.000121
1.0001192
1.0001172
1.0001149
1.0001122
1.0001092
1.0001058
1.0001019
1.0000974
1.0000923
1.0000865
1.00008
1.0000727
1.0000644
1.0000553
1.0000451
1.0000339
1.0000217
1.0000085
0.99999422
0.99997904
0.99996301
0.99994622
0.99992879
0.99991085
0.99989256
0.99987407
0.99985557
0.9998372
0.99981913
0.99980147
0.99978435
0.9997679
0.99975218
0.99973724
0.99972316
0.99970994
0.99969753
0.99968596
0.99967519
0.99966517
0.99965588
0.99964727
0.99963923
0.9996319
1.0001197
1.0001186
1.0001173
1.0001159
1.0001143
1.0001125
1.0001105
1.0001081
1.0001055
1.0001025
1.0000991
1.0000952
1.0000908
1.0000858
1.0000801
1.0000737
1.0000665
1.0000584
1.0000495
1.0000396
1.0000287
1.0000169
1.000004
0.99999025
0.99997558
0.9999601
0.99994391
0.99992711
0.99990983
0.99989223
0.99987446
0.99985667
0.99983905
0.99982173
0.99980481
0.99978843
0.99977272
0.99975772
0.99974348
0.99973008
0.99971752
0.99970576
0.9996948
0.99968462
0.99967518
0.99966644
0.99965836
0.99965084
0.999644
1.0001134
1.0001122
1.0001109
1.0001095
1.0001079
1.0001061
1.0001041
1.0001017
1.0000991
1.0000961
1.0000927
1.0000889
1.0000845
1.0000796
1.000074
1.0000677
1.0000607
1.0000528
1.0000441
1.0000345
1.000024
1.0000125
1
0.9999867
0.99997252
0.99995758
0.99994196
0.99992577
0.99990914
0.99989219
0.9998751
0.99985801
0.99984109
0.99982448
0.99980827
0.9997926
0.99977757
0.99976324
0.99974967
0.9997369
0.99972496
0.99971379
0.9997034
0.99969377
0.99968486
0.99967663
0.99966905
0.999662
0.99965562
1.0001072
1.0001061
1.0001048
1.0001034
1.0001017
1.0000999
1.0000979
1.0000956
1.000093
1.00009
1.0000867
1.0000829
1.0000786
1.0000737
1.0000683
1.0000621
1.0000553
1.0000476
1.0000392
1.0000298
1.0000196
1.0000084
0.99999641
0.99998352
0.99996983
0.99995541
0.99994035
0.99992475
0.99990874
0.99989243
0.99987599
0.99985957
0.99984332
0.99982737
0.99981184
0.99979682
0.99978244
0.99976875
0.99975578
0.9997436
0.99973223
0.9997216
0.99971174
0.99970262
0.9996942
0.99968643
0.99967929
0.99967268
0.99966671
1.0001012
1.0001001
1.0000988
1.0000974
1.0000958
1.000094
1.000092
1.0000897
1.0000871
1.0000842
1.0000809
1.0000772
1.000073
1.0000682
1.0000629
1.0000569
1.0000502
1.0000428
1.0000345
1.0000255
1.0000156
1.0000048
0.99999315
0.9999807
0.99996748
0.99995358
0.99993906
0.99992404
0.99990862
0.99989292
0.99987711
0.99986132
0.99984571
0.9998304
0.9998155
0.9998011
0.99978732
0.9997742
0.9997618
0.99975016
0.9997393
0.99972917
0.99971979
0.99971113
0.99970315
0.99969582
0.99968909
0.99968288
0.99967728
1.0000954
1.0000943
1.000093
1.0000916
1.0000901
1.0000883
1.0000863
1.0000841
1.0000815
1.0000787
1.0000754
1.0000718
1.0000677
1.000063
1.0000578
1.000052
1.0000455
1.0000382
1.0000303
1.0000215
1.0000119
1.0000015
0.99999022
0.99997821
0.99996546
0.99995206
0.99993808
0.99992361
0.99990876
0.99989366
0.99987844
0.99986327
0.99984827
0.99983356
0.99981924
0.99980541
0.99979217
0.99977959
0.99976769
0.99975654
0.99974614
0.99973646
0.99972752
0.99971927
0.99971169
0.99970474
0.99969838
0.99969252
0.99968725
1.0000898
1.0000887
1.0000874
1.0000861
1.0000845
1.0000828
1.0000809
1.0000787
1.0000762
1.0000734
1.0000702
1.0000666
1.0000626
1.0000581
1.000053
1.0000474
1.000041
1.000034
1.0000263
1.0000178
1.0000085
0.99999845
0.99998762
0.99997603
0.99996375
0.99995083
0.99993738
0.99992345
0.99990916
0.99989462
0.99987999
0.9998654
0.99985097
0.99983683
0.99982305
0.99980974
0.99979699
0.99978488
0.99977343
0.99976271
0.99975272
0.99974345
0.99973489
0.99972702
0.9997198
0.9997132
0.99970717
0.99970165
0.99969669
1.0000843
1.0000832
1.000082
1.0000807
1.0000792
1.0000775
1.0000756
1.0000735
1.000071
1.0000683
1.0000652
1.0000618
1.0000579
1.0000535
1.0000485
1.000043
1.0000369
1.0000301
1.0000226
1.0000144
1.0000055
0.99999576
0.99998531
0.99997414
0.99996232
0.99994989
0.99993694
0.99992355
0.99990979
0.99989581
0.99988174
0.99986771
0.99985382
0.9998402
0.99982691
0.99981406
0.99980175
0.99979004
0.99977899
0.99976864
0.99975902
0.99975009
0.99974187
0.99973433
0.99972743
0.99972112
0.99971539
0.99971013
0.99970543
1.0000789
1.0000779
1.0000768
1.0000755
1.000074
1.0000724
1.0000705
1.0000685
1.0000661
1.0000635
1.0000605
1.0000571
1.0000533
1.0000491
1.0000443
1.000039
1.000033
1.0000265
1.0000193
1.0000113
1.0000027
0.99999334
0.99998328
0.99997254
0.99996116
0.99994921
0.99993677
0.99992388
0.99991066
0.99989722
0.99988369
0.99987019
0.99985681
0.99984366
0.99983081
0.99981837
0.99980643
0.99979508
0.99978436
0.99977434
0.99976502
0.99975641
0.99974848
0.99974123
0.99973462
0.9997286
0.99972314
0.99971816
0.99971373
1.0000737
1.0000727
1.0000716
1.0000704
1.000069
1.0000674
1.0000656
1.0000636
1.0000614
1.0000588
1.0000559
1.0000527
1.000049
1.0000449
1.0000403
1.0000351
1.0000294
1.0000231
1.0000161
1.0000085
1.0000002
0.99999119
0.99998152
0.9999712
0.99996027
0.99994879
0.99993683
0.99992446
0.99991175
0.99989884
0.99988583
0.99987284
0.99985993
0.9998472
0.99983473
0.99982264
0.99981103
0.99979997
0.99978955
0.9997798
0.99977075
0.99976239
0.99975472
0.99974771
0.99974133
0.99973552
0.99973027
0.99972549
0.99972123
1.0000686
1.0000677
1.0000666
1.0000654
1.0000641
1.0000626
1.0000609
1.000059
1.0000568
1.0000543
1.0000516
1.0000485
1.0000449
1.000041
1.0000365
1.0000316
1.0000261
1.00002
1.0000133
1.0000059
0.99999794
0.9999893
0.99998001
0.9999701
0.99995962
0.9999486
0.99993714
0.99992526
0.99991306
0.99990066
0.99988817
0.99987565
0.99986317
0.99985082
0.99983868
0.99982689
0.99981555
0.99980476
0.99979459
0.99978508
0.99977626
0.99976812
0.99976066
0.99975387
0.9997477
0.99974212
0.9997371
0.99973255
0.99972852
1.0000637
1.0000628
1.0000618
1.0000606
1.0000594
1.0000579
1.0000563
1.0000545
1.0000524
1.00005
1.0000474
1.0000444
1.000041
1.0000372
1.000033
1.0000282
1.0000229
1.0000171
1.0000106
1.0000036
0.99999593
0.99998764
0.99997874
0.99996924
0.9999592
0.99994865
0.99993767
0.99992628
0.99991459
0.9999027
0.9998907
0.99987862
0.99986653
0.99985451
0.99984267
0.99983115
0.99982006
0.99980951
0.99979954
0.99979023
0.99978159
0.99977362
0.99976632
0.99975966
0.99975362
0.99974815
0.99974322
0.99973874
0.99973478
1.0000588
1.000058
1.000057
1.000056
1.0000547
1.0000534
1.0000518
1.0000501
1.0000481
1.0000459
1.0000433
1.0000405
1.0000373
1.0000337
1.0000296
1.0000251
1.00002
1.0000144
1.0000082
1.0000015
0.99999414
0.99998621
0.99997769
0.99996861
0.999959
0.99994891
0.99993841
0.99992752
0.99991633
0.99990494
0.99989341
0.99988176
0.99987002
0.9998583
0.99984674
0.99983547
0.99982462
0.99981428
0.9998045
0.99979534
0.99978683
0.99977898
0.99977179
0.99976524
0.99975933
0.999754
0.99974924
0.99974496
0.99974121
1.0000542
1.0000534
1.0000525
1.0000515
1.0000503
1.000049
1.0000475
1.0000458
1.000044
1.0000418
1.0000394
1.0000367
1.0000337
1.0000303
1.0000264
1.0000221
1.0000173
1.0000119
1.000006
0.99999956
0.99999256
0.99998499
0.99997686
0.99996819
0.99995902
0.99994939
0.99993937
0.99992897
0.99991827
0.99990739
0.99989633
0.99988506
0.99987365
0.99986223
0.99985095
0.99983994
0.99982933
0.99981917
0.99980953
0.99980047
0.99979201
0.99978418
0.99977698
0.99977041
0.99976444
0.99975904
0.99975419
0.99974979
0.99974592
1.0000498
1.000049
1.0000481
1.0000472
1.0000461
1.0000448
1.0000434
1.0000418
1.00004
1.000038
1.0000357
1.0000331
1.0000303
1.000027
1.0000234
1.0000193
1.0000147
1.0000096
1.000004
0.99999785
0.99999118
0.99998397
0.99997623
0.99996797
0.99995924
0.99995008
0.99994054
0.99993062
0.99992043
0.99991005
0.99989943
0.99988854
0.99987745
0.99986634
0.99985537
0.99984465
0.99983426
0.99982426
0.9998147
0.99980565
0.99979717
0.99978927
0.999782
0.99977538
0.99976941
0.99976405
0.99975931
0.99975511
0.99975144
1.0000456
1.0000449
1.0000441
1.0000431
1.0000421
1.0000408
1.0000395
1.0000379
1.0000362
1.0000343
1.0000321
1.0000297
1.0000269
1.0000239
1.0000205
1.0000167
1.0000124
1.0000075
1.0000022
0.99999633
0.99998999
0.99998314
0.99997578
0.99996794
0.99995965
0.99995095
0.9999419
0.99993247
0.9999228
0.99991293
0.99990275
0.99989221
0.99988147
0.99987073
0.99986011
0.99984968
0.9998395
0.9998296
0.99982004
0.99981091
0.99980225
0.99979414
0.99978661
0.99977969
0.99977338
0.99976765
0.99976249
0.99975782
0.9997537
1.0000418
1.0000411
1.0000403
1.0000394
1.0000383
1.0000372
1.0000358
1.0000343
1.0000327
1.0000308
1.0000287
1.0000264
1.0000238
1.0000209
1.0000177
1.0000142
1.0000101
1.0000056
1.0000005
0.99999498
0.99998897
0.99998248
0.99997551
0.99996808
0.99996023
0.999952
0.99994344
0.9999345
0.99992536
0.99991602
0.99990625
0.99989609
0.99988576
0.99987545
0.99986523
0.99985512
0.99984511
0.99983525
0.99982561
0.99981627
0.99980735
0.99979892
0.99979108
0.99978389
0.9997774
0.99977163
0.99976656
0.99976217
0.99975838
1.0000382
1.0000375
1.0000367
1.0000359
1.0000349
1.0000337
1.0000324
1.000031
1.0000294
1.0000276
1.0000255
1.0000233
1.0000208
1.0000181
1.0000151
1.0000118
1.000008
1.0000038
0.99999905
0.9999938
0.99998811
0.99998199
0.99997541
0.9999684
0.999961
0.99995324
0.99994516
0.99993673
0.99992814
0.99991931
0.99990995
0.9999002
0.99989037
0.99988058
0.9998708
0.99986099
0.99985113
0.99984126
0.99983145
0.99982181
0.99981246
0.99980349
0.99979502
0.99978712
0.99977983
0.99977315
0.9997671
0.9997616
0.99975675
1.0000348
1.0000341
1.0000334
1.0000325
1.0000316
1.0000305
1.0000293
1.0000279
1.0000263
1.0000246
1.0000226
1.0000204
1.000018
1.0000154
1.0000126
1.0000095
1.000006
1.0000021
0.99999772
0.99999279
0.99998743
0.99998168
0.9999755
0.99996892
0.99996196
0.99995469
0.99994711
0.9999392
0.99993119
0.99992287
0.99991391
0.99990466
0.99989542
0.99988621
0.99987689
0.99986736
0.99985762
0.99984769
0.99983767
0.99982767
0.99981783
0.99980829
0.99979921
0.99979076
0.99978306
0.99977622
0.99977028
0.99976528
0.99976104
1.0000315
1.0000308
1.0000301
1.0000293
1.0000284
1.0000274
1.0000262
1.0000249
1.0000235
1.0000218
1.0000199
1.0000178
1.0000155
1.000013
1.0000103
1.0000073
1.0000042
1.0000006
0.99999652
0.99999191
0.99998687
0.99998147
0.99997568
0.99996951
0.99996299
0.9999562
0.99994913
0.99994177
0.99993439
0.99992659
0.99991809
0.9999095
0.99990101
0.99989245
0.99988362
0.99987441
0.99986481
0.99985486
0.99984461
0.99983416
0.99982362
0.99981315
0.99980289
0.99979301
0.99978362
0.99977482
0.99976668
0.99975917
0.99975254
1.0000283
1.0000277
1.000027
1.0000262
1.0000253
1.0000243
1.0000232
1.000022
1.0000206
1.0000191
1.0000174
1.0000154
1.0000133
1.0000108
1.0000082
1.0000054
1.0000024
0.9999991
0.99999536
0.99999107
0.99998635
0.99998128
0.99997585
0.99997006
0.99996396
0.99995763
0.99995103
0.9999442
0.99993743
0.99993007
0.99992207
0.99991433
0.99990669
0.99989886
0.9998906
0.99988186
0.99987261
0.99986285
0.99985256
0.99984181
0.99983069
0.99981935
0.99980803
0.99979704
0.9997867
0.99977736
0.99976926
0.99976263
0.9997573
1.000025
1.0000244
1.0000237
1.0000229
1.0000221
1.0000212
1.0000202
1.0000191
1.0000179
1.0000165
1.000015
1.0000132
1.0000112
1.0000089
1.0000063
1.0000036
1.0000007
0.99999771
0.99999435
0.99999045
0.99998609
0.99998143
0.99997645
0.99997116
0.99996557
0.99995973
0.99995361
0.99994731
0.99994109
0.99993397
0.99992654
0.99991971
0.99991277
0.99990555
0.99989778
0.99988956
0.99988071
0.99987126
0.99986103
0.99985005
0.99983829
0.99982582
0.99981271
0.99979915
0.9997853
0.99977159
0.99975819
0.99974554
0.999734
1.0000218
1.0000212
1.0000205
1.0000197
1.0000189
1.0000181
1.0000171
1.0000161
1.000015
1.0000138
1.0000124
1.0000109
1.0000091
1.0000071
1.0000048
1.0000022
0.99999943
0.99999669
0.99999373
0.99999028
0.9999864
0.99998224
0.99997782
0.99997312
0.99996815
0.99996297
0.99995751
0.999952
0.99994651
0.99993997
0.99993341
0.99992777
0.9999215
0.99991499
0.99990778
0.99990022
0.99989184
0.9998828
0.9998726
0.99986139
0.99984878
0.99983497
0.99982002
0.9998044
0.99978901
0.99977475
0.99976196
0.99975227
0.99974376
1.0000186
1.0000178
1.0000168
1.000016
1.0000151
1.0000143
1.0000135
1.0000127
1.0000118
1.0000109
1.0000098
1.0000086
1.0000071
1.0000055
1.0000034
1.000001
0.99999825
0.99999542
0.99999257
0.99998938
0.99998571
0.9999817
0.99997739
0.99997279
0.99996798
0.99996312
0.99995816
0.9999533
0.99994842
0.99994269
0.99993769
0.99993339
0.99992816
0.99992302
0.99991717
0.99991115
0.99990422
0.99989669
0.99988778
0.99987776
0.99986571
0.99985167
0.99983505
0.99981562
0.9997945
0.99976876
0.99974013
0.99970894
0.99967562
1.0000143
1.0000132
1.0000126
1.000012
1.0000115
1.000011
1.0000105
1.00001
1.0000094
1.0000087
1.0000078
1.0000068
1.0000055
1.0000038
1.0000018
0.99999933
0.99999631
0.99999306