/*--------------------------------*- C++ -*----------------------------------*\
| =========                 |                                                 |
| \\      /  F ield         | OpenFOAM: The Open Source CFD Toolbox           |
|  \\    /   O peration     | Version:  v2006                                 |
|   \\  /    A nd           | Website:  www.openfoam.com                      |
|    \\/     M anipulation  |                                                 |
\*---------------------------------------------------------------------------*/
FoamFile
{
    version     2.0;
    format      ascii;
    class       volScalarField;
    location    "3500";
    object      TMean;
}
// * * * * * * * * * * * * * * * * * * * * * * * * * * * * * * * * * * * * * //

dimensions      [0 0 0 1 0 0 0];


internalField   nonuniform List<scalar> 
19765
(
1.0002131
1.0002677
1.00041
1.0005593
1.0006862
1.0008001
1.0009117
1.0010074
1.0010937
1.0011756
1.0012424
1.0012922
1.0013297
1.0013566
1.0013724
1.0013791
1.0013755
1.0013633
1.0013409
1.001309
1.0012694
1.001222
1.0011657
1.0010974
1.0010197
1.0009416
1.0008621
1.0007693
1.0006691
1.0005688
1.0004586
1.0003332
1.0001823
1.0000224
0.99989191
0.99977552
0.99962229
0.99945748
0.99931417
0.9991314
0.99890948
0.99877004
0.99867395
0.99858852
0.99859663
0.99863109
0.99872594
0.99886566
0.99899997
1.0004914
1.0005485
1.0006139
1.0006879
1.0007652
1.0008402
1.0009122
1.0009783
1.0010393
1.0010965
1.0011486
1.0011932
1.0012304
1.0012598
1.0012802
1.0012923
1.0012973
1.0012938
1.0012803
1.0012568
1.0012237
1.0011816
1.0011304
1.0010702
1.0010021
1.0009266
1.0008431
1.0007522
1.0006536
1.0005481
1.0004364
1.0003195
1.0002001
1.0000803
0.99995888
0.99983518
0.99971232
0.99959264
0.99947658
0.99936835
0.99927777
0.99919541
0.99911754
0.99904976
0.99898769
0.99893728
0.99889638
0.99886122
0.99882793
1.0004526
1.0005042
1.0005643
1.0006291
1.0006938
1.0007571
1.0008178
1.0008751
1.0009283
1.0009799
1.0010272
1.0010684
1.001104
1.0011331
1.0011538
1.0011676
1.0011756
1.0011759
1.0011673
1.0011495
1.0011228
1.0010881
1.001044
1.0009908
1.0009305
1.0008633
1.0007877
1.0007043
1.000614
1.0005169
1.0004138
1.0003059
1.0001951
1.0000828
0.99996811
0.99985222
0.99973763
0.99962447
0.99951401
0.99940996
0.99931158
0.9992168
0.99913025
0.99905483
0.99898652
0.99892647
0.99887559
0.99883312
0.99879617
1.000496
1.0005351
1.000575
1.0006166
1.0006589
1.0007009
1.000742
1.0007814
1.0008193
1.0008561
1.0008906
1.0009216
1.000949
1.000972
1.0009889
1.0010006
1.0010079
1.0010092
1.0010029
1.000989
1.0009674
1.0009387
1.0009023
1.0008581
1.0008071
1.0007501
1.0006859
1.000615
1.0005385
1.0004566
1.0003703
1.0002807
1.0001897
1.000098
1.0000049
0.99991124
0.99981974
0.99973041
0.9996434
0.99956173
0.99948517
0.99940959
0.99933673
0.99926752
0.99920087
0.99913766
0.99907462
0.99901214
0.99894934
1.000489
1.0005218
1.0005549
1.0005882
1.0006214
1.000654
1.0006858
1.0007164
1.0007458
1.0007746
1.0008015
1.000826
1.0008478
1.0008661
1.0008798
1.0008894
1.0008953
1.0008961
1.0008904
1.000878
1.0008587
1.000833
1.0008005
1.0007609
1.0007152
1.0006637
1.0006061
1.0005427
1.0004742
1.0004012
1.0003246
1.0002455
1.0001653
1.0000847
1.0000034
0.99992248
0.99984358
0.99976668
0.99969203
0.99962143
0.99955428
0.99948762
0.99942332
0.99936049
0.99929901
0.99923866
0.99917901
0.99912128
0.99906632
1.0004819
1.0005067
1.0005316
1.0005568
1.0005818
1.0006065
1.0006308
1.0006542
1.000677
1.0006995
1.0007206
1.0007397
1.0007569
1.0007712
1.0007818
1.0007889
1.0007929
1.0007924
1.0007865
1.0007746
1.0007566
1.0007328
1.000703
1.0006667
1.0006248
1.0005778
1.0005254
1.0004678
1.0004057
1.0003399
1.0002709
1.0001999
1.0001279
1.0000557
0.9999834
0.99991149
0.99984135
0.99977317
0.99970703
0.9996441
0.99958407
0.99952521
0.99946784
0.99941209
0.99935693
0.99930258
0.9992479
0.99919299
0.99913826
1.000463
1.0004837
1.0005044
1.000525
1.0005452
1.0005649
1.0005843
1.0006029
1.000621
1.0006388
1.0006555
1.0006705
1.0006839
1.000695
1.0007029
1.0007079
1.0007101
1.0007084
1.0007019
1.0006902
1.0006731
1.0006509
1.0006233
1.00059
1.0005515
1.0005084
1.0004603
1.0004077
1.000351
1.000291
1.0002283
1.0001636
1.0000982
1.0000325
0.99996675
0.99990142
0.99983762
0.99977542
0.99971493
0.99965706
0.99960146
0.99954657
0.999493
0.99944021
0.99938782
0.99933552
0.9992827
0.99922935
0.9991758
1.0004447
1.0004612
1.0004777
1.0004942
1.0005103
1.000526
1.0005414
1.0005562
1.0005706
1.0005848
1.000598
1.0006099
1.0006203
1.0006287
1.0006344
1.0006376
1.0006382
1.0006354
1.0006284
1.0006167
1.0006002
1.000579
1.000553
1.0005217
1.0004858
1.0004456
1.000401
1.0003522
1.0002999
1.0002446
1.0001868
1.0001274
1.0000672
1.000007
0.99994667
0.99988685
0.99982838
0.9997714
0.99971599
0.99966283
0.99961172
0.99956154
0.99951247
0.99946435
0.99941655
0.99936901
0.99932101
0.99927249
0.99922346
1.0004241
1.0004378
1.0004514
1.000465
1.0004782
1.000491
1.0005035
1.0005155
1.000527
1.0005384
1.0005489
1.0005582
1.0005662
1.0005724
1.0005763
1.0005779
1.0005772
1.0005734
1.0005658
1.000554
1.0005379
1.0005176
1.0004929
1.0004634
1.0004297
1.0003921
1.0003505
1.0003051
1.0002565
1.0002051
1.0001515
1.0000965
1.0000407
0.99998478
0.99992885
0.99987334
0.99981899
0.99976593
0.99971423
0.99966448
0.9996165
0.99956928
0.99952312
0.99947767
0.99943255
0.99938753
0.99934206
0.99929603
0.99924955
1.0004041
1.0004153
1.0004265
1.0004376
1.0004483
1.0004588
1.0004689
1.0004786
1.0004879
1.0004971
1.0005054
1.0005126
1.0005186
1.0005231
1.0005255
1.0005257
1.0005239
1.0005192
1.0005112
1.0004993
1.0004835
1.0004639
1.0004402
1.0004122
1.0003803
1.0003448
1.0003056
1.000263
1.0002174
1.0001693
1.0001193
1.0000679
1.0000158
0.99996357
0.99991138
0.9998596
0.99980888
0.99975936
0.99971112
0.99966465
0.99961985
0.99957591
0.99953299
0.99949089
0.99944919
0.99940776
0.99936606
0.99932397
0.99928148
1.0003842
1.0003935
1.0004028
1.000412
1.0004209
1.0004294
1.0004378
1.0004456
1.0004531
1.0004604
1.000467
1.0004725
1.000477
1.00048
1.000481
1.0004802
1.0004774
1.000472
1.0004635
1.0004516
1.000436
1.0004169
1.0003941
1.0003674
1.000337
1.0003034
1.0002663
1.0002261
1.0001832
1.000138
1.000091
1.0000428
0.99999385
0.99994481
0.99989578
0.99984713
0.99979943
0.99975281
0.99970735
0.99966349
0.99962116
0.99957964
0.99953912
0.99949937
0.99946008
0.99942106
0.99938188
0.99934239
0.99930264
1.0003652
1.0003728
1.0003805
1.0003882
1.0003955
1.0004025
1.0004093
1.0004157
1.0004217
1.0004275
1.0004326
1.0004367
1.0004399
1.0004416
1.0004416
1.0004399
1.0004363
1.0004303
1.0004214
1.0004094
1.0003941
1.0003754
1.0003534
1.0003277
1.0002987
1.0002667
1.0002315
1.0001933
1.0001528
1.00011
1.0000657
1.0000201
0.99997401
0.99992774
0.99988151
0.99983563
0.99979065
0.99974669
0.99970385
0.9996625
0.99962263
0.99958361
0.99954561
0.99950845
0.99947183
0.99943562
0.99939942
0.99936308
0.99932662
1.0003469
1.0003533
1.0003596
1.000366
1.000372
1.0003778
1.0003833
1.0003885
1.0003933
1.0003979
1.0004018
1.0004047
1.0004067
1.0004075
1.0004066
1.000404
1.0003998
1.0003932
1.0003841
1.000372
1.0003569
1.0003387
1.0003173
1.0002926
1.0002648
1.0002341
1.0002006
1.0001643
1.0001258
1.0000853
1.0000432
1.0000001
0.99995646
0.99991266
0.99986889
0.99982547
0.99978288
0.99974124
0.99970065
0.99966146
0.99962367
0.99958671
0.99955077
0.99951568
0.99948119
0.99944717
0.99941326
0.99937934
0.99934543
1.0003296
1.0003349
1.0003401
1.0003454
1.0003504
1.0003551
1.0003596
1.0003637
1.0003675
1.000371
1.0003738
1.0003758
1.0003769
1.0003768
1.0003751
1.0003719
1.0003671
1.0003601
1.0003507
1.0003386
1.0003237
1.0003059
1.0002851
1.0002612
1.0002345
1.0002051
1.000173
1.0001384
1.0001017
1.0000632
1.0000232
0.99998231
0.99994085
0.99989927
0.99985773
0.99981654
0.99977613
0.99973665
0.99969819
0.99966106
0.99962529
0.99959039
0.99955652
0.99952355
0.99949126
0.99945953
0.99942805
0.9993967
0.9993655
1.0003132
1.0003175
1.0003219
1.0003262
1.0003303
1.0003341
1.0003377
1.000341
1.0003439
1.0003465
1.0003485
1.0003496
1.0003499
1.0003491
1.0003468
1.000343
1.0003377
1.0003304
1.0003208
1.0003087
1.0002939
1.0002765
1.0002563
1.0002332
1.0002074
1.0001792
1.0001484
1.0001153
1.0000803
1.0000436
1.0000055
0.99996653
0.99992709
0.99988753
0.99984802
0.99980886
0.99977046
0.99973293
0.99969639
0.99966112
0.99962716
0.99959407
0.99956202
0.99953088
0.99950047
0.99947068
0.99944124
0.99941203
0.9993831
1.0002977
1.0003012
1.0003048
1.0003084
1.0003116
1.0003147
1.0003176
1.0003201
1.0003222
1.0003241
1.0003254
1.0003258
1.0003254
1.000324
1.0003211
1.0003169
1.0003112
1.0003036
1.0002938
1.0002817
1.0002672
1.0002501
1.0002304
1.000208
1.0001832
1.0001559
1.0001264
1.0000947
1.0000612
1.0000261
0.99998974
0.99995257
0.99991497
0.99987727
0.99983965
0.99980236
0.99976582
0.99973013
0.9996954
0.99966191
0.99962969
0.99959836
0.99956809
0.99953876
0.99951021
0.99948235
0.99945495
0.99942787
0.99940119
1.000283
1.0002859
1.0002888
1.0002917
1.0002943
1.0002968
1.000299
1.0003008
1.0003023
1.0003036
1.0003042
1.000304
1.0003031
1.0003011
1.0002978
1.0002932
1.0002871
1.0002793
1.0002694
1.0002574
1.000243
1.0002262
1.000207
1.0001853
1.0001613
1.000135
1.0001066
1.0000762
1.0000441
1.0000105
0.99997576
0.99994026
0.99990437
0.9998684
0.99983252
0.99979699
0.99976217
0.9997282
0.99969516
0.99966331
0.9996327
0.99960299
0.99957433
0.99954664
0.99951975
0.99949361
0.99946799
0.99944277
0.99941805
1.0002692
1.0002715
1.0002739
1.0002762
1.0002782
1.0002801
1.0002817
1.000283
1.000284
1.0002847
1.0002847
1.0002841
1.0002826
1.0002801
1.0002765
1.0002715
1.0002652
1.0002572
1.0002472
1.0002352
1.000221
1.0002046
1.0001859
1.0001648
1.0001416
1.0001162
1.0000889
1.0000596
1.0000288
0.99999661
0.99996338
0.99992943
0.99989513
0.99986078
0.99982653
0.99979265
0.99975946
0.9997271
0.99969566
0.99966538
0.99963632
0.99960817
0.99958107
0.99955495
0.99952968
0.99950519
0.99948129
0.99945788
0.99943504
1.0002562
1.000258
1.0002598
1.0002616
1.0002632
1.0002646
1.0002657
1.0002666
1.000267
1.0002672
1.0002668
1.0002657
1.0002638
1.0002609
1.0002569
1.0002517
1.0002451
1.000237
1.000227
1.0002151
1.0002011
1.000185
1.0001667
1.0001463
1.0001237
1.0000993
1.0000729
1.0000448
1.0000152
0.99998427
0.99995244
0.99991995
0.99988714
0.99985431
0.9998216
0.99978926
0.99975762
0.99972679
0.99969685
0.99966806
0.99964044
0.99961374
0.99958809
0.99956343
0.99953964
0.99951666
0.99949432
0.99947251
0.99945134
1.0002439
1.0002453
1.0002467
1.000248
1.0002492
1.0002501
1.0002509
1.0002513
1.0002513
1.0002511
1.0002502
1.0002487
1.0002465
1.0002433
1.000239
1.0002335
1.0002268
1.0002185
1.0002085
1.0001967
1.0001829
1.0001671
1.0001493
1.0001294
1.0001076
1.000084
1.0000585
1.0000314
1.000003
0.99997331
0.99994279
0.99991167
0.99988028
0.99984887
0.99981762
0.99978675
0.99975657
0.99972719
0.99969869
0.99967131
0.99964508
0.99961977
0.99959551
0.99957225
0.99954986
0.99952832
0.99950746
0.99948718
0.99946758
1.0002323
1.0002333
1.0002343
1.0002353
1.0002361
1.0002366
1.000237
1.000237
1.0002367
1.0002361
1.0002349
1.000233
1.0002305
1.000227
1.0002225
1.0002168
1.0002099
1.0002016
1.0001916
1.0001799
1.0001663
1.0001509
1.0001335
1.0001141
1.000093
1.0000701
1.0000455
1.0000195
0.99999206
0.99996359
0.99993431
0.99990449
0.99987443
0.99984439
0.99981452
0.99978504
0.99975625
0.99972824
0.99970111
0.99967507
0.99965015
0.99962616
0.9996032
0.99958124
0.99956017
0.99953994
0.99952044
0.99950154
0.99948337
1.0002213
1.000222
1.0002227
1.0002233
1.0002238
1.000224
1.000224
1.0002237
1.0002231
1.0002221
1.0002206
1.0002185
1.0002156
1.0002119
1.0002072
1.0002014
1.0001944
1.000186
1.0001761
1.0001645
1.0001511
1.000136
1.000119
1.0001002
1.0000797
1.0000576
1.0000338
1.0000087
0.99998235
0.99995499
0.99992689
0.99989829
0.9998695
0.99984076
0.9998122
0.99978405
0.99975658
0.99972989
0.99970406
0.9996793
0.99965564
0.9996329
0.99961118
0.99959046
0.99957063
0.99955166
0.99953343
0.99951583
0.99949899
1.0002109
1.0002113
1.0002117
1.0002121
1.0002122
1.0002122
1.0002119
1.0002113
1.0002104
1.0002092
1.0002074
1.000205
1.0002019
1.000198
1.0001931
1.0001871
1.0001801
1.0001717
1.0001618
1.0001503
1.0001372
1.0001224
1.0001058
1.0000876
1.0000677
1.0000462
1.0000233
0.99999907
0.9999737
0.9999474
0.99992041
0.99989299
0.99986541
0.9998379
0.99981059
0.99978371
0.9997575
0.99973206
0.99970748
0.99968393
0.99966146
0.99963991
0.99961937
0.99959981
0.99958114
0.99956333
0.99954628
0.99952987
0.99951424
1.000201
1.0002012
1.0002014
1.0002015
1.0002013
1.000201
1.0002005
1.0001997
1.0001985
1.000197
1.000195
1.0001924
1.0001891
1.000185
1.00018
1.0001739
1.0001668
1.0001584
1.0001486
1.0001373
1.0001244
1.0001099
1.0000938
1.000076
1.0000567
1.0000359
1.0000138
0.99999044
0.99996601
0.99994072
0.9999148
0.9998885
0.99986207
0.99983573
0.99980962
0.99978395
0.99975894
0.9997347
0.9997113
0.99968892
0.99966759
0.99964717
0.99962775
0.99960929
0.99959172
0.99957501
0.99955906
0.99954377
0.99952926
1.0001917
1.0001916
1.0001916
1.0001914
1.0001911
1.0001906
1.0001898
1.0001888
1.0001874
1.0001857
1.0001834
1.0001806
1.0001772
1.0001729
1.0001678
1.0001617
1.0001545
1.0001462
1.0001364
1.0001253
1.0001126
1.0000985
1.0000827
1.0000655
1.0000467
1.0000266
1.0000053
0.99998271
0.99995919
0.99993486
0.99990997
0.99988474
0.99985941
0.9998342
0.99980923
0.99978471
0.99976085
0.99973775
0.99971549
0.99969421
0.99967397
0.99965462
0.99963625
0.99961884
0.9996023
0.99958661
0.99957169
0.99955742
0.99954394
1.0001827
1.0001825
1.0001823
1.0001819
1.0001814
1.0001807
1.0001797
1.0001785
1.0001769
1.000175
1.0001726
1.0001696
1.000166
1.0001617
1.0001565
1.0001503
1.0001432
1.0001348
1.0001252
1.0001142
1.0001018
1.000088
1.0000726
1.0000558
1.0000377
1.0000182
0.99999757
0.99997582
0.99995315
0.99992976
0.99990585
0.99988164
0.99985737
0.99983322
0.99980935
0.99978593
0.99976317
0.99974116
0.99971998
0.99969976
0.99968055
0.99966222
0.99964486
0.99962843
0.99961287
0.99959814
0.99958418
0.99957087
0.99955835
1.0001743
1.0001739
1.0001735
1.0001729
1.0001722
1.0001713
1.0001702
1.0001688
1.0001671
1.000165
1.0001625
1.0001594
1.0001556
1.0001512
1.0001459
1.0001397
1.0001326
1.0001243
1.0001148
1.000104
1.0000918
1.0000783
1.0000634
1.0000471
1.0000294
1.0000106
0.99999066
0.99996967
0.99994784
0.99992534
0.99990237
0.99987914
0.99985587
0.99983276
0.99980993
0.99978756
0.99976585
0.99974488
0.99972473
0.99970552
0.99968729
0.99966994
0.99965352
0.99963802
0.99962337
0.99960955
0.99959648
0.99958405
0.99957241
1.0001661
1.0001656
1.0001651
1.0001644
1.0001635
1.0001625
1.0001612
1.0001597
1.0001578
1.0001556
1.0001529
1.0001497
1.0001459
1.0001414
1.000136
1.0001299
1.0001227
1.0001145
1.0001052
1.0000946
1.0000827
1.0000694
1.0000549
1.000039
1.000022
1.0000037
0.99998446
0.99996422
0.99994319
0.99992153
0.99989946
0.99987717
0.99985487
0.99983274
0.99981091
0.99978955
0.99976884
0.99974887
0.9997297
0.99971145
0.99969416
0.99967772
0.9996622
0.99964758
0.9996338
0.99962082
0.99960859
0.99959699
0.99958617
1.0001584
1.0001578
1.000157
1.0001563
1.0001553
1.0001541
1.0001527
1.000151
1.000149
1.0001467
1.0001439
1.0001406
1.0001367
1.0001322
1.0001268
1.0001206
1.0001136
1.0001055
1.0000962
1.0000858
1.0000742
1.0000613
1.0000471
1.0000317
1.0000152
0.99999755
0.99997891
0.99995938
0.99993912
0.99991829
0.99989709
0.9998757
0.99985432
0.99983313
0.99981225
0.99979185
0.9997721
0.99975307
0.99973484
0.9997175
0.9997011
0.99968554
0.99967087
0.99965708
0.99964411
0.99963192
0.99962047
0.99960964
0.99959958
1.0001509
1.0001502
1.0001494
1.0001485
1.0001474
1.0001461
1.0001446
1.0001428
1.0001407
1.0001383
1.0001354
1.0001321
1.0001281
1.0001235
1.0001182
1.000112
1.000105
1.000097
1.0000879
1.0000777
1.0000664
1.0000538
1.00004
1.0000251
1.000009
0.99999196
0.99997396
0.99995512
0.99993561
0.99991557
0.99989519
0.99987466
0.99985417
0.99983387
0.99981391
0.99979443
0.99977558
0.99975746
0.99974012
0.99972365
0.99970809
0.99969336
0.9996795
0.99966649
0.99965429
0.99964285
0.99963213
0.99962202
0.99961265
1.0001438
1.000143
1.000142
1.000141
1.0001399
1.0001385
1.0001369
1.000135
1.0001329
1.0001304
1.0001274
1.000124
1.00012
1.0001154
1.0001101
1.000104
1.000097
1.0000891
1.0000802
1.0000702
1.0000591
1.0000469
1.0000335
1.000019
1.0000034
0.99998694
0.99996955
0.99995139
0.99993259
0.99991331
0.99989373
0.99987402
0.99985437
0.99983494
0.99981585
0.99979724
0.99977926
0.999762
0.9997455
0.99972986
0.9997151
0.99970115
0.99968806
0.99967579
0.9996643
0.99965356
0.99964352
0.99963408
0.99962536
1.0001368
1.000136
1.000135
1.0001339
1.0001327
1.0001312
1.0001295
1.0001276
1.0001254
1.0001228
1.0001198
1.0001164
1.0001124
1.0001078
1.0001025
1.0000964
1.0000896
1.0000818
1.0000731
1.0000633
1.0000525
1.0000405
1.0000275
1.0000135
0.9999984
0.99998245
0.99996565
0.99994814
0.99993003
0.99991148
0.99989266
0.99987375
0.9998549
0.99983629
0.99981803
0.99980025
0.9997831
0.99976665
0.99975095
0.99973609
0.9997221
0.99970889
0.99969651
0.99968494
0.99967413
0.99966405
0.99965464
0.99964582
0.99963771
1.0001302
1.0001293
1.0001282
1.0001271
1.0001258
1.0001243
1.0001225
1.0001205
1.0001183
1.0001157
1.0001126
1.0001092
1.0001052
1.0001006
1.0000953
1.0000894
1.0000826
1.000075
1.0000664
1.0000569
1.0000463
1.0000347
1.0000221
1.0000084
0.99999385
0.99997843
0.99996222
0.99994533
0.99992789
0.99991004
0.99989196
0.99987379
0.99985572
0.99983789
0.99982042
0.99980343
0.99978707
0.99977139
0.99975645
0.99974234
0.99972905
0.99971655
0.99970485
0.99969394
0.99968376
0.99967428
0.99966548
0.99965723
0.99964968
1.0001237
1.0001228
1.0001217
1.0001205
1.0001191
1.0001176
1.0001158
1.0001138
1.0001115
1.0001088
1.0001058
1.0001023
1.0000984
1.0000938
1.0000886
1.0000827
1.0000761
1.0000686
1.0000602
1.0000509
1.0000406
1.0000293
1.0000171
1.0000039
0.99998977
0.99997486
0.99995921
0.99994293
0.99992614
0.99990897
0.99989158
0.99987414
0.99985681
0.99983972
0.999823
0.99980676
0.99979114
0.99977619
0.99976198
0.99974856
0.99973595
0.9997241
0.99971304
0.99970274
0.99969316
0.99968426
0.999676
0.9996683
0.99966126
1.0001175
1.0001165
1.0001154
1.0001142
1.0001128
1.0001112
1.0001094
1.0001073
1.000105
1.0001024
1.0000993
1.0000959
1.0000919
1.0000874
1.0000823
1.0000765
1.00007
1.0000627
1.0000545
1.0000454
1.0000354
1.0000244
1.0000125
0.99999974
0.9999861
0.9999717
0.99995661
0.99994091
0.99992474
0.99990822
0.99989151
0.99987475
0.99985812
0.99984175
0.99982573
0.99981021
0.99979529
0.99978104
0.9997675
0.99975473
0.99974276
0.99973153
0.99972107
0.99971134
0.99970231
0.99969394
0.9996862
0.99967899
0.99967242
1.0001114
1.0001104
1.0001093
1.000108
1.0001066
1.000105
1.0001032
1.0001012
1.0000988
1.0000962
1.0000932
1.0000897
1.0000858
1.0000814
1.0000763
1.0000706
1.0000643
1.0000571
1.0000491
1.0000403
1.0000306
1.0000199
1.0000084
0.99999602
0.99998284
0.99996893
0.99995437
0.99993924
0.99992367
0.99990777
0.99989171
0.99987562
0.99985965
0.99984395
0.99982862
0.99981376
0.9997995
0.9997859
0.99977299
0.99976084
0.99974946
0.99973881
0.9997289
0.9997197
0.99971119
0.99970331
0.99969605
0.9996893
0.99968317
1.0001055
1.0001045
1.0001034
1.0001021
1.0001007
1.0000991
1.0000973
1.0000952
1.0000929
1.0000903
1.0000873
1.0000839
1.00008
1.0000757
1.0000707
1.0000651
1.0000589
1.0000519
1.0000441
1.0000356
1.0000261
1.0000158
1.0000047
0.99999267
0.99997994
0.99996652
0.99995247
0.9999379
0.99992291
0.99990761
0.99989216
0.9998767
0.99986138
0.99984632
0.99983162
0.9998174
0.99980376
0.99979076
0.99977844
0.99976686
0.99975603
0.9997459
0.9997365
0.9997278
0.99971976
0.99971234
0.99970551
0.99969918
0.99969345
1.0000998
1.0000988
1.0000976
1.0000964
1.000095
1.0000934
1.0000916
1.0000895
1.0000872
1.0000846
1.0000817
1.0000783
1.0000745
1.0000703
1.0000654
1.00006
1.0000539
1.0000471
1.0000395
1.0000312
1.000022
1.000012
1.0000013
0.99998968
0.99997738
0.99996444
0.9999509
0.99993687
0.99992243
0.99990772
0.99989286
0.999878
0.99986329
0.99984883
0.99983473
0.9998211
0.99980804
0.9997956
0.99978382
0.99977276
0.99976243
0.9997528
0.99974387
0.99973561
0.999728
0.999721
0.99971458
0.99970864
0.99970328
1.0000942
1.0000932
1.0000921
1.0000909
1.0000895
1.0000879
1.0000861
1.0000841
1.0000818
1.0000793
1.0000764
1.0000731
1.0000693
1.0000651
1.0000604
1.0000551
1.0000492
1.0000426
1.0000352
1.0000271
1.0000183
1.0000086
0.99999819
0.99998701
0.99997515
0.99996267
0.99994963
0.99993612
0.99992222
0.99990807
0.99989378
0.9998795
0.99986536
0.99985148
0.99983794
0.99982486
0.99981232
0.99980039
0.99978911
0.99977852
0.99976865
0.99975946
0.99975095
0.9997431
0.99973589
0.99972926
0.99972319
0.9997176
0.99971256
1.0000888
1.0000878
1.0000867
1.0000855
1.0000841
1.0000826
1.0000808
1.0000788
1.0000766
1.0000741
1.0000713
1.000068
1.0000644
1.0000603
1.0000557
1.0000505
1.0000448
1.0000383
1.0000312
1.0000234
1.0000148
1.0000055
0.99999543
0.99998465
0.99997322
0.9999612
0.99994865
0.99993564
0.99992227
0.99990865
0.99989491
0.99988118
0.99986759
0.99985425
0.99984123
0.99982865
0.9998166
0.99980513
0.99979429
0.99978413
0.99977466
0.99976586
0.99975773
0.99975026
0.9997434
0.99973711
0.99973138
0.99972611
0.99972139
1.0000835
1.0000826
1.0000815
1.0000803
1.0000789
1.0000774
1.0000757
1.0000738
1.0000716
1.0000692
1.0000664
1.0000632
1.0000597
1.0000557
1.0000512
1.0000462
1.0000406
1.0000344
1.0000275
1.00002
1.0000117
1.0000027
0.99999297
0.99998258
0.99997157
0.99996
0.99994793
0.99993542
0.99992256
0.99990946
0.99989625
0.99988305
0.99986998
0.99985713
0.9998446
0.99983247
0.99982084
0.99980978
0.99979933
0.99978955
0.99978044
0.99977199
0.9997642
0.99975705
0.9997505
0.99974451
0.99973906
0.99973406
0.99972959
1.0000783
1.0000774
1.0000764
1.0000752
1.0000739
1.0000724
1.0000708
1.0000689
1.0000668
1.0000644
1.0000617
1.0000587
1.0000552
1.0000514
1.000047
1.0000422
1.0000367
1.0000307
1.0000241
1.0000168
1.0000088
1.0000001
0.99999078
0.99998079
0.9999702
0.99995907
0.99994747
0.99993544
0.99992307
0.99991048
0.99989779
0.99988509
0.99987251
0.99986012
0.99984802
0.9998363
0.99982505
0.99981434
0.99980424
0.99979478
0.99978599
0.99977785
0.99977036
0.99976349
0.99975723
0.99975152
0.99974634
0.99974161
0.9997374
1.0000733
1.0000724
1.0000714
1.0000703
1.000069
1.0000676
1.000066
1.0000642
1.0000622
1.0000598
1.0000572
1.0000543
1.000051
1.0000472
1.000043
1.0000383
1.0000331
1.0000273
1.0000209
1.0000139
1.0000062
0.99999785
0.99998886
0.99997925
0.99996907
0.99995839
0.99994725
0.99993569
0.99992381
0.99991172
0.99989952
0.99988731
0.99987518
0.99986322
0.9998515
0.99984013
0.99982921
0.99981882
0.99980901
0.99979984
0.99979132
0.99978343
0.9997762
0.99976957
0.99976354
0.99975805
0.99975307
0.99974854
0.9997445
1.0000684
1.0000675
1.0000666
1.0000655
1.0000643
1.0000629
1.0000614
1.0000596
1.0000577
1.0000555
1.000053
1.0000501
1.0000469
1.0000433
1.0000393
1.0000348
1.0000297
1.0000241
1.000018
1.0000112
1.0000038
0.99999581
0.99998718
0.99997796
0.99996819
0.99995794
0.99994726
0.99993617
0.99992477
0.99991316
0.99990145
0.9998897
0.99987799
0.9998664
0.99985503
0.99984397
0.99983334
0.99982322
0.99981367
0.99980474
0.99979645
0.99978879
0.99978177
0.99977536
0.99976954
0.99976427
0.99975951
0.9997552
0.99975138
1.0000636
1.0000628
1.0000619
1.0000608
1.0000597
1.0000584
1.0000569
1.0000552
1.0000533
1.0000512
1.0000488
1.0000461
1.000043
1.0000396
1.0000357
1.0000314
1.0000265
1.0000212
1.0000153
1.0000088
1.0000017
0.999994
0.99998573
0.9999769
0.99996754
0.99995773
0.99994749
0.99993687
0.99992594
0.99991481
0.99990357
0.99989226
0.99988094
0.99986969
0.99985862
0.99984784
0.99983747
0.99982759
0.99981826
0.99980953
0.99980142
0.99979393
0.99978707
0.9997808
0.99977511
0.99976995
0.9997653
0.99976107
0.99975733
1.0000589
1.0000582
1.0000573
1.0000563
1.0000552
1.000054
1.0000526
1.000051
1.0000492
1.0000471
1.0000448
1.0000423
1.0000393
1.0000361
1.0000323
1.0000282
1.0000236
1.0000184
1.0000128
1.0000065
0.99999976
0.99999241
0.9999845
0.99997605
0.99996711
0.99995772
0.99994794
0.99993778
0.99992732
0.99991667
0.99990588
0.99989499
0.99988402
0.99987309
0.9998623
0.99985178
0.99984165
0.99983198
0.99982283
0.99981426
0.99980629
0.99979892
0.99979217
0.99978602
0.99978046
0.99977544
0.99977096
0.99976692
0.99976337
1.0000545
1.0000537
1.0000529
1.000052
1.0000509
1.0000497
1.0000484
1.0000468
1.0000451
1.0000432
1.000041
1.0000386
1.0000358
1.0000327
1.0000291
1.0000252
1.0000208
1.0000159
1.0000105
1.0000045
0.99999804
0.99999103
0.99998348
0.99997542
0.99996688
0.99995793
0.9999486
0.99993889
0.9999289
0.99991873
0.9999084
0.99989788
0.99988725
0.99987661
0.9998661
0.99985585
0.99984594
0.99983645
0.99982744
0.99981897
0.99981106
0.99980372
0.99979699
0.99979083
0.99978524
0.99978018
0.99977563
0.99977151
0.99976788
1.0000502
1.0000495
1.0000487
1.0000478
1.0000468
1.0000457
1.0000444
1.0000429
1.0000413
1.0000394
1.0000373
1.000035
1.0000324
1.0000294
1.0000261
1.0000224
1.0000182
1.0000135
1.0000084
1.0000027
0.99999652
0.99998984
0.99998266
0.99997498
0.99996685
0.99995833
0.99994945
0.9999402
0.99993069
0.99992101
0.9999111
0.99990095
0.99989064
0.99988031
0.9998701
0.9998601
0.99985041
0.99984108
0.99983215
0.99982371
0.99981578
0.99980841
0.99980163
0.99979545
0.99978987
0.99978487
0.99978043
0.99977649
0.99977305
1.0000462
1.0000455
1.0000447
1.0000439
1.0000429
1.0000418
1.0000406
1.0000392
1.0000376
1.0000358
1.0000338
1.0000316
1.0000291
1.0000263
1.0000232
1.0000197
1.0000157
1.0000113
1.0000064
1.000001
0.99999518
0.99998884
0.99998201
0.99997472
0.99996701
0.99995892
0.9999505
0.9999417
0.99993269
0.99992349
0.999914
0.9999042
0.99989423
0.99988424
0.99987436
0.99986464
0.99985514
0.99984591
0.99983701
0.9998285
0.99982045
0.9998129
0.99980591
0.99979949
0.99979363
0.99978832
0.99978353
0.9997792
0.99977538
1.0000424
1.0000417
1.000041
1.0000402
1.0000392
1.0000382
1.000037
1.0000356
1.0000341
1.0000324
1.0000305
1.0000283
1.000026
1.0000233
1.0000204
1.0000171
1.0000134
1.0000093
1.0000047
0.99999956
0.99999401
0.999988
0.99998154
0.99997464
0.99996733
0.99995968
0.99995171
0.99994339
0.99993488
0.99992617
0.99991708
0.99990764
0.99989806
0.99988847
0.99987896
0.99986953
0.9998602
0.99985103
0.99984206
0.9998334
0.99982513
0.99981733
0.99981008
0.99980344
0.99979744
0.9997921
0.99978741
0.99978334
0.99977982
1.0000388
1.0000382
1.0000375
1.0000367
1.0000358
1.0000348
1.0000336
1.0000323
1.0000308
1.0000292
1.0000273
1.0000253
1.000023
1.0000205
1.0000177
1.0000147
1.0000113
1.0000074
1.000003
0.99999824
0.999993
0.99998733
0.99998123
0.99997472
0.99996784
0.99996063
0.99995311
0.99994526
0.99993727
0.99992903
0.99992033
0.99991129
0.99990217
0.99989306
0.99988394
0.9998748
0.99986563
0.99985647
0.99984739
0.99983849
0.99982987
0.99982162
0.99981383
0.99980657
0.99979987
0.99979374
0.99978819
0.99978315
0.9997787
1.0000353
1.0000348
1.0000341
1.0000333
1.0000325
1.0000315
1.0000304
1.0000292
1.0000278
1.0000262
1.0000244
1.0000224
1.0000203
1.0000179
1.0000152
1.0000124
1.0000092
1.0000056
1.0000016
0.99999707
0.99999215
0.99998683
0.9999811
0.99997499
0.99996852
0.99996176
0.99995472
0.99994736
0.99993991
0.99993214
0.99992381
0.99991525
0.99990668
0.99989809
0.9998894
0.99988054
0.99987151
0.99986234
0.99985311
0.99984391
0.99983488
0.99982613
0.99981781
0.99981007
0.99980302
0.99979675
0.9997913
0.9997867
0.9997828
1.000032
1.0000315
1.0000308
1.0000301
1.0000293
1.0000283
1.0000273
1.0000261
1.0000248
1.0000233
1.0000217
1.0000198
1.0000177
1.0000154
1.0000129
1.0000102
1.0000073
1.000004
1.0000002
0.99999604
0.99999142
0.99998643
0.99998107
0.99997534
0.99996928
0.99996297
0.99995641
0.99994957
0.99994269
0.99993539
0.9999275
0.99991956
0.99991166
0.99990367
0.99989544
0.9998869
0.99987805
0.99986889
0.99985949
0.99984991
0.99984028
0.99983071
0.99982136
0.99981235
0.9998038
0.99979578
0.99978838
0.99978156
0.99977554
1.0000288
1.0000283
1.0000276
1.0000269
1.0000261
1.0000252
1.0000242
1.0000231
1.0000219
1.0000206
1.000019
1.0000173
1.0000154
1.0000132
1.0000108
1.0000082
1.0000054
1.0000024
0.99999899
0.99999508
0.99999075
0.99998608
0.99998106
0.99997569
0.99997003
0.99996414
0.99995802
0.99995168
0.99994535
0.99993845
0.99993107
0.9999239
0.99991674
0.99990942
0.99990174
0.99989367
0.99988516
0.99987621
0.9998668
0.99985698
0.99984683
0.9998365
0.99982619
0.9998162
0.99980679
0.99979829
0.99979091
0.99978487
0.99977999
1.0000256
1.000025
1.0000244
1.0000236
1.0000229
1.000022
1.0000211
1.0000202
1.0000191
1.0000179
1.0000165
1.000015
1.0000132
1.0000112
1.0000089
1.0000064
1.0000037
1.0000009
0.99999786
0.99999429
0.99999031
0.99998602
0.9999814
0.99997649
0.9999713
0.99996588
0.99996021
0.99995437
0.99994853
0.9999419
0.99993509
0.99992873
0.9999222
0.99991546
0.99990828
0.99990072
0.99989261
0.99988395
0.99987461
0.9998646
0.99985389
0.99984255
0.99983064
0.99981832
0.99980577
0.99979335
0.99978121
0.9997698
0.99975941
1.0000225
1.0000219
1.0000212
1.0000205
1.0000197
1.000019
1.0000181
1.0000172
1.0000162
1.0000151
1.0000139
1.0000125
1.000011
1.0000092
1.0000071
1.0000048
1.0000023
0.99999973
0.99999698
0.99999382
0.99999027
0.99998643
0.99998233
0.99997796
0.99997334
0.99996852
0.99996347
0.99995834
0.99995315
0.99994709
0.99994112
0.99993579
0.99992989
0.99992387
0.99991725
0.99991032
0.99990266
0.99989441
0.99988512
0.99987494
0.99986349
0.99985098
0.99983744
0.99982332
0.9998094
0.9997965
0.99978491
0.99977614
0.99976821
1.0000192
1.0000183
1.0000175
1.0000167
1.0000159
1.0000151
1.0000144
1.0000137
1.000013
1.0000121
1.0000112
1.0000101
1.0000088
1.0000073
1.0000056
1.0000035
1.000001
0.99999845
0.99999581
0.99999289
0.99998955
0.99998588
0.99998191
0.99997766
0.99997321
0.99996869
0.99996407
0.99995952
0.99995487
0.99994959
0.99994488
0.9999407
0.99993584
0.99993108
0.99992568
0.99992014
0.99991378
0.99990689
0.99989877
0.99988964
0.99987869
0.99986594
0.9998509
0.99983332
0.99981423
0.99979096
0.99976512
0.99973707
0.99970696
1.0000147
1.0000137
1.0000131
1.0000125
1.0000122
1.0000118
1.0000114
1.000011
1.0000106
1.00001
1.0000094
1.0000086
1.0000075
1.0000061
1.0000044
1.0000023
0.99999967
0.99999679
0.999994
0.99999105
0.99998764
0.9999838
0.9999796