/*--------------------------------*- C++ -*----------------------------------*\
| =========                 |                                                 |
| \\      /  F ield         | OpenFOAM: The Open Source CFD Toolbox           |
|  \\    /   O peration     | Version:  v2006                                 |
|   \\  /    A nd           | Website:  www.openfoam.com                      |
|    \\/     M anipulation  |                                                 |
\*---------------------------------------------------------------------------*/
FoamFile
{
    version     2.0;
    format      ascii;
    class       volVectorField;
    location    "3500";
    object      U;
}
// * * * * * * * * * * * * * * * * * * * * * * * * * * * * * * * * * * * * * //

dimensions      [0 1 -1 0 0 0 0];


internalField   nonuniform List<vector> 
19765
(
(0.087539347 0.028531842 -9.1869951e-20)
(0.084736417 0.031448165 9.2435132e-20)
(0.077878417 0.033228308 -9.4814138e-20)
(0.070137893 0.033425803 0)
(0.063490225 0.032604811 0)
(0.05745477 0.030939798 2.3317443e-19)
(0.051258929 0.028482255 -1.8624219e-19)
(0.045678825 0.025703862 0)
(0.040245574 0.022368549 4.7109475e-19)
(0.034393431 0.018287373 4.0116643e-20)
(0.02958998 0.014015011 -8.0801264e-19)
(0.025812064 0.0094866204 8.0468246e-19)
(0.0224502 0.0047509016 -9.0767222e-19)
(0.019623449 -0.00012815573 -1.0500853e-18)
(0.01757532 -0.005137572 1.236764e-18)
(0.015983098 -0.010406032 0)
(0.014638619 -0.015510502 -2.2810884e-20)
(0.013713444 -0.020618162 1.8003614e-20)
(0.013204776 -0.025859371 -9.4165638e-19)
(0.013109666 -0.031196835 7.8999078e-19)
(0.013425073 -0.036678172 -3.3937044e-19)
(0.014113573 -0.042033199 5.8776351e-19)
(0.015192654 -0.047242398 -2.6604694e-19)
(0.016737784 -0.052695522 1.1220817e-20)
(0.018712694 -0.058133781 -5.4807724e-20)
(0.020873944 -0.062775648 4.3184707e-20)
(0.023224616 -0.06691979 -1.9067987e-19)
(0.026025414 -0.071422139 1.8127343e-19)
(0.029108566 -0.075771487 0)
(0.032301841 -0.079591737 3.3406368e-19)
(0.035868826 -0.083481709 -3.1848021e-19)
(0.040013013 -0.087521301 6.1080373e-19)
(0.045353604 -0.091785125 -5.8929146e-19)
(0.051194791 -0.095534043 2.840261e-19)
(0.056109606 -0.097828706 -2.7984671e-19)
(0.060732329 -0.099598273 -2.6544366e-19)
(0.066851663 -0.1018167 1.8809452e-22)
(0.073428231 -0.1035866 5.1599857e-19)
(0.079459793 -0.10440697 -2.7219131e-19)
(0.087163694 -0.10529277 -2.4701216e-19)
(0.096114543 -0.10571293 2.4168537e-19)
(0.10220544 -0.10420915 -1.5063251e-20)
(0.10759724 -0.10182477 -2.9707639e-20)
(0.11284089 -0.098699041 1.1930517e-19)
(0.115946 -0.094646701 -2.702013e-19)
(0.11837917 -0.089830372 1.2080419e-19)
(0.11837574 -0.084414136 0)
(0.11720584 -0.078949453 -1.2703065e-19)
(0.11587978 -0.074036369 0)
(0.079017858 0.016513237 1.4979586e-19)
(0.075989095 0.019130456 1.442364e-19)
(0.072439959 0.021232071 -6.8546247e-20)
(0.068604632 0.022026182 6.8053629e-20)
(0.064721574 0.021914978 -3.3622874e-19)
(0.061021627 0.021100075 2.6653692e-19)
(0.057438355 0.019767326 -3.2589053e-20)
(0.054141187 0.018045737 2.5855443e-19)
(0.05100281 0.015939396 3.1549059e-20)
(0.047857604 0.013599315 -2.9578704e-19)
(0.044939483 0.010897283 1.5761027e-20)
(0.04243162 0.0077745187 4.7831827e-19)
(0.040206396 0.0042899625 -7.7343646e-19)
(0.038296666 0.00056975977 2.3079713e-19)
(0.036873887 -0.0033441427 -2.7049466e-19)
(0.035742251 -0.0074460646 3.1202042e-19)
(0.034736473 -0.011705816 -1.8087665e-20)
(0.034074305 -0.016079754 0)
(0.03385751 -0.020544016 1.9592033e-20)
(0.034048287 -0.025062491 -2.977984e-19)
(0.034604812 -0.029584131 2.5986247e-19)
(0.035426053 -0.034140011 2.0250988e-20)
(0.036585145 -0.038670828 7.5927841e-21)
(0.038161006 -0.043087365 -1.0698721e-20)
(0.040000732 -0.047407874 -2.7004593e-20)
(0.041946902 -0.051726819 2.257166e-20)
(0.04410958 -0.055964048 9.2356074e-20)
(0.046595744 -0.060009771 -2.9494958e-19)
(0.049333931 -0.063922782 3.6457384e-19)
(0.052304802 -0.067681568 -1.7599146e-19)
(0.055566745 -0.071188302 1.0610558e-20)
(0.059188591 -0.074350582 0)
(0.063153529 -0.077035563 1.6904565e-19)
(0.067270079 -0.079320312 -7.1513906e-23)
(0.07142876 -0.081354448 -1.5655514e-19)
(0.075725027 -0.083098937 -1.7331438e-19)
(0.080221802 -0.084368501 6.998774e-23)
(0.084822281 -0.08513043 -1.3332753e-19)
(0.089481196 -0.08538346 1.4229909e-19)
(0.094210104 -0.084952594 1.5079737e-19)
(0.098860931 -0.083684672 1.7326874e-19)
(0.10339764 -0.081630573 -3.1913134e-19)
(0.10783379 -0.079196011 1.8232148e-19)
(0.11211533 -0.076104201 -2.1156207e-20)
(0.11603624 -0.072997547 -8.7077599e-20)
(0.11954631 -0.069766078 1.8012312e-19)
(0.12258199 -0.066628067 -1.3989472e-19)
(0.12513519 -0.063939095 -4.8120548e-20)
(0.12734011 -0.061395824 9.9109947e-20)
(0.082799472 0.015738188 8.1492448e-20)
(0.080509619 0.015872739 4.286777e-24)
(0.0778492 0.015840337 1.5884211e-19)
(0.074960438 0.01568755 -2.0002547e-24)
(0.072091288 0.015151534 -2.4949672e-19)
(0.069265263 0.014324176 3.4317362e-19)
(0.066531372 0.013188471 -8.7270846e-20)
(0.063912391 0.011865144 0)
(0.061445835 0.010244539 0)
(0.058968844 0.0084565069 4.7925944e-20)
(0.056665081 0.0063888194 0)
(0.054609584 0.0039848292 5.3238759e-20)
(0.052750695 0.0012886522 5.0764685e-19)
(0.051143809 -0.0016273876 6.0664847e-19)
(0.04989377 -0.0047497969 -1.0536283e-18)
(0.048879312 -0.0080668974 -3.074873e-23)
(0.048015372 -0.011545505 4.039695e-20)
(0.047425892 -0.015165008 -7.4348157e-19)
(0.047167016 -0.018920654 8.2812326e-19)
(0.047254569 -0.02275816 0)
(0.047670133 -0.026625649 5.0784037e-20)
(0.048314107 -0.03057865 -1.4827418e-23)
(0.049312341 -0.034525489 -1.7777093e-20)
(0.050678553 -0.03839862 -3.0825995e-20)
(0.05226535 -0.042193071 1.0878087e-19)
(0.053979727 -0.04598237 -1.2396336e-20)
(0.055982917 -0.049693137 -1.6888807e-19)
(0.058310927 -0.053237838 5.177146e-19)
(0.060843741 -0.056673031 -3.0964228e-19)
(0.06361776 -0.059952051 3.6306417e-20)
(0.066646934 -0.062991563 2.5682032e-19)
(0.069905158 -0.065739834 -5.5295168e-19)
(0.073381533 -0.068101631 -2.6393693e-19)
(0.076908398 -0.070223313 4.8309746e-19)
(0.080485588 -0.072174426 4.6949136e-19)
(0.084182399 -0.07380898 -4.2493697e-19)
(0.087990078 -0.074999442 0)
(0.091789959 -0.075909416 1.8870413e-19)
(0.095618862 -0.076458212 -2.1038965e-19)
(0.099426392 -0.076521451 2.3084147e-19)
(0.10310355 -0.076299357 -2.3028166e-19)
(0.10661297 -0.076005336 0)
(0.11002253 -0.075318625 0)
(0.11314154 -0.074360777 2.5662749e-20)
(0.11605313 -0.073205919 0)
(0.11862684 -0.07202149 -5.1108089e-20)
(0.12095123 -0.070727828 2.019038e-19)
(0.12307292 -0.069348805 -9.9881068e-20)
(0.12503 -0.067827311 0)
(0.081853116 0.011117618 -8.575745e-20)
(0.08019584 0.011229445 -2.5473736e-19)
(0.078481854 0.011163278 8.2688251e-20)
(0.076678844 0.0109747 -4.2306868e-19)
(0.074855331 0.010498675 3.4518616e-19)
(0.073039059 0.0098023394 3.5589239e-19)
(0.07125012 0.00886184 -2.7112259e-19)
(0.069523706 0.0077811188 3.7574501e-19)
(0.067842418 0.0064450204 4.89376e-23)
(0.066161891 0.0050037949 -8.9105071e-19)
(0.064570802 0.0033587714 5.181967e-19)
(0.063119206 0.0014481955 0)
(0.06178396 -0.0006986707 -5.7231959e-20)
(0.060619884 -0.0030126619 -1.0362788e-18)
(0.059698715 -0.0055248692 1.178614e-18)
(0.058947573 -0.0082339551 1.0641789e-18)
(0.058319287 -0.011071172 -2.5056469e-18)
(0.057907097 -0.014032288 1.4181703e-18)
(0.057770252 -0.017148531 -8.2762357e-19)
(0.057921021 -0.020340316 1.0106068e-18)
(0.058356714 -0.023550948 0)
(0.059002318 -0.026865997 -5.7349212e-19)
(0.059924061 -0.030173516 6.6931329e-19)
(0.061129184 -0.033433788 -3.6753527e-19)
(0.062540469 -0.036640362 6.1754083e-20)
(0.064106711 -0.039845184 -7.3345881e-24)
(0.06592127 -0.042971889 -1.9481109e-19)
(0.067996017 -0.045941607 5.3423076e-19)
(0.070250959 -0.048792625 -3.3201821e-19)
(0.072702657 -0.051481247 -3.5051164e-19)
(0.075342758 -0.053939077 2.9476743e-19)
(0.078136516 -0.056135146 6.6724802e-19)
(0.081053846 -0.058006842 -1.7936836e-22)
(0.083995434 -0.059662494 -5.9290435e-19)
(0.08698175 -0.061150408 4.5108771e-19)
(0.090038111 -0.062372685 -5.0118436e-19)
(0.09311307 -0.063243176 4.8813996e-19)
(0.096138435 -0.063880251 -9.6585486e-19)
(0.099150842 -0.064244822 5.0302163e-19)
(0.10208461 -0.064265051 2.0279221e-19)
(0.10488268 -0.064056167 -2.3161103e-19)
(0.10762711 -0.06374994 -5.8238022e-20)
(0.11036946 -0.063168181 2.2833766e-19)
(0.11297322 -0.062467229 -2.3170806e-19)
(0.11555067 -0.061542012 0)
(0.11802878 -0.060455237 1.1518731e-19)
(0.1204936 -0.059256889 -5.6956215e-20)
(0.12290357 -0.058001002 0)
(0.12526747 -0.05674052 0)
(0.082814809 0.0089444373 -8.0082906e-20)
(0.08148798 0.0085663533 -2.3734909e-19)
(0.080124405 0.0081445797 3.0788995e-19)
(0.078728945 0.0077294568 7.8367857e-20)
(0.077342652 0.0071624366 2.3863758e-19)
(0.075972435 0.0064792017 -2.4441183e-19)
(0.074626962 0.0056411889 2.4698885e-19)
(0.073327423 0.0047130085 -4.2435517e-19)
(0.07206346 0.003597219 -8.6088911e-20)
(0.070801103 0.0023957233 1.7626326e-19)
(0.069605263 0.001027826 -8.2179004e-19)
(0.068507552 -0.0005552589 8.5293299e-19)
(0.067494997 -0.0023362792 9.8468541e-20)
(0.066608889 -0.0042700832 8.2747006e-19)
(0.065901434 -0.0063830441 -1.0935329e-19)
(0.065326582 -0.0086684828 -9.3037099e-19)
(0.064856747 -0.011075549 0)
(0.064561934 -0.013610299 0)
(0.064491163 -0.016297944 0)
(0.064658838 -0.01908822 -5.3918668e-19)
(0.065066196 -0.021939672 8.0543647e-19)
(0.06566961 -0.024867833 -8.2234326e-19)
(0.066512632 -0.027785219 5.1732648e-19)
(0.067610486 -0.030675087 -6.2229448e-20)
(0.068907612 -0.033523159 1.0484608e-23)
(0.070358074 -0.036358232 2.4274075e-20)
(0.072019928 -0.039111682 4.3925727e-20)
(0.073899895 -0.041728204 -8.0737926e-20)
(0.07593684 -0.044237158 2.2673725e-19)
(0.078132888 -0.046594035 -2.853039e-19)
(0.080475126 -0.048747826 0)
(0.082931484 -0.050679647 -5.8472978e-19)
(0.08547323 -0.052341609 1.0027798e-18)
(0.088024057 -0.053825534 -4.300806e-19)
(0.090588975 -0.055163436 -4.2221794e-19)
(0.093182732 -0.056277577 1.4186667e-22)
(0.095770705 -0.057108998 9.2261622e-19)
(0.098300762 -0.057769734 -4.5781342e-19)
(0.1007952 -0.058226265 0)
(0.10321998 -0.058427286 0)
(0.10553941 -0.058487148 -1.6627989e-19)
(0.10779709 -0.058539009 2.2340626e-19)
(0.11003881 -0.058385169 5.4952558e-20)
(0.11217933 -0.058231711 3.3476056e-19)
(0.11430688 -0.057939468 -5.5249014e-20)
(0.11636171 -0.057628123 -2.7922969e-19)
(0.11838344 -0.057255165 5.5796955e-20)
(0.1203687 -0.056735554 0)
(0.12231452 -0.056032387 -3.6340823e-23)
(0.083589826 0.0066606497 4.2243003e-24)
(0.08260372 0.0062884801 -5.8083887e-24)
(0.081598549 0.0058596093 0)
(0.080570759 0.0054145397 -3.6202027e-19)
(0.0795529 0.0048508045 7.3127287e-20)
(0.078544351 0.0041954015 2.2354585e-19)
(0.077546545 0.0034217608 7.4971835e-20)
(0.07657825 0.0025738335 1.5359979e-19)
(0.075628512 0.0015811099 7.7520184e-20)
(0.074674426 0.00051172431 -1.5767315e-19)
(0.073768886 -0.00069302313 0)
(0.072937247 -0.0020699005 -2.5020109e-19)
(0.072170706 -0.0036096816 -8.5903526e-20)
(0.0715027 -0.0052828402 1.7848512e-19)
(0.070976146 -0.0071080888 0)
(0.070559416 -0.0090815155 -1.9569999e-19)
(0.070234416 -0.011168857 1.0385497e-18)
(0.070058144 -0.01337316 -8.9579772e-19)
(0.07007318 -0.015707845 0)
(0.070294741 -0.018132411 9.6432667e-19)
(0.07073229 -0.020611886 -1.2767568e-18)
(0.071353181 -0.023151478 7.8418447e-19)
(0.072178494 -0.025693385 -4.5341393e-19)
(0.073228987 -0.028224049 1.1000474e-19)
(0.074461565 -0.03071874 -9.6565944e-20)
(0.075839387 -0.033193666 -1.3012831e-19)
(0.077400124 -0.035593603 1.1845289e-19)
(0.079146364 -0.037871811 3.6476967e-19)
(0.081031359 -0.0400454 -6.1735824e-19)
(0.083049465 -0.042079759 1.3151806e-22)
(0.085184268 -0.043935465 4.9698537e-19)
(0.08740696 -0.045597331 4.782765e-19)
(0.089690367 -0.047030492 -4.6341218e-19)
(0.091977907 -0.048299511 -1.1384347e-19)
(0.094269897 -0.049429995 0)
(0.096570289 -0.050372153 4.394971e-19)
(0.098849996 -0.051087825 -1.0855107e-22)
(0.10107251 -0.051652206 -4.2926182e-19)
(0.10325306 -0.052047959 0)
(0.10536743 -0.05224546 0)
(0.10739571 -0.05231755 -1.0460619e-19)
(0.10936926 -0.05234364 5.2690774e-20)
(0.1113336 -0.052209746 -5.1944507e-20)
(0.11322573 -0.05203197 -5.271187e-19)
(0.1151245 -0.051729445 4.6988704e-19)
(0.11699187 -0.051361081 0)
(0.11887807 -0.050900155 -5.2691444e-20)
(0.1207761 -0.050347183 0)
(0.12268079 -0.049666724 2.0762302e-19)
(0.084664381 0.0051445345 6.9329006e-20)
(0.083861254 0.0046824473 -1.3662425e-19)
(0.083047944 0.0041983485 -2.6561902e-19)
(0.082228633 0.0037183281 5.3679374e-19)
(0.081426994 0.0031572802 -4.055259e-19)
(0.080639744 0.0025315816 0)
(0.07986397 0.0018173529 5.5028683e-19)
(0.079114017 0.0010432501 -7.0095083e-20)
(0.078379641 0.00015405264 3.3051563e-23)
(0.077642836 -0.00080337742 -9.2727987e-19)
(0.076946101 -0.0018749696 -2.8662145e-23)
(0.076309175 -0.0030899885 5.9580439e-19)
(0.075725895 -0.0044435611 6.0913381e-19)
(0.075223413 -0.0059153214 -1.4122674e-18)
(0.074836796 -0.0075198632 6.4970304e-19)
(0.074544185 -0.0092551543 8.4359504e-19)
(0.07433444 -0.011096298 -1.592086e-18)
(0.07425378 -0.013044801 1.9277907e-23)
(0.074337427 -0.015109055 6.0794409e-19)
(0.074599107 -0.017257231 -8.8996168e-19)
(0.075046678 -0.019463297 7.515652e-19)
(0.075657587 -0.021723155 5.1620544e-19)
(0.076446993 -0.023986613 2.2686583e-19)
(0.077436719 -0.026243418 -1.9430691e-19)
(0.078591571 -0.028471552 1.3403945e-21)
(0.079882339 -0.030680031 -7.7492722e-20)
(0.081335347 -0.032821318 0)
(0.082949312 -0.034856521 1.317563e-19)
(0.084685571 -0.036798948 -1.2444566e-19)
(0.086535799 -0.038618651 1.1848033e-19)
(0.088483244 -0.040283494 0)
(0.090502515 -0.04178256 0)
(0.09256837 -0.043087714 4.276635e-19)
(0.094635054 -0.044254009 -4.215912e-19)
(0.096699622 -0.045302566 -4.162564e-19)
(0.09876272 -0.046192538 8.1890989e-19)
(0.10080071 -0.046893228 -9.4479278e-23)
(0.10278702 -0.047472502 -1.0057312e-19)
(0.10473186 -0.047915255 -3.9777266e-19)
(0.10661836 -0.048194519 -3.9303898e-19)
(0.10843289 -0.048376365 4.4348771e-19)
(0.11020225 -0.048539981 0)
(0.11195659 -0.048571665 -1.9610873e-19)
(0.11365868 -0.048594824 1.9888522e-19)
(0.11536294 -0.048521858 -1.9711051e-19)
(0.11704783 -0.048422982 9.9575187e-20)
(0.11874731 -0.048266348 0)
(0.12046112 -0.048046811 1.9828594e-19)
(0.12219869 -0.047708004 -1.9602965e-19)
(0.085655573 0.0037651786 -1.9382088e-19)
(0.085026097 0.0033222482 1.2725335e-19)
(0.084387449 0.0028556032 2.4742392e-19)
(0.083743556 0.0023852353 -1.2466387e-19)
(0.083115948 0.0018490945 -3.7582534e-19)
(0.082500533 0.0012589239 7.6036903e-19)
(0.081893956 0.00059642691 -8.8717113e-19)
(0.081308445 -0.00011862837 5.1467469e-19)
(0.080735496 -0.00092832368 -1.2890891e-19)
(0.080160939 -0.0018004871 -1.2992806e-19)
(0.079620784 -0.0027701971 -5.2800049e-19)
(0.079131193 -0.00386045 9.6099428e-24)
(0.078687772 -0.0050692584 -1.4456449e-23)
(0.078313071 -0.0063825411 8.3737444e-19)
(0.078036525 -0.0078110283 0)
(0.077842566 -0.0093541233 -2.9541584e-19)
(0.077724577 -0.01099417 0)
(0.077721304 -0.012731092 3.2247798e-19)
(0.077862595 -0.01456917 -1.7151951e-19)
(0.078161251 -0.016482396 0)
(0.078624923 -0.018449475 -4.845283e-23)
(0.07923925 -0.020463456 -2.1713129e-19)
(0.080014325 -0.022482263 0)
(0.080968166 -0.024496888 -1.722653e-19)
(0.082072894 -0.026487133 7.5323092e-20)
(0.083304529 -0.028456589 3.472732e-20)
(0.084681096 -0.030364714 0)
(0.086199255 -0.032177409 -1.1928804e-19)
(0.087826866 -0.033903327 -1.130868e-19)
(0.08955392 -0.035517693 -1.0815464e-19)
(0.091363503 -0.03699394 0)
(0.093232557 -0.038323008 -2.0232057e-19)
(0.095137835 -0.039482489 0)
(0.097042113 -0.040515279 -9.757641e-20)
(0.098941304 -0.041438914 8.5995203e-23)
(0.100833 -0.042223464 8.327711e-23)
(0.10269665 -0.0428463 3.7711859e-19)
(0.10451163 -0.043359423 4.7038666e-19)
(0.10628553 -0.043753091 -7.4140924e-23)
(0.10800447 -0.044008128 -6.985104e-23)
(0.10965918 -0.044173406 -7.4230781e-19)
(0.11127108 -0.044306567 6.7800462e-23)
(0.11286762 -0.044326876 3.7009645e-19)
(0.11441823 -0.044319884 1.8749819e-19)
(0.11597173 -0.044224016 -1.8607996e-19)
(0.11751078 -0.0440844 9.3912809e-20)
(0.11906812 -0.043876442 9.3806955e-20)
(0.12064586 -0.043593871 -1.8705975e-19)
(0.12225379 -0.043199941 2.7750724e-19)
(0.086664372 0.0027450873 1.2052377e-19)
(0.086150547 0.0023014164 -4.153566e-19)
(0.085629827 0.0018427555 0)
(0.085107985 0.0013830406 -4.6438223e-19)
(0.084602956 0.00087126395 9.3128946e-19)
(0.084110674 0.00031498964 -4.6974135e-19)
(0.083627319 -0.00030138279 -1.1719932e-19)
(0.08316323 -0.00096422729 1.1855485e-19)
(0.082711112 -0.0017071217 2.3691538e-19)
(0.0822596 -0.002507232 0)
(0.081839244 -0.0033924488 0)
(0.08146348 -0.0043814083 -1.216907e-19)
(0.081129146 -0.0054736655 0)
(0.08085529 -0.0066590928 -2.5052085e-19)
(0.080666862 -0.0079459579 0)
(0.080552591 -0.0093344797 -7.850361e-19)
(0.080508825 -0.010811498 5.3946192e-19)
(0.080568368 -0.012375862 -5.6195872e-19)
(0.080756597 -0.014029406 8.878951e-19)
(0.081085007 -0.015750628 6.3218437e-19)
(0.081560294 -0.017522015 -5.1578418e-19)
(0.082172968 -0.019335746 1.8585385e-19)
(0.082930548 -0.021155035 -1.7652114e-19)
(0.083847923 -0.022970564 1.4610753e-23)
(0.084903005 -0.024765196 6.8465165e-20)
(0.086075834 -0.026539704 -6.2428461e-20)
(0.087379161 -0.02825902 0)
(0.088808257 -0.029893472 1.0817851e-19)
(0.090335681 -0.031449502 1.0296696e-19)
(0.091950969 -0.032906046 0)
(0.093637833 -0.034240739 -1.9120502e-19)
(0.095375603 -0.035446495 3.725848e-19)
(0.097142991 -0.036504897 0)
(0.098908843 -0.037452316 -9.0413991e-19)
(0.10066833 -0.038303731 7.18179e-19)
(0.10241773 -0.039034505 0)
(0.104139 -0.039625913 3.5216486e-19)
(0.10581609 -0.040123372 -3.5217256e-19)
(0.10745423 -0.040518525 0)
(0.109042 -0.040794347 2.606186e-19)
(0.11057226 -0.040993813 -3.4912066e-19)
(0.11206463 -0.041170445 0)
(0.11353791 -0.041248785 8.7173558e-20)
(0.11497276 -0.041311723 -3.5314761e-19)
(0.11640561 -0.041299503 3.5078579e-19)
(0.11782628 -0.041259094 3.5391701e-19)
(0.11926063 -0.041167052 -4.4187253e-19)
(0.12071196 -0.041020043 4.4064888e-19)
(0.12218973 -0.040773122 -4.3597019e-19)
(0.087607131 0.0018573381 -5.6290363e-20)
(0.087193098 0.0014399876 1.1086221e-19)
(0.086772456 0.001007643 2.1571915e-19)
(0.086350527 0.00057057115 5.4150408e-19)
(0.085943882 8.9190747e-05 -5.4197312e-19)
(0.085548726 -0.00043155478 -4.3637428e-19)
(0.085161877 -0.0010043358 9.7789016e-19)
(0.084792315 -0.0016197644 -5.479538e-19)
(0.084434287 -0.0023043677 -5.4614085e-19)
(0.084078555 -0.003042198 8.7471409e-19)
(0.083751652 -0.0038552907 -4.406713e-19)
(0.083465059 -0.0047587197 2.2201589e-19)
(0.083216602 -0.0057530265 2.2352085e-19)
(0.083022611 -0.0068308767 9.0525996e-19)
(0.082904581 -0.0079984639 -9.1923799e-19)
(0.082854288 -0.009256514 0)
(0.082870097 -0.010595252 0)
(0.08298021 -0.01201275 4.4788156e-23)
(0.083206461 -0.013509071 0)
(0.083559187 -0.015066141 5.474474e-19)
(0.084044573 -0.016668782 -5.8877332e-19)
(0.084656736 -0.018309133 6.4462058e-19)
(0.085401511 -0.019955385 -3.1389731e-19)
(0.086290682 -0.021597409 4.8008464e-19)
(0.08730674 -0.023220613 -6.1523515e-20)
(0.088432475 -0.024823786 -1.1261611e-19)
(0.089676786 -0.026376208 -1.0452583e-19)
(0.091034192 -0.027851505 -2.9514153e-19)
(0.092481023 -0.029253959 -5.6362162e-19)
(0.094006639 -0.030565565 1.8102662e-19)
(0.09559538 -0.03176708 1.7569664e-19)
(0.097228381 -0.032852434 -1.7174683e-19)
(0.098886018 -0.033806232 -6.7521729e-19)
(0.10054177 -0.034658233 1.3412663e-18)
(0.10219041 -0.035421128 -6.6742333e-19)
(0.10382696 -0.036075371 0)
(0.10543503 -0.036605954 -4.9361074e-19)
(0.10700133 -0.037050057 4.9451597e-19)
(0.10852954 -0.037401678 1.6418292e-19)
(0.11000936 -0.037647453 -2.4506209e-19)
(0.11143518 -0.037821811 -1.6423724e-19)
(0.11282379 -0.037967763 0)
(0.1141913 -0.038025929 -8.2180548e-20)
(0.11552137 -0.038060924 -2.4963143e-19)
(0.11684636 -0.03802606 5.7911284e-19)
(0.1181576 -0.03795659 -2.5039229e-19)
(0.11947895 -0.037833377 -1.6677808e-19)
(0.12081383 -0.0376524 -2.4946866e-19)
(0.12217189 -0.037378014 -1.6463656e-19)
(0.08850929 0.0011661355 5.2649149e-19)
(0.088169986 0.0007686321 2.0735972e-19)
(0.087824914 0.00035842099 -5.0464825e-19)
(0.087479586 -5.7128254e-05 4.0470769e-19)
(0.087148617 -0.00051054661 -8.0887115e-19)
(0.086828692 -0.00099890439 3.0462948e-19)
(0.086517044 -0.0015329893 3.0290482e-19)
(0.086221589 -0.0021063767 -4.0623788e-19)
(0.085937696 -0.0027405988 0)
(0.085657909 -0.0034243546 -8.0667805e-19)
(0.085405369 -0.0041754416 8.1001039e-19)
(0.085190051 -0.0050062685 -8.1316145e-19)
(0.085010551 -0.0059179026 6.117635e-19)
(0.084881068 -0.0069048936 -4.1116731e-19)
(0.084820292 -0.0079719306 1.2466413e-18)
(0.084822222 -0.009119972 8.4153985e-19)
(0.084886609 -0.010341531 -1.28583e-18)
(0.085037908 -0.011634132 2.2031162e-19)
(0.085295025 -0.012996676 1.3713455e-18)
(0.08566721 -0.014413789 -9.5985803e-19)
(0.086160236 -0.015871907 -5.1138973e-19)
(0.08677026 -0.017363664 5.5551696e-19)
(0.087502034 -0.018861539 -9.6536508e-19)
(0.088364912 -0.020354313 2.4641187e-19)
(0.089344849 -0.021829778 -5.5488036e-20)
(0.090426923 -0.023285799 1.0194502e-19)
(0.091617285 -0.024695067 9.4968227e-20)
(0.092909981 -0.026034193 5.3809699e-19)
(0.094284305 -0.027306165 -1.7181722e-19)
(0.095729778 -0.028495492 4.9800815e-19)
(0.097231512 -0.029585544 0)
(0.098772309 -0.030571314 0)
(0.10033409 -0.031439893 0)
(0.10189397 -0.032216633 3.1106035e-19)
(0.10344659 -0.032912619 -3.1023435e-19)
(0.10498635 -0.033511695 3.0871295e-19)
(0.10649824 -0.034001335 -3.0754688e-19)
(0.10797131 -0.034413853 1.542747e-19)
(0.10940796 -0.034744414 -6.1599967e-19)
(0.11079884 -0.034981508 4.6057174e-19)
(0.11213927 -0.035155088 -1.5444667e-19)
(0.11344486 -0.035303842 3.1170854e-19)
(0.11472672 -0.035374469 0)
(0.11597385 -0.035426236 -7.8391594e-20)
(0.11721174 -0.035416429 1.5600614e-19)
(0.11843508 -0.035378709 -1.5728878e-19)
(0.11966356 -0.035295669 3.1440969e-19)
(0.1209013 -0.035165324 1.5680429e-19)
(0.12215626 -0.034950563 -2.2742826e-23)
(0.089349962 0.00057824309 -2.9578575e-19)
(0.089073389 0.00020730445 0)
(0.088791555 -0.00017631892 -7.7619823e-24)
(0.088509345 -0.00056738207 0)
(0.08824024 -0.00099195286 -3.7780624e-19)
(0.08798134 -0.00144853 9.4673246e-20)
(0.08773055 -0.0019461633 5.6401195e-19)
(0.087494897 -0.0024806011 1.8865948e-19)
(0.087270864 -0.0030692952 -5.6172983e-19)
(0.0870524 -0.003704437 -7.4589929e-19)
(0.086859932 -0.0044004099 7.4670467e-19)
(0.086702271 -0.0051674606 0)
(0.08657866 -0.0060069618 3.7349822e-19)
(0.086501592 -0.0069148234 -3.7512352e-19)
(0.086487491 -0.0078945214 7.5511624e-19)
(0.086532035 -0.0089471031 -7.6143073e-19)
(0.08663595 -0.010066772 5.3779152e-23)
(0.08682064 -0.011250669 7.8946033e-19)
(0.087102603 -0.012496858 -1.2217153e-18)
(0.087490176 -0.013792066 8.4951159e-19)
(0.087988827 -0.015123968 -1.12311e-18)
(0.088595895 -0.016485695 -2.4185901e-19)
(0.089315569 -0.017853364 0)
(0.090155396 -0.019214918 0)
(0.091103625 -0.020559982 0)
(0.092147389 -0.021885879 0)
(0.093290721 -0.023168106 0)
(0.094527418 -0.024385695 1.6391326e-19)
(0.095839199 -0.025540493 -6.2966778e-19)
(0.097215835 -0.026619011 3.0512973e-19)
(0.098643177 -0.027606632 5.9581752e-19)
(0.10010538 -0.028498989 -5.8591951e-19)
(0.10158569 -0.029285039 5.7912767e-19)
(0.10306403 -0.029986103 -5.777402e-19)
(0.10453494 -0.030611759 2.8868412e-19)
(0.10599223 -0.031148682 -2.8796844e-19)
(0.10742185 -0.031586444 4.3131176e-19)
(0.10881437 -0.031952479 5.7784883e-19)
(0.11017115 -0.032243219 -2.8906564e-19)
(0.11148337 -0.032449264 -1.4042393e-24)
(0.11274696 -0.032595711 0)
(0.11397582 -0.032715281 -1.4671662e-19)
(0.11517886 -0.032763768 1.4602249e-19)
(0.11634684 -0.032790344 2.9559511e-19)
(0.11750219 -0.032759759 -3.6805679e-19)
(0.11864035 -0.032699479 -3.7105157e-19)
(0.11977913 -0.032594787 2.9675616e-19)
(0.12092228 -0.032443799 0)
(0.12207716 -0.032214442 1.467614e-19)
(0.090140866 0.00010893131 -2.7718631e-19)
(0.089914128 -0.00023892097 -2.7293681e-19)
(0.08968278 -0.00059885162 2.6596387e-19)
(0.08945139 -0.00096719144 0)
(0.089232146 -0.0013654233 -2.6502415e-19)
(0.08902261 -0.0017930964 -6.2728376e-24)
(0.088821186 -0.0022579786 5.2590239e-19)
(0.088634197 -0.0027573806 -5.2650524e-19)
(0.088458977 -0.0033056722 5.2168364e-19)
(0.088290675 -0.0038975245 0)
(0.088147399 -0.0045447072 0)
(0.088037025 -0.0052557721 0)
(0.087959322 -0.0060322306 -3.4319795e-19)
(0.087925393 -0.0068709592 -6.8691692e-19)
(0.087949781 -0.0077745036 1.3779543e-18)
(0.08802945 -0.008743895 -1.3842662e-18)
(0.088165814 -0.009774538 3.4951636e-19)
(0.08837773 -0.01086331 2.4627092e-23)
(0.088679686 -0.012007699 7.3047082e-19)
(0.089079213 -0.013196091 3.7888812e-19)
(0.08958145 -0.014417213 -1.9770332e-23)
(0.09018448 -0.015664653 0)
(0.090892087 -0.016917543 2.1693288e-19)
(0.091710392 -0.018163419 -2.0123317e-19)
(0.092629321 -0.019393285 0)
(0.093637729 -0.020604178 -8.4309079e-20)
(0.09473805 -0.021774041 0)
(0.095923953 -0.02288402 1.5011973e-19)
(0.097179134 -0.023935166 -2.8913536e-19)
(0.098493694 -0.024915693 -5.6167284e-19)
(0.099854206 -0.025812719 8.7920902e-23)
(0.10124603 -0.026622515 8.1314082e-19)
(0.10265358 -0.02733567 -5.3715775e-19)
(0.1040591 -0.027970501 2.6846097e-19)
(0.10545715 -0.028535513 0)
(0.10684122 -0.029019638 -8.0618424e-19)
(0.10819817 -0.029414169 4.0640819e-23)
(0.10951987 -0.029743108 -5.412831e-19)
(0.11080691 -0.030003824 4.0687479e-19)
(0.11205098 -0.030188431 -4.0695616e-19)
(0.11324845 -0.030318819 7.4975663e-23)
(0.11441229 -0.030424115 6.9063115e-19)
(0.11554844 -0.030465441 1.3763967e-19)
(0.11665036 -0.030486782 -2.7868055e-19)
(0.11773638 -0.030456826 -2.7778628e-19)
(0.11880358 -0.030400688 3.5009781e-19)
(0.11986701 -0.030305243 7.001216e-20)
(0.12093064 -0.030169832 1.3974882e-19)
(0.12200014 -0.029963065 -2.0798435e-19)
(0.090877236 -0.00028317626 0)
(0.090692324 -0.00060703941 -8.5340263e-20)
(0.090503437 -0.00094297886 0)
(0.09031454 -0.0012885733 0)
(0.090136868 -0.0016613299 0)
(0.089968362 -0.0020615646 0)
(0.089807947 -0.0024959243 -6.5469562e-19)
(0.089661334 -0.0029628849 6.5411822e-19)
(0.089526622 -0.0034743028 6.4712058e-19)
(0.089399936 -0.0040267203 -1.2835498e-18)
(0.08929744 -0.0046297935 6.391279e-19)
(0.089226254 -0.0052906892 0)
(0.089186587 -0.0060109656 6.3231906e-19)
(0.089188393 -0.006788208 -3.1548073e-19)
(0.089244651 -0.007624217 -3.1542605e-19)
(0.089353328 -0.0085199476 1.2631836e-18)
(0.089516327 -0.0094716871 -6.3558333e-19)
(0.089750368 -0.010476137 -6.4447022e-19)
(0.090068252 -0.01153037 1.725986e-23)
(0.09047681 -0.0126241 3.4010559e-19)
(0.090980842 -0.013746946 -3.5562749e-19)
(0.091578977 -0.014892876 -3.7763359e-19)
(0.092274645 -0.01604347 3.8863601e-19)
(0.093072836 -0.017186233 0)
(0.093964775 -0.018313188 8.3124918e-20)
(0.09494072 -0.019421172 -3.5197582e-25)
(0.096001876 -0.020490241 0)
(0.097141882 -0.021503335 0)
(0.098346075 -0.022460848 0)
(0.09960491 -0.023352385 1.0359109e-18)
(0.10090563 -0.024166476 -5.1497222e-23)
(0.10223463 -0.024899848 -7.5322717e-19)
(0.10357733 -0.025544373 4.9882892e-19)
(0.10491786 -0.026115742 0)
(0.10625075 -0.026621459 -2.504893e-19)
(0.10756925 -0.027052278 2.5097255e-19)
(0.1088609 -0.027400892 -2.5162081e-19)
(0.11011847 -0.027688146 7.6100568e-19)
(0.11134189 -0.027912224 0)
(0.11252317 -0.028066657 0)
(0.11365899 -0.028170287 5.1491535e-19)
(0.11476111 -0.028248412 -5.2038053e-19)
(0.11583382 -0.028268009 5.1928955e-19)
(0.11687177 -0.028266745 -3.9428521e-19)
(0.11789092 -0.028218114 0)
(0.11888884 -0.028143507 -6.6102532e-20)
(0.11987896 -0.028031639 -6.6124814e-20)
(0.12086491 -0.027882192 -1.9810295e-19)
(0.12185146 -0.027666994 -1.3107524e-19)
(0.091566547 -0.0005980633 -3.2536689e-19)
(0.091415982 -0.00090039358 8.0102019e-20)
(0.091262099 -0.0012145953 1.5627654e-19)
(0.091108431 -0.0015391811 0)
(0.090965257 -0.0018886148 0)
(0.090830883 -0.0022637663 1.546542e-19)
(0.090704646 -0.0026703931 1.5298647e-19)
(0.090591748 -0.0031078242 0)
(0.090490891 -0.0035859364 0)
(0.09039903 -0.0041026404 2.9840235e-19)
(0.09033065 -0.0046659167 0)
(0.090292239 -0.0052818122 0)
(0.090284361 -0.005951869 -5.8390651e-19)
(0.090316008 -0.0066741922 2.9050413e-19)
(0.090398831 -0.0074499963 0)
(0.090531586 -0.0082801246 -5.7833683e-19)
(0.090716521 -0.009161507 -5.8008895e-19)
(0.090968537 -0.010090734 5.8625741e-19)
(0.091299003 -0.011064595 1.1941351e-18)
(0.091714133 -0.012073875 -6.1401043e-19)
(0.092218393 -0.013108977 -6.3894734e-19)
(0.092810807 -0.014164184 3.3751617e-19)
(0.093494472 -0.015223103 -3.5002131e-19)
(0.094273435 -0.016273445 -8.331851e-20)
(0.095139979 -0.017308013 7.7150749e-20)
(0.09608551 -0.018323523 0)
(0.097110266 -0.01930188 2.6569171e-19)
(0.098207913 -0.020227605 0)
(0.099365158 -0.021100598 4.9033964e-19)
(0.10057281 -0.021911657 -2.9177625e-23)
(0.10181875 -0.022650548 -4.7050294e-19)
(0.10309025 -0.023314426 -6.8305888e-23)
(0.10437368 -0.0238963 -4.6362573e-19)
(0.10565469 -0.024409784 -4.6489628e-19)
(0.10692788 -0.024861631 -1.1679524e-18)
(0.10818637 -0.025244164 9.3811501e-19)
(0.10941839 -0.025551331 0)
(0.11061749 -0.025801547 -2.3781289e-19)
(0.11178312 -0.025993724 0)
(0.11290765 -0.02612259 4.7999713e-19)
(0.11398804 -0.026204718 2.4234522e-19)
(0.11503519 -0.026262625 -5.8857914e-23)
(0.11605164 -0.026267573 -4.8987837e-19)
(0.1170335 -0.026252948 4.4980211e-24)
(0.11799413 -0.026195574 -2.4763659e-19)
(0.11893191 -0.026114657 2.4969307e-19)
(0.1198584 -0.026000249 -2.4985756e-19)
(0.12077723 -0.025852798 5.6166782e-19)
(0.12169176 -0.025645477 6.1965369e-20)
(0.092209112 -0.00085573178 -3.0559489e-19)
(0.0920876 -0.0011373409 7.5231524e-20)
(0.091963438 -0.0014307583 2.937188e-19)
(0.091839643 -0.0017352573 7.3176391e-19)
(0.091725707 -0.0020627237 -5.8160995e-19)
(0.091620236 -0.0024144268 -1.4486411e-19)
(0.091522943 -0.0027953593 -1.4315565e-19)
(0.091438586 -0.0032054849 -5.7005188e-19)
(0.091366381 -0.0036530566 8.4356403e-19)