/*--------------------------------*- C++ -*----------------------------------*\
| =========                 |                                                 |
| \\      /  F ield         | OpenFOAM: The Open Source CFD Toolbox           |
|  \\    /   O peration     | Version:  v2006                                 |
|   \\  /    A nd           | Website:  www.openfoam.com                      |
|    \\/     M anipulation  |                                                 |
\*---------------------------------------------------------------------------*/
FoamFile
{
    version     2.0;
    format      ascii;
    class       volVectorField;
    location    "3500";
    object      UMean;
}
// * * * * * * * * * * * * * * * * * * * * * * * * * * * * * * * * * * * * * //

dimensions      [0 1 -1 0 0 0 0];


internalField   nonuniform List<vector> 
19765
(
(0.09019398 0.030201642 -8.9487254e-20)
(0.087605146 0.033404771 8.9874741e-20)
(0.080793682 0.035443178 -9.1975289e-20)
(0.073033316 0.035879929 0)
(0.066379381 0.035305635 0)
(0.060337239 0.033890795 2.2438914e-19)
(0.05407641 0.031666472 -1.7864784e-19)
(0.048470508 0.029084801 0)
(0.042937894 0.025929793 4.4865728e-19)
(0.036891425 0.021994694 3.8063208e-20)
(0.031937521 0.017873594 -7.6266561e-19)
(0.028043998 0.013462668 7.5524641e-19)
(0.024553176 0.0088076531 -8.4614935e-19)
(0.021601826 0.0040189743 -9.7084058e-19)
(0.019447329 -0.00086557108 1.1314925e-18)
(0.017700525 -0.0060221503 0)
(0.016144763 -0.011093998 -2.1633237e-20)
(0.015016151 -0.01612711 1.846067e-20)
(0.014355416 -0.021299732 -1.0064854e-18)
(0.014126992 -0.026567416 8.6622435e-19)
(0.014314368 -0.031965297 -3.7781326e-19)
(0.014860606 -0.037263487 6.5980531e-19)
(0.015783027 -0.042422855 -2.9982342e-19)
(0.017164986 -0.047799831 1.2620285e-20)
(0.018961891 -0.053170073 -6.1032623e-20)
(0.020933914 -0.057811804 4.7453037e-20)
(0.023098043 -0.061986696 -2.0734226e-19)
(0.025707038 -0.066496358 1.955099e-19)
(0.028595508 -0.070864548 0)
(0.031606114 -0.074729842 3.5599851e-19)
(0.034994 -0.078658569 -3.3786777e-19)
(0.038952106 -0.082722568 6.4556594e-19)
(0.04406989 -0.08699474 -6.2080218e-19)
(0.049684368 -0.090777488 2.9838285e-19)
(0.054432621 -0.093166523 -2.9323941e-19)
(0.058921311 -0.095044029 -2.7751874e-19)
(0.0648638 -0.097346511 1.8746997e-22)
(0.071261894 -0.099216239 5.3734882e-19)
(0.077150382 -0.10016445 -2.8296095e-19)
(0.084667409 -0.10117012 -2.5639395e-19)
(0.093409195 -0.10171669 2.5048385e-19)
(0.099406323 -0.10039533 -1.558849e-20)
(0.10473033 -0.098217041 -3.0694562e-20)
(0.1099341 -0.095326419 1.2320951e-19)
(0.11306009 -0.091512157 -2.7838217e-19)
(0.11555371 -0.086968426 1.2445734e-19)
(0.11567459 -0.081837887 0)
(0.11467138 -0.076656579 -1.3043442e-19)
(0.1135112 -0.07200169 0)
(0.081476738 0.01757602 1.4615977e-19)
(0.078447028 0.020405693 1.4068761e-19)
(0.074881412 0.022792312 -6.6831393e-20)
(0.071018712 0.023821733 6.6346312e-20)
(0.067087859 0.023927884 -3.2780728e-19)
(0.063322287 0.023313405 2.5993889e-19)
(0.059662567 0.022173918 -3.1786999e-20)
(0.056278708 0.020624551 2.5235342e-19)
(0.053051528 0.018684413 3.0801573e-20)
(0.049820321 0.016494438 -2.8888412e-19)
(0.046804592 0.013916542 1.5402975e-20)
(0.044187646 0.010901078 4.6774543e-19)
(0.041849955 0.0075209647 -7.5656503e-19)
(0.039824148 0.0039002082 2.2583364e-19)
(0.038275076 7.4105729e-05 -2.6471944e-19)
(0.037012741 -0.0039391655 3.0512344e-19)
(0.035865747 -0.0081028413 -1.7662928e-20)
(0.035039143 -0.012391279 0)
(0.034649844 -0.016792951 1.9317956e-20)
(0.034669078 -0.021263415 -3.0003749e-19)
(0.035056866 -0.025747132 2.6584394e-19)
(0.035713116 -0.030267273 2.0913444e-20)
(0.036704191 -0.034764124 7.8875622e-21)
(0.038105366 -0.03915692 -1.1145584e-20)
(0.039765857 -0.04345929 -2.8131392e-20)
(0.041532298 -0.047756017 2.3486347e-20)
(0.043517772 -0.051972853 9.6021737e-20)
(0.045828439 -0.056012397 -3.0637237e-19)
(0.048389586 -0.059927914 3.7829955e-19)
(0.051184763 -0.063692977 -1.824667e-19)
(0.05427568 -0.067215503 1.0993289e-20)
(0.057727889 -0.070405247 0)
(0.061524895 -0.073134661 1.7493835e-19)
(0.065473793 -0.075480659 -7.0742609e-23)
(0.06946467 -0.077581773 -1.6186382e-19)
(0.073599174 -0.079396718 -1.7915991e-19)
(0.077944232 -0.080748714 6.9836536e-23)
(0.082397469 -0.081609574 -1.3777664e-19)
(0.08691356 -0.081971213 1.4703653e-19)
(0.091511902 -0.08166386 1.558148e-19)
(0.09604243 -0.080545909 1.7901734e-19)
(0.10045602 -0.078675879 -3.2967767e-19)
(0.10477842 -0.076430631 1.8830124e-19)
(0.10895978 -0.073515658 -2.1850178e-20)
(0.11280054 -0.070595839 -8.9826863e-20)
(0.11624796 -0.067522416 1.8605352e-19)
(0.11924053 -0.064535401 -1.4441092e-19)
(0.1217785 -0.061969592 -4.9640723e-20)
(0.12396984 -0.059583684 1.0216823e-19)
(0.084830614 0.01715088 7.9643497e-20)
(0.082545244 0.017418938 6.0959481e-24)
(0.079887883 0.017508289 1.5507786e-19)
(0.076987942 0.01747442 1.2401974e-25)
(0.074090708 0.017048806 -2.4321049e-19)
(0.0712236 0.016327351 3.3431947e-19)
(0.068440562 0.015291392 -8.4952612e-20)
(0.065760166 0.014065945 0)
(0.063227163 0.012537614 0)
(0.060684479 0.010847188 4.6538132e-20)
(0.058304904 0.0088711149 0)
(0.056164673 0.0065492358 5.1596992e-20)
(0.054217806 0.0039322228 4.9120207e-19)
(0.052514049 0.0010938186 5.8594283e-19)
(0.051156045 -0.0019585001 -1.0153432e-18)
(0.05003023 -0.0052048316 -2.9083588e-23)
(0.049047752 -0.0086046797 3.8599593e-20)
(0.048327315 -0.012150435 -7.0624921e-19)
(0.047933757 -0.015847254 7.8055185e-19)
(0.047882867 -0.019637036 0)
(0.048158534 -0.02346471 5.1956442e-20)
(0.048666609 -0.027376909 -1.6180294e-23)
(0.049519627 -0.031284077 -1.913195e-20)
(0.05073296 -0.03512809 -3.326956e-20)
(0.052166396 -0.038900704 1.1657981e-19)
(0.053729666 -0.042668125 -1.3165853e-20)
(0.055579371 -0.046360069 -1.7826961e-19)
(0.057752116 -0.049897962 5.4386446e-19)
(0.060131025 -0.053332387 -3.2402085e-19)
(0.062750805 -0.056614098 3.7881962e-20)
(0.065627831 -0.059665 2.6737089e-19)
(0.068737827 -0.062433857 -5.7461139e-19)
(0.072070531 -0.064828065 -2.7387593e-19)
(0.075460786 -0.066985443 5.0059575e-19)
(0.078903595 -0.068969549 4.8601713e-19)
(0.082469579 -0.070642915 -4.395831e-19)
(0.086155907 -0.071886361 0)
(0.089842668 -0.072853464 1.9497107e-19)
(0.093561758 -0.073464791 -2.172808e-19)
(0.097270815 -0.073604051 2.3830436e-19)
(0.10086232 -0.073462563 -2.3760256e-19)
(0.10428775 -0.073241881 0)
(0.10762347 -0.072640989 0)
(0.11067961 -0.07178628 2.6440397e-20)
(0.11353608 -0.070720312 0)
(0.11606688 -0.069628238 -5.2728886e-20)
(0.11834952 -0.068432216 2.0862461e-19)
(0.12042645 -0.067154089 -1.0327309e-19)
(0.12234831 -0.065742856 0)
(0.083515931 0.012220623 -8.4399944e-20)
(0.081835899 0.012455038 -2.5061767e-19)
(0.080102402 0.012501035 8.1285873e-20)
(0.078278887 0.01242202 -4.1562803e-19)
(0.076426375 0.012050132 3.3887827e-19)
(0.074573985 0.011453522 3.4916948e-19)
(0.072746451 0.010607642 -2.6574973e-19)
(0.07097179 0.0096174197 3.6804602e-19)
(0.069241401 0.0083665539 4.9742067e-23)
(0.067510667 0.0070110997 -8.7066106e-19)
(0.0658591 0.0054479276 5.0578673e-19)
(0.064337701 0.0036138309 0)
(0.062928366 0.0015407515 -5.5693194e-20)
(0.061682201 -0.0007031944 -1.0066032e-18)
(0.060669531 -0.0031524232 1.1423812e-18)
(0.05982376 -0.0058003593 1.0281084e-18)
(0.05909626 -0.008575291 -2.4109172e-18)
(0.058574359 -0.011479052 1.3580913e-18)
(0.0583191 -0.014545127 -7.8753646e-19)
(0.058344362 -0.017697884 9.5297542e-19)
(0.058648968 -0.020884425 0)
(0.059164701 -0.024171402 -5.9679116e-19)
(0.059949624 -0.027449074 7.1537686e-19)
(0.061015762 -0.030691632 -3.9459398e-19)
(0.062288691 -0.033889178 6.5753291e-20)
(0.063717696 -0.037087455 -8.4877712e-24)
(0.06539418 -0.040208853 -2.0405669e-19)
(0.067331054 -0.043182316 5.5691398e-19)
(0.069450132 -0.046044476 -3.4481352e-19)
(0.071766898 -0.048747878 -3.630163e-19)
(0.074275126 -0.051227652 3.0461987e-19)
(0.076942049 -0.05345373 6.8836566e-19)
(0.079738383 -0.055363487 -1.7667843e-22)
(0.082565303 -0.057062175 -6.0997403e-19)
(0.085438525 -0.058594087 4.6359206e-19)
(0.088384814 -0.05986418 -5.1469167e-19)
(0.091358358 -0.060790153 5.0098542e-19)
(0.094290185 -0.06148713 -9.9061425e-19)
(0.097212376 -0.061914507 5.1568712e-19)
(0.1000651 -0.062003051 2.0781774e-19)
(0.10279189 -0.06186637 -2.3723828e-19)
(0.1054639 -0.061632424 -5.9627381e-20)
(0.10813415 -0.061127121 2.3374219e-19)
(0.11067307 -0.060505338 -2.3711551e-19)
(0.11318683 -0.059666079 0)
(0.11560323 -0.058673259 1.1791309e-19)
(0.11800578 -0.057565574 -5.8365722e-20)
(0.1203593 -0.056395437 0)
(0.12267231 -0.055202714 0)
(0.084266315 0.010109933 -7.9041398e-20)
(0.082925436 0.0098036324 -2.3411995e-19)
(0.081548685 0.0094516563 3.034632e-19)
(0.080137407 0.0091082348 7.720138e-20)
(0.078728105 0.0086105365 2.3494868e-19)
(0.077328851 0.0079956348 -2.4051473e-19)
(0.075950741 0.007224234 2.4287465e-19)
(0.074611154 0.0063620022 -4.1708355e-19)
(0.073304721 0.0053103576 -8.4536957e-20)
(0.071998102 0.0041746053 1.7293471e-19)
(0.07074978 0.0028715026 -8.0568897e-19)
(0.069591432 0.001351214 8.3550667e-19)
(0.068513194 -0.00036792742 9.6342925e-20)
(0.067554039 -0.0022418139 8.0864556e-19)
(0.066765238 -0.0042988283 -1.0670493e-19)
(0.066105332 -0.0065294527 -9.0590424e-19)
(0.065546704 -0.0088813595 0)
(0.065155754 -0.011364069 0)
(0.06498206 -0.014003813 0)
(0.065040879 -0.01675079 -5.17095e-19)
(0.065334679 -0.019567482 7.8294189e-19)
(0.065822789 -0.022463817 -8.3507275e-19)
(0.066543698 -0.025352121 5.4330326e-19)
(0.067517878 -0.028222467 -6.5816009e-20)
(0.068690952 -0.031058339 9.9154687e-24)
(0.070017223 -0.03388405 2.534719e-20)
(0.0715539 -0.036631039 4.5644272e-20)
(0.073309372 -0.039249004 -8.3590775e-20)
(0.075224249 -0.041765253 2.3406989e-19)
(0.077300003 -0.044133258 -2.9388318e-19)
(0.079525315 -0.046304451 0)
(0.081869661 -0.048259969 -6.0048077e-19)
(0.084305046 -0.049951763 1.02863e-18)
(0.086755894 -0.051468352 -4.4068645e-19)
(0.08922432 -0.052839203 -4.3226086e-19)
(0.091725776 -0.053989552 1.3955987e-22)
(0.094229017 -0.054863217 9.4348753e-19)
(0.09668176 -0.055568126 -4.6789856e-19)
(0.099103205 -0.056070533 0)
(0.10146244 -0.05632165 0)
(0.10372439 -0.056432655 -1.6974165e-19)
(0.10592638 -0.056531667 2.27954e-19)
(0.10811428 -0.056428854 5.6056631e-20)
(0.11020771 -0.056324336 3.4135243e-19)
(0.11228945 -0.056083405 -5.6322661e-20)
(0.11430417 -0.055822655 -2.8457298e-19)
(0.11628993 -0.055502365 5.684853e-20)
(0.11824245 -0.055050963 0)
(0.1201612 -0.054422555 -3.4670146e-23)
(0.084855664 0.0077123423 3.0894057e-24)
(0.08385021 0.0074093966 -4.6735637e-24)
(0.082829602 0.0070463607 0)
(0.081784682 0.0066659999 -3.5751568e-19)
(0.080745257 0.0061645198 7.2184105e-20)
(0.079710668 0.0055697573 2.2058596e-19)
(0.078684337 0.0048550966 7.3935973e-20)
(0.077681611 0.0040650801 1.5142605e-19)
(0.076695173 0.0031288347 7.6368258e-20)
(0.075702544 0.0021169161 -1.552303e-19)
(0.074751507 0.00096885691 0)
(0.073867109 -0.0003528646 -2.4605168e-19)
(0.073042813 -0.0018382398 -8.4406048e-20)
(0.072310388 -0.003458556 1.7522991e-19)
(0.0717117 -0.0052342913 0)
(0.071218567 -0.0071595878 -1.9164129e-19)
(0.070813248 -0.0091989146 1.0151214e-18)
(0.07054995 -0.011357916 -8.7379436e-19)
(0.070471286 -0.013651265 0)
(0.070593084 -0.016038888 9.3489095e-19)
(0.070924609 -0.018488766 -1.2315987e-18)
(0.071436816 -0.021002188 7.7889749e-19)
(0.072148779 -0.02351986 -4.6978676e-19)
(0.073083391 -0.026033223 1.1503174e-19)
(0.074198985 -0.028517961 -1.0062622e-19)
(0.075459485 -0.03098676 -1.3487225e-19)
(0.076902618 -0.033384204 1.2231615e-19)
(0.078532459 -0.035667264 3.7562783e-19)
(0.080303363 -0.037851518 -6.3430096e-19)
(0.082209467 -0.03990052 1.273605e-22)
(0.084235852 -0.041776475 5.0910514e-19)
(0.086354961 -0.043464111 4.8943735e-19)
(0.088540249 -0.044928112 -4.7382085e-19)
(0.090735286 -0.046231186 -1.1630402e-19)
(0.092938107 -0.047396933 0)
(0.095153548 -0.04837686 4.4851373e-19)
(0.097355149 -0.049134192 -1.071271e-22)
(0.099505959 -0.04974232 -4.3772618e-19)
(0.10161887 -0.050182997 0)
(0.10367205 -0.050427465 0)
(0.10564547 -0.050547657 -1.0658709e-19)
(0.10756579 -0.050621611 5.3672602e-20)
(0.10947817 -0.050537238 -5.290586e-20)
(0.11132306 -0.050410259 -5.3671581e-19)
(0.11317488 -0.050160361 4.7838473e-19)
(0.11499789 -0.049846615 0)
(0.11683987 -0.049442497 -5.3628329e-20)
(0.11869574 -0.048947568 0)
(0.12056388 -0.048330734 2.1127269e-19)
(0.085801559 0.0061734532 6.8664333e-20)
(0.084979022 0.0057604036 -1.352595e-19)
(0.08414868 0.0053242814 -2.6282605e-19)
(0.083311634 0.0048929656 5.3099264e-19)
(0.082488607 0.004379499 -4.0101158e-19)
(0.081676597 0.0038011099 0)
(0.080873793 0.0031337215 5.4378844e-19)
(0.080092149 0.0024065357 -6.924942e-20)
(0.079323749 0.0015638598 3.4586724e-23)
(0.078551126 0.00065440652 -9.1520649e-19)
(0.077812668 -0.00036915148 -3.0964147e-23)
(0.077127754 -0.0015366718 5.8760589e-19)
(0.076491868 -0.0028428081 6.0038803e-19)
(0.075930871 -0.0042679338 -1.3911861e-18)
(0.075478901 -0.0058280844 6.3955951e-19)
(0.075116736 -0.0075199103 8.2947963e-19)
(0.074833626 -0.0093176947 -1.5633325e-18)
(0.074673671 -0.011224989 1.2474416e-23)
(0.074672092 -0.013251251 5.9498475e-19)
(0.074843247 -0.01536499 -8.6887076e-19)
(0.075195011 -0.017542007 7.312419e-19)
(0.075707468 -0.019776676 5.12209e-19)
(0.076394553 -0.022017909 2.3276001e-19)
(0.07727863 -0.024257998 -2.0157502e-19)
(0.078326519 -0.026475624 1.3875509e-21)
(0.079509826 -0.028677411 -7.9885112e-20)
(0.080855125 -0.03081578 0)
(0.082362575 -0.032854519 1.3513653e-19)
(0.083994557 -0.034805352 -1.2741142e-19)
(0.085742686 -0.036637021 1.2114183e-19)
(0.087591471 -0.038318609 0)
(0.089516496 -0.039838884 0)
(0.091493084 -0.041169359 4.361884e-19)
(0.093475669 -0.042363113 -4.2970877e-19)
(0.095459622 -0.043439604 -4.2406119e-19)
(0.097446246 -0.044359351 8.3399532e-19)
(0.099413869 -0.045092958 -9.2861489e-23)
(0.10133545 -0.045706073 -1.0236269e-19)
(0.10321944 -0.04618321 -4.0479174e-19)
(0.10505066 -0.046498614 -3.9991903e-19)
(0.10681536 -0.046716848 4.5114142e-19)
(0.10853655 -0.046914603 0)
(0.11024441 -0.046982037 -1.9942875e-19)
(0.11190397 -0.047039638 2.0220547e-19)
(0.11356642 -0.047002389 -2.0038546e-19)
(0.11521189 -0.046938842 1.0121326e-19)
(0.1168728 -0.046818421 0)
(0.1185495 -0.04663651 2.0150538e-19)
(0.12025244 -0.046339147 -1.9919924e-19)
(0.086665597 0.0047253736 -1.922197e-19)
(0.086017349 0.0043271763 1.261575e-19)
(0.085362429 0.0039036111 2.4518167e-19)
(0.084701585 0.003476163 -1.2350541e-19)
(0.084054157 0.0029817181 -3.7223653e-19)
(0.083416048 0.0024328177 7.5296488e-19)
(0.082784788 0.0018111595 -8.782324e-19)
(0.082170597 0.0011370089 5.0941109e-19)
(0.0815667 0.00036798125 -1.2753788e-19)
(0.080959347 -0.00046223719 -1.2850039e-19)
(0.080381194 -0.0013898278 -5.2208178e-19)
(0.07984802 -0.0024382636 6.1202868e-24)
(0.079356678 -0.0036051915 -1.7099409e-23)
(0.078928696 -0.0048771091 8.270356e-19)
(0.078592674 -0.0062659822 0)
(0.078335102 -0.007770257 -2.9137267e-19)
(0.078149721 -0.0093716252 0)
(0.078073585 -0.011071677 3.1740614e-19)
(0.078136477 -0.012875704 -1.6859182e-19)
(0.078351676 -0.014758095 0)
(0.078726941 -0.016698807 -4.7445031e-23)
(0.079249784 -0.018690169 -2.151613e-19)
(0.079929887 -0.020689701 0)
(0.080785351 -0.022689575 -1.7763633e-19)
(0.081790113 -0.024670589 7.7578906e-20)
(0.082921091 -0.026634838 3.5649538e-20)
(0.084196834 -0.02854165 0)
(0.085615342 -0.030359016 -1.2196044e-19)
(0.087145367 -0.032094274 -1.154526e-19)
(0.088776994 -0.033721538 -1.1030072e-19)
(0.09049444 -0.035215116 0)
(0.092275493 -0.036565603 -2.0603259e-19)
(0.094097421 -0.037750203 0)
(0.0959231 -0.038810349 -9.9267398e-20)
(0.097747076 -0.039762183 8.4060806e-23)
(0.099567537 -0.040576574 8.1599547e-23)
(0.10136551 -0.041231689 3.833376e-19)
(0.10311992 -0.041778101 4.780388e-19)
(0.1048369 -0.042205532 -7.3127891e-23)
(0.10650394 -0.042495457 -6.9099176e-23)
(0.10811152 -0.042696006 -7.5411075e-19)
(0.10967806 -0.042863631 6.7182465e-23)
(0.11123071 -0.042919329 3.759027e-19)
(0.1127409 -0.042947941 1.9040946e-19)
(0.11425445 -0.042888787 -1.8896198e-19)
(0.11575547 -0.042786876 9.5358144e-20)
(0.11727513 -0.042618327 9.5243565e-20)
(0.11881608 -0.042377326 -1.8991665e-19)
(0.12038914 -0.042027757 2.8173985e-19)
(0.087577583 0.0036641238 1.1964348e-19)
(0.08704504 0.0032557213 -4.1220337e-19)
(0.086507546 0.0028315649 0)
(0.085968632 0.0024069178 -4.6060831e-19)
(0.085444147 0.0019295654 9.2354135e-19)
(0.084930086 0.0014077886 -4.6577381e-19)
(0.084423175 0.00082592319 -1.1617915e-19)
(0.083932173 0.00019803392 1.1751335e-19)
(0.083450989 -0.00050976879 2.3475858e-19)
(0.082968633 -0.0012734256 0)
(0.082512865 -0.0021217486 0)
(0.082096749 -0.003073775 -1.2051285e-19)
(0.081718067 -0.004128814 0)
(0.081395028 -0.0052772478 -2.4793928e-19)
(0.08115184 -0.0065283981 0)
(0.080978855 -0.0078817992 -7.7615986e-19)
(0.080872732 -0.0093238368 5.3294476e-19)
(0.080864915 -0.010854763 -5.5473368e-19)
(0.080980706 -0.012477326 8.7556549e-19)
(0.081232009 -0.014170439 6.2257259e-19)
(0.081625797 -0.015917393 -5.0700305e-19)
(0.082153926 -0.017710107 1.838227e-19)
(0.082823801 -0.019511985 -1.7843558e-19)
(0.08365018 -0.021314046 1.518712e-23)
(0.084612545 -0.023099996 7.0243738e-20)
(0.085691889 -0.024869734 -6.3877662e-20)
(0.086901596 -0.026588024 0)
(0.088238188 -0.028226808 1.1032417e-19)
(0.089675047 -0.029791311 1.0488583e-19)
(0.091201871 -0.031259558 0)
(0.092803362 -0.032609823 -1.944698e-19)
(0.09445956 -0.033834603 3.7875415e-19)
(0.09614964 -0.034915123 0)
(0.09784254 -0.035886359 -9.1837728e-19)
(0.099532333 -0.036762083 7.2926125e-19)
(0.10121579 -0.037518375 0)
(0.10287611 -0.0381372 3.5750337e-19)
(0.10449682 -0.038662535 -3.574513e-19)
(0.10608197 -0.039085693 0)
(0.10762123 -0.039390352 2.6450282e-19)
(0.10910723 -0.039618595 -3.5428183e-19)
(0.11055698 -0.039822442 0)
(0.11198931 -0.039928771 8.8451365e-20)
(0.11338615 -0.040018795 -3.5828588e-19)
(0.11478172 -0.040034362 3.558868e-19)
(0.11616686 -0.040021546 3.5903545e-19)
(0.11756621 -0.039957791 -4.4825173e-19)
(0.11898351 -0.039840092 4.4699772e-19)
(0.12042893 -0.039625154 -4.422523e-19)
(0.088428702 0.002724092 -5.5930149e-20)
(0.087997137 0.0023380316 1.1012406e-19)
(0.087560637 0.0019361493 2.1421646e-19)
(0.087122476 0.0015298444 5.3766088e-19)
(0.086697529 0.00107865 -5.380479e-19)
(0.086281982 0.00058816653 -4.3317732e-19)
(0.085873075 4.5719003e-05 9.705328e-19)
(0.085478468 -0.00053890431 -5.4380507e-19)
(0.085093315 -0.0011924771 -5.4187437e-19)
(0.084708678 -0.0018980213 8.677219e-19)
(0.084348764 -0.0026783347 -4.3710972e-19)
(0.084024703 -0.0035488288 2.2019362e-19)
(0.083735054 -0.0045098577 2.2163354e-19)
(0.083495451 -0.0055545131 8.9743279e-19)
(0.083326736 -0.0066898985 -9.1104362e-19)
(0.083221984 -0.0079162338 0)
(0.083179826 -0.0092234029 0)
(0.083227345 -0.010610671 4.3739207e-23)
(0.083386297 -0.012078942 0)
(0.083667374 -0.013610557 5.4063857e-19)
(0.084077105 -0.015190922 -5.8061872e-19)
(0.084610497 -0.016812118 6.3543847e-19)
(0.085273512 -0.018442821 -3.1499091e-19)
(0.086077806 -0.020072878 4.9095705e-19)
(0.087007063 -0.021688376 -6.2927257e-20)
(0.088045157 -0.0232877 -1.1493044e-19)
(0.089201691 -0.024839926 -1.0650792e-19)
(0.090472339 -0.02631997 -3.0037993e-19)
(0.091834181 -0.027731066 -5.7306318e-19)
(0.0932768 -0.029054433 1.8392524e-19)
(0.094785431 -0.030271303 1.7841598e-19)
(0.096341837 -0.0313752 -1.7433309e-19)
(0.097926828 -0.032350388 -6.8516932e-19)
(0.099513957 -0.033225471 1.3605924e-18)
(0.10109711 -0.034012104 -6.7687985e-19)
(0.10267174 -0.034691234 0)
(0.10422249 -0.03524834 -5.0052028e-19)
(0.10573569 -0.03571949 5.01379e-19)
(0.10721405 -0.03609833 1.6645983e-19)
(0.10864815 -0.03637197 -2.4845751e-19)
(0.11003216 -0.03657424 -1.6650155e-19)
(0.1113807 -0.03674718 0)
(0.11270978 -0.036832861 -8.3310382e-20)
(0.11400417 -0.036895118 -2.5304213e-19)
(0.11529425 -0.03688815 5.8703484e-19)
(0.11657222 -0.036846959 -2.5380558e-19)
(0.11786076 -0.036753024 -1.6904971e-19)
(0.11916366 -0.03660273 -2.5286762e-19)
(0.12049115 -0.036361239 -1.6688266e-19)
(0.089255174 0.001990794 5.2349198e-19)
(0.088898886 0.001619396 2.0613723e-19)
(0.088538171 0.0012348637 -5.0154064e-19)
(0.088176947 0.00084556812 4.0218052e-19)
(0.087828279 0.00041810027 -8.037367e-19)
(0.087488846 -4.4029375e-05 3.0268034e-19)
(0.087156149 -0.00055163449 3.0092394e-19)
(0.086837015 -0.0010979384 -4.0357567e-19)
(0.086527468 -0.0017047091 0)
(0.086220304 -0.0023597841 -8.0114519e-19)
(0.085936691 -0.0030816162 8.0441837e-19)
(0.085686273 -0.0038829092 -8.0748996e-19)
(0.085468219 -0.0047646017 6.0738798e-19)
(0.085296136 -0.0057216191 -4.0817064e-19)
(0.085188133 -0.0067594452 1.2373116e-18)
(0.085139263 -0.0078786697 8.3491154e-19)
(0.085149496 -0.0090715661 -1.2750987e-18)
(0.085242363 -0.010336694 2.1836715e-19)
(0.085436697 -0.011673713 1.3583873e-18)
(0.085742073 -0.013067646 -9.4999584e-19)
(0.086164619 -0.014505424 -5.0556575e-19)
(0.086701126 -0.015979679 5.483314e-19)
(0.087356589 -0.017463501 -9.6698732e-19)
(0.088140255 -0.018945589 2.5123398e-19)
(0.089038933 -0.020414164 -5.6614063e-20)
(0.090038886 -0.021866958 1.0382054e-19)
(0.091146994 -0.023276498 9.6588656e-20)
(0.092358379 -0.024620411 5.4672984e-19)
(0.093653032 -0.025900734 -1.7442675e-19)
(0.095020733 -0.027101305 5.0527463e-19)
(0.096447398 -0.028205834 0)
(0.09791638 -0.029208892 0)
(0.099409994 -0.030097237 0)
(0.10090543 -0.030895161 3.151955e-19)
(0.10239658 -0.031612828 -3.1430342e-19)
(0.10387823 -0.032234477 3.1274196e-19)
(0.1053362 -0.032747974 -3.115523e-19)
(0.1067592 -0.033184596 1.5627432e-19)
(0.10814881 -0.033539229 -6.2398822e-19)
(0.10949642 -0.033800806 4.6655938e-19)
(0.11079711 -0.033998674 -1.5644984e-19)
(0.11206463 -0.034170512 3.1573706e-19)
(0.11331011 -0.03426457 0)
(0.1145233 -0.034339037 -7.9406238e-20)
(0.11572814 -0.034352279 1.5803123e-19)
(0.11691996 -0.034337417 -1.5932826e-19)
(0.11811749 -0.034277691 3.1848995e-19)
(0.1193251 -0.034171375 1.5884237e-19)
(0.12055127 -0.033982579 -2.2604586e-23)
(0.090026105 0.0013590313 -2.9429068e-19)
(0.089733603 0.0010111199 0)
(0.089436926 0.00065016029 -7.2143324e-24)
(0.089139556 0.00028226805 0)
(0.088853656 -0.00011934629 -3.7570345e-19)
(0.088576295 -0.00055265961 9.4143212e-20)
(0.088305569 -0.0010267303 5.6079924e-19)
(0.088047585 -0.0015369911 1.8758868e-19)
(0.087799321 -0.0021010969 -5.5846201e-19)
(0.087554928 -0.0027105063 -7.4150051e-19)
(0.087333155 -0.0033801623 7.4229244e-19)
(0.08714251 -0.0041205698 0)
(0.086982688 -0.0049330085 3.7123247e-19)
(0.086865672 -0.0058137157 -3.7281124e-19)
(0.086807381 -0.0067668646 7.5036165e-19)
(0.086804348 -0.0077932323 -7.5639311e-19)
(0.086857485 -0.0088868523 5.2457729e-23)
(0.086987422 -0.01004577 7.8364764e-19)
(0.087210595 -0.01126874 -1.2120972e-18)
(0.08753563 -0.012542861 8.4226555e-19)
(0.087968322 -0.013856265 -1.1125065e-18)
(0.08850653 -0.015202097 -2.3927375e-19)
(0.089154699 -0.016557092 0)
(0.089920273 -0.017909198 0)
(0.090792152 -0.019248266 0)
(0.091758652 -0.02057164 0)
(0.092824562 -0.021854719 0)
(0.093984687 -0.023077336 1.6630785e-19)
(0.0952214 -0.024240501 -6.3842195e-19)
(0.096524758 -0.025330144 3.0921091e-19)
(0.097881341 -0.026331891 6.0357333e-19)
(0.099275808 -0.027240973 -5.9338034e-19)
(0.10069176 -0.028046037 5.8639205e-19)
(0.1021092 -0.02876748 -5.8486885e-19)
(0.10352206 -0.029414076 2.9220925e-19)
(0.10492448 -0.029972792 -2.9147545e-19)
(0.10630314 -0.030433491 4.3656104e-19)
(0.10764828 -0.030822742 5.8486379e-19)
(0.1089606 -0.031136709 -2.9258268e-19)
(0.11023188 -0.031366324 -1.0801058e-25)
(0.11145786 -0.031536212 0)
(0.11265083 -0.031678321 -1.4850679e-19)
(0.11381965 -0.031749593 1.4781466e-19)
(0.11495578 -0.031798501 2.9921875e-19)
(0.11608022 -0.031790549 -3.7258903e-19)
(0.11718897 -0.031752932 -3.7562176e-19)
(0.11829898 -0.031671442 3.0041921e-19)
(0.11941415 -0.031544475 0)
(0.12054228 -0.031340812 1.4858436e-19)
(0.090756587 0.00085075151 -2.7593655e-19)
(0.090514644 0.00052272773 -2.7167001e-19)
(0.090268941 0.00018246099 2.6468276e-19)
(0.090022904 -0.00016560792 0)
(0.089787532 -0.00054363589 -2.6372644e-19)
(0.089560357 -0.00095071092 -6.7991369e-24)
(0.089339899 -0.001394618 5.2328828e-19)
(0.089131699 -0.0018723901 -5.2390908e-19)
(0.088933456 -0.0023985871 5.1905971e-19)
(0.088740481 -0.002967257 0)
(0.088569438 -0.0035906596 0)
(0.088427925 -0.0042775784 0)
(0.088316065 -0.0050294649 -3.4142836e-19)
(0.08824452 -0.0058434888 -6.8333744e-19)
(0.088227385 -0.0067228144 1.3706371e-18)
(0.088262328 -0.0076682793 -1.3765708e-18)
(0.088350915 -0.0086751757 3.4746551e-19)
(0.088511352 -0.009741182 2.0547481e-23)
(0.088758079 -0.010864411 7.2566625e-19)
(0.089098887 -0.012033599 3.7619324e-19)
(0.089539206 -0.013237902 -1.7023513e-23)
(0.09007759 -0.014470923 0)
(0.09071805 -0.015712376 2.1716535e-19)
(0.091466592 -0.01694991 -2.0420122e-19)
(0.092313673 -0.018174604 0)
(0.093249277 -0.0193836 -8.5584784e-20)
(0.094276614 -0.020554793 0)
(0.095390311 -0.021669963 1.521332e-19)
(0.096574678 -0.022729409 -2.9283426e-19)
(0.097820122 -0.023720828 -5.6861887e-19)
(0.099113879 -0.024631503 8.4849306e-23)
(0.10044176 -0.025457307 8.2275497e-19)
(0.10178852 -0.026188528 -5.4342956e-19)
(0.10313647 -0.026842642 2.7155017e-19)
(0.10447966 -0.027427425 0)
(0.10581187 -0.02793203 -8.1538925e-19)
(0.10712057 -0.028347968 3.9517868e-23)
(0.10839734 -0.02869845 -5.474735e-19)
(0.1096422 -0.028980608 4.1154819e-19)
(0.11084734 -0.02918684 -4.1166273e-19)
(0.11200897 -0.029338589 7.381092e-23)
(0.1131386 -0.029464249 6.9863879e-19)
(0.11424223 -0.029526037 1.3924753e-19)
(0.1153138 -0.029567182 -2.8193745e-19)
(0.11637049 -0.029557138 -2.8105361e-19)
(0.11740976 -0.029520668 3.5422198e-19)
(0.11844598 -0.029445133 7.0839989e-20)
(0.11948318 -0.029330065 1.4140915e-19)
(0.12052746 -0.029145068 -2.1046566e-19)
(0.091437772 0.0004204865 0)
(0.091238549 0.00011417432 -8.4987931e-20)
(0.091036007 -0.00020430544 0)
(0.090833115 -0.00053185279 0)
(0.090640076 -0.00088655718 0)
(0.090454787 -0.0012683236 0)
(0.090276247 -0.0016838115 -6.5185712e-19)
(0.090109494 -0.0021312502 6.5131489e-19)
(0.089952899 -0.0026226668 6.4430675e-19)
(0.089802716 -0.0031540693 -1.2779384e-18)
(0.089673864 -0.0037355424 6.363557e-19)
(0.089573207 -0.0043744615 0)
(0.089501233 -0.005072348 6.2955295e-19)
(0.089467514 -0.0058270501 -3.1408852e-19)
(0.089484632 -0.0066409193 -3.1401408e-19)
(0.089551136 -0.0075147759 1.2572837e-18)
(0.089669058 -0.0084448376 -6.3245992e-19)
(0.089854563 -0.0094285182 -6.4114464e-19)
(0.090120417 -0.010463461 1.8616374e-23)
(0.090473686 -0.011539708 3.3808362e-19)
(0.090919437 -0.012647285 -3.5329001e-19)
(0.091456722 -0.013780171 -3.7482888e-19)
(0.092089171 -0.014920491 3.8889161e-19)
(0.092821647 -0.016055942 0)
(0.093645815 -0.017178522 8.4379036e-20)
(0.094552991 -0.018285227 2.4854317e-26)
(0.095545169 -0.019356109 0)
(0.096616901 -0.020374609 0)
(0.097754112 -0.021340449 0)
(0.098947568 -0.022242777 1.0478061e-18)
(0.10018513 -0.023070227 -5.1225897e-23)
(0.10145358 -0.023819146 -7.6154301e-19)
(0.10273869 -0.024481124 5.0427341e-19)
(0.10402463 -0.0250711 0)
(0.10530553 -0.025595929 -2.5317767e-19)
(0.10657487 -0.026046525 2.5367127e-19)
(0.10782076 -0.026415748 -2.5433604e-19)
(0.10903568 -0.026723748 7.6922768e-19)
(0.1102191 -0.026968495 0)
(0.11136345 -0.027143739 0)
(0.11246525 -0.027267947 5.2058223e-19)
(0.11353502 -0.027365809 -5.2612043e-19)
(0.11457706 -0.027405185 5.2506906e-19)
(0.11558644 -0.027423161 -3.9868157e-19)
(0.11657809 -0.027393838 0)
(0.11754991 -0.027338364 -6.6847572e-20)
(0.1185147 -0.027245867 -6.6873801e-20)
(0.11947612 -0.027116211 -2.0035571e-19)
(0.12043933 -0.026922035 -1.3257505e-19)
(0.092077974 7.0452417e-05 -3.2419782e-19)
(0.091913827 -0.00021646998 7.9807666e-20)
(0.091746849 -0.00051524827 1.5568445e-19)
(0.091579736 -0.0008237908 0)
(0.091421842 -0.0011570925 0)
(0.091271431 -0.0015156594 1.5407278e-19)
(0.09112787 -0.0019052658 1.5240775e-19)
(0.09099578 -0.0023250237 0)
(0.090874064 -0.0027849688 0)
(0.090759772 -0.0032825538 2.9728084e-19)
(0.090666311 -0.0038261397 0)
(0.09059993 -0.0044219642 0)
(0.090561414 -0.0050715533 -5.8174175e-19)
(0.09055942 -0.0057732516 2.8942287e-19)
(0.090605243 -0.0065287683 0)
(0.090698126 -0.0073388583 -5.7606928e-19)
(0.090840425 -0.008200417 -5.7770317e-19)
(0.091046566 -0.0091106736 5.8372503e-19)
(0.091327897 -0.010066936 1.1886423e-18)
(0.091690844 -0.011060303 -6.1095412e-19)
(0.092140113 -0.012081553 -6.354331e-19)
(0.092675124 -0.013124988 3.354168e-19)
(0.093299145 -0.014174711 -3.5007849e-19)
(0.09401609 -0.01521869 -8.4229632e-20)
(0.094818602 -0.01624963 7.8219654e-20)
(0.095699062 -0.017264435 0)
(0.096658515 -0.018245051 2.6889449e-19)
(0.097691503 -0.019176381 0)
(0.098785296 -0.020057728 4.9575036e-19)
(0.099931017 -0.020879473 -3.1066306e-23)
(0.10111711 -0.021631438 -4.7544096e-19)
(0.10233123 -0.022310411 -6.6090861e-23)
(0.10356003 -0.022909128 -4.6838035e-19)
(0.10478924 -0.023440516 -4.6962319e-19)
(0.10601309 -0.023910738 -1.1797864e-18)
(0.10722495 -0.024312227 9.4764705e-19)
(0.1084135 -0.024639043 0)
(0.10957205 -0.024908975 -2.4025232e-19)
(0.11069965 -0.025120729 0)
(0.11178902 -0.025269211 4.8500726e-19)
(0.11283696 -0.02537065 2.4488898e-19)
(0.11385329 -0.025447001 -5.794165e-23)
(0.11484059 -0.02547033 -4.9509227e-19)
(0.11579525 -0.025473457 3.6684928e-24)
(0.11672979 -0.025433775 -2.5030521e-19)
(0.11764283 -0.025370236 2.5239545e-19)
(0.11854539 -0.025273268 -2.5257889e-19)
(0.11944108 -0.025143451 5.6782018e-19)
(0.12033367 -0.024954798 6.2649175e-20)
(0.092675693 -0.00022089946 -3.0461423e-19)
(0.092541366 -0.00048878194 7.4985358e-20)
(0.09240473 -0.00076840085 2.9273142e-19)
(0.092268078 -0.0010584936 7.2931339e-19)
(0.092140086 -0.0013714151 -5.7966747e-19)
(0.092019312 -0.0017081114 -1.443867e-19)
(0.091905473 -0.0020735912 -1.4268319e-19)
(0.091802821 -0.0024676267 -5.6821381e-19)
(0.091710718 -0.0028986166 8.4082848e-19)