/*--------------------------------*- C++ -*----------------------------------*\
| =========                 |                                                 |
| \\      /  F ield         | OpenFOAM: The Open Source CFD Toolbox           |
|  \\    /   O peration     | Version:  v2006                                 |
|   \\  /    A nd           | Website:  www.openfoam.com                      |
|    \\/     M anipulation  |                                                 |
\*---------------------------------------------------------------------------*/
FoamFile
{
    version     2.0;
    format      ascii;
    class       volVectorField;
    location    "3500";
    object      wallShearStress;
}
// * * * * * * * * * * * * * * * * * * * * * * * * * * * * * * * * * * * * * //

dimensions      [1 -1 -2 0 0 0 0];


internalField   uniform (0 0 0);

boundaryField
{
    Side
    {
        type            empty;
    }
    Inlet
    {
        type            calculated;
        value           uniform (0 0 0);
    }
    Wing
    {
        type            calculated;
        value           nonuniform List<vector> 
139
(
(-3.0073167e-05 -1.026316e-05 3.1914483e-23)
(-2.9142984e-05 -1.0472394e-05 -3.1784378e-23)
(-2.6607124e-05 -9.4369335e-06 3.175111e-23)
(-2.2640915e-05 -8.9321974e-06 0)
(-1.9635998e-05 -8.172255e-06 5.8774718e-39)
(-1.6798677e-05 -7.2552754e-06 -6.4976074e-23)
(-1.4566809e-05 -5.9266312e-06 4.8567039e-23)
(-1.2058621e-05 -4.6985962e-06 0)
(-1.0408308e-05 -3.2331757e-06 -1.05062e-22)
(-8.5604939e-06 -1.890028e-06 -8.028829e-24)
(-6.9832711e-06 -8.9656575e-07 1.464068e-22)
(-5.861586e-06 -1.8435269e-07 -1.2949074e-22)
(-4.8633465e-06 3.9719144e-07 1.305974e-22)
(-4.1598803e-06 8.6518102e-07 1.3747485e-22)
(-3.8384145e-06 1.3072117e-06 -1.5358888e-22)
(-3.7388611e-06 1.8862718e-06 -5.8774718e-39)
(-3.7763838e-06 2.583382e-06 3.0694454e-24)
(-3.8340541e-06 3.4390507e-06 -2.6331578e-24)
(-3.9829455e-06 4.428825e-06 1.5070648e-22)
(-4.2994498e-06 5.5770841e-06 -1.3808339e-22)
(-4.6466889e-06 6.9067574e-06 6.4865778e-23)
(-4.9606823e-06 8.317639e-06 -1.2206023e-22)
(-5.6630124e-06 9.7834088e-06 5.9460073e-23)
(-6.5611329e-06 1.1475751e-05 -2.7090439e-24)
(-7.0378179e-06 1.3314585e-05 1.4172216e-23)
(-7.3165978e-06 1.5089519e-05 -1.1787571e-23)
(-8.5014715e-06 1.6705249e-05 5.4986254e-23)
(-9.9582253e-06 1.862802e-05 -5.516697e-23)
(-1.0855306e-05 2.0692168e-05 -1.4693679e-39)
(-1.2365012e-05 2.2670213e-05 -1.1238536e-22)
(-1.4445976e-05 2.4697223e-05 1.1236255e-22)
(-1.7013676e-05 2.6828672e-05 -2.2813119e-22)
(-2.0284728e-05 2.9856348e-05 2.292055e-22)
(-2.2124338e-05 3.3342397e-05 -1.1491558e-22)
(-2.3916855e-05 3.6358595e-05 1.1626189e-22)
(-2.7130873e-05 3.8283141e-05 1.1422504e-22)
(-3.1332263e-05 4.0559348e-05 2.0540281e-25)
(-3.4344476e-05 4.3472726e-05 -2.3496655e-22)
(-3.8659735e-05 4.5328637e-05 1.2743415e-22)
(-4.4364447e-05 4.6787301e-05 1.1914701e-22)
(-4.873758e-05 4.9166854e-05 -1.187197e-22)
(-5.0558499e-05 5.0536848e-05 7.435478e-24)
(-5.4562916e-05 4.9483768e-05 1.4880602e-23)
(-5.5594075e-05 4.9891582e-05 -5.9553686e-23)
(-5.7394545e-05 4.7714206e-05 1.3482741e-22)
(-5.7200281e-05 4.6077295e-05 -5.9499286e-23)
(-5.6154978e-05 4.2981542e-05 0)
(-5.447847e-05 3.9688265e-05 6.0665069e-23)
(-5.3146895e-05 3.6388912e-05 -1.4693679e-39)
(-1.6566902e-05 -1.4784541e-06 -4.0120981e-21)
(-1.3797694e-05 -8.4243112e-07 -9.6978284e-38)
(-1.3188402e-05 -5.3870312e-08 -2.2567037e-22)
(-1.5011971e-05 3.3993729e-07 -6.3286272e-23)
(-1.8051737e-05 5.1976382e-07 1.0163276e-21)
(-2.0452079e-05 4.5356245e-07 -4.7907456e-22)
(-2.2009753e-05 3.383985e-07 9.1835496e-40)
(-2.3251635e-05 1.8663997e-07 3.2223661e-23)
(-2.4237366e-05 2.0885614e-08 9.6792729e-23)
(-2.5080151e-05 -1.4599909e-07 1.0696077e-27)
(-2.580421e-05 -3.3031492e-07 3.2501006e-23)
(-2.6360416e-05 -4.9418692e-07 3.2522635e-23)
(-2.6897217e-05 -6.5506097e-07 -4.9352613e-28)
(-2.7388682e-05 -8.2757143e-07 -3.2728494e-23)
(-2.7727274e-05 -9.9126718e-07 2.6230652e-22)
(-2.7879668e-05 -1.1313927e-06 1.3160487e-22)
(-2.7975048e-05 -1.2418308e-06 -1.3183493e-22)
(-2.8209464e-05 -1.369967e-06 2.8698593e-42)
(-2.8572145e-05 -1.5482178e-06 -1.3154361e-22)
(-2.9054676e-05 -1.8060924e-06 -4.5917748e-41)
(-2.9600559e-05 -2.1507281e-06 -1.6443569e-23)
(-3.0005345e-05 -2.5423969e-06 1.6482022e-23)
(-3.0152839e-05 -2.9441376e-06 1.322606e-22)
(-2.9943629e-05 -3.3071095e-06 -1.3218044e-22)
(-2.9671882e-05 -3.6697118e-06 1.3481848e-22)
(-2.9419334e-05 -4.0442184e-06 -1.3498549e-22)
(-2.8971425e-05 -4.3998074e-06 -1.8367099e-40)
(-2.8521523e-05 -4.7745473e-06 -6.6722542e-23)
(-2.8046037e-05 -5.144135e-06 -1.666757e-23)
(-2.7714328e-05 -5.62871e-06 1.6653683e-23)
(-2.7556125e-05 -6.1919327e-06 -3.3142337e-23)
(-2.7652071e-05 -7.044488e-06 1.8367099e-40)
(-2.8260797e-05 -8.1739152e-06 0)
(-2.9419058e-05 -9.671624e-06 -3.6734198e-39)
(-5.2381263e-05 -9.5521849e-07 2.8789586e-23)
(-5.0503469e-05 -1.3694194e-06 3.0869627e-23)
(-4.9053938e-05 -1.6859183e-06 -5.2485248e-27)
(-4.7780909e-05 -1.9651198e-06 -6.6177108e-23)
(-4.6588386e-05 -2.2297182e-06 3.9039129e-24)
(-4.5370051e-05 -2.4919722e-06 5.8669487e-23)
(-4.3920654e-05 -2.7598159e-06 1.2533567e-22)
(-4.2421159e-05 -2.994637e-06 1.2567238e-22)
(-4.1124367e-05 -3.1912251e-06 5.0786074e-22)
(-4.0031427e-05 -3.3734858e-06 -2.5241204e-22)
(-3.9038833e-05 -3.5618012e-06 -2.5253926e-22)
(-3.8074222e-05 -3.761528e-06 2.6035728e-22)
(-3.694812e-05 -3.9813399e-06 -5.1138933e-22)
(-3.5670054e-05 -4.1903173e-06 -7.8587604e-24)
(-3.4444137e-05 -4.3737717e-06 -9.967323e-22)
(-3.328648e-05 -4.5686738e-06 1.002492e-21)
(-3.1911002e-05 -4.7496239e-06 7.3468397e-39)
(-3.0409507e-05 -4.8962007e-06 -4.4079559e-27)
(-2.9002361e-05 -5.0251048e-06 1.9759604e-21)
(-2.7397761e-05 -5.1377295e-06 -1.9592779e-21)
(-2.5518256e-05 -5.1726346e-06 1.898135e-24)
(-2.3464464e-05 -5.1617613e-06 3.8490576e-21)
(-2.0819112e-05 -4.9613641e-06 -3.6832561e-24)
(-1.9329049e-05 -4.9024117e-06 1.4694265e-23)
(-1.1592719e-05 -3.9237007e-06 -6.5535906e-21)
(-5.2282462e-05 3.3672438e-05 5.8774718e-39)
(-5.2098693e-05 3.1455524e-05 -6.3220695e-23)
(-5.2324037e-05 2.9816173e-05 -5.8774718e-39)
(-5.2722789e-05 2.8460357e-05 3.2031579e-23)
(-5.3544808e-05 2.7354599e-05 3.2009569e-23)
(-5.4490177e-05 2.6470266e-05 -1.5984131e-23)
(-5.6089685e-05 2.570573e-05 1.5915032e-23)
(-5.7285007e-05 2.5186822e-05 7.3468397e-40)
(-5.8347087e-05 2.4401877e-05 6.3370273e-23)
(-5.9678806e-05 2.3812635e-05 -6.3139549e-23)
(-6.1043709e-05 2.3180896e-05 -1.4693679e-39)
(-6.2841523e-05 2.2587096e-05 6.2419974e-23)
(-6.4115824e-05 2.1978054e-05 6.2227385e-23)
(-6.5559414e-05 2.1144636e-05 -7.3468397e-40)
(-6.6612157e-05 2.0401468e-05 -1.9237806e-24)
(-6.7784702e-05 1.9382155e-05 1.9070175e-24)
(-6.8952913e-05 1.8507021e-05 -2.2958874e-41)
(-6.9661599e-05 1.7363192e-05 2.2040519e-39)
(-7.0467608e-05 1.6222368e-05 6.0761849e-23)
(-7.0701942e-05 1.4969124e-05 -1.205852e-22)
(-7.1775488e-05 1.3611293e-05 5.9566217e-23)
(-7.2071164e-05 1.2377757e-05 0)
(-7.1576235e-05 1.0691866e-05 9.2935227e-25)
(-7.0898818e-05 9.2220992e-06 -6.013317e-23)
(-6.9192143e-05 7.5333571e-06 -1.8367099e-40)
(-6.8321422e-05 5.9866902e-06 2.973138e-23)
(-6.6321821e-05 4.7020947e-06 -1.4877532e-23)
(-6.3501036e-05 3.0400524e-06 -1.9773469e-24)
(-6.0748744e-05 1.7286175e-06 2.326549e-25)
(-5.7521722e-05 5.2909098e-07 9.3921064e-25)
(-5.4617569e-05 -3.4747799e-07 9.4772949e-25)
)
;
    }
    Outlet
    {
        type            calculated;
        value           uniform (0 0 0);
    }
    Ground
    {
        type            calculated;
        value           uniform (0 0 0);
    }
}


// ************************************************************************* //
