/*--------------------------------*- C++ -*----------------------------------*\
| =========                 |                                                 |
| \\      /  F ield         | OpenFOAM: The Open Source CFD Toolbox           |
|  \\    /   O peration     | Version:  v2006                                 |
|   \\  /    A nd           | Website:  www.openfoam.com                      |
|    \\/     M anipulation  |                                                 |
\*---------------------------------------------------------------------------*/
FoamFile
{
    version     2.0;
    format      ascii;
    class       volScalarField;
    location    "3500";
    object      yPlus;
}
// * * * * * * * * * * * * * * * * * * * * * * * * * * * * * * * * * * * * * //

dimensions      [0 0 0 0 0 0 0];


internalField   uniform 0;

boundaryField
{
    Side
    {
        type            empty;
    }
    Inlet
    {
        type            calculated;
        value           uniform 0;
    }
    Wing
    {
        type            calculated;
        value           nonuniform List<scalar> 
139
(
88.864986
86.738452
79.339467
73.5175
67.824159
63.227305
56.8436
52.135917
46.240049
39.423098
34.355785
30.612731
26.828323
23.996529
23.313005
24.221684
26.220943
29.714461
34.597406
39.967134
45.478757
50.701935
56.234041
61.776213
67.217494
71.881472
75.954812
79.897229
84.222429
87.306302
89.730214
91.826965
96.366971
101.74598
103.94264
104.01585
107.15769
110.07467
110.3128
114.10382
121.07278
124.42344
125.0988
129.14385
127.91108
129.24273
127.04457
124.02661
120.51421
60.986797
56.304766
55.916392
60.086782
65.916405
70.027015
72.530559
74.463681
75.937782
77.184349
78.227491
79.014966
79.785033
80.473289
80.938938
81.147244
81.320775
81.71233
82.282256
83.025628
83.836794
84.415517
84.639759
84.360232
84.111509
83.862309
83.37861
82.964303
82.529342
82.458789
82.682778
83.550588
85.321359
88.055944
110.40852
108.39181
106.81825
105.41361
104.08651
102.69143
101.00699
99.266116
97.749384
96.457497
95.264603
94.086277
92.673808
91.073406
89.531217
88.061733
86.257583
84.316828
82.477868
80.30972
77.728042
74.795379
70.831489
68.663875
53.434012
117.74063
115.59415
114.49523
113.74886
113.46452
113.6992
114.29799
115.59497
115.96357
117.01772
118.05824
119.47084
121.00042
122.02607
123.45781
124.27337
125.73041
126.47118
127.35834
127.82256
128.66666
129.52594
129.0828
128.75881
127.28011
126.48821
124.83829
122.07146
119.24672
115.88102
112.81607
)
;
    }
    Outlet
    {
        type            calculated;
        value           uniform 0;
    }
    Ground
    {
        type            calculated;
        value           nonuniform List<scalar> 
154
(
81.654512
84.696388
87.772275
90.730573
93.573948
96.322756
98.97688
101.53531
103.9998
106.37285
108.65335
110.84936
112.94706
114.98328
116.88032
118.80043
120.45608
122.2893
124.00534
125.6997
127.29886
129.0477
130.61055
132.13429
133.6159
135.03619
136.40674
137.7344
139.02216
140.2733
141.49088
142.67753
143.83555
144.96705
146.07393
147.15796
148.22077
149.26386
150.28865
151.29645
152.28849
153.26594
154.22987
155.18131
156.12121
157.05047
157.96995
158.88044
159.78271
160.67746
161.5654
162.44715
163.32334
164.19455
165.06133
165.92422
166.78371
167.64029
168.49441
169.34652
170.19702
171.0463
171.8947
172.74254
173.59002
174.43737
175.28441
176.13133
176.97646
177.82194
178.6551
179.51035
180.2471
181.38113
57.247657
54.113469
51.468049
49.258032
47.530751
46.344175
45.728647
45.678893
46.159701
47.117905
48.485906
50.190932
52.16266
54.337576
56.661018
59.087503
61.580085
64.109047
66.651242
69.186967
71.705475
74.182026
76.650283
78.964209
130.81475
130.02544
129.12867
128.10288
126.95425
125.66825
124.22549
122.60882
120.80009
118.78119
116.53791
114.05329
111.34261
108.36481
105.12588
101.62368
97.86461
93.860399
89.621838
85.184018
80.55045
75.750411
70.815814
65.746983
60.70594
475.53866
400.95455
342.20094
305.93694
277.79194
253.82197
234.36927
218.79755
206.03431
195.18848
186.10383
178.37281
171.74273
166.03131
161.09932
156.81078
153.07544
149.81363
146.95668
144.45649
142.25612
140.33966
138.65933
137.20784
135.95263
134.86226
133.94039
133.16795
132.55097
132.01136
131.66661
)
;
    }
}


// ************************************************************************* //
