/*--------------------------------*- C++ -*----------------------------------*\
| =========                 |                                                 |
| \\      /  F ield         | OpenFOAM: The Open Source CFD Toolbox           |
|  \\    /   O peration     | Version:  v2006                                 |
|   \\  /    A nd           | Website:  www.openfoam.com                      |
|    \\/     M anipulation  |                                                 |
\*---------------------------------------------------------------------------*/
FoamFile
{
    version     2.0;
    format      ascii;
    class       volScalarField;
    location    "6000";
    object      alphat;
}
// * * * * * * * * * * * * * * * * * * * * * * * * * * * * * * * * * * * * * //

dimensions      [1 -1 -1 0 0 0 0];


internalField   nonuniform List<scalar> 
55713
(
2.7710928e-10
2.8814885e-09
2.8918858e-08
6.9339543e-08
8.9619404e-08
9.5668548e-08
9.589992e-08
9.5048871e-08
9.4487476e-08
9.4282513e-08
9.4249468e-08
9.4261718e-08
9.4274079e-08
9.4279248e-08
9.427915e-08
9.4277721e-08
9.4277063e-08
9.4276727e-08
9.4276372e-08
9.4276492e-08
9.4276937e-08
9.4277145e-08
9.4277002e-08
9.4276823e-08
9.4276815e-08
9.4276836e-08
9.4276847e-08
9.4276731e-08
9.4276604e-08
9.42764e-08
9.4276178e-08
9.427594e-08
9.4275729e-08
9.4275616e-08
9.4275809e-08
9.4276691e-08
9.4276691e-08
9.4275987e-08
9.4274846e-08
9.4273514e-08
9.4272275e-08
9.4271206e-08
9.4270218e-08
9.4269241e-08
9.4268358e-08
9.4267572e-08
9.4266834e-08
9.4266078e-08
9.4265293e-08
9.426445e-08
9.4263529e-08
9.4262512e-08
9.4261429e-08
9.4260324e-08
9.4259218e-08
9.4258108e-08
9.425701e-08
9.4255874e-08
9.4254629e-08
3.3674021e-10
4.180281e-09
3.5951813e-08
7.6187671e-08
9.3056991e-08
9.6973141e-08
9.6593958e-08
9.5764582e-08
9.5334189e-08
9.5209472e-08
9.5203183e-08
9.5217491e-08
9.5226661e-08
9.5229211e-08
9.5227583e-08
9.522583e-08
9.522503e-08
9.5224369e-08
9.5223668e-08
9.5223391e-08
9.5223369e-08
9.522308e-08
9.5222571e-08
9.5222094e-08
9.5221783e-08
9.5221465e-08
9.5221118e-08
9.5220663e-08
9.5220208e-08
9.5219674e-08
9.5219112e-08
9.5218537e-08
9.5217965e-08
9.5217481e-08
9.5217276e-08
9.5217903e-08
9.5217747e-08
9.5216697e-08
9.5215186e-08
9.5213468e-08
9.5211835e-08
9.5210395e-08
9.5209031e-08
9.5207655e-08
9.5206355e-08
9.5205157e-08
9.5203998e-08
9.5202808e-08
9.5201566e-08
9.5200253e-08
9.5198838e-08
9.5197294e-08
9.5195633e-08
9.5193904e-08
9.5192127e-08
9.5190289e-08
9.518839e-08
9.5186379e-08
9.5184171e-08
4.2178599e-10
5.8786235e-09
4.3445725e-08
8.2301211e-08
9.5731379e-08
9.8038557e-08
9.7314934e-08
9.6572336e-08
9.6262996e-08
9.6197814e-08
9.6206075e-08
9.6219167e-08
9.6225241e-08
9.622501e-08
9.62227e-08
9.6220811e-08
9.6219782e-08
9.6218809e-08
9.6217777e-08
9.6217107e-08
9.6216572e-08
9.6215832e-08
9.6214982e-08
9.621423e-08
9.6213616e-08
9.621297e-08
9.6212295e-08
9.6211516e-08
9.6210751e-08
9.6209894e-08
9.6209022e-08
9.6208129e-08
9.620723e-08
9.6206388e-08
9.6205786e-08
9.6206116e-08
9.6205914e-08
9.620454e-08
9.6202681e-08
9.6200592e-08
9.6198582e-08
9.6196799e-08
9.6195093e-08
9.6193355e-08
9.6191668e-08
9.6190086e-08
9.6188536e-08
9.618695e-08
9.6185291e-08
9.6183547e-08
9.6181684e-08
9.6179666e-08
9.6177482e-08
9.6175186e-08
9.6172802e-08
9.6170311e-08
9.6167693e-08
9.6164897e-08
9.6161803e-08
5.4453242e-10
8.1996543e-09
5.158966e-08
8.780969e-08
9.7964493e-08
9.8986951e-08
9.8089611e-08
9.7477607e-08
9.7276997e-08
9.7253118e-08
9.7266898e-08
9.7276783e-08
9.7279186e-08
9.7277596e-08
9.7274943e-08
9.7272872e-08
9.7271621e-08
9.7270371e-08
9.7269031e-08
9.7267967e-08
9.7266954e-08
9.7265816e-08
9.7264656e-08
9.7263657e-08
9.7262756e-08
9.7261816e-08
9.7260824e-08
9.7259745e-08
9.725869e-08
9.7257546e-08
9.7256395e-08
9.7255214e-08
9.7254015e-08
9.7252845e-08
9.7251878e-08
9.7251885e-08
9.7251702e-08
9.7250061e-08
9.7247889e-08
9.7245454e-08
9.7243086e-08
9.7240983e-08
9.7238978e-08
9.7236923e-08
9.7234882e-08
9.7232949e-08
9.7231039e-08
9.7229094e-08
9.7227053e-08
9.7224919e-08
9.7222651e-08
9.722021e-08
9.7217557e-08
9.7214744e-08
9.7211805e-08
9.7208723e-08
9.7205447e-08
9.720194e-08
9.7198034e-08
7.2248493e-10
1.12913e-08
6.0087461e-08
9.2558973e-08
9.9792822e-08
9.9874579e-08
9.895143e-08
9.848926e-08
9.8375268e-08
9.8375716e-08
9.8388696e-08
9.8394234e-08
9.8394539e-08
9.8392076e-08
9.8389101e-08
9.8386856e-08
9.8385425e-08
9.8383912e-08
9.8382298e-08
9.8380883e-08
9.8379469e-08
9.837796e-08
9.8376517e-08
9.8375276e-08
9.837412e-08
9.8372912e-08
9.837164e-08
9.8370296e-08
9.8368972e-08
9.8367566e-08
9.8366155e-08
9.8364718e-08
9.8363254e-08
9.8361805e-08
9.8360511e-08
9.8360179e-08
9.8360041e-08
9.8358235e-08
9.8355795e-08
9.8353048e-08
9.835036e-08
9.8347971e-08
9.8345709e-08
9.8343385e-08
9.8341036e-08
9.8338785e-08
9.8336559e-08
9.8334305e-08
9.8331937e-08
9.8329465e-08
9.832685e-08
9.8324053e-08
9.8321004e-08
9.8317747e-08
9.8314325e-08
9.8310739e-08
9.8306896e-08
9.8302781e-08
9.8298166e-08
9.828215e-10
1.5348194e-08
6.8663876e-08
9.6140112e-08
1.0131867e-07
1.007643e-07
9.992492e-08
9.9609905e-08
9.9557554e-08
9.9568702e-08
9.9577136e-08
9.9579911e-08
9.9578776e-08
9.9575564e-08
9.9572311e-08
9.9569952e-08
9.9568342e-08
9.9566567e-08
9.9564732e-08
9.9563082e-08
9.9561357e-08
9.9559515e-08
9.9557793e-08
9.9556313e-08
9.9554935e-08
9.9553496e-08
9.9551988e-08
9.9550416e-08
9.9548857e-08
9.9547232e-08
9.9545594e-08
9.9543943e-08
9.9542247e-08
9.9540564e-08
9.9538986e-08
9.9538315e-08
9.9538194e-08
9.9536387e-08
9.9533719e-08
9.9530703e-08
9.9527736e-08
9.9525105e-08
9.9522638e-08
9.9520101e-08
9.9517497e-08
9.9514976e-08
9.9512486e-08
9.9509986e-08
9.9507353e-08
9.9504604e-08
9.9501712e-08
9.9498633e-08
9.9495277e-08
9.9491659e-08
9.9487839e-08
9.9483847e-08
9.9479544e-08
9.947494e-08
9.9469735e-08
1.3681319e-09
2.0582956e-08
7.6919246e-08
9.9021481e-08
1.0256033e-07
1.0169623e-07
1.0102842e-07
1.0083988e-07
1.0082544e-07
1.0083678e-07
1.0084108e-07
1.008422e-07
1.0083999e-07
1.008361e-07
1.0083265e-07
1.0083023e-07
1.0082841e-07
1.0082636e-07
1.0082443e-07
1.008227e-07
1.0082074e-07
1.0081858e-07
1.0081658e-07
1.0081489e-07
1.0081332e-07
1.0081169e-07
1.0081e-07
1.0080824e-07
1.0080649e-07
1.008047e-07
1.0080288e-07
1.0080106e-07
1.0079919e-07
1.0079732e-07
1.0079553e-07
1.0079454e-07
1.0079435e-07
1.0079276e-07
1.007899e-07
1.0078666e-07
1.0078346e-07
1.0078064e-07
1.0077803e-07
1.0077536e-07
1.0077257e-07
1.0076985e-07
1.0076716e-07
1.0076449e-07
1.0076167e-07
1.0075872e-07
1.0075564e-07
1.0075237e-07
1.0074881e-07
1.0074494e-07
1.0074082e-07
1.0073655e-07
1.0073191e-07
1.0072697e-07
1.0072132e-07
1.951273e-09
2.7220512e-08
8.5018164e-08
1.0204339e-07
1.0365687e-07
1.0274086e-07
1.0227409e-07
1.021776e-07
1.0218264e-07
1.0218914e-07
1.0219056e-07
1.021909e-07
1.0218772e-07
1.0218327e-07
1.0217967e-07
1.0217726e-07
1.0217519e-07
1.021729e-07
1.0217105e-07
1.0216937e-07
1.0216719e-07
1.0216475e-07
1.0216249e-07
1.0216063e-07
1.0215891e-07
1.0215715e-07
1.0215532e-07
1.0215343e-07
1.0215156e-07
1.0214964e-07
1.0214772e-07
1.0214577e-07
1.0214379e-07
1.0214181e-07
1.0213987e-07
1.0213861e-07
1.0213831e-07
1.0213715e-07
1.0213414e-07
1.0213072e-07
1.0212734e-07
1.0212441e-07
1.0212174e-07
1.0211902e-07
1.0211613e-07
1.0211329e-07
1.021105e-07
1.0210776e-07
1.0210486e-07
1.0210181e-07
1.0209863e-07
1.0209527e-07
1.0209164e-07
1.0208766e-07
1.0208337e-07
1.0207897e-07
1.0207416e-07
1.0206904e-07
1.0206314e-07
2.8794115e-09
3.5472757e-08
9.2221346e-08
1.043364e-07
1.0476643e-07
1.039605e-07
1.0366437e-07
1.0362623e-07
1.0363531e-07
1.0363705e-07
1.0363739e-07
1.0363746e-07
1.0363335e-07
1.0362846e-07
1.036248e-07
1.0362255e-07
1.0362018e-07
1.0361766e-07
1.0361605e-07
1.0361446e-07
1.0361209e-07
1.0360944e-07
1.0360703e-07
1.0360506e-07
1.0360324e-07
1.036014e-07
1.0359949e-07
1.0359754e-07
1.0359559e-07
1.0359363e-07
1.0359167e-07
1.0358968e-07
1.0358767e-07
1.0358565e-07
1.0358365e-07
1.0358221e-07
1.0358186e-07
1.0358112e-07
1.0357817e-07
1.0357462e-07
1.0357109e-07
1.0356814e-07
1.0356552e-07
1.0356285e-07
1.0355998e-07
1.0355712e-07
1.0355434e-07
1.0355168e-07
1.0354881e-07
1.0354579e-07
1.0354263e-07
1.0353931e-07
1.0353576e-07
1.0353185e-07
1.0352755e-07
1.0352319e-07
1.0351841e-07
1.0351335e-07
1.0350741e-07
4.4886541e-09
4.5491547e-08
9.8585349e-08
1.0633135e-07
1.0599287e-07
1.053595e-07
1.0519678e-07
1.0519065e-07
1.0519675e-07
1.0519492e-07
1.0519534e-07
1.0519524e-07
1.0519029e-07
1.0518513e-07
1.0518162e-07
1.051797e-07
1.0517697e-07
1.051742e-07
1.0517287e-07
1.0517135e-07
1.0516893e-07
1.0516625e-07
1.0516384e-07
1.0516186e-07
1.0515999e-07
1.0515813e-07
1.0515619e-07
1.0515427e-07
1.0515233e-07
1.0515041e-07
1.0514848e-07
1.0514655e-07
1.051446e-07
1.0514263e-07
1.0514067e-07
1.0513918e-07
1.0513881e-07
1.0513859e-07
1.0513597e-07
1.051323e-07
1.0512868e-07
1.051258e-07
1.0512334e-07
1.0512088e-07
1.0511816e-07
1.0511538e-07
1.0511276e-07
1.0511035e-07
1.0510769e-07
1.0510484e-07
1.0510186e-07
1.0509874e-07
1.0509544e-07
1.0509183e-07
1.0508771e-07
1.0508363e-07
1.0507913e-07
1.0507437e-07
1.0506869e-07
7.2003724e-09
5.7299642e-08
1.0383288e-07
1.0810171e-07
1.0738153e-07
1.0694815e-07
1.068759e-07
1.0688141e-07
1.068824e-07
1.0687889e-07
1.0688021e-07
1.068797e-07
1.0687393e-07
1.0686895e-07
1.0686602e-07
1.068646e-07
1.0686122e-07
1.0685808e-07
1.0685719e-07
1.0685575e-07
1.0685352e-07
1.0685108e-07
1.0684887e-07
1.0684698e-07
1.0684513e-07
1.0684331e-07
1.0684147e-07
1.0683966e-07
1.0683786e-07
1.0683609e-07
1.068343e-07
1.0683253e-07
1.0683075e-07
1.0682896e-07
1.0682715e-07
1.0682573e-07
1.0682541e-07
1.0682579e-07
1.0682392e-07
1.0682016e-07
1.068165e-07
1.0681379e-07
1.0681163e-07
1.0680958e-07
1.0680719e-07
1.0680461e-07
1.0680229e-07
1.0680038e-07
1.0679812e-07
1.0679563e-07
1.0679303e-07
1.0679029e-07
1.0678745e-07
1.067844e-07
1.0678075e-07
1.067772e-07
1.0677332e-07
1.0676915e-07
1.0676409e-07
1.1071636e-08
7.0828474e-08
1.0728674e-07
1.0970458e-07
1.0897459e-07
1.0873077e-07
1.087084e-07
1.0871297e-07
1.0871064e-07
1.0870729e-07
1.0871014e-07
1.0870875e-07
1.0870219e-07
1.0869811e-07
1.086963e-07
1.0869549e-07
1.0869102e-07
1.0868739e-07
1.0868729e-07
1.0868609e-07
1.0868416e-07
1.0868219e-07
1.0868037e-07
1.086787e-07
1.0867704e-07
1.0867543e-07
1.0867383e-07
1.0867229e-07
1.0867074e-07
1.0866926e-07
1.0866774e-07
1.0866629e-07
1.086648e-07
1.0866334e-07
1.0866185e-07
1.0866063e-07
1.0866044e-07
1.0866139e-07
1.0866088e-07
1.0865716e-07
1.0865352e-07
1.0865113e-07
1.0864943e-07
1.0864791e-07
1.0864612e-07
1.0864395e-07
1.0864206e-07
1.0864094e-07
1.0863932e-07
1.0863734e-07
1.0863537e-07
1.0863329e-07
1.0863116e-07
1.0862892e-07
1.0862613e-07
1.0862338e-07
1.0862052e-07
1.0861727e-07
1.0861327e-07
1.6846006e-08
8.6012809e-08
1.0959784e-07
1.1121065e-07
1.1079346e-07
1.1070422e-07
1.1070162e-07
1.1070143e-07
1.1069873e-07
1.1069646e-07
1.1070153e-07
1.1069866e-07
1.1069239e-07
1.1068954e-07
1.106885e-07
1.106883e-07
1.1068281e-07
1.1067936e-07
1.1068071e-07
1.1067965e-07
1.1067799e-07
1.1067655e-07
1.1067522e-07
1.1067396e-07
1.1067271e-07
1.1067152e-07
1.1067035e-07
1.1066925e-07
1.1066814e-07
1.106671e-07
1.1066605e-07
1.1066507e-07
1.1066406e-07
1.1066311e-07
1.1066212e-07
1.1066132e-07
1.1066138e-07
1.1066266e-07
1.1066381e-07
1.1066056e-07
1.1065722e-07
1.1065534e-07
1.1065426e-07
1.1065349e-07
1.1065263e-07
1.106511e-07
1.1064966e-07
1.1064972e-07
1.1064898e-07
1.106476e-07
1.1064656e-07
1.106454e-07
1.1064426e-07
1.1064312e-07
1.1064156e-07
1.1063992e-07
1.1063848e-07
1.1063654e-07
1.1063409e-07
2.4897971e-08
1.0253314e-07
1.1277029e-07
1.129424e-07
1.1284878e-07
1.128433e-07
1.1284391e-07
1.128421e-07
1.1284108e-07
1.1283917e-07
1.1284454e-07
1.1284064e-07
1.128368e-07
1.1283522e-07
1.1283436e-07
1.1283522e-07
1.128311e-07
1.1283018e-07
1.1283213e-07
1.128305e-07
1.1282924e-07
1.1282843e-07
1.1282775e-07
1.1282713e-07
1.1282654e-07
1.12826e-07
1.1282547e-07
1.1282501e-07
1.1282454e-07
1.1282414e-07
1.1282373e-07
1.128234e-07
1.1282306e-07
1.1282278e-07
1.1282249e-07
1.1282229e-07
1.1282262e-07
1.128238e-07
1.1282592e-07
1.1282404e-07
1.1282176e-07
1.128209e-07
1.1282067e-07
1.1282075e-07
1.1282052e-07
1.1282037e-07
1.1281925e-07
1.1282077e-07
1.12821e-07
1.1282062e-07
1.1282069e-07
1.1282069e-07
1.128207e-07
1.1282082e-07
1.1282073e-07
1.1282054e-07
1.1282072e-07
1.1282041e-07
1.1281998e-07
8.5588999e-08
8.5587749e-08
8.5586904e-08
8.5588114e-08
8.5588878e-08
8.5589828e-08
8.5590743e-08
8.5591687e-08
8.559264e-08
8.5593601e-08
8.5594553e-08
8.5595489e-08
8.5596392e-08
8.5597266e-08
8.5598108e-08
8.5598932e-08
8.5599755e-08
8.5600617e-08
8.5601549e-08
8.5602559e-08
8.5603609e-08
8.5604628e-08
8.560546e-08
8.560596e-08
8.5606079e-08
8.5605938e-08
8.5605737e-08
8.5605623e-08
8.5605594e-08
8.5605592e-08
8.5605562e-08
8.5605495e-08
8.5605401e-08
8.5605267e-08
8.5605007e-08
8.5604532e-08
8.5603878e-08
8.5603255e-08
8.5602901e-08
8.5602852e-08
8.560251e-08
8.5600166e-08
8.5593869e-08
8.5586407e-08
8.5595854e-08
8.5666913e-08
8.5866213e-08
8.6232109e-08
8.6648492e-08
8.6637785e-08
8.5123271e-08
8.0285982e-08
6.9457176e-08
5.0753073e-08
2.7105795e-08
8.6676929e-09
1.5943133e-09
4.1838621e-10
5.4867816e-10
8.5879214e-08
8.5878152e-08
8.5878139e-08
8.5879175e-08
8.5880041e-08
8.588097e-08
8.5881899e-08
8.5882848e-08
8.5883803e-08
8.5884765e-08
8.5885712e-08
8.5886641e-08
8.5887534e-08
8.5888398e-08
8.5889234e-08
8.5890059e-08
8.5890884e-08
8.5891753e-08
8.589269e-08
8.5893702e-08
8.5894752e-08
8.589576e-08
8.5896577e-08
8.5897056e-08
8.5897151e-08
8.5896988e-08
8.5896779e-08
8.5896663e-08
8.5896634e-08
8.5896629e-08
8.5896593e-08
8.5896518e-08
8.589641e-08
8.5896262e-08
8.5896001e-08
8.5895545e-08
8.5894922e-08
8.5894325e-08
8.5893968e-08
8.589383e-08
8.5893284e-08
8.589081e-08
8.5884932e-08
8.5878654e-08
8.5888788e-08
8.5956319e-08
8.6143601e-08
8.6491783e-08
8.6907411e-08
8.6965418e-08
8.5661854e-08
8.1207912e-08
7.1072562e-08
5.2967323e-08
2.9144473e-08
9.6581116e-09
1.7485326e-09
3.9258159e-10
4.9278526e-10
8.6198382e-08
8.619752e-08
8.6197817e-08
8.6198803e-08
8.6199711e-08
8.6200645e-08
8.6201588e-08
8.6202548e-08
8.6203514e-08
8.6204482e-08
8.6205433e-08
8.6206362e-08
8.6207253e-08
8.6208114e-08
8.6208947e-08
8.6209773e-08
8.6210601e-08
8.6211471e-08
8.6212409e-08
8.6213421e-08
8.6214469e-08
8.6215478e-08
8.6216292e-08
8.6216765e-08
8.6216847e-08
8.6216669e-08
8.621645e-08
8.6216332e-08
8.6216303e-08
8.6216299e-08
8.6216264e-08
8.6216187e-08
8.6216079e-08
8.6215942e-08
8.6215713e-08
8.6215297e-08
8.6214687e-08
8.6214059e-08
8.6213657e-08
8.6213563e-08
8.6213338e-08
8.6211593e-08
8.6206368e-08
8.6198572e-08
8.6200622e-08
8.6248284e-08
8.6403905e-08
8.6725607e-08
8.7167681e-08
8.7388857e-08
8.6489858e-08
8.2767649e-08
7.3658708e-08
5.6412358e-08
3.2291286e-08
1.1186696e-08
1.9949952e-09
3.7924828e-10
4.3798257e-10
8.6550109e-08
8.6549504e-08
8.6550104e-08
8.6551047e-08
8.6551983e-08
8.6552921e-08
8.6553875e-08
8.6554844e-08
8.6555815e-08
8.6556787e-08
8.6557737e-08
8.6558663e-08
8.6559545e-08
8.6560397e-08
8.6561224e-08
8.6562047e-08
8.6562876e-08
8.6563748e-08
8.6564687e-08
8.65657e-08
8.6566748e-08
8.6567755e-08
8.6568561e-08
8.656902e-08
8.6569082e-08
8.6568882e-08
8.6568654e-08
8.6568536e-08
8.6568509e-08
8.6568507e-08
8.6568472e-08
8.6568393e-08
8.6568279e-08
8.6568145e-08
8.6567937e-08
8.656756e-08
8.6566976e-08
8.6566336e-08
8.6565888e-08
8.6565767e-08
8.6565668e-08
8.656442e-08
8.6560041e-08
8.6552278e-08
8.6550073e-08
8.6583505e-08
8.6711082e-08
8.6999708e-08
8.744122e-08
8.7772468e-08
8.720282e-08
8.4129039e-08
7.6017363e-08
5.9755145e-08
3.5594145e-08
1.292155e-08
2.3183459e-09
3.7558359e-10
3.9221154e-10
8.6938373e-08
8.6938087e-08
8.6938869e-08
8.6939797e-08
8.6940747e-08
8.6941694e-08
8.6942655e-08
8.6943631e-08
8.6944605e-08
8.6945577e-08
8.6946523e-08
8.6947441e-08
8.6948312e-08
8.694915e-08
8.6949966e-08
8.6950783e-08
8.6951609e-08
8.6952481e-08
8.6953419e-08
8.695443e-08
8.6955477e-08
8.695648e-08
8.6957276e-08
8.6957716e-08
8.6957752e-08
8.6957527e-08
8.6957288e-08
8.6957172e-08
8.6957148e-08
8.6957148e-08
8.6957114e-08
8.6957033e-08
8.6956916e-08
8.6956784e-08
8.6956599e-08
8.6956262e-08
8.6955711e-08
8.6955061e-08
8.6954565e-08
8.6954411e-08
8.6954429e-08
8.6953666e-08
8.6950176e-08
8.6942684e-08
8.693681e-08
8.6956725e-08
8.7055789e-08
8.7306774e-08
8.7735702e-08
8.8158224e-08
8.7903489e-08
8.5487115e-08
7.8426647e-08
6.3307872e-08
3.9325724e-08
1.5012362e-08
2.7462288e-09
3.8233197e-10
3.5018444e-10
8.7367902e-08
8.7367923e-08
8.7368832e-08
8.7369762e-08
8.7370717e-08
8.7371672e-08
8.7372636e-08
8.7373615e-08
8.7374586e-08
8.7375552e-08
8.7376488e-08
8.737739e-08
8.7378242e-08
8.7379062e-08
8.7379863e-08
8.738067e-08
8.7381491e-08
8.7382359e-08
8.7383294e-08
8.7384302e-08
8.7385346e-08
8.7386343e-08
8.7387125e-08
8.7387541e-08
8.7387544e-08
8.738729e-08
8.7387042e-08
8.7386929e-08
8.7386909e-08
8.7386912e-08
8.738688e-08
8.7386799e-08
8.7386678e-08
8.7386546e-08
8.738638e-08
8.7386087e-08
8.7385577e-08
8.7384927e-08
8.7384384e-08
8.7384177e-08
8.7384252e-08
8.7383892e-08
8.738133e-08
8.7374649e-08
8.7366599e-08
8.7375401e-08
8.7447525e-08
8.7657075e-08
8.8057613e-08
8.8539602e-08
8.8559834e-08
8.677488e-08
8.0778706e-08
6.6969171e-08
4.3435688e-08
1.7508496e-08
3.3007977e-09
4.0247461e-10
3.1484056e-10
8.7844232e-08
8.7844521e-08
8.7845494e-08
8.7846436e-08
8.7847394e-08
8.7848354e-08
8.7849318e-08
8.7850291e-08
8.7851253e-08
8.7852204e-08
8.7853121e-08
8.7853999e-08
8.7854825e-08
8.7855619e-08
8.7856398e-08
8.785719e-08
8.7858001e-08
8.7858863e-08
8.785979e-08
8.7860792e-08
8.7861832e-08
8.7862821e-08
8.7863584e-08
8.7863969e-08
8.7863932e-08
8.7863642e-08
8.7863386e-08
8.7863277e-08
8.7863263e-08
8.786327e-08
8.786324e-08
8.7863159e-08
8.7863037e-08
8.7862904e-08
8.7862754e-08
8.7862506e-08
8.7862046e-08
8.7861409e-08
8.7860825e-08
8.7860555e-08
8.7860643e-08
8.7860596e-08
8.7858917e-08
8.7853373e-08
8.784437e-08
8.784445e-08
8.7892043e-08
8.8058445e-08
8.8417492e-08
8.8927793e-08
8.9178198e-08
8.7991859e-08
8.3006482e-08
7.0718163e-08
4.7944989e-08
2.0509342e-08
4.0293697e-09
4.4108124e-10
2.8440846e-10
8.8373849e-08
8.8374374e-08
8.8375362e-08
8.8376314e-08
8.8377269e-08
8.8378227e-08
8.8379183e-08
8.8380141e-08
8.8381084e-08
8.838201e-08
8.8382897e-08
8.8383743e-08
8.8384535e-08
8.8385297e-08
8.8386049e-08
8.8386822e-08
8.838762e-08
8.8388473e-08
8.838939e-08
8.8390382e-08
8.8391415e-08
8.8392395e-08
8.8393132e-08
8.8393479e-08
8.8393393e-08
8.839306e-08
8.8392799e-08
8.8392697e-08
8.8392689e-08
8.8392699e-08
8.8392671e-08
8.8392593e-08
8.8392469e-08
8.8392335e-08
8.8392198e-08
8.8391994e-08
8.8391593e-08
8.8390984e-08
8.8390367e-08
8.839003e-08
8.8390091e-08
8.8390259e-08
8.8389368e-08
8.8385175e-08
8.8376378e-08
8.8370376e-08
8.8396874e-08
8.8520461e-08
8.8827111e-08
8.9333839e-08
8.9758247e-08
8.9115169e-08
8.5220929e-08
7.4491324e-08
5.2833019e-08
2.4098635e-08
4.9899024e-09
4.9672463e-10
2.5864381e-10
8.8964561e-08
8.8965202e-08
8.896619e-08
8.8967142e-08
8.8968086e-08
8.8969029e-08
8.8969965e-08
8.8970898e-08
8.8971812e-08
8.8972704e-08
8.8973552e-08
8.8974356e-08
8.8975107e-08
8.897583e-08
8.8976551e-08
8.8977299e-08
8.8978081e-08
8.8978919e-08
8.8979821e-08
8.89808e-08
8.8981825e-08
8.8982789e-08
8.8983495e-08
8.8983795e-08
8.8983652e-08
8.8983264e-08
8.8983003e-08
8.898291e-08
8.8982908e-08
8.8982921e-08
8.8982898e-08
8.8982823e-08
8.89827e-08
8.8982566e-08
8.898244e-08
8.8982279e-08
8.8981946e-08
8.8981382e-08
8.8980748e-08
8.8980348e-08
8.8980354e-08
8.8980639e-08
8.8980391e-08
8.8977598e-08
8.8969947e-08
8.8960471e-08
8.8970146e-08
8.9053623e-08
8.9300495e-08
8.9774289e-08
9.0315577e-08
9.0142478e-08
8.7287773e-08
7.8236917e-08
5.8063178e-08
2.8368615e-08
6.2563318e-09
5.8172623e-10
2.3746538e-10
8.962562e-08
8.9626326e-08
8.9627303e-08
8.9628242e-08
8.9629164e-08
8.9630083e-08
8.9630991e-08
8.9631891e-08
8.9632767e-08
8.9633615e-08
8.9634412e-08
8.9635162e-08
8.963586e-08
8.9636537e-08
8.9637216e-08
8.9637933e-08
8.9638691e-08
8.9639509e-08
8.9640388e-08
8.9641349e-08
8.9642362e-08
8.9643305e-08
8.9643969e-08
8.9644215e-08
8.9644003e-08
8.9643542e-08
8.9643288e-08
8.9643209e-08
8.9643212e-08
8.9643229e-08
8.964321e-08
8.9643142e-08
8.9643023e-08
8.964289e-08
8.9642773e-08
8.9642655e-08
8.9642397e-08
8.9641898e-08
8.9641267e-08
8.9640815e-08
8.9640758e-08
8.9641076e-08
8.9641276e-08
8.9639812e-08
8.9633947e-08
8.962339e-08
8.9621049e-08
8.9669469e-08
8.9853578e-08
9.0268555e-08
9.0865647e-08
9.1078606e-08
8.9200491e-08
8.1849285e-08
6.35702e-08
3.3408281e-08
7.9418412e-09
7.0306296e-10
2.2110502e-10
9.0368382e-08
9.0369096e-08
9.0370044e-08
9.0370955e-08
9.0371844e-08
9.0372727e-08
9.0373595e-08
9.0374449e-08
9.0375274e-08
9.0376061e-08
9.037679e-08
9.0377467e-08
9.0378098e-08
9.0378712e-08
9.0379339e-08
9.0380011e-08
9.0380735e-08
9.0381521e-08
9.0382367e-08
9.0383303e-08
9.0384298e-08
9.0385209e-08
9.0385819e-08
9.0386005e-08
9.0385695e-08
9.038516e-08
9.0384906e-08
9.0384851e-08
9.038486e-08
9.0384879e-08
9.0384866e-08
9.0384806e-08
9.0384695e-08
9.0384568e-08
9.038446e-08
9.0384381e-08
9.0384209e-08
9.0383796e-08
9.0383189e-08
9.0382704e-08
9.0382589e-08
9.0382888e-08
9.0383351e-08
9.0382976e-08
9.0379212e-08
9.0369526e-08
9.0360073e-08
9.0380484e-08
9.0503983e-08
9.0841135e-08
9.1433337e-08
9.1929485e-08
9.0933593e-08
8.5115661e-08
6.9259759e-08
3.9285579e-08
1.0198639e-08
8.726426e-10
2.1055893e-10
9.1206463e-08
9.1207214e-08
9.1208129e-08
9.1209002e-08
9.1209851e-08
9.1210685e-08
9.1211498e-08
9.1212292e-08
9.1213049e-08
9.1213753e-08
9.1214391e-08
9.1214975e-08
9.1215519e-08
9.1216052e-08
9.1216608e-08
9.1217219e-08
9.1217893e-08
9.1218628e-08
9.121943e-08
9.1220332e-08
9.1221301e-08
9.1222167e-08
9.1222711e-08
9.1222843e-08
9.1222349e-08
9.1221779e-08
9.1221517e-08
9.1221492e-08
9.1221505e-08
9.1221525e-08
9.1221522e-08
9.1221471e-08
9.1221376e-08
9.1221258e-08
9.1221161e-08
9.1221118e-08
9.1221044e-08
9.1220742e-08
9.1220183e-08
9.1219683e-08
9.121953e-08
9.1219786e-08
9.1220383e-08
9.122079e-08
9.1219017e-08
9.1211574e-08
9.1199482e-08
9.1200219e-08
9.127027e-08
9.1519662e-08
9.2053417e-08
9.2712541e-08
9.2455784e-08
8.8354811e-08
7.499174e-08
4.6028098e-08
1.3235837e-08
1.1079506e-09
2.0875706e-10
9.2156107e-08
9.2156887e-08
9.2157772e-08
9.2158591e-08
9.2159381e-08
9.2160145e-08
9.2160887e-08
9.2161603e-08
9.216227e-08
9.2162869e-08
9.2163396e-08
9.2163866e-08
9.2164303e-08
9.2164735e-08
9.21652e-08
9.2165731e-08
9.2166332e-08
9.2167001e-08
9.2167744e-08
9.2168603e-08
9.2169538e-08
9.217035e-08
9.2170816e-08
9.217086e-08
9.2170142e-08
9.2169547e-08
9.2169305e-08
9.216929e-08
9.2169308e-08
9.2169329e-08
9.2169342e-08
9.2169305e-08
9.2169231e-08
9.2169124e-08
9.2169034e-08
9.2169022e-08
9.2169072e-08
9.2168906e-08
9.2168405e-08
9.2167891e-08
9.2167714e-08
9.2167985e-08
9.2168602e-08
9.2169506e-08
9.2169301e-08
9.216475e-08
9.2153519e-08
9.2143181e-08
9.2171174e-08
9.2332878e-08
9.2768761e-08
9.3483637e-08
9.3789312e-08
9.1236764e-08
8.0635278e-08
5.3595791e-08
1.7324605e-08
1.466725e-09
2.1797302e-10
9.3233695e-08
9.3234623e-08
9.3235484e-08
9.3236254e-08
9.3236988e-08
9.3237695e-08
9.3238374e-08
9.323902e-08
9.3239602e-08
9.3240097e-08
9.3240511e-08
9.3240868e-08
9.3241194e-08
9.3241514e-08
9.324188e-08
9.3242338e-08
9.3242888e-08
9.3243485e-08
9.3244169e-08
9.3245e-08
9.3245914e-08
9.3246681e-08
9.3247101e-08
9.3246952e-08
9.3245989e-08
9.3245429e-08
9.3245237e-08
9.3245215e-08
9.3245238e-08
9.3245267e-08
9.3245302e-08
9.3245284e-08
9.3245244e-08
9.3245145e-08
9.3245052e-08
9.3245045e-08
9.3245225e-08
9.3245236e-08
9.3244827e-08
9.3244302e-08
9.3244132e-08
9.3244514e-08
9.3245036e-08
9.3245994e-08
9.3246966e-08
9.3245217e-08
9.3236968e-08
9.322315e-08
9.3223141e-08
9.3307206e-08
9.3620504e-08
9.4290218e-08
9.497875e-08
9.3785112e-08
8.5939759e-08
6.1871339e-08
2.2769378e-08
2.0450581e-09
2.3697563e-10
6.0168821e-10
6.2969594e-10
6.4659876e-10
6.5824156e-10
6.6772592e-10
6.7601234e-10
6.8306039e-10
6.8856309e-10
6.9224175e-10
6.9388439e-10
6.9330744e-10
6.9030391e-10
6.8464244e-10
6.7604348e-10
6.6418427e-10
6.486948e-10
6.2918252e-10
6.0525051e-10
5.7653638e-10
5.4275691e-10
5.0380155e-10
4.5989241e-10
4.1180246e-10
3.6020541e-10
3.0593741e-10
2.5038176e-10
1.9561126e-10
1.4197347e-10
9.332712e-11
5.2695759e-11
2.1836142e-11
3.6546234e-12
2.0513082e-12
9.7957629e-12
3.1352601e-11
7.0032682e-11
1.2419269e-10
1.8445989e-10
2.45676e-10
3.1048366e-10
3.7931789e-10
4.5081712e-10
5.2529533e-10
5.9872643e-10
6.6974831e-10
7.385817e-10
8.0433449e-10
8.6573667e-10
9.2195993e-10
9.7321902e-10
1.0200066e-09
1.0627736e-09
1.1019357e-09
1.1374576e-09
1.1693477e-09
1.1981886e-09
1.2245596e-09
1.2487224e-09
1.2707993e-09
1.2909811e-09
1.3095653e-09
1.3266694e-09
1.3422872e-09
1.356492e-09
1.3694085e-09
1.3811576e-09
1.3918509e-09
1.4015909e-09
1.4104731e-09
1.4185794e-09
1.4259903e-09
1.4327592e-09
1.4389742e-09
1.4446021e-09
4.5444966e-10
4.7946525e-10
5.0257306e-10
5.2431731e-10
5.433949e-10
5.5953806e-10
5.7283713e-10
5.8343879e-10
5.9145162e-10
5.9696625e-10
6.0005353e-10
6.0074796e-10
5.9901464e-10
5.9475389e-10
5.8777973e-10
5.778463e-10
5.6464358e-10
5.478345e-10
5.2707356e-10
5.0204323e-10
4.7255709e-10
4.3791015e-10
3.9772442e-10
3.5295993e-10
3.0515781e-10
2.5576899e-10
2.0649168e-10
1.5917534e-10
1.1545799e-10
7.6733752e-11
4.8756383e-11
2.4044598e-11
8.8391433e-12
9.0019951e-12
1.7374069e-11
3.7022168e-11
6.8381868e-11
1.0807294e-10
1.5203003e-10
1.993078e-10
2.4967754e-10
3.02461e-10
3.5816389e-10
4.1487317e-10
4.7109725e-10
5.2620548e-10
5.8005826e-10
6.3187461e-10
6.8089872e-10
7.2675258e-10
7.6936855e-10
8.0884808e-10
8.4536319e-10
8.7917797e-10
9.1003229e-10
9.3814196e-10
9.6380911e-10
9.8729653e-10
1.0088049e-09
1.0284998e-09
1.0465612e-09
1.0631586e-09
1.0784081e-09
1.0924087e-09
1.1052541e-09
1.1170355e-09
1.1278375e-09
1.1377416e-09
1.1468221e-09
1.1551496e-09
1.1627888e-09
1.1697961e-09
1.1762385e-09
1.1821381e-09
1.3456512e-09
1.1205324e-09
9.4017083e-10
7.9710745e-10
6.8984624e-10
6.1352612e-10
5.6138274e-10
5.2920831e-10
5.1301154e-10
5.0804389e-10
5.0998377e-10
5.1530222e-10
5.2149472e-10
5.2678996e-10
5.2998873e-10
5.3033673e-10
5.2736738e-10
5.2080108e-10
5.10447e-10
4.961477e-10
4.7780773e-10
4.5520152e-10
4.2804248e-10
3.963863e-10
3.6075807e-10
3.2200445e-10
2.8119876e-10
2.398312e-10
1.983507e-10
1.5864529e-10
1.2205563e-10
9.1224323e-11
6.462467e-11
4.6868304e-11
3.5467044e-11
3.624791e-11
4.373073e-11
5.7882504e-11
7.709906e-11
1.0101284e-10
1.2877992e-10
1.5959347e-10
1.9301694e-10
2.2835568e-10
2.6484997e-10
3.0185296e-10
3.3893414e-10
3.7564955e-10
4.115733e-10
4.4634765e-10
4.797097e-10
5.1149031e-10
5.4160391e-10
5.6989211e-10
5.9624303e-10
6.2070885e-10
6.4338056e-10
6.6436178e-10
6.8375771e-10
7.0167939e-10
7.1831472e-10
7.3375099e-10
7.4806576e-10
7.6133199e-10
7.7361882e-10
7.8499229e-10
7.9551507e-10
8.0524668e-10
8.1424332e-10
8.2255804e-10
8.3024064e-10
8.3733726e-10
8.4389495e-10
8.4995064e-10
6.5304169e-09
4.6451036e-09
3.3420226e-09
2.4772788e-09
1.9162787e-09
1.5409297e-09
1.2778162e-09
1.0769151e-09
9.1329812e-10
7.8123847e-10
6.8385403e-10
6.1165959e-10
5.6096494e-10
5.2782822e-10
5.0798351e-10
4.9764458e-10
4.9310682e-10
4.9151717e-10
4.9064023e-10
4.8866059e-10
4.8366969e-10
4.7440938e-10
4.6092217e-10
4.433505e-10
4.2188622e-10
3.9687189e-10
3.6881589e-10
3.3843644e-10
3.0697907e-10
2.7513715e-10
2.4284104e-10
2.1186693e-10
1.8248712e-10
1.5563448e-10
1.3150934e-10
1.1304067e-10
1.0058231e-10
9.26984e-11
9.1389117e-11
9.3339043e-11
9.840314e-11
1.059077e-10
1.1582213e-10
1.2792167e-10
1.4181353e-10
1.5711697e-10
1.7348019e-10
1.905804e-10
2.0812693e-10
2.2586117e-10
2.43559e-10
2.610337e-10
2.7813256e-10
2.9472869e-10
3.1071821e-10
3.2602641e-10
3.4060493e-10
3.5442618e-10
3.674814e-10
3.7977571e-10
3.9132812e-10
4.0216162e-10
4.1230395e-10
4.2178541e-10
4.3063741e-10
4.3889188e-10
4.4658085e-10
4.5373599e-10
4.603884e-10
4.6656834e-10
4.7230539e-10
4.7762615e-10
4.8256331e-10
4.8712277e-10
2.18788e-08
1.6402068e-08
1.2030949e-08
8.7194025e-09
6.3104799e-09
4.602654e-09
3.4306383e-09
2.6369776e-09
2.0677401e-09
1.6725232e-09
1.3899021e-09
1.1796579e-09
1.0146019e-09
8.8173081e-10
7.6725282e-10
6.8118698e-10
6.146794e-10
5.6534046e-10
5.3012749e-10
5.0681946e-10
4.939265e-10
4.8722219e-10
4.8334969e-10
4.7847179e-10
4.7084914e-10
4.6024049e-10
4.4678373e-10
4.3063222e-10
4.1228682e-10
3.9226893e-10
3.7082645e-10
3.4828088e-10
3.2571915e-10
3.0120526e-10
2.7961852e-10
2.5817663e-10
2.3822421e-10
2.2051895e-10
2.0598789e-10
1.9442903e-10
1.8600593e-10
1.7872138e-10
1.7471922e-10
1.722278e-10
1.7100344e-10
1.7092544e-10
1.7184642e-10
1.7363504e-10
1.7615659e-10
1.7927991e-10
1.8288246e-10
1.8685276e-10
1.9109111e-10
1.9550995e-10
2.0003264e-10
2.0459401e-10
2.0913905e-10
2.1362248e-10
2.1800821e-10
2.2226859e-10
2.2638249e-10
2.3033402e-10
2.341125e-10
2.3771147e-10
2.4112773e-10
2.4436068e-10
2.4741191e-10
2.5028459e-10
2.5298322e-10
2.5551332e-10
2.5788122e-10
2.6009322e-10
2.6215872e-10
2.6407385e-10
4.3965677e-08
3.5858842e-08
2.8391618e-08
2.1947973e-08
1.6645881e-08
1.2451797e-08
9.2511278e-09
6.8911504e-09
5.1613455e-09
3.916549e-09
3.0257239e-09
2.393677e-09
1.9440147e-09
1.6054246e-09
1.358249e-09
1.1703957e-09
1.0239674e-09
9.0374156e-10
8.0114747e-10
7.1624396e-10
6.490814e-10
5.9594971e-10
5.5823597e-10
5.3328962e-10
5.1739245e-10
5.071645e-10
5.0043336e-10
4.9343994e-10
4.852581e-10
4.7575266e-10
4.6505643e-10
4.5324059e-10
4.4062593e-10
4.2739452e-10
4.1359759e-10
3.9955466e-10
3.8556538e-10
3.714428e-10
3.5703019e-10
3.4420975e-10
3.3287456e-10
3.2288945e-10
3.1416465e-10
3.0659003e-10
3.0040825e-10
2.9506708e-10
2.9023426e-10
2.8603975e-10
2.8245527e-10
2.7941889e-10
2.7686588e-10
2.7473601e-10
2.7297618e-10
2.7154669e-10
2.7038626e-10
2.6944907e-10
2.6869862e-10
2.6810503e-10
2.6764305e-10
2.6729101e-10
2.6703024e-10
2.668449e-10
2.6672146e-10
2.6664817e-10
2.66615e-10
2.6661339e-10
2.6663614e-10
2.6667714e-10
2.6673137e-10
2.6679466e-10
2.668635e-10
2.6693521e-10
2.6700721e-10
2.6707735e-10
6.3659106e-08