/*--------------------------------*- C++ -*----------------------------------*\
| =========                 |                                                 |
| \\      /  F ield         | OpenFOAM: The Open Source CFD Toolbox           |
|  \\    /   O peration     | Version:  v2006                                 |
|   \\  /    A nd           | Website:  www.openfoam.com                      |
|    \\/     M anipulation  |                                                 |
\*---------------------------------------------------------------------------*/
FoamFile
{
    version     2.0;
    format      ascii;
    class       volScalarField;
    location    "6000";
    object      Cp;
}
// * * * * * * * * * * * * * * * * * * * * * * * * * * * * * * * * * * * * * //

dimensions      [0 0 0 0 0 0 0];


internalField   nonuniform List<scalar> 
55713
(
0.005607413
0.0056079954
0.0056079141
0.0056082939
0.0056082656
0.0056085507
0.0056086803
0.005608883
0.0056089993
0.0056090734
0.0056090476
0.0056089455
0.0056088178
0.0056087509
0.0056087034
0.0056086613
0.0056086462
0.0056086503
0.0056086602
0.0056086688
0.0056086765
0.0056086704
0.005608643
0.0056085919
0.0056085241
0.0056084538
0.0056083972
0.0056083604
0.0056083291
0.0056082928
0.0056082592
0.0056082258
0.0056081835
0.0056081225
0.0056080406
0.0056079348
0.0056078122
0.0056076802
0.0056075457
0.0056074171
0.0056073041
0.0056072099
0.0056071245
0.0056070366
0.0056069408
0.005606829
0.0056066936
0.0056065347
0.0056063576
0.0056061644
0.005605964
0.0056057521
0.0056055371
0.0056053079
0.005605076
0.0056048269
0.0056045623
0.0056043112
0.005603921
0.005240443
0.0052415398
0.0052415263
0.0052422701
0.0052424457
0.0052430495
0.005243391
0.0052439574
0.0052444438
0.0052449139
0.0052453088
0.0052456163
0.0052458406
0.0052459819
0.0052460141
0.0052459575
0.0052458662
0.0052458723
0.0052459088
0.0052459926
0.0052461318
0.0052463295
0.005246567
0.0052467653
0.0052468818
0.0052468814
0.0052467797
0.0052467625
0.0052467714
0.0052467951
0.0052468571
0.0052469597
0.0052470927
0.0052472497
0.0052474011
0.0052475208
0.0052475849
0.0052475982
0.0052475675
0.0052474894
0.0052474243
0.005247407
0.0052474127
0.005247445
0.0052474762
0.0052474773
0.0052474589
0.0052474114
0.0052474048
0.0052474663
0.0052475661
0.0052476493
0.0052477518
0.005247813
0.0052478759
0.005247904
0.0052479171
0.0052479324
0.0052479176
0.0049250317
0.0049263398
0.0049265048
0.0049273864
0.004927642
0.0049282437
0.0049284993
0.0049288854
0.0049291886
0.0049295852
0.0049300275
0.0049305422
0.004931082
0.0049315671
0.0049319677
0.0049322692
0.0049324829
0.0049325899
0.004932613
0.0049325983
0.0049325919
0.0049326602
0.004932831
0.0049331129
0.0049334424
0.0049337039
0.0049338691
0.0049339213
0.0049338873
0.0049338183
0.0049338327
0.0049338948
0.0049339984
0.0049341684
0.0049344206
0.0049347226
0.0049350177
0.0049352845
0.0049355199
0.0049357108
0.004935831
0.0049358398
0.0049357553
0.0049357395
0.004935731
0.0049356576
0.0049356414
0.0049357454
0.0049359625
0.0049362259
0.0049365269
0.0049367751
0.0049370728
0.0049372423
0.0049375706
0.0049376261
0.0049380199
0.0049380157
0.0049384502
0.0046503735
0.0046517769
0.0046520216
0.0046529303
0.0046532428
0.0046537767
0.0046540245
0.0046543058
0.0046544805
0.0046546541
0.0046548154
0.0046550126
0.004655277
0.0046556188
0.0046560523
0.004656557
0.0046570268
0.0046574152
0.0046577126
0.0046579402
0.004658088
0.0046581763
0.0046582425
0.0046583444
0.0046585496
0.0046588815
0.0046592397
0.0046595244
0.0046597241
0.0046598485
0.0046599067
0.0046599198
0.0046599236
0.0046599364
0.0046600163
0.0046601831
0.0046604179
0.0046607171
0.0046610675
0.0046614339
0.0046617578
0.0046620202
0.0046622198
0.004662344
0.0046624583
0.0046626109
0.004662857
0.0046630766
0.0046633273
0.0046634581
0.0046636677
0.0046637422
0.0046640142
0.0046640826
0.004664477
0.0046645271
0.0046650819
0.0046651145
0.0046658046
0.0044128906
0.0044142574
0.0044145242
0.0044153733
0.0044157573
0.0044163088
0.0044166961
0.0044171075
0.0044174424
0.0044177323
0.0044179549
0.0044181153
0.0044182439
0.0044183506
0.0044184891
0.0044186835
0.0044189553
0.0044193132
0.0044197333
0.0044201323
0.0044204781
0.0044207605
0.0044209817
0.0044211217
0.0044212242
0.0044213817
0.0044216505
0.0044220124
0.0044223665
0.0044226725
0.0044229202
0.0044231161
0.0044232506
0.0044233299
0.0044233549
0.0044233774
0.0044234182
0.0044235036
0.0044236317
0.004423801
0.00442402
0.0044242946
0.0044246286
0.0044249659
0.004425304
0.0044256221
0.0044259495
0.0044261518
0.0044263863
0.0044264839
0.0044267244
0.0044268144
0.0044271297
0.0044272227
0.0044276419
0.0044277318
0.0044283032
0.0044283633
0.0044291209
0.0042102311
0.0042114852
0.0042117933
0.0042125598
0.0042129522
0.0042135303
0.0042139889
0.00421451
0.004214986
0.0042154404
0.0042158402
0.004216185
0.0042164672
0.0042166762
0.0042168284
0.0042169429
0.0042170462
0.0042171774
0.0042173574
0.0042175974
0.0042178821
0.0042181762
0.00421845
0.0042186742
0.0042188274
0.0042189306
0.0042190552
0.0042192465
0.0042195042
0.0042198178
0.0042201529
0.0042204653
0.0042207388
0.0042209649
0.0042211533
0.0042212955
0.0042214099
0.0042214885
0.0042215606
0.0042216378
0.0042217601
0.0042219011
0.0042220863
0.0042222703
0.0042225084
0.0042227035
0.0042229561
0.0042231061
0.0042233748
0.0042235327
0.0042238682
0.004224022
0.0042244095
0.0042245561
0.0042250114
0.0042251327
0.0042256942
0.0042257554
0.0042265067
0.0040274827
0.0040285856
0.0040289355
0.0040296235
0.0040300724
0.0040305972
0.0040310354
0.0040314925
0.0040319138
0.0040323561
0.0040327996
0.0040332488
0.0040336607
0.004034021
0.0040343252
0.0040345836
0.0040347908
0.0040349613
0.0040350991
0.0040352154
0.0040353319
0.0040354619
0.0040356068
0.004035769
0.0040359292
0.0040360485
0.0040361392
0.0040362218
0.0040363293
0.0040364648
0.0040366452
0.0040368661
0.004037133
0.0040374244
0.0040377026
0.0040379511
0.0040381725
0.0040383679
0.0040385501
0.0040387158
0.0040389034
0.004039052
0.0040392431
0.0040393845
0.004039595
0.0040397414
0.0040399741
0.0040401352
0.0040404297
0.0040406168
0.0040409537
0.0040411369
0.00404153
0.0040417192
0.0040421678
0.0040423314
0.0040428614
0.0040429541
0.0040436559
0.0038655729
0.0038663247
0.0038665874
0.0038670584
0.0038673053
0.0038676833
0.0038679168
0.0038681879
0.0038683808
0.00386857
0.0038687552
0.0038689511
0.0038691841
0.0038694424
0.003869726
0.0038699946
0.003870233
0.0038704374
0.0038706126
0.003870748
0.0038708531
0.0038709509
0.0038710559
0.0038711721
0.0038712904
0.0038713887
0.0038714602
0.0038715075
0.0038715343
0.0038715581
0.0038715873
0.0038716398
0.0038717199
0.0038718319
0.0038719715
0.0038721103
0.0038722646
0.0038723963
0.0038725436
0.0038726602
0.0038727993
0.0038729015
0.0038730438
0.0038731321
0.0038732864
0.0038733557
0.0038735306
0.0038735932
0.0038737947
0.0038738413
0.0038740567
0.0038740986
0.0038743507
0.0038743704
0.0038746537
0.0038746513
0.0038749713
0.0038749531
0.0038753216
0.0037831255
0.0037835848
0.0037837001
0.0037840023
0.0037842837
0.0037844221
0.0037846382
0.003784759
0.0037849074
0.0037850012
0.0037850924
0.0037851574
0.0037852265
0.0037852968
0.0037853846
0.0037854872
0.0037856028
0.0037857135
0.0037858218
0.0037859214
0.0037860258
0.0037861274
0.0037862381
0.0037863499
0.003786461
0.0037865572
0.0037866392
0.0037867046
0.0037867499
0.0037867733
0.003786781
0.0037867759
0.0037867642
0.0037867697
0.0037867785
0.0037868121
0.0037868352
0.0037868684
0.0037869022
0.0037869217
0.0037869685
0.0037869784
0.0037870321
0.0037870423
0.003787093
0.0037871161
0.0037871527
0.0037871925
0.0037872157
0.003787257
0.0037872811
0.0037873127
0.003787337
0.0037873398
0.0037873545
0.0037873425
0.0037873253
0.003787302
0.0037872792
0.0037117442
0.0037127859
0.0037136423
0.0037136919
0.0037144077
0.0037145131
0.0037150367
0.0037152026
0.0037156022
0.0037157527
0.0037160969
0.0037162401
0.0037165253
0.0037166543
0.0037168989
0.0037170367
0.0037172598
0.0037174073
0.003717629
0.0037177919
0.0037180194
0.0037182226
0.0037184748
0.003718716
0.0037189808
0.0037192539
0.0037195327
0.0037198025
0.0037200626
0.0037203101
0.0037205467
0.0037207743
0.0037209973
0.0037212214
0.0037214536
0.0037216966
0.0037219413
0.0037221896
0.0037224409
0.003722695
0.0037229535
0.0037232144
0.0037234825
0.0037237572
0.0037240383
0.0037243305
0.0037246275
0.0037249365
0.0037252584
0.0037255899
0.0037259438
0.0037263076
0.0037266995
0.003727121
0.0037275453
0.0037280374
0.003728545
0.0037292262
0.0037299317
0.0033739693
0.0033739514
0.0033750357
0.003375606
0.0033763318
0.0033769962
0.0033776063
0.0033781584
0.0033786798
0.0033791595
0.0033796027
0.0033800248
0.0033803978
0.0033807433
0.0033810547
0.0033813348
0.0033815966
0.0033818315
0.0033820506
0.0033822776
0.0033824439
0.0033826318
0.003382717
0.0033828333
0.0033828987
0.0033829828
0.0033830481
0.003383144
0.0033832339
0.003383336
0.0033834213
0.0033835038
0.0033835579
0.0033835927
0.0033836075
0.0033836045
0.0033836013
0.0033835894
0.0033835725
0.0033835409
0.0033834989
0.0033834503
0.0033833841
0.003383307
0.0033832117
0.0033831135
0.0033829958
0.0033828546
0.0033826932
0.0033825011
0.0033822927
0.0033820504
0.0033817897
0.0033815083
0.0033811713
0.0033808592
0.00338039
0.003380064
0.0033795734
0.0033589575
0.0033555102
0.0033542456
0.0033520993
0.0033506255
0.0033491193
0.0033476399
0.0033463929
0.0033452051
0.0033440723
0.0033429994
0.0033419658
0.0033410484
0.0033401296
0.0033393272
0.0033385079
0.0033377748
0.0033370327
0.0033363163
0.0033356411
0.0033349747
0.0033343358
0.0033337256
0.0033331497
0.0033325425
0.0033320032
0.0033314171
0.0033309008
0.0033303299
0.0033298306
0.0033292711
0.0033287826
0.0033282337
0.0033277555
0.0033272128
0.003326746
0.0033261969
0.0033257478
0.0033252016
0.0033247472
0.0033242158
0.0033237202
0.0033231789
0.0033226427
0.0033220482
0.0033214775
0.0033207984
0.0033202358
0.0033194566
0.0033188831
0.0033179808
0.0033173347
0.0033163166
0.003315495
0.0033143102
0.0033133536
0.0033119325
0.0033107756
0.0033087311
0.00506947
0.0050682395
0.0050670591
0.0050661053
0.0050651412
0.0050642669
0.0050633582
0.0050625204
0.0050618184
0.0050611704
0.0050605771
0.005059979
0.0050594178
0.0050588982
0.0050584333
0.0050580242
0.005057677
0.0050573677
0.0050570775
0.0050568174
0.0050565806
0.0050563761
0.0050561872
0.0050560176
0.0050558701
0.0050557401
0.0050556269
0.0050555313
0.0050554519
0.0050553889
0.0050553406
0.0050553065
0.0050552888
0.00505528
0.0050552933
0.0050553145
0.0050553475
0.005055392
0.0050554447
0.0050555028
0.005055566
0.0050556393
0.0050557226
0.0050558225
0.0050559477
0.0050560977
0.0050562675
0.0050564581
0.0050566723
0.0050569058
0.0050571781
0.0050574703
0.0050578195
0.0050581761
0.0050586563
0.0050590296
0.0050596602
0.0050600413
0.0050607319
0.00321837
0.0032222082
0.0032220746
0.0032250648
0.0032250625
0.0032271306
0.0032276771
0.0032292303
0.0032295892
0.0032308891
0.003231202
0.0032323514
0.0032326077
0.0032335842
0.0032337713
0.0032345603
0.003234685
0.0032352909
0.0032354686
0.0032359043
0.0032360714
0.0032364106
0.0032365478
0.0032368292
0.0032369378
0.0032371673
0.0032372497
0.0032374331
0.0032374903
0.0032376298
0.0032376655
0.0032377636
0.0032377795
0.0032378282
0.0032378238
0.0032378188
0.0032377971
0.0032377594
0.0032377064
0.0032376391
0.0032375637
0.0032374789
0.0032373861
0.0032372864
0.0032371756
0.0032370446
0.003236886
0.0032367061
0.0032364987
0.0032362662
0.0032360159
0.0032357199
0.0032354085
0.0032350314
0.0032346505
0.0032341145
0.0032336367
0.0032328212
0.0032322245
0.021054089
0.02105975
0.021066906
0.021073209
0.021079787
0.021086159
0.021092492
0.021098739
0.021104905
0.02111099
0.02111699
0.021122904
0.021128729
0.021134463
0.021140104
0.021145648
0.021151093
0.021156436
0.021161672
0.021166797
0.021171807
0.021176697
0.021181461
0.021186095
0.021190594
0.021194954
0.021199171
0.021203243
0.021207168
0.021210943
0.021214569
0.021218044
0.021221371
0.021224548
0.021227579
0.021230464
0.021233205
0.021235807
0.021238269
0.021240595
0.021242786
0.021244843
0.021246768
0.021248563
0.021250228
0.021251766
0.021253177
0.021254464
0.021255628
0.02125667
0.021257591
0.021258392
0.021259072
0.021259632
0.021260085
0.02126041
0.021260634
0.021260751
0.021260767
0.019308012
0.019312948
0.019318928
0.019324348
0.019329858
0.019335229
0.019340523
0.019345732
0.019350852
0.019355886
0.019360833
0.01936569
0.019370459
0.019375138
0.019379725
0.019384221
0.019388623
0.019392931
0.019397145
0.019401262
0.019405283
0.019409206
0.01941303
0.019416754
0.019420378
0.0194239
0.01942732
0.019430637
0.01943385
0.019436958
0.019439961
0.019442858
0.019445648
0.019448331
0.019450907
0.019453375
0.019455735
0.019457986
0.019460129
0.019462164
0.01946409
0.019465908
0.019467618
0.01946922
0.019470715
0.019472102
0.019473383
0.019474558
0.019475627
0.019476591
0.019477451
0.019478207
0.019478856
0.019479404
0.019479854
0.019480176
0.019480414
0.019480563
0.019480603
0.017678611
0.017682801
0.017687733
0.017692259
0.017696801
0.017701234
0.017705585
0.017709856
0.017714046
0.017718157
0.017722189
0.017726143
0.017730017
0.017733814
0.017737532
0.017741171
0.017744732
0.017748213
0.017751615
0.017754937
0.017758178
0.017761339
0.017764418
0.017767416
0.017770331
0.017773164
0.017775913
0.017778579
0.017781161
0.017783658
0.017786071
0.017788398
0.017790641
0.017792797
0.017794869
0.017796854
0.017798754
0.017800568
0.017802296
0.017803938
0.017805495
0.017806966
0.017808353
0.017809654
0.01781087
0.017812001
0.017813049
0.017814012
0.017814891
0.017815687
0.017816399
0.017817027
0.017817569
0.017818035
0.017818405
0.017818682
0.017818881
0.017819006
0.017819038
0.016151992
0.016155602
0.016159658
0.016163461
0.016167211
0.016170881
0.016174464
0.016177973
0.016181407
0.016184767
0.016188056
0.016191275
0.016194424
0.016197504
0.016200516
0.016203461
0.016206339
0.01620915
0.016211895
0.016214573
0.016217185
0.01621973
0.016222209
0.016224622
0.016226968
0.016229247
0.01623146
0.016233606
0.016235684
0.016237696
0.01623964
0.016241517
0.016243326
0.016245067
0.016246741
0.016248347
0.016249885
0.016251356
0.016252759
0.016254094
0.016255361
0.016256561
0.016257694
0.016258759
0.016259757
0.016260687
0.01626155
0.016262346
0.016263074
0.016263736
0.01626433
0.016264853
0.016265311
0.016265704
0.016266001
0.016266238
0.016266407
0.016266515
0.016266543
0.014731926
0.01473504
0.014738338
0.014741507
0.014744584
0.014747595
0.014750525
0.014753386
0.014756178
0.014758905
0.014761567
0.014764168
0.014766708
0.014769189
0.014771611
0.014773977
0.014776286
0.014778539
0.014780737
0.01478288
0.014784969
0.014787004
0.014788985
0.014790913
0.014792787
0.014794607
0.014796375
0.014798089
0.014799751
0.014801359
0.014802914
0.014804416
0.014805866
0.014807262
0.014808606
0.014809897
0.014811134
0.014812319
0.014813451
0.014814531
0.014815557
0.014816531
0.014817452
0.01481832
0.014819135
0.014819897
0.014820606
0.014821262
0.014821864
0.014822413
0.014822907
0.014823345
0.014823735
0.014824056
0.01482431
0.01482451
0.014824655
0.014824748
0.014824771
0.013411802
0.013414533
0.013417215
0.013419854
0.013422385
0.013424858
0.013427256
0.013429589
0.01343186
0.013434072
0.013436226
0.013438326
0.013440372
0.013442368
0.013444313
0.01344621
0.013448059
0.013449861
0.013451617
0.013453328
0.013454994
0.013456616
0.013458194
0.013459729
0.013461222
0.013462671
0.013464079
0.013465444
0.013466767
0.013468049
0.013469288
0.013470487
0.013471644
0.013472759
0.013473834
0.013474867
0.013475858
0.013476809
0.013477719
0.013478587
0.013479414
0.0134802
0.013480945
0.013481648
0.01348231
0.01348293
0.013483508
0.013484045
0.013484539
0.013484989
0.013485396
0.013485761
0.013486083
0.01348634
0.013486553
0.013486721
0.013486841
0.01348692
0.01348694
0.012190228
0.012192615
0.012194807
0.012196992
0.01219907
0.012201094
0.012203051
0.012204948
0.012206789
0.012208577
0.012210314
0.012212003
0.012213646
0.012215244
0.0122168
0.012218314
0.012219788
0.012221223
0.01222262
0.012223979
0.012225302
0.012226589
0.01222784
0.012229057
0.012230239
0.012231388
0.012232502
0.012233584
0.012234633
0.012235649
0.012236633
0.012237584
0.012238504
0.012239391
0.012240247
0.012241071
0.012241863
0.012242624
0.012243353
0.012244051
0.012244717
0.012245351
0.012245953
0.012246524
0.012247062
0.012247569
0.012248043
0.012248484
0.012248892
0.012249265
0.012249606
0.012249915
0.012250172
0.012250391
0.012250572
0.012250716
0.012250819
0.012250888
0.012250905
0.011063101
0.011065128
0.011066927
0.011068725
0.011070426
0.011072073
0.011073661
0.011075195
0.011076678
0.011078114
0.011079506
0.011080855
0.011082164
0.011083435
0.01108467
0.011085869
0.011087034
0.011088167
0.011089268
0.011090339
0.01109138
0.011092391
0.011093375
0.01109433
0.011095258
0.01109616
0.011097035
0.011097884
0.011098707
0.011099505
0.011100278
0.011101027
0.01110175
0.011102449
0.011103123
0.011103773
0.011104399
0.011105
0.011105578
0.011106131
0.01110666
0.011107165
0.011107645
0.011108101
0.011108532
0.011108938
0.011109319
0.011109674
0.011110003
0.011110307
0.011110586
0.011110827
0.011111036
0.011111216
0.011111365
0.011111484
0.011111568
0.011111628
0.011111641
0.010026429
0.010028138
0.010029624
0.010031104
0.0100325
0.010033846
0.01003514
0.010036384
0.010037585
0.010038743
0.010039862
0.010040945
0.010041993
0.010043008
0.010043992
0.010044946
0.010045872
0.010046771
0.010047644
0.010048491
0.010049314
0.010050114
0.01005089
0.010051645
0.010052378
0.01005309
0.010053781
0.010054451
0.010055102
0.010055733
0.010056345
0.010056939
0.010057513
0.010058069
0.010058606
0.010059125
0.010059626
0.010060108
0.010060573
0.010061019
0.010061446
0.010061856
0.010062247
0.010062619
0.010062973
0.010063308
0.010063623
0.010063918
0.010064195
0.010064453
0.01006468
0.01006488
0.010065058
0.010065212
0.010065341
0.010065446
0.010065517
0.010065572
0.010065583
0.0090768035
0.009078229
0.0090794534
0.0090806644
0.0090818032
0.009082894
0.0090839378
0.0090849382
0.0090858988
0.0090868225
0.0090877118
0.009088569
0.0090893963
0.0090901953
0.0090909677
0.0090917149
0.0090924383
0.0090931391
0.0090938184
0.009094477
0.0090951158
0.0090957357
0.0090963373
0.0090969212
0.0090974879
0.009098038
0.009098572
0.0090990901
0.009099593
0.0091000809
0.0091005541
0.0091010129
0.0091014574
0.0091018878
0.0091023042
0.0091027067
0.0091030954
0.0091034704
0.0091038316
0.0091041792
0.009104513
0.0091048331
0.0091051394
0.0091054317
0.0091057095
0.0091059727
0.0091062215
0.0091064564
0.0091066761
0.0091068702
0.0091070487
0.0091072098
0.0091073533
0.0091074781
0.0091075815
0.0091076665
0.0091077219
0.0091077706
0.0091077777
0.0082103915
0.0082115748
0.0082125928
0.0082135907
0.0082145295
0.0082154231
0.0082162754
0.0082170893
0.0082178683
0.0082186148
0.0082193315
0.0082200205
0.0082206836
0.0082213226
0.008221939
0.0082225342
0.0082231093
0.0082236656
0.008224204
0.0082247255
0.0082252309
0.008225721
0.0082261963
0.0082266574
0.0082271049
0.0082275393
0.0082279612
0.0082283711
0.0082287693
0.0082291563
0.0082295323
0.0082298975
0.0082302521
0.0082305961
0.0082309296
0.0082312529
0.0082315661
0.0082318692
0.0082321623
0.0082324455
0.0082327187
0.0082329819
0.008233235
0.0082334775
0.0082337094
0.0082339309
0.0082341415
0.0082343366
0.0082345122
0.0082346764
0.008234828
0.0082349665
0.0082350914
0.0082352016
0.0082352931
0.0082353728
0.0082354196
0.008235465
0.008235465
0.0074205538
0.0074215267
0.0074223676
0.0074231766
0.0074239389
0.0074246599
0.0074253444
0.0074259947
0.0074266145
0.0074272059
0.0074277715
0.0074283132
0.0074288329
0.0074293323
0.007429813
0.0074302762
0.0074307228
0.0074311533
0.0074315687
0.0074319696
0.0074323572
0.0074327321
0.007433095
0.0074334465
0.0074337875
0.0074341187
0.0074344407
0.007434754
0.0074350588
0.0074353552
0.007435643
0.0074359224
0.0074361933
0.0074364561
0.0074367111
0.0074369587
0.007437199
0.0074374323
0.0074376585
0.0074378776
0.0074380896
0.0074382944
0.0074384918
0.007438682
0.0074388639
0.0074390351
0.0074391928
0.0074393426
0.007439483
0.0074396145
0.0074397368
0.0074398498
0.0074399514
0.0074400428
0.007440117
0.0074401855
0.0074402193
0.0074402652
0.0074402644
0.0067046297
0.0067054228
0.0067061385
0.0067068087
0.0067074355
0.0067080249
0.0067085818
0.0067091073
0.0067096058
0.0067100787
0.0067105288
0.0067109575
0.0067113671
0.0067117599
0.0067121382
0.0067125031
0.0067128544
0.0067131917
0.0067135151
0.0067138256
0.0067141246
0.0067144136
0.0067146938
0.0067149661
0.0067152315
0.0067154909
0.0067157445
0.0067159925
0.0067162347
0.0067164705
0.0067166994
0.0067169214
0.006717137
0.0067173474
0.0067175536
0.0067177562
0.0067179555
0.006718151
0.0067183423
0.0067185285
0.0067187076
0.0067188777
0.0067190385
0.0067191909
0.0067193327
0.0067194697
0.0067196001
0.0067197246
0.0067198433
0.006719956
0.0067200624
0.0067201625
0.0067202526
0.0067203376
0.0067204036
0.0067204736
0.0067205016
0.0067205523
0.0067205546
0.0060777972
0.0060784218
0.0060790144
0.0060795914
0.0060801319
0.0060806419
0.0060811286
0.0060815881
0.0060820262
0.0060824416
0.0060828363
0.0060832093
0.006083562
0.0060838962
0.0060842146
0.0060845202
0.0060848134
0.0060850936
0.0060853621
0.0060856211
0.0060858721
0.0060861165
0.0060863548
0.0060865867
0.0060868106
0.0060870256
0.0060872305
0.0060874255
0.0060876107
0.0060877863
0.0060879537
0.0060881136
0.0060882676
0.0060884171
0.0060885616
0.0060887
0.0060888315
0.0060889555
0.0060890718
0.0060891798
0.0060892819
0.0060893799
0.0060894733
0.0060895633
0.0060896517
0.0060897375
0.0060898236
0.0060899167
0.0060900167
0.0060901197
0.0060902192
0.0060903141
0.0060903947
0.0060904746
0.0060905251
0.006090586
0.0060906129
0.0060906821
0.0060906979
0.02336798
0.025928644
0.02879127
0.031919718
0.035326494
0.039037058
0.043066166
0.047427061
0.05213141
0.057188259
0.062601112
0.068369912
0.074484344
0.0809272
0.087666863
0.094658469
0.10184109
0.10913254
0.11643266
0.12361378
0.13052671
0.1369982
0.14282991
0.14780493
0.15169555
0.15427692
0.1553046
0.15462189
0.15200602
0.14729679
0.14050751
0.1315788
0.12050598
0.10744816
0.092555387
0.076042979
0.058152033
0.039052888
0.019004986
-0.0016668516
-0.022710918
-0.043921035
-0.065132006
-0.086069557
-0.10657234
-0.12660876
-0.14615496
-0.16508515
-0.18321981
-0.20055967
-0.21710374
-0.23283213
-0.24775692
-0.26185322
-0.2750766
-0.28751077
-0.29924169
-0.31025396
-0.32057007
-0.33021646
-0.33925966
-0.3477254
-0.35559785
-0.36291975
-0.36973385
-0.37606993
-0.38195679
-0.38742365
-0.39249835
-0.39720711
-0.40157336
-0.405623
-0.4093703
-0.41285337
0.023367956
0.025928628
0.028791239
0.031919682
0.035326458
0.039037025
0.043066136
0.047427036
0.052131391
0.057188248
0.062601116
0.068369943
0.074484402
0.08092729
0.087667
0.094658649
0.10184133
0.10913286
0.11643307
0.1236143
0.13052723
0.13699886
0.14283061
0.14780574
0.15169639
0.15427773
0.15530539
0.15462268
0.15200708
0.14729838
0.14050812
0.13157721
0.12050646
0.10744886
0.09255591
0.076039347
0.058144013
0.039045958
0.01900298
-0.001666418
-0.022710861
-0.043921051
-0.065136657
-0.086078216
-0.10658126
-0.12661173
-0.14615297
-0.1650851
-0.18322311
-0.20056463
-0.21710926
-0.23283842
-0.24776311
-0.26185914
-0.27508079
-0.28751366
-0.29924661
-0.31026083
-0.32057754
-0.33022428
-0.33927225
-0.3477421
-0.35561336
-0.36293377
-0.36974686
-0.37608224
-0.3819683
-0.3874342
-0.39250843
-0.39721693
-0.40158321
-0.40563298
-0.40938062
-0.41286523
0.023367761
0.025928453
0.028791026
0.031919443
0.0353262
0.039036747
0.043065838
0.047426717
0.052131054
0.057187895
0.062600753
0.068369565
0.074484017
0.080926903
0.087666618
0.094658294
0.10184101
0.10913261
0.1164329
0.12361427
0.13052741
0.13699941
0.14283168
0.14780691
0.15169791
0.15427979
0.155308
0.15462598
0.15201109
0.14730288
0.14051225
0.13158207
0.12051294
0.10745566
0.09256338
0.076047177
0.058150045
0.039052094
0.019010305
-0.0016598064
-0.022705737
-0.043917058
-0.065127524
-0.086069348
-0.10658225
-0.12662171
-0.14616282
-0.16508567
-0.1832188
-0.20055991
-0.21710413
-0.2328326
-0.24776444
-0.26186592
-0.27508709
-0.28751532
-0.29924356
-0.31025503
-0.32057089
-0.33020519
-0.33924631
-0.34772448
-0.35559989
-0.36292277
-0.36973743
-0.37607429
-0.38196262
-0.38742978
-0.39250416
-0.39721258
-0.40157879
-0.40562799
-0.40937759
-0.41285599
0.023367347
0.025928159
0.028790652
0.031919027
0.035325754
0.039036267
0.043065322
0.047426165
0.052130454
0.057187249
0.062600064
0.068368838
0.074483261
0.08092613
0.08766584
0.094657545
0.10184031
0.10913202
0.11643247
0.12361414
0.13052785
0.13700031
0.14283287
0.14780878
0.15170068
0.15428361
0.15531291
0.15463228
0.15201885
0.14731209
0.1405224
0.13159314
0.1205262
0.10747028
0.09257956
0.076063243
0.058163262
0.039065266
0.019026125
-0.0016424733
-0.022688377
-0.043899496
-0.065105995
-0.086050696
-0.10657211
-0.12661892
-0.14615308
-0.16506794
-0.18320359
-0.20054733
-0.21709264
-0.23282234
-0.24774543
-0.26183689
-0.27506907
-0.2875162
-0.29924879
-0.31026435
-0.32058481
-0.33023372
-0.33927882
-0.34773986
-0.35560789
-0.36292753
-0.36973941
-0.37607304
-0.38195732
-0.3874229
-0.39249674
-0.39720466
-0.40157275
-0.40562215
-0.40938726
-0.4128611
0.023366763
0.02592773
0.02879011
0.031918417
0.035325084
0.039035528
0.04306451
0.047425275
0.052129488
0.057186209
0.062598961
0.068367666
0.074482042
0.080924874
0.087664574
0.094656322
0.10183917
0.10913104
0.11643166
0.12361365
0.13052777
0.13700126
0.14283444
0.14781159
0.15170487
0.15428945
0.15532056
0.15464225
0.15203125
0.14732684
0.14053895
0.13161165
0.12054814
0.10749457
0.092606069
0.076090444
0.058188732
0.039091759
0.019055744
-0.0016117529
-0.02265837
-0.04387021
-0.065073303
-0.086019638
-0.10654868
-0.12660155
-0.14613468
-0.16504349
-0.18317977
-0.20052358
-0.2170684
-0.2327971
-0.24771528
-0.26180722
-0.27505327
-0.28751233
-0.29923656
-0.31025118
-0.32056937
-0.33022053
-0.33925501
-0.347706
-0.35557423
-0.36289658
-0.36971059
-0.37604653
-0.3819338
-0.38740106
-0.39247532
-0.39718291
-0.40154829
-0.40559384
-0.40934113
-0.41280637
0.023366043
0.025927152
0.028789396
0.031917615
0.035324199
0.039034551
0.043063433
0.047424092
0.052128192
0.057184795
0.062597434
0.068366017
0.074480296
0.08092304
0.087662685
0.094654443
0.10183736
0.10912942
0.11643038
0.12361291
0.13052764
0.13700236
0.14283661
0.14781549
0.15171079
0.15429785
0.15533171
0.15465693
0.15204959
0.14734877
0.14056415
0.13164027
0.12058157
0.10753161
0.092646516
0.076132632
0.058229828
0.039134172
0.019101561
-0.0015643731
-0.022611082
-0.043823032
-0.0650223
-0.085970562
-0.10650808
-0.1265686
-0.14610005
-0.16500099
-0.18313718
-0.20048237
-0.21702812
-0.23275759
-0.24767249
-0.26176171
-0.27501422
-0.28747893
-0.29920883
-0.31022739
-0.32055251
-0.33021023
-0.33924401
-0.34768795
-0.35555699
-0.36287859
-0.36969031
-0.37602438
-0.38190962
-0.38737496
-0.39244805
-0.39715459
-0.40151936
-0.40556537
-0.4093147
-0.41278723
0.023365193
0.025926412
0.028788501
0.031916606
0.035323081
0.03903331
0.043062056
0.04742257
0.052126513
0.057182953
0.062595435
0.06836385
0.074477987
0.080920603
0.087660162
0.09465192
0.10183491
0.10912722
0.11642854
0.12361173
0.13052745
0.13700349
0.14283946
0.14782072
0.15171888
0.15430946
0.15534726
0.15467754
0.15207551
0.14737991
0.14060046
0.13168185
0.12062983
0.10758527
0.09270519
0.076194401
0.058291626
0.039198306
0.019170076
-0.0014935941
-0.022540084
-0.043752243
-0.064948282
-0.085898907
-0.10644507
-0.12651283
-0.1460429
-0.16493754
-0.18307472
-0.20042189
-0.21696836
-0.23269793
-0.24760966
-0.26169782
-0.27495934
-0.28743525
-0.29917004
-0.31018839
-0.32051182
-0.33016937
-0.33920022
-0.34763737
-0.3555015
-0.36282166
-0.36963332
-0.37596781
-0.38185397
-0.38732024
-0.39239383
-0.3971005
-0.40146466
-0.40550961
-0.40925659
-0.41272781
0.023364203
0.0259255
0.028787415
0.031915378
0.035321714
0.039031784
0.043060357
0.047420681
0.052124419
0.057180642
0.062592908
0.068361094
0.074475029
0.080917458
0.08765688
0.094648604
0.10183167
0.10912426
0.11642605
0.12361009
0.13052699
0.13700488
0.14284316
0.14782761
0.15172968
0.15432509
0.15536835
0.15470572
0.15211109
0.14742288
0.14065111
0.13174028
0.12069749
0.10766077
0.092787871
0.07628211
0.058381
0.039291319
0.019268488
-0.0013921874
-0.022437955
-0.043650031
-0.064842888
-0.08579583
-0.10635064
-0.12642604
-0.14595577
-0.16484489
-0.18298256
-0.2003316
-0.21687906
-0.23260948
-0.24752006
-0.26160872
-0.27487794
-0.28736168
-0.29909986
-0.31011985
-0.32044625
-0.33010838
-0.33914105
-0.34757621
-0.35543989
-0.36276163
-0.36957424
-0.37590884
-0.38179477
-0.38726054
-0.39233353
-0.39703974
-0.40140366
-0.40544892
-0.40919657
-0.41266947
0.023363071
0.025924411
0.028786128
0.031913917
0.035320079
0.039029952
0.043058305
0.04741839
0.052121865
0.057177807
0.06258979
0.068357672
0.074471332
0.080913501
0.087652721
0.094644371
0.10182749
0.1091204
0.11642277
0.12360787
0.13052627
0.13700654
0.14284791
0.14783654
0.15174383
0.15434575
0.15539644
0.15474346
0.152159
0.14748099
0.14072024
0.13182053
0.12079033
0.10776469
0.092901925
0.076403841
0.058506677
0.039422478
0.01940659
-0.0012498534
-0.022294013
-0.043505556
-0.064695477
-0.08565099
-0.10621468
-0.12629796
-0.14582805
-0.16471267
-0.1828513
-0.20020315
-0.21675257
-0.23248459
-0.24739524
-0.26148536
-0.27476198
-0.28725457
-0.29899874
-0.31002221
-0.32035085
-0.33001423
-0.33904563
-0.34747717
-0.35533782
-0.36265776
-0.36946904
-0.37580275
-0.38168837
-0.38715424
-0.39222751
-0.39693411
-0.40129844
-0.40534413
-0.40909231
-0.41256587
0.023361799
0.025923142
0.028784632
0.03191221
0.035318158
0.039027787
0.043055868
0.047415652
0.052118798
0.057174384
0.062586002
0.068353492
0.074466785
0.080908604
0.087647544
0.094639058
0.10182221
0.10911548
0.11641854
0.12360497
0.13052535
0.13700849
0.1428539
0.14784798
0.15176217
0.15437272
0.15543332
0.15479335
0.15222258
0.14755844
0.14081307
0.13192888
0.12091572
0.1079055
0.093056852
0.076570047
0.05867999
0.03960386
0.019597002
-0.0010535785
-0.022094992
-0.043305386
-0.064492518
-0.085450652
-0.10602312
-0.12611442
-0.14564584
-0.16452741