/*--------------------------------*- C++ -*----------------------------------*\
| =========                 |                                                 |
| \\      /  F ield         | OpenFOAM: The Open Source CFD Toolbox           |
|  \\    /   O peration     | Version:  v2006                                 |
|   \\  /    A nd           | Website:  www.openfoam.com                      |
|    \\/     M anipulation  |                                                 |
\*---------------------------------------------------------------------------*/
FoamFile
{
    version     2.0;
    format      ascii;
    class       volScalarField;
    location    "6000";
    object      Cx;
}
// * * * * * * * * * * * * * * * * * * * * * * * * * * * * * * * * * * * * * //

dimensions      [0 1 0 0 0 0 0];


internalField   nonuniform List<scalar> 
55713
(
-4.1079202
-4.1076383
-4.1073952
-4.1071829
-4.1069956
-4.1068288
-4.106679
-4.1065436
-4.1064202
-4.1063072
-4.1062031
-4.1061069
-4.1060174
-4.1059339
-4.1058557
-4.1057822
-4.1057129
-4.1056474
-4.1055852
-4.1055261
-4.1054698
-4.1054161
-4.1053646
-4.1053153
-4.1052679
-4.1052223
-4.1051783
-4.1051359
-4.1050949
-4.1050552
-4.1050168
-4.1049796
-4.1049434
-4.1049083
-4.1048742
-4.1048411
-4.1048089
-4.1047777
-4.1047473
-4.1047179
-4.1046894
-4.1046619
-4.1046353
-4.1046099
-4.1045856
-4.1045626
-4.104541
-4.104521
-4.1045029
-4.104487
-4.1044737
-4.1044635
-4.1044571
-4.1044554
-4.1044595
-4.104471
-4.1044919
-4.104525
-4.1045743
-4.3220597
-4.3215804
-4.3211554
-4.3207749
-4.3204311
-4.3201181
-4.3198312
-4.3195665
-4.3193208
-4.3190918
-4.3188772
-4.3186753
-4.3184845
-4.3183036
-4.3181314
-4.3179671
-4.3178097
-4.3176586
-4.317513
-4.3173725
-4.3172365
-4.3171046
-4.3169762
-4.3168512
-4.316729
-4.3166095
-4.3164923
-4.3163771
-4.3162636
-4.3161517
-4.3160411
-4.3159316
-4.315823
-4.315715
-4.3156076
-4.3155004
-4.3153932
-4.315286
-4.3151785
-4.3150705
-4.3149617
-4.3148521
-4.3147414
-4.3146293
-4.3145156
-4.3144001
-4.3142826
-4.3141627
-4.3140401
-4.3139146
-4.3137857
-4.3136532
-4.3135165
-4.3133753
-4.3132291
-4.3130773
-4.3129192
-4.3127541
-4.3125812
-4.5362203
-4.5355765
-4.5350001
-4.5344793
-4.534005
-4.53357
-4.5331685
-4.5327957
-4.5324479
-4.5321217
-4.5318146
-4.5315242
-4.5312485
-4.530986
-4.5307351
-4.5304946
-4.5302634
-4.5300405
-4.5298251
-4.5296163
-4.5294135
-4.5292161
-4.5290233
-4.5288349
-4.5286501
-4.5284687
-4.5282901
-4.528114
-4.5279399
-4.5277676
-4.5275966
-4.5274267
-4.5272575
-4.5270886
-4.5269198
-4.5267507
-4.526581
-4.5264103
-4.5262383
-4.5260647
-4.525889
-4.5257108
-4.5255298
-4.5253454
-4.5251571
-4.5249644
-4.5247668
-4.5245634
-4.5243535
-4.5241364
-4.523911
-4.5236761
-4.5234304
-4.5231724
-4.5229002
-4.5226114
-4.5223031
-4.5219716
-4.5216122
-4.7504016
-4.7496267
-4.7489294
-4.7482966
-4.747718
-4.7471852
-4.7466919
-4.7462324
-4.7458025
-4.7453982
-4.7450166
-4.744655
-4.744311
-4.7439827
-4.7436683
-4.7433665
-4.7430758
-4.7427951
-4.7425233
-4.7422595
-4.7420029
-4.7417527
-4.7415081
-4.7412685
-4.7410334
-4.7408021
-4.7405742
-4.740349
-4.7401263
-4.7399054
-4.7396859
-4.7394674
-4.7392496
-4.7390318
-4.7388138
-4.7385951
-4.7383752
-4.7381536
-4.73793
-4.7377038
-4.7374744
-4.7372414
-4.737004
-4.7367617
-4.7365137
-4.7362592
-4.7359973
-4.735727
-4.7354472
-4.7351565
-4.7348535
-4.7345364
-4.7342031
-4.7338511
-4.7334773
-4.7330779
-4.7326483
-4.7321824
-4.7316721
-4.9646036
-4.9637312
-4.9629439
-4.9622274
-4.9615707
-4.9609647
-4.9604023
-4.9598776
-4.9593857
-4.9589225
-4.9584846
-4.9580691
-4.9576733
-4.9572952
-4.9569328
-4.9565844
-4.9562486
-4.9559241
-4.9556096
-4.9553041
-4.9550067
-4.9547165
-4.9544326
-4.9541544
-4.9538811
-4.9536122
-4.9533469
-4.9530848
-4.9528252
-4.9525676
-4.9523116
-4.9520566
-4.951802
-4.9515475
-4.9512925
-4.9510364
-4.9507788
-4.9505191
-4.9502566
-4.949991
-4.9497213
-4.9494471
-4.9491675
-4.9488817
-4.9485889
-4.9482879
-4.9479778
-4.9476573
-4.9473249
-4.9469789
-4.9466175
-4.9462383
-4.9458388
-4.9454156
-4.9449649
-4.9444816
-4.9439597
-4.9433913
-4.9427659
-5.1788259
-5.1778901
-5.1770438
-5.1762723
-5.1755638
-5.1749091
-5.1743006
-5.1737322
-5.1731987
-5.1726958
-5.17222
-5.1717679
-5.1713371
-5.1709252
-5.1705302
-5.1701502
-5.1697838
-5.1694294
-5.1690859
-5.1687521
-5.168427
-5.1681096
-5.1677991
-5.1674947
-5.1671956
-5.1669012
-5.1666107
-5.1663236
-5.1660392
-5.165757
-5.1654764
-5.1651968
-5.1649177
-5.1646385
-5.1643587
-5.1640777
-5.1637949
-5.1635096
-5.1632214
-5.1629294
-5.162633
-5.1623313
-5.1620236
-5.1617089
-5.1613862
-5.1610544
-5.1607122
-5.1603581
-5.1599905
-5.1596075
-5.1592069
-5.1587861
-5.1583419
-5.1578706
-5.1573675
-5.1568271
-5.156242
-5.1556031
-5.1548983
-5.3930686
-5.3921035
-5.3912296
-5.3904317
-5.3896981
-5.3890194
-5.3883879
-5.3877974
-5.3872427
-5.3867194
-5.3862239
-5.385753
-5.3853039
-5.3848743
-5.3844621
-5.3840655
-5.3836829
-5.3833129
-5.3829541
-5.3826054
-5.3822658
-5.3819342
-5.3816098
-5.3812917
-5.3809792
-5.3806715
-5.380368
-5.380068
-5.3797709
-5.379476
-5.3791828
-5.3788908
-5.3785992
-5.3783076
-5.3780154
-5.3777218
-5.3774264
-5.3771285
-5.3768274
-5.3765224
-5.3762127
-5.3758975
-5.3755759
-5.3752469
-5.3749095
-5.3745623
-5.3742041
-5.3738333
-5.3734481
-5.3730465
-5.372626
-5.3721839
-5.3717167
-5.3712203
-5.3706898
-5.370119
-5.3695
-5.3688229
-5.3680745
-5.6073315
-5.6063718
-5.6055016
-5.6047063
-5.6039743
-5.6032963
-5.602665
-5.6020742
-5.6015188
-5.6009946
-5.6004978
-5.6000256
-5.599575
-5.5991439
-5.5987302
-5.5983321
-5.597948
-5.5975765
-5.5972163
-5.5968662
-5.5965252
-5.5961924
-5.5958668
-5.5955476
-5.5952341
-5.5949255
-5.5946212
-5.5943204
-5.5940227
-5.5937273
-5.5934337
-5.5931413
-5.5928495
-5.5925577
-5.5922654
-5.5919719
-5.5916766
-5.5913788
-5.5910779
-5.5907732
-5.5904638
-5.590149
-5.5898278
-5.5894992
-5.5891621
-5.5888153
-5.5884574
-5.5880868
-5.5877016
-5.5872998
-5.5868789
-5.586436
-5.5859675
-5.5854694
-5.5849363
-5.5843621
-5.5837386
-5.5830555
-5.5822994
-5.8216145
-5.8206949
-5.8198603
-5.8190966
-5.818393
-5.8177407
-5.8171329
-5.8165636
-5.8160281
-5.8155225
-5.8150431
-5.8145872
-5.8141521
-5.8137358
-5.8133362
-5.8129517
-5.8125808
-5.812222
-5.8118742
-5.8115363
-5.8112073
-5.8108862
-5.8105723
-5.8102647
-5.8099627
-5.8096655
-5.8093727
-5.8090835
-5.8087973
-5.8085135
-5.8082316
-5.8079511
-5.8076713
-5.8073917
-5.8071117
-5.8068308
-5.8065483
-5.8062636
-5.8059761
-5.805685
-5.8053896
-5.8050892
-5.8047827
-5.8044693
-5.8041478
-5.8038171
-5.8034758
-5.8031224
-5.8027549
-5.8023715
-5.8019697
-5.8015466
-5.8010988
-5.8006222
-5.8001117
-5.7995612
-5.7989626
-5.798306
-5.7975783
-6.0359175
-6.0350732
-6.034306
-6.0336031
-6.0329549
-6.0323535
-6.0317925
-6.0312668
-6.0307719
-6.0303044
-6.0298611
-6.0294393
-6.0290368
-6.0286515
-6.0282818
-6.0279261
-6.027583
-6.0272513
-6.02693
-6.0266179
-6.0263141
-6.026018
-6.0257285
-6.0254452
-6.0251672
-6.024894
-6.024625
-6.0243595
-6.0240971
-6.0238372
-6.0235793
-6.0233229
-6.0230674
-6.0228124
-6.0225572
-6.0223015
-6.0220447
-6.021786
-6.0215251
-6.0212612
-6.0209936
-6.0207215
-6.0204443
-6.0201609
-6.0198703
-6.0195715
-6.0192632
-6.018944
-6.0186122
-6.0182658
-6.0179027
-6.0175201
-6.017115
-6.0166834
-6.0162206
-6.0157209
-6.015177
-6.0145794
-6.0139161
-6.2502406
-6.2495069
-6.2488391
-6.2482265
-6.2476609
-6.2471354
-6.2466448
-6.2461847
-6.2457513
-6.2453417
-6.2449531
-6.2445833
-6.2442304
-6.2438927
-6.2435687
-6.2432571
-6.2429567
-6.2426665
-6.2423855
-6.2421129
-6.2418478
-6.2415897
-6.2413378
-6.2410914
-6.2408502
-6.2406134
-6.2403805
-6.2401512
-6.2399248
-6.2397011
-6.2394794
-6.2392594
-6.2390406
-6.2388226
-6.238605
-6.2383872
-6.2381688
-6.2379493
-6.2377282
-6.237505
-6.2372789
-6.2370495
-6.2368159
-6.2365775
-6.2363332
-6.2360823
-6.2358235
-6.2355556
-6.2352773
-6.2349867
-6.234682
-6.2343608
-6.2340204
-6.2336574
-6.2332677
-6.2328462
-6.2323866
-6.2318808
-6.2313181
-6.4645837
-6.4639961
-6.46346
-6.4629673
-6.4625115
-6.4620874
-6.4616908
-6.4613185
-6.4609675
-6.4606355
-6.4603205
-6.4600207
-6.4597346
-6.4594609
-6.4591985
-6.4589463
-6.4587035
-6.4584692
-6.4582427
-6.4580233
-6.4578105
-6.4576036
-6.4574022
-6.4572057
-6.4570137
-6.4568259
-6.4566417
-6.4564609
-6.456283
-6.4561077
-6.4559346
-6.4557634
-6.4555938
-6.4554254
-6.4552578
-6.4550907
-6.4549238
-6.4547566
-6.4545887
-6.4544197
-6.4542492
-6.4540765
-6.4539012
-6.4537227
-6.4535403
-6.4533531
-6.4531604
-6.4529612
-6.4527543
-6.4525384
-6.4523119
-6.452073
-6.4518195
-6.4515488
-6.4512575
-6.4509418
-6.4505965
-6.4502152
-6.4497895
-6.6789469
-6.6785411
-6.6781693
-6.6778261
-6.6775075
-6.6772102
-6.6769315
-6.6766692
-6.6764217
-6.6761873
-6.6759647
-6.6757529
-6.6755509
-6.6753578
-6.675173
-6.6749957
-6.6748254
-6.6746616
-6.6745037
-6.6743514
-6.6742042
-6.6740618
-6.6739239
-6.6737902
-6.6736603
-6.673534
-6.673411
-6.6732912
-6.6731741
-6.6730597
-6.6729476
-6.6728377
-6.6727298
-6.6726235
-6.6725188
-6.6724152
-6.6723127
-6.672211
-6.6721098
-6.6720087
-6.6719076
-6.6718061
-6.6717038
-6.6716003
-6.6714951
-6.6713879
-6.671278
-6.6711647
-6.6710473
-6.6709249
-6.6707966
-6.670661
-6.6705168
-6.6703622
-6.670195
-6.6700126
-6.6698116
-6.6695877
-6.6693356
-6.8933301
-6.8931421
-6.8929672
-6.8928035
-6.8926496
-6.8925047
-6.8923677
-6.892238
-6.892115
-6.8919982
-6.8918871
-6.8917815
-6.8916809
-6.8915851
-6.8914939
-6.891407
-6.8913242
-6.8912454
-6.8911704
-6.891099
-6.8910311
-6.8909666
-6.8909053
-6.8908473
-6.8907922
-6.8907402
-6.890691
-6.8906445
-6.8906008
-6.8905597
-6.8905212
-6.8904851
-6.8904513
-6.8904199
-6.8903908
-6.8903637
-6.8903388
-6.8903158
-6.8902947
-6.8902754
-6.8902578
-6.8902417
-6.8902271
-6.8902138
-6.8902016
-6.8901904
-6.8901799
-6.89017
-6.8901604
-6.8901506
-6.8901404
-6.8901293
-6.8901168
-6.8901022
-6.8900847
-6.8900634
-6.8900369
-6.8900036
-6.8899616
-1.5518443
-1.5518127
-1.5517842
-1.5517584
-1.5517351
-1.551714
-1.5516948
-1.5516773
-1.5516615
-1.551647
-1.5516339
-1.5516219
-1.551611
-1.5516011
-1.5515921
-1.551584
-1.5515766
-1.55157
-1.551564
-1.5515587
-1.551554
-1.5515498
-1.5515462
-1.5515431
-1.5515406
-1.5515385
-1.5515369
-1.5515358
-1.5515351
-1.5515348
-1.5515351
-1.5515358
-1.5515369
-1.5515385
-1.5515406
-1.5515431
-1.5515462
-1.5515498
-1.551554
-1.5515587
-1.551564
-1.55157
-1.5515766
-1.551584
-1.5515921
-1.5516011
-1.551611
-1.5516219
-1.5516339
-1.551647
-1.5516615
-1.5516773
-1.5516948
-1.551714
-1.5517351
-1.5517584
-1.5517842
-1.5518127
-1.5518443
-1.6592464
-1.6592113
-1.6591794
-1.6591505
-1.6591241
-1.6591
-1.6590781
-1.6590581
-1.6590398
-1.6590231
-1.6590078
-1.6589939
-1.6589811
-1.6589696
-1.658959
-1.6589494
-1.6589407
-1.6589329
-1.6589259
-1.6589196
-1.658914
-1.6589091
-1.6589048
-1.6589011
-1.6588981
-1.6588956
-1.6588937
-1.6588923
-1.6588915
-1.6588913
-1.6588915
-1.6588923
-1.6588937
-1.6588956
-1.6588981
-1.6589011
-1.6589048
-1.6589091
-1.658914
-1.6589196
-1.6589259
-1.6589329
-1.6589407
-1.6589494
-1.658959
-1.6589696
-1.6589811
-1.6589939
-1.6590078
-1.6590231
-1.6590398
-1.6590581
-1.6590781
-1.6591
-1.6591241
-1.6591505
-1.6591794
-1.6592113
-1.6592464
-1.775242
-1.7752031
-1.7751676
-1.7751351
-1.7751053
-1.7750779
-1.7750529
-1.7750299
-1.7750089
-1.7749895
-1.7749718
-1.7749556
-1.7749407
-1.7749272
-1.7749148
-1.7749035
-1.7748933
-1.774884
-1.7748757
-1.7748682
-1.7748616
-1.7748557
-1.7748507
-1.7748463
-1.7748427
-1.7748397
-1.7748375
-1.7748358
-1.7748349
-1.7748345
-1.7748349
-1.7748358
-1.7748375
-1.7748397
-1.7748427
-1.7748463
-1.7748507
-1.7748557
-1.7748616
-1.7748682
-1.7748757
-1.774884
-1.7748933
-1.7749035
-1.7749148
-1.7749272
-1.7749407
-1.7749556
-1.7749718
-1.7749895
-1.7750089
-1.7750299
-1.7750529
-1.7750779
-1.7751053
-1.7751351
-1.7751676
-1.7752031
-1.775242
-1.9005186
-1.9004757
-1.9004362
-1.9003997
-1.9003661
-1.9003352
-1.9003066
-1.9002803
-1.900256
-1.9002337
-1.9002132
-1.9001943
-1.9001769
-1.900161
-1.9001465
-1.9001332
-1.9001211
-1.9001102
-1.9001003
-1.9000914
-1.9000836
-1.9000766
-1.9000706
-1.9000654
-1.900061
-1.9000575
-1.9000548
-1.9000529
-1.9000517
-1.9000513
-1.9000517
-1.9000529
-1.9000548
-1.9000575
-1.900061
-1.9000654
-1.9000706
-1.9000766
-1.9000836
-1.9000914
-1.9001003
-1.9001102
-1.9001211
-1.9001332
-1.9001465
-1.900161
-1.9001769
-1.9001943
-1.9002132
-1.9002337
-1.900256
-1.9002803
-1.9003066
-1.9003352
-1.9003661
-1.9003997
-1.9004362
-1.9004757
-1.9005186
-2.0358189
-2.0357716
-2.0357278
-2.035687
-2.0356492
-2.0356142
-2.0355817
-2.0355515
-2.0355237
-2.0354979
-2.035474
-2.0354521
-2.0354318
-2.0354132
-2.0353961
-2.0353804
-2.0353662
-2.0353532
-2.0353415
-2.035331
-2.0353216
-2.0353133
-2.0353061
-2.0352999
-2.0352947
-2.0352905
-2.0352872
-2.0352849
-2.0352835
-2.035283
-2.0352835
-2.0352849
-2.0352872
-2.0352905
-2.0352947
-2.0352999
-2.0353061
-2.0353133
-2.0353216
-2.035331
-2.0353415
-2.0353532
-2.0353662
-2.0353804
-2.0353961
-2.0354132
-2.0354318
-2.0354521
-2.035474
-2.0354979
-2.0355237
-2.0355515
-2.0355817
-2.0356142
-2.0356492
-2.035687
-2.0357278
-2.0357716
-2.0358189
-2.1819447
-2.1818928
-2.1818443
-2.1817989
-2.1817564
-2.1817168
-2.1816799
-2.1816455
-2.1816135
-2.1815837
-2.1815561
-2.1815305
-2.1815068
-2.181485
-2.1814649
-2.1814464
-2.1814296
-2.1814142
-2.1814003
-2.1813877
-2.1813766
-2.1813667
-2.181358
-2.1813506
-2.1813444
-2.1813393
-2.1813354
-2.1813326
-2.181331
-2.1813304
-2.181331
-2.1813326
-2.1813354
-2.1813393
-2.1813444
-2.1813506
-2.181358
-2.1813667
-2.1813766
-2.1813877
-2.1814003
-2.1814142
-2.1814296
-2.1814464
-2.1814649
-2.181485
-2.1815068
-2.1815305
-2.1815561
-2.1815837
-2.1816135
-2.1816455
-2.1816799
-2.1817168
-2.1817564
-2.1817989
-2.1818443
-2.1818928
-2.1819447
-2.3397623
-2.3397055
-2.3396519
-2.3396014
-2.3395539
-2.3395092
-2.3394673
-2.339428
-2.3393913
-2.339357
-2.339325
-2.3392952
-2.3392676
-2.339242
-2.3392183
-2.3391965
-2.3391765
-2.3391583
-2.3391417
-2.3391268
-2.3391134
-2.3391016
-2.3390912
-2.3390823
-2.3390748
-2.3390688
-2.339064
-2.3390607
-2.3390587
-2.339058
-2.3390587
-2.3390607
-2.339064
-2.3390688
-2.3390748
-2.3390823
-2.3390912
-2.3391016
-2.3391134
-2.3391268
-2.3391417
-2.3391583
-2.3391765
-2.3391965
-2.3392183
-2.339242
-2.3392676
-2.3392952
-2.339325
-2.339357
-2.3393913
-2.339428
-2.3394673
-2.3395092
-2.3395539
-2.3396014
-2.3396519
-2.3397055
-2.3397623
-2.5102071
-2.5101451
-2.5100861
-2.51003
-2.5099769
-2.5099267
-2.5098792
-2.5098345
-2.5097924
-2.5097528
-2.5097158
-2.5096811
-2.5096488
-2.5096188
-2.5095909
-2.5095652
-2.5095415
-2.5095198
-2.5095001
-2.5094822
-2.5094662
-2.509452
-2.5094395
-2.5094288
-2.5094198
-2.5094124
-2.5094068
-2.5094027
-2.5094003
-2.5093995
-2.5094003
-2.5094027
-2.5094068
-2.5094124
-2.5094198
-2.5094288
-2.5094395
-2.509452
-2.5094662
-2.5094822
-2.5095001
-2.5095198
-2.5095415
-2.5095652
-2.5095909
-2.5096188
-2.5096488
-2.5096811
-2.5097158
-2.5097528
-2.5097924
-2.5098345
-2.5098792
-2.5099267
-2.5099769
-2.51003
-2.5100861
-2.5101451
-2.5102071
-2.6942893
-2.6942218
-2.694157
-2.694095
-2.6940358
-2.6939794
-2.6939258
-2.6938749
-2.6938267
-2.6937812
-2.6937383
-2.693698
-2.6936602
-2.6936249
-2.6935921
-2.6935617
-2.6935335
-2.6935077
-2.6934841
-2.6934627
-2.6934435
-2.6934264
-2.6934114
-2.6933984
-2.6933875
-2.6933786
-2.6933717
-2.6933668
-2.6933639
-2.6933629
-2.6933639
-2.6933668
-2.6933717
-2.6933786
-2.6933875
-2.6933984
-2.6934114
-2.6934264
-2.6934435
-2.6934627
-2.6934841
-2.6935077
-2.6935335
-2.6935617
-2.6935921
-2.693625
-2.6936602
-2.693698
-2.6937383
-2.6937812
-2.6938267
-2.6938749
-2.6939258
-2.6939794
-2.6940358
-2.694095
-2.694157
-2.6942218
-2.6942893
-2.8931
-2.8930267
-2.8929558
-2.8928874
-2.8928216
-2.8927584
-2.8926979
-2.8926401
-2.892585
-2.8925327
-2.8924831
-2.8924362
-2.8923921
-2.8923506
-2.8923119
-2.8922758
-2.8922424
-2.8922116
-2.8921833
-2.8921576
-2.8921345
-2.8921138
-2.8920957
-2.89208
-2.8920667
-2.8920559
-2.8920475
-2.8920415
-2.8920379
-2.8920367
-2.8920379
-2.8920415
-2.8920475
-2.8920559
-2.8920667
-2.89208
-2.8920957
-2.8921138
-2.8921345
-2.8921576
-2.8921833
-2.8922116
-2.8922424
-2.8922758
-2.8923119
-2.8923506
-2.8923921
-2.8924362
-2.8924831
-2.8925327
-2.892585
-2.8926401
-2.8926979
-2.8927584
-2.8928216
-2.8928874
-2.8929558
-2.8930267
-2.8931
-3.1078176
-3.1077383
-3.1076609
-3.1075857
-3.1075126
-3.107442
-3.1073739
-3.1073083
-3.1072455
-3.1071853
-3.107128
-3.1070735
-3.1070219
-3.1069732
-3.1069275
-3.1068847
-3.1068449
-3.106808
-3.1067741
-3.1067432
-3.1067152
-3.1066902
-3.1066681
-3.106649
-3.1066329
-3.1066197
-3.1066094
-3.1066021
-3.1065977
-3.1065963
-3.1065977
-3.1066021
-3.1066094
-3.1066197
-3.1066329
-3.106649
-3.1066681
-3.1066902
-3.1067152
-3.1067432
-3.1067741
-3.106808
-3.1068449
-3.1068847
-3.1069275
-3.1069732
-3.1070219
-3.1070735
-3.107128
-3.1071853
-3.1072455
-3.1073083
-3.1073739
-3.107442
-3.1075126
-3.1075857
-3.1076609
-3.1077383
-3.1078176
-3.3397147
-3.3396291
-3.3395449
-3.3394623
-3.3393816
-3.3393028
-3.3392263
-3.3391521
-3.3390804
-3.3390114
-3.3389452
-3.3388819
-3.3388215
-3.3387643
-3.3387102
-3.3386594
-3.3386118
-3.3385676
-3.3385268
-3.3384894
-3.3384555
-3.3384251
-3.3383983
-3.3383749
-3.3383552
-3.338339
-3.3383264
-3.3383174
-3.338312
-3.3383102
-3.338312
-3.3383174
-3.3383264
-3.338339
-3.3383552
-3.3383749
-3.3383983
-3.3384251
-3.3384555
-3.3384894
-3.3385268
-3.3385676
-3.3386118
-3.3386594
-3.3387102
-3.3387643
-3.3388215
-3.3388819
-3.3389452
-3.3390114
-3.3390804
-3.3391521
-3.3392263
-3.3393028
-3.3393816
-3.3394623
-3.3395449
-3.3396291
-3.3397147
-3.5901657
-3.5900736
-3.5899823
-3.5898919
-3.5898028
-3.5897152
-3.5896294
-3.5895456
-3.5894641
-3.589385
-3.5893085
-3.5892349
-3.5891644
-3.589097
-3.589033
-3.5889725
-3.5889156
-3.5888625
-3.5888132
-3.5887679
-3.5887267
-3.5886896
-3.5886566
-3.588628
-3.5886037
-3.5885837
-3.5885681
-3.588557
-3.5885503
-3.5885481
-3.5885503
-3.588557
-3.5885681
-3.5885837
-3.5886037
-3.588628
-3.5886566
-3.5886896
-3.5887267
-3.5887679
-3.5888132
-3.5888625
-3.5889156
-3.5889725
-3.589033
-3.589097
-3.5891644
-3.5892349
-3.5893085
-3.589385
-3.5894641
-3.5895456
-3.5896294
-3.5897152
-3.5898028
-3.5898919
-3.5899823
-3.5900736
-3.5901657
-3.860655
-3.8605562
-3.8604574
-3.8603588
-3.8602608
-3.8601636
-3.8600676
-3.8599732
-3.8598805
-3.85979
-3.8597018
-3.8596163
-3.8595338
-3.8594545
-3.8593786
-3.8593065
-3.8592383
-3.8591742
-3.8591145
-3.8590594
-3.859009
-3.8589634
-3.8589229
-3.8588875
-3.8588574
-3.8588326
-3.8588133
-3.8587994
-3.858791
-3.8587883
-3.858791
-3.8587994
-3.8588133
-3.8588326
-3.8588574
-3.8588875
-3.8589229
-3.8589634
-3.859009
-3.8590594
-3.8591145
-3.8591742
-3.8592383
-3.8593065
-3.8593786
-3.8594545
-3.8595338
-3.8596163
-3.8597018
-3.85979
-3.8598805
-3.8599732
-3.8600676
-3.8601636
-3.8602608
-3.8603588
-3.8604574
-3.8605562
-3.860655
-1.441076
-1.3263825
-1.2206744
-1.1232477
-1.0334536
-0.95069418
-0.87441834
-0.80411816
-0.73932551
-0.67960892
-0.62457073
-0.57384444
-0.52709226
-0.48400286
-0.44428929
-0.40768708
-0.37395251
-0.3428609
-0.31420522
-0.28779463
-0.26345325
-0.24101896
-0.22034238
-0.20128578
-0.18372227
-0.16753485
-0.15261574
-0.13886555
-0.12619271
-0.11451282
-0.10374807
-0.093826763
-0.084682823
-0.076255338
-0.068488174
-0.061329593
-0.054731911
-0.048651179
-0.043046892
-0.03788172
-0.033121254
-0.028733783
-0.024690082
-0.020963214
-0.017528353
-0.014362619
-0.011444923
-0.0087558314
-0.0062774308
-0.0039932125
-0.001887962
5.2343361e-05
0.0018406278
0.0034888027
0.0050078464
0.0064078765
0.0076982185
0.0088874669
0.0099835418
0.010993743
0.0119248
0.012782912
0.013573795
0.014302716
0.014974529
0.015593711
0.016164383
0.016690346
0.017175103
0.017621883
0.018033661
0.018413178
0.018762963
0.019085345
-1.4410636
-1.3263704
-1.2206625
-1.1232361
-1.0334422
-0.95068309
-0.87440754
-0.80410766
-0.73931531
-0.67959905
-0.62456119
-0.57383525
-0.52708342
-0.48399438
-0.44428117
-0.40767934
-0.37394513
-0.3428539
-0.3141986
-0.28778838
-0.26344737
-0.24101345
-0.22033722
-0.20128098
-0.18371781
-0.16753073
-0.15261193
-0.13886205
-0.12618951
-0.11450989
-0.1037454
-0.09382434
-0.08468063
-0.076253359
-0.068486394
-0.061327997
-0.054730483
-0.048649904
-0.043045758
-0.037880712
-0.033120361
-0.028732994
-0.024689385
-0.0209626
-0.017527813
-0.014362145
-0.011444508
-0.0087554673
-0.0062771117
-0.0039929334
-0.0018877179
5.2556975e-05
0.0018408147
0.0034889664
0.0050079898
0.0064080024
0.0076983292
0.0088875643
0.0099836278
0.010993819
0.011924867
0.012782972
0.013573849
0.014302764
0.014974573
0.015593751
0.01616442
0.01669038
0.017175135
0.017621912
0.018033688
0.018413204
0.018762987
0.019085368
-1.4410495
-1.3263566
-1.2206491
-1.1232229
-1.0334294
-0.95067063
-0.87439545
-0.80409595
-0.739304
-0.67958813
-0.6245507
-0.57382518
-0.52707378
-0.48398517
-0.44427241
-0.40767102
-0.37393726
-0.34284647
-0.31419161
-0.28778183
-0.26344124
-0.24100774
-0.22033192
-0.20127607
-0.18371328
-0.16752656
-0.15260811
-0.13885856
-0.12618632
-0.114507
-0.10374278
-0.093821981
-0.084678507
-0.076251455
-0.068484689
-0.061326475
-0.054729128
-0.048648702
-0.043044692
-0.03787977
-0.033119529
-0.028732261
-0.024688741
-0.020962034
-0.017527317
-0.01436171
-0.011444127
-0.0087551339
-0.0062768205
-0.0039926785
-0.0018874949
5.2752132e-05
0.0018409856
0.0034891163
0.0050081215
0.0064081183
0.0076984314
0.0088876548
0.0099837081
0.010993891
0.011924931
0.01278303
0.013573901
0.014302811
0.014974616
0.01559379
0.016164456
0.016690414
0.017175166
0.017621942
0.018033716
0.018413231
0.018763013
0.019085393
-1.4410335
-1.326341
-1.2206338
-1.1232081
-1.033415
-0.95065669
-0.87438197
-0.80408295
-0.73929149
-0.67957613
-0.62453921
-0.57381421
-0.52706334
-0.48397526
-0.44426302
-0.40766216
-0.37392892
-0.34283866
-0.3141843
-0.28777501
-0.26343491
-0.24100188
-0.22032651
-0.20127109
-0.18370871
-0.16752239
-0.15260431
-0.13885511
-0.1261832
-0.11450418
-0.10374025
-0.093819704
-0.084676469
-0.076249636
-0.06848307
-0.061325037
-0.054727854
-0.048647575
-0.043043698
-0.037878894
-0.033118759
-0.028731584
-0.024688148
-0.020961515
-0.017526862
-0.014361312
-0.011443779
-0.0087548297
-0.0062765542
-0.0039924457
-0.001887291
5.2930813e-05
0.0018411425
0.0034892543
0.0050082431
0.0064082258
0.0076985267
0.0088877396
0.0099837839
0.010993959
0.011924993
0.012783086
0.013573952
0.014302858
0.014974659
0.01559383
0.016164493
0.016690449
0.017175199
0.017621973
0.018033746
0.018413259
0.018763041
0.01908542
-1.4410152
-1.3263232
-1.2206166
-1.1231914
-1.0333989
-0.95064114
-0.87436701
-0.80406859
-0.73927775
-0.67956301
-0.62452671
-0.57380234
-0.5270521
-0.48396465
-0.44425304
-0.4076528
-0.37392017
-0.3428305
-0.31417672
-0.28776799
-0.26342843
-0.24099592
-0.22032104
-0.2012661
-0.18370416
-0.16751826
-0.15260057
-0.13885173
-0.12618016
-0.11450145
-0.10373781
-0.093817526
-0.08467453
-0.076247914
-0.068481545
-0.061323688
-0.054726664
-0.048646526
-0.043042775
-0.037878084
-0.033118049
-0.028730963
-0.024687603
-0.020961038
-0.017526446
-0.014360948
-0.011443461
-0.0087545516
-0.0062763108
-0.0039922325
-0.001887104
5.3095153e-05
0.0018412873
0.0034893821
0.0050083563
0.0064083264
0.0076986166
0.0088878201
0.0099838564
0.010994025
0.011925053
0.01278314
0.013574002
0.014302905
0.014974703
0.015593871
0.016164532
0.016690486
0.017175234
0.017622007
0.018033778
0.018413291
0.018763071
0.019085449
-1.4409945
-1.3263032
-1.2205972
-1.1231727
-1.0333809
-0.95062388
-0.87435049
-0.80405282
-0.73926273
-0.67954875
-0.62451321
-0.5737896
-0.52704012
-0.48395341
-0.44424253
-0.407643
-0.37391107
-0.34282207
-0.31416894
-0.28776084
-0.26342187
-0.24098992
-0.22031558
-0.20126114
-0.18369967
-0.16751421
-0.15259692
-0.13884846
-0.12617723
-0.11449884
-0.10373548
-0.093815461
-0.0846727
-0.076246296
-0.068480117
-0.061322431
-0.054725558
-0.048645556
-0.043041925
-0.037877339
-0.033117397
-0.028730392
-0.024687105
-0.020960603
-0.017526066
-0.014360616
-0.01144317
-0.0087542971
-0.0062760878
-0.0039920366
-0.0018869316
5.3247248e-05
0.0018414218
0.0034895016
0.0050084629
0.0064084218
0.0076987023
0.0088878976
0.0099839269
0.010994089
0.011925112
0.012783195
0.013574053
0.014302952
0.014974748
0.015593914
0.016164573
0.016690525
0.017175272
0.017622043
0.018033813
0.018413325
0.018763104
0.019085482
-1.4409711
-1.3262806
-1.2205755
-1.1231519
-1.033361
-0.95060482
-0.87433235
-0.8040356
-0.73924643
-0.67953337
-0.62449874
-0.57377603
-0.52702743
-0.48394159
-0.44423155
-0.40763284
-0.37390169
-0.34281344
-0.31416103
-0.28775361
-0.26341529
-0.24098395
-0.22031018
-0.20125626
-0.18369528
-0.16751027
-0.1525934
-0.13884532
-0.12617444
-0.11449635
-0.10373328
-0.093813516
-0.084670985
-0.076244786
-0.06847879
-0.061321266
-0.054724537
-0.048644662
-0.043041143
-0.037876656
-0.0331168
-0.028729871
-0.02468665
-0.020960206
-0.017525718
-0.014360312
-0.011442904
-0.0087540634
-0.0062758823
-0.0039918556
-0.0018867716
5.3389158e-05
0.0018415482
0.0034896145
0.0050085643
0.0064085133
0.0076987854
0.0088879735
0.0099839965
0.010994153
0.011925172
0.012783251
0.013574106
0.014303002
0.014974795
0.015593959
0.016164616
0.016690566
0.017175312
0.017622082
0.018033852
0.018413363
0.018763142
0.019085519
-1.4409446
-1.3262552
-1.2205512
-1.1231287
-1.0333389
-0.95058389
-0.87431254
-0.80401691
-0.73922886
-0.6795169
-0.62448335
-0.5737617
-0.52701412
-0.48392927
-0.44422019
-0.40762239
-0.37389212
-0.34280471
-0.31415308
-0.28774639
-0.26340876
-0.24097806
-0.22030488
-0.20125151
-0.18369104
-0.16750648
-0.15259003
-0.13884233
-0.12617179
-0.11449401
-0.10373122
-0.0938117
-0.084669389
-0.076243386
-0.068477563
-0.061320192
-0.054723599
-0.048643842
-0.043040427
-0.037876031
-0.033116255
-0.028729395
-0.024686234
-0.020959842
-0.0175254
-0.014360033
-0.011442659
-0.0087538478
-0.006275692
-0.0039916869
-0.0018866217
5.3522935e-05
0.0018416681
0.0034897227
0.0050086622
0.0064086025
0.0076988672
0.0088880488
0.0099840664
0.010994219
0.011925233
0.012783309
0.013574161
0.014303055
0.014974846
0.015594007
0.016164663
0.016690612
0.017175357
0.017622126
0.018033895
0.018413405
0.018763183
0.01908556
-1.4409149
-1.3262268
-1.2205242
-1.123103
-1.0333147
-0.95056104
-0.87429107
-0.8039968
-0.73921007
-0.67949941
-0.62446713
-0.57374669
-0.52700029
-0.48391657
-0.44420856
-0.40761177
-0.37388246
-0.34279594
-0.31414515
-0.28773925
-0.26340234
-0.2409723
-0.22029974
-0.20124693
-0.18368696
-0.16750286
-0.15258683
-0.1388395
-0.1261693
-0.11449182
-0.10372929
-0.093810014
-0.084667912
-0.076242094
-0.068476435
-0.061319207
-0.054722739
-0.048643092
-0.043039773
-0.037875461
-0.033115757
-0.02872896
-0.024685854
-0.020959509
-0.017525108
-0.014359776
-0.011442432
-0.0087536474
-0.006275514
-0.0039915284
-0.0018864797
5.3650657e-05
0.0018417836
0.0034898276
0.0050087583
0.0064086909
0.007698949
0.0088881251
0.0099841379
0.010994286
0.011925297
0.01278337
0.013574219
0.014303111
0.0149749
0.01559406
0.016164715
0.016690663
0.017175406
0.017622175
0.018033943
0.018413452
0.01876323
0.019085606
-1.4408815
-1.3261951
-1.2204943
-1.1230749
-1.0332882
-0.95053628
-0.87426796
-0.80397531
-0.73919015
-0.67948101
-0.62445018
-0.57373114
-0.52698606
-0.48390359
-0.44419676
-0.40760108
-0.3738728
-0.34278724
-0.31413734
-0.28773226
-0.26339609
-0.24096674
-0.22029479
-0.20124255
-0.18368309
-0.16749945
-0.15258382
-0.13883685
-0.12616698
-0.11448979
-0.10372751
-0.093808457
-0.084666553
-0.076240909
-0.068475401
-0.061318306
-0.054721954
-0.048642407
-0.043039176
-0.03787494
-0.033115302
-0.028728562
-0.024685505
-0.020959203
-0.017524838
-0.014359537
-0.011442221
-0.0087534593
-0.006275346
-0.0039913775
-0.0018863436
5.3774255e-05
0.0018418964
0.0034899313
0.005008854
0.00640878
0.0076990323
0.0088882034
0.0099842121
0.010994357
0.011925364
0.012783435
0.013574282
0.014303172
0.014974959
0.015594118
0.016164771
0.016690718
0.017175461
0.017622229
0.018033996
0.018413505
0.018763283
0.019085659
-1.4408441
-1.32616
-1.2204613
-1.1230441
-1.0332595
-0.95050964
-0.8742433
-0.80395255
-0.73916922
-0.67946182
-0.62443265
-0.57371517
-0.52697156
-0.48389047
-0.44418492
-0.40759043
-0.37386325
-0.3427787
-0.31412972
-0.28772548
-0.26339007
-0.24096141
-0.22029008
-0.20123839
-0.18367943
-0.16749624
-0.15258101
-0.13883439
-0.12616482
-0.11448791
-0.10372587
-0.093807028
-0.084665308
-0.076239824
-0.068474456
-0.061317484
-0.054721237
-0.048641783
-0.043038631
-0.037874463
-0.033114885
-0.028728196
-0.024685183
-0.020958919
-0.017524587
-0.014359315
-0.011442022
-0.0087532811
-0.0062751855
-0.0039912321
-0.0018862111
5.3895644e-05
0.0018420084
0.0034900351
0.005008951
0.0064088711
0.0076991184
0.0088882853
0.0099842902
0.010994432
0.011925437
0.012783505
0.01357435
0.014303238
0.014975024
0.015594182
0.016164834
0.016690781
0.017175523
0.01762229
0.018034057
0.018413565
0.018763342
0.019085718
-1.4408027
-1.3261213
-1.2204253
-1.1230107
-1.0332287
-0.95048122
-0.87421721
-0.80392867
-0.73914744
-0.67944201
-0.6244147
-0.57369895
-0.52695695
-0.48387734
-0.44417317
-0.40757994
-0.3738539
-0.34277039
-0.31412236
-0.28771896
-0.26338433
-0.24095635
-0.22028564
-0.2012345
-0.18367602
-0.16749325
-0.1525784
-0.13883212
-0.12616284
-0.11448618
-0.10372437
-0.09380572
-0.084664171
-0.076238835
-0.068473596
-0.061316734
-0.054720584
-0.048641213
-0.043038133
-0.037874027
-0.033114502
-0.028727859
-0.024684885
-0.020958655
-0.017524351
-0.014359104
-0.011441833
-0.00875311
-0.0062750299
-0.0039910899
-0.0018860802
5.4016819e-05
0.0018421213
0.003490141
0.0050090508
0.0064089657
0.0076992086
0.0088883718
0.0099843736
0.010994512
0.011925515
0.012783581
0.013574425
0.014303312
0.014975097
0.015594253
0.016164905
0.01669085
0.017175592
0.017622358
0.018034125
0.018413633
0.01876341
0.019085785
-1.4407569
-1.326079
-1.2203863
-1.1229748
-1.0331958
-0.95045118
-0.87418987
-0.80390387
-0.73912501
-0.67942179
-0.62439651
-0.57368265
-0.52694238
-0.48386436
-0.44416162
-0.4075697
-0.37384484
-0.3427624
-0.31411531
-0.28771277
-0.2633789
-0.24095159
-0.22028148