/*--------------------------------*- C++ -*----------------------------------*\
| =========                 |                                                 |
| \\      /  F ield         | OpenFOAM: The Open Source CFD Toolbox           |
|  \\    /   O peration     | Version:  v2006                                 |
|   \\  /    A nd           | Website:  www.openfoam.com                      |
|    \\/     M anipulation  |                                                 |
\*---------------------------------------------------------------------------*/
FoamFile
{
    version     2.0;
    format      ascii;
    class       volScalarField;
    location    "6000";
    object      k;
}
// * * * * * * * * * * * * * * * * * * * * * * * * * * * * * * * * * * * * * //

dimensions      [0 2 -2 0 0 0 0];


internalField   nonuniform List<scalar> 
55713
(
1.5653246e-09
4.0016945e-09
1.3288378e-08
2.0757465e-08
2.4164954e-08
2.5101175e-08
2.5114089e-08
2.4963527e-08
2.4868823e-08
2.4836019e-08
2.4831726e-08
2.4834244e-08
2.4836405e-08
2.4837253e-08
2.4837241e-08
2.4836946e-08
2.4836775e-08
2.4836655e-08
2.4836541e-08
2.4836517e-08
2.4836531e-08
2.483647e-08
2.4836313e-08
2.483615e-08
2.4836037e-08
2.4835926e-08
2.48358e-08
2.4835624e-08
2.4835428e-08
2.4835183e-08
2.4834921e-08
2.4834641e-08
2.4834358e-08
2.4834094e-08
2.48339e-08
2.4833863e-08
2.4833555e-08
2.4833028e-08
2.4832362e-08
2.4831629e-08
2.4830914e-08
2.4830229e-08
2.4829523e-08
2.4828783e-08
2.4828068e-08
2.4827393e-08
2.4826734e-08
2.4826062e-08
2.4825372e-08
2.482465e-08
2.4823888e-08
2.4823079e-08
2.4822237e-08
2.4821377e-08
2.4820501e-08
2.4819617e-08
2.4818775e-08
2.4817997e-08
2.4817238e-08
1.7354194e-09
5.340965e-09
1.5768806e-08
2.3004376e-08
2.5852784e-08
2.6445599e-08
2.635117e-08
2.620171e-08
2.6128526e-08
2.6108528e-08
2.6107901e-08
2.6110003e-08
2.6111026e-08
2.6110911e-08
2.6110064e-08
2.6109196e-08
2.6108475e-08
2.6107793e-08
2.6107142e-08
2.61066e-08
2.6106093e-08
2.6105493e-08
2.6104822e-08
2.6104169e-08
2.6103576e-08
2.6102984e-08
2.6102377e-08
2.6101727e-08
2.6101064e-08
2.610035e-08
2.6099618e-08
2.6098867e-08
2.6098106e-08
2.6097362e-08
2.609669e-08
2.609622e-08
2.6095487e-08
2.6094459e-08
2.6093271e-08
2.6092001e-08
2.6090744e-08
2.6089526e-08
2.6088277e-08
2.6086963e-08
2.6085648e-08
2.6084364e-08
2.6083083e-08
2.6081766e-08
2.6080403e-08
2.607898e-08
2.6077482e-08
2.6075891e-08
2.6074208e-08
2.6072452e-08
2.6070614e-08
2.6068681e-08
2.6066685e-08
2.6064641e-08
2.6062528e-08
1.9907623e-09
6.9704921e-09
1.8391945e-08
2.5250282e-08
2.7541811e-08
2.7857259e-08
2.7700945e-08
2.7566857e-08
2.7514251e-08
2.750355e-08
2.7504445e-08
2.7505598e-08
2.7505511e-08
2.7504304e-08
2.7502766e-08
2.7501302e-08
2.7499992e-08
2.7498731e-08
2.7497531e-08
2.7496456e-08
2.7495393e-08
2.749424e-08
2.7493036e-08
2.7491877e-08
2.7490782e-08
2.7489692e-08
2.7488592e-08
2.7487455e-08
2.7486309e-08
2.7485112e-08
2.7483899e-08
2.7482665e-08
2.7481416e-08
2.7480179e-08
2.7479009e-08
2.7478087e-08
2.7476955e-08
2.7475416e-08
2.7473691e-08
2.7471867e-08
2.7470053e-08
2.7468294e-08
2.74665e-08
2.7464608e-08
2.7462685e-08
2.7460785e-08
2.7458874e-08
2.7456908e-08
2.7454868e-08
2.7452742e-08
2.7450507e-08
2.7448136e-08
2.7445615e-08
2.7442963e-08
2.7440167e-08
2.7437192e-08
2.743405e-08
2.7430751e-08
2.7427278e-08
2.3620961e-09
9.0364012e-09
2.1265091e-08
2.7547537e-08
2.9281779e-08
2.9375412e-08
2.9192182e-08
2.9082431e-08
2.9048126e-08
2.904353e-08
2.9044366e-08
2.904427e-08
2.9042891e-08
2.9040887e-08
2.9038684e-08
2.9036586e-08
2.903468e-08
2.9032838e-08
2.9031086e-08
2.9029465e-08
2.9027839e-08
2.9026127e-08
2.9024387e-08
2.9022717e-08
2.9021113e-08
2.9019522e-08
2.9017917e-08
2.9016288e-08
2.9014651e-08
2.9012971e-08
2.9011273e-08
2.9009553e-08
2.9007814e-08
2.9006079e-08
2.9004407e-08
2.9003019e-08
2.9001517e-08
2.8999475e-08
2.8997207e-08
2.8994817e-08
2.8992433e-08
2.8990128e-08
2.8987796e-08
2.8985333e-08
2.8982797e-08
2.8980276e-08
2.8977732e-08
2.8975114e-08
2.8972393e-08
2.8969561e-08
2.8966589e-08
2.896344e-08
2.896008e-08
2.8956524e-08
2.8952766e-08
2.8948747e-08
2.8944449e-08
2.8939888e-08
2.8935039e-08
2.8897635e-09
1.1590473e-08
2.4343764e-08
2.9881405e-08
3.1097331e-08
3.1032852e-08
3.0852184e-08
3.0770211e-08
3.0750092e-08
3.0748627e-08
3.074832e-08
3.0746704e-08
3.0744435e-08
3.0741679e-08
3.0738764e-08
3.073602e-08
3.0733527e-08
3.0731106e-08
3.0728796e-08
3.0726621e-08
3.0724426e-08
3.0722148e-08
3.0719873e-08
3.0717691e-08
3.071558e-08
3.0713485e-08
3.0711378e-08
3.0709258e-08
3.0707131e-08
3.0704968e-08
3.0702786e-08
3.0700584e-08
3.0698358e-08
3.0696129e-08
3.0693957e-08
3.0692098e-08
3.0690257e-08
3.0687745e-08
3.0684937e-08
3.0681976e-08
3.0679018e-08
3.0676171e-08
3.067332e-08
3.0670307e-08
3.066717e-08
3.0664032e-08
3.0660869e-08
3.0657614e-08
3.065423e-08
3.0650707e-08
3.0647015e-08
3.0643111e-08
3.0638937e-08
3.0634498e-08
3.0629798e-08
3.0624766e-08
3.0619337e-08
3.0613543e-08
3.0607343e-08
3.6356434e-09
1.4702188e-08
2.7602102e-08
3.2270301e-08
3.3031545e-08
3.2869367e-08
3.2711894e-08
3.2656367e-08
3.2645956e-08
3.2645019e-08
3.264294e-08
3.2640285e-08
3.2637235e-08
3.2633697e-08
3.2630058e-08
3.2626692e-08
3.2623637e-08
3.2620638e-08
3.2617769e-08
3.2615049e-08
3.2612288e-08
3.2609455e-08
3.2606653e-08
3.2603965e-08
3.2601356e-08
3.2598768e-08
3.2596173e-08
3.2593572e-08
3.2590969e-08
3.2588339e-08
3.2585687e-08
3.2583017e-08
3.2580319e-08
3.2577612e-08
3.257495e-08
3.2572621e-08
3.2570473e-08
3.2567564e-08
3.2564226e-08
3.2560699e-08
3.2557173e-08
3.2553798e-08
3.255046e-08
3.254694e-08
3.254323e-08
3.2539496e-08
3.2535743e-08
3.2531883e-08
3.2527869e-08
3.2523687e-08
3.2519312e-08
3.2514697e-08
3.2509757e-08
3.2504476e-08
3.2498877e-08
3.2492889e-08
3.2486381e-08
3.2479416e-08
3.2471915e-08
4.6939325e-09
1.8431929e-08
3.0975424e-08
3.4753662e-08
3.5133607e-08
3.4928349e-08
3.4805956e-08
3.477209e-08
3.4767096e-08
3.4764851e-08
3.4761258e-08
3.4757845e-08
3.4754031e-08
3.47497e-08
3.4745359e-08
3.4741422e-08
3.4737836e-08
3.4734259e-08
3.4730854e-08
3.472761e-08
3.4724303e-08
3.472094e-08
3.4717637e-08
3.4714468e-08
3.4711382e-08
3.4708322e-08
3.4705265e-08
3.4702211e-08
3.4699158e-08
3.4696092e-08
3.4693001e-08
3.4689895e-08
3.468676e-08
3.4683608e-08
3.4680488e-08
3.4677701e-08
3.4675278e-08
3.4672101e-08
3.4668262e-08
3.4664186e-08
3.4660106e-08
3.4656234e-08
3.4652464e-08
3.464851e-08
3.4644286e-08
3.4639999e-08
3.4635709e-08
3.4631304e-08
3.4626721e-08
3.4621944e-08
3.4616951e-08
3.46117e-08
3.4606083e-08
3.4600043e-08
3.4593619e-08
3.4586781e-08
3.4579291e-08
3.4571265e-08
3.4562567e-08
6.2257431e-09
2.2826729e-08
3.4625419e-08
3.7391712e-08
3.7461111e-08
3.725957e-08
3.7174781e-08
3.7156005e-08
3.7152851e-08
3.7148597e-08
3.7143966e-08
3.7140002e-08
3.7135411e-08
3.713032e-08
3.7125323e-08
3.7120908e-08
3.7116829e-08
3.7112687e-08
3.7108799e-08
3.7105075e-08
3.7101257e-08
3.7097412e-08
3.7093656e-08
3.7090054e-08
3.7086533e-08
3.708305e-08
3.7079575e-08
3.707612e-08
3.7072665e-08
3.7069216e-08
3.7065739e-08
3.7062255e-08
3.7058741e-08
3.7055205e-08
3.7051685e-08
3.7048482e-08
3.7045808e-08
3.7042566e-08
3.7038288e-08
3.7033701e-08
3.7029102e-08
3.7024787e-08
3.702067e-08
3.7016396e-08
3.7011755e-08
3.7006991e-08
3.7002253e-08
3.6997402e-08
3.6992356e-08
3.6987091e-08
3.6981589e-08
3.6975822e-08
3.6969666e-08
3.6963013e-08
3.6955889e-08
3.6948367e-08
3.6940061e-08
3.6931154e-08
3.6921441e-08
8.565691e-09
2.7905255e-08
3.8328886e-08
4.0182894e-08
4.0084631e-08
3.9919826e-08
3.9866922e-08
3.9856973e-08
3.9853079e-08
3.9847021e-08
3.9841925e-08
3.9837514e-08
3.9832147e-08
3.9826372e-08
3.9820819e-08
3.981606e-08
3.9811536e-08
3.9806882e-08
3.9802613e-08
3.9798473e-08
3.9794212e-08
3.9789962e-08
3.9785836e-08
3.978188e-08
3.9778001e-08
3.9774174e-08
3.9770362e-08
3.9766587e-08
3.9762814e-08
3.9759066e-08
3.9755292e-08
3.9751522e-08
3.9747723e-08
3.9743903e-08
3.974008e-08
3.9736546e-08
3.9733685e-08
3.9730571e-08
3.9726037e-08
3.9721004e-08
3.9715944e-08
3.9711275e-08
3.9706934e-08
3.9702517e-08
3.9697615e-08
3.9692499e-08
3.9687455e-08
3.9682315e-08
3.9676971e-08
3.9671387e-08
3.966555e-08
3.9659453e-08
3.9652968e-08
3.9645939e-08
3.9638311e-08
3.9630364e-08
3.9621509e-08
3.9611998e-08
3.9601563e-08
1.248229e-08
3.3633985e-08
4.2189085e-08
4.3261557e-08
4.30897e-08
4.2972922e-08
4.2943229e-08
4.2937347e-08
4.2931674e-08
4.2924394e-08
4.2919343e-08
4.2914533e-08
4.290845e-08
4.290212e-08
4.2896197e-08
4.2891278e-08
4.2886387e-08
4.2881342e-08
4.2876858e-08
4.2872402e-08
4.2867806e-08
4.2863284e-08
4.2858917e-08
4.2854732e-08
4.2850622e-08
4.2846578e-08
4.2842559e-08
4.2838595e-08
4.2834638e-08
4.2830724e-08
4.282679e-08
4.2822882e-08
4.2818943e-08
4.2814993e-08
4.281102e-08
4.2807299e-08
4.2804345e-08
4.2801588e-08
4.2797144e-08
4.2791772e-08
4.2786342e-08
4.2781458e-08
4.2777074e-08
4.2772772e-08
4.2767857e-08
4.2762584e-08
4.2757456e-08
4.2752263e-08
4.2746874e-08
4.2741233e-08
4.2735327e-08
4.2729184e-08
4.2722677e-08
4.2715642e-08
4.2707829e-08
4.2699826e-08
4.2690854e-08
4.2681145e-08
4.2670446e-08
1.876839e-08
3.9899247e-08
4.6238662e-08
4.6732492e-08
4.6567815e-08
4.649824e-08
4.6482596e-08
4.6477549e-08
4.6470205e-08
4.6462481e-08
4.6457991e-08
4.6452838e-08
4.644617e-08
4.6439527e-08
4.6433545e-08
4.6428716e-08
4.6423595e-08
4.6418376e-08
4.6413942e-08
4.6409311e-08
4.6404566e-08
4.6399971e-08
4.6395572e-08
4.6391353e-08
4.6387211e-08
4.638315e-08
4.6379128e-08
4.6375179e-08
4.6371248e-08
4.6367377e-08
4.6363496e-08
4.6359664e-08
4.6355809e-08
4.6351967e-08
4.6348083e-08
4.6344407e-08
4.6341521e-08
4.6339347e-08
4.6335591e-08
4.6330058e-08
4.6324402e-08
4.6319526e-08
4.6315375e-08
4.6311506e-08
4.6306997e-08
4.630186e-08
4.6296988e-08
4.6292096e-08
4.6287037e-08
4.6281734e-08
4.6276166e-08
4.62704e-08
4.6264319e-08
4.6257817e-08
4.6250357e-08
4.6242803e-08
4.62344e-08
4.6225071e-08
4.6214806e-08
2.7121107e-08
4.6569161e-08
5.0598615e-08
5.0740095e-08
5.0628632e-08
5.0594906e-08
5.0585995e-08
5.0580569e-08
5.0572456e-08
5.0565149e-08
5.0561882e-08
5.0556485e-08
5.0549446e-08
5.0542952e-08
5.0537396e-08
5.0533009e-08
5.0527916e-08
5.0522874e-08
5.0518896e-08
5.0514335e-08
5.0509716e-08
5.0505379e-08
5.0501268e-08
5.0497324e-08
5.049346e-08
5.0489695e-08
5.0485983e-08
5.0482363e-08
5.0478775e-08
5.0475267e-08
5.0471764e-08
5.0468335e-08
5.0464898e-08
5.0461512e-08
5.0458082e-08
5.0454815e-08
5.0452284e-08
5.0450918e-08
5.0448647e-08
5.0443339e-08
5.0437705e-08
5.0433195e-08
5.042969e-08
5.0426602e-08
5.0423182e-08
5.0418604e-08
5.0414494e-08
5.0410413e-08
5.0406219e-08
5.0401824e-08
5.03972e-08
5.0392418e-08
5.0387417e-08
5.0382152e-08
5.0375961e-08
5.0369494e-08
5.0362717e-08
5.0354554e-08
5.0345765e-08
3.8892744e-08
5.3562106e-08
5.5457187e-08
5.5445366e-08
5.5395918e-08
5.5383405e-08
5.537727e-08
5.5371553e-08
5.5364684e-08
5.5358769e-08
5.5357373e-08
5.5351993e-08
5.5345344e-08
5.5339845e-08
5.5335314e-08
5.5331873e-08
5.5327274e-08
5.5323033e-08
5.5320113e-08
5.5316017e-08
5.5312057e-08
5.5308509e-08
5.530518e-08
5.530199e-08
5.5298891e-08
5.52959e-08
5.5292979e-08
5.529016e-08
5.5287395e-08
5.5284726e-08
5.5282091e-08
5.5279554e-08
5.5277034e-08
5.5274597e-08
5.5272154e-08
5.5269848e-08
5.5268175e-08
5.5267837e-08
5.5267688e-08
5.5263438e-08
5.5258427e-08
5.5254885e-08
5.5252522e-08
5.5250738e-08
5.524915e-08
5.5245816e-08
5.5243183e-08
5.5240617e-08
5.5238003e-08
5.523525e-08
5.523244e-08
5.5229429e-08
5.5226437e-08
5.5223256e-08
5.5219562e-08
5.5215091e-08
5.521126e-08
5.5205536e-08
5.5199652e-08
5.4340962e-08
6.0644706e-08
6.1024961e-08
6.0994473e-08
6.0985289e-08
6.0980922e-08
6.0977791e-08
6.0974012e-08
6.0969751e-08
6.096618e-08
6.0966507e-08
6.0962327e-08
6.0957775e-08
6.0954638e-08
6.0952041e-08
6.0950226e-08
6.0947247e-08
6.0944782e-08
6.0943501e-08
6.0940735e-08
6.0938441e-08
6.0936515e-08
6.0934725e-08
6.0933049e-08
6.0931458e-08
6.0929969e-08
6.0928559e-08
6.0927248e-08
6.0926011e-08
6.0924871e-08
6.0923799e-08
6.0922831e-08
6.0921917e-08
6.09211e-08
6.0920328e-08
6.0919665e-08
6.0919435e-08
6.0920198e-08
6.092203e-08
6.0920305e-08
6.0917557e-08
6.0916192e-08
6.0915605e-08
6.091582e-08
6.0916136e-08
6.0915526e-08
6.0915275e-08
6.0915131e-08
6.0915008e-08
6.0914851e-08
6.0914832e-08
6.091466e-08
6.0914687e-08
6.0914618e-08
6.091453e-08
6.0913746e-08
6.0913861e-08
6.0912674e-08
6.0911634e-08
1.531986e-08
1.5319561e-08
1.5319305e-08
1.5319811e-08
1.5320163e-08
1.5320596e-08
1.5321024e-08
1.5321466e-08
1.5321911e-08
1.5322356e-08
1.5322796e-08
1.5323229e-08
1.5323649e-08
1.5324056e-08
1.532445e-08
1.5324833e-08
1.532521e-08
1.5325592e-08
1.5325982e-08
1.5326378e-08
1.5326767e-08
1.5327131e-08
1.5327437e-08
1.5327662e-08
1.5327803e-08
1.5327883e-08
1.5327932e-08
1.5327972e-08
1.5328003e-08
1.5328015e-08
1.5327998e-08
1.5327949e-08
1.532787e-08
1.5327761e-08
1.5327607e-08
1.5327394e-08
1.5327131e-08
1.5326856e-08
1.5326605e-08
1.532639e-08
1.5326128e-08
1.5325583e-08
1.5324464e-08
1.5323108e-08
1.5323955e-08
1.5333172e-08
1.5360002e-08
1.540949e-08
1.5464185e-08
1.5454794e-08
1.522929e-08
1.4542144e-08
1.3095744e-08
1.0673512e-08
7.3809839e-09
3.9022334e-09
1.5791758e-09
1.327271e-09
8.47852e-09
1.5582639e-08
1.558239e-08
1.5582432e-08
1.558288e-08
1.5583277e-08
1.5583709e-08
1.5584148e-08
1.5584597e-08
1.5585047e-08
1.5585497e-08
1.5585941e-08
1.5586375e-08
1.5586797e-08
1.5587206e-08
1.5587601e-08
1.5587988e-08
1.5588369e-08
1.5588756e-08
1.5589152e-08
1.5589554e-08
1.5589946e-08
1.5590311e-08
1.5590617e-08
1.559084e-08
1.5590978e-08
1.5591053e-08
1.5591099e-08
1.5591137e-08
1.5591166e-08
1.5591176e-08
1.5591155e-08
1.5591102e-08
1.5591019e-08
1.5590905e-08
1.5590749e-08
1.5590538e-08
1.5590277e-08
1.5590004e-08
1.5589751e-08
1.5589521e-08
1.5589227e-08
1.5588655e-08
1.5587581e-08
1.5586384e-08
1.5587359e-08
1.5596207e-08
1.5621627e-08
1.5669063e-08
1.5724079e-08
1.5724165e-08
1.5526379e-08
1.4890699e-08
1.3511617e-08
1.1139868e-08
7.8286405e-09
4.2274155e-09
1.6714819e-09
1.2032585e-09
7.2197505e-09
1.5875462e-08
1.5875268e-08
1.5875423e-08
1.5875858e-08
1.5876277e-08
1.5876718e-08
1.5877168e-08
1.5877627e-08
1.5878086e-08
1.5878544e-08
1.5878993e-08
1.5879434e-08
1.5879859e-08
1.5880271e-08
1.588067e-08
1.5881061e-08
1.5881448e-08
1.588184e-08
1.5882241e-08
1.5882647e-08
1.5883043e-08
1.5883412e-08
1.588372e-08
1.5883945e-08
1.5884082e-08
1.5884156e-08
1.58842e-08
1.5884238e-08
1.5884268e-08
1.5884279e-08
1.5884259e-08
1.5884206e-08
1.5884123e-08
1.5884013e-08
1.5883864e-08
1.588366e-08
1.5883403e-08
1.5883126e-08
1.5882866e-08
1.5882641e-08
1.5882391e-08
1.588192e-08
1.5880936e-08
1.5879529e-08
1.5879389e-08
1.588552e-08
1.5906732e-08
1.5951096e-08
1.6011198e-08
1.6036265e-08
1.5896153e-08
1.5355536e-08
1.4091807e-08
1.1804871e-08
8.4709664e-09
4.6886374e-09
1.8119107e-09
1.102645e-09
6.0674418e-09
1.6202969e-08
1.6202842e-08
1.6203115e-08
1.620354e-08
1.6203978e-08
1.6204427e-08
1.6204888e-08
1.6205356e-08
1.6205822e-08
1.6206286e-08
1.620674e-08
1.6207184e-08
1.6207611e-08
1.6208025e-08
1.6208426e-08
1.620882e-08
1.620921e-08
1.6209608e-08
1.6210015e-08
1.6210425e-08
1.6210824e-08
1.6211196e-08
1.6211506e-08
1.621173e-08
1.6211865e-08
1.6211935e-08
1.6211976e-08
1.6212013e-08
1.6212043e-08
1.6212054e-08
1.6212035e-08
1.6211982e-08
1.6211898e-08
1.6211788e-08
1.6211644e-08
1.6211448e-08
1.6211196e-08
1.6210917e-08
1.6210651e-08
1.6210421e-08
1.6210187e-08
1.6209783e-08
1.6208916e-08
1.6207515e-08
1.6206793e-08
1.6210981e-08
1.6228426e-08
1.6268613e-08
1.6329683e-08
1.6371939e-08
1.6279602e-08
1.5826612e-08
1.467985e-08
1.2492235e-08
9.1559208e-09
5.2007489e-09
2.0013196e-09
1.0351422e-09
5.1233334e-09
1.6570466e-08
1.6570432e-08
1.6570782e-08
1.6571208e-08
1.6571659e-08
1.6572119e-08
1.6572589e-08
1.6573065e-08
1.6573538e-08
1.6574006e-08
1.6574464e-08
1.6574909e-08
1.6575337e-08
1.6575751e-08
1.6576152e-08
1.6576547e-08
1.6576941e-08
1.6577344e-08
1.6577754e-08
1.6578168e-08
1.657857e-08
1.6578944e-08
1.6579254e-08
1.6579477e-08
1.6579608e-08
1.6579672e-08
1.657971e-08
1.6579746e-08
1.6579776e-08
1.6579788e-08
1.657977e-08
1.6579717e-08
1.6579633e-08
1.6579524e-08
1.6579384e-08
1.6579197e-08
1.6578953e-08
1.6578674e-08
1.6578402e-08
1.6578167e-08
1.657795e-08
1.6577614e-08
1.6576872e-08
1.657551e-08
1.6574278e-08
1.6576588e-08
1.6590128e-08
1.6625408e-08
1.6685758e-08
1.6742849e-08
1.6697041e-08
1.6335035e-08
1.5317134e-08
1.3250033e-08
9.93101e-09
5.7961548e-09
2.2474107e-09
9.9622183e-10
4.3011868e-09
1.6984449e-08
1.698452e-08
1.6984926e-08
1.698536e-08
1.6985821e-08
1.6986291e-08
1.6986769e-08
1.6987251e-08
1.6987727e-08
1.6988198e-08
1.6988656e-08
1.6989101e-08
1.6989526e-08
1.6989937e-08
1.6990336e-08
1.6990732e-08
1.6991128e-08
1.6991534e-08
1.6991948e-08
1.6992364e-08
1.6992768e-08
1.6993142e-08
1.6993452e-08
1.6993672e-08
1.6993795e-08
1.6993852e-08
1.6993885e-08
1.6993921e-08
1.6993952e-08
1.6993965e-08
1.6993946e-08
1.6993894e-08
1.699381e-08
1.6993702e-08
1.6993568e-08
1.699339e-08
1.6993156e-08
1.699288e-08
1.6992603e-08
1.6992363e-08
1.6992154e-08
1.6991877e-08
1.6991269e-08
1.6990023e-08
1.698849e-08
1.6989243e-08
1.6999029e-08
1.7028716e-08
1.7085934e-08
1.7153396e-08
1.7149113e-08
1.6876783e-08
1.5996136e-08
1.4071698e-08
1.0797751e-08
6.4874723e-09
2.5558552e-09
9.8901713e-10
3.625758e-09
1.7452844e-08
1.7453014e-08
1.7453452e-08
1.7453897e-08
1.7454366e-08
1.7454845e-08
1.7455328e-08
1.7455814e-08
1.7456291e-08
1.7456761e-08
1.7457216e-08
1.7457655e-08
1.7458075e-08
1.7458479e-08
1.7458874e-08
1.7459267e-08
1.7459663e-08
1.746007e-08
1.7460485e-08
1.7460901e-08
1.7461306e-08
1.7461679e-08
1.7461986e-08
1.74622e-08
1.7462314e-08
1.7462359e-08
1.7462388e-08
1.7462422e-08
1.7462453e-08
1.7462467e-08
1.7462451e-08
1.7462399e-08
1.7462316e-08
1.7462209e-08
1.746208e-08
1.7461914e-08
1.7461692e-08
1.7461423e-08
1.7461145e-08
1.7460898e-08
1.7460694e-08
1.7460465e-08
1.7459988e-08
1.7458911e-08
1.745725e-08
1.7456768e-08
1.7463082e-08
1.7486783e-08
1.7538793e-08
1.7612171e-08
1.7643656e-08
1.7458219e-08
1.672203e-08
1.4963513e-08
1.1768775e-08
7.2992096e-09
2.9466549e-09
1.0196847e-09
3.0620248e-09
1.79854e-08
1.7985658e-08
1.7986108e-08
1.7986564e-08
1.7987039e-08
1.7987523e-08
1.7988009e-08
1.7988493e-08
1.7988966e-08
1.798943e-08
1.7989876e-08
1.7990306e-08
1.7990715e-08
1.7991109e-08
1.7991495e-08
1.7991881e-08
1.7992275e-08
1.7992681e-08
1.7993094e-08
1.7993507e-08
1.7993909e-08
1.799428e-08
1.7994581e-08
1.7994786e-08
1.7994886e-08
1.7994917e-08
1.799494e-08
1.7994972e-08
1.7995004e-08
1.7995019e-08
1.7995003e-08
1.7994953e-08
1.7994871e-08
1.7994766e-08
1.7994642e-08
1.7994489e-08
1.7994284e-08
1.7994027e-08
1.7993751e-08
1.7993501e-08
1.7993299e-08
1.7993107e-08
1.7992752e-08
1.799188e-08
1.7990261e-08
1.7988917e-08
1.79922e-08
1.8009816e-08
1.8054772e-08
1.8129291e-08
1.8189293e-08
1.8085191e-08
1.7498097e-08
1.592855e-08
1.2853715e-08
8.2513333e-09
3.4410649e-09
1.0777389e-09
2.5957062e-09
1.8594285e-08
1.8594589e-08
1.8595045e-08
1.8595507e-08
1.8595984e-08
1.8596468e-08
1.8596951e-08
1.8597426e-08
1.859789e-08
1.859834e-08
1.8598772e-08
1.8599185e-08
1.8599576e-08
1.8599954e-08
1.8600325e-08
1.8600701e-08
1.8601087e-08
1.8601487e-08
1.8601893e-08
1.8602299e-08
1.8602696e-08
1.860306e-08
1.8603352e-08
1.8603542e-08
1.8603624e-08
1.8603636e-08
1.8603651e-08
1.8603681e-08
1.8603712e-08
1.8603728e-08
1.8603714e-08
1.8603667e-08
1.8603588e-08
1.8603486e-08
1.8603369e-08
1.8603231e-08
1.8603046e-08
1.8602807e-08
1.8602541e-08
1.8602293e-08
1.8602093e-08
1.8601928e-08
1.8601679e-08
1.8601029e-08
1.8599594e-08
1.8597766e-08
1.8598606e-08
1.86104e-08
1.8646937e-08
1.8717917e-08
1.8798067e-08
1.8766814e-08
1.8329342e-08
1.6970741e-08
1.4062978e-08
9.3684801e-09
4.0638205e-09
1.1819956e-09
2.2149378e-09
1.92948e-08
1.9295129e-08
1.9295585e-08
1.9296048e-08
1.9296521e-08
1.9296998e-08
1.929747e-08
1.929793e-08
1.9298375e-08
1.9298803e-08
1.9299211e-08
1.9299597e-08
1.9299961e-08
1.9300314e-08
1.9300662e-08
1.930102e-08
1.9301391e-08
1.9301778e-08
1.930217e-08
1.9302563e-08
1.9302948e-08
1.93033e-08
1.9303575e-08
1.9303746e-08
1.9303803e-08
1.9303786e-08
1.9303793e-08
1.9303821e-08
1.930385e-08
1.9303867e-08
1.9303856e-08
1.9303813e-08
1.9303738e-08
1.9303643e-08
1.9303535e-08
1.9303414e-08
1.9303257e-08
1.9303044e-08
1.9302796e-08
1.9302559e-08
1.9302367e-08
1.9302224e-08
1.930206e-08
1.930163e-08
1.9300483e-08
1.9298534e-08
1.9297621e-08
1.9304232e-08
1.9331622e-08
1.9394802e-08
1.9485883e-08
1.9515958e-08
1.9223942e-08
1.8094617e-08
1.5406228e-08
1.0678845e-08
4.8560398e-09
1.3353787e-09
1.9111002e-09
2.0106541e-08
2.010687e-08
2.010732e-08
2.0107775e-08
2.0108235e-08
2.0108695e-08
2.0109144e-08
2.0109576e-08
2.010999e-08
2.0110383e-08
2.0110751e-08
2.0111096e-08
2.011142e-08
2.0111734e-08
2.0112048e-08
2.0112375e-08
2.0112721e-08
2.0113084e-08
2.011345e-08
2.0113818e-08
2.0114184e-08
2.0114516e-08
2.0114766e-08
2.011491e-08
2.0114928e-08
2.0114877e-08
2.0114871e-08
2.0114895e-08
2.0114922e-08
2.0114938e-08
2.0114932e-08
2.0114895e-08
2.0114828e-08
2.0114742e-08
2.0114647e-08
2.0114549e-08
2.0114427e-08
2.0114252e-08
2.0114033e-08
2.0113819e-08
2.0113648e-08
2.0113529e-08
2.0113433e-08
2.0113202e-08
2.0112403e-08
2.011064e-08
2.0108709e-08
2.0111125e-08
2.0129424e-08
2.0181409e-08
2.0273939e-08
2.0350819e-08
2.0194271e-08
1.9307124e-08
1.6892527e-08
1.2212072e-08
5.8703226e-09
1.547723e-09
1.6815012e-09
2.1054748e-08
2.1055088e-08
2.1055527e-08
2.1055963e-08
2.1056401e-08
2.1056832e-08
2.1057243e-08
2.1057632e-08
2.1057997e-08
2.1058336e-08
2.1058645e-08
2.1058929e-08
2.1059193e-08
2.105945e-08
2.1059712e-08
2.1059994e-08
2.1060299e-08
2.106062e-08
2.1060944e-08
2.1061275e-08
2.1061609e-08
2.1061908e-08
2.1062122e-08
2.1062231e-08
2.1062181e-08
2.1062096e-08
2.1062069e-08
2.106209e-08
2.1062112e-08
2.1062127e-08
2.1062127e-08
2.1062099e-08
2.1062046e-08
2.1061974e-08
2.1061899e-08
2.1061831e-08
2.1061755e-08
2.1061634e-08
2.1061462e-08
2.1061287e-08
2.1061152e-08
2.1061068e-08
2.1061037e-08
2.1060975e-08
2.1060533e-08
2.1059178e-08
2.1056929e-08
2.1056396e-08
2.1066504e-08
2.11052e-08
2.1190268e-08
2.1297002e-08
2.1259255e-08
2.0620005e-08
1.8531038e-08
1.3998354e-08
7.177121e-09
1.8354872e-09
1.535755e-09
2.2172094e-08
2.2172459e-08
2.2172877e-08
2.2173283e-08
2.2173687e-08
2.2174071e-08
2.2174427e-08
2.2174754e-08
2.2175051e-08
2.2175312e-08
2.217554e-08
2.2175739e-08
2.2175922e-08
2.2176099e-08
2.2176288e-08
2.2176504e-08
2.2176749e-08
2.2177008e-08
2.217727e-08
2.2177547e-08
2.2177836e-08
2.2178089e-08
2.2178253e-08
2.2178308e-08
2.2178166e-08
2.2178039e-08
2.2177992e-08
2.2178001e-08
2.2178018e-08
2.217803e-08
2.2178042e-08
2.2178026e-08
2.2177992e-08
2.2177944e-08
2.2177895e-08
2.2177865e-08
2.2177856e-08
2.2177808e-08
2.21777e-08
2.2177582e-08
2.21775e-08
2.2177482e-08
2.217752e-08
2.2177609e-08
2.2177487e-08
2.2176656e-08
2.2174658e-08
2.2172517e-08
2.2176111e-08
2.2201075e-08
2.2271339e-08
2.2389762e-08
2.2447025e-08
2.2048885e-08
2.0332863e-08
1.6066174e-08
8.8618863e-09
2.275526e-09
1.4728768e-09
2.3499166e-08
2.3499588e-08
2.3499982e-08
2.350036e-08
2.350073e-08
2.3501066e-08
2.3501363e-08
2.3501624e-08
2.3501845e-08
2.3502021e-08
2.3502156e-08
2.3502261e-08
2.350235e-08
2.3502435e-08
2.3502539e-08
2.3502684e-08
2.3502866e-08
2.3503051e-08
2.3503238e-08
2.3503455e-08
2.3503696e-08
2.35039e-08
2.3504015e-08
2.3503981e-08
2.3503728e-08
2.3503565e-08
2.3503502e-08
2.3503496e-08
2.3503507e-08
2.3503523e-08
2.3503549e-08
2.3503552e-08
2.350355e-08
2.3503532e-08
2.3503518e-08
2.3503532e-08
2.3503608e-08
2.3503661e-08
2.3503636e-08
2.3503587e-08
2.350358e-08
2.3503665e-08
2.3503776e-08
2.3503965e-08
2.3504141e-08
2.3503828e-08
2.3502436e-08
2.3499911e-08
2.3499185e-08
2.3511726e-08
2.3562381e-08
2.3674719e-08
2.3797423e-08
2.3621584e-08
2.2314924e-08
1.8445639e-08
1.1000837e-08
2.986832e-09
1.4665127e-09
1.0247274e-08
1.2408731e-08
1.4723884e-08
1.7296575e-08
2.0217109e-08
2.3547271e-08
2.7326769e-08
3.1582891e-08
3.6336012e-08
4.1599304e-08
4.737482e-08
5.3646681e-08
6.0375368e-08
6.7488762e-08
7.4873649e-08
8.2365099e-08
8.9738357e-08
9.6700931e-08
1.0288991e-07
1.0787533e-07
1.111818e-07
1.1234262e-07
1.1099965e-07
1.0679108e-07
9.9439555e-08
8.8929738e-08
7.5669838e-08
5.9618762e-08
4.2402695e-08
2.581901e-08
1.1499942e-08
2.0621088e-09
1.2361132e-09
6.2842726e-09
2.1347022e-08
5.0454414e-08
9.4394646e-08
1.4748873e-07
2.0606937e-07
2.7246522e-07
3.4734921e-07
4.2970047e-07
5.1990926e-07
6.1391694e-07
7.0989416e-07
8.0755135e-07
9.0538149e-07
1.0013391e-06
1.0937744e-06
1.1822494e-06
1.2667404e-06
1.3472722e-06
1.4239125e-06
1.4962177e-06
1.5638361e-06
1.6272358e-06
1.6869647e-06
1.7431971e-06
1.7959538e-06
1.8453839e-06
1.8918218e-06
1.9353718e-06
1.9759742e-06
2.0136999e-06
2.0487099e-06
2.0811735e-06
2.1112567e-06
2.1391216e-06
2.1649275e-06
2.188818e-06
2.21094e-06
2.2314003e-06
2.2503646e-06
2.2678086e-06
1.6788276e-09
2.0866187e-09
2.5371141e-09
3.0404251e-09
3.599598e-09
4.2206871e-09
4.9102489e-09
5.6740097e-09
6.5162357e-09
7.439777e-09
8.4458327e-09
9.5332874e-09
1.0697536e-08
1.1929329e-08
1.3213027e-08
1.4525208e-08
1.5832929e-08
1.7092517e-08
1.8248765e-08
1.9234741e-08
1.9975955e-08
2.0362081e-08
2.0278255e-08
1.9668769e-08
1.8524413e-08
1.6856797e-08
1.4725832e-08
1.2241556e-08
9.5433946e-09
6.7938184e-09
4.6102797e-09
2.421661e-09
9.4508696e-10
1.0186962e-09
2.0747029e-09
4.652595e-09
9.0292582e-09
1.496846e-08
2.2030813e-08
3.0135416e-08
3.9297436e-08
4.9453236e-08
6.0709356e-08
7.2708682e-08
8.5172309e-08
9.7947078e-08
1.1105557e-07
1.2428504e-07
1.3740029e-07
1.502369e-07
1.6269729e-07
1.7472526e-07
1.8628925e-07
1.9742327e-07
2.0793711e-07
2.1781936e-07
2.2711153e-07
2.3584814e-07
2.4405748e-07
2.5175033e-07
2.5895147e-07
2.6570527e-07
2.7203089e-07
2.7794425e-07
2.8346227e-07
2.8860445e-07
2.9338938e-07
2.9783816e-07
3.019694e-07
3.0580396e-07
3.0935992e-07
3.126563e-07
3.1570445e-07
3.1861036e-07
1.4832637e-09
1.42234e-09
1.3799759e-09
1.3521796e-09
1.3494288e-09
1.379977e-09
1.4475996e-09
1.5599856e-09
1.7240743e-09
1.9416424e-09
2.2111748e-09
2.528814e-09
2.8899411e-09
3.2888269e-09
3.7186344e-09
4.1714246e-09
4.6377937e-09
5.1065008e-09
5.5639084e-09
5.9934095e-09
6.3758642e-09
6.68704e-09
6.8978894e-09
6.9813961e-09
6.9179706e-09
6.6967133e-09
6.3172833e-09
5.7969718e-09
5.1376672e-09
4.3859528e-09
3.5882473e-09
2.8420989e-09
2.1261794e-09
1.6228743e-09
1.2883798e-09
1.3773217e-09
1.7340443e-09
2.3905481e-09
3.3098621e-09
4.4983707e-09
5.9373849e-09
7.6045755e-09
9.4890929e-09
1.156279e-08
1.3790378e-08
1.6138576e-08
1.8584328e-08
2.1098361e-08
2.3649922e-08
2.6209957e-08
2.8753075e-08
3.125855e-08
3.3710626e-08
3.6080674e-08
3.8343787e-08
4.0494827e-08
4.2533812e-08
4.446141e-08
4.6280406e-08
4.7992674e-08
4.9614615e-08
5.1148942e-08
5.2597503e-08
5.3962506e-08
5.5246483e-08
5.6452245e-08
5.7582828e-08
5.8641425e-08
5.9631332e-08
6.055592e-08
6.1418513e-08
6.222266e-08
6.2970778e-08
6.3672057e-08
3.2230649e-09
2.5955638e-09
2.130243e-09
1.8079513e-09
1.6040078e-09
1.4797473e-09
1.4066576e-09
1.3569199e-09
1.3145375e-09
1.2815953e-09
1.2755508e-09
1.2940257e-09
1.3427168e-09
1.4257997e-09
1.544593e-09
1.6987591e-09
1.8845653e-09
2.0971251e-09
2.3300415e-09
2.5748616e-09
2.8183956e-09
3.0464611e-09
3.2498425e-09
3.4190021e-09
3.544201e-09
3.6168092e-09
3.6305718e-09
3.5828288e-09
3.4794271e-09
3.3239866e-09
3.113518e-09
2.8709955e-09
2.6031642e-09
2.3280692e-09
2.0552693e-09
1.8393623e-09
1.6988746e-09
1.6210098e-09
1.6506133e-09
1.7373503e-09
1.8837206e-09
2.0812907e-09
2.3326686e-09
2.6361447e-09
2.9860833e-09
3.3762308e-09
3.8002173e-09
4.251231e-09
4.7226873e-09
5.208366e-09
5.7024643e-09
6.1998041e-09
6.6956811e-09
7.1857693e-09
7.666317e-09
8.1343401e-09
8.5874922e-09
9.0239312e-09
9.4423682e-09
9.8420287e-09
1.0222682e-08
1.0584181e-08
1.0926619e-08
1.1250298e-08
1.1555637e-08
1.1843154e-08
1.2113433e-08
1.2367113e-08
1.2604866e-08
1.28274e-08
1.3035427e-08
1.3229679e-08
1.3410795e-08
1.3579936e-08
6.3389188e-09
5.2042281e-09
4.2336432e-09
3.4351151e-09
2.8035024e-09
2.3180371e-09
1.9653409e-09
1.7213414e-09
1.538486e-09
1.4173607e-09
1.3395051e-09
1.290287e-09
1.2565303e-09
1.2332458e-09
1.2087098e-09
1.2053445e-09
1.2181738e-09
1.2511179e-09
1.3060521e-09
1.385577e-09
1.4934058e-09
1.623478e-09
1.7683556e-09
1.9144938e-09
2.0520593e-09
2.1754045e-09
2.2802389e-09
2.3623216e-09
2.4196986e-09
2.4515709e-09
2.4565138e-09
2.4346386e-09
2.3923812e-09
2.3149229e-09
2.239882e-09
2.147641e-09
2.0510401e-09
1.9592544e-09
1.883509e-09
1.8251323e-09
1.7885206e-09
1.7567761e-09
1.7525337e-09
1.7599125e-09
1.7776753e-09
1.8055083e-09
1.8425678e-09
1.8878831e-09
1.9403421e-09
1.9987953e-09
2.0620954e-09
2.129148e-09
2.1989096e-09
2.2703976e-09
2.3427526e-09
2.4152568e-09
2.4872732e-09
2.5582416e-09
2.6276894e-09
2.6952484e-09
2.7606369e-09
2.8236164e-09
2.8840103e-09
2.9417108e-09
2.9966583e-09
3.0488318e-09
3.0982413e-09
3.1449232e-09
3.1889333e-09
3.2303447e-09
3.2692418e-09
3.3057196e-09
3.3398809e-09
3.371796e-09
9.5433899e-09
8.2084699e-09
6.9508115e-09
5.8201177e-09
4.8361886e-09
4.0030783e-09
3.3177964e-09
2.7740682e-09
2.3419883e-09
2.0080135e-09
1.7543433e-09
1.5690133e-09
1.4387841e-09
1.3390568e-09
1.2737573e-09
1.2308119e-09
1.2040931e-09
1.1847499e-09
1.1671813e-09
1.15586e-09
1.1563145e-09
1.1677887e-09
1.198724e-09
1.24997e-09
1.3182619e-09
1.3986191e-09
1.4870767e-09
1.5727601e-09
1.6511993e-09
1.7201077e-09
1.7782622e-09
1.8246255e-09
1.8593633e-09
1.8825676e-09
1.8941294e-09
1.8954607e-09
1.888442e-09
1.8727579e-09
1.8480272e-09
1.8246212e-09
1.8030671e-09
1.7836784e-09
1.7667668e-09
1.7524187e-09
1.7427578e-09
1.7352831e-09
1.7285085e-09
1.7234645e-09
1.7202348e-09
1.7186911e-09
1.7186518e-09
1.7199326e-09
1.7223554e-09
1.7257865e-09
1.7299566e-09
1.734694e-09
1.7398629e-09
1.7453473e-09
1.7510446e-09
1.7568697e-09
1.7627529e-09
1.7686286e-09
1.7744396e-09
1.7801417e-09
1.7857001e-09
1.7910876e-09
1.7962836e-09
1.8012732e-09
1.8060461e-09
1.8105963e-09
1.8149208e-09
1.8190197e-09
1.8228961e-09
1.8265378e-09
1.2104323e-08
1.0855533e-08
9.5836744e-09