/*--------------------------------*- C++ -*----------------------------------*\
| =========                 |                                                 |
| \\      /  F ield         | OpenFOAM: The Open Source CFD Toolbox           |
|  \\    /   O peration     | Version:  v2006                                 |
|   \\  /    A nd           | Website:  www.openfoam.com                      |
|    \\/     M anipulation  |                                                 |
\*---------------------------------------------------------------------------*/
FoamFile
{
    version     2.0;
    format      ascii;
    class       volScalarField;
    location    "6000";
    object      nut;
}
// * * * * * * * * * * * * * * * * * * * * * * * * * * * * * * * * * * * * * //

dimensions      [0 2 -1 0 0 0 0];


internalField   nonuniform List<scalar> 
55713
(
2.7710297e-10
2.8814264e-09
2.8918257e-08
6.9338121e-08
8.9617574e-08
9.5666596e-08
9.5897962e-08
9.5046929e-08
9.4485544e-08
9.4280585e-08
9.4247542e-08
9.4259791e-08
9.4272151e-08
9.427732e-08
9.4277221e-08
9.4275792e-08
9.4275135e-08
9.4274799e-08
9.4274444e-08
9.4274564e-08
9.4275008e-08
9.4275216e-08
9.4275072e-08
9.4274893e-08
9.4274884e-08
9.4274904e-08
9.4274914e-08
9.4274797e-08
9.427467e-08
9.4274467e-08
9.4274246e-08
9.4274008e-08
9.4273798e-08
9.4273685e-08
9.4273878e-08
9.427476e-08
9.4274759e-08
9.4274056e-08
9.4272916e-08
9.4271585e-08
9.4270347e-08
9.4269277e-08
9.4268288e-08
9.4267311e-08
9.4266429e-08
9.4265644e-08
9.4264908e-08
9.4264152e-08
9.4263367e-08
9.4262524e-08
9.4261604e-08
9.4260586e-08
9.4259505e-08
9.4258401e-08
9.4257295e-08
9.4256185e-08
9.4255087e-08
9.4253952e-08
9.4252707e-08
3.3673311e-10
4.1801976e-09
3.595112e-08
7.6186219e-08
9.3055223e-08
9.6971298e-08
9.6592121e-08
9.5762758e-08
9.5332373e-08
9.5207659e-08
9.5201371e-08
9.5215678e-08
9.5224847e-08
9.5227396e-08
9.5225768e-08
9.5224015e-08
9.5223215e-08
9.5222554e-08
9.5221852e-08
9.5221576e-08
9.5221553e-08
9.5221264e-08
9.5220754e-08
9.5220276e-08
9.5219964e-08
9.5219645e-08
9.5219298e-08
9.5218842e-08
9.5218387e-08
9.5217853e-08
9.5217291e-08
9.5216717e-08
9.5216146e-08
9.5215662e-08
9.5215458e-08
9.5216084e-08
9.5215927e-08
9.5214878e-08
9.5213368e-08
9.5211651e-08
9.5210018e-08
9.5208578e-08
9.5207213e-08
9.5205837e-08
9.5204537e-08
9.5203341e-08
9.5202183e-08
9.5200994e-08
9.5199753e-08
9.5198439e-08
9.5197024e-08
9.519548e-08
9.519382e-08
9.5192091e-08
9.5190316e-08
9.5188478e-08
9.5186579e-08
9.5184568e-08
9.5182361e-08
4.2177769e-10
5.8785143e-09
4.3444942e-08
8.2299744e-08
9.5729675e-08
9.8036811e-08
9.7313199e-08
9.6570613e-08
9.6261278e-08
9.6196097e-08
9.6204359e-08
9.621745e-08
9.6223522e-08
9.6223291e-08
9.6220981e-08
9.6219093e-08
9.6218063e-08
9.6217091e-08
9.6216057e-08
9.6215387e-08
9.6214852e-08
9.6214112e-08
9.6213261e-08
9.6212508e-08
9.6211893e-08
9.6211246e-08
9.621057e-08
9.6209791e-08
9.6209025e-08
9.6208169e-08
9.6207297e-08
9.6206405e-08
9.6205506e-08
9.6204665e-08
9.6204063e-08
9.6204393e-08
9.620419e-08
9.6202816e-08
9.6200958e-08
9.619887e-08
9.6196861e-08
9.6195077e-08
9.619337e-08
9.6191632e-08
9.6189946e-08
9.6188365e-08
9.6186816e-08
9.6185231e-08
9.6183573e-08
9.6181829e-08
9.6179965e-08
9.6177947e-08
9.6175764e-08
9.6173469e-08
9.6171086e-08
9.6168595e-08
9.6165976e-08
9.6163181e-08
9.6160088e-08
5.445224e-10
8.1995117e-09
5.1588788e-08
8.7808219e-08
9.7962853e-08
9.8985292e-08
9.8087965e-08
9.747597e-08
9.7275363e-08
9.7251485e-08
9.7265265e-08
9.7275149e-08
9.7277551e-08
9.7275961e-08
9.7273308e-08
9.7271237e-08
9.7269987e-08
9.7268736e-08
9.7267395e-08
9.7266331e-08
9.7265318e-08
9.7264179e-08
9.7263019e-08
9.7262019e-08
9.7261116e-08
9.7260175e-08
9.7259182e-08
9.7258103e-08
9.7257048e-08
9.7255904e-08
9.7254753e-08
9.7253573e-08
9.7252374e-08
9.7251206e-08
9.7250239e-08
9.7250245e-08
9.7250062e-08
9.7248421e-08
9.7246249e-08
9.7243815e-08
9.7241448e-08
9.7239345e-08
9.7237338e-08
9.7235283e-08
9.7233243e-08
9.723131e-08
9.7229403e-08
9.7227458e-08
9.7225418e-08
9.7223284e-08
9.7221016e-08
9.7218575e-08
9.7215921e-08
9.7213109e-08
9.7210172e-08
9.720709e-08
9.7203814e-08
9.7200307e-08
9.7196402e-08
7.2247242e-10
1.1291115e-08
6.0086504e-08
9.2557507e-08
9.9791241e-08
9.9872995e-08
9.8949859e-08
9.8487695e-08
9.8373704e-08
9.8374154e-08
9.8387134e-08
9.8392671e-08
9.8392974e-08
9.8390511e-08
9.8387537e-08
9.8385292e-08
9.8383861e-08
9.8382347e-08
9.8380733e-08
9.8379317e-08
9.8377903e-08
9.8376394e-08
9.837495e-08
9.8373707e-08
9.8372551e-08
9.8371341e-08
9.8370069e-08
9.8368725e-08
9.8367401e-08
9.8365994e-08
9.8364583e-08
9.8363147e-08
9.8361684e-08
9.8360236e-08
9.8358943e-08
9.835861e-08
9.8358471e-08
9.8356665e-08
9.8354225e-08
9.8351479e-08
9.8348793e-08
9.8346404e-08
9.834414e-08
9.8341815e-08
9.8339466e-08
9.8337217e-08
9.8334993e-08
9.833274e-08
9.8330372e-08
9.83279e-08
9.8325285e-08
9.8322488e-08
9.8319439e-08
9.8316182e-08
9.8312762e-08
9.8309177e-08
9.8305333e-08
9.8301218e-08
9.8296603e-08
9.8280541e-10
1.5347956e-08
6.8662837e-08
9.6138664e-08
1.0131714e-07
1.0076278e-07
9.9923409e-08
9.9608399e-08
9.9556049e-08
9.9567198e-08
9.9575632e-08
9.9578405e-08
9.957727e-08
9.9574057e-08
9.9570805e-08
9.9568446e-08
9.9566835e-08
9.9565059e-08
9.9563224e-08
9.9561574e-08
9.9559849e-08
9.9558006e-08
9.9556283e-08
9.9554802e-08
9.9553423e-08
9.9551983e-08
9.9550474e-08
9.9548902e-08
9.9547343e-08
9.9545718e-08
9.9544081e-08
9.954243e-08
9.9540735e-08
9.9539053e-08
9.9537475e-08
9.9536805e-08
9.9536682e-08
9.9534875e-08
9.9532207e-08
9.9529192e-08
9.9526226e-08
9.9523595e-08
9.9521127e-08
9.9518589e-08
9.9515985e-08
9.9513465e-08
9.9510977e-08
9.9508479e-08
9.9505846e-08
9.9503097e-08
9.9500205e-08
9.9497126e-08
9.949377e-08
9.9490152e-08
9.9486334e-08
9.9482344e-08
9.9478039e-08
9.9473435e-08
9.9468231e-08
1.3681107e-09
2.0582654e-08
7.691814e-08
9.902006e-08
1.0255885e-07
1.0169477e-07
1.0102696e-07
1.0083843e-07
1.0082398e-07
1.0083533e-07
1.0083962e-07
1.0084075e-07
1.0083853e-07
1.0083465e-07
1.008312e-07
1.0082877e-07
1.0082695e-07
1.0082491e-07
1.0082298e-07
1.0082125e-07
1.0081928e-07
1.0081713e-07
1.0081512e-07
1.0081343e-07
1.0081186e-07
1.0081023e-07
1.0080853e-07
1.0080678e-07
1.0080503e-07
1.0080323e-07
1.0080142e-07
1.007996e-07
1.0079773e-07
1.0079586e-07
1.0079407e-07
1.0079308e-07
1.007929e-07
1.007913e-07
1.0078844e-07
1.007852e-07
1.00782e-07
1.0077919e-07
1.0077658e-07
1.007739e-07
1.0077111e-07
1.0076839e-07
1.007657e-07
1.0076304e-07
1.0076022e-07
1.0075727e-07
1.0075418e-07
1.0075091e-07
1.0074735e-07
1.0074349e-07
1.0073937e-07
1.007351e-07
1.0073046e-07
1.0072551e-07
1.0071987e-07
1.9512443e-09
2.7220132e-08
8.5016997e-08
1.0204199e-07
1.0365544e-07
1.0273944e-07
1.0227268e-07
1.0217619e-07
1.0218124e-07
1.0218773e-07
1.0218915e-07
1.0218949e-07
1.0218631e-07
1.0218186e-07
1.0217826e-07
1.0217586e-07
1.0217378e-07
1.0217149e-07
1.0216964e-07
1.0216796e-07
1.0216578e-07
1.0216334e-07
1.0216108e-07
1.0215922e-07
1.021575e-07
1.0215574e-07
1.021539e-07
1.0215202e-07
1.0215014e-07
1.0214823e-07
1.021463e-07
1.0214436e-07
1.0214238e-07
1.021404e-07
1.0213846e-07
1.0213719e-07
1.021369e-07
1.0213574e-07
1.0213273e-07
1.0212931e-07
1.0212593e-07
1.02123e-07
1.0212033e-07
1.021176e-07
1.0211472e-07
1.0211188e-07
1.0210909e-07
1.0210635e-07
1.0210345e-07
1.021004e-07
1.0209722e-07
1.0209386e-07
1.0209023e-07
1.0208625e-07
1.0208197e-07
1.0207756e-07
1.0207275e-07
1.0206764e-07
1.0206173e-07
2.8793702e-09
3.5472275e-08
9.2220108e-08
1.04335e-07
1.0476502e-07
1.039591e-07
1.0366297e-07
1.0362483e-07
1.0363391e-07
1.0363565e-07
1.0363599e-07
1.0363606e-07
1.0363195e-07
1.0362706e-07
1.036234e-07
1.0362115e-07
1.0361878e-07
1.0361626e-07
1.0361465e-07
1.0361306e-07
1.0361069e-07
1.0360804e-07
1.0360562e-07
1.0360366e-07
1.0360184e-07
1.036e-07
1.0359808e-07
1.0359613e-07
1.0359419e-07
1.0359223e-07
1.0359026e-07
1.0358827e-07
1.0358626e-07
1.0358424e-07
1.0358225e-07
1.0358081e-07
1.0358046e-07
1.0357972e-07
1.0357677e-07
1.0357321e-07
1.0356969e-07
1.0356674e-07
1.0356412e-07
1.0356145e-07
1.0355857e-07
1.0355572e-07
1.0355294e-07
1.0355028e-07
1.0354741e-07
1.0354439e-07
1.0354123e-07
1.0353791e-07
1.0353436e-07
1.0353045e-07
1.0352615e-07
1.035218e-07
1.0351702e-07
1.0351195e-07
1.0350601e-07
4.4885916e-09
4.5490945e-08
9.8584049e-08
1.0632995e-07
1.0599147e-07
1.053581e-07
1.0519538e-07
1.0518925e-07
1.0519535e-07
1.0519352e-07
1.0519395e-07
1.0519384e-07
1.0518889e-07
1.0518374e-07
1.0518023e-07
1.051783e-07
1.0517557e-07
1.051728e-07
1.0517147e-07
1.0516995e-07
1.0516753e-07
1.0516485e-07
1.0516244e-07
1.0516046e-07
1.0515858e-07
1.0515672e-07
1.0515479e-07
1.0515286e-07
1.0515093e-07
1.0514901e-07
1.0514708e-07
1.0514514e-07
1.0514319e-07
1.0514123e-07
1.0513927e-07
1.0513778e-07
1.0513741e-07
1.0513719e-07
1.0513456e-07
1.0513089e-07
1.0512727e-07
1.051244e-07
1.0512194e-07
1.0511948e-07
1.0511676e-07
1.0511398e-07
1.0511136e-07
1.0510895e-07
1.0510629e-07
1.0510344e-07
1.0510047e-07
1.0509734e-07
1.0509404e-07
1.0509043e-07
1.0508631e-07
1.0508224e-07
1.0507774e-07
1.0507297e-07
1.0506729e-07
7.2002839e-09
5.7298973e-08
1.0383167e-07
1.0810045e-07
1.0738028e-07
1.0694689e-07
1.0687464e-07
1.0688016e-07
1.0688115e-07
1.0687763e-07
1.0687895e-07
1.0687844e-07
1.0687267e-07
1.068677e-07
1.0686476e-07
1.0686334e-07
1.0685996e-07
1.0685682e-07
1.0685593e-07
1.0685448e-07
1.0685225e-07
1.0684981e-07
1.068476e-07
1.0684571e-07
1.0684386e-07
1.0684205e-07
1.068402e-07
1.068384e-07
1.0683659e-07
1.0683482e-07
1.0683303e-07
1.0683126e-07
1.0682948e-07
1.0682769e-07
1.0682589e-07
1.0682446e-07
1.0682415e-07
1.0682453e-07
1.0682266e-07
1.068189e-07
1.0681523e-07
1.0681253e-07
1.0681036e-07
1.0680831e-07
1.0680592e-07
1.0680334e-07
1.0680103e-07
1.0679912e-07
1.0679686e-07
1.0679437e-07
1.0679177e-07
1.0678904e-07
1.067862e-07
1.0678315e-07
1.0677949e-07
1.0677595e-07
1.0677208e-07
1.0676789e-07
1.0676283e-07
1.1071501e-08
7.0827663e-08
1.0728548e-07
1.0970332e-07
1.0897333e-07
1.0872948e-07
1.0870714e-07
1.0871171e-07
1.0870937e-07
1.0870602e-07
1.0870886e-07
1.0870748e-07
1.0870092e-07
1.0869684e-07
1.0869502e-07
1.0869421e-07
1.0868975e-07
1.0868612e-07
1.0868602e-07
1.0868482e-07
1.0868288e-07
1.0868091e-07
1.0867909e-07
1.0867742e-07
1.0867576e-07
1.0867415e-07
1.0867255e-07
1.0867101e-07
1.0866946e-07
1.0866798e-07
1.0866646e-07
1.0866501e-07
1.0866352e-07
1.0866207e-07
1.0866057e-07
1.0865936e-07
1.0865917e-07
1.0866012e-07
1.0865961e-07
1.0865588e-07
1.0865225e-07
1.0864985e-07
1.0864816e-07
1.0864665e-07
1.0864485e-07
1.0864267e-07
1.0864079e-07
1.0863967e-07
1.0863806e-07
1.0863608e-07
1.086341e-07
1.0863203e-07
1.0862989e-07
1.0862768e-07
1.0862487e-07
1.0862213e-07
1.086193e-07
1.0861601e-07
1.0861201e-07
1.6845669e-08
8.601113e-08
1.0959565e-07
1.1120847e-07
1.1079125e-07
1.1070202e-07
1.1069945e-07
1.1069923e-07
1.1069654e-07
1.1069427e-07
1.1069935e-07
1.1069649e-07
1.1069021e-07
1.1068736e-07
1.1068631e-07
1.1068611e-07
1.1068063e-07
1.1067718e-07
1.1067854e-07
1.1067747e-07
1.1067581e-07
1.1067437e-07
1.1067304e-07
1.1067178e-07
1.1067053e-07
1.1066934e-07
1.1066817e-07
1.1066707e-07
1.1066596e-07
1.1066492e-07
1.1066387e-07
1.1066288e-07
1.1066188e-07
1.1066093e-07
1.1065994e-07
1.1065914e-07
1.106592e-07
1.1066049e-07
1.1066163e-07
1.1065838e-07
1.1065504e-07
1.1065315e-07
1.1065208e-07
1.1065131e-07
1.1065045e-07
1.1064892e-07
1.1064747e-07
1.1064753e-07
1.1064679e-07
1.1064542e-07
1.1064438e-07
1.1064322e-07
1.1064208e-07
1.1064094e-07
1.1063938e-07
1.1063772e-07
1.1063632e-07
1.1063435e-07
1.106319e-07
2.4897692e-08
1.0253188e-07
1.1276896e-07
1.12941e-07
1.1284745e-07
1.1284199e-07
1.1284255e-07
1.1284076e-07
1.1283974e-07
1.1283782e-07
1.1284319e-07
1.1283927e-07
1.1283542e-07
1.1283385e-07
1.12833e-07
1.1283386e-07
1.1282973e-07
1.1282879e-07
1.1283072e-07
1.1282909e-07
1.1282782e-07
1.1282702e-07
1.1282633e-07
1.1282572e-07
1.1282513e-07
1.1282459e-07
1.1282406e-07
1.1282359e-07
1.1282313e-07
1.1282273e-07
1.1282232e-07
1.1282199e-07
1.1282164e-07
1.1282137e-07
1.1282107e-07
1.1282088e-07
1.1282121e-07
1.1282241e-07
1.1282454e-07
1.1282268e-07
1.1282041e-07
1.1281957e-07
1.1281934e-07
1.1281943e-07
1.1281921e-07
1.1281907e-07
1.1281793e-07
1.1281944e-07
1.1281966e-07
1.1281927e-07
1.1281936e-07
1.1281936e-07
1.1281939e-07
1.1281949e-07
1.128194e-07
1.1281921e-07
1.1281933e-07
1.1281911e-07
1.1281868e-07
8.5582202e-08
8.5580951e-08
8.5580104e-08
8.5581312e-08
8.5582073e-08
8.5583022e-08
8.5583934e-08
8.5584876e-08
8.5585827e-08
8.5586786e-08
8.5587736e-08
8.558867e-08
8.5589571e-08
8.5590443e-08
8.5591283e-08
8.5592105e-08
8.5592925e-08
8.5593786e-08
8.5594715e-08
8.5595723e-08
8.5596772e-08
8.5597788e-08
8.5598618e-08
8.5599116e-08
8.5599233e-08
8.5599091e-08
8.5598889e-08
8.5598773e-08
8.5598742e-08
8.5598739e-08
8.5598708e-08
8.5598641e-08
8.5598546e-08
8.5598411e-08
8.559815e-08
8.5597675e-08
8.5597019e-08
8.5596395e-08
8.559604e-08
8.5595992e-08
8.5595649e-08
8.5593305e-08
8.5587009e-08
8.5579547e-08
8.5588994e-08
8.5660047e-08
8.5859331e-08
8.6225198e-08
8.6641547e-08
8.663084e-08
8.5116447e-08
8.0279542e-08
6.9451597e-08
5.0748984e-08
2.7103598e-08
8.6669823e-09
1.5941799e-09
4.1834999e-10
5.4862856e-10
8.5872969e-08
8.5871906e-08
8.5871891e-08
8.5872925e-08
8.5873789e-08
8.5874717e-08
8.5875644e-08
8.5876591e-08
8.5877544e-08
8.5878504e-08
8.5879449e-08
8.5880377e-08
8.5881268e-08
8.5882131e-08
8.5882965e-08
8.5883788e-08
8.5884611e-08
8.5885478e-08
8.5886413e-08
8.5887424e-08
8.5888472e-08
8.5889479e-08
8.5890294e-08
8.5890771e-08
8.5890865e-08
8.58907e-08
8.589049e-08
8.5890374e-08
8.5890343e-08
8.5890337e-08
8.58903e-08
8.5890224e-08
8.5890116e-08
8.5889967e-08
8.5889706e-08
8.5889249e-08
8.5888625e-08
8.5888027e-08
8.5887669e-08
8.5887531e-08
8.5886985e-08
8.5884511e-08
8.5878633e-08
8.5872356e-08
8.5882489e-08
8.5950015e-08
8.6137283e-08
8.648544e-08
8.6901037e-08
8.695904e-08
8.565557e-08
8.1201952e-08
7.1067338e-08
5.2963418e-08
2.9142312e-08
9.657387e-09
1.7483987e-09
3.9255048e-10
4.9274448e-10
8.619265e-08
8.6191787e-08
8.6192083e-08
8.6193067e-08
8.6193973e-08
8.6194905e-08
8.6195847e-08
8.6196806e-08
8.619777e-08
8.6198736e-08
8.6199686e-08
8.6200614e-08
8.6201504e-08
8.6202363e-08
8.6203195e-08
8.6204019e-08
8.6204845e-08
8.6205714e-08
8.620665e-08
8.6207661e-08
8.6208708e-08
8.6209715e-08
8.6210528e-08
8.6210999e-08
8.621108e-08
8.62109e-08
8.6210681e-08
8.6210562e-08
8.6210532e-08
8.6210527e-08
8.6210492e-08
8.6210414e-08
8.6210306e-08
8.6210169e-08
8.6209939e-08
8.6209522e-08
8.6208911e-08
8.6208282e-08
8.620788e-08
8.6207786e-08
8.620756e-08
8.6205816e-08
8.6200591e-08
8.6192796e-08
8.6194845e-08
8.6242504e-08
8.6398115e-08
8.6719795e-08
8.716184e-08
8.7383002e-08
8.6484062e-08
8.27621e-08
7.3653763e-08
5.640856e-08
3.2289099e-08
1.118593e-08
1.9948557e-09
3.7922082e-10
4.3794947e-10
8.6544859e-08
8.6544253e-08
8.6544852e-08
8.6545793e-08
8.6546728e-08
8.6547665e-08
8.6548617e-08
8.6549585e-08
8.6550554e-08
8.6551525e-08
8.6552474e-08
8.6553398e-08
8.655428e-08
8.6555131e-08
8.6555957e-08
8.6556778e-08
8.6557605e-08
8.6558476e-08
8.6559414e-08
8.6560426e-08
8.6561473e-08
8.6562478e-08
8.6563283e-08
8.6563741e-08
8.6563802e-08
8.6563601e-08
8.6563372e-08
8.6563254e-08
8.6563226e-08
8.6563223e-08
8.6563187e-08
8.6563107e-08
8.6562994e-08
8.656286e-08
8.6562652e-08
8.6562273e-08
8.6561689e-08
8.6561048e-08
8.65606e-08
8.6560478e-08
8.6560379e-08
8.6559131e-08
8.6554753e-08
8.6546991e-08
8.6544786e-08
8.6578216e-08
8.6705786e-08
8.6994394e-08
8.7435879e-08
8.7767107e-08
8.7197494e-08
8.4123898e-08
7.6012712e-08
5.975148e-08
3.5591948e-08
1.2920743e-08
2.3181982e-09
3.7555881e-10
3.9218452e-10
8.693357e-08
8.6933284e-08
8.6934065e-08
8.6934992e-08
8.693594e-08
8.6936887e-08
8.6937846e-08
8.6938821e-08
8.6939794e-08
8.6940765e-08
8.694171e-08
8.6942626e-08
8.6943497e-08
8.6944334e-08
8.694515e-08
8.6945965e-08
8.694679e-08
8.694766e-08
8.6948597e-08
8.6949608e-08
8.6950653e-08
8.6951655e-08
8.695245e-08
8.6952889e-08
8.6952923e-08
8.6952698e-08
8.6952459e-08
8.6952342e-08
8.6952317e-08
8.6952317e-08
8.6952282e-08
8.6952201e-08
8.6952085e-08
8.6951952e-08
8.6951767e-08
8.695143e-08
8.6950878e-08
8.6950227e-08
8.694973e-08
8.6949577e-08
8.6949594e-08
8.6948832e-08
8.6945342e-08
8.6937851e-08
8.6931977e-08
8.6951891e-08
8.705095e-08
8.7301922e-08
8.7730825e-08
8.8153325e-08
8.7898604e-08
8.5482363e-08
7.8422283e-08
6.330434e-08
3.9323517e-08
1.501151e-08
2.7460697e-09
3.8230902e-10
3.5016249e-10
8.7363517e-08
8.7363537e-08
8.7364445e-08
8.7365374e-08
8.7366328e-08
8.7367282e-08
8.7368246e-08
8.7369223e-08
8.7370192e-08
8.7371157e-08
8.7372093e-08
8.7372994e-08
8.7373846e-08
8.7374665e-08
8.7375465e-08
8.7376271e-08
8.737709e-08
8.7377957e-08
8.7378892e-08
8.7379899e-08
8.7380942e-08
8.7381939e-08
8.738272e-08
8.7383134e-08
8.7383136e-08
8.7382881e-08
8.7382633e-08
8.7382519e-08
8.7382499e-08
8.7382502e-08
8.7382469e-08
8.7382388e-08
8.7382267e-08
8.7382136e-08
8.7381969e-08
8.7381676e-08
8.7381165e-08
8.7380515e-08
8.7379972e-08
8.7379765e-08
8.7379839e-08
8.737948e-08
8.7376917e-08
8.7370238e-08
8.7362188e-08
8.737099e-08
8.7443111e-08
8.765265e-08
8.8053168e-08
8.8535133e-08
8.8555365e-08
8.67705e-08
8.0774625e-08
6.6965779e-08
4.3433477e-08
1.7507595e-08
3.3006242e-09
4.0245268e-10
3.1482264e-10
8.7840233e-08
8.7840521e-08
8.7841493e-08
8.7842435e-08
8.7843392e-08
8.7844351e-08
8.7845313e-08
8.7846286e-08
8.7847247e-08
8.7848197e-08
8.7849113e-08
8.7849991e-08
8.7850816e-08
8.7851609e-08
8.7852387e-08
8.7853178e-08
8.7853988e-08
8.7854849e-08
8.7855776e-08
8.7856777e-08
8.7857816e-08
8.7858805e-08
8.7859567e-08
8.7859951e-08
8.7859913e-08
8.7859622e-08
8.7859366e-08
8.7859257e-08
8.7859242e-08
8.7859248e-08
8.7859218e-08
8.7859138e-08
8.7859015e-08
8.7858883e-08
8.7858733e-08
8.7858484e-08
8.7858024e-08
8.7857387e-08
8.7856802e-08
8.7856532e-08
8.785662e-08
8.7856573e-08
8.7854894e-08
8.7849351e-08
8.7840349e-08
8.784043e-08
8.7888021e-08
8.8054415e-08
8.8413446e-08
8.8923724e-08
8.9174119e-08
8.7987834e-08
8.3002682e-08
7.0714918e-08
4.7942778e-08
2.0508386e-08
4.0291779e-09
4.4105947e-10
2.8439379e-10
8.8370206e-08
8.837073e-08
8.8371718e-08
8.8372669e-08
8.8373623e-08
8.8374581e-08
8.8375535e-08
8.8376493e-08
8.8377434e-08
8.837836e-08
8.8379246e-08
8.8380092e-08
8.8380884e-08
8.8381645e-08
8.8382397e-08
8.8383168e-08
8.8383965e-08
8.8384817e-08
8.8385734e-08
8.8386726e-08
8.8387758e-08
8.8388737e-08
8.8389473e-08
8.8389819e-08
8.8389733e-08
8.83894e-08
8.8389138e-08
8.8389036e-08
8.8389027e-08
8.8389036e-08
8.8389009e-08
8.8388931e-08
8.8388807e-08
8.8388673e-08
8.8388537e-08
8.8388333e-08
8.8387931e-08
8.8387322e-08
8.8386705e-08
8.8386368e-08
8.8386428e-08
8.8386596e-08
8.8385705e-08
8.8381513e-08
8.8372717e-08
8.8366715e-08
8.8393212e-08
8.8516795e-08
8.8823432e-08
8.933014e-08
8.9754531e-08
8.911148e-08
8.5217399e-08
7.4488233e-08
5.2830816e-08
2.409762e-08
4.9896878e-09
4.9670247e-10
2.5863175e-10
8.8961246e-08
8.8961887e-08
8.8962873e-08
8.8963825e-08
8.8964769e-08
8.8965711e-08
8.8966646e-08
8.8967578e-08
8.8968491e-08
8.8969382e-08
8.8970231e-08
8.8971034e-08
8.8971785e-08
8.8972508e-08
8.8973227e-08
8.8973974e-08
8.8974755e-08
8.8975593e-08
8.8976494e-08
8.8977473e-08
8.8978498e-08
8.8979461e-08
8.8980166e-08
8.8980465e-08
8.8980321e-08
8.8979934e-08
8.8979672e-08
8.8979579e-08
8.8979576e-08
8.8979589e-08
8.8979565e-08
8.8979491e-08
8.8979368e-08
8.8979234e-08
8.8979109e-08
8.8978948e-08
8.8978614e-08
8.897805e-08
8.8977417e-08
8.8977016e-08
8.8977022e-08
8.8977307e-08
8.8977059e-08
8.8974266e-08
8.8966616e-08
8.8957141e-08
8.8966816e-08
8.905029e-08
8.9297153e-08
8.977093e-08
9.0312198e-08
9.0139106e-08
8.7284507e-08
7.8233985e-08
5.8060993e-08
2.8367537e-08
6.2560891e-09
5.817028e-10
2.3745537e-10
8.9622606e-08
8.9623311e-08
8.9624288e-08
8.9625226e-08
8.9626147e-08
8.9627066e-08
8.9627973e-08
8.9628872e-08
8.9629747e-08
8.9630594e-08
8.9631392e-08
8.9632141e-08
8.9632839e-08
8.9633515e-08
8.9634194e-08
8.9634909e-08
8.9635667e-08
8.9636484e-08
8.9637363e-08
8.9638324e-08
8.9639336e-08
8.9640278e-08
8.9640941e-08
8.9641187e-08
8.9640974e-08
8.9640513e-08
8.9640259e-08
8.9640179e-08
8.9640182e-08
8.9640199e-08
8.9640179e-08
8.9640111e-08
8.9639993e-08
8.9639861e-08
8.9639744e-08
8.9639627e-08
8.9639369e-08
8.963887e-08
8.9638238e-08
8.9637786e-08
8.9637728e-08
8.9638046e-08
8.9638247e-08
8.9636783e-08
8.9630919e-08
8.9620363e-08
8.9618023e-08
8.966644e-08
8.9850543e-08
9.0265507e-08
9.086258e-08
9.1075532e-08
8.919748e-08
8.1846519e-08
6.3568043e-08
3.3407138e-08
7.9415638e-09
7.0303746e-10
2.2109662e-10
9.0365643e-08
9.0366355e-08
9.0367303e-08
9.0368213e-08
9.0369102e-08
9.0369985e-08
9.0370851e-08
9.0371705e-08
9.0372529e-08
9.0373315e-08
9.0374044e-08
9.0374721e-08
9.0375351e-08
9.0375966e-08
9.0376591e-08
9.0377262e-08
9.0377986e-08
9.037877e-08
9.0379617e-08
9.0380553e-08
9.0381547e-08
9.0382457e-08
9.0383067e-08
9.0383252e-08
9.0382942e-08
9.0382407e-08
9.0382153e-08
9.0382097e-08
9.0382105e-08
9.0382124e-08
9.038211e-08
9.0382051e-08
9.0381941e-08
9.0381814e-08
9.0381707e-08
9.0381629e-08
9.0381456e-08
9.0381043e-08
9.0380436e-08
9.0379951e-08
9.0379836e-08
9.0380135e-08
9.0380597e-08
9.0380223e-08
9.0376459e-08
9.0366774e-08
9.0357322e-08
9.0377733e-08
9.0501228e-08
9.083837e-08
9.1430554e-08
9.1926689e-08
9.0930828e-08
8.511307e-08
6.9257644e-08
3.9284369e-08
1.0198318e-08
8.7261413e-10
2.1055172e-10
9.1203973e-08
9.1204724e-08
9.1205638e-08
9.120651e-08
9.1207359e-08
9.1208192e-08
9.1209005e-08
9.1209798e-08
9.1210554e-08
9.1211257e-08
9.1211896e-08
9.121248e-08
9.1213023e-08
9.1213555e-08
9.121411e-08
9.121472e-08
9.1215393e-08
9.1216129e-08
9.1216931e-08
9.1217832e-08
9.1218801e-08
9.1219666e-08
9.1220209e-08
9.122034e-08
9.1219847e-08
9.1219277e-08
9.1219015e-08
9.1218989e-08
9.1219001e-08
9.1219021e-08
9.1219017e-08
9.1218967e-08
9.1218873e-08
9.1218755e-08
9.1218659e-08
9.1218616e-08
9.1218543e-08
9.121824e-08
9.1217682e-08
9.1217181e-08
9.1217029e-08
9.1217285e-08
9.1217881e-08
9.1218288e-08
9.1216516e-08
9.1209073e-08
9.1196983e-08
9.119772e-08
9.1267769e-08
9.1517154e-08
9.2050895e-08
9.2710002e-08
9.2453253e-08
8.8352392e-08
7.498968e-08
4.6026824e-08
1.3235464e-08
1.1079181e-09
2.0875063e-10
9.2153844e-08
9.2154623e-08
9.2155507e-08
9.2156326e-08
9.2157116e-08
9.2157879e-08
9.215862e-08
9.2159335e-08
9.2160002e-08
9.21606e-08
9.2161127e-08
9.2161597e-08
9.2162034e-08
9.2162465e-08
9.2162929e-08
9.2163459e-08
9.2164059e-08
9.2164728e-08
9.2165471e-08
9.2166331e-08
9.2167265e-08
9.2168075e-08
9.2168541e-08
9.2168585e-08
9.2167867e-08
9.2167272e-08
9.216703e-08
9.2167014e-08
9.2167031e-08
9.2167052e-08
9.2167065e-08
9.2167028e-08
9.2166954e-08
9.2166848e-08
9.2166758e-08
9.2166747e-08
9.2166798e-08
9.2166632e-08
9.2166131e-08
9.2165617e-08
9.216544e-08
9.2165711e-08
9.2166327e-08
9.2167231e-08
9.2167027e-08
9.2162477e-08
9.2151246e-08
9.2140909e-08
9.2168902e-08
9.2330601e-08
9.2766474e-08
9.3481334e-08
9.3787003e-08
9.1234518e-08
8.0633289e-08
5.359446e-08
1.7324167e-08
1.4666865e-09
2.17967e-10
9.3231626e-08
9.3232554e-08
9.3233415e-08
9.3234184e-08
9.3234918e-08
9.3235624e-08
9.3236302e-08
9.3236947e-08
9.3237529e-08
9.3238024e-08
9.3238438e-08
9.3238794e-08
9.323912e-08
9.3239439e-08
9.3239804e-08
9.3240261e-08
9.324081e-08
9.3241407e-08
9.3242092e-08
9.3242923e-08
9.3243836e-08
9.3244601e-08
9.3245022e-08
9.3244873e-08
9.3243909e-08
9.3243349e-08
9.3243157e-08
9.3243134e-08
9.3243156e-08
9.3243185e-08
9.3243221e-08
9.3243203e-08
9.3243163e-08
9.3243064e-08
9.3242973e-08
9.3242966e-08
9.3243147e-08
9.3243158e-08
9.3242749e-08
9.3242224e-08
9.3242054e-08
9.3242436e-08
9.3242959e-08
9.3243916e-08
9.3244888e-08
9.324314e-08
9.3234892e-08
9.3221074e-08
9.3221065e-08
9.3305128e-08
9.361842e-08
9.428812e-08
9.4976637e-08
9.3783027e-08
8.5937846e-08
6.1869954e-08
2.276886e-08
2.0450099e-09
2.3696974e-10
6.0162832e-10
6.2962624e-10
6.4651913e-10
6.5815152e-10
6.6762466e-10
6.7589884e-10
6.8293364e-10
6.8842211e-10
6.9208565e-10
6.9371241e-10
6.9311896e-10
6.9009855e-10
6.8442012e-10
6.7580452e-10
6.6392948e-10
6.4842562e-10
6.2890113e-10
6.0495993e-10
5.7624057e-10
5.4246074e-10
5.0351077e-10
4.5961332e-10
4.1154145e-10
3.5996871e-10
3.057307e-10
2.5020937e-10
1.9547537e-10
1.4187504e-10
9.3263342e-11
5.2660759e-11
2.1822257e-11
3.6524417e-12
2.0501801e-12
9.7909274e-12
3.1339153e-11
7.000773e-11
1.2415817e-10
1.8442423e-10
2.4565042e-10
3.1047982e-10
3.7934862e-10
4.5089606e-10
5.2543685e-10
5.9894335e-10
6.7005194e-10
7.3898231e-10
8.0484096e-10
8.6635527e-10
9.2269379e-10
9.7406957e-10
1.0209737e-09
1.0638562e-09
1.1031319e-09
1.1387644e-09
1.1707606e-09
1.1997033e-09
1.2261722e-09
1.2504288e-09
1.2725949e-09
1.2928612e-09
1.3115258e-09
1.3287061e-09
1.3443956e-09
1.3586675e-09
1.3716468e-09
1.3834547e-09
1.3942029e-09
1.403994e-09
1.4129238e-09
1.4210744e-09
1.4285264e-09
1.4353337e-09
1.4415843e-09
1.4472453e-09
4.5440631e-10
4.7941433e-10
5.0251357e-10
5.2424828e-10
5.4331546e-10
5.5944737e-10
5.7273438e-10
5.8332321e-10
5.9132247e-10
5.9682286e-10
5.9989533e-10
6.0057452e-10
5.9882574e-10
5.9454958e-10
5.8756043e-10
5.776129e-10
5.6439757e-10
5.4757805e-10
5.2680962e-10
5.017756e-10
4.7229034e-10
4.3764995e-10
3.9747728e-10
3.5273222e-10
3.0495505e-10
2.5559548e-10
2.0635007e-10
1.5906614e-10
1.1537969e-10
7.6683009e-11
4.8725392e-11
2.403016e-11
8.8342279e-12
8.9974659e-12
1.7366388e-11
3.7008323e-11
6.8361375e-11
1.0804918e-10
1.5200944e-10
1.9929825e-10
2.4968794e-10
3.0250098e-10
3.5824379e-10
4.1500297e-10
4.7128628e-10
5.2646218e-10
5.8039123e-10
6.3228948e-10
6.8139941e-10
7.2734175e-10
7.7004766e-10
8.0961749e-10
8.4622242e-10
8.8012581e-10
9.1106594e-10
9.3925847e-10
9.6500564e-10
9.8856988e-10
1.0101517e-09
1.0299165e-09
1.0480445e-09
1.0647052e-09
1.0800145e-09
1.0940712e-09
1.1069696e-09
1.1188007e-09
1.1296492e-09
1.1395968e-09
1.1487181e-09
1.1570835e-09
1.1647581e-09
1.1717984e-09
1.1782714e-09
1.1841996e-09
1.3455271e-09
1.1204173e-09
9.4006316e-10
7.9700585e-10
6.8974856e-10
6.1342978e-10
5.6128516e-10
5.2910667e-10
5.1290289e-10
5.079255e-10
5.0985329e-10
5.1515781e-10
5.2133505e-10
5.2661422e-10
5.2979665e-10
5.301286e-10
5.2714406e-10
5.2056404e-10
5.1019838e-10
4.9589034e-10
4.7754516e-10
4.5493806e-10
4.2778323e-10
3.9613687e-10
3.6052407e-10
3.21791e-10
2.8101011e-10
2.3967002e-10
1.9821871e-10
1.5854213e-10
1.2197915e-10
9.1170131e-11
6.4588959e-11
4.6844739e-11
3.5451253e-11
3.6234107e-11
4.3717157e-11
5.7868913e-11
7.7087116e-11
1.0100555e-10
1.2878155e-10
1.5960919e-10
1.930526e-10
2.2841735e-10
2.6494371e-10
3.0198457e-10
3.3910916e-10
3.7587289e-10
4.1184891e-10
4.4667868e-10
4.800985e-10
5.1193839e-10
5.4211221e-10
5.7046032e-10
5.9686993e-10
6.2139371e-10
6.441224e-10
6.6515887e-10
6.8460804e-10
7.0258068e-10
7.1926522e-10
7.3474861e-10
7.4910807e-10
7.6241661e-10
7.7474345e-10
7.8615468e-10
7.96713e-10
8.0647803e-10
8.1550604e-10
8.2385014e-10
8.3156021e-10
8.3868252e-10
8.4526419e-10
8.5134231e-10
6.5298268e-09
4.6446363e-09
3.3416479e-09
2.4769698e-09
1.9160132e-09
1.540693e-09
1.277599e-09
1.0767129e-09
9.1310905e-10
7.8106054e-10
6.8368305e-10
6.114921e-10
5.6079714e-10
5.2765621e-10
5.0780369e-10
4.9745386e-10
4.9290294e-10
4.9129877e-10
4.9040696e-10
4.8841318e-10
4.8341029e-10
4.7414143e-10
4.6064976e-10
4.4307828e-10
4.2161921e-10
3.9661519e-10
3.6857444e-10
3.3821446e-10
3.0677967e-10
2.7496248e-10
2.4269244e-10
2.1174394e-10
1.8238848e-10
1.5555784e-10
1.3145188e-10
1.1299832e-10
1.0055146e-10
9.2676717e-11
9.1374771e-11
9.333183e-11
9.8403553e-11
1.0591687e-10
1.1584173e-10
1.2795381e-10
1.4186057e-10
1.5718146e-10
1.7356473e-10
1.9068752e-10
2.0825885e-10
2.2601986e-10
2.4374614e-10
2.6125061e-10
2.7838023e-10
2.9500774e-10
3.1102883e-10
3.2636856e-10
3.409784e-10
3.5483048e-10
3.6791584e-10
3.8023942e-10
3.9182019e-10
4.0268106e-10
4.1284959e-10
4.2235609e-10
4.3123194e-10
4.3950907e-10
4.472195e-10
4.5439493e-10
4.6106648e-10
4.6726444e-10
4.7301843e-10
4.7835509e-10
4.8330718e-10
4.8788054e-10
2.1876846e-08
1.6400438e-08
1.2029617e-08
8.7183291e-09
6.3096176e-09
4.6019571e-09
3.4300636e-09
2.6364899e-09
2.0673186e-09
1.6721482e-09
1.3895602e-09
1.1793401e-09
1.0143035e-09
8.8144838e-10
7.6698596e-10
6.8093055e-10
6.1442985e-10
5.6509389e-10
5.2988019e-10
5.0656778e-10
4.9366679e-10
4.869525e-10
4.8306986e-10
4.7818414e-10
4.7055751e-10
4.5994932e-10
4.4649781e-10
4.3035632e-10
4.1202543e-10
3.9202607e-10
3.7060539e-10
3.4808417e-10
3.2554813e-10
3.0106145e-10
2.7950035e-10
2.5808337e-10
2.381541e-10
2.2046987e-10
2.0595761e-10
1.9441567e-10
1.8600801e-10
1.787378e-10
1.7474941e-10
1.7227135e-10
1.7106012e-10
1.7099524e-10
1.7192949e-10
1.7373161e-10
1.7626688e-10
1.7940414e-10
1.8302087e-10
1.8700554e-10
1.9125839e-10
1.9569178e-10
2.0022895e-10
2.0480469e-10
2.0936394e-10
2.1386133e-10
2.1826072e-10
2.2253439e-10
2.2666118e-10
2.3062517e-10
2.3441561e-10
2.3802604e-10
2.4145324e-10
2.4469662e-10
2.477577e-10
2.5063969e-10
2.5334713e-10
2.5588555e-10
2.5826129e-10
2.6048067e-10
2.6255309e-10
2.6447472e-10
4.3961776e-08
3.5855304e-08
2.8388499e-08
2.1945292e-08
1.6643626e-08
1.2449928e-08
9.2495927e-09
6.8898883e-09
5.1603042e-09
3.9156804e-09
3.0249877e-09
2.3930396e-09
1.9434496e-09
1.6049166e-09
1.3577825e-09
1.1699608e-09
1.0235572e-09
9.033528e-10
8.0077901e-10
7.1589347e-10
6.4874523e-10
5.9562497e-10
5.5791799e-10
5.3297436e-10
5.1707756e-10
5.0684946e-10
5.0011919e-10
4.931301e-10
4.8495693e-10
4.7546472e-10
4.6478586e-10
4.5299126e-10
4.4040118e-10
4.2719695e-10
4.1342913e-10
3.9941645e-10
3.8545778e-10
3.7136572e-10
3.56983e-10
3.4419107e-10
3.3288295e-10
3.229235e-10
3.1422303e-10
3.0667137e-10
3.0051139e-10
2.9519089e-10
2.903776e-10
2.8620162e-10
2.8263465e-10
2.7961483e-10
2.7707751e-10
2.7496253e-10
2.7321681e-10
2.718007e-10
2.706529e-10
2.6972765e-10
2.6898849e-10
2.6840558e-10
2.6795369e-10
2.6761114e-10
2.6735931e-10
2.671824e-10
2.6706686e-10
2.6700098e-10
2.6697476e-10
2.6697965e-10
2.6700846e-10
2.6705514e-10
2.6711465e-10
2.6718287e-10
2.672563e-10
2.6733229e-10
2.6740826e-10