/*--------------------------------*- C++ -*----------------------------------*\
| =========                 |                                                 |
| \\      /  F ield         | OpenFOAM: The Open Source CFD Toolbox           |
|  \\    /   O peration     | Version:  v2006                                 |
|   \\  /    A nd           | Website:  www.openfoam.com                      |
|    \\/     M anipulation  |                                                 |
\*---------------------------------------------------------------------------*/
FoamFile
{
    version     2.0;
    format      ascii;
    class       volScalarField;
    location    "6000";
    object      nutMean;
}
// * * * * * * * * * * * * * * * * * * * * * * * * * * * * * * * * * * * * * //

dimensions      [0 2 -1 0 0 0 0];


internalField   nonuniform List<scalar> 
55713
(
3.3004185e-10
2.9524376e-09
2.8948753e-08
6.9333137e-08
8.9595469e-08
9.5647991e-08
9.5888643e-08
9.5043495e-08
9.4484e-08
9.4279054e-08
9.4245576e-08
9.4257031e-08
9.4268159e-08
9.4272492e-08
9.4273218e-08
9.4273287e-08
9.4273351e-08
9.4273554e-08
9.4273831e-08
9.427396e-08
9.4273812e-08
9.4273523e-08
9.4273216e-08
9.4272921e-08
9.4272678e-08
9.4272548e-08
9.4272469e-08
9.4272372e-08
9.4272224e-08
9.4272035e-08
9.4271822e-08
9.4271591e-08
9.4271378e-08
9.427127e-08
9.4271416e-08
9.4271934e-08
9.427203e-08
9.4271585e-08
9.4270802e-08
9.426986e-08
9.4268962e-08
9.426814e-08
9.426724e-08
9.4266192e-08
9.4265096e-08
9.4264031e-08
9.4263008e-08
9.4262032e-08
9.4261095e-08
9.4260163e-08
9.4259198e-08
9.4258176e-08
9.4257103e-08
9.4256019e-08
9.4254945e-08
9.4253888e-08
9.4252846e-08
9.4251722e-08
9.4250462e-08
3.9514785e-10
4.2528554e-09
3.599383e-08
7.6181741e-08
9.3032128e-08
9.6954685e-08
9.6584966e-08
9.576036e-08
9.5331082e-08
9.520618e-08
9.519953e-08
9.5212946e-08
9.5220678e-08
9.5222511e-08
9.5222315e-08
9.5221964e-08
9.5221622e-08
9.5221442e-08
9.5221349e-08
9.5221056e-08
9.5220478e-08
9.521978e-08
9.5219102e-08
9.5218449e-08
9.521787e-08
9.5217411e-08
9.5216992e-08
9.5216552e-08
9.521607e-08
9.5215547e-08
9.5214999e-08
9.5214428e-08
9.5213859e-08
9.5213376e-08
9.5213137e-08
9.521341e-08
9.52133e-08
9.5212534e-08
9.5211405e-08
9.5210082e-08
9.5208794e-08
9.5207617e-08
9.5206381e-08
9.5204958e-08
9.5203446e-08
9.520195e-08
9.5200484e-08
9.5199049e-08
9.519764e-08
9.5196224e-08
9.5194755e-08
9.5193201e-08
9.5191548e-08
9.5189837e-08
9.518809e-08
9.51863e-08
9.5184461e-08
9.5182469e-08
9.5180245e-08
4.8687481e-10
5.9657891e-09
4.3501728e-08
8.2291261e-08
9.5706172e-08
9.802275e-08
9.7307983e-08
9.6568949e-08
9.6260109e-08
9.6194657e-08
9.62027e-08
9.6214731e-08
9.6218874e-08
9.6218772e-08
9.621812e-08
9.6217391e-08
9.6216652e-08
9.6216095e-08
9.6215614e-08
9.6214885e-08
9.621389e-08
9.6212821e-08
9.6211793e-08
9.6210801e-08
9.620991e-08
9.6209136e-08
9.6208392e-08
9.6207626e-08
9.6206824e-08
9.6205986e-08
9.6205122e-08
9.6204232e-08
9.6203334e-08
9.620249e-08
9.620188e-08
9.6201876e-08
9.6201636e-08
9.6200589e-08
9.6199137e-08
9.6197453e-08
9.619579e-08
9.6194278e-08
9.6192745e-08
9.6190986e-08
9.6189088e-08
9.6187192e-08
9.6185317e-08
9.6183458e-08
9.6181616e-08
9.6179756e-08
9.6177831e-08
9.6175794e-08
9.6173619e-08
9.6171338e-08
9.6168983e-08
9.6166533e-08
9.6163979e-08
9.6161207e-08
9.6158099e-08
6.179978e-10
8.3023696e-09
5.1642803e-08
8.7793476e-08
9.7940408e-08
9.8974092e-08
9.8084394e-08
9.7474799e-08
9.7274254e-08
9.7250164e-08
9.7263824e-08
9.7271944e-08
9.7272862e-08
9.7271948e-08
9.7271016e-08
9.7269879e-08
9.7268749e-08
9.7267861e-08
9.7267011e-08
9.7265871e-08
9.7264491e-08
9.7263078e-08
9.7261723e-08
9.7260423e-08
9.7259251e-08
9.7258187e-08
9.7257141e-08
9.7256075e-08
9.725498e-08
9.7253854e-08
9.72527e-08
9.7251518e-08
9.7250321e-08
9.7249154e-08
9.7248187e-08
9.7247886e-08
9.7247578e-08
9.7246304e-08
9.7244562e-08
9.7242545e-08
9.7240525e-08
9.7238696e-08
9.7236907e-08
9.7234866e-08
9.7232618e-08
9.7230353e-08
9.7228106e-08
9.722586e-08
9.7223622e-08
9.7221357e-08
9.7219018e-08
9.721655e-08
9.7213905e-08
9.7211104e-08
9.7208194e-08
9.7205146e-08
9.7201935e-08
9.7198459e-08
9.7194539e-08
8.0635412e-10
1.1405186e-08
6.0130088e-08
9.2538199e-08
9.9771023e-08
9.9864589e-08
9.8947552e-08
9.8486812e-08
9.8372628e-08
9.8372982e-08
9.8385666e-08
9.8389172e-08
9.8388362e-08
9.8387132e-08
9.8385863e-08
9.8384303e-08
9.8382824e-08
9.8381651e-08
9.838045e-08
9.837892e-08
9.8377183e-08
9.8375455e-08
9.8373804e-08
9.8372236e-08
9.8370815e-08
9.8369486e-08
9.8368165e-08
9.836683e-08
9.8365471e-08
9.8364088e-08
9.8362675e-08
9.8361235e-08
9.8359773e-08
9.8358324e-08
9.8357033e-08
9.8356415e-08
9.8356074e-08
9.8354669e-08
9.8352677e-08
9.835036e-08
9.8348006e-08
9.8345882e-08
9.8343883e-08
9.8341628e-08
9.8339078e-08
9.8336485e-08
9.8333913e-08
9.8331329e-08
9.8328745e-08
9.8326128e-08
9.8323433e-08
9.83206e-08
9.8317558e-08
9.8314307e-08
9.8310915e-08
9.8307355e-08
9.8303575e-08
9.8299498e-08
9.8294869e-08
1.0797973e-09
1.547279e-08
6.8695438e-08
9.6117483e-08
1.0129986e-07
1.0075692e-07
9.9921989e-08
9.960766e-08
9.9555001e-08
9.9566204e-08
9.957411e-08
9.9574488e-08
9.9572842e-08
9.9571425e-08
9.9569765e-08
9.9567805e-08
9.9566045e-08
9.9564633e-08
9.9563103e-08
9.9561213e-08
9.9559158e-08
9.9557149e-08
9.9555244e-08
9.9553455e-08
9.9551819e-08
9.9550257e-08
9.9548697e-08
9.954713e-08
9.9545544e-08
9.9543939e-08
9.9542307e-08
9.9540648e-08
9.9538963e-08
9.9537277e-08
9.953571e-08
9.9534779e-08
9.9534386e-08
9.9532997e-08
9.9530802e-08
9.9528227e-08
9.9525569e-08
9.9523171e-08
9.9521011e-08
9.9518623e-08
9.9515835e-08
9.9512962e-08
9.9510124e-08
9.9507259e-08
9.9504392e-08
9.9501487e-08
9.9498501e-08
9.9495378e-08
9.9492025e-08
9.948841e-08
9.948462e-08
9.948065e-08
9.9476402e-08
9.9471845e-08
9.9466627e-08
1.4820692e-09
2.071554e-08
7.6945332e-08
9.8996596e-08
1.0254506e-07
1.0169109e-07
1.0102607e-07
1.0083776e-07
1.00823e-07
1.0083456e-07
1.008379e-07
1.0083637e-07
1.0083444e-07
1.0083283e-07
1.0083076e-07
1.0082845e-07
1.0082649e-07
1.0082489e-07
1.0082306e-07
1.0082085e-07
1.0081851e-07
1.0081627e-07
1.0081416e-07
1.0081221e-07
1.008104e-07
1.0080864e-07
1.0080689e-07
1.0080513e-07
1.0080336e-07
1.0080158e-07
1.0079978e-07
1.0079795e-07
1.0079609e-07
1.0079422e-07
1.0079244e-07
1.0079122e-07
1.0079073e-07
1.0078953e-07
1.007872e-07
1.0078442e-07
1.007815e-07
1.0077885e-07
1.0077658e-07
1.0077416e-07
1.0077122e-07
1.0076812e-07
1.0076509e-07
1.0076202e-07
1.0075894e-07
1.0075583e-07
1.0075263e-07
1.0074931e-07
1.0074575e-07
1.0074188e-07
1.007378e-07
1.0073354e-07
1.0072895e-07
1.0072406e-07
1.007184e-07
2.088848e-09
2.7355833e-08
8.5019656e-08
1.0201639e-07
1.0364548e-07
1.0273738e-07
1.0227205e-07
1.0217559e-07
1.0218041e-07
1.0218722e-07
1.0218711e-07
1.0218463e-07
1.0218271e-07
1.0218085e-07
1.021784e-07
1.021758e-07
1.0217374e-07
1.02172e-07
1.0216991e-07
1.0216742e-07
1.0216486e-07
1.0216244e-07
1.0216021e-07
1.0215814e-07
1.0215621e-07
1.0215431e-07
1.0215241e-07
1.0215053e-07
1.0214863e-07
1.0214673e-07
1.0214481e-07
1.0214287e-07
1.021409e-07
1.0213891e-07
1.0213697e-07
1.0213552e-07
1.0213491e-07
1.0213402e-07
1.021317e-07
1.0212877e-07
1.0212563e-07
1.0212277e-07
1.0212043e-07
1.0211811e-07
1.0211512e-07
1.0211188e-07
1.0210874e-07
1.0210555e-07
1.0210236e-07
1.0209914e-07
1.0209583e-07
1.0209242e-07
1.0208879e-07
1.0208481e-07
1.0208054e-07
1.0207616e-07
1.0207138e-07
1.0206634e-07
1.0206042e-07
3.0485847e-09
3.5601993e-08
9.2212498e-08
1.0431463e-07
1.0475875e-07
1.0395799e-07
1.0366246e-07
1.0362436e-07
1.036333e-07
1.0363539e-07
1.0363353e-07
1.0363075e-07
1.0362894e-07
1.0362678e-07
1.0362399e-07
1.0362123e-07
1.0361917e-07
1.0361736e-07
1.0361505e-07
1.0361234e-07
1.0360961e-07
1.0360711e-07
1.0360483e-07
1.0360272e-07
1.0360072e-07
1.0359874e-07
1.0359678e-07
1.0359482e-07
1.0359287e-07
1.0359091e-07
1.0358894e-07
1.0358696e-07
1.0358496e-07
1.0358293e-07
1.0358092e-07
1.035793e-07
1.035786e-07
1.0357805e-07
1.0357598e-07
1.0357298e-07
1.0356969e-07
1.0356667e-07
1.035643e-07
1.0356221e-07
1.0355932e-07
1.0355603e-07
1.035529e-07
1.035497e-07
1.0354651e-07
1.0354332e-07
1.0354002e-07
1.0353666e-07
1.035331e-07
1.0352918e-07
1.035249e-07
1.0352056e-07
1.035158e-07
1.0351082e-07
1.0350487e-07
4.683455e-09
4.560372e-08
9.8569417e-08
1.0631487e-07
1.0598786e-07
1.0535756e-07
1.0519497e-07
1.0518898e-07
1.0519495e-07
1.0519345e-07
1.0519096e-07
1.051882e-07
1.0518653e-07
1.0518407e-07
1.0518104e-07
1.0517825e-07
1.0517631e-07
1.0517453e-07
1.0517205e-07
1.0516916e-07
1.0516637e-07
1.051639e-07
1.0516167e-07
1.051596e-07
1.051576e-07
1.0515563e-07
1.0515367e-07
1.0515174e-07
1.0514981e-07
1.0514789e-07
1.0514596e-07
1.0514403e-07
1.0514208e-07
1.0514011e-07
1.0513814e-07
1.0513646e-07
1.0513567e-07
1.0513547e-07
1.0513399e-07
1.0513102e-07
1.0512763e-07
1.0512454e-07
1.0512222e-07
1.0512046e-07
1.0511787e-07
1.0511466e-07
1.0511168e-07
1.051086e-07
1.0510556e-07
1.0510256e-07
1.0509944e-07
1.0509629e-07
1.0509298e-07
1.0508936e-07
1.0508525e-07
1.0508119e-07
1.0507671e-07
1.0507203e-07
1.0506634e-07
7.3954671e-09
5.7388279e-08
1.038162e-07
1.0809083e-07
1.0737851e-07
1.0694668e-07
1.0687435e-07
1.0688018e-07
1.0688093e-07
1.0687768e-07
1.0687541e-07
1.0687277e-07
1.0687129e-07
1.0686857e-07
1.0686545e-07
1.0686283e-07
1.0686117e-07
1.0685951e-07
1.0685687e-07
1.0685389e-07
1.068512e-07
1.0684892e-07
1.0684685e-07
1.068449e-07
1.06843e-07
1.0684114e-07
1.068393e-07
1.0683749e-07
1.068357e-07
1.0683391e-07
1.0683214e-07
1.0683036e-07
1.0682859e-07
1.068268e-07
1.0682499e-07
1.0682338e-07
1.0682256e-07
1.0682271e-07
1.0682214e-07
1.0681943e-07
1.0681598e-07
1.0681293e-07
1.0681076e-07
1.0680943e-07
1.0680741e-07
1.0680441e-07
1.068018e-07
1.0679901e-07
1.0679629e-07
1.067937e-07
1.0679094e-07
1.0678822e-07
1.0678537e-07
1.0678232e-07
1.0677867e-07
1.0677511e-07
1.0677125e-07
1.0676717e-07
1.067621e-07
1.1271308e-08
7.0897443e-08
1.0727264e-07
1.0969796e-07
1.0897265e-07
1.087295e-07
1.0870708e-07
1.087123e-07
1.087095e-07
1.0870618e-07
1.0870465e-07
1.0870208e-07
1.0870094e-07
1.0869803e-07
1.0869509e-07
1.0869287e-07
1.0869169e-07
1.0869022e-07
1.0868745e-07
1.0868455e-07
1.086822e-07
1.0868026e-07
1.0867847e-07
1.0867676e-07
1.086751e-07
1.0867349e-07
1.0867191e-07
1.0867036e-07
1.0866883e-07
1.0866732e-07
1.0866583e-07
1.0866436e-07
1.0866289e-07
1.0866143e-07
1.0865995e-07
1.0865858e-07
1.0865785e-07
1.0865832e-07
1.0865885e-07
1.0865682e-07
1.086534e-07
1.0865051e-07
1.0864866e-07
1.086478e-07
1.086467e-07
1.0864407e-07
1.0864209e-07
1.0863979e-07
1.0863757e-07
1.0863566e-07
1.0863351e-07
1.0863146e-07
1.0862933e-07
1.0862711e-07
1.0862432e-07
1.0862153e-07
1.0861871e-07
1.0861553e-07
1.0861152e-07
1.7014145e-08
8.6056969e-08
1.0958954e-07
1.1120612e-07
1.1079113e-07
1.107022e-07
1.1069961e-07
1.1070017e-07
1.1069692e-07
1.1069454e-07
1.1069395e-07
1.106915e-07
1.1069091e-07
1.1068809e-07
1.1068569e-07
1.1068419e-07
1.1068366e-07
1.1068244e-07
1.1067972e-07
1.1067727e-07
1.1067552e-07
1.1067408e-07
1.1067273e-07
1.1067143e-07
1.1067018e-07
1.1066899e-07
1.1066784e-07
1.1066672e-07
1.1066562e-07
1.1066457e-07
1.1066353e-07
1.1066253e-07
1.1066154e-07
1.1066057e-07
1.1065962e-07
1.1065872e-07
1.1065829e-07
1.1065895e-07
1.1066053e-07
1.1065968e-07
1.1065659e-07
1.1065407e-07
1.1065272e-07
1.1065241e-07
1.1065243e-07
1.1065038e-07
1.1064938e-07
1.1064779e-07
1.106463e-07
1.106453e-07
1.1064406e-07
1.1064292e-07
1.106418e-07
1.1064066e-07
1.1063912e-07
1.1063741e-07
1.10636e-07
1.1063413e-07
1.1063166e-07
2.4965461e-08
1.0254841e-07
1.1276778e-07
1.1294069e-07
1.1284759e-07
1.1284202e-07
1.1284269e-07
1.1284147e-07
1.1283934e-07
1.1283829e-07
1.1283843e-07
1.1283659e-07
1.1283635e-07
1.1283455e-07
1.1283312e-07
1.1283262e-07
1.1283267e-07
1.1283191e-07
1.1282993e-07
1.1282855e-07
1.1282771e-07
1.12827e-07
1.128263e-07
1.1282566e-07
1.1282507e-07
1.1282452e-07
1.12824e-07
1.1282352e-07
1.1282306e-07
1.1282265e-07
1.1282226e-07
1.1282191e-07
1.1282158e-07
1.1282129e-07
1.1282102e-07
1.1282079e-07
1.128208e-07
1.1282137e-07
1.1282336e-07
1.1282373e-07
1.128218e-07
1.1282035e-07
1.1281985e-07
1.128201e-07
1.1282067e-07
1.1282005e-07
1.1282018e-07
1.1281965e-07
1.128193e-07
1.1281931e-07
1.1281929e-07
1.1281927e-07
1.1281933e-07
1.1281942e-07
1.1281936e-07
1.1281913e-07
1.1281926e-07
1.1281907e-07
1.1281866e-07
8.5579113e-08
8.5577084e-08
8.5575728e-08
8.5577024e-08
8.5577677e-08
8.5578569e-08
8.557941e-08
8.5580292e-08
8.5581199e-08
8.558212e-08
8.5583039e-08
8.5583952e-08
8.5584861e-08
8.558578e-08
8.5586719e-08
8.5587676e-08
8.5588639e-08
8.5589597e-08
8.5590537e-08
8.5591447e-08
8.5592312e-08
8.55931e-08
8.5593731e-08
8.5594121e-08
8.5594246e-08
8.5594176e-08
8.5594035e-08
8.5593933e-08
8.5593898e-08
8.55939e-08
8.559389e-08
8.559385e-08
8.5593795e-08
8.5593745e-08
8.5593689e-08
8.5593588e-08
8.5593397e-08
8.5593098e-08
8.5592721e-08
8.5592232e-08
8.5591095e-08
8.5587797e-08
8.5580745e-08
8.5573147e-08
8.5583374e-08
8.5656114e-08
8.5857398e-08
8.6223977e-08
8.6636943e-08
8.6615347e-08
8.5080514e-08
8.0215096e-08
6.9359539e-08
5.0649112e-08
2.7032084e-08
8.6632005e-09
1.6975681e-09
5.1463129e-10
7.0124655e-10
8.5869645e-08
8.5867892e-08
8.5867573e-08
8.5868622e-08
8.5869413e-08
8.5870274e-08
8.5871137e-08
8.5872027e-08
8.587294e-08
8.5873862e-08
8.587478e-08
8.5875689e-08
8.5876594e-08
8.587751e-08
8.5878445e-08
8.5879399e-08
8.5880361e-08
8.5881319e-08
8.5882259e-08
8.5883166e-08
8.5884027e-08
8.5884807e-08
8.5885429e-08
8.5885807e-08
8.5885918e-08
8.5885834e-08
8.5885688e-08
8.5885586e-08
8.5885552e-08
8.5885549e-08
8.5885532e-08
8.5885484e-08
8.5885423e-08
8.5885368e-08
8.588531e-08
8.5885208e-08
8.5885025e-08
8.5884743e-08
8.5884362e-08
8.5883783e-08
8.5882451e-08
8.5879048e-08
8.5872451e-08
8.5866055e-08
8.5876906e-08
8.5945921e-08
8.6134887e-08
8.6483586e-08
8.6896242e-08
8.6944932e-08
8.562378e-08
8.114694e-08
7.0985209e-08
5.2873729e-08
2.9080988e-08
9.6554181e-09
1.8417207e-09
4.7760612e-10
6.2848049e-10
8.6189367e-08
8.6187823e-08
8.6187896e-08
8.6188869e-08
8.6189713e-08
8.6190576e-08
8.6191455e-08
8.6192356e-08
8.6193277e-08
8.6194205e-08
8.6195126e-08
8.6196036e-08
8.619694e-08
8.6197854e-08
8.6198788e-08
8.6199741e-08
8.6200703e-08
8.6201661e-08
8.6202599e-08
8.6203502e-08
8.6204358e-08
8.6205134e-08
8.6205751e-08
8.6206124e-08
8.6206228e-08
8.6206135e-08
8.6205984e-08
8.620588e-08
8.6205844e-08
8.620584e-08
8.6205821e-08
8.6205771e-08
8.6205706e-08
8.6205651e-08
8.6205599e-08
8.6205511e-08
8.6205342e-08
8.6205067e-08
8.6204699e-08
8.6204216e-08
8.6203235e-08
8.6200556e-08
8.6194552e-08
8.6186516e-08
8.6189104e-08
8.6238049e-08
8.6395274e-08
8.671781e-08
8.7157976e-08
8.7371927e-08
8.6458252e-08
8.2714127e-08
7.3582445e-08
5.6328902e-08
3.2234702e-08
1.1184246e-08
2.0761034e-09
4.5506772e-10
5.5751448e-10
8.6541609e-08
8.6540351e-08
8.6540812e-08
8.6541725e-08
8.6542609e-08
8.6543477e-08
8.6544368e-08
8.6545278e-08
8.6546204e-08
8.6547133e-08
8.6548053e-08
8.6548959e-08
8.654986e-08
8.655077e-08
8.6551701e-08
8.6552652e-08
8.6553612e-08
8.6554569e-08
8.6555504e-08
8.65564e-08
8.6557248e-08
8.6558017e-08
8.6558626e-08
8.6558988e-08
8.6559078e-08
8.6558971e-08
8.6558813e-08
8.6558709e-08
8.6558674e-08
8.6558669e-08
8.6558648e-08
8.6558594e-08
8.6558526e-08
8.6558469e-08
8.6558422e-08
8.6558345e-08
8.6558191e-08
8.655793e-08
8.6557566e-08
8.6557104e-08
8.6556281e-08
8.6554104e-08
8.6548911e-08
8.6540829e-08
8.6539037e-08
8.6573574e-08
8.6702601e-08
8.6992149e-08
8.7432412e-08
8.7757973e-08
8.717619e-08
8.408369e-08
7.5950729e-08
5.9680228e-08
3.5544446e-08
1.2925754e-08
2.3881013e-09
4.436241e-10
4.983349e-10
8.6930357e-08
8.692947e-08
8.6930175e-08
8.6931067e-08
8.6931969e-08
8.6932845e-08
8.6933745e-08
8.6934661e-08
8.693559e-08
8.6936518e-08
8.6937433e-08
8.6938334e-08
8.6939229e-08
8.6940133e-08
8.694106e-08
8.6942007e-08
8.6942964e-08
8.6943918e-08
8.6944847e-08
8.6945734e-08
8.6946573e-08
8.6947333e-08
8.694793e-08
8.6948277e-08
8.6948349e-08
8.6948225e-08
8.6948059e-08
8.6947957e-08
8.6947925e-08
8.694792e-08
8.6947898e-08
8.6947841e-08
8.6947769e-08
8.6947711e-08
8.6947668e-08
8.6947605e-08
8.694747e-08
8.6947225e-08
8.6946871e-08
8.6946436e-08
8.6945769e-08
8.6944083e-08
8.6939734e-08
8.6931835e-08
8.6926253e-08
8.694712e-08
8.7047503e-08
8.7299482e-08
8.7727723e-08
8.8145895e-08
8.7881191e-08
8.544866e-08
7.8368644e-08
6.3240325e-08
3.9280392e-08
1.5024496e-08
2.8099261e-09
4.4368664e-10
4.4428985e-10
8.7360282e-08
8.7359843e-08
8.7360703e-08
8.7361591e-08
8.73625e-08
8.7363384e-08
8.7364289e-08
8.7365208e-08
8.7366135e-08
8.7367058e-08
8.7367966e-08
8.7368856e-08
8.7369742e-08
8.7370638e-08
8.7371559e-08
8.73725e-08
8.7373453e-08
8.7374401e-08
8.7375321e-08
8.7376196e-08
8.7377022e-08
8.737777e-08
8.7378352e-08
8.7378679e-08
8.7378727e-08
8.7378581e-08
8.7378408e-08
8.7378308e-08
8.7378279e-08
8.7378276e-08
8.7378254e-08
8.7378195e-08
8.7378119e-08
8.7378059e-08
8.7378022e-08
8.7377973e-08
8.7377859e-08
8.7377636e-08
8.7377295e-08
8.7376873e-08
8.7376312e-08
8.7375041e-08
8.7371577e-08
8.7364398e-08
8.735653e-08
8.7366151e-08
8.7439468e-08
8.7650029e-08
8.8050297e-08
8.852902e-08
8.8541173e-08
8.6742518e-08
8.0728719e-08
6.690863e-08
4.3392414e-08
1.7521969e-08
3.3614918e-09
4.5862827e-10
3.9881817e-10
8.7836978e-08
8.7836935e-08
8.7837881e-08
8.7838779e-08
8.7839687e-08
8.7840576e-08
8.7841482e-08
8.78424e-08
8.7843321e-08
8.7844234e-08
8.7845128e-08
8.7846005e-08
8.7846877e-08
8.7847762e-08
8.7848673e-08
8.7849606e-08
8.7850551e-08
8.785149e-08
8.7852396e-08
8.7853254e-08
8.7854065e-08
8.7854797e-08
8.785536e-08
8.7855661e-08
8.7855678e-08
8.7855506e-08
8.7855323e-08
8.7855228e-08
8.7855204e-08
8.7855203e-08
8.7855181e-08
8.7855121e-08
8.7855042e-08
8.785498e-08
8.7854948e-08
8.7854916e-08
8.7854826e-08
8.7854631e-08
8.7854309e-08
8.7853898e-08
8.7853408e-08
8.7852472e-08
8.7849851e-08
8.7843709e-08
8.7834776e-08
8.7835566e-08
8.7884241e-08
8.8051647e-08
8.841074e-08
8.8918656e-08
8.9162563e-08
8.7964707e-08
8.2964312e-08
7.066424e-08
4.7903159e-08
2.0519297e-08
4.086281e-09
4.9083592e-10
3.5943528e-10
8.8366984e-08
8.836725e-08
8.8368228e-08
8.8369135e-08
8.8370037e-08
8.8370926e-08
8.8371829e-08
8.8372738e-08
8.8373647e-08
8.8374544e-08
8.8375419e-08
8.8376275e-08
8.8377128e-08
8.8377998e-08
8.8378895e-08
8.8379815e-08
8.8380748e-08
8.8381672e-08
8.8382557e-08
8.8383392e-08
8.8384184e-08
8.8384897e-08
8.8385434e-08
8.8385703e-08
8.8385682e-08
8.8385476e-08
8.8385284e-08
8.8385194e-08
8.8385176e-08
8.8385178e-08
8.8385157e-08
8.8385097e-08
8.8385016e-08
8.8384952e-08
8.8384926e-08
8.8384912e-08
8.838485e-08
8.8384688e-08
8.8384393e-08
8.8383995e-08
8.8383546e-08
8.8382859e-08
8.8380995e-08
8.8376096e-08
8.8367252e-08
8.8361861e-08
8.838935e-08
8.8513921e-08
8.8820851e-08
8.9325904e-08
8.9745138e-08
8.9092403e-08
8.5184894e-08
7.4443674e-08
5.2792756e-08
2.4104498e-08
5.043762e-09
5.4558931e-10
3.2617132e-10
8.8958055e-08
8.8958531e-08
8.8959517e-08
8.8960424e-08
8.8961315e-08
8.8962196e-08
8.8963087e-08
8.8963981e-08
8.896487e-08
8.8965741e-08
8.8966588e-08
8.8967416e-08
8.8968243e-08
8.896909e-08
8.8969966e-08
8.8970867e-08
8.8971781e-08
8.8972682e-08
8.8973537e-08
8.8974343e-08
8.897511e-08
8.8975798e-08
8.8976303e-08
8.8976531e-08
8.897646e-08
8.8976213e-08
8.8976013e-08
8.8975931e-08
8.897592e-08
8.8975925e-08
8.8975906e-08
8.8975847e-08
8.8975765e-08
8.89757e-08
8.897568e-08
8.8975686e-08
8.8975657e-08
8.8975537e-08
8.897528e-08
8.8974901e-08
8.8974475e-08
8.8973954e-08
8.8972714e-08
8.8969104e-08
8.8961266e-08
8.8952315e-08
8.8962912e-08
8.9047344e-08
8.929467e-08
8.9767363e-08
9.0304566e-08
9.0123403e-08
8.7257213e-08
7.8195066e-08
5.802472e-08
2.8370234e-08
6.3088294e-09
6.293054e-10
2.987199e-10
8.9619514e-08
8.9620122e-08
8.9621098e-08
8.9621994e-08
8.9622865e-08
8.962373e-08
8.9624598e-08
8.9625466e-08
8.9626323e-08
8.9627158e-08
8.9627964e-08
8.9628752e-08
8.9629543e-08
8.9630357e-08
8.9631204e-08
8.9632077e-08
8.9632963e-08
8.9633829e-08
8.9634644e-08
8.963541e-08
8.9636146e-08
8.9636802e-08
8.9637265e-08
8.9637441e-08
8.9637309e-08
8.9637009e-08
8.9636804e-08
8.9636731e-08
8.9636727e-08
8.9636736e-08
8.963672e-08
8.9636664e-08
8.9636583e-08
8.9636518e-08
8.9636505e-08
8.9636536e-08
8.9636546e-08
8.9636474e-08
8.963627e-08
8.9635924e-08
8.9635515e-08
8.9635091e-08
8.963431e-08
8.9631903e-08
8.9625687e-08
8.9615567e-08
8.9614103e-08
8.9663453e-08
8.9848141e-08
9.0262491e-08
9.0856409e-08
9.1062585e-08
8.9174513e-08
8.1812836e-08
6.3533988e-08
3.3404624e-08
7.9930179e-09
7.5207288e-10
2.7727185e-10
9.0362674e-08
9.0363356e-08
9.0364306e-08
9.0365177e-08
9.0366017e-08
9.0366851e-08
9.0367684e-08
9.0368511e-08
9.0369322e-08
9.0370103e-08
9.0370854e-08
9.0371586e-08
9.0372327e-08
9.0373097e-08
9.0373901e-08
9.0374733e-08
9.0375578e-08
9.0376395e-08
9.0377153e-08
9.0377868e-08
9.0378564e-08
9.0379178e-08
9.0379587e-08
9.0379699e-08
9.0379486e-08
9.0379121e-08
9.0378913e-08
9.0378854e-08
9.0378856e-08
9.0378869e-08
9.0378857e-08
9.0378807e-08
9.0378729e-08
9.0378667e-08
9.0378661e-08
9.0378724e-08
9.0378779e-08
9.0378767e-08
9.0378631e-08
9.037834e-08
9.0377954e-08
9.0377581e-08
9.0377101e-08
9.0375679e-08
9.0371352e-08
9.0362001e-08
9.0353403e-08
9.0374731e-08
9.0498893e-08
9.0835811e-08
9.1425633e-08
9.1916045e-08
9.0911398e-08
8.5084691e-08
6.9226636e-08
3.927642e-08
1.0245433e-08
9.2520254e-10
2.6265895e-10
9.1201225e-08
9.1201955e-08
9.1202864e-08
9.1203695e-08
9.1204489e-08
9.1205276e-08
9.1206056e-08
9.1206826e-08
9.1207571e-08
9.120828e-08
9.1208955e-08
9.1209615e-08
9.1210289e-08
9.1210999e-08
9.1211745e-08
9.1212522e-08
9.1213309e-08
9.1214054e-08
9.1214736e-08
9.1215387e-08
9.1216034e-08
9.1216594e-08
9.1216933e-08
9.1216969e-08
9.1216641e-08
9.1216202e-08
9.1215993e-08
9.1215955e-08
9.1215961e-08
9.1215978e-08
9.1215972e-08
9.1215931e-08
9.1215862e-08
9.1215805e-08
9.121581e-08
9.1215908e-08
9.121602e-08
9.1216081e-08
9.1216034e-08
9.1215822e-08
9.1215476e-08
9.1215141e-08
9.1214834e-08
9.121412e-08
9.1211564e-08
9.1204299e-08
9.1193057e-08
9.1194725e-08
9.1265487e-08
9.1514965e-08
9.2047067e-08
9.2701397e-08
9.2436615e-08
8.8327489e-08
7.4962226e-08
4.6014768e-08
1.3272947e-08
1.1677052e-09
2.5725355e-10
9.2151258e-08
9.215204e-08
9.2152916e-08
9.2153691e-08
9.2154427e-08
9.2155149e-08
9.2155863e-08
9.215656e-08
9.2157223e-08
9.2157841e-08
9.2158422e-08
9.2158994e-08
9.2159589e-08
9.2160227e-08
9.2160904e-08
9.2161611e-08
9.2162318e-08
9.2162968e-08
9.2163551e-08
9.216413e-08
9.2164721e-08
9.2165215e-08
9.2165474e-08
9.216541e-08
9.2164906e-08
9.2164423e-08
9.2164217e-08
9.2164195e-08
9.2164207e-08
9.2164225e-08
9.2164233e-08
9.2164204e-08
9.216415e-08
9.2164103e-08
9.2164129e-08
9.2164264e-08
9.2164436e-08
9.2164584e-08
9.216465e-08
9.2164547e-08
9.2164268e-08
9.2163971e-08
9.2163761e-08
9.2163477e-08
9.2162294e-08
9.2157675e-08
9.2147309e-08
9.2137965e-08
9.216669e-08
9.2328707e-08
9.2763611e-08
9.3474629e-08
9.3772881e-08
9.1212283e-08
8.0609062e-08
5.3582579e-08
1.7349307e-08
1.5310032e-09
2.6602163e-10
9.3229232e-08
9.3230168e-08
9.323102e-08
9.3231739e-08
9.323242e-08
9.3233089e-08
9.3233744e-08
9.3234376e-08
9.3234959e-08
9.3235486e-08
9.3235975e-08
9.323646e-08
9.3236978e-08
9.3237546e-08
9.3238159e-08
9.3238808e-08
9.3239442e-08
9.3239986e-08
9.3240462e-08
9.3240976e-08
9.3241526e-08
9.3241963e-08
9.3242147e-08
9.3241904e-08
9.3241212e-08
9.3240743e-08
9.3240563e-08
9.3240542e-08
9.3240559e-08
9.3240583e-08
9.3240608e-08
9.32406e-08
9.3240567e-08
9.324054e-08
9.3240594e-08
9.3240767e-08
9.324099e-08
9.324123e-08
9.3241427e-08
9.3241467e-08
9.3241281e-08
9.3241021e-08
9.3240855e-08
9.3240779e-08
9.3240461e-08
9.3238294e-08
9.3230925e-08
9.3218211e-08
9.3218954e-08
9.3303455e-08
9.3616365e-08
9.428325e-08
9.4965016e-08
9.3762712e-08
8.5915137e-08
6.1862055e-08
2.2793841e-08
2.1115014e-09
2.8684399e-10
7.7084186e-10
8.0834114e-10
8.3234491e-10
8.4971772e-10
8.6449757e-10
8.780407e-10
8.9035879e-10
9.011004e-10
9.0994931e-10
9.1669586e-10
9.2115641e-10
9.2314959e-10
9.2244819e-10
9.1876762e-10
9.1174149e-10
9.0093556e-10
8.8584355e-10
8.6592758e-10
8.4064147e-10
8.0949461e-10
7.7207743e-10
7.2823995e-10
6.7818663e-10
6.224182e-10
5.616996e-10
4.97055e-10
4.2993236e-10
3.6203881e-10
2.9518246e-10
2.3224986e-10
1.7559645e-10
1.2754676e-10
9.0696481e-11
6.5657528e-11
5.225275e-11
5.1268579e-11
6.3444903e-11
8.6770897e-11
1.1702312e-10
1.5264324e-10
1.9289431e-10
2.3659052e-10
2.829963e-10
3.3070558e-10
3.7827353e-10
4.2518584e-10
4.7087494e-10
5.1482907e-10
5.565135e-10
5.9562245e-10
6.3208516e-10
6.6592589e-10
6.972329e-10
7.2610777e-10
7.526046e-10
7.76835e-10
7.9901195e-10
8.193488e-10
8.3801364e-10
8.5515516e-10
8.7092302e-10
8.8545087e-10
8.988411e-10
9.1117797e-10
9.225425e-10
9.3301294e-10
9.4266477e-10
9.5156767e-10
9.5978772e-10
9.6738256e-10
9.7441053e-10
9.8091118e-10
9.8694835e-10
9.9249595e-10
5.6867984e-10
6.0815112e-10
6.4445041e-10
6.765739e-10
7.0386058e-10
7.2679569e-10
7.4604754e-10
7.6211231e-10
7.7529023e-10
7.8578855e-10
7.9374887e-10
7.9925347e-10
8.0230265e-10
8.0280749e-10
8.0057546e-10
7.9532042e-10
7.8666306e-10
7.7415898e-10
7.5731961e-10
7.3566498e-10
7.0874374e-10
6.7614254e-10
6.3728888e-10
5.9205608e-10
5.4107264e-10
4.8547469e-10
4.2679538e-10
3.6688454e-10
3.0757356e-10
2.5068664e-10
1.9874908e-10
1.5297648e-10
1.1411959e-10
8.42072e-11
6.4355324e-11
5.3890778e-11
5.3237371e-11
6.2014665e-11
7.8329821e-11
1.0027218e-10
1.2671007e-10
1.5658991e-10
1.8929487e-10
2.2399023e-10
2.5973135e-10
2.9577052e-10
3.3158734e-10
3.6675322e-10
4.0080347e-10
4.3339816e-10
4.6432221e-10
4.934616e-10
5.2077842e-10
5.4629266e-10
5.7003313e-10
5.9202359e-10
6.1233337e-10
6.3106258e-10
6.4832062e-10
6.6421518e-10
6.7885159e-10
6.9233307e-10
7.0475494e-10
7.1620254e-10
7.2675278e-10
7.3647668e-10
7.4543884e-10
7.5370035e-10
7.6131616e-10
7.6833842e-10
7.7481439e-10
7.807864e-10
7.8630274e-10
7.913776e-10
1.456571e-09
1.2253033e-09
1.0395684e-09
8.9733717e-10
7.94325e-10
7.2406828e-10
6.8006661e-10
6.5775633e-10
6.5193266e-10
6.570235e-10
6.6828606e-10
6.8219101e-10
6.9624119e-10
7.0873899e-10
7.1861038e-10
7.2522729e-10
7.2823338e-10
7.2740448e-10
7.225434e-10
7.1343612e-10
6.998328e-10
6.8147686e-10
6.5802359e-10
6.2916696e-10
5.948612e-10
5.5542415e-10
5.1153551e-10
4.6428453e-10
4.1475018e-10
3.6428109e-10
3.1429917e-10
2.6669609e-10
2.2275151e-10
1.8362411e-10
1.5028095e-10
1.2469872e-10
1.0667576e-10
9.5869302e-11
9.1653372e-11
9.2905578e-11
9.920787e-11
1.0964208e-10
1.2349929e-10
1.4011295e-10
1.5880731e-10
1.7897816e-10
2.001373e-10
2.2187862e-10
2.4381922e-10
2.6562953e-10
2.8704097e-10
3.078594e-10
3.2794803e-10
3.4716389e-10
3.6539128e-10
3.8257554e-10
3.9872324e-10
4.138472e-10
4.2796613e-10
4.4111857e-10
4.5335827e-10
4.6474044e-10
4.7531702e-10
4.8513745e-10
4.942492e-10
5.0269781e-10
5.1052669e-10
5.1777744e-10
5.2448947e-10
5.3070012e-10
5.3644481e-10
5.417558e-10
5.4666748e-10
5.5119944e-10
6.5713911e-09
4.7226904e-09
3.4494895e-09
2.606509e-09
2.0596952e-09
1.6879157e-09
1.4154473e-09
1.2017029e-09
1.0267609e-09
8.9507394e-10
7.9915922e-10
7.324258e-10
6.901968e-10
6.6729174e-10
6.5853901e-10
6.5925726e-10
6.6555058e-10
6.7431851e-10
6.8293773e-10
6.8919768e-10
6.9128589e-10
6.8875496e-10
6.8171105e-10
6.7016537e-10
6.5407161e-10
6.3345555e-10
6.0849694e-10
5.7956553e-10
5.4737298e-10
5.1270379e-10
4.7619598e-10
4.3872417e-10
4.0124746e-10
3.6464206e-10
3.2943995e-10
2.9694247e-10
2.6804553e-10
2.430772e-10
2.2270152e-10
2.0696032e-10
1.9499074e-10
1.8646398e-10
1.8113807e-10
1.7863293e-10
1.7853721e-10
1.804547e-10
1.8398543e-10
1.8883864e-10
1.9475111e-10
2.0147966e-10
2.087976e-10
2.165096e-10
2.2446649e-10
2.3254012e-10
2.4061402e-10
2.4859179e-10
2.5639714e-10
2.6397399e-10
2.7127949e-10
2.7828291e-10
2.8496453e-10
2.9131313e-10
2.9732416e-10
3.0299841e-10
3.0834082e-10
3.1335944e-10
3.1806454e-10
3.2246808e-10
3.265831e-10
3.3042332e-10
3.3400306e-10
3.3733534e-10
3.4043915e-10
3.4331041e-10
2.1811179e-08
1.6364465e-08
1.2027332e-08
8.7447812e-09
6.3671263e-09
4.6997195e-09
3.5606145e-09
2.7751883e-09
2.2216994e-09
1.8311058e-09
1.5437302e-09
1.3218019e-09
1.1438292e-09
9.9859047e-10
8.8574644e-10
8.0167308e-10
7.4134991e-10
7.0154521e-10
6.7868163e-10
6.7033039e-10
6.7165901e-10
6.7761424e-10
6.8404434e-10
6.8805751e-10
6.8894134e-10
6.8655761e-10
6.8085569e-10
6.7180259e-10
6.5952467e-10
6.4429373e-10
6.2643889e-10
6.062917e-10
5.8445061e-10
5.6079162e-10
5.3666767e-10
5.1236246e-10
4.8809497e-10
4.6472722e-10
4.4296899e-10
4.2292595e-10
4.0481908e-10
3.8847893e-10
3.7426229e-10
3.6219427e-10
3.520909e-10
3.4373267e-10
3.3689826e-10
3.3134214e-10
3.2688036e-10
3.2332203e-10
3.205411e-10
3.1844486e-10
3.1694077e-10
3.1593969e-10
3.1535687e-10
3.1512431e-10
3.1517686e-10
3.154568e-10
3.1591802e-10
3.1652084e-10
3.1723102e-10
3.1801992e-10
3.188639e-10
3.1974344e-10
3.2064257e-10
3.2154829e-10
3.2245023e-10
3.233403e-10
3.2421233e-10
3.2506166e-10
3.2588518e-10
3.2667999e-10
3.2744764e-10
3.2817595e-10
4.3846021e-08
3.5732483e-08
2.827337e-08
2.1848242e-08
1.6572919e-08
1.2418146e-08
9.2659552e-09
6.9365875e-09
5.2402181e-09
4.0246642e-09
3.1579832e-09
2.5415579e-09
2.0931626e-09
1.7596099e-09
1.5083621e-09
1.3117033e-09
1.1530199e-09
1.0223264e-09
9.1533108e-10
8.3320533e-10
7.7297497e-10
7.3309723e-10
7.1160844e-10
7.0285718e-10
7.0209967e-10
7.0534621e-10
7.0948065e-10
7.1255843e-10
7.1398984e-10
7.1357017e-10
7.1126421e-10
7.071043e-10
7.0121129e-10
6.9382162e-10
6.8506857e-10
6.7521304e-10
6.6456946e-10
6.533091e-10
6.4143226e-10
6.2936917e-10
6.1760667e-10
6.0630815e-10
5.9553136e-10
5.8536868e-10
5.7596807e-10
5.6743891e-10
5.5970382e-10
5.5270819e-10
5.4640566e-10
5.4074116e-10
5.3566115e-10
5.3112266e-10
5.2707106e-10
5.234581e-10
5.2024006e-10
5.1737758e-10
5.1483443e-10
5.1257884e-10
5.1057957e-10
5.0880844e-10
5.0724098e-10
5.058555e-10
5.0463254e-10
5.0355461e-10
5.0260628e-10
5.0177351e-10
5.0104358e-10
5.0040622e-10
4.9985225e-10
4.9937359e-10
4.9896305e-10
4.9861469e-10
4.9832266e-10
4.9808445e-10
6.3540809e-08
5.5684615e-08
4.7442028e-08
3.9383591e-08