/*--------------------------------*- C++ -*----------------------------------*\
| =========                 |                                                 |
| \\      /  F ield         | OpenFOAM: The Open Source CFD Toolbox           |
|  \\    /   O peration     | Version:  v2006                                 |
|   \\  /    A nd           | Website:  www.openfoam.com                      |
|    \\/     M anipulation  |                                                 |
\*---------------------------------------------------------------------------*/
FoamFile
{
    version     2.0;
    format      ascii;
    class       volScalarField;
    location    "6000";
    object      omega;
}
// * * * * * * * * * * * * * * * * * * * * * * * * * * * * * * * * * * * * * //

dimensions      [0 0 -1 0 0 0 0];


internalField   nonuniform List<scalar> 
55713
(
5.6488915
1.3887894
0.45951518
0.29936584
0.26964526
0.26238182
0.26188345
0.26264422
0.26320241
0.26342665
0.26347346
0.26346594
0.26345432
0.26344887
0.26344902
0.26344988
0.2634499
0.26344957
0.26344935
0.26344876
0.26344767
0.26344644
0.26344517
0.26344395
0.26344277
0.26344154
0.26344017
0.26343863
0.26343691
0.26343488
0.26343272
0.26343041
0.263428
0.26342551
0.26342292
0.26342006
0.26341679
0.26341317
0.26340929
0.26340524
0.26340111
0.26339683
0.2633921
0.26338699
0.26338186
0.2633769
0.26337196
0.26336695
0.26336182
0.26335652
0.26335101
0.26334526
0.26333935
0.26333331
0.26332711
0.26332083
0.26331496
0.26330988
0.26330531
5.1536939
1.2776824
0.43861795
0.30194931
0.27782196
0.27271574
0.27280869
0.27361064
0.27407821
0.27422719
0.27423871
0.27421958
0.27420392
0.27419537
0.27419117
0.27418709
0.27418183
0.27417657
0.27417175
0.27416686
0.27416159
0.27415613
0.27415055
0.27414507
0.27413973
0.27413444
0.27412906
0.27412355
0.27411789
0.27411193
0.27410587
0.27409963
0.27409328
0.27408686
0.27408039
0.27407365
0.2740664
0.27405863
0.2740505
0.2740421
0.2740336
0.27402495
0.27401576
0.27400592
0.27399584
0.27398581
0.27397568
0.27396527
0.27395452
0.27394336
0.2739317
0.27391942
0.27390653
0.27389305
0.27387885
0.27386383
0.27384832
0.27383263
0.27381678
4.7199326
1.1857575
0.42333917
0.30680876
0.28770401
0.28415101
0.28465763
0.28545803
0.28582885
0.28591129
0.28589604
0.28586912
0.28585018
0.28583832
0.2858292
0.28581959
0.28580904
0.28579882
0.28578941
0.28578023
0.28577078
0.28576099
0.28575101
0.2857412
0.28573164
0.28572224
0.2857128
0.2857033
0.28569366
0.28568376
0.28567374
0.28566357
0.28565326
0.2856429
0.28563252
0.28562195
0.28561079
0.28559888
0.28558646
0.2855737
0.28556081
0.28554781
0.28553423
0.28551972
0.28550473
0.28548967
0.2854744
0.28545866
0.28544237
0.28542545
0.28540775
0.28538908
0.28536935
0.28534858
0.28532658
0.28530304
0.28527813
0.28525212
0.28522518
4.3379228
1.1020658
0.41220373
0.3137239
0.29890697
0.29676542
0.29761227
0.29835487
0.2986175
0.29864356
0.29860985
0.29857852
0.29855698
0.29854125
0.29852675
0.29851153
0.29849577
0.29848068
0.29846677
0.29845338
0.29843977
0.29842566
0.29841133
0.29839724
0.29838351
0.29837004
0.29835658
0.29834314
0.29832955
0.29831578
0.29830185
0.29828779
0.29827358
0.29825932
0.29824509
0.29823081
0.29821593
0.29819996
0.29818329
0.29816618
0.29814892
0.29813166
0.29811383
0.29809481
0.29807498
0.29805497
0.29803466
0.29801369
0.29799196
0.29796938
0.29794576
0.29792084
0.29789441
0.29786645
0.2978368
0.2978049
0.29777071
0.29773453
0.29769661
3.9998254
1.0265127
0.4051453
0.32284151
0.31162385
0.31072315
0.31179614
0.31242696
0.31258446
0.31256815
0.31252379
0.31248978
0.31246576
0.31244557
0.31242538
0.31240462
0.31238383
0.31236403
0.31234567
0.31232806
0.31231023
0.31229187
0.31227332
0.31225509
0.3122373
0.31221985
0.31220247
0.31218518
0.31216776
0.31215024
0.31213253
0.3121147
0.31209671
0.31207864
0.31206066
0.31204282
0.31202454
0.31200473
0.31198392
0.31196253
0.31194098
0.31191961
0.31189778
0.31187453
0.31185007
0.3118253
0.31180019
0.31177423
0.31174732
0.31171933
0.31169007
0.31165923
0.31162644
0.31159161
0.31155465
0.31151483
0.31147178
0.31142588
0.31137742
3.6992505
0.95792481
0.40199477
0.33566413
0.3260213
0.32620545
0.32736967
0.32784753
0.32791534
0.32786922
0.32782056
0.32778478
0.32775788
0.32773293
0.32770708
0.32768104
0.32765566
0.32763138
0.3276086
0.32758671
0.32756466
0.32754227
0.3275198
0.32749767
0.327476
0.32745473
0.32743363
0.32741268
0.32739165
0.32737058
0.32734932
0.32732793
0.32730639
0.32728473
0.32726318
0.32724197
0.3272208
0.32719751
0.32717275
0.32714723
0.32712154
0.32709628
0.32707085
0.32704382
0.3270151
0.32698587
0.32695632
0.32692574
0.32689405
0.32686105
0.32682659
0.32679031
0.32675169
0.32671049
0.32666675
0.32661966
0.32656837
0.32651346
0.32645513
3.4309596
0.89550789
0.40270636
0.35097597
0.3425702
0.34346259
0.34452145
0.34482975
0.34482962
0.34476856
0.34471824
0.34468055
0.34465031
0.34462063
0.34458938
0.34455861
0.34452927
0.34450078
0.3444736
0.34444733
0.34442124
0.34439526
0.34436934
0.3443437
0.34431844
0.34429365
0.34426912
0.34424482
0.3442205
0.34419622
0.34417174
0.34414717
0.34412243
0.34409753
0.34407271
0.34404844
0.34402502
0.34399893
0.34397061
0.34394122
0.34391167
0.34388285
0.34385435
0.34382425
0.34379185
0.3437586
0.34372518
0.34369055
0.34365468
0.34361733
0.34357831
0.34353734
0.34349371
0.34344695
0.34339722
0.34334389
0.34328534
0.34322252
0.34315541
3.1906529
0.83859727
0.40727643
0.36643455
0.36140032
0.36266081
0.36348692
0.36364642
0.3635976
0.36353284
0.36348248
0.36344249
0.36340887
0.36337488
0.36333877
0.36330411
0.36327155
0.36323918
0.3632077
0.36317721
0.36314759
0.36311864
0.36308989
0.36306126
0.3630329
0.36300507
0.36297757
0.36295044
0.36292329
0.36289633
0.36286913
0.36284192
0.36281454
0.36278696
0.36275938
0.36273252
0.36270738
0.36267976
0.36264857
0.36261579
0.36258278
0.36255092
0.36252007
0.3624879
0.3624527
0.36241612
0.36237963
0.36234182
0.3623027
0.36226195
0.36221935
0.36217478
0.36212736
0.3620763
0.36202172
0.36196365
0.36189933
0.36183019
0.36175598
2.9748488
0.78667791
0.41562396
0.38513342
0.38261464
0.38399551
0.38458208
0.38462762
0.38455635
0.38449145
0.38444102
0.3843982
0.38436163
0.38432406
0.38428403
0.38424646
0.38421157
0.38417601
0.38414079
0.38410673
0.38407437
0.38404321
0.38401232
0.38398142
0.38395073
0.38392061
0.38389091
0.38386168
0.38383248
0.38380356
0.38377442
0.38374539
0.38371616
0.38368676
0.38365724
0.38362845
0.38360211
0.38357481
0.38354196
0.38350654
0.38347072
0.38343656
0.38340436
0.38337158
0.3833349
0.38329607
0.38325765
0.38321786
0.38317684
0.38313411
0.38308941
0.3830428
0.38299332
0.38293988
0.38288212
0.38282143
0.38275359
0.38268043
0.38260158
2.7808923
0.73935561
0.42795042
0.40686144
0.40653933
0.40787488
0.40822353
0.40819139
0.40811378
0.40805169
0.40800202
0.4079567
0.40791807
0.40787787
0.40783518
0.40779588
0.40775997
0.40772275
0.40768527
0.40764878
0.40761448
0.40758185
0.40754966
0.40751754
0.40748573
0.40745449
0.40742375
0.40739352
0.40736339
0.4073336
0.40730366
0.40727398
0.40724409
0.40721412
0.40718392
0.4071543
0.40712763
0.40710225
0.40707017
0.40703328
0.40699563
0.4069603
0.40692813
0.40689673
0.40686051
0.4068211
0.40678245
0.40674236
0.40670139
0.40665873
0.40661406
0.4065677
0.40651856
0.40646558
0.40640717
0.40634676
0.40627877
0.4062048
0.40612494
2.606618
0.69633443
0.44532332
0.43230616
0.43367196
0.4347788
0.43492633
0.43485667
0.43478393
0.43472596
0.43467861
0.43463245
0.43459351
0.43455159
0.43450755
0.43446814
0.43443397
0.4343979
0.43436001
0.43432254
0.4342872
0.43425412
0.43422192
0.43419013
0.43415889
0.43412824
0.43409809
0.43406846
0.43403902
0.43400998
0.43398092
0.43395222
0.43392339
0.43389469
0.43386565
0.43383702
0.43381128
0.43378939
0.43376183
0.43372529
0.43368722
0.43365255
0.43362249
0.43359458
0.43356206
0.43352444
0.43348822
0.43345017
0.43341196
0.4333724
0.43333083
0.43328793
0.4332425
0.43319399
0.43313895
0.43308259
0.43301958
0.43294918
0.43287356
2.4496324
0.65749961
0.47162595
0.46252106
0.46459656
0.46532831
0.46534197
0.46527249
0.46520788
0.46515502
0.46511281
0.46506907
0.46503236
0.46499009
0.46494675
0.46490987
0.46488208
0.46485122
0.46481504
0.46477821
0.46474398
0.4647125
0.46468246
0.4646533
0.46462487
0.4645971
0.46456981
0.46454307
0.46451666
0.46449073
0.46446495
0.46443962
0.46441435
0.46438939
0.46436422
0.46433933
0.46431684
0.46430022
0.46428151
0.46424858
0.46421224
0.46418098
0.46415595
0.46413398
0.4641102
0.46407734
0.46404755
0.46401478
0.46398306
0.46395107
0.46391694
0.46388178
0.46384486
0.46380585
0.46376083
0.46371302
0.46366269
0.46360158
0.46353771
2.3087681
0.62273459
0.5060163
0.49857141
0.50000262
0.50029262
0.50024883
0.50019816
0.50014827
0.5001051
0.50006956
0.50003387
0.50000214
0.49996537
0.49992914
0.49989897
0.49988219
0.49985943
0.49982692
0.49979473
0.49976648
0.49974092
0.49971683
0.4996937
0.49967134
0.49964967
0.49962856
0.49960807
0.49958808
0.49956865
0.4995496
0.49953112
0.4995129
0.49949516
0.49947755
0.49946032
0.49944491
0.49943606
0.49942954
0.49940582
0.49937561
0.49935213
0.49933561
0.49932296
0.49931247
0.49928927
0.49927197
0.49924854
0.49922824
0.49920955
0.49918883
0.49916687
0.49914498
0.49912136
0.49909501
0.4990621
0.49903377
0.4989909
0.49894878
2.1825703
0.59147173
0.54115036
0.54005607
0.54042238
0.54040985
0.54037941
0.54035451
0.54032162
0.54029916
0.54027634
0.54025808
0.54023617
0.5402159
0.54019694
0.54017674
0.54017012
0.54015275
0.54013214
0.54011545
0.54010117
0.54008796
0.54007538
0.54006346
0.5400522
0.54004157
0.54003161
0.54002223
0.5400135
0.5400053
0.53999775
0.53999076
0.53998431
0.53997838
0.53997296
0.53996801
0.5399644
0.53996542
0.53997143
0.53996507
0.53995156
0.5399435
0.53993938
0.53994086
0.53994472
0.53993999
0.53994322
0.53993471
0.53993254
0.53993303
0.53993246
0.5399309
0.53993101
0.53992992
0.53992958
0.53992353
0.539924
0.53991451
0.53990733
0.17900754
0.17900667
0.17900545
0.17900884
0.17901136
0.17901444
0.17901752
0.17902071
0.17902392
0.17902712
0.17903028
0.17903338
0.1790364
0.17903934
0.17904218
0.17904494
0.17904763
0.17905028
0.1790529
0.17905542
0.17905777
0.1790599
0.17906174
0.17906332
0.17906472
0.17906595
0.17906695
0.17906766
0.17906809
0.17906824
0.1790681
0.17906766
0.17906694
0.17906595
0.1790647
0.17906321
0.17906151
0.17905959
0.17905741
0.17905499
0.17905266
0.17905119
0.17905129
0.17905106
0.17904119
0.17900028
0.1788973
0.17871215
0.17848464
0.17839829
0.178923
0.18114383
0.18855929
0.21031972
0.27232488
0.4502413
0.99058817
3.1726331
15.454026
0.18146151
0.18146086
0.18146139
0.18146441
0.18146721
0.18147028
0.18147344
0.18147666
0.18147989
0.1814831
0.18148627
0.18148937
0.18149239
0.18149533
0.18149817
0.18150093
0.18150364
0.18150631
0.18150895
0.18151148
0.18151384
0.18151596
0.1815178
0.18151938
0.18152079
0.18152202
0.181523
0.18152369
0.18152409
0.18152421
0.18152405
0.18152359
0.18152285
0.18152184
0.18152058
0.18151908
0.18151737
0.18151545
0.18151327
0.18151088
0.18150861
0.18150718
0.18150709
0.18150642
0.18149636
0.18145671
0.18135732
0.18117574
0.18094237
0.18082266
0.18126525
0.18337859
0.19012414
0.21033137
0.26863485
0.43773906
0.95600729
3.0652326
14.652118
0.1841858
0.18418539
0.18418656
0.1841895
0.18419243
0.18419554
0.18419876
0.18420203
0.1842053
0.18420854
0.18421173
0.18421485
0.18421789
0.18422084
0.18422368
0.18422646
0.18422918
0.18423187
0.18423453
0.18423707
0.18423943
0.18424155
0.1842434
0.184245
0.18424641
0.18424765
0.18424864
0.18424933
0.18424974
0.18424987
0.18424972
0.18424927
0.18424854
0.18424756
0.18424632
0.18424485
0.18424317
0.18424129
0.18423915
0.18423673
0.18423431
0.18423258
0.18423233
0.18423267
0.18422666
0.18419594
0.18410972
0.18393835
0.18369504
0.18351698
0.18380442
0.18553825
0.19132501
0.20927446
0.26234756
0.4191549
0.9082916
2.9076593
13.854205
0.18722047
0.18722032
0.18722217
0.18722504
0.18722808
0.18723124
0.18723451
0.18723782
0.18724111
0.18724437
0.18724757
0.18725069
0.18725372
0.18725666
0.18725951
0.18726228
0.18726501
0.18726772
0.18727038
0.18727293
0.18727528
0.1872774
0.18727924
0.18728084
0.18728227
0.18728351
0.18728448
0.18728516
0.18728557
0.18728571
0.18728556
0.18728512
0.1872844
0.18728342
0.1872822
0.18728075
0.18727911
0.18727727
0.18727517
0.18727278
0.18727029
0.18726832
0.18726778
0.18726838
0.18726481
0.18724087
0.18716658
0.1870076
0.18676181
0.18653844
0.18669805
0.18813455
0.19312362
0.20906989
0.25724697
0.40251159
0.86330824
2.756272
13.063579
0.19061067
0.1906109
0.19061322
0.19061609
0.1906192
0.19062241
0.19062572
0.19062905
0.19063236
0.19063562
0.19063881
0.19064192
0.19064493
0.19064785
0.19065068
0.19065344
0.19065616
0.19065888
0.19066155
0.19066409
0.19066643
0.19066852
0.19067035
0.19067196
0.19067338
0.19067461
0.19067557
0.19067624
0.19067665
0.19067679
0.19067665
0.19067621
0.19067551
0.19067455
0.19067335
0.19067193
0.19067034
0.19066855
0.19066651
0.19066415
0.19066161
0.19065942
0.19065854
0.1906593
0.19065801
0.19064092
0.19057952
0.19043576
0.19019264
0.18992873
0.18995798
0.19109246
0.19531609
0.20930687
0.25254633
0.38611405
0.81840994
2.6058025
12.283403
0.19441124
0.194412
0.19441463
0.19441753
0.19442068
0.19442393
0.19442726
0.1944306
0.1944339
0.19443714
0.1944403
0.19444338
0.19444636
0.19444924
0.19445203
0.19445476
0.19445747
0.19446019
0.19446284
0.19446536
0.19446767
0.19446973
0.19447154
0.19447313
0.19447454
0.19447575
0.19447669
0.19447735
0.19447775
0.19447789
0.19447776
0.19447734
0.19447664
0.1944757
0.19447453
0.19447316
0.19447161
0.1944699
0.19446794
0.19446565
0.19446309
0.19446072
0.19445946
0.19446008
0.19446045
0.19444947
0.19440101
0.19427496
0.1940411
0.19374677
0.19365414
0.19449909
0.19803417
0.21013266
0.24860434
0.37055188
0.77435511
2.4574743
11.516827
0.1986885
0.19868978
0.19869257
0.1986955
0.19869868
0.19870196
0.19870529
0.19870861
0.19871188
0.19871507
0.19871818
0.19872119
0.19872411
0.19872692
0.19872964
0.19873233
0.19873501
0.19873769
0.19874032
0.19874279
0.19874504
0.19874706
0.19874883
0.19875039
0.19875178
0.19875295
0.19875386
0.19875449
0.19875488
0.19875503
0.19875491
0.1987545
0.19875383
0.19875291
0.19875178
0.19875045
0.19874897
0.19874735
0.19874551
0.19874331
0.19874079
0.19873829
0.19873666
0.19873693
0.1987384
0.19873273
0.19869695
0.19859065
0.19837246
0.1980593
0.19785624
0.19841628
0.20146373
0.21160335
0.24547546
0.3559134
0.73132905
2.3118985
10.766849
0.20352335
0.20352505
0.20352788
0.20353084
0.20353402
0.20353729
0.2035406
0.20354386
0.20354705
0.20355016
0.20355318
0.20355609
0.20355889
0.2035616
0.20356423
0.20356683
0.20356944
0.20357208
0.20357464
0.20357703
0.2035792
0.20358115
0.20358286
0.20358437
0.20358571
0.20358683
0.20358768
0.20358829
0.20358866
0.20358881
0.2035887
0.20358831
0.20358767
0.20358679
0.2035857
0.20358444
0.20358304
0.20358154
0.20357984
0.20357779
0.20357536
0.20357281
0.20357084
0.20357062
0.20357257
0.20357118
0.2035473
0.20346214
0.20326587
0.20294708
0.20265598
0.20295018
0.2053348
0.21383982
0.24329957
0.3424128
0.6896353
2.1697877
10.036301
0.20901557
0.20901748
0.20902028
0.20902324
0.20902639
0.20902961
0.20903284
0.209036
0.20903906
0.20904203
0.20904489
0.20904764
0.20905028
0.20905282
0.2090553
0.20905777
0.20906027
0.2090628
0.20906525
0.20906752
0.20906956
0.2090714
0.20907302
0.20907445
0.20907571
0.20907675
0.20907754
0.2090781
0.20907845
0.2090786
0.2090785
0.20907815
0.20907754
0.20907671
0.2090757
0.20907452
0.20907323
0.20907187
0.20907036
0.20906852
0.20906626
0.20906374
0.20906151
0.20906077
0.20906262
0.20906434
0.20905105
0.20898753
0.20881894
0.20850756
0.20814538
0.20819836
0.20999537
0.21692287
0.24221043
0.33025356
0.64957842
2.0319578
9.3278067
0.21528944
0.21529141
0.21529415
0.21529707
0.21530013
0.21530325
0.21530633
0.2153093
0.21531216
0.21531491
0.21531754
0.21532004
0.21532244
0.21532474
0.215327
0.21532927
0.21533159
0.21533395
0.21533621
0.21533828
0.21534015
0.21534182
0.21534329
0.21534461
0.21534575
0.21534667
0.21534736
0.21534786
0.21534818
0.21534832
0.21534825
0.21534794
0.21534739
0.21534664
0.21534571
0.21534466
0.21534351
0.21534235
0.21534109
0.21533953
0.21533753
0.21533518
0.21533286
0.21533158
0.21533288
0.21533649
0.21533192
0.21528938
0.21515309
0.21486394
0.21445443
0.21428321
0.21552113
0.22107986
0.24235807
0.3196576
0.61147148
1.8994417
8.6437332
0.22250206
0.22250394
0.22250659
0.22250938
0.22251228
0.2225152
0.22251803
0.22252071
0.22252326
0.22252568
0.22252796
0.2225301
0.22253214
0.22253409
0.22253603
0.222538
0.22254005
0.22254213
0.22254409
0.22254587
0.22254746
0.22254889
0.22255016
0.22255129
0.22255226
0.22255301
0.22255357
0.22255398
0.22255426
0.22255439
0.22255435
0.22255409
0.22255362
0.22255298
0.22255219
0.2225513
0.22255037
0.22254946
0.22254853
0.22254736
0.22254574
0.2225437
0.22254149
0.22253986
0.22254028
0.22254462
0.22254654
0.22252301
0.22242156
0.22216834
0.22174139
0.22138096
0.22208388
0.22684088
0.24390849
0.3108634
0.57561672
1.7736625
7.986167
0.2308534
0.23085524
0.23085773
0.23086031
0.23086297
0.23086557
0.23086802
0.23087028
0.23087238
0.23087431
0.23087609
0.23087771
0.23087924
0.2308807
0.23088218
0.23088372
0.23088536
0.23088701
0.23088854
0.23088988
0.23089109
0.23089219
0.23089316
0.23089402
0.23089472
0.23089523
0.2308956
0.23089589
0.23089611
0.23089622
0.23089623
0.23089605
0.2308957
0.23089522
0.23089464
0.23089399
0.23089335
0.23089279
0.23089231
0.23089166
0.23089057
0.23088901
0.23088715
0.23088545
0.23088509
0.23088907
0.23089502
0.2308873
0.23082085
0.23061469
0.23020165
0.22971633
0.22994599
0.23338366
0.24711451
0.30413469
0.54226442
1.6566992
7.3568878
0.24059869
0.24060061
0.24060284
0.24060511
0.24060743
0.24060961
0.24061153
0.24061321
0.24061469
0.24061597
0.24061706
0.240618
0.24061884
0.24061963
0.24062047
0.24062144
0.24062253
0.2406236
0.24062449
0.24062526
0.24062595
0.24062658
0.24062715
0.24062763
0.24062797
0.24062814
0.24062826
0.2406284
0.24062854
0.24062862
0.24062871
0.24062863
0.24062846
0.24062821
0.24062792
0.24062761
0.24062738
0.2406273
0.24062744
0.2406275
0.24062708
0.24062616
0.24062497
0.24062358
0.24062279
0.24062566
0.24063329
0.24063706
0.24060296
0.24045197
0.2400796
0.23951051
0.23934047
0.24167263
0.25216462
0.29977304
0.51153317
1.551474
6.7573386
0.25205145
0.25205346
0.25205536
0.25205733
0.25205932
0.25206102
0.25206236
0.25206342
0.25206422
0.25206477
0.2520651
0.25206526
0.25206533
0.25206538
0.25206551
0.25206584
0.2520663
0.25206667
0.25206682
0.2520669
0.25206702
0.25206714
0.25206723
0.25206727
0.25206716
0.25206694
0.25206678
0.25206677
0.25206683
0.25206693
0.25206711
0.25206719
0.25206727
0.25206734
0.25206745
0.25206761
0.25206794
0.25206848
0.25206932
0.25207021
0.25207059
0.25207047
0.25207025
0.25206969
0.25206895
0.25207032
0.25207769
0.25208797
0.2520802
0.25198749
0.25168531
0.2510891
0.25056081
0.25187483
0.25966353
0.29813566
0.48315271
1.4605465
6.1886077
17.032567
19.708091
22.774089
26.280537
30.282148
34.838454
40.013799
45.877218
52.50219
59.96621
68.3502
77.73771
88.2139
99.864325
112.7735
127.0232
142.69072
159.84684
178.55374
198.86292
220.81314
244.42855
269.71681
296.66769
325.2521
355.42129
387.10676
420.22023
454.65554
490.28936
526.98228
564.58364
602.92906
641.84651
681.16142
720.69776
760.27733
799.72536
838.87247
877.56174
915.64642
952.9923
989.48
1025
1059.4614
1092.7885
1124.9198
1155.8066
1185.4142
1213.7217
1240.718
1266.4044
1290.7908
1313.8957
1335.7437
1356.3652
1375.7975
1394.0795
1411.2534
1427.3643
1442.4587
1456.5839
1469.7863
1482.1138
1493.6132
1504.3308
1514.311
1523.5975
1532.2323
1540.2558
1547.7067
1554.6213
1561.0357
1566.9829
3.6945516
4.3524328
5.0488469
5.79959
6.625245
7.5443865
8.573344
9.7270424
11.019767
12.465637
14.078844
15.873613
17.864189
20.064481
22.487947
25.146959
28.052794
31.214759
34.640151
38.333352
42.295921
46.525953
51.017394
55.761191
60.744733
65.951074
71.363348
76.958905
82.71295
88.596137
94.6176
100.7759
106.98014
113.22035
119.46658
125.71753
132.08129
138.53377
144.93056
151.20763
157.3862
163.48124
169.4638
175.20039
180.72308
186.0477
191.34605
196.56351
201.64428
206.55613
211.28211
215.81211
220.14218
224.31256
228.23498
231.90566
235.34736
238.57508
241.60477
244.43762
247.08061
249.55759
251.87708
254.04584
256.0705
257.95877
259.71724
261.35397
262.87512
264.28858
265.60014
266.81749
267.93866
269.05123
1.1023663
1.2694735
1.4679609
1.6965743
1.9564069
2.2496087
2.5790805
2.9483387
3.3614048
3.8226914
4.3368845
4.9088143
5.5433471
6.24523
7.0189843
7.8687031
8.7979624
9.8095535
10.905382
12.086159
13.351332
14.698792
16.124731
17.623697
19.188651
20.810754
22.480627
24.187305
25.919184
27.664274
29.41689
31.173574
32.918619
34.643684
36.342294
38.011746
39.665075
41.309711
42.936644
44.535875
46.104312
47.644971
49.152889
50.62133
52.050218
53.441722
54.803379
56.131639
57.423781
58.677429
59.88995
61.059202
62.183853
63.248351
64.241445
65.167745
66.03374
66.843294
67.601318
68.309127
68.979584
69.614207
70.213505
70.77824
71.309389
71.808063
72.275497
72.712985
73.121877
73.503561
73.85937
74.190958
74.498339
74.790195
0.49359118
0.55883036
0.63748279
0.72990448
0.83715904
0.96044264
1.1010165
1.260243
1.4396282
1.64084
1.8657049
2.1161772
2.3943003
2.7021376
3.0417128
3.4149078
3.8234004
4.2685332
4.7512407
5.2718921
5.830235
6.4252161
7.0549098
7.7164742
8.4061658
9.11919
9.850308
10.593364
11.341779
12.088874
12.829069
13.558809
14.272635
14.965939
15.635146
16.277785
16.895575
17.491014
18.064213
18.614768
19.142811
19.650228
20.136686
20.602316
21.049424
21.479828
21.895101
22.294228
22.677006
23.043842
23.395096
23.731252
24.052287
24.357901
24.648252
24.923785
25.184857
25.431669
25.664479
25.883767
26.090237
26.284279
26.466344
26.636996
26.796803
26.946325
27.086102
27.216661
27.338501
27.452122
27.557968
27.656607
27.747974
27.834552
0.28975469
0.31732251
0.35193499
0.39401072
0.44432208
0.50370681
0.57297507
0.65289132
0.74419396
0.84762864
0.96397774
1.0940753
1.238811
1.3991129
1.5759217
1.770143
1.9826084
2.2140001
2.4648064
2.7352252
3.0251291
3.3339556
3.6606622
4.0036749
4.3609108
4.7296613
5.1069431
5.4892225
5.8726925
6.2535915
6.6283811
6.9943963
7.3487789
7.6892039
8.0138791
8.3215007
8.6122392
8.8867217
9.1451291
9.3877841
9.615288
9.8287886
10.028839
10.215933
10.392108
10.558822
10.716997
10.866664
11.007979
11.1413
11.266996
11.385481
11.497062
11.601906
11.700369
11.792976
11.880141
11.962151
12.039222
12.111604
12.179575
12.243314
12.302979
12.358777
12.410926
12.45964
12.505126
12.547586
12.587209
12.624178
12.65866
12.690844
12.720783
12.74903
0.21708381
0.22893321
0.24484604
0.2652103
0.29057302
0.32153424
0.35869649
0.40262891
0.45384696
0.51281345
0.57995054
0.65565704
0.74032489
0.83434669
0.93811583
1.0520112
1.1763809
1.311503
1.4575573
1.6145699
1.7823862
1.9606107
2.1485667
2.3452723
2.5494471
2.7594369
2.9734445
3.189341
3.4048369
3.6177399
3.8259818
4.0279485
4.2219762
4.4067909
4.5815091
4.7455748
4.8992187
5.0428938
5.1767933
5.3011869
5.4165196
5.5235323
5.6226522
5.714321
5.7993072
5.8785118
5.9526234
6.0218543
6.0864259
6.146638
6.2027834
6.2551527
6.3039876
6.3494559
6.3917903
6.43128
6.4681684
6.5026491
6.5348779
6.5650097
6.5931983
6.6195553
6.6441773
6.6671727
6.6886476
6.7087046
6.7274409
6.7449487
6.7613143
6.7766182
6.7909374
6.8043394
6.8169029
6.8286359
0.19015965
0.19446149
0.20132539
0.21103062
0.22393956
0.24046136
0.26103077
0.28608416
0.31603326
0.3512456
0.3920342
0.43865739
0.49132615
0.55021193
0.61545645
0.6871714
0.76543904
0.85029457
0.94171567
1.0395907
1.1437037
1.2536948
1.3690452
1.4890492
1.6128306
1.7392911
1.8672672
1.9954012
2.1222554
2.2465027
2.3669118
2.4825432
2.5924811
2.6960601
2.7928772
2.8827521
2.9659502
3.0428825
3.1138284
3.1790866
3.2390276
3.2941594
3.3448183
3.3913356
3.4341732
3.4738489
3.5107651
3.5450771
3.5769314
3.6065127
3.6339977
3.6595547
3.6833231
3.7054028
3.7259189
3.7450214
3.7628467
3.7795005
3.7950662
3.8096213
3.8232405
3.8359819
3.8478953
3.8590328
3.8694453
3.8791844
3.8882968
3.8968282
3.9048206
3.912313
3.9193453
3.9259379
3.9321797
3.9378708
0.180308
0.1807955
0.18291995
0.18691991
0.19304988
0.20158566
0.21282546
0.22708316
0.24467378
0.26589512
0.29101022
0.32023464
0.3537308
0.3916066
0.43392002
0.48068177
0.53186074
0.58737973
0.64711354
0.7108755
0.77841128
0.84937793
0.92333259
0.99972512
1.0779052
1.1570921
1.2364874
1.3151848
1.3922507
1.466863
1.5382792
1.6059574
1.6694202
1.728363
1.7826568
1.8323185
1.8776103
1.9188815
1.9564154
1.9904954
2.0214279
2.0495712
2.0751864
2.0985136
2.1198433
2.1394803
2.157661
2.1744949
2.1900762
2.2045114
2.2178994
2.2303308
2.2418796
2.2526023
2.2625645
2.2718432
2.2805052
2.2886038
2.2961815
2.3032752
2.3099199
2.3161442
2.3219723
2.3274289
2.3325388
2.3373266
2.3418143
2.3460237
2.3499747
2.3536851
2.3571765
2.360448
2.3635838
2.3663205
0.1769701
0.1755891
0.17524457
0.1761113
0.17839527
0.18230248
0.18804392
0.19583898
0.20591353
0.21849183
0.23378448
0.25197502
0.27320878
0.29758444
0.32515071
0.35590473
0.38979509
0.42672061
0.46653311
0.50903198
0.55396441
0.60101615
0.649809
0.69989572
0.75077293
0.8018623
0.85259391
0.90233571
0.95047617
0.99649501
1.0399448
1.0805243
1.1180061
1.152287
1.1833826
1.211403
1.2365916
1.2592369
1.279586
1.2978734
1.3143322
1.3292067
1.3426804
1.3549133
1.366081
1.3763597
1.3858783
1.3947313
1.4029705
1.4106458
1.4178024
1.4244807
1.4307136
1.4365266
1.4419497
1.4470174
1.4517611
1.4562035
1.4603627
1.4642579
1.4679073
1.4713261
1.4745275
1.4775248
1.4803312
1.4829598
1.4854226
1.4877312
1.4898965
1.491928
1.493839
1.4956234
1.4973499
1.4987851
0.17602034
0.17386267
0.1721561
0.17143601
0.17158151
0.17279038
0.17523504
0.17907964
0.18448638
0.19161627
0.20062528
0.21165707
0.22483411
0.24024857
0.25795529
0.27796622
0.30024876
0.32472365
0.35126588
0.3797033
0.40981765
0.44134387
0.47396775
0.50733041
0.54103884
0.57465288
0.60776332
0.63989439
0.67066762
0.69974245
0.72684873
0.75182855
0.77459404
0.79514679
0.8135691
0.83000197
0.84465791
0.85776762
0.8695284
0.88011719
0.88969719
0.89842717
0.90641641
0.91378507
0.92064195
0.92707275
0.93313983
0.93883917
0.94418458
0.9491992
0.95390573
0.95832406
0.96247018
0.96635691
0.96999973
0.97341732
0.97662657
0.97964082
0.98247114
0.98512757
0.98761974
0.98995617
0.99214489
0.99419396
0.99611161
0.997906
0.99958498
1.001156
1.0026265
1.0040025
1.0052934
1.0064932
1.0076571
1.0085917
0.17593646
0.17343811
0.17133237
0.16968548
0.16864013
0.16830652
0.16879742
0.17023291
0.17273234
0.17641209
0.18138402
0.18775296
0.19561234
0.20503839
0.2160841
0.2287731
0.24309567
0.25900453
0.27641382
0.29519698
0.31518749
0.33617906
0.35792739
0.38015272
0.40255357
0.42479611
0.44658493
0.46755865
0.48747766
0.5061218
0.52333159
0.53903383
0.55321539
0.56592761
0.57727564
0.58739938
0.59647461
0.60467922
0.61216028
0.61904243
0.62542451
0.63142491
0.63711662
0.64251581
0.6476488
0.65255303
0.65725314
0.66175211
0.66604841
0.67014407
0.67404209
0.67774537
0.68125636
0.68457767
0.68771461
0.69067527
0.69346762
0.69609861
0.69857448
0.70090152
0.70308617
0.70513468
0.7070533
0.70884842
0.71052663
0.71209453
0.71355858
0.71492505
0.71620015
0.7173892
0.71850015
0.7195287
0.72051877
0.72131924
0.17612204
0.17349945
0.17119809
0.16920285
0.16758395
0.16639544
0.16578118
0.16578593
0.16650312
0.16801961
0.1704166
0.17376902
0.178144
0.18359827
0.19017473
0.19789823
0.2067717
0.21677216
0.22784772
0.23991518
0.25285911
0.26653187
0.28075436
0.2953203
0.31000554
0.32456541
0.33878085
0.35240427
0.36526308
0.37721869
0.38818379
0.39813707
0.4071055
0.41516162
0.42241257
0.42898374
0.43501511
0.44063943
0.44595864
0.45105732
0.45601546
0.46085148
0.4655758
0.47019402
0.47471251
0.47913624
0.48346139
0.48767232
0.49175226
0.49568893
0.49947316
0.50309802
0.50655811
0.50985018
0.51297404
0.51593228
0.51872858
0.52136699
0.52385181
0.52618789
0.52838055
0.53043536
0.53235819
0.53415517
0.53583263
0.53739695
0.53885453
0.54021159
0.54147432
0.54264825
0.5437407
0.54475023
0.54571034
0.54650923
0.17633054
0.17369853
0.17132929
0.16921136
0.16735536
0.1657914
0.16457266
0.16376469
0.16342908
0.16362689
0.16441643
0.16585157
0.16798009
0.17084234
0.17446962
0.17888196
0.18408575
0.19007061
0.19680698
0.20424317
0.21230409
0.22088977
0.22987693
0.23912045
0.24846089
0.25772664
0.26676041
0.2753969
0.28352221
0.29105279
0.29794794
0.30421828
0.30991252
0.31511087
0.31991431
0.32443028
0.32876855
0.33302095
0.33726915
0.34155585
0.34588754
0.35026874
0.3546893
0.35912936
0.36356881
0.36798786
0.37236298
0.37666558
0.38086858
0.38495043
0.38889421
0.39268675
0.3963182
0.399782
0.40307501
0.40619702
0.40914967
0.41193572
0.41455883
0.41702351
0.41933503
0.42149914
0.42352206
0.42541031
0.4271706
0.42880973
0.43033447
0.43175146
0.43306727
0.43428788
0.43542056
0.43646603
0.43745065
0.43829372
0.17647606
0.17388552
0.17152392
0.16938077
0.16744834
0.16573208
0.1642463
0.16302589
0.16211243
0.16154781
0.16137639
0.16163355
0.16235398
0.16356697
0.16529502
0.16755287
0.17034624
0.17367017
0.17750717
0.18182514
0.18657621
0.19169491
0.19709864
0.20268997
0.20836029
0.21399422
0.21948586
0.22472841
0.22965658
0.23422885
0.23843853
0.24231839
0.24593009
0.249356
0.25268865
0.25601984
0.25942976
0.26299835
0.26675837
0.27071493
0.2748604
0.27917503
0.28362585
0.2881729
0.2927768
0.29740029
0.30200612
0.30655661
0.31101774
0.31536181
0.319567
0.3236164
0.32749752
0.33120195
0.33472503
0.33806522
0.34122328
0.34420161
0.34700389
0.34963493
0.35210036
0.3544065
0.35656011
0.35856828
0.36043829
0.3621775
0.36379321
0.36529261
0.36668275
0.36797025
0.36916245
0.37026215
0.37128973
0.37219113
0.17655135
0.17401061
0.17168976
0.16956878
0.16763351
0.16587696
0.16429695
0.16290226
0.16171023
0.16075355
0.16001177
0.15960559
0.15949508
0.15970516
0.16025575
0.16115915
0.16242072
0.16403819
0.16600091
0.16828835
0.17086973
0.17370184
0.17673043
0.17989115
0.18311248
0.18632025
0.18944834
0.19243204
0.19524404
0.19787459
0.20034258
0.20269737
0.20500965
0.2073622
0.20984102
0.21252122
0.21547668
0.21874611
0.22233962
0.22624735
0.23044186
0.2348833
0.23952144
0.24430134