/*--------------------------------*- C++ -*----------------------------------*\
| =========                 |                                                 |
| \\      /  F ield         | OpenFOAM: The Open Source CFD Toolbox           |
|  \\    /   O peration     | Version:  v2006                                 |
|   \\  /    A nd           | Website:  www.openfoam.com                      |
|    \\/     M anipulation  |                                                 |
\*---------------------------------------------------------------------------*/
FoamFile
{
    version     2.0;
    format      ascii;
    class       volScalarField;
    location    "6000";
    object      p;
}
// * * * * * * * * * * * * * * * * * * * * * * * * * * * * * * * * * * * * * //

dimensions      [1 -1 -2 0 0 0 0];


internalField   nonuniform List<scalar> 
55713
(
1.00003
1.00003
1.00003
1.00003
1.00003
1.00003
1.00003
1.00003
1.00003
1.00003
1.00003
1.00003
1.00003
1.00003
1.00003
1.00003
1.00003
1.00003
1.00003
1.00003
1.00003
1.00003
1.00003
1.00003
1.00003
1.00003
1.00003
1.00003
1.00003
1.00003
1.00003
1.00003
1.00003
1.00003
1.00003
1.00003
1.00003
1.00003
1.00003
1.00003
1.00003
1.00003
1.00003
1.00003
1.00003
1.00003
1.00003
1.00003
1.00003
1.00003
1.00003
1.00003
1.00003
1.00003
1.00003
1.00003
1.00003
1.00003
1.00003
1.000028
1.000028
1.000028
1.000028
1.000028
1.000028
1.000028
1.000028
1.000028
1.000028
1.000028
1.000028
1.0000281
1.0000281
1.0000281
1.0000281
1.0000281
1.0000281
1.0000281
1.0000281
1.0000281
1.0000281
1.0000281
1.0000281
1.0000281
1.0000281
1.0000281
1.0000281
1.0000281
1.0000281
1.0000281
1.0000281
1.0000281
1.0000281
1.0000281
1.0000281
1.0000281
1.0000281
1.0000281
1.0000281
1.0000281
1.0000281
1.0000281
1.0000281
1.0000281
1.0000281
1.0000281
1.0000281
1.0000281
1.0000281
1.0000281
1.0000281
1.0000281
1.0000281
1.0000281
1.0000281
1.0000281
1.0000281
1.0000281
1.0000263
1.0000263
1.0000263
1.0000263
1.0000263
1.0000264
1.0000264
1.0000264
1.0000264
1.0000264
1.0000264
1.0000264
1.0000264
1.0000264
1.0000264
1.0000264
1.0000264
1.0000264
1.0000264
1.0000264
1.0000264
1.0000264
1.0000264
1.0000264
1.0000264
1.0000264
1.0000264
1.0000264
1.0000264
1.0000264
1.0000264
1.0000264
1.0000264
1.0000264
1.0000264
1.0000264
1.0000264
1.0000264
1.0000264
1.0000264
1.0000264
1.0000264
1.0000264
1.0000264
1.0000264
1.0000264
1.0000264
1.0000264
1.0000264
1.0000264
1.0000264
1.0000264
1.0000264
1.0000264
1.0000264
1.0000264
1.0000264
1.0000264
1.0000264
1.0000249
1.0000249
1.0000249
1.0000249
1.0000249
1.0000249
1.0000249
1.0000249
1.0000249
1.0000249
1.0000249
1.0000249
1.0000249
1.0000249
1.0000249
1.0000249
1.0000249
1.0000249
1.0000249
1.0000249
1.0000249
1.0000249
1.0000249
1.0000249
1.0000249
1.0000249
1.0000249
1.0000249
1.0000249
1.0000249
1.0000249
1.0000249
1.0000249
1.0000249
1.0000249
1.0000249
1.0000249
1.0000249
1.0000249
1.0000249
1.0000249
1.0000249
1.0000249
1.0000249
1.0000249
1.0000249
1.0000249
1.0000249
1.0000249
1.0000249
1.0000249
1.0000249
1.0000249
1.0000249
1.0000249
1.0000249
1.0000249
1.0000249
1.0000249
1.0000236
1.0000236
1.0000236
1.0000236
1.0000236
1.0000236
1.0000236
1.0000236
1.0000236
1.0000236
1.0000236
1.0000236
1.0000236
1.0000236
1.0000236
1.0000236
1.0000236
1.0000236
1.0000236
1.0000236
1.0000236
1.0000236
1.0000236
1.0000236
1.0000236
1.0000236
1.0000236
1.0000236
1.0000236
1.0000236
1.0000236
1.0000237
1.0000237
1.0000237
1.0000237
1.0000237
1.0000237
1.0000237
1.0000237
1.0000237
1.0000237
1.0000237
1.0000237
1.0000237
1.0000237
1.0000237
1.0000237
1.0000237
1.0000237
1.0000237
1.0000237
1.0000237
1.0000237
1.0000237
1.0000237
1.0000237
1.0000237
1.0000237
1.0000237
1.0000225
1.0000225
1.0000225
1.0000225
1.0000225
1.0000225
1.0000225
1.0000225
1.0000225
1.0000225
1.0000225
1.0000225
1.0000225
1.0000225
1.0000225
1.0000225
1.0000225
1.0000225
1.0000226
1.0000226
1.0000226
1.0000226
1.0000226
1.0000226
1.0000226
1.0000226
1.0000226
1.0000226
1.0000226
1.0000226
1.0000226
1.0000226
1.0000226
1.0000226
1.0000226
1.0000226
1.0000226
1.0000226
1.0000226
1.0000226
1.0000226
1.0000226
1.0000226
1.0000226
1.0000226
1.0000226
1.0000226
1.0000226
1.0000226
1.0000226
1.0000226
1.0000226
1.0000226
1.0000226
1.0000226
1.0000226
1.0000226
1.0000226
1.0000226
1.0000215
1.0000215
1.0000215
1.0000215
1.0000215
1.0000216
1.0000216
1.0000216
1.0000216
1.0000216
1.0000216
1.0000216
1.0000216
1.0000216
1.0000216
1.0000216
1.0000216
1.0000216
1.0000216
1.0000216
1.0000216
1.0000216
1.0000216
1.0000216
1.0000216
1.0000216
1.0000216
1.0000216
1.0000216
1.0000216
1.0000216
1.0000216
1.0000216
1.0000216
1.0000216
1.0000216
1.0000216
1.0000216
1.0000216
1.0000216
1.0000216
1.0000216
1.0000216
1.0000216
1.0000216
1.0000216
1.0000216
1.0000216
1.0000216
1.0000216
1.0000216
1.0000216
1.0000216
1.0000216
1.0000216
1.0000216
1.0000216
1.0000216
1.0000216
1.0000207
1.0000207
1.0000207
1.0000207
1.0000207
1.0000207
1.0000207
1.0000207
1.0000207
1.0000207
1.0000207
1.0000207
1.0000207
1.0000207
1.0000207
1.0000207
1.0000207
1.0000207
1.0000207
1.0000207
1.0000207
1.0000207
1.0000207
1.0000207
1.0000207
1.0000207
1.0000207
1.0000207
1.0000207
1.0000207
1.0000207
1.0000207
1.0000207
1.0000207
1.0000207
1.0000207
1.0000207
1.0000207
1.0000207
1.0000207
1.0000207
1.0000207
1.0000207
1.0000207
1.0000207
1.0000207
1.0000207
1.0000207
1.0000207
1.0000207
1.0000207
1.0000207
1.0000207
1.0000207
1.0000207
1.0000207
1.0000207
1.0000207
1.0000207
1.0000202
1.0000202
1.0000202
1.0000202
1.0000202
1.0000202
1.0000202
1.0000202
1.0000202
1.0000202
1.0000202
1.0000202
1.0000202
1.0000202
1.0000202
1.0000202
1.0000202
1.0000202
1.0000202
1.0000202
1.0000202
1.0000202
1.0000202
1.0000202
1.0000202
1.0000202
1.0000202
1.0000202
1.0000202
1.0000202
1.0000202
1.0000202
1.0000202
1.0000202
1.0000202
1.0000202
1.0000202
1.0000202
1.0000202
1.0000202
1.0000202
1.0000202
1.0000202
1.0000202
1.0000203
1.0000203
1.0000203
1.0000203
1.0000203
1.0000203
1.0000203
1.0000203
1.0000203
1.0000203
1.0000203
1.0000203
1.0000203
1.0000203
1.0000203
1.0000198
1.0000199
1.0000199
1.0000199
1.0000199
1.0000199
1.0000199
1.0000199
1.0000199
1.0000199
1.0000199
1.0000199
1.0000199
1.0000199
1.0000199
1.0000199
1.0000199
1.0000199
1.0000199
1.0000199
1.0000199
1.0000199
1.0000199
1.0000199
1.0000199
1.0000199
1.0000199
1.0000199
1.0000199
1.0000199
1.0000199
1.0000199
1.0000199
1.0000199
1.0000199
1.0000199
1.0000199
1.0000199
1.0000199
1.0000199
1.0000199
1.0000199
1.0000199
1.0000199
1.0000199
1.0000199
1.0000199
1.0000199
1.0000199
1.0000199
1.0000199
1.0000199
1.0000199
1.0000199
1.0000199
1.0000199
1.0000199
1.0000199
1.0000199
1.000018
1.000018
1.000018
1.000018
1.0000181
1.0000181
1.0000181
1.0000181
1.0000181
1.0000181
1.0000181
1.0000181
1.0000181
1.0000181
1.0000181
1.0000181
1.0000181
1.0000181
1.0000181
1.0000181
1.0000181
1.0000181
1.0000181
1.0000181
1.0000181
1.0000181
1.0000181
1.0000181
1.0000181
1.0000181
1.0000181
1.0000181
1.0000181
1.0000181
1.0000181
1.0000181
1.0000181
1.0000181
1.0000181
1.0000181
1.0000181
1.0000181
1.0000181
1.0000181
1.0000181
1.0000181
1.0000181
1.0000181
1.0000181
1.0000181
1.0000181
1.0000181
1.0000181
1.0000181
1.0000181
1.0000181
1.0000181
1.0000181
1.0000181
1.000018
1.0000179
1.0000179
1.0000179
1.0000179
1.0000179
1.0000179
1.0000179
1.0000179
1.0000179
1.0000179
1.0000179
1.0000179
1.0000179
1.0000179
1.0000179
1.0000178
1.0000178
1.0000178
1.0000178
1.0000178
1.0000178
1.0000178
1.0000178
1.0000178
1.0000178
1.0000178
1.0000178
1.0000178
1.0000178
1.0000178
1.0000178
1.0000178
1.0000178
1.0000178
1.0000178
1.0000178
1.0000178
1.0000178
1.0000178
1.0000178
1.0000178
1.0000178
1.0000178
1.0000178
1.0000178
1.0000178
1.0000178
1.0000177
1.0000177
1.0000177
1.0000177
1.0000177
1.0000177
1.0000177
1.0000177
1.0000177
1.0000177
1.0000177
1.0000271
1.0000271
1.0000271
1.0000271
1.0000271
1.0000271
1.0000271
1.0000271
1.0000271
1.0000271
1.0000271
1.0000271
1.0000271
1.0000271
1.000027
1.000027
1.000027
1.000027
1.000027
1.000027
1.000027
1.000027
1.000027
1.000027
1.000027
1.000027
1.000027
1.000027
1.000027
1.000027
1.000027
1.000027
1.000027
1.000027
1.000027
1.000027
1.000027
1.000027
1.000027
1.000027
1.000027
1.000027
1.000027
1.000027
1.000027
1.000027
1.000027
1.000027
1.000027
1.000027
1.000027
1.000027
1.000027
1.000027
1.000027
1.0000271
1.0000271
1.0000271
1.0000271
1.0000172
1.0000172
1.0000172
1.0000172
1.0000172
1.0000173
1.0000173
1.0000173
1.0000173
1.0000173
1.0000173
1.0000173
1.0000173
1.0000173
1.0000173
1.0000173
1.0000173
1.0000173
1.0000173
1.0000173
1.0000173
1.0000173
1.0000173
1.0000173
1.0000173
1.0000173
1.0000173
1.0000173
1.0000173
1.0000173
1.0000173
1.0000173
1.0000173
1.0000173
1.0000173
1.0000173
1.0000173
1.0000173
1.0000173
1.0000173
1.0000173
1.0000173
1.0000173
1.0000173
1.0000173
1.0000173
1.0000173
1.0000173
1.0000173
1.0000173
1.0000173
1.0000173
1.0000173
1.0000173
1.0000173
1.0000173
1.0000173
1.0000173
1.0000173
1.0001126
1.0001126
1.0001126
1.0001127
1.0001127
1.0001128
1.0001128
1.0001128
1.0001129
1.0001129
1.0001129
1.0001129
1.000113
1.000113
1.000113
1.0001131
1.0001131
1.0001131
1.0001132
1.0001132
1.0001132
1.0001132
1.0001133
1.0001133
1.0001133
1.0001133
1.0001134
1.0001134
1.0001134
1.0001134
1.0001134
1.0001135
1.0001135
1.0001135
1.0001135
1.0001135
1.0001135
1.0001136
1.0001136
1.0001136
1.0001136
1.0001136
1.0001136
1.0001136
1.0001136
1.0001136
1.0001136
1.0001137
1.0001137
1.0001137
1.0001137
1.0001137
1.0001137
1.0001137
1.0001137
1.0001137
1.0001137
1.0001137
1.0001137
1.0001032
1.0001033
1.0001033
1.0001033
1.0001034
1.0001034
1.0001034
1.0001034
1.0001035
1.0001035
1.0001035
1.0001036
1.0001036
1.0001036
1.0001036
1.0001036
1.0001037
1.0001037
1.0001037
1.0001037
1.0001038
1.0001038
1.0001038
1.0001038
1.0001038
1.0001039
1.0001039
1.0001039
1.0001039
1.0001039
1.0001039
1.000104
1.000104
1.000104
1.000104
1.000104
1.000104
1.000104
1.0001041
1.0001041
1.0001041
1.0001041
1.0001041
1.0001041
1.0001041
1.0001041
1.0001041
1.0001041
1.0001041
1.0001041
1.0001041
1.0001042
1.0001042
1.0001042
1.0001042
1.0001042
1.0001042
1.0001042
1.0001042
1.0000945
1.0000946
1.0000946
1.0000946
1.0000946
1.0000947
1.0000947
1.0000947
1.0000947
1.0000947
1.0000948
1.0000948
1.0000948
1.0000948
1.0000948
1.0000949
1.0000949
1.0000949
1.0000949
1.0000949
1.000095
1.000095
1.000095
1.000095
1.000095
1.000095
1.0000951
1.0000951
1.0000951
1.0000951
1.0000951
1.0000951
1.0000951
1.0000951
1.0000952
1.0000952
1.0000952
1.0000952
1.0000952
1.0000952
1.0000952
1.0000952
1.0000952
1.0000952
1.0000952
1.0000952
1.0000952
1.0000953
1.0000953
1.0000953
1.0000953
1.0000953
1.0000953
1.0000953
1.0000953
1.0000953
1.0000953
1.0000953
1.0000953
1.0000864
1.0000864
1.0000864
1.0000864
1.0000864
1.0000865
1.0000865
1.0000865
1.0000865
1.0000865
1.0000866
1.0000866
1.0000866
1.0000866
1.0000866
1.0000866
1.0000867
1.0000867
1.0000867
1.0000867
1.0000867
1.0000867
1.0000867
1.0000868
1.0000868
1.0000868
1.0000868
1.0000868
1.0000868
1.0000868
1.0000868
1.0000868
1.0000869
1.0000869
1.0000869
1.0000869
1.0000869
1.0000869
1.0000869
1.0000869
1.0000869
1.0000869
1.0000869
1.0000869
1.0000869
1.0000869
1.000087
1.000087
1.000087
1.000087
1.000087
1.000087
1.000087
1.000087
1.000087
1.000087
1.000087
1.000087
1.000087
1.0000788
1.0000788
1.0000788
1.0000788
1.0000788
1.0000789
1.0000789
1.0000789
1.0000789
1.0000789
1.0000789
1.0000789
1.000079
1.000079
1.000079
1.000079
1.000079
1.000079
1.000079
1.000079
1.0000791
1.0000791
1.0000791
1.0000791
1.0000791
1.0000791
1.0000791
1.0000791
1.0000791
1.0000791
1.0000792
1.0000792
1.0000792
1.0000792
1.0000792
1.0000792
1.0000792
1.0000792
1.0000792
1.0000792
1.0000792
1.0000792
1.0000792
1.0000792
1.0000792
1.0000792
1.0000792
1.0000793
1.0000793
1.0000793
1.0000793
1.0000793
1.0000793
1.0000793
1.0000793
1.0000793
1.0000793
1.0000793
1.0000793
1.0000717
1.0000717
1.0000717
1.0000718
1.0000718
1.0000718
1.0000718
1.0000718
1.0000718
1.0000718
1.0000718
1.0000719
1.0000719
1.0000719
1.0000719
1.0000719
1.0000719
1.0000719
1.0000719
1.0000719
1.0000719
1.000072
1.000072
1.000072
1.000072
1.000072
1.000072
1.000072
1.000072
1.000072
1.000072
1.000072
1.000072
1.000072
1.000072
1.0000721
1.0000721
1.0000721
1.0000721
1.0000721
1.0000721
1.0000721
1.0000721
1.0000721
1.0000721
1.0000721
1.0000721
1.0000721
1.0000721
1.0000721
1.0000721
1.0000721
1.0000721
1.0000721
1.0000721
1.0000721
1.0000721
1.0000721
1.0000721
1.0000652
1.0000652
1.0000652
1.0000652
1.0000652
1.0000652
1.0000653
1.0000653
1.0000653
1.0000653
1.0000653
1.0000653
1.0000653
1.0000653
1.0000653
1.0000653
1.0000653
1.0000653
1.0000654
1.0000654
1.0000654
1.0000654
1.0000654
1.0000654
1.0000654
1.0000654
1.0000654
1.0000654
1.0000654
1.0000654
1.0000654
1.0000654
1.0000654
1.0000654
1.0000655
1.0000655
1.0000655
1.0000655
1.0000655
1.0000655
1.0000655
1.0000655
1.0000655
1.0000655
1.0000655
1.0000655
1.0000655
1.0000655
1.0000655
1.0000655
1.0000655
1.0000655
1.0000655
1.0000655
1.0000655
1.0000655
1.0000655
1.0000655
1.0000655
1.0000592
1.0000592
1.0000592
1.0000592
1.0000592
1.0000592
1.0000592
1.0000592
1.0000592
1.0000592
1.0000592
1.0000593
1.0000593
1.0000593
1.0000593
1.0000593
1.0000593
1.0000593
1.0000593
1.0000593
1.0000593
1.0000593
1.0000593
1.0000593
1.0000593
1.0000593
1.0000593
1.0000593
1.0000593
1.0000594
1.0000594
1.0000594
1.0000594
1.0000594
1.0000594
1.0000594
1.0000594
1.0000594
1.0000594
1.0000594
1.0000594
1.0000594
1.0000594
1.0000594
1.0000594
1.0000594
1.0000594
1.0000594
1.0000594
1.0000594
1.0000594
1.0000594
1.0000594
1.0000594
1.0000594
1.0000594
1.0000594
1.0000594
1.0000594
1.0000536
1.0000536
1.0000536
1.0000536
1.0000536
1.0000537
1.0000537
1.0000537
1.0000537
1.0000537
1.0000537
1.0000537
1.0000537
1.0000537
1.0000537
1.0000537
1.0000537
1.0000537
1.0000537
1.0000537
1.0000537
1.0000537
1.0000537
1.0000537
1.0000538
1.0000538
1.0000538
1.0000538
1.0000538
1.0000538
1.0000538
1.0000538
1.0000538
1.0000538
1.0000538
1.0000538
1.0000538
1.0000538
1.0000538
1.0000538
1.0000538
1.0000538
1.0000538
1.0000538
1.0000538
1.0000538
1.0000538
1.0000538
1.0000538
1.0000538
1.0000538
1.0000538
1.0000538
1.0000538
1.0000538
1.0000538
1.0000538
1.0000538
1.0000538
1.0000485
1.0000485
1.0000485
1.0000486
1.0000486
1.0000486
1.0000486
1.0000486
1.0000486
1.0000486
1.0000486
1.0000486
1.0000486
1.0000486
1.0000486
1.0000486
1.0000486
1.0000486
1.0000486
1.0000486
1.0000486
1.0000486
1.0000486
1.0000486
1.0000486
1.0000486
1.0000487
1.0000487
1.0000487
1.0000487
1.0000487
1.0000487
1.0000487
1.0000487
1.0000487
1.0000487
1.0000487
1.0000487
1.0000487
1.0000487
1.0000487
1.0000487
1.0000487
1.0000487
1.0000487
1.0000487
1.0000487
1.0000487
1.0000487
1.0000487
1.0000487
1.0000487
1.0000487
1.0000487
1.0000487
1.0000487
1.0000487
1.0000487
1.0000487
1.0000439
1.0000439
1.0000439
1.0000439
1.0000439
1.0000439
1.0000439
1.0000439
1.0000439
1.0000439
1.0000439
1.000044
1.000044
1.000044
1.000044
1.000044
1.000044
1.000044
1.000044
1.000044
1.000044
1.000044
1.000044
1.000044
1.000044
1.000044
1.000044
1.000044
1.000044
1.000044
1.000044
1.000044
1.000044
1.000044
1.000044
1.000044
1.000044
1.000044
1.000044
1.000044
1.000044
1.000044
1.000044
1.000044
1.000044
1.000044
1.000044
1.000044
1.000044
1.000044
1.000044
1.000044
1.000044
1.000044
1.000044
1.000044
1.000044
1.000044
1.000044
1.0000397
1.0000397
1.0000397
1.0000397
1.0000397
1.0000397
1.0000397
1.0000397
1.0000397
1.0000397
1.0000397
1.0000397
1.0000397
1.0000397
1.0000397
1.0000397
1.0000397
1.0000397
1.0000397
1.0000397
1.0000397
1.0000397
1.0000397
1.0000397
1.0000397
1.0000398
1.0000398
1.0000398
1.0000398
1.0000398
1.0000398
1.0000398
1.0000398
1.0000398
1.0000398
1.0000398
1.0000398
1.0000398
1.0000398
1.0000398
1.0000398
1.0000398
1.0000398
1.0000398
1.0000398
1.0000398
1.0000398
1.0000398
1.0000398
1.0000398
1.0000398
1.0000398
1.0000398
1.0000398
1.0000398
1.0000398
1.0000398
1.0000398
1.0000398
1.0000359
1.0000359
1.0000359
1.0000359
1.0000359
1.0000359
1.0000359
1.0000359
1.0000359
1.0000359
1.0000359
1.0000359
1.0000359
1.0000359
1.0000359
1.0000359
1.0000359
1.0000359
1.0000359
1.0000359
1.0000359
1.0000359
1.0000359
1.0000359
1.0000359
1.0000359
1.0000359
1.0000359
1.0000359
1.0000359
1.0000359
1.0000359
1.0000359
1.0000359
1.0000359
1.0000359
1.0000359
1.0000359
1.0000359
1.0000359
1.0000359
1.0000359
1.0000359
1.0000359
1.0000359
1.0000359
1.0000359
1.0000359
1.0000359
1.0000359
1.0000359
1.0000359
1.0000359
1.0000359
1.0000359
1.0000359
1.0000359
1.0000359
1.0000359
1.0000325
1.0000325
1.0000325
1.0000325
1.0000325
1.0000325
1.0000325
1.0000325
1.0000325
1.0000325
1.0000325
1.0000325
1.0000325
1.0000325
1.0000325
1.0000325
1.0000325
1.0000325
1.0000325
1.0000325
1.0000325
1.0000325
1.0000325
1.0000325
1.0000325
1.0000325
1.0000325
1.0000326
1.0000326
1.0000326
1.0000326
1.0000326
1.0000326
1.0000326
1.0000326
1.0000326
1.0000326
1.0000326
1.0000326
1.0000326
1.0000326
1.0000326
1.0000326
1.0000326
1.0000326
1.0000326
1.0000326
1.0000326
1.0000326
1.0000326
1.0000326
1.0000326
1.0000326
1.0000326
1.0000326
1.0000326
1.0000326
1.0000326
1.0000326
1.000125
1.0001386
1.000154
1.0001707
1.0001889
1.0002087
1.0002303
1.0002536
1.0002788
1.0003058
1.0003347
1.0003656
1.0003983
1.0004327
1.0004688
1.0005062
1.0005446
1.0005835
1.0006226
1.000661
1.0006979
1.0007325
1.0007637
1.0007903
1.0008111
1.0008249
1.0008304
1.0008268
1.0008128
1.0007876
1.0007513
1.0007036
1.0006444
1.0005745
1.0004949
1.0004066
1.0003109
1.0002088
1.0001016
0.99999109
0.99987856
0.99976515
0.99965173
0.99953977
0.99943014
0.99932301
0.99921849
0.99911727
0.9990203
0.99892758
0.99883912
0.99875502
0.99867521
0.99859984
0.99852913
0.99846264
0.99839992
0.99834103
0.99828587
0.99823429
0.99818593
0.99814067
0.99809857
0.99805942
0.99802298
0.9979891
0.99795763
0.99792839
0.99790126
0.99787608
0.99785273
0.99783108
0.99781104
0.99779242
1.000125
1.0001386
1.000154
1.0001707
1.0001889
1.0002087
1.0002303
1.0002536
1.0002788
1.0003058
1.0003347
1.0003656
1.0003983
1.0004327
1.0004688
1.0005062
1.0005446
1.0005835
1.0006226
1.000661
1.0006979
1.0007326
1.0007637
1.0007903
1.0008111
1.0008249
1.0008304
1.0008268
1.0008128
1.0007876
1.0007513
1.0007036
1.0006444
1.0005745
1.0004949
1.0004066
1.0003109
1.0002088
1.0001016
0.99999109
0.99987856
0.99976515
0.99965171
0.99953973
0.9994301
0.99932299
0.9992185
0.99911727
0.99902028
0.99892755
0.99883909
0.99875498
0.99867518
0.9985998
0.99852911
0.99846263
0.99839989
0.99834099
0.99828583
0.99823425
0.99818587
0.99814058
0.99809849
0.99805935
0.99802291
0.99798904
0.99795757
0.99792834
0.99790121
0.99787603
0.99785268
0.99783103
0.99781099
0.99779236
1.000125
1.0001386
1.0001539
1.0001707
1.0001889
1.0002087
1.0002303
1.0002536
1.0002788
1.0003058
1.0003347
1.0003656
1.0003983
1.0004327
1.0004688
1.0005062
1.0005446
1.0005835
1.0006226
1.000661
1.0006979
1.0007326
1.0007637
1.0007903
1.0008111
1.000825
1.0008305
1.0008268
1.0008128
1.0007876
1.0007513
1.0007036
1.0006444
1.0005746
1.0004949
1.0004066
1.0003109
1.0002088
1.0001017
0.99999112
0.99987859
0.99976517
0.99965175
0.99953978
0.99943009
0.99932294
0.99921845
0.99911727
0.9990203
0.99892758
0.99883912
0.99875501
0.99867517
0.99859977
0.99852907
0.99846262
0.99839991
0.99834103
0.99828587
0.99823435
0.99818601
0.99814067
0.99809856
0.9980594
0.99802297
0.99798908
0.9979576
0.99792836
0.99790123
0.99787605
0.99785271
0.99783105
0.997811
0.9977924
1.0001249
1.0001386
1.0001539
1.0001707
1.0001889
1.0002087
1.0002303
1.0002536
1.0002787
1.0003058
1.0003347
1.0003656
1.0003983
1.0004327
1.0004688
1.0005061
1.0005446
1.0005835
1.0006226
1.000661
1.0006979
1.0007326
1.0007637
1.0007904
1.0008112
1.000825
1.0008305
1.0008268
1.0008129
1.0007877
1.0007514
1.0007036
1.0006445
1.0005747
1.000495
1.0004067
1.000311
1.0002089
1.0001017
0.99999122
0.99987868
0.99976526
0.99965187
0.99953988
0.99943014
0.99932295
0.9992185
0.99911736
0.99902039
0.99892765
0.99883918
0.99875507
0.99867527
0.99859992
0.99852917
0.99846261
0.99839988
0.99834098
0.99828579
0.9982342
0.99818583
0.99814059
0.99809852
0.99805938
0.99802295
0.99798909
0.99795762
0.9979284
0.99790127
0.99787609
0.99785274
0.99783108
0.99781095
0.99779238
1.0001249
1.0001386
1.0001539
1.0001707
1.0001889
1.0002087
1.0002303
1.0002536
1.0002787
1.0003058
1.0003347
1.0003656
1.0003983
1.0004327
1.0004688
1.0005061
1.0005445
1.0005835
1.0006226
1.000661
1.0006979
1.0007326
1.0007638
1.0007904
1.0008112
1.000825
1.0008305
1.0008269
1.0008129
1.0007878
1.0007515
1.0007037
1.0006446
1.0005748
1.0004952
1.0004069
1.0003111
1.000209
1.0001019
0.99999138
0.99987884
0.99976542
0.99965204
0.99954004
0.99943027
0.99932304
0.9992186
0.99911749
0.99902051
0.99892777
0.99883931
0.9987552
0.99867543
0.99860008
0.99852925
0.99846263
0.99839994
0.99834105
0.99828587
0.99823427
0.99818596
0.99814077
0.9980987
0.99805954
0.99802311
0.99798923
0.99795775
0.99792852
0.99790138
0.99787621
0.99785287
0.99783124
0.9978112
0.99779267
1.0001249
1.0001386
1.0001539
1.0001707
1.0001889
1.0002087
1.0002303
1.0002536
1.0002787
1.0003058
1.0003347
1.0003656
1.0003983
1.0004327
1.0004687
1.0005061
1.0005445
1.0005835
1.0006226
1.000661
1.0006979
1.0007326
1.0007638
1.0007904
1.0008112
1.0008251
1.0008306
1.000827
1.000813
1.0007879
1.0007516
1.0007039
1.0006448
1.000575
1.0004954
1.0004071
1.0003114
1.0002093
1.0001021
0.99999164
0.9998791
0.99976567
0.99965232
0.9995403
0.99943049
0.99932322
0.99921878
0.99911772
0.99902074
0.99892799
0.99883952
0.99875541
0.99867566
0.99860033
0.99852946
0.99846281
0.99840009
0.99834117
0.99828596
0.99823432
0.99818602
0.99814087
0.99809879
0.99805964
0.99802322
0.99798935
0.99795788
0.99792865
0.99790153
0.99787636
0.99785302
0.99783139
0.99781134
0.99779277
1.0001249
1.0001386
1.0001539
1.0001707
1.0001889
1.0002087
1.0002303
1.0002536
1.0002787
1.0003058
1.0003347
1.0003656
1.0003982
1.0004327
1.0004687
1.0005061
1.0005445
1.0005835
1.0006226
1.000661
1.0006979
1.0007326
1.0007638
1.0007904
1.0008113
1.0008251
1.0008307
1.0008271
1.0008132
1.0007881
1.0007518
1.0007041
1.000645
1.0005753
1.0004957
1.0004074
1.0003117
1.0002096
1.0001025
0.99999201
0.99987948
0.99976605
0.99965271
0.99954069
0.99943082
0.99932352
0.99921909
0.99911806
0.99902108
0.99892832
0.99883984
0.99875573
0.998676
0.99860067
0.99852976
0.99846305
0.9984003
0.99834138
0.99828618
0.99823454
0.99818625
0.99814114
0.99809909
0.99805994
0.99802352
0.99798965
0.99795818
0.99792895
0.99790182
0.99787665
0.99785332
0.99783169
0.99781165
0.99779309
1.0001249
1.0001386
1.0001539
1.0001707
1.0001889
1.0002087
1.0002302
1.0002536
1.0002787
1.0003058
1.0003347
1.0003655
1.0003982
1.0004327
1.0004687
1.0005061
1.0005445
1.0005835
1.0006225
1.000661
1.0006979
1.0007326
1.0007638
1.0007905
1.0008113
1.0008252
1.0008308
1.0008272
1.0008134
1.0007883
1.0007521
1.0007044
1.0006454
1.0005757
1.0004961
1.0004079
1.0003122
1.0002101
1.000103
0.99999256
0.99988002
0.9997666
0.99965328
0.99954124
0.99943133
0.99932398
0.99921956
0.99911855
0.99902157
0.9989288
0.99884032
0.99875621
0.99867648
0.99860114
0.99853019
0.99846344
0.99840067
0.99834175
0.99828653
0.99823487
0.99818657
0.99814146
0.99809942
0.99806027
0.99802384
0.99798997
0.99795849
0.99792927
0.99790214
0.99787698
0.99785364
0.99783201
0.99781197
0.9977934
1.0001249
1.0001386
1.0001539
1.0001706
1.0001889
1.0002087
1.0002302
1.0002536
1.0002787
1.0003057
1.0003347
1.0003655
1.0003982
1.0004327
1.0004687
1.0005061
1.0005445
1.0005835
1.0006225
1.0006609
1.0006979
1.0007326
1.0007638
1.0007905
1.0008114
1.0008253
1.0008309
1.0008274
1.0008136
1.0007886
1.0007524
1.0007049
1.0006459
1.0005762
1.0004968
1.0004085
1.0003128
1.0002108
1.0001038
0.99999332
0.99988079
0.99976737
0.99965406
0.99954201
0.99943206
0.99932467
0.99922024
0.99911926
0.99902227
0.99892949
0.998841
0.99875687
0.99867714
0.9986018
0.99853081
0.99846401
0.99840121
0.99834227
0.99828704
0.99823537
0.99818708
0.99814199
0.99809996
0.99806082
0.9980244
0.99799053
0.99795906
0.99792984
0.99790271
0.99787754
0.9978542
0.99783257
0.99781253
0.99779396
1.0001249
1.0001386
1.0001539
1.0001706
1.0001889
1.0002087
1.0002302
1.0002535
1.0002787
1.0003057
1.0003347
1.0003655
1.0003982
1.0004326
1.0004687
1.000506
1.0005445
1.0005835
1.0006225
1.0006609
1.0006979
1.0007326
1.0007639
1.0007906
1.0008115
1.0008255
1.0008311
1.0008277
1.000814
1.000789
1.0007529
1.0007054
1.0006466
1.000577
1.0004976
1.0004094
1.0003138
1.0002118
1.0001048
0.99999437
0.99988186
0.99976844
0.99965515
0.99954308
0.99943308
0.99932565
0.99922121
0.99912025
0.99902325
0.99893045
0.99884195
0.99875781
0.99867808
0.99860272
0.99853168
0.99846484
0.99840201
0.99834305
0.99828781
0.99823612
0.99818782
0.99814273
0.99810069
0.99806154
0.99802511
0.99799124
0.99795976
0.99793052
0.99790339
0.99787822
0.99785488
0.99783324
0.99781319
0.99779462
1.0001249
1.0001386
1.0001539
1.0001706
1.0001888
1.0002087
1.0002302
1.0002535
1.0002787
1.0003057
1.0003346
1.0003655
1.0003982
1.0004326
1.0004686
1.000506
1.0005444
1.0005834
1.0006225
1.0006609
1.0006979
1.0007326
1.0007639
1.0007906
1.0008116
1.0008256
1.0008314
1.000828
1.0008144
1.0007896
1.0007536
1.0007062
1.0006474
1.000578
1.0004987
1.0004106
1.000315
1.0002131
1.0001062
0.99999579
0.99988331
0.9997699
0.99965663
0.99954455
0.9994345
0.99932702
0.99922257
0.99912162
0.99902461
0.99893178
0.99884326
0.9987591
0.99867935
0.99860396
0.99853289
0.998466
0.99840313
0.99834414
0.99828888
0.99823718
0.99818887
0.99814378
0.99810174
0.99806259
0.99802616
0.99799228
0.9979608
0.99793156
0.99790443
0.99787925
0.9978559
0.99783426
0.9978142
0.99779561
1.0001249
1.0001386
1.0001539
1.0001706
1.0001888
1.0002087
1.0002302
1.0002535
1.0002786
1.0003057
1.0003346
1.0003654
1.0003981
1.0004326
1.0004686
1.000506
1.0005444
1.0005834
1.0006224
1.0006609
1.0006979
1.0007326
1.0007639
1.0007907
1.0008118
1.0008259
1.0008317
1.0008285
1.000815
1.0007903
1.0007545
1.0007072
1.0006486
1.0005793
1.0005002
1.0004122
1.0003167
1.0002149
1.000108
0.99999771
0.99988526
0.99977188
0.99965862
0.99954652
0.99943643
0.99932891
0.99922444
0.99912348
0.99902645
0.9989336
0.99884504
0.99876086
0.99868107
0.99860566
0.99853454
0.9984676
0.99840469
0.99834567
0.99829038
0.99823865
0.99819033
0.99814522
0.99810317
0.998064
0.99802755
0.99799366
0.99796216
0.99793291
0.99790576
0.99788057
0.99785721
0.99783556
0.9978155
0.9977969
1.0001249
1.0001386
1.0001539
1.0001706
1.0001888
1.0002086
1.0002302
1.0002535
1.0002786
1.0003056
1.0003346
1.0003654
1.0003981
1.0004325
1.0004685
1.0005059
1.0005443
1.0005833
1.0006224
1.0006609
1.0006979
1.0007326
1.000764
1.0007909
1.000812
1.0008262
1.0008321
1.0008291
1.0008157
1.0007912
1.0007556
1.0007086
1.0006502
1.0005811
1.0005021
1.0004143
1.000319
1.0002172
1.0001105
1.0000003
0.99988787
0.99977451
0.99966127
0.99954917
0.99943903
0.99933146
0.99922696
0.99912599
0.99902893
0.99893604
0.99884745
0.99876323
0.9986834
0.99860793
0.99853676
0.99846976
0.99840681
0.99834775
0.99829242
0.99824066
0.99819231
0.99814718
0.99810511
0.99806593
0.99802946
0.99799556
0.99796405
0.99793478
0.99790762
0.99788241
0.99785904
0.99783737
0.99781729
0.99779868
1.0001249
1.0001386
1.0001539
1.0001706
1.0001888
1.0002086
1.0002301
1.0002534
1.0002786
1.0003056
1.0003345
1.0003654
1.000398
1.0004325
1.0004685
1.0005059
1.0005443
1.0005833
1.0006223
1.0006608
1.0006979
1.0007327
1.0007641
1.000791
1.0008122
1.0008266
1.0008327
1.0008298
1.0008167
1.0007924
1.0007571
1.0007103
1.0006522
1.0005834
1.0005047
1.0004171
1.0003219
1.0002203
1.0001138
1.0000036
0.99989131
0.999778
0.99966479
0.99955268
0.9994425
0.99933488
0.99923034
0.99912934
0.99903224
0.9989393
0.99885065
0.99876638
0.99868649
0.99861097
0.99853973
0.99847267
0.99840966
0.99835055
0.99829518
0.99824338
0.99819499
0.99814983
0.99810772
0.99806851
0.99803202
0.99799808
0.99796655
0.99793726
0.99791007
0.99788485
0.99786146
0.99783977
0.99781968
0.99780106
1.0001249
1.0001386
1.0001539
1.0001706
1.0001888
1.0002086
1.0002301
1.0002534
1.0002785
1.0003056
1.0003345
1.0003653
1.000398
1.0004324
1.0004684
1.0005058
1.0005442
1.0005832
1.0006223
1.0006608
1.0006979
1.0007327
1.0007642
1.0007912
1.0008126
1.000827
1.0008334
1.0008308
1.0008179
1.0007939
1.0007589
1.0007125
1.0006548
1.0005863
1.0005079
1.0004207
1.0003257
1.0002244
1.000118
1.0000081
0.99989583
0.99978258
0.9996694
0.99955728
0.99944707
0.9993394
0.99923482
0.99913377
0.99903662
0.99894361
0.99885489
0.99877054
0.99869058
0.99861498
0.99854367
0.99847654
0.99841345
0.99835427
0.99829884
0.99824699
0.99819854
0.99815334
0.99811119
0.99807194
0.99803541
0.99800144
0.99796987
0.99794054
0.99791333
0.99788807
0.99786465
0.99784294
0.99782282
0.99780418
1.0001249
1.0001386
1.0001538
1.0001706
1.0001888
1.0002086
1.0002301
1.0002534
1.0002785
1.0003055
1.0003344
1.0003652
1.0003979
1.0004323
1.0004683
1.0005057
1.0005441
1.0005831
1.0006222
1.0006607
1.0006978
1.0007327
1.0007643
1.0007914
1.000813
1.0008277
1.0008342
1.0008319
1.0008194
1.0007959
1.0007613
1.0007154
1.0006581
1.0005901
1.0005122
1.0004253
1.0003307
1.0002297
1.0001236
1.0000138
0.9999017
0.99978854
0.99967541
0.9995633
0.99945305
0.99934532
0.99924068
0.99913957
0.99904234
0.99894925
0.99886044
0.998776
0.99869595
0.99862025
0.99854885
0.99848162
0.99841845
0.99835919
0.99830368
0.99825175
0.99820324
0.99815797
0.99811577
0.99807647
0.99803989
0.99800587
0.99797426
0.9979449
0.99791764
0.99789236
0.99786891
0.99784717
0.99782702
0.99780835
1.0001248
1.0001385
1.0001538
1.0001705
1.0001887
1.0002085
1.0002301
1.0002533
1.0002785
1.0003055
1.0003344
1.0003652
1.0003978
1.0004322
1.0004682
1.0005056
1.000544
1.000583
1.0006221
1.0006606
1.0006978
1.0007328
1.0007644
1.0007917
1.0008134
1.0008284
1.0008353
1.0008334
1.0008214
1.0007983
1.0007643
1.000719
1.0006623
1.0005949
1.0005176
1.0004312
1.0003371
1.0002365
1.0001307
1.0000212
0.99990926
0.99979623
0.99968317
0.99957108
0.9994608
0.99935302
0.9992483
0.99914711
0.99904979
0.99895659
0.99886766
0.9987831
0.99870293
0.99862711
0.99855559
0.99848824
0.99842496
0.99836559