/*--------------------------------*- C++ -*----------------------------------*\
| =========                 |                                                 |
| \\      /  F ield         | OpenFOAM: The Open Source CFD Toolbox           |
|  \\    /   O peration     | Version:  v2006                                 |
|   \\  /    A nd           | Website:  www.openfoam.com                      |
|    \\/     M anipulation  |                                                 |
\*---------------------------------------------------------------------------*/
FoamFile
{
    version     2.0;
    format      ascii;
    class       surfaceScalarField;
    location    "6000";
    object      phi;
}
// * * * * * * * * * * * * * * * * * * * * * * * * * * * * * * * * * * * * * //

dimensions      [1 0 -1 0 0 0 0];
oriented        oriented;


internalField   nonuniform List<scalar> 
110670
(
1.7248854e-05
-0.00037606426
0.00035881533
3.0310986e-05
-0.00035387786
0.00034081566
4.0131138e-05
-0.00033464146
0.00032482124
4.7403735e-05
-0.0003176761
0.00031040346
5.2654523e-05
-0.00030259918
0.00029734835
5.6286177e-05
-0.00028912841
0.00028549672
5.8610498e-05
-0.00027704464
0.00027472029
5.9871917e-05
-0.00026617117
0.00026490973
6.0263625e-05
-0.00025636323
0.0002559715
5.9939908e-05
-0.00024749956
0.00024782327
5.9024473e-05
-0.00023947911
0.00024039453
5.7617505e-05
-0.00023221286
0.00023361982
5.5800702e-05
-0.00022562831
0.0002274451
5.3641416e-05
-0.00021966277
0.00022182206
5.1195359e-05
-0.00021426234
0.00021670838
4.8508668e-05
-0.00020938081
0.0002120675
4.561958e-05
-0.00020497714
0.00020786621
4.2560062e-05
-0.00020101583
0.00020407535
3.9356967e-05
-0.00019746605
0.00020066914
3.6033148e-05
-0.0001943014
0.00019762523
3.2608075e-05
-0.00019149921
0.00019492428
2.9098534e-05
-0.00018903981
0.00019254936
2.5518985e-05
-0.00018690637
0.00019048591
2.1882069e-05
-0.00018508447
0.00018872139
1.8198883e-05
-0.00018356212
0.0001872453
1.4479362e-05
-0.00018232944
0.00018604896
1.0732471e-05
-0.0001813786
0.00018512549
6.966528e-06
-0.00018070362
0.00018446957
3.1893161e-06
-0.0001803003
0.00018407751
-5.9161843e-07
-0.0001801661
0.00018394705
-4.3688794e-06
-0.00018030017
0.00018407743
-8.1349025e-06
-0.00018070331
0.00018446935
-1.1881935e-05
-0.00018137799
0.00018512501
-1.5601661e-05
-0.00018232838
0.00018604812
-1.9285201e-05
-0.00018356057
0.0001872441
-2.2922664e-05
-0.00018508259
0.00018872007
-2.6503046e-05
-0.00018690463
0.000190485
-3.0013673e-05
-0.00018903889
0.00019254953
-3.3440048e-05
-0.00019149966
0.00019492602
-3.6765303e-05
-0.00019430333
0.00019762859
-3.9969944e-05
-0.00019746912
0.00020067375
-4.3031086e-05
-0.00020101959
0.00020408074
-4.5921815e-05
-0.00020498128
0.00020787199
-4.8610031e-05
-0.00020938515
0.00021207338
-5.1057383e-05
-0.0002142666
0.00021671394
-5.3217782e-05
-0.00021966633
0.00022182674
-5.5035771e-05
-0.00022563058
0.00022744856
-5.6444173e-05
-0.00023221386
0.00023362227
-5.736126e-05
-0.00023947941
0.00024039649
-5.7686646e-05
-0.00024749953
0.00024782493
-5.7296675e-05
-0.00025636251
0.00025597253
-5.6037326e-05
-0.00026616935
0.00026491001
-5.3715584e-05
-0.00027704221
0.00027472046
-5.0087137e-05
-0.0002891266
0.00028549817
-4.4840075e-05
-0.00030259977
0.0002973527
-3.757101e-05
-0.00031767973
0.00031041067
-2.7751521e-05
-0.00033463984
0.00032482034
-1.4679223e-05
-0.00035382373
0.00034075144
-0.00037567727
0.00035840332
2.5947197e-06
1.7287196e-05
-0.00039335136
3.0379893e-05
-0.00036697047
4.0219531e-05
-0.000344481
4.750479e-05
-0.00032496129
5.2762757e-05
-0.00030785707
5.6397132e-05
-0.00029276272
5.8720768e-05
-0.00027936822
5.9978746e-05
-0.0002674291
6.0364876e-05
-0.00025674931
6.0033869e-05
-0.00024716851
5.9109687e-05
-0.00023855489
5.7692723e-05
-0.00023079586
5.5864974e-05
-0.00022380052
5.3694084e-05
-0.00021749185
5.1235944e-05
-0.00021180417
4.8536693e-05
-0.00020668152
4.5634594e-05
-0.00020207501
4.256159e-05
-0.00019794279
3.9344596e-05
-0.00019424904
3.6006541e-05
-0.00019096331
3.2566973e-05
-0.00018805963
2.904276e-05
-0.00018551556
2.5448403e-05
-0.000183312
2.1796599e-05
-0.00018143264
1.8098478e-05
-0.00017986398
1.4363984e-05
-0.00017859492
1.0602115e-05
-0.00017761671
6.8211554e-06
-0.00017692264
3.0289232e-06
-0.00017650804
-7.6705427e-07
-0.0001763701
-4.559338e-06
-0.00017650787
-8.3403679e-06
-0.00017692225
-1.2102354e-05
-0.00017761598
-1.5836977e-05
-0.00017859372
-1.9535318e-05
-0.00017986221
-2.3187469e-05
-0.00018143041
-2.6782404e-05
-0.00018330969
-3.0307439e-05
-0.00018551383
-3.3748043e-05
-0.00018805905
-3.7087306e-05
-0.00019096404
-4.0305675e-05
-0.00019425075
-4.3380229e-05
-0.00019794501
-4.628399e-05
-0.00020207751
-4.8984782e-05
-0.00020668434
-5.1444134e-05
-0.00021180724
-5.3615806e-05
-0.00021749464
-5.5444206e-05
-0.00022380218
-5.6861996e-05
-0.00023079604
-5.778724e-05
-0.00023855417
-5.8119263e-05
-0.00024716748
-5.7734079e-05
-0.00025674769
-5.6477256e-05
-0.00026742615
-5.4155277e-05
-0.00027936419
-5.0523076e-05
-0.00029275878
-4.5267899e-05
-0.00030785495
-3.7985324e-05
-0.00032496228
-2.8145476e-05
-0.00034447969
-1.5043862e-05
-0.00036692533
-0.00039299194
2.2708033e-06
1.7327679e-05
-0.00041067902
3.0450547e-05
-0.00038009331
4.0310204e-05
-0.00035434065
4.7608469e-05
-0.00033225954
5.2873942e-05
-0.00031312254
5.6511586e-05
-0.00029640035
5.8835212e-05
-0.00028169183
6.0090539e-05
-0.00026868441
6.0471937e-05
-0.0002571307
6.0134479e-05
-0.00024683105
5.9202389e-05
-0.00023762278
5.7776209e-05
-0.00022936967
5.5938293e-05
-0.00022196259
5.3756518e-05
-0.00021531007
5.1286933e-05
-0.00020933456
4.8575687e-05
-0.00020397027
4.5661113e-05
-0.00019916041
4.2575164e-05
-0.00019485682
3.9344879e-05
-0.00019101873
3.5993257e-05
-0.00018761166
3.2539947e-05
-0.0001846063
2.9001837e-05
-0.00018197741
2.5393425e-05
-0.00017970357
2.1727452e-05
-0.00017776663
1.8015034e-05
-0.00017615156
1.426623e-05
-0.00017484608
1.0490006e-05
-0.00017384048
6.6947213e-06
-0.00017312733
2.8881403e-06
-0.00017270146
-9.2216347e-07
-0.00017255978
-4.7287577e-06
-0.00017270126
-8.5240907e-06
-0.0001731269
-1.230033e-05
-0.00017383973
-1.6049184e-05
-0.00017484486
-1.9761651e-05
-0.00017614973
-2.3427852e-05
-0.00017776419
-2.7036687e-05
-0.00017970083
-3.0575502e-05
-0.00018197499
-3.4029691e-05
-0.00018460484
-3.7382305e-05
-0.0001876114
-4.0613703e-05
-0.00019101934
-4.37009e-05
-0.00019485779
-4.6616869e-05
-0.00019916153
-4.9329391e-05
-0.00020397179
-5.1799931e-05
-0.0002093367
-5.3982116e-05
-0.00021531243
-5.5820211e-05
-0.00022196408
-5.7246727e-05
-0.00022936951
-5.8179506e-05
-0.00023762138
-5.8517588e-05
-0.00024682939
-5.8136623e-05
-0.00025712866
-5.6881804e-05
-0.00026868096
-5.4559094e-05
-0.0002816869
-5.0922753e-05
-0.00029639511
-4.5659099e-05
-0.0003131186
-3.8362765e-05
-0.0003322586
-2.8502437e-05
-0.00035434002
-1.5371611e-05
-0.00038005614
-0.00041034706
1.9835016e-06
1.7368073e-05
-0.00042804711
3.0519657e-05
-0.0003932449
4.040006e-05
-0.00036422107
4.7711964e-05
-0.00033957145
5.2985671e-05
-0.00031839626
5.6627345e-05
-0.00030004204
5.8951732e-05
-0.00028401624
6.0205177e-05
-0.00026993787
6.0582618e-05
-0.00025750816
6.0239579e-05
-0.00024648802
5.9300424e-05
-0.00023668365
5.7865989e-05
-0.00022793525
5.6018834e-05
-0.00022011546
5.3827067e-05
-0.00021311833
5.1346744e-05
-0.00020685426
4.862406e-05
-0.00020124762
4.569741e-05
-0.00019623377
4.2598891e-05
-0.00019175834
3.9355748e-05
-0.00018777559
3.5991048e-05
-0.00018424699
3.2524573e-05
-0.00018113982
2.8973152e-05
-0.00017842601
2.5351372e-05
-0.0001760818
2.1671894e-05
-0.00017408715
1.794587e-05
-0.00017242555
1.4183334e-05
-0.00017108354
1.0393303e-05
-0.00017005048
6.5841937e-06
-0.00016931822
2.7637959e-06
-0.0001688811
-1.0602839e-06
-0.00016873572
-4.8806224e-06
-0.00016888096
-8.689652e-06
-0.0001693179
-1.2479522e-05
-0.00017004988
-1.6241926e-05
-0.00017108249
-1.9967845e-05
-0.00017242383
-2.3647405e-05
-0.00017408466
-2.7269477e-05
-0.00017607877
-3.0821427e-05
-0.00017842307
-3.4288593e-05
-0.00018113769
-3.7653993e-05
-0.00018424601
-4.0897882e-05
-0.00018777546
-4.3997209e-05
-0.00019175847
-4.6924837e-05
-0.00019623392
-4.9648527e-05
-0.00020124811
-5.2129693e-05
-0.00020685555
-5.4321897e-05
-0.00021312024
-5.6169199e-05
-0.00022011679
-5.7603931e-05
-0.00022793479
-5.8543674e-05
-0.00023668165
-5.8887206e-05
-0.00024648587
-5.8509832e-05
-0.00025750604
-5.7256389e-05
-0.00026993441
-5.4932345e-05
-0.00028401095
-5.1291332e-05
-0.00030003614
-4.6018661e-05
-0.00031839128
-3.8708131e-05
-0.00033956914
-2.8826943e-05
-0.00036422122
-1.5666655e-05
-0.00039321644
-0.00042774279
1.7290724e-06
1.7408747e-05
-0.0004454559
3.0590471e-05
-0.00040642667
4.0492034e-05
-0.00037412267
4.7818048e-05
-0.00034689749
5.3100504e-05
-0.00032367875
5.6746689e-05
-0.00030368825
5.90723e-05
-0.00028634188
6.032429e-05
-0.00027118988
6.0698194e-05
-0.00025788209
6.0349968e-05
-0.00024613981
5.9404242e-05
-0.00023573795
5.7962068e-05
-0.00022649308
5.6106326e-05
-0.00021825975
5.3905261e-05
-0.00021091727
5.1414846e-05
-0.00020436388
4.8681339e-05
-0.00019851412
4.5743156e-05
-0.00019329563
4.2632639e-05
-0.00018864784
3.9377114e-05
-0.0001845201
3.5999831e-05
-0.00018086974
3.2520587e-05
-0.00017766061
2.8956295e-05
-0.00017486176
2.532158e-05
-0.0001724471
2.1629099e-05
-0.00017039471
1.7890053e-05
-0.00016868652
1.4114376e-05
-0.0001673079
1.0311143e-05
-0.00016624726
6.4887134e-06
-0.00016549581
2.6549808e-06
-0.00016504738
-1.1824624e-06
-0.00016489829
-5.0161344e-06
-0.00016504731
-8.8384286e-06
-0.00016549562
-1.2641498e-05
-0.00016624684
-1.6416971e-05
-0.00016730703
-2.0155851e-05
-0.00016868497
-2.3848199e-05
-0.00017039233
-2.748293e-05
-0.00017244406
-3.1047385e-05
-0.00017485863
-3.4526906e-05
-0.00017765819
-3.7904464e-05
-0.00018086848
-4.1160253e-05
-0.00018451969
-4.4271174e-05
-0.00018864758
-4.7209967e-05
-0.00019329514
-4.9944365e-05
-0.00019851374
-5.2435681e-05
-0.00020436424
-5.4637389e-05
-0.00021091855
-5.6493322e-05
-0.00021826087
-5.7935697e-05
-0.00022649244
-5.8881857e-05
-0.0002357355
-5.9230357e-05
-0.00024613739
-5.8856126e-05
-0.00025788028
-5.7603634e-05
-0.00027118692
-5.5277874e-05
-0.00028633672
-5.1631873e-05
-0.00030368215
-4.6349878e-05
-0.00032367328
-3.9024867e-05
-0.00034689417
-2.9122619e-05
-0.00037412347
-1.5932768e-05
-0.0004064063
-0.00044517921
1.5036459e-06
1.7449335e-05
-0.00046290523
3.0660773e-05
-0.00041963812
4.0583761e-05
-0.00038404565
4.7924141e-05
-0.00035423789
5.3215669e-05
-0.00032897027
5.6866754e-05
-0.00030733935
5.9194064e-05
-0.00028866918
6.0444967e-05
-0.0002724408
6.0815727e-05
-0.00025825285
6.0462598e-05
-0.00024578669
5.9510611e-05
-0.00023478596
5.8060914e-05
-0.0002250434
5.6196877e-05
-0.00021639571
5.3986731e-05
-0.00020870713
5.1486505e-05
-0.00020186366
4.8742483e-05
-0.0001957701
4.5793259e-05
-0.00019034641
4.2671306e-05
-0.00018552589
3.9404052e-05
-0.00018125286
3.6014807e-05
-0.00017748051
3.2523392e-05
-0.00017416921
2.894676e-05
-0.00017128515
2.5299543e-05
-0.0001687999
2.1594457e-05
-0.00016668965
1.7842763e-05
-0.00016493483
1.4054399e-05
-0.00016351956
1.0238469e-05
-0.00016243133
6.403264e-06
-0.00016166063
2.5567203e-06
-0.00016120084
-1.293608e-06
-0.00016104798
-5.1401587e-06
-0.00016120075
-8.9753537e-06
-0.00016166044
-1.2791272e-05
-0.00016243092
-1.6579537e-05
-0.00016351878
-2.0331076e-05
-0.00016493344
-2.4035938e-05
-0.00016668748
-2.7683006e-05
-0.000168797
-3.1259633e-05
-0.00017128202
-3.4751151e-05
-0.00017416668
-3.814048e-05
-0.00017747917
-4.1407753e-05
-0.00018125242
-4.4529788e-05
-0.00018552556
-4.7479235e-05
-0.00019034569
-5.0223746e-05
-0.00019576924
-5.2724619e-05
-0.00020186337
-5.493527e-05
-0.00020870792
-5.6799347e-05
-0.00021639679
-5.8248944e-05
-0.00022504285
-5.9201195e-05
-0.00023478325
-5.955436e-05
-0.00024578423
-5.9183004e-05
-0.00025825164
-5.7931164e-05
-0.00027243878
-5.5603399e-05
-0.00028866448
-5.1952188e-05
-0.00030733338
-4.6660657e-05
-0.00032896481
-3.9320958e-05
-0.00035423388
-2.9397562e-05
-0.00038404686
-1.6178104e-05
-0.00041962577
-0.00046265619
1.2988788e-06
1.7490279e-05
-0.00048039552
3.0731964e-05
-0.0004328798
4.0676595e-05
-0.0003939903
4.8031585e-05
-0.00036159289
5.3332492e-05
-0.0003342712
5.698895e-05
-0.00031099582
5.9318389e-05
-0.00029099864
6.0568735e-05
-0.00027369117
6.0936903e-05
-0.00025862103
6.0579379e-05
-0.0002454292
5.9621475e-05
-0.00023382807
5.8164453e-05
-0.00022358641
5.629232e-05
-0.00021452359
5.4073294e-05
-0.00020648813
5.1563414e-05
-0.00019935379
4.8809115e-05
-0.00019301583
4.5849176e-05
-0.00018738648
4.2716188e-05
-0.00018239292
3.9437664e-05
-0.00017797435
3.6036952e-05
-0.00017407981
3.2533891e-05
-0.00017066616
2.8945446e-05
-0.00016769672
2.5286225e-05
-0.0001651407
2.1569001e-05
-0.00016297245
1.780503e-05
-0.00016117088
1.4004359e-05
-0.00015971892
1.0176076e-05
-0.00015860307
6.328532e-06
-0.00015781312
2.4696306e-06
-0.00015734195
-1.3930555e-06
-0.00015718532
-5.2519841e-06
-0.00015734184
-9.0995726e-06
-0.00015781288
-1.292787e-05
-0.00015860264
-1.6728492e-05
-0.00015971818
-2.0492302e-05
-0.00016116964
-2.4209328e-05
-0.00016297048
-2.7868398e-05
-0.00016513794
-3.1456889e-05
-0.00016769355
-3.4960114e-05
-0.00017066346
-3.836093e-05
-0.00017407837
-4.1639386e-05
-0.00017797397
-4.4772219e-05
-0.00018239274
-4.7731971e-05
-0.00018738595
-5.0486204e-05
-0.00019301503
-5.2996225e-05
-0.00019935336
-5.5215476e-05
-0.00020648869
-5.7087353e-05
-0.00021452492
-5.8543842e-05
-0.00022358638
-5.9501828e-05
-0.00023382527
-5.9859291e-05
-0.00024542679
-5.9490431e-05
-0.0002586205
-5.8238881e-05
-0.00027369034
-5.5908723e-05
-0.00029099464
-5.2252061e-05
-0.00031099006
-4.695078e-05
-0.0003342661
-3.9596199e-05
-0.00036158848
-2.9651628e-05
-0.00039399144
-1.6402581e-05
-0.00043287484
-0.00048017358
1.1148103e-06
1.753181e-05
-0.00049792733
3.0803344e-05
-0.00044615134
4.0770434e-05
-0.0004039574
4.8140453e-05
-0.00036896291
5.345125e-05
-0.00033958201
5.7113641e-05
-0.00031465822
5.9445606e-05
-0.00029333063
6.0695791e-05
-0.00027494136
6.106188e-05
-0.00025898714
6.0700356e-05
-0.00024506769
5.9736766e-05
-0.0002328645
5.8272476e-05
-0.00022212214
5.6392448e-05
-0.00021264358
5.416479e-05
-0.0002042605
5.1645445e-05
-0.00019683445
4.888113e-05
-0.00019025154
4.5910707e-05
-0.00018441607
4.2766892e-05
-0.00017924913
3.9477196e-05
-0.00017468466
3.6065082e-05
-0.00017066771
3.2550463e-05
-0.00016715155
2.8950285e-05
-0.00016409656
2.5279202e-05
-0.00016146963
2.1549983e-05
-0.00015924324
1.7773917e-05
-0.00015739483
1.396107e-05
-0.00015590609
1.0120562e-05
-0.00015476257
6.2607879e-06
-0.00015395337
2.3896588e-06
-0.00015347084
-1.4852261e-06
-0.00015331046
-5.3563387e-06
-0.00015347074
-9.2160795e-06
-0.00015395316
-1.3056507e-05
-0.00015476222
-1.6869222e-05
-0.00015590549
-2.064506e-05
-0.00015739381
-2.4374019e-05
-0.00015924155
-2.8044888e-05
-0.00016146708
-3.1645054e-05
-0.00016409341
-3.5159817e-05
-0.0001671487
-3.8571948e-05
-0.00017066626
-4.1861463e-05
-0.00017468446
-4.500497e-05
-0.00017924926
-4.7974947e-05
-0.00018441598
-5.0738813e-05
-0.00019025118
-5.325784e-05
-0.00019683433
-5.5485586e-05
-0.00020426096
-5.7365074e-05
-0.00021264544
-5.8828185e-05
-0.00022212329
-5.9791583e-05
-0.00023286187
-6.0152977e-05
-0.00024506541
-5.978622e-05
-0.00025898726
-5.8534508e-05
-0.00027494207
-5.6201362e-05
-0.00029332779
-5.2538659e-05
-0.00031465277
-4.7227104e-05
-0.00033957764
-3.9856771e-05
-0.00036895883
-2.989028e-05
-0.00040395792
-1.6610503e-05
-0.00044615463
-0.00049773273
9.4865411e-07
1.7570102e-05
-0.00051549745
3.087089e-05
-0.00045945214
4.0860552e-05
-0.00041394707
4.8244969e-05
-0.00037634733
5.3565434e-05
-0.00034490248
5.7234078e-05
-0.00031832686
5.9568195e-05
-0.00029566475
6.0818159e-05
-0.00027619132
6.1182533e-05
-0.00025935152
6.0817154e-05
-0.0002447023
5.9847645e-05
-0.000231895
5.8376101e-05
-0.00022065059
5.6488381e-05
-0.00021075586
5.4252467e-05
-0.00020202458
5.1724055e-05
-0.00019430605
4.8950154e-05
-0.00018747764
4.5969627e-05
-0.00018143554
4.2815327e-05
-0.00017609484
3.9514727e-05
-0.00017138406
3.609149e-05
-0.00016724448
3.2565538e-05
-0.0001636256
2.8953851e-05
-0.00016048487
2.5271104e-05
-0.00015778688
2.1530099e-05
-0.00015550224
1.7742147e-05
-0.00015360688
1.3917329e-05
-0.00015208127
1.0064783e-05
-0.00015091002
6.1929263e-06
-0.00015008151
2.3096959e-06
-0.0001495876
-1.5772889e-06
-0.00014942348
-5.4604845e-06
-0.00014958754
-9.3322661e-06
-0.00015008138
-1.3184689e-05
-0.00015090979
-1.7009332e-05
-0.00015208085
-2.0797026e-05
-0.00015360611
-2.4537729e-05
-0.00015550085
-2.822021e-05
-0.00015778459
-3.1831854e-05
-0.00016048177
-3.5357942e-05
-0.00016362261
-3.8781182e-05
-0.00016724303
-4.2081614e-05
-0.00017138402
-4.5235616e-05
-0.00017609526
-4.8215657e-05
-0.00018143592
-5.0989033e-05
-0.00018747782
-5.3516946e-05
-0.00019430641
-5.5753109e-05
-0.00020202481
-5.7640113e-05
-0.00021075842
-5.9109702e-05
-0.00022065371
-6.0078358e-05
-0.0002318932
-6.0443614e-05
-0.00024470017
-6.0078874e-05
-0.00025935198
-5.8826939e-05
-0.00027619402
-5.6490695e-05
-0.00029566402
-5.2821821e-05
-0.00031832166
-4.7500606e-05
-0.00034489885
-4.0114395e-05
-0.00037634505
-3.0126644e-05
-0.00041394566
-1.6816217e-05
-0.00045946507
-0.00051533361
7.8466978e-07
1.7606764e-05
-0.0005331042
3.0935725e-05
-0.00047278109
4.0946954e-05
-0.00042395828
4.8342801e-05
-0.00038374318
5.3671185e-05
-0.00035023085
5.7346983e-05
-0.00032200266
5.9682067e-05
-0.00029799982
6.0932119e-05
-0.00027744138
6.1296542e-05
-0.00025971593
6.092876e-05
-0.00024433452
5.9953892e-05
-0.00023092012
5.8477208e-05
-0.00021917391
5.6583427e-05
-0.00020886207
5.434125e-05
-0.00019978241
5.1805985e-05
-0.00019177077
4.9024436e-05
-0.00018469609
4.603591e-05
-0.00017844701
4.2873096e-05
-0.00017293203
3.9563722e-05
-0.00016807468
3.6131419e-05
-0.00016381219
3.2596209e-05
-0.00016009038
2.8975031e-05
-0.0001568637
2.5282619e-05
-0.00015409446
2.1531778e-05
-0.00015175141
1.7733864e-05
-0.00014980895
1.3898931e-05
-0.00014824635
1.0036172e-05
-0.00014704725
6.153983e-06
-0.00014619933
2.2603531e-06
-0.00014569396
-1.6370936e-06
-0.00014552604
-5.530705e-06
-0.00014569392
-9.4128533e-06
-0.00014619925
-1.3275549e-05
-0.00014704708
-1.7110402e-05
-0.00014824601
-2.0908198e-05
-0.0001498083
-2.4658913e-05
-0.00015175014
-2.8351284e-05
-0.0001540922
-3.197268e-05
-0.00015686039
-3.5508213e-05
-0.00016008706
-3.8940777e-05
-0.00016381048
-4.2250356e-05
-0.00016807442
-4.5413154e-05
-0.00017293248
-4.8401417e-05
-0.00017844764
-5.1182589e-05
-0.00018469666
-5.3717992e-05
-0.00019177099
-5.5960842e-05
-0.00019978197
-5.7853884e-05
-0.00020886536
-5.9328421e-05
-0.00021917919
-6.0300895e-05
-0.00023092071
-6.0668834e-05
-0.00024433225
-6.0305206e-05
-0.00025971559
-5.9052281e-05
-0.00027744697
-5.6712742e-05
-0.00029800354
-5.3037421e-05
-0.000321997
-4.7709799e-05
-0.00035022645
-4.0308879e-05
-0.00038374599
-3.0304961e-05
-0.00042394955
-1.6967766e-05
-0.00047280229
-0.0005329708
6.6944424e-07
1.764875e-05
-0.00055075295
3.0997359e-05
-0.0004861297
4.1035669e-05
-0.00043399659
4.8436886e-05
-0.00039114439
5.377187e-05
-0.00035556583
5.7457999e-05
-0.00032568879
5.9787867e-05
-0.00030032968
6.1035263e-05
-0.00027868878
6.1401429e-05
-0.00026008209
6.1031832e-05
-0.00024396493
6.0050575e-05
-0.00022993886
5.8570856e-05
-0.00021769419
5.667016e-05
-0.00020696137
5.4421499e-05
-0.00019753375
5.1879996e-05
-0.00018922926
4.9090372e-05
-0.00018190647
4.6094366e-05
-0.000175451
4.2923158e-05
-0.00016976082
3.960558e-05
-0.0001647571
3.616434e-05
-0.00016037095
3.26201e-05
-0.00015654614
2.898973e-05
-0.00015323334
2.5288033e-05
-0.00015039275
2.1527815e-05
-0.00014799119
1.7720439e-05
-0.00014600157
1.3876e-05
-0.00014440191
1.0003684e-05
-0.00014317493
6.111921e-06
-0.00014230757
2.2086913e-06
-0.00014179072
-1.6983268e-06
-0.00014161903
-5.6014961e-06
-0.00014179074
-9.4931847e-06
-0.00014230757
-1.3365391e-05
-0.00014317487
-1.7209691e-05
-0.00014440172
-2.1016924e-05
-0.00014600106
-2.4777073e-05
-0.00014799
-2.8479012e-05
-0.00015039026
-3.2109711e-05
-0.0001532297
-3.5653641e-05
-0.00015654312
-3.9095067e-05
-0.00016036906
-4.2412822e-05
-0.00016475666
-4.5584078e-05
-0.00016976123
-4.8579333e-05
-0.00017545238
-5.136726e-05
-0.00018190874
-5.3910664e-05
-0.00018922757
-5.6158291e-05
-0.00019753435
-5.8056001e-05
-0.00020696764
-5.9533388e-05
-0.00021770182
-6.050719e-05
-0.0002299469
-6.0875243e-05
-0.00024396421
-6.0510217e-05
-0.0002600806
-5.9252578e-05
-0.00027870461
-5.6906502e-05
-0.0003003496
-5.3219149e-05
-0.00032568437
-4.7888129e-05
-0.00035555745
-4.0465233e-05
-0.0003911689
-3.0447852e-05
-0.00043396691
-1.7073352e-05
-0.0004861768
-0.00055065668
6.1255628e-07
1.7712715e-05
-0.00056846566
3.1121513e-05
-0.0004995385
4.1198104e-05
-0.00044407318
4.8629196e-05
-0.00039857548
5.3995097e-05
-0.00036093173
5.7686561e-05
-0.00032938025
6.0021357e-05
-0.00030266447
6.1281574e-05
-0.00027994899
6.163595e-05
-0.00026043646
6.1255486e-05
-0.00024358446
6.0260868e-05
-0.00022894423
5.8764106e-05
-0.00021619743
5.6851597e-05
-0.00020504885
5.4584328e-05
-0.00019526647
5.2020578e-05
-0.0001866655
4.9209529e-05
-0.00017909542
4.6191993e-05
-0.00017243345
4.3000249e-05
-0.00016656907
3.9658498e-05
-0.00016141533
3.6193614e-05
-0.00015690606
3.2625187e-05
-0.00015297769
2.8970398e-05
-0.00014957855
2.5244106e-05
-0.00014666644
2.1459301e-05
-0.00014420639
1.7627426e-05
-0.00014216967
1.3758624e-05
-0.00014053311
9.8621403e-06
-0.00013927843
5.9464335e-06
-0.00013839186
2.0195441e-06
-0.00013786381
-1.9109935e-06
-0.00013768849
-5.8378293e-06
-0.00013786388
-9.7534581e-06
-0.00013839194
-1.3649791e-05
-0.00013927851
-1.751836e-05
-0.00014053315
-2.1349811e-05
-0.00014216958
-2.5133874e-05
-0.00014420595
-2.8858912e-05
-0.00014666519
-3.2512605e-05
-0.00014957601
-3.6080851e-05
-0.00015297485
-3.9544813e-05
-0.00015690511
-4.2886323e-05
-0.00016141512
-4.6081001e-05
-0.00016656657
-4.9098954e-05
-0.0001724344
-5.190697e-05
-0.00017910074
-5.4466731e-05
-0.00018666778
-5.6735674e-05
-0.00019526542
-5.8652474e-05
-0.00020505081
-6.014947e-05
-0.00021620483
-6.1139956e-05
-0.00022895638
-6.1517829e-05
-0.00024358635
-6.1164792e-05
-0.00026043361
-5.9911143e-05
-0.00027995828
-5.7569214e-05
-0.0003026915
-5.3870492e-05
-0.00032938311
-4.8517706e-05
-0.00036091021
-4.1066703e-05
-0.00039861993
-3.1002948e-05
-0.00044403064
-1.7578995e-05
-0.00049960078
-0.00056841198
1.763432e-07
1.7559686e-05
-0.00058602534
3.1047404e-05
-0.00051302622
4.1100323e-05
-0.00045412609
4.8591352e-05
-0.00040606651
5.3942723e-05
-0.0003662831
5.7606456e-05
-0.00033304399
5.9985972e-05
-0.00030504398
6.1246057e-05
-0.00028120908
6.1592571e-05
-0.00026078297
6.1201041e-05
-0.00024319294
6.0224853e-05
-0.00022796803
5.875416e-05
-0.00021472674
5.6864662e-05
-0.00020315935
5.461896e-05
-0.00019302078
5.207573e-05
-0.00018412226
4.928184e-05
-0.00017630154
4.6272618e-05
-0.00016942422
4.3088117e-05
-0.00016338458
3.9761342e-05
-0.00015808855
3.6312787e-05
-0.00015345752
3.2760038e-05
-0.00014942493
2.9120133e-05
-0.00014593866
2.540803e-05
-0.00014295433
2.1636752e-05
-0.00014043512
1.7817797e-05
-0.00013835071
1.3961314e-05
-0.00013667664
1.0076585e-05
-0.00013539368
6.1720609e-06
-0.00013448736
2.2558116e-06
-0.00013394755
-1.6644237e-06
-0.00013376828
-5.5807415e-06
-0.00013394754
-9.4853579e-06
-0.00013448734
-1.337019e-05
-0.00013539366
-1.7226758e-05
-0.00013667661
-2.1045664e-05
-0.00013835066
-2.4816608e-05
-0.00014043502
-2.8527873e-05
-0.00014295391
-3.2167749e-05
-0.00014593616
-3.572603e-05
-0.00014941655
-3.9189162e-05
-0.000153442
-4.253641e-05
-0.00015806786
-4.5741374e-05
-0.00016336162
-4.8775483e-05
-0.00016940027
-5.1599634e-05
-0.00017627661
-5.4166743e-05
-0.00018410066
-5.6433462e-05
-0.00019299873
-5.835115e-05
-0.0002031331
-5.9850565e-05
-0.00021470544
-6.0847341e-05
-0.00022795959
-6.1238891e-05
-0.00024319482
-6.0889737e-05
-0.00026078274
-5.9654321e-05
-0.00028119372
-5.7315706e-05
-0.00030503008
-5.3638828e-05
-0.00033306001
-4.825052e-05
-0.00036629848
-4.0833285e-05
-0.00040603719
-3.0712422e-05
-0.00045415146
-1.7345732e-05
-0.0005129675
-0.00058609961
3.4193596e-07
1.7585772e-05
3.1083246e-05
4.1142063e-05
4.8640375e-05
5.3984184e-05
5.765507e-05
6.0039764e-05
6.1289665e-05
6.1643994e-05
6.1256428e-05
6.028537e-05
5.8819914e-05
5.6927889e-05
5.4683702e-05
5.2144073e-05
4.9352076e-05
4.6344063e-05
4.3159137e-05
3.9834497e-05
3.6386866e-05
3.2835018e-05
2.9195848e-05
2.5484391e-05
2.1713543e-05
1.7894823e-05
1.4038355e-05
1.0153464e-05
6.2485695e-06
2.3317906e-06
-1.5891039e-06
-5.5059466e-06
-9.4109062e-06
-1.3295838e-05
-1.7152368e-05
-2.0971114e-05
-2.4742068e-05
-2.8453738e-05
-3.2093682e-05
-3.5649976e-05
-3.9111845e-05
-4.2455584e-05
-4.5656692e-05
-4.8686863e-05
-5.1508855e-05
-5.4076022e-05
-5.6336661e-05
-5.8248412e-05
-5.9739451e-05
-6.0727985e-05
-6.1114981e-05
-6.0755069e-05
-5.95127e-05
-5.7160636e-05
-5.3479139e-05
-4.8082936e-05
-4.0658466e-05
-3.0526153e-05
-1.7140903e-05
5.6937927e-07
-6.6747149e-06
-0.00022313881
0.00021722488
1.2589061e-05
-1.543988e-06
-0.00022383603
0.00021870552
2.8754675e-06
-0.00022456607
0.00022014686
6.6475826e-06
-0.00022531972
0.00022154783
9.8294081e-06
-0.00022608867
0.00022290707
1.2471975e-05
-0.00022686599
0.00022422364
1.462126e-05
-0.00022764539
0.00022549633
1.6318733e-05
-0.00022842119
0.00022672392
1.7602082e-05
-0.00022918856
0.00022790542
1.850558e-05
-0.0002299429
0.0002290396
1.9060692e-05
-0.00023068035
0.00023012544
1.9296218e-05
-0.00023139722
0.00023116189
1.9238828e-05
-0.00023209035
0.00023214794
1.8913192e-05
-0.00023275689
0.00023308272
1.834229e-05
-0.00023339415
0.00023396525
1.7547587e-05
-0.00023399995
0.00023479484
1.6549263e-05
-0.00023457227
0.00023557079
1.5366335e-05
-0.00023510934
0.00023629245
1.4016836e-05
-0.00023560943
0.00023695911
1.2517883e-05
-0.00023607091
0.00023757002
1.0885841e-05
-0.00023649222
0.00023812441
9.1363661e-06
-0.00023687204
0.00023862165
7.2845605e-06
-0.00023720941
0.00023906134
5.3450223e-06
-0.0002375036
0.00023944325
3.3319579e-06
-0.00023775409
0.00023976726
1.2592257e-06
-0.00023796023
0.00024003305
-8.5958488e-07
-0.00023812132
0.00024024022
-3.0111083e-06
-0.00023823673
0.00024038833
-5.1821072e-06
-0.00023830601
0.00024047707
-7.3594419e-06
-0.00023832892
0.00024050631
-9.5299973e-06
-0.00023830542
0.00024047602
-1.1680632e-05
-0.00023823556
0.00024038624
-1.3798125e-05
-0.0002381195
0.00024023703
-1.5869158e-05
-0.00023795755
0.00024002862
-1.7880242e-05
-0.00023775026
0.00023976137
-1.9817635e-05
-0.00023749837
0.0002394358
-2.1667211e-05
-0.00023720285
0.00023905246
-2.3414355e-05
-0.00023686457
0.00023861174
-2.5043874e-05
-0.0002364844
0.00023811395
-2.6539996e-05
-0.00023606314
0.00023755929
-2.78863e-05
-0.00023560174
0.00023694807
-2.9065665e-05
-0.00023510142
0.00023628081
-3.0060134e-05
-0.00023456369
0.00023555818
-3.085079e-05
-0.00023399034
0.00023478102
-3.1417554e-05
-0.00023338332
0.00023395011
-3.1739064e-05
-0.00023274486
0.00023306639
-3.1792354e-05
-0.00023207729
0.00023213061
-3.1552728e-05
-0.00023138331
0.00023114372
-3.0993462e-05
-0.00023066563
0.00023010641
-3.0085677e-05
-0.0002299272
0.00022901945
-2.8797959e-05
-0.0002291714
0.00022788373
-2.7096149e-05
-0.00022840213
0.00022670033
-2.4942822e-05
-0.00022762444
0.00022547115
-2.2297038e-05
-0.00022684494
0.00022419921
-1.9114147e-05
-0.00022607442
0.00022289154
-1.5345156e-05
-0.0002253336
0.00022156484
-1.0937841e-05
-0.00022466834
0.00022026123
-5.8382241e-06
-0.00022419531
0.00021909589
-0.0002242483
0.00021841008
-5.4274612e-06
-0.00022950711
1.1795918e-05
9.3216379e-08
-0.00022935662
4.8442612e-06
-0.00022931701
8.894848e-06
-0.00022937022
1.2306775e-05
-0.00022950049
1.5135259e-05
-0.00022969439
1.7430037e-05
-0.00022994006
1.9235966e-05
-0.00023022704
2.0593813e-05
-0.00023054631
2.1540652e-05
-0.00023088966
2.2110526e-05
-0.00023125013
2.2334596e-05
-0.00023162121
2.2241728e-05
-0.00023199739
2.1858607e-05
-0.0002323737
2.1210103e-05
-0.00023274558
2.0319451e-05
-0.00023310924
1.9208495e-05
-0.00023346126
1.7897796e-05
-0.0002337986
1.640686e-05
-0.00023411846
1.4754191e-05
-0.00023441822
1.2957476e-05
-0.00023469548
1.103365e-05
-0.0002349482
8.9990646e-06
-0.00023517481
6.8695184e-06
-0.00023537404
4.6603844e-06
-0.00023554494
2.3866279e-06
-0.00023568647
6.2938844e-08
-0.00023579762
-2.2962599e-06
-0.00023587752
-4.6766753e-06
-0.00023592558
-7.0641128e-06
-0.00023594147
-9.4443835e-06
-0.00023592513
-1.1803293e-05
-0.00023587663
-1.4126534e-05
-0.00023579624
-1.6399663e-05
-0.00023568441
-1.8608011e-05
-0.00023554189
-2.073664e-05
-0.00023536972
-2.2770231e-05
-0.00023516924
-2.4693002e-05
-0.00023494178
-2.6488597e-05
-0.00023468878
-2.8140009e-05
-0.0002344117
-2.9629493e-05
-0.00023411223
-3.0938484e-05
-0.0002337924
-3.2047491e-05
-0.00023345465
-3.2935964e-05
-0.00023310183
-3.3582134e-05
-0.00023273712
-3.3962814e-05
-0.00023236415
-3.4053193e-05
-0.00023198688
-3.3826547e-05
-0.00023160994
-3.3253987e-05
-0.00023123817
-3.2304311e-05
-0.00023087685
-3.0943491e-05
-0.0002305322
-2.9134423e-05
-0.00023021115
-2.6836575e-05
-0.00022992227
-2.4005425e-05
-0.00022967609
-2.0591972e-05
-0.00022948783
-1.6543e-05
-0.00022938274
-1.1800289e-05
-0.0002294112
-6.3035805e-06
-0.00022969217
-0.00023055188
-4.1492728e-06
-0.00023636753
1.1009839e-05
1.7941043e-06
-0.00023529995
6.9048683e-06
-0.00023442772
1.1257865e-05
-0.00023372318
1.4919914e-05
-0.00023316249
1.7950747e-05
-0.00023272519
2.040416e-05
-0.00023239344
2.2328681e-05
-0.00023215154
2.3768395e-05
-0.00023198599
2.4763422e-05
-0.00023188468
2.5350584e-05
-0.00023183727
2.5563588e-05
-0.00023183422
2.5433655e-05
-0.00023186746
2.498967e-05
-0.00023192973
2.4258535e-05
-0.00023201445
2.3265366e-05
-0.0002321161
2.2033789e-05
-0.00023222971
2.0586062e-05
-0.00023235091
1.8943286e-05
-0.00023247571
1.7125489e-05
-0.00023260045
1.5151812e-05
-0.00023272183
1.3040583e-05
-0.000232837
1.080949e-05
-0.00023294373
8.4756229e-06
-0.00023304019