/*--------------------------------*- C++ -*----------------------------------*\
| =========                 |                                                 |
| \\      /  F ield         | OpenFOAM: The Open Source CFD Toolbox           |
|  \\    /   O peration     | Version:  v2006                                 |
|   \\  /    A nd           | Website:  www.openfoam.com                      |
|    \\/     M anipulation  |                                                 |
\*---------------------------------------------------------------------------*/
FoamFile
{
    version     2.0;
    format      ascii;
    class       volScalarField;
    location    "6000";
    object      pMean;
}
// * * * * * * * * * * * * * * * * * * * * * * * * * * * * * * * * * * * * * //

dimensions      [1 -1 -2 0 0 0 0];


internalField   nonuniform List<scalar> 
55713
(
1.0000329
1.0000329
1.0000329
1.0000329
1.0000329
1.0000329
1.0000329
1.0000329
1.0000329
1.0000329
1.0000329
1.0000329
1.0000329
1.0000329
1.0000329
1.0000329
1.0000329
1.0000329
1.0000329
1.0000329
1.0000329
1.0000329
1.0000329
1.0000329
1.0000329
1.0000329
1.0000329
1.0000329
1.0000329
1.0000329
1.0000329
1.0000329
1.0000329
1.0000329
1.0000329
1.0000329
1.0000329
1.0000329
1.0000329
1.0000329
1.0000329
1.0000329
1.0000329
1.0000329
1.0000329
1.0000329
1.0000329
1.0000329
1.0000329
1.0000329
1.0000329
1.0000329
1.0000329
1.0000329
1.0000329
1.0000329
1.0000329
1.0000329
1.0000329
1.0000307
1.0000307
1.0000307
1.0000307
1.0000307
1.0000307
1.0000307
1.0000307
1.0000307
1.0000308
1.0000308
1.0000308
1.0000308
1.0000308
1.0000308
1.0000308
1.0000308
1.0000308
1.0000308
1.0000308
1.0000308
1.0000308
1.0000308
1.0000308
1.0000308
1.0000308
1.0000308
1.0000308
1.0000308
1.0000308
1.0000308
1.0000308
1.0000308
1.0000308
1.0000308
1.0000308
1.0000308
1.0000308
1.0000308
1.0000308
1.0000308
1.0000308
1.0000308
1.0000308
1.0000308
1.0000308
1.0000308
1.0000308
1.0000308
1.0000308
1.0000308
1.0000308
1.0000308
1.0000308
1.0000308
1.0000308
1.0000308
1.0000308
1.0000308
1.0000289
1.0000289
1.0000289
1.0000289
1.0000289
1.0000289
1.0000289
1.0000289
1.0000289
1.0000289
1.0000289
1.0000289
1.0000289
1.0000289
1.0000289
1.0000289
1.0000289
1.0000289
1.0000289
1.0000289
1.0000289
1.0000289
1.0000289
1.0000289
1.0000289
1.0000289
1.0000289
1.0000289
1.0000289
1.0000289
1.0000289
1.0000289
1.0000289
1.0000289
1.0000289
1.0000289
1.0000289
1.0000289
1.0000289
1.0000289
1.0000289
1.0000289
1.0000289
1.0000289
1.0000289
1.0000289
1.0000289
1.0000289
1.0000289
1.0000289
1.0000289
1.0000289
1.0000289
1.0000289
1.0000289
1.0000289
1.0000289
1.0000289
1.0000289
1.0000272
1.0000272
1.0000272
1.0000272
1.0000272
1.0000273
1.0000273
1.0000273
1.0000273
1.0000273
1.0000273
1.0000273
1.0000273
1.0000273
1.0000273
1.0000273
1.0000273
1.0000273
1.0000273
1.0000273
1.0000273
1.0000273
1.0000273
1.0000273
1.0000273
1.0000273
1.0000273
1.0000273
1.0000273
1.0000273
1.0000273
1.0000273
1.0000273
1.0000273
1.0000273
1.0000273
1.0000273
1.0000273
1.0000273
1.0000273
1.0000273
1.0000273
1.0000273
1.0000273
1.0000273
1.0000273
1.0000273
1.0000273
1.0000273
1.0000273
1.0000273
1.0000273
1.0000273
1.0000273
1.0000273
1.0000273
1.0000273
1.0000273
1.0000273
1.0000258
1.0000258
1.0000258
1.0000258
1.0000258
1.0000259
1.0000259
1.0000259
1.0000259
1.0000259
1.0000259
1.0000259
1.0000259
1.0000259
1.0000259
1.0000259
1.0000259
1.0000259
1.0000259
1.0000259
1.0000259
1.0000259
1.0000259
1.0000259
1.0000259
1.0000259
1.0000259
1.0000259
1.0000259
1.0000259
1.0000259
1.0000259
1.0000259
1.0000259
1.0000259
1.0000259
1.0000259
1.0000259
1.0000259
1.0000259
1.0000259
1.0000259
1.0000259
1.0000259
1.0000259
1.0000259
1.0000259
1.0000259
1.0000259
1.0000259
1.0000259
1.0000259
1.0000259
1.0000259
1.0000259
1.0000259
1.0000259
1.0000259
1.0000259
1.0000246
1.0000246
1.0000247
1.0000247
1.0000247
1.0000247
1.0000247
1.0000247
1.0000247
1.0000247
1.0000247
1.0000247
1.0000247
1.0000247
1.0000247
1.0000247
1.0000247
1.0000247
1.0000247
1.0000247
1.0000247
1.0000247
1.0000247
1.0000247
1.0000247
1.0000247
1.0000247
1.0000247
1.0000247
1.0000247
1.0000247
1.0000247
1.0000247
1.0000247
1.0000247
1.0000247
1.0000247
1.0000247
1.0000247
1.0000247
1.0000247
1.0000247
1.0000247
1.0000247
1.0000247
1.0000247
1.0000247
1.0000247
1.0000247
1.0000247
1.0000247
1.0000247
1.0000247
1.0000247
1.0000247
1.0000247
1.0000247
1.0000247
1.0000247
1.0000236
1.0000236
1.0000236
1.0000236
1.0000236
1.0000236
1.0000236
1.0000236
1.0000236
1.0000236
1.0000236
1.0000236
1.0000236
1.0000236
1.0000236
1.0000236
1.0000236
1.0000236
1.0000236
1.0000236
1.0000236
1.0000236
1.0000236
1.0000236
1.0000236
1.0000236
1.0000236
1.0000236
1.0000236
1.0000236
1.0000236
1.0000236
1.0000236
1.0000236
1.0000236
1.0000236
1.0000236
1.0000236
1.0000236
1.0000236
1.0000236
1.0000236
1.0000236
1.0000236
1.0000236
1.0000236
1.0000236
1.0000236
1.0000236
1.0000236
1.0000237
1.0000237
1.0000237
1.0000237
1.0000237
1.0000237
1.0000237
1.0000237
1.0000237
1.0000226
1.0000226
1.0000226
1.0000226
1.0000226
1.0000226
1.0000226
1.0000226
1.0000226
1.0000226
1.0000226
1.0000226
1.0000226
1.0000226
1.0000226
1.0000227
1.0000227
1.0000227
1.0000227
1.0000227
1.0000227
1.0000227
1.0000227
1.0000227
1.0000227
1.0000227
1.0000227
1.0000227
1.0000227
1.0000227
1.0000227
1.0000227
1.0000227
1.0000227
1.0000227
1.0000227
1.0000227
1.0000227
1.0000227
1.0000227
1.0000227
1.0000227
1.0000227
1.0000227
1.0000227
1.0000227
1.0000227
1.0000227
1.0000227
1.0000227
1.0000227
1.0000227
1.0000227
1.0000227
1.0000227
1.0000227
1.0000227
1.0000227
1.0000227
1.0000221
1.0000221
1.0000221
1.0000221
1.0000222
1.0000222
1.0000222
1.0000222
1.0000222
1.0000222
1.0000222
1.0000222
1.0000222
1.0000222
1.0000222
1.0000222
1.0000222
1.0000222
1.0000222
1.0000222
1.0000222
1.0000222
1.0000222
1.0000222
1.0000222
1.0000222
1.0000222
1.0000222
1.0000222
1.0000222
1.0000222
1.0000222
1.0000222
1.0000222
1.0000222
1.0000222
1.0000222
1.0000222
1.0000222
1.0000222
1.0000222
1.0000222
1.0000222
1.0000222
1.0000222
1.0000222
1.0000222
1.0000222
1.0000222
1.0000222
1.0000222
1.0000222
1.0000222
1.0000222
1.0000222
1.0000222
1.0000222
1.0000222
1.0000222
1.0000217
1.0000217
1.0000217
1.0000217
1.0000218
1.0000218
1.0000218
1.0000218
1.0000218
1.0000218
1.0000218
1.0000218
1.0000218
1.0000218
1.0000218
1.0000218
1.0000218
1.0000218
1.0000218
1.0000218
1.0000218
1.0000218
1.0000218
1.0000218
1.0000218
1.0000218
1.0000218
1.0000218
1.0000218
1.0000218
1.0000218
1.0000218
1.0000218
1.0000218
1.0000218
1.0000218
1.0000218
1.0000218
1.0000218
1.0000218
1.0000218
1.0000218
1.0000218
1.0000218
1.0000218
1.0000218
1.0000218
1.0000218
1.0000218
1.0000218
1.0000218
1.0000218
1.0000218
1.0000218
1.0000218
1.0000218
1.0000218
1.0000218
1.0000218
1.0000198
1.0000198
1.0000198
1.0000198
1.0000198
1.0000198
1.0000198
1.0000198
1.0000198
1.0000198
1.0000198
1.0000198
1.0000198
1.0000198
1.0000198
1.0000198
1.0000198
1.0000198
1.0000198
1.0000198
1.0000198
1.0000198
1.0000198
1.0000198
1.0000198
1.0000198
1.0000198
1.0000198
1.0000198
1.0000198
1.0000198
1.0000198
1.0000198
1.0000198
1.0000198
1.0000198
1.0000198
1.0000198
1.0000198
1.0000198
1.0000198
1.0000198
1.0000198
1.0000198
1.0000198
1.0000198
1.0000198
1.0000198
1.0000198
1.0000198
1.0000198
1.0000198
1.0000198
1.0000198
1.0000198
1.0000198
1.0000198
1.0000198
1.0000198
1.0000197
1.0000197
1.0000197
1.0000197
1.0000197
1.0000196
1.0000196
1.0000196
1.0000196
1.0000196
1.0000196
1.0000196
1.0000196
1.0000196
1.0000196
1.0000196
1.0000196
1.0000196
1.0000196
1.0000196
1.0000196
1.0000196
1.0000196
1.0000195
1.0000195
1.0000195
1.0000195
1.0000195
1.0000195
1.0000195
1.0000195
1.0000195
1.0000195
1.0000195
1.0000195
1.0000195
1.0000195
1.0000195
1.0000195
1.0000195
1.0000195
1.0000195
1.0000195
1.0000195
1.0000195
1.0000195
1.0000195
1.0000195
1.0000195
1.0000195
1.0000195
1.0000195
1.0000194
1.0000194
1.0000194
1.0000194
1.0000194
1.0000194
1.0000194
1.0000298
1.0000298
1.0000298
1.0000298
1.0000298
1.0000298
1.0000297
1.0000297
1.0000297
1.0000297
1.0000297
1.0000297
1.0000297
1.0000297
1.0000297
1.0000297
1.0000297
1.0000297
1.0000297
1.0000297
1.0000297
1.0000297
1.0000297
1.0000297
1.0000297
1.0000297
1.0000297
1.0000297
1.0000297
1.0000297
1.0000297
1.0000297
1.0000297
1.0000297
1.0000297
1.0000297
1.0000297
1.0000297
1.0000297
1.0000297
1.0000297
1.0000297
1.0000297
1.0000297
1.0000297
1.0000297
1.0000297
1.0000297
1.0000297
1.0000297
1.0000297
1.0000297
1.0000297
1.0000297
1.0000297
1.0000297
1.0000297
1.0000297
1.0000297
1.0000189
1.0000189
1.0000189
1.0000189
1.0000189
1.000019
1.000019
1.000019
1.000019
1.000019
1.000019
1.000019
1.000019
1.000019
1.000019
1.000019
1.000019
1.000019
1.000019
1.000019
1.000019
1.000019
1.000019
1.000019
1.000019
1.000019
1.000019
1.000019
1.000019
1.000019
1.000019
1.000019
1.000019
1.000019
1.000019
1.000019
1.000019
1.000019
1.000019
1.000019
1.000019
1.000019
1.000019
1.000019
1.000019
1.000019
1.000019
1.000019
1.000019
1.000019
1.000019
1.000019
1.000019
1.000019
1.000019
1.000019
1.000019
1.000019
1.000019
1.0001255
1.0001256
1.0001256
1.0001257
1.0001257
1.0001257
1.0001258
1.0001258
1.0001259
1.0001259
1.0001259
1.000126
1.000126
1.000126
1.0001261
1.0001261
1.0001261
1.0001262
1.0001262
1.0001262
1.0001263
1.0001263
1.0001263
1.0001263
1.0001264
1.0001264
1.0001264
1.0001265
1.0001265
1.0001265
1.0001265
1.0001265
1.0001266
1.0001266
1.0001266
1.0001266
1.0001266
1.0001267
1.0001267
1.0001267
1.0001267
1.0001267
1.0001267
1.0001267
1.0001267
1.0001267
1.0001268
1.0001268
1.0001268
1.0001268
1.0001268
1.0001268
1.0001268
1.0001268
1.0001268
1.0001268
1.0001268
1.0001268
1.0001268
1.000115
1.000115
1.0001151
1.0001151
1.0001151
1.0001152
1.0001152
1.0001152
1.0001153
1.0001153
1.0001153
1.0001154
1.0001154
1.0001154
1.0001154
1.0001155
1.0001155
1.0001155
1.0001156
1.0001156
1.0001156
1.0001156
1.0001157
1.0001157
1.0001157
1.0001157
1.0001157
1.0001158
1.0001158
1.0001158
1.0001158
1.0001158
1.0001159
1.0001159
1.0001159
1.0001159
1.0001159
1.0001159
1.0001159
1.000116
1.000116
1.000116
1.000116
1.000116
1.000116
1.000116
1.000116
1.000116
1.000116
1.000116
1.000116
1.000116
1.0001161
1.0001161
1.0001161
1.0001161
1.0001161
1.0001161
1.0001161
1.0001052
1.0001052
1.0001053
1.0001053
1.0001053
1.0001053
1.0001054
1.0001054
1.0001054
1.0001054
1.0001055
1.0001055
1.0001055
1.0001055
1.0001056
1.0001056
1.0001056
1.0001056
1.0001056
1.0001057
1.0001057
1.0001057
1.0001057
1.0001057
1.0001058
1.0001058
1.0001058
1.0001058
1.0001058
1.0001058
1.0001059
1.0001059
1.0001059
1.0001059
1.0001059
1.0001059
1.0001059
1.0001059
1.000106
1.000106
1.000106
1.000106
1.000106
1.000106
1.000106
1.000106
1.000106
1.000106
1.000106
1.000106
1.000106
1.000106
1.000106
1.000106
1.0001061
1.0001061
1.0001061
1.0001061
1.0001061
1.000096
1.000096
1.0000961
1.0000961
1.0000961
1.0000961
1.0000962
1.0000962
1.0000962
1.0000962
1.0000962
1.0000963
1.0000963
1.0000963
1.0000963
1.0000963
1.0000963
1.0000964
1.0000964
1.0000964
1.0000964
1.0000964
1.0000964
1.0000965
1.0000965
1.0000965
1.0000965
1.0000965
1.0000965
1.0000965
1.0000965
1.0000966
1.0000966
1.0000966
1.0000966
1.0000966
1.0000966
1.0000966
1.0000966
1.0000966
1.0000966
1.0000967
1.0000967
1.0000967
1.0000967
1.0000967
1.0000967
1.0000967
1.0000967
1.0000967
1.0000967
1.0000967
1.0000967
1.0000967
1.0000967
1.0000967
1.0000967
1.0000967
1.0000967
1.0000875
1.0000875
1.0000875
1.0000875
1.0000876
1.0000876
1.0000876
1.0000876
1.0000876
1.0000876
1.0000877
1.0000877
1.0000877
1.0000877
1.0000877
1.0000877
1.0000878
1.0000878
1.0000878
1.0000878
1.0000878
1.0000878
1.0000878
1.0000878
1.0000879
1.0000879
1.0000879
1.0000879
1.0000879
1.0000879
1.0000879
1.0000879
1.0000879
1.0000879
1.0000879
1.000088
1.000088
1.000088
1.000088
1.000088
1.000088
1.000088
1.000088
1.000088
1.000088
1.000088
1.000088
1.000088
1.000088
1.000088
1.000088
1.000088
1.000088
1.000088
1.000088
1.000088
1.000088
1.000088
1.000088
1.0000796
1.0000796
1.0000796
1.0000796
1.0000796
1.0000796
1.0000797
1.0000797
1.0000797
1.0000797
1.0000797
1.0000797
1.0000797
1.0000797
1.0000798
1.0000798
1.0000798
1.0000798
1.0000798
1.0000798
1.0000798
1.0000798
1.0000798
1.0000798
1.0000799
1.0000799
1.0000799
1.0000799
1.0000799
1.0000799
1.0000799
1.0000799
1.0000799
1.0000799
1.0000799
1.0000799
1.0000799
1.00008
1.00008
1.00008
1.00008
1.00008
1.00008
1.00008
1.00008
1.00008
1.00008
1.00008
1.00008
1.00008
1.00008
1.00008
1.00008
1.00008
1.00008
1.00008
1.00008
1.00008
1.00008
1.0000722
1.0000722
1.0000723
1.0000723
1.0000723
1.0000723
1.0000723
1.0000723
1.0000723
1.0000723
1.0000724
1.0000724
1.0000724
1.0000724
1.0000724
1.0000724
1.0000724
1.0000724
1.0000724
1.0000724
1.0000724
1.0000725
1.0000725
1.0000725
1.0000725
1.0000725
1.0000725
1.0000725
1.0000725
1.0000725
1.0000725
1.0000725
1.0000725
1.0000725
1.0000725
1.0000725
1.0000725
1.0000725
1.0000726
1.0000726
1.0000726
1.0000726
1.0000726
1.0000726
1.0000726
1.0000726
1.0000726
1.0000726
1.0000726
1.0000726
1.0000726
1.0000726
1.0000726
1.0000726
1.0000726
1.0000726
1.0000726
1.0000726
1.0000726
1.0000655
1.0000655
1.0000655
1.0000655
1.0000655
1.0000655
1.0000655
1.0000656
1.0000656
1.0000656
1.0000656
1.0000656
1.0000656
1.0000656
1.0000656
1.0000656
1.0000656
1.0000656
1.0000656
1.0000656
1.0000656
1.0000657
1.0000657
1.0000657
1.0000657
1.0000657
1.0000657
1.0000657
1.0000657
1.0000657
1.0000657
1.0000657
1.0000657
1.0000657
1.0000657
1.0000657
1.0000657
1.0000657
1.0000657
1.0000657
1.0000657
1.0000657
1.0000657
1.0000658
1.0000658
1.0000658
1.0000658
1.0000658
1.0000658
1.0000658
1.0000658
1.0000658
1.0000658
1.0000658
1.0000658
1.0000658
1.0000658
1.0000658
1.0000658
1.0000593
1.0000593
1.0000593
1.0000593
1.0000593
1.0000593
1.0000593
1.0000593
1.0000593
1.0000593
1.0000594
1.0000594
1.0000594
1.0000594
1.0000594
1.0000594
1.0000594
1.0000594
1.0000594
1.0000594
1.0000594
1.0000594
1.0000594
1.0000594
1.0000594
1.0000594
1.0000594
1.0000594
1.0000594
1.0000594
1.0000595
1.0000595
1.0000595
1.0000595
1.0000595
1.0000595
1.0000595
1.0000595
1.0000595
1.0000595
1.0000595
1.0000595
1.0000595
1.0000595
1.0000595
1.0000595
1.0000595
1.0000595
1.0000595
1.0000595
1.0000595
1.0000595
1.0000595
1.0000595
1.0000595
1.0000595
1.0000595
1.0000595
1.0000595
1.0000536
1.0000536
1.0000536
1.0000536
1.0000536
1.0000536
1.0000536
1.0000536
1.0000536
1.0000537
1.0000537
1.0000537
1.0000537
1.0000537
1.0000537
1.0000537
1.0000537
1.0000537
1.0000537
1.0000537
1.0000537
1.0000537
1.0000537
1.0000537
1.0000537
1.0000537
1.0000537
1.0000537
1.0000537
1.0000537
1.0000537
1.0000537
1.0000537
1.0000537
1.0000537
1.0000537
1.0000538
1.0000538
1.0000538
1.0000538
1.0000538
1.0000538
1.0000538
1.0000538
1.0000538
1.0000538
1.0000538
1.0000538
1.0000538
1.0000538
1.0000538
1.0000538
1.0000538
1.0000538
1.0000538
1.0000538
1.0000538
1.0000538
1.0000538
1.0000484
1.0000484
1.0000484
1.0000484
1.0000484
1.0000484
1.0000484
1.0000485
1.0000485
1.0000485
1.0000485
1.0000485
1.0000485
1.0000485
1.0000485
1.0000485
1.0000485
1.0000485
1.0000485
1.0000485
1.0000485
1.0000485
1.0000485
1.0000485
1.0000485
1.0000485
1.0000485
1.0000485
1.0000485
1.0000485
1.0000485
1.0000485
1.0000485
1.0000485
1.0000485
1.0000485
1.0000485
1.0000485
1.0000485
1.0000485
1.0000485
1.0000485
1.0000486
1.0000486
1.0000486
1.0000486
1.0000486
1.0000486
1.0000486
1.0000486
1.0000486
1.0000486
1.0000486
1.0000486
1.0000486
1.0000486
1.0000486
1.0000486
1.0000486
1.0000437
1.0000437
1.0000437
1.0000437
1.0000437
1.0000437
1.0000437
1.0000437
1.0000437
1.0000437
1.0000437
1.0000437
1.0000437
1.0000438
1.0000438
1.0000438
1.0000438
1.0000438
1.0000438
1.0000438
1.0000438
1.0000438
1.0000438
1.0000438
1.0000438
1.0000438
1.0000438
1.0000438
1.0000438
1.0000438
1.0000438
1.0000438
1.0000438
1.0000438
1.0000438
1.0000438
1.0000438
1.0000438
1.0000438
1.0000438
1.0000438
1.0000438
1.0000438
1.0000438
1.0000438
1.0000438
1.0000438
1.0000438
1.0000438
1.0000438
1.0000438
1.0000438
1.0000438
1.0000438
1.0000438
1.0000438
1.0000438
1.0000438
1.0000438
1.0000394
1.0000394
1.0000394
1.0000394
1.0000394
1.0000394
1.0000395
1.0000395
1.0000395
1.0000395
1.0000395
1.0000395
1.0000395
1.0000395
1.0000395
1.0000395
1.0000395
1.0000395
1.0000395
1.0000395
1.0000395
1.0000395
1.0000395
1.0000395
1.0000395
1.0000395
1.0000395
1.0000395
1.0000395
1.0000395
1.0000395
1.0000395
1.0000395
1.0000395
1.0000395
1.0000395
1.0000395
1.0000395
1.0000395
1.0000395
1.0000395
1.0000395
1.0000395
1.0000395
1.0000395
1.0000395
1.0000395
1.0000395
1.0000395
1.0000395
1.0000395
1.0000395
1.0000395
1.0000395
1.0000395
1.0000395
1.0000395
1.0000395
1.0000395
1.0000357
1.0000357
1.0000357
1.0000357
1.0000357
1.0000357
1.0000357
1.0000357
1.0000357
1.0000357
1.0000357
1.0000357
1.0000357
1.0000357
1.0000357
1.0000357
1.0000357
1.0000357
1.0000357
1.0000357
1.0000357
1.0000357
1.0000357
1.0000357
1.0000358
1.0000358
1.0000358
1.0000358
1.0000358
1.0000358
1.0000358
1.0000358
1.0000358
1.0000358
1.0000358
1.0000358
1.0000358
1.0000358
1.0000358
1.0000358
1.0000358
1.0000358
1.0000358
1.0000358
1.0000358
1.0000358
1.0000358
1.0000358
1.0000358
1.0000358
1.0000358
1.0000358
1.0000358
1.0000358
1.0000358
1.0000358
1.0000358
1.0000358
1.0000358
1.0001395
1.000155
1.0001724
1.0001913
1.000212
1.0002346
1.0002592
1.0002859
1.0003148
1.000346
1.0003794
1.0004153
1.0004535
1.000494
1.0005368
1.0005815
1.000628
1.0006759
1.0007246
1.0007736
1.0008221
1.0008692
1.000914
1.0009552
1.0009918
1.0010224
1.0010459
1.001061
1.001067
1.0010629
1.0010481
1.0010226
1.0009862
1.0009395
1.0008832
1.0008182
1.0007455
1.0006664
1.000582
1.0004936
1.0004025
1.0003097
1.0002163
1.0001232
1.0000313
0.99994116
0.99985322
0.9997678
0.99968536
0.99960621
0.99953049
0.99945826
0.99938958
0.99932444
0.99926289
0.99920487
0.99915021
0.99909879
0.99905051
0.99900522
0.9989628
0.99892308
0.99888593
0.99885124
0.99881886
0.99878867
0.99876053
0.9987343
0.99870988
0.99868714
0.99866598
0.99864627
0.99862797
0.99861088
1.0001395
1.000155
1.0001724
1.0001913
1.000212
1.0002346
1.0002592
1.0002859
1.0003148
1.000346
1.0003794
1.0004153
1.0004535
1.000494
1.0005368
1.0005815
1.000628
1.0006759
1.0007246
1.0007736
1.0008221
1.0008692
1.000914
1.0009552
1.0009918
1.0010224
1.0010459
1.001061
1.001067
1.0010629
1.0010481
1.0010226
1.0009862
1.0009395
1.0008832
1.0008182
1.0007455
1.0006664
1.000582
1.0004936
1.0004025
1.0003097
1.0002163
1.0001232
1.0000313
0.99994113
0.9998532
0.99976779
0.99968535
0.99960619
0.99953046
0.99945824
0.99938955
0.99932442
0.99926286
0.99920485
0.99915019
0.99909877
0.99905048
0.9990052
0.99896277
0.99892304
0.99888589
0.9988512
0.99881882
0.99878863
0.99876049
0.99873427
0.99870985
0.99868711
0.99866595
0.99864625
0.99862794
0.99861085
1.0001395
1.000155
1.0001724
1.0001913
1.000212
1.0002346
1.0002592
1.0002859
1.0003148
1.000346
1.0003794
1.0004153
1.0004535
1.000494
1.0005368
1.0005815
1.000628
1.0006759
1.0007246
1.0007736
1.0008221
1.0008692
1.000914
1.0009552
1.0009918
1.0010225
1.0010459
1.001061
1.0010671
1.0010629
1.0010481
1.0010226
1.0009863
1.0009396
1.0008832
1.0008182
1.0007455
1.0006664
1.000582
1.0004936
1.0004025
1.0003098
1.0002164
1.0001232
1.0000313
0.99994114
0.9998532
0.99976778
0.99968535
0.99960619
0.99953046
0.99945824
0.99938955
0.99932441
0.99926284
0.99920483
0.99915018
0.99909877
0.99905049
0.99900522
0.99896281
0.99892309
0.99888594
0.99885125
0.99881888
0.99878869
0.99876055
0.99873434
0.99870992
0.99868719
0.99866603
0.99864633
0.99862801
0.99861089
1.0001395
1.000155
1.0001724
1.0001913
1.000212
1.0002346
1.0002592
1.0002859
1.0003148
1.0003459
1.0003794
1.0004153
1.0004535
1.000494
1.0005368
1.0005815
1.000628
1.0006759
1.0007246
1.0007736
1.0008221
1.0008692
1.000914
1.0009552
1.0009918
1.0010225
1.0010459
1.0010611
1.0010671
1.0010629
1.0010482
1.0010226
1.0009863
1.0009396
1.0008833
1.0008183
1.0007456
1.0006665
1.0005821
1.0004937
1.0004026
1.0003098
1.0002164
1.0001233
1.0000314
0.9999412
0.99985325
0.99976784
0.99968541
0.99960626
0.99953053
0.9994583
0.99938962
0.99932448
0.99926293
0.9992049
0.99915024
0.99909881
0.99905052
0.99900523
0.9989628
0.99892307
0.99888592
0.99885124
0.99881887
0.99878868
0.99876055
0.99873434
0.99870993
0.9986872
0.99866604
0.99864636
0.99862805
0.99861101
1.0001395
1.000155
1.0001723
1.0001913
1.000212
1.0002346
1.0002592
1.0002859
1.0003148
1.0003459
1.0003794
1.0004153
1.0004535
1.000494
1.0005368
1.0005815
1.000628
1.0006758
1.0007246
1.0007736
1.0008221
1.0008692
1.000914
1.0009552
1.0009918
1.0010225
1.0010459
1.0010611
1.0010671
1.001063
1.0010482
1.0010227
1.0009864
1.0009397
1.0008834
1.0008184
1.0007457
1.0006666
1.0005822
1.0004939
1.0004027
1.00031
1.0002166
1.0001235
1.0000315
0.99994133
0.99985337
0.99976796
0.99968553
0.99960637
0.99953064
0.99945841
0.99938973
0.99932461
0.99926305
0.999205
0.99915032
0.9990989
0.99905061
0.99900532
0.9989629
0.99892319
0.99888606
0.99885138
0.99881902
0.99878884
0.99876071
0.9987345
0.99871009
0.99868736
0.99866621
0.99864652
0.9986282
0.99861115
1.0001395
1.000155
1.0001723
1.0001913
1.000212
1.0002346
1.0002592
1.0002859
1.0003148
1.0003459
1.0003794
1.0004153
1.0004535
1.000494
1.0005367
1.0005815
1.000628
1.0006758
1.0007246
1.0007736
1.0008221
1.0008692
1.000914
1.0009553
1.0009918
1.0010225
1.001046
1.0010612
1.0010672
1.0010631
1.0010484
1.0010229
1.0009866
1.0009399
1.0008836
1.0008186
1.0007459
1.0006668
1.0005825
1.0004941
1.000403
1.0003102
1.0002168
1.0001237
1.0000317
0.99994155
0.99985357
0.99976816
0.99968574
0.99960658
0.99953084
0.99945861
0.99938993
0.99932481
0.99926325
0.99920519
0.99915052
0.99909909
0.99905078
0.99900548
0.99896305
0.99892334
0.9988862
0.99885152
0.99881916
0.99878898
0.99876085
0.99873464
0.99871023
0.99868751
0.99866636
0.99864667
0.99862836
0.9986113
1.0001395
1.000155
1.0001723
1.0001913
1.000212
1.0002346
1.0002592
1.0002859
1.0003148
1.0003459
1.0003794
1.0004153
1.0004535
1.000494
1.0005367
1.0005815
1.000628
1.0006758
1.0007245
1.0007735
1.0008221
1.0008692
1.000914
1.0009553
1.0009919
1.0010226
1.001046
1.0010613
1.0010673
1.0010632
1.0010485
1.0010231
1.0009868
1.0009402
1.0008839
1.0008189
1.0007463
1.0006672
1.0005828
1.0004944
1.0004033
1.0003106
1.0002172
1.0001241
1.0000321
0.99994188
0.99985388
0.99976848
0.99968605
0.99960689
0.99953114
0.99945891
0.99939023
0.99932511
0.99926355
0.99920548
0.99915078
0.99909934
0.99905104
0.99900574
0.99896331
0.9989236
0.99888648
0.99885181
0.99881945
0.99878928
0.99876115
0.99873495
0.99871055
0.99868782
0.99866667
0.99864698
0.99862866
0.99861159
1.0001395
1.000155
1.0001723
1.0001913
1.000212
1.0002346
1.0002592
1.0002859
1.0003148
1.0003459
1.0003794
1.0004152
1.0004534
1.000494
1.0005367
1.0005814
1.0006279
1.0006758
1.0007245
1.0007735
1.000822
1.0008692
1.000914
1.0009553
1.0009919
1.0010226
1.0010461
1.0010614
1.0010675
1.0010634
1.0010488
1.0010233
1.0009871
1.0009405
1.0008843
1.0008193
1.0007467
1.0006676
1.0005833
1.0004949
1.0004038
1.0003111
1.0002177
1.0001246
1.0000326
0.99994236
0.99985435
0.99976895
0.99968652
0.99960735
0.99953159
0.99945935
0.99939067
0.99932556
0.99926399
0.9992059
0.9991512
0.99909975
0.99905144
0.99900613
0.9989637
0.99892398
0.99888686
0.99885218
0.99881983
0.99878965
0.99876152
0.99873531
0.9987109
0.99868817
0.99866702
0.99864732
0.998629
0.99861193
1.0001395
1.000155
1.0001723
1.0001913
1.000212
1.0002346
1.0002592
1.0002859
1.0003147
1.0003459
1.0003794
1.0004152
1.0004534
1.0004939
1.0005367
1.0005814
1.0006279
1.0006758
1.0007245
1.0007735
1.000822
1.0008692
1.000914
1.0009553
1.0009919
1.0010227
1.0010462
1.0010615
1.0010677
1.0010637
1.0010491
1.0010237
1.0009875
1.000941
1.0008848
1.0008199
1.0007473
1.0006683
1.0005839
1.0004956
1.0004045
1.0003118
1.0002184
1.0001253
1.0000333
0.99994306
0.99985503
0.99976962
0.99968719
0.99960801
0.99953224
0.99946
0.99939131
0.99932619
0.99926461
0.99920651
0.99915179
0.99910033
0.99905201
0.99900669
0.99896425
0.99892454
0.99888742
0.99885275
0.99882039
0.99879022
0.99876209
0.99873589
0.99871148
0.99868875
0.9986676
0.9986479
0.99862957
0.9986125
1.0001395
1.000155
1.0001723
1.0001913
1.000212
1.0002346
1.0002592
1.0002859
1.0003147
1.0003459
1.0003793
1.0004152
1.0004534
1.0004939
1.0005366
1.0005814
1.0006279
1.0006757
1.0007245
1.0007735
1.000822
1.0008692
1.000914
1.0009553
1.000992
1.0010228
1.0010464
1.0010617
1.001068
1.001064
1.0010495
1.0010242
1.0009881
1.0009417
1.0008856
1.0008207
1.0007482
1.0006692
1.0005849
1.0004966
1.0004055
1.0003128
1.0002194
1.0001263
1.0000343
0.99994404
0.99985599
0.99977057
0.99968813
0.99960894
0.99953316
0.9994609
0.9993922
0.99932707
0.99926548
0.99920737
0.99915263
0.99910116
0.99905283
0.99900751
0.99896505
0.99892533
0.99888821
0.99885353
0.99882117
0.99879099
0.99876286
0.99873664
0.99871223
0.99868949
0.99866833
0.99864862
0.99863029
0.99861321
1.0001395
1.000155
1.0001723
1.0001913
1.000212
1.0002346
1.0002592
1.0002858
1.0003147
1.0003458
1.0003793
1.0004152
1.0004534
1.0004939
1.0005366
1.0005813
1.0006278
1.0006757
1.0007244
1.0007734
1.0008219
1.0008691
1.000914
1.0009554
1.0009921
1.0010229
1.0010465
1.001062
1.0010683
1.0010645
1.0010501
1.0010249
1.0009889
1.0009426
1.0008866
1.0008218
1.0007493
1.0006704
1.0005862
1.0004979
1.0004068
1.0003141
1.0002208
1.0001277
1.0000357
0.99994539
0.99985733
0.99977189
0.99968944
0.99961023
0.99953444
0.99946216
0.99939344
0.9993283
0.99926669
0.99920856
0.9991538
0.99910231
0.99905396
0.99900863
0.99896616
0.99892643
0.9988893
0.99885462
0.99882226
0.99879207
0.99876393
0.99873772
0.9987133
0.99869056
0.99866939
0.99864968
0.99863133
0.99861424
1.0001395
1.000155
1.0001723
1.0001913
1.000212
1.0002345
1.0002591
1.0002858
1.0003147
1.0003458
1.0003793
1.0004151
1.0004533
1.0004938
1.0005365
1.0005813
1.0006277
1.0006756
1.0007243
1.0007734
1.0008219
1.0008691
1.000914
1.0009554
1.0009921
1.0010231
1.0010468
1.0010623
1.0010688
1.001065
1.0010508
1.0010257
1.0009899
1.0009437
1.0008879
1.0008232
1.0007509
1.000672
1.0005879
1.0004997
1.0004087
1.000316
1.0002227
1.0001296
1.0000376
0.99994724
0.99985915
0.9997737
0.99969122
0.99961199
0.99953618
0.99946388
0.99939514
0.99932998
0.99926835
0.99921019
0.99915541
0.99910389
0.99905553
0.99901017
0.99896769
0.99892795
0.99889081
0.99885611
0.99882374
0.99879354
0.99876539
0.99873916
0.99871473
0.99869197
0.99867079
0.99865107
0.99863271
0.99861561
1.0001395
1.000155
1.0001723
1.0001912
1.0002119
1.0002345
1.0002591
1.0002858
1.0003146
1.0003458
1.0003792
1.0004151
1.0004533
1.0004938
1.0005365
1.0005812
1.0006277
1.0006755
1.0007243
1.0007733
1.0008218
1.0008691
1.000914
1.0009554
1.0009923
1.0010233
1.0010471
1.0010628
1.0010694
1.0010658
1.0010517
1.0010269
1.0009913
1.0009453
1.0008896
1.0008251
1.0007529
1.0006742
1.0005901
1.000502
1.0004111
1.0003185
1.0002252
1.0001321
1.0000401
0.99994973
0.99986161
0.99977614
0.99969364
0.99961438
0.99953853
0.9994662
0.99939744
0.99933224
0.99927058
0.99921239
0.99915758
0.99910604
0.99905764
0.99901226
0.99896976
0.99893
0.99889283
0.99885812
0.99882573
0.99879552
0.99876735
0.99874111
0.99871666
0.9986939
0.9986727
0.99865296
0.99863459
0.99861747
1.0001395
1.0001549
1.0001723
1.0001912
1.0002119
1.0002345
1.0002591
1.0002857
1.0003146
1.0003457
1.0003792
1.000415
1.0004532
1.0004937
1.0005364
1.0005811
1.0006276
1.0006754
1.0007242
1.0007732
1.0008218
1.000869
1.000914
1.0009555
1.0009924
1.0010235
1.0010475
1.0010633
1.0010701
1.0010668
1.001053
1.0010284
1.000993
1.0009473
1.0008919
1.0008276
1.0007556
1.0006771
1.0005932
1.0005052
1.0004143
1.0003217
1.0002285
1.0001354
1.0000434
0.99995305
0.9998649
0.99977939
0.99969686
0.99961757
0.99954168
0.99946931
0.9994005
0.99933527
0.99927356
0.99921533
0.99916048
0.9991089
0.99906047
0.99901506
0.99897253
0.99893274
0.99889555
0.99886082
0.9988284
0.99879817
0.99876998
0.99874371
0.99871925
0.99869646
0.99867524
0.99865549
0.9986371
0.99861997
1.0001394
1.0001549
1.0001722
1.0001912
1.0002119
1.0002345
1.000259
1.0002857
1.0003146
1.0003457
1.0003791
1.0004149
1.0004531
1.0004936
1.0005363
1.000581
1.0006275
1.0006753
1.000724
1.0007731
1.0008217
1.000869
1.000914
1.0009555
1.0009926
1.0010238
1.0010479
1.001064
1.0010711
1.001068
1.0010545
1.0010303
1.0009953
1.0009499
1.0008948
1.0008309
1.0007591
1.0006808
1.0005971
1.0005093
1.0004185
1.0003261
1.0002328
1.0001398
1.0000478
0.99995742
0.99986925
0.9997837
0.99970113
0.99962179
0.99954585
0.99947342
0.99940456
0.99933927
0.99927752
0.99921924
0.99916433
0.99911271
0.99906423
0.99901877
0.9989762
0.99893637
0.99889914
0.99886438
0.99883193
0.99880166
0.99877344
0.99874714
0.99872265
0.99869983
0.99867859
0.99865881
0.99864039
0.99862323
1.0001394
1.0001549
1.0001722
1.0001912
1.0002119
1.0002344
1.000259
1.0002857
1.0003145
1.0003456
1.0003791
1.0004149
1.000453
1.0004935
1.0005362
1.0005809
1.0006273
1.0006752
1.0007239
1.0007729
1.0008216
1.0008689
1.0009139
1.0009556
1.0009928
1.0010242
1.0010486
1.0010649
1.0010723
1.0010696
1.0010565
1.0010327
1.0009982
1.0009533
1.0008986
1.000835
1.0007637
1.0006857
1.0006022
1.0005146
1.000424
1.0003317
1.0002385
1.0001456
1.0000535
0.99996315
0.99987494
0.99978935
0.99970673
0.99962732
0.99955132
0.99947883
0.9994099
0.99934454
0.99928271
0.99922436
0.99916939
0.9991177
0.99906916
0.99902365
0.99898103
0.99894115
0.99890387
0.99886906
0.99883656
0.99880625
0.998778
0.99875167
0.99872714
0.99870429
0.99868301
0.9986632
0.99864476
0.99862758
1.0001394
1.0001549
1.0001722
1.0001912
1.0002118
1.0002344
1.000259
1.0002856
1.0003145
1.0003456
1.000379
1.0004148
1.0004529
1.0004934
1.000536
1.0005807
1.0006272
1.000675
1.0007237
1.0007728
1.0008214
1.0008688
1.0009139
1.0009557
1.000993
1.0010247
1.0010493
1.001066
1.0010738
1.0010716
1.0010591
1.0010358
1.0010019
1.0009575
1.0009034
1.0008404
1.0007695
1.0006919
1.0006088
1.0005215
1.0004311
1.0003389
1.0002459
1.000153
1.000061
0.99997058
0.99988234
0.99979669
0.999714
0.99963452
0.99955843
0.99948585
0.99941683
0.99935138
0.99928947
0.99923103
0.99917597
0.9991242
0.99907558
0.99903
0.9989873
0.99894735