/*--------------------------------*- C++ -*----------------------------------*\
| =========                 |                                                 |
| \\      /  F ield         | OpenFOAM: The Open Source CFD Toolbox           |
|  \\    /   O peration     | Version:  v2006                                 |
|   \\  /    A nd           | Website:  www.openfoam.com                      |
|    \\/     M anipulation  |                                                 |
\*---------------------------------------------------------------------------*/
FoamFile
{
    version     2.0;
    format      ascii;
    class       volScalarField;
    location    "6000";
    object      rho;
}
// * * * * * * * * * * * * * * * * * * * * * * * * * * * * * * * * * * * * * //

dimensions      [1 -3 0 0 0 0 0];


internalField   nonuniform List<scalar> 
55713
(
1.0000227
1.0000215
1.0000208
1.0000205
1.0000204
1.0000204
1.0000204
1.0000204
1.0000204
1.0000204
1.0000204
1.0000204
1.0000204
1.0000205
1.0000205
1.0000205
1.0000205
1.0000205
1.0000205
1.0000205
1.0000205
1.0000205
1.0000205
1.0000205
1.0000205
1.0000205
1.0000205
1.0000205
1.0000205
1.0000205
1.0000205
1.0000205
1.0000205
1.0000205
1.0000205
1.0000205
1.0000205
1.0000205
1.0000205
1.0000205
1.0000205
1.0000205
1.0000205
1.0000205
1.0000205
1.0000204
1.0000204
1.0000204
1.0000204
1.0000204
1.0000204
1.0000204
1.0000204
1.0000204
1.0000204
1.0000204
1.0000204
1.0000204
1.0000204
1.0000211
1.0000199
1.0000193
1.0000191
1.000019
1.000019
1.000019
1.000019
1.000019
1.000019
1.000019
1.000019
1.0000191
1.0000191
1.0000191
1.0000191
1.0000191
1.0000191
1.0000191
1.0000191
1.0000191
1.0000191
1.0000191
1.0000191
1.0000191
1.0000191
1.0000191
1.0000191
1.0000191
1.0000191
1.0000191
1.0000191
1.0000191
1.0000191
1.0000191
1.0000191
1.0000191
1.0000191
1.0000191
1.0000191
1.0000191
1.0000191
1.0000191
1.0000191
1.0000191
1.0000191
1.0000191
1.0000191
1.0000191
1.0000191
1.0000191
1.0000191
1.000019
1.000019
1.000019
1.000019
1.000019
1.000019
1.000019
1.0000197
1.0000186
1.000018
1.0000178
1.0000178
1.0000178
1.0000178
1.0000178
1.0000179
1.0000178
1.0000178
1.0000178
1.0000179
1.0000179
1.0000179
1.0000179
1.0000179
1.0000179
1.0000179
1.0000179
1.0000179
1.0000179
1.0000179
1.0000179
1.0000179
1.0000179
1.0000179
1.0000179
1.0000179
1.0000179
1.0000179
1.0000179
1.0000179
1.0000179
1.0000179
1.0000179
1.0000179
1.0000179
1.0000179
1.0000179
1.0000179
1.0000179
1.0000179
1.0000179
1.0000179
1.0000179
1.0000179
1.0000179
1.0000179
1.0000179
1.0000179
1.0000179
1.0000179
1.0000179
1.0000178
1.0000178
1.0000178
1.0000178
1.0000178
1.0000184
1.0000174
1.0000169
1.0000168
1.0000167
1.0000168
1.0000168
1.0000168
1.0000168
1.0000168
1.0000168
1.0000168
1.0000168
1.0000168
1.0000168
1.0000168
1.0000168
1.0000168
1.0000168
1.0000168
1.0000168
1.0000168
1.0000168
1.0000168
1.0000169
1.0000169
1.0000169
1.0000169
1.0000169
1.0000169
1.0000169
1.0000169
1.0000169
1.0000169
1.0000169
1.0000169
1.0000169
1.0000169
1.0000169
1.0000169
1.0000168
1.0000168
1.0000169
1.0000169
1.0000169
1.0000168
1.0000168
1.0000168
1.0000168
1.0000168
1.0000168
1.0000168
1.0000168
1.0000168
1.0000168
1.0000168
1.0000168
1.0000168
1.0000168
1.0000173
1.0000164
1.0000159
1.0000158
1.0000158
1.0000159
1.0000159
1.0000159
1.0000159
1.0000159
1.0000159
1.0000159
1.0000159
1.0000159
1.0000159
1.0000159
1.0000159
1.0000159
1.0000159
1.0000159
1.0000159
1.0000159
1.0000159
1.0000159
1.000016
1.000016
1.000016
1.000016
1.000016
1.000016
1.000016
1.000016
1.000016
1.000016
1.0000159
1.000016
1.000016
1.000016
1.000016
1.0000159
1.0000159
1.0000159
1.000016
1.000016
1.000016
1.0000159
1.0000159
1.0000159
1.0000159
1.0000159
1.0000159
1.0000159
1.0000159
1.0000159
1.0000159
1.0000159
1.0000159
1.0000159
1.0000159
1.0000164
1.0000155
1.0000151
1.0000151
1.0000151
1.0000151
1.0000151
1.0000151
1.0000151
1.0000151
1.0000151
1.0000151
1.0000151
1.0000151
1.0000151
1.0000151
1.0000151
1.0000151
1.0000151
1.0000151
1.0000151
1.0000152
1.0000152
1.0000152
1.0000152
1.0000152
1.0000152
1.0000152
1.0000152
1.0000152
1.0000152
1.0000152
1.0000152
1.0000152
1.0000152
1.0000152
1.0000152
1.0000152
1.0000152
1.0000152
1.0000152
1.0000152
1.0000152
1.0000152
1.0000152
1.0000152
1.0000152
1.0000151
1.0000151
1.0000151
1.0000151
1.0000151
1.0000152
1.0000151
1.0000151
1.0000151
1.0000151
1.0000151
1.0000151
1.0000155
1.0000147
1.0000144
1.0000144
1.0000144
1.0000144
1.0000144
1.0000144
1.0000144
1.0000144
1.0000144
1.0000144
1.0000144
1.0000144
1.0000144
1.0000144
1.0000144
1.0000144
1.0000144
1.0000144
1.0000144
1.0000145
1.0000145
1.0000145
1.0000145
1.0000145
1.0000145
1.0000145
1.0000145
1.0000145
1.0000145
1.0000145
1.0000145
1.0000145
1.0000145
1.0000145
1.0000145
1.0000145
1.0000145
1.0000145
1.0000145
1.0000145
1.0000145
1.0000145
1.0000145
1.0000145
1.0000145
1.0000144
1.0000144
1.0000144
1.0000144
1.0000144
1.0000144
1.0000145
1.0000144
1.0000144
1.0000144
1.0000144
1.0000144
1.0000147
1.0000139
1.0000137
1.0000137
1.0000138
1.0000138
1.0000138
1.0000138
1.0000138
1.0000138
1.0000138
1.0000138
1.0000138
1.0000138
1.0000138
1.0000138
1.0000138
1.0000138
1.0000138
1.0000138
1.0000138
1.0000138
1.0000138
1.0000138
1.0000138
1.0000139
1.0000139
1.0000139
1.0000139
1.0000139
1.0000139
1.0000139
1.0000138
1.0000138
1.0000138
1.0000138
1.0000138
1.0000138
1.0000138
1.0000138
1.0000138
1.0000138
1.0000138
1.0000138
1.0000138
1.0000138
1.0000138
1.0000138
1.0000138
1.0000138
1.0000138
1.0000138
1.0000138
1.0000138
1.0000138
1.0000137
1.0000138
1.0000138
1.0000138
1.0000143
1.0000136
1.0000134
1.0000134
1.0000135
1.0000135
1.0000135
1.0000135
1.0000135
1.0000135
1.0000135
1.0000135
1.0000135
1.0000135
1.0000135
1.0000135
1.0000135
1.0000135
1.0000135
1.0000135
1.0000135
1.0000135
1.0000136
1.0000136
1.0000136
1.0000136
1.0000136
1.0000136
1.0000136
1.0000136
1.0000136
1.0000136
1.0000136
1.0000136
1.0000135
1.0000135
1.0000135
1.0000135
1.0000136
1.0000136
1.0000135
1.0000135
1.0000135
1.0000135
1.0000135
1.0000136
1.0000135
1.0000135
1.0000135
1.0000135
1.0000135
1.0000135
1.0000135
1.0000135
1.0000135
1.0000134
1.0000135
1.0000135
1.0000135
1.0000139
1.0000132
1.0000132
1.0000132
1.0000133
1.0000133
1.0000133
1.0000132
1.0000132
1.0000133
1.0000133
1.0000133
1.0000133
1.0000133
1.0000133
1.0000133
1.0000133
1.0000133
1.0000133
1.0000133
1.0000133
1.0000133
1.0000133
1.0000134
1.0000134
1.0000134
1.0000134
1.0000134
1.0000134
1.0000134
1.0000134
1.0000134
1.0000134
1.0000134
1.0000133
1.0000133
1.0000133
1.0000133
1.0000133
1.0000134
1.0000134
1.0000133
1.0000133
1.0000133
1.0000134
1.0000134
1.0000133
1.0000133
1.0000133
1.0000133
1.0000133
1.0000133
1.0000133
1.0000133
1.0000133
1.0000133
1.0000133
1.0000133
1.0000133
1.0000123
1.0000117
1.0000117
1.0000117
1.0000117
1.0000118
1.0000117
1.0000117
1.0000117
1.0000118
1.0000118
1.0000118
1.0000118
1.0000118
1.0000118
1.0000118
1.0000118
1.0000118
1.0000118
1.0000118
1.0000118
1.0000118
1.0000119
1.0000119
1.0000119
1.0000119
1.0000119
1.0000119
1.0000119
1.0000119
1.0000119
1.0000119
1.0000119
1.0000119
1.0000118
1.0000118
1.0000118
1.0000118
1.0000118
1.0000118
1.0000119
1.0000118
1.0000118
1.0000118
1.0000118
1.0000118
1.0000118
1.0000118
1.0000118
1.0000118
1.0000118
1.0000118
1.0000118
1.0000117
1.0000118
1.0000117
1.0000117
1.0000118
1.0000118
1.0000123
1.0000115
1.0000118
1.0000116
1.0000116
1.0000118
1.0000116
1.0000116
1.0000117
1.0000118
1.0000118
1.0000117
1.0000117
1.0000117
1.0000117
1.0000118
1.0000117
1.0000117
1.0000117
1.0000117
1.0000117
1.0000118
1.0000118
1.0000118
1.0000118
1.0000118
1.0000118
1.0000118
1.0000118
1.0000118
1.0000118
1.0000118
1.0000118
1.0000117
1.0000117
1.0000117
1.0000117
1.0000117
1.0000117
1.0000117
1.0000117
1.0000117
1.0000117
1.0000116
1.0000117
1.0000117
1.0000117
1.0000117
1.0000116
1.0000116
1.0000116
1.0000116
1.0000117
1.0000115
1.0000116
1.0000115
1.0000113
1.0000116
1.0000116
1.00002
1.0000195
1.0000199
1.0000196
1.0000199
1.0000199
1.0000196
1.0000198
1.0000198
1.0000198
1.0000198
1.0000196
1.0000196
1.0000197
1.0000198
1.0000197
1.0000197
1.0000197
1.0000196
1.0000197
1.0000197
1.0000197
1.0000197
1.0000197
1.0000197
1.0000197
1.0000197
1.0000197
1.0000197
1.0000197
1.0000197
1.0000197
1.0000197
1.0000197
1.0000197
1.0000197
1.0000197
1.0000196
1.0000197
1.0000197
1.0000197
1.0000198
1.0000198
1.0000197
1.0000197
1.0000197
1.0000197
1.0000198
1.0000198
1.0000197
1.0000197
1.0000197
1.0000198
1.0000197
1.0000197
1.0000199
1.0000195
1.0000198
1.0000198
1.0000112
1.0000124
1.0000118
1.0000124
1.0000118
1.0000116
1.000012
1.0000119
1.0000119
1.0000119
1.0000119
1.0000121
1.0000122
1.0000121
1.000012
1.0000121
1.0000122
1.0000123
1.0000124
1.0000125
1.0000125
1.0000125
1.0000125
1.0000125
1.0000125
1.0000125
1.0000125
1.0000125
1.0000125
1.0000125
1.0000125
1.0000125
1.0000125
1.0000125
1.0000125
1.0000125
1.0000125
1.0000124
1.0000122
1.0000121
1.000012
1.0000118
1.0000117
1.0000117
1.0000116
1.0000116
1.0000117
1.0000118
1.0000118
1.0000119
1.0000118
1.0000118
1.0000116
1.0000118
1.0000118
1.0000118
1.0000124
1.0000115
1.0000115
1.0000794
1.0000794
1.0000795
1.0000795
1.0000795
1.0000795
1.0000796
1.0000796
1.0000796
1.0000796
1.0000796
1.0000797
1.0000797
1.0000797
1.0000797
1.0000798
1.0000798
1.0000798
1.0000798
1.0000799
1.0000799
1.0000799
1.0000799
1.00008
1.00008
1.00008
1.00008
1.00008
1.00008
1.0000801
1.0000801
1.0000801
1.0000801
1.0000801
1.0000801
1.0000801
1.0000801
1.0000801
1.0000801
1.0000802
1.0000802
1.0000802
1.0000802
1.0000802
1.0000802
1.0000802
1.0000802
1.0000802
1.0000802
1.0000802
1.0000802
1.0000802
1.0000803
1.0000806
1.0000811
1.000082
1.0000837
1.0000866
1.0000904
1.0000727
1.0000727
1.0000728
1.0000728
1.0000728
1.0000728
1.0000728
1.0000729
1.0000729
1.0000729
1.0000729
1.0000729
1.000073
1.000073
1.000073
1.000073
1.000073
1.0000731
1.0000731
1.0000731
1.0000731
1.0000731
1.0000732
1.0000732
1.0000732
1.0000732
1.0000732
1.0000732
1.0000732
1.0000733
1.0000733
1.0000733
1.0000733
1.0000733
1.0000733
1.0000733
1.0000733
1.0000733
1.0000733
1.0000733
1.0000733
1.0000733
1.0000733
1.0000733
1.0000733
1.0000733
1.0000734
1.0000733
1.0000733
1.0000733
1.0000734
1.0000734
1.0000735
1.0000737
1.0000742
1.000075
1.0000766
1.0000793
1.0000828
1.0000665
1.0000665
1.0000665
1.0000665
1.0000666
1.0000666
1.0000666
1.0000666
1.0000666
1.0000667
1.0000667
1.0000667
1.0000667
1.0000667
1.0000667
1.0000667
1.0000668
1.0000668
1.0000668
1.0000668
1.0000668
1.0000668
1.0000669
1.0000669
1.0000669
1.0000669
1.0000669
1.0000669
1.0000669
1.000067
1.000067
1.000067
1.000067
1.000067
1.000067
1.000067
1.000067
1.000067
1.000067
1.000067
1.000067
1.000067
1.000067
1.000067
1.000067
1.000067
1.000067
1.000067
1.000067
1.000067
1.000067
1.000067
1.0000671
1.0000673
1.0000677
1.0000685
1.0000699
1.0000724
1.0000756
1.0000607
1.0000607
1.0000607
1.0000607
1.0000607
1.0000607
1.0000607
1.0000608
1.0000608
1.0000608
1.0000608
1.0000608
1.0000608
1.0000608
1.0000609
1.0000609
1.0000609
1.0000609
1.0000609
1.0000609
1.0000609
1.000061
1.000061
1.000061
1.000061
1.000061
1.000061
1.000061
1.000061
1.000061
1.0000611
1.0000611
1.0000611
1.0000611
1.0000611
1.0000611
1.0000611
1.0000611
1.0000611
1.0000611
1.0000611
1.0000611
1.0000611
1.0000611
1.0000611
1.0000611
1.0000611
1.0000611
1.0000611
1.0000611
1.0000611
1.0000611
1.0000612
1.0000613
1.0000617
1.0000624
1.0000637
1.000066
1.0000689
1.0000552
1.0000552
1.0000553
1.0000553
1.0000553
1.0000553
1.0000553
1.0000553
1.0000553
1.0000554
1.0000554
1.0000554
1.0000554
1.0000554
1.0000554
1.0000554
1.0000554
1.0000554
1.0000555
1.0000555
1.0000555
1.0000555
1.0000555
1.0000555
1.0000555
1.0000555
1.0000555
1.0000555
1.0000556
1.0000556
1.0000556
1.0000556
1.0000556
1.0000556
1.0000556
1.0000556
1.0000556
1.0000556
1.0000556
1.0000556
1.0000556
1.0000556
1.0000556
1.0000556
1.0000556
1.0000556
1.0000556
1.0000556
1.0000556
1.0000556
1.0000556
1.0000556
1.0000557
1.0000558
1.0000561
1.0000567
1.0000579
1.00006
1.0000627
1.0000502
1.0000502
1.0000502
1.0000502
1.0000502
1.0000502
1.0000503
1.0000503
1.0000503
1.0000503
1.0000503
1.0000503
1.0000503
1.0000503
1.0000503
1.0000503
1.0000504
1.0000504
1.0000504
1.0000504
1.0000504
1.0000504
1.0000504
1.0000504
1.0000504
1.0000504
1.0000505
1.0000505
1.0000505
1.0000505
1.0000505
1.0000505
1.0000505
1.0000505
1.0000505
1.0000505
1.0000505
1.0000505
1.0000505
1.0000505
1.0000505
1.0000505
1.0000505
1.0000505
1.0000505
1.0000505
1.0000505
1.0000505
1.0000505
1.0000505
1.0000505
1.0000505
1.0000505
1.0000506
1.0000509
1.0000515
1.0000526
1.0000545
1.0000569
1.0000455
1.0000455
1.0000455
1.0000456
1.0000456
1.0000456
1.0000456
1.0000456
1.0000456
1.0000456
1.0000456
1.0000456
1.0000456
1.0000456
1.0000456
1.0000457
1.0000457
1.0000457
1.0000457
1.0000457
1.0000457
1.0000457
1.0000457
1.0000457
1.0000457
1.0000457
1.0000458
1.0000458
1.0000458
1.0000458
1.0000458
1.0000458
1.0000458
1.0000458
1.0000458
1.0000458
1.0000458
1.0000458
1.0000458
1.0000458
1.0000458
1.0000458
1.0000458
1.0000458
1.0000458
1.0000458
1.0000458
1.0000458
1.0000458
1.0000458
1.0000457
1.0000458
1.0000458
1.0000459
1.0000461
1.0000466
1.0000476
1.0000494
1.0000516
1.0000412
1.0000412
1.0000412
1.0000412
1.0000413
1.0000413
1.0000413
1.0000413
1.0000413
1.0000413
1.0000413
1.0000413
1.0000413
1.0000413
1.0000413
1.0000413
1.0000414
1.0000414
1.0000414
1.0000414
1.0000414
1.0000414
1.0000414
1.0000414
1.0000414
1.0000414
1.0000414
1.0000414
1.0000414
1.0000414
1.0000414
1.0000414
1.0000414
1.0000414
1.0000414
1.0000414
1.0000414
1.0000414
1.0000414
1.0000414
1.0000414
1.0000414
1.0000414
1.0000414
1.0000414
1.0000414
1.0000414
1.0000414
1.0000414
1.0000414
1.0000414
1.0000414
1.0000414
1.0000415
1.0000417
1.0000421
1.000043
1.0000446
1.0000467
1.0000373
1.0000373
1.0000373
1.0000373
1.0000373
1.0000373
1.0000373
1.0000373
1.0000373
1.0000373
1.0000373
1.0000373
1.0000373
1.0000373
1.0000374
1.0000374
1.0000374
1.0000374
1.0000374
1.0000374
1.0000374
1.0000374
1.0000374
1.0000374
1.0000374
1.0000374
1.0000374
1.0000374
1.0000374
1.0000375
1.0000375
1.0000375
1.0000374
1.0000374
1.0000374
1.0000374
1.0000374
1.0000374
1.0000374
1.0000374
1.0000374
1.0000375
1.0000375
1.0000374
1.0000374
1.0000374
1.0000374
1.0000374
1.0000374
1.0000374
1.0000374
1.0000374
1.0000374
1.0000375
1.0000376
1.000038
1.0000388
1.0000403
1.0000421
1.0000336
1.0000336
1.0000336
1.0000337
1.0000337
1.0000337
1.0000337
1.0000337
1.0000337
1.0000337
1.0000337
1.0000337
1.0000337
1.0000337
1.0000337
1.0000337
1.0000337
1.0000337
1.0000337
1.0000337
1.0000338
1.0000338
1.0000338
1.0000338
1.0000338
1.0000338
1.0000338
1.0000338
1.0000338
1.0000338
1.0000338
1.0000338
1.0000338
1.0000338
1.0000338
1.0000338
1.0000338
1.0000338
1.0000338
1.0000338
1.0000338
1.0000338
1.0000338
1.0000338
1.0000338
1.0000338
1.0000338
1.0000338
1.0000338
1.0000338
1.0000338
1.0000337
1.0000338
1.0000338
1.0000339
1.0000342
1.0000349
1.0000363
1.000038
1.0000303
1.0000303
1.0000303
1.0000303
1.0000303
1.0000304
1.0000304
1.0000304
1.0000304
1.0000304
1.0000304
1.0000304
1.0000304
1.0000304
1.0000304
1.0000304
1.0000304
1.0000304
1.0000304
1.0000304
1.0000304
1.0000304
1.0000305
1.0000305
1.0000305
1.0000305
1.0000305
1.0000305
1.0000305
1.0000305
1.0000305
1.0000305
1.0000305
1.0000305
1.0000305
1.0000305
1.0000305
1.0000305
1.0000305
1.0000305
1.0000305
1.0000305
1.0000305
1.0000305
1.0000305
1.0000305
1.0000304
1.0000304
1.0000304
1.0000304
1.0000304
1.0000304
1.0000304
1.0000304
1.0000305
1.0000308
1.0000314
1.0000326
1.0000342
1.0000273
1.0000273
1.0000273
1.0000273
1.0000273
1.0000273
1.0000273
1.0000273
1.0000274
1.0000274
1.0000274
1.0000274
1.0000274
1.0000274
1.0000274
1.0000274
1.0000274
1.0000274
1.0000274
1.0000274
1.0000274
1.0000274
1.0000274
1.0000274
1.0000274
1.0000274
1.0000274
1.0000274
1.0000274
1.0000275
1.0000275
1.0000275
1.0000274
1.0000274
1.0000274
1.0000274
1.0000274
1.0000274
1.0000274
1.0000274
1.0000274
1.0000274
1.0000274
1.0000274
1.0000274
1.0000274
1.0000274
1.0000274
1.0000274
1.0000274
1.0000274
1.0000274
1.0000274
1.0000274
1.0000275
1.0000277
1.0000282
1.0000293
1.0000308
1.0000246
1.0000246
1.0000246
1.0000246
1.0000246
1.0000246
1.0000246
1.0000246
1.0000246
1.0000246
1.0000246
1.0000246
1.0000246
1.0000246
1.0000246
1.0000247
1.0000247
1.0000247
1.0000247
1.0000247
1.0000247
1.0000247
1.0000247
1.0000247
1.0000247
1.0000247
1.0000247
1.0000247
1.0000247
1.0000247
1.0000247
1.0000247
1.0000247
1.0000247
1.0000247
1.0000247
1.0000247
1.0000247
1.0000247
1.0000247
1.0000247
1.0000247
1.0000247
1.0000247
1.0000247
1.0000247
1.0000247
1.0000247
1.0000247
1.0000247
1.0000247
1.0000246
1.0000246
1.0000246
1.0000247
1.0000248
1.0000253
1.0000262
1.0000276
1.0000222
1.0000222
1.0000222
1.0000222
1.0000222
1.0000222
1.0000222
1.0000222
1.0000222
1.0000222
1.0000222
1.0000222
1.0000222
1.0000223
1.0000223
1.0000223
1.0000223
1.0000223
1.0000223
1.0000223
1.0000223
1.0000223
1.0000223
1.0000223
1.0000223
1.0000223
1.0000223
1.0000223
1.0000223
1.0000223
1.0000223
1.0000223
1.0000223
1.0000223
1.0000223
1.0000223
1.0000223
1.0000223
1.0000223
1.0000223
1.0000223
1.0000223
1.0000223
1.0000223
1.0000223
1.0000223
1.0000223
1.0000223
1.0000223
1.0000223
1.0000223
1.0000223
1.0000222
1.0000222
1.0000223
1.0000224
1.0000227
1.0000236
1.0000249
1.0000996
1.0001107
1.0001232
1.0001368
1.0001517
1.0001679
1.0001856
1.0002048
1.0002256
1.0002479
1.0002719
1.0002976
1.0003248
1.0003536
1.0003838
1.0004151
1.0004474
1.0004803
1.0005134
1.000546
1.0005775
1.0006072
1.0006342
1.0006576
1.0006761
1.000689
1.0006952
1.0006938
1.0006838
1.0006646
1.0006363
1.0005974
1.0005502
1.0004939
1.0004291
1.0003564
1.000278
1.0001933
1.0001042
1.0000124
0.999919
0.99982493
0.99973065
0.99963783
0.99954686
0.99945789
0.99937073
0.99928597
0.99920466
0.99912681
0.99905275
0.9989824
0.99891562
0.99885245
0.99879316
0.99873742
0.9986848
0.99863539
0.99858908
0.99854578
0.99850519
0.99846715
0.99843175
0.99839881
0.99836814
0.9983396
0.99831308
0.99828844
0.99826556
0.99824432
0.99822462
0.99820634
0.99818943
0.99817367
1.0000954
1.0001062
1.0001184
1.0001317
1.0001462
1.0001621
1.0001794
1.0001981
1.0002184
1.0002403
1.0002637
1.0002888
1.0003155
1.0003436
1.0003732
1.0004041
1.0004359
1.0004683
1.000501
1.0005334
1.0005648
1.0005945
1.0006218
1.0006456
1.0006649
1.0006788
1.0006863
1.0006865
1.0006786
1.0006617
1.000636
1.0006008
1.0005564
1.0005034
1.0004423
1.0003741
1.0002998
1.00022
1.0001355
1.0000479
0.99995837
0.99986783
0.99977697
0.99968723
0.9995989
0.9995124
0.99942629
0.99934386
0.99926521
0.99918998
0.9991181
0.99904966
0.99898464
0.99892307
0.99886545
0.99881129
0.99876008
0.99871192
0.99866672
0.99862443
0.99858469
0.99854741
0.9985127
0.99848038
0.99845027
0.99842225
0.9983962
0.99837199
0.9983495
0.99832863
0.99830927
0.9982913
0.99827468
0.99825917
1.0000922
1.0001027
1.0001145
1.0001275
1.0001416
1.0001571
1.0001739
1.0001921
1.0002118
1.0002331
1.0002559
1.0002803
1.0003063
1.0003337
1.0003626
1.0003926
1.0004236
1.0004553
1.0004873
1.000519
1.0005498
1.0005791
1.000606
1.0006297
1.0006491
1.0006633
1.0006713
1.0006725
1.0006659
1.0006507
1.0006269
1.0005944
1.0005529
1.000503
1.0004454
1.0003809
1.0003105
1.0002348
1.000155
1.0000721
0.9999873
0.99990151
0.99981531
0.99972998
0.99964619
0.99956419
0.99948391
0.99940582
0.9993308
0.99925891
0.99919017
0.99912473
0.99906238
0.99900394
0.99894969
0.99889785
0.99884829
0.99880165
0.99875793
0.99871716
0.99867852
0.99864224
0.99860861
0.99857739
0.99854838
0.99852143
0.9984964
0.99847317
0.99845161
0.99843162
0.99841314
0.99839599
0.99838011
0.99836532
1.0000904
1.0001006
1.0001121
1.0001248
1.0001386
1.0001536
1.00017
1.0001878
1.0002071
1.0002278
1.0002501
1.0002739
1.0002992
1.000326
1.0003541
1.0003834
1.0004136
1.0004445
1.0004757
1.0005066
1.0005366
1.0005651
1.0005913
1.0006144
1.0006333
1.0006472
1.0006551
1.0006563
1.00065
1.0006353
1.0006123
1.0005809
1.0005408
1.0004927
1.0004371
1.0003748
1.0003069
1.000234
1.000157
1.0000773
0.9999958
0.99991341
0.99983074
0.99974886
0.99966845
0.99958975
0.9995129
0.99943825
0.99936657
0.99929789
0.99923224
0.99916973
0.99911031
0.99905411
0.99900131
0.99895163
0.99890472
0.99886061
0.99881921
0.99878048
0.99874413
0.99871005
0.99867834
0.99864882
0.99862133
0.99859574
0.99857196
0.99854985
0.99852932
0.99851027
0.99849257
0.99847616
0.99846087
0.9984468
1.0000893
1.0000994
1.0001107
1.0001231
1.0001367
1.0001514
1.0001675
1.000185
1.0002039
1.0002242
1.0002461
1.0002694
1.0002942
1.0003204
1.0003479
1.0003766
1.0004062
1.0004363
1.0004667
1.0004968
1.0005261
1.0005538
1.0005793
1.0006016
1.0006198
1.000633
1.0006403
1.0006411
1.0006344
1.0006195
1.0005965
1.0005651
1.0005253
1.0004777
1.0004228
1.0003613
1.0002944
1.0002226
1.000147
1.0000687
0.99998882
0.99990811
0.99982723
0.99974719
0.99966862
0.99959178
0.99951683
0.99944412
0.99937433
0.99930753
0.99924373
0.99918301
0.99912537
0.99907085
0.99901957
0.99897131
0.99892586
0.99888312
0.99884306
0.99880557
0.99877046
0.99873757
0.99870694
0.99867842
0.99865187
0.99862711
0.99860433
0.99858323
0.9985636
0.99854534
0.99852836
0.99851257
0.99849793
0.9984843
1.0000887
1.0000987
1.0001099
1.0001221
1.0001355
1.0001501
1.000166
1.0001832
1.0002018
1.0002218
1.0002434
1.0002663
1.0002907
1.0003165
1.0003436
1.0003717
1.0004008
1.0004304
1.0004601
1.0004896
1.0005182
1.0005452
1.0005699
1.0005915
1.000609
1.0006216
1.0006282
1.0006283
1.000621
1.0006056
1.0005821
1.0005504
1.0005103
1.0004625
1.0004075
1.000346
1.0002791
1.0002075
1.0001322
1.0000543
0.99997478
0.99989455
0.99981422
0.99973477
0.9996568
0.9995806
0.99950635
0.9994344
0.99936533
0.99929925
0.99923618
0.99917618
0.99911926
0.99906545
0.99901483
0.99896721
0.99892237
0.99888023
0.99884072
0.99880376
0.99876917
0.99873682
0.99870666
0.99867859
0.99865247
0.99862817
0.99860558
0.99858459
0.9985651
0.99854701
0.99853023
0.99851466
0.99850023
0.99848685
1.0000884
1.0000983
1.0001094
1.0001215
1.0001348
1.0001493
1.000165
1.000182
1.0002004
1.0002203
1.0002415
1.0002643
1.0002884
1.0003138
1.0003405
1.0003683
1.0003969
1.0004261
1.0004554
1.0004843
1.0005124
1.0005388
1.000563
1.0005839
1.0006008
1.0006128
1.0006188
1.0006183
1.0006104
1.0005944
1.0005704
1.0005382
1.0004976
1.0004494
1.000394
1.0003322
1.000265
1.0001932
1.0001176
1.0000396
0.99995996
0.99987965
0.99979929
0.99971981
0.99964182
0.99956563
0.99949145
0.9994196
0.99935062
0.99928464
0.99922168
0.99916181
0.99910504
0.99905138
0.99900086
0.99895333
0.99890861
0.9988666
0.99882724
0.9987904
0.99875596
0.99872376
0.99869373
0.99866579
0.99863977
0.99861557
0.99859307
0.99857217
0.99855277
0.99853476
0.99851805
0.99850256
0.9984882
0.99847488
1.0000883
1.0000981
1.0001091
1.0001212
1.0001344
1.0001487
1.0001643
1.0001813
1.0001996
1.0002192
1.0002403
1.0002628
1.0002868
1.000312
1.0003384
1.0003659
1.0003942
1.000423
1.0004519
1.0004805
1.0005081
1.0005342
1.0005579
1.0005783
1.0005947
1.0006062
1.0006117
1.0006107
1.0006024
1.0005859
1.0005614
1.0005287
1.0004878
1.0004391
1.0003833
1.0003212
1.0002537
1.0001815
1.0001057
1.0000274
0.99994748
0.99986693
0.99978638
0.9997067
0.99962852
0.99955214
0.99947781
0.99940587
0.99933678
0.9992707
0.99920765
0.9991477
0.99909086
0.99903714
0.99898653
0.99893893
0.99889415
0.99885211
0.9988127
0.99877582
0.99874134
0.99870913
0.99867909
0.99865111
0.99862508
0.99860086
0.99857835
0.99855745
0.99853803
0.99852002
0.99850331
0.99848781
0.99847344
0.99846012
1.0000882
1.000098
1.000109
1.000121
1.0001341
1.0001484
1.000164
1.0001808
1.000199
1.0002185
1.0002395
1.0002619
1.0002856
1.0003107
1.0003369
1.0003642
1.0003923
1.0004208
1.0004495
1.0004778
1.0005051
1.0005308
1.0005542
1.0005743
1.0005903
1.0006014
1.0006066
1.0006052
1.0005965
1.0005797
1.0005549
1.0005218
1.0004806
1.0004316
1.0003755
1.0003131
1.0002453
1.0001729
1.0000969
1.0000183
0.99993821
0.99985746
0.99977673
0.99969687
0.99961849
0.99954193
0.99946746
0.99939541
0.99932621
0.99926
0.99919684
0.99913679
0.99907987
0.99902607
0.99897537
0.99892766
0.9988828
0.99884068
0.99880122
0.99876428
0.99872976
0.99869752
0.99866746
0.99863946
0.99861339
0.99858915
0.99856662
0.99854569
0.99852625
0.99850821
0.99849148
0.99847596
0.99846157
0.99844823
1.0000882
1.0000979
1.0001089
1.0001209
1.000134
1.0001482
1.0001637
1.0001805
1.0001986
1.0002181
1.000239
1.0002612
1.0002849
1.0003098
1.0003359
1.000363
1.0003909
1.0004193
1.0004478
1.0004758
1.0005029
1.0005284
1.0005515
1.0005714
1.0005872
1.000598
1.0006029
1.0006013
1.0005924
1.0005753
1.0005503
1.000517
1.0004756
1.0004264
1.0003702
1.0003076
1.0002396
1.000167
1.0000908
1.0000121
0.99993192
0.99985104
0.9997702
0.99969022
0.9996117
0.99953501
0.99946045
0.99938833
0.99931905
0.99925276
0.99918953
0.99912941
0.99907243
0.99901857
0.99896779
0.99892001
0.99887509
0.99883292
0.99879341
0.99875644
0.99872188
0.99868961
0.99865952
0.99863149
0.9986054
0.99858113
0.99855857
0.99853761
0.99851816
0.9985001
0.99848335
0.99846782
0.99845342
0.99844006
1.0000882
1.0000979
1.0001089
1.0001208
1.0001339
1.0001481
1.0001635
1.0001803
1.0001983
1.0002178
1.0002386
1.0002608
1.0002843
1.0003092
1.0003352
1.0003622
1.00039
1.0004182
1.0004465
1.0004744
1.0005014
1.0005267
1.0005496
1.0005693
1.000585
1.0005956
1.0006004
1.0005986
1.0005895
1.0005723
1.0005472
1.0005139
1.0004723
1.0004231
1.0003667
1.0003041
1.000236
1.0001634
1.0000871
1.0000084
0.99992807
0.99984711
0.99976622
0.99968616
0.99960755
0.99953078
0.99945616
0.99938401
0.99931468
0.99924834
0.99918506
0.9991249
0.99906788
0.99901398
0.99896315
0.99891531
0.99887035
0.99882815
0.9987886
0.9987516
0.99871702
0.99868474
0.99865464
0.9986266
0.9986005
0.99857622
0.99855366
0.99853269
0.99851323
0.99849516
0.9984784
0.99846285
0.99844844
0.99843508
1.0000882
1.0000979
1.0001088
1.0001208
1.0001338
1.000148
1.0001634
1.0001801
1.0001982
1.0002176
1.0002383
1.0002605
1.000284
1.0003087
1.0003347
1.0003616
1.0003893
1.0004174
1.0004456
1.0004734
1.0005003
1.0005255
1.0005483
1.0005679
1.0005834
1.000594
1.0005987
1.0005969
1.0005877
1.0005705
1.0005453
1.000512
1.0004704
1.0004212
1.0003649
1.0003022
1.0002341
1.0001615
1.0000852
1.0000064
0.99992614
0.99984515
0.99976423
0.99968414
0.99960547
0.99952864
0.99945399
0.99938182
0.99931246
0.99924608
0.99918277
0.99912258
0.99906553
0.99901159
0.99896073
0.99891285
0.99886785
0.99882562
0.99878605
0.99874903
0.99871443
0.99868214
0.99865202
0.99862397
0.99859785
0.99857356
0.99855098
0.99853
0.99851053
0.99849245
0.99847568
0.99846013
0.99844571
0.99843234
1.0000882
1.0000979
1.0001088
1.0001208
1.0001338
1.000148
1.0001634
1.00018
1.000198
1.0002174
1.0002381
1.0002602
1.0002837
1.0003084
1.0003343
1.0003611
1.0003888
1.0004168
1.000445
1.0004727
1.0004995
1.0005246
1.0005474
1.0005669
1.0005824
1.000593
1.0005976
1.0005959
1.0005867
1.0005695
1.0005444
1.0005111
1.0004696
1.0004205
1.0003642
1.0003016
1.0002336
1.000161
1.0000848
1.0000061
0.99992577
0.99984478
0.99976387
0.99968375
0.99960505
0.99952817
0.99945349
0.99938131
0.99931192
0.99924551
0.99918217
0.99912195
0.99906487
0.9990109
0.99896
0.99891208
0.99886704
0.99882478
0.99878519
0.99874815
0.99871353
0.99868122
0.99865109
0.99862303
0.9985969
0.9985726
0.99855001
0.99852902
0.99850954
0.99849145
0.99847467
0.99845911
0.99844468
0.9984313
1.0000882
1.0000979
1.0001088
1.0001208
1.0001338
1.0001479
1.0001633
1.00018
1.000198
1.0002173
1.000238
1.0002601
1.0002835
1.0003082
1.000334
1.0003608
1.0003884
1.0004164
1.0004445
1.0004722
1.0004989
1.000524
1.0005468
1.0005663
1.0005818
1.0005924
1.000597
1.0005955
1.0005863
1.0005692
1.0005442
1.0005111
1.0004698
1.0004208
1.0003647
1.0003022
1.0002343
1.0001618
1.0000857
1.000007
0.99992676
0.99984579
0.99976489
0.99968477
0.99960603
0.99952912
0.99945441
0.99938221
0.9993128
0.99924636
0.99918298
0.99912273
0.99906561
0.9990116
0.99896065
0.99891269
0.99886761
0.99882532
0.9987857
0.99874863
0.99871399
0.99868166
0.99865151
0.99862342
0.99859728
0.99857296
0.99855035
0.99852935
0.99850985
0.99849175
0.99847496
0.99845938
0.99844494
0.99843156
1.0000882
1.0000979
1.0001088
1.0001208
1.0001338
1.0001479
1.0001633
1.0001799
1.0001979
1.0002172
1.0002379
1.00026
1.0002833
1.000308
1.0003338
1.0003606
1.0003881
1.0004161
1.0004442
1.0004718
1.0004986
1.0005236
1.0005464
1.0005659
1.0005815
1.0005921
1.0005969
1.0005955
1.0005865
1.0005695
1.0005448
1.0005118
1.0004708
1.000422
1.0003661
1.0003039
1.0002361
1.0001637
1.0000878
1.0000092
0.99992902
0.99984811
0.99976723
0.99968711
0.99960835
0.9995314
0.99945666
0.99938443
0.99931499
0.9992485
0.99918508
0.99912478
0.99906761
0.99901355
0.99896255
0.99891453
0.99886941
0.99882707
0.99878741
0.9987503
0.99871563
0.99868327
0.99865309
0.99862498
0.99859881
0.99857446
0.99855183
0.99853081
0.99851129
0.99849317
0.99847636
0.99846076
0.99844631
0.9984329
1.0000882
1.0000979
1.0001088
1.0001208
1.0001337
1.0001479
1.0001633
1.0001799
1.0001979
1.0002172
1.0002378
1.0002599
1.0002832
1.0003078
1.0003336
1.0003604
1.0003879
1.0004159
1.0004439
1.0004716
1.0004983
1.0005234
1.0005461
1.0005658
1.0005814
1.0005921
1.000597
1.0005958
1.0005871
1.0005704
1.0005459
1.0005133
1.0004726
1.0004241
1.0003685
1.0003066
1.000239
1.0001669
1.0000911
1.0000127
0.9999326
0.99985175
0.99977092
0.9996908
0.99961202
0.99953504
0.99946025
0.99938799
0.99931849
0.99925195
0.99918847
0.99912811
0.99907087
0.99901675
0.99896569
0.99891761
0.99887243
0.99883003
0.99879032
0.99875316
0.99871844
0.99868604
0.99865582
0.99862767
0.99860147
0.9985771
0.99855444
0.99853339
0.99851384
0.9984957
0.99847887
0.99846326
0.99844879
0.99843536
1.0000881
1.0000979
1.0001088
1.0001207
1.0001337
1.0001479
1.0001632
1.0001799
1.0001978
1.0002171
1.0002378
1.0002598
1.0002831
1.0003077
1.0003335
1.0003602
1.0003877
1.0004157
1.0004437
1.0004714
1.0004981
1.0005232
1.000546
1.0005657
1.0005815
1.0005924
1.0005975
1.0005966
1.0005881
1.0005718
1.0005477
1.0005155
1.0004752
1.0004272
1.000372
1.0003104
1.0002432
1.0001713
1.0000958
1.0000176
0.99993763
0.99985687
0.99977609
0.99969599
0.99961719
0.99954017