/*--------------------------------*- C++ -*----------------------------------*\
| =========                 |                                                 |
| \\      /  F ield         | OpenFOAM: The Open Source CFD Toolbox           |
|  \\    /   O peration     | Version:  v2006                                 |
|   \\  /    A nd           | Website:  www.openfoam.com                      |
|    \\/     M anipulation  |                                                 |
\*---------------------------------------------------------------------------*/
FoamFile
{
    version     2.0;
    format      ascii;
    class       volScalarField;
    location    "6000";
    object      T;
}
// * * * * * * * * * * * * * * * * * * * * * * * * * * * * * * * * * * * * * //

dimensions      [0 0 0 1 0 0 0];


internalField   nonuniform List<scalar> 
55713
(
1.0000063
1.0000075
1.0000082
1.0000085
1.0000086
1.0000086
1.0000086
1.0000086
1.0000086
1.0000086
1.0000086
1.0000086
1.0000086
1.0000086
1.0000086
1.0000086
1.0000087
1.0000087
1.0000086
1.0000086
1.0000086
1.0000086
1.0000085
1.0000085
1.0000085
1.0000085
1.0000085
1.0000085
1.0000085
1.0000085
1.0000085
1.0000085
1.0000085
1.0000086
1.0000086
1.0000085
1.0000085
1.0000085
1.0000085
1.0000085
1.0000085
1.0000085
1.0000085
1.0000085
1.0000085
1.0000085
1.0000086
1.0000086
1.0000086
1.0000086
1.0000086
1.0000086
1.0000086
1.0000086
1.0000086
1.0000086
1.0000086
1.0000086
1.0000086
1.000006
1.0000071
1.0000078
1.000008
1.0000081
1.0000081
1.0000081
1.000008
1.000008
1.000008
1.0000081
1.0000081
1.0000081
1.0000081
1.0000081
1.0000081
1.0000081
1.0000081
1.0000081
1.000008
1.000008
1.000008
1.000008
1.000008
1.000008
1.000008
1.000008
1.000008
1.000008
1.000008
1.000008
1.000008
1.000008
1.000008
1.000008
1.000008
1.000008
1.000008
1.000008
1.000008
1.000008
1.000008
1.000008
1.000008
1.000008
1.000008
1.000008
1.000008
1.0000081
1.0000081
1.0000081
1.0000081
1.0000081
1.0000081
1.0000081
1.0000081
1.0000081
1.0000081
1.0000081
1.0000057
1.0000068
1.0000074
1.0000076
1.0000076
1.0000076
1.0000076
1.0000075
1.0000075
1.0000075
1.0000076
1.0000076
1.0000076
1.0000076
1.0000076
1.0000076
1.0000076
1.0000076
1.0000076
1.0000075
1.0000075
1.0000075
1.0000075
1.0000075
1.0000075
1.0000075
1.0000075
1.0000075
1.0000075
1.0000075
1.0000075
1.0000075
1.0000075
1.0000075
1.0000075
1.0000075
1.0000075
1.0000075
1.0000075
1.0000075
1.0000075
1.0000075
1.0000075
1.0000075
1.0000075
1.0000075
1.0000075
1.0000075
1.0000076
1.0000076
1.0000076
1.0000076
1.0000076
1.0000076
1.0000076
1.0000076
1.0000076
1.0000076
1.0000076
1.0000055
1.0000065
1.000007
1.0000072
1.0000072
1.0000072
1.0000071
1.0000071
1.0000071
1.0000071
1.0000072
1.0000072
1.0000072
1.0000072
1.0000072
1.0000072
1.0000071
1.0000071
1.0000071
1.0000071
1.0000071
1.0000071
1.0000071
1.0000071
1.0000071
1.0000071
1.0000071
1.0000071
1.0000071
1.0000071
1.0000071
1.0000071
1.0000071
1.0000071
1.0000071
1.0000071
1.0000071
1.0000071
1.0000071
1.0000071
1.0000071
1.0000071
1.0000071
1.0000071
1.0000071
1.0000071
1.0000071
1.0000071
1.0000071
1.0000072
1.0000072
1.0000072
1.0000072
1.0000072
1.0000072
1.0000072
1.0000072
1.0000072
1.0000072
1.0000053
1.0000063
1.0000067
1.0000068
1.0000068
1.0000068
1.0000068
1.0000068
1.0000068
1.0000068
1.0000068
1.0000068
1.0000068
1.0000068
1.0000068
1.0000068
1.0000068
1.0000067
1.0000067
1.0000067
1.0000067
1.0000067
1.0000067
1.0000067
1.0000067
1.0000067
1.0000067
1.0000067
1.0000067
1.0000067
1.0000067
1.0000067
1.0000067
1.0000067
1.0000067
1.0000067
1.0000067
1.0000067
1.0000067
1.0000067
1.0000067
1.0000067
1.0000067
1.0000067
1.0000067
1.0000067
1.0000067
1.0000067
1.0000068
1.0000068
1.0000068
1.0000068
1.0000068
1.0000068
1.0000068
1.0000068
1.0000068
1.0000068
1.0000068
1.0000052
1.0000061
1.0000064
1.0000065
1.0000065
1.0000065
1.0000065
1.0000064
1.0000064
1.0000065
1.0000065
1.0000065
1.0000065
1.0000065
1.0000065
1.0000064
1.0000064
1.0000064
1.0000064
1.0000064
1.0000064
1.0000064
1.0000064
1.0000064
1.0000064
1.0000064
1.0000064
1.0000064
1.0000064
1.0000064
1.0000064
1.0000064
1.0000064
1.0000064
1.0000064
1.0000064
1.0000064
1.0000064
1.0000064
1.0000064
1.0000064
1.0000064
1.0000064
1.0000064
1.0000064
1.0000064
1.0000064
1.0000064
1.0000064
1.0000065
1.0000065
1.0000065
1.0000065
1.0000065
1.0000065
1.0000065
1.0000065
1.0000065
1.0000065
1.000005
1.0000059
1.0000062
1.0000062
1.0000062
1.0000062
1.0000062
1.0000062
1.0000062
1.0000062
1.0000062
1.0000062
1.0000062
1.0000062
1.0000062
1.0000062
1.0000062
1.0000061
1.0000061
1.0000061
1.0000061
1.0000061
1.0000061
1.0000061
1.0000061
1.0000061
1.0000061
1.0000061
1.0000061
1.0000061
1.0000061
1.0000061
1.0000061
1.0000061
1.0000061
1.0000062
1.0000061
1.0000061
1.0000061
1.0000061
1.0000061
1.0000061
1.0000062
1.0000062
1.0000062
1.0000061
1.0000061
1.0000061
1.0000062
1.0000062
1.0000062
1.0000062
1.0000062
1.0000062
1.0000062
1.0000062
1.0000062
1.0000062
1.0000062
1.000005
1.0000058
1.000006
1.000006
1.000006
1.000006
1.0000059
1.0000059
1.000006
1.000006
1.0000059
1.0000059
1.0000059
1.0000059
1.0000059
1.0000059
1.0000059
1.0000059
1.0000059
1.0000059
1.0000059
1.0000059
1.0000059
1.0000059
1.0000059
1.0000059
1.0000059
1.0000059
1.0000059
1.0000059
1.0000059
1.0000059
1.0000059
1.0000059
1.0000059
1.0000059
1.0000059
1.0000059
1.0000059
1.0000059
1.0000059
1.0000059
1.0000059
1.0000059
1.0000059
1.0000059
1.0000059
1.0000059
1.0000059
1.0000059
1.000006
1.000006
1.000006
1.000006
1.000006
1.000006
1.000006
1.000006
1.000006
1.0000049
1.0000057
1.0000058
1.0000058
1.0000058
1.0000058
1.0000058
1.0000058
1.0000058
1.0000058
1.0000058
1.0000057
1.0000058
1.0000058
1.0000058
1.0000058
1.0000058
1.0000057
1.0000057
1.0000057
1.0000057
1.0000057
1.0000057
1.0000057
1.0000057
1.0000057
1.0000057
1.0000057
1.0000057
1.0000057
1.0000057
1.0000057
1.0000057
1.0000057
1.0000057
1.0000058
1.0000058
1.0000057
1.0000057
1.0000057
1.0000057
1.0000057
1.0000057
1.0000058
1.0000058
1.0000057
1.0000057
1.0000057
1.0000057
1.0000058
1.0000058
1.0000058
1.0000058
1.0000058
1.0000058
1.0000058
1.0000058
1.0000058
1.0000058
1.0000049
1.0000057
1.0000057
1.0000057
1.0000056
1.0000056
1.0000056
1.0000057
1.0000057
1.0000057
1.0000056
1.0000056
1.0000056
1.0000057
1.0000056
1.0000056
1.0000056
1.0000056
1.0000056
1.0000056
1.0000055
1.0000055
1.0000055
1.0000055
1.0000055
1.0000055
1.0000055
1.0000055
1.0000055
1.0000055
1.0000055
1.0000056
1.0000056
1.0000056
1.0000056
1.0000056
1.0000056
1.0000056
1.0000056
1.0000055
1.0000055
1.0000055
1.0000056
1.0000056
1.0000056
1.0000056
1.0000056
1.0000056
1.0000056
1.0000056
1.0000057
1.0000057
1.0000057
1.0000056
1.0000056
1.0000057
1.0000057
1.0000056
1.0000057
1.0000048
1.0000054
1.0000054
1.0000054
1.0000054
1.0000053
1.0000053
1.0000054
1.0000054
1.0000053
1.0000053
1.0000053
1.0000054
1.0000054
1.0000053
1.0000053
1.0000053
1.0000053
1.0000052
1.0000052
1.0000052
1.0000052
1.0000052
1.0000052
1.0000052
1.0000052
1.0000052
1.0000052
1.0000052
1.0000052
1.0000052
1.0000052
1.0000052
1.0000052
1.0000053
1.0000053
1.0000053
1.0000053
1.0000053
1.0000052
1.0000052
1.0000052
1.0000052
1.0000053
1.0000053
1.0000053
1.0000052
1.0000052
1.0000053
1.0000053
1.0000053
1.0000053
1.0000054
1.0000054
1.0000053
1.0000054
1.0000054
1.0000053
1.0000053
1.0000047
1.0000055
1.0000052
1.0000054
1.0000053
1.0000051
1.0000054
1.0000055
1.0000053
1.0000052
1.0000051
1.0000053
1.0000053
1.0000052
1.0000052
1.0000051
1.0000051
1.0000051
1.0000051
1.0000051
1.0000051
1.0000051
1.0000051
1.0000051
1.0000051
1.0000051
1.0000051
1.0000051
1.0000051
1.0000051
1.0000051
1.0000051
1.0000051
1.0000051
1.0000051
1.0000051
1.0000051
1.0000051
1.0000051
1.0000051
1.000005
1.000005
1.0000051
1.0000052
1.0000051
1.0000051
1.0000051
1.000005
1.0000051
1.0000053
1.0000051
1.0000052
1.0000051
1.0000053
1.0000051
1.0000053
1.0000055
1.0000051
1.0000051
1.0000062
1.0000066
1.0000062
1.0000065
1.0000062
1.0000062
1.0000065
1.0000065
1.0000063
1.0000063
1.0000063
1.0000066
1.0000065
1.0000064
1.0000064
1.0000064
1.0000064
1.0000064
1.0000063
1.0000063
1.0000063
1.0000063
1.0000063
1.0000063
1.0000063
1.0000063
1.0000063
1.0000063
1.0000063
1.0000063
1.0000063
1.0000063
1.0000063
1.0000063
1.0000063
1.0000063
1.0000064
1.0000064
1.0000063
1.0000064
1.0000062
1.0000062
1.0000062
1.0000063
1.0000064
1.0000064
1.0000064
1.0000063
1.0000063
1.0000063
1.0000064
1.0000064
1.0000062
1.0000065
1.0000063
1.0000062
1.0000066
1.0000063
1.0000063
1.0000052
1.0000039
1.0000044
1.0000039
1.0000045
1.0000047
1.0000042
1.000004
1.0000044
1.0000044
1.0000044
1.0000039
1.0000037
1.0000036
1.0000036
1.0000037
1.0000038
1.0000037
1.0000038
1.0000038
1.0000038
1.0000038
1.0000038
1.0000038
1.0000038
1.0000038
1.0000038
1.0000038
1.0000038
1.0000038
1.0000038
1.0000038
1.0000038
1.0000038
1.0000038
1.0000038
1.0000038
1.000004
1.0000043
1.0000045
1.0000048
1.000005
1.0000049
1.0000047
1.0000046
1.0000047
1.0000048
1.0000048
1.0000045
1.0000042
1.0000041
1.0000042
1.0000045
1.0000043
1.0000049
1.0000046
1.0000039
1.0000048
1.0000048
1.0000323
1.0000323
1.0000323
1.0000323
1.0000323
1.0000323
1.0000323
1.0000324
1.0000324
1.0000324
1.0000324
1.0000324
1.0000324
1.0000324
1.0000324
1.0000324
1.0000324
1.0000324
1.0000324
1.0000325
1.0000325
1.0000325
1.0000325
1.0000325
1.0000325
1.0000325
1.0000325
1.0000325
1.0000325
1.0000325
1.0000325
1.0000325
1.0000325
1.0000325
1.0000326
1.0000326
1.0000326
1.0000326
1.0000326
1.0000325
1.0000325
1.0000325
1.0000325
1.0000325
1.0000326
1.0000326
1.0000326
1.0000326
1.0000326
1.0000326
1.0000326
1.0000326
1.0000325
1.0000322
1.0000317
1.0000308
1.0000291
1.0000262
1.0000224
1.0000296
1.0000296
1.0000296
1.0000297
1.0000297
1.0000297
1.0000297
1.0000297
1.0000297
1.0000297
1.0000297
1.0000297
1.0000297
1.0000297
1.0000298
1.0000298
1.0000298
1.0000298
1.0000298
1.0000298
1.0000298
1.0000298
1.0000298
1.0000298
1.0000298
1.0000298
1.0000298
1.0000298
1.0000298
1.0000298
1.0000298
1.0000298
1.0000298
1.0000298
1.0000298
1.0000299
1.0000299
1.0000299
1.0000299
1.0000298
1.0000298
1.0000298
1.0000298
1.0000298
1.0000298
1.0000298
1.0000299
1.0000299
1.0000299
1.0000299
1.0000299
1.0000299
1.0000298
1.0000295
1.0000291
1.0000282
1.0000267
1.000024
1.0000205
1.0000271
1.0000271
1.0000271
1.0000271
1.0000271
1.0000272
1.0000272
1.0000272
1.0000272
1.0000272
1.0000272
1.0000272
1.0000272
1.0000272
1.0000272
1.0000272
1.0000272
1.0000272
1.0000272
1.0000272
1.0000272
1.0000272
1.0000272
1.0000272
1.0000272
1.0000272
1.0000272
1.0000272
1.0000272
1.0000272
1.0000272
1.0000272
1.0000273
1.0000273
1.0000273
1.0000273
1.0000273
1.0000273
1.0000273
1.0000273
1.0000273
1.0000273
1.0000273
1.0000273
1.0000273
1.0000273
1.0000273
1.0000273
1.0000273
1.0000273
1.0000273
1.0000273
1.0000272
1.000027
1.0000266
1.0000259
1.0000244
1.000022
1.0000188
1.0000248
1.0000248
1.0000248
1.0000248
1.0000248
1.0000248
1.0000248
1.0000248
1.0000248
1.0000248
1.0000248
1.0000249
1.0000249
1.0000249
1.0000249
1.0000249
1.0000249
1.0000249
1.0000249
1.0000249
1.0000249
1.0000249
1.0000249
1.0000249
1.0000249
1.0000249
1.0000249
1.0000249
1.0000249
1.0000249
1.0000249
1.0000249
1.0000249
1.0000249
1.0000249
1.0000249
1.000025
1.000025
1.0000249
1.0000249
1.0000249
1.0000249
1.0000249
1.0000249
1.0000249
1.0000249
1.0000249
1.0000249
1.0000249
1.000025
1.000025
1.0000249
1.0000249
1.0000247
1.0000244
1.0000237
1.0000223
1.0000201
1.0000172
1.0000226
1.0000226
1.0000226
1.0000226
1.0000226
1.0000226
1.0000226
1.0000226
1.0000226
1.0000227
1.0000227
1.0000227
1.0000227
1.0000227
1.0000227
1.0000227
1.0000227
1.0000227
1.0000227
1.0000227
1.0000227
1.0000227
1.0000227
1.0000227
1.0000227
1.0000227
1.0000227
1.0000227
1.0000227
1.0000227
1.0000227
1.0000227
1.0000227
1.0000227
1.0000227
1.0000227
1.0000228
1.0000228
1.0000228
1.0000227
1.0000227
1.0000227
1.0000227
1.0000227
1.0000227
1.0000227
1.0000227
1.0000227
1.0000227
1.0000227
1.0000228
1.0000227
1.0000227
1.0000225
1.0000222
1.0000216
1.0000204
1.0000183
1.0000157
1.0000206
1.0000206
1.0000206
1.0000206
1.0000206
1.0000206
1.0000206
1.0000206
1.0000206
1.0000206
1.0000206
1.0000206
1.0000206
1.0000206
1.0000206
1.0000206
1.0000206
1.0000206
1.0000206
1.0000206
1.0000206
1.0000206
1.0000206
1.0000206
1.0000206
1.0000206
1.0000206
1.0000206
1.0000206
1.0000206
1.0000206
1.0000206
1.0000206
1.0000206
1.0000207
1.0000207
1.0000207
1.0000207
1.0000207
1.0000207
1.0000207
1.0000207
1.0000207
1.0000207
1.0000207
1.0000207
1.0000207
1.0000207
1.0000207
1.0000207
1.0000207
1.0000207
1.0000207
1.0000205
1.0000203
1.0000197
1.0000186
1.0000167
1.0000143
1.0000187
1.0000187
1.0000187
1.0000187
1.0000187
1.0000187
1.0000187
1.0000187
1.0000187
1.0000187
1.0000187
1.0000187
1.0000187
1.0000187
1.0000187
1.0000187
1.0000187
1.0000187
1.0000187
1.0000187
1.0000187
1.0000187
1.0000187
1.0000187
1.0000187
1.0000187
1.0000187
1.0000187
1.0000187
1.0000187
1.0000187
1.0000187
1.0000187
1.0000188
1.0000188
1.0000188
1.0000188
1.0000188
1.0000188
1.0000188
1.0000188
1.0000188
1.0000188
1.0000188
1.0000188
1.0000188
1.0000188
1.0000188
1.0000188
1.0000188
1.0000188
1.0000188
1.0000188
1.0000187
1.0000185
1.000018
1.000017
1.0000152
1.000013
1.000017
1.000017
1.000017
1.000017
1.000017
1.000017
1.000017
1.000017
1.000017
1.000017
1.000017
1.000017
1.000017
1.000017
1.000017
1.000017
1.000017
1.000017
1.000017
1.000017
1.000017
1.000017
1.000017
1.000017
1.000017
1.000017
1.000017
1.000017
1.000017
1.000017
1.000017
1.000017
1.000017
1.000017
1.000017
1.000017
1.0000171
1.0000171
1.0000171
1.0000171
1.0000171
1.0000171
1.000017
1.000017
1.000017
1.000017
1.000017
1.000017
1.000017
1.0000171
1.0000171
1.0000171
1.0000171
1.000017
1.0000168
1.0000164
1.0000155
1.0000139
1.0000118
1.0000154
1.0000154
1.0000154
1.0000154
1.0000154
1.0000154
1.0000154
1.0000154
1.0000154
1.0000154
1.0000154
1.0000154
1.0000154
1.0000154
1.0000154
1.0000154
1.0000154
1.0000154
1.0000154
1.0000154
1.0000154
1.0000154
1.0000154
1.0000154
1.0000154
1.0000154
1.0000154
1.0000154
1.0000154
1.0000154
1.0000154
1.0000154
1.0000154
1.0000154
1.0000154
1.0000154
1.0000155
1.0000155
1.0000155
1.0000155
1.0000155
1.0000155
1.0000155
1.0000154
1.0000154
1.0000154
1.0000154
1.0000154
1.0000154
1.0000155
1.0000155
1.0000155
1.0000155
1.0000154
1.0000152
1.0000149
1.0000141
1.0000126
1.0000107
1.000014
1.000014
1.000014
1.000014
1.000014
1.000014
1.000014
1.000014
1.000014
1.000014
1.000014
1.000014
1.0000139
1.0000139
1.0000139
1.0000139
1.0000139
1.0000139
1.0000139
1.0000139
1.0000139
1.0000139
1.0000139
1.0000139
1.0000139
1.0000139
1.0000139
1.0000139
1.0000139
1.0000139
1.0000139
1.0000139
1.0000139
1.0000139
1.0000139
1.000014
1.000014
1.000014
1.000014
1.000014
1.000014
1.000014
1.000014
1.000014
1.000014
1.000014
1.000014
1.000014
1.000014
1.000014
1.000014
1.000014
1.000014
1.000014
1.0000138
1.0000135
1.0000128
1.0000115
1.0000098
1.0000126
1.0000126
1.0000126
1.0000126
1.0000126
1.0000126
1.0000126
1.0000126
1.0000126
1.0000126
1.0000126
1.0000126
1.0000126
1.0000126
1.0000126
1.0000126
1.0000126
1.0000126
1.0000126
1.0000126
1.0000126
1.0000126
1.0000126
1.0000126
1.0000126
1.0000126
1.0000126
1.0000126
1.0000126
1.0000126
1.0000126
1.0000126
1.0000126
1.0000126
1.0000126
1.0000126
1.0000126
1.0000127
1.0000127
1.0000127
1.0000127
1.0000127
1.0000127
1.0000127
1.0000127
1.0000127
1.0000127
1.0000127
1.0000126
1.0000126
1.0000127
1.0000127
1.0000127
1.0000127
1.0000126
1.0000123
1.0000117
1.0000105
1.0000089
1.0000114
1.0000114
1.0000114
1.0000114
1.0000114
1.0000114
1.0000114
1.0000114
1.0000114
1.0000114
1.0000114
1.0000114
1.0000114
1.0000114
1.0000114
1.0000113
1.0000113
1.0000114
1.0000114
1.0000114
1.0000114
1.0000114
1.0000114
1.0000114
1.0000114
1.0000114
1.0000114
1.0000114
1.0000114
1.0000114
1.0000114
1.0000114
1.0000114
1.0000114
1.0000114
1.0000114
1.0000114
1.0000115
1.0000115
1.0000115
1.0000115
1.0000115
1.0000115
1.0000115
1.0000115
1.0000115
1.0000114
1.0000114
1.0000114
1.0000114
1.0000114
1.0000114
1.0000115
1.0000114
1.0000114
1.0000112
1.0000106
1.0000096
1.0000081
1.0000103
1.0000103
1.0000103
1.0000103
1.0000103
1.0000103
1.0000103
1.0000103
1.0000103
1.0000103
1.0000103
1.0000103
1.0000103
1.0000103
1.0000103
1.0000102
1.0000102
1.0000103
1.0000103
1.0000103
1.0000103
1.0000103
1.0000103
1.0000103
1.0000103
1.0000103
1.0000103
1.0000103
1.0000103
1.0000103
1.0000103
1.0000103
1.0000103
1.0000103
1.0000103
1.0000103
1.0000103
1.0000103
1.0000104
1.0000104
1.0000104
1.0000104
1.0000104
1.0000104
1.0000104
1.0000104
1.0000104
1.0000103
1.0000103
1.0000103
1.0000103
1.0000103
1.0000104
1.0000104
1.0000103
1.0000101
1.0000097
1.0000087
1.0000073
1.0000094
1.0000094
1.0000094
1.0000093
1.0000093
1.0000093
1.0000093
1.0000094
1.0000094
1.0000094
1.0000094
1.0000093
1.0000093
1.0000093
1.0000093
1.0000093
1.0000093
1.0000093
1.0000093
1.0000093
1.0000093
1.0000093
1.0000093
1.0000093
1.0000093
1.0000093
1.0000093
1.0000093
1.0000093
1.0000093
1.0000093
1.0000093
1.0000093
1.0000093
1.0000093
1.0000093
1.0000093
1.0000093
1.0000094
1.0000094
1.0000094
1.0000094
1.0000094
1.0000094
1.0000094
1.0000094
1.0000094
1.0000094
1.0000094
1.0000093
1.0000093
1.0000094
1.0000094
1.0000094
1.0000094
1.0000092
1.0000089
1.000008
1.0000067
1.0000245
1.0000271
1.00003
1.0000331
1.0000365
1.0000401
1.000044
1.0000481
1.0000525
1.0000572
1.0000622
1.0000674
1.0000729
1.0000787
1.0000846
1.0000907
1.0000968
1.000103
1.0001091
1.0001149
1.0001205
1.0001255
1.0001298
1.0001332
1.0001356
1.0001366
1.0001361
1.000134
1.0001302
1.0001244
1.0001166
1.0001081
1.0000962
1.0000829
1.0000684
1.000053
1.000036
1.0000188
1.000001
0.99998242
0.99996346
0.99994432
0.99992537
0.9999064
0.99988788
0.99986989
0.99985273
0.99983638
0.99982085
0.99980608
0.99979177
0.99977811
0.99976518
0.99975303
0.99974166
0.99973098
0.99972093
0.99971151
0.99970269
0.99969446
0.99968674
0.99967954
0.99967286
0.99966667
0.99966092
0.99965559
0.99965065
0.99964607
0.99964183
0.99963789
0.99963425
0.99963088
0.99962775
0.99962488
1.0000287
1.0000316
1.0000348
1.0000382
1.0000419
1.0000459
1.0000502
1.0000548
1.0000597
1.0000649
1.0000704
1.0000762
1.0000823
1.0000886
1.0000951
1.0001017
1.0001084
1.000115
1.0001214
1.0001275
1.0001332
1.0001381
1.0001422
1.0001451
1.0001467
1.0001467
1.000145
1.0001413
1.0001354
1.0001273
1.0001168
1.0001045
1.00009
1.0000734
1.0000551
1.0000352
1.000014
0.99999198
0.99996948
0.99994675
0.99992397
0.99990128
0.99987888
0.99985682
0.99983562
0.99981527
0.99979706
0.99977829
0.99976004
0.99974265
0.99972616
0.99971058
0.99969588
0.99968214
0.99966908
0.99965683
0.99964535
0.99963466
0.99962473
0.99961549
0.9996069
0.99959891
0.99959155
0.99958475
0.99957844
0.9995726
0.99956719
0.99956218
0.99955754
0.99955324
0.99954925
0.99954557
0.99954215
0.99953902
1.0000318
1.0000351
1.0000386
1.0000424
1.0000465
1.0000509
1.0000557
1.0000608
1.0000662
1.000072
1.0000782
1.0000847
1.0000915
1.0000985
1.0001057
1.0001131
1.0001206
1.0001279
1.0001351
1.0001419
1.0001481
1.0001535
1.0001579
1.000161
1.0001625
1.0001622
1.0001598
1.0001552
1.000148
1.0001383
1.0001259
1.0001109
1.0000934
1.0000737
1.0000519
1.0000283
1.0000032
0.99997698
0.99994992
0.99992246
0.9998949
0.99986746
0.99984041
0.99981392
0.99978814
0.99976314
0.99973909
0.9997161
0.99969425
0.99967351
0.99965387
0.99963527
0.99961787
0.99960089
0.99958446
0.99956997
0.99955688
0.99954468
0.99953324
0.99952258
0.99951293
0.99950388
0.9994954
0.99948746
0.99948003
0.9994731
0.99946665
0.99946065
0.99945508
0.99944987
0.999445
0.99944049
0.99943632
0.99943249
1.0000337
1.0000372
1.000041
1.0000451
1.0000496
1.0000544
1.0000595
1.0000651
1.000071
1.0000773
1.000084
1.0000911
1.0000985
1.0001062
1.0001142
1.0001223
1.0001305
1.0001387
1.0001467
1.0001543
1.0001613
1.0001674
1.0001725
1.0001762
1.0001782
1.0001783
1.0001761
1.0001714
1.0001639
1.0001536
1.0001405
1.0001244
1.0001055
1.000084
1.0000602
1.0000343
1.0000068
0.99997783
0.99994784
0.99991723
0.99988636
0.9998555
0.99982494
0.99979498
0.99976578
0.99973742
0.99970997
0.99968356
0.99965836
0.99963438
0.99961164
0.9995901
0.99956979
0.99955068
0.99953275
0.99951592
0.99950013
0.99948537
0.9994716
0.99945877
0.99944679
0.99943562
0.99942527
0.99941565
0.99940673
0.99939845
0.99939077
0.99938365
0.99937704
0.99937092
0.99936525
0.99935999
0.99935514
0.99935057
1.0000348
1.0000384
1.0000424
1.0000468
1.0000515
1.0000565
1.000062
1.0000679
1.0000742
1.0000809
1.000088
1.0000956
1.0001035
1.0001118
1.0001203
1.0001291
1.000138
1.0001469
1.0001556
1.000164
1.0001718
1.0001787
1.0001846
1.000189
1.0001918
1.0001925
1.0001908
1.0001866
1.0001795
1.0001694
1.0001563
1.0001402
1.000121
1.0000991
1.0000746
1.0000479
1.0000193
0.99998922
0.99995792
0.99992585
0.9998934
0.99986086
0.99982852
0.99979671
0.99976563
0.99973536
0.999706
0.99967769
0.99965059
0.99962473
0.99960013
0.9995768
0.99955473
0.99953394
0.99951442
0.99949609
0.99947888
0.99946275
0.99944766
0.99943356
0.99942038
0.99940809
0.99939665
0.99938602
0.99937613
0.99936701
0.99935829
0.99935016
0.99934265
0.99933573
0.99932937
0.99932352
0.99931811
0.99931319
1.0000353
1.0000391
1.0000433
1.0000477
1.0000526
1.0000579
1.0000636
1.0000697
1.0000762
1.0000833
1.0000907
1.0000986
1.0001069
1.0001156
1.0001247
1.0001339
1.0001434
1.0001528
1.0001622
1.0001712
1.0001797
1.0001873
1.0001939
1.0001991
1.0002025
1.0002039
1.000203
1.0001994
1.0001929
1.0001834
1.0001708
1.000155
1.0001361
1.0001144
1.0000901
1.0000634
1.0000348
1.0000045
0.9999729
0.9999405
0.99990763
0.99987461
0.99984173
0.99980932
0.99977759
0.99974664
0.99971658
0.99968756
0.99965973
0.99963314
0.99960781
0.99958375
0.99956097
0.99953948
0.99951927
0.99950027
0.99948242
0.99946567
0.99944998
0.99943532
0.99942161
0.99940882
0.99939691
0.99938583
0.99937553
0.99936596
0.99935707
0.99934883
0.99934119
0.9993341
0.99932754
0.99932146
0.99931583
0.99931063
1.0000356
1.0000395
1.0000437
1.0000483
1.0000533
1.0000587
1.0000645
1.0000708
1.0000776
1.0000848
1.0000925
1.0001007
1.0001093
1.0001183
1.0001277
1.0001373
1.0001472
1.0001571
1.0001669
1.0001764
1.0001855
1.0001937
1.0002009
1.0002067
1.0002108
1.0002128
1.0002125
1.0002095
1.0002037
1.0001947
1.0001827
1.0001674
1.0001491
1.0001278
1.0001038
1.0000775
1.0000492
1.0000191
0.99998777
0.99995553
0.99992278
0.99988984
0.99985702
0.99982462
0.99979285
0.99976186
0.99973174
0.99970265
0.99967472
0.99964802
0.99962257
0.99959839
0.99957548
0.99955385
0.99953348
0.99951433
0.99949633
0.99947944
0.99946362
0.99944883
0.999435
0.99942209
0.99941007
0.99939887
0.99938847
0.99937879
0.99936981
0.99936148
0.99935375
0.99934658
0.99933994
0.9993338
0.99932811
0.99932284
1.0000358
1.0000397
1.000044
1.0000487
1.0000537
1.0000592
1.0000652
1.0000716
1.0000785
1.0000858
1.0000937
1.0001021
1.0001109
1.0001201
1.0001298
1.0001397
1.0001499
1.0001601
1.0001703
1.0001802
1.0001897
1.0001983
1.000206
1.0002123
1.0002169
1.0002194
1.0002196
1.0002172
1.0002119
1.0002035
1.0001919
1.0001771
1.0001593
1.0001384
1.0001149
1.000089
1.000061
1.0000313
1.0000002
0.99996827
0.99993578
0.99990307
0.99987045
0.99983824
0.99980663
0.99977579
0.99974581
0.99971684
0.99968902
0.99966241
0.99963705
0.99961294
0.9995901
0.99956853
0.99954821
0.99952909
0.99951113
0.99949427
0.99947848
0.9994637
0.9994499
0.99943702
0.99942501
0.99941383
0.99940344
0.99939378
0.99938481
0.99937648
0.99936876
0.99936161
0.99935498
0.99934884
0.99934315
0.99933789
1.0000359
1.0000398
1.0000441
1.0000488
1.000054
1.0000595
1.0000655
1.000072
1.000079
1.0000865
1.0000945
1.000103
1.000112
1.0001214
1.0001312
1.0001414
1.0001518
1.0001623
1.0001727
1.0001829
1.0001927
1.0002017
1.0002097
1.0002164
1.0002213
1.0002243
1.0002249
1.0002229
1.000218
1.00021
1.0001988
1.0001844
1.0001669
1.0001465
1.0001233
1.0000977
1.00007
1.0000406
1.0000098
0.99997807
0.9999458
0.9999133
0.99988087
0.99984882
0.99981737
0.99978666
0.99975682
0.99972798
0.99970028
0.99967378
0.99964851
0.99962449
0.99960173
0.99958023
0.99955997
0.99954091
0.999523
0.99950619
0.99949045
0.99947572
0.99946197
0.99944913
0.99943716
0.99942602
0.99941566
0.99940603
0.99939709
0.99938879
0.99938109
0.99937396
0.99936735
0.99936122
0.99935555
0.99935031
1.0000359
1.0000398
1.0000442
1.0000489
1.0000541
1.0000597
1.0000658
1.0000723
1.0000794
1.000087
1.000095
1.0001036
1.0001127
1.0001223
1.0001323
1.0001426
1.0001531
1.0001638
1.0001745
1.0001849
1.0001949
1.0002041
1.0002124
1.0002193
1.0002246
1.0002278
1.0002288
1.0002271
1.0002225
1.0002148
1.0002039
1.0001898
1.0001726
1.0001524
1.0001294
1.0001041
1.0000766
1.0000474
1.0000168
0.99998525
0.99995313
0.99992077
0.99988847
0.99985653
0.99982517
0.99979455
0.99976479
0.99973604
0.99970841
0.99968197
0.99965676
0.9996328
0.99961009
0.99958864
0.99956841
0.99954938
0.9995315
0.99951472
0.99949901
0.99948431
0.99947058
0.99945776
0.99944582
0.9994347
0.99942436
0.99941475
0.99940582
0.99939754
0.99938985
0.99938273
0.99937613
0.99937002
0.99936436
0.99935912
1.0000359
1.0000398
1.0000442
1.000049
1.0000542
1.0000598
1.0000659
1.0000725
1.0000796
1.0000873
1.0000954
1.0001041
1.0001132
1.0001229
1.000133
1.0001434
1.0001541
1.0001649
1.0001757
1.0001863
1.0001964
1.0002059
1.0002143
1.0002214
1.0002269
1.0002304
1.0002315
1.0002301
1.0002257
1.0002183
1.0002076
1.0001938
1.0001767
1.0001567
1.000134
1.0001088
1.0000814
1.0000524
1.0000219
0.99999045
0.99995843
0.99992615
0.99989392
0.99986204
0.99983072
0.99980014
0.99977043
0.99974171
0.99971412
0.99968771
0.99966253
0.99963859
0.9996159
0.99959446
0.99957425
0.99955523
0.99953735
0.99952058
0.99950488
0.99949019
0.99947647
0.99946366
0.99945173
0.99944062
0.99943029
0.99942069
0.99941177
0.99940349
0.99939581
0.99938869
0.9993821
0.99937599
0.99937033
0.9993651
1.0000359
1.0000398
1.0000442
1.000049
1.0000542
1.0000599
1.000066
1.0000726
1.0000798
1.0000874
1.0000956
1.0001044
1.0001136
1.0001233
1.0001334
1.0001439
1.0001547
1.0001656
1.0001765
1.0001872
1.0001975
1.0002071
1.0002157
1.000223
1.0002286
1.0002323
1.0002336
1.0002323
1.0002281
1.0002208
1.0002103
1.0001967
1.0001798
1.0001599
1.0001373
1.0001122
1.000085
1.000056
1.0000256
0.99999427
0.99996231
0.99993007
0.99989788
0.99986603
0.99983473
0.99980416
0.99977446
0.99974576
0.99971818
0.99969177
0.99966659
0.99964266
0.99961997
0.99959853
0.99957831
0.99955928
0.9995414
0.99952463
0.99950892
0.99949423
0.99948051
0.9994677
0.99945577
0.99944466
0.99943433
0.99942472
0.9994158
0.99940752
0.99939984
0.99939272
0.99938612
0.99938001
0.99937436
0.99936912
1.0000359
1.0000398
1.0000442
1.000049
1.0000542
1.0000599
1.0000661
1.0000727
1.0000799
1.0000876
1.0000958
1.0001045
1.0001138
1.0001236
1.0001338
1.0001443
1.0001552
1.0001661
1.0001771
1.0001879
1.0001983
1.000208
1.0002167
1.0002241
1.0002298
1.0002336
1.0002351
1.0002339
1.0002299
1.0002227
1.0002124
1.0001989
1.0001821
1.0001624
1.0001399
1.0001149
1.0000878
1.0000588
1.0000285
0.99999721
0.99996528
0.99993307
0.9999009
0.99986906
0.99983776
0.99980718
0.99977748
0.99974878
0.99972119
0.99969478
0.99966959
0.99964565
0.99962295
0.9996015
0.99958126
0.99956222
0.99954432
0.99952754
0.99951182
0.99949712
0.99948339
0.99947058
0.99945864
0.99944753
0.99943719
0.99942758
0.99941865
0.99941037
0.99940268
0.99939556
0.99938896
0.99938284
0.99937718
0.99937194
1.0000358
1.0000398
1.0000442
1.000049
1.0000542
1.0000599
1.0000661
1.0000727
1.0000799
1.0000876
1.0000959
1.0001047
1.000114
1.0001237
1.000134
1.0001446
1.0001555
1.0001665
1.0001775
1.0001884
1.0001988
1.0002086
1.0002174
1.0002249
1.0002307
1.0002346
1.0002362
1.0002351
1.0002312
1.0002242
1.000214
1.0002006
1.000184
1.0001644
1.000142
1.0001171
1.00009
1.0000612
1.0000309
0.99999963
0.99996773
0.99993555
0.99990339
0.99987154
0.99984023
0.99980964
0.99977993
0.99975122
0.99972362
0.99969719
0.99967199
0.99964802
0.99962531
0.99960383
0.99958358
0.99956452
0.9995466
0.9995298
0.99951407
0.99949935
0.99948561
0.99947279
0.99946084
0.99944971
0.99943937
0.99942975
0.99942081
0.99941252
0.99940483
0.9993977
0.99939109
0.99938497
0.9993793
0.99937406
1.0000358
1.0000398
1.0000442
1.000049
1.0000542
1.0000599
1.0000661
1.0000728
1.0000799
1.0000877
1.0000959
1.0001047
1.000114
1.0001239
1.0001341
1.0001447
1.0001557
1.0001667
1.0001778
1.0001887
1.0001992
1.000209
1.0002178
1.0002254
1.0002314
1.0002353
1.000237
1.000236
1.0002323
1.0002254
1.0002153
1.0002021
1.0001856
1.0001661
1.0001438
1.000119
1.000092
1.0000633
1.0000331
1.0000018
0.99996997
0.99993781
0.99990566
0.99987381
0.99984249
0.99981189
0.99978216
0.99975343
0.99972581
0.99969936
0.99967413
0.99965014
0.9996274
0.9996059
0.99958563
0.99956654
0.9995486
0.99953178
0.99951602
0.99950129
0.99948753
0.99947469
0.99946273
0.99945159
0.99944123
0.9994316
0.99942265
0.99941435
0.99940665
0.99939951
0.99939289
0.99938676
0.99938109
0.99937584
1.0000358
1.0000398
1.0000442
1.000049
1.0000542
1.0000599
1.0000661
1.0000728
1.0000799
1.0000877
1.0000959
1.0001048
1.0001141
1.0001239
1.0001342
1.0001448
1.0001558
1.0001669
1.000178
1.0001889
1.0001994
1.0002093
1.0002182
1.0002258
1.0002319
1.0002359
1.0002377
1.0002368
1.0002332
1.0002265
1.0002166
1.0002034
1.0001871
1.0001678
1.0001456
1.0001209
1.0000941
1.0000654
1.0000353
1.0000041
0.99997226
0.99994012
0.99990798
0.99987613
0.9998448
0.99981418
0.99978443
0.99975568
0.99972803
0.99970155
0.9996763
0.99965228
0.99962951
0.99960798
0.99958767
0.99956855
0.99955059
0.99953374
0.99951796
0.9995032
0.99948942
0.99947656
0.99946458
0.99945343
0.99944305
0.9994334
0.99942445
0.99941613
0.99940842
0.99940127
0.99939464
0.9993885
0.99938282
0.99937756
1.0000358
1.0000398
1.0000442
1.000049
1.0000542
1.0000599
1.0000661
1.0000727
1.0000799
1.0000877
1.000096
1.0001048
1.0001141
1.0001239
1.0001342
1.0001449
1.0001558
1.0001669
1.0001781
1.000189
1.0001996
1.0002095
1.0002185
1.0002262
1.0002323
1.0002364
1.0002384
1.0002375
1.0002341
1.0002275
1.0002178
1.0002048
1.0001887
1.0001695
1.0001475
1.000123
1.0000963
1.0000677
1.0000377
1.0000066
0.9999748
0.99994269
0.99991057
0.99987872
0.99984737
0.99981673
0.99978696
0.99975818