/*--------------------------------*- C++ -*----------------------------------*\
| =========                 |                                                 |
| \\      /  F ield         | OpenFOAM: The Open Source CFD Toolbox           |
|  \\    /   O peration     | Version:  v2006                                 |
|   \\  /    A nd           | Website:  www.openfoam.com                      |
|    \\/     M anipulation  |                                                 |
\*---------------------------------------------------------------------------*/
FoamFile
{
    version     2.0;
    format      ascii;
    class       volScalarField;
    location    "6000";
    object      TMean;
}
// * * * * * * * * * * * * * * * * * * * * * * * * * * * * * * * * * * * * * //

dimensions      [0 0 0 1 0 0 0];


internalField   nonuniform List<scalar> 
55713
(
1.0000071
1.0000084
1.0000093
1.0000096
1.0000097
1.0000097
1.0000097
1.0000097
1.0000097
1.0000097
1.0000097
1.0000097
1.0000097
1.0000097
1.0000097
1.0000097
1.0000097
1.0000097
1.0000097
1.0000097
1.0000097
1.0000097
1.0000097
1.0000097
1.0000097
1.0000096
1.0000096
1.0000096
1.0000096
1.0000096
1.0000096
1.0000096
1.0000097
1.0000097
1.0000097
1.0000097
1.0000097
1.0000097
1.0000097
1.0000097
1.0000097
1.0000097
1.0000097
1.0000097
1.0000097
1.0000097
1.0000097
1.0000097
1.0000097
1.0000097
1.0000097
1.0000097
1.0000097
1.0000097
1.0000097
1.0000097
1.0000097
1.0000097
1.0000097
1.0000067
1.000008
1.0000087
1.000009
1.0000091
1.0000091
1.0000091
1.0000091
1.000009
1.000009
1.0000091
1.0000091
1.0000091
1.0000091
1.0000091
1.0000091
1.0000091
1.000009
1.000009
1.000009
1.000009
1.000009
1.000009
1.000009
1.000009
1.000009
1.000009
1.000009
1.000009
1.000009
1.000009
1.000009
1.000009
1.000009
1.000009
1.000009
1.000009
1.000009
1.000009
1.0000091
1.0000091
1.0000091
1.000009
1.000009
1.000009
1.0000091
1.0000091
1.0000091
1.0000091
1.0000091
1.0000091
1.0000091
1.0000091
1.0000091
1.0000091
1.0000091
1.0000091
1.0000091
1.0000091
1.0000064
1.0000076
1.0000083
1.0000085
1.0000085
1.0000085
1.0000085
1.0000085
1.0000085
1.0000085
1.0000085
1.0000085
1.0000085
1.0000085
1.0000085
1.0000085
1.0000085
1.0000085
1.0000085
1.0000085
1.0000085
1.0000085
1.0000085
1.0000085
1.0000085
1.0000085
1.0000085
1.0000085
1.0000085
1.0000085
1.0000085
1.0000085
1.0000085
1.0000085
1.0000085
1.0000085
1.0000085
1.0000085
1.0000085
1.0000085
1.0000085
1.0000085
1.0000085
1.0000085
1.0000085
1.0000085
1.0000085
1.0000085
1.0000085
1.0000085
1.0000085
1.0000085
1.0000085
1.0000085
1.0000085
1.0000085
1.0000085
1.0000085
1.0000085
1.0000062
1.0000073
1.0000079
1.000008
1.0000081
1.000008
1.000008
1.000008
1.000008
1.000008
1.000008
1.000008
1.000008
1.000008
1.000008
1.000008
1.000008
1.000008
1.000008
1.000008
1.000008
1.000008
1.000008
1.000008
1.000008
1.000008
1.000008
1.000008
1.000008
1.000008
1.000008
1.000008
1.000008
1.000008
1.000008
1.000008
1.000008
1.000008
1.000008
1.000008
1.000008
1.000008
1.000008
1.000008
1.000008
1.000008
1.000008
1.000008
1.000008
1.000008
1.000008
1.000008
1.000008
1.000008
1.0000081
1.0000081
1.0000081
1.0000081
1.0000081
1.000006
1.000007
1.0000075
1.0000076
1.0000076
1.0000076
1.0000076
1.0000076
1.0000076
1.0000076
1.0000076
1.0000076
1.0000076
1.0000076
1.0000076
1.0000076
1.0000076
1.0000076
1.0000076
1.0000076
1.0000076
1.0000076
1.0000076
1.0000076
1.0000076
1.0000076
1.0000076
1.0000076
1.0000076
1.0000076
1.0000076
1.0000076
1.0000076
1.0000076
1.0000076
1.0000076
1.0000076
1.0000076
1.0000076
1.0000076
1.0000076
1.0000076
1.0000076
1.0000076
1.0000076
1.0000076
1.0000076
1.0000076
1.0000076
1.0000076
1.0000076
1.0000076
1.0000076
1.0000076
1.0000076
1.0000077
1.0000076
1.0000076
1.0000076
1.0000058
1.0000068
1.0000072
1.0000073
1.0000073
1.0000073
1.0000072
1.0000072
1.0000072
1.0000073
1.0000073
1.0000072
1.0000072
1.0000072
1.0000073
1.0000072
1.0000072
1.0000072
1.0000072
1.0000072
1.0000072
1.0000072
1.0000072
1.0000072
1.0000072
1.0000072
1.0000072
1.0000072
1.0000072
1.0000072
1.0000072
1.0000072
1.0000072
1.0000072
1.0000072
1.0000072
1.0000072
1.0000072
1.0000072
1.0000072
1.0000073
1.0000073
1.0000073
1.0000072
1.0000072
1.0000072
1.0000073
1.0000073
1.0000073
1.0000073
1.0000073
1.0000073
1.0000073
1.0000073
1.0000073
1.0000073
1.0000073
1.0000073
1.0000073
1.0000057
1.0000066
1.0000069
1.000007
1.000007
1.0000069
1.0000069
1.0000069
1.0000069
1.0000069
1.0000069
1.0000069
1.0000069
1.0000069
1.0000069
1.0000069
1.0000069
1.0000069
1.0000069
1.0000069
1.0000069
1.0000069
1.0000069
1.0000069
1.0000069
1.0000069
1.0000069
1.0000069
1.0000069
1.0000069
1.0000069
1.0000069
1.0000069
1.0000069
1.0000069
1.0000069
1.0000069
1.0000069
1.0000069
1.0000069
1.0000069
1.0000069
1.0000069
1.0000069
1.0000069
1.0000069
1.0000069
1.000007
1.000007
1.000007
1.0000069
1.0000069
1.0000069
1.0000069
1.000007
1.000007
1.000007
1.000007
1.000007
1.0000056
1.0000064
1.0000067
1.0000067
1.0000067
1.0000067
1.0000067
1.0000067
1.0000067
1.0000067
1.0000067
1.0000067
1.0000067
1.0000067
1.0000067
1.0000067
1.0000066
1.0000066
1.0000066
1.0000066
1.0000066
1.0000066
1.0000066
1.0000066
1.0000066
1.0000066
1.0000066
1.0000066
1.0000066
1.0000066
1.0000066
1.0000066
1.0000066
1.0000066
1.0000066
1.0000066
1.0000066
1.0000066
1.0000066
1.0000066
1.0000067
1.0000067
1.0000067
1.0000067
1.0000066
1.0000066
1.0000067
1.0000067
1.0000067
1.0000067
1.0000067
1.0000067
1.0000067
1.0000067
1.0000067
1.0000067
1.0000067
1.0000067
1.0000067
1.0000055
1.0000064
1.0000065
1.0000065
1.0000065
1.0000065
1.0000065
1.0000065
1.0000065
1.0000065
1.0000065
1.0000065
1.0000065
1.0000065
1.0000065
1.0000064
1.0000064
1.0000064
1.0000064
1.0000064
1.0000064
1.0000064
1.0000064
1.0000064
1.0000064
1.0000064
1.0000064
1.0000064
1.0000064
1.0000064
1.0000064
1.0000064
1.0000064
1.0000064
1.0000064
1.0000064
1.0000064
1.0000064
1.0000064
1.0000064
1.0000064
1.0000065
1.0000065
1.0000065
1.0000064
1.0000064
1.0000065
1.0000065
1.0000065
1.0000065
1.0000065
1.0000065
1.0000065
1.0000065
1.0000065
1.0000065
1.0000065
1.0000065
1.0000065
1.0000055
1.0000063
1.0000064
1.0000063
1.0000063
1.0000063
1.0000063
1.0000063
1.0000063
1.0000063
1.0000063
1.0000063
1.0000063
1.0000063
1.0000063
1.0000063
1.0000062
1.0000063
1.0000063
1.0000063
1.0000063
1.0000063
1.0000062
1.0000062
1.0000062
1.0000062
1.0000062
1.0000062
1.0000062
1.0000062
1.0000062
1.0000062
1.0000062
1.0000062
1.0000063
1.0000063
1.0000063
1.0000063
1.0000063
1.0000063
1.0000063
1.0000063
1.0000063
1.0000063
1.0000063
1.0000063
1.0000063
1.0000063
1.0000063
1.0000063
1.0000063
1.0000063
1.0000063
1.0000063
1.0000063
1.0000064
1.0000064
1.0000063
1.0000063
1.0000054
1.000006
1.000006
1.000006
1.000006
1.0000059
1.000006
1.000006
1.000006
1.0000059
1.0000059
1.000006
1.000006
1.000006
1.0000059
1.0000059
1.0000059
1.0000059
1.0000059
1.0000059
1.0000059
1.0000059
1.0000059
1.0000059
1.0000059
1.0000059
1.0000059
1.0000059
1.0000059
1.0000059
1.0000059
1.0000059
1.0000059
1.0000059
1.0000059
1.0000059
1.0000059
1.0000059
1.0000059
1.0000059
1.0000059
1.0000059
1.0000059
1.0000059
1.0000059
1.0000059
1.0000059
1.0000059
1.000006
1.000006
1.000006
1.0000059
1.0000059
1.000006
1.000006
1.000006
1.0000061
1.000006
1.000006
1.0000053
1.0000062
1.0000058
1.000006
1.0000059
1.0000058
1.000006
1.000006
1.0000058
1.0000058
1.0000058
1.0000058
1.0000058
1.0000058
1.0000057
1.0000057
1.0000057
1.0000057
1.0000057
1.0000057
1.0000057
1.0000057
1.0000057
1.0000057
1.0000057
1.0000057
1.0000057
1.0000057
1.0000057
1.0000057
1.0000057
1.0000057
1.0000057
1.0000057
1.0000057
1.0000057
1.0000057
1.0000057
1.0000057
1.0000057
1.0000057
1.0000057
1.0000058
1.0000058
1.0000057
1.0000057
1.0000057
1.0000058
1.0000058
1.0000058
1.0000058
1.0000058
1.0000057
1.0000059
1.0000058
1.0000058
1.0000061
1.0000057
1.0000057
1.0000069
1.0000074
1.000007
1.0000073
1.000007
1.000007
1.0000073
1.0000071
1.000007
1.0000071
1.0000071
1.0000072
1.0000071
1.0000071
1.0000071
1.0000071
1.0000071
1.0000071
1.0000072
1.0000072
1.0000071
1.0000071
1.0000071
1.0000071
1.0000071
1.0000071
1.0000071
1.0000071
1.0000071
1.0000071
1.0000071
1.0000071
1.0000071
1.0000071
1.0000071
1.0000071
1.0000072
1.0000072
1.0000071
1.0000071
1.0000071
1.0000071
1.0000071
1.0000071
1.0000071
1.0000071
1.0000071
1.0000071
1.0000071
1.0000071
1.0000071
1.0000071
1.0000071
1.0000071
1.0000072
1.0000069
1.0000074
1.0000071
1.0000071
1.0000056
1.0000044
1.0000049
1.0000044
1.000005
1.0000052
1.0000047
1.0000048
1.000005
1.000005
1.0000049
1.0000047
1.0000046
1.0000046
1.0000047
1.0000046
1.0000046
1.0000045
1.0000044
1.0000043
1.0000043
1.0000043
1.0000043
1.0000043
1.0000043
1.0000043
1.0000043
1.0000043
1.0000042
1.0000042
1.0000042
1.0000042
1.0000042
1.0000042
1.0000043
1.0000043
1.0000043
1.0000044
1.0000045
1.0000046
1.0000047
1.0000048
1.0000049
1.000005
1.0000051
1.0000052
1.0000051
1.000005
1.000005
1.0000051
1.0000052
1.0000052
1.0000053
1.0000051
1.000005
1.000005
1.0000044
1.0000054
1.0000053
1.0000365
1.0000366
1.0000366
1.0000366
1.0000366
1.0000366
1.0000367
1.0000367
1.0000367
1.0000367
1.0000367
1.0000367
1.0000367
1.0000368
1.0000368
1.0000368
1.0000368
1.0000368
1.0000368
1.0000368
1.0000368
1.0000368
1.0000368
1.0000368
1.0000368
1.0000368
1.0000368
1.0000368
1.0000369
1.0000369
1.0000369
1.0000369
1.0000369
1.0000369
1.0000369
1.0000369
1.0000369
1.0000369
1.000037
1.000037
1.000037
1.000037
1.000037
1.000037
1.000037
1.000037
1.000037
1.000037
1.000037
1.000037
1.000037
1.0000369
1.0000368
1.0000365
1.000036
1.0000349
1.000033
1.0000298
1.0000255
1.0000335
1.0000335
1.0000336
1.0000336
1.0000336
1.0000336
1.0000336
1.0000336
1.0000336
1.0000337
1.0000337
1.0000337
1.0000337
1.0000337
1.0000337
1.0000337
1.0000337
1.0000337
1.0000338
1.0000338
1.0000338
1.0000338
1.0000338
1.0000338
1.0000338
1.0000338
1.0000338
1.0000338
1.0000338
1.0000338
1.0000338
1.0000338
1.0000338
1.0000338
1.0000338
1.0000338
1.0000338
1.0000339
1.0000339
1.0000339
1.0000339
1.0000339
1.0000339
1.0000339
1.0000339
1.0000339
1.0000339
1.0000339
1.0000339
1.0000339
1.0000339
1.0000338
1.0000337
1.0000335
1.000033
1.000032
1.0000303
1.0000273
1.0000233
1.0000307
1.0000307
1.0000307
1.0000307
1.0000307
1.0000307
1.0000308
1.0000308
1.0000308
1.0000308
1.0000308
1.0000308
1.0000308
1.0000308
1.0000308
1.0000309
1.0000309
1.0000309
1.0000309
1.0000309
1.0000309
1.0000309
1.0000309
1.0000309
1.0000309
1.0000309
1.0000309
1.0000309
1.0000309
1.0000309
1.0000309
1.0000309
1.0000309
1.0000309
1.0000309
1.0000309
1.0000309
1.0000309
1.000031
1.000031
1.000031
1.000031
1.000031
1.000031
1.000031
1.000031
1.000031
1.000031
1.000031
1.000031
1.000031
1.0000309
1.0000308
1.0000306
1.0000302
1.0000293
1.0000277
1.000025
1.0000214
1.000028
1.000028
1.000028
1.0000281
1.0000281
1.0000281
1.0000281
1.0000281
1.0000281
1.0000281
1.0000281
1.0000281
1.0000281
1.0000282
1.0000282
1.0000282
1.0000282
1.0000282
1.0000282
1.0000282
1.0000282
1.0000282
1.0000282
1.0000282
1.0000282
1.0000282
1.0000282
1.0000282
1.0000282
1.0000282
1.0000282
1.0000282
1.0000282
1.0000282
1.0000282
1.0000282
1.0000282
1.0000282
1.0000283
1.0000283
1.0000283
1.0000283
1.0000283
1.0000283
1.0000283
1.0000283
1.0000283
1.0000283
1.0000283
1.0000283
1.0000283
1.0000282
1.0000282
1.000028
1.0000276
1.0000268
1.0000253
1.0000228
1.0000195
1.0000255
1.0000256
1.0000256
1.0000256
1.0000256
1.0000256
1.0000256
1.0000256
1.0000256
1.0000256
1.0000256
1.0000256
1.0000257
1.0000257
1.0000257
1.0000257
1.0000257
1.0000257
1.0000257
1.0000257
1.0000257
1.0000257
1.0000257
1.0000257
1.0000257
1.0000257
1.0000257
1.0000257
1.0000257
1.0000257
1.0000257
1.0000257
1.0000257
1.0000257
1.0000257
1.0000257
1.0000257
1.0000257
1.0000257
1.0000258
1.0000258
1.0000258
1.0000258
1.0000258
1.0000258
1.0000258
1.0000258
1.0000258
1.0000258
1.0000258
1.0000258
1.0000257
1.0000257
1.0000255
1.0000252
1.0000244
1.0000231
1.0000208
1.0000178
1.0000233
1.0000233
1.0000233
1.0000233
1.0000233
1.0000233
1.0000233
1.0000233
1.0000233
1.0000233
1.0000233
1.0000233
1.0000233
1.0000234
1.0000234
1.0000234
1.0000234
1.0000234
1.0000234
1.0000234
1.0000234
1.0000234
1.0000234
1.0000234
1.0000234
1.0000234
1.0000234
1.0000234
1.0000234
1.0000234
1.0000234
1.0000234
1.0000234
1.0000234
1.0000234
1.0000234
1.0000234
1.0000234
1.0000234
1.0000234
1.0000234
1.0000234
1.0000234
1.0000234
1.0000234
1.0000234
1.0000234
1.0000234
1.0000234
1.0000234
1.0000234
1.0000234
1.0000234
1.0000232
1.0000229
1.0000223
1.0000211
1.0000189
1.0000162
1.0000211
1.0000211
1.0000211
1.0000212
1.0000212
1.0000212
1.0000212
1.0000212
1.0000212
1.0000212
1.0000212
1.0000212
1.0000212
1.0000212
1.0000212
1.0000212
1.0000212
1.0000212
1.0000212
1.0000212
1.0000212
1.0000212
1.0000212
1.0000212
1.0000212
1.0000212
1.0000212
1.0000212
1.0000212
1.0000212
1.0000212
1.0000212
1.0000212
1.0000212
1.0000212
1.0000212
1.0000212
1.0000213
1.0000213
1.0000213
1.0000213
1.0000213
1.0000213
1.0000213
1.0000213
1.0000213
1.0000213
1.0000213
1.0000213
1.0000213
1.0000213
1.0000213
1.0000212
1.0000211
1.0000209
1.0000203
1.0000192
1.0000172
1.0000148
1.0000192
1.0000192
1.0000192
1.0000192
1.0000192
1.0000192
1.0000192
1.0000192
1.0000192
1.0000192
1.0000192
1.0000192
1.0000192
1.0000192
1.0000192
1.0000192
1.0000192
1.0000192
1.0000193
1.0000193
1.0000193
1.0000193
1.0000193
1.0000192
1.0000192
1.0000192
1.0000192
1.0000192
1.0000192
1.0000192
1.0000192
1.0000192
1.0000192
1.0000193
1.0000193
1.0000193
1.0000193
1.0000193
1.0000193
1.0000193
1.0000193
1.0000193
1.0000193
1.0000193
1.0000193
1.0000193
1.0000193
1.0000193
1.0000193
1.0000193
1.0000193
1.0000193
1.0000193
1.0000192
1.000019
1.0000185
1.0000175
1.0000157
1.0000134
1.0000174
1.0000174
1.0000174
1.0000174
1.0000174
1.0000174
1.0000174
1.0000174
1.0000174
1.0000174
1.0000174
1.0000174
1.0000174
1.0000174
1.0000174
1.0000174
1.0000174
1.0000174
1.0000174
1.0000174
1.0000174
1.0000174
1.0000174
1.0000174
1.0000174
1.0000174
1.0000174
1.0000174
1.0000174
1.0000174
1.0000174
1.0000174
1.0000174
1.0000174
1.0000174
1.0000174
1.0000174
1.0000174
1.0000175
1.0000175
1.0000175
1.0000175
1.0000175
1.0000175
1.0000175
1.0000175
1.0000175
1.0000175
1.0000175
1.0000175
1.0000175
1.0000175
1.0000175
1.0000174
1.0000172
1.0000168
1.0000159
1.0000143
1.0000122
1.0000157
1.0000157
1.0000157
1.0000157
1.0000157
1.0000157
1.0000158
1.0000158
1.0000158
1.0000158
1.0000158
1.0000158
1.0000158
1.0000158
1.0000158
1.0000158
1.0000158
1.0000158
1.0000158
1.0000158
1.0000158
1.0000158
1.0000158
1.0000158
1.0000158
1.0000158
1.0000158
1.0000158
1.0000158
1.0000158
1.0000158
1.0000158
1.0000158
1.0000158
1.0000158
1.0000158
1.0000158
1.0000158
1.0000158
1.0000158
1.0000158
1.0000158
1.0000158
1.0000158
1.0000158
1.0000158
1.0000158
1.0000158
1.0000158
1.0000158
1.0000158
1.0000158
1.0000158
1.0000158
1.0000156
1.0000153
1.0000145
1.000013
1.0000111
1.0000142
1.0000142
1.0000142
1.0000142
1.0000142
1.0000142
1.0000142
1.0000142
1.0000142
1.0000142
1.0000142
1.0000143
1.0000143
1.0000143
1.0000143
1.0000143
1.0000143
1.0000143
1.0000143
1.0000143
1.0000143
1.0000143
1.0000143
1.0000142
1.0000142
1.0000142
1.0000142
1.0000142
1.0000142
1.0000142
1.0000142
1.0000142
1.0000142
1.0000142
1.0000143
1.0000143
1.0000143
1.0000143
1.0000143
1.0000143
1.0000143
1.0000143
1.0000143
1.0000143
1.0000143
1.0000143
1.0000143
1.0000143
1.0000143
1.0000143
1.0000143
1.0000143
1.0000143
1.0000143
1.0000141
1.0000139
1.0000132
1.0000118
1.00001
1.0000129
1.0000129
1.0000129
1.0000129
1.0000129
1.0000129
1.0000129
1.0000129
1.0000129
1.0000129
1.0000129
1.0000129
1.0000129
1.0000129
1.0000129
1.0000129
1.0000129
1.0000129
1.0000129
1.0000129
1.0000129
1.0000129
1.0000129
1.0000129
1.0000129
1.0000129
1.0000129
1.0000129
1.0000129
1.0000129
1.0000129
1.0000129
1.0000129
1.0000129
1.0000129
1.0000129
1.0000129
1.0000129
1.0000129
1.0000129
1.0000129
1.0000129
1.0000129
1.0000129
1.0000129
1.0000129
1.0000129
1.0000129
1.0000129
1.0000129
1.0000129
1.0000129
1.0000129
1.0000129
1.0000128
1.0000126
1.000012
1.0000108
1.0000091
1.0000116
1.0000116
1.0000116
1.0000116
1.0000116
1.0000116
1.0000116
1.0000116
1.0000116
1.0000116
1.0000116
1.0000116
1.0000116
1.0000116
1.0000116
1.0000116
1.0000116
1.0000116
1.0000116
1.0000116
1.0000116
1.0000116
1.0000116
1.0000116
1.0000116
1.0000116
1.0000116
1.0000116
1.0000116
1.0000116
1.0000116
1.0000116
1.0000116
1.0000116
1.0000116
1.0000116
1.0000116
1.0000116
1.0000116
1.0000116
1.0000116
1.0000116
1.0000117
1.0000117
1.0000117
1.0000117
1.0000117
1.0000117
1.0000116
1.0000116
1.0000116
1.0000117
1.0000117
1.0000117
1.0000116
1.0000114
1.0000109
1.0000099
1.0000083
1.0000105
1.0000105
1.0000105
1.0000105
1.0000105
1.0000105
1.0000105
1.0000105
1.0000105
1.0000105
1.0000105
1.0000105
1.0000105
1.0000105
1.0000105
1.0000105
1.0000105
1.0000105
1.0000105
1.0000105
1.0000105
1.0000105
1.0000105
1.0000105
1.0000105
1.0000105
1.0000105
1.0000105
1.0000105
1.0000105
1.0000105
1.0000105
1.0000105
1.0000105
1.0000105
1.0000105
1.0000105
1.0000105
1.0000105
1.0000105
1.0000105
1.0000105
1.0000105
1.0000105
1.0000105
1.0000105
1.0000105
1.0000105
1.0000105
1.0000105
1.0000105
1.0000105
1.0000106
1.0000106
1.0000105
1.0000104
1.00001
1.000009
1.0000076
1.0000279
1.0000309
1.0000342
1.0000377
1.0000416
1.0000458
1.0000504
1.0000552
1.0000604
1.0000659
1.0000718
1.000078
1.0000846
1.0000915
1.0000987
1.0001062
1.0001139
1.0001218
1.0001297
1.0001376
1.0001453
1.0001527
1.0001596
1.0001657
1.000171
1.0001752
1.0001781
1.0001795
1.0001793
1.0001774
1.0001737
1.0001683
1.0001613
1.0001524
1.000142
1.0001305
1.0001178
1.0001042
1.00009
1.0000754
1.0000604
1.0000452
1.00003
1.0000148
0.99999988
0.99998522
0.99997099
0.99995728
0.99994414
0.99993162
0.99991962
0.99990811
0.99989719
0.99988689
0.99987723
0.99986817
0.99985968
0.99985174
0.99984431
0.99983736
0.99983088
0.99982483
0.99981918
0.99981393
0.99980904
0.99980449
0.99980027
0.99979635
0.9997927
0.99978932
0.99978618
0.99978326
0.99978055
0.99977806
1.0000326
1.0000359
1.0000396
1.0000435
1.0000478
1.0000524
1.0000574
1.0000627
1.0000685
1.0000746
1.0000811
1.000088
1.0000953
1.0001029
1.0001109
1.000119
1.0001274
1.0001359
1.0001444
1.0001528
1.0001608
1.0001684
1.0001753
1.0001813
1.0001862
1.0001897
1.0001916
1.0001918
1.00019
1.0001861
1.0001802
1.0001722
1.0001622
1.0001503
1.0001367
1.0001217
1.0001053
1.000088
1.0000699
1.0000514
1.0000327
1.000014
0.99999549
0.99997723
0.99995944
0.99994219
0.99992585
0.99991023
0.99989516
0.99988069
0.99986693
0.99985387
0.99984151
0.99982985
0.99981889
0.99980861
0.99979895
0.99978989
0.99978142
0.9997735
0.99976613
0.99975926
0.99975287
0.99974695
0.99974145
0.99973635
0.99973162
0.99972725
0.99972319
0.99971943
0.99971595
0.99971274
0.99970976
0.99970703
1.0000362
1.0000399
1.0000439
1.0000483
1.000053
1.0000581
1.0000636
1.0000696
1.0000759
1.0000827
1.00009
1.0000977
1.0001058
1.0001143
1.0001231
1.0001323
1.0001416
1.000151
1.0001605
1.0001697
1.0001786
1.0001869
1.0001945
1.000201
1.0002061
1.0002097
1.0002114
1.0002111
1.0002085
1.0002035
1.0001961
1.0001862
1.0001739
1.0001594
1.0001429
1.0001246
1.0001049
1.0000839
1.0000621
1.0000397
1.000017
0.99999423
0.99997167
0.99994947
0.99992779
0.99990675
0.99988644
0.99986694
0.99984831
0.9998306
0.9998138
0.99979791
0.99978292
0.99976879
0.99975532
0.99974264
0.99973091
0.99972004
0.99970995
0.99970057
0.99969188
0.99968381
0.99967633
0.99966937
0.99966291
0.99965692
0.99965135
0.99964618
0.9996414
0.99963698
0.99963288
0.99962909
0.99962557
0.99962234
1.0000382
1.0000422
1.0000466
1.0000513
1.0000564
1.000062
1.000068
1.0000744
1.0000813
1.0000887
1.0000966
1.000105
1.0001138
1.0001231
1.0001328
1.0001428
1.0001531
1.0001635
1.0001739
1.0001842
1.0001941
1.0002034
1.0002119
1.0002193
1.0002252
1.0002294
1.0002317
1.0002317
1.0002292
1.0002242
1.0002164
1.0002059
1.0001927
1.000177
1.0001591
1.0001391
1.0001174
1.0000942
1.00007
1.0000451
1.0000197
0.99999413
0.99996868
0.99994355
0.99991895
0.99989501
0.99987184
0.9998495
0.99982809
0.99980766
0.99978824
0.99976983
0.99975243
0.99973603
0.99972059
0.99970608
0.99969247
0.99967974
0.99966785
0.99965676
0.99964642
0.99963679
0.99962786
0.99961958
0.9996119
0.99960479
0.99959821
0.99959212
0.99958647
0.99958126
0.99957643
0.99957197
0.99956785
0.99956405
1.0000394
1.0000436
1.0000482
1.0000532
1.0000586
1.0000644
1.0000708
1.0000776
1.0000849
1.0000928
1.0001012
1.0001101
1.0001195
1.0001294
1.0001398
1.0001506
1.0001616
1.0001729
1.0001842
1.0001954
1.0002063
1.0002166
1.000226
1.0002344
1.0002413
1.0002464
1.0002495
1.0002503
1.0002485
1.000244
1.0002366
1.0002264
1.0002133
1.0001976
1.0001794
1.0001589
1.0001366
1.0001128
1.0000877
1.0000617
1.0000351
1.0000083
0.99998152
0.99995497
0.99992889
0.99990344
0.99987872
0.99985485
0.99983191
0.99980996
0.99978904
0.99976916
0.99975034
0.99973255
0.9997158
0.99970006
0.99968529
0.99967144
0.99965849
0.99964639
0.99963509
0.99962456
0.99961476
0.99960564
0.99959717
0.99958931
0.99958201
0.99957519
0.99956886
0.999563
0.99955758
0.99955259
0.99954797
0.99954375
1.0000401
1.0000444
1.0000491
1.0000543
1.0000599
1.000066
1.0000725
1.0000796
1.0000873
1.0000955
1.0001042
1.0001135
1.0001234
1.0001338
1.0001448
1.0001561
1.0001678
1.0001797
1.0001918
1.0002037
1.0002154
1.0002266
1.0002369
1.0002461
1.0002539
1.00026
1.000264
1.0002656
1.0002647
1.0002609
1.0002543
1.0002447
1.0002322
1.0002169
1.0001991
1.000179
1.0001569
1.0001332
1.0001081
1.0000821
1.0000554
1.0000284
1.0000013
0.9999744
0.99994794
0.99992206
0.99989689
0.99987254
0.99984909
0.99982663
0.99980519
0.9997848
0.99976545
0.99974715
0.99972989
0.99971366
0.9996984
0.9996841
0.9996707
0.99965817
0.99964647
0.99963555
0.99962538
0.99961592
0.99960712
0.99959895
0.99959136
0.99958433
0.99957781
0.99957178
0.9995662
0.99956103
0.99955626
0.99955185
1.0000404
1.0000448
1.0000497
1.0000549
1.0000607
1.0000669
1.0000736
1.0000809
1.0000888
1.0000972
1.0001063
1.0001159
1.0001261
1.0001369
1.0001482
1.00016
1.0001722
1.0001846
1.0001972
1.0002098
1.0002221
1.0002339
1.000245
1.000255
1.0002635
1.0002704
1.0002752
1.0002776
1.0002774
1.0002744
1.0002685
1.0002597
1.0002479
1.0002332
1.000216
1.0001965
1.0001749
1.0001516
1.0001269
1.0001012
1.0000748
1.000048
1.0000212
0.99999449
0.99996817
0.99994241
0.99991732
0.99989303
0.99986963
0.99984718
0.99982575
0.99980534
0.99978597
0.99976764
0.99975034
0.99973405
0.99971875
0.99970438
0.99969093
0.99967834
0.99966658
0.9996556
0.99964537
0.99963585
0.999627
0.99961877
0.99961114
0.99960405
0.99959749
0.99959141
0.99958578
0.99958057
0.99957576
0.99957132
1.0000406
1.0000451
1.00005
1.0000553
1.0000611
1.0000675
1.0000743
1.0000818
1.0000898
1.0000984
1.0001076
1.0001175
1.0001279
1.000139
1.0001506
1.0001627
1.0001753
1.0001881
1.0002011
1.0002142
1.000227
1.0002393
1.0002509
1.0002615
1.0002707
1.0002781
1.0002835
1.0002866
1.0002871
1.0002848
1.0002795
1.0002713
1.0002601
1.0002461
1.0002294
1.0002104
1.0001893
1.0001664
1.0001422
1.0001169
1.0000909
1.0000645
1.000038
1.0000116
0.9999855
0.99995998
0.99993512
0.99991104
0.99988782
0.99986555
0.99984427
0.99982401
0.99980477
0.99978656
0.99976936
0.99975317
0.99973795
0.99972366
0.99971028
0.99969775
0.99968605
0.99967513
0.99966495
0.99965547
0.99964666
0.99963847
0.99963087
0.99962381
0.99961727
0.99961122
0.99960561
0.99960043
0.99959563
0.99959121
1.0000407
1.0000452
1.0000501
1.0000555
1.0000614
1.0000678
1.0000748
1.0000823
1.0000904
1.0000992
1.0001085
1.0001185
1.0001292
1.0001404
1.0001523
1.0001646
1.0001775
1.0001906
1.0002039
1.0002173
1.0002305
1.0002432
1.0002552
1.0002662
1.0002759
1.0002838
1.0002897
1.0002933
1.0002943
1.0002925
1.0002877
1.00028
1.0002693
1.0002557
1.0002395
1.0002209
1.0002002
1.0001777
1.0001538
1.0001289
1.0001032
1.0000771
1.0000508
1.0000246
0.9999988
0.99997348
0.99994881
0.9999249
0.99990185
0.99987973
0.99985859
0.99983845
0.99981933
0.99980123
0.99978413
0.99976803
0.99975289
0.99973868
0.99972537
0.99971291
0.99970127
0.99969041
0.99968029
0.99967086
0.99966209
0.99965395
0.99964639
0.99963938
0.99963287
0.99962685
0.99962128
0.99961612
0.99961135
0.99960696
1.0000407
1.0000452
1.0000502
1.0000557
1.0000616
1.0000681
1.0000751
1.0000827
1.0000909
1.0000997
1.0001092
1.0001193
1.00013
1.0001414
1.0001534
1.000166
1.000179
1.0001924
1.0002059
1.0002196
1.000233
1.000246
1.0002584
1.0002697
1.0002797
1.000288
1.0002942
1.0002982
1.0002996
1.0002982
1.0002938
1.0002864
1.000276
1.0002628
1.0002469
1.0002286
1.0002082
1.000186
1.0001624
1.0001376
1.0001122
1.0000862
1.0000601
1.0000341
1.0000084
0.99998324
0.99995868
0.99993488
0.99991193
0.9998899
0.99986883
0.99984877
0.99982972
0.99981168
0.99979465
0.9997786
0.99976351
0.99974934
0.99973607
0.99972365
0.99971205
0.99970123
0.99969114
0.99968174
0.999673
0.99966489
0.99965735
0.99965036
0.99964388
0.99963788
0.99963233
0.9996272
0.99962245
0.99961807
1.0000407
1.0000453
1.0000503
1.0000557
1.0000617
1.0000682
1.0000752
1.0000829
1.0000911
1.0001
1.0001096
1.0001198
1.0001306
1.0001421
1.0001543
1.0001669
1.0001801
1.0001936
1.0002073
1.0002212
1.0002348
1.0002481
1.0002606
1.0002722
1.0002824
1.000291
1.0002975
1.0003018
1.0003035
1.0003023
1.0002982
1.0002911
1.000281
1.000268
1.0002524
1.0002343
1.0002141
1.000192
1.0001686
1.000144
1.0001186
1.0000928
1.0000668
1.0000409
1.0000152
0.99999012
0.99996563
0.99994188
0.99991897
0.99989698
0.99987596
0.99985593
0.99983691
0.9998189
0.99980189
0.99978586
0.9997708
0.99975665
0.9997434
0.999731
0.99971941
0.9997086
0.99969853
0.99968915
0.99968043
0.99967233
0.99966481
0.99965783
0.99965137
0.99964538
0.99963984
0.99963472
0.99962998
0.99962561
1.0000407
1.0000453
1.0000503
1.0000558
1.0000617
1.0000683
1.0000754
1.000083
1.0000913
1.0001003
1.0001099
1.0001201
1.000131
1.0001426
1.0001548
1.0001676
1.0001808
1.0001945
1.0002083
1.0002223
1.0002361
1.0002495
1.0002622
1.000274
1.0002844
1.0002932
1.0002999
1.0003044
1.0003063
1.0003053
1.0003015
1.0002945
1.0002846
1.0002718
1.0002564
1.0002384
1.0002183
1.0001964
1.0001731
1.0001486
1.0001233
1.0000975
1.0000716
1.0000457
1.0000201
0.99999502
0.99997054
0.99994681
0.99992392
0.99990195
0.99988094
0.99986092
0.99984191
0.9998239
0.9998069
0.99979088
0.99977581
0.99976167
0.99974842
0.99973603
0.99972445
0.99971364
0.99970358
0.9996942
0.99968549
0.99967739
0.99966988
0.99966291
0.99965645
0.99965046
0.99964493
0.99963981
0.99963508
0.99963072
1.0000407
1.0000453
1.0000503
1.0000558
1.0000618
1.0000683
1.0000754
1.0000831
1.0000914
1.0001004
1.00011
1.0001203
1.0001313
1.000143
1.0001552
1.000168
1.0001814
1.0001951
1.000209
1.0002231
1.000237
1.0002505
1.0002634
1.0002752
1.0002858
1.0002947
1.0003017
1.0003063
1.0003083
1.0003076
1.0003038
1.0002971
1.0002873
1.0002747
1.0002593
1.0002415
1.0002216
1.0001997
1.0001764
1.000152
1.0001268
1.000101
1.0000751
1.0000493
1.0000237
0.99999861
0.99997414
0.99995041
0.99992753
0.99990555
0.99988453
0.99986451
0.99984549
0.99982749
0.99981048
0.99979445
0.99977938
0.99976524
0.99975198
0.99973958
0.999728
0.9997172
0.99970713
0.99969775
0.99968904
0.99968094
0.99967343
0.99966646
0.99966
0.99965402
0.99964849
0.99964337
0.99963864
0.99963428
1.0000407
1.0000453
1.0000503
1.0000558
1.0000618
1.0000683
1.0000754
1.0000832
1.0000915
1.0001005
1.0001102
1.0001205
1.0001315
1.0001432
1.0001555
1.0001683
1.0001817
1.0001955
1.0002095
1.0002236
1.0002376
1.0002512
1.0002642
1.0002761
1.0002868
1.0002959
1.0003029
1.0003077
1.0003099
1.0003092
1.0003056
1.000299
1.0002894
1.0002769
1.0002617
1.000244
1.0002241
1.0002024
1.0001791
1.0001547
1.0001295
1.0001038
1.0000779
1.0000521
1.0000265
1.0000014
0.99997696
0.99995322
0.99993032
0.99990833
0.99988731
0.99986727
0.99984824
0.99983022
0.9998132
0.99979717
0.99978209
0.99976793
0.99975467
0.99974226
0.99973068
0.99971987
0.99970979
0.99970042
0.9996917
0.9996836
0.99967608
0.99966911
0.99966265
0.99965667
0.99965114
0.99964602
0.99964129
0.99963693
1.0000407
1.0000452
1.0000503
1.0000558
1.0000618
1.0000683
1.0000754
1.0000832
1.0000915
1.0001005
1.0001102
1.0001206
1.0001316
1.0001433
1.0001556
1.0001685
1.000182
1.0001958
1.0002098
1.000224
1.000238
1.0002517
1.0002647
1.0002768
1.0002876
1.0002967
1.0003039
1.0003087
1.000311
1.0003105
1.0003071
1.0003006
1.0002912
1.0002788
1.0002637
1.0002461
1.0002263
1.0002046
1.0001814
1.0001571
1.0001319
1.0001063
1.0000804
1.0000545
1.000029
1.0000039
0.99997939
0.99995564
0.99993273
0.99991072
0.99988968
0.99986963
0.99985058
0.99983255
0.99981551
0.99979946
0.99978436
0.9997702
0.99975692
0.99974451
0.99973291
0.99972209
0.999712
0.99970262
0.9996939
0.99968579
0.99967827
0.9996713
0.99966483
0.99965885
0.99965331
0.99964819
0.99964346
0.9996391
1.0000407
1.0000452
1.0000503
1.0000558
1.0000618
1.0000683
1.0000754
1.0000832
1.0000915
1.0001006
1.0001102
1.0001206
1.0001317
1.0001434
1.0001557
1.0001687
1.0001821
1.0001959
1.00021
1.0002242
1.0002383
1.000252
1.0002651
1.0002772
1.0002881
1.0002973
1.0003046
1.0003096
1.000312
1.0003116
1.0003083
1.000302
1.0002927
1.0002805
1.0002655
1.000248
1.0002283
1.0002067
1.0001836
1.0001594
1.0001342
1.0001086
1.0000827
1.0000569
1.0000314
1.0000063
0.99998175
0.99995799
0.99993506
0.99991303
0.99989197
0.9998719
0.99985283
0.99983477
0.99981772
0.99980165
0.99978653
0.99977235
0.99975906
0.99974663
0.99973502
0.99972418
0.99971409
0.9997047
0.99969596
0.99968785
0.99968032
0.99967334
0.99966687
0.99966089
0.99965534
0.99965022
0.99964548
0.99964112
1.0000407
1.0000452
1.0000503
1.0000558
1.0000618
1.0000683
1.0000754
1.0000832
1.0000915
1.0001006
1.0001102
1.0001206
1.0001317
1.0001434
1.0001558
1.0001687
1.0001822
1.000196
1.0002101
1.0002244
1.0002385
1.0002522
1.0002654
1.0002775
1.0002885
1.0002978
1.0003052
1.0003103
1.0003128
1.0003126
1.0003095
1.0003034
1.0002942
1.0002821
1.0002673
1.00025
1.0002304
1.000209
1.000186
1.0001618
1.0001367
1.0001111
1.0000853
1.0000595
1.0000339
1.0000088
0.9999843
0.99996052
0.99993757
0.99991552
0.99989443
0.99987433
0.99985524
0.99983716
0.99982008
0.99980398
0.99978884
0.99977464
0.99976133