/*--------------------------------*- C++ -*----------------------------------*\
| =========                 |                                                 |
| \\      /  F ield         | OpenFOAM: The Open Source CFD Toolbox           |
|  \\    /   O peration     | Version:  v2006                                 |
|   \\  /    A nd           | Website:  www.openfoam.com                      |
|    \\/     M anipulation  |                                                 |
\*---------------------------------------------------------------------------*/
FoamFile
{
    version     2.0;
    format      ascii;
    class       volVectorField;
    location    "6000";
    object      U;
}
// * * * * * * * * * * * * * * * * * * * * * * * * * * * * * * * * * * * * * //

dimensions      [0 1 -1 0 0 0 0];


internalField   nonuniform List<vector> 
55713
(
(0.10323253 6.1196372e-07 0)
(0.10313815 -3.1064639e-07 0)
(0.10312084 8.176583e-07 2.5656518e-18)
(0.10311853 6.271498e-07 -2.5522883e-18)
(0.10311971 1.2660296e-06 2.5704331e-18)
(0.10312097 1.2276373e-06 2.8620621e-27)
(0.1031216 1.6434717e-06 -2.6460141e-18)
(0.10312169 1.7748946e-06 0)
(0.10312157 2.0582016e-06 1.0710491e-20)
(0.10312155 2.2847212e-06 0)
(0.10312163 2.5681635e-06 -1.110755e-20)
(0.10312153 2.8387526e-06 -1.1312077e-20)
(0.10312109 3.0744304e-06 0)
(0.10312051 3.2813712e-06 3.0031624e-18)
(0.10312014 3.488967e-06 -3.0578472e-18)
(0.10312018 3.7061051e-06 -6.0802717e-21)
(0.10312054 3.9181864e-06 3.1750529e-18)
(0.10312105 4.1312401e-06 -3.2250863e-18)
(0.10312153 4.3274139e-06 6.4096345e-21)
(0.10312196 4.5132436e-06 -3.3387809e-18)
(0.10312237 4.6953324e-06 3.3895558e-18)
(0.10312279 4.8638537e-06 0)
(0.10312319 5.0135902e-06 0)
(0.10312354 5.1573473e-06 -1.7920971e-18)
(0.1031238 5.3059583e-06 1.8143621e-18)
(0.10312398 5.4712052e-06 0)
(0.1031241 5.6599225e-06 0)
(0.10312418 5.8529093e-06 0)
(0.10312421 6.0302301e-06 2.4142242e-19)
(0.10312421 6.2055299e-06 -4.5686466e-29)
(0.10312416 6.3726197e-06 -2.4388232e-19)
(0.10312404 6.5342528e-06 0)
(0.10312381 6.6947481e-06 0)
(0.10312347 6.8449894e-06 0)
(0.10312306 6.9988941e-06 0)
(0.10312268 7.1669776e-06 1.803672e-18)
(0.1031225 7.347518e-06 -1.7673167e-18)
(0.10312263 7.5306023e-06 -3.4898577e-18)
(0.10312301 7.7163402e-06 2.414e-27)
(0.10312343 7.9068847e-06 3.3668235e-18)
(0.10312362 8.1014669e-06 0)
(0.10312349 8.2894307e-06 6.3639461e-21)
(0.10312316 8.4742336e-06 -3.2014118e-18)
(0.10312282 8.6667744e-06 3.1449284e-18)
(0.10312263 8.8700711e-06 3.0889429e-18)
(0.10312257 9.0739343e-06 -3.0394443e-18)
(0.10312252 9.2838726e-06 0)
(0.10312243 9.4914315e-06 0)
(0.10312227 9.7118018e-06 -2.8604048e-18)
(0.10312205 9.9342119e-06 2.8195959e-18)
(0.10312181 1.0187848e-05 0)
(0.10312157 1.0419456e-05 0)
(0.10312136 1.0710789e-05 0)
(0.10312112 1.0944817e-05 0)
(0.10312081 1.1286965e-05 2.5867842e-18)
(0.10312062 1.1526594e-05 -3.4967649e-27)
(0.1031208 1.1903929e-05 -3.776689e-18)
(0.10312103 1.2262164e-05 1.2271307e-18)
(0.10312084 1.2381491e-05 -1.9264665e-20)
(0.10323797 1.0016264e-06 0)
(0.10315213 -2.4758533e-07 2.4224501e-18)
(0.10313879 9.4575926e-07 -2.5049905e-18)
(0.10313754 6.0030568e-07 3.9160916e-20)
(0.10313895 1.2040991e-06 -2.5374624e-18)
(0.10314011 1.1779529e-06 5.1418326e-18)
(0.10314059 1.6219147e-06 6.4155568e-27)
(0.10314057 1.6492665e-06 -2.6837248e-18)
(0.10314042 1.8970601e-06 -1.0692927e-20)
(0.10314045 2.0416525e-06 2.1809591e-20)
(0.10314054 2.2227906e-06 -2.8352903e-18)
(0.10314033 2.3982615e-06 2.9130714e-18)
(0.10313976 2.5902573e-06 2.9575609e-18)
(0.10313917 2.799169e-06 1.385974e-27)
(0.10313896 3.0526389e-06 -2.0934143e-28)
(0.10313922 3.323222e-06 -3.121309e-18)
(0.10313976 3.5496004e-06 -6.2201063e-21)
(0.10314033 3.7454999e-06 0)
(0.10314078 3.9231416e-06 3.293696e-18)
(0.10314112 4.0746811e-06 -6.7166165e-18)
(0.10314143 4.2056152e-06 3.4234315e-18)
(0.10314177 4.2844636e-06 1.3576085e-20)
(0.1031421 4.3415226e-06 0)
(0.10314239 4.4297227e-06 7.0188696e-21)
(0.10314261 4.5836116e-06 0)
(0.10314276 4.8357581e-06 9.1363469e-19)
(0.10314287 5.0644833e-06 -1.8860464e-18)
(0.10314293 5.2369474e-06 9.4292537e-19)
(0.10314296 5.4203053e-06 2.4317725e-19)
(0.10314295 5.6005974e-06 -2.6150635e-19)
(0.10314289 5.7503238e-06 0)
(0.10314277 5.8598813e-06 9.5137774e-19)
(0.10314255 5.9467409e-06 -1.9030244e-18)
(0.1031422 6.0115194e-06 9.3652054e-19)
(0.10314176 6.0837348e-06 0)
(0.10314132 6.2085182e-06 1.8131286e-18)
(0.10314107 6.3837204e-06 -1.7902357e-18)
(0.10314114 6.5624233e-06 1.369926e-20)
(0.10314153 6.7604038e-06 0)
(0.10314199 6.9642372e-06 6.6184701e-21)
(0.10314223 7.1455931e-06 3.3298631e-18)
(0.10314212 7.3271625e-06 -6.5490904e-18)
(0.10314173 7.5165155e-06 -3.236681e-28)
(0.10314132 7.6929615e-06 3.1551775e-18)
(0.10314108 7.855441e-06 -3.0975342e-18)
(0.10314103 7.991148e-06 6.0863661e-18)
(0.10314103 8.1704834e-06 -5.9665198e-18)
(0.10314098 8.3446715e-06 2.9267222e-18)
(0.10314087 8.5185277e-06 -1.1213568e-20)
(0.10314068 8.6864321e-06 0)
(0.10314042 8.9297841e-06 0)
(0.10314016 9.1201515e-06 0)
(0.10313994 9.42776e-06 -2.6745522e-18)
(0.10313969 9.6065337e-06 2.6227637e-18)
(0.10313934 9.9760391e-06 0)
(0.10313904 1.0149036e-05 3.9146836e-20)
(0.10313918 1.0559946e-05 0)
(0.10313945 1.0758941e-05 1.8906458e-20)
(0.10313923 1.1138504e-05 1.8547027e-20)
(0.10324263 1.1473692e-06 0)
(0.10316582 -2.6372382e-07 3.7321941e-20)
(0.10315449 9.0639069e-07 -3.7935253e-20)
(0.10315419 5.7421712e-07 -3.8472124e-20)
(0.10315575 1.1631376e-06 -2.5449251e-18)
(0.10315679 1.1948404e-06 2.5789686e-18)
(0.10315713 1.6091325e-06 0)
(0.10315702 1.7421626e-06 2.0894541e-20)
(0.10315687 1.9858446e-06 -5.4655794e-18)
(0.10315699 2.1062502e-06 5.538354e-18)
(0.1031571 2.2147656e-06 0)
(0.10315676 2.2723046e-06 -2.2714461e-20)
(0.10315606 2.3583759e-06 0)
(0.10315552 2.4526433e-06 3.0006567e-18)
(0.10315553 2.5712292e-06 -6.1656404e-18)
(0.10315603 2.7150498e-06 3.1414392e-18)
(0.10315674 2.8936548e-06 -3.1876651e-18)
(0.10315733 3.11271e-06 -1.1259386e-27)
(0.1031577 3.3570835e-06 3.3180539e-18)
(0.10315792 3.6072618e-06 -3.3772633e-18)
(0.10315813 3.8188529e-06 -5.7318632e-28)
(0.10315839 3.9570268e-06 3.4962897e-18)
(0.10315867 4.0109313e-06 0)
(0.10315892 4.0016679e-06 1.7939497e-18)
(0.1031591 4.0098866e-06 2.9016096e-27)
(0.10315923 4.0791439e-06 -1.839155e-18)
(0.10315932 4.2196571e-06 -1.4832385e-20)
(0.10315937 4.4446441e-06 4.9724979e-19)
(0.10315939 4.7046755e-06 -4.8970484e-19)
(0.10315938 4.9095294e-06 2.4769857e-19)
(0.10315933 5.0629274e-06 -2.4675904e-19)
(0.10315922 5.1983272e-06 3.0371888e-20)
(0.10315901 5.3119399e-06 0)
(0.10315866 5.3793251e-06 1.471115e-20)
(0.1031582 5.3921875e-06 -1.4473779e-20)
(0.10315771 5.4306911e-06 -1.4236813e-20)
(0.10315738 5.5217316e-06 -1.4000431e-20)
(0.10315738 5.6227351e-06 -1.3764745e-20)
(0.10315775 5.7364147e-06 3.450085e-18)
(0.10315826 5.8734318e-06 -3.4036455e-18)
(0.10315857 6.0630314e-06 0)
(0.10315847 6.3296055e-06 3.2842473e-18)
(0.10315803 6.5614031e-06 -3.2121861e-18)
(0.10315754 6.7050622e-06 3.1901686e-18)
(0.10315726 6.8521073e-06 -3.1061896e-18)
(0.10315722 6.9235826e-06 -3.0232127e-18)
(0.10315727 7.0291676e-06 -6.8577136e-28)
(0.10315728 7.1532439e-06 2.9060048e-18)
(0.1031572 7.3803997e-06 2.2421294e-20)
(0.10315704 7.5682736e-06 0)
(0.10315678 7.8174122e-06 0)
(0.10315649 7.9554196e-06 0)
(0.10315624 8.2606736e-06 2.0589056e-20)
(0.10315601 8.3391154e-06 -2.0135633e-20)
(0.10315563 8.712797e-06 0)
(0.10315523 8.7797749e-06 2.4626476e-18)
(0.10315533 9.1985095e-06 -2.4062153e-18)
(0.10315565 9.3106344e-06 0)
(0.10315541 9.7699052e-06 0)
(0.10324627 1.175684e-06 6.8433961e-20)
(0.10317691 -2.3942932e-07 -7.2491542e-20)
(0.10316827 8.2712149e-07 -2.3353106e-18)
(0.10316872 5.2053897e-07 2.4197578e-18)
(0.10317033 9.9699869e-07 3.8673345e-20)
(0.10317122 1.0131623e-06 0)
(0.10317142 1.3298055e-06 -2.60149e-18)
(0.10317123 1.4536704e-06 7.9748701e-18)
(0.10317111 1.6942612e-06 -1.0912393e-17)
(0.10317137 1.8764516e-06 5.6022538e-18)
(0.1031715 2.072912e-06 -2.8518217e-18)
(0.10317101 2.2309297e-06 2.2758071e-20)
(0.10317021 2.3619967e-06 5.9478382e-18)
(0.10316977 2.4477302e-06 -3.0108227e-18)
(0.10317002 2.462082e-06 0)
(0.10317076 2.4927619e-06 0)
(0.10317157 2.5456225e-06 -1.2559511e-20)
(0.10317212 2.6218421e-06 0)
(0.10317236 2.7408538e-06 0)
(0.10317247 2.8855876e-06 2.652778e-20)
(0.1031726 3.0714906e-06 -1.3499323e-20)
(0.10317281 3.2879476e-06 -2.7470654e-20)
(0.10317305 3.5030699e-06 -1.7884134e-18)
(0.10317326 3.6649364e-06 1.8330039e-18)
(0.10317342 3.7150612e-06 1.4447351e-20)
(0.10317353 3.6800089e-06 -1.4685957e-20)
(0.1031736 3.669597e-06 9.7011679e-19)
(0.10317364 3.7223795e-06 -9.7048329e-19)
(0.10317366 3.8361572e-06 1.5402231e-20)
(0.10317365 4.0010927e-06 -2.3361768e-19)
(0.10317361 4.1963376e-06 -2.4810476e-19)
(0.1031735 4.3990793e-06 4.7326607e-19)
(0.10317331 4.6072808e-06 0)
(0.10317298 4.7952943e-06 -1.9073527e-18)
(0.10317251 4.9054317e-06 1.4545453e-20)
(0.10317198 4.9726536e-06 3.6908692e-18)
(0.10317157 5.0225209e-06 -1.7864505e-18)
(0.1031715 5.056143e-06 0)
(0.10317185 5.0970239e-06 1.3590039e-20)
(0.10317241 5.1400408e-06 0)
(0.10317279 5.1971761e-06 0)
(0.10317272 5.2794299e-06 2.5757216e-20)
(0.10317224 5.4197974e-06 -1.264181e-20)
(0.10317165 5.5573427e-06 -3.2004326e-18)
(0.1031713 5.6963317e-06 3.1148284e-18)
(0.10317127 5.7890146e-06 -3.2532882e-26)
(0.10317138 6.0210016e-06 2.3380095e-20)
(0.10317143 6.2223007e-06 3.1200216e-26)
(0.10317139 6.5044423e-06 -2.2416677e-20)
(0.10317126 6.6602506e-06 -5.592276e-18)
(0.10317102 6.879778e-06 5.4888147e-18)
(0.1031707 6.9615673e-06 4.189351e-20)
(0.10317042 7.1944268e-06 -2.6582584e-18)
(0.10317022 7.2660266e-06 5.1056922e-18)
(0.10316986 7.5487555e-06 -5.0139191e-18)
(0.10316933 7.6182821e-06 2.4212379e-18)
(0.10316939 7.9918544e-06 -7.3553964e-20)
(0.10316978 8.0282443e-06 0)
(0.10316953 8.6102648e-06 0)
(0.10324903 1.0806572e-06 -6.6138943e-20)
(0.10318707 -1.7892697e-07 7.0440776e-20)
(0.10318033 7.0552023e-07 -2.319118e-18)
(0.1031814 4.6621137e-07 2.3045761e-18)
(0.103183 8.095849e-07 -2.4453491e-18)
(0.10318371 8.1102514e-07 2.5554494e-18)
(0.10318379 1.0269987e-06 2.546381e-18)
(0.1031835 1.1070433e-06 -2.6558846e-18)
(0.10318344 1.2817076e-06 5.4040503e-18)
(0.10318387 1.4249444e-06 -1.1113846e-17)
(0.10318403 1.6117262e-06 5.7086783e-18)
(0.10318338 1.7988659e-06 -2.2800406e-20)
(0.10318252 1.9959944e-06 -2.9818176e-18)
(0.10318223 2.1694217e-06 6.0890644e-18)
(0.10318272 2.3131005e-06 -3.1067029e-18)
(0.10318361 2.4237973e-06 -3.1684375e-18)
(0.10318445 2.4713769e-06 2.5233169e-20)
(0.10318491 2.4730236e-06 3.2653275e-18)
(0.10318504 2.4830844e-06 -2.6188259e-20)
(0.10318505 2.5245042e-06 -5.3329793e-20)
(0.10318513 2.5963448e-06 1.3570825e-20)
(0.10318531 2.6992233e-06 1.3809492e-20)
(0.10318552 2.8465777e-06 0)
(0.10318571 3.0541312e-06 -1.8289167e-18)
(0.10318586 3.2614375e-06 -1.4528868e-20)
(0.10318595 3.3731373e-06 1.9053208e-18)
(0.10318602 3.3687294e-06 0)
(0.10318605 3.3362321e-06 0)
(0.10318606 3.346185e-06 -3.0989395e-20)
(0.10318605 3.402786e-06 2.3492899e-19)
(0.10318601 3.4841255e-06 -2.4936895e-19)
(0.10318592 3.5921572e-06 0)
(0.10318574 3.7367978e-06 0)
(0.10318544 3.9160706e-06 -1.9015542e-18)
(0.10318498 4.1017078e-06 3.7409618e-18)
(0.10318442 4.2558212e-06 -1.8538546e-18)
(0.10318394 4.3933229e-06 -1.7803078e-18)
(0.10318379 4.5109332e-06 1.777722e-18)
(0.10318411 4.6047388e-06 0)
(0.10318472 4.6416847e-06 0)
(0.10318519 4.6655053e-06 -3.397178e-18)
(0.10318517 4.6718108e-06 3.2834294e-18)
(0.10318467 4.7161403e-06 2.5371748e-20)
(0.10318399 4.776831e-06 -3.1856532e-18)
(0.10318355 4.9135375e-06 6.222366e-18)
(0.1031835 5.0270691e-06 -3.0845828e-18)
(0.10318365 5.2436249e-06 -3.0208363e-18)
(0.10318373 5.3684321e-06 5.8670337e-18)
(0.10318373 5.5472198e-06 -2.8688452e-18)
(0.10318364 5.6287279e-06 -6.5701909e-20)
(0.10318342 5.8047034e-06 0)
(0.10318309 5.8988154e-06 -4.1701125e-20)
(0.10318277 6.1129473e-06 2.5996708e-18)
(0.10318259 6.2169517e-06 -5.0576898e-18)
(0.10318229 6.4672008e-06 2.5328617e-18)
(0.10318164 6.5668813e-06 3.7204452e-20)
(0.10318163 6.9165259e-06 1.43954e-19)
(0.10318211 6.9305041e-06 6.9435985e-20)
(0.10318187 7.5504286e-06 6.660255e-20)
(0.10325093 8.8997407e-07 -1.0235475e-18)
(0.10319552 -1.1025478e-07 -1.0957688e-18)
(0.10319084 5.5656275e-07 2.3389705e-18)
(0.10319237 4.310989e-07 -2.2666472e-18)
(0.10319389 6.8216772e-07 -6.3019693e-27)
(0.10319441 7.1312456e-07 2.4562067e-18)
(0.10319438 8.9077152e-07 4.0189833e-20)
(0.10319398 9.5817192e-07 5.2929597e-18)
(0.103194 1.0915217e-06 4.2475313e-20)
(0.10319465 1.1824887e-06 -5.6203443e-18)
(0.10319484 1.2912217e-06 5.6688379e-18)
(0.10319403 1.3989007e-06 -5.8246109e-18)
(0.10319315 1.5258344e-06 -2.9895247e-18)
(0.10319303 1.668563e-06 3.0542907e-18)
(0.10319369 1.8264677e-06 2.4360818e-20)
(0.10319466 1.9918633e-06 0)
(0.10319544 2.1359687e-06 -2.5343723e-20)
(0.10319579 2.2526177e-06 3.3320343e-18)
(0.10319582 2.3436421e-06 -6.7099291e-18)
(0.10319579 2.4006663e-06 2.2760408e-26)
(0.10319585 2.4268887e-06 2.7277345e-20)
(0.10319603 2.447399e-06 3.553157e-18)
(0.10319623 2.4713058e-06 -1.8074462e-18)
(0.1031964 2.5373989e-06 1.8383838e-18)
(0.10319653 2.6949269e-06 1.869409e-18)
(0.10319662 2.8823821e-06 -1.9153746e-18)
(0.10319668 3.0091052e-06 9.6586325e-19)
(0.10319671 3.0709293e-06 -9.8148973e-19)
(0.10319672 3.0797589e-06 -2.3369951e-19)
(0.10319671 3.0681944e-06 1.5742452e-20)
(0.10319667 3.0750048e-06 2.5053177e-19)
(0.10319659 3.0947569e-06 0)
(0.10319643 3.1434833e-06 -1.5166276e-20)
(0.10319616 3.2118808e-06 0)
(0.10319573 3.3102634e-06 -1.4675859e-20)
(0.10319516 3.4253828e-06 -1.8472591e-18)
(0.10319461 3.5665198e-06 -2.8376491e-20)
(0.10319436 3.7045148e-06 5.3549918e-18)
(0.10319463 3.8300427e-06 -7.0157469e-18)
(0.10319529 3.907951e-06 -2.6919932e-20)
(0.10319586 4.0096014e-06 6.81997e-18)
(0.10319592 4.0948293e-06 -3.3211728e-18)
(0.10319543 4.1994374e-06 3.2075888e-18)
(0.10319469 4.2551845e-06 -3.2203732e-18)
(0.10319413 4.3576214e-06 2.4466791e-20)
(0.10319404 4.4192141e-06 0)
(0.10319423 4.53703e-06 0)
(0.10319433 4.5839337e-06 4.5872755e-20)
(0.10319434 4.6953896e-06 5.736775e-18)
(0.10319428 4.7642478e-06 -5.555315e-18)
(0.1031941 4.9218025e-06 -4.2641486e-20)
(0.10319377 5.0159366e-06 2.656729e-18)
(0.1031934 5.1950616e-06 -5.1241617e-18)
(0.10319323 5.3072912e-06 -3.9606398e-27)
(0.10319306 5.5208187e-06 2.3875113e-18)
(0.10319227 5.6350284e-06 -7.5437972e-26)
(0.10319218 5.9358179e-06 -2.2546831e-18)
(0.10319277 5.9682327e-06 2.0946988e-18)
(0.10319253 6.5182475e-06 -6.4372805e-20)
(0.10325229 6.6187501e-07 0)
(0.10320323 -4.2066842e-08 6.6620577e-20)
(0.10320021 4.1110992e-07 -6.4023187e-26)
(0.10320204 3.7903751e-07 0)
(0.10320344 5.6545468e-07 -2.4630947e-18)
(0.10320377 6.6886614e-07 2.5131731e-18)
(0.10320365 8.2887097e-07 0)
(0.10320312 9.3384509e-07 4.1203014e-20)
(0.10320325 1.0527623e-06 0)
(0.10320411 1.1286511e-06 5.618123e-18)
(0.10320436 1.1921896e-06 -5.6732742e-18)
(0.10320333 1.2472126e-06 2.9287989e-18)
(0.10320251 1.3022809e-06 6.173901e-27)
(0.10320257 1.3685568e-06 -3.0637368e-18)
(0.10320333 1.4467677e-06 -3.15373e-18)
(0.1032043 1.541296e-06 3.1938246e-18)
(0.10320498 1.6483489e-06 0)
(0.10320523 1.7720368e-06 2.5942751e-20)
(0.1032052 1.9076498e-06 -2.6432162e-20)
(0.10320514 2.0327641e-06 2.496011e-26)
(0.10320523 2.1148522e-06 -2.7404475e-20)
(0.10320541 2.1646916e-06 0)
(0.10320562 2.1833429e-06 0)
(0.10320578 2.1895463e-06 0)
(0.1032059 2.2427395e-06 0)
(0.10320598 2.3580674e-06 0)
(0.10320603 2.4989128e-06 -9.5534187e-19)
(0.10320606 2.6201395e-06 5.0854025e-19)
(0.10320608 2.710224e-06 5.0101847e-19)
(0.10320607 2.7681659e-06 2.3722438e-19)
(0.10320603 2.7981366e-06 -7.5473615e-19)
(0.10320596 2.8032991e-06 5.1067826e-19)
(0.10320583 2.7952935e-06 1.5226941e-20)
(0.10320559 2.7980574e-06 0)
(0.10320519 2.8319346e-06 1.4732983e-20)
(0.10320462 2.8767153e-06 0)
(0.10320402 2.9468139e-06 0)
(0.10320366 3.0178775e-06 3.6114978e-18)
(0.10320385 3.1200784e-06 -7.0144437e-18)
(0.10320455 3.1980267e-06 6.943785e-18)
(0.10320522 3.3134755e-06 -6.8442823e-18)
(0.10320538 3.3879613e-06 6.6650749e-18)
(0.10320496 3.4908742e-06 -3.243468e-18)
(0.10320419 3.5594203e-06 2.5037926e-20)
(0.10320352 3.6609657e-06 3.1644205e-18)
(0.10320333 3.726581e-06 -3.0739209e-18)
(0.10320354 3.8157063e-06 2.3490225e-20)
(0.10320363 3.8701926e-06 -2.2954476e-20)
(0.10320365 3.9817379e-06 5.735901e-18)
(0.10320363 4.0666369e-06 -1.1139664e-17)
(0.10320349 4.1912149e-06 5.485612e-18)
(0.10320319 4.2753026e-06 4.1324308e-20)
(0.10320277 4.4207847e-06 0)
(0.10320255 4.5261967e-06 -2.5209441e-18)
(0.10320257 4.693585e-06 2.3954069e-18)
(0.10320165 4.8067889e-06 -7.2007892e-20)
(0.10320146 5.0432802e-06 2.1389037e-18)
(0.10320218 5.1070536e-06 -2.039619e-18)
(0.10320195 5.5663409e-06 1.2454614e-19)
(0.10325316 3.7220346e-07 0)
(0.10320978 2.946939e-08 -2.2045153e-18)
(0.10320846 2.8697542e-07 -6.7876551e-20)
(0.1032104 3.8293938e-07 4.6016783e-18)
(0.10321168 4.9680395e-07 7.3778133e-20)
(0.10321183 6.1390825e-07 -4.9847157e-18)
(0.10321163 7.3202383e-07 2.542843e-18)
(0.10321093 8.4296412e-07 5.1727485e-18)
(0.10321123 9.5622681e-07 -5.3743182e-18)
(0.10321228 1.0556172e-06 -2.8791051e-26)
(0.10321254 1.1422383e-06 4.4703671e-20)
(0.10321116 1.215112e-06 -2.2919215e-20)
(0.10321055 1.2518637e-06 0)
(0.10321083 1.2794964e-06 2.4006619e-20)
(0.10321164 1.2921551e-06 3.164491e-18)
(0.1032126 1.3313904e-06 -3.2057599e-18)
(0.10321318 1.3743632e-06 3.2449406e-18)
(0.10321337 1.4344704e-06 -3.3343718e-18)
(0.10321326 1.5001353e-06 1.767812e-26)
(0.10321321 1.5810698e-06 -3.4333256e-18)
(0.10321333 1.648504e-06 7.0181112e-18)
(0.10321355 1.7060109e-06 -3.5851288e-18)
(0.10321375 1.7482191e-06 0)
(0.10321391 1.7932845e-06 1.4491576e-20)
(0.10321402 1.8387867e-06 -1.9009617e-18)
(0.10321409 1.9015524e-06 1.9026748e-18)
(0.10321414 1.983321e-06 -1.522834e-20)
(0.10321418 2.0817424e-06 4.7975592e-19)
(0.10321419 2.1757909e-06 -5.0318161e-19)
(0.10321419 2.2630875e-06 1.5878277e-20)
(0.10321416 2.3430516e-06 5.0497054e-19)
(0.10321411 2.4071554e-06 -5.1247508e-19)
(0.10321399 2.4582545e-06 -1.5279612e-20)
(0.10321379 2.477755e-06 0)
(0.10321343 2.5007565e-06 0)
(0.10321289 2.5123677e-06 -1.8752218e-18)
(0.10321224 2.5510903e-06 1.8292347e-18)
(0.10321176 2.5920435e-06 -2.8091364e-20)
(0.10321184 2.6599965e-06 -2.7600945e-20)
(0.10321257 2.7169285e-06 0)
(0.10321335 2.7885465e-06 2.6615793e-20)
(0.10321364 2.84077e-06 -3.3170692e-18)
(0.10321331 2.917854e-06 3.2533105e-18)
(0.10321258 2.9733173e-06 -3.2138299e-18)
(0.10321179 3.060306e-06 3.1230794e-18)
(0.10321144 3.1164471e-06 2.4064088e-20)
(0.10321167 3.2012262e-06 -2.352487e-20)
(0.10321174 3.2737459e-06 0)
(0.10321174 3.373106e-06 0)
(0.10321177 3.4502773e-06 -4.3626809e-20)
(0.10321169 3.5475395e-06 0)
(0.10321144 3.6331597e-06 -4.1138642e-20)
(0.103211 3.7575064e-06 0)
(0.10321064 3.8537748e-06 2.5362483e-18)
(0.10321093 3.9762385e-06 -2.2920895e-18)
(0.1032099 4.0868787e-06 7.0857285e-20)
(0.10320954 4.2478453e-06 -2.162793e-18)
(0.10321043 4.3356422e-06 3.0767658e-18)
(0.10321022 4.6513384e-06 -1.0852793e-18)
(0.10325208 1.3261679e-07 1.1629422e-19)
(0.10321383 8.0599201e-08 -2.0203829e-18)
(0.1032145 1.553423e-07 -2.4204781e-27)
(0.10321627 3.1408495e-07 2.1604891e-18)
(0.10321747 3.4795327e-07 0)
(0.10321753 5.0811433e-07 3.8026427e-20)
(0.10321717 5.3954027e-07 -3.9503232e-20)
(0.10321629 6.5912481e-07 5.2765643e-18)
(0.10321692 6.9326737e-07 -1.0812577e-17)
(0.10321805 8.0304624e-07 -4.3510992e-20)
(0.10321817 8.6201982e-07 5.6812017e-18)
(0.10321623 9.5832314e-07 2.9613074e-18)
(0.10321607 1.0109095e-06 -3.0111314e-18)
(0.10321665 1.0927337e-06 -2.4075416e-20)
(0.10321747 1.1299759e-06 -2.4611234e-20)
(0.10321847 1.1834346e-06 0)
(0.10321898 1.208996e-06 2.564667e-20)
(0.10321913 1.2519551e-06 -2.6150589e-20)
(0.10321891 1.2775418e-06 2.6647886e-20)
(0.10321888 1.3156275e-06 0)
(0.10321906 1.3346829e-06 3.564185e-18)
(0.10321931 1.3791199e-06 -5.3984007e-18)
(0.10321952 1.4088629e-06 1.8163273e-18)
(0.10321967 1.4568478e-06 1.8472927e-18)
(0.10321977 1.4863038e-06 -1.863574e-18)
(0.10321984 1.5162798e-06 -9.4727481e-19)
(0.10321989 1.553977e-06 9.7813301e-19)
(0.10321992 1.5983427e-06 0)
(0.10321994 1.6520675e-06 -2.5250921e-19)
(0.10321994 1.7194002e-06 2.5489692e-19)
(0.10321992 1.8006634e-06 4.9062363e-19)
(0.10321987 1.884544e-06 -1.5106797e-18)
(0.10321978 1.9538112e-06 9.9598427e-19)
(0.10321961 1.9995771e-06 1.5073195e-20)
(0.1032193 2.0290104e-06 -1.9124354e-18)
(0.10321879 2.0597935e-06 1.8805984e-18)
(0.10321811 2.1004087e-06 0)
(0.10321749 2.1358322e-06 -3.6062997e-18)
(0.10321742 2.1863541e-06 3.5434605e-18)
(0.10321819 2.2241557e-06 0)
(0.10321905 2.2759782e-06 0)
(0.10321952 2.3215417e-06 -2.6194922e-20)
(0.10321931 2.3725484e-06 2.568836e-20)
(0.10321868 2.4283601e-06 0)
(0.1032178 2.4759846e-06 0)
(0.10321715 2.5406077e-06 -2.4110264e-20)
(0.10321745 2.5898129e-06 0)
(0.10321749 2.6618534e-06 0)
(0.10321747 2.7251088e-06 5.7335263e-18)
(0.10321753 2.7914502e-06 -5.5765783e-18)
(0.10321753 2.87299e-06 0)
(0.10321735 2.9518478e-06 4.0953254e-20)
(0.10321694 3.0495884e-06 -3.9551836e-20)
(0.10321634 3.1432905e-06 -2.4749931e-18)
(0.10321686 3.240001e-06 2.2641625e-18)
(0.10321585 3.3270183e-06 -6.9736319e-20)
(0.10321516 3.4740735e-06 2.0530048e-18)
(0.10321633 3.5497195e-06 -2.124309e-18)
(0.10321616 3.7876982e-06 0)
(0.10325003 -1.0977063e-07 -1.1280922e-19)
(0.10321733 2.090635e-07 2.0298028e-18)
(0.10322022 -1.2503239e-08 -2.0835881e-18)
(0.10322127 4.8308713e-07 -6.8627347e-20)
(0.1032225 2.793599e-07 3.6054755e-20)
(0.10322282 4.4376306e-07 0)
(0.10322183 4.4517353e-07 3.9275453e-20)
(0.10322096 5.4095755e-07 0)
(0.10322227 5.6373817e-07 5.3536571e-18)
(0.10322326 6.5444172e-07 7.436356e-27)
(0.10322285 6.6786521e-07 -5.7518793e-18)
(0.10322036 7.4892644e-07 2.2990808e-20)
(0.10322091 7.7691277e-07 0)
(0.10322195 8.6589658e-07 0)
(0.10322272 9.0054048e-07 3.159976e-18)
(0.10322377 9.7736581e-07 -3.2531294e-18)
(0.10322417 9.9627902e-07 0)
(0.10322427 1.0476771e-06 -1.3121574e-20)
(0.10322389 1.0587844e-06 0)
(0.10322395 1.1184511e-06 0)
(0.10322421 1.1330738e-06 0)
(0.1032245 1.1853593e-06 -1.8053944e-18)
(0.1032247 1.2095827e-06 1.8507939e-18)
(0.10322484 1.2611782e-06 0)
(0.10322493 1.2773173e-06 -1.4834003e-20)
(0.10322499 1.299996e-06 0)
(0.10322503 1.3202224e-06 -1.5326198e-20)
(0.10322506 1.3536947e-06 -5.1397621e-19)
(0.10322508 1.3867921e-06 5.0642079e-19)
(0.10322507 1.4204763e-06 -1.5971814e-20)
(0.10322505 1.4656613e-06 5.393403e-19)
(0.10322501 1.506274e-06 -1.4984806e-18)
(0.10322493 1.5613792e-06 9.675138e-19)
(0.10322478 1.6039678e-06 -3.021518e-20)
(0.10322451 1.6498961e-06 1.604809e-26)
(0.10322403 1.6902936e-06 0)
(0.10322331 1.7278493e-06 0)
(0.10322253 1.7768443e-06 0)
(0.10322229 1.8117626e-06 1.3878729e-20)
(0.10322309 1.8636378e-06 -3.4899743e-18)
(0.10322397 1.9039611e-06 6.8663571e-18)
(0.10322468 1.9520737e-06 4.7509727e-27)
(0.1032246 2.0033201e-06 -6.5939888e-18)
(0.1032241 2.0520403e-06 3.255672e-18)
(0.10322314 2.1028985e-06 0)
(0.10322208 2.1584265e-06 0)
(0.10322247 2.1971523e-06 0)
(0.10322251 2.27192e-06 5.889079e-18)
(0.10322247 2.3109676e-06 -5.7551769e-18)
(0.10322252 2.3830149e-06 2.1756273e-20)
(0.10322262 2.4438812e-06 -4.2177294e-20)
(0.10322253 2.4969167e-06 -4.4092968e-26)
(0.1032222 2.5914767e-06 4.2506451e-26)
(0.1032213 2.6507762e-06 -3.7735661e-20)
(0.10322166 2.7196231e-06 3.6081899e-20)
(0.10322114 2.809568e-06 0)
(0.10321966 2.8299107e-06 7.0315843e-26)
(0.10322147 3.0529888e-06 6.0937371e-20)
(0.10322132 3.0468065e-06 0)
(0.1032543 -7.1876496e-07 9.3073545e-19)
(0.10322664 8.1437422e-07 -9.592226e-19)
(0.1032315 -3.6288946e-07 0)
(0.10323005 1.9318148e-07 6.7595859e-20)
(0.10323166 -2.1936875e-08 -3.5648771e-20)
(0.10323359 1.5839498e-07 2.430918e-18)
(0.10323022 1.5516227e-07 -2.53815e-18)
(0.10323017 1.5270668e-07 5.1972285e-18)
(0.10323325 2.1679157e-07 1.4375845e-26)
(0.10323367 2.7992391e-07 -5.5633472e-18)
(0.10323166 3.3079915e-07 -5.6879717e-18)
(0.10322976 3.7143433e-07 5.8711041e-18)
(0.10323074 4.0856518e-07 0)
(0.10323267 4.5916683e-07 0)
(0.10323349 5.0035029e-07 3.1691771e-18)
(0.10323433 5.5872769e-07 -3.200021e-18)
(0.10323477 6.0367058e-07 -1.2909232e-20)
(0.10323471 6.7311288e-07 1.3364689e-26)
(0.1032343 7.0730968e-07 0)
(0.10323441 7.8431803e-07 1.3659031e-20)
(0.1032348 8.4802672e-07 -3.5589161e-18)
(0.10323513 9.5010376e-07 3.6065723e-18)
(0.10323535 1.0296731e-06 1.8411817e-18)
(0.10323548 1.1004922e-06 -1.8720422e-18)
(0.10323557 1.1737232e-06 0)
(0.10323564 1.2544401e-06 0)
(0.10323568 1.3069132e-06 -9.5214529e-19)
(0.10323571 1.3528742e-06 1.0143557e-18)
(0.10323574 1.3648427e-06 0)
(0.10323574 1.412827e-06 1.5998817e-20)
(0.10323572 1.4130463e-06 -1.5885654e-20)
(0.10323569 1.4748898e-06 1.5631286e-20)
(0.10323561 1.5065829e-06 9.8429152e-19)
(0.10323548 1.5959621e-06 9.8347943e-19)
(0.10323523 1.644966e-06 1.488372e-20)
(0.10323476 1.7285704e-06 -1.8884133e-18)
(0.10323395 1.7611522e-06 -1.8282029e-18)
(0.10323299 1.7767373e-06 -1.811487e-18)
(0.10323271 1.8430421e-06 3.5467402e-18)
(0.10323341 1.8252269e-06 1.3663945e-20)
(0.10323425 1.9118248e-06 -2.6833256e-20)
(0.1032352 1.9165212e-06 1.3165699e-20)
(0.10323547 1.9610123e-06 -1.2909952e-20)
(0.10323505 2.0146265e-06 -2.5296253e-20)
(0.10323373 2.0221566e-06 -1.2378735e-20)
(0.10323256 2.1239861e-06 -2.4200452e-20)
(0.10323291 2.0935786e-06 0)
(0.10323311 2.2007382e-06 0)
(0.10323311 2.1972178e-06 -5.709354e-18)
(0.10323305 2.2797312e-06 -4.3457081e-20)
(0.10323323 2.3341205e-06 5.4264522e-18)
(0.10323337 2.3620997e-06 -4.0597383e-20)
(0.10323306 2.4964394e-06 3.9045095e-20)
(0.10323212 2.5183663e-06 2.4310341e-18)
(0.10323058 2.5682442e-06 -2.317607e-18)
(0.10323235 2.7364715e-06 -2.1632074e-18)
(0.10322852 2.4267137e-06 4.1378945e-18)
(0.10323237 3.2562536e-06 -8.9197384e-19)
(0.1032323 2.3305442e-06 -8.2477636e-19)
(0.10325113 -1.7943933e-06 -1.0634746e-19)
(0.10322344 8.8376524e-07 5.845649e-20)
(0.10323743 1.3572789e-07 3.1277909e-20)
(0.10322764 7.5616095e-07 0)
(0.10323247 6.1219389e-07 0)
(0.10323938 9.0144801e-07 2.3358698e-18)
(0.10322722 8.070924e-07 -2.4644412e-18)
(0.1032306 8.1948093e-07 5.1962104e-18)
(0.10323938 8.6961611e-07 -5.3513631e-18)
(0.10323833 8.3068955e-07 5.5579394e-18)
(0.10323306 9.0214329e-07 -5.7784951e-18)
(0.10323484 7.7000068e-07 -5.9002024e-18)
(0.10323382 8.1301377e-07 3.0292283e-18)
(0.10323755 7.3014725e-07 6.2215239e-18)
(0.1032394 7.2588348e-07 -3.1770255e-18)
(0.10323893 6.5851555e-07 5.6956776e-26)
(0.10324057 6.4708581e-07 1.2944759e-20)
(0.10323989 6.426115e-07 -3.3527917e-18)
(0.10324003 6.1308264e-07 6.8860219e-18)
(0.10323968 5.6327727e-07 -3.533046e-18)
(0.1032404 5.2519078e-07 0)
(0.10324082 4.8114371e-07 1.4175048e-20)
(0.10324115 4.1626371e-07 0)
(0.10324133 4.1082582e-07 7.326562e-21)
(0.10324146 3.6149194e-07 -7.4467624e-21)
(0.10324155 3.352086e-07 0)
(0.10324162 2.9271222e-07 -2.307139e-20)
(0.10324169 2.7039809e-07 0)
(0.10324172 2.2938173e-07 0)
(0.10324177 2.0925638e-07 0)
(0.10324177 1.721419e-07 0)
(0.10324172 1.4931793e-07 0)
(0.10324164 1.0911237e-07 2.306562e-20)
(0.10324148 8.323631e-08 7.5645181e-21)
(0.10324116 4.0705234e-08 0)
(0.10324051 1.8686087e-08 2.1961412e-20)
(0.10323926 -2.7726806e-08 -1.4399602e-20)
(0.10323821 -5.9173002e-08 7.0794778e-21)
(0.10323866 -8.990169e-08 -6.9588531e-21)
(0.1032384 -1.3826614e-07 -1.3674733e-20)
(0.10323972 -1.4359147e-07 3.4512246e-18)
(0.1032401 -1.842841e-07 -6.7606947e-18)
(0.10324174 -1.9562604e-07 1.2922846e-20)
(0.10324107 -2.0134148e-07 3.2535847e-18)
(0.10323759 -2.0985231e-07 1.2388263e-20)
(0.10323862 -1.9248307e-07 2.4212066e-20)
(0.10323823 -2.4986432e-07 0)
(0.10323911 -2.2967048e-07 -5.8779867e-18)
(0.10323925 -2.732979e-07 2.2357376e-20)
(0.10323882 -2.4496619e-07 5.5918107e-18)
(0.10323875 -2.2423118e-07 2.0951537e-20)
(0.10323971 -2.1219925e-07 0)
(0.10323873 -1.3253205e-07 -2.4800226e-18)
(0.10323878 -8.8307119e-08 2.3882803e-18)
(0.10322951 -5.9237066e-09 0)
(0.1032392 8.4623882e-08 3.3254628e-20)
(0.10322741 2.2069112e-07 -2.0276104e-18)
(0.10323874 4.9618645e-07 1.7982941e-18)
(0.10323881 1.2641089e-07 -1.0679537e-19)
(0.1032064 -1.9283176e-06 5.169035e-20)
(0.10318862 -1.1673753e-06 1.7682645e-18)
(0.10320173 -9.2883296e-07 -1.9947546e-18)
(0.10319169 -1.0688199e-06 2.1002653e-18)
(0.10320294 -5.3702937e-07 -4.4616421e-18)
(0.10320053 -9.4700626e-07 4.7084539e-18)
(0.10318977 -8.0268289e-07 -2.4605705e-18)
(0.10320325 -5.6807021e-07 5.1379977e-18)
(0.10319798 -6.0563902e-07 -1.0475217e-20)
(0.10319937 -6.2665392e-07 -5.5456112e-18)
(0.10319226 -6.1207129e-07 -5.7158136e-18)
(0.10319295 -4.9492088e-07 5.9150216e-18)
(0.10319898 -3.5050286e-07 0)
(0.10319799 -2.2861976e-07 -1.2156565e-20)
(0.10319693 -9.741638e-08 6.220892e-21)
(0.10319788 -1.5398033e-08 -1.2714613e-20)
(0.1032001 9.7596656e-08 -3.3156323e-18)
(0.10320096 9.7044418e-08 3.3738202e-18)
(0.10319689 1.9953493e-07 -6.7384948e-21)
(0.10319748 2.7261855e-07 3.5254577e-18)
(0.10319775 3.6299463e-07 -7.1447195e-18)
(0.10319797 4.5480575e-07 5.4485609e-18)
(0.10319803 5.10641e-07 -1.8460662e-18)
(0.10319812 6.0709942e-07 -3.6640026e-21)
(0.10319819 6.6169845e-07 -1.8986171e-18)
(0.10319825 7.4556756e-07 1.9402263e-18)
(0.10319829 7.9702084e-07 7.6844231e-21)
(0.10319833 8.7809036e-07 0)
(0.10319835 9.229668e-07 0)
(0.10319836 1.0044075e-06 0)
(0.10319837 1.0522919e-06 0)
(0.10319837 1.1412534e-06 -1.0009937e-18)
(0.10319837 1.2006177e-06 9.7735532e-19)
(0.10319835 1.2864389e-06 -1.9425173e-18)
(0.10319832 1.3465751e-06 1.9040762e-18)
(0.10319828 1.4220614e-06 -3.6664266e-21)
(0.10319814 1.5005941e-06 0)
(0.10319706 1.5813189e-06 3.633163e-18)
(0.10319561 1.6518551e-06 -3.565449e-18)
(0.10319745 1.6885866e-06 0)
(0.10319687 1.6801272e-06 -3.4554941e-18)
(0.10319757 1.6477773e-06 3.3916418e-18)
(0.10319997 1.5914735e-06 -3.313013e-18)
(0.10320179 1.5256541e-06 3.2327278e-18)
(0.10320114 1.4857712e-06 -3.181509e-18)