/*--------------------------------*- C++ -*----------------------------------*\
| =========                 |                                                 |
| \\      /  F ield         | OpenFOAM: The Open Source CFD Toolbox           |
|  \\    /   O peration     | Version:  v2006                                 |
|   \\  /    A nd           | Website:  www.openfoam.com                      |
|    \\/     M anipulation  |                                                 |
\*---------------------------------------------------------------------------*/
FoamFile
{
    version     2.0;
    format      ascii;
    class       volVectorField;
    location    "6000";
    object      UMean;
}
// * * * * * * * * * * * * * * * * * * * * * * * * * * * * * * * * * * * * * //

dimensions      [0 1 -1 0 0 0 0];


internalField   nonuniform List<vector> 
55713
(
(0.10321353 6.7507836e-07 0)
(0.10310935 -3.3683886e-07 0)
(0.10308989 9.122373e-07 2.5662385e-18)
(0.10308726 7.191479e-07 -2.5528464e-18)
(0.10308849 1.4844316e-06 2.5709513e-18)
(0.10308979 1.4955469e-06 1.5832324e-27)
(0.10309039 1.9836447e-06 -2.646428e-18)
(0.1030904 2.1340183e-06 0)
(0.10309012 2.4628412e-06 1.0711699e-20)
(0.10308992 2.6980793e-06 0)
(0.10308994 2.9603265e-06 -1.1108354e-20)
(0.10309006 3.2087907e-06 -1.1312639e-20)
(0.10309013 3.4555452e-06 0)
(0.10309017 3.694989e-06 3.0031561e-18)
(0.10309031 3.9270978e-06 -3.0577594e-18)
(0.10309056 4.1530257e-06 -6.0799462e-21)
(0.10309078 4.3739971e-06 3.1748146e-18)
(0.10309087 4.5892738e-06 -3.2247828e-18)
(0.10309082 4.7998705e-06 6.4089153e-21)
(0.10309077 5.0053259e-06 -3.3383457e-18)
(0.10309085 5.2049363e-06 3.3890482e-18)
(0.10309109 5.3995532e-06 0)
(0.10309142 5.5913924e-06 0)
(0.10309175 5.7814587e-06 -1.7917073e-18)
(0.10309202 5.9699162e-06 1.813923e-18)
(0.10309223 6.1573704e-06 0)
(0.10309239 6.3444225e-06 0)
(0.1030925 6.5315422e-06 0)
(0.10309257 6.7184252e-06 2.4133927e-19)
(0.10309258 6.9057354e-06 -8.9008584e-29)
(0.10309253 7.0926622e-06 -2.4408327e-19)
(0.10309238 7.2797529e-06 0)
(0.10309212 7.4684841e-06 0)
(0.10309175 7.6583525e-06 0)
(0.1030913 7.850107e-06 0)
(0.10309088 8.0430779e-06 1.8052418e-18)
(0.10309065 8.2378544e-06 -1.7688684e-18)
(0.1030907 8.4357676e-06 -3.4929479e-18)
(0.10309097 8.6373326e-06 2.0493764e-27)
(0.10309126 8.8423534e-06 3.3698541e-18)
(0.10309134 9.0506119e-06 0)
(0.10309116 9.2622873e-06 6.3697604e-21)
(0.10309083 9.478357e-06 -3.204357e-18)
(0.10309059 9.6976819e-06 3.1478397e-18)
(0.10309056 9.9233498e-06 3.0918184e-18)
(0.10309069 1.0152635e-05 -3.0422883e-18)
(0.10309084 1.0391579e-05 0)
(0.10309088 1.0632287e-05 0)
(0.10309081 1.0888781e-05 -2.8631215e-18)
(0.10309064 1.1140392e-05 2.8222876e-18)
(0.10309045 1.1423123e-05 0)
(0.10309028 1.1682069e-05 0)
(0.10309015 1.2004522e-05 0)
(0.10308997 1.2266827e-05 0)
(0.10308972 1.2645401e-05 2.5893279e-18)
(0.1030896 1.2912817e-05 -3.9221645e-27)
(0.10308989 1.333688e-05 -3.7804708e-18)
(0.10309023 1.3732302e-05 1.2283744e-18)
(0.10309009 1.386265e-05 -1.9269777e-20)
(0.10321969 1.1056429e-06 0)
(0.1031252 -2.6442158e-07 2.4229607e-18)
(0.10310998 1.0561479e-06 -2.5055257e-18)
(0.10310854 6.9845123e-07 3.9168965e-20)
(0.10311002 1.3634817e-06 -2.5379485e-18)
(0.1031112 1.3434433e-06 5.1427167e-18)
(0.10311164 1.8269598e-06 3.8679525e-27)
(0.10311151 1.9258414e-06 -2.6840755e-18)
(0.10311118 2.2521491e-06 -1.0694132e-20)
(0.10311101 2.443661e-06 2.1811666e-20)
(0.1031111 2.6719294e-06 -2.8355076e-18)
(0.10311124 2.8808764e-06 2.9132326e-18)
(0.10311126 3.0896863e-06 2.9576552e-18)
(0.10311129 3.2908304e-06 2.7352365e-27)
(0.10311145 3.486802e-06 2.5816453e-27)
(0.10311173 3.6785614e-06 -3.1211984e-18)
(0.10311195 3.8665667e-06 -6.2197832e-21)
(0.10311198 4.050579e-06 0)
(0.10311188 4.2314712e-06 3.2934297e-18)
(0.10311182 4.408779e-06 -6.7159707e-18)
(0.10311193 4.5836574e-06 3.4230441e-18)
(0.10311219 4.7563792e-06 1.3574291e-20)
(0.10311253 4.9272314e-06 0)
(0.10311284 5.0966028e-06 7.0176546e-21)
(0.1031131 5.2647756e-06 0)
(0.10311328 5.4321094e-06 9.1343709e-19)
(0.10311342 5.5985153e-06 -1.885597e-18)
(0.10311352 5.7644375e-06 9.4267962e-19)
(0.10311357 5.9295465e-06 2.431084e-19)
(0.10311358 6.0949109e-06 -2.615613e-19)
(0.10311352 6.2590992e-06 0)
(0.10311338 6.4224575e-06 9.520738e-19)
(0.10311313 6.5878783e-06 -1.9044306e-18)
(0.10311276 6.7538415e-06 9.3721918e-19)
(0.1031123 6.9195214e-06 0)
(0.10311184 7.084138e-06 1.8145064e-18)
(0.10311155 7.2518585e-06 -1.7916081e-18)
(0.10311156 7.4266059e-06 1.3709852e-20)
(0.10311184 7.6059953e-06 0)
(0.10311217 7.7853864e-06 6.6236756e-21)
(0.10311232 7.9645431e-06 3.3325028e-18)
(0.10311215 8.1446398e-06 -6.5543209e-18)
(0.10311179 8.3317272e-06 -4.8004668e-28)
(0.10311147 8.5221659e-06 3.1577316e-18)
(0.10311138 8.7230679e-06 -3.1000566e-18)
(0.1031115 8.922689e-06 6.0913489e-18)
(0.10311166 9.1364232e-06 -5.9714293e-18)
(0.10311172 9.3404347e-06 2.9291427e-18)
(0.10311166 9.5722069e-06 -1.1222891e-20)
(0.10311148 9.7806041e-06 0)
(0.10311126 1.005086e-05 0)
(0.10311106 1.0256091e-05 0)
(0.10311092 1.0586417e-05 -2.67682e-18)
(0.10311075 1.0780209e-05 2.6249994e-18)
(0.10311045 1.1181712e-05 0)
(0.10311022 1.1367733e-05 3.9180616e-20)
(0.10311048 1.182597e-05 0)
(0.10311085 1.2034803e-05 1.8923029e-20)
(0.10311067 1.2453361e-05 1.855165e-20)
(0.10322499 1.268081e-06 0)
(0.10314035 -2.6856348e-07 3.7329314e-20)
(0.10312759 1.0106226e-06 -3.7942803e-20)
(0.10312718 6.3172123e-07 -3.847959e-20)
(0.10312882 1.2139758e-06 -2.5453885e-18)
(0.10312987 1.2115008e-06 2.5793906e-18)
(0.10313016 1.6169311e-06 0)
(0.10312991 1.7238885e-06 2.0897188e-20)
(0.10312954 2.0048434e-06 -5.4661868e-18)
(0.10312944 2.1783292e-06 5.538886e-18)
(0.10312961 2.3887343e-06 0)
(0.10312974 2.5709584e-06 -2.2715802e-20)
(0.10312972 2.7549157e-06 0)
(0.10312974 2.9267848e-06 3.0007033e-18)
(0.10312996 3.0938952e-06 -6.1656139e-18)
(0.10313028 3.2566142e-06 3.1413748e-18)
(0.10313047 3.4174983e-06 -3.1875585e-18)
(0.10313044 3.5761015e-06 -3.7478479e-27)
(0.1031303 3.7321738e-06 3.3178648e-18)
(0.10313025 3.8838279e-06 -3.3770246e-18)
(0.10313039 4.0327983e-06 -3.5050141e-27)
(0.10313069 4.1800263e-06 3.4959275e-18)
(0.10313103 4.3253285e-06 0)
(0.10313134 4.4694241e-06 1.793698e-18)
(0.10313157 4.6132305e-06 1.6488421e-27)
(0.10313174 4.7555679e-06 -1.8388268e-18)
(0.10313186 4.8964522e-06 -1.4829451e-20)
(0.10313194 5.0376882e-06 4.9714168e-19)
(0.10313199 5.1783646e-06 -4.8958878e-19)
(0.10313199 5.3184277e-06 2.4774637e-19)
(0.10313193 5.4581884e-06 -2.4691707e-19)
(0.1031318 5.5958189e-06 3.0391532e-20)
(0.10313156 5.7341119e-06 0)
(0.1031312 5.873978e-06 1.4720842e-20)
(0.10313073 6.0147798e-06 -1.44834e-20)
(0.10313024 6.1552098e-06 -1.4246364e-20)
(0.10312989 6.2977732e-06 -1.4009905e-20)
(0.10312985 6.4450375e-06 -1.3774144e-20)
(0.10313012 6.5961696e-06 3.452461e-18)
(0.10313051 6.7472801e-06 -3.40601e-18)
(0.10313073 6.9023971e-06 0)
(0.10313061 7.0557899e-06 3.2865655e-18)
(0.10313022 7.217875e-06 -3.2144693e-18)
(0.10312982 7.3778545e-06 3.1924511e-18)
(0.10312965 7.5539693e-06 -3.1084256e-18)
(0.10312976 7.7197881e-06 -3.0254009e-18)
(0.10312994 7.9144342e-06 -2.2397652e-27)
(0.10313002 8.0812857e-06 2.9081297e-18)
(0.10312997 8.2997001e-06 2.2437774e-20)
(0.1031298 8.4621211e-06 0)
(0.10312956 8.7309223e-06 0)
(0.10312932 8.8701936e-06 0)
(0.10312915 9.2150338e-06 2.0604471e-20)
(0.103129 9.3160667e-06 -2.0150769e-20)
(0.10312869 9.7366841e-06 0)
(0.10312835 9.8273675e-06 2.4645149e-18)
(0.10312855 1.0298433e-05 -2.4080476e-18)
(0.10312899 1.0409358e-05 0)
(0.10312879 1.0929933e-05 0)
(0.10322915 1.2976728e-06 6.8443479e-20)
(0.10315279 -2.574292e-07 -7.2505073e-20)
(0.10314304 9.0376873e-07 -2.3357508e-18)
(0.10314346 5.764412e-07 2.420206e-18)
(0.10314515 1.0618623e-06 3.8680076e-20)
(0.10314604 1.0811383e-06 0)
(0.10314618 1.4200825e-06 -2.601852e-18)
(0.10314583 1.5222216e-06 7.9758568e-18)
(0.10314544 1.7626944e-06 -1.0913596e-17)
(0.10314544 1.9146794e-06 5.6027977e-18)
(0.1031457 2.0984687e-06 -2.8520543e-18)
(0.10314579 2.2571757e-06 2.2759505e-20)
(0.10314571 2.4171714e-06 5.9480952e-18)
(0.10314576 2.5660788e-06 -3.0108952e-18)
(0.10314605 2.7110896e-06 0)
(0.1031464 2.8525873e-06 0)
(0.10314656 2.9918121e-06 -1.2559326e-20)
(0.10314645 3.1278366e-06 0)
(0.10314627 3.2612617e-06 0)
(0.10314624 3.3920366e-06 2.6526478e-20)
(0.10314643 3.5211479e-06 -1.3498454e-20)
(0.10314677 3.6489447e-06 -2.7468444e-20)
(0.10314712 3.7752947e-06 -1.7882397e-18)
(0.10314741 3.9001629e-06 1.8327955e-18)
(0.10314762 4.0238348e-06 1.4445463e-20)
(0.10314777 4.1464523e-06 -1.468379e-20)
(0.10314788 4.2696189e-06 9.6995674e-19)
(0.10314795 4.3929025e-06 -9.7030614e-19)
(0.10314799 4.5157133e-06 1.5399148e-20)
(0.10314799 4.6366578e-06 -2.3365928e-19)
(0.10314794 4.7551627e-06 -2.4824654e-19)
(0.10314781 4.8717984e-06 4.7353914e-19)
(0.10314759 4.9892081e-06 0)
(0.10314725 5.1073605e-06 -1.9084731e-18)
(0.10314678 5.2267619e-06 1.455407e-20)
(0.10314625 5.3447091e-06 3.6930741e-18)
(0.10314584 5.466271e-06 -1.7875265e-18)
(0.10314573 5.5891124e-06 0)
(0.10314599 5.7166204e-06 1.3598362e-20)
(0.10314644 5.8421995e-06 0)
(0.10314675 5.9775275e-06 0)
(0.10314669 6.108157e-06 2.5773382e-20)
(0.10314629 6.2533131e-06 -1.2649803e-20)
(0.1031458 6.384627e-06 -3.2024701e-18)
(0.10314555 6.5425272e-06 3.1168248e-18)
(0.10314562 6.6724514e-06 -3.5999763e-26)
(0.10314583 6.851786e-06 2.3395256e-20)
(0.10314595 6.9812947e-06 3.45448e-26)
(0.10314591 7.1892834e-06 -2.2431379e-20)
(0.10314575 7.308465e-06 -5.5959627e-18)
(0.1031455 7.5612236e-06 5.4924498e-18)
(0.10314523 7.6621548e-06 4.1921353e-20)
(0.10314503 7.9669249e-06 -2.6600306e-18)
(0.10314491 8.0606796e-06 5.1091052e-18)
(0.1031446 8.4159097e-06 -5.01728e-18)
(0.10314414 8.5137561e-06 2.4228649e-18)
(0.10314429 8.9504834e-06 -7.3603467e-20)
(0.10314481 8.9966006e-06 0)
(0.10314458 9.6384419e-06 0)
(0.10323232 1.1820874e-06 -6.6147976e-20)
(0.10316412 -1.9898961e-07 7.0453383e-20)
(0.10315653 7.665068e-07 -2.3195397e-18)
(0.10315764 5.2822682e-07 2.3049897e-18)
(0.10315932 9.1322259e-07 -2.4457607e-18)
(0.10316003 9.6660066e-07 2.5558382e-18)
(0.10316004 1.2425917e-06 2.5467284e-18)
(0.10315959 1.3403518e-06 -2.6562108e-18)
(0.10315921 1.5463805e-06 5.40465e-18)
(0.10315937 1.6776916e-06 -1.1114949e-17)
(0.1031597 1.8387499e-06 5.7091622e-18)
(0.1031597 1.9753244e-06 -2.2801945e-20)
(0.10315955 2.1135036e-06 -2.9819657e-18)
(0.10315968 2.2410064e-06 6.0892663e-18)
(0.10316006 2.3652178e-06 -3.1067649e-18)
(0.10316043 2.4862113e-06 -3.1684702e-18)
(0.10316052 2.6051092e-06 2.5233239e-20)
(0.10316033 2.7210353e-06 3.2653099e-18)
(0.10316012 2.8346567e-06 -2.6187842e-20)
(0.10316013 2.9461858e-06 -5.3328243e-20)
(0.10316039 3.0561818e-06 1.3570231e-20)
(0.10316076 3.1651566e-06 1.3808675e-20)
(0.10316111 3.2727659e-06 0)
(0.10316138 3.3790577e-06 -1.828753e-18)
(0.10316158 3.4840571e-06 -1.4527351e-20)
(0.10316171 3.5884034e-06 1.905093e-18)
(0.10316181 3.6935461e-06 0)
(0.10316187 3.7988228e-06 0)
(0.10316191 3.9039865e-06 -3.0984247e-20)
(0.10316191 4.0076257e-06 2.3496767e-19)
(0.10316186 4.1088991e-06 -2.4949574e-19)
(0.10316174 4.2079454e-06 0)
(0.10316154 4.3088289e-06 0)
(0.10316122 4.409466e-06 -1.9025499e-18)
(0.10316076 4.5144478e-06 3.7429373e-18)
(0.10316021 4.6160006e-06 -1.8548416e-18)
(0.10315972 4.7205928e-06 -1.7812631e-18)
(0.10315953 4.8192896e-06 1.7786831e-18)
(0.10315976 4.9251714e-06 0)
(0.10316027 5.0255679e-06 0)
(0.10316069 5.1454576e-06 -3.3990576e-18)
(0.10316072 5.2546875e-06 3.2852592e-18)
(0.10316032 5.3871899e-06 2.5385981e-20)
(0.10315976 5.491857e-06 -3.187453e-18)
(0.10315939 5.6340589e-06 6.2259062e-18)
(0.10315942 5.7359512e-06 -3.0863495e-18)
(0.10315966 5.8979665e-06 -3.022576e-18)
(0.10315981 6.0014043e-06 5.8704311e-18)
(0.1031598 6.1872735e-06 -2.8705161e-18)
(0.10315965 6.2877988e-06 -6.5740395e-20)
(0.1031594 6.5046688e-06 0)
(0.10315911 6.602848e-06 -4.1725761e-20)
(0.10315886 6.8540038e-06 2.6012103e-18)
(0.10315876 6.9563814e-06 -5.0606907e-18)
(0.10315851 7.2468102e-06 2.534367e-18)
(0.1031579 7.3573093e-06 3.7226577e-20)
(0.10315798 7.7450356e-06 1.4403959e-19)
(0.1031586 7.7722599e-06 6.9477175e-20)
(0.10315836 8.4452233e-06 6.6616561e-20)
(0.10323451 9.7308763e-07 -1.0236852e-18)
(0.10317356 -1.2084567e-07 -1.0959573e-18)
(0.10316828 6.0931731e-07 2.3393821e-18)
(0.1031699 4.9439959e-07 -2.2670417e-18)
(0.1031715 7.8607739e-07 -6.8312103e-27)
(0.10317201 8.5813415e-07 2.4565705e-18)
(0.10317193 1.076926e-06 4.0195222e-20)
(0.10317136 1.1711286e-06 5.2936053e-18)
(0.10317104 1.343646e-06 4.2480049e-20)
(0.1031714 1.4556628e-06 -5.6209101e-18)
(0.10317176 1.5951282e-06 5.6693326e-18)
(0.1031716 1.7126487e-06 -5.825026e-18)
(0.10317143 1.8297806e-06 -2.9896884e-18)
(0.10317167 1.9395149e-06 3.0544127e-18)
(0.10317215 2.0446832e-06 2.4361515e-20)
(0.10317252 2.1485131e-06 0)
(0.10317251 2.2493701e-06 -2.5344091e-20)
(0.10317222 2.3476882e-06 3.332058e-18)
(0.10317201 2.443464e-06 -6.7099094e-18)
(0.1031721 2.5377359e-06 2.5840812e-26)
(0.10317243 2.6305574e-06 2.727654e-20)
(0.10317282 2.7225236e-06 3.5530018e-18)
(0.10317317 2.8132352e-06 -1.8073425e-18)
(0.10317342 2.9028163e-06 1.8382537e-18)
(0.10317359 2.9915089e-06 1.8692518e-18)
(0.10317371 3.0807027e-06 -1.915188e-18)
(0.1031738 3.1695848e-06 9.6575614e-19)
(0.10317386 3.2588989e-06 -9.8136765e-19)
(0.10317389 3.3480782e-06 -2.3366726e-19)
(0.10317389 3.4348015e-06 1.574485e-20)
(0.10317384 3.5199444e-06 2.5064542e-19)
(0.10317374 3.6028707e-06 0)
(0.10317356 3.6884508e-06 -1.5173299e-20)
(0.10317327 3.7717912e-06 0)
(0.10317283 3.8613374e-06 -1.4682786e-20)
(0.10317226 3.9446425e-06 -1.8481389e-18)
(0.1031717 4.0356828e-06 -2.8390122e-20)
(0.10317141 4.1133735e-06 5.3575834e-18)
(0.10317159 4.206678e-06 -7.019168e-18)
(0.10317214 4.2880083e-06 -2.693316e-20)
(0.10317269 4.3953429e-06 6.8233444e-18)
(0.10317283 4.4820771e-06 -3.322826e-18)
(0.10317247 4.6004764e-06 3.2091946e-18)
(0.10317184 4.6856555e-06 -3.2219951e-18)
(0.10317132 4.8136313e-06 2.4479195e-20)
(0.10317127 4.8975895e-06 0)
(0.10317156 5.0396138e-06 0)
(0.10317176 5.1287087e-06 4.5896381e-20)
(0.10317177 5.2879619e-06 5.7397475e-18)
(0.10317165 5.3807095e-06 -5.5582117e-18)
(0.1031714 5.5605022e-06 -4.266384e-20)
(0.10317109 5.6594923e-06 2.6581269e-18)
(0.10317078 5.8632604e-06 -5.1268636e-18)
(0.10317068 5.9712361e-06 -4.203325e-27)
(0.10317055 6.2086304e-06 2.3887725e-18)
(0.10316979 6.327258e-06 -8.2877049e-26)
(0.10316977 6.6432218e-06 -2.2558705e-18)
(0.1031705 6.6839239e-06 2.095796e-18)
(0.10317025 7.2919665e-06 -6.4385726e-20)
(0.10323607 7.2034427e-07 0)
(0.10318217 -4.3283563e-08 6.6631651e-20)
(0.10317871 4.5470475e-07 -7.0062035e-26)
(0.10318068 4.3304624e-07 0)
(0.10318216 6.3981596e-07 -2.4634876e-18)
(0.10318248 7.5162474e-07 2.51354e-18)
(0.10318232 9.0729678e-07 0)
(0.10318162 1.0110925e-06 4.1208105e-20)
(0.10318142 1.1429246e-06 0)
(0.10318203 1.2482169e-06 5.6187113e-18)
(0.10318234 1.3640713e-06 -5.6738032e-18)
(0.10318196 1.4683443e-06 2.9290292e-18)
(0.10318185 1.5643732e-06 4.9378061e-27)
(0.10318225 1.6605153e-06 -3.0638886e-18)
(0.10318281 1.7480116e-06 -3.1538544e-18)
(0.10318315 1.8377128e-06 3.1939285e-18)
(0.10318301 1.9220416e-06 0)
(0.10318262 2.0061872e-06 2.594328e-20)
(0.10318243 2.086432e-06 -2.6432442e-20)
(0.10318262 2.1672394e-06 2.7357473e-26)
(0.10318302 2.2456006e-06 -2.7404075e-20)
(0.10318344 2.3241857e-06 0)
(0.10318376 2.4004188e-06 0)
(0.10318399 2.4767062e-06 0)
(0.10318415 2.5516516e-06 0)
(0.10318426 2.6270432e-06 0)
(0.10318433 2.7022209e-06 -9.5525932e-19)
(0.10318439 2.7772837e-06 5.084903e-19)
(0.10318442 2.8514008e-06 5.0096337e-19)
(0.10318442 2.924151e-06 2.3725794e-19)
(0.10318438 2.9952499e-06 -7.5503961e-19)
(0.10318429 3.0648788e-06 5.1088556e-19)
(0.10318413 3.1372579e-06 1.5233182e-20)
(0.10318387 3.2069022e-06 0)
(0.10318345 3.2822617e-06 1.473914e-20)
(0.10318288 3.349049e-06 0)
(0.10318225 3.4268193e-06 0)
(0.10318184 3.4881691e-06 3.6130487e-18)
(0.10318193 3.574935e-06 -7.0174808e-18)
(0.10318251 3.6401711e-06 6.9468164e-18)
(0.1031832 3.7340999e-06 -6.8472908e-18)
(0.1031835 3.8047666e-06 6.6680212e-18)
(0.1031832 3.9049764e-06 -3.24491e-18)
(0.10318252 3.9783322e-06 2.5049126e-20)
(0.10318184 4.0845966e-06 3.1658455e-18)
(0.10318165 4.1603444e-06 -3.0753142e-18)
(0.103182 4.2745044e-06 2.3500913e-20)
(0.10318227 4.3574416e-06 -2.2964963e-20)
(0.10318229 4.4843699e-06 5.7385379e-18)
(0.10318219 4.5741923e-06 -1.1144821e-17)
(0.10318196 4.7149252e-06 5.4881673e-18)
(0.10318166 4.8133857e-06 4.1343627e-20)
(0.10318128 4.9749888e-06 0)
(0.10318111 5.0825599e-06 -2.5221256e-18)
(0.10318116 5.2694863e-06 2.3965291e-18)
(0.10318025 5.3926345e-06 -7.2041577e-20)
(0.1031801 5.653281e-06 2.1399002e-18)
(0.10318097 5.7238905e-06 -2.0405614e-18)
(0.10318072 6.2290284e-06 1.2457011e-19)
(0.10323709 3.9815782e-07 0)
(0.10318942 3.2944449e-08 -2.2048742e-18)
(0.10318788 3.172386e-07 -6.7888043e-20)
(0.10318997 4.3007247e-07 4.602449e-18)
(0.10319132 5.5300179e-07 7.3789686e-20)
(0.10319147 6.7153536e-07 -4.9854359e-18)
(0.10319124 7.8339221e-07 2.5431844e-18)
(0.10319039 8.9103456e-07 5.1733975e-18)
(0.10319042 9.8526357e-07 -5.3749493e-18)
(0.10319131 1.0853291e-06 -3.1436388e-26)
(0.10319145 1.171536e-06 4.4708086e-20)
(0.10319079 1.2648116e-06 -2.2921153e-20)
(0.10319088 1.3370681e-06 0)
(0.10319147 1.4238337e-06 2.4007979e-20)
(0.10319208 1.492597e-06 3.164641e-18)
(0.10319236 1.5726217e-06 -3.2058935e-18)
(0.10319204 1.6394709e-06 3.2450626e-18)
(0.10319156 1.7113634e-06 -3.3344792e-18)
(0.10319146 1.7742405e-06 1.9267228e-26)
(0.10319177 1.8436098e-06 -3.4333617e-18)
(0.10319224 1.905927e-06 7.0180984e-18)
(0.10319266 1.9722471e-06 -3.5850804e-18)
(0.10319296 2.0331602e-06 0)
(0.10319317 2.0975093e-06 1.4491069e-20)
(0.10319331 2.1590314e-06 -1.9008756e-18)
(0.10319341 2.2232188e-06 1.9025689e-18)
(0.10319348 2.2853648e-06 -1.5227335e-20)
(0.10319353 2.3485814e-06 4.7971923e-19)
(0.10319356 2.4099553e-06 -5.031379e-19)
(0.10319356 2.4695498e-06 1.5880376e-20)
(0.10319353 2.5274204e-06 5.0515182e-19)
(0.10319345 2.5841007e-06 -5.1266069e-19)
(0.10319332 2.6418131e-06 -1.5285195e-20)
(0.10319309 2.6974689e-06 0)
(0.10319271 2.7601075e-06 0)
(0.10319215 2.8147079e-06 -1.8759263e-18)
(0.10319146 2.883038e-06 1.8299286e-18)
(0.10319091 2.9396903e-06 -2.8102115e-20)
(0.10319087 3.0096699e-06 -2.7611599e-20)
(0.10319147 3.0687769e-06 0)
(0.1031923 3.1443481e-06 2.662622e-20)
(0.10319279 3.2075405e-06 -3.3183746e-18)
(0.10319258 3.2907053e-06 3.2545986e-18)
(0.10319191 3.3562159e-06 -3.2151103e-18)
(0.10319107 3.4450058e-06 3.1243329e-18)
(0.10319062 3.5122053e-06 2.4073821e-20)
(0.10319106 3.6058833e-06 -2.3534411e-20)
(0.10319142 3.6847601e-06 0)
(0.10319145 3.7874268e-06 0)
(0.10319139 3.8725587e-06 -4.3644773e-20)
(0.10319116 3.9879335e-06 0)
(0.10319089 4.0829589e-06 -4.1155766e-20)
(0.10319047 4.2100622e-06 0)
(0.10319016 4.3217572e-06 2.5373054e-18)
(0.10319046 4.4649071e-06 -2.2930436e-18)
(0.10318943 4.597133e-06 7.088671e-20)
(0.10318906 4.7687151e-06 -2.163687e-18)
(0.10319011 4.8647242e-06 3.0780243e-18)
(0.10318988 5.2177701e-06 -1.0854807e-18)
(0.10323594 1.3013533e-07 1.1630972e-19)
(0.10319398 1.033246e-07 -2.0207067e-18)
(0.10319458 1.6990998e-07 -2.5530472e-27)
(0.10319651 3.5353709e-07 2.1608449e-18)
(0.10319776 3.8874288e-07 0)
(0.10319783 5.5974582e-07 3.8031917e-20)
(0.10319743 6.0489758e-07 -3.9508595e-20)
(0.10319643 7.2788106e-07 5.2772415e-18)
(0.1031969 7.7158736e-07 -1.0813881e-17)
(0.10319802 8.8360977e-07 -4.3515838e-20)
(0.10319782 9.3651311e-07 5.6817928e-18)
(0.10319686 1.0251554e-06 2.9615691e-18)
(0.10319738 1.0718386e-06 -3.0113514e-18)
(0.10319812 1.1533301e-06 -2.4076885e-20)
(0.10319872 1.2009137e-06 -2.461253e-20)
(0.10319892 1.2748937e-06 0)
(0.10319835 1.3214856e-06 2.5647869e-20)
(0.10319782 1.3892881e-06 -2.6151704e-20)
(0.10319787 1.4354508e-06 2.6648758e-20)
(0.10319833 1.4991417e-06 0)
(0.10319885 1.5458861e-06 3.5642206e-18)
(0.10319925 1.6058916e-06 -5.398399e-18)
(0.10319953 1.6518597e-06 1.8163092e-18)
(0.10319971 1.7090356e-06 1.8472574e-18)
(0.10319984 1.7547174e-06 -1.8635215e-18)
(0.10319993 1.8069187e-06 -9.4723965e-19)
(0.1032 1.8523338e-06 9.7808784e-19)
(0.10320005 1.9008189e-06 0)
(0.10320008 1.9496071e-06 -2.5249297e-19)
(0.10320008 1.9980049e-06 2.5492846e-19)
(0.10320005 2.0488261e-06 4.907799e-19)
(0.10319999 2.0977849e-06 -1.5111652e-18)
(0.10319988 2.1498874e-06 9.9630724e-19)
(0.10319968 2.2031025e-06 1.5078127e-20)
(0.10319935 2.2500744e-06 -1.9130669e-18)
(0.10319882 2.3018138e-06 1.8812255e-18)
(0.10319809 2.349592e-06 0)
(0.10319738 2.3984594e-06 -3.6075259e-18)
(0.10319716 2.4493736e-06 3.5446761e-18)
(0.10319775 2.4968801e-06 0)
(0.10319869 2.5511038e-06 0)
(0.10319945 2.6057163e-06 -2.6204068e-20)
(0.10319934 2.663019e-06 2.5697385e-20)
(0.10319872 2.7228039e-06 0)
(0.10319776 2.7811727e-06 0)
(0.1031969 2.8495131e-06 -2.4118944e-20)
(0.10319744 2.9039701e-06 0)
(0.10319795 2.9800854e-06 0)
(0.10319798 3.0497174e-06 5.7356016e-18)
(0.10319796 3.1342409e-06 -5.5786121e-18)
(0.10319772 3.2118564e-06 0)
(0.10319751 3.3053751e-06 4.0968378e-20)
(0.1031971 3.4097728e-06 -3.9566468e-20)
(0.10319652 3.5055846e-06 -2.475908e-18)
(0.10319705 3.6243677e-06 2.2649978e-18)
(0.10319604 3.7412087e-06 -6.9761971e-20)
(0.1031953 3.8887093e-06 2.0537568e-18)
(0.10319665 3.9784084e-06 -2.1250773e-18)
(0.10319643 4.2469641e-06 0)
(0.1032337 -1.3754092e-07 -1.1282461e-19)
(0.10319791 2.3624964e-07 2.0301321e-18)
(0.1032009 -2.6463509e-08 -2.0839399e-18)
(0.10320203 5.1834369e-07 -6.8638864e-20)
(0.10320333 3.0710537e-07 3.606051e-20)
(0.10320365 4.8664817e-07 0)
(0.1032026 5.0015401e-07 3.928116e-20)
(0.10320161 5.9778325e-07 0)
(0.10320296 6.5037678e-07 5.3543609e-18)
(0.10320404 7.4325656e-07 7.9630622e-27)
(0.10320329 7.7645502e-07 -5.7525485e-18)
(0.10320215 8.5534429e-07 2.299306e-20)
(0.10320327 8.8369021e-07 0)
(0.10320415 9.617277e-07 0)
(0.10320469 9.9301449e-07 3.1601837e-18)
(0.10320474 1.0660267e-06 -3.2533389e-18)
(0.10320388 1.0965779e-06 0)
(0.1032034 1.1562773e-06 -1.3122365e-20)
(0.10320364 1.1790071e-06 0)
(0.10320424 1.2378207e-06 0)
(0.10320478 1.2617953e-06 0)
(0.10320515 1.3138627e-06 -1.8054297e-18)
(0.10320539 1.3390092e-06 1.8508142e-18)
(0.10320555 1.3899942e-06 0)
(0.10320566 1.4235526e-06 -1.4833927e-20)
(0.10320574 1.4756263e-06 0)
(0.1032058 1.5165176e-06 -1.5325872e-20)
(0.10320584 1.5627042e-06 -5.1396119e-19)
(0.10320587 1.6049225e-06 5.0640193e-19)
(0.10320586 1.6470224e-06 -1.5973668e-20)
(0.10320584 1.6876717e-06 5.3948893e-19)
(0.10320578 1.7273709e-06 -1.4988981e-18)
(0.10320568 1.7681401e-06 9.677864e-19)
(0.10320552 1.8079462e-06 -3.0223786e-20)
(0.10320523 1.852972e-06 1.7484637e-26)
(0.10320473 1.8976557e-06 0)
(0.10320396 1.9440318e-06 0)
(0.10320307 1.9949334e-06 0)
(0.10320263 2.0383538e-06 1.3882926e-20)
(0.10320317 2.0910244e-06 -3.4910427e-18)
(0.10320415 2.1399747e-06 6.8684745e-18)
(0.10320525 2.1923827e-06 5.1907014e-27)
(0.10320526 2.2493631e-06 -6.5960423e-18)
(0.10320473 2.3053701e-06 3.2566949e-18)
(0.10320368 2.3594391e-06 0)
(0.10320228 2.4206464e-06 0)
(0.10320287 2.4668112e-06 0)
(0.1032036 2.5414776e-06 5.8909685e-18)
(0.10320365 2.5987347e-06 -5.7570339e-18)
(0.10320363 2.6722155e-06 2.1763357e-20)
(0.10320337 2.7398801e-06 -4.2191175e-20)
(0.10320326 2.8097684e-06 -4.8042805e-26)
(0.10320287 2.8949009e-06 4.6312566e-26)
(0.10320198 2.9798013e-06 -3.7748154e-20)
(0.10320237 3.053205e-06 3.6093823e-20)
(0.10320188 3.1528005e-06 0)
(0.10320023 3.1815953e-06 7.6616461e-26)
(0.10320229 3.4142085e-06 6.0956999e-20)
(0.10320206 3.4120576e-06 0)
(0.1032384 -8.1164655e-07 9.308665e-19)
(0.10320801 8.9151457e-07 -9.5938184e-19)
(0.10321332 -4.0050679e-07 0)
(0.10321164 2.1856407e-07 6.7607267e-20)
(0.10321344 -2.4203997e-08 -3.5654518e-20)
(0.10321556 1.7895107e-07 2.4312883e-18)
(0.10321187 1.7937769e-07 -2.5385314e-18)
(0.10321186 1.7260463e-07 5.1979778e-18)
(0.10321524 2.4996117e-07 1.5496223e-26)
(0.10321534 3.1336486e-07 -5.5640876e-18)
(0.10321405 3.7121492e-07 -5.6886383e-18)
(0.10321343 4.2617823e-07 5.8716882e-18)
(0.10321467 4.7663969e-07 0)
(0.10321607 5.2734632e-07 0)
(0.10321651 5.8937608e-07 3.1694096e-18)
(0.10321608 6.4444609e-07 -3.2002593e-18)
(0.10321518 6.9748574e-07 -1.2910225e-20)
(0.10321495 7.6669008e-07 1.4455421e-26)
(0.10321531 8.2202088e-07 0)
(0.10321604 8.8379624e-07 1.3659704e-20)
(0.10321664 9.4298184e-07 -3.5590604e-18)
(0.103217 1.0244053e-06 3.606689e-18)
(0.10321723 1.0889819e-06 1.8412268e-18)
(0.10321738 1.1713824e-06 -1.8720737e-18)
(0.1032175 1.2369409e-06 0)
(0.10321758 1.3158698e-06 0)
(0.10321764 1.3759706e-06 -9.5213951e-19)
(0.10321768 1.4426595e-06 1.0143419e-18)
(0.10321772 1.4993544e-06 0)
(0.10321772 1.5655301e-06 1.600056e-20)
(0.1032177 1.6159683e-06 -1.5889542e-20)
(0.10321765 1.6810678e-06 1.5635165e-20)
(0.10321756 1.7316138e-06 9.8453911e-19)
(0.10321741 1.8013583e-06 9.8373033e-19)
(0.10321715 1.8535484e-06 1.4887573e-20)
(0.10321667 1.9232111e-06 -1.8889094e-18)
(0.10321583 1.9618114e-06 -1.8286913e-18)
(0.10321472 1.9974984e-06 -1.811979e-18)
(0.10321421 2.0519695e-06 3.5477163e-18)
(0.10321464 2.0562725e-06 1.3667762e-20)
(0.10321555 2.1250493e-06 -2.6840858e-20)
(0.10321693 2.1418747e-06 1.3169436e-20)
(0.10321733 2.1958225e-06 -1.2913638e-20)
(0.10321687 2.2438217e-06 -2.5303564e-20)
(0.1032153 2.2698171e-06 -1.2382365e-20)
(0.10321382 2.3617812e-06 -2.4207648e-20)
(0.10321437 2.3464913e-06 0)
(0.10321534 2.4336579e-06 0)
(0.10321562 2.463698e-06 -5.7110461e-18)
(0.10321529 2.5472459e-06 -4.3470149e-20)
(0.10321515 2.5912241e-06 5.4280917e-18)
(0.10321524 2.6377376e-06 -4.0609739e-20)
(0.10321489 2.7776888e-06 3.9057032e-20)
(0.10321403 2.8008765e-06 2.4317767e-18)
(0.10321236 2.8701229e-06 -2.3183172e-18)
(0.10321429 3.0367162e-06 -2.1638657e-18)
(0.1032101 2.7288001e-06 4.13916e-18)
(0.10321433 3.6407785e-06 -8.9223932e-19)
(0.10321421 2.5990203e-06 -8.2491817e-19)
(0.10323483 -1.9758949e-06 -1.0636258e-19)
(0.1032045 9.670744e-07 5.8465915e-20)
(0.10321981 1.4462519e-07 3.1282725e-20)
(0.10320925 8.3234087e-07 0)
(0.10321446 6.6202021e-07 0)
(0.1032219 9.8867967e-07 2.3361781e-18)
(0.10320853 8.7407311e-07 -2.4647716e-18)
(0.10321261 9.0196055e-07 5.1968487e-18)
(0.10322173 9.4321282e-07 -5.3519536e-18)
(0.10321976 9.2990005e-07 5.5585638e-18)
(0.10321783 9.5018888e-07 -5.7789903e-18)
(0.10321908 8.917014e-07 -5.9006608e-18)
(0.10321829 8.9315883e-07 3.0294457e-18)
(0.10322214 8.6852047e-07 6.2219303e-18)
(0.10322238 8.6609701e-07 -3.1772333e-18)
(0.10322081 8.3592731e-07 6.2983553e-26)
(0.10322065 8.0646382e-07 1.2945784e-20)
(0.10322102 7.7430909e-07 -3.3530641e-18)
(0.10322103 7.2310121e-07 6.8865373e-18)
(0.10322188 7.0425539e-07 -3.533286e-18)
(0.10322284 6.422773e-07 0)
(0.10322336 6.08844e-07 1.417595e-20)
(0.10322365 5.5404025e-07 0)
(0.10322385 5.1424667e-07 7.3270123e-21)
(0.10322402 4.5593448e-07 -7.4472111e-21)
(0.10322413 4.1549608e-07 0)
(0.10322422 3.6650199e-07 -2.3072729e-20)
(0.1032243 3.4232949e-07 0)
(0.10322435 3.0536521e-07 0)
(0.1032244 2.8005415e-07 0)
(0.1032244 2.4541201e-07 0)
(0.10322433 2.1491099e-07 0)
(0.10322425 1.7543586e-07 2.3068975e-20)
(0.10322407 1.4365736e-07 7.565617e-21)
(0.10322375 9.9004445e-08 0)
(0.10322312 7.2838927e-08 2.1964588e-20)
(0.10322186 2.3697421e-08 -1.4401691e-20)
(0.10322038 -4.9727129e-09 7.0805222e-21)
(0.10322077 -4.2567758e-08 -6.9598941e-21)
(0.10322058 -9.1843337e-08 -1.3676771e-20)
(0.10322141 -1.1124665e-07 3.4517407e-18)
(0.10322218 -1.4302775e-07 -6.7617209e-18)
(0.1032242 -1.545139e-07 1.2924849e-20)
(0.10322354 -1.6297321e-07 3.254093e-18)
(0.10321944 -1.7259234e-07 1.2390259e-20)
(0.1032203 -1.5146728e-07 2.4216106e-20)
(0.10322006 -2.1796174e-07 0)
(0.10322115 -2.0099251e-07 -5.8789751e-18)
(0.10322251 -2.0855553e-07 2.2361263e-20)
(0.10322073 -1.7698848e-07 5.5928408e-18)
(0.10322126 -1.5678476e-07 2.0955443e-20)
(0.10322209 -1.3633649e-07 0)
(0.10322094 -5.3139552e-08 -2.4805042e-18)
(0.1032213 -1.7784141e-09 2.3887463e-18)
(0.10321171 9.2955437e-08 0)
(0.10322181 1.9498337e-07 3.3261381e-20)
(0.10320886 3.4340862e-07 -2.0280465e-18)
(0.10322121 6.5228663e-07 1.7986772e-18)
(0.10322118 2.0281456e-07 -1.0681281e-19)
(0.10318555 -2.1158237e-06 5.1699343e-20)
(0.10316615 -1.2819646e-06 1.7685932e-18)
(0.10318052 -1.0099444e-06 -1.9951208e-18)
(0.10316952 -1.179797e-06 2.1006472e-18)
(0.10318183 -5.6818803e-07 -4.4624187e-18)
(0.10317918 -1.0369254e-06 4.7092795e-18)
(0.10316727 -8.6164357e-07 -2.4609919e-18)
(0.10318238 -6.0710143e-07 5.1387999e-18)
(0.10317823 -6.4668541e-07 -1.0476705e-20)
(0.10317685 -6.3943627e-07 -5.5463068e-18)
(0.10317453 -5.9707866e-07 -5.7164238e-18)
(0.10317373 -5.1183943e-07 5.9158185e-18)
(0.10317901 -4.2151149e-07 0)
(0.10317899 -3.7897929e-07 -1.2159391e-20)
(0.10317732 -3.4387289e-07 6.2227067e-21)
(0.10317578 -3.1939952e-07 -1.2718805e-20)
(0.10317534 -2.3267219e-07 -3.3167257e-18)
(0.10317425 -1.7191155e-07 3.3748495e-18)
(0.10317549 -4.8935511e-08 -6.7403624e-21)
(0.10317613 2.8760143e-08 3.5264047e-18)
(0.10317611 1.4142252e-07 -7.1465948e-18)
(0.10317617 2.2052094e-07 5.4499545e-18)
(0.10317627 3.0936308e-07 -1.846525e-18)
(0.10317639 3.9994554e-07 -3.664884e-21)
(0.10317646 4.641811e-07 -1.8990608e-18)
(0.10317653 5.5965206e-07 1.9406657e-18)
(0.10317659 6.1359355e-07 7.6861054e-21)
(0.10317663 7.0544304e-07 0)
(0.10317666 7.5797686e-07 0)
(0.10317668 8.4361445e-07 0)
(0.10317668 9.0368112e-07 0)
(0.10317668 9.9543047e-07 -1.0010085e-18)
(0.10317666 1.0632512e-06 9.7737968e-19)
(0.10317664 1.1601336e-06 -1.9425853e-18)
(0.10317661 1.2305824e-06 1.9041621e-18)
(0.10317656 1.3151151e-06 -3.6666278e-21)
(0.10317655 1.39671e-06 0)
(0.10317588 1.4877531e-06 3.6334403e-18)
(0.10317352 1.5730817e-06 -3.565774e-18)
(0.10317472 1.6343755e-06 0)
(0.10317588 1.6540563e-06 -3.4559382e-18)
(0.1031771 1.6398077e-06 3.3921385e-18)
(0.10317849 1.5959201e-06 -3.3135505e-18)
(0.10318054 1.5412134e-06 3.2332866e-18)