/*--------------------------------*- C++ -*----------------------------------*\
| =========                 |                                                 |
| \\      /  F ield         | OpenFOAM: The Open Source CFD Toolbox           |
|  \\    /   O peration     | Version:  v2006                                 |
|   \\  /    A nd           | Website:  www.openfoam.com                      |
|    \\/     M anipulation  |                                                 |
\*---------------------------------------------------------------------------*/
FoamFile
{
    version     2.0;
    format      ascii;
    class       volVectorField;
    location    "6000";
    object      wallShearStress;
}
// * * * * * * * * * * * * * * * * * * * * * * * * * * * * * * * * * * * * * //

dimensions      [1 -1 -2 0 0 0 0];


internalField   uniform (0 0 0);

boundaryField
{
    Side
    {
        type            empty;
    }
    Ground
    {
        type            calculated;
        value           uniform (0 0 0);
    }
    Inlet
    {
        type            calculated;
        value           uniform (0 0 0);
    }
    Airfoil
    {
        type            calculated;
        value           nonuniform List<vector> 
527
(
(4.3821163e-06 1.8621922e-06 -2.507527e-20)
(4.870087e-06 1.6990552e-06 3.484587e-20)
(5.0088605e-06 1.23818e-06 1.8359711e-20)
(4.0286924e-06 1.1077147e-06 -1.9273466e-20)
(4.0716459e-06 1.144304e-06 -1.9778945e-20)
(3.7181704e-06 1.027687e-06 2.031506e-20)
(3.5118563e-06 9.3957905e-07 1.0116074e-23)
(3.3830497e-06 8.9126669e-07 -1.0326759e-23)
(3.3762197e-06 8.8014641e-07 -8.4393347e-28)
(3.3996798e-06 8.7872112e-07 2.1122164e-38)
(3.427523e-06 8.6484432e-07 -5.8774718e-39)
(3.4385905e-06 8.5260334e-07 1.1159407e-20)
(3.4594867e-06 8.4267779e-07 -1.1291499e-20)
(3.4667589e-06 8.3019798e-07 -1.1448551e-20)
(3.4777411e-06 8.2502451e-07 1.1578566e-20)
(3.4887956e-06 8.1328496e-07 5.8774718e-39)
(3.4939231e-06 8.0596776e-07 5.8774718e-39)
(3.5060007e-06 7.9249519e-07 -1.1914334e-20)
(3.5124254e-06 7.83938e-07 -2.355242e-23)
(3.5227618e-06 7.6691536e-07 1.2179144e-20)
(3.5317189e-06 7.5941547e-07 1.2272775e-20)
(3.5345518e-06 7.3562293e-07 -1.2386642e-20)
(3.5410342e-06 7.3008939e-07 -1.2507938e-20)
(3.5398638e-06 7.0501402e-07 -2.4735623e-23)
(3.543486e-06 6.9593615e-07 2.3422598e-27)
(3.539761e-06 6.7761489e-07 -2.5165539e-23)
(3.5381201e-06 6.6052893e-07 2.5374799e-23)
(3.5346272e-06 6.4895778e-07 1.3086413e-20)
(3.5243388e-06 6.2411122e-07 5.1728724e-23)
(3.5202896e-06 6.1153161e-07 1.3319613e-20)
(3.5048188e-06 5.8911898e-07 -1.3449194e-20)
(3.4901705e-06 5.6298559e-07 -1.356257e-20)
(3.4802607e-06 5.448026e-07 -1.3696036e-20)
(3.4452989e-06 5.1082314e-07 -1.3795678e-20)
(3.4305544e-06 4.8398161e-07 -1.3892264e-20)
(3.4054594e-06 4.6142368e-07 5.4772111e-23)
(3.3435835e-06 4.1721949e-07 -2.1240456e-27)
(3.3356109e-06 3.8648235e-07 1.417613e-20)
(3.285963e-06 3.5660217e-07 0)
(3.2000346e-06 3.0467669e-07 -7.1832079e-21)
(3.1809894e-06 2.6804001e-07 -5.6913536e-23)
(3.1113819e-06 2.3292987e-07 7.3304157e-21)
(2.9961477e-06 1.8032677e-07 7.3505736e-21)
(2.9409266e-06 1.3396523e-07 1.1646989e-22)
(2.852514e-06 8.8928959e-08 7.4403719e-21)
(2.7169698e-06 3.1639003e-08 5.5835982e-37)
(2.5746461e-06 -2.9384215e-08 5.9562183e-23)
(2.5219018e-06 -8.0882467e-08 -7.6684863e-21)
(2.320812e-06 -1.3514215e-07 -7.8652515e-21)
(2.0662302e-06 -2.3010638e-07 -7.7363747e-21)
(2.0222373e-06 -2.7685356e-07 -1.4693679e-39)
(1.7757929e-06 -3.5650789e-07 9.420313e-40)
(1.4401112e-06 -4.5122993e-07 4.9705962e-39)
(1.1628205e-06 -5.2432519e-07 -6.2625637e-23)
(1.1138326e-06 -6.0951472e-07 8.2278265e-21)
(6.3979011e-07 -7.0528243e-07 -8.1420671e-21)
(8.2970301e-08 -8.4292207e-07 -6.4115699e-23)
(-9.7668195e-09 -9.3715786e-07 -7.1746481e-43)
(-2.9681728e-07 -1.0544675e-06 -6.5028245e-23)
(-8.6040483e-07 -1.1624899e-06 8.4384717e-21)
(-1.4022476e-06 -1.278106e-06 -6.5855435e-23)
(-1.5736872e-06 -1.3805684e-06 6.6076652e-23)
(-1.9658032e-06 -1.5000797e-06 2.4182582e-37)
(-2.6035797e-06 -1.6098896e-06 6.8876622e-40)
(-3.1484302e-06 -1.7229115e-06 6.6947401e-23)
(-3.4149056e-06 -1.8443072e-06 -6.7544838e-23)
(-3.8731286e-06 -1.9799322e-06 -6.7711125e-23)
(-4.6799289e-06 -2.0942395e-06 8.7621874e-21)
(-5.3462133e-06 -2.2125028e-06 -2.4979255e-38)
(-5.6546953e-06 -2.3480099e-06 -1.6897731e-38)
(-6.1016116e-06 -2.5181819e-06 -4.3489088e-21)
(-7.2084762e-06 -2.6220146e-06 -8.926479e-27)
(-8.2082392e-06 -2.7243888e-06 -8.7502654e-27)
(-8.4734386e-06 -2.8590597e-06 -9.029461e-21)
(-8.7412918e-06 -3.0790109e-06 -7.0252133e-23)
(-1.0081731e-05 -3.1609758e-06 1.4056984e-22)
(-1.1598894e-05 -3.2105753e-06 -4.667706e-21)
(-1.1757472e-05 -3.3518102e-06 -4.399647e-21)
(-1.2130024e-05 -3.5349771e-06 -1.0577675e-26)
(-1.3019236e-05 -3.6712079e-06 -1.4338357e-22)
(-1.4560202e-05 -3.7018262e-06 7.1735034e-23)
(-1.5351784e-05 -3.7834766e-06 7.234756e-23)
(-1.5642217e-05 -3.9320581e-06 4.5753426e-21)
(-1.5949121e-05 -4.1672753e-06 9.3476807e-21)
(-1.7412714e-05 -4.1979513e-06 -4.6873953e-21)
(-1.8951469e-05 -4.1958369e-06 9.4378328e-27)
(-1.9080048e-05 -4.3620549e-06 3.6991116e-23)
(-1.9510952e-05 -4.5455626e-06 -3.7195042e-23)
(-2.0255169e-05 -4.7208765e-06 4.7720867e-21)
(-2.1900145e-05 -4.7153549e-06 -4.7977793e-21)
(-2.305637e-05 -4.7488345e-06 -3.7578528e-23)
(-2.3299986e-05 -4.9215551e-06 -4.8032192e-21)
(-2.3647904e-05 -5.1645141e-06 4.8758705e-21)
(-2.4860506e-05 -5.2665235e-06 -3.3795463e-38)
(-2.6887582e-05 -5.1747946e-06 -4.8626194e-21)
(-2.7797267e-05 -5.2245473e-06 9.7648894e-21)
(-2.8025482e-05 -5.4054843e-06 -4.9054042e-21)
(-2.8275492e-05 -5.6997805e-06 3.8977668e-23)
(-2.9825477e-05 -5.7345612e-06 -5.025615e-21)
(-3.2223982e-05 -5.5464847e-06 -1.7191605e-37)
(-3.2977894e-05 -5.6055879e-06 2.5150487e-21)
(-3.315711e-05 -5.7946118e-06 2.5646462e-21)
(-3.3365156e-05 -6.0998517e-06 2.548412e-21)
(-3.4880485e-05 -6.1319377e-06 2.5107569e-21)
(-3.7421212e-05 -5.8850361e-06 -2.5115758e-21)
(-3.83293e-05 -5.9035717e-06 -1.1766989e-26)
(-3.8458073e-05 -6.0891378e-06 2.5415825e-21)
(-3.8672492e-05 -6.360276e-06 -1.102026e-39)
(-3.9797923e-05 -6.4757251e-06 -6.3791232e-38)
(-4.2359675e-05 -6.196233e-06 -1.2636564e-37)
(-4.3808609e-05 -6.101177e-06 -2.6258562e-21)
(-4.384062e-05 -6.2884574e-06 2.6405062e-21)
(-4.4087977e-05 -6.5026322e-06 -2.6528796e-21)
(-4.4500305e-05 -6.8050021e-06 4.1831215e-23)
(-4.6963501e-05 -6.5302485e-06 -6.6090478e-27)
(-4.9313367e-05 -6.2498987e-06 -2.7218585e-21)
(-4.9157484e-05 -6.4725655e-06 5.4037977e-21)
(-4.9505e-05 -6.6302471e-06 2.6723417e-21)
(-4.9740563e-05 -6.9220432e-06 4.271887e-23)
(-5.1348462e-05 -6.8653464e-06 4.2854255e-23)
(-5.3775337e-05 -6.5746072e-06 -8.5771894e-23)
(-5.452514e-05 -6.6218412e-06 -2.7194993e-21)
(-5.4815467e-05 -6.7722108e-06 -7.9713211e-38)
(-5.5146979e-05 -6.9713549e-06 -5.5862622e-21)
(-5.5619282e-05 -7.2434814e-06 2.7715436e-21)
(-5.7835439e-05 -7.0052376e-06 8.8015354e-23)
(-6.0041007e-05 -6.7659555e-06 -4.4112327e-23)
(-6.0051639e-05 -6.9823244e-06 2.8470124e-21)
(-6.0490458e-05 -7.1318165e-06 -4.4717646e-23)
(-6.071032e-05 -7.4358228e-06 8.9884815e-23)
(-6.1949105e-05 -7.5399358e-06 -2.9401388e-21)
(-6.506531e-05 -7.092626e-06 1.4452142e-21)
(-6.6996109e-05 -6.8971812e-06 1.4039092e-21)
(-6.6896934e-05 -7.1190364e-06 1.5078254e-21)
(-6.708439e-05 -7.3196137e-06 1.5156812e-21)
(-6.6973486e-05 -7.7678273e-06 1.4322153e-21)
(-6.9120636e-05 -7.641822e-06 1.4835695e-21)
(-7.3624687e-05 -6.8434552e-06 -4.6200524e-23)
(-7.5276898e-05 -6.6537809e-06 4.6324955e-23)
(-7.483002e-05 -6.8977333e-06 -4.6746585e-23)
(-7.4721983e-05 -7.1188737e-06 1.5050575e-21)
(-7.4307477e-05 -7.6103414e-06 9.4680879e-23)
(-7.667542e-05 -7.3795848e-06 1.5180947e-21)
(-8.1829618e-05 -6.3736014e-06 -1.5595014e-21)
(-8.3464318e-05 -6.1323081e-06 1.5159995e-21)
(-8.2706466e-05 -6.3993012e-06 2.0089015e-41)
(-8.2603418e-05 -6.5510806e-06 1.540073e-21)
(-8.2348409e-05 -6.8650097e-06 -6.2080795e-38)
(-8.3545092e-05 -6.8532171e-06 -1.5073959e-21)
(-8.7013437e-05 -6.2153181e-06 -4.8643178e-23)
(-8.8819245e-05 -5.9561598e-06 4.8781636e-23)
(-8.8303935e-05 -6.1909613e-06 -5.0178382e-27)
(-8.8489123e-05 -6.2813785e-06 -4.9510649e-23)
(-8.8659915e-05 -6.4268924e-06 3.2687697e-38)
(-8.9066182e-05 -6.5692379e-06 2.5008068e-23)
(-9.0517622e-05 -6.4318953e-06 -2.5135625e-23)
(-9.1890641e-05 -6.3427441e-06 -7.8274224e-22)
(-9.1988493e-05 -6.5155035e-06 -2.5377001e-23)
(-9.2414595e-05 -6.6122948e-06 8.1689955e-22)
(-9.2459903e-05 -6.8376029e-06 -1.2856969e-39)
(-9.2266977e-05 -7.2488805e-06 -8.5441779e-22)
(-9.5044203e-05 -6.8811768e-06 8.5244045e-22)
(-9.9300055e-05 -6.2137869e-06 -1.6294279e-21)
(-9.9452907e-05 -6.378945e-06 -5.1974454e-23)
(-9.8954172e-05 -6.6270087e-06 -8.1063782e-22)
(-9.8292031e-05 -6.9277303e-06 -8.162627e-22)
(-9.6110709e-05 -7.7810283e-06 8.5250897e-22)
(-9.6567561e-05 -8.5142761e-06 8.2798585e-22)
(-0.00011141157 -5.8982055e-06 -2.5905988e-23)
(-0.00012296049 -2.7317787e-06 -3.854471e-22)
(-0.00011576245 -4.1909934e-06 2.5923434e-23)
(-0.00011352121 -4.4401234e-06 -2.6265003e-23)
(-0.00010981337 -5.2299046e-06 2.6570288e-23)
(-0.00010480481 -6.7519073e-06 -2.7005893e-23)
(-0.00011241745 -5.785297e-06 4.239064e-22)
(-0.00013855309 4.4534848e-07 -3.5586255e-40)
(-0.00014775717 3.3591061e-06 -2.2452928e-22)
(-0.00013540351 1.2869098e-06 -7.5915302e-23)
(-0.00013093534 9.1426531e-07 -7.4903327e-40)
(-0.00012404989 -2.9121684e-07 0)
(-0.00011573914 -2.5433152e-06 -1.6421466e-46)
(-0.00012942104 -2.4408478e-07 3.5168102e-28)
(-0.00016040219 8.8198455e-06 1.0920151e-39)
(-0.00016258683 1.0835366e-05 6.0611427e-39)
(-0.00015064415 8.5974414e-06 -7.9358555e-22)
(-0.00014449419 7.8988663e-06 8.0815237e-39)
(-0.00013680461 6.5613884e-06 8.2688687e-22)
(-0.00012852503 4.5634398e-06 -1.7448744e-39)
(-0.00013831843 6.2668607e-06 2.5677658e-23)
(-0.00016385187 1.4637284e-05 -2.4521472e-23)
(-0.00016617745 1.6755641e-05 -8.031927e-22)
(-0.00015381679 1.4223694e-05 4.9565971e-23)
(-0.00014716035 1.3307353e-05 -2.5373953e-23)
(-0.00013910963 1.1818924e-05 8.5641246e-22)
(-0.0001288852 9.6984245e-06 8.5497345e-22)
(-0.00013247968 1.0522247e-05 -2.6166653e-23)
(-0.00016789823 2.068139e-05 -7.44918e-22)
(-0.00018401433 2.8007464e-05 1.8005382e-26)
(-0.00016326108 2.2950839e-05 -2.4055141e-23)
(-0.00015557012 2.186045e-05 0)
(-0.00014740758 2.0286544e-05 1.6558744e-21)
(-0.00013783762 1.8240408e-05 -2.6150591e-23)
(-0.00013108909 1.6851042e-05 -1.7013066e-21)
(-0.00015426488 2.3477218e-05 -1.2322088e-23)
(-0.00017818065 3.2824844e-05 1.1991805e-23)
(-0.00016523399 3.03145e-05 1.509546e-39)
(-0.00015532216 2.8243676e-05 0)
(-0.00014769542 2.6682741e-05 7.3468397e-40)
(-0.00014089633 2.5174988e-05 -1.6656296e-21)
(-0.00013310071 2.3370875e-05 4.874169e-38)
(-0.00013098708 2.3125425e-05 -1.6930269e-21)
(-0.00015152018 2.976691e-05 1.5964786e-21)
(-0.0001638696 3.5657487e-05 1.5678078e-21)
(-0.00014764087 3.1160886e-05 2.9387359e-39)
(-0.00014165473 3.001962e-05 5.3871423e-27)
(-0.00013484872 2.8381706e-05 1.7104558e-21)
(-0.0001287929 2.6847848e-05 1.7373784e-21)
(-0.00012164513 2.5135902e-05 -1.3915887e-23)
(-0.00012164219 2.5725381e-05 -1.7710758e-21)
(-0.00014548269 3.353184e-05 1.6306338e-21)
(-0.00015856096 3.994366e-05 -2.2958874e-41)
(-0.00014133842 3.4854215e-05 1.6277273e-21)
(-0.00013561415 3.366099e-05 1.3235415e-23)
(-0.00012892781 3.1912049e-05 4.6592544e-27)
(-0.00012351927 3.0429566e-05 1.3863541e-23)
(-0.00011758649 2.8918123e-05 1.8014561e-21)
(-0.00011586511 2.9126294e-05 -1.4693679e-39)
(-0.00013079577 3.4259438e-05 -1.3265398e-23)
(-0.00014413477 4.0055856e-05 1.3132423e-23)
(-0.00013512311 3.7857541e-05 -1.6760266e-21)
(-0.00012780559 3.5888405e-05 -1.3590611e-23)
(-0.0001221012 3.4333869e-05 1.393258e-23)
(-0.00011716936 3.289524e-05 1.8083049e-21)
(-0.00011258327 3.1480043e-05 1.4693679e-39)
(-0.00010848327 3.058772e-05 1.078343e-44)
(-0.00011026764 3.1975681e-05 2.7093265e-40)
(-0.00012401834 3.6913552e-05 0)
(-0.00012985129 4.0143949e-05 -1.7658512e-21)
(-0.00011863337 3.6486924e-05 -3.1987254e-27)
(-0.00011438339 3.5356953e-05 -3.0161635e-27)
(-0.0001093214 3.381116e-05 2.9518493e-23)
(-0.00010523539 3.2529731e-05 -3.0164121e-23)
(-0.00010139854 3.1269152e-05 1.5395502e-23)
(-9.8253824e-05 3.0588815e-05 -4.0013734e-21)
(-0.00010128391 3.2693425e-05 1.9397432e-21)
(-0.0001169924 3.8291864e-05 -1.7081402e-38)
(-0.00012416223 4.2317863e-05 1.796026e-21)
(-0.00011247813 3.8285245e-05 0)
(-0.00010877374 3.726267e-05 3.8065808e-21)
(-0.00010417626 3.5769838e-05 0)
(-0.00010072134 3.463359e-05 0)
(-9.7565187e-05 3.3578708e-05 -1.0097221e-21)
(-9.510324e-05 3.2874974e-05 1.0251902e-21)
(-9.4972161e-05 3.3363056e-05 0)
(-0.00010078962 3.5788433e-05 7.6483262e-24)
(-0.00010715013 3.8738034e-05 9.6241602e-22)
(-0.00010439525 3.8172341e-05 9.7429414e-22)
(-9.9360669e-05 3.6446609e-05 0)
(-9.6186798e-05 3.5385609e-05 -1.0194326e-21)
(-9.3113845e-05 3.4323615e-05 -1.9101783e-38)
(-9.0498737e-05 3.3416471e-05 -5.8774718e-39)
(-8.8294576e-05 3.2654484e-05 1.07168e-21)
(-8.6764612e-05 3.2249138e-05 -8.4580582e-24)
(-8.7151723e-05 3.2884796e-05 1.0870176e-21)
(-9.1665676e-05 3.4976428e-05 -1.6177067e-23)
(-9.6509451e-05 3.7128245e-05 8.0304083e-24)
(-9.4443427e-05 3.6621359e-05 -4.0357256e-24)
(-9.0217538e-05 3.5103794e-05 1.0662518e-21)
(-8.7505032e-05 3.4139817e-05 2.8617351e-28)
(-8.4789653e-05 3.314836e-05 -4.2946411e-24)
(-8.2451319e-05 3.2299459e-05 -1.1181007e-21)
(-8.0580561e-05 3.1608762e-05 2.2713651e-21)
(-7.9408053e-05 3.1222988e-05 0)
(-7.921377e-05 3.1543379e-05 -1.1754944e-38)
(-8.230128e-05 3.3718375e-05 2.1961401e-21)
(-9.0915815e-05 3.728625e-05 4.0394198e-24)
(-9.5738157e-05 3.9715074e-05 1.0325134e-21)
(-8.9680084e-05 3.7437302e-05 4.1514849e-24)
(-8.7179058e-05 3.6557975e-05 2.9387359e-39)
(-8.4365607e-05 3.5501387e-05 -1.1084121e-21)
(-8.2227368e-05 3.4687503e-05 2.0833437e-28)
(-8.0257547e-05 3.3945424e-05 -2.2379225e-24)
(-7.8643615e-05 3.3355883e-05 -5.1657467e-41)
(-7.7420792e-05 3.2943092e-05 1.7075663e-38)
(-7.6733561e-05 3.2818876e-05 -5.6051939e-45)
(-7.7082512e-05 3.3306295e-05 1.7926911e-27)
(-7.9284536e-05 3.4533593e-05 8.5512837e-41)
(-8.1792249e-05 3.5687181e-05 0)
(-8.0870768e-05 3.5333437e-05 -5.7181762e-22)
(-7.8103925e-05 3.4243998e-05 5.8192836e-22)
(-7.6421244e-05 3.3583419e-05 1.1568422e-24)
(-7.4671677e-05 3.2884395e-05 6.0222753e-22)
(-7.3181557e-05 3.2291232e-05 -1.1894651e-24)
(-7.1837161e-05 3.177223e-05 -6.1691207e-22)
(-7.0773957e-05 3.1388257e-05 -2.9295782e-29)
(-7.0124216e-05 3.1173521e-05 -1.254213e-21)
(-6.9938979e-05 3.1237315e-05 6.2600256e-22)
(-7.0391308e-05 3.1800012e-05 0)
(-7.2396522e-05 3.3156836e-05 -1.4362679e-25)
(-7.6016187e-05 3.476798e-05 1.4335235e-25)
(-7.7454375e-05 3.532737e-05 -2.9387359e-39)
(-7.3795524e-05 3.3882216e-05 6.0509714e-22)
(-7.2441209e-05 3.3340466e-05 -6.1623175e-22)
(-7.05854e-05 3.2577998e-05 3.0562778e-25)
(-6.9173642e-05 3.199134e-05 1.4349296e-42)
(-6.7820549e-05 3.1434838e-05 6.2836907e-25)
(-6.6679188e-05 3.097687e-05 2.503118e-29)
(-6.575332e-05 3.0620126e-05 -6.4220501e-25)
(-6.5136725e-05 3.0414721e-05 6.6253757e-22)
(-6.4888331e-05 3.0422269e-05 -6.6288109e-22)
(-6.5045672e-05 3.0715772e-05 1.3185017e-21)
(-6.584412e-05 3.1468826e-05 -1.2679796e-24)
(-6.7797073e-05 3.2698861e-05 1.2408487e-24)
(-7.0216285e-05 3.3754865e-05 -3.1458241e-22)
(-7.0338558e-05 3.3663756e-05 5.8774718e-39)
(-6.7423112e-05 3.2482121e-05 6.4544232e-22)
(-6.595141e-05 3.1854414e-05 1.2876673e-24)
(-6.4181233e-05 3.1086247e-05 -3.3701401e-22)
(-6.2735731e-05 3.0444041e-05 1.3332493e-24)
(-6.1332763e-05 2.9819124e-05 3.4667264e-22)
(-6.0071453e-05 2.9254559e-05 -3.5326861e-22)
(-5.8929672e-05 2.8732274e-05 1.3935926e-24)
(-5.7924526e-05 2.8277898e-05 1.4108182e-24)
(-5.7078725e-05 2.7919266e-05 -1.4261607e-24)
(-5.6434709e-05 2.7683705e-05 -5.9693073e-40)
(-5.6014795e-05 2.7590003e-05 5.6051939e-45)
(-5.5837294e-05 2.7677575e-05 -1.4149259e-28)
(-5.60309e-05 2.8015904e-05 -3.6949445e-22)
(-5.679102e-05 2.8521308e-05 1.4223311e-24)
(-5.764741e-05 2.8783275e-05 3.6434185e-22)
(-5.7217697e-05 2.8435739e-05 -2.9387359e-39)
(-5.5652352e-05 2.7801154e-05 -1.4569002e-24)
(-5.4830352e-05 2.7484381e-05 -3.7648131e-22)
(-5.4055951e-05 2.7221076e-05 1.8944628e-22)
(-5.3648788e-05 2.7153608e-05 3.0030776e-24)
(-5.3521061e-05 2.7241458e-05 -2.9994723e-24)
(-5.3721613e-05 2.751116e-05 1.4898411e-24)
(-5.4270124e-05 2.7991075e-05 -2.9387359e-39)
(-5.5204614e-05 2.8709775e-05 3.7106836e-22)
(-5.6555966e-05 2.9698483e-05 -3.6247945e-22)
(-5.8359313e-05 3.0995481e-05 1.7564476e-22)
(-6.0676192e-05 3.2636839e-05 -1.7017607e-22)
(-6.3550133e-05 3.4612064e-05 6.354974e-25)
(-6.6861616e-05 3.6889679e-05 1.5538487e-22)
(-7.059343e-05 3.9595433e-05 2.9524428e-22)
(-7.5549101e-05 4.2660874e-05 2.7387599e-25)
(-8.1546922e-05 4.4715458e-05 -1.0305825e-26)
(-8.3200495e-05 4.5944329e-05 -1.2697564e-22)
(-8.3898711e-05 5.201753e-05 5.8519688e-26)
(-3.8714746e-05 -3.9891425e-06 -7.3468397e-40)
(-3.5696651e-05 -3.3282287e-06 -3.0700134e-24)
(-3.6643104e-05 -3.1884136e-06 3.0738751e-24)
(-3.5112548e-05 -2.5000217e-06 -6.3035395e-21)
(-3.3426164e-05 -2.0502445e-06 4.147291e-37)
(-3.2454647e-05 -1.6878971e-06 -3.08841e-24)
(-3.0698997e-05 -1.2779477e-06 -6.3312946e-21)
(-2.958229e-05 -1.1316589e-06 3.1686397e-21)
(-2.944931e-05 -1.0994974e-06 3.1771161e-21)
(-2.9095991e-05 -1.0456051e-06 -3.1756739e-21)
(-2.8768715e-05 -1.0069296e-06 -3.1028309e-24)
(-2.8557786e-05 -9.9003111e-07 -3.1784694e-21)
(-2.8562169e-05 -1.0036817e-06 1.5523001e-24)
(-2.868005e-05 -1.004128e-06 3.1811442e-21)
(-2.8668016e-05 -9.7304431e-07 3.1799146e-21)
(-2.8709024e-05 -9.2877281e-07 -6.3605688e-21)
(-2.8425491e-05 -8.0814332e-07 -6.4226528e-30)
(-2.7936932e-05 -6.9894914e-07 -3.1820148e-21)
(-2.772909e-05 -6.2348184e-07 3.182947e-21)
(-2.7519008e-05 -5.4035449e-07 -3.1836667e-21)
(-2.7096486e-05 -4.4036001e-07 -1.5922926e-21)
(-2.6803913e-05 -3.8758072e-07 -1.5927857e-21)
(-2.6767745e-05 -3.3890689e-07 3.1868793e-21)
(-2.6490549e-05 -2.6198352e-07 -1.5559857e-24)
(-2.6242867e-05 -2.1789464e-07 -7.9568006e-22)
(-2.6335201e-05 -1.7911661e-07 -7.9731316e-22)
(-2.6020658e-05 -8.0269323e-08 3.9850693e-22)
(-2.557859e-05 -1.6099859e-08 -9.9656588e-23)
(-2.5529893e-05 3.8595524e-08 -4.6635213e-42)
(-2.5110789e-05 1.2674553e-07 7.9753235e-22)
(-2.4739209e-05 1.6499083e-07 -1.5955437e-21)
(-2.4782112e-05 2.014403e-07 -7.9786365e-22)
(-2.4548594e-05 2.6545502e-07 -1.5958799e-21)
(-2.4209687e-05 3.1235516e-07 7.9162198e-38)
(-2.4174551e-05 3.6038454e-07 2.2958874e-41)
(-2.3723185e-05 4.4799552e-07 1.5958867e-21)
(-2.3194379e-05 4.8688422e-07 -3.1944331e-21)
(-2.3074822e-05 5.295225e-07 3.1958247e-21)
(-2.2729937e-05 5.7807319e-07 -3.1955788e-21)
(-2.238331e-05 6.0711156e-07 -3.1963454e-21)
(-2.2251193e-05 6.4212563e-07 -2.8307946e-37)
(-2.1925507e-05 6.9655215e-07 -3.1957769e-21)
(-2.1365228e-05 7.4362043e-07 -3.1982608e-21)
(-2.0878824e-05 7.8165474e-07 -3.2008745e-21)
(-2.0398844e-05 8.3216033e-07 1.5627383e-24)
(-1.9455904e-05 8.7632022e-07 -3.1267133e-24)
(-1.847059e-05 8.7623001e-07 -1.2813574e-20)
(-1.7640756e-05 8.7224472e-07 -6.4113303e-21)
(-1.6640165e-05 8.2394334e-07 -1.0761972e-41)
(-1.5946966e-05 7.4733251e-07 -6.422642e-21)
(-1.5456869e-05 6.6086941e-07 -2.7132506e-28)
(-1.5037738e-05 5.5482968e-07 3.2158376e-21)
(-1.4594715e-05 4.2020793e-07 -3.2139532e-21)
(-1.4771317e-05 2.4567406e-07 -3.2143996e-21)
(-1.5295454e-05 8.2000267e-08 3.1391255e-24)
(-1.5594046e-05 -1.2687513e-07 -6.2779744e-24)
(-1.6209934e-05 -3.6612245e-07 3.1383942e-24)
(-1.7139269e-05 -6.386453e-07 3.2096359e-21)
(-1.8238839e-05 -9.6393522e-07 3.1363325e-24)
(-1.9518499e-05 -1.3299221e-06 -6.4233855e-21)
(-2.0915165e-05 -1.7368617e-06 3.1333593e-24)
(-2.264708e-05 -2.1971549e-06 -1.2829111e-20)
(-2.4344284e-05 -2.7142528e-06 3.1290901e-24)
(-2.7291909e-05 -3.3738213e-06 1.2796616e-20)
(-2.9625175e-05 -4.1504272e-06 -1.2780616e-20)
(-3.7232165e-05 -5.1349485e-06 6.2344014e-24)
(-3.1367133e-05 -5.3221227e-06 1.2718506e-20)
(-6.8639948e-05 -1.1109377e-05 4.4411646e-37)
(-5.6097324e-05 6.4150059e-06 6.0574529e-21)
(-0.0001189112 -8.6766791e-05 -9.3287708e-22)
(-8.8809575e-05 -5.6545476e-05 3.4142224e-23)
(-8.9925505e-05 -5.4345278e-05 -7.0723133e-27)
(-0.00010359368 -6.0771125e-05 -3.6647865e-21)
(-0.00015931092 -0.000100148 1.5458309e-21)
(-0.00013452894 -6.3746845e-05 -1.5076649e-21)
(-1.8396388e-05 2.0697722e-06 -5.8774718e-39)
(-1.684724e-05 6.0542112e-08 4.5086616e-21)
(-2.2018645e-05 -4.060975e-06 2.2187456e-37)
(6.5736512e-06 5.2169283e-06 3.7686204e-21)
(2.4453632e-07 3.6313247e-06 1.7901993e-26)
(-1.3160676e-05 4.1688797e-08 1.1417603e-26)
(-2.1062829e-05 -1.6911042e-06 -2.0232048e-23)
(-3.0821905e-05 -4.1592661e-06 -4.6355285e-21)
(-3.6683814e-05 -5.3851562e-06 -4.2224503e-21)
(-3.6969645e-05 -5.0928281e-06 -3.8750493e-21)
(-3.7238139e-05 -5.1615478e-06 -1.4009286e-23)
(-4.2097697e-05 -6.2313667e-06 -6.4641258e-24)
(-3.9831853e-05 -4.898091e-06 -6.0191226e-21)
(-3.6431469e-05 -4.3397187e-06 5.538179e-24)
(-4.0419885e-05 -5.1382456e-06 5.3799376e-21)
(-2.1811777e-06 -1.4568577e-05 5.4774897e-22)
(-3.0117981e-06 -2.0123271e-05 9.1835496e-40)
(-4.3059093e-06 -2.820501e-05 1.019269e-21)
(-6.5695527e-06 -3.8652748e-05 -9.6535092e-22)
(-9.5518756e-06 -4.2211081e-05 -9.2119419e-22)
(-1.0461824e-05 -4.4930585e-05 8.8450281e-22)
(-1.3084385e-05 -5.4332468e-05 -1.4693679e-39)
(-1.5956815e-05 -6.3716134e-05 2.4093714e-23)
(-2.2491528e-05 -8.9467376e-05 -7.1020239e-22)
(-3.2917836e-05 -9.2873335e-05 -4.2688896e-23)
(-3.2201371e-05 -7.2344496e-05 4.520408e-27)
(-3.2793097e-05 -6.8520223e-05 -1.4375175e-21)
(-3.8768483e-05 -7.9558447e-05 1.3743718e-21)
(-4.793185e-05 -9.6020812e-05 1.2568894e-21)
(-5.0784385e-05 -9.1845591e-05 5.8774718e-39)
(-5.0110684e-05 -8.6374475e-05 2.4470547e-21)
(-5.8825932e-05 -9.901939e-05 -1.0230324e-26)
(-6.8148567e-05 -0.00011067912 3.1284335e-23)
(-9.8168119e-05 -0.00016374138 -3.4964315e-21)
(-9.9426098e-05 -0.00012774307 -2.7555031e-23)
(-6.452126e-05 -6.7025545e-05 4.6366071e-21)
(-6.8846218e-05 -6.8610439e-05 0)
(-8.4800874e-05 -8.4808987e-05 0)
(-0.00011148949 -0.00011394459 0)
(-0.00010017184 -9.0350776e-05 -2.9512406e-23)
(-7.2164122e-05 -5.5961158e-05 3.6263488e-23)
(-7.9064607e-05 -5.9704893e-05 2.2206574e-21)
(-9.2239964e-05 -6.8885729e-05 -1.9281894e-21)
(-0.00012539086 -9.84352e-05 -2.9387359e-39)
(-5.3320214e-07 -5.9571581e-06 3.57392e-23)
(-4.6969439e-07 4.7004472e-06 -6.2613217e-22)
(-1.1741961e-06 1.1165781e-05 0)
(-2.1459744e-06 1.8951649e-05 3.6734198e-39)
(-4.0435682e-06 2.4052497e-05 -9.9062636e-22)
(-5.295184e-06 2.8570391e-05 -9.0938207e-22)
(-6.5057117e-06 3.4233697e-05 -8.1983045e-22)
(-7.9592677e-06 4.1431228e-05 0)
(-1.0695038e-05 4.8424244e-05 -5.9400146e-22)
(-1.2133325e-05 6.694971e-05 4.5293503e-27)
(-1.8875962e-05 6.9369597e-05 1.0820021e-21)
(-2.1893635e-05 5.9299657e-05 -5.8774718e-39)
(-2.3825124e-05 5.8314563e-05 1.7710266e-23)
(-2.6547164e-05 6.3539352e-05 -1.6083585e-23)
(-3.0001837e-05 6.9373065e-05 4.6697385e-22)
(-3.3658866e-05 8.201025e-05 -4.2961992e-22)
(-3.7593588e-05 8.5978016e-05 -8.2182445e-22)
(-3.9254648e-05 7.9325608e-05 -4.3349384e-22)
(-4.084375e-05 7.7278821e-05 -4.1590163e-22)
(-4.3772037e-05 8.0536992e-05 -3.7363354e-22)
(-4.7808936e-05 8.6238198e-05 3.398106e-22)
(-5.2949184e-05 9.4850153e-05 -9.8559871e-24)
(-5.9817688e-05 0.00010309904 -5.3768711e-22)
(-6.8242941e-05 0.00013085475 2.531735e-22)
(-7.4000092e-05 0.00013394088 -9.1450846e-24)
(-6.5744288e-05 8.6579559e-05 1.2359987e-23)
(-5.8742843e-05 6.7199314e-05 -4.727233e-22)
(-5.7894383e-05 6.3787229e-05 -8.0001874e-24)
(-6.183959e-05 6.4912566e-05 4.9456213e-22)
(-6.773188e-05 6.9921884e-05 -2.9387359e-39)
(-7.4614446e-05 7.7226418e-05 0)
(-8.2937368e-05 8.9909807e-05 0)
(-8.8652952e-05 0.00010436892 3.7291423e-22)
(-8.0902247e-05 8.999073e-05 6.9444176e-24)
(-6.6744149e-05 5.9123786e-05 -5.8117864e-22)
(-5.9266775e-05 4.7340049e-05 6.8881157e-22)
(-5.6953379e-05 4.3442945e-05 7.47803e-22)
(-5.8811622e-05 4.2681025e-05 7.31685e-22)
(-6.2957243e-05 4.5526602e-05 2.1784263e-23)
(-6.766689e-05 5.0207421e-05 3.1241396e-22)
(-7.2596631e-05 5.5783083e-05 5.9475811e-22)
(-7.8226654e-05 6.1484859e-05 0)
(-8.5304754e-05 6.9401822e-05 -7.8363457e-24)
(-9.0874789e-05 8.2950936e-05 -2.5444369e-22)
(-8.2203516e-05 7.5061339e-05 6.2296475e-22)
(-6.3003482e-05 4.5446686e-05 -1.2895145e-23)
(-5.2246964e-05 3.194607e-05 -5.120052e-22)
(-4.7105615e-05 2.5550421e-05 6.2798178e-22)
(-4.5223861e-05 2.1728253e-05 -6.6569483e-22)
(-4.476217e-05 2.0454236e-05 2.0932808e-23)
(-4.5280346e-05 2.0916513e-05 1.2938778e-21)
(-4.5996896e-05 2.2167927e-05 6.3786208e-22)
(-4.7304992e-05 2.3771992e-05 1.2284037e-21)
(-4.9308677e-05 2.5762168e-05 -1.838862e-23)
(-5.1959195e-05 2.7872709e-05 1.7579223e-23)
(-5.5171172e-05 3.021392e-05 2.6748903e-22)
(-5.9373087e-05 3.3352408e-05 1.568564e-23)
(-6.1406263e-05 3.844519e-05 -1.5227879e-23)
(-6.8965526e-05 2.3541728e-05 2.1409018e-22)
)
;
    }
    Outlet
    {
        type            calculated;
        value           uniform (0 0 0);
    }
}


// ************************************************************************* //
