/*--------------------------------*- C++ -*----------------------------------*\
| =========                 |                                                 |
| \\      /  F ield         | OpenFOAM: The Open Source CFD Toolbox           |
|  \\    /   O peration     | Version:  v2006                                 |
|   \\  /    A nd           | Website:  www.openfoam.com                      |
|    \\/     M anipulation  |                                                 |
\*---------------------------------------------------------------------------*/
FoamFile
{
    version     2.0;
    format      ascii;
    class       volScalarField;
    location    "6000";
    object      yPlus;
}
// * * * * * * * * * * * * * * * * * * * * * * * * * * * * * * * * * * * * * //

dimensions      [0 0 0 0 0 0 0];


internalField   uniform 0;

boundaryField
{
    Side
    {
        type            empty;
    }
    Ground
    {
        type            calculated;
        value           nonuniform List<scalar> 
519
(
1.1988745
1.2080833
1.2184085
1.2310704
1.245869
1.263125
1.2817974
1.3018434
1.3294927
1.3610011
1.365489
1.4014192
1.6082287
1.5981384
1.6563456
1.6059395
1.5599881
1.5151903
1.4723613
1.4314855
1.3926679
1.3560955
1.3219525
1.2905414
1.262266
1.2375148
1.2170033
1.2024401
1.6836613
1.6871033
1.6900934
1.6926073
1.6945823
1.6960737
1.6969226
1.6969687
1.6960885
1.6941574
1.691059
1.686636
1.6807048
1.6730341
1.6633403
1.6512789
1.6364372
1.6183339
1.5964031
1.569991
1.5383829
1.5007406
1.4560913
1.4033244
1.3412671
1.2683016
1.1827777
1.0822374
0.96245312
0.81438074
0.61378239
0.32535084
0.39333912
0.66273556
0.84629146
1.0111494
1.1466883
1.2483459
1.3300516
1.4049869
1.4731311
1.5346789
1.5891651
1.638904
1.6832015
1.7229753
1.7581426
1.7887427
1.8151635
1.8382297
1.8585445
1.8765455
1.8925617
1.9065662
1.918741
1.9296501
1.9395837
1.9485586
1.9566091
1.9638897
1.9706017
1.9767018
1.9821264
1.9869711
1.9913325
1.9952676
1.9988238
2.0020449
2.004972
2.0076319
2.0100642
2.0122633
2.0143195
2.0160718
1.7859603
1.7477986
1.720582
1.7063074
1.6900284
1.6765387
1.6646557
1.654916
1.6464839
1.6392532
1.6329883
1.6277699
1.6233906
1.6196728
1.6165178
1.613703
1.611222
1.608955
1.6068921
1.6049107
1.6030016
1.6009877
1.5989451
1.5966666
1.5942695
1.5915762
1.5886147
1.5854886
1.5819535
1.5780702
1.5736701
1.5688193
1.5635711
1.5576591
1.5511892
1.5441916
1.5365457
1.5283924
1.5193582
1.5091504
1.4980933
1.4861642
1.4733011
1.4598693
1.4454692
1.4296952
1.4126581
1.3944123
1.3750374
1.3550357
1.3351034
1.3133931
1.2900132
1.2649641
1.2387895
1.2124842
1.1865615
1.1616974
1.1385223
1.1154074
1.0906507
1.060654
1.0251265
0.98436208
0.94045232
0.89585616
0.85346431
0.81413589
0.77246118
0.73659434
0.69968536
0.66628743
0.62203947
0.57015712
0.51090766
0.45009635
0.40164512
0.38900733
0.41457357
0.45692026
0.4999744
0.54048134
0.57874435
0.6166903
0.65583481
0.6962486
0.73756607
0.77839422
0.8172922
0.85231557
0.88274534
0.90824622
0.92924016
0.94730745
0.96425608
0.98186061
1.0007809
1.0214049
1.0433024
1.0653624
1.0866739
1.1057877
1.1220443
1.1353928
1.1465424
1.1568162
1.1669589
1.177702
1.1894569
1.2023502
1.2163052
1.2303153
1.2432201
1.2543152
1.2632693
1.2708399
1.2780954
1.2858319
1.2950924
1.3059637
1.3179856
1.3300919
1.3410456
1.3505923
1.3594977
1.3691066
1.3806036
1.394039
1.4083102
1.4225312
1.4360987
1.449435
1.4634786
1.4786537
1.4946443
1.5109498
1.5270233
1.5430321
1.5594643
1.5762192
1.5930338
1.6096886
1.6259761
1.6421264
1.658367
1.6742839
1.6894771
1.7037524
1.7173184
1.7310271
1.745169
1.7590915
1.7723919
1.7850216
1.7968595
1.8080655
1.818773
1.8288999
1.8382354
1.8467744
1.8545543
1.8616477
1.8683693
1.8748672
1.8806402
1.8855704
1.8897201
1.8931295
1.8960973
1.8996509
1.9035864
1.9065307
1.9089259
1.9106176
1.911731
1.9131518
1.9159357
1.918968
1.9211748
1.9229918
1.9242604
1.9250044
1.92638
1.9294787
1.93263
1.935003
1.9371405
1.939038
1.940459
1.9421394
1.9449827
1.9479667
1.9504969
1.9528907
1.9549846
1.9566256
1.9582646
1.9613843
1.9655544
1.9691104
1.9725811
1.9756942
1.9784567
1.9808018
1.983968
1.988479
1.9926681
1.9965774
2.00015
2.0034586
2.0065331
2.0094443
2.0129522
2.0170662
2.0209242
2.024951
2.0283217
2.0312959
2.0343249
2.0371486
2.0405591
2.0448181
2.0485601
2.0522006
2.0555839
2.0587934
2.061784
2.0645277
2.0676284
2.0713736
2.0749188
2.0782792
2.0814325
2.0843963
2.0871815
2.08976
2.0921742
2.0949655
2.0981314
2.1009432
2.1036317
2.1061056
2.1084084
2.110533
2.1124567
2.1142361
2.1164708
2.1191675
2.1215143
2.1237614
2.125815
2.127718
2.1294652
2.1310596
2.1324925
2.133958
2.1356527
2.1373242
2.1388305
2.1401975
2.1414149
2.1424832
2.1433946
2.1441589
2.1447901
2.1454291
2.1462145
2.1469604
2.1475625
2.1480531
2.1484235
2.1486748
2.1488108
2.1488486
2.1487775
2.1485916
2.1485403
2.1487074
2.1487252
2.1486551
2.1484669
2.1481851
2.1478039
2.1473231
2.1467499
2.1460911
2.1453341
2.1445401
2.1437894
2.1430012
2.14211
2.1411372
2.1400747
2.138928
2.1376965
2.1364115
2.1350816
2.1336905
2.1322331
2.1307157
2.1292463
2.1278332
2.1263126
2.1247403
2.1231024
2.1214102
2.1196584
2.1178488
2.1159788
2.114057
2.1120867
2.1100703
2.1080043
2.1059135
2.103865
2.1018409
2.0997568
2.0976308
2.0954564
2.0932431
2.0909868
2.0886903
2.0863585
2.0839916
2.0815884
2.0791543
2.0766924
2.0741992
2.0716777
2.0691464
2.0666313
2.0641146
2.0615631
2.0589866
2.0563835
2.0537569
2.0511077
2.0484376
2.045748
2.043041
2.0403168
2.0375786
2.0348292
2.0320697
2.0293007
2.0265347
2.0237858
2.0210248
2.0182434
0.93599046
0.95745639
0.97649224
0.9921516
1.0031367
1.0074254
1.0016296
0.98053472
0.9392665
0.88147088
0.82962617
0.81407501
0.83521741
0.86910807
0.90545968
0.94414778
0.9852587
1.0284938
1.0733134
1.1195969
1.1673944
1.2171329
1.2691689
1.3238799
1.3829499
1.4468964
1.5147697
1.5850382
1.655525
1.7232991
1.7852929
1.839113
1.8821708
1.9125185
1.9288664
1.9314385
1.9223603
1.9049501
1.8834502
1.860888
1.8398795
1.8262627
1.8157968
1.7969636
0.91311901
0.89118269
0.87167498
0.85427975
0.83861212
0.82428817
0.81103554
0.79867922
0.78711199
0.77626989
0.76611586
0.75661971
0.74776619
0.7394957
0.73182103
0.72462322
0.7180271
0.71167878
0.7062173
0.70025113
0.69636856
0.68940815
0.68886339
0.68013085
)
;
    }
    Inlet
    {
        type            calculated;
        value           uniform 0;
    }
    Airfoil
    {
        type            calculated;
        value           nonuniform List<scalar> 
527
(
1.5228603
1.7914822
1.8319601
1.6136898
1.5907563
1.4989239
1.4367885
1.3888453
1.3658329
1.3490947
1.3354431
1.318203
1.3031946
1.2858806
1.2686796
1.2525062
1.2348727
1.2195858
1.2028959
1.1883069
1.1724326
1.1579443
1.1419299
1.1274317
1.1118452
1.0963711
1.0813621
1.0652703
1.0503298
1.0345791
1.0184572
1.0030323
0.98715483
0.97049684
0.95559445
0.93851891
0.92055991
0.90720303
0.88779574
0.8677712
0.85388023
0.83286776
0.80895924
0.79155574
0.76894674
0.74184884
0.71401831
0.6972276
0.66044549
0.61791092
0.60374994
0.55915218
0.50165734
0.45096868
0.44031187
0.3598217
0.32235455
0.3367332
0.3700801
0.44338272
0.51703676
0.538242
0.58275182
0.64818552
0.69934871
0.71972795
0.75500791
0.81518276
0.86135909
0.87680265
0.90112493
0.9649671
1.0219502
1.028645
1.0363798
1.0971316
1.1719963
1.1705638
1.1787597
1.2087512
1.2696426
1.2966998
1.298029
1.300601
1.3448029
1.3996131
1.3935608
1.3981547
1.412923
1.4591903
1.4917601
1.4885349
1.4889093
1.5140171
1.5686078
1.588961
1.5844689
1.581183
1.6111649
1.6720846
1.6859403
1.6798145
1.6749657
1.7005097
1.7588463
1.7758175
1.7684674
1.7634384
1.7780411
1.8292098
1.8590842
1.8498956
1.8453611
1.8445406
1.8849623
1.9346224
1.9222673
1.9196208
1.9151976
1.9356979
1.9793022
1.9880839
1.9843764
1.9815334
1.9813997
2.0114993
2.0504008
2.0421465
2.0410786
2.036664
2.0487263
2.09592
2.1280664
2.118658
2.1138312
2.104869
2.1298938
2.2010591
2.2288343
2.2152302
2.2067128
2.1942171
2.221305
2.3000969
2.3279076
2.3112763
2.3037728
2.2944119
2.3048472
2.3517001
2.3789691
2.3666383
2.3636611
2.3605547
2.3606233
2.3747987
2.3911866
2.38733
2.3877061
2.3832905
2.3761254
2.4060617
2.4643372
2.4655948
2.4550063
2.4424342
2.4114758
2.4136988
2.5941317
2.7686565
2.6837914
2.6552959
2.6092441
2.5475915
2.6356694
2.9641826
3.1148745
2.9821207
2.9333584
2.8556139
2.7593101
2.9184961
3.3105111
3.3804987
3.2574522
3.1947423
3.112248
3.0199924
3.1383041
3.4633768
3.5312403
3.4032251
3.3358855
3.2494173
3.1330941
3.1842746
3.6210001
3.8668589
3.6495286
3.5737737
3.4883815
3.3819613
3.3073209
3.6040105
3.9362335
3.8125853
3.709215
3.6294405
3.5565693
3.4676667
3.452301
3.7336185
3.927886
3.7390078
3.6767689
3.5999983
3.5302571
3.442589
3.4567911
3.8023533
4.0070225
3.7947286
3.7327295
3.6533081
3.5890184
3.5148445
3.5043932
3.7419595
3.9509582
3.8402581
3.7499241
3.6799183
3.6185703
3.5600995
3.5090746
3.5548108
3.78719
3.8865268
3.7277751
3.6755162
3.6070534
3.5521961
3.4994227
3.4590345
3.5304508
3.8097266
3.9251414
3.7489586
3.7020963
3.6370502
3.5897349
3.5461079
3.5146063
3.5277392
3.6493696
3.7679969
3.7244414
3.6469335
3.6016257
3.5564954
3.5186794
3.4877689
3.4702322
3.4928117
3.596596
3.6918648
3.6544305
3.5841176
3.5420964
3.4985413
3.4614774
3.4330919
3.4193304
3.4289965
3.5126233
3.7039182
3.7788254
3.665733
3.626601
3.5796131
3.5454105
3.5139562
3.4895329
3.4733333
3.4693739
3.4900379
3.5519214
3.6078437
3.585209
3.5339644
3.506059
3.4758669
3.4509213
3.4289209
3.4132154
3.4070771
3.4128868
3.4361373
3.4974063
3.5914287
3.6037997
3.527914
3.5046993
3.4690474
3.4431903
3.4182921
3.3981944
3.3831995
3.3759927
3.378672
3.3929071
3.4252104
3.4862351
3.5468946
3.5306444
3.4659116
3.436066
3.3980403
3.3673961
3.3372578
3.3102325
3.2858063
3.264787
3.2481209
3.2372193
3.2329797
3.2363766
3.2510265
3.2805962
3.3014605
3.2792852
3.2415099
3.22453
3.2092628
3.2047176
3.2086256
3.2225168
3.2472235
3.2838491
3.3332428
3.3962182
3.4739046
3.5664038
3.6700359
3.7839113
3.9208379
4.0679606
4.1263546
4.1838847
1.8222575
1.7416382
1.756186
1.7084148
1.6593984
1.6283562
1.5775351
1.5457213
1.5401114
1.5289092
1.5186308
1.511654
1.5106322
1.5124282
1.5105892
1.5100812
1.5005909
1.4860018
1.479111
1.4722246
1.4597024
1.4510002
1.4493196
1.4410983
1.4338911
1.4360417
1.4270465
1.4147197
1.4133396
1.4017703
1.3915787
1.3930712
1.3869257
1.3778397
1.3774549
1.3654699
1.3510547
1.3485131
1.3395346
1.3303898
1.3276324
1.3194049
1.3041388
1.2909203
1.2779974
1.2505526
1.2205581
1.1948319
1.1620495
1.1382688
1.1207375
1.1048217
1.0868888
1.0896525
1.1045127
1.1097826
1.1246125
1.1479031
1.1741286
1.20339
1.2333849
1.2699379
1.3018033
1.3613702
1.3983439
1.5530606
1.4093064
2.009594
2.1719122
4.1593627
3.4929437
3.4604738
3.6712842
4.5711578
3.836842
1.2839289
1.2371673
1.3990023
0.82092846
0.48220062
1.0475204
1.3352027
1.6257909
1.776924
1.7806125
1.7920878
1.9119871
1.8499197
1.7738449
1.8753253
1.146165
1.3432142
1.5878179
1.8707139
1.9951372
2.0566807
2.2618622
2.4500505
2.9066307
3.0854703
2.7861285
2.7323442
2.9577304
3.2733688
3.2591732
3.1910609
3.4420885
3.6721009
4.4810513
4.1321329
3.1537264
3.2452343
3.6383415
4.2329797
3.8631436
3.2152973
3.385696
3.6932471
4.4068509
0.70615458
0.66783815
1.0950324
1.4915395
1.7207262
1.9631801
2.2398451
2.5604186
2.8717831
3.4859938
3.3969083
3.2246735
3.3032059
3.5422298
3.7990371
4.2140978
4.1878633
4.1041178
4.1524391
4.326609
4.5629735
4.8672165
5.1712368
5.8185384
4.9206373
4.2383426
3.8731921
3.8458592
3.9676254
4.1754934
4.4255206
4.7691625
4.7378597
4.0258192
3.4953575
3.2390858
3.1697595
3.214289
3.3433752
3.5030545
3.6744111
3.8529814
4.0716172
4.0655518
3.3471365
2.8253753
2.5123827
2.3596439
2.2909416
2.2752966
2.298167
2.3339651
2.3857011
2.4547026
2.5362461
2.6278818
2.7386948
2.8526552
2.8628274
)
;
    }
    Outlet
    {
        type            calculated;
        value           uniform 0;
    }
}


// ************************************************************************* //
