/*--------------------------------*- C++ -*----------------------------------*\
| =========                 |                                                 |
| \\      /  F ield         | OpenFOAM: The Open Source CFD Toolbox           |
|  \\    /   O peration     | Version:  v2006                                 |
|   \\  /    A nd           | Website:  www.openfoam.com                      |
|    \\/     M anipulation  |                                                 |
\*---------------------------------------------------------------------------*/
FoamFile
{
    version     2.0;
    format      ascii;
    class       volScalarField;
    location    "5000";
    object      alphat;
}
// * * * * * * * * * * * * * * * * * * * * * * * * * * * * * * * * * * * * * //

dimensions      [1 -1 -1 0 0 0 0];


internalField   nonuniform List<scalar> 
55713
(
2.7811881e-10
2.880331e-09
2.8913524e-08
6.933594e-08
8.9618757e-08
9.566901e-08
9.5900312e-08
9.5049002e-08
9.4487617e-08
9.4283081e-08
9.4250349e-08
9.4261698e-08
9.4271838e-08
9.4274467e-08
9.4274567e-08
9.4275834e-08
9.4277389e-08
9.4277687e-08
9.4276593e-08
9.4275487e-08
9.4275225e-08
9.4275675e-08
9.4276217e-08
9.4276546e-08
9.4276599e-08
9.4276558e-08
9.4276489e-08
9.4276428e-08
9.4276296e-08
9.4276117e-08
9.4275918e-08
9.4275678e-08
9.4275471e-08
9.4275358e-08
9.4275582e-08
9.4276567e-08
9.4276679e-08
9.4276072e-08
9.4275048e-08
9.4273825e-08
9.4272666e-08
9.4271643e-08
9.4270646e-08
9.4269593e-08
9.4268579e-08
9.4267644e-08
9.4266808e-08
9.4265999e-08
9.4265174e-08
9.4264287e-08
9.426334e-08
9.4262308e-08
9.4261222e-08
9.4260119e-08
9.4259024e-08
9.4257931e-08
9.4256848e-08
9.4255721e-08
9.4254458e-08
3.3732685e-10
4.1786239e-09
3.5947005e-08
7.6185069e-08
9.3056975e-08
9.6973727e-08
9.6594272e-08
9.5764668e-08
9.5334398e-08
9.5210278e-08
9.520428e-08
9.5217357e-08
9.5223913e-08
9.5223801e-08
9.5223269e-08
9.5224812e-08
9.5226206e-08
9.5225545e-08
9.5223817e-08
9.5222272e-08
9.5221636e-08
9.5221769e-08
9.5221968e-08
9.5221905e-08
9.5221582e-08
9.5221217e-08
9.522079e-08
9.5220405e-08
9.5219918e-08
9.5219415e-08
9.5218872e-08
9.5218298e-08
9.5217737e-08
9.521726e-08
9.521708e-08
9.5217794e-08
9.5217773e-08
9.5216819e-08
9.5215432e-08
9.5213831e-08
9.5212274e-08
9.5210899e-08
9.5209546e-08
9.5208098e-08
9.5206631e-08
9.5205257e-08
9.5203978e-08
9.5202734e-08
9.5201455e-08
9.5200112e-08
9.5198676e-08
9.5197125e-08
9.5195458e-08
9.519373e-08
9.5191959e-08
9.5190142e-08
9.5188255e-08
9.5186259e-08
9.5184023e-08
4.2186428e-10
5.876033e-09
4.3440722e-08
8.2299454e-08
9.57318e-08
9.8039139e-08
9.731512e-08
9.6572383e-08
9.6263289e-08
9.6198907e-08
9.6207324e-08
9.6218866e-08
9.6221303e-08
9.6219524e-08
9.6219176e-08
9.6220729e-08
9.6221448e-08
9.6220058e-08
9.621781e-08
9.6215818e-08
9.621486e-08
9.6214677e-08
9.6214521e-08
9.6214113e-08
9.6213445e-08
9.6212754e-08
9.6211992e-08
9.6211278e-08
9.6210448e-08
9.6209629e-08
9.6208775e-08
9.6207877e-08
9.6207e-08
9.6206164e-08
9.6205602e-08
9.6206014e-08
9.6205975e-08
9.6204688e-08
9.6202954e-08
9.620097e-08
9.6199037e-08
9.6197333e-08
9.6195673e-08
9.6193863e-08
9.6191985e-08
9.6190194e-08
9.6188515e-08
9.6186867e-08
9.618518e-08
9.6183418e-08
9.6181548e-08
9.6179525e-08
9.6177339e-08
9.6175039e-08
9.617266e-08
9.6170191e-08
9.6167586e-08
9.6164809e-08
9.6161681e-08
5.4402596e-10
8.1961136e-09
5.1584935e-08
8.7808815e-08
9.7965196e-08
9.8987465e-08
9.80897e-08
9.7477676e-08
9.7277433e-08
9.7254532e-08
9.726832e-08
9.7275433e-08
9.7274645e-08
9.7272332e-08
9.727233e-08
9.7273749e-08
9.7273741e-08
9.7271659e-08
9.7268919e-08
9.7266537e-08
9.726533e-08
9.7264858e-08
9.7264371e-08
9.7263607e-08
9.7262616e-08
9.7261632e-08
9.726056e-08
9.725956e-08
9.7258407e-08
9.7257325e-08
9.7256156e-08
9.7254967e-08
9.725377e-08
9.7252618e-08
9.7251696e-08
9.72518e-08
9.7251781e-08
9.7250231e-08
9.7248171e-08
9.7245822e-08
9.7243537e-08
9.724154e-08
9.723962e-08
9.7237494e-08
9.7235236e-08
9.7233063e-08
9.7231015e-08
9.7229006e-08
9.7226945e-08
9.7224806e-08
9.7222538e-08
9.7220099e-08
9.7217445e-08
9.7214628e-08
9.7211688e-08
9.7208629e-08
9.7205366e-08
9.7201883e-08
9.7197934e-08
7.2130794e-10
1.1286755e-08
6.0083309e-08
9.2558917e-08
9.9793679e-08
9.9874996e-08
9.8951447e-08
9.8489406e-08
9.837594e-08
9.8377511e-08
9.8389795e-08
9.8392104e-08
9.8389532e-08
9.8387303e-08
9.8387676e-08
9.838877e-08
9.8387895e-08
9.8385209e-08
9.8382019e-08
9.8379379e-08
9.8377982e-08
9.8377258e-08
9.8376434e-08
9.8375341e-08
9.8374043e-08
9.8372782e-08
9.8371431e-08
9.8370174e-08
9.8368743e-08
9.8367425e-08
9.8365981e-08
9.8364542e-08
9.8363063e-08
9.8361627e-08
9.8360357e-08
9.8360137e-08
9.8360155e-08
9.8358465e-08
9.8356088e-08
9.8353394e-08
9.8350774e-08
9.8348529e-08
9.8346406e-08
9.8344029e-08
9.8341437e-08
9.8338932e-08
9.8336562e-08
9.8334241e-08
9.8331854e-08
9.8329387e-08
9.8326776e-08
9.8323988e-08
9.8320935e-08
9.8317674e-08
9.8314239e-08
9.8310678e-08
9.8306839e-08
9.8302756e-08
9.8298086e-08
9.8082489e-10
1.5342646e-08
6.8660559e-08
9.614077e-08
1.0131953e-07
1.007646e-07
9.9924874e-08
9.9610167e-08
9.9558589e-08
9.9570764e-08
9.9577763e-08
9.9576838e-08
9.9573437e-08
9.9571562e-08
9.9572271e-08
9.9572815e-08
9.9571023e-08
9.9567789e-08
9.9564238e-08
9.9561515e-08
9.9559993e-08
9.9559037e-08
9.9557862e-08
9.9556481e-08
9.9554894e-08
9.9553398e-08
9.9551789e-08
9.9550311e-08
9.9548641e-08
9.9547119e-08
9.9545451e-08
9.9543799e-08
9.9542095e-08
9.9540417e-08
9.9538858e-08
9.953831e-08
9.9538342e-08
9.9536693e-08
9.9534009e-08
9.9530986e-08
9.9528048e-08
9.9525602e-08
9.9523344e-08
9.9520797e-08
9.9517933e-08
9.9515154e-08
9.9512524e-08
9.9509947e-08
9.9507297e-08
9.9504562e-08
9.9501672e-08
9.9498607e-08
9.9495245e-08
9.9491625e-08
9.948778e-08
9.9483814e-08
9.9479504e-08
9.947494e-08
9.946967e-08
1.365121e-09
2.057647e-08
7.6916842e-08
9.9022476e-08
1.0256107e-07
1.0169641e-07
1.010283e-07
1.008403e-07
1.0082684e-07
1.0083904e-07
1.0084101e-07
1.0083816e-07
1.0083451e-07
1.0083309e-07
1.0083404e-07
1.008338e-07
1.0083113e-07
1.0082738e-07
1.0082367e-07
1.0082104e-07
1.0081948e-07
1.0081826e-07
1.0081676e-07
1.0081511e-07
1.008133e-07
1.008116e-07
1.0080979e-07
1.0080812e-07
1.0080626e-07
1.0080457e-07
1.0080272e-07
1.0080091e-07
1.0079904e-07
1.0079717e-07
1.0079539e-07
1.0079453e-07
1.0079451e-07
1.0079315e-07
1.007902e-07
1.0078686e-07
1.0078363e-07
1.0078102e-07
1.0077871e-07
1.0077609e-07
1.0077304e-07
1.0077005e-07
1.0076724e-07
1.0076447e-07
1.0076164e-07
1.0075871e-07
1.0075562e-07
1.0075237e-07
1.007488e-07
1.0074494e-07
1.0074078e-07
1.0073654e-07
1.0073188e-07
1.0072699e-07
1.0072126e-07
1.9469614e-09
2.7213253e-08
8.5016881e-08
1.0204463e-07
1.0365743e-07
1.0274094e-07
1.0227391e-07
1.0217833e-07
1.0218438e-07
1.0219158e-07
1.0218966e-07
1.0218601e-07
1.0218233e-07
1.0218144e-07
1.0218245e-07
1.0218126e-07
1.0217778e-07
1.0217362e-07
1.0217e-07
1.0216763e-07
1.0216604e-07
1.0216455e-07
1.0216277e-07
1.021609e-07
1.0215892e-07
1.0215708e-07
1.0215513e-07
1.0215333e-07
1.0215133e-07
1.0214953e-07
1.0214754e-07
1.0214564e-07
1.0214365e-07
1.0214167e-07
1.0213973e-07
1.0213859e-07
1.0213849e-07
1.0213765e-07
1.0213451e-07
1.0213089e-07
1.0212738e-07
1.0212467e-07
1.0212237e-07
1.021198e-07
1.0211667e-07
1.0211355e-07
1.0211063e-07
1.0210776e-07
1.0210484e-07
1.0210182e-07
1.0209863e-07
1.020953e-07
1.0209166e-07
1.0208769e-07
1.0208335e-07
1.0207898e-07
1.0207414e-07
1.0206908e-07
1.0206309e-07
2.8731475e-09
3.5465122e-08
9.2221044e-08
1.0433758e-07
1.0476679e-07
1.0396054e-07
1.0366414e-07
1.0362736e-07
1.036373e-07
1.0363963e-07
1.0363553e-07
1.03632e-07
1.0362826e-07
1.0362796e-07
1.0362883e-07
1.0362671e-07
1.0362241e-07
1.03618e-07
1.036147e-07
1.0361267e-07
1.0361105e-07
1.0360933e-07
1.0360733e-07
1.0360534e-07
1.0360327e-07
1.0360137e-07
1.0359933e-07
1.0359748e-07
1.0359541e-07
1.0359357e-07
1.035915e-07
1.035896e-07
1.0358755e-07
1.0358554e-07
1.0358352e-07
1.0358219e-07
1.0358201e-07
1.0358173e-07
1.0357866e-07
1.0357479e-07
1.0357104e-07
1.0356828e-07
1.0356609e-07
1.0356368e-07
1.0356061e-07
1.0355746e-07
1.0355454e-07
1.0355168e-07
1.0354879e-07
1.0354582e-07
1.0354264e-07
1.0353937e-07
1.035358e-07
1.0353192e-07
1.0352754e-07
1.0352322e-07
1.035184e-07
1.035134e-07
1.0350738e-07
4.4793438e-09
4.5484237e-08
9.8585785e-08
1.0633232e-07
1.0599306e-07
1.0535953e-07
1.0519648e-07
1.0519217e-07
1.0519872e-07
1.0519756e-07
1.0519243e-07
1.0518963e-07
1.0518571e-07
1.0518621e-07
1.0518678e-07
1.0518376e-07
1.0517864e-07
1.0517409e-07
1.0517122e-07
1.0516956e-07
1.0516795e-07
1.0516612e-07
1.0516404e-07
1.0516204e-07
1.0515998e-07
1.0515809e-07
1.0515606e-07
1.0515423e-07
1.0515218e-07
1.0515039e-07
1.0514832e-07
1.0514652e-07
1.0514448e-07
1.0514257e-07
1.0514056e-07
1.0513915e-07
1.0513889e-07
1.0513924e-07
1.0513658e-07
1.0513249e-07
1.0512854e-07
1.0512581e-07
1.0512384e-07
1.0512172e-07
1.0511887e-07
1.0511583e-07
1.0511305e-07
1.0511031e-07
1.0510764e-07
1.0510488e-07
1.0510187e-07
1.0509882e-07
1.0509549e-07
1.0509192e-07
1.0508772e-07
1.0508368e-07
1.0507914e-07
1.0507444e-07
1.0506868e-07
7.1900564e-09
5.7293371e-08
1.038336e-07
1.081024e-07
1.0738162e-07
1.0694823e-07
1.0687565e-07
1.068831e-07
1.0688397e-07
1.0688135e-07
1.0687634e-07
1.0687459e-07
1.0687034e-07
1.0687206e-07
1.068722e-07
1.0686828e-07
1.0686229e-07
1.0685764e-07
1.0685525e-07
1.0685402e-07
1.068526e-07
1.0685085e-07
1.0684887e-07
1.0684699e-07
1.0684506e-07
1.0684328e-07
1.0684137e-07
1.0683965e-07
1.0683774e-07
1.0683609e-07
1.0683416e-07
1.0683254e-07
1.0683063e-07
1.0682895e-07
1.0682707e-07
1.0682572e-07
1.0682544e-07
1.068264e-07
1.0682465e-07
1.0682032e-07
1.0681625e-07
1.068137e-07
1.0681209e-07
1.0681035e-07
1.0680794e-07
1.0680518e-07
1.0680274e-07
1.0680024e-07
1.06798e-07
1.0679566e-07
1.0679302e-07
1.0679039e-07
1.0678751e-07
1.0678453e-07
1.0678077e-07
1.0677726e-07
1.0677333e-07
1.0676923e-07
1.067641e-07
1.105914e-08
7.0823301e-08
1.0728758e-07
1.0970501e-07
1.0897463e-07
1.087309e-07
1.0870824e-07
1.0871484e-07
1.0871177e-07
1.0870954e-07
1.0870533e-07
1.0870474e-07
1.0869987e-07
1.0870335e-07
1.0870295e-07
1.0869819e-07
1.0869167e-07
1.0868698e-07
1.0868519e-07
1.0868451e-07
1.0868344e-07
1.0868197e-07
1.0868027e-07
1.0867863e-07
1.0867695e-07
1.0867541e-07
1.0867375e-07
1.0867229e-07
1.0867066e-07
1.0866928e-07
1.0866764e-07
1.0866632e-07
1.0866471e-07
1.0866338e-07
1.0866178e-07
1.0866069e-07
1.0866048e-07
1.0866199e-07
1.0866167e-07
1.0865712e-07
1.0865307e-07
1.0865096e-07
1.0864985e-07
1.0864861e-07
1.0864693e-07
1.0864458e-07
1.0864277e-07
1.0864068e-07
1.0863907e-07
1.086374e-07
1.0863537e-07
1.0863338e-07
1.0863121e-07
1.0862906e-07
1.0862616e-07
1.0862344e-07
1.0862053e-07
1.0861735e-07
1.086133e-07
1.6832465e-08
8.600994e-08
1.0959867e-07
1.1121088e-07
1.1079353e-07
1.107044e-07
1.1070168e-07
1.1070324e-07
1.1069934e-07
1.1069859e-07
1.1069547e-07
1.1069532e-07
1.1069006e-07
1.1069539e-07
1.106942e-07
1.1068905e-07
1.1068369e-07
1.1067981e-07
1.1067882e-07
1.1067849e-07
1.1067764e-07
1.1067646e-07
1.1067516e-07
1.1067391e-07
1.1067266e-07
1.1067151e-07
1.1067031e-07
1.1066925e-07
1.1066809e-07
1.1066711e-07
1.1066598e-07
1.1066509e-07
1.1066399e-07
1.1066313e-07
1.1066206e-07
1.1066138e-07
1.1066146e-07
1.1066324e-07
1.1066459e-07
1.1065998e-07
1.1065638e-07
1.1065517e-07
1.1065477e-07
1.1065413e-07
1.1065349e-07
1.106516e-07
1.1065078e-07
1.1064934e-07
1.106486e-07
1.1064773e-07
1.1064659e-07
1.1064549e-07
1.1064432e-07
1.1064325e-07
1.1064161e-07
1.1063996e-07
1.1063849e-07
1.106366e-07
1.1063412e-07
2.4888726e-08
1.0253238e-07
1.1277061e-07
1.1294242e-07
1.128488e-07
1.1284339e-07
1.12844e-07
1.1284315e-07
1.1284061e-07
1.1284105e-07
1.1283892e-07
1.128378e-07
1.1283382e-07
1.1283891e-07
1.1283781e-07
1.1283407e-07
1.1283234e-07
1.1283112e-07
1.1283053e-07
1.1282991e-07
1.1282916e-07
1.1282844e-07
1.1282776e-07
1.1282713e-07
1.1282654e-07
1.1282599e-07
1.1282547e-07
1.1282499e-07
1.1282453e-07
1.1282413e-07
1.1282372e-07
1.128234e-07
1.1282304e-07
1.1282279e-07
1.1282246e-07
1.1282231e-07
1.1282272e-07
1.1282421e-07
1.1282662e-07
1.1282287e-07
1.1282082e-07
1.1282089e-07
1.1282084e-07
1.1282109e-07
1.1282125e-07
1.128207e-07
1.1282063e-07
1.1282066e-07
1.1282081e-07
1.1282075e-07
1.1282072e-07
1.1282072e-07
1.1282075e-07
1.1282087e-07
1.1282079e-07
1.1282054e-07
1.1282073e-07
1.1282041e-07
1.1282001e-07
8.558802e-08
8.558671e-08
8.5585741e-08
8.5586924e-08
8.5587612e-08
8.558853e-08
8.5589394e-08
8.5590315e-08
8.5591238e-08
8.5592188e-08
8.5593123e-08
8.5594055e-08
8.5594953e-08
8.5595839e-08
8.5596697e-08
8.5597559e-08
8.5598438e-08
8.5599383e-08
8.5600388e-08
8.5601436e-08
8.5602475e-08
8.560345e-08
8.560423e-08
8.5604688e-08
8.560477e-08
8.5604604e-08
8.5604393e-08
8.5604285e-08
8.5604259e-08
8.5604255e-08
8.5604218e-08
8.5604136e-08
8.5603969e-08
8.5603635e-08
8.5603053e-08
8.5602301e-08
8.560162e-08
8.5601204e-08
8.5600985e-08
8.5600675e-08
8.5599658e-08
8.5596592e-08
8.5590011e-08
8.5582911e-08
8.5593176e-08
8.5665155e-08
8.5865232e-08
8.623166e-08
8.6648123e-08
8.6636579e-08
8.5119724e-08
8.0278163e-08
6.9444102e-08
5.0736498e-08
2.7091011e-08
8.6605455e-09
1.603211e-09
4.2801234e-10
5.6471267e-10
8.5878297e-08
8.587717e-08
8.5877052e-08
8.5878052e-08
8.5878855e-08
8.5879751e-08
8.5880633e-08
8.5881558e-08
8.5882484e-08
8.5883432e-08
8.5884361e-08
8.5885284e-08
8.5886172e-08
8.5887046e-08
8.5887894e-08
8.5888748e-08
8.5889623e-08
8.5890569e-08
8.5891573e-08
8.5892619e-08
8.5893651e-08
8.5894618e-08
8.5895385e-08
8.5895825e-08
8.5895882e-08
8.5895692e-08
8.5895471e-08
8.5895364e-08
8.5895338e-08
8.589533e-08
8.5895284e-08
8.5895189e-08
8.5895004e-08
8.589466e-08
8.5894088e-08
8.5893365e-08
8.5892712e-08
8.5892315e-08
8.5892091e-08
8.5891695e-08
8.589047e-08
8.5887255e-08
8.588107e-08
8.5875152e-08
8.5886115e-08
8.5954569e-08
8.6142598e-08
8.6491271e-08
8.6907009e-08
8.6964375e-08
8.5658888e-08
8.1201331e-08
7.1061031e-08
5.2952197e-08
2.9131121e-08
9.652322e-09
1.7557412e-09
4.0091443e-10
5.069572e-10
8.619763e-08
8.6196682e-08
8.6196868e-08
8.6197823e-08
8.6198671e-08
8.6199572e-08
8.6200468e-08
8.6201403e-08
8.6202336e-08
8.6203289e-08
8.6204218e-08
8.6205138e-08
8.6206019e-08
8.6206884e-08
8.6207722e-08
8.6208567e-08
8.6209435e-08
8.6210376e-08
8.6211376e-08
8.6212418e-08
8.6213446e-08
8.6214413e-08
8.6215179e-08
8.6215614e-08
8.6215654e-08
8.6215445e-08
8.6215211e-08
8.62151e-08
8.6215074e-08
8.6215068e-08
8.621502e-08
8.6214928e-08
8.6214755e-08
8.6214442e-08
8.6213906e-08
8.62132e-08
8.621253e-08
8.6212101e-08
8.6211875e-08
8.6211572e-08
8.6210668e-08
8.6208117e-08
8.6202488e-08
8.6194991e-08
8.6197869e-08
8.6246477e-08
8.6402855e-08
8.6725066e-08
8.7167354e-08
8.738817e-08
8.6487723e-08
8.2762503e-08
7.3649049e-08
5.6398922e-08
3.2278789e-08
1.118091e-08
2.0004511e-09
3.864196e-10
4.5009768e-10
8.6549521e-08
8.6548798e-08
8.6549297e-08
8.655021e-08
8.6551093e-08
8.6552e-08
8.6552907e-08
8.655385e-08
8.6554786e-08
8.6555739e-08
8.6556663e-08
8.6557574e-08
8.6558441e-08
8.6559294e-08
8.6560118e-08
8.6560951e-08
8.656181e-08
8.6562746e-08
8.6563743e-08
8.656478e-08
8.6565803e-08
8.6566767e-08
8.6567528e-08
8.656795e-08
8.6567967e-08
8.6567734e-08
8.6567488e-08
8.6567376e-08
8.6567351e-08
8.6567346e-08
8.6567297e-08
8.6567203e-08
8.6567034e-08
8.656674e-08
8.6566236e-08
8.6565556e-08
8.6564882e-08
8.6564433e-08
8.6564195e-08
8.6563917e-08
8.6563154e-08
8.6561047e-08
8.6556171e-08
8.6548638e-08
8.6547264e-08
8.658167e-08
8.6710015e-08
8.6999144e-08
8.7440915e-08
8.7771995e-08
8.7201298e-08
8.4125057e-08
7.6009369e-08
5.9743246e-08
3.5582514e-08
1.2916383e-08
2.3222089e-09
3.8183143e-10
4.0276711e-10
8.6937914e-08
8.6937494e-08
8.6938184e-08
8.6939088e-08
8.6939991e-08
8.694091e-08
8.6941825e-08
8.6942774e-08
8.6943712e-08
8.6944659e-08
8.6945573e-08
8.6946471e-08
8.6947324e-08
8.6948159e-08
8.6948967e-08
8.6949787e-08
8.6950636e-08
8.6951567e-08
8.6952559e-08
8.6953591e-08
8.695461e-08
8.695557e-08
8.6956323e-08
8.6956728e-08
8.6956717e-08
8.6956455e-08
8.6956198e-08
8.6956086e-08
8.6956065e-08
8.6956062e-08
8.6956012e-08
8.6955918e-08
8.6955754e-08
8.6955481e-08
8.6955012e-08
8.6954361e-08
8.6953685e-08
8.6953211e-08
8.6952961e-08
8.6952716e-08
8.6952101e-08
8.6950429e-08
8.6946331e-08
8.6938981e-08
8.6933924e-08
8.6954854e-08
8.7054713e-08
8.7306198e-08
8.7735412e-08
8.8157919e-08
8.7902483e-08
8.5484183e-08
7.8420187e-08
6.3297465e-08
3.931471e-08
1.5007784e-08
2.7493914e-09
3.877474e-10
3.5917386e-10
8.7367527e-08
8.7367422e-08
8.7368243e-08
8.736915e-08
8.7370062e-08
8.7370989e-08
8.7371909e-08
8.7372856e-08
8.7373788e-08
8.7374727e-08
8.737563e-08
8.7376509e-08
8.7377343e-08
8.737816e-08
8.7378954e-08
8.7379761e-08
8.7380603e-08
8.738153e-08
8.7382518e-08
8.7383542e-08
8.7384556e-08
8.7385512e-08
8.7386254e-08
8.7386636e-08
8.738659e-08
8.7386294e-08
8.7386027e-08
8.7385918e-08
8.7385901e-08
8.7385902e-08
8.7385853e-08
8.7385759e-08
8.73856e-08
8.7385345e-08
8.7384912e-08
8.7384295e-08
8.7383624e-08
8.7383129e-08
8.7382865e-08
8.7382643e-08
8.7382134e-08
8.7380826e-08
8.7377534e-08
8.737088e-08
8.7363622e-08
8.7373488e-08
8.7446452e-08
8.7656503e-08
8.8057331e-08
8.8539407e-08
8.8559228e-08
8.6772835e-08
8.0773695e-08
6.6960314e-08
4.3425191e-08
1.7502972e-08
3.3028872e-09
4.0729864e-10
3.2260909e-10
8.7843873e-08
8.7844045e-08
8.784495e-08
8.7845872e-08
8.784679e-08
8.784772e-08
8.7848639e-08
8.7849582e-08
8.7850507e-08
8.7851432e-08
8.7852318e-08
8.7853177e-08
8.7853991e-08
8.7854789e-08
8.7855568e-08
8.7856362e-08
8.7857195e-08
8.7858115e-08
8.7859095e-08
8.786011e-08
8.7861116e-08
8.7862064e-08
8.7862791e-08
8.7863142e-08
8.7863052e-08
8.7862717e-08
8.7862441e-08
8.7862337e-08
8.7862327e-08
8.7862331e-08
8.7862284e-08
8.7862192e-08
8.7862037e-08
8.78618e-08
8.7861403e-08
8.7860824e-08
8.7860165e-08
8.7859651e-08
8.7859374e-08
8.7859176e-08
8.7858752e-08
8.7857733e-08
8.7855194e-08
8.784953e-08
8.7841269e-08
8.7842469e-08
8.7890969e-08
8.8057885e-08
8.8417211e-08
8.8927658e-08
8.9177876e-08
8.7990543e-08
8.3002818e-08
7.0710805e-08
4.7935215e-08
2.0503268e-08
4.0303827e-09
4.4409135e-10
2.9100948e-10
8.8373478e-08
8.8373896e-08
8.8374826e-08
8.8375753e-08
8.8376667e-08
8.8377593e-08
8.8378508e-08
8.8379438e-08
8.8380351e-08
8.8381259e-08
8.8382128e-08
8.8382965e-08
8.8383757e-08
8.8384534e-08
8.8385295e-08
8.8386075e-08
8.8386896e-08
8.8387807e-08
8.8388776e-08
8.8389777e-08
8.8390773e-08
8.8391709e-08
8.8392413e-08
8.8392726e-08
8.8392582e-08
8.83922e-08
8.8391918e-08
8.8391821e-08
8.8391817e-08
8.8391826e-08
8.8391782e-08
8.8391692e-08
8.8391541e-08
8.8391321e-08
8.8390959e-08
8.8390422e-08
8.8389782e-08
8.8389256e-08
8.8388969e-08
8.8388799e-08
8.8388445e-08
8.8387639e-08
8.8385752e-08
8.838125e-08
8.8373117e-08
8.8368291e-08
8.8395789e-08
8.8519927e-08
8.8826835e-08
8.9333726e-08
8.9758112e-08
8.9114406e-08
8.5218364e-08
7.4485454e-08
5.2824067e-08
2.4091862e-08
4.990603e-09
5.0015015e-10
2.6423761e-10
8.8964164e-08
8.8964718e-08
8.8965655e-08
8.8966579e-08
8.8967483e-08
8.8968396e-08
8.8969296e-08
8.897021e-08
8.8971104e-08
8.8971991e-08
8.8972833e-08
8.8973642e-08
8.8974402e-08
8.8975151e-08
8.8975888e-08
8.8976647e-08
8.8977452e-08
8.8978347e-08
8.8979296e-08
8.8980278e-08
8.8981258e-08
8.8982178e-08
8.8982848e-08
8.8983113e-08
8.8982903e-08
8.8982461e-08
8.898218e-08
8.8982094e-08
8.8982097e-08
8.8982111e-08
8.8982071e-08
8.8981985e-08
8.898184e-08
8.8981636e-08
8.8981307e-08
8.8980817e-08
8.8980205e-08
8.8979675e-08
8.8979382e-08
8.8979252e-08
8.8978973e-08
8.8978313e-08
8.8976937e-08
8.8973608e-08
8.8966487e-08
8.895824e-08
8.896904e-08
8.9053129e-08
8.9300238e-08
8.9774179e-08
9.0315545e-08
9.0142133e-08
8.7286133e-08
7.8232449e-08
5.8055315e-08
2.8361201e-08
6.2556146e-09
5.8460468e-10
2.421712e-10
8.962517e-08
8.962583e-08
8.9626773e-08
8.9627685e-08
8.9628573e-08
8.9629469e-08
8.963035e-08
8.9631239e-08
8.9632107e-08
8.9632961e-08
8.9633768e-08
8.9634534e-08
8.9635252e-08
8.9635961e-08
8.9636665e-08
8.9637396e-08
8.9638177e-08
8.9639048e-08
8.9639967e-08
8.9640921e-08
8.9641881e-08
8.9642775e-08
8.9643402e-08
8.9643605e-08
8.9643322e-08
8.9642795e-08
8.9642525e-08
8.9642453e-08
8.9642464e-08
8.9642482e-08
8.9642449e-08
8.9642369e-08
8.9642233e-08
8.9642046e-08
8.9641752e-08
8.9641308e-08
8.9640734e-08
8.9640208e-08
8.9639917e-08
8.9639842e-08
8.9639666e-08
8.9639111e-08
8.963807e-08
8.9635792e-08
8.9630258e-08
8.9620956e-08
8.9619903e-08
8.9669037e-08
8.9853373e-08
9.0268449e-08
9.0865662e-08
9.1078524e-08
8.9199577e-08
8.184607e-08
6.3563523e-08
3.3400473e-08
7.9398778e-09
7.0565314e-10
2.2503053e-10
9.0367921e-08
9.0368631e-08
9.0369561e-08
9.0370452e-08
9.0371316e-08
9.037218e-08
9.0373028e-08
9.0373876e-08
9.03747e-08
9.0375503e-08
9.0376253e-08
9.0376958e-08
9.0377614e-08
9.0378268e-08
9.0378926e-08
9.0379618e-08
9.0380364e-08
9.0381197e-08
9.0382073e-08
9.0382989e-08
9.038392e-08
9.0384778e-08
9.0385343e-08
9.0385476e-08
9.0385072e-08
9.0384486e-08
9.038421e-08
9.0384164e-08
9.038418e-08
9.0384201e-08
9.0384176e-08
9.0384105e-08
9.038398e-08
9.0383813e-08
9.0383555e-08
9.038316e-08
9.0382628e-08
9.0382113e-08
9.0381828e-08
9.0381821e-08
9.0381806e-08
9.0381357e-08
9.0380503e-08
9.0378997e-08
9.0375259e-08
9.0366809e-08
9.0358841e-08
9.0380122e-08
9.0503858e-08
9.0841038e-08
9.143335e-08
9.192956e-08
9.0933219e-08
8.5113625e-08
6.9254462e-08
3.9277779e-08
1.0194962e-08
8.7510511e-10
2.1372872e-10
9.1206118e-08
9.1206854e-08
9.1207755e-08
9.1208607e-08
9.1209432e-08
9.1210244e-08
9.121104e-08
9.1211826e-08
9.1212586e-08
9.1213312e-08
9.1213984e-08
9.1214602e-08
9.1215179e-08
9.1215756e-08
9.1216355e-08
9.1216993e-08
9.1217695e-08
9.1218473e-08
9.121929e-08
9.1220154e-08
9.122105e-08
9.1221854e-08
9.1222343e-08
9.1222407e-08
9.1221801e-08
9.122118e-08
9.1220907e-08
9.1220888e-08
9.1220908e-08
9.1220928e-08
9.1220913e-08
9.1220851e-08
9.1220746e-08
9.1220603e-08
9.122039e-08
9.1220046e-08
9.1219562e-08
9.121906e-08
9.1218779e-08
9.1218838e-08
9.1219077e-08
9.1218784e-08
9.1218027e-08
9.1216973e-08
9.1214791e-08
9.1208473e-08
9.1198103e-08
9.1199935e-08
9.1270274e-08
9.1519608e-08
9.2053411e-08
9.271269e-08
9.2455752e-08
8.8353579e-08
7.4987669e-08
4.6020688e-08
1.3230251e-08
1.1097266e-09
2.1091759e-10
9.2155796e-08
9.2156582e-08
9.2157456e-08
9.2158258e-08
9.2159027e-08
9.2159773e-08
9.2160503e-08
9.2161215e-08
9.2161894e-08
9.2162523e-08
9.2163094e-08
9.2163607e-08
9.2164085e-08
9.2164574e-08
9.2165105e-08
9.2165685e-08
9.216633e-08
9.2167035e-08
9.2167776e-08
9.2168583e-08
9.2169435e-08
9.2170172e-08
9.2170575e-08
9.2170511e-08
9.2169693e-08
9.2169044e-08
9.2168797e-08
9.2168787e-08
9.2168809e-08
9.2168826e-08
9.2168832e-08
9.2168778e-08
9.2168697e-08
9.2168592e-08
9.2168437e-08
9.2168155e-08
9.216772e-08
9.2167231e-08
9.21669e-08
9.2167018e-08
9.216765e-08
9.2167614e-08
9.2166932e-08
9.2166003e-08
9.2164845e-08
9.2161146e-08
9.2151916e-08
9.2142998e-08
9.2171396e-08
9.2332939e-08
9.2768751e-08
9.3483784e-08
9.3789536e-08
9.1236315e-08
8.0632575e-08
5.3589779e-08
1.731896e-08
1.4677022e-09
2.1998801e-10
9.3233454e-08
9.3234392e-08
9.3235246e-08
9.3236e-08
9.3236718e-08
9.3237408e-08
9.3238082e-08
9.3238727e-08
9.3239327e-08
9.3239854e-08
9.3240321e-08
9.3240721e-08
9.3241098e-08
9.3241494e-08
9.3241965e-08
9.3242508e-08
9.3243119e-08
9.3243739e-08
9.3244402e-08
9.3245164e-08
9.3245984e-08
9.3246657e-08
9.3247017e-08
9.3246708e-08
9.3245658e-08
9.324505e-08
9.3244864e-08
9.3244842e-08
9.324487e-08
9.3244884e-08
9.3244909e-08
9.3244875e-08
9.3244821e-08
9.3244763e-08
9.3244689e-08
9.3244492e-08
9.32441e-08
9.3243588e-08
9.3243189e-08
9.3243393e-08
9.3244307e-08
9.3244861e-08
9.3244285e-08
9.3243184e-08
9.324233e-08
9.3240978e-08
9.3235044e-08
9.3223066e-08
9.3223681e-08
9.3307489e-08
9.3620548e-08
9.4290355e-08
9.4979114e-08
9.3785237e-08
8.5938201e-08
6.1866618e-08
2.2763683e-08
2.0448047e-09
2.3854339e-10
6.1990748e-10
6.4924366e-10
6.6723517e-10
6.7977998e-10
6.9010023e-10
6.9920988e-10
7.0707018e-10
7.1336173e-10
7.1779942e-10
7.2017058e-10
7.2029361e-10
7.1796791e-10
7.1296176e-10
7.0499354e-10
6.9373064e-10
6.7879165e-10
6.5976268e-10
6.3622154e-10
6.0777084e-10
5.7410698e-10
5.3501446e-10
4.9071622e-10
4.4192787e-10
3.8925475e-10
3.3363947e-10
2.7624359e-10
2.1892592e-10
1.6333774e-10
1.1138974e-10
6.6961879e-11
3.2149771e-11
8.9632563e-12
6.4856368e-13
5.1062542e-12
2.1090704e-11
5.1526709e-11
9.8427846e-11
1.5696921e-10
2.1471021e-10
2.7460478e-10
3.3828789e-10
4.0489077e-10
4.7452609e-10
5.4378858e-10
6.1105073e-10
6.7619761e-10
7.3887106e-10
7.980691e-10
8.5272996e-10
9.026018e-10
9.4807648e-10
9.8956529e-10
1.0275106e-09
1.0622485e-09
1.0936217e-09
1.1217765e-09
1.147348e-09
1.1707777e-09
1.1922625e-09
1.2119254e-09
1.2298996e-09
1.2464261e-09
1.2616658e-09
1.2756435e-09
1.2884052e-09
1.3000441e-09
1.3106624e-09
1.3203535e-09
1.3292058e-09
1.3372975e-09
1.3447076e-09
1.3514891e-09
1.3577288e-09
1.3634016e-09
4.6622058e-10
4.9286315e-10
5.1769974e-10
5.408744e-10
5.6112915e-10
5.7827914e-10
5.9247566e-10
6.0390243e-10
6.126867e-10
6.1892789e-10
6.2270309e-10
6.24058e-10
6.2296217e-10
6.1931878e-10
6.1293842e-10
6.0356824e-10
5.9088531e-10
5.7453165e-10
5.5413699e-10
5.2937034e-10
4.9995452e-10
4.6546233e-10
4.2525418e-10
3.7984599e-10
3.3098446e-10
2.8011224e-10
2.2878671e-10
1.7918154e-10
1.3291693e-10
9.1451344e-11
5.8403392e-11
3.275365e-11
1.4603244e-11
7.2483133e-12
1.2447442e-11
2.7302288e-11
5.3009157e-11
8.9196473e-11
1.300939e-10
1.7393191e-10
2.2056032e-10
2.6955434e-10
3.2125227e-10
3.7433376e-10
4.2726211e-10
4.7917187e-10
5.2986662e-10
5.789585e-10
6.2573757e-10
6.69689e-10
7.1063217e-10
7.4858222e-10
7.836839e-10
8.1610934e-10
8.4612249e-10
8.7349191e-10
8.9841775e-10
9.2117751e-10
9.420034e-10
9.6108367e-10
9.7856553e-10
9.9458852e-10
1.0093098e-09
1.0228438e-09
1.0352809e-09
1.0467051e-09
1.0571947e-09
1.0668256e-09
1.0756665e-09
1.0837831e-09
1.0912357e-09
1.0980783e-09
1.1043721e-09
1.1101381e-09
1.3571155e-09
1.1312228e-09
9.4997999e-10
8.0712492e-10
7.0042522e-10
6.249924e-10
5.738063e-10
5.4282844e-10
5.2802118e-10
5.2446671e-10
5.2769229e-10
5.3418913e-10
5.4145056e-10
5.4770814e-10
5.5177341e-10
5.5290354e-10
5.5064602e-10
5.4472481e-10
5.3494507e-10
5.2114455e-10
5.0317968e-10
4.8088302e-10
4.5395873e-10
4.2229508e-10
3.8634794e-10
3.469365e-10
3.0505963e-10
2.6223571e-10
2.1921915e-10
1.7760652e-10
1.3847782e-10
1.0479393e-10
7.6757061e-11
5.5196999e-11
3.9094306e-11
3.6465639e-11
4.0442688e-11
5.141732e-11
6.7765995e-11
8.8646991e-11
1.1342571e-10
1.4131274e-10
1.7179747e-10
2.0428413e-10
2.3805038e-10
2.724351e-10
3.0696566e-10
3.4125713e-10
3.7492651e-10
4.0762877e-10
4.3909398e-10
4.691341e-10
4.9763878e-10
5.2456545e-10
5.4975018e-10
5.7318649e-10
5.9493367e-10
6.1507965e-10
6.3371422e-10
6.5094339e-10
6.6684187e-10
6.8156442e-10
6.9520979e-10
7.0785116e-10
7.1955658e-10
7.3039016e-10
7.4041216e-10
7.4967977e-10
7.5824675e-10
7.6616355e-10
7.7347777e-10
7.8023262e-10
7.8647321e-10
7.9222977e-10
6.5296531e-09
4.6502302e-09
3.3513489e-09
2.4894368e-09
1.9306338e-09
1.5564663e-09
1.2939553e-09
1.0924581e-09
9.2513799e-10
7.9388292e-10
6.9644379e-10
6.2463109e-10
5.7480947e-10
5.4285956e-10
5.2442308e-10
5.1543977e-10
5.122248e-10
5.1188199e-10
5.1216272e-10
5.1118527e-10
5.0694409e-10
4.9832147e-10
4.8540513e-10
4.6829236e-10
4.4712062e-10
4.221925e-10
3.9397844e-10
3.6310749e-10
3.3081415e-10
2.979368e-10
2.6464853e-10
2.3208213e-10
2.0123223e-10
1.7303864e-10
1.4645578e-10
1.2531596e-10
1.0985738e-10
1.00143e-10
9.5167778e-11
9.5149652e-11
9.8194411e-11
1.039917e-10
1.1182097e-10
1.2185432e-10
1.3373569e-10
1.4708895e-10
1.6156653e-10
1.7685276e-10
1.9266375e-10
2.0874721e-10
2.2488334e-10
2.4088565e-10
2.5660233e-10
2.719104e-10
2.8670909e-10
3.0092047e-10
3.1449043e-10
3.2738507e-10
3.3958808e-10
3.5109743e-10
3.6192142e-10
3.7207878e-10
3.8159252e-10
3.9048884e-10
3.9879618e-10
4.065439e-10
4.1376155e-10
4.2047855e-10
4.2672379e-10
4.3252545e-10
4.3791117e-10
4.4290587e-10
4.4753994e-10
4.5182081e-10
2.1864071e-08
1.6390786e-08
1.2025565e-08
8.7181378e-09
6.3134607e-09
4.6081203e-09
3.4416911e-09
2.6500972e-09
2.0827127e-09
1.6894422e-09
1.4074602e-09
1.1968545e-09
1.0310549e-09
8.9380869e-10
7.8061013e-10
6.9438264e-10
6.2838457e-10
5.7993812e-10
5.457893e-10
5.2415085e-10
5.1287438e-10
5.0768926e-10
5.0521582e-10
5.0120545e-10
4.9430415e-10
4.8433245e-10
4.714095e-10
4.5563851e-10
4.3744934e-10
4.1735362e-10
3.9575785e-10
3.7285422e-10
3.4982056e-10
3.2417176e-10
3.0216832e-10
2.7984797e-10
2.5877899e-10
2.3954077e-10
2.2320571e-10
2.099029e-10
1.9955734e-10
1.9142564e-10
1.8536636e-10
1.8173111e-10
1.7942365e-10
1.7825424e-10
1.7809377e-10
1.7881578e-10
1.8029733e-10
1.8241448e-10
1.8504887e-10
1.8809193e-10
1.9144571e-10
1.9502383e-10
1.9875063e-10
2.0256105e-10
2.0639966e-10
2.1022009e-10
2.1398472e-10
2.1766368e-10
2.2123392e-10
2.2467835e-10
2.2798428e-10
2.3114295e-10
2.3414919e-10
2.3700062e-10
2.3969699e-10
2.422399e-10
2.4463218e-10
2.4687779e-10
2.4898164e-10
2.5094854e-10
2.5278667e-10
2.54491e-10
4.3946272e-08
3.5837395e-08
2.8371038e-08
2.1929949e-08
1.6631853e-08
1.244155e-08
9.24636e-09
6.8917249e-09
5.1661024e-09
3.9250644e-09
3.0369336e-09
2.4082869e-09
1.9595994e-09
1.6224134e-09
1.3754511e-09
1.187534e-09
1.0392345e-09
9.1821629e-10
8.1320894e-10
7.289814e-10
6.6192988e-10
6.0929335e-10
5.7328534e-10
5.5008869e-10
5.3590861e-10
5.273918e-10
5.2182494e-10
5.1577778e-10
5.0839639e-10
4.9954007e-10
4.8935328e-10
4.779387e-10
4.6555209e-10
4.5262668e-10
4.3884203e-10
4.247268e-10
4.1050854e-10
3.964584e-10
3.81886e-10
3.6796163e-10
3.5586726e-10
3.4502757e-10
3.3548362e-10
3.2714501e-10
3.1988614e-10
3.1386294e-10
3.0873309e-10
3.0402733e-10
2.9990245e-10
2.9633919e-10
2.9328206e-10
2.9067262e-10
2.8845517e-10
2.8658225e-10
2.8500635e-10
2.8369599e-10
2.8260239e-10
2.8168852e-10
2.8092634e-10
2.8029267e-10
2.7976753e-10
2.7933405e-10
2.7897792e-10
2.7868663e-10
2.7844941e-10
2.7825695e-10
2.7810133e-10
2.7797574e-10
2.7787444e-10
2.7779259e-10
2.7772604e-10
2.7767147e-10
2.7762578e-10
2.7758654e-10
6.3642432e-08
5.5807764e-08