/*--------------------------------*- C++ -*----------------------------------*\
| =========                 |                                                 |
| \\      /  F ield         | OpenFOAM: The Open Source CFD Toolbox           |
|  \\    /   O peration     | Version:  v2006                                 |
|   \\  /    A nd           | Website:  www.openfoam.com                      |
|    \\/     M anipulation  |                                                 |
\*---------------------------------------------------------------------------*/
FoamFile
{
    version     2.0;
    format      ascii;
    class       volScalarField;
    location    "5000";
    object      Cp;
}
// * * * * * * * * * * * * * * * * * * * * * * * * * * * * * * * * * * * * * //

dimensions      [0 0 0 0 0 0 0];


internalField   nonuniform List<scalar> 
55713
(
0.0056243922
0.005624987
0.0056249101
0.0056253082
0.0056253051
0.005625386
0.0056253863
0.005625415
0.005625455
0.0056255221
0.0056255886
0.0056256831
0.005625786
0.0056258942
0.0056259932
0.0056260681
0.0056260909
0.0056260564
0.0056259715
0.0056259002
0.0056258371
0.0056257784
0.0056257314
0.0056257024
0.0056256827
0.0056256558
0.0056256074
0.0056255347
0.0056254471
0.0056253495
0.0056252508
0.0056251701
0.0056251157
0.0056250751
0.0056250271
0.0056249688
0.0056249015
0.0056248167
0.0056247084
0.0056245795
0.0056244324
0.0056242724
0.0056241081
0.0056239432
0.005623782
0.0056236298
0.0056234839
0.005623339
0.0056231914
0.0056230313
0.0056228615
0.0056226791
0.0056224908
0.0056222824
0.0056220677
0.0056218318
0.0056215775
0.0056213289
0.0056209294
0.0052528558
0.0052539788
0.0052539752
0.0052547104
0.0052547451
0.0052550972
0.0052551073
0.0052551819
0.0052551203
0.0052551168
0.0052551748
0.0052552654
0.0052553918
0.0052555743
0.0052558344
0.0052561326
0.0052564714
0.0052567624
0.0052569939
0.0052571783
0.0052573302
0.0052574513
0.005257504
0.0052575126
0.0052576044
0.0052577802
0.0052579996
0.0052581692
0.0052582619
0.0052582624
0.0052581953
0.0052581124
0.0052581095
0.0052581229
0.0052581661
0.0052582583
0.0052583951
0.005258554
0.0052587015
0.0052588266
0.005258904
0.0052589369
0.0052589076
0.0052588374
0.0052587244
0.0052586456
0.005258599
0.0052585632
0.0052585225
0.0052584732
0.0052584278
0.0052583789
0.0052583495
0.0052583332
0.0052583375
0.0052583522
0.0052583844
0.0052584312
0.0052584219
0.0049318977
0.0049332261
0.0049333452
0.0049341948
0.0049344491
0.0049349973
0.0049353325
0.0049357163
0.0049359795
0.0049361854
0.0049363183
0.0049363939
0.004936423
0.0049364382
0.004936467
0.0049365582
0.0049367533
0.0049370474
0.0049374518
0.0049378788
0.0049382943
0.0049386512
0.0049389264
0.0049391079
0.0049392222
0.0049393625
0.004939627
0.0049399577
0.0049402775
0.0049405324
0.0049407144
0.0049408174
0.0049408341
0.0049407857
0.0049407757
0.004940827
0.0049409538
0.0049411222
0.0049413741
0.0049416473
0.0049419741
0.0049422803
0.0049425597
0.0049427972
0.0049429918
0.0049431235
0.0049431873
0.0049431967
0.0049431814
0.00494315
0.0049431583
0.0049431298
0.0049431841
0.0049431364
0.0049433117
0.0049433246
0.0049436663
0.0049436868
0.0049441278
0.0046511479
0.0046525475
0.0046527742
0.0046536683
0.0046540823
0.0046547703
0.0046553097
0.004655936
0.0046564954
0.0046570193
0.0046574768
0.0046578705
0.0046581983
0.0046584568
0.0046586305
0.0046587237
0.0046587724
0.004658807
0.0046588803
0.0046589981
0.0046591472
0.0046593077
0.0046594575
0.0046595986
0.0046597262
0.0046598273
0.0046599545
0.0046601601
0.004660455
0.0046608224
0.0046611839
0.0046614921
0.0046617263
0.0046618889
0.0046619561
0.0046619534
0.0046619306
0.0046619328
0.0046619924
0.0046620893
0.0046622704
0.0046625032
0.0046627835
0.0046631
0.0046634598
0.0046638179
0.0046641553
0.0046644752
0.0046647993
0.0046651119
0.0046654526
0.0046657046
0.0046660703
0.0046662334
0.0046666508
0.0046667186
0.0046672456
0.0046672502
0.0046679345
0.004409802
0.0044111749
0.0044114731
0.0044123431
0.0044128005
0.0044134954
0.0044139734
0.0044145347
0.0044150319
0.004415576
0.0044161311
0.0044166994
0.0044172268
0.0044177042
0.0044181112
0.0044184381
0.004418696
0.0044188637
0.0044189692
0.0044190358
0.0044190958
0.0044191676
0.0044192452
0.0044193244
0.004419401
0.0044194726
0.0044195422
0.0044196239
0.0044197455
0.0044199316
0.0044201827
0.0044205016
0.0044208563
0.0044211767
0.0044214414
0.0044216522
0.0044218127
0.0044219191
0.0044219819
0.0044220141
0.0044220408
0.0044220853
0.0044221716
0.0044223011
0.0044224861
0.0044227124
0.0044230036
0.0044233033
0.004423664
0.0044239542
0.0044243426
0.0044245934
0.0044250315
0.0044252382
0.0044257472
0.0044258864
0.0044264705
0.0044265388
0.0044273024
0.0042048494
0.0042061256
0.0042064588
0.0042072547
0.0042076537
0.0042082018
0.004208543
0.0042088922
0.0042091597
0.0042094284
0.0042096887
0.0042099621
0.0042102673
0.0042106102
0.0042110059
0.0042114504
0.0042118659
0.0042122256
0.0042125277
0.0042127904
0.00421303
0.0042132586
0.0042134751
0.0042136686
0.004213827
0.0042139509
0.0042140485
0.0042141202
0.0042141876
0.0042142561
0.0042143547
0.0042144906
0.0042146898
0.0042149514
0.0042152708
0.0042156046
0.0042159086
0.0042161754
0.0042164073
0.0042166102
0.0042167873
0.0042169573
0.0042171291
0.0042172676
0.0042174442
0.0042175776
0.0042177893
0.0042179249
0.004218163
0.0042182922
0.0042185867
0.0042187214
0.0042190845
0.0042192125
0.0042196657
0.0042197812
0.0042203611
0.0042204395
0.0042212043
0.0040198556
0.0040209824
0.0040213416
0.0040220518
0.0040224858
0.0040229614
0.0040233213
0.0040236739
0.0040239668
0.0040242251
0.0040244354
0.0040246147
0.0040247781
0.004024943
0.0040251295
0.0040253603
0.0040256453
0.0040259896
0.0040263556
0.0040267158
0.0040270586
0.0040273854
0.0040276972
0.0040279883
0.0040282507
0.0040284774
0.0040286722
0.0040288358
0.0040289665
0.0040290767
0.0040291629
0.0040292426
0.0040293251
0.0040294328
0.0040295778
0.0040297616
0.004029978
0.0040302067
0.0040304567
0.0040306935
0.004030955
0.0040311651
0.0040314131
0.0040315912
0.0040318363
0.0040320025
0.0040322551
0.004032403
0.0040326705
0.0040328179
0.0040331291
0.0040332794
0.0040336386
0.0040337912
0.0040342118
0.0040343593
0.0040348966
0.0040349935
0.0040357069
0.0038552653
0.0038560344
0.0038563018
0.0038567857
0.0038570279
0.0038574067
0.0038576502
0.0038579644
0.0038582305
0.0038585001
0.0038587397
0.0038589473
0.0038591192
0.0038592607
0.0038593675
0.0038594456
0.0038595185
0.0038596014
0.0038597007
0.0038598098
0.0038599268
0.0038600593
0.0038602171
0.0038604065
0.0038606254
0.0038608551
0.0038610653
0.0038612507
0.0038614145
0.003861556
0.0038616771
0.0038617702
0.0038618399
0.0038618922
0.003861946
0.0038620029
0.0038620938
0.0038621794
0.003862299
0.0038623939
0.0038625235
0.0038626168
0.0038627585
0.0038628476
0.0038630065
0.0038630815
0.0038632566
0.0038633161
0.0038635108
0.0038635595
0.0038637775
0.0038638095
0.0038640598
0.003864066
0.0038643564
0.003864353
0.0038646824
0.0038646666
0.0038650435
0.0037702418
0.003770715
0.0037708346
0.003771143
0.0037714276
0.0037715753
0.0037717986
0.0037719482
0.0037721588
0.0037723384
0.0037725325
0.0037727206
0.0037728892
0.0037730384
0.003773157
0.0037732461
0.0037733086
0.0037733531
0.0037733898
0.0037734197
0.0037734398
0.0037734486
0.0037734517
0.0037734748
0.0037735185
0.00377359
0.0037736806
0.003773792
0.0037738998
0.0037740098
0.0037741114
0.003774192
0.0037742477
0.0037742885
0.0037743092
0.0037743428
0.0037743646
0.0037743991
0.0037744293
0.0037744527
0.003774496
0.0037745106
0.0037745635
0.0037745784
0.0037746325
0.003774659
0.0037746974
0.0037747461
0.0037747779
0.0037748313
0.0037748673
0.0037749152
0.0037749409
0.0037749758
0.0037750239
0.0037750184
0.0037750084
0.0037749894
0.0037749715
0.003696364
0.0036974164
0.0036982804
0.0036983407
0.0036990653
0.003699184
0.0036997238
0.003699884
0.0037002884
0.003700418
0.0037007649
0.0037009104
0.0037012282
0.0037013872
0.0037016761
0.0037018522
0.0037021073
0.003702298
0.0037025571
0.003702773
0.0037030132
0.0037032183
0.0037034297
0.0037036136
0.0037037946
0.0037039718
0.0037041632
0.0037043695
0.0037045951
0.0037048363
0.0037050858
0.0037053413
0.0037055971
0.0037058447
0.0037060886
0.0037063344
0.0037065811
0.0037068326
0.0037070875
0.0037073452
0.003707608
0.0037078736
0.003708146
0.003708426
0.00370871
0.0037090068
0.0037093094
0.0037096207
0.0037099481
0.0037102824
0.0037106394
0.0037110067
0.0037114025
0.0037118346
0.003712251
0.003712755
0.0037132712
0.0037139645
0.0037146754
0.0033571681
0.0033571475
0.0033582194
0.0033587786
0.003359493
0.0033601474
0.0033607463
0.0033612887
0.0033618036
0.0033622689
0.0033627124
0.0033631081
0.0033634821
0.0033638237
0.0033641442
0.0033644396
0.0033647144
0.0033649762
0.0033652012
0.0033654508
0.0033656551
0.003365864
0.0033660126
0.0033661567
0.0033662512
0.003366344
0.0033663821
0.0033664086
0.0033664147
0.0033664398
0.0033664671
0.0033665189
0.0033665617
0.0033666088
0.0033666389
0.0033666563
0.0033666584
0.0033666474
0.0033666317
0.0033666005
0.0033665589
0.0033665098
0.0033664433
0.0033663647
0.0033662683
0.0033661705
0.003366051
0.0033659073
0.0033657469
0.0033655532
0.0033653433
0.0033651058
0.0033648473
0.0033645636
0.0033642289
0.0033639182
0.0033634453
0.0033631359
0.0033626519
0.0033456008
0.0033421847
0.0033409366
0.0033388028
0.0033373729
0.0033358415
0.0033344282
0.003333157
0.0033320175
0.0033308534
0.0033298327
0.0033288005
0.0033278979
0.0033269464
0.0033261294
0.0033252538
0.0033245216
0.0033237027
0.0033230108
0.0033222695
0.0033215892
0.0033209297
0.0033202905
0.003319707
0.0033191047
0.0033185475
0.0033179541
0.0033174236
0.0033168478
0.0033163317
0.0033157703
0.0033152639
0.0033147118
0.003314218
0.0033136692
0.0033131866
0.0033126306
0.0033121658
0.0033116098
0.0033111434
0.003310601
0.0033100913
0.0033095398
0.0033089864
0.0033083838
0.0033077964
0.0033071072
0.0033065389
0.0033057409
0.0033051393
0.0033042401
0.0033035347
0.0033025245
0.0033016428
0.0033004674
0.0032994429
0.0032980362
0.0032967849
0.0032947406
0.0050434639
0.0050422512
0.0050410856
0.0050401518
0.0050391894
0.005038335
0.0050374732
0.0050366551
0.0050359584
0.0050353303
0.0050347004
0.0050341152
0.0050335961
0.0050331207
0.0050326471
0.0050321968
0.0050318116
0.0050314712
0.0050311635
0.0050308936
0.0050306499
0.0050304427
0.0050302517
0.0050300781
0.0050299244
0.0050297917
0.0050296774
0.0050295798
0.005029499
0.0050294341
0.0050293844
0.0050293483
0.0050293293
0.0050293209
0.0050293352
0.0050293596
0.0050293978
0.0050294474
0.0050295055
0.0050295685
0.0050296362
0.0050297143
0.0050298036
0.0050299099
0.0050300421
0.0050301999
0.0050303747
0.0050305617
0.0050307761
0.0050310158
0.005031294
0.0050315905
0.0050319445
0.0050323074
0.0050327952
0.005033173
0.0050338011
0.0050341815
0.0050348756
0.0031979527
0.0032017502
0.0032016161
0.0032045664
0.0032045477
0.0032066314
0.0032070437
0.0032086642
0.0032089032
0.0032102987
0.0032105533
0.0032117444
0.0032119162
0.0032129493
0.0032131459
0.0032140406
0.0032141998
0.0032148924
0.0032150683
0.0032155596
0.0032157498
0.0032161083
0.0032162697
0.0032165688
0.0032167003
0.0032169479
0.0032170517
0.0032172524
0.0032173309
0.0032174882
0.0032175444
0.0032176597
0.0032176947
0.0032177632
0.0032177768
0.0032177964
0.003217786
0.0032177635
0.0032177252
0.0032176731
0.0032176139
0.0032175462
0.0032174705
0.0032173882
0.0032172946
0.0032171803
0.0032170387
0.0032168831
0.0032167097
0.0032165085
0.00321629
0.0032160285
0.003215753
0.0032154115
0.003215067
0.0032145745
0.0032141379
0.0032133888
0.0032128305
0.021314337
0.021320094
0.021327368
0.021333779
0.02134047
0.021346951
0.021353395
0.021359752
0.021366028
0.021372221
0.021378329
0.02138435
0.021390282
0.021396122
0.021401868
0.021407517
0.021413066
0.021418511
0.021423849
0.021429074
0.021434183
0.021439169
0.021444029
0.021448755
0.021453345
0.021457793
0.021462095
0.02146625
0.021470254
0.021474106
0.021477806
0.021481352
0.021484746
0.021487989
0.021491081
0.021494025
0.021496823
0.021499478
0.021501991
0.021504364
0.0215066
0.021508698
0.021510661
0.021512491
0.021514188
0.021515755
0.021517193
0.021518504
0.02151969
0.021520751
0.021521688
0.021522502
0.021523193
0.021523761
0.021524221
0.02152455
0.021524777
0.021524897
0.021524914
0.019538842
0.019543863
0.019549944
0.019555457
0.019561063
0.019566527
0.019571915
0.019577215
0.019582427
0.019587551
0.019592586
0.019597532
0.019602388
0.019607153
0.019611826
0.019616405
0.019620891
0.019625281
0.019629575
0.019633771
0.019637869
0.019641867
0.019645765
0.019649561
0.019653255
0.019656846
0.019660332
0.019663712
0.019666987
0.019670156
0.019673217
0.019676169
0.019679014
0.019681749
0.019684375
0.019686891
0.019689297
0.019691592
0.019693777
0.019695852
0.019697816
0.01969967
0.019701414
0.019703048
0.019704572
0.019705988
0.019707294
0.019708493
0.019709584
0.019710568
0.019711446
0.019712218
0.019712881
0.019713442
0.019713902
0.019714232
0.019714475
0.019714627
0.019714667
0.017882514
0.017886781
0.0178918
0.017896406
0.017901028
0.017905541
0.017909971
0.01791432
0.017918587
0.017922773
0.017926879
0.017930906
0.017934852
0.017938719
0.017942507
0.017946214
0.017949841
0.017953387
0.017956853
0.017960236
0.017963539
0.017966758
0.017969895
0.017972948
0.017975918
0.017978803
0.017981603
0.017984319
0.017986949
0.017989493
0.01799195
0.017994321
0.017996606
0.017998803
0.018000913
0.018002936
0.018004872
0.01800672
0.018008481
0.018010155
0.018011741
0.018013241
0.018014653
0.018015979
0.018017219
0.018018372
0.01801944
0.018020422
0.018021318
0.018022129
0.018022856
0.018023496
0.018024048
0.018024524
0.018024901
0.018025184
0.018025387
0.018025514
0.018025547
0.016330875
0.016334554
0.016338685
0.016342552
0.016346367
0.016350101
0.016353749
0.016357321
0.016360816
0.016364237
0.016367585
0.016370862
0.016374069
0.016377205
0.016380273
0.016383271
0.016386202
0.016389064
0.016391859
0.016394586
0.016397245
0.016399837
0.016402361
0.016404817
0.016407206
0.016409526
0.016411779
0.016413963
0.016416079
0.016418126
0.016420105
0.016422016
0.016423857
0.01642563
0.016427334
0.016428968
0.016430534
0.016432031
0.016433459
0.016434818
0.016436108
0.01643733
0.016438482
0.016439566
0.016440581
0.016441528
0.016442406
0.016443215
0.016443956
0.016444629
0.016445233
0.016445766
0.01644623
0.01644663
0.016446931
0.016447172
0.016447344
0.016447454
0.016447483
0.014888077
0.01489125
0.014894616
0.014897841
0.014900971
0.014904035
0.014907017
0.014909929
0.014912771
0.014915546
0.014918256
0.014920902
0.014923487
0.014926012
0.014928477
0.014930884
0.014933233
0.014935525
0.014937762
0.014939942
0.014942067
0.014944137
0.014946152
0.014948112
0.014950018
0.01495187
0.014953667
0.014955411
0.0149571
0.014958736
0.014960318
0.014961845
0.014963319
0.014964739
0.014966105
0.014967418
0.014968676
0.014969881
0.014971032
0.01497213
0.014973174
0.014974164
0.0149751
0.014975982
0.014976811
0.014977586
0.014978307
0.014978974
0.014979587
0.014980145
0.014980648
0.014981094
0.01498149
0.014981817
0.014982075
0.01498228
0.014982427
0.014982522
0.014982546
0.013547048
0.013549816
0.013552556
0.013555241
0.013557812
0.013560325
0.013562762
0.013565134
0.013567443
0.013569691
0.013571881
0.013574015
0.013576096
0.013578123
0.0135801
0.013582028
0.013583906
0.013585737
0.013587522
0.01358926
0.013590953
0.0135926
0.013594204
0.013595763
0.013597278
0.013598751
0.01360018
0.013601566
0.01360291
0.013604211
0.01360547
0.013606686
0.01360786
0.013608993
0.013610083
0.013611131
0.013612138
0.013613102
0.013614025
0.013614906
0.013615745
0.013616542
0.013617297
0.013618011
0.013618682
0.013619311
0.013619897
0.01362044
0.013620941
0.013621398
0.013621809
0.01362218
0.013622505
0.013622765
0.013622982
0.013623151
0.013623273
0.013623353
0.013623374
0.012306613
0.012309028
0.012311267
0.012313493
0.012315606
0.012317664
0.012319655
0.012321585
0.012323458
0.012325277
0.012327045
0.012328763
0.012330435
0.012332061
0.012333644
0.012335185
0.012336685
0.012338144
0.012339565
0.012340948
0.012342294
0.012343604
0.012344877
0.012346115
0.012347319
0.012348487
0.012349622
0.012350723
0.012351791
0.012352825
0.012353826
0.012354795
0.012355731
0.012356634
0.012357505
0.012358344
0.01235915
0.012359924
0.012360666
0.012361375
0.012362053
0.012362698
0.012363311
0.012363891
0.012364439
0.012364953
0.012365435
0.012365883
0.012366297
0.012366677
0.012367023
0.012367336
0.012367597
0.012367819
0.012368002
0.012368148
0.012368253
0.012368323
0.01236834
0.011162225
0.011164266
0.011166105
0.01116794
0.011169673
0.011171353
0.011172971
0.011174535
0.011176047
0.011177512
0.011178931
0.011180306
0.011181641
0.011182937
0.011184195
0.011185418
0.011186606
0.011187761
0.011188883
0.011189975
0.011191036
0.011192067
0.01119307
0.011194044
0.01119499
0.011195909
0.011196801
0.011197666
0.011198506
0.01119932
0.011200108
0.011200871
0.011201608
0.011202321
0.011203009
0.011203672
0.011204311
0.011204925
0.011205514
0.011206079
0.01120662
0.011207135
0.011207626
0.011208092
0.011208533
0.011208948
0.011209338
0.011209702
0.011210039
0.01121035
0.011210636
0.011210884
0.011211098
0.011211282
0.011211435
0.011211557
0.011211643
0.011211704
0.011211718
0.010110188
0.010111894
0.010113405
0.010114915
0.010116336
0.010117706
0.010119021
0.010120287
0.010121508
0.010122685
0.010123823
0.010124922
0.010125987
0.010127017
0.010128016
0.010128985
0.010129925
0.010130836
0.010131722
0.010132581
0.010133416
0.010134227
0.010135015
0.01013578
0.010136523
0.010137245
0.010137946
0.010138626
0.010139286
0.010139926
0.010140546
0.010141147
0.010141729
0.010142291
0.010142835
0.01014336
0.010143867
0.010144355
0.010144824
0.010145274
0.010145707
0.01014612
0.010146514
0.01014689
0.010147246
0.010147583
0.010147901
0.010148197
0.010148475
0.010148734
0.010148961
0.010149161
0.01014934
0.010149495
0.010149623
0.010149728
0.010149799
0.010149854
0.010149865
0.0091461598
0.0091475887
0.0091488294
0.0091500645
0.0091512267
0.0091523397
0.0091534051
0.0091544265
0.0091554074
0.0091563508
0.0091572593
0.0091581351
0.0091589804
0.009159797
0.0091605865
0.0091613504
0.0091620901
0.0091628068
0.0091635015
0.0091641751
0.0091648286
0.0091654626
0.009166078
0.0091666753
0.0091672551
0.0091678181
0.0091683648
0.0091688955
0.0091694106
0.0091699104
0.0091703953
0.0091708655
0.0091713213
0.0091717627
0.00917219
0.0091726034
0.0091730028
0.0091733884
0.0091737601
0.009174118
0.0091744619
0.0091747919
0.0091751077
0.0091754093
0.0091756964
0.0091759688
0.0091762266
0.0091764701
0.0091766981
0.0091768995
0.0091770834
0.0091772496
0.0091773979
0.0091775271
0.0091776346
0.0091777236
0.0091777813
0.0091778316
0.0091778388
0.0082666557
0.0082678546
0.0082688805
0.0082698888
0.0082708379
0.0082717405
0.0082726009
0.0082734219
0.0082742072
0.0082749593
0.0082756808
0.008276374
0.0082770408
0.0082776829
0.0082783019
0.0082788993
0.0082794764
0.0082800342
0.0082805739
0.0082810962
0.008281602
0.008282092
0.0082825671
0.008283028
0.0082834753
0.0082839096
0.0082843312
0.0082847406
0.008285138
0.0082855236
0.0082858978
0.0082862607
0.0082866128
0.0082869542
0.0082872851
0.0082876056
0.0082879157
0.0082882154
0.0082885048
0.0082887837
0.0082890523
0.0082893104
0.0082895579
0.0082897949
0.0082900214
0.0082902381
0.0082904442
0.0082906344
0.0082908082
0.0082909701
0.0082911188
0.0082912541
0.0082913751
0.0082914813
0.0082915689
0.0082916445
0.008291689
0.0082917341
0.0082917326
0.0074645558
0.0074655567
0.0074664176
0.0074672461
0.0074680278
0.0074687678
0.0074694708
0.0074701391
0.0074707763
0.0074713845
0.0074719661
0.0074725232
0.0074730573
0.0074735702
0.0074740633
0.0074745379
0.0074749952
0.0074754363
0.0074758621
0.0074762735
0.0074766714
0.0074770566
0.0074774302
0.007477793
0.0074781454
0.0074784876
0.0074788197
0.0074791418
0.0074794543
0.0074797576
0.0074800524
0.0074803392
0.0074806183
0.0074808901
0.0074811543
0.0074814108
0.0074816595
0.0074819004
0.0074821336
0.0074823592
0.0074825774
0.0074827887
0.0074829933
0.0074831916
0.007483383
0.0074835644
0.00748373
0.0074838871
0.0074840343
0.0074841716
0.0074842986
0.0074844152
0.0074845202
0.0074846149
0.007484692
0.0074847651
0.0074848021
0.0074848504
0.0074848491
0.0067381595
0.0067389749
0.0067397119
0.0067404029
0.0067410499
0.0067416584
0.0067422336
0.0067427763
0.0067432913
0.0067437799
0.0067442451
0.0067446882
0.006745111
0.006745515
0.0067459018
0.0067462727
0.0067466292
0.0067469722
0.0067473031
0.006747623
0.0067479331
0.0067482343
0.0067485277
0.0067488133
0.0067490907
0.0067493594
0.0067496191
0.0067498703
0.0067501144
0.0067503526
0.006750586
0.0067508155
0.0067510411
0.0067512624
0.0067514786
0.0067516889
0.0067518932
0.0067520923
0.0067522867
0.0067524769
0.0067526617
0.0067528391
0.0067530093
0.0067531726
0.006753325
0.0067534691
0.0067536064
0.006753737
0.0067538602
0.0067539745
0.0067540794
0.0067541769
0.0067542641
0.0067543468
0.0067544116
0.006754481
0.0067545089
0.0067545613
0.0067545638
0.0061025166
0.0061031553
0.0061037604
0.0061043475
0.0061048958
0.0061054098
0.0061058972
0.0061063542
0.006106788
0.0061071979
0.0061075874
0.0061079567
0.0061083089
0.0061086456
0.0061089688
0.0061092802
0.006109581
0.0061098719
0.006110154
0.0061104275
0.0061106927
0.0061109494
0.0061111961
0.0061114315
0.0061116542
0.006111864
0.0061120626
0.006112253
0.0061124388
0.0061126207
0.0061127967
0.0061129664
0.0061131286
0.0061132815
0.0061134257
0.006113563
0.0061136947
0.0061138206
0.0061139407
0.0061140565
0.0061141676
0.0061142788
0.0061143883
0.0061144922
0.0061145885
0.0061146765
0.0061147558
0.0061148272
0.0061148907
0.0061149441
0.0061149871
0.0061150293
0.006115064
0.006115105
0.0061151288
0.0061151758
0.006115196
0.0061152653
0.0061152812
0.023669896
0.026277109
0.029192072
0.032378351
0.03584926
0.039630916
0.04373876
0.048186751
0.052987432
0.058150658
0.063681657
0.069580543
0.075839107
0.082440644
0.089355689
0.096540777
0.10393616
0.11146238
0.11901853
0.12647998
0.13369761
0.14049723
0.14669898
0.15206232
0.15636109
0.15940788
0.16086762
0.16067639
0.15865158
0.15450256
0.14827352
0.13996849
0.12952623
0.11708079
0.10284391
0.086963015
0.069704879
0.051293197
0.031893187
0.01182036
-0.0086179874
-0.029238322
-0.049866006
-0.070285739
-0.090307063
-0.10982157
-0.12883699
-0.1473085
-0.16505013
-0.18200323
-0.19817104
-0.21355316
-0.22813678
-0.24195455
-0.25495371
-0.26711997
-0.27857543
-0.28936311
-0.29947072
-0.30893281
-0.31777029
-0.32603672
-0.33377586
-0.34097926
-0.34767278
-0.35389753
-0.35968399
-0.36505932
-0.37004976
-0.3746819
-0.37897893
-0.38296653
-0.38665844
-0.39009384
0.023669872
0.026277092
0.029192041
0.032378314
0.035849224
0.039630882
0.043738729
0.048186725
0.052987413
0.058150646
0.063681656
0.069580572
0.075839163
0.08244073
0.08935582
0.096540955
0.10393641
0.1114627
0.11901894
0.1264805
0.13369813
0.1404979
0.14669969
0.1520631
0.15636194
0.15940875
0.16086841
0.1606772
0.15865256
0.15450394
0.14827497
0.13996681
0.12952546
0.11708188
0.10284444
0.086961849
0.069698094
0.051283881
0.031888721
0.011820821
-0.0086178803
-0.029238464
-0.049868764
-0.070291925
-0.090316677
-0.1098281
-0.12883662
-0.1473073
-0.16505132
-0.18200705
-0.19817629
-0.21355876
-0.22814329
-0.24196127
-0.25495806
-0.26712222
-0.27857822
-0.28936878
-0.29947814
-0.30894084
-0.31777791
-0.3260477
-0.33379182
-0.34099538
-0.34768727
-0.35391078
-0.3596964
-0.36507101
-0.37006059
-0.37469182
-0.37898817
-0.38297523
-0.38666597
-0.39010096
0.023669673
0.026276914
0.029191824
0.03237807
0.035848959
0.039630597
0.043738423
0.048186398
0.052987066
0.058150282
0.063681281
0.069580182
0.075838763
0.082440327
0.089355422
0.096540578
0.10393607
0.11146242
0.11901874
0.12648043
0.13369832
0.14049838
0.14670065
0.15206425
0.15636343
0.1594108
0.16087087
0.16068036
0.15865653
0.15450841
0.14827967
0.13997093
0.1295315
0.11708934
0.10285121
0.086969627
0.069705293
0.051289097
0.031895441
0.011828177
-0.0086124802
-0.029234198
-0.049862057
-0.070283139
-0.090311807
-0.10983493
-0.12884911
-0.14731227
-0.16505117
-0.18200227
-0.19817146
-0.21355368
-0.22813699
-0.24196516
-0.25496892
-0.26712678
-0.27857854
-0.28936266
-0.29947139
-0.30893451
-0.31776175
-0.32602087
-0.33377017
-0.34097959
-0.34767439
-0.35389965
-0.35968648
-0.36506283
-0.37005382
-0.37468615
-0.37898326
-0.3829704
-0.38666387
-0.39010111
0.023669252
0.026276615
0.029191442
0.032377645
0.035848503
0.039630106
0.043737895
0.048185831
0.052986451
0.058149618
0.063680572
0.069579432
0.07583798
0.082439523
0.089354613
0.09653979
0.10393533
0.11146178
0.11901826
0.12648022
0.13369854
0.14049925
0.14670183
0.15206601
0.15636608
0.15941459
0.16087551
0.16068641
0.15866418
0.15451735
0.14829011
0.13998138
0.12954404
0.11710412
0.10286647
0.086986262
0.069720147
0.051300987
0.031909551
0.0118453
-0.0085953765
-0.029216975
-0.049842697
-0.070263394
-0.090296839
-0.10982915
-0.12884554
-0.14729787
-0.16503423
-0.18198833
-0.19815979
-0.21354271
-0.22812752
-0.24194202
-0.25493774
-0.2671129
-0.27858197
-0.28937054
-0.29948359
-0.30894816
-0.31778721
-0.32605571
-0.33379216
-0.34099027
-0.34768113
-0.35390328
-0.35968721
-0.36505915
-0.37004751
-0.3746779
-0.37897346
-0.38295785
-0.38664971
-0.39007328
0.023668657
0.026276177
0.029190888
0.032377021
0.035847817
0.03962935
0.043737063
0.048184918
0.052985459
0.05814855
0.063679431
0.06957822
0.075836713
0.082438214
0.089353289
0.096538494
0.10393411
0.11146072
0.11901736
0.12647963
0.13369838
0.14050006
0.14670328
0.15206859
0.15637007
0.15942035
0.16088272
0.16069594
0.1586764
0.15453171
0.1483069
0.13999908
0.12956502
0.11712852
0.10289204
0.087013738
0.06974677
0.051325838
0.031937444
0.011876085
-0.0085654151
-0.02918784
-0.049812046
-0.070232009
-0.090269247
-0.1098103
-0.12882944
-0.14727644
-0.1650108
-0.18196545
-0.19813644
-0.21351872
-0.22810228
-0.2419095
-0.25491109
-0.26710718
-0.27857515
-0.28935698
-0.2994677
-0.30893018
-0.31777096
-0.32603452
-0.33375999
-0.34095555
-0.34764827
-0.35387247
-0.35965829
-0.365033
-0.37002344
-0.37465493
-0.37895142
-0.38293624
-0.38662965
-0.39005318
0.023667924
0.026275587
0.029190159
0.032376201
0.035846912
0.039628349
0.043735958
0.048183705
0.052984128
0.058147098
0.063677855
0.069576519
0.075834903
0.082436309
0.089351322
0.096536517
0.1039322
0.11145897
0.11901593
0.12647871
0.13369808
0.14050084
0.14670525
0.1520722
0.1563757
0.15942862
0.1608932
0.16070995
0.15869449
0.15455306
0.14833213
0.14002666
0.12959727
0.11716544
0.10293126
0.087055929
0.069788944
0.051366559
0.03198131
0.011923159
-0.0085186014
-0.029141226
-0.049763421
-0.070182687
-0.090224413
-0.10977492
-0.12879783
-0.1472384
-0.16496888
-0.18192412
-0.19809629
-0.2134793
-0.22806362
-0.24186552
-0.25486642
-0.26706941
-0.27854317
-0.28933028
-0.29944581
-0.30891349
-0.31776062
-0.32602561
-0.33374514
-0.3409393
-0.34763121
-0.35385343
-0.35963714
-0.36500989
-0.36999829
-0.37462823
-0.37892329
-0.38290646
-0.38659854
-0.39002092
0.02366706
0.026274831
0.029189245
0.03237517
0.035845769
0.039627078
0.043734548
0.048182143
0.052982405
0.058145206
0.063675791
0.069574283
0.075832508
0.082433778
0.089348693
0.096533861
0.10392961
0.11145658
0.11901391
0.1264773
0.13369762
0.14050159
0.14670782
0.152077
0.15638336
0.15944002
0.16090781
0.16072964
0.15872003
0.15458337
0.14836822
0.14006693
0.12964402
0.1172187
0.10298845
0.087117443
0.06985156
0.051428665
0.03204746
0.011993335
-0.0084482438
-0.029071108
-0.049691713
-0.070110871
-0.090157426
-0.10971728
-0.12874386
-0.14717891
-0.16490686
-0.18186381
-0.19803741
-0.2134207
-0.22800499
-0.24180208
-0.25480402
-0.26701972
-0.27850309
-0.28929205
-0.29940623
-0.30887152
-0.31771795
-0.32598121
-0.3336954
-0.34088426
-0.34757372
-0.35379534
-0.35957918
-0.36495262
-0.36994206
-0.37457295
-0.37886909
-0.38285367
-0.38654732
-0.38997245
0.023666051
0.026273901
0.029188136
0.032373915
0.03584437
0.039625517
0.043732806
0.048180206
0.052980255
0.058142832
0.063673184
0.069571439
0.075829442
0.082430511
0.089345274
0.096530375
0.10392617
0.11145338
0.11901115
0.12647534
0.13369679
0.1405025
0.14671114
0.1520833
0.15639356
0.15945535
0.16092762
0.16075652
0.15875511
0.15462518
0.14841835
0.1401237
0.12970979
0.11729343
0.10306928
0.087204496
0.069941398
0.051519323
0.032143145
0.012093797
-0.0083470894
-0.028969923
-0.049588859
-0.07000798
-0.090059489
-0.10962872
-0.12865966
-0.14709033
-0.16481587
-0.18177411
-0.1979491
-0.21333308
-0.22791821
-0.24171313
-0.25471725
-0.2669421
-0.27843131
-0.28922198
-0.29933811
-0.30880651
-0.31765732
-0.32592341
-0.33363679
-0.34082476
-0.347515
-0.35373746
-0.35952147
-0.36489469
-0.36988364
-0.37451386
-0.37880927
-0.38279311
-0.38648583
-0.38991037
0.0236649
0.026272791
0.029186822
0.032372422
0.035842698
0.039623641
0.043730704
0.048177856
0.052977633
0.058139921
0.063669968
0.069567909
0.075825611
0.082426402
0.089340941
0.096525924
0.10392175
0.11144921
0.11900754
0.12647271
0.13369565
0.14050353
0.14671536
0.15209146
0.15640691
0.1594756
0.16095398
0.16079253
0.15880237
0.15468176
0.14848654
0.14020184
0.12980022
0.11739609
0.10318103
0.087325069
0.070067063
0.0516477
0.032277999
0.012234667
-0.0082045598
-0.02882686
-0.049444131
-0.069863576
-0.089920426
-0.10949913
-0.1285349
-0.14696227
-0.16468603
-0.18164625
-0.19782365
-0.21320919
-0.22779585
-0.24159013
-0.25459677
-0.26683036
-0.27832759
-0.2891229
-0.29924188
-0.30871183
-0.31756324
-0.32582826
-0.33353856
-0.3407233
-0.34741126
-0.35363212
-0.35941506
-0.36478785
-0.36977693
-0.3744077
-0.37870402
-0.38268906
-0.38638327
-0.38980938
0.023663604
0.026271496
0.029185294
0.032370678
0.035840733
0.039621425
0.043728206
0.048175048
0.052974485
0.058136405
0.063666061
0.069563596
0.075820901
0.082421317
0.089335548
0.096520343
0.10391616
0.11144391
0.11900288
0.12646927
0.13369406
0.14050477
0.14672063
0.15210191
0.15642419
0.15950201
0.16098858
0.1608401
0.15886505
0.15475716
0.14857793
0.14030756
0.12992261
0.11753504
0.10333307
0.087489463
0.070239742
0.051825743
0.032464544
0.012428864
-0.0080074745
-0.028628593
-0.049244121
-0.069664124
-0.089726495
-0.10931457
-0.1283557
-0.14678121