/*--------------------------------*- C++ -*----------------------------------*\
| =========                 |                                                 |
| \\      /  F ield         | OpenFOAM: The Open Source CFD Toolbox           |
|  \\    /   O peration     | Version:  v2006                                 |
|   \\  /    A nd           | Website:  www.openfoam.com                      |
|    \\/     M anipulation  |                                                 |
\*---------------------------------------------------------------------------*/
FoamFile
{
    version     2.0;
    format      ascii;
    class       volScalarField;
    location    "5000";
    object      k;
}
// * * * * * * * * * * * * * * * * * * * * * * * * * * * * * * * * * * * * * //

dimensions      [0 2 -2 0 0 0 0];


internalField   nonuniform List<scalar> 
55713
(
1.571028e-09
4.0001627e-09
1.3286112e-08
2.075658e-08
2.4164951e-08
2.5101441e-08
2.5114322e-08
2.4963693e-08
2.4868997e-08
2.4836308e-08
2.4832101e-08
2.4834386e-08
2.4835962e-08
2.4836151e-08
2.4836194e-08
2.4836589e-08
2.4836981e-08
2.4837036e-08
2.4836745e-08
2.4836406e-08
2.483624e-08
2.4836249e-08
2.4836277e-08
2.483625e-08
2.4836151e-08
2.4836022e-08
2.4835871e-08
2.4835706e-08
2.4835501e-08
2.4835261e-08
2.4835003e-08
2.4834723e-08
2.4834441e-08
2.4834177e-08
2.4833992e-08
2.4833984e-08
2.4833708e-08
2.4833208e-08
2.4832571e-08
2.4831866e-08
2.4831173e-08
2.48305e-08
2.4829789e-08
2.4829028e-08
2.4828277e-08
2.4827563e-08
2.4826875e-08
2.4826187e-08
2.4825484e-08
2.4824749e-08
2.4823978e-08
2.4823162e-08
2.4822316e-08
2.4821454e-08
2.4820577e-08
2.4819696e-08
2.4818854e-08
2.4818076e-08
2.4817311e-08
1.7384432e-09
5.3389434e-09
1.5766879e-08
2.3003775e-08
2.585295e-08
2.6445905e-08
2.6351391e-08
2.6201873e-08
2.6128726e-08
2.6108893e-08
2.6108349e-08
2.6110116e-08
2.6110413e-08
2.610958e-08
2.6109042e-08
2.6109046e-08
2.6108897e-08
2.6108232e-08
2.6107337e-08
2.6106459e-08
2.6105781e-08
2.6105291e-08
2.6104819e-08
2.6104286e-08
2.6103695e-08
2.610309e-08
2.6102458e-08
2.6101824e-08
2.6101146e-08
2.6100439e-08
2.609971e-08
2.6098959e-08
2.60982e-08
2.6097458e-08
2.6096791e-08
2.6096347e-08
2.6095655e-08
2.6094655e-08
2.6093498e-08
2.6092258e-08
2.6091024e-08
2.6089825e-08
2.6088576e-08
2.6087241e-08
2.6085881e-08
2.6084551e-08
2.6083233e-08
2.6081899e-08
2.6080523e-08
2.607909e-08
2.6077583e-08
2.6075988e-08
2.6074301e-08
2.6072543e-08
2.6070703e-08
2.6068773e-08
2.6066777e-08
2.6064735e-08
2.6062614e-08
1.9911319e-09
6.9675282e-09
1.838999e-08
2.5249916e-08
2.7542094e-08
2.7857567e-08
2.7701135e-08
2.7567011e-08
2.7514478e-08
2.7504007e-08
2.7504957e-08
2.7505668e-08
2.7504519e-08
2.7502877e-08
2.7501914e-08
2.7501395e-08
2.7500545e-08
2.7499194e-08
2.7497699e-08
2.7496258e-08
2.7495059e-08
2.7494048e-08
2.7493048e-08
2.7492002e-08
2.7490905e-08
2.7489805e-08
2.7488678e-08
2.7487555e-08
2.7486388e-08
2.7485201e-08
2.7483991e-08
2.7482755e-08
2.7481512e-08
2.7480274e-08
2.7479112e-08
2.7478213e-08
2.7477131e-08
2.7475619e-08
2.7473927e-08
2.7472133e-08
2.7470344e-08
2.7468608e-08
2.7466825e-08
2.7464912e-08
2.7462937e-08
2.746098e-08
2.7459029e-08
2.7457042e-08
2.7454992e-08
2.7452858e-08
2.7450617e-08
2.7448242e-08
2.7445719e-08
2.7443063e-08
2.7440266e-08
2.7437295e-08
2.7434153e-08
2.7430857e-08
2.7427375e-08
2.3598986e-09
9.0326313e-09
2.1263296e-08
2.7547427e-08
2.9282147e-08
2.9375706e-08
2.9192347e-08
2.9082592e-08
2.9048398e-08
2.9044097e-08
2.9044955e-08
2.9044036e-08
2.9041661e-08
2.9039436e-08
2.9038045e-08
2.9036947e-08
2.9035364e-08
2.9033316e-08
2.903121e-08
2.9029206e-08
2.9027488e-08
2.9025951e-08
2.9024419e-08
2.9022846e-08
2.9021236e-08
2.9019635e-08
2.9018008e-08
2.9016396e-08
2.9014733e-08
2.9013067e-08
2.9011366e-08
2.9009645e-08
2.9007906e-08
2.9006172e-08
2.9004509e-08
2.9003147e-08
2.9001694e-08
2.8999681e-08
2.8997444e-08
2.8995081e-08
2.8992726e-08
2.8990454e-08
2.8988146e-08
2.8985664e-08
2.8983068e-08
2.8980478e-08
2.897789e-08
2.8975249e-08
2.8972521e-08
2.8969684e-08
2.8966708e-08
2.8963556e-08
2.8960194e-08
2.8956635e-08
2.8952874e-08
2.8948859e-08
2.8944562e-08
2.8940004e-08
2.8935145e-08
2.8850542e-09
1.1585953e-08
2.434221e-08
2.9881537e-08
3.109775e-08
3.1033124e-08
3.0852329e-08
3.0770397e-08
3.0750438e-08
3.0749334e-08
3.0748846e-08
3.0746231e-08
3.0742987e-08
3.0740275e-08
3.0738431e-08
3.0736681e-08
3.0734312e-08
3.0731581e-08
3.0728861e-08
3.072631e-08
3.0724076e-08
3.0722009e-08
3.0719936e-08
3.0717835e-08
3.071571e-08
3.0713606e-08
3.071148e-08
3.0709379e-08
3.0707224e-08
3.0705083e-08
3.0702894e-08
3.0700692e-08
3.0698463e-08
3.0696235e-08
3.0694066e-08
3.0692234e-08
3.0690438e-08
3.0687963e-08
3.0685175e-08
3.0682236e-08
3.0679306e-08
3.0676505e-08
3.0673697e-08
3.0670672e-08
3.0667464e-08
3.066425e-08
3.0661036e-08
3.0657757e-08
3.0654364e-08
3.0650839e-08
3.0647144e-08
3.064324e-08
3.0639063e-08
3.0634621e-08
3.0629916e-08
3.0624888e-08
3.0619458e-08
3.0613671e-08
3.0607456e-08
3.6282538e-09
1.4697021e-08
2.7600871e-08
3.227064e-08
3.3031972e-08
3.2869606e-08
3.2712017e-08
3.265659e-08
3.2646423e-08
3.2645839e-08
3.264335e-08
3.2639511e-08
3.26356e-08
3.2632436e-08
3.2630111e-08
3.2627642e-08
3.2624475e-08
3.2621076e-08
3.261775e-08
3.2614685e-08
3.2611941e-08
3.2609351e-08
3.2606736e-08
3.2604121e-08
3.2601485e-08
3.2598893e-08
3.2596274e-08
3.2593697e-08
3.2591061e-08
3.2588458e-08
3.2585799e-08
3.2583131e-08
3.258043e-08
3.2577725e-08
3.2575065e-08
3.2572762e-08
3.2570654e-08
3.2567795e-08
3.256446e-08
3.2560944e-08
3.2557438e-08
3.2554124e-08
3.2550854e-08
3.2547336e-08
3.2543547e-08
3.2539728e-08
3.2535918e-08
3.2532029e-08
3.2528007e-08
3.2523826e-08
3.2519448e-08
3.2514836e-08
3.2509893e-08
3.250461e-08
3.2499003e-08
3.2493019e-08
3.2486508e-08
3.2479551e-08
3.2472033e-08
4.6835948e-09
1.8426259e-08
3.0974541e-08
3.4754142e-08
3.5133999e-08
3.4928546e-08
3.480605e-08
3.4772366e-08
3.4767695e-08
3.476576e-08
3.4761459e-08
3.4756736e-08
3.4752271e-08
3.4748681e-08
3.4745857e-08
3.4742604e-08
3.4738668e-08
3.4734619e-08
3.4730732e-08
3.4727188e-08
3.4723962e-08
3.4720856e-08
3.4717727e-08
3.4714616e-08
3.4711501e-08
3.470844e-08
3.4705358e-08
3.4702327e-08
3.4699242e-08
3.4696203e-08
3.4693104e-08
3.4690002e-08
3.4686867e-08
3.4683715e-08
3.4680598e-08
3.4677837e-08
3.467545e-08
3.4672343e-08
3.4668488e-08
3.4664405e-08
3.4660336e-08
3.4656533e-08
3.4652861e-08
3.4648933e-08
3.4644624e-08
3.4640241e-08
3.4635889e-08
3.4631446e-08
3.4626858e-08
3.4622085e-08
3.461709e-08
3.4611844e-08
3.4606224e-08
3.4600184e-08
3.4593749e-08
3.4586915e-08
3.4579419e-08
3.4571403e-08
3.4562687e-08
6.2119721e-09
2.2820782e-08
3.4624984e-08
3.7392285e-08
3.7461446e-08
3.7259734e-08
3.7174848e-08
3.7156396e-08
3.7153577e-08
3.7149576e-08
3.7143864e-08
3.7138576e-08
3.7133614e-08
3.7129653e-08
3.7126308e-08
3.7122248e-08
3.71176e-08
3.711295e-08
3.7108568e-08
3.7104606e-08
3.7100932e-08
3.7097349e-08
3.7093749e-08
3.7090193e-08
3.7086644e-08
3.7083164e-08
3.7079665e-08
3.7076234e-08
3.7072746e-08
3.7069325e-08
3.7065833e-08
3.7062361e-08
3.7058844e-08
3.705531e-08
3.7051791e-08
3.7048615e-08
3.7045977e-08
3.7042819e-08
3.7038514e-08
3.7033898e-08
3.7029292e-08
3.7025047e-08
3.7021057e-08
3.7016848e-08
3.7012122e-08
3.7007252e-08
3.7002445e-08
3.6997541e-08
3.6992489e-08
3.6987234e-08
3.6981728e-08
3.697597e-08
3.6969811e-08
3.696316e-08
3.6956019e-08
3.6948505e-08
3.6940189e-08
3.6931294e-08
3.6921561e-08
8.5470279e-09
2.7899373e-08
3.8328861e-08
4.0183466e-08
4.0084899e-08
3.9919971e-08
3.9866959e-08
3.9857534e-08
3.985392e-08
3.9848045e-08
3.9841412e-08
3.9835835e-08
3.9830397e-08
3.9826167e-08
3.9822313e-08
3.9817485e-08
3.9812188e-08
3.9807036e-08
3.9802267e-08
3.979797e-08
3.9793908e-08
3.9789922e-08
3.9785932e-08
3.9782011e-08
3.9778106e-08
3.9774288e-08
3.9770452e-08
3.9766703e-08
3.9762897e-08
3.9759179e-08
3.9755379e-08
3.9751634e-08
3.9747823e-08
3.974401e-08
3.9740182e-08
3.9736678e-08
3.9733849e-08
3.9730839e-08
3.9726271e-08
3.9721187e-08
3.9716094e-08
3.9711487e-08
3.9707295e-08
3.9702995e-08
3.9698015e-08
3.9692789e-08
3.9687667e-08
3.9682445e-08
3.9677095e-08
3.9671531e-08
3.9665685e-08
3.9659604e-08
3.9653112e-08
3.964609e-08
3.9638441e-08
3.9630502e-08
3.9621635e-08
3.9612139e-08
3.9601681e-08
1.2456336e-08
3.3628675e-08
4.21894e-08
4.326207e-08
4.3089901e-08
4.2973056e-08
4.2943229e-08
4.2938137e-08
4.2932578e-08
4.2925448e-08
4.2918291e-08
4.2912687e-08
4.290679e-08
4.290251e-08
4.28982e-08
4.2892696e-08
4.2886864e-08
4.2881378e-08
4.2876383e-08
4.2871867e-08
4.2867525e-08
4.2863259e-08
4.2859007e-08
4.2854849e-08
4.2850716e-08
4.2846687e-08
4.2842644e-08
4.2838707e-08
4.2834718e-08
4.2830838e-08
4.2826867e-08
4.2822993e-08
4.2819032e-08
4.2815099e-08
4.2811114e-08
4.2807425e-08
4.2804498e-08
4.2801867e-08
4.2797393e-08
4.2791943e-08
4.2786451e-08
4.2781612e-08
4.2777392e-08
4.2773257e-08
4.2768286e-08
4.2762907e-08
4.2757698e-08
4.2752372e-08
4.2746977e-08
4.2741373e-08
4.2735454e-08
4.2729333e-08
4.2722816e-08
4.2715794e-08
4.2707954e-08
4.2699961e-08
4.2690973e-08
4.2681283e-08
4.267056e-08
1.8741396e-08
3.9895041e-08
4.6239162e-08
4.6732901e-08
4.6567959e-08
4.6498374e-08
4.6482601e-08
4.6478578e-08
4.6471098e-08
4.6463543e-08
4.6456299e-08
4.6450883e-08
4.6444618e-08
4.6440691e-08
4.6436027e-08
4.6429985e-08
4.6423848e-08
4.6418299e-08
4.6413314e-08
4.640875e-08
4.6404316e-08
4.6399965e-08
4.6395654e-08
4.6391454e-08
4.6387294e-08
4.638325e-08
4.6379207e-08
4.6375282e-08
4.6371321e-08
4.6367485e-08
4.6363564e-08
4.6359771e-08
4.6355881e-08
4.6352072e-08
4.6348164e-08
4.6344523e-08
4.6341656e-08
4.6339631e-08
4.6335862e-08
4.6330226e-08
4.6324474e-08
4.6319629e-08
4.6315654e-08
4.6311958e-08
4.6307443e-08
4.6302213e-08
4.6297278e-08
4.6292167e-08
4.6287101e-08
4.6281871e-08
4.6276278e-08
4.6270544e-08
4.6264446e-08
4.6257967e-08
4.6250473e-08
4.624293e-08
4.6234508e-08
4.6225201e-08
4.6214915e-08
2.7090312e-08
4.6565859e-08
5.0599174e-08
5.0740377e-08
5.062873e-08
5.0595039e-08
5.0586006e-08
5.0581811e-08
5.0573266e-08
5.0566249e-08
5.0559371e-08
5.0554447e-08
5.0548014e-08
5.0545098e-08
5.0540261e-08
5.0533894e-08
5.0527902e-08
5.0522718e-08
5.0518078e-08
5.0513749e-08
5.0509521e-08
5.0505398e-08
5.0501341e-08
5.0497406e-08
5.049353e-08
5.0489781e-08
5.0486048e-08
5.0482451e-08
5.0478834e-08
5.047536e-08
5.0471819e-08
5.0468431e-08
5.0464954e-08
5.0461607e-08
5.045814e-08
5.0454916e-08
5.0452389e-08
5.0451192e-08
5.0448953e-08
5.0443509e-08
5.0437735e-08
5.0433255e-08
5.0429913e-08
5.0427e-08
5.0423637e-08
5.0418955e-08
5.0414861e-08
5.0410423e-08
5.0406219e-08
5.0401958e-08
5.0397293e-08
5.0392547e-08
5.0387527e-08
5.0382289e-08
5.0376063e-08
5.0369605e-08
5.0362805e-08
5.0354668e-08
5.0345862e-08
3.8861202e-08
5.3560081e-08
5.5457631e-08
5.5445518e-08
5.5395992e-08
5.5383526e-08
5.5377299e-08
5.5372769e-08
5.5365093e-08
5.5359853e-08
5.5353968e-08
5.5349893e-08
5.534401e-08
5.5342919e-08
5.5338258e-08
5.5332135e-08
5.5327087e-08
5.5322883e-08
5.5319075e-08
5.5315456e-08
5.5311937e-08
5.5308538e-08
5.530523e-08
5.5302043e-08
5.5298938e-08
5.5295955e-08
5.5293022e-08
5.5290217e-08
5.5287434e-08
5.5284786e-08
5.5282127e-08
5.527962e-08
5.5277069e-08
5.5274663e-08
5.5272189e-08
5.5269916e-08
5.5268236e-08
5.5268055e-08
5.5268034e-08
5.526362e-08
5.5258401e-08
5.5254882e-08
5.5252685e-08
5.5251061e-08
5.524959e-08
5.5246077e-08
5.5243639e-08
5.5240546e-08
5.5237935e-08
5.523536e-08
5.523251e-08
5.5229527e-08
5.5226523e-08
5.5223366e-08
5.5219644e-08
5.5215172e-08
5.5211322e-08
5.520562e-08
5.5199729e-08
5.4320513e-08
6.064408e-08
6.1025115e-08
6.0994508e-08
6.0985316e-08
6.0980981e-08
6.0977802e-08
6.0974568e-08
6.0969478e-08
6.096716e-08
6.096332e-08
6.0960312e-08
6.0956962e-08
6.0957643e-08
6.0954181e-08
6.0949867e-08
6.0947024e-08
6.0944677e-08
6.0942487e-08
6.0940405e-08
6.0938414e-08
6.0936538e-08
6.0934748e-08
6.0933071e-08
6.0931478e-08
6.0929989e-08
6.0928578e-08
6.0927268e-08
6.092603e-08
6.0924891e-08
6.0923815e-08
6.0922856e-08
6.0921931e-08
6.0921126e-08
6.0920341e-08
6.0919692e-08
6.0919454e-08
6.0920289e-08
6.0922339e-08
6.0920464e-08
6.0917513e-08
6.091616e-08
6.0915656e-08
6.0915977e-08
6.0916356e-08
6.0915594e-08
6.0915645e-08
6.0915043e-08
6.0914935e-08
6.0914908e-08
6.0914864e-08
6.0914701e-08
6.0914729e-08
6.0914667e-08
6.0914573e-08
6.0913778e-08
6.0913887e-08
6.0912709e-08
6.091167e-08
1.5319682e-08
1.5319352e-08
1.5319071e-08
1.5319581e-08
1.5319926e-08
1.5320358e-08
1.5320782e-08
1.5321223e-08
1.5321667e-08
1.5322113e-08
1.5322553e-08
1.5322986e-08
1.5323407e-08
1.5323817e-08
1.5324214e-08
1.5324604e-08
1.5324991e-08
1.5325387e-08
1.5325789e-08
1.532619e-08
1.5326574e-08
1.5326925e-08
1.5327218e-08
1.532743e-08
1.532756e-08
1.5327631e-08
1.5327676e-08
1.5327714e-08
1.5327745e-08
1.5327757e-08
1.532774e-08
1.532769e-08
1.5327601e-08
1.5327459e-08
1.5327248e-08
1.5326981e-08
1.5326706e-08
1.5326462e-08
1.5326239e-08
1.5325987e-08
1.5325618e-08
1.5324953e-08
1.5323785e-08
1.5322491e-08
1.5323476e-08
1.5332845e-08
1.5359799e-08
1.5409368e-08
1.5464074e-08
1.5454554e-08
1.5228691e-08
1.4540901e-08
1.3093669e-08
1.0670702e-08
7.3777409e-09
3.8995731e-09
1.5882174e-09
1.3579741e-09
8.7263547e-09
1.5582473e-08
1.5582195e-08
1.5582222e-08
1.5582669e-08
1.5583062e-08
1.5583493e-08
1.5583929e-08
1.5584377e-08
1.5584827e-08
1.5585277e-08
1.558572e-08
1.5586155e-08
1.5586577e-08
1.5586988e-08
1.5587387e-08
1.5587779e-08
1.558817e-08
1.5588571e-08
1.5588978e-08
1.5589383e-08
1.5589769e-08
1.5590122e-08
1.5590414e-08
1.5590626e-08
1.5590753e-08
1.559082e-08
1.5590861e-08
1.5590898e-08
1.5590927e-08
1.5590937e-08
1.5590916e-08
1.5590862e-08
1.5590768e-08
1.5590622e-08
1.5590409e-08
1.5590144e-08
1.5589871e-08
1.5589627e-08
1.5589402e-08
1.5589136e-08
1.5588733e-08
1.5588036e-08
1.5586909e-08
1.5585773e-08
1.558689e-08
1.5595894e-08
1.5621437e-08
1.5668949e-08
1.5723981e-08
1.5723966e-08
1.5525879e-08
1.4889633e-08
1.3509766e-08
1.1137283e-08
7.8257761e-09
4.2254079e-09
1.6785811e-09
1.2289261e-09
7.4274271e-09
1.5875327e-08
1.5875103e-08
1.5875243e-08
1.5875678e-08
1.5876094e-08
1.5876533e-08
1.5876981e-08
1.5877439e-08
1.5877897e-08
1.5878355e-08
1.5878804e-08
1.5879244e-08
1.5879669e-08
1.5880083e-08
1.5880484e-08
1.5880879e-08
1.5881274e-08
1.5881679e-08
1.5882092e-08
1.5882501e-08
1.588289e-08
1.5883246e-08
1.5883542e-08
1.5883755e-08
1.5883881e-08
1.5883946e-08
1.5883985e-08
1.5884022e-08
1.5884051e-08
1.5884062e-08
1.5884042e-08
1.5883989e-08
1.5883898e-08
1.5883758e-08
1.5883553e-08
1.5883291e-08
1.5883014e-08
1.5882766e-08
1.5882541e-08
1.5882289e-08
1.5881928e-08
1.5881318e-08
1.5880264e-08
1.5878908e-08
1.5878913e-08
1.5885208e-08
1.5906548e-08
1.5950992e-08
1.6011127e-08
1.6036136e-08
1.5895796e-08
1.5354696e-08
1.409024e-08
1.1802557e-08
8.4683358e-09
4.686709e-09
1.8170573e-09
1.1235927e-09
6.2353061e-09
1.6202867e-08
1.6202708e-08
1.6202968e-08
1.6203394e-08
1.6203829e-08
1.6204278e-08
1.6204737e-08
1.6205203e-08
1.6205668e-08
1.6206132e-08
1.6206585e-08
1.6207028e-08
1.6207455e-08
1.620787e-08
1.6208272e-08
1.6208669e-08
1.6209067e-08
1.6209476e-08
1.6209893e-08
1.6210306e-08
1.6210698e-08
1.6211056e-08
1.6211353e-08
1.6211566e-08
1.6211689e-08
1.6211749e-08
1.6211786e-08
1.6211821e-08
1.6211851e-08
1.6211862e-08
1.6211842e-08
1.6211789e-08
1.6211699e-08
1.6211562e-08
1.6211363e-08
1.6211105e-08
1.6210827e-08
1.6210576e-08
1.621035e-08
1.6210103e-08
1.620976e-08
1.6209206e-08
1.6208248e-08
1.6206887e-08
1.6206314e-08
1.6210675e-08
1.6228253e-08
1.6268522e-08
1.6329632e-08
1.637186e-08
1.6279357e-08
1.5825967e-08
1.4678541e-08
1.2490168e-08
9.1535112e-09
5.1991418e-09
2.0048353e-09
1.0524373e-09
5.2612409e-09
1.6570395e-08
1.6570327e-08
1.6570667e-08
1.6571094e-08
1.6571544e-08
1.6572003e-08
1.6572471e-08
1.6572946e-08
1.6573417e-08
1.6573884e-08
1.657434e-08
1.6574784e-08
1.6575211e-08
1.6575626e-08
1.6576028e-08
1.6576426e-08
1.6576826e-08
1.657724e-08
1.6577661e-08
1.6578076e-08
1.657847e-08
1.657883e-08
1.6579128e-08
1.6579339e-08
1.6579458e-08
1.6579512e-08
1.6579545e-08
1.6579579e-08
1.6579609e-08
1.6579621e-08
1.6579602e-08
1.657955e-08
1.6579461e-08
1.6579328e-08
1.6579136e-08
1.6578883e-08
1.6578605e-08
1.657835e-08
1.6578125e-08
1.6577885e-08
1.6577563e-08
1.6577066e-08
1.6576211e-08
1.6574872e-08
1.657379e-08
1.6576286e-08
1.6589968e-08
1.6625331e-08
1.6685726e-08
1.6742814e-08
1.6696893e-08
1.6334571e-08
1.5316079e-08
1.3248215e-08
9.9287421e-09
5.7948342e-09
2.250173e-09
1.0103907e-09
4.4116173e-09
1.69844e-08
1.6984441e-08
1.6984838e-08
1.6985273e-08
1.6985733e-08
1.6986203e-08
1.6986678e-08
1.6987159e-08
1.6987633e-08
1.6988103e-08
1.6988559e-08
1.6989002e-08
1.6989427e-08
1.698984e-08
1.6990241e-08
1.6990639e-08
1.6991041e-08
1.6991458e-08
1.6991882e-08
1.6992299e-08
1.6992694e-08
1.6993055e-08
1.6993352e-08
1.699356e-08
1.6993671e-08
1.6993717e-08
1.6993745e-08
1.699378e-08
1.699381e-08
1.6993822e-08
1.6993804e-08
1.6993752e-08
1.6993665e-08
1.6993537e-08
1.6993352e-08
1.6993107e-08
1.699283e-08
1.6992573e-08
1.6992349e-08
1.6992117e-08
1.6991812e-08
1.6991363e-08
1.6990616e-08
1.6989373e-08
1.6987988e-08
1.6988941e-08
1.6998882e-08
1.7028655e-08
1.7085919e-08
1.7153394e-08
1.7149045e-08
1.6876476e-08
1.5995326e-08
1.4070145e-08
1.0795596e-08
6.4858509e-09
2.5576465e-09
1.000918e-09
3.7152339e-09
1.7452806e-08
1.745295e-08
1.7453382e-08
1.7453828e-08
1.7454297e-08
1.7454774e-08
1.7455256e-08
1.745574e-08
1.7456216e-08
1.7456684e-08
1.7457138e-08
1.7457577e-08
1.7457998e-08
1.7458407e-08
1.7458804e-08
1.74592e-08
1.7459603e-08
1.7460022e-08
1.7460446e-08
1.7460862e-08
1.7461257e-08
1.7461617e-08
1.7461911e-08
1.7462113e-08
1.7462214e-08
1.7462249e-08
1.7462272e-08
1.7462305e-08
1.7462336e-08
1.746235e-08
1.7462332e-08
1.7462282e-08
1.7462197e-08
1.7462073e-08
1.7461897e-08
1.746166e-08
1.7461388e-08
1.746113e-08
1.746091e-08
1.7460689e-08
1.7460401e-08
1.7459992e-08
1.7459347e-08
1.7458242e-08
1.7456724e-08
1.7456459e-08
1.7462946e-08
1.748674e-08
1.7538794e-08
1.7612194e-08
1.7643649e-08
1.7458045e-08
1.6721441e-08
1.4962224e-08
1.1766773e-08
7.2974489e-09
2.9475729e-09
1.0266862e-09
3.1331022e-09
1.798537e-08
1.7985604e-08
1.798605e-08
1.7986505e-08
1.7986979e-08
1.7987461e-08
1.7987946e-08
1.7988428e-08
1.7988902e-08
1.7989366e-08
1.7989814e-08
1.7990246e-08
1.7990659e-08
1.7991059e-08
1.7991451e-08
1.7991842e-08
1.7992242e-08
1.799266e-08
1.7993082e-08
1.7993494e-08
1.7993885e-08
1.7994242e-08
1.7994531e-08
1.7994723e-08
1.799481e-08
1.799483e-08
1.7994847e-08
1.7994878e-08
1.7994909e-08
1.7994924e-08
1.7994908e-08
1.7994859e-08
1.7994777e-08
1.7994659e-08
1.7994492e-08
1.7994267e-08
1.7994002e-08
1.7993747e-08
1.7993532e-08
1.7993327e-08
1.7993059e-08
1.7992683e-08
1.7992129e-08
1.799119e-08
1.7989701e-08
1.7988591e-08
1.7992074e-08
1.8009793e-08
1.805479e-08
1.8129332e-08
1.8189331e-08
1.8085125e-08
1.7497712e-08
1.5927531e-08
1.2851889e-08
8.2493953e-09
3.4417343e-09
1.0852121e-09
2.6518509e-09
1.8594253e-08
1.8594542e-08
1.8594993e-08
1.8595455e-08
1.859593e-08
1.8596413e-08
1.8596894e-08
1.8597372e-08
1.8597837e-08
1.8598291e-08
1.8598727e-08
1.8599145e-08
1.8599543e-08
1.859993e-08
1.8600309e-08
1.860069e-08
1.8601083e-08
1.8601495e-08
1.860191e-08
1.8602314e-08
1.8602697e-08
1.8603047e-08
1.8603325e-08
1.8603503e-08
1.860357e-08
1.8603569e-08
1.8603579e-08
1.8603609e-08
1.860364e-08
1.8603655e-08
1.8603642e-08
1.8603596e-08
1.8603517e-08
1.8603406e-08
1.860325e-08
1.8603041e-08
1.8602787e-08
1.8602539e-08
1.8602334e-08
1.8602151e-08
1.8601911e-08
1.8601565e-08
1.8601084e-08
1.8600318e-08
1.8598988e-08
1.8597414e-08
1.8598486e-08
1.86104e-08
1.8646975e-08
1.8717975e-08
1.8798138e-08
1.8766833e-08
1.832913e-08
1.6969983e-08
1.4061375e-08
9.366382e-09
4.0635493e-09
1.1878866e-09
2.2588355e-09
1.9294769e-08
1.9295091e-08
1.9295545e-08
1.9296007e-08
1.9296479e-08
1.9296956e-08
1.9297428e-08
1.9297891e-08
1.9298339e-08
1.9298774e-08
1.9299188e-08
1.9299582e-08
1.9299956e-08
1.9300319e-08
1.9300678e-08
1.9301042e-08
1.9301421e-08
1.930182e-08
1.9302219e-08
1.9302607e-08
1.9302977e-08
1.9303313e-08
1.9303575e-08
1.9303732e-08
1.9303772e-08
1.930374e-08
1.9303743e-08
1.9303771e-08
1.93038e-08
1.9303817e-08
1.9303806e-08
1.9303765e-08
1.9303692e-08
1.930359e-08
1.9303449e-08
1.9303258e-08
1.9303022e-08
1.9302785e-08
1.9302597e-08
1.9302446e-08
1.9302247e-08
1.9301934e-08
1.9301509e-08
1.9300901e-08
1.929982e-08
1.9298138e-08
1.92975e-08
1.9304259e-08
1.9331686e-08
1.9394875e-08
1.9485974e-08
1.9516037e-08
1.9223872e-08
1.8094102e-08
1.5404882e-08
1.0676677e-08
4.8550499e-09
1.340346e-09
1.9450333e-09
2.010651e-08
2.0106846e-08
2.0107296e-08
2.0107752e-08
2.0108212e-08
2.0108674e-08
2.0109124e-08
2.010956e-08
2.0109979e-08
2.011038e-08
2.0110757e-08
2.0111112e-08
2.0111446e-08
2.0111773e-08
2.0112099e-08
2.0112435e-08
2.0112789e-08
2.0113163e-08
2.0113535e-08
2.0113896e-08
2.0114244e-08
2.0114559e-08
2.0114794e-08
2.0114922e-08
2.0114918e-08
2.0114855e-08
2.0114843e-08
2.0114868e-08
2.0114895e-08
2.0114911e-08
2.0114905e-08
2.011487e-08
2.0114806e-08
2.0114717e-08
2.0114596e-08
2.0114429e-08
2.0114218e-08
2.0114002e-08
2.0113838e-08
2.011373e-08
2.0113596e-08
2.011333e-08
2.0112949e-08
2.0112466e-08
2.0111668e-08
2.0110176e-08
2.0108575e-08
2.011118e-08
2.0129521e-08
2.01815e-08
2.0274044e-08
2.0350939e-08
2.0194312e-08
1.930683e-08
1.6891469e-08
1.2209938e-08
5.8684235e-09
1.5521482e-09
1.7068172e-09
2.1054758e-08
2.10551e-08
2.1055539e-08
2.1055975e-08
2.1056413e-08
2.1056843e-08
2.1057255e-08
2.1057647e-08
2.1058018e-08
2.1058365e-08
2.1058686e-08
2.1058981e-08
2.1059256e-08
2.1059527e-08
2.1059804e-08
2.1060096e-08
2.1060412e-08
2.1060744e-08
2.1061071e-08
2.106139e-08
2.1061705e-08
2.1061985e-08
2.1062182e-08
2.1062272e-08
2.1062195e-08
2.1062097e-08
2.1062067e-08
2.1062087e-08
2.106211e-08
2.1062124e-08
2.1062126e-08
2.1062099e-08
2.1062049e-08
2.1061979e-08
2.1061885e-08
2.1061751e-08
2.1061576e-08
2.106139e-08
2.1061259e-08
2.1061207e-08
2.1061175e-08
2.1060983e-08
2.1060648e-08
2.1060251e-08
2.1059714e-08
2.1058614e-08
2.1056762e-08
2.1056476e-08
2.1066642e-08
2.1105312e-08
2.119038e-08
2.1297149e-08
2.1259373e-08
2.0619881e-08
1.8530254e-08
1.3996366e-08
7.1743173e-09
1.8384999e-09
1.5516508e-09
2.2172123e-08
2.2172493e-08
2.2172911e-08
2.2173317e-08
2.217372e-08
2.2174104e-08
2.2174461e-08
2.2174792e-08
2.2175095e-08
2.2175367e-08
2.2175607e-08
2.217582e-08
2.2176015e-08
2.2176209e-08
2.2176418e-08
2.217665e-08
2.217691e-08
2.217718e-08
2.2177441e-08
2.2177703e-08
2.217797e-08
2.2178203e-08
2.2178348e-08
2.2178375e-08
2.2178207e-08
2.2178067e-08
2.2178017e-08
2.2178026e-08
2.2178042e-08
2.2178054e-08
2.2178066e-08
2.2178052e-08
2.2178022e-08
2.2177981e-08
2.2177924e-08
2.2177837e-08
2.217771e-08
2.2177569e-08
2.2177473e-08
2.2177495e-08
2.217762e-08
2.2177541e-08
2.2177273e-08
2.2176926e-08
2.2176578e-08
2.2175949e-08
2.217443e-08
2.2172625e-08
2.2176308e-08
2.2201224e-08
2.227146e-08
2.2389916e-08
2.2447205e-08
2.2048932e-08
2.0332386e-08
1.6064607e-08
8.8592041e-09
2.2771059e-09
1.4864938e-09
2.349922e-08
2.3499647e-08
2.3500041e-08
2.3500419e-08
2.3500788e-08
2.3501124e-08
2.3501423e-08
2.3501687e-08
2.3501915e-08
2.3502102e-08
2.3502251e-08
2.3502369e-08
2.3502473e-08
2.350258e-08
2.3502713e-08
2.3502883e-08
2.3503084e-08
2.3503277e-08
2.3503458e-08
2.3503657e-08
2.3503874e-08
2.3504054e-08
2.3504151e-08
2.3504075e-08
2.3503798e-08
2.3503624e-08
2.3503561e-08
2.3503553e-08
2.3503564e-08
2.3503577e-08
2.3503602e-08
2.350361e-08
2.3503607e-08
2.3503606e-08
2.3503602e-08
2.3503578e-08
2.3503512e-08
2.3503423e-08
2.3503375e-08
2.3503495e-08
2.3503769e-08
2.3503901e-08
2.3503736e-08
2.3503416e-08
2.3503141e-08
2.3502928e-08
2.3502112e-08
2.3500044e-08
2.3499468e-08
2.3511938e-08
2.3562526e-08
2.3674881e-08
2.3797644e-08
2.3621767e-08
2.2314718e-08
1.8444447e-08
1.0998288e-08
2.9865377e-09
1.4762158e-09
1.0557646e-08
1.279404e-08
1.5193927e-08
1.7862687e-08
2.089472e-08
2.43555e-08
2.8287539e-08
3.2720603e-08
3.7677819e-08
4.3175492e-08
4.9219137e-08
5.5796888e-08
6.2873013e-08
7.0379084e-08
7.8204624e-08
8.6186627e-08
9.4099894e-08
1.0164898e-07
1.0846365e-07
1.1410558e-07
1.18069e-07
1.1987085e-07
1.1911801e-07
1.1540122e-07
1.0844109e-07
9.8112491e-08
8.4686003e-08
6.8587608e-08
5.0607068e-08
3.2807184e-08
1.6930593e-08
5.0571396e-09
3.9079373e-10
3.2755435e-09
1.4358689e-08
3.71182e-08
7.4803368e-08
1.2549302e-07
1.8007301e-07
2.4094751e-07
3.0973345e-07
3.8586795e-07
4.6958708e-07
5.5749454e-07
6.4756878e-07
7.3921208e-07
8.3154253e-07
9.2289937e-07
1.0114486e-06
1.0962498e-06
1.1771754e-06
1.254211e-06
1.327466e-06
1.3969937e-06
1.4622531e-06
1.5231352e-06
1.5802538e-06
1.6340285e-06
1.6845883e-06
1.7319911e-06
1.7763347e-06
1.8178976e-06
1.8568666e-06
1.8932454e-06
1.927079e-06
1.9584941e-06
1.9876407e-06
2.014665e-06
2.0397119e-06
2.0629173e-06
2.0844227e-06
2.1043315e-06
2.1228045e-06
2.139828e-06
1.7225251e-09
2.1452027e-09
2.6138409e-09
3.1369211e-09
3.7177203e-09
4.3629085e-09
5.0797062e-09
5.874472e-09
6.7520515e-09
7.715833e-09
8.767602e-09
9.9068914e-09
1.1129773e-08
1.2427617e-08
1.3785327e-08
1.5179859e-08
1.6578311e-08
1.7936653e-08
1.9198608e-08
2.0296277e-08
2.1150186e-08
2.1660923e-08
2.1700406e-08
2.1185944e-08
2.0111015e-08
1.8478509e-08
1.6331557e-08
1.3794092e-08
1.099759e-08
8.1056517e-09
5.5266658e-09
3.3013392e-09
1.5629531e-09
8.2089473e-10
1.4877042e-09
3.4338739e-09
7.0001245e-09
1.2351901e-08
1.885256e-08
2.6300123e-08
3.471316e-08
4.4063369e-08
5.4433789e-08
6.5596855e-08
7.724647e-08
8.9183464e-08
1.0138174e-07
1.1375682e-07
1.260979e-07
1.3822029e-07
1.5000744e-07
1.6138937e-07
1.7232924e-07
1.8281055e-07
1.9288077e-07
2.0236408e-07
2.1125435e-07
2.1959435e-07
2.2741912e-07
2.3475935e-07
2.4163129e-07
2.4805136e-07
2.5405896e-07
2.5967954e-07
2.6492953e-07
2.698265e-07
2.7438693e-07
2.7863037e-07
2.8257351e-07
2.8623544e-07
2.8963268e-07
2.9278314e-07
2.9569631e-07
2.9847148e-07
1.4961519e-09
1.4361922e-09
1.3946908e-09
1.3695314e-09
1.3705357e-09
1.4062553e-09
1.4802263e-09
1.6008695e-09
1.7754532e-09
2.0056164e-09
2.2895319e-09
2.6235527e-09
3.0031884e-09
3.4228334e-09
3.8758146e-09
4.3543573e-09
4.8492298e-09
5.349281e-09
5.8408038e-09
6.3070607e-09
6.7280241e-09
7.0799185e-09
7.3330036e-09
7.4568206e-09
7.4291095e-09
7.2362339e-09
6.8743668e-09
6.3591003e-09
5.6974153e-09
4.9276334e-09
4.0853065e-09
3.2763386e-09
2.5345983e-09
1.9182483e-09
1.4253427e-09
1.3906296e-09
1.6089778e-09
2.1298319e-09
2.9172488e-09
3.9579286e-09
5.2420025e-09
6.7478471e-09
8.4617913e-09
1.0361468e-08
1.2413309e-08
1.458347e-08
1.6846167e-08
1.917696e-08
2.1548301e-08
2.3932954e-08
2.6306433e-08
2.8647886e-08
3.0940906e-08
3.3173544e-08
3.5315093e-08
3.7354686e-08
3.9289846e-08
4.1121131e-08
4.284941e-08
4.447804e-08
4.6007624e-08
4.744966e-08
4.8809716e-08
5.0090417e-08
5.1294404e-08
5.2424524e-08
5.3483726e-08
5.4475136e-08
5.5401925e-08
5.6267294e-08
5.7074419e-08
5.7826568e-08
5.8526041e-08
5.9180927e-08
3.2232331e-09
2.5989516e-09
2.1366951e-09
1.8173301e-09
1.6165484e-09
1.4952311e-09
1.4250479e-09
1.3772032e-09
1.3323632e-09
1.3032259e-09
1.3000603e-09
1.3226749e-09
1.3773042e-09
1.468178e-09
1.5967893e-09
1.7622853e-09
1.9611422e-09
2.1884433e-09
2.4377971e-09
2.7004282e-09
2.9624109e-09
3.2101211e-09
3.4343915e-09
3.6251476e-09
3.7719026e-09
3.8649681e-09
3.8971494e-09
3.8641879e-09
3.7705903e-09
3.6209686e-09
3.4143385e-09
3.1652989e-09
2.8899901e-09
2.6065274e-09
2.3053747e-09
2.0542256e-09
1.8693758e-09
1.7641809e-09
1.7315532e-09
1.7840391e-09
1.8933744e-09
2.0582197e-09
2.267868e-09
2.528401e-09
2.8348583e-09
3.1811848e-09
3.5612336e-09
3.9686118e-09
4.3969575e-09
4.8402623e-09
5.2929695e-09
5.7499811e-09
6.2069063e-09
6.6596755e-09
7.1046981e-09
7.5390547e-09
7.9604257e-09
8.3669566e-09
8.7572831e-09
9.1304686e-09
9.4860001e-09
9.8237681e-09
1.0143805e-08
1.0446308e-08
1.0731641e-08
1.1000277e-08
1.125276e-08
1.1489694e-08
1.171171e-08
1.1919473e-08
1.2113655e-08
1.2294945e-08
1.2463947e-08
1.2621826e-08
6.3355161e-09
5.2015632e-09
4.2326779e-09
3.4355378e-09
2.8057302e-09
2.3216772e-09
1.9725597e-09
1.7308159e-09
1.5505775e-09
1.4327209e-09
1.3575555e-09
1.3103637e-09
1.2783444e-09
1.2517716e-09
1.2316122e-09
1.2308384e-09
1.2478334e-09
1.2863722e-09
1.3481574e-09
1.4372145e-09
1.5558848e-09
1.6980438e-09
1.856124e-09
2.0148125e-09
2.1654072e-09
2.3022235e-09
2.420731e-09
2.5162633e-09
2.5859747e-09
2.6286922e-09
2.6434466e-09
2.6292653e-09
2.5931734e-09
2.5155711e-09
2.4449939e-09
2.3524075e-09
2.2521448e-09
2.1518481e-09
2.0640606e-09
1.993113e-09
1.9412867e-09
1.9039173e-09
1.8815248e-09
1.8793646e-09
1.8876641e-09
1.9054943e-09
1.932297e-09
1.9672376e-09
2.0093441e-09
2.0575557e-09
2.1108012e-09
2.1680295e-09
2.2282659e-09
2.290578e-09
2.354101e-09
2.4181223e-09
2.4820362e-09
2.5452988e-09
2.6074456e-09
2.6680886e-09
2.7269272e-09
2.7837399e-09
2.8383477e-09
2.8906174e-09
2.9404686e-09
2.9878642e-09
3.0327989e-09
3.0752934e-09
3.1153891e-09
3.1531438e-09
3.1886285e-09
3.2219223e-09
3.2531174e-09
3.2822673e-09
9.5400174e-09
8.204582e-09
6.9469473e-09
5.8166233e-09
4.833467e-09
4.0011705e-09
3.3174822e-09
2.7756966e-09
2.3455448e-09
2.0137882e-09
1.7622866e-09
1.5800991e-09
1.451934e-09
1.3549776e-09
1.2918255e-09
1.2510055e-09
1.2244987e-09
1.2065076e-09
1.1878929e-09
1.1799772e-09
1.183256e-09
1.1985873e-09
1.2364371e-09
1.2956647e-09
1.3729056e-09
1.4631701e-09
1.5608941e-09
1.6558838e-09
1.7435832e-09
1.8215518e-09
1.8883149e-09
1.9428144e-09
1.9849084e-09
2.0155028e-09
2.0328131e-09
2.0390813e-09
2.0356508e-09
2.0245572e-09
2.0028382e-09
1.9770381e-09
1.9544441e-09
1.9330421e-09
1.9139506e-09
1.8974262e-09
1.883437e-09
1.8736135e-09
1.8665583e-09
1.8598078e-09
1.8545532e-09
1.8509258e-09
1.8488175e-09
1.8480618e-09
1.8484899e-09
1.8499383e-09
1.8522115e-09
1.8552329e-09
1.858804e-09
1.8627751e-09
1.8670365e-09
1.8714959e-09
1.8760772e-09
1.8807204e-09
1.8853718e-09
1.8899828e-09
1.8945144e-09
1.8989367e-09
1.9032265e-09
1.9073661e-09
1.9113428e-09
1.9151479e-09
1.918776e-09
1.9222243e-09
1.9254945e-09
1.9285743e-09
1.2101711e-08