/*--------------------------------*- C++ -*----------------------------------*\
| =========                 |                                                 |
| \\      /  F ield         | OpenFOAM: The Open Source CFD Toolbox           |
|  \\    /   O peration     | Version:  v2006                                 |
|   \\  /    A nd           | Website:  www.openfoam.com                      |
|    \\/     M anipulation  |                                                 |
\*---------------------------------------------------------------------------*/
FoamFile
{
    version     2.0;
    format      ascii;
    class       volScalarField;
    location    "5000";
    object      nut;
}
// * * * * * * * * * * * * * * * * * * * * * * * * * * * * * * * * * * * * * //

dimensions      [0 2 -1 0 0 0 0];


internalField   nonuniform List<scalar> 
55713
(
2.7811247e-10
2.8802689e-09
2.8912922e-08
6.9334515e-08
8.9616924e-08
9.5667054e-08
9.589835e-08
9.5047056e-08
9.4485682e-08
9.428115e-08
9.4248419e-08
9.4259767e-08
9.4269906e-08
9.4272535e-08
9.4272634e-08
9.4273901e-08
9.4275456e-08
9.4275753e-08
9.4274659e-08
9.4273553e-08
9.4273291e-08
9.4273742e-08
9.4274283e-08
9.4274612e-08
9.4274664e-08
9.4274622e-08
9.4274552e-08
9.427449e-08
9.4274358e-08
9.427418e-08
9.427398e-08
9.4273742e-08
9.4273535e-08
9.4273422e-08
9.4273646e-08
9.4274631e-08
9.4274743e-08
9.4274137e-08
9.4273115e-08
9.4271892e-08
9.4270734e-08
9.4269711e-08
9.4268713e-08
9.426766e-08
9.4266647e-08
9.4265713e-08
9.4264878e-08
9.4264069e-08
9.4263244e-08
9.4262357e-08
9.426141e-08
9.4260378e-08
9.4259293e-08
9.4258191e-08
9.4257097e-08
9.4256005e-08
9.4254921e-08
9.4253795e-08
9.4252533e-08
3.3731973e-10
4.1785406e-09
3.5946311e-08
7.6183615e-08
9.3055205e-08
9.6971882e-08
9.6592432e-08
9.5762842e-08
9.533258e-08
9.5208463e-08
9.5202465e-08
9.5215542e-08
9.5222096e-08
9.5221983e-08
9.522145e-08
9.5222994e-08
9.5224388e-08
9.5223726e-08
9.5221998e-08
9.5220453e-08
9.5219817e-08
9.521995e-08
9.5220149e-08
9.5220085e-08
9.5219761e-08
9.5219395e-08
9.5218968e-08
9.5218582e-08
9.5218094e-08
9.5217592e-08
9.521705e-08
9.5216475e-08
9.5215915e-08
9.5215439e-08
9.5215259e-08
9.5215972e-08
9.5215952e-08
9.5214998e-08
9.5213612e-08
9.5212013e-08
9.5210456e-08
9.5209081e-08
9.5207727e-08
9.5206279e-08
9.5204813e-08
9.5203439e-08
9.5202161e-08
9.5200918e-08
9.5199639e-08
9.5198295e-08
9.519686e-08
9.5195308e-08
9.5193642e-08
9.5191915e-08
9.5190145e-08
9.5188328e-08
9.5186441e-08
9.5184447e-08
9.5182211e-08
4.2185599e-10
5.8759238e-09
4.3439939e-08
8.2297987e-08
9.5730096e-08
9.8037393e-08
9.7313385e-08
9.657066e-08
9.6261571e-08
9.619719e-08
9.6205608e-08
9.6217148e-08
9.6219584e-08
9.6217805e-08
9.6217456e-08
9.6219009e-08
9.6219728e-08
9.6218338e-08
9.621609e-08
9.6214097e-08
9.621314e-08
9.6212956e-08
9.62128e-08
9.6212391e-08
9.6211721e-08
9.621103e-08
9.6210267e-08
9.6209552e-08
9.6208723e-08
9.6207904e-08
9.620705e-08
9.6206153e-08
9.6205276e-08
9.620444e-08
9.6203879e-08
9.620429e-08
9.6204251e-08
9.6202964e-08
9.6201232e-08
9.6199249e-08
9.6197317e-08
9.6195612e-08
9.6193952e-08
9.6192141e-08
9.6190263e-08
9.6188473e-08
9.6186795e-08
9.6185148e-08
9.6183461e-08
9.6181698e-08
9.6179828e-08
9.6177806e-08
9.6175621e-08
9.6173322e-08
9.6170943e-08
9.6168475e-08
9.616587e-08
9.6163093e-08
9.6159965e-08
5.4401596e-10
8.1959712e-09
5.1584064e-08
8.7807345e-08
9.7963557e-08
9.8985807e-08
9.8088055e-08
9.7476041e-08
9.7275801e-08
9.7252901e-08
9.7266688e-08
9.72738e-08
9.727301e-08
9.7270698e-08
9.7270695e-08
9.7272115e-08
9.7272106e-08
9.7270024e-08
9.7267283e-08
9.7264902e-08
9.7263694e-08
9.7263222e-08
9.7262735e-08
9.726197e-08
9.7260977e-08
9.7259992e-08
9.7258919e-08
9.7257919e-08
9.7256766e-08
9.7255684e-08
9.7254515e-08
9.7253327e-08
9.7252131e-08
9.7250979e-08
9.7250057e-08
9.7250161e-08
9.7250142e-08
9.7248592e-08
9.7246532e-08
9.7244185e-08
9.7241902e-08
9.7239905e-08
9.7237984e-08
9.7235857e-08
9.7233598e-08
9.7231426e-08
9.7229379e-08
9.7227371e-08
9.722531e-08
9.7223171e-08
9.7220903e-08
9.7218464e-08
9.7215811e-08
9.7212995e-08
9.7210056e-08
9.7206998e-08
9.7203734e-08
9.7200251e-08
9.7196302e-08
7.2129548e-10
1.1286571e-08
6.0082353e-08
9.2557454e-08
9.9792101e-08
9.9873415e-08
9.8949879e-08
9.8487844e-08
9.8374379e-08
9.8375951e-08
9.8388235e-08
9.8390542e-08
9.8387969e-08
9.838574e-08
9.8386114e-08
9.8387207e-08
9.8386332e-08
9.8383646e-08
9.8380456e-08
9.8377815e-08
9.8376419e-08
9.8375695e-08
9.837487e-08
9.8373775e-08
9.8372476e-08
9.8371214e-08
9.8369862e-08
9.8368605e-08
9.8367174e-08
9.8365856e-08
9.8364412e-08
9.8362974e-08
9.8361495e-08
9.8360059e-08
9.835879e-08
9.835857e-08
9.8358588e-08
9.8356897e-08
9.8354521e-08
9.835183e-08
9.8349211e-08
9.8346966e-08
9.8344842e-08
9.8342464e-08
9.8339871e-08
9.8337367e-08
9.8334999e-08
9.8332678e-08
9.8330291e-08
9.8327824e-08
9.8325213e-08
9.8322425e-08
9.8319372e-08
9.8316112e-08
9.8312679e-08
9.8309118e-08
9.8305279e-08
9.8301196e-08
9.8296526e-08
9.8080888e-10
1.534241e-08
6.8659524e-08
9.6139326e-08
1.0131801e-07
1.0076309e-07
9.9923368e-08
9.9608665e-08
9.9557088e-08
9.9569263e-08
9.9576262e-08
9.9575335e-08
9.9571934e-08
9.9570058e-08
9.9570768e-08
9.9571312e-08
9.956952e-08
9.9566285e-08
9.9562734e-08
9.9560011e-08
9.9558489e-08
9.9557532e-08
9.9556356e-08
9.9554973e-08
9.9553385e-08
9.9551889e-08
9.955028e-08
9.9548801e-08
9.9547131e-08
9.9545609e-08
9.9543941e-08
9.9542289e-08
9.9540586e-08
9.9538909e-08
9.9537351e-08
9.9536802e-08
9.9536834e-08
9.9535185e-08
9.9532501e-08
9.952948e-08
9.9526543e-08
9.9524098e-08
9.9521838e-08
9.9519291e-08
9.9516426e-08
9.9513648e-08
9.951102e-08
9.9508443e-08
9.9505794e-08
9.9503058e-08
9.9500168e-08
9.9497103e-08
9.9493742e-08
9.9490122e-08
9.9486279e-08
9.9482314e-08
9.9478004e-08
9.9473439e-08
9.9468169e-08
1.3650999e-09
2.0576169e-08
7.691574e-08
9.9021059e-08
1.025596e-07
1.0169495e-07
1.0102685e-07
1.0083886e-07
1.0082539e-07
1.008376e-07
1.0083956e-07
1.0083671e-07
1.0083305e-07
1.0083164e-07
1.0083259e-07
1.0083235e-07
1.0082968e-07
1.0082593e-07
1.0082222e-07
1.0081959e-07
1.0081803e-07
1.008168e-07
1.0081531e-07
1.0081365e-07
1.0081184e-07
1.0081014e-07
1.0080833e-07
1.0080666e-07
1.0080481e-07
1.0080311e-07
1.0080127e-07
1.0079945e-07
1.0079758e-07
1.0079571e-07
1.0079393e-07
1.0079307e-07
1.0079306e-07
1.007917e-07
1.0078875e-07
1.0078541e-07
1.0078218e-07
1.0077957e-07
1.0077726e-07
1.0077464e-07
1.0077159e-07
1.007686e-07
1.0076578e-07
1.0076302e-07
1.0076019e-07
1.0075726e-07
1.0075417e-07
1.0075092e-07
1.0074735e-07
1.0074349e-07
1.0073934e-07
1.0073509e-07
1.0073044e-07
1.0072554e-07
1.0071982e-07
1.9469329e-09
2.7212875e-08
8.501572e-08
1.0204324e-07
1.0365601e-07
1.0273953e-07
1.0227251e-07
1.0217693e-07
1.0218298e-07
1.0219018e-07
1.0218825e-07
1.0218461e-07
1.0218092e-07
1.0218004e-07
1.0218104e-07
1.0217986e-07
1.0217637e-07
1.0217222e-07
1.021686e-07
1.0216622e-07
1.0216464e-07
1.0216315e-07
1.0216136e-07
1.0215949e-07
1.0215751e-07
1.0215567e-07
1.0215372e-07
1.0215192e-07
1.0214992e-07
1.0214812e-07
1.0214614e-07
1.0214423e-07
1.0214224e-07
1.0214026e-07
1.0213832e-07
1.0213719e-07
1.0213708e-07
1.0213624e-07
1.021331e-07
1.0212948e-07
1.0212598e-07
1.0212326e-07
1.0212097e-07
1.0211839e-07
1.0211526e-07
1.0211214e-07
1.0210923e-07
1.0210636e-07
1.0210344e-07
1.0210042e-07
1.0209723e-07
1.020939e-07
1.0209026e-07
1.0208629e-07
1.0208195e-07
1.0207758e-07
1.0207274e-07
1.0206768e-07
1.0206169e-07
2.8731066e-09
3.5464643e-08
9.2219813e-08
1.0433619e-07
1.0476539e-07
1.0395915e-07
1.0366275e-07
1.0362597e-07
1.0363591e-07
1.0363824e-07
1.0363413e-07
1.036306e-07
1.0362687e-07
1.0362656e-07
1.0362744e-07
1.0362531e-07
1.0362102e-07
1.0361661e-07
1.0361331e-07
1.0361128e-07
1.0360966e-07
1.0360794e-07
1.0360594e-07
1.0360394e-07
1.0360187e-07
1.0359997e-07
1.0359793e-07
1.0359608e-07
1.0359401e-07
1.0359217e-07
1.035901e-07
1.035882e-07
1.0358615e-07
1.0358414e-07
1.0358212e-07
1.0358079e-07
1.0358061e-07
1.0358033e-07
1.0357726e-07
1.035734e-07
1.0356964e-07
1.0356688e-07
1.0356469e-07
1.0356229e-07
1.0355921e-07
1.0355606e-07
1.0355315e-07
1.0355029e-07
1.035474e-07
1.0354443e-07
1.0354125e-07
1.0353798e-07
1.0353441e-07
1.0353053e-07
1.0352615e-07
1.0352184e-07
1.0351701e-07
1.0351201e-07
1.0350599e-07
4.4792817e-09
4.5483638e-08
9.8584493e-08
1.0633093e-07
1.0599166e-07
1.0535815e-07
1.0519509e-07
1.0519079e-07
1.0519734e-07
1.0519617e-07
1.0519104e-07
1.0518824e-07
1.0518433e-07
1.0518482e-07
1.0518539e-07
1.0518236e-07
1.0517725e-07
1.051727e-07
1.0516983e-07
1.0516817e-07
1.0516656e-07
1.0516472e-07
1.0516264e-07
1.0516064e-07
1.0515858e-07
1.051567e-07
1.0515466e-07
1.0515283e-07
1.0515079e-07
1.0514899e-07
1.0514692e-07
1.0514512e-07
1.0514308e-07
1.0514117e-07
1.0513916e-07
1.0513775e-07
1.051375e-07
1.0513784e-07
1.0513519e-07
1.0513109e-07
1.0512714e-07
1.0512442e-07
1.0512245e-07
1.0512033e-07
1.0511747e-07
1.0511443e-07
1.0511166e-07
1.0510892e-07
1.0510625e-07
1.0510348e-07
1.0510048e-07
1.0509742e-07
1.050941e-07
1.0509053e-07
1.0508633e-07
1.0508229e-07
1.0507775e-07
1.0507305e-07
1.0506729e-07
7.1899687e-09
5.7292707e-08
1.0383239e-07
1.0810114e-07
1.0738037e-07
1.0694699e-07
1.068744e-07
1.0688186e-07
1.0688272e-07
1.068801e-07
1.0687509e-07
1.0687334e-07
1.0686909e-07
1.068708e-07
1.0687095e-07
1.0686703e-07
1.0686104e-07
1.0685638e-07
1.06854e-07
1.0685276e-07
1.0685135e-07
1.0684959e-07
1.0684761e-07
1.0684573e-07
1.068438e-07
1.0684202e-07
1.068401e-07
1.0683839e-07
1.0683648e-07
1.0683483e-07
1.068329e-07
1.0683128e-07
1.0682937e-07
1.0682769e-07
1.0682581e-07
1.0682447e-07
1.0682418e-07
1.0682515e-07
1.0682339e-07
1.0681907e-07
1.06815e-07
1.0681244e-07
1.0681084e-07
1.0680909e-07
1.0680668e-07
1.0680392e-07
1.0680149e-07
1.0679899e-07
1.0679675e-07
1.0679441e-07
1.0679177e-07
1.0678914e-07
1.0678626e-07
1.0678328e-07
1.0677952e-07
1.0677602e-07
1.0677209e-07
1.0676798e-07
1.0676285e-07
1.1059005e-08
7.0822496e-08
1.0728632e-07
1.0970375e-07
1.0897337e-07
1.0872963e-07
1.0870699e-07
1.0871359e-07
1.087105e-07
1.0870826e-07
1.0870406e-07
1.0870348e-07
1.0869861e-07
1.0870208e-07
1.0870168e-07
1.0869692e-07
1.086904e-07
1.0868571e-07
1.0868392e-07
1.0868325e-07
1.0868217e-07
1.086807e-07
1.08679e-07
1.0867736e-07
1.0867568e-07
1.0867414e-07
1.0867248e-07
1.0867102e-07
1.0866939e-07
1.08668e-07
1.0866637e-07
1.0866505e-07
1.0866344e-07
1.0866212e-07
1.0866051e-07
1.0865943e-07
1.0865922e-07
1.0866073e-07
1.086604e-07
1.0865586e-07
1.0865181e-07
1.0864969e-07
1.086486e-07
1.0864735e-07
1.0864567e-07
1.0864332e-07
1.0864151e-07
1.0863942e-07
1.0863782e-07
1.0863615e-07
1.0863411e-07
1.0863213e-07
1.0862995e-07
1.0862782e-07
1.0862491e-07
1.086222e-07
1.0861932e-07
1.086161e-07
1.0861205e-07
1.6832131e-08
8.6008273e-08
1.095965e-07
1.1120872e-07
1.1079134e-07
1.1070221e-07
1.1069953e-07
1.1070107e-07
1.1069716e-07
1.1069642e-07
1.106933e-07
1.1069316e-07
1.1068789e-07
1.1069322e-07
1.1069204e-07
1.1068688e-07
1.1068153e-07
1.1067765e-07
1.1067666e-07
1.1067632e-07
1.1067547e-07
1.1067429e-07
1.10673e-07
1.1067175e-07
1.106705e-07
1.1066935e-07
1.1066814e-07
1.1066708e-07
1.1066592e-07
1.1066495e-07
1.1066381e-07
1.1066292e-07
1.1066182e-07
1.1066097e-07
1.1065989e-07
1.1065922e-07
1.106593e-07
1.1066108e-07
1.1066242e-07
1.1065782e-07
1.1065421e-07
1.10653e-07
1.106526e-07
1.1065196e-07
1.1065132e-07
1.1064943e-07
1.1064861e-07
1.1064717e-07
1.1064643e-07
1.1064557e-07
1.1064442e-07
1.1064332e-07
1.1064215e-07
1.1064108e-07
1.1063945e-07
1.1063778e-07
1.1063634e-07
1.1063442e-07
1.1063195e-07
2.4888449e-08
1.0253112e-07
1.1276929e-07
1.1294104e-07
1.1284748e-07
1.1284209e-07
1.1284264e-07
1.1284181e-07
1.1283928e-07
1.1283973e-07
1.128376e-07
1.1283645e-07
1.1283246e-07
1.1283755e-07
1.1283646e-07
1.1283272e-07
1.1283097e-07
1.1282974e-07
1.1282913e-07
1.1282851e-07
1.1282776e-07
1.1282704e-07
1.1282635e-07
1.1282573e-07
1.1282514e-07
1.1282459e-07
1.1282407e-07
1.1282359e-07
1.1282313e-07
1.1282273e-07
1.1282232e-07
1.12822e-07
1.1282163e-07
1.1282138e-07
1.1282106e-07
1.1282091e-07
1.1282132e-07
1.1282281e-07
1.1282524e-07
1.1282149e-07
1.1281945e-07
1.1281954e-07
1.128195e-07
1.1281976e-07
1.1281994e-07
1.1281941e-07
1.1281932e-07
1.1281934e-07
1.128195e-07
1.1281943e-07
1.1281941e-07
1.1281941e-07
1.1281946e-07
1.1281955e-07
1.1281947e-07
1.1281921e-07
1.1281934e-07
1.1281912e-07
1.1281872e-07
8.5581136e-08
8.5579825e-08
8.5578853e-08
8.5580034e-08
8.5580721e-08
8.5581636e-08
8.5582498e-08
8.5583417e-08
8.5584338e-08
8.5585286e-08
8.5586218e-08
8.5587148e-08
8.5588044e-08
8.5588928e-08
8.5589784e-08
8.5590643e-08
8.559152e-08
8.5592463e-08
8.5593466e-08
8.5594513e-08
8.559555e-08
8.5596522e-08
8.55973e-08
8.5597756e-08
8.5597836e-08
8.5597668e-08
8.5597456e-08
8.5597346e-08
8.5597319e-08
8.5597314e-08
8.5597275e-08
8.5597193e-08
8.5597024e-08
8.559669e-08
8.5596107e-08
8.5595354e-08
8.5594671e-08
8.5594254e-08
8.5594035e-08
8.5593725e-08
8.5592709e-08
8.5589643e-08
8.5583062e-08
8.5575963e-08
8.5586227e-08
8.56582e-08
8.5858261e-08
8.6224659e-08
8.6641088e-08
8.6629545e-08
8.5112812e-08
8.0271641e-08
6.9438452e-08
5.0732358e-08
2.7088787e-08
8.6598265e-09
1.6030752e-09
4.2797483e-10
5.6466097e-10
8.5871974e-08
8.5870847e-08
8.5870727e-08
8.5871725e-08
8.5872526e-08
8.587342e-08
8.58743e-08
8.5875223e-08
8.5876147e-08
8.5877093e-08
8.5878021e-08
8.5878942e-08
8.5879828e-08
8.58807e-08
8.5881546e-08
8.5882399e-08
8.5883272e-08
8.5884216e-08
8.5885219e-08
8.5886264e-08
8.5887294e-08
8.5888259e-08
8.5889024e-08
8.5889462e-08
8.5889517e-08
8.5889326e-08
8.5889104e-08
8.5888996e-08
8.5888968e-08
8.588896e-08
8.5888912e-08
8.5888817e-08
8.5888631e-08
8.5888286e-08
8.5887713e-08
8.5886988e-08
8.5886335e-08
8.5885937e-08
8.5885713e-08
8.5885317e-08
8.5884092e-08
8.5880878e-08
8.5874693e-08
8.5868775e-08
8.5879738e-08
8.5948186e-08
8.6136201e-08
8.6484848e-08
8.6900555e-08
8.6957918e-08
8.5652526e-08
8.1195297e-08
7.1055743e-08
5.2948245e-08
2.9128934e-08
9.651589e-09
1.7556052e-09
4.0088228e-10
5.0691474e-10
8.6191829e-08
8.619088e-08
8.6191065e-08
8.6192018e-08
8.6192864e-08
8.6193764e-08
8.6194658e-08
8.6195592e-08
8.6196524e-08
8.6197475e-08
8.6198402e-08
8.619932e-08
8.62002e-08
8.6201064e-08
8.62019e-08
8.6202744e-08
8.620361e-08
8.6204549e-08
8.6205548e-08
8.6206589e-08
8.6207616e-08
8.6208581e-08
8.6209345e-08
8.6209779e-08
8.6209818e-08
8.6209608e-08
8.6209373e-08
8.6209261e-08
8.6209233e-08
8.6209226e-08
8.6209178e-08
8.6209085e-08
8.6208911e-08
8.6208598e-08
8.6208061e-08
8.6207354e-08
8.6206683e-08
8.6206254e-08
8.6206027e-08
8.6205724e-08
8.620482e-08
8.620227e-08
8.6196642e-08
8.6189146e-08
8.6192024e-08
8.6240629e-08
8.6396995e-08
8.6719185e-08
8.7161443e-08
8.7382244e-08
8.6481858e-08
8.2756888e-08
7.3644046e-08
5.639508e-08
3.2276577e-08
1.1180135e-08
2.0003096e-09
3.863913e-10
4.5006325e-10
8.654421e-08
8.6543487e-08
8.6543984e-08
8.6544896e-08
8.6545777e-08
8.6546684e-08
8.6547589e-08
8.6548531e-08
8.6549465e-08
8.6550417e-08
8.655134e-08
8.6552249e-08
8.6553115e-08
8.6553967e-08
8.655479e-08
8.6555621e-08
8.6556479e-08
8.6557413e-08
8.6558409e-08
8.6559445e-08
8.6560468e-08
8.6561431e-08
8.656219e-08
8.656261e-08
8.6562626e-08
8.6562392e-08
8.6562145e-08
8.6562032e-08
8.6562007e-08
8.6562001e-08
8.6561951e-08
8.6561857e-08
8.6561687e-08
8.6561393e-08
8.6560889e-08
8.6560208e-08
8.6559533e-08
8.6559083e-08
8.6558845e-08
8.6558567e-08
8.6557804e-08
8.6555698e-08
8.6550822e-08
8.654329e-08
8.6541916e-08
8.657632e-08
8.6704657e-08
8.6993769e-08
8.7435513e-08
8.7766573e-08
8.7195911e-08
8.4119857e-08
7.6004666e-08
5.9739539e-08
3.5580294e-08
1.2915568e-08
2.3220593e-09
3.8180596e-10
4.0273905e-10
8.6933059e-08
8.6932639e-08
8.6933327e-08
8.693423e-08
8.6935132e-08
8.693605e-08
8.6936963e-08
8.6937911e-08
8.6938848e-08
8.6939794e-08
8.6940707e-08
8.6941604e-08
8.6942456e-08
8.694329e-08
8.6944097e-08
8.6944915e-08
8.6945764e-08
8.6946694e-08
8.6947685e-08
8.6948716e-08
8.6949734e-08
8.6950693e-08
8.6951445e-08
8.6951848e-08
8.6951836e-08
8.6951573e-08
8.6951315e-08
8.6951203e-08
8.6951181e-08
8.6951177e-08
8.6951127e-08
8.6951033e-08
8.6950869e-08
8.6950595e-08
8.6950126e-08
8.6949474e-08
8.6948797e-08
8.6948323e-08
8.6948073e-08
8.6947828e-08
8.6947213e-08
8.6945542e-08
8.6941444e-08
8.6934095e-08
8.6929039e-08
8.6949968e-08
8.7049821e-08
8.7301292e-08
8.7730482e-08
8.8152966e-08
8.7897545e-08
8.5479379e-08
7.8415775e-08
6.3293895e-08
3.931248e-08
1.5006923e-08
2.7492304e-09
3.8772388e-10
3.5915111e-10
8.7363096e-08
8.7362991e-08
8.7363811e-08
8.7364717e-08
8.7365628e-08
8.7366554e-08
8.7367472e-08
8.7368419e-08
8.7369349e-08
8.7370287e-08
8.7371189e-08
8.7372067e-08
8.7372901e-08
8.7373717e-08
8.737451e-08
8.7375316e-08
8.7376157e-08
8.7377083e-08
8.737807e-08
8.7379094e-08
8.7380107e-08
8.7381062e-08
8.7381803e-08
8.7382183e-08
8.7382136e-08
8.738184e-08
8.7381572e-08
8.7381463e-08
8.7381446e-08
8.7381445e-08
8.7381396e-08
8.7381302e-08
8.7381143e-08
8.7380888e-08
8.7380455e-08
8.7379837e-08
8.7379165e-08
8.7378669e-08
8.7378405e-08
8.7378183e-08
8.7377675e-08
8.7376367e-08
8.7373076e-08
8.7366423e-08
8.7359166e-08
8.7369031e-08
8.7441991e-08
8.7652033e-08
8.805284e-08
8.8534892e-08
8.8554713e-08
8.676841e-08
8.0769572e-08
6.6956888e-08
4.3422957e-08
1.7502062e-08
3.3027119e-09
4.0727623e-10
3.2259054e-10
8.7839835e-08
8.7840006e-08
8.784091e-08
8.7841831e-08
8.7842749e-08
8.7843677e-08
8.7844595e-08
8.7845537e-08
8.7846462e-08
8.7847385e-08
8.7848271e-08
8.7849129e-08
8.7849943e-08
8.785074e-08
8.7851518e-08
8.7852311e-08
8.7853143e-08
8.7854062e-08
8.7855042e-08
8.7856057e-08
8.7857063e-08
8.7858009e-08
8.7858734e-08
8.7859085e-08
8.7858994e-08
8.7858658e-08
8.7858382e-08
8.7858278e-08
8.7858266e-08
8.785827e-08
8.7858223e-08
8.785813e-08
8.7857976e-08
8.7857739e-08
8.7857342e-08
8.7856762e-08
8.7856103e-08
8.7855589e-08
8.7855312e-08
8.7855113e-08
8.785469e-08
8.7853671e-08
8.7851132e-08
8.7845469e-08
8.7837209e-08
8.783841e-08
8.7886907e-08
8.8053816e-08
8.8413125e-08
8.8923549e-08
8.9173756e-08
8.7986479e-08
8.2998981e-08
7.0707529e-08
4.7932983e-08
2.0502303e-08
4.0301891e-09
4.4406923e-10
2.9099433e-10
8.8369802e-08
8.837022e-08
8.8371149e-08
8.8372075e-08
8.8372988e-08
8.8373913e-08
8.8374828e-08
8.8375757e-08
8.8376668e-08
8.8377576e-08
8.8378444e-08
8.8379281e-08
8.8380072e-08
8.8380849e-08
8.838161e-08
8.8382388e-08
8.8383209e-08
8.8384119e-08
8.8385087e-08
8.8386088e-08
8.8387084e-08
8.8388019e-08
8.8388721e-08
8.8389033e-08
8.8388889e-08
8.8388506e-08
8.8388224e-08
8.8388127e-08
8.8388122e-08
8.838813e-08
8.8388086e-08
8.8387996e-08
8.8387845e-08
8.8387625e-08
8.8387263e-08
8.8386726e-08
8.8386086e-08
8.838556e-08
8.8385272e-08
8.8385102e-08
8.8384748e-08
8.8383942e-08
8.8382056e-08
8.8377555e-08
8.8369422e-08
8.8364597e-08
8.8392095e-08
8.8516227e-08
8.8823122e-08
8.9329994e-08
8.9754362e-08
8.9110683e-08
8.5214802e-08
7.4482335e-08
5.2821844e-08
2.4090838e-08
4.9903865e-09
5.0012764e-10
2.6422517e-10
8.8960822e-08
8.8961376e-08
8.8962311e-08
8.8963234e-08
8.8964138e-08
8.896505e-08
8.896595e-08
8.8966862e-08
8.8967756e-08
8.8968642e-08
8.8969484e-08
8.8970292e-08
8.8971052e-08
8.8971801e-08
8.8972537e-08
8.8973295e-08
8.8974099e-08
8.8974993e-08
8.8975942e-08
8.8976924e-08
8.8977904e-08
8.8978822e-08
8.8979491e-08
8.8979755e-08
8.8979545e-08
8.8979103e-08
8.8978822e-08
8.8978735e-08
8.8978737e-08
8.897875e-08
8.8978711e-08
8.8978625e-08
8.897848e-08
8.8978276e-08
8.8977948e-08
8.8977457e-08
8.8976845e-08
8.8976314e-08
8.8976021e-08
8.8975891e-08
8.8975612e-08
8.8974953e-08
8.8973577e-08
8.8970249e-08
8.8963129e-08
8.8954882e-08
8.8965682e-08
8.9049768e-08
8.9296869e-08
8.9770792e-08
9.0312138e-08
9.0138734e-08
8.728284e-08
7.8229493e-08
5.8053112e-08
2.8360114e-08
6.25537e-09
5.8458096e-10
2.4216091e-10
8.9622134e-08
8.9622793e-08
8.9623735e-08
8.9624646e-08
8.9625533e-08
8.9626429e-08
8.962731e-08
8.9628198e-08
8.9629064e-08
8.9629918e-08
8.9630725e-08
8.9631491e-08
8.9632208e-08
8.9632917e-08
8.9633621e-08
8.9634351e-08
8.9635131e-08
8.9636001e-08
8.9636921e-08
8.9637874e-08
8.9638834e-08
8.9639727e-08
8.9640352e-08
8.9640554e-08
8.964027e-08
8.9639743e-08
8.9639473e-08
8.9639401e-08
8.9639412e-08
8.9639429e-08
8.9639396e-08
8.9639316e-08
8.963918e-08
8.9638993e-08
8.96387e-08
8.9638256e-08
8.9637682e-08
8.9637155e-08
8.9636864e-08
8.9636789e-08
8.9636613e-08
8.9636058e-08
8.9635018e-08
8.963274e-08
8.9627207e-08
8.9617906e-08
8.9616854e-08
8.9665986e-08
8.9850316e-08
9.0265378e-08
9.0862572e-08
9.1075428e-08
8.9196544e-08
8.1843283e-08
6.356135e-08
3.3399321e-08
7.9395985e-09
7.0562737e-10
2.2502191e-10
9.0365163e-08
9.0365872e-08
9.0366802e-08
9.0367692e-08
9.0368555e-08
9.036942e-08
9.0370267e-08
9.0371113e-08
9.0371936e-08
9.0372739e-08
9.0373489e-08
9.0374194e-08
9.037485e-08
9.0375504e-08
9.037616e-08
9.0376852e-08
9.0377597e-08
9.037843e-08
9.0379306e-08
9.0380221e-08
9.0381152e-08
9.0382009e-08
9.0382572e-08
9.0382705e-08
9.0382301e-08
9.0381714e-08
9.0381438e-08
9.0381392e-08
9.0381408e-08
9.0381428e-08
9.0381403e-08
9.0381331e-08
9.0381207e-08
9.038104e-08
9.0380783e-08
9.0380388e-08
9.0379856e-08
9.0379341e-08
9.0379056e-08
9.0379049e-08
9.0379033e-08
9.0378585e-08
9.0377731e-08
9.0376226e-08
9.0372488e-08
9.036404e-08
9.0356072e-08
9.0377352e-08
9.0501085e-08
9.0838255e-08
9.143055e-08
9.1926746e-08
9.0930435e-08
8.5111017e-08
6.9252334e-08
3.9276562e-08
1.019464e-08
8.7507639e-10
2.1372136e-10
9.1203615e-08
9.120435e-08
9.120525e-08
9.1206101e-08
9.1206926e-08
9.1207738e-08
9.1208533e-08
9.1209318e-08
9.1210077e-08
9.1210803e-08
9.1211475e-08
9.1212093e-08
9.1212669e-08
9.1213246e-08
9.1213844e-08
9.1214482e-08
9.1215183e-08
9.121596e-08
9.1216778e-08
9.1217642e-08
9.1218537e-08
9.1219339e-08
9.1219828e-08
9.1219891e-08
9.1219284e-08
9.1218663e-08
9.121839e-08
9.121837e-08
9.121839e-08
9.121841e-08
9.1218395e-08
9.1218333e-08
9.1218229e-08
9.1218086e-08
9.1217874e-08
9.121753e-08
9.1217046e-08
9.1216544e-08
9.1216262e-08
9.1216322e-08
9.121656e-08
9.1216268e-08
9.121551e-08
9.1214457e-08
9.1212275e-08
9.1205959e-08
9.119559e-08
9.1197422e-08
9.1267759e-08
9.1517087e-08
9.2050875e-08
9.2710137e-08
9.2453207e-08
8.8351146e-08
7.4985599e-08
4.6019408e-08
1.3229876e-08
1.109694e-09
2.1091107e-10
9.2153523e-08
9.2154308e-08
9.2155182e-08
9.2155983e-08
9.2156752e-08
9.2157497e-08
9.2158226e-08
9.2158937e-08
9.2159615e-08
9.2160244e-08
9.2160815e-08
9.2161328e-08
9.2161806e-08
9.2162294e-08
9.2162825e-08
9.2163403e-08
9.2164048e-08
9.2164754e-08
9.2165495e-08
9.2166302e-08
9.2167152e-08
9.2167889e-08
9.216829e-08
9.2168225e-08
9.2167407e-08
9.2166758e-08
9.2166511e-08
9.2166501e-08
9.2166522e-08
9.2166539e-08
9.2166544e-08
9.2166491e-08
9.216641e-08
9.2166306e-08
9.2166151e-08
9.216587e-08
9.2165435e-08
9.2164946e-08
9.2164615e-08
9.2164733e-08
9.2165364e-08
9.2165329e-08
9.2164646e-08
9.2163719e-08
9.216256e-08
9.2158862e-08
9.2149634e-08
9.2140716e-08
9.2169113e-08
9.2330653e-08
9.2766454e-08
9.3481471e-08
9.3787217e-08
9.1234059e-08
8.0630577e-08
5.3588442e-08
1.731852e-08
1.4676635e-09
2.199819e-10
9.3231379e-08
9.3232316e-08
9.323317e-08
9.3233924e-08
9.3234641e-08
9.3235331e-08
9.3236003e-08
9.3236648e-08
9.3237247e-08
9.3237774e-08
9.323824e-08
9.3238641e-08
9.3239017e-08
9.3239413e-08
9.3239883e-08
9.3240425e-08
9.3241036e-08
9.3241657e-08
9.3242319e-08
9.3243081e-08
9.32439e-08
9.3244571e-08
9.324493e-08
9.3244621e-08
9.3243571e-08
9.3242963e-08
9.3242777e-08
9.3242754e-08
9.3242781e-08
9.3242796e-08
9.3242821e-08
9.3242786e-08
9.3242733e-08
9.3242676e-08
9.3242602e-08
9.3242407e-08
9.3242014e-08
9.3241503e-08
9.3241103e-08
9.3241307e-08
9.3242221e-08
9.3242776e-08
9.32422e-08
9.3241099e-08
9.3240245e-08
9.3238894e-08
9.3232961e-08
9.3220984e-08
9.3221598e-08
9.3305405e-08
9.3618457e-08
9.428825e-08
9.4976995e-08
9.3783146e-08
8.5936282e-08
6.1865229e-08
2.2763164e-08
2.0447563e-09
2.3853743e-10
6.1984495e-10
6.4917081e-10
6.6715183e-10
6.7968563e-10
6.8999399e-10
6.9909067e-10
7.0693689e-10
7.1321328e-10
7.1763484e-10
7.1998901e-10
7.2009434e-10
7.1775045e-10
7.1272594e-10
7.0473958e-10
6.9345927e-10
6.7850425e-10
6.594614e-10
6.3590943e-10
6.0745192e-10
5.7378628e-10
5.34698e-10
4.9041067e-10
4.4164003e-10
3.8899147e-10
3.3340698e-10
2.7604697e-10
2.187683e-10
1.6322002e-10
1.1131026e-10
6.691521e-11
3.2128195e-11
8.9575574e-12
6.4818075e-13
5.1035105e-12
2.1080665e-11
5.1505792e-11
9.8395303e-11
1.5693e-10
2.1467512e-10
2.745844e-10
3.3829344e-10
4.0493444e-10
4.7462072e-10
5.4394633e-10
6.1128226e-10
6.765124e-10
7.3927755e-10
7.9857407e-10
8.5333735e-10
9.0331348e-10
9.4889271e-10
9.9048542e-10
1.0285331e-09
1.0633714e-09
1.0948417e-09
1.1230893e-09
1.1487498e-09
1.1722649e-09
1.1938312e-09
1.2135715e-09
1.2316191e-09
1.2482151e-09
1.2635207e-09
1.2775604e-09
1.2903802e-09
1.3020734e-09
1.3127426e-09
1.3224812e-09
1.3313777e-09
1.3395106e-09
1.3469592e-09
1.3537764e-09
1.3600494e-09
1.3657531e-09
4.6617552e-10
4.9281009e-10
5.176376e-10
5.4080216e-10
5.6104589e-10
5.7818398e-10
5.9236772e-10
6.0378086e-10
6.1255068e-10
6.1877668e-10
6.2253604e-10
6.2387458e-10
6.2276207e-10
6.1910197e-10
6.1270525e-10
6.0331951e-10
5.9062248e-10
5.7425686e-10
5.5385324e-10
5.290815e-10
4.9966535e-10
4.6517861e-10
4.249827e-10
3.7959382e-10
3.3075774e-10
2.7991588e-10
2.2862419e-10
1.7905383e-10
1.328229e-10
9.1387953e-11
5.8364266e-11
3.273276e-11
1.4594539e-11
7.2443573e-12
1.244137e-11
2.7290758e-11
5.2990558e-11
8.9172011e-11
1.3006881e-10
1.7391311e-10
2.2055563e-10
2.695723e-10
3.2130203e-10
3.7442448e-10
4.2740246e-10
4.7936956e-10
5.3012918e-10
5.7929244e-10
6.2614678e-10
6.7017626e-10
7.1119916e-10
7.4922964e-10
7.844115e-10
8.169163e-10
8.4700727e-10
8.7445174e-10
8.9944992e-10
9.2227932e-10
9.4317186e-10
9.6231575e-10
9.7985806e-10
9.9593843e-10
1.0107142e-09
1.0242996e-09
1.036785e-09
1.0482546e-09
1.0587869e-09
1.0684578e-09
1.077336e-09
1.0854875e-09
1.0929728e-09
1.0998457e-09
1.1061678e-09
1.1119602e-09
1.3569887e-09
1.1311051e-09
9.4986968e-10
8.0702056e-10
7.0032457e-10
6.2489276e-10
5.7370498e-10
5.427225e-10
5.279075e-10
5.2434241e-10
5.2755492e-10
5.3403675e-10
5.4128172e-10
5.4752195e-10
5.5156952e-10
5.5268217e-10
5.5040797e-10
5.4447152e-10
5.3467866e-10
5.2086788e-10
5.0289638e-10
4.8059753e-10
4.536763e-10
4.2202167e-10
3.8608964e-10
3.4669891e-10
3.0484769e-10
2.6205268e-10
2.1906703e-10
1.7748554e-10
1.3838644e-10
1.047279e-10
7.6711669e-11
5.5166961e-11
3.9075169e-11
3.6450041e-11
4.0428126e-11
5.1402541e-11
6.7751737e-11
8.863545e-11
1.1342026e-10
1.4131771e-10
1.7181788e-10
2.0432538e-10
2.3811792e-10
2.7253415e-10
3.0710121e-10
3.4143378e-10
3.751481e-10
4.0789834e-10
4.3941385e-10
4.6950591e-10
4.9806344e-10
5.2504349e-10
5.502807e-10
5.7376827e-10
5.9556613e-10
6.1576166e-10
6.3444412e-10
6.517193e-10
6.6766173e-10
6.8242641e-10
6.9611212e-10
7.0879178e-10
7.2053337e-10
7.314011e-10
7.4145527e-10
7.5075314e-10
7.5934854e-10
7.6729199e-10
7.7463117e-10
7.8140937e-10
7.8767177e-10
7.9344874e-10
6.5290553e-09
4.649756e-09
3.3509679e-09
2.4891218e-09
1.9303624e-09
1.5562235e-09
1.2937319e-09
1.0922496e-09
9.2494329e-10
7.9369903e-10
6.9626662e-10
6.2445699e-10
5.7463436e-10
5.426793e-10
5.2423382e-10
5.1523824e-10
5.1200859e-10
5.1164962e-10
5.1191374e-10
5.1092039e-10
5.0666554e-10
4.9803277e-10
4.8511045e-10
4.6799652e-10
4.4682895e-10
4.2191038e-10
3.9371136e-10
3.6286016e-10
3.3059009e-10
2.9773867e-10
2.6447798e-10
2.3193926e-10
2.0111587e-10
1.7294646e-10
1.4638548e-10
1.2526327e-10
1.0981836e-10
1.0011444e-10
9.5147702e-11
9.5136922e-11
9.8189026e-11
1.0399431e-10
1.1183274e-10
1.2187687e-10
1.3377092e-10
1.4713897e-10
1.6163355e-10
1.7693899e-10
1.927712e-10
2.0887764e-10
2.2503827e-10
2.4106634e-10
2.5680971e-10
2.7214516e-10
2.8697144e-10
3.0121053e-10
3.1480802e-10
3.2772984e-10
3.3995949e-10
3.514948e-10
3.6234392e-10
3.7252555e-10
3.8206263e-10
3.9098128e-10
3.9930994e-10
4.0707791e-10
4.1431478e-10
4.2104994e-10
4.2731233e-10
4.3313015e-10
4.3853106e-10
4.4354001e-10
4.4818746e-10
4.5248082e-10
2.1862093e-08
1.6389135e-08
1.2024215e-08
8.717049e-09
6.3125852e-09
4.6074119e-09
3.4411055e-09
2.6495991e-09
2.0822812e-09
1.689057e-09
1.407108e-09
1.1965264e-09
1.0307461e-09
8.9351696e-10
7.8033331e-10
6.9411597e-10
6.2812413e-10
5.7967971e-10
5.4552896e-10
5.2388445e-10
5.1259808e-10
5.0740099e-10
5.0491535e-10
5.0089541e-10
4.9398857e-10
4.8401586e-10
4.7109709e-10
4.553353e-10
4.3716009e-10
4.1708289e-10
3.9550932e-10
3.726308e-10
3.4962394e-10
3.2400417e-10
3.0202787e-10
2.7973434e-10
2.5869056e-10
2.3947542e-10
2.231611e-10
2.0987686e-10
1.9954803e-10
1.914317e-10
1.8538678e-10
1.817653e-10
1.7947115e-10
1.7831477e-10
1.7816723e-10
1.7890222e-10
1.8039679e-10
1.8252701e-10
1.8517458e-10
1.8823088e-10
1.9159793e-10
1.9518931e-10
1.989293e-10
2.0275272e-10
2.0660415e-10
2.1043718e-10
2.1421411e-10
2.1790502e-10
2.2148684e-10
2.2494245e-10
2.2825914e-10
2.3142812e-10
2.3444419e-10
2.3730498e-10
2.4001025e-10
2.4256153e-10
2.4496172e-10
2.4721481e-10
2.493257e-10
2.5129924e-10
2.5314359e-10
2.5485376e-10
4.3942321e-08
3.583381e-08
2.8367877e-08
2.1927232e-08
1.6629566e-08
1.2439654e-08
9.2448015e-09
6.8904422e-09
5.1650428e-09
3.924179e-09
3.0361818e-09
2.4076341e-09
1.9590193e-09
1.6218903e-09
1.3749694e-09
1.1870838e-09
1.0388095e-09
9.1781274e-10
8.1282651e-10
7.2861629e-10
6.6157863e-10
6.0895276e-10
5.7294986e-10
5.4975407e-10
5.3557237e-10
5.2705326e-10
5.2148562e-10
5.1544132e-10
5.0806721e-10
4.9922317e-10
4.8905321e-10
4.7765958e-10
4.6529765e-10
4.5239981e-10
4.3864503e-10
4.2456111e-10
4.103748e-10
3.9635652e-10
3.8181563e-10
3.6792159e-10
3.5585596e-10
3.4504349e-10
3.3552527e-10
3.2721094e-10
3.1997492e-10
3.1397335e-10
3.0886401e-10
3.0417759e-10
3.0007092e-10
2.9652481e-10
2.9348385e-10
2.9088968e-10
2.8868664e-10
2.8682734e-10
2.8526427e-10
2.8396597e-10
2.8288374e-10
2.8198061e-10
2.8122853e-10
2.8060435e-10
2.8008813e-10
2.7966301e-10
2.7931474e-10
2.7903081e-10
2.7880046e-10
2.7861443e-10
2.784648e-10
2.7834481e-10
2.7824872e-10
2.7817172e-10
2.7810969e-10
2.7805932e-10
2.7801753e-10
2.7798191e-10
6.3636729e-08
5.5802203e-08