/*--------------------------------*- C++ -*----------------------------------*\
| =========                 |                                                 |
| \\      /  F ield         | OpenFOAM: The Open Source CFD Toolbox           |
|  \\    /   O peration     | Version:  v2006                                 |
|   \\  /    A nd           | Website:  www.openfoam.com                      |
|    \\/     M anipulation  |                                                 |
\*---------------------------------------------------------------------------*/
FoamFile
{
    version     2.0;
    format      ascii;
    class       volScalarField;
    location    "5000";
    object      nutMean;
}
// * * * * * * * * * * * * * * * * * * * * * * * * * * * * * * * * * * * * * //

dimensions      [0 2 -1 0 0 0 0];


internalField   nonuniform List<scalar> 
55713
(
3.4068139e-10
2.9669436e-09
2.8955439e-08
6.9332465e-08
8.9591007e-08
9.5644112e-08
9.5886651e-08
9.5042727e-08
9.4483649e-08
9.4278726e-08
9.4245178e-08
9.4256593e-08
9.4267722e-08
9.427207e-08
9.4272833e-08
9.4272898e-08
9.4272914e-08
9.4273082e-08
9.4273366e-08
9.427351e-08
9.4273364e-08
9.4273057e-08
9.4272721e-08
9.4272402e-08
9.4272152e-08
9.4272024e-08
9.4271951e-08
9.4271857e-08
9.4271711e-08
9.4271521e-08
9.4271309e-08
9.4271079e-08
9.4270866e-08
9.4270763e-08
9.4270919e-08
9.4271451e-08
9.4271576e-08
9.4271149e-08
9.4270377e-08
9.4269435e-08
9.426853e-08
9.4267697e-08
9.4266783e-08
9.426572e-08
9.4264612e-08
9.4263535e-08
9.4262501e-08
9.4261517e-08
9.4260576e-08
9.4259642e-08
9.4258678e-08
9.4257658e-08
9.4256589e-08
9.425551e-08
9.425444e-08
9.4253391e-08
9.4252358e-08
9.4251236e-08
9.4249972e-08
4.069296e-10
4.2677224e-09
3.600295e-08
7.6181085e-08
9.30274e-08
9.6951197e-08
9.6583422e-08
9.5759811e-08
9.5330788e-08
9.5205856e-08
9.5199139e-08
9.5212531e-08
9.5220269e-08
9.5222131e-08
9.5221968e-08
9.5221602e-08
9.52212e-08
9.5220991e-08
9.5220914e-08
9.5220636e-08
9.5220056e-08
9.5219338e-08
9.5218627e-08
9.5217952e-08
9.521737e-08
9.5216914e-08
9.5216502e-08
9.5216065e-08
9.5215585e-08
9.5215061e-08
9.5214514e-08
9.5213943e-08
9.5213374e-08
9.5212894e-08
9.5212666e-08
9.5212951e-08
9.5212872e-08
9.5212125e-08
9.5211009e-08
9.5209688e-08
9.5208392e-08
9.5207204e-08
9.5205955e-08
9.5204516e-08
9.5202991e-08
9.5201482e-08
9.5200005e-08
9.5198561e-08
9.5197148e-08
9.519573e-08
9.5194262e-08
9.5192709e-08
9.519106e-08
9.5189353e-08
9.5187611e-08
9.5185827e-08
9.5183999e-08
9.518201e-08
9.5179782e-08
5.0005279e-10
5.9837219e-09
4.3513774e-08
8.2289719e-08
9.5701316e-08
9.801978e-08
9.7306848e-08
9.6568557e-08
9.6259847e-08
9.6194333e-08
9.6202325e-08
9.6214337e-08
9.6218496e-08
9.6218431e-08
9.6217808e-08
9.6217048e-08
9.6216244e-08
9.621567e-08
9.6215212e-08
9.6214494e-08
9.6213494e-08
9.6212401e-08
9.6211338e-08
9.6210327e-08
9.6209435e-08
9.6208667e-08
9.6207929e-08
9.6207166e-08
9.6206366e-08
9.6205527e-08
9.6204663e-08
9.6203774e-08
9.6202876e-08
9.6202034e-08
9.6201435e-08
9.620144e-08
9.620123e-08
9.6200206e-08
9.619877e-08
9.619709e-08
9.619542e-08
9.6193896e-08
9.619235e-08
9.6190576e-08
9.6188662e-08
9.6186753e-08
9.6184865e-08
9.6182998e-08
9.6181151e-08
9.6179289e-08
9.6177363e-08
9.6175328e-08
9.6173156e-08
9.617088e-08
9.616853e-08
9.6166086e-08
9.6163541e-08
9.6160776e-08
9.6157662e-08
6.3292463e-10
8.3235689e-09
5.1654285e-08
8.7790575e-08
9.7935736e-08
9.8971713e-08
9.8083605e-08
9.7474512e-08
9.727401e-08
9.7249847e-08
9.7263463e-08
9.7271576e-08
9.727252e-08
9.7271648e-08
9.7270735e-08
9.7269552e-08
9.7268358e-08
9.7267466e-08
9.7266641e-08
9.7265509e-08
9.7264121e-08
9.7262678e-08
9.7261289e-08
9.7259974e-08
9.7258804e-08
9.7257745e-08
9.7256706e-08
9.7255643e-08
9.7254549e-08
9.7253422e-08
9.7252268e-08
9.7251087e-08
9.724989e-08
9.7248724e-08
9.7247767e-08
9.7247475e-08
9.7247193e-08
9.7245947e-08
9.7244224e-08
9.7242214e-08
9.7240187e-08
9.7238346e-08
9.7236545e-08
9.7234487e-08
9.7232222e-08
9.7229943e-08
9.7227683e-08
9.7225427e-08
9.7223183e-08
9.7220916e-08
9.7218576e-08
9.7216109e-08
9.7213468e-08
9.7210671e-08
9.7207767e-08
9.7204725e-08
9.7201522e-08
9.7198055e-08
9.7194128e-08
8.2345024e-10
1.1428772e-08
6.0139412e-08
9.2534284e-08
9.9766787e-08
9.986279e-08
9.8947029e-08
9.8486586e-08
9.8372393e-08
9.8372673e-08
9.8385324e-08
9.8388839e-08
9.8388061e-08
9.8386873e-08
9.8385609e-08
9.838399e-08
9.8382454e-08
9.8381289e-08
9.8380113e-08
9.8378588e-08
9.8376839e-08
9.8375076e-08
9.8373393e-08
9.8371813e-08
9.8370395e-08
9.8369073e-08
9.8367759e-08
9.8366426e-08
9.8365068e-08
9.8363684e-08
9.8362271e-08
9.8360831e-08
9.8359369e-08
9.8357921e-08
9.8356639e-08
9.8356031e-08
9.835571e-08
9.8354338e-08
9.8352367e-08
9.835006e-08
9.8347701e-08
9.8345564e-08
9.8343553e-08
9.8341281e-08
9.8338713e-08
9.8336105e-08
9.8333519e-08
9.8330923e-08
9.8328334e-08
9.8325715e-08
9.8323019e-08
9.8320185e-08
9.8317146e-08
9.8313901e-08
9.8310515e-08
9.830696e-08
9.8303188e-08
9.8299122e-08
9.8294486e-08
1.0996268e-09
1.549868e-08
6.8702455e-08
9.6113103e-08
1.0129622e-07
1.0075566e-07
9.9921654e-08
9.9607464e-08
9.9554772e-08
9.9565908e-08
9.95738e-08
9.9574191e-08
9.9572583e-08
9.9571208e-08
9.9569538e-08
9.9567506e-08
9.95657e-08
9.9564308e-08
9.9562801e-08
9.9560912e-08
9.9558838e-08
9.9556791e-08
9.9554856e-08
9.9553059e-08
9.9551428e-08
9.9549874e-08
9.954832e-08
9.9546755e-08
9.954517e-08
9.9543564e-08
9.9541932e-08
9.9540273e-08
9.9538588e-08
9.9536903e-08
9.9535343e-08
9.9534423e-08
9.9534046e-08
9.9532692e-08
9.9530521e-08
9.9527959e-08
9.9525299e-08
9.9522887e-08
9.9520714e-08
9.9518311e-08
9.9515504e-08
9.9512614e-08
9.950976e-08
9.9506883e-08
9.9504009e-08
9.9501102e-08
9.9498115e-08
9.9494991e-08
9.949164e-08
9.9488031e-08
9.9484248e-08
9.9480283e-08
9.9476041e-08
9.9471498e-08
9.9466271e-08
1.5054367e-09
2.0743188e-08
7.695114e-08
9.8991705e-08
1.0254214e-07
1.0169029e-07
1.0102585e-07
1.0083758e-07
1.0082279e-07
1.0083429e-07
1.0083762e-07
1.0083611e-07
1.0083422e-07
1.0083266e-07
1.0083056e-07
1.0082816e-07
1.0082618e-07
1.008246e-07
1.0082279e-07
1.0082058e-07
1.0081822e-07
1.0081593e-07
1.008138e-07
1.0081184e-07
1.0081004e-07
1.0080829e-07
1.0080654e-07
1.0080479e-07
1.0080302e-07
1.0080124e-07
1.0079943e-07
1.007976e-07
1.0079575e-07
1.0079388e-07
1.007921e-07
1.0079089e-07
1.0079042e-07
1.0078925e-07
1.0078695e-07
1.0078418e-07
1.0078126e-07
1.007786e-07
1.0077632e-07
1.0077388e-07
1.0077092e-07
1.0076781e-07
1.0076476e-07
1.0076167e-07
1.0075859e-07
1.0075547e-07
1.0075228e-07
1.0074895e-07
1.007454e-07
1.0074153e-07
1.0073745e-07
1.0073321e-07
1.0072862e-07
1.0072375e-07
1.0071808e-07
2.1171475e-09
2.7384165e-08
8.5020353e-08
1.0201103e-07
1.0364337e-07
1.0273691e-07
1.0227188e-07
1.0217543e-07
1.021802e-07
1.0218697e-07
1.0218687e-07
1.0218441e-07
1.0218255e-07
1.0218072e-07
1.0217821e-07
1.0217553e-07
1.0217347e-07
1.0217176e-07
1.0216968e-07
1.0216719e-07
1.0216459e-07
1.0216213e-07
1.0215988e-07
1.0215781e-07
1.0215588e-07
1.0215399e-07
1.021521e-07
1.0215022e-07
1.0214832e-07
1.0214642e-07
1.021445e-07
1.0214255e-07
1.0214058e-07
1.021386e-07
1.0213666e-07
1.0213522e-07
1.0213463e-07
1.0213377e-07
1.0213148e-07
1.0212857e-07
1.0212544e-07
1.0212256e-07
1.0212021e-07
1.0211787e-07
1.0211486e-07
1.021116e-07
1.0210844e-07
1.0210524e-07
1.0210204e-07
1.0209882e-07
1.0209551e-07
1.020921e-07
1.0208847e-07
1.0208449e-07
1.0208023e-07
1.0207585e-07
1.0207108e-07
1.0206606e-07
1.0206013e-07
3.083527e-09
3.5629177e-08
9.2210955e-08
1.0431032e-07
1.0475741e-07
1.0395773e-07
1.0366232e-07
1.0362422e-07
1.0363313e-07
1.0363518e-07
1.0363333e-07
1.0363058e-07
1.0362883e-07
1.0362668e-07
1.0362382e-07
1.0362098e-07
1.0361894e-07
1.0361717e-07
1.0361487e-07
1.0361214e-07
1.0360936e-07
1.0360682e-07
1.0360454e-07
1.0360243e-07
1.0360043e-07
1.0359846e-07
1.035965e-07
1.0359455e-07
1.0359259e-07
1.0359063e-07
1.0358867e-07
1.0358669e-07
1.0358468e-07
1.0358265e-07
1.0358065e-07
1.0357904e-07
1.0357835e-07
1.0357783e-07
1.035758e-07
1.0357282e-07
1.0356953e-07
1.035665e-07
1.0356412e-07
1.0356201e-07
1.0355911e-07
1.035558e-07
1.0355264e-07
1.0354942e-07
1.0354623e-07
1.0354303e-07
1.0353974e-07
1.0353637e-07
1.0353281e-07
1.035289e-07
1.0352462e-07
1.035203e-07
1.0351553e-07
1.0351057e-07
1.0350461e-07
4.7240068e-09
4.5627431e-08
9.8566305e-08
1.0631165e-07
1.0598708e-07
1.0535742e-07
1.0519485e-07
1.0518887e-07
1.0519481e-07
1.0519328e-07
1.0519081e-07
1.0518807e-07
1.0518647e-07
1.0518401e-07
1.0518089e-07
1.0517804e-07
1.0517614e-07
1.051744e-07
1.0517191e-07
1.0516899e-07
1.0516615e-07
1.0516365e-07
1.0516142e-07
1.0515936e-07
1.0515736e-07
1.0515539e-07
1.0515344e-07
1.051515e-07
1.0514957e-07
1.0514765e-07
1.0514572e-07
1.0514379e-07
1.0514184e-07
1.0513987e-07
1.0513791e-07
1.0513623e-07
1.0513546e-07
1.0513528e-07
1.0513384e-07
1.051309e-07
1.0512752e-07
1.0512442e-07
1.0512208e-07
1.051203e-07
1.051177e-07
1.0511447e-07
1.0511146e-07
1.0510837e-07
1.0510532e-07
1.0510231e-07
1.0509919e-07
1.0509604e-07
1.0509273e-07
1.0508912e-07
1.0508501e-07
1.0508096e-07
1.0507648e-07
1.0507183e-07
1.0506612e-07
7.4363152e-09
5.7407069e-08
1.0381283e-07
1.0808876e-07
1.0737813e-07
1.069466e-07
1.0687425e-07
1.0688012e-07
1.0688082e-07
1.0687754e-07
1.0687532e-07
1.0687268e-07
1.0687129e-07
1.0686855e-07
1.0686532e-07
1.0686266e-07
1.0686105e-07
1.0685945e-07
1.0685677e-07
1.0685374e-07
1.0685101e-07
1.0684871e-07
1.0684664e-07
1.068447e-07
1.068428e-07
1.0684095e-07
1.0683911e-07
1.068373e-07
1.0683551e-07
1.0683372e-07
1.0683194e-07
1.0683017e-07
1.0682839e-07
1.0682661e-07
1.068248e-07
1.068232e-07
1.0682239e-07
1.0682256e-07
1.0682203e-07
1.0681936e-07
1.0681592e-07
1.0681286e-07
1.0681068e-07
1.0680932e-07
1.068073e-07
1.0680428e-07
1.0680163e-07
1.0679882e-07
1.0679609e-07
1.0679349e-07
1.0679074e-07
1.0678802e-07
1.0678517e-07
1.0678212e-07
1.0677847e-07
1.0677493e-07
1.0677106e-07
1.0676701e-07
1.0676193e-07
1.1313544e-08
7.0912073e-08
1.072698e-07
1.096968e-07
1.089725e-07
1.0872946e-07
1.0870701e-07
1.0871229e-07
1.0870941e-07
1.087061e-07
1.0870463e-07
1.0870203e-07
1.0870101e-07
1.0869803e-07
1.0869498e-07
1.0869274e-07
1.0869165e-07
1.0869023e-07
1.086874e-07
1.0868444e-07
1.0868205e-07
1.086801e-07
1.0867832e-07
1.0867662e-07
1.0867496e-07
1.0867335e-07
1.0867177e-07
1.0867022e-07
1.0866869e-07
1.0866719e-07
1.0866569e-07
1.0866422e-07
1.0866275e-07
1.0866129e-07
1.0865981e-07
1.0865845e-07
1.0865772e-07
1.0865821e-07
1.0865878e-07
1.086568e-07
1.0865339e-07
1.086505e-07
1.0864864e-07
1.0864775e-07
1.0864664e-07
1.0864399e-07
1.0864198e-07
1.0863965e-07
1.0863743e-07
1.0863551e-07
1.0863336e-07
1.0863131e-07
1.0862918e-07
1.0862696e-07
1.0862417e-07
1.086214e-07
1.0861858e-07
1.0861541e-07
1.086114e-07
1.7050406e-08
8.6066435e-08
1.0958813e-07
1.1120563e-07
1.1079109e-07
1.107022e-07
1.1069956e-07
1.1070016e-07
1.1069687e-07
1.1069452e-07
1.10694e-07
1.106915e-07
1.1069105e-07
1.1068813e-07
1.1068561e-07
1.1068412e-07
1.1068371e-07
1.1068253e-07
1.106797e-07
1.106772e-07
1.1067542e-07
1.1067398e-07
1.1067263e-07
1.1067135e-07
1.1067011e-07
1.1066892e-07
1.1066776e-07
1.1066664e-07
1.1066555e-07
1.1066449e-07
1.1066345e-07
1.1066245e-07
1.1066146e-07
1.106605e-07
1.1065954e-07
1.1065865e-07
1.1065821e-07
1.1065889e-07
1.1066051e-07
1.1065972e-07
1.1065663e-07
1.1065412e-07
1.1065277e-07
1.1065241e-07
1.1065243e-07
1.1065037e-07
1.1064933e-07
1.1064771e-07
1.1064622e-07
1.1064521e-07
1.1064397e-07
1.1064283e-07
1.1064171e-07
1.1064058e-07
1.1063903e-07
1.1063734e-07
1.1063592e-07
1.1063408e-07
1.106316e-07
2.4980866e-08
1.0255179e-07
1.1276751e-07
1.1294063e-07
1.1284762e-07
1.1284201e-07
1.1284269e-07
1.1284148e-07
1.1283932e-07
1.1283831e-07
1.1283851e-07
1.1283661e-07
1.1283648e-07
1.1283457e-07
1.1283306e-07
1.128326e-07
1.1283277e-07
1.1283203e-07
1.1282993e-07
1.1282853e-07
1.1282767e-07
1.1282696e-07
1.1282628e-07
1.1282564e-07
1.1282505e-07
1.128245e-07
1.1282398e-07
1.128235e-07
1.1282304e-07
1.1282263e-07
1.1282224e-07
1.1282189e-07
1.1282156e-07
1.1282127e-07
1.12821e-07
1.1282077e-07
1.1282078e-07
1.1282135e-07
1.1282338e-07
1.1282379e-07
1.1282186e-07
1.1282042e-07
1.128199e-07
1.1282014e-07
1.128207e-07
1.1282008e-07
1.1282019e-07
1.1281964e-07
1.1281927e-07
1.1281928e-07
1.1281926e-07
1.1281924e-07
1.128193e-07
1.1281939e-07
1.1281933e-07
1.1281912e-07
1.1281924e-07
1.1281906e-07
1.1281865e-07
8.5578479e-08
8.5576311e-08
8.5574861e-08
8.5576184e-08
8.5576823e-08
8.5577712e-08
8.5578545e-08
8.5579423e-08
8.5580327e-08
8.5581247e-08
8.5582166e-08
8.5583079e-08
8.558399e-08
8.5584916e-08
8.5585864e-08
8.5586832e-08
8.5587805e-08
8.5588771e-08
8.5589715e-08
8.5590628e-08
8.5591494e-08
8.5592278e-08
8.55929e-08
8.5593275e-08
8.5593382e-08
8.5593295e-08
8.5593141e-08
8.5593029e-08
8.5592989e-08
8.5592992e-08
8.5592986e-08
8.559295e-08
8.5592901e-08
8.5592861e-08
8.5592818e-08
8.5592728e-08
8.5592544e-08
8.5592251e-08
8.5591884e-08
8.5591408e-08
8.5590281e-08
8.5586978e-08
8.5579915e-08
8.5572335e-08
8.558267e-08
8.5655644e-08
8.5857209e-08
8.6223828e-08
8.6636057e-08
8.6612296e-08
8.5073498e-08
8.0202645e-08
6.9341922e-08
5.0630209e-08
2.7018808e-08
8.663061e-09
1.7178436e-09
5.3339612e-10
7.3092092e-10
8.5868967e-08
8.5867089e-08
8.5866716e-08
8.5867777e-08
8.586856e-08
8.5869415e-08
8.5870272e-08
8.5871158e-08
8.5872068e-08
8.587299e-08
8.5873908e-08
8.5874818e-08
8.5875726e-08
8.5876648e-08
8.5877593e-08
8.5878559e-08
8.5879531e-08
8.5880495e-08
8.588144e-08
8.588235e-08
8.5883213e-08
8.588399e-08
8.5884603e-08
8.5884966e-08
8.588506e-08
8.588496e-08
8.5884801e-08
8.588469e-08
8.588465e-08
8.5884647e-08
8.5884633e-08
8.5884589e-08
8.5884534e-08
8.5884489e-08
8.5884443e-08
8.5884353e-08
8.5884177e-08
8.5883901e-08
8.5883529e-08
8.5882962e-08
8.5881639e-08
8.5878235e-08
8.5871632e-08
8.5865257e-08
8.5876203e-08
8.5945413e-08
8.6134602e-08
8.6483311e-08
8.6895318e-08
8.6942145e-08
8.5617553e-08
8.1136298e-08
7.0969476e-08
5.2856772e-08
2.9069658e-08
9.6555236e-09
1.8600946e-09
4.9419789e-10
6.5488268e-10
8.6188681e-08
8.6187014e-08
8.6187052e-08
8.618803e-08
8.6188867e-08
8.6189725e-08
8.6190597e-08
8.6191495e-08
8.6192414e-08
8.6193341e-08
8.6194262e-08
8.6195173e-08
8.6196081e-08
8.6197002e-08
8.6197945e-08
8.619891e-08
8.6199881e-08
8.6200846e-08
8.620179e-08
8.6202696e-08
8.6203554e-08
8.6204328e-08
8.6204937e-08
8.6205295e-08
8.6205382e-08
8.6205273e-08
8.6205109e-08
8.6204996e-08
8.6204955e-08
8.620495e-08
8.6204934e-08
8.6204887e-08
8.6204828e-08
8.6204782e-08
8.6204742e-08
8.6204666e-08
8.6204505e-08
8.6204235e-08
8.6203874e-08
8.6203404e-08
8.6202435e-08
8.6199758e-08
8.6193745e-08
8.6185716e-08
8.618837e-08
8.6237472e-08
8.6394905e-08
8.6717511e-08
8.7157231e-08
8.7369722e-08
8.6453164e-08
8.2704787e-08
7.3568744e-08
5.6313834e-08
3.2224701e-08
1.1184404e-08
2.0921724e-09
4.6988505e-10
5.8080495e-10
8.6540917e-08
8.6539544e-08
8.6539985e-08
8.6540899e-08
8.6541778e-08
8.6542639e-08
8.6543524e-08
8.654443e-08
8.6545355e-08
8.6546284e-08
8.6547204e-08
8.6548112e-08
8.6549016e-08
8.6549933e-08
8.6550874e-08
8.6551836e-08
8.6552806e-08
8.655377e-08
8.655471e-08
8.6555611e-08
8.6556463e-08
8.655723e-08
8.655783e-08
8.6558177e-08
8.655825e-08
8.6558127e-08
8.6557957e-08
8.6557844e-08
8.6557804e-08
8.6557798e-08
8.6557779e-08
8.6557728e-08
8.6557664e-08
8.6557616e-08
8.6557581e-08
8.6557517e-08
8.6557372e-08
8.6557116e-08
8.6556759e-08
8.6556309e-08
8.6555499e-08
8.6553326e-08
8.6548127e-08
8.6540046e-08
8.6538299e-08
8.6572958e-08
8.6702164e-08
8.6991799e-08
8.7431744e-08
8.775614e-08
8.717196e-08
8.4075825e-08
7.5938781e-08
5.9666737e-08
3.5535772e-08
1.2927221e-08
2.4020011e-09
4.5693595e-10
5.1902915e-10
8.6929663e-08
8.6928672e-08
8.692937e-08
8.6930261e-08
8.6931158e-08
8.6932028e-08
8.6932921e-08
8.6933834e-08
8.6934761e-08
8.6935689e-08
8.6936605e-08
8.6937507e-08
8.6938405e-08
8.6939317e-08
8.6940254e-08
8.6941212e-08
8.6942179e-08
8.694314e-08
8.6944075e-08
8.6944968e-08
8.694581e-08
8.6946568e-08
8.6947157e-08
8.694749e-08
8.6947544e-08
8.6947404e-08
8.6947227e-08
8.6947116e-08
8.6947078e-08
8.6947072e-08
8.6947052e-08
8.6946998e-08
8.6946929e-08
8.6946879e-08
8.6946849e-08
8.6946799e-08
8.6946674e-08
8.6946434e-08
8.6946086e-08
8.6945662e-08
8.6945009e-08
8.6943331e-08
8.6938976e-08
8.6931073e-08
8.6925519e-08
8.6946479e-08
8.7047014e-08
8.7299094e-08
8.7727126e-08
8.8144389e-08
8.7877702e-08
8.5442023e-08
7.8358258e-08
6.3228174e-08
3.9272552e-08
1.502753e-08
2.8226561e-09
4.5570783e-10
4.6267357e-10
8.7359585e-08
8.7359066e-08
8.7359923e-08
8.7360809e-08
8.7361713e-08
8.736259e-08
8.7363489e-08
8.7364405e-08
8.736533e-08
8.7366253e-08
8.7367161e-08
8.7368053e-08
8.7368942e-08
8.7369846e-08
8.7370777e-08
8.737173e-08
8.7372693e-08
8.7373648e-08
8.7374575e-08
8.7375455e-08
8.7376286e-08
8.7377032e-08
8.7377606e-08
8.7377919e-08
8.7377949e-08
8.7377788e-08
8.7377602e-08
8.7377494e-08
8.737746e-08
8.7377456e-08
8.7377435e-08
8.7377378e-08
8.7377305e-08
8.7377252e-08
8.7377227e-08
8.7377193e-08
8.737709e-08
8.7376872e-08
8.7376536e-08
8.7376123e-08
8.7375577e-08
8.7374317e-08
8.737085e-08
8.7363663e-08
8.735581e-08
8.7365499e-08
8.7438942e-08
8.7649607e-08
8.8049747e-08
8.8527771e-08
8.8538303e-08
8.6736966e-08
8.0719781e-08
6.6897745e-08
4.3384952e-08
1.7525369e-08
3.3737106e-09
4.6963894e-10
4.1524538e-10
8.7836282e-08
8.7836184e-08
8.7837129e-08
8.7838025e-08
8.7838927e-08
8.7839809e-08
8.784071e-08
8.7841624e-08
8.7842544e-08
8.7843456e-08
8.784435e-08
8.7845228e-08
8.7846104e-08
8.7846997e-08
8.7847919e-08
8.7848864e-08
8.7849819e-08
8.7850765e-08
8.7851678e-08
8.7852542e-08
8.7853358e-08
8.7854089e-08
8.7854643e-08
8.785493e-08
8.7854929e-08
8.7854741e-08
8.7854547e-08
8.7854444e-08
8.7854415e-08
8.7854413e-08
8.7854392e-08
8.7854333e-08
8.7854256e-08
8.7854201e-08
8.7854181e-08
8.7854164e-08
8.7854086e-08
8.7853897e-08
8.7853578e-08
8.7853175e-08
8.7852701e-08
8.7851778e-08
8.7849158e-08
8.7843006e-08
8.7834077e-08
8.7834914e-08
8.788369e-08
8.80512e-08
8.8410227e-08
8.8917613e-08
8.9160201e-08
8.7960076e-08
8.2956789e-08
7.0654542e-08
4.7895928e-08
2.0522033e-08
4.0978245e-09
5.0066652e-10
3.7413969e-10
8.8366301e-08
8.8366527e-08
8.8367507e-08
8.8368411e-08
8.8369306e-08
8.8370189e-08
8.8371086e-08
8.8371992e-08
8.8372899e-08
8.8373795e-08
8.8374669e-08
8.8375527e-08
8.8376385e-08
8.8377263e-08
8.8378171e-08
8.8379103e-08
8.8380045e-08
8.8380977e-08
8.838187e-08
8.8382712e-08
8.8383508e-08
8.838422e-08
8.8384749e-08
8.8385002e-08
8.8384963e-08
8.8384742e-08
8.8384539e-08
8.8384442e-08
8.838442e-08
8.8384421e-08
8.83844e-08
8.8384341e-08
8.838426e-08
8.8384202e-08
8.8384188e-08
8.8384189e-08
8.8384141e-08
8.8383986e-08
8.8383694e-08
8.8383302e-08
8.8382868e-08
8.8382197e-08
8.8380337e-08
8.8375428e-08
8.836658e-08
8.8361219e-08
8.8388787e-08
8.8513455e-08
8.8820366e-08
8.9325027e-08
8.9743195e-08
8.9088542e-08
8.5178466e-08
7.4435094e-08
5.2785778e-08
2.4106471e-08
5.0546807e-09
5.5523422e-10
3.3943306e-10
8.8957391e-08
8.895784e-08
8.8958828e-08
8.8959731e-08
8.8960615e-08
8.896149e-08
8.8962375e-08
8.8963266e-08
8.8964152e-08
8.8965023e-08
8.8965869e-08
8.8966698e-08
8.896753e-08
8.8968386e-08
8.8969273e-08
8.8970186e-08
8.8971109e-08
8.8972019e-08
8.8972884e-08
8.8973696e-08
8.8974468e-08
8.8975154e-08
8.897565e-08
8.8975862e-08
8.8975773e-08
8.8975511e-08
8.89753e-08
8.8975212e-08
8.8975197e-08
8.8975201e-08
8.8975183e-08
8.8975124e-08
8.8975041e-08
8.8974981e-08
8.8974971e-08
8.8974994e-08
8.8974981e-08
8.8974869e-08
8.8974614e-08
8.8974239e-08
8.8973826e-08
8.8973323e-08
8.8972091e-08
8.8968474e-08
8.8960626e-08
8.895169e-08
8.8962346e-08
8.9046867e-08
8.9294208e-08
8.9766623e-08
9.030297e-08
9.0120188e-08
8.725176e-08
7.8187506e-08
5.8018012e-08
2.8371419e-08
6.3195978e-09
6.3872628e-10
3.1077695e-10
8.9618873e-08
8.9619464e-08
8.9620441e-08
8.9621333e-08
8.9622196e-08
8.9623054e-08
8.9623918e-08
8.9624783e-08
8.9625638e-08
8.9626471e-08
8.9627277e-08
8.9628066e-08
8.9628862e-08
8.9629686e-08
8.9630544e-08
8.9631428e-08
8.9632324e-08
8.9633201e-08
8.9634025e-08
8.9634799e-08
8.9635539e-08
8.9636192e-08
8.9636646e-08
8.9636805e-08
8.9636653e-08
8.963634e-08
8.9636124e-08
8.9636046e-08
8.9636038e-08
8.9636046e-08
8.9636031e-08
8.9635975e-08
8.9635892e-08
8.963583e-08
8.9635827e-08
8.9635875e-08
8.9635902e-08
8.9635841e-08
8.9635638e-08
8.9635294e-08
8.9634895e-08
8.9634491e-08
8.9633724e-08
8.9631312e-08
8.9625082e-08
8.9614966e-08
8.9613543e-08
8.9662969e-08
8.9847699e-08
9.0261867e-08
9.0855105e-08
9.1059904e-08
8.9169874e-08
8.1806235e-08
6.3527636e-08
3.3404801e-08
8.0036408e-09
7.6180151e-10
2.8835525e-10
9.036206e-08
9.0362733e-08
9.0363683e-08
9.0364549e-08
9.036538e-08
9.0366208e-08
9.0367036e-08
9.036786e-08
9.0368669e-08
9.0369449e-08
9.0370199e-08
9.0370933e-08
9.0371679e-08
9.0372459e-08
9.0373274e-08
9.0374118e-08
9.0374974e-08
9.0375801e-08
9.0376569e-08
9.0377293e-08
9.0377993e-08
9.0378604e-08
9.0379002e-08
9.0379096e-08
9.0378862e-08
9.0378484e-08
9.0378267e-08
9.0378203e-08
9.0378202e-08
9.0378214e-08
9.0378203e-08
9.0378152e-08
9.0378073e-08
9.0378011e-08
9.0378014e-08
9.0378093e-08
9.0378168e-08
9.0378169e-08
9.0378036e-08
9.0377742e-08
9.0377363e-08
9.0377011e-08
9.0376551e-08
9.0375129e-08
9.0370783e-08
9.036143e-08
9.0352856e-08
9.0374246e-08
9.0498467e-08
9.0835284e-08
9.1424582e-08
9.1913816e-08
9.0907427e-08
8.507906e-08
6.922078e-08
3.9275495e-08
1.0255334e-08
9.3565242e-10
2.7297392e-10
9.120064e-08
9.1201366e-08
9.1202274e-08
9.1203099e-08
9.1203886e-08
9.1204667e-08
9.1205442e-08
9.1206209e-08
9.1206951e-08
9.1207659e-08
9.1208334e-08
9.1208996e-08
9.1209676e-08
9.1210396e-08
9.1211154e-08
9.1211942e-08
9.121274e-08
9.1213497e-08
9.1214189e-08
9.1214849e-08
9.1215499e-08
9.1216055e-08
9.1216382e-08
9.1216397e-08
9.1216049e-08
9.1215599e-08
9.1215381e-08
9.121534e-08
9.1215344e-08
9.1215359e-08
9.1215354e-08
9.1215312e-08
9.1215241e-08
9.1215183e-08
9.1215194e-08
9.1215307e-08
9.1215441e-08
9.1215519e-08
9.1215477e-08
9.121526e-08
9.1214916e-08
9.1214598e-08
9.1214317e-08
9.1213612e-08
9.1211036e-08
9.1203763e-08
9.119253e-08
9.1194244e-08
9.1265073e-08
9.151452e-08
9.2046244e-08
9.2699573e-08
9.243318e-08
8.8322497e-08
7.4956992e-08
4.6012993e-08
1.3281077e-08
1.1796763e-09
2.669158e-10
9.2150706e-08
9.2151486e-08
9.2152362e-08
9.215313e-08
9.2153858e-08
9.2154575e-08
9.2155284e-08
9.2155978e-08
9.2156637e-08
9.2157254e-08
9.2157836e-08
9.2158411e-08
9.2159012e-08
9.215966e-08
9.2160349e-08
9.2161068e-08
9.2161786e-08
9.2162449e-08
9.2163043e-08
9.216363e-08
9.2164224e-08
9.2164712e-08
9.2164958e-08
9.2164869e-08
9.2164347e-08
9.2163854e-08
9.2163641e-08
9.2163616e-08
9.2163626e-08
9.2163643e-08
9.2163651e-08
9.2163621e-08
9.2163564e-08
9.2163515e-08
9.2163544e-08
9.2163692e-08
9.2163888e-08
9.2164058e-08
9.2164133e-08
9.2164023e-08
9.2163739e-08
9.2163453e-08
9.2163275e-08
9.216301e-08
9.2161812e-08
9.2157178e-08
9.2146808e-08
9.2137495e-08
9.2166283e-08
9.2328323e-08
9.2762988e-08
9.3473191e-08
9.376993e-08
9.1207755e-08
8.0604354e-08
5.3580701e-08
1.7354921e-08
1.5439603e-09
2.7559767e-10
9.3228714e-08
9.3229651e-08
9.3230502e-08
9.3231213e-08
9.3231886e-08
9.323255e-08
9.3233201e-08
9.3233829e-08
9.3234409e-08
9.3234935e-08
9.3235425e-08
9.3235913e-08
9.3236439e-08
9.3237017e-08
9.3237642e-08
9.3238303e-08
9.3238951e-08
9.3239507e-08
9.3239994e-08
9.3240516e-08
9.3241068e-08
9.3241497e-08
9.3241664e-08
9.3241394e-08
9.3240688e-08
9.3240208e-08
9.3240021e-08
9.3239998e-08
9.3240015e-08
9.3240038e-08
9.3240063e-08
9.3240054e-08
9.3240018e-08
9.3239987e-08
9.324004e-08
9.3240223e-08
9.3240471e-08
9.3240737e-08
9.3240949e-08
9.3240983e-08
9.3240786e-08
9.3240527e-08
9.3240397e-08
9.3240355e-08
9.3240029e-08
9.3237835e-08
9.3230457e-08
9.3217756e-08
9.3218551e-08
9.330311e-08
9.3615909e-08
9.4282186e-08
9.4962558e-08
9.3758518e-08
8.5910634e-08
6.1860881e-08
2.2799433e-08
2.1250078e-09
2.968215e-10
8.0369452e-10
8.4300763e-10
8.6835754e-10
8.8681262e-10
9.0259241e-10
9.1712979e-10
9.3044715e-10
9.4218532e-10
9.5202083e-10
9.5974307e-10
9.6516928e-10
9.681214e-10
9.683735e-10
9.6564008e-10
9.5954739e-10
9.496482e-10
9.354153e-10
9.1628398e-10
8.9167375e-10
8.6105329e-10
8.2396283e-10
7.8017515e-10
7.2978343e-10
6.7326017e-10
6.1134746e-10
5.4501525e-10
4.7560074e-10
4.0497068e-10
3.3470868e-10
2.6758179e-10
2.0603615e-10
1.5233702e-10
1.0895136e-10
7.754871e-11
5.7537513e-11
4.9222386e-11
5.3527888e-11
6.9452944e-11
9.3732284e-11
1.2386906e-10
1.5877161e-10
1.9724323e-10
2.3837525e-10
2.8119696e-10
3.2432135e-10
3.6708798e-10
4.0894752e-10
4.495167e-10
4.8835984e-10
5.2510353e-10
5.5956455e-10
5.9168549e-10
6.2148433e-10
6.4905215e-10
6.7447631e-10
6.9781406e-10
7.1919319e-10
7.3879954e-10
7.568051e-10
7.7336112e-10
7.8859934e-10
8.0263903e-10
8.1559251e-10
8.2755449e-10
8.3860382e-10
8.4881173e-10
8.5824706e-10
8.6697368e-10
8.7505216e-10
8.8253542e-10
8.894773e-10
8.9591445e-10
9.019056e-10
9.0742479e-10
5.9091733e-10
6.3318996e-10
6.7202269e-10
7.0613145e-10
7.3498248e-10
7.5920793e-10
7.7958922e-10
7.9669122e-10
8.1085169e-10
8.2230057e-10
8.3119269e-10
8.3761965e-10
8.4158703e-10
8.4300894e-10
8.4169103e-10
8.3734045e-10
8.2956413e-10
8.1789773e-10
8.018257e-10
7.8083536e-10
7.5443206e-10
7.2223204e-10
6.8365155e-10
6.3838023e-10
5.8684318e-10
5.3011274e-10
4.6969947e-10
4.0742452e-10
3.4516622e-10
2.8482987e-10
2.2845605e-10
1.7849554e-10
1.3502979e-10
9.9775334e-11
7.4463975e-11
5.8290774e-11
5.1638263e-11
5.4426609e-11
6.5390998e-11
8.2492115e-11
1.044011e-10
1.2996045e-10
1.5834875e-10
1.8888222e-10
2.2073788e-10
2.531816e-10
2.8559994e-10
3.1760463e-10
3.4879181e-10
3.7884369e-10
4.0752424e-10
4.3468329e-10
4.6024188e-10
4.8417873e-10
5.0652847e-10
5.2732535e-10
5.465977e-10
5.6441081e-10
5.8085172e-10
5.9601509e-10
6.0999594e-10
6.2288448e-10
6.347676e-10
6.4572709e-10
6.5583691e-10
6.6516473e-10
6.7377159e-10
6.8171497e-10
6.8904641e-10
6.9581468e-10
7.0206392e-10
7.0783375e-10
7.1316935e-10
7.1808324e-10
1.4781749e-09
1.2457221e-09
1.0589705e-09
9.1689235e-10
8.1469701e-10
7.4559251e-10
7.0315946e-10
6.8274824e-10
6.7891092e-10
6.8592208e-10
6.9896768e-10
7.1451634e-10
7.3007184e-10
7.4395164e-10
7.5510569e-10
7.6293102e-10
7.670921e-10
7.6737575e-10
7.6358362e-10
7.5549023e-10
7.4281946e-10
7.2530167e-10
7.0258233e-10
6.7429626e-10
6.4028798e-10
6.0076984e-10
5.5634937e-10
5.0802319e-10
4.5698679e-10
4.0449499e-10
3.5202618e-10
3.012719e-10
2.5388682e-10
2.1075268e-10
1.7343521e-10
1.4274632e-10
1.1985748e-10
1.0425093e-10
9.5535856e-11
9.244908e-11
9.4652118e-11
1.0120164e-10
1.1134141e-10
1.2439893e-10
1.3971165e-10
1.566891e-10
1.748322e-10
1.9373724e-10
2.1302667e-10
2.3237617e-10
2.5151699e-10
2.7025188e-10
2.8843597e-10
3.0591647e-10
3.2258484e-10
3.3836966e-10
3.5326244e-10
3.6726007e-10
3.8036316e-10
3.9260025e-10
4.0400591e-10
4.1462033e-10
4.2448964e-10
4.3365857e-10
4.4217029e-10
4.5006636e-10
4.5738648e-10
4.6416881e-10
4.7044958e-10
4.7626314e-10
4.8164218e-10
4.8661646e-10
4.9121792e-10
4.954636e-10
6.5799245e-09
4.7381337e-09
3.4706338e-09
2.6318132e-09
2.0876794e-09
1.7165251e-09
1.4420918e-09
1.2257717e-09
1.0488781e-09
9.1717177e-10
8.2155726e-10
7.5589982e-10
7.1531511e-10
6.9438662e-10
6.8776739e-10
6.9061704e-10
6.989989e-10
7.0976613e-10
7.2021721e-10
7.2806669e-10
7.3153081e-10
7.3031379e-10
7.2453174e-10
7.141725e-10
6.9914625e-10
6.7941787e-10
6.55103e-10
6.2651322e-10
5.942441e-10
5.5908762e-10
5.2181236e-10
4.831638e-10
4.4416935e-10
4.0568197e-10
3.6846713e-10
3.3335228e-10
3.0138527e-10
2.7320676e-10
2.4913513e-10
2.299756e-10
2.1472433e-10
2.0308963e-10
1.9485278e-10
1.8956202e-10
1.8680043e-10
1.8616851e-10
1.8725593e-10
1.8977783e-10
1.9347603e-10
1.9810999e-10
2.0345223e-10
2.0930573e-10
2.1552208e-10
2.219724e-10
2.2853759e-10
2.3511714e-10
2.4162972e-10
2.4801405e-10
2.5422109e-10
2.6021363e-10
2.6596502e-10
2.7145738e-10
2.7668009e-10
2.8162826e-10
2.8630173e-10
2.9070389e-10
2.9484081e-10
2.9872065e-10
3.0235295e-10
3.0574826e-10
3.0891794e-10
3.118724e-10
3.1462807e-10
3.1717841e-10
2.1799095e-08
1.6358129e-08
1.2027341e-08
8.7502747e-09
6.3785572e-09
4.7191386e-09
3.5862246e-09
2.8022746e-09
2.2518212e-09
1.8619862e-09
1.5735707e-09
1.3492826e-09
1.1687451e-09
1.0213504e-09
9.0873047e-10
8.2507664e-10
7.6596634e-10
7.2802408e-10
7.0758173e-10
7.0212813e-10
7.0621022e-10
7.1460901e-10
7.2301288e-10
7.2876014e-10
7.3131245e-10
7.3054695e-10
7.2637552e-10
7.1873461e-10
7.0767824e-10
6.9342752e-10
6.7631418e-10
6.5668711e-10
6.3502671e-10
6.1168299e-10
5.8704897e-10
5.6223273e-10
5.3718606e-10
5.1282498e-10
4.8975407e-10
4.6813634e-10
4.482153e-10
4.301468e-10
4.1399475e-10
4.0007554e-10
3.8825921e-10
3.7831213e-10
3.6999476e-10
3.630379e-10
3.5724656e-10
3.5241698e-10
3.4842203e-10
3.4517256e-10
3.4257732e-10
3.4054679e-10
3.3899444e-10
3.3785172e-10
3.3705145e-10
3.365335e-10
3.3624988e-10
3.3615869e-10
3.3622316e-10
3.3641216e-10
3.3669965e-10
3.3706363e-10
3.3748574e-10
3.379506e-10
3.3844558e-10
3.3896044e-10
3.3948698e-10
3.4001861e-10
3.4055043e-10
3.4107779e-10
3.4160074e-10
3.4210554e-10
4.3824137e-08
3.5709345e-08
2.8251729e-08
2.1830064e-08
1.6559752e-08
1.2412573e-08
9.2697064e-09
6.9460471e-09
5.2560657e-09
4.0461076e-09
3.1840868e-09
2.570514e-09
2.1222726e-09
1.789626e-09
1.5374978e-09
1.3390313e-09
1.1780168e-09
1.0452492e-09
9.3759583e-10
8.55954e-10
7.9712431e-10
7.5990118e-10
7.415632e-10
7.359534e-10
7.381247e-10
7.4396123e-10
7.5020325e-10
7.5524628e-10
7.585626e-10
7.5993363e-10
7.592883e-10
7.5664884e-10
7.5209986e-10
7.4586654e-10
7.3813682e-10
7.2913709e-10
7.1919209e-10
7.0850314e-10
6.9716129e-10
6.8535077e-10
6.7356663e-10
6.6207575e-10
6.5095249e-10
6.4032783e-10
6.3037629e-10
6.212389e-10
6.1294137e-10
6.054198e-10
5.9861019e-10
5.9245568e-10
5.869043e-10
5.8191644e-10
5.7743762e-10
5.7341871e-10
5.6981656e-10
5.6659352e-10
5.6371453e-10
5.6114783e-10
5.5886117e-10
5.5682516e-10
5.5501424e-10
5.5340562e-10
5.5197869e-10
5.5071485e-10
5.4959764e-10
5.4861198e-10
5.4774407e-10
5.4698286e-10
5.4631838e-10
5.4574182e-10
5.4524528e-10
5.4482222e-10
5.4446617e-10
5.4417455e-10
6.3519313e-08