/*--------------------------------*- C++ -*----------------------------------*\
| =========                 |                                                 |
| \\      /  F ield         | OpenFOAM: The Open Source CFD Toolbox           |
|  \\    /   O peration     | Version:  v2006                                 |
|   \\  /    A nd           | Website:  www.openfoam.com                      |
|    \\/     M anipulation  |                                                 |
\*---------------------------------------------------------------------------*/
FoamFile
{
    version     2.0;
    format      ascii;
    class       volScalarField;
    location    "5000";
    object      omega;
}
// * * * * * * * * * * * * * * * * * * * * * * * * * * * * * * * * * * * * * //

dimensions      [0 0 -1 0 0 0 0];


internalField   nonuniform List<scalar> 
55713
(
5.6488945
1.3888157
0.45952161
0.29936865
0.26964719
0.26238333
0.26188482
0.26264562
0.26320387
0.26342814
0.26347498
0.2634675
0.26345589
0.26345055
0.26345073
0.26345138
0.26345119
0.26345094
0.26345092
0.26345041
0.26344938
0.26344822
0.263447
0.26344579
0.2634446
0.26344335
0.26344194
0.26344036
0.26343856
0.26343651
0.26343433
0.26343203
0.26342962
0.26342713
0.26342454
0.2634217
0.26341847
0.26341485
0.26341095
0.26340689
0.26340278
0.26339849
0.26339375
0.26338861
0.26338347
0.26337851
0.26337355
0.26336851
0.26336335
0.26335803
0.2633525
0.26334673
0.26334078
0.26333471
0.26332847
0.26332217
0.26331626
0.26331116
0.26330657
5.1536955
1.2777053
0.43862299
0.30195174
0.27782379
0.27271725
0.2728101
0.2736121
0.27407971
0.2742287
0.27424026
0.27422116
0.2742054
0.27419698
0.27419286
0.27418846
0.27418289
0.27417781
0.27417338
0.27416861
0.27416332
0.27415779
0.27415226
0.27414685
0.27414157
0.27413628
0.27413087
0.27412532
0.2741196
0.27411362
0.27410753
0.27410129
0.27409493
0.27408851
0.27408202
0.27407531
0.2740681
0.27406034
0.27405218
0.27404376
0.27403528
0.27402664
0.27401742
0.27400756
0.2739975
0.27398748
0.27397732
0.27396688
0.27395611
0.27394493
0.27393323
0.27392093
0.27390801
0.27389451
0.27388027
0.27386522
0.27384968
0.27383397
0.27381812
4.7199328
1.1857758
0.42334291
0.30681086
0.2877057
0.28415246
0.28465904
0.28545948
0.28583034
0.28591279
0.28589764
0.28587075
0.28585156
0.28583979
0.28583082
0.28582081
0.28580984
0.28579993
0.28579107
0.28578201
0.28577239
0.28576243
0.2857525
0.28574285
0.28573343
0.28572405
0.2857146
0.28570505
0.28569539
0.28568547
0.28567543
0.28566525
0.28565493
0.28564455
0.28563414
0.28562357
0.28561244
0.28560055
0.2855881
0.28557533
0.28556247
0.28554949
0.28553588
0.28552137
0.28550641
0.28549138
0.28547608
0.28546031
0.285444
0.28542704
0.2854093
0.28539061
0.28537086
0.28535006
0.28532803
0.28530446
0.28527952
0.28525348
0.28522655
4.3379216
1.1020819
0.41220667
0.31372577
0.29890857
0.29676685
0.29761367
0.29835631
0.29861895
0.29864504
0.29861154
0.29858025
0.29855826
0.29854248
0.2985282
0.29851255
0.2984963
0.29848164
0.2984684
0.2984551
0.29844115
0.29842679
0.29841253
0.2983987
0.29838519
0.29837176
0.29835833
0.29834482
0.29833126
0.29831745
0.29830354
0.29828948
0.29827528
0.29826098
0.2982467
0.29823238
0.2982175
0.29820156
0.29818487
0.29816776
0.29815054
0.2981333
0.29811546
0.29809645
0.29807667
0.2980567
0.29803636
0.29801535
0.29799361
0.29797098
0.29794732
0.29792237
0.29789593
0.29786795
0.29783826
0.29780633
0.29777212
0.2977359
0.297698
3.9998229
1.0265256
0.40514741
0.32284312
0.31162537
0.31072457
0.31179754
0.31242838
0.31258584
0.31256962
0.31252564
0.31249174
0.31246694
0.31244645
0.31242651
0.31240526
0.31238396
0.31236473
0.31234721
0.31232966
0.31231139
0.31229268
0.31227423
0.31225634
0.31223886
0.31222148
0.31220416
0.31218679
0.31216942
0.31215184
0.31213417
0.31211635
0.31209837
0.31208029
0.31206226
0.31204433
0.31202601
0.31200621
0.31198541
0.31196406
0.31194257
0.31192122
0.3118994
0.31187618
0.31185179
0.31182704
0.31180187
0.31177587
0.31174894
0.31172091
0.31169161
0.31166074
0.31162794
0.31159309
0.31155611
0.31151625
0.31147319
0.31142725
0.31137882
3.6992465
0.95793431
0.40199625
0.33566535
0.32602272
0.32620682
0.32737104
0.32784889
0.32791661
0.32787065
0.32782261
0.3277871
0.32775903
0.32773342
0.32770774
0.32768115
0.32765524
0.32763175
0.32761003
0.3275882
0.32756565
0.32754278
0.32752039
0.32749866
0.32747742
0.3274563
0.32743528
0.32741426
0.32739327
0.32737213
0.3273509
0.32732953
0.327308
0.32728634
0.32726474
0.3272434
0.32722212
0.32719882
0.32717414
0.32714874
0.32712317
0.32709791
0.32707247
0.3270455
0.32701684
0.32698759
0.32695794
0.32692732
0.32689561
0.32686258
0.32682808
0.32679178
0.32675315
0.32671193
0.32666819
0.32662106
0.32656976
0.32651481
0.32645652
3.4309539
0.89551458
0.40270744
0.35097728
0.34257153
0.34346392
0.34452278
0.34483103
0.34483074
0.34476983
0.34472046
0.34468337
0.34465157
0.3446208
0.34458954
0.34455812
0.34452821
0.34450086
0.34447497
0.34444882
0.34442215
0.34439552
0.34436958
0.34434439
0.34431968
0.34429513
0.34427073
0.34424637
0.3442221
0.34419774
0.34417329
0.34414872
0.34412399
0.34409911
0.34407426
0.3440498
0.34402617
0.34399999
0.34397181
0.3439427
0.34391334
0.3438845
0.34385597
0.34382593
0.34379358
0.34376028
0.34372669
0.34369203
0.34365615
0.34361877
0.34357973
0.34353875
0.34349512
0.34344834
0.34339862
0.34334525
0.3432867
0.34322382
0.34315677
3.1906452
0.83860238
0.40727744
0.36643569
0.36140158
0.36266209
0.36348818
0.36364762
0.36359849
0.36353372
0.36348467
0.3634459
0.36341043
0.36337482
0.36333851
0.36330298
0.36326989
0.36323916
0.36320914
0.3631788
0.36314847
0.36311869
0.3630898
0.36306164
0.36303394
0.36300641
0.36297911
0.3629519
0.36292485
0.36289776
0.36287064
0.3628434
0.36281603
0.36278848
0.36276092
0.36273385
0.3627084
0.36268047
0.36264946
0.36261712
0.36258446
0.36255253
0.3625216
0.36248953
0.36245437
0.36241775
0.36238101
0.36234316
0.36230405
0.36226328
0.36222069
0.36217611
0.36212869
0.36207761
0.36202306
0.36196494
0.36190064
0.36183142
0.36175728
2.9748384
0.78668134
0.41562502
0.38513451
0.38261585
0.38399671
0.38458327
0.38462882
0.38455706
0.38449172
0.38444295
0.38440223
0.38436361
0.38432392
0.38428348
0.38424478
0.38420958
0.38417621
0.38414243
0.38410846
0.38407529
0.38404318
0.38401209
0.38398163
0.38395161
0.38392181
0.38389234
0.38386302
0.38383394
0.38380486
0.38377586
0.38374674
0.38371755
0.38368817
0.38365871
0.38362979
0.38360314
0.38357513
0.3835424
0.38350763
0.38347235
0.38343808
0.3834057
0.38337309
0.3833364
0.38329758
0.38325891
0.38321908
0.38317807
0.38313534
0.38309065
0.38304403
0.38299453
0.38294107
0.38288337
0.38282263
0.38275481
0.38268157
0.38260279
2.780878
0.73935763
0.42795169
0.40686253
0.40654048
0.40787597
0.40822464
0.40819293
0.40811469
0.40805142
0.40800332
0.40796088
0.40792
0.40787738
0.40783419
0.40779361
0.40775801
0.40772347
0.40768709
0.40765058
0.40761557
0.4075821
0.40754974
0.40751794
0.40748662
0.40745562
0.40742505
0.4073947
0.40736469
0.40733475
0.40730499
0.40727514
0.40724535
0.40721535
0.40718523
0.4071556
0.40712875
0.40710239
0.40707012
0.40703413
0.40699719
0.40696171
0.40692917
0.40689805
0.40686181
0.4068224
0.40678358
0.40674353
0.40670252
0.40665991
0.4066152
0.4065688
0.40651964
0.40646662
0.40640828
0.40634783
0.40627986
0.40620582
0.40612602
2.6066032
0.69633715
0.44532502
0.43230718
0.43367293
0.43477966
0.43492736
0.43485936
0.43478589
0.43472585
0.43467847
0.43463491
0.43459357
0.43454984
0.43450563
0.43446501
0.43443193
0.43439893
0.43436198
0.43432429
0.43428855
0.43425497
0.43422265
0.43419099
0.43415992
0.4341293
0.43409923
0.43406946
0.43404013
0.43401094
0.43398206
0.43395317
0.43392451
0.43389565
0.43386672
0.43383809
0.43381242
0.43378954
0.4337614
0.43372618
0.43368886
0.43365388
0.43362318
0.43359565
0.43356316
0.43352541
0.43348908
0.43345134
0.43341302
0.43337353
0.43333186
0.43328887
0.43324345
0.43319484
0.43313992
0.43308349
0.43302052
0.43295004
0.43287449
2.4496156
0.65750096
0.47162744
0.46252182
0.46459726
0.46532892
0.46534273
0.46527587
0.46521048
0.46515553
0.46511025
0.46506742
0.46502908
0.46498739
0.46494463
0.46490642
0.46487914
0.46485151
0.46481648
0.46477953
0.46474522
0.46471359
0.46468353
0.46465432
0.46462585
0.46459795
0.46457069
0.46454383
0.46451752
0.46449146
0.46446585
0.46444033
0.46441522
0.46439007
0.46436503
0.46433998
0.4643176
0.46430015
0.46428093
0.46425026
0.4642144
0.4641822
0.46415614
0.46413464
0.46411089
0.46407784
0.46404785
0.46401594
0.4639841
0.46395199
0.46391774
0.46388253
0.46384563
0.4638065
0.46376159
0.46371373
0.46366343
0.46360226
0.46353844
2.3087512
0.62273174
0.50601643
0.49857167
0.5000029
0.50029286
0.50024875
0.50020086
0.50014918
0.50010519
0.50006611
0.50002992
0.50000057
0.49996666
0.4999299
0.49989787
0.49987642
0.49985598
0.49982603
0.49979484
0.49976689
0.4997415
0.49971746
0.49969432
0.4996719
0.49965015
0.49962907
0.49960853
0.4995886
0.49956909
0.49955017
0.49953154
0.49951346
0.49949557
0.49947805
0.49946057
0.49944502
0.49943535
0.49942909
0.49941
0.49937912
0.49935279
0.49933472
0.49932293
0.49931251
0.49928931
0.49927097
0.49924952
0.49922926
0.49920988
0.49918928
0.49916728
0.49914543
0.49912172
0.49909544
0.49906255
0.49903423
0.49899135
0.49894925
2.1825592
0.59146999
0.54115012
0.5400562
0.5404225
0.54040989
0.54037906
0.54035442
0.54032138
0.54029869
0.54027488
0.54025374
0.54024314
0.5402248
0.54019935
0.54017904
0.54016217
0.54014726
0.54013078
0.54011532
0.54010124
0.54008808
0.54007549
0.54006361
0.54005233
0.54004175
0.54003176
0.54002241
0.54001364
0.54000548
0.53999792
0.53999092
0.53998448
0.53997855
0.53997314
0.5399681
0.53996402
0.53996429
0.53997086
0.53997216
0.53995579
0.53994337
0.53993906
0.53994066
0.53994317
0.53993893
0.53993982
0.53993439
0.5399327
0.53993275
0.53993247
0.53993104
0.53993105
0.53993006
0.53992962
0.53992379
0.53992415
0.53991477
0.53990749
0.1790077
0.17900658
0.17900533
0.17900882
0.17901141
0.17901455
0.1790177
0.17902093
0.17902419
0.17902742
0.17903061
0.17903373
0.17903677
0.17903971
0.17904256
0.17904532
0.17904801
0.17905066
0.17905326
0.17905575
0.17905807
0.17906014
0.17906193
0.17906346
0.17906481
0.17906599
0.17906695
0.17906763
0.17906805
0.1790682
0.17906808
0.17906767
0.17906698
0.17906602
0.17906478
0.17906324
0.17906145
0.17905947
0.17905733
0.17905503
0.17905285
0.17905149
0.17905161
0.17905134
0.17904138
0.17900032
0.17889716
0.17871185
0.1784843
0.17839819
0.1789236
0.18114618
0.18856511
0.21033326
0.27235406
0.45030615
0.99073171
3.1730233
15.454149
0.18146168
0.18146083
0.18146139
0.18146449
0.18146738
0.18147051
0.18147373
0.18147699
0.18148027
0.18148352
0.18148672
0.18148984
0.18149288
0.18149582
0.18149867
0.18150144
0.18150415
0.18150682
0.18150944
0.18151195
0.18151427
0.18151633
0.18151812
0.18151966
0.18152102
0.1815222
0.18152315
0.18152381
0.18152421
0.18152434
0.1815242
0.18152377
0.18152307
0.18152209
0.18152083
0.18151928
0.18151747
0.18151548
0.18151334
0.18151107
0.18150897
0.18150765
0.18150759
0.18150687
0.18149672
0.18145693
0.18135739
0.18117566
0.18094224
0.18082271
0.18126587
0.18338049
0.19012912
0.21034283
0.26865989
0.43779402
0.95612675
3.0655536
14.652222
0.18418599
0.18418542
0.18418664
0.18418965
0.18419267
0.18419584
0.18419913
0.18420245
0.18420577
0.18420905
0.18421228
0.18421542
0.18421848
0.18422143
0.1842243
0.18422707
0.1842298
0.1842325
0.18423515
0.18423767
0.18423999
0.18424206
0.18424385
0.1842454
0.18424678
0.18424798
0.18424893
0.1842496
0.18425
0.18425014
0.18425001
0.1842496
0.18424891
0.18424796
0.18424672
0.18424519
0.18424342
0.18424146
0.18423933
0.18423705
0.1842348
0.18423318
0.18423297
0.18423327
0.18422718
0.18419634
0.18410997
0.18393845
0.18369506
0.1835171
0.18380497
0.1855398
0.19132897
0.20928346
0.26236784
0.41919968
0.90838807
2.907914
13.854288
0.1872207
0.18722043
0.18722235
0.1872253
0.18722842
0.18723165
0.18723499
0.18723834
0.18724169
0.18724499
0.18724823
0.18725137
0.18725444
0.18725739
0.18726025
0.18726304
0.18726578
0.18726849
0.18727115
0.18727368
0.18727599
0.18727805
0.18727984
0.18728139
0.18728278
0.18728398
0.18728493
0.18728559
0.18728599
0.18728613
0.18728601
0.1872856
0.18728493
0.18728398
0.18728277
0.18728126
0.18727951
0.18727758
0.18727549
0.18727323
0.18727092
0.18726908
0.18726857
0.18726914
0.18726548
0.18724144
0.18716703
0.1870079
0.186762
0.18653868
0.18669863
0.18813592
0.19312684
0.20907708
0.25726351
0.40254844
0.86338676
2.7564716
13.063647
0.19061097
0.19061111
0.19061351
0.19061644
0.19061964
0.19062291
0.19062629
0.19062968
0.19063304
0.19063634
0.19063958
0.19064272
0.19064577
0.19064871
0.19065156
0.19065434
0.19065709
0.19065981
0.19066247
0.19066499
0.19066729
0.19066933
0.1906711
0.19067265
0.19067404
0.19067524
0.19067618
0.19067683
0.19067722
0.19067736
0.19067725
0.19067686
0.1906762
0.19067527
0.19067408
0.19067261
0.1906709
0.190669
0.19066697
0.19066474
0.19066238
0.19066033
0.19065948
0.1906602
0.19065884
0.19064166
0.19058015
0.19043626
0.19019302
0.1899291
0.18995859
0.1910937
0.19531885
0.20931268
0.25255955
0.38614407
0.81847376
2.6059543
12.283457
0.19441161
0.19441231
0.19441503
0.19441799
0.19442123
0.19442455
0.19442795
0.19443134
0.1944347
0.19443799
0.1944412
0.19444432
0.19444733
0.19445024
0.19445306
0.19445582
0.19445855
0.19446127
0.19446392
0.19446641
0.19446867
0.19447068
0.19447243
0.19447397
0.19447535
0.19447653
0.19447745
0.19447808
0.19447847
0.19447862
0.19447851
0.19447813
0.19447749
0.19447659
0.19447543
0.194474
0.19447233
0.19447049
0.19446852
0.19446636
0.194464
0.19446177
0.19446054
0.19446112
0.19446143
0.19445037
0.19440182
0.19427565
0.19404165
0.19374728
0.1936548
0.19450023
0.19803653
0.21013739
0.24861495
0.37057639
0.77440801
2.45759
11.516872
0.19868897
0.19869022
0.19869309
0.19869609
0.19869935
0.19870268
0.19870609
0.19870947
0.19871279
0.19871603
0.1987192
0.19872225
0.19872521
0.19872805
0.19873082
0.19873354
0.19873624
0.19873892
0.19874154
0.19874398
0.19874619
0.19874815
0.19874986
0.19875137
0.19875272
0.19875388
0.19875477
0.19875538
0.19875576
0.1987559
0.19875581
0.19875545
0.19875483
0.19875396
0.19875284
0.19875147
0.19874986
0.19874809
0.19874621
0.19874414
0.19874182
0.19873947
0.19873788
0.1987381
0.19873951
0.19873378
0.19869793
0.19859151
0.19837319
0.19805995
0.19785696
0.19841736
0.20146562
0.21160722
0.24548385
0.35593312
0.73137335
2.3119958
10.766884
0.20352394
0.20352562
0.20352853
0.20353155
0.2035348
0.20353813
0.20354151
0.20354483
0.20354808
0.20355125
0.20355432
0.20355728
0.20356013
0.20356287
0.20356555
0.20356818
0.20357082
0.20357345
0.203576
0.20357835
0.20358048
0.20358237
0.20358401
0.20358547
0.20358679
0.20358789
0.20358874
0.20358932
0.20358968
0.20358982
0.20358975
0.20358941
0.20358882
0.20358799
0.20358693
0.20358563
0.2035841
0.20358243
0.20358067
0.20357873
0.20357652
0.20357412
0.20357219
0.20357194
0.20357382
0.20357238
0.20354845
0.20346318
0.20326678
0.20294787
0.2026568
0.20295126
0.20533653
0.21384307
0.24330633
0.34242874
0.6896729
2.1698702
10.03633
0.2090162
0.20901815
0.20902102
0.20902404
0.20902726
0.20903055
0.20903384
0.20903706
0.20904019
0.20904322
0.20904614
0.20904894
0.20905162
0.20905421
0.20905674
0.20905925
0.20906178
0.20906431
0.20906674
0.20906897
0.20907097
0.20907275
0.2090743
0.20907568
0.20907692
0.20907796
0.20907873
0.20907927
0.20907961
0.20907975
0.20907969
0.20907938
0.20907883
0.20907807
0.20907709
0.20907589
0.20907447
0.20907293
0.20907132
0.20906957
0.20906752
0.20906518
0.20906301
0.20906223
0.20906401
0.20906569
0.20905236
0.20898876
0.20882003
0.20850852
0.2081463
0.20819944
0.20999694
0.21692565
0.2422157
0.33026601
0.64960974
2.0320309
9.3278287
0.21529023
0.21529223
0.21529503
0.215298
0.21530113
0.21530431
0.21530745
0.21531049
0.21531341
0.21531621
0.21531889
0.21532145
0.21532389
0.21532624
0.21532855
0.21533087
0.21533322
0.21533558
0.21533782
0.21533985
0.21534168
0.21534329
0.2153447
0.21534597
0.21534709
0.21534801
0.21534869
0.21534917
0.21534948
0.21534962
0.21534958
0.21534931
0.21534882
0.21534813
0.21534727
0.2153462
0.21534494
0.21534358
0.21534218
0.21534067
0.21533887
0.21533671
0.21533447
0.21533316
0.21533439
0.21533797
0.21533338
0.21529077
0.21515434
0.21486505
0.21445546
0.21428433
0.21552261
0.22108231
0.2423624
0.31966749
0.61149816
1.8995096
8.6437503
0.22250289
0.22250486
0.22250756
0.22251041
0.22251338
0.22251636
0.22251925
0.22252199
0.2225246
0.22252706
0.22252939
0.22253158
0.22253366
0.22253567
0.22253766
0.22253967
0.22254176
0.22254385
0.2225458
0.22254754
0.2225491
0.22255047
0.22255169
0.22255277
0.22255373
0.22255447
0.22255502
0.22255541
0.22255567
0.2225558
0.2225558
0.22255558
0.22255518
0.22255461
0.2225539
0.22255303
0.222552
0.22255088
0.22254977
0.22254859
0.22254715
0.22254531
0.2225432
0.22254156
0.22254193
0.22254623
0.22254813
0.22252455
0.22242298
0.22216961
0.22174256
0.22138213
0.22208529
0.2268429
0.24391192
0.31087084
0.57563814
1.7737288
7.9861798
0.23085442
0.23085632
0.23085885
0.23086148
0.23086419
0.23086685
0.23086935
0.23087167
0.23087381
0.23087578
0.23087759
0.23087926
0.23088083
0.23088234
0.23088385
0.23088545
0.23088713
0.2308888
0.23089032
0.23089163
0.23089281
0.23089386
0.23089478
0.23089561
0.23089629
0.2308968
0.23089716
0.23089743
0.23089763
0.23089774
0.23089779
0.23089765
0.23089737
0.23089697
0.23089646
0.23089587
0.23089517
0.23089441
0.23089369
0.23089297
0.23089201
0.23089064
0.23088889
0.2308872
0.23088683
0.23089077
0.23089671
0.23088894
0.23082239
0.23061608
0.23020292
0.22971759
0.22994739
0.23338555
0.2471175
0.30414051
0.54228151
1.656763
7.3568958
0.24059984
0.2406018
0.24060406
0.24060638
0.24060874
0.24061097
0.24061294
0.24061467
0.24061618
0.24061749
0.24061861
0.24061958
0.24062045
0.24062128
0.24062216
0.24062317
0.2406243
0.24062539
0.24062629
0.24062703
0.2406277
0.24062831
0.24062883
0.24062929
0.2406296
0.24062978
0.24062988
0.24063001
0.24063013
0.24063021
0.24063033
0.24063032
0.2406302
0.24063003
0.24062982
0.2406296
0.24062936
0.24062911
0.24062894
0.24062887
0.24062857
0.2406278
0.24062668
0.24062534
0.24062458
0.24062742
0.24063503
0.24063873
0.24060455
0.24045345
0.24008097
0.2395118
0.23934184
0.24167436
0.25216719
0.29977746
0.5115451
1.5515177
6.7573456
0.25205269
0.25205473
0.25205666
0.25205867
0.25206069
0.25206243
0.25206381
0.25206491
0.25206574
0.25206631
0.25206665
0.25206684
0.25206693
0.25206701
0.25206717
0.25206752
0.25206803
0.25206842
0.25206857
0.25206864
0.25206875
0.25206887
0.25206895
0.25206896
0.25206883
0.25206861
0.25206843
0.25206841
0.25206846
0.25206856
0.25206876
0.25206894
0.25206905
0.25206919
0.25206935
0.25206962
0.25206997
0.2520704
0.25207096
0.2520717
0.25207218
0.25207209
0.25207188
0.25207141
0.25207078
0.25207214
0.25207943
0.25208963
0.2520818
0.25198903
0.25168676
0.25109047
0.25056219
0.25187646
0.25966586
0.29813916
0.48316164
1.4605837
6.1886127
17.032721
19.70828
22.774317
26.280808
30.282467
34.838828
40.014236
45.877725
52.502773
59.966877
68.350957
77.738563
88.214851
99.865377
112.77465
127.02445
142.69204
159.84821
178.55512
198.86426
220.81436
244.42954
269.71742
296.66775
325.2514
355.41956
387.10363
420.21567
454.64874
490.27993
526.96994
564.5668
602.90858
641.82165
681.13075
720.66069
760.23312
799.67512
838.81639
877.49893
915.57627
952.91463
989.3944
1024.9072
1059.3613
1092.6808
1124.8042
1155.6841
1185.2857
1213.5874
1240.578
1266.259
1290.64
1313.7402
1335.5841
1356.2013
1375.6293
1393.9072
1411.0774
1427.185
1442.2759
1456.3977
1469.5974
1481.9224
1493.4195
1504.1349
1514.1131
1523.3978
1532.031
1540.053
1547.5025
1554.4158
1560.829
1566.7752
3.6950141
4.3530007
5.0495576
5.8004966
6.6264104
7.5458828
8.5752584
9.729477
11.022845
12.469495
14.083686
15.87962
17.871629
20.073619
22.499117
25.160564
28.069217
31.234547
34.66371
38.361344
42.328703
46.564744
51.061858
55.812142
60.802857
66.014508
71.434071
77.038801
82.798901
88.694969
94.692629
100.85734
107.09164
113.31505
119.57719
125.82553
132.10135
138.51769
144.94297
151.22565
157.38959
163.45659
169.41626
175.19382
180.73473
186.04324
191.2397
196.37201
201.38713
206.24468
210.92184
215.40709
219.6924
223.78125
227.72033
231.41823
234.87061
238.09962
241.12162
243.95251
246.59826
249.06295
251.36579
253.51914
255.52986
257.40549
259.15217
260.77807
262.28911
263.69298
264.99533
266.20384
267.31597
268.41922
1.1025529
1.2697248
1.468297
1.6970217
1.9570008
2.2503947
2.5801175
2.9497018
3.3631899
3.8250127
4.339893
4.9126819
5.5482907
6.2514998
7.0268832
7.8785921
8.8102463
9.8247214
10.923952
12.108753
13.378549
14.731492
16.163515
17.669284
19.241929
20.871811
22.550168
24.266496
26.007635
27.763577
29.521002
31.284295
33.040583
34.771688
36.476942
38.151661
39.798475
41.43437
43.057919
44.654014
46.217514
47.74948
49.248607
50.710626
52.130933
53.510615
54.855422
56.165971
57.439451
58.67382
59.8671
61.017094
62.122419
63.182468
64.176508
65.104133
65.970585
66.780921
67.53851
68.247234
68.908583
69.530809
70.117607
70.670144
71.18949
71.676847
72.13345
72.56065
72.959809
73.33231
73.679476
74.002911
74.302576
74.586957
0.49367526
0.55894366
0.63763519
0.73010897
0.83743258
0.96080743
1.1015018
1.2608869
1.440481
1.6419649
1.8671874
2.1181201
2.3968358
2.7054247
3.0459488
3.4203309
3.8302915
4.2772303
4.7621248
5.2854187
5.8468767
6.4456022
7.0796074
7.7460995
8.441491
9.1606375
9.8984935
10.649248
11.405636
12.161567
12.909727
13.647103
14.369776
15.071297
15.748657
16.399265
17.022435
17.621643
18.198581
18.752331
19.282953
19.791656
20.279105
20.745537
21.191888
21.620273
22.032762
22.429266
22.809204
23.172716
23.520308
23.852276
24.169282
24.471041
24.757509
25.029187
25.286604
25.530042
25.759784
25.976113
26.179548
26.370723
26.55011
26.71818
26.875467
27.022534
27.15993
27.288198
27.407845
27.519381
27.623254
27.720036
27.809674
27.894721
0.28979458
0.31737876
0.35201283
0.39411707
0.44446611
0.50390051
0.5732343
0.65323688
0.74465328
0.84823715
0.96478421
1.0951398
1.2402127
1.4009489
1.5783155
1.7732461
1.9866032
2.2191086
2.4712847
2.7433808
3.0352919
3.346552
3.6761092
4.0224216
4.3835169
4.7565042
5.138497
5.5261767
5.9153952
6.3025654
6.6836518
7.0559526
7.4170362
7.7640085
8.0952593
8.4094342
8.7059414
8.9856739
9.2491952
9.4965831
9.7284181
9.9456741
10.149185
10.339513
10.517925
10.686127
10.845412
10.996161
11.13847
11.27261
11.398979
11.517927
11.629906
11.735161
11.833858
11.92646
12.013486
12.09529
12.172147
12.244273
12.311915
12.375343
12.43476
12.490347
12.542297
12.59082
12.636122
12.678405
12.717861
12.754672
12.789009
12.821059
12.850878
12.879022
0.21710317
0.22896203
0.24488781
0.26526938
0.29065504
0.32164644
0.3588484
0.40283287
0.45411913
0.5131744
0.58042856
0.65628704
0.74115349
0.83543108
0.93953033
1.0538477
1.178752
1.3145466
1.4614348
1.6194769
1.7885342
1.9682763
2.1580198
2.3568079
2.5634363
2.7761333
2.993168
3.2125555
3.4317963
3.6487725
3.8611645
4.0673619
4.2658896
4.4551362
4.634301
4.8027981
4.9604675
5.1079195
5.2455636
5.3735311
5.4922337
5.6023143
5.704341
5.7987858
5.8862021
5.9674286
6.0433016
6.114217
6.1803828
6.2420604
6.2995546
6.3531363
6.4031014
6.4496581
6.4929671
6.5332931
6.5709113
6.6060397
6.6388587
6.6695184
6.6981673
6.7249522
6.7499904
6.773384
6.7952342
6.8156439
6.834711
6.8525297
6.8691881
6.8847684
6.8993496
6.9130008
6.9258026
6.937769
0.19016865
0.19447594
0.20134771
0.21106384
0.22398752
0.24052894
0.26112427
0.28621165
0.3162052
0.35147502
0.39233871
0.43905842
0.49185197
0.55089717
0.61634592
0.68832063
0.76691627
0.8521841
0.94411664
1.0426237
1.1474996
1.2584264
1.3748814
1.4961726
1.6214768
1.7496117
1.8794592
2.0097603
2.1389376
2.2656999
2.3886735
2.5069146
2.6196088
2.7259089
2.8254388
2.9179992
3.003647
3.082865
3.1560516
3.2234441
3.2853977
3.3423723
3.3947752
3.4429541
3.4872733
3.5282173
3.5662627
3.6016586
3.6345456
3.6650861
3.6934617
3.7198335
3.7443661
3.7671802
3.7883689
3.8080662
3.8264204
3.8435535
3.8595612
3.8745225
3.8885108
3.9015972
3.9138412
3.9252949
3.9360074
3.9460297
3.9554091
3.9641921
3.9724218
3.9801383
3.9873827
3.9941764
4.0006099
4.0064811
0.18031179
0.18080216
0.18293119
0.18693793
0.19307746
0.20162629
0.21288359
0.22716446
0.24478553
0.26604636
0.29121287
0.32050303
0.35408343
0.39206576
0.43451421
0.48144587
0.53283746
0.58862127
0.64868145
0.71284451
0.78086186
0.85241821
0.92706566
1.0042618
1.0833922
1.1636153
1.2441622
1.3241934
1.4026798
1.4788144
1.5517759
1.6210114
1.6860924
1.7466187
1.8024684
1.8536472
1.900311
1.9428415
1.9815835
2.0167939
2.0487727
2.0778586
2.1043492
2.1284969
2.1505475
2.1707918
2.1895043
2.2068415
2.2228983
2.237772
2.2515645
2.2643649
2.2762587
2.2873111
2.2975737
2.3071162
2.3160127
2.3243222
2.3320906
2.3393569
2.3461585
2.3525296
2.3584991
2.364092
2.3693321
2.3742437
2.3788491
2.3831705
2.3872282
2.3910405
2.3946296
2.3979947
2.401222
2.404042
0.17697119
0.1755928
0.17525014
0.17612056
0.17841039
0.1823261
0.18807932
0.19589033
0.20598612
0.21859223
0.23392128
0.2521585
0.27345198
0.29790293
0.32556398
0.35643624
0.39047316
0.42757945
0.46761261
0.51037981
0.555632
0.60307145
0.65231663
0.70292328
0.75441235
0.80616011
0.85761516
0.90819652
0.95721579
1.0041612
1.0485418
1.0900457
1.1284677
1.1636522
1.1956151
1.2244599
1.2503761
1.2736686
1.2946184
1.3134496
1.3303939
1.345689
1.3595389
1.3721121
1.3835646
1.3940666
1.403768
1.4127761
1.4211563
1.4289574
1.4362266
1.4430046
1.4493294
1.4552304
1.460732
1.4658656
1.4706647
1.475157
1.4793651
1.483307
1.4869991
1.4904585
1.4937002
1.4967374
1.4995829
1.5022496
1.5047496
1.5070944
1.5092953
1.5113616
1.5133069
1.5151249
1.5168856
1.518351
0.17602049
0.17386268
0.17216027
0.17144075
0.17158926
0.17280328
0.1752556
0.17911096
0.18453241
0.19168189
0.20071682
0.21178218
0.22500242
0.24047153
0.25824709
0.27834373
0.30073213
0.32533674
0.35203625
0.3806632
0.41100177
0.44279707
0.47573159
0.50944757
0.54356817
0.57761936
0.61120447
0.64388244
0.67521956
0.7048785
0.73256102
0.75810003
0.78141746
0.80248582
0.8213858
0.83825518
0.85327873
0.86669671
0.87872727
0.8895446
0.89931307
0.90818937
0.91629964
0.92375383
0.93066404
0.93711724
0.94318783
0.94889702
0.954251
0.95926859
0.96397306
0.968385
0.97252326
0.97640259
0.98003557
0.98343892
0.98663087
0.98962675
0.9924389
0.99507779
0.99755331
0.99987483
1.002051
1.0040898
1.0059992
1.0077871
1.0094611
1.0110287
1.0124971
1.0138723
1.0151638
1.0163653
1.0175327
1.0184694
0.17593623
0.17343751
0.17133228
0.1696869
0.1686434
0.16831334
0.16880902
0.17025135
0.17276053
0.17645371
0.18144382
0.18783667
0.19572717
0.20519299
0.21628909
0.22904111
0.24344168
0.25944615
0.27697123
0.29589328
0.31604752
0.33723382
0.35920561
0.3816827
0.40437476
0.42692028
0.44904072
0.47035709
0.49065255
0.50968509
0.5272708
0.5433271
0.55784441
0.57085715
0.58246886
0.59281833
0.60206693
0.61039922
0.61797659
0.62492394
0.63134464
0.63734817
0.64302083
0.64840062
0.65349903
0.65835058
0.66298749
0.66742209
0.67165486
0.67568689
0.67952181
0.68316317
0.68661482
0.68988016
0.69296297
0.6958702
0.69861037
0.70119135
0.70361994
0.70590254
0.70804563
0.71005576
0.71193931
0.71370257
0.71535184
0.71689346
0.7183337
0.71967867
0.72093444
0.72210617
0.72320171
0.72421654
0.725195
0.72598342
0.17612168
0.17349886
0.17119716
0.16920213
0.16758592
0.16638904
0.16578417
0.16579524
0.16651936
0.16804496
0.17045437
0.17382344
0.17822044
0.1837032
0.19031616
0.19808569
0.20701654
0.21708763
0.22824904
0.24041963
0.25348511
0.26730224
0.28168959
0.29644011
0.31133738
0.32611464
0.34056928
0.35442391
0.36753324
0.37974281
0.39095016
0.40112597
0.41029712
0.41852508
0.42591485
0.4325912
0.43868641
0.4443376
0.44965892
0.45472983
0.4596364
0.46441067
0.4690627
0.47360084
0.47802934
0.4823533
0.4865744
0.49068325
0.49466483
0.49850647
0.50219939
0.50573696
0.50911466
0.51232949
0.5153803
0.51826889
0.520999
0.52357499
0.52600135
0.52828289
0.53042489
0.53243289
0.53431269
0.53607023
0.53771157
0.53924283
0.54067014
0.5419995
0.54323689
0.54438763
0.54545888
0.54644898
0.54739167
0.54817318
0.17633025
0.17369802
0.17132843
0.16921007
0.16735518
0.16579171
0.1645732
0.16376777
0.16343658
0.16364066
0.16443873
0.16588533
0.16802916
0.17091146
0.1745647
0.1790101
0.18425546
0.19029189
0.19709131
0.20460355
0.21275437
0.22144677
0.23055609
0.23993537
0.24943294
0.25885346
0.26805548
0.2768718
0.28517609
0.29287446
0.29991938
0.30631754
0.31211827
0.31739579
0.32224963
0.326787
0.33111263
0.33532367
0.33950226
0.343706
0.34794035
0.35221189
0.35651542
0.3608348
0.36514941
0.36943988
0.37368642
0.37786468
0.38194902
0.38591777
0.38975419
0.39344538
0.39698171
0.40035659
0.40356621
0.40660976
0.4094887
0.41220579
0.41476464
0.41716966
0.41942594
0.42153912
0.42351524
0.42536057
0.4270816
0.42868483
0.43017678
0.43156383
0.4328523
0.43404796
0.43515787
0.43618254
0.43714847
0.43797327
0.17647594
0.17388514
0.17152325
0.16937966
0.16744711
0.16573209
0.16424655
0.16302672
0.16211522
0.16155398
0.16138853
0.16165351
0.1623843
0.16361102
0.1653571
0.1676382
0.1704611
0.17382198
0.17770447
0.18207767
0.18689413
0.19209071
0.19758343
0.20327427
0.2090565
0.21480692
0.22042081
0.22577941
0.23082809
0.23551101
0.23981356
0.24376307
0.24742016
0.25086386
0.25418711
0.25748303
0.26083161
0.26430972
0.2679642
0.27180033
0.27581282
0.27998496
0.28428844
0.28868679
0.29314128
0.29761551
0.30207502
0.30648512
0.31081293
0.31503071
0.31911659
0.32305367
0.32682944
0.33043528
0.3338661
0.33711993
0.34019731
0.34310051
0.34583309
0.34839964
0.35080554
0.35305684
0.35516001
0.35712183
0.35894929
0.36064945
0.36222935
0.36369595
0.36505607
0.36631614
0.36748333
0.36856022
0.36956727
0.37044896
0.1765514
0.17401038
0.17168927
0.16956797
0.16763224
0.16587604
0.16429652
0.16290232
0.16171077
0.16075782
0.16000713
0.15961256
0.15951161
0.15973196
0.1602952
0.16121479
0.16249701
0.16414053
0.16613553
0.16846239
0.17109046
0.17397825
0.17707046
0.18030269
0.1836022
0.18689348
0.19009487
0.19316235
0.19605085
0.19874616
0.201262
0.20364304
0.20595792
0.20828653
0.2107146
0.21332036
0.21617347
0.21932205
0.22277965
0.22653971
0.2305779
0.23485737
0.23933152
0.24394817
0.24865492