/*--------------------------------*- C++ -*----------------------------------*\
| =========                 |                                                 |
| \\      /  F ield         | OpenFOAM: The Open Source CFD Toolbox           |
|  \\    /   O peration     | Version:  v2006                                 |
|   \\  /    A nd           | Website:  www.openfoam.com                      |
|    \\/     M anipulation  |                                                 |
\*---------------------------------------------------------------------------*/
FoamFile
{
    version     2.0;
    format      ascii;
    class       volScalarField;
    location    "5000";
    object      p;
}
// * * * * * * * * * * * * * * * * * * * * * * * * * * * * * * * * * * * * * //

dimensions      [1 -1 -2 0 0 0 0];


internalField   nonuniform List<scalar> 
55713
(
1.0000301
1.0000301
1.0000301
1.0000301
1.0000301
1.0000301
1.0000301
1.0000301
1.0000301
1.0000301
1.0000301
1.0000301
1.0000301
1.0000301
1.0000301
1.0000301
1.0000301
1.0000301
1.0000301
1.0000301
1.0000301
1.0000301
1.0000301
1.0000301
1.0000301
1.0000301
1.0000301
1.0000301
1.0000301
1.0000301
1.0000301
1.0000301
1.0000301
1.0000301
1.0000301
1.0000301
1.0000301
1.0000301
1.0000301
1.0000301
1.0000301
1.0000301
1.0000301
1.0000301
1.0000301
1.0000301
1.0000301
1.0000301
1.0000301
1.0000301
1.0000301
1.0000301
1.0000301
1.0000301
1.0000301
1.0000301
1.0000301
1.0000301
1.0000301
1.0000281
1.0000281
1.0000281
1.0000281
1.0000281
1.0000281
1.0000281
1.0000281
1.0000281
1.0000281
1.0000281
1.0000281
1.0000281
1.0000281
1.0000281
1.0000281
1.0000281
1.0000281
1.0000281
1.0000281
1.0000281
1.0000281
1.0000281
1.0000281
1.0000281
1.0000281
1.0000281
1.0000281
1.0000281
1.0000281
1.0000281
1.0000281
1.0000281
1.0000281
1.0000281
1.0000281
1.0000281
1.0000281
1.0000281
1.0000281
1.0000281
1.0000281
1.0000281
1.0000281
1.0000281
1.0000281
1.0000281
1.0000281
1.0000281
1.0000281
1.0000281
1.0000281
1.0000281
1.0000281
1.0000281
1.0000281
1.0000281
1.0000281
1.0000281
1.0000264
1.0000264
1.0000264
1.0000264
1.0000264
1.0000264
1.0000264
1.0000264
1.0000264
1.0000264
1.0000264
1.0000264
1.0000264
1.0000264
1.0000264
1.0000264
1.0000264
1.0000264
1.0000264
1.0000264
1.0000264
1.0000264
1.0000264
1.0000264
1.0000264
1.0000264
1.0000264
1.0000264
1.0000264
1.0000264
1.0000264
1.0000264
1.0000264
1.0000264
1.0000264
1.0000264
1.0000264
1.0000264
1.0000264
1.0000264
1.0000264
1.0000264
1.0000264
1.0000264
1.0000264
1.0000264
1.0000264
1.0000264
1.0000264
1.0000264
1.0000264
1.0000264
1.0000264
1.0000264
1.0000264
1.0000264
1.0000264
1.0000264
1.0000264
1.0000249
1.0000249
1.0000249
1.0000249
1.0000249
1.0000249
1.0000249
1.0000249
1.0000249
1.0000249
1.0000249
1.0000249
1.0000249
1.0000249
1.0000249
1.0000249
1.0000249
1.0000249
1.0000249
1.0000249
1.0000249
1.0000249
1.0000249
1.0000249
1.0000249
1.0000249
1.0000249
1.0000249
1.0000249
1.0000249
1.0000249
1.0000249
1.0000249
1.0000249
1.0000249
1.0000249
1.0000249
1.0000249
1.0000249
1.0000249
1.0000249
1.0000249
1.0000249
1.0000249
1.0000249
1.0000249
1.0000249
1.0000249
1.0000249
1.0000249
1.0000249
1.0000249
1.000025
1.000025
1.000025
1.000025
1.000025
1.000025
1.000025
1.0000236
1.0000236
1.0000236
1.0000236
1.0000236
1.0000236
1.0000236
1.0000236
1.0000236
1.0000236
1.0000236
1.0000236
1.0000236
1.0000236
1.0000236
1.0000236
1.0000236
1.0000236
1.0000236
1.0000236
1.0000236
1.0000236
1.0000236
1.0000236
1.0000236
1.0000236
1.0000236
1.0000236
1.0000236
1.0000236
1.0000236
1.0000236
1.0000236
1.0000236
1.0000236
1.0000236
1.0000236
1.0000236
1.0000236
1.0000236
1.0000236
1.0000236
1.0000236
1.0000236
1.0000236
1.0000236
1.0000237
1.0000237
1.0000237
1.0000237
1.0000237
1.0000237
1.0000237
1.0000237
1.0000237
1.0000237
1.0000237
1.0000237
1.0000237
1.0000225
1.0000225
1.0000225
1.0000225
1.0000225
1.0000225
1.0000225
1.0000225
1.0000225
1.0000225
1.0000225
1.0000225
1.0000225
1.0000225
1.0000225
1.0000225
1.0000225
1.0000225
1.0000225
1.0000225
1.0000225
1.0000225
1.0000225
1.0000225
1.0000225
1.0000225
1.0000225
1.0000225
1.0000225
1.0000225
1.0000225
1.0000225
1.0000225
1.0000225
1.0000225
1.0000225
1.0000225
1.0000225
1.0000225
1.0000225
1.0000225
1.0000225
1.0000225
1.0000226
1.0000226
1.0000226
1.0000226
1.0000226
1.0000226
1.0000226
1.0000226
1.0000226
1.0000226
1.0000226
1.0000226
1.0000226
1.0000226
1.0000226
1.0000226
1.0000215
1.0000215
1.0000215
1.0000215
1.0000215
1.0000215
1.0000215
1.0000215
1.0000215
1.0000215
1.0000215
1.0000215
1.0000215
1.0000215
1.0000215
1.0000215
1.0000215
1.0000215
1.0000215
1.0000215
1.0000215
1.0000215
1.0000215
1.0000215
1.0000215
1.0000215
1.0000215
1.0000215
1.0000215
1.0000215
1.0000215
1.0000215
1.0000215
1.0000215
1.0000215
1.0000215
1.0000215
1.0000216
1.0000216
1.0000216
1.0000216
1.0000216
1.0000216
1.0000216
1.0000216
1.0000216
1.0000216
1.0000216
1.0000216
1.0000216
1.0000216
1.0000216
1.0000216
1.0000216
1.0000216
1.0000216
1.0000216
1.0000216
1.0000216
1.0000206
1.0000206
1.0000206
1.0000206
1.0000206
1.0000206
1.0000206
1.0000206
1.0000206
1.0000206
1.0000206
1.0000206
1.0000206
1.0000206
1.0000206
1.0000206
1.0000206
1.0000206
1.0000206
1.0000206
1.0000206
1.0000206
1.0000206
1.0000206
1.0000206
1.0000206
1.0000206
1.0000206
1.0000206
1.0000206
1.0000206
1.0000206
1.0000206
1.0000207
1.0000207
1.0000207
1.0000207
1.0000207
1.0000207
1.0000207
1.0000207
1.0000207
1.0000207
1.0000207
1.0000207
1.0000207
1.0000207
1.0000207
1.0000207
1.0000207
1.0000207
1.0000207
1.0000207
1.0000207
1.0000207
1.0000207
1.0000207
1.0000207
1.0000207
1.0000202
1.0000202
1.0000202
1.0000202
1.0000202
1.0000202
1.0000202
1.0000202
1.0000202
1.0000202
1.0000202
1.0000202
1.0000202
1.0000202
1.0000202
1.0000202
1.0000202
1.0000202
1.0000202
1.0000202
1.0000202
1.0000202
1.0000202
1.0000202
1.0000202
1.0000202
1.0000202
1.0000202
1.0000202
1.0000202
1.0000202
1.0000202
1.0000202
1.0000202
1.0000202
1.0000202
1.0000202
1.0000202
1.0000202
1.0000202
1.0000202
1.0000202
1.0000202
1.0000202
1.0000202
1.0000202
1.0000202
1.0000202
1.0000202
1.0000202
1.0000202
1.0000202
1.0000202
1.0000202
1.0000202
1.0000202
1.0000202
1.0000202
1.0000202
1.0000198
1.0000198
1.0000198
1.0000198
1.0000198
1.0000198
1.0000198
1.0000198
1.0000198
1.0000198
1.0000198
1.0000198
1.0000198
1.0000198
1.0000198
1.0000198
1.0000198
1.0000198
1.0000198
1.0000198
1.0000198
1.0000198
1.0000198
1.0000198
1.0000198
1.0000198
1.0000198
1.0000198
1.0000198
1.0000198
1.0000198
1.0000198
1.0000198
1.0000198
1.0000198
1.0000198
1.0000198
1.0000198
1.0000198
1.0000198
1.0000198
1.0000198
1.0000198
1.0000198
1.0000198
1.0000198
1.0000198
1.0000198
1.0000198
1.0000198
1.0000198
1.0000198
1.0000198
1.0000198
1.0000198
1.0000199
1.0000199
1.0000199
1.0000199
1.000018
1.000018
1.000018
1.000018
1.000018
1.000018
1.000018
1.000018
1.000018
1.000018
1.000018
1.000018
1.000018
1.000018
1.000018
1.000018
1.000018
1.000018
1.000018
1.000018
1.000018
1.000018
1.000018
1.000018
1.000018
1.000018
1.000018
1.000018
1.000018
1.000018
1.000018
1.000018
1.000018
1.000018
1.000018
1.000018
1.000018
1.000018
1.000018
1.000018
1.000018
1.000018
1.000018
1.000018
1.000018
1.000018
1.000018
1.000018
1.000018
1.000018
1.000018
1.000018
1.000018
1.000018
1.000018
1.000018
1.000018
1.000018
1.000018
1.0000179
1.0000179
1.0000179
1.0000179
1.0000178
1.0000178
1.0000178
1.0000178
1.0000178
1.0000178
1.0000178
1.0000178
1.0000178
1.0000178
1.0000178
1.0000178
1.0000178
1.0000178
1.0000178
1.0000178
1.0000178
1.0000178
1.0000178
1.0000178
1.0000177
1.0000177
1.0000177
1.0000177
1.0000177
1.0000177
1.0000177
1.0000177
1.0000177
1.0000177
1.0000177
1.0000177
1.0000177
1.0000177
1.0000177
1.0000177
1.0000177
1.0000177
1.0000177
1.0000177
1.0000177
1.0000177
1.0000177
1.0000177
1.0000177
1.0000177
1.0000177
1.0000177
1.0000177
1.0000177
1.0000176
1.0000176
1.0000176
1.0000176
1.0000176
1.000027
1.000027
1.000027
1.000027
1.0000269
1.0000269
1.0000269
1.0000269
1.0000269
1.0000269
1.0000269
1.0000269
1.0000269
1.0000269
1.0000269
1.0000269
1.0000269
1.0000269
1.0000269
1.0000269
1.0000269
1.0000269
1.0000269
1.0000269
1.0000269
1.0000269
1.0000269
1.0000269
1.0000269
1.0000269
1.0000269
1.0000269
1.0000269
1.0000269
1.0000269
1.0000269
1.0000269
1.0000269
1.0000269
1.0000269
1.0000269
1.0000269
1.0000269
1.0000269
1.0000269
1.0000269
1.0000269
1.0000269
1.0000269
1.0000269
1.0000269
1.0000269
1.0000269
1.0000269
1.0000269
1.0000269
1.0000269
1.0000269
1.0000269
1.0000171
1.0000171
1.0000171
1.0000171
1.0000171
1.0000171
1.0000171
1.0000172
1.0000172
1.0000172
1.0000172
1.0000172
1.0000172
1.0000172
1.0000172
1.0000172
1.0000172
1.0000172
1.0000172
1.0000172
1.0000172
1.0000172
1.0000172
1.0000172
1.0000172
1.0000172
1.0000172
1.0000172
1.0000172
1.0000172
1.0000172
1.0000172
1.0000172
1.0000172
1.0000172
1.0000172
1.0000172
1.0000172
1.0000172
1.0000172
1.0000172
1.0000172
1.0000172
1.0000172
1.0000172
1.0000172
1.0000172
1.0000172
1.0000172
1.0000172
1.0000172
1.0000172
1.0000172
1.0000172
1.0000172
1.0000172
1.0000172
1.0000172
1.0000172
1.000114
1.000114
1.000114
1.0001141
1.0001141
1.0001141
1.0001142
1.0001142
1.0001142
1.0001143
1.0001143
1.0001143
1.0001144
1.0001144
1.0001144
1.0001145
1.0001145
1.0001145
1.0001146
1.0001146
1.0001146
1.0001146
1.0001147
1.0001147
1.0001147
1.0001147
1.0001148
1.0001148
1.0001148
1.0001148
1.0001148
1.0001149
1.0001149
1.0001149
1.0001149
1.0001149
1.0001149
1.000115
1.000115
1.000115
1.000115
1.000115
1.000115
1.000115
1.000115
1.000115
1.0001151
1.0001151
1.0001151
1.0001151
1.0001151
1.0001151
1.0001151
1.0001151
1.0001151
1.0001151
1.0001151
1.0001151
1.0001151
1.0001045
1.0001045
1.0001045
1.0001046
1.0001046
1.0001046
1.0001047
1.0001047
1.0001047
1.0001047
1.0001048
1.0001048
1.0001048
1.0001048
1.0001049
1.0001049
1.0001049
1.0001049
1.000105
1.000105
1.000105
1.000105
1.000105
1.0001051
1.0001051
1.0001051
1.0001051
1.0001051
1.0001052
1.0001052
1.0001052
1.0001052
1.0001052
1.0001052
1.0001053
1.0001053
1.0001053
1.0001053
1.0001053
1.0001053
1.0001053
1.0001053
1.0001053
1.0001054
1.0001054
1.0001054
1.0001054
1.0001054
1.0001054
1.0001054
1.0001054
1.0001054
1.0001054
1.0001054
1.0001054
1.0001054
1.0001054
1.0001054
1.0001054
1.0000956
1.0000956
1.0000957
1.0000957
1.0000957
1.0000957
1.0000958
1.0000958
1.0000958
1.0000958
1.0000959
1.0000959
1.0000959
1.0000959
1.0000959
1.000096
1.000096
1.000096
1.000096
1.000096
1.0000961
1.0000961
1.0000961
1.0000961
1.0000961
1.0000961
1.0000962
1.0000962
1.0000962
1.0000962
1.0000962
1.0000962
1.0000962
1.0000962
1.0000963
1.0000963
1.0000963
1.0000963
1.0000963
1.0000963
1.0000963
1.0000963
1.0000963
1.0000963
1.0000963
1.0000963
1.0000964
1.0000964
1.0000964
1.0000964
1.0000964
1.0000964
1.0000964
1.0000964
1.0000964
1.0000964
1.0000964
1.0000964
1.0000964
1.0000873
1.0000873
1.0000874
1.0000874
1.0000874
1.0000874
1.0000874
1.0000875
1.0000875
1.0000875
1.0000875
1.0000875
1.0000876
1.0000876
1.0000876
1.0000876
1.0000876
1.0000876
1.0000876
1.0000877
1.0000877
1.0000877
1.0000877
1.0000877
1.0000877
1.0000877
1.0000878
1.0000878
1.0000878
1.0000878
1.0000878
1.0000878
1.0000878
1.0000878
1.0000878
1.0000878
1.0000879
1.0000879
1.0000879
1.0000879
1.0000879
1.0000879
1.0000879
1.0000879
1.0000879
1.0000879
1.0000879
1.0000879
1.0000879
1.0000879
1.0000879
1.0000879
1.0000879
1.0000879
1.0000879
1.0000879
1.0000879
1.0000879
1.0000879
1.0000796
1.0000796
1.0000796
1.0000797
1.0000797
1.0000797
1.0000797
1.0000797
1.0000797
1.0000798
1.0000798
1.0000798
1.0000798
1.0000798
1.0000798
1.0000798
1.0000798
1.0000799
1.0000799
1.0000799
1.0000799
1.0000799
1.0000799
1.0000799
1.0000799
1.0000799
1.00008
1.00008
1.00008
1.00008
1.00008
1.00008
1.00008
1.00008
1.00008
1.00008
1.00008
1.00008
1.0000801
1.0000801
1.0000801
1.0000801
1.0000801
1.0000801
1.0000801
1.0000801
1.0000801
1.0000801
1.0000801
1.0000801
1.0000801
1.0000801
1.0000801
1.0000801
1.0000801
1.0000801
1.0000801
1.0000801
1.0000801
1.0000724
1.0000725
1.0000725
1.0000725
1.0000725
1.0000725
1.0000725
1.0000725
1.0000725
1.0000726
1.0000726
1.0000726
1.0000726
1.0000726
1.0000726
1.0000726
1.0000726
1.0000726
1.0000727
1.0000727
1.0000727
1.0000727
1.0000727
1.0000727
1.0000727
1.0000727
1.0000727
1.0000727
1.0000727
1.0000727
1.0000728
1.0000728
1.0000728
1.0000728
1.0000728
1.0000728
1.0000728
1.0000728
1.0000728
1.0000728
1.0000728
1.0000728
1.0000728
1.0000728
1.0000728
1.0000728
1.0000728
1.0000728
1.0000728
1.0000728
1.0000728
1.0000728
1.0000728
1.0000728
1.0000728
1.0000728
1.0000728
1.0000728
1.0000728
1.0000658
1.0000658
1.0000658
1.0000658
1.0000659
1.0000659
1.0000659
1.0000659
1.0000659
1.0000659
1.0000659
1.0000659
1.0000659
1.0000659
1.0000659
1.000066
1.000066
1.000066
1.000066
1.000066
1.000066
1.000066
1.000066
1.000066
1.000066
1.000066
1.000066
1.000066
1.000066
1.0000661
1.0000661
1.0000661
1.0000661
1.0000661
1.0000661
1.0000661
1.0000661
1.0000661
1.0000661
1.0000661
1.0000661
1.0000661
1.0000661
1.0000661
1.0000661
1.0000661
1.0000661
1.0000661
1.0000661
1.0000661
1.0000661
1.0000661
1.0000661
1.0000661
1.0000661
1.0000661
1.0000661
1.0000661
1.0000661
1.0000597
1.0000597
1.0000597
1.0000597
1.0000597
1.0000597
1.0000597
1.0000598
1.0000598
1.0000598
1.0000598
1.0000598
1.0000598
1.0000598
1.0000598
1.0000598
1.0000598
1.0000598
1.0000598
1.0000598
1.0000598
1.0000598
1.0000599
1.0000599
1.0000599
1.0000599
1.0000599
1.0000599
1.0000599
1.0000599
1.0000599
1.0000599
1.0000599
1.0000599
1.0000599
1.0000599
1.0000599
1.0000599
1.0000599
1.0000599
1.0000599
1.0000599
1.0000599
1.0000599
1.0000599
1.0000599
1.0000599
1.0000599
1.0000599
1.0000599
1.0000599
1.0000599
1.0000599
1.0000599
1.0000599
1.0000599
1.00006
1.00006
1.00006
1.0000541
1.0000541
1.0000541
1.0000541
1.0000541
1.0000541
1.0000541
1.0000541
1.0000541
1.0000541
1.0000541
1.0000541
1.0000541
1.0000542
1.0000542
1.0000542
1.0000542
1.0000542
1.0000542
1.0000542
1.0000542
1.0000542
1.0000542
1.0000542
1.0000542
1.0000542
1.0000542
1.0000542
1.0000542
1.0000542
1.0000542
1.0000542
1.0000542
1.0000542
1.0000542
1.0000542
1.0000542
1.0000542
1.0000542
1.0000542
1.0000543
1.0000543
1.0000543
1.0000543
1.0000543
1.0000543
1.0000543
1.0000543
1.0000543
1.0000543
1.0000543
1.0000543
1.0000543
1.0000543
1.0000543
1.0000543
1.0000543
1.0000543
1.0000543
1.0000489
1.0000489
1.0000489
1.0000489
1.0000489
1.0000489
1.0000489
1.0000489
1.000049
1.000049
1.000049
1.000049
1.000049
1.000049
1.000049
1.000049
1.000049
1.000049
1.000049
1.000049
1.000049
1.000049
1.000049
1.000049
1.000049
1.000049
1.000049
1.000049
1.000049
1.000049
1.000049
1.000049
1.000049
1.000049
1.000049
1.000049
1.000049
1.0000491
1.0000491
1.0000491
1.0000491
1.0000491
1.0000491
1.0000491
1.0000491
1.0000491
1.0000491
1.0000491
1.0000491
1.0000491
1.0000491
1.0000491
1.0000491
1.0000491
1.0000491
1.0000491
1.0000491
1.0000491
1.0000491
1.0000442
1.0000442
1.0000442
1.0000442
1.0000442
1.0000442
1.0000442
1.0000442
1.0000442
1.0000442
1.0000443
1.0000443
1.0000443
1.0000443
1.0000443
1.0000443
1.0000443
1.0000443
1.0000443
1.0000443
1.0000443
1.0000443
1.0000443
1.0000443
1.0000443
1.0000443
1.0000443
1.0000443
1.0000443
1.0000443
1.0000443
1.0000443
1.0000443
1.0000443
1.0000443
1.0000443
1.0000443
1.0000443
1.0000443
1.0000443
1.0000443
1.0000443
1.0000443
1.0000443
1.0000443
1.0000443
1.0000443
1.0000443
1.0000443
1.0000443
1.0000443
1.0000443
1.0000443
1.0000443
1.0000443
1.0000443
1.0000443
1.0000443
1.0000443
1.0000399
1.0000399
1.0000399
1.0000399
1.0000399
1.0000399
1.0000399
1.0000399
1.0000399
1.00004
1.00004
1.00004
1.00004
1.00004
1.00004
1.00004
1.00004
1.00004
1.00004
1.00004
1.00004
1.00004
1.00004
1.00004
1.00004
1.00004
1.00004
1.00004
1.00004
1.00004
1.00004
1.00004
1.00004
1.00004
1.00004
1.00004
1.00004
1.00004
1.00004
1.00004
1.00004
1.00004
1.00004
1.00004
1.00004
1.00004
1.00004
1.00004
1.00004
1.00004
1.00004
1.00004
1.00004
1.00004
1.00004
1.00004
1.00004
1.00004
1.00004
1.000036
1.000036
1.000036
1.000036
1.000036
1.000036
1.0000361
1.0000361
1.0000361
1.0000361
1.0000361
1.0000361
1.0000361
1.0000361
1.0000361
1.0000361
1.0000361
1.0000361
1.0000361
1.0000361
1.0000361
1.0000361
1.0000361
1.0000361
1.0000361
1.0000361
1.0000361
1.0000361
1.0000361
1.0000361
1.0000361
1.0000361
1.0000361
1.0000361
1.0000361
1.0000361
1.0000361
1.0000361
1.0000361
1.0000361
1.0000361
1.0000361
1.0000361
1.0000361
1.0000361
1.0000361
1.0000361
1.0000361
1.0000361
1.0000361
1.0000361
1.0000361
1.0000361
1.0000361
1.0000361
1.0000361
1.0000361
1.0000361
1.0000361
1.0000326
1.0000326
1.0000326
1.0000326
1.0000326
1.0000326
1.0000326
1.0000327
1.0000327
1.0000327
1.0000327
1.0000327
1.0000327
1.0000327
1.0000327
1.0000327
1.0000327
1.0000327
1.0000327
1.0000327
1.0000327
1.0000327
1.0000327
1.0000327
1.0000327
1.0000327
1.0000327
1.0000327
1.0000327
1.0000327
1.0000327
1.0000327
1.0000327
1.0000327
1.0000327
1.0000327
1.0000327
1.0000327
1.0000327
1.0000327
1.0000327
1.0000327
1.0000327
1.0000327
1.0000327
1.0000327
1.0000327
1.0000327
1.0000327
1.0000327
1.0000327
1.0000327
1.0000327
1.0000327
1.0000327
1.0000327
1.0000327
1.0000327
1.0000327
1.0001266
1.0001405
1.0001561
1.0001731
1.0001917
1.0002119
1.0002339
1.0002577
1.0002833
1.0003109
1.0003405
1.0003721
1.0004055
1.0004408
1.0004778
1.0005162
1.0005558
1.000596
1.0006364
1.0006763
1.0007149
1.0007513
1.0007844
1.0008131
1.0008361
1.0008524
1.0008602
1.0008592
1.0008483
1.0008261
1.0007928
1.0007484
1.0006926
1.000626
1.0005499
1.000465
1.0003727
1.0002743
1.0001705
1.0000632
0.99995392
0.99984366
0.99973336
0.99962417
0.99951712
0.99941277
0.99931109
0.99921232
0.99911746
0.9990268
0.99894035
0.9988581
0.99878012
0.99870624
0.99863673
0.99857167
0.99851042
0.99845274
0.99839869
0.9983481
0.99830084
0.99825664
0.99821526
0.99817674
0.99814095
0.99810766
0.99807672
0.99804798
0.9980213
0.99799653
0.99797355
0.99795223
0.99793249
0.99791412
1.0001266
1.0001405
1.0001561
1.0001731
1.0001917
1.0002119
1.0002339
1.0002577
1.0002833
1.0003109
1.0003405
1.0003721
1.0004055
1.0004408
1.0004778
1.0005162
1.0005558
1.000596
1.0006364
1.0006763
1.0007149
1.0007513
1.0007844
1.0008131
1.0008361
1.0008524
1.0008602
1.0008592
1.0008483
1.0008262
1.0007928
1.0007484
1.0006926
1.0006261
1.0005499
1.000465
1.0003727
1.0002742
1.0001705
1.0000632
0.99995392
0.99984366
0.99973335
0.99962414
0.99951706
0.99941273
0.99931109
0.99921233
0.99911745
0.99902678
0.99894033
0.99885807
0.99878009
0.9987062
0.99863671
0.99857166
0.99851041
0.99845271
0.99839865
0.99834805
0.9983008
0.99825658
0.99821517
0.99817665
0.99814087
0.99810759
0.99807666
0.99804792
0.99802124
0.99799647
0.9979735
0.99795218
0.99793245
0.99791408
1.0001266
1.0001405
1.0001561
1.0001731
1.0001917
1.0002119
1.0002339
1.0002577
1.0002833
1.0003109
1.0003405
1.0003721
1.0004055
1.0004408
1.0004778
1.0005162
1.0005558
1.000596
1.0006364
1.0006763
1.0007149
1.0007513
1.0007844
1.0008131
1.0008361
1.0008524
1.0008602
1.0008592
1.0008484
1.0008262
1.0007929
1.0007484
1.0006926
1.0006261
1.00055
1.000465
1.0003727
1.0002742
1.0001705
1.0000632
0.99995395
0.99984368
0.99973338
0.99962419
0.99951709
0.9994127
0.99931103
0.9992123
0.99911745
0.99902681
0.99894035
0.9988581
0.99878012
0.99870618
0.99863665
0.99857164
0.9985104
0.99845274
0.99839869
0.99834809
0.99830089
0.99825672
0.99821529
0.99817674
0.99814094
0.99810765
0.99807671
0.99804796
0.99802127
0.9979965
0.99797353
0.99795221
0.99793246
0.99791408
1.0001266
1.0001405
1.0001561
1.0001731
1.0001917
1.0002119
1.0002339
1.0002577
1.0002833
1.0003109
1.0003405
1.0003721
1.0004055
1.0004408
1.0004778
1.0005162
1.0005558
1.000596
1.0006364
1.0006763
1.0007149
1.0007513
1.0007844
1.0008131
1.0008361
1.0008524
1.0008602
1.0008592
1.0008484
1.0008262
1.0007929
1.0007485
1.0006927
1.0006262
1.00055
1.0004651
1.0003728
1.0002743
1.0001706
1.0000633
0.99995404
0.99984377
0.99973348
0.99962429
0.99951717
0.99941273
0.99931105
0.99921238
0.99911754
0.99902688
0.99894041
0.99885816
0.99878017
0.9987063
0.99863681
0.99857171
0.99851039
0.9984527
0.99839862
0.99834801
0.99830075
0.99825654
0.99821517
0.99817668
0.9981409
0.99810763
0.99807671
0.99804798
0.99802131
0.99799655
0.99797358
0.99795227
0.99793253
0.99791423
1.0001266
1.0001405
1.0001561
1.0001731
1.0001917
1.0002119
1.0002339
1.0002577
1.0002833
1.0003109
1.0003405
1.000372
1.0004055
1.0004408
1.0004778
1.0005162
1.0005557
1.000596
1.0006364
1.0006763
1.0007149
1.0007513
1.0007844
1.0008131
1.0008361
1.0008524
1.0008603
1.0008593
1.0008485
1.0008263
1.000793
1.0007486
1.0006928
1.0006263
1.0005502
1.0004653
1.0003729
1.0002744
1.0001708
1.0000635
0.9999542
0.99984393
0.99973365
0.99962446
0.99951732
0.99941283
0.99931113
0.99921249
0.99911767
0.99902701
0.99894054
0.99885829
0.99878031
0.99870648
0.99863696
0.99857174
0.99851042
0.99845277
0.99839871
0.99834811
0.99830084
0.99825665
0.99821534
0.99817687
0.99814108
0.9981078
0.99807686
0.99804812
0.99802144
0.99799667
0.9979737
0.99795239
0.99793264
0.99791433
1.0001266
1.0001405
1.0001561
1.0001731
1.0001917
1.0002119
1.0002339
1.0002576
1.0002833
1.0003109
1.0003405
1.000372
1.0004055
1.0004408
1.0004778
1.0005162
1.0005557
1.000596
1.0006364
1.0006763
1.0007149
1.0007513
1.0007845
1.0008132
1.0008362
1.0008525
1.0008603
1.0008593
1.0008486
1.0008264
1.0007932
1.0007487
1.000693
1.0006265
1.0005504
1.0004655
1.0003732
1.0002747
1.000171
1.0000638
0.99995445
0.99984418
0.99973391
0.99962472
0.99951756
0.99941302
0.9993113
0.9992127
0.99911789
0.99902723
0.99894075
0.9988585
0.99878051
0.99870671
0.9986372
0.99857194
0.99851059
0.99845291
0.99839882
0.9983482
0.99830089
0.9982567
0.99821542
0.99817695
0.99814117
0.9981079
0.99807697
0.99804824
0.99802157
0.99799681
0.99797385
0.99795255
0.99793281
0.99791451
1.0001266
1.0001405
1.0001561
1.0001731
1.0001917
1.0002119
1.0002339
1.0002576
1.0002833
1.0003109
1.0003405
1.000372
1.0004055
1.0004408
1.0004778
1.0005162
1.0005557
1.000596
1.0006364
1.0006763
1.0007149
1.0007513
1.0007845
1.0008132
1.0008362
1.0008525
1.0008604
1.0008594
1.0008487
1.0008266
1.0007933
1.000749
1.0006932
1.0006268
1.0005507
1.0004658
1.0003735
1.000275
1.0001714
1.0000641
0.99995483
0.99984455
0.99973429
0.99962511
0.99951792
0.99941333
0.99931159
0.99921301
0.99911822
0.99902755
0.99894107
0.99885881
0.99878083
0.99870705
0.99863753
0.99857221
0.99851081
0.99845312
0.99839904
0.99834842
0.99830112
0.99825694
0.99821569
0.99817725
0.99814148
0.99810821
0.99807728
0.99804855
0.99802187
0.99799711
0.99797414
0.99795283
0.99793308
0.99791477
1.0001265
1.0001405
1.0001561
1.0001731
1.0001917
1.0002119
1.0002338
1.0002576
1.0002833
1.0003109
1.0003405
1.000372
1.0004055
1.0004408
1.0004777
1.0005162
1.0005557
1.000596
1.0006364
1.0006763
1.0007149
1.0007513
1.0007845
1.0008132
1.0008363
1.0008526
1.0008605
1.0008596
1.0008489
1.0008268
1.0007936
1.0007493
1.0006936
1.0006272
1.0005511
1.0004663
1.000374
1.0002755
1.0001719
1.0000647
0.99995537
0.99984509
0.99973484
0.99962566
0.99951844
0.9994138
0.99931204
0.99921349
0.99911871
0.99902803
0.99894154
0.99885928
0.99878129
0.99870753
0.99863799
0.99857263
0.99851119
0.99845349
0.9983994
0.99834877
0.99830144
0.99825724
0.998216
0.99817757
0.99814179
0.99810852
0.99807759
0.99804886
0.99802218
0.99799742
0.99797446
0.99795315
0.99793341
0.9979151
1.0001265
1.0001405
1.0001561
1.0001731
1.0001917
1.0002119
1.0002338
1.0002576
1.0002833
1.0003109
1.0003405
1.000372
1.0004054
1.0004407
1.0004777
1.0005161
1.0005557
1.0005959
1.0006363
1.0006763
1.0007149
1.0007513
1.0007845
1.0008133
1.0008363
1.0008527
1.0008606
1.0008598
1.0008491
1.0008271
1.000794
1.0007497
1.0006941
1.0006277
1.0005517
1.0004669
1.0003747
1.0002762
1.0001726
1.0000654
0.99995613
0.99984586
0.99973562
0.99962643
0.99951918
0.99941449
0.99931271
0.99921417
0.9991194
0.99902871
0.99894221
0.99885994
0.99878195
0.99870819
0.99863864
0.99857322
0.99851175
0.99845402
0.99839991
0.99834928
0.99830195
0.99825775
0.99821653
0.99817811
0.99814235
0.99810908
0.99807816
0.99804943
0.99802275
0.99799799
0.99797502
0.99795371
0.99793396
0.99791564
1.0001265
1.0001405
1.0001561
1.0001731
1.0001916
1.0002119
1.0002338
1.0002576
1.0002833
1.0003109
1.0003404
1.000372
1.0004054
1.0004407
1.0004777
1.0005161
1.0005557
1.0005959
1.0006363
1.0006762
1.0007149
1.0007513
1.0007845
1.0008133
1.0008364
1.0008529
1.0008608
1.00086
1.0008495
1.0008275
1.0007945
1.0007502
1.0006947
1.0006285
1.0005525
1.0004678
1.0003756
1.0002771
1.0001736
1.0000665
0.99995718
0.99984692
0.99973669
0.9996275
0.99952022
0.99941548
0.99931367
0.99921514
0.99912037
0.99902967
0.99894315
0.99886087
0.99878287
0.9987091
0.99863953
0.99857407
0.99851255
0.99845481
0.99840069
0.99835004
0.99830269
0.99825849
0.99821725
0.99817883
0.99814306
0.99810979
0.99807885
0.99805012
0.99802343
0.99799867
0.99797569
0.99795438
0.99793463
0.99791631
1.0001265
1.0001405
1.000156
1.0001731
1.0001916
1.0002118
1.0002338
1.0002576
1.0002832
1.0003108
1.0003404
1.0003719
1.0004054
1.0004407
1.0004777
1.0005161
1.0005556
1.0005959
1.0006363
1.0006762
1.0007149
1.0007513
1.0007846
1.0008134
1.0008365
1.0008531
1.0008611
1.0008604
1.0008499
1.000828
1.0007951
1.000751
1.0006956
1.0006295
1.0005536
1.000469
1.0003768
1.0002784
1.000175
1.0000679
0.99995862
0.99984837
0.99973814
0.99962895
0.99952165
0.99941686
0.99931501
0.99921649
0.99912172
0.999031
0.99894446
0.99886216
0.99878413
0.99871035
0.99864075
0.99857525
0.99851369
0.99845591
0.99840177
0.9983511
0.99830374
0.99825952
0.99821829
0.99817986
0.9981441
0.99811082
0.99807989
0.99805116
0.99802447
0.9979997
0.99797672
0.9979554
0.99793563
0.99791731
1.0001265
1.0001405
1.000156
1.0001731
1.0001916
1.0002118
1.0002338
1.0002576
1.0002832
1.0003108
1.0003404
1.0003719
1.0004054
1.0004406
1.0004776
1.000516
1.0005556
1.0005958
1.0006363
1.0006762
1.0007149
1.0007513
1.0007846
1.0008135
1.0008367
1.0008533
1.0008614
1.0008608
1.0008505
1.0008287
1.000796
1.000752
1.0006967
1.0006308
1.0005551
1.0004706
1.0003785
1.0002802
1.0001768
1.0000698
0.99996056
0.99985032
0.99974011
0.99963092
0.99952358
0.99941874
0.99931686
0.99921833
0.99912355
0.9990328
0.99894623
0.99886391
0.99878585
0.99871204
0.99864241
0.99857686
0.99851526
0.99845745
0.99840327
0.99835258
0.9983052
0.99826097
0.99821972
0.99818128
0.9981455
0.99811221
0.99808126
0.99805251
0.99802581
0.99800103
0.99797803
0.99795671
0.99793694
0.9979186
1.0001265
1.0001405
1.000156
1.0001731
1.0001916
1.0002118
1.0002338
1.0002575
1.0002832
1.0003108
1.0003403
1.0003719
1.0004053
1.0004406
1.0004776
1.000516
1.0005555
1.0005958
1.0006362
1.0006762
1.0007148
1.0007513
1.0007847
1.0008136
1.0008369
1.0008536
1.0008618
1.0008613
1.0008512
1.0008296
1.0007971
1.0007533
1.0006983
1.0006325
1.000557
1.0004727
1.0003807
1.0002825
1.0001792
1.0000723
0.99996314
0.99985294
0.99974275
0.99963355
0.99952618
0.99942129
0.99931937
0.99922081
0.99912601
0.99903524
0.99894863
0.99886627
0.99878817
0.99871432
0.99864464
0.99857904
0.99851739
0.99845953
0.99840532
0.9983546
0.99830719
0.99826293
0.99822166
0.9981832
0.99814741
0.9981141
0.99808315
0.99805438
0.99802767
0.99800287
0.99797987
0.99795853
0.99793874
0.99792039
1.0001265
1.0001404
1.000156
1.000173
1.0001916
1.0002118
1.0002337
1.0002575
1.0002832
1.0003107
1.0003403
1.0003718
1.0004053
1.0004405
1.0004775
1.0005159
1.0005554
1.0005957
1.0006361
1.0006761
1.0007148
1.0007513
1.0007847
1.0008137
1.0008371
1.000854
1.0008623
1.000862
1.0008522
1.0008308
1.0007985
1.000755
1.0007002
1.0006348
1.0005595
1.0004754
1.0003836
1.0002856
1.0001824
1.0000756
0.99996655
0.9998564
0.99974623
0.99963703
0.99952963
0.9994247
0.99932272
0.99922414
0.9991293
0.99903848
0.99895182
0.99886941
0.99879126
0.99871735
0.99864762
0.99858196
0.99852025
0.99846234
0.99840808
0.99835732
0.99830987
0.99826558
0.99822428
0.99818579
0.99814997
0.99811664
0.99808565
0.99805687
0.99803013
0.99800532
0.99798229
0.99796094
0.99794114
0.99792278
1.0001265
1.0001404
1.000156
1.000173
1.0001916
1.0002118
1.0002337
1.0002575
1.0002831
1.0003107
1.0003402
1.0003718
1.0004052
1.0004405
1.0004774
1.0005158
1.0005554
1.0005956
1.0006361
1.000676
1.0007148
1.0007514
1.0007848
1.0008139
1.0008374
1.0008544
1.0008629
1.0008629
1.0008533
1.0008323
1.0008003
1.0007572
1.0007028
1.0006377
1.0005627
1.0004789
1.0003874
1.0002896
1.0001866
1.00008
0.99997102
0.99986093
0.99975081
0.99964161
0.99953419
0.9994292
0.99932717
0.99922854
0.99913365
0.99904277
0.99895605
0.99887357
0.99879535
0.99872137
0.99865156
0.99858583
0.99852405
0.99846608
0.99841176
0.99836093
0.99831344
0.9982691
0.99822775
0.99818923
0.99815337
0.99812
0.99808899
0.99806017
0.9980334
0.99800856
0.99798551
0.99796413
0.9979443
0.99792592
1.0001265
1.0001404
1.000156
1.000173
1.0001915
1.0002117
1.0002337
1.0002574
1.0002831
1.0003107
1.0003402
1.0003717
1.0004051
1.0004404
1.0004773
1.0005157
1.0005553
1.0005955
1.000636
1.000676
1.0007147
1.0007514
1.0007849
1.0008141
1.0008378
1.000855
1.0008638
1.000864
1.0008548
1.0008342
1.0008027
1.0007599
1.000706
1.0006414
1.0005669
1.0004835
1.0003924
1.0002948
1.0001921
1.0000857
0.99997684
0.99986684
0.99975677
0.99964758
0.99954013
0.99943509
0.99933301
0.99923431
0.99913935
0.99904839
0.99896158
0.99887901
0.9988007
0.99872663
0.99865674
0.99859092
0.99852905
0.99847099
0.9984166
0.99836571
0.99831814
0.99827375
0.99823234
0.99819377
0.99815786
0.99812445
0.99809339
0.99806453
0.99803773
0.99801285
0.99798977
0.99796836
0.99794851
0.9979301
1.0001265
1.0001404
1.000156
1.000173
1.0001915
1.0002117
1.0002336
1.0002574
1.000283
1.0003106
1.0003401
1.0003716
1.000405
1.0004403
1.0004772
1.0005156
1.0005551
1.0005954
1.0006359
1.0006759
1.0007147
1.0007514
1.000785
1.0008144
1.0008383
1.0008558
1.0008648
1.0008654
1.0008567
1.0008366
1.0008056
1.0007635
1.0007102
1.0006461
1.0005722
1.0004893
1.0003987
1.0003015
1.0001991
1.000093
0.99998433
0.99987447
0.99976447
0.99965531
0.99954784
0.99944275
0.99934059
0.99924181
0.99914676
0.9990557
0.99896878
0.9988861
0.99880768
0.99873349
0.99866348
0.99859755
0.99853557
0.99847741
0.99842292
0.99837193
0.99832429