/*--------------------------------*- C++ -*----------------------------------*\
| =========                 |                                                 |
| \\      /  F ield         | OpenFOAM: The Open Source CFD Toolbox           |
|  \\    /   O peration     | Version:  v2006                                 |
|   \\  /    A nd           | Website:  www.openfoam.com                      |
|    \\/     M anipulation  |                                                 |
\*---------------------------------------------------------------------------*/
FoamFile
{
    version     2.0;
    format      ascii;
    class       surfaceScalarField;
    location    "5000";
    object      phi;
}
// * * * * * * * * * * * * * * * * * * * * * * * * * * * * * * * * * * * * * //

dimensions      [1 0 -1 0 0 0 0];
oriented        oriented;


internalField   nonuniform List<scalar> 
110670
(
1.724967e-05
-0.00037606171
0.00035881201
3.0312629e-05
-0.00035387646
0.00034081348
4.0133705e-05
-0.00033463983
0.00032481871
4.7407191e-05
-0.00031767459
0.00031040108
5.2658769e-05
-0.00030259777
0.00029734614
5.6291173e-05
-0.00028912707
0.00028549464
5.8616185e-05
-0.00027704337
0.00027471831
5.9878231e-05
-0.00026616994
0.00026490787
6.0270515e-05
-0.00025636209
0.00025596977
5.9947366e-05
-0.00024749863
0.00024782175
5.9032616e-05
-0.00023947864
0.00024039336
5.7626522e-05
-0.00023221311
0.00023361918
5.5810726e-05
-0.00022562923
0.00022744499
5.3652371e-05
-0.00021966389
0.00022182223
5.120695e-05
-0.00021426295
0.00021670834
4.8520511e-05
-0.00020938034
0.00021206677
4.5631388e-05
-0.00020497546
0.00020786455
4.2571765e-05
-0.00020101325
0.00020407286
3.9368674e-05
-0.00019746313
0.00020066618
3.6045104e-05
-0.00019429865
0.00019762222
3.2620466e-05
-0.00019149693
0.00019492153
2.9111503e-05
-0.00018903805
0.00019254701
2.5532523e-05
-0.00018690502
0.00019048396
2.1896173e-05
-0.0001850834
0.00018871974
1.8213495e-05
-0.00018356122
0.00018724385
1.4494487e-05
-0.00018232863
0.00018604763
1.0748098e-05
-0.00018137787
0.00018512421
6.9826701e-06
-0.00018070292
0.00018446832
3.2059671e-06
-0.00018029961
0.00018407627
-5.7446557e-07
-0.00018016541
0.00018394582
-4.3512244e-06
-0.00018029948
0.0001840762
-8.116767e-06
-0.0001807026
0.00018446813
-1.1863314e-05
-0.00018137728
0.0001851238
-1.558257e-05
-0.00018232767
0.00018604691
-1.9265631e-05
-0.00018355985
0.00018724289
-2.2902609e-05
-0.00018508187
0.00018871884
-2.648246e-05
-0.00018690389
0.00019048372
-2.9992493e-05
-0.00018903811
0.00019254814
-3.3418177e-05
-0.0001914988
0.00019492446
-3.6742618e-05
-0.00019430239
0.00019762683
-3.9946314e-05
-0.00019746814
0.00020067181
-4.3006387e-05
-0.00020101863
0.0002040787
-4.5895975e-05
-0.00020498048
0.00020787004
-4.8583031e-05
-0.00020938469
0.00021207175
-5.1029296e-05
-0.00021426657
0.00021671281
-5.3188704e-05
-0.00021966668
0.00022182609
-5.500583e-05
-0.00022563103
0.00022744813
-5.6413468e-05
-0.00023221406
0.0002336217
-5.7329889e-05
-0.00023947917
0.00024039556
-5.7654671e-05
-0.00024749885
0.00024782363
-5.7264116e-05
-0.00025636154
0.00025597097
-5.6004174e-05
-0.00026616821
0.00026490827
-5.3681807e-05
-0.00027704095
0.00027471856
-5.0052713e-05
-0.00028912523
0.00028549613
-4.4804947e-05
-0.00030259831
0.00029735053
-3.7535141e-05
-0.00031767817
0.00031040836
-2.7714854e-05
-0.00033463816
0.00032481786
-1.464173e-05
-0.00035382192
0.0003407488
-0.0003756754
0.00035840057
2.6330925e-06
1.7287738e-05
-0.00039334948
3.0381214e-05
-0.00036696996
4.022152e-05
-0.00034448018
4.7507443e-05
-0.00032496055
5.2766051e-05
-0.00030785641
5.6401051e-05
-0.00029276211
5.8725295e-05
-0.00027936765
5.9983847e-05
-0.00026742854
6.0370532e-05
-0.00025674881
6.0040073e-05
-0.00024716822
5.9116588e-05
-0.00023855519
5.7700517e-05
-0.00023079709
5.5873766e-05
-0.00022380251
5.3703673e-05
-0.00021749386
5.1245951e-05
-0.00021180526
4.8546651e-05
-0.00020668111
4.5644298e-05
-0.00020207313
4.2571026e-05
-0.00019794003
3.9354049e-05
-0.00019424617
3.6016247e-05
-0.00019096089
3.2577171e-05
-0.00018805788
2.905351e-05
-0.00018551442
2.5459694e-05
-0.00018331124
2.1808375e-05
-0.0001814321
1.8110642e-05
-0.00017986353
1.4376516e-05
-0.00017859453
1.061497e-05
-0.00017761638
6.834373e-06
-0.00017692236
3.0425168e-06
-0.0001765078
-7.5306387e-07
-0.00017636989
-4.5449216e-06
-0.00017650766
-8.3255542e-06
-0.00017692203
-1.2087122e-05
-0.00017761575
-1.5821385e-05
-0.00017859346
-1.9519345e-05
-0.00017986192
-2.317116e-05
-0.0001814301
-2.6765701e-05
-0.00018330938
-3.0290326e-05
-0.00018551352
-3.37304e-05
-0.00018805876
-3.7069031e-05
-0.00019096379
-4.0286589e-05
-0.00019425061
-4.3360196e-05
-0.00019794505
-4.6262872e-05
-0.00020207783
-4.8962589e-05
-0.000206685
-5.142095e-05
-0.00021180824
-5.3591831e-05
-0.00021749582
-5.5419575e-05
-0.00022380331
-5.6836816e-05
-0.00023079685
-5.7761519e-05
-0.00023855449
-5.8093034e-05
-0.00024716736
-5.7707309e-05
-0.00025674729
-5.6449941e-05
-0.00026742561
-5.4127357e-05
-0.00027936355
-5.049454e-05
-0.00029275807
-4.5238666e-05
-0.0003078542
-3.7955351e-05
-0.00032496151
-2.8114666e-05
-0.00034447886
-1.5012172e-05
-0.00036692444
-0.00039299105
2.3034604e-06
1.7328309e-05
-0.00041067782
3.0451867e-05
-0.00038009359
4.0312302e-05
-0.00035434062
4.7611257e-05
-0.00033225955
5.2877429e-05
-0.00031312259
5.6515682e-05
-0.00029640038
5.8839862e-05
-0.00028169184
6.0095714e-05
-0.0002686844
6.0477573e-05
-0.00025713069
6.0140629e-05
-0.00024683127
5.9209195e-05
-0.00023762379
5.7783933e-05
-0.00022937183
5.5946954e-05
-0.00022196558
5.3765949e-05
-0.00021531287
5.1296687e-05
-0.00020933604
4.8585404e-05
-0.00020396987
4.5670621e-05
-0.00019915839
4.2584534e-05
-0.00019485402
3.9354401e-05
-0.00019101605
3.6003069e-05
-0.00018760965
3.2550252e-05
-0.00018460506
2.9012542e-05
-0.00018197678
2.540462e-05
-0.00017970331
2.1739018e-05
-0.00017776654
1.8027008e-05
-0.00017615151
1.4278494e-05
-0.00017484602
1.0502513e-05
-0.0001738404
6.7074389e-06
-0.00017312727
2.9010412e-06
-0.00017270144
-9.090062e-07
-0.00017255982
-4.7153672e-06
-0.00017270135
-8.5103681e-06
-0.00017312702
-1.2286311e-05
-0.00017383986
-1.6034803e-05
-0.00017484499
-1.9746943e-05
-0.00017614983
-2.3412812e-05
-0.00017776427
-2.7021331e-05
-0.00017970089
-3.0559834e-05
-0.00018197506
-3.4013643e-05
-0.00018460497
-3.736583e-05
-0.00018761165
-4.0596676e-05
-0.00019101978
-4.3683261e-05
-0.00019485849
-4.6598533e-05
-0.00019916257
-4.9310392e-05
-0.00020397316
-5.1780357e-05
-0.00020933829
-5.3962128e-05
-0.00021531406
-5.5799905e-05
-0.00022196556
-5.7226106e-05
-0.00022937065
-5.8158507e-05
-0.00023762211
-5.849615e-05
-0.00024682973
-5.8114714e-05
-0.00025712875
-5.6859374e-05
-0.00026868096
-5.4536098e-05
-0.00028168685
-5.0899137e-05
-0.00029639504
-4.56348e-05
-0.00031311855
-3.833772e-05
-0.0003322586
-2.8476565e-05
-0.00035434003
-1.5344851e-05
-0.00038005617
-0.00041034713
2.0112172e-06
1.7368894e-05
-0.00042804669
3.0521357e-05
-0.00039324605
4.040264e-05
-0.00036422187
4.7715295e-05
-0.0003395722
5.2989687e-05
-0.00031839693
5.6631904e-05
-0.00030004258
5.8956763e-05
-0.00028401665
6.0210566e-05
-0.00026993817
6.0588289e-05
-0.00025750836
6.0245506e-05
-0.00024648844
5.9306714e-05
-0.00023668496
5.7872801e-05
-0.00022793785
5.6026193e-05
-0.00022011894
5.3834867e-05
-0.00021312147
5.1354719e-05
-0.00020685588
4.8632174e-05
-0.00020124726
4.5705696e-05
-0.0001962319
4.2607654e-05
-0.00019175593
3.9365143e-05
-0.00018777353
3.600119e-05
-0.00018424568
3.2535388e-05
-0.00018113923
2.8984504e-05
-0.0001784259
2.5363204e-05
-0.00017608196
2.1684106e-05
-0.00017408745
1.7958563e-05
-0.0001724259
1.4196434e-05
-0.00017108388
1.0406855e-05
-0.00017005075
6.5980786e-06
-0.00016931844
2.7779923e-06
-0.00016888129
-1.0458269e-06
-0.00016873592
-4.865929e-06
-0.00016888121
-8.6746709e-06
-0.0001693182
-1.2464267e-05
-0.00017005024
-1.6226293e-05
-0.0001710829
-1.9951846e-05
-0.00017242426
-2.3630967e-05
-0.0001740851
-2.7252626e-05
-0.00017607922
-3.0804107e-05
-0.00017842355
-3.4270789e-05
-0.00018113827
-3.7635644e-05
-0.00018424676
-4.087895e-05
-0.00018777645
-4.3977681e-05
-0.00019175973
-4.6904758e-05
-0.00019623547
-4.9627983e-05
-0.0002012499
-5.2108794e-05
-0.00020685745
-5.4300726e-05
-0.0002131221
-5.6147803e-05
-0.00022011846
-5.7582281e-05
-0.00022793614
-5.8521713e-05
-0.00023668266
-5.8864872e-05
-0.00024648654
-5.8487112e-05
-0.00025750649
-5.7233221e-05
-0.00026993482
-5.4908703e-05
-0.00028401136
-5.126714e-05
-0.00030003658
-4.5993878e-05
-0.00031839181
-3.8682649e-05
-0.0003395698
-2.8800712e-05
-0.00036422196
-1.5639586e-05
-0.00039321727
-0.00042774372
1.7570048e-06
1.7409605e-05
-0.00044545623
3.0592235e-05
-0.00040642857
4.0494581e-05
-0.00037412418
4.7821346e-05
-0.00034689888
5.3104401e-05
-0.00032367997
5.6751151e-05
-0.00030368929
5.907726e-05
-0.00028634274
6.0329674e-05
-0.00027119057
6.0703913e-05
-0.00025788257
6.0355934e-05
-0.00024614045
5.9410342e-05
-0.00023573932
5.7968146e-05
-0.00022649564
5.6112319e-05
-0.00021826307
5.3910983e-05
-0.0002109201
5.1420303e-05
-0.00020436515
4.8686745e-05
-0.00019851363
4.5748904e-05
-0.00019329403
4.263918e-05
-0.00018864612
3.9384619e-05
-0.00018451896
3.6008394e-05
-0.00018086937
3.2529957e-05
-0.00017766079
2.8966351e-05
-0.00017486223
2.5332048e-05
-0.00017244766
2.1639937e-05
-0.0001703953
1.790118e-05
-0.00016868714
1.4125855e-05
-0.00016730854
1.0323004e-05
-0.00016624788
6.5009565e-06
-0.00016549639
2.6676008e-06
-0.00016504791
-1.1695479e-06
-0.00016489877
-5.002951e-06
-0.00016504776
-8.8250624e-06
-0.00016549607
-1.2627954e-05
-0.00016624731
-1.6403272e-05
-0.00016730754
-2.014197e-05
-0.00016868552
-2.3834098e-05
-0.00017039292
-2.7468584e-05
-0.0001724447
-3.1032735e-05
-0.00017485935
-3.451194e-05
-0.00017765904
-3.7889101e-05
-0.00018086956
-4.1144466e-05
-0.00018452106
-4.4254919e-05
-0.00018864925
-4.7193335e-05
-0.00019329704
-4.9927439e-05
-0.00019851577
-5.2418588e-05
-0.00020436629
-5.4620174e-05
-0.00021092049
-5.6475999e-05
-0.00021826261
-5.7918221e-05
-0.0002264939
-5.8864158e-05
-0.0002357367
-5.9212354e-05
-0.00024613832
-5.8837774e-05
-0.00025788105
-5.7584874e-05
-0.0002711877
-5.5258658e-05
-0.00028633755
-5.1612142e-05
-0.00030368308
-4.6329579e-05
-0.00032367435
-3.900391e-05
-0.00034689546
-2.9100928e-05
-0.00037412493
-1.5910259e-05
-0.00040640792
-0.00044518098
1.5270139e-06
1.7449945e-05
-0.0004629062
3.0662004e-05
-0.00041964063
4.0585518e-05
-0.00038404773
4.792643e-05
-0.0003542398
5.321843e-05
-0.000328972
5.687006e-05
-0.00030734093
5.9197923e-05
-0.00028867063
6.0449446e-05
-0.00027244212
6.0820809e-05
-0.00025825395
6.046832e-05
-0.00024578801
5.9516472e-05
-0.00023478747
5.8066682e-05
-0.0002250459
5.6202414e-05
-0.00021639878
5.3991841e-05
-0.00020870957
5.1491304e-05
-0.00020186458
4.8747178e-05
-0.00019576954
4.5798337e-05
-0.00019034516
4.2677065e-05
-0.00018552486
3.9410713e-05
-0.00018125258
3.6022316e-05
-0.00017748096
3.2531591e-05
-0.00017417006
2.8955482e-05
-0.0001712861
2.530863e-05
-0.00016880081
2.1603863e-05
-0.00016669052
1.7852396e-05
-0.00016493568
1.4064289e-05
-0.00016352043
1.0248611e-05
-0.00016243221
6.4137224e-06
-0.00016166152
2.567525e-06
-0.00016120171
-1.2824501e-06
-0.00016104882
-5.1286457e-06
-0.00016120156
-8.9635504e-06
-0.00016166119
-1.2779201e-05
-0.00016243164
-1.6567288e-05
-0.00016351948
-2.0318656e-05
-0.00016493414
-2.4023396e-05
-0.0001666882
-2.7670323e-05
-0.00016879776
-3.1246833e-05
-0.00017128285
-3.4738218e-05
-0.00017416764
-3.8127406e-05
-0.00017748038
-4.1394504e-05
-0.00018125396
-4.4516386e-05
-0.00018552737
-4.7465763e-05
-0.00019034765
-5.0210331e-05
-0.00019577122
-5.2711364e-05
-0.00020186524
-5.4922177e-05
-0.00020870969
-5.6786264e-05
-0.00021639852
-5.8235716e-05
-0.00022504446
-5.918768e-05
-0.00023478473
-5.954046e-05
-0.00024578555
-5.916866e-05
-0.00025825284
-5.7916349e-05
-0.00027244002
-5.5588064e-05
-0.00028866583
-5.1936318e-05
-0.00030733483
-4.6644222e-05
-0.00032896644
-3.9303926e-05
-0.00035423576
-2.9379882e-05
-0.00038404897
-1.6159719e-05
-0.00041962809
-0.00046265872
1.3180329e-06
1.7490865e-05
-0.00048039706
3.0733016e-05
-0.00043288281
4.0678122e-05
-0.00039399282
4.8033537e-05
-0.00036159522
5.3334896e-05
-0.00033427334
5.6991828e-05
-0.00031099784
5.9321762e-05
-0.00029100055
6.0572717e-05
-0.00027369304
6.094156e-05
-0.0002586228
6.0584953e-05
-0.00024543137
5.9626951e-05
-0.00023382948
5.8170161e-05
-0.0002235891
5.6298152e-05
-0.00021452678
5.4079216e-05
-0.00020649064
5.1569441e-05
-0.00019935481
4.8815394e-05
-0.00019301551
4.5856e-05
-0.00018738575
4.2723684e-05
-0.00018239257
3.9445906e-05
-0.00017797478
3.6045768e-05
-0.00017408084
3.2543141e-05
-0.0001706674
2.8954953e-05
-0.00016769791
2.5295949e-05
-0.00016514179
2.1578904e-05
-0.00016297346
1.7815106e-05
-0.00016117186
1.4014601e-05
-0.00015971991
1.018648e-05
-0.00015860408
6.339131e-06
-0.00015781415
2.4804315e-06
-0.000157343
-1.382e-06
-0.00015718638
-5.2406605e-06
-0.00015734289
-9.0879357e-06
-0.00015781391
-1.2915926e-05
-0.00015860364
-1.6716245e-05
-0.00015971916
-2.0479785e-05
-0.00016117059
-2.4196563e-05
-0.00016297142
-2.7855415e-05
-0.0001651389
-3.1443718e-05
-0.00016769455
-3.4946794e-05
-0.00017066456
-3.8347495e-05
-0.00017407968
-4.1625871e-05
-0.00017797557
-4.4758687e-05
-0.00018239456
-4.7718534e-05
-0.00018738779
-5.047302e-05
-0.00019301673
-5.2983436e-05
-0.00019935482
-5.5203058e-05
-0.00020649006
-5.7075051e-05
-0.00021452651
-5.8531371e-05
-0.00022358814
-5.9489068e-05
-0.00023382702
-5.9846144e-05
-0.00024542848
-5.9476883e-05
-0.00025862209
-5.8224901e-05
-0.00027369201
-5.5894293e-05
-0.00029099643
-5.223717e-05
-0.00031099196
-4.6935445e-05
-0.00033426816
-3.9580409e-05
-0.0003615908
-2.9635362e-05
-0.00039399401
-1.6385822e-05
-0.00043287764
-0.00048017665
1.1321074e-06
1.7532363e-05
-0.00049792941
3.0804259e-05
-0.00044615472
4.0771705e-05
-0.00040396024
4.8142025e-05
-0.00036896554
5.3453143e-05
-0.00033958442
5.711579e-05
-0.00031466048
5.9448035e-05
-0.00029333276
6.0698565e-05
-0.00027494354
6.1065216e-05
-0.00025898942
6.0704457e-05
-0.00024507057
5.9740054e-05
-0.00023286505
5.8276563e-05
-0.00022212556
5.6397213e-05
-0.00021264741
5.4170171e-05
-0.00020426356
5.165126e-05
-0.00019683588
4.8887396e-05
-0.00019025162
4.5917605e-05
-0.00018441594
4.2774495e-05
-0.00017924944
3.9485531e-05
-0.00017468579
3.6073971e-05
-0.00017066927
3.2559719e-05
-0.00016715312
2.8959762e-05
-0.00016409794
2.5288862e-05
-0.00016147085
2.1559789e-05
-0.00015924437
1.7783877e-05
-0.00015739591
1.3971152e-05
-0.00015590716
1.0130761e-05
-0.00015476365
6.2710871e-06
-0.00015395445
2.4000558e-06
-0.00015347193
-1.4747157e-06
-0.00015331157
-5.3457006e-06
-0.00015347187
-9.2052723e-06
-0.00015395431
-1.304551e-05
-0.00015476338
-1.6857998e-05
-0.00015590664
-2.0633604e-05
-0.00015739496
-2.436231e-05
-0.0001592427
-2.8032936e-05
-0.00016146825
-3.1632861e-05
-0.0001640946
-3.5147432e-05
-0.00016714996
-3.8559412e-05
-0.00017066768
-4.1848849e-05
-0.00017468611
-4.4992346e-05
-0.00017925104
-4.7962408e-05
-0.00018441771
-5.0726484e-05
-0.00019025264
-5.3245904e-05
-0.00019683537
-5.5474065e-05
-0.00020426189
-5.7353724e-05
-0.00021264683
-5.8816663e-05
-0.00022212519
-5.9779825e-05
-0.00023286384
-6.0140909e-05
-0.00024506738
-5.9773862e-05
-0.00025898912
-5.8521835e-05
-0.00027494402
-5.6188367e-05
-0.00029332987
-5.2525331e-05
-0.00031465499
-4.7213473e-05
-0.00033957999
-3.9842815e-05
-0.00036896145
-2.9875967e-05
-0.00040396084
-1.6595863e-05
-0.00044615774
-0.00049773616
9.6367055e-07
1.7570601e-05
-0.00051550003
3.0871855e-05
-0.00045945597
4.0861735e-05
-0.00041395014
4.82464e-05
-0.00037635021
5.3567036e-05
-0.00034490506
5.7235798e-05
-0.00031832925
5.9570034e-05
-0.00029566699
6.0820214e-05
-0.00027619373
6.1185166e-05
-0.00025935436
6.0820063e-05
-0.00024470546
5.9849056e-05
-0.00023189402
5.8379269e-05
-0.00022065576
5.649287e-05
-0.000210761
5.4257782e-05
-0.00020202845
5.1729636e-05
-0.00019430772
4.895593e-05
-0.00018747789
4.5975845e-05
-0.00018143584
4.2822068e-05
-0.00017609564
3.9522099e-05
-0.00017138581
3.6099323e-05
-0.00016724647
3.2573653e-05
-0.00016362743
2.8962159e-05
-0.00016048643
2.5279581e-05
-0.00015778825
2.1538734e-05
-0.00015550351
1.7750931e-05
-0.00015360809
1.3926232e-05
-0.00015208245
1.007379e-05
-0.00015091118
6.2020052e-06
-0.00015008265
2.3188455e-06
-0.00014958875
-1.5680865e-06
-0.00014942463
-5.4512193e-06
-0.00014958871
-9.3229433e-06
-0.00015008258
-1.3175289e-05
-0.000150911
-1.6999844e-05
-0.00015208208
-2.0787426e-05
-0.00015360735
-2.4528007e-05
-0.00015550211
-2.8210343e-05
-0.00015778588
-3.182184e-05
-0.0001604831
-3.5347797e-05
-0.00016362397
-3.877094e-05
-0.00016724454
-4.2071336e-05
-0.00017138568
-4.5225411e-05
-0.00017609697
-4.8205541e-05
-0.00018143754
-5.0979051e-05
-0.00018747913
-5.3507228e-05
-0.00019430716
-5.5743727e-05
-0.00020202539
-5.7630875e-05
-0.00021075965
-5.9100307e-05
-0.00022065576
-6.0068759e-05
-0.00023189535
-6.0433801e-05
-0.00024470235
-6.0068898e-05
-0.00025935399
-5.8816804e-05
-0.00027619613
-5.6480376e-05
-0.00029566627
-5.2811335e-05
-0.00031832404
-4.7489951e-05
-0.00034490134
-4.010356e-05
-0.00037634786
-3.0115537e-05
-0.00041394883
-1.6804936e-05
-0.00045946835
-0.00051533726
7.9619109e-07
1.7607272e-05
-0.00053310725
3.093663e-05
-0.00047278528
4.094803e-05
-0.00042396149
4.8344127e-05
-0.00038374627
5.3672629e-05
-0.00035023353
5.7348503e-05
-0.00032200509
5.9683656e-05
-0.00029800211
6.0933897e-05
-0.00027744395
6.1299067e-05
-0.00025971949
6.0929419e-05
-0.0002443358
5.9953766e-05
-0.00023091834
5.8478398e-05
-0.00021918038
5.6586635e-05
-0.0002088692
5.4344866e-05
-0.00019978667
5.1809135e-05
-0.00019177195
4.902746e-05
-0.0001846962
4.603915e-05
-0.0001784475
4.2876763e-05
-0.00017293324
3.9567888e-05
-0.00016807691
3.6135931e-05
-0.0001638145
3.2600881e-05
-0.00016009235
2.8979799e-05
-0.00015686534
2.5287478e-05
-0.0001540959
2.153674e-05
-0.00015175276
1.7738943e-05
-0.00014981026
1.3904136e-05
-0.00014824763
1.0041503e-05
-0.00014704852
6.1594232e-06
-0.00014620057
2.2658926e-06
-0.00014569518
-1.6314785e-06
-0.00014552725
-5.5250256e-06
-0.00014569513
-9.4071292e-06
-0.00014620047
-1.3269776e-05
-0.00014704832
-1.7104581e-05
-0.00014824727
-2.0902309e-05
-0.00014980958
-2.4652953e-05
-0.00015175146
-2.8345238e-05
-0.00015409356
-3.1966555e-05
-0.00015686179
-3.5502008e-05
-0.00016008848
-3.8934495e-05
-0.00016381205
-4.2244017e-05
-0.00016807612
-4.5406875e-05
-0.00017293411
-4.8395202e-05
-0.00017844918
-5.1176417e-05
-0.00018469792
-5.371191e-05
-0.00019177163
-5.5954853e-05
-0.00019978246
-5.7847882e-05
-0.00020886659
-5.9322199e-05
-0.00021918146
-6.029438e-05
-0.00023092313
-6.0662185e-05
-0.00024433455
-6.0298462e-05
-0.00025971768
-5.9045424e-05
-0.00027744918
-5.670574e-05
-0.00029800591
-5.3030268e-05
-0.00032199953
-4.7702458e-05
-0.00035022912
-4.030135e-05
-0.00038374898
-3.029708e-05
-0.00042395306
-1.6959645e-05
-0.00047280581
-0.00053297474
6.7787178e-07
1.7649493e-05
-0.00055075673
3.0998679e-05
-0.00048613445
4.1037297e-05
-0.0004340001
4.8439118e-05
-0.00039114807
5.3774343e-05
-0.00035556874
5.7460639e-05
-0.00032569137
5.9790676e-05
-0.00030033213
6.1038298e-05
-0.00027869155
6.1405382e-05
-0.00026008656
6.1029067e-05
-0.00024395947
6.0051661e-05
-0.00022994091
5.8568837e-05
-0.00021769755
5.6672437e-05
-0.00020697278
5.4423033e-05
-0.00019753726
5.1880432e-05
-0.00018922933
4.9090683e-05
-0.00018190644
4.6094419e-05
-0.00017545121
4.2923798e-05
-0.00016976261
3.960646e-05
-0.00016475954
3.6165756e-05
-0.00016037378
3.2621741e-05
-0.00015654831
2.8991508e-05
-0.00015323509
2.5289875e-05
-0.00015039424
2.1529706e-05
-0.00014799258
1.772238e-05
-0.00014600291
1.3877988e-05
-0.00014440323
1.0005728e-05
-0.00014317623
6.1140265e-06
-0.00014230885
2.2108674e-06
-0.00014179199
-1.6960834e-06
-0.00014162029
-5.599183e-06
-0.000141792
-9.4908122e-06
-0.00014230883
-1.3362958e-05
-0.00014317614
-1.7207208e-05
-0.00014440301
-2.1014378e-05
-0.00014600238
-2.4774475e-05
-0.00014799136
-2.8476343e-05
-0.00015039166
-3.2107036e-05
-0.00015323109
-3.565092e-05
-0.00015654457
-3.9092367e-05
-0.0001603706
-4.2410033e-05
-0.00016475843
-4.5581096e-05
-0.00016976305
-4.8576347e-05
-0.0001754539
-5.1364494e-05
-0.00018190977
-5.3907986e-05
-0.00018922811
-5.6155495e-05
-0.00019753494
-5.8053382e-05
-0.00020696867
-5.9530644e-05
-0.00021770419
-6.0504004e-05
-0.00022994975
-6.0872566e-05
-0.00024396599
-6.0507478e-05
-0.00026008274
-5.9249702e-05
-0.00027870695
-5.6903426e-05
-0.00030035217
-5.3215864e-05
-0.00032568709
-4.7884572e-05
-0.00035556038
-4.0461407e-05
-0.00039117216
-3.0443458e-05
-0.00043397098
-1.7068453e-05
-0.00048618083
-0.00055066115
6.179917e-07
1.7712309e-05
-0.00056846904
3.1120666e-05
-0.00049954281
4.1196895e-05
-0.00044407632
4.8627747e-05
-0.00039857892
5.3993382e-05
-0.00036093437
5.768467e-05
-0.00032938265
6.0019096e-05
-0.00030266655
6.127892e-05
-0.00027995137
6.1638266e-05
-0.0002604459
6.1254791e-05
-0.00024357599
6.0262189e-05
-0.0002289483
5.8771355e-05
-0.00021620671
5.685996e-05
-0.00020506137
5.4590143e-05
-0.00019526744
5.2024754e-05
-0.00018666393
4.9213974e-05
-0.00017909566
4.6194549e-05
-0.00017243177
4.299986e-05
-0.00016656792
3.9658026e-05
-0.00016141769
3.619269e-05
-0.00015690845
3.2623897e-05
-0.0001529795
2.8968825e-05
-0.00014958002
2.5242375e-05
-0.00014666777
2.1457435e-05
-0.00014420764
1.7625439e-05
-0.00014217089
1.3756509e-05
-0.0001405343
9.85991e-06
-0.0001392796
5.9440835e-06
-0.00013839303
2.0170931e-06
-0.00013786497
-1.9135549e-06
-0.00013768965
-5.840483e-06
-0.00013786504
-9.7562162e-06
-0.00013839311
-1.3652641e-05
-0.00013927969
-1.7521321e-05
-0.00014053435
-2.1352873e-05
-0.0001421708
-2.5137052e-05
-0.00014420719
-2.8862199e-05
-0.00014666648
-3.2516044e-05
-0.00014957726
-3.6084387e-05
-0.00015297619
-3.9548313e-05
-0.00015690669
-4.2889836e-05
-0.00016141686
-4.6084704e-05
-0.0001665682
-4.9102721e-05
-0.00017243584
-5.1910445e-05
-0.00017910207
-5.4469643e-05
-0.00018666887
-5.6738499e-05
-0.00019526611
-5.8654288e-05
-0.00020505284
-6.0148884e-05
-0.00021620962
-6.1139733e-05
-0.00022895886
-6.1518025e-05
-0.00024358773
-6.1165173e-05
-0.00026043554
-5.9911671e-05
-0.00027996049
-5.756998e-05
-0.00030269381
-5.3871404e-05
-0.0003293857
-4.8518974e-05
-0.00036091276
-4.1068265e-05
-0.00039862291
-3.1004782e-05
-0.0004440344
-1.7581166e-05
-0.00049960449
-0.00056841614
1.7388862e-07
1.7565226e-05
-0.00058603426
3.1053003e-05
-0.00051303058
4.1107376e-05
-0.00045413068
4.8598403e-05
-0.00040606994
5.3950921e-05
-0.00036628687
5.7615868e-05
-0.00033304759
5.9996651e-05
-0.00030504732
6.125655e-05
-0.00028121127
6.1593949e-05
-0.00026078329
6.1217758e-05
-0.0002431998
6.0241512e-05
-0.00022797204
5.8751474e-05
-0.00021471667
5.68292e-05
-0.00020313908
5.4569873e-05
-0.00019300811
5.2025508e-05
-0.00018411954
4.9235171e-05
-0.00017630532
4.6234956e-05
-0.00016943153
4.3058456e-05
-0.00016339142
3.973387e-05
-0.00015809308
3.6284912e-05
-0.00015345949
3.2731739e-05
-0.0001494263
2.9091564e-05
-0.00014593985
2.5379341e-05
-0.00014295552
2.1607984e-05
-0.00014043629
1.7788977e-05
-0.00013835185
1.3932445e-05
-0.00013667778
1.0047677e-05
-0.0001353948
6.1431085e-06
-0.00013448847
2.2268249e-06
-0.00013394866
-1.6934516e-06
-0.00013376938
-5.6098017e-06
-0.00013394865
-9.5144636e-06
-0.00013448846
-1.3399333e-05
-0.00013539478
-1.7255953e-05
-0.00013667774
-2.1074911e-05
-0.0001383518
-2.4845917e-05
-0.0001404362
-2.8557226e-05
-0.00014295513
-3.2197018e-05
-0.00014593748
-3.5755309e-05
-0.00014941786
-3.9218822e-05
-0.0001534432
-4.2566857e-05
-0.0001580688
-4.577249e-05
-0.00016336258
-4.8806565e-05
-0.00016940174
-5.1629796e-05
-0.00017627885
-5.4194879e-05
-0.00018410376
-5.6459374e-05
-0.00019300164
-5.8377732e-05
-0.00020313445
-5.9882489e-05
-0.00021470489
-6.0881996e-05
-0.00022795931
-6.1273301e-05
-0.00024319644
-6.0923536e-05
-0.00026078527
-5.9687334e-05
-0.00028119672
-5.7347718e-05
-0.00030503338
-5.3669764e-05
-0.00033306369
-4.8279988e-05
-0.00036630248
-4.0861718e-05
-0.00040604121
-3.0740779e-05
-0.00045415528
-1.7372633e-05
-0.00051297267
-0.00058610562
3.1692082e-07
1.7592488e-05
3.1090884e-05
4.115174e-05
4.8650724e-05
5.3996094e-05
5.7668463e-05
6.0054891e-05
6.1305077e-05
6.1645696e-05
6.1271538e-05
6.0302104e-05
5.8808538e-05
5.6886239e-05
5.4630508e-05
5.2090729e-05
4.9301841e-05
4.6303922e-05
4.3129725e-05
3.9807185e-05
3.6359862e-05
3.2808033e-05
2.9168906e-05
2.5457461e-05
2.1686621e-05
1.7867915e-05
1.4011454e-05
1.0126578e-05
6.22169e-06
2.3049296e-06
-1.6159547e-06
-5.5327736e-06
-9.4377283e-06
-1.3322642e-05
-1.7179174e-05
-2.0997902e-05
-2.4768868e-05
-2.84805e-05
-3.2120338e-05
-3.5676613e-05
-3.9139055e-05
-4.2483584e-05
-4.5685103e-05
-4.8715236e-05
-5.1536932e-05
-5.4102801e-05
-5.6361352e-05
-5.8275019e-05
-5.9773818e-05
-6.0764484e-05
-6.1151426e-05
-6.0790713e-05
-5.9547417e-05
-5.719402e-05
-5.3511277e-05
-4.8113149e-05
-4.0687293e-05
-3.0554415e-05
-1.7167129e-05
5.4557275e-07
-6.888069e-06
-0.00022311117
0.00021719447
1.2804932e-05
-1.7545859e-06
-0.00022380828
0.00021867487
2.6677311e-06
-0.00022453822
0.000220116
6.4428187e-06
-0.00022529176
0.00022151675
9.6277087e-06
-0.0002260606
0.0002228758
1.2273437e-05
-0.00022683781
0.00022419216
1.4425962e-05
-0.00022761709
0.00022546465
1.612676e-05
-0.00022839277
0.00022669205
1.7413501e-05
-0.00022916001
0.00022787335
1.8320458e-05
-0.00022991424
0.00022900736
1.8879076e-05
-0.00023065158
0.00023009305
1.9118154e-05
-0.00023136839
0.00023112938
1.9064347e-05
-0.00023206149
0.00023211537
1.8742328e-05
-0.00023272805
0.00023305014
1.8175072e-05
-0.00023336537
0.0002339327
1.738406e-05
-0.00023397124
0.00023476231
1.6389467e-05
-0.0002345436
0.00023553825
1.5210323e-05
-0.00023508066
0.00023625986
1.3864648e-05
-0.00023558069
0.00023692642
1.2369573e-05
-0.00023604207
0.0002375372
1.0741452e-05
-0.00023646327
0.00023809144
8.9959572e-06
-0.00023684299
0.00023858853
7.1481787e-06
-0.00023718026
0.00023902808
5.2127155e-06
-0.00023747435
0.00023940985
3.2037535e-06
-0.00023772473
0.00023973373
1.1351493e-06
-0.00023793076
0.00023999939
-9.7952395e-07
-0.00023809174
0.00024020643
-3.1268992e-06
-0.00023820704
0.00024035444
-5.2937472e-06
-0.00023827624
0.00024044311
-7.4669265e-06
-0.00023829911
0.0002404723
-9.6333308e-06
-0.00023827557
0.00024044199
-1.1779822e-05
-0.00023820568
0.00024035219
-1.3893198e-05
-0.00023808961
0.000240203
-1.5960149e-05
-0.0002379277
0.00023999467
-1.796719e-05
-0.00023772052
0.00023972758
-1.990056e-05
-0.00023746886
0.00023940224
-2.1746098e-05
-0.00023717362
0.00023901917
-2.3489154e-05
-0.00023683558
0.00023857865
-2.5114527e-05
-0.00023645554
0.00023808092
-2.6606452e-05
-0.00023603422
0.00023752616
-2.7948541e-05
-0.00023557262
0.00023691471
-2.9123705e-05
-0.000235072
0.00023624717
-3.0114019e-05
-0.00023453397
0.0002355243
-3.0900586e-05
-0.00023396043
0.000234747
-3.1463337e-05
-0.00023335337
0.00023391613
-3.1780908e-05
-0.00023271502
0.00023303261
-3.1830329e-05
-0.00023204768
0.00023209711
-3.1586907e-05
-0.00023135396
0.00023111055
-3.1023916e-05
-0.0002306365
0.00023007352
-3.0112473e-05
-0.00022989823
0.0002289868
-2.8821175e-05
-0.00022914256
0.00022785127
-2.7115836e-05
-0.00022837337
0.00022666804
-2.4959072e-05
-0.00022759575
0.000225439
-2.2309952e-05
-0.00022681631
0.00022416721
-1.9123764e-05
-0.00022604587
0.00022285969
-1.5351769e-05
-0.00022530518
0.00022153324
-1.094163e-05
-0.00022464042
0.00022023033
-5.8396535e-06
-0.00022416954
0.00021906761
-0.00022423085
0.0002183912
-5.6258067e-06
-0.00022948206
1.1996841e-05
-1.0244518e-07
-0.00022933157
4.6513733e-06
-0.00022929195
8.7048169e-06
-0.00022934513
1.2119676e-05
-0.00022947536
1.4951166e-05
-0.00022966922
1.7249015e-05
-0.00022991485
1.9058084e-05
-0.00023020176
2.0419126e-05
-0.00023052097
2.1369218e-05
-0.00023086426
2.1942384e-05
-0.00023122467
2.2169783e-05
-0.00023159571
2.208026e-05
-0.00023197189
2.1700514e-05
-0.00023234824
2.1055406e-05
-0.0002327202
2.0168193e-05
-0.00023308396
1.9060714e-05
-0.00023343606
1.7753551e-05
-0.00023377345
1.6266192e-05
-0.00023409329
1.4617148e-05
-0.00023439299
1.282409e-05
-0.00023467018
1.0903962e-05
-0.00023492284
8.873101e-06
-0.00023514937
6.7473097e-06
-0.00023534854
4.5419444e-06
-0.00023551935
2.2719708e-06
-0.00023566077
-4.7931737e-08
-0.00023577182
-2.4033361e-06
-0.00023585163
-4.7799576e-06
-0.00023589961
-7.1635985e-06
-0.00023591545
-9.54008e-06
-0.00023589907
-1.1895207e-05
-0.00023585054
-1.4214683e-05
-0.00023577012
-1.6484066e-05
-0.00023565831
-1.8688693e-05
-0.00023551589
-2.0813616e-05
-0.00023534393
-2.2843508e-05
-0.00023514371
-2.4762565e-05
-0.00023491651
-2.6554422e-05
-0.00023466367
-2.8202066e-05
-0.00023438657
-2.9687758e-05
-0.00023408691
-3.099294e-05
-0.0002337668
-3.2098136e-05
-0.00023342876
-3.2982817e-05
-0.00023307573
-3.3625236e-05
-0.00023271094
-3.4002228e-05
-0.00023233802
-3.4089002e-05
-0.00023196089
-3.385884e-05
-0.00023158411
-3.3282852e-05
-0.00023121248
-3.2329832e-05
-0.00023085124
-3.0965737e-05
-0.00023050664
-2.9153478e-05
-0.00023018561
-2.6852488e-05
-0.00022989673
-2.4018241e-05
-0.00022965055
-2.0601815e-05
-0.00022946228
-1.6549772e-05
-0.00022935725
-1.1804175e-05
-0.00022938604
-6.3049593e-06
-0.00022966878
-0.00023053581
-4.3326066e-06
-0.00023634494
1.1195664e-05
1.613341e-06
-0.00023527744
6.7267564e-06
-0.00023440527
1.1082475e-05
-0.00023370077
1.4747311e-05
-0.00023314011
1.7780992e-05
-0.00023270283
2.0237307e-05
-0.00023237108
2.2164786e-05
-0.00023212917
2.3607502e-05
-0.00023196361
2.4605575e-05
-0.00023186227
2.5195806e-05
-0.00023181483
2.5411898e-05
-0.00023181175
2.5285051e-05
-0.00023184499
2.4844157e-05
-0.0002319073
2.4116118e-05
-0.00023199212
2.3126086e-05
-0.0002320939
2.1897694e-05
-0.00023220764
2.0453212e-05
-0.00023232895
1.8813729e-05
-0.00023245379
1.6999266e-05
-0.00023257852
1.502895e-05
-0.00023269986
1.2921109e-05
-0.000232815
1.0693423e-05
-0.00023292168
8.3629804e-06
-0.0002330181