/*--------------------------------*- C++ -*----------------------------------*\
| =========                 |                                                 |
| \\      /  F ield         | OpenFOAM: The Open Source CFD Toolbox           |
|  \\    /   O peration     | Version:  v2006                                 |
|   \\  /    A nd           | Website:  www.openfoam.com                      |
|    \\/     M anipulation  |                                                 |
\*---------------------------------------------------------------------------*/
FoamFile
{
    version     2.0;
    format      ascii;
    class       volScalarField;
    location    "5000";
    object      pMean;
}
// * * * * * * * * * * * * * * * * * * * * * * * * * * * * * * * * * * * * * //

dimensions      [1 -1 -2 0 0 0 0];


internalField   nonuniform List<scalar> 
55713
(
1.0000335
1.0000335
1.0000335
1.0000335
1.0000335
1.0000335
1.0000335
1.0000335
1.0000335
1.0000335
1.0000335
1.0000335
1.0000335
1.0000335
1.0000335
1.0000335
1.0000335
1.0000335
1.0000335
1.0000335
1.0000335
1.0000335
1.0000335
1.0000335
1.0000335
1.0000335
1.0000335
1.0000335
1.0000335
1.0000335
1.0000335
1.0000335
1.0000335
1.0000335
1.0000335
1.0000335
1.0000335
1.0000335
1.0000335
1.0000335
1.0000335
1.0000335
1.0000335
1.0000335
1.0000335
1.0000335
1.0000335
1.0000335
1.0000335
1.0000335
1.0000335
1.0000335
1.0000335
1.0000335
1.0000335
1.0000335
1.0000335
1.0000335
1.0000335
1.0000313
1.0000313
1.0000313
1.0000313
1.0000313
1.0000313
1.0000313
1.0000313
1.0000313
1.0000313
1.0000313
1.0000313
1.0000313
1.0000313
1.0000313
1.0000313
1.0000313
1.0000313
1.0000313
1.0000313
1.0000313
1.0000313
1.0000313
1.0000313
1.0000313
1.0000313
1.0000313
1.0000313
1.0000313
1.0000313
1.0000313
1.0000313
1.0000313
1.0000313
1.0000313
1.0000313
1.0000313
1.0000313
1.0000313
1.0000313
1.0000313
1.0000313
1.0000313
1.0000313
1.0000313
1.0000313
1.0000313
1.0000313
1.0000313
1.0000313
1.0000313
1.0000313
1.0000313
1.0000313
1.0000313
1.0000313
1.0000313
1.0000313
1.0000313
1.0000294
1.0000294
1.0000294
1.0000294
1.0000294
1.0000294
1.0000294
1.0000294
1.0000294
1.0000294
1.0000294
1.0000294
1.0000294
1.0000294
1.0000294
1.0000294
1.0000294
1.0000294
1.0000294
1.0000294
1.0000294
1.0000294
1.0000294
1.0000294
1.0000294
1.0000294
1.0000294
1.0000294
1.0000294
1.0000294
1.0000294
1.0000294
1.0000294
1.0000294
1.0000294
1.0000294
1.0000294
1.0000294
1.0000294
1.0000294
1.0000294
1.0000294
1.0000294
1.0000294
1.0000294
1.0000294
1.0000294
1.0000294
1.0000294
1.0000294
1.0000294
1.0000294
1.0000294
1.0000294
1.0000294
1.0000294
1.0000294
1.0000294
1.0000294
1.0000277
1.0000277
1.0000277
1.0000277
1.0000277
1.0000277
1.0000277
1.0000277
1.0000277
1.0000277
1.0000277
1.0000277
1.0000278
1.0000278
1.0000278
1.0000278
1.0000278
1.0000278
1.0000278
1.0000278
1.0000278
1.0000278
1.0000278
1.0000278
1.0000278
1.0000278
1.0000278
1.0000278
1.0000278
1.0000278
1.0000278
1.0000278
1.0000278
1.0000278
1.0000278
1.0000278
1.0000278
1.0000278
1.0000278
1.0000278
1.0000278
1.0000278
1.0000278
1.0000278
1.0000278
1.0000278
1.0000278
1.0000278
1.0000278
1.0000278
1.0000278
1.0000278
1.0000278
1.0000278
1.0000278
1.0000278
1.0000278
1.0000278
1.0000278
1.0000263
1.0000263
1.0000263
1.0000263
1.0000263
1.0000263
1.0000263
1.0000263
1.0000263
1.0000263
1.0000263
1.0000263
1.0000263
1.0000263
1.0000263
1.0000263
1.0000263
1.0000263
1.0000263
1.0000263
1.0000263
1.0000263
1.0000263
1.0000263
1.0000263
1.0000263
1.0000263
1.0000263
1.0000263
1.0000263
1.0000263
1.0000264
1.0000264
1.0000264
1.0000264
1.0000264
1.0000264
1.0000264
1.0000264
1.0000264
1.0000264
1.0000264
1.0000264
1.0000264
1.0000264
1.0000264
1.0000264
1.0000264
1.0000264
1.0000264
1.0000264
1.0000264
1.0000264
1.0000264
1.0000264
1.0000264
1.0000264
1.0000264
1.0000264
1.0000251
1.0000251
1.0000251
1.0000251
1.0000251
1.0000251
1.0000251
1.0000251
1.0000251
1.0000251
1.0000251
1.0000251
1.0000251
1.0000251
1.0000251
1.0000251
1.0000251
1.0000251
1.0000251
1.0000251
1.0000251
1.0000251
1.0000251
1.0000251
1.0000251
1.0000251
1.0000251
1.0000251
1.0000251
1.0000251
1.0000251
1.0000251
1.0000251
1.0000251
1.0000251
1.0000251
1.0000251
1.0000251
1.0000251
1.0000251
1.0000251
1.0000251
1.0000252
1.0000252
1.0000252
1.0000252
1.0000252
1.0000252
1.0000252
1.0000252
1.0000252
1.0000252
1.0000252
1.0000252
1.0000252
1.0000252
1.0000252
1.0000252
1.0000252
1.000024
1.000024
1.000024
1.000024
1.000024
1.000024
1.000024
1.000024
1.000024
1.000024
1.000024
1.000024
1.000024
1.000024
1.000024
1.000024
1.000024
1.000024
1.000024
1.000024
1.000024
1.000024
1.000024
1.000024
1.000024
1.000024
1.000024
1.000024
1.000024
1.000024
1.000024
1.000024
1.000024
1.0000241
1.0000241
1.0000241
1.0000241
1.0000241
1.0000241
1.0000241
1.0000241
1.0000241
1.0000241
1.0000241
1.0000241
1.0000241
1.0000241
1.0000241
1.0000241
1.0000241
1.0000241
1.0000241
1.0000241
1.0000241
1.0000241
1.0000241
1.0000241
1.0000241
1.0000241
1.000023
1.000023
1.000023
1.000023
1.000023
1.000023
1.000023
1.000023
1.000023
1.000023
1.000023
1.0000231
1.0000231
1.0000231
1.0000231
1.0000231
1.0000231
1.0000231
1.0000231
1.0000231
1.0000231
1.0000231
1.0000231
1.0000231
1.0000231
1.0000231
1.0000231
1.0000231
1.0000231
1.0000231
1.0000231
1.0000231
1.0000231
1.0000231
1.0000231
1.0000231
1.0000231
1.0000231
1.0000231
1.0000231
1.0000231
1.0000231
1.0000231
1.0000231
1.0000231
1.0000231
1.0000231
1.0000231
1.0000231
1.0000231
1.0000231
1.0000231
1.0000231
1.0000231
1.0000231
1.0000231
1.0000231
1.0000231
1.0000231
1.0000225
1.0000225
1.0000225
1.0000225
1.0000225
1.0000225
1.0000226
1.0000226
1.0000226
1.0000226
1.0000226
1.0000226
1.0000226
1.0000226
1.0000226
1.0000226
1.0000226
1.0000226
1.0000226
1.0000226
1.0000226
1.0000226
1.0000226
1.0000226
1.0000226
1.0000226
1.0000226
1.0000226
1.0000226
1.0000226
1.0000226
1.0000226
1.0000226
1.0000226
1.0000226
1.0000226
1.0000226
1.0000226
1.0000226
1.0000226
1.0000226
1.0000226
1.0000226
1.0000226
1.0000226
1.0000226
1.0000226
1.0000226
1.0000226
1.0000226
1.0000226
1.0000226
1.0000226
1.0000226
1.0000226
1.0000226
1.0000226
1.0000226
1.0000226
1.0000221
1.0000221
1.0000221
1.0000221
1.0000221
1.0000221
1.0000222
1.0000222
1.0000222
1.0000222
1.0000222
1.0000222
1.0000222
1.0000222
1.0000222
1.0000222
1.0000222
1.0000222
1.0000222
1.0000222
1.0000222
1.0000222
1.0000222
1.0000222
1.0000222
1.0000222
1.0000222
1.0000222
1.0000222
1.0000222
1.0000222
1.0000222
1.0000222
1.0000222
1.0000222
1.0000222
1.0000222
1.0000222
1.0000222
1.0000222
1.0000222
1.0000222
1.0000222
1.0000222
1.0000222
1.0000222
1.0000222
1.0000222
1.0000222
1.0000222
1.0000222
1.0000222
1.0000222
1.0000222
1.0000222
1.0000222
1.0000222
1.0000222
1.0000222
1.0000201
1.0000201
1.0000201
1.0000201
1.0000201
1.0000201
1.0000201
1.0000201
1.0000201
1.0000202
1.0000202
1.0000202
1.0000202
1.0000202
1.0000202
1.0000202
1.0000202
1.0000202
1.0000202
1.0000202
1.0000202
1.0000202
1.0000202
1.0000202
1.0000202
1.0000202
1.0000202
1.0000202
1.0000202
1.0000202
1.0000202
1.0000202
1.0000202
1.0000202
1.0000202
1.0000202
1.0000202
1.0000202
1.0000202
1.0000202
1.0000202
1.0000202
1.0000202
1.0000202
1.0000202
1.0000202
1.0000202
1.0000202
1.0000202
1.0000202
1.0000202
1.0000202
1.0000202
1.0000202
1.0000202
1.0000202
1.0000202
1.0000202
1.0000202
1.0000201
1.00002
1.00002
1.00002
1.00002
1.00002
1.00002
1.00002
1.00002
1.00002
1.00002
1.00002
1.00002
1.0000199
1.0000199
1.0000199
1.0000199
1.0000199
1.0000199
1.0000199
1.0000199
1.0000199
1.0000199
1.0000199
1.0000199
1.0000199
1.0000199
1.0000199
1.0000199
1.0000199
1.0000199
1.0000199
1.0000199
1.0000199
1.0000199
1.0000199
1.0000199
1.0000199
1.0000199
1.0000199
1.0000198
1.0000198
1.0000198
1.0000198
1.0000198
1.0000198
1.0000198
1.0000198
1.0000198
1.0000198
1.0000198
1.0000198
1.0000198
1.0000198
1.0000198
1.0000198
1.0000198
1.0000198
1.0000198
1.0000303
1.0000303
1.0000303
1.0000303
1.0000303
1.0000303
1.0000303
1.0000303
1.0000303
1.0000303
1.0000303
1.0000303
1.0000303
1.0000303
1.0000303
1.0000303
1.0000303
1.0000303
1.0000303
1.0000303
1.0000303
1.0000303
1.0000303
1.0000303
1.0000303
1.0000303
1.0000303
1.0000303
1.0000303
1.0000303
1.0000303
1.0000303
1.0000303
1.0000303
1.0000303
1.0000303
1.0000303
1.0000303
1.0000303
1.0000303
1.0000303
1.0000303
1.0000303
1.0000303
1.0000303
1.0000303
1.0000303
1.0000303
1.0000303
1.0000303
1.0000303
1.0000303
1.0000303
1.0000303
1.0000303
1.0000303
1.0000303
1.0000303
1.0000303
1.0000193
1.0000193
1.0000193
1.0000193
1.0000193
1.0000193
1.0000193
1.0000193
1.0000193
1.0000193
1.0000193
1.0000193
1.0000193
1.0000193
1.0000193
1.0000194
1.0000194
1.0000194
1.0000194
1.0000194
1.0000194
1.0000194
1.0000194
1.0000194
1.0000194
1.0000194
1.0000194
1.0000194
1.0000194
1.0000194
1.0000194
1.0000194
1.0000194
1.0000194
1.0000194
1.0000194
1.0000194
1.0000194
1.0000194
1.0000194
1.0000194
1.0000194
1.0000194
1.0000194
1.0000194
1.0000194
1.0000194
1.0000194
1.0000194
1.0000194
1.0000194
1.0000194
1.0000194
1.0000194
1.0000194
1.0000194
1.0000194
1.0000194
1.0000193
1.0001281
1.0001281
1.0001281
1.0001282
1.0001282
1.0001283
1.0001283
1.0001283
1.0001284
1.0001284
1.0001284
1.0001285
1.0001285
1.0001286
1.0001286
1.0001286
1.0001287
1.0001287
1.0001287
1.0001288
1.0001288
1.0001288
1.0001289
1.0001289
1.0001289
1.0001289
1.000129
1.000129
1.000129
1.000129
1.0001291
1.0001291
1.0001291
1.0001291
1.0001291
1.0001292
1.0001292
1.0001292
1.0001292
1.0001292
1.0001292
1.0001292
1.0001293
1.0001293
1.0001293
1.0001293
1.0001293
1.0001293
1.0001293
1.0001293
1.0001293
1.0001293
1.0001293
1.0001293
1.0001293
1.0001293
1.0001293
1.0001293
1.0001293
1.0001173
1.0001173
1.0001174
1.0001174
1.0001174
1.0001175
1.0001175
1.0001175
1.0001176
1.0001176
1.0001176
1.0001177
1.0001177
1.0001177
1.0001177
1.0001178
1.0001178
1.0001178
1.0001179
1.0001179
1.0001179
1.0001179
1.000118
1.000118
1.000118
1.000118
1.000118
1.0001181
1.0001181
1.0001181
1.0001181
1.0001181
1.0001182
1.0001182
1.0001182
1.0001182
1.0001182
1.0001182
1.0001182
1.0001183
1.0001183
1.0001183
1.0001183
1.0001183
1.0001183
1.0001183
1.0001183
1.0001183
1.0001183
1.0001184
1.0001184
1.0001184
1.0001184
1.0001184
1.0001184
1.0001184
1.0001184
1.0001184
1.0001184
1.0001073
1.0001073
1.0001073
1.0001074
1.0001074
1.0001074
1.0001074
1.0001075
1.0001075
1.0001075
1.0001075
1.0001076
1.0001076
1.0001076
1.0001076
1.0001077
1.0001077
1.0001077
1.0001077
1.0001078
1.0001078
1.0001078
1.0001078
1.0001078
1.0001078
1.0001079
1.0001079
1.0001079
1.0001079
1.0001079
1.0001079
1.000108
1.000108
1.000108
1.000108
1.000108
1.000108
1.000108
1.000108
1.0001081
1.0001081
1.0001081
1.0001081
1.0001081
1.0001081
1.0001081
1.0001081
1.0001081
1.0001081
1.0001081
1.0001081
1.0001081
1.0001081
1.0001081
1.0001081
1.0001081
1.0001081
1.0001081
1.0001082
1.0000979
1.0000979
1.0000979
1.000098
1.000098
1.000098
1.000098
1.0000981
1.0000981
1.0000981
1.0000981
1.0000981
1.0000982
1.0000982
1.0000982
1.0000982
1.0000982
1.0000983
1.0000983
1.0000983
1.0000983
1.0000983
1.0000983
1.0000983
1.0000984
1.0000984
1.0000984
1.0000984
1.0000984
1.0000984
1.0000984
1.0000985
1.0000985
1.0000985
1.0000985
1.0000985
1.0000985
1.0000985
1.0000985
1.0000985
1.0000985
1.0000985
1.0000986
1.0000986
1.0000986
1.0000986
1.0000986
1.0000986
1.0000986
1.0000986
1.0000986
1.0000986
1.0000986
1.0000986
1.0000986
1.0000986
1.0000986
1.0000986
1.0000986
1.0000892
1.0000892
1.0000892
1.0000892
1.0000893
1.0000893
1.0000893
1.0000893
1.0000893
1.0000893
1.0000894
1.0000894
1.0000894
1.0000894
1.0000894
1.0000894
1.0000895
1.0000895
1.0000895
1.0000895
1.0000895
1.0000895
1.0000895
1.0000895
1.0000896
1.0000896
1.0000896
1.0000896
1.0000896
1.0000896
1.0000896
1.0000896
1.0000896
1.0000896
1.0000897
1.0000897
1.0000897
1.0000897
1.0000897
1.0000897
1.0000897
1.0000897
1.0000897
1.0000897
1.0000897
1.0000897
1.0000897
1.0000897
1.0000897
1.0000897
1.0000897
1.0000897
1.0000898
1.0000898
1.0000898
1.0000898
1.0000898
1.0000898
1.0000898
1.0000811
1.0000811
1.0000811
1.0000811
1.0000812
1.0000812
1.0000812
1.0000812
1.0000812
1.0000812
1.0000812
1.0000813
1.0000813
1.0000813
1.0000813
1.0000813
1.0000813
1.0000813
1.0000813
1.0000813
1.0000814
1.0000814
1.0000814
1.0000814
1.0000814
1.0000814
1.0000814
1.0000814
1.0000814
1.0000814
1.0000814
1.0000815
1.0000815
1.0000815
1.0000815
1.0000815
1.0000815
1.0000815
1.0000815
1.0000815
1.0000815
1.0000815
1.0000815
1.0000815
1.0000815
1.0000815
1.0000815
1.0000815
1.0000815
1.0000815
1.0000815
1.0000815
1.0000816
1.0000816
1.0000816
1.0000816
1.0000816
1.0000816
1.0000816
1.0000736
1.0000736
1.0000736
1.0000737
1.0000737
1.0000737
1.0000737
1.0000737
1.0000737
1.0000737
1.0000737
1.0000737
1.0000738
1.0000738
1.0000738
1.0000738
1.0000738
1.0000738
1.0000738
1.0000738
1.0000738
1.0000738
1.0000738
1.0000739
1.0000739
1.0000739
1.0000739
1.0000739
1.0000739
1.0000739
1.0000739
1.0000739
1.0000739
1.0000739
1.0000739
1.0000739
1.0000739
1.0000739
1.0000739
1.0000739
1.0000739
1.000074
1.000074
1.000074
1.000074
1.000074
1.000074
1.000074
1.000074
1.000074
1.000074
1.000074
1.000074
1.000074
1.000074
1.000074
1.000074
1.000074
1.000074
1.0000667
1.0000667
1.0000667
1.0000668
1.0000668
1.0000668
1.0000668
1.0000668
1.0000668
1.0000668
1.0000668
1.0000668
1.0000668
1.0000668
1.0000669
1.0000669
1.0000669
1.0000669
1.0000669
1.0000669
1.0000669
1.0000669
1.0000669
1.0000669
1.0000669
1.0000669
1.0000669
1.0000669
1.0000669
1.0000669
1.0000669
1.000067
1.000067
1.000067
1.000067
1.000067
1.000067
1.000067
1.000067
1.000067
1.000067
1.000067
1.000067
1.000067
1.000067
1.000067
1.000067
1.000067
1.000067
1.000067
1.000067
1.000067
1.000067
1.000067
1.000067
1.000067
1.000067
1.000067
1.000067
1.0000604
1.0000604
1.0000604
1.0000604
1.0000604
1.0000604
1.0000604
1.0000604
1.0000605
1.0000605
1.0000605
1.0000605
1.0000605
1.0000605
1.0000605
1.0000605
1.0000605
1.0000605
1.0000605
1.0000605
1.0000605
1.0000605
1.0000605
1.0000605
1.0000605
1.0000606
1.0000606
1.0000606
1.0000606
1.0000606
1.0000606
1.0000606
1.0000606
1.0000606
1.0000606
1.0000606
1.0000606
1.0000606
1.0000606
1.0000606
1.0000606
1.0000606
1.0000606
1.0000606
1.0000606
1.0000606
1.0000606
1.0000606
1.0000606
1.0000606
1.0000606
1.0000606
1.0000606
1.0000606
1.0000606
1.0000606
1.0000606
1.0000606
1.0000606
1.0000546
1.0000546
1.0000546
1.0000546
1.0000546
1.0000546
1.0000546
1.0000546
1.0000546
1.0000547
1.0000547
1.0000547
1.0000547
1.0000547
1.0000547
1.0000547
1.0000547
1.0000547
1.0000547
1.0000547
1.0000547
1.0000547
1.0000547
1.0000547
1.0000547
1.0000547
1.0000547
1.0000547
1.0000547
1.0000547
1.0000547
1.0000547
1.0000547
1.0000547
1.0000547
1.0000548
1.0000548
1.0000548
1.0000548
1.0000548
1.0000548
1.0000548
1.0000548
1.0000548
1.0000548
1.0000548
1.0000548
1.0000548
1.0000548
1.0000548
1.0000548
1.0000548
1.0000548
1.0000548
1.0000548
1.0000548
1.0000548
1.0000548
1.0000548
1.0000493
1.0000493
1.0000493
1.0000493
1.0000493
1.0000493
1.0000493
1.0000493
1.0000494
1.0000494
1.0000494
1.0000494
1.0000494
1.0000494
1.0000494
1.0000494
1.0000494
1.0000494
1.0000494
1.0000494
1.0000494
1.0000494
1.0000494
1.0000494
1.0000494
1.0000494
1.0000494
1.0000494
1.0000494
1.0000494
1.0000494
1.0000494
1.0000494
1.0000494
1.0000494
1.0000494
1.0000494
1.0000494
1.0000494
1.0000494
1.0000494
1.0000494
1.0000494
1.0000494
1.0000494
1.0000495
1.0000495
1.0000495
1.0000495
1.0000495
1.0000495
1.0000495
1.0000495
1.0000495
1.0000495
1.0000495
1.0000495
1.0000495
1.0000495
1.0000445
1.0000445
1.0000445
1.0000445
1.0000445
1.0000445
1.0000445
1.0000445
1.0000445
1.0000445
1.0000445
1.0000445
1.0000445
1.0000446
1.0000446
1.0000446
1.0000446
1.0000446
1.0000446
1.0000446
1.0000446
1.0000446
1.0000446
1.0000446
1.0000446
1.0000446
1.0000446
1.0000446
1.0000446
1.0000446
1.0000446
1.0000446
1.0000446
1.0000446
1.0000446
1.0000446
1.0000446
1.0000446
1.0000446
1.0000446
1.0000446
1.0000446
1.0000446
1.0000446
1.0000446
1.0000446
1.0000446
1.0000446
1.0000446
1.0000446
1.0000446
1.0000446
1.0000446
1.0000446
1.0000446
1.0000446
1.0000446
1.0000446
1.0000446
1.0000401
1.0000401
1.0000402
1.0000402
1.0000402
1.0000402
1.0000402
1.0000402
1.0000402
1.0000402
1.0000402
1.0000402
1.0000402
1.0000402
1.0000402
1.0000402
1.0000402
1.0000402
1.0000402
1.0000402
1.0000402
1.0000402
1.0000402
1.0000402
1.0000402
1.0000402
1.0000402
1.0000402
1.0000402
1.0000402
1.0000402
1.0000402
1.0000402
1.0000402
1.0000402
1.0000402
1.0000402
1.0000402
1.0000402
1.0000402
1.0000402
1.0000402
1.0000402
1.0000402
1.0000402
1.0000402
1.0000402
1.0000402
1.0000402
1.0000402
1.0000402
1.0000402
1.0000402
1.0000402
1.0000402
1.0000402
1.0000402
1.0000402
1.0000402
1.0000363
1.0000363
1.0000363
1.0000363
1.0000364
1.0000364
1.0000364
1.0000364
1.0000364
1.0000364
1.0000364
1.0000364
1.0000364
1.0000364
1.0000364
1.0000364
1.0000364
1.0000364
1.0000364
1.0000364
1.0000364
1.0000364
1.0000364
1.0000364
1.0000364
1.0000364
1.0000364
1.0000364
1.0000364
1.0000364
1.0000364
1.0000364
1.0000364
1.0000364
1.0000364
1.0000364
1.0000364
1.0000364
1.0000364
1.0000364
1.0000364
1.0000364
1.0000364
1.0000364
1.0000364
1.0000364
1.0000364
1.0000364
1.0000364
1.0000364
1.0000364
1.0000364
1.0000364
1.0000364
1.0000364
1.0000364
1.0000364
1.0000364
1.0000364
1.0001424
1.0001582
1.0001759
1.0001953
1.0002165
1.0002396
1.0002648
1.0002921
1.0003217
1.0003537
1.000388
1.0004248
1.0004641
1.0005058
1.0005498
1.000596
1.000644
1.0006935
1.0007441
1.0007951
1.0008458
1.0008953
1.0009427
1.0009867
1.0010263
1.0010602
1.001087
1.0011058
1.0011156
1.0011154
1.0011048
1.0010835
1.0010515
1.0010092
1.0009573
1.0008967
1.0008284
1.0007537
1.0006736
1.0005894
1.0005024
1.0004135
1.0003239
1.0002344
1.0001458
1.0000589
0.99997407
0.99989166
0.99981198
0.9997354
0.99966209
0.99959212
0.99952553
0.99946235
0.99940255
0.99934611
0.99929297
0.99924296
0.99919598
0.99915189
0.99911057
0.99907188
0.99903568
0.99900184
0.99897023
0.99894074
0.99891322
0.99888757
0.99886366
0.99884138
0.99882063
0.99880129
0.99878331
0.99876652
1.0001424
1.0001582
1.0001759
1.0001953
1.0002165
1.0002396
1.0002648
1.0002921
1.0003217
1.0003537
1.000388
1.0004248
1.0004641
1.0005058
1.0005498
1.000596
1.000644
1.0006935
1.0007441
1.0007951
1.0008458
1.0008953
1.0009427
1.0009868
1.0010263
1.0010602
1.001087
1.0011058
1.0011156
1.0011154
1.0011048
1.0010835
1.0010515
1.0010092
1.0009573
1.0008967
1.0008284
1.0007536
1.0006736
1.0005894
1.0005023
1.0004135
1.0003239
1.0002344
1.0001458
1.0000589
0.99997404
0.99989164
0.99981197
0.99973538
0.99966207
0.99959209
0.9995255
0.99946232
0.99940252
0.9993461
0.99929295
0.99924295
0.99919596
0.99915187
0.99911055
0.99907186
0.99903565
0.99900181
0.9989702
0.9989407
0.99891319
0.99888754
0.99886363
0.99884135
0.9988206
0.99880127
0.99878329
0.99876649
1.0001424
1.0001582
1.0001759
1.0001953
1.0002165
1.0002396
1.0002648
1.0002921
1.0003217
1.0003537
1.000388
1.0004248
1.0004641
1.0005058
1.0005498
1.000596
1.000644
1.0006935
1.0007441
1.0007951
1.0008458
1.0008953
1.0009427
1.0009868
1.0010263
1.0010602
1.001087
1.0011058
1.0011156
1.0011154
1.0011048
1.0010835
1.0010515
1.0010092
1.0009573
1.0008967
1.0008284
1.0007537
1.0006736
1.0005894
1.0005024
1.0004135
1.0003239
1.0002344
1.0001458
1.0000589
0.99997405
0.99989163
0.99981196
0.99973538
0.99966206
0.99959209
0.9995255
0.99946232
0.99940251
0.99934607
0.99929294
0.99924294
0.99919596
0.99915188
0.99911057
0.99907189
0.9990357
0.99900186
0.99897026
0.99894077
0.99891326
0.99888761
0.99886371
0.99884144
0.9988207
0.99880136
0.99878337
0.99876654
1.0001424
1.0001582
1.0001759
1.0001953
1.0002165
1.0002396
1.0002648
1.0002921
1.0003217
1.0003537
1.000388
1.0004248
1.0004641
1.0005058
1.0005498
1.0005959
1.000644
1.0006935
1.0007441
1.0007951
1.0008458
1.0008953
1.0009427
1.0009868
1.0010263
1.0010602
1.0010871
1.0011058
1.0011156
1.0011155
1.0011049
1.0010835
1.0010516
1.0010093
1.0009574
1.0008968
1.0008285
1.0007537
1.0006737
1.0005895
1.0005024
1.0004136
1.000324
1.0002345
1.0001459
1.000059
0.99997411
0.99989169
0.99981203
0.99973544
0.99966212
0.99959215
0.99952556
0.99946238
0.99940258
0.99934616
0.99929301
0.999243
0.99919601
0.99915191
0.99911058
0.99907189
0.99903569
0.99900185
0.99897024
0.99894076
0.99891325
0.99888761
0.99886371
0.99884144
0.9988207
0.99880138
0.99878341
0.99876666
1.0001424
1.0001582
1.0001759
1.0001953
1.0002165
1.0002396
1.0002648
1.0002921
1.0003217
1.0003537
1.000388
1.0004248
1.0004641
1.0005058
1.0005498
1.0005959
1.000644
1.0006935
1.0007441
1.0007951
1.0008458
1.0008953
1.0009427
1.0009868
1.0010263
1.0010602
1.0010871
1.0011059
1.0011157
1.0011156
1.0011049
1.0010836
1.0010517
1.0010094
1.0009575
1.0008969
1.0008286
1.0007539
1.0006738
1.0005896
1.0005026
1.0004138
1.0003242
1.0002346
1.0001461
1.0000591
0.99997423
0.99989181
0.99981214
0.99973556
0.99966223
0.99959226
0.99952567
0.99946249
0.9994027
0.99934627
0.9992931
0.99924309
0.9991961
0.99915201
0.99911069
0.999072
0.99903581
0.99900199
0.9989704
0.99894091
0.99891342
0.99888778
0.99886388
0.99884162
0.99882088
0.99880156
0.99878357
0.9987668
1.0001423
1.0001582
1.0001759
1.0001953
1.0002165
1.0002396
1.0002648
1.0002921
1.0003217
1.0003536
1.000388
1.0004248
1.0004641
1.0005058
1.0005498
1.0005959
1.000644
1.0006935
1.0007441
1.0007951
1.0008458
1.0008953
1.0009427
1.0009868
1.0010264
1.0010603
1.0010871
1.0011059
1.0011158
1.0011156
1.001105
1.0010838
1.0010518
1.0010096
1.0009577
1.0008971
1.0008288
1.0007541
1.000674
1.0005899
1.0005028
1.000414
1.0003244
1.0002349
1.0001463
1.0000593
0.99997443
0.999892
0.99981234
0.99973576
0.99966243
0.99959245
0.99952587
0.99946269
0.9994029
0.99934647
0.9992933
0.99924328
0.99919629
0.99915219
0.99911086
0.99907216
0.99903597
0.99900214
0.99897054
0.99894106
0.99891356
0.99888792
0.99886403
0.99884176
0.99882102
0.9988017
0.99878372
0.99876695
1.0001423
1.0001582
1.0001759
1.0001953
1.0002165
1.0002396
1.0002648
1.0002921
1.0003217
1.0003536
1.000388
1.0004248
1.0004641
1.0005057
1.0005498
1.0005959
1.0006439
1.0006935
1.0007441
1.0007951
1.0008458
1.0008953
1.0009427
1.0009868
1.0010264
1.0010603
1.0010872
1.001106
1.0011159
1.0011158
1.0011052
1.001084
1.001052
1.0010098
1.000958
1.0008974
1.0008291
1.0007544
1.0006744
1.0005902
1.0005031
1.0004143
1.0003247
1.0002352
1.0001466
1.0000596
0.99997475
0.99989232
0.99981265
0.99973606
0.99966273
0.99959275
0.99952616
0.99946298
0.9994032
0.99934676
0.99929358
0.99924355
0.99919655
0.99915245
0.99911112
0.99907243
0.99903624
0.99900242
0.99897083
0.99894136
0.99891387
0.99888823
0.99886434
0.99884208
0.99882134
0.99880202
0.99878403
0.99876724
1.0001423
1.0001582
1.0001759
1.0001953
1.0002165
1.0002396
1.0002648
1.0002921
1.0003217
1.0003536
1.000388
1.0004248
1.000464
1.0005057
1.0005497
1.0005959
1.0006439
1.0006935
1.000744
1.0007951
1.0008458
1.0008953
1.0009427
1.0009868
1.0010264
1.0010603
1.0010873
1.0011061
1.001116
1.001116
1.0011054
1.0010842
1.0010523
1.0010102
1.0009584
1.0008978
1.0008296
1.0007549
1.0006748
1.0005907
1.0005036
1.0004148
1.0003252
1.0002357
1.0001471
1.0000601
0.99997523
0.99989278
0.99981311
0.99973652
0.99966318
0.99959319
0.9995266
0.99946342
0.99940363
0.99934719
0.999294
0.99924397
0.99919696
0.99915286
0.99911152
0.99907283
0.99903663
0.99900281
0.99897122
0.99894174
0.99891424
0.9988886
0.99886471
0.99884244
0.9988217
0.99880237
0.99878437
0.99876759
1.0001423
1.0001582
1.0001759
1.0001953
1.0002165
1.0002396
1.0002648
1.0002921
1.0003217
1.0003536
1.0003879
1.0004247
1.000464
1.0005057
1.0005497
1.0005958
1.0006439
1.0006934
1.000744
1.000795
1.0008458
1.0008953
1.0009427
1.0009868
1.0010265
1.0010604
1.0010874
1.0011063
1.0011162
1.0011162
1.0011057
1.0010846
1.0010528
1.0010106
1.0009589
1.0008984
1.0008302
1.0007555
1.0006755
1.0005914
1.0005043
1.0004155
1.0003259
1.0002364
1.0001478
1.0000608
0.99997591
0.99989345
0.99981378
0.99973717
0.99966382
0.99959382
0.99952723
0.99946404
0.99940425
0.9993478
0.99929461
0.99924456
0.99919754
0.99915343
0.99911209
0.99907339
0.99903719
0.99900337
0.99897179
0.99894231
0.99891482
0.99888918
0.99886529
0.99884302
0.99882228
0.99880295
0.99878495
0.99876815
1.0001423
1.0001581
1.0001759
1.0001953
1.0002164
1.0002396
1.0002647
1.0002921
1.0003217
1.0003536
1.0003879
1.0004247
1.000464
1.0005057
1.0005497
1.0005958
1.0006438
1.0006934
1.000744
1.000795
1.0008457
1.0008953
1.0009427
1.0009868
1.0010265
1.0010605
1.0010875
1.0011065
1.0011165
1.0011165
1.0011061
1.0010851
1.0010533
1.0010113
1.0009596
1.0008992
1.000831
1.0007564
1.0006764
1.0005923
1.0005053
1.0004165
1.0003269
1.0002374
1.0001488
1.0000618
0.99997687
0.99989439
0.99981471
0.9997381
0.99966474
0.99959472
0.99952812
0.99946492
0.99940513
0.99934866
0.99929546
0.9992454
0.99919837
0.99915425
0.9991129
0.9990742
0.999038
0.99900417
0.99897258
0.9989431
0.99891559
0.99888995
0.99886605
0.99884377
0.99882302
0.99880368
0.99878567
0.99876887
1.0001423
1.0001581
1.0001759
1.0001953
1.0002164
1.0002396
1.0002647
1.000292
1.0003216
1.0003536
1.0003879
1.0004247
1.0004639
1.0005056
1.0005496
1.0005958
1.0006438
1.0006933
1.0007439
1.0007949
1.0008457
1.0008952
1.0009427
1.0009868
1.0010266
1.0010606
1.0010877
1.0011067
1.0011168
1.001117
1.0011067
1.0010857
1.0010541
1.0010121
1.0009606
1.0009002
1.0008322
1.0007576
1.0006777
1.0005936
1.0005066
1.0004179
1.0003283
1.0002388
1.0001502
1.0000632
0.9999782
0.99989571
0.99981601
0.99973938
0.999666
0.99959597
0.99952935
0.99946615
0.99940633
0.99934986
0.99929663
0.99924656
0.99919952
0.99915538
0.99911402
0.99907531
0.9990391
0.99900527
0.99897367
0.99894419
0.99891668
0.99889103
0.99886713
0.99884485
0.99882409
0.99880474
0.99878672
0.99876992
1.0001423
1.0001581
1.0001758
1.0001952
1.0002164
1.0002395
1.0002647
1.000292
1.0003216
1.0003535
1.0003879
1.0004246
1.0004639
1.0005056
1.0005496
1.0005957
1.0006437
1.0006933
1.0007438
1.0007949
1.0008456
1.0008952
1.0009427
1.0009869
1.0010266
1.0010607
1.0010879
1.001107
1.0011172
1.0011175
1.0011074
1.0010866
1.0010551
1.0010133
1.0009619
1.0009016
1.0008337
1.0007592
1.0006794
1.0005954
1.0005084
1.0004197
1.0003301
1.0002407
1.0001521
1.000065
0.99998002
0.9998975
0.99981779
0.99974114
0.99966774
0.99959769
0.99953104
0.99946782
0.99940799
0.99935149
0.99929825
0.99924815
0.99920109
0.99915694
0.99911557
0.99907684
0.99904062
0.99900678
0.99897517
0.99894567
0.99891815
0.99889249
0.99886857
0.99884628
0.99882551
0.99880615
0.99878812
0.9987713
1.0001423
1.0001581
1.0001758
1.0001952
1.0002164
1.0002395
1.0002647
1.000292
1.0003216
1.0003535
1.0003878
1.0004246
1.0004638
1.0005055
1.0005495
1.0005956
1.0006436
1.0006932
1.0007438
1.0007948
1.0008456
1.0008952
1.0009427
1.0009869
1.0010267
1.0010609
1.0010882
1.0011074
1.0011178
1.0011183
1.0011083
1.0010877
1.0010564
1.0010148
1.0009635
1.0009035
1.0008357
1.0007613
1.0006816
1.0005977
1.0005108
1.0004221
1.0003326
1.0002431
1.0001546
1.0000675
0.99998247
0.99989993
0.99982019
0.99974351
0.99967008
0.9996
0.99953333
0.99947008
0.99941022
0.9993537
0.99930043
0.99925031
0.99920322
0.99915905
0.99911765
0.99907891
0.99904267
0.9990088
0.99897718
0.99894767
0.99892013
0.99889446
0.99887053
0.99884822
0.99882743
0.99880806
0.99879001
0.99877318
1.0001423
1.0001581
1.0001758
1.0001952
1.0002164
1.0002395
1.0002646
1.000292
1.0003215
1.0003534
1.0003878
1.0004245
1.0004638
1.0005054
1.0005494
1.0005955
1.0006435
1.0006931
1.0007437
1.0007947
1.0008455
1.0008951
1.0009426
1.0009869
1.0010268
1.0010611
1.0010885
1.0011079
1.0011185
1.0011192
1.0011095
1.0010891
1.0010581
1.0010168
1.0009658
1.0009059
1.0008384
1.0007642
1.0006846
1.0006008
1.000514
1.0004254
1.0003359
1.0002464
1.0001579
1.0000708
0.99998574
0.99990317
0.9998234
0.99974669
0.99967322
0.9996031
0.99953639
0.9994731
0.99941321
0.99935665
0.99930334
0.99925319
0.99920607
0.99916187
0.99912045
0.99908167
0.99904541
0.99901152
0.99897987
0.99895034
0.99892278
0.99889709
0.99887314
0.99885081
0.99883
0.99881061
0.99879254
0.99877569
1.0001423
1.0001581
1.0001758
1.0001952
1.0002164
1.0002395
1.0002646
1.0002919
1.0003215
1.0003534
1.0003877
1.0004245
1.0004637
1.0005053
1.0005493
1.0005954
1.0006434
1.0006929
1.0007435
1.0007946
1.0008454
1.000895
1.0009426
1.000987
1.001027
1.0010614
1.001089
1.0011086
1.0011194
1.0011204
1.001111
1.001091
1.0010603
1.0010193
1.0009686
1.0009091
1.0008418
1.0007679
1.0006884
1.0006048
1.0005182
1.0004296
1.0003402
1.0002508
1.0001622
1.0000751
0.99999006
0.99990746
0.99982765
0.99975089
0.99967737
0.99960721
0.99954045
0.99947711
0.99941717
0.99936056
0.9993072
0.999257
0.99920984
0.9991656
0.99912414
0.99908532
0.99904903
0.9990151
0.99898342
0.99895386
0.99892627
0.99890055
0.99887657
0.99885421
0.99883338
0.99881396
0.99879587
0.99877899
1.0001423
1.0001581
1.0001758
1.0001952
1.0002163
1.0002394
1.0002646
1.0002919
1.0003214
1.0003533
1.0003876
1.0004244
1.0004636
1.0005052
1.0005492
1.0005953
1.0006433
1.0006928
1.0007434
1.0007944
1.0008452
1.0008949
1.0009426
1.000987
1.0010271
1.0010618
1.0010895
1.0011094
1.0011206
1.0011219
1.0011129
1.0010933
1.0010631
1.0010226
1.0009723
1.0009132
1.0008463
1.0007726
1.0006935
1.0006101
1.0005236
1.0004352
1.0003458
1.0002565
1.0001679
1.0000808
0.99999573
0.99991308
0.99983322
0.99975641
0.99968283
0.9996126
0.99954578
0.99948237
0.99942236
0.99936569
0.99931227
0.99926202
0.9992148
0.9991705
0.99912898
0.99909012
0.99905378
0.99901981
0.99898809
0.99895849
0.99893086
0.9989051
0.99888109
0.9988587
0.99883784
0.99881839
0.99880027
0.99878337
1.0001422
1.0001581
1.0001758
1.0001951
1.0002163
1.0002394
1.0002645
1.0002918
1.0003214
1.0003533
1.0003876
1.0004243
1.0004635
1.0005051
1.000549
1.0005951
1.0006431
1.0006926
1.0007432
1.0007942
1.0008451
1.0008948
1.0009425
1.0009871
1.0010274
1.0010622
1.0010902
1.0011105
1.001122
1.0011238
1.0011154
1.0010963
1.0010667
1.0010267
1.000977
1.0009185
1.000852
1.0007788
1.0007
1.0006169
1.0005306
1.0004424
1.0003531
1.0002638
1.0001753
1.0000882
1.0000031
0.99992038
0.99984046
0.99976358
0.99968992
0.99961961
0.9995527
0.99948922
0.99942912
0.99937237
0.99931887
0.99926853