/*--------------------------------*- C++ -*----------------------------------*\
| =========                 |                                                 |
| \\      /  F ield         | OpenFOAM: The Open Source CFD Toolbox           |
|  \\    /   O peration     | Version:  v2006                                 |
|   \\  /    A nd           | Website:  www.openfoam.com                      |
|    \\/     M anipulation  |                                                 |
\*---------------------------------------------------------------------------*/
FoamFile
{
    version     2.0;
    format      ascii;
    class       volScalarField;
    location    "5000";
    object      rho;
}
// * * * * * * * * * * * * * * * * * * * * * * * * * * * * * * * * * * * * * //

dimensions      [1 -3 0 0 0 0 0];


internalField   nonuniform List<scalar> 
55713
(
1.0000228
1.0000216
1.0000208
1.0000205
1.0000205
1.0000204
1.0000205
1.0000205
1.0000205
1.0000205
1.0000205
1.0000205
1.0000205
1.0000205
1.0000205
1.0000205
1.0000205
1.0000205
1.0000205
1.0000205
1.0000205
1.0000205
1.0000205
1.0000205
1.0000205
1.0000205
1.0000205
1.0000206
1.0000206
1.0000206
1.0000205
1.0000205
1.0000205
1.0000205
1.0000205
1.0000205
1.0000205
1.0000205
1.0000205
1.0000205
1.0000205
1.0000205
1.0000205
1.0000205
1.0000205
1.0000205
1.0000205
1.0000205
1.0000205
1.0000205
1.0000205
1.0000205
1.0000205
1.0000205
1.0000204
1.0000204
1.0000204
1.0000204
1.0000204
1.0000211
1.00002
1.0000193
1.0000191
1.000019
1.000019
1.000019
1.0000191
1.0000191
1.0000191
1.0000191
1.0000191
1.0000191
1.0000191
1.0000191
1.0000191
1.0000191
1.0000191
1.0000191
1.0000191
1.0000191
1.0000191
1.0000191
1.0000191
1.0000191
1.0000191
1.0000191
1.0000191
1.0000191
1.0000191
1.0000191
1.0000191
1.0000191
1.0000191
1.0000191
1.0000191
1.0000191
1.0000191
1.0000191
1.0000191
1.0000191
1.0000191
1.0000191
1.0000191
1.0000191
1.0000191
1.0000191
1.0000191
1.0000191
1.0000191
1.0000191
1.0000191
1.0000191
1.0000191
1.000019
1.000019
1.0000191
1.000019
1.000019
1.0000197
1.0000186
1.000018
1.0000178
1.0000178
1.0000178
1.0000178
1.0000178
1.0000179
1.0000178
1.0000178
1.0000179
1.0000179
1.0000179
1.0000179
1.0000179
1.0000179
1.0000179
1.0000179
1.0000179
1.0000179
1.0000179
1.0000179
1.0000179
1.0000179
1.0000179
1.0000179
1.0000179
1.0000179
1.0000179
1.0000179
1.0000179
1.0000179
1.0000179
1.0000179
1.0000179
1.0000179
1.0000179
1.0000179
1.0000179
1.0000179
1.0000179
1.0000179
1.0000179
1.0000179
1.0000179
1.0000179
1.0000179
1.0000179
1.0000179
1.0000179
1.0000179
1.0000179
1.0000179
1.0000178
1.0000178
1.0000179
1.0000178
1.0000178
1.0000184
1.0000174
1.0000169
1.0000167
1.0000167
1.0000167
1.0000168
1.0000168
1.0000168
1.0000168
1.0000168
1.0000168
1.0000168
1.0000168
1.0000168
1.0000168
1.0000168
1.0000168
1.0000168
1.0000168
1.0000168
1.0000168
1.0000168
1.0000168
1.0000168
1.0000169
1.0000169
1.0000169
1.0000169
1.0000169
1.0000169
1.0000169
1.0000169
1.0000169
1.0000169
1.0000169
1.0000169
1.0000169
1.0000168
1.0000168
1.0000168
1.0000168
1.0000168
1.0000168
1.0000168
1.0000168
1.0000168
1.0000168
1.0000168
1.0000168
1.0000168
1.0000168
1.0000168
1.0000168
1.0000168
1.0000168
1.0000168
1.0000168
1.0000168
1.0000173
1.0000163
1.0000159
1.0000158
1.0000158
1.0000158
1.0000158
1.0000159
1.0000159
1.0000159
1.0000159
1.0000159
1.0000159
1.0000159
1.0000159
1.0000159
1.0000159
1.0000159
1.0000159
1.0000159
1.0000159
1.0000159
1.0000159
1.0000159
1.0000159
1.0000159
1.0000159
1.0000159
1.000016
1.000016
1.0000159
1.0000159
1.0000159
1.0000159
1.0000159
1.0000159
1.0000159
1.0000159
1.0000159
1.0000159
1.0000159
1.0000159
1.0000159
1.0000159
1.0000159
1.0000159
1.0000159
1.0000159
1.0000159
1.0000159
1.0000159
1.0000159
1.0000159
1.0000159
1.0000159
1.0000159
1.0000159
1.0000159
1.0000159
1.0000163
1.0000154
1.0000151
1.000015
1.000015
1.0000151
1.0000151
1.0000151
1.0000151
1.0000151
1.0000151
1.0000151
1.0000151
1.0000151
1.0000151
1.0000151
1.0000151
1.0000151
1.0000151
1.0000151
1.0000151
1.0000151
1.0000151
1.0000151
1.0000152
1.0000152
1.0000152
1.0000152
1.0000152
1.0000152
1.0000152
1.0000152
1.0000152
1.0000152
1.0000151
1.0000151
1.0000152
1.0000152
1.0000151
1.0000151
1.0000151
1.0000151
1.0000151
1.0000151
1.0000151
1.0000151
1.0000151
1.0000151
1.0000151
1.0000151
1.0000151
1.0000151
1.0000151
1.0000151
1.0000151
1.0000151
1.0000151
1.0000151
1.0000151
1.0000155
1.0000146
1.0000143
1.0000143
1.0000143
1.0000143
1.0000144
1.0000144
1.0000144
1.0000144
1.0000144
1.0000144
1.0000144
1.0000144
1.0000144
1.0000144
1.0000144
1.0000144
1.0000144
1.0000144
1.0000144
1.0000144
1.0000144
1.0000144
1.0000144
1.0000144
1.0000145
1.0000145
1.0000145
1.0000145
1.0000145
1.0000145
1.0000144
1.0000144
1.0000144
1.0000144
1.0000144
1.0000144
1.0000144
1.0000144
1.0000144
1.0000144
1.0000144
1.0000144
1.0000144
1.0000144
1.0000144
1.0000144
1.0000144
1.0000144
1.0000144
1.0000144
1.0000144
1.0000144
1.0000144
1.0000144
1.0000144
1.0000144
1.0000144
1.0000147
1.0000139
1.0000137
1.0000137
1.0000137
1.0000137
1.0000137
1.0000137
1.0000137
1.0000137
1.0000137
1.0000137
1.0000137
1.0000137
1.0000137
1.0000137
1.0000137
1.0000137
1.0000137
1.0000137
1.0000137
1.0000138
1.0000138
1.0000138
1.0000138
1.0000138
1.0000138
1.0000138
1.0000138
1.0000138
1.0000138
1.0000138
1.0000138
1.0000138
1.0000138
1.0000138
1.0000138
1.0000138
1.0000138
1.0000138
1.0000138
1.0000137
1.0000137
1.0000138
1.0000138
1.0000138
1.0000138
1.0000137
1.0000137
1.0000137
1.0000137
1.0000137
1.0000137
1.0000137
1.0000137
1.0000137
1.0000137
1.0000137
1.0000137
1.0000142
1.0000135
1.0000134
1.0000134
1.0000134
1.0000134
1.0000134
1.0000134
1.0000134
1.0000134
1.0000135
1.0000135
1.0000134
1.0000134
1.0000134
1.0000134
1.0000135
1.0000134
1.0000134
1.0000134
1.0000135
1.0000135
1.0000135
1.0000135
1.0000135
1.0000135
1.0000135
1.0000135
1.0000135
1.0000135
1.0000135
1.0000135
1.0000135
1.0000135
1.0000135
1.0000135
1.0000135
1.0000135
1.0000135
1.0000135
1.0000135
1.0000134
1.0000134
1.0000135
1.0000135
1.0000135
1.0000135
1.0000134
1.0000134
1.0000134
1.0000134
1.0000134
1.0000134
1.0000134
1.0000134
1.0000134
1.0000134
1.0000134
1.0000134
1.0000139
1.0000132
1.0000131
1.0000131
1.0000132
1.0000132
1.0000132
1.0000132
1.0000132
1.0000132
1.0000132
1.0000132
1.0000132
1.0000132
1.0000132
1.0000132
1.0000132
1.0000132
1.0000132
1.0000132
1.0000132
1.0000132
1.0000133
1.0000133
1.0000133
1.0000133
1.0000133
1.0000133
1.0000133
1.0000133
1.0000133
1.0000133
1.0000133
1.0000133
1.0000133
1.0000133
1.0000133
1.0000133
1.0000133
1.0000133
1.0000133
1.0000132
1.0000132
1.0000133
1.0000133
1.0000133
1.0000133
1.0000132
1.0000132
1.0000132
1.0000132
1.0000133
1.0000132
1.0000132
1.0000133
1.0000132
1.0000132
1.0000132
1.0000132
1.0000122
1.0000116
1.0000116
1.0000116
1.0000116
1.0000117
1.0000117
1.0000116
1.0000117
1.0000117
1.0000117
1.0000117
1.0000117
1.0000117
1.0000117
1.0000117
1.0000117
1.0000117
1.0000117
1.0000117
1.0000117
1.0000118
1.0000118
1.0000118
1.0000118
1.0000118
1.0000118
1.0000118
1.0000118
1.0000118
1.0000118
1.0000118
1.0000118
1.0000118
1.0000118
1.0000118
1.0000118
1.0000118
1.0000118
1.0000118
1.0000118
1.0000117
1.0000117
1.0000117
1.0000118
1.0000118
1.0000117
1.0000117
1.0000117
1.0000117
1.0000117
1.0000117
1.0000117
1.0000117
1.0000117
1.0000116
1.0000116
1.0000117
1.0000117
1.0000122
1.0000114
1.0000117
1.0000115
1.0000116
1.0000117
1.0000115
1.0000115
1.0000116
1.0000117
1.0000117
1.0000116
1.0000116
1.0000117
1.0000117
1.0000117
1.0000117
1.0000116
1.0000116
1.0000117
1.0000117
1.0000117
1.0000117
1.0000117
1.0000117
1.0000117
1.0000117
1.0000117
1.0000117
1.0000117
1.0000117
1.0000117
1.0000117
1.0000117
1.0000117
1.0000116
1.0000116
1.0000116
1.0000116
1.0000116
1.0000116
1.0000116
1.0000116
1.0000115
1.0000116
1.0000116
1.0000116
1.0000116
1.0000115
1.0000115
1.0000115
1.0000115
1.0000116
1.0000114
1.0000115
1.0000115
1.0000112
1.0000115
1.0000115
1.0000199
1.0000194
1.0000198
1.0000194
1.0000198
1.0000197
1.0000194
1.0000197
1.0000197
1.0000196
1.0000196
1.0000195
1.0000196
1.0000196
1.0000196
1.0000196
1.0000195
1.0000195
1.0000195
1.0000195
1.0000196
1.0000196
1.0000196
1.0000196
1.0000196
1.0000196
1.0000196
1.0000196
1.0000196
1.0000196
1.0000196
1.0000196
1.0000196
1.0000196
1.0000196
1.0000196
1.0000195
1.0000195
1.0000196
1.0000195
1.0000196
1.0000196
1.0000196
1.0000196
1.0000196
1.0000196
1.0000196
1.0000196
1.0000196
1.0000196
1.0000196
1.0000195
1.0000196
1.0000196
1.0000195
1.0000197
1.0000194
1.0000196
1.0000196
1.0000112
1.0000123
1.0000117
1.0000123
1.0000117
1.0000115
1.000012
1.0000119
1.0000118
1.0000117
1.0000118
1.000012
1.0000121
1.000012
1.000012
1.000012
1.0000121
1.0000122
1.0000124
1.0000124
1.0000124
1.0000124
1.0000124
1.0000124
1.0000124
1.0000124
1.0000124
1.0000124
1.0000124
1.0000124
1.0000124
1.0000124
1.0000124
1.0000124
1.0000124
1.0000124
1.0000124
1.0000124
1.0000123
1.0000122
1.0000121
1.000012
1.0000119
1.0000118
1.0000116
1.0000114
1.0000116
1.0000117
1.0000117
1.0000116
1.0000116
1.0000116
1.0000114
1.0000117
1.0000117
1.0000117
1.0000123
1.0000114
1.0000114
1.0000804
1.0000805
1.0000805
1.0000805
1.0000805
1.0000806
1.0000806
1.0000806
1.0000806
1.0000807
1.0000807
1.0000807
1.0000807
1.0000807
1.0000808
1.0000808
1.0000808
1.0000808
1.0000809
1.0000809
1.0000809
1.0000809
1.000081
1.000081
1.000081
1.000081
1.000081
1.0000811
1.0000811
1.0000811
1.0000811
1.0000811
1.0000811
1.0000811
1.0000812
1.0000812
1.0000812
1.0000812
1.0000812
1.0000812
1.0000812
1.0000812
1.0000812
1.0000812
1.0000812
1.0000812
1.0000812
1.0000812
1.0000812
1.0000812
1.0000812
1.0000813
1.0000814
1.0000816
1.0000821
1.000083
1.0000847
1.0000877
1.0000916
1.0000736
1.0000736
1.0000737
1.0000737
1.0000737
1.0000737
1.0000737
1.0000738
1.0000738
1.0000738
1.0000738
1.0000739
1.0000739
1.0000739
1.0000739
1.0000739
1.000074
1.000074
1.000074
1.000074
1.000074
1.000074
1.0000741
1.0000741
1.0000741
1.0000741
1.0000741
1.0000741
1.0000742
1.0000742
1.0000742
1.0000742
1.0000742
1.0000742
1.0000742
1.0000742
1.0000743
1.0000743
1.0000743
1.0000743
1.0000743
1.0000743
1.0000743
1.0000743
1.0000743
1.0000743
1.0000743
1.0000743
1.0000743
1.0000743
1.0000743
1.0000743
1.0000744
1.0000746
1.0000751
1.0000759
1.0000775
1.0000802
1.0000838
1.0000673
1.0000673
1.0000673
1.0000673
1.0000674
1.0000674
1.0000674
1.0000674
1.0000674
1.0000675
1.0000675
1.0000675
1.0000675
1.0000675
1.0000675
1.0000676
1.0000676
1.0000676
1.0000676
1.0000676
1.0000676
1.0000676
1.0000677
1.0000677
1.0000677
1.0000677
1.0000677
1.0000677
1.0000677
1.0000678
1.0000678
1.0000678
1.0000678
1.0000678
1.0000678
1.0000678
1.0000678
1.0000678
1.0000678
1.0000678
1.0000678
1.0000678
1.0000678
1.0000678
1.0000678
1.0000678
1.0000678
1.0000678
1.0000678
1.0000678
1.0000678
1.0000679
1.0000679
1.0000681
1.0000685
1.0000693
1.0000707
1.0000732
1.0000765
1.0000614
1.0000614
1.0000614
1.0000614
1.0000614
1.0000614
1.0000614
1.0000615
1.0000615
1.0000615
1.0000615
1.0000615
1.0000615
1.0000615
1.0000616
1.0000616
1.0000616
1.0000616
1.0000616
1.0000616
1.0000616
1.0000617
1.0000617
1.0000617
1.0000617
1.0000617
1.0000617
1.0000617
1.0000617
1.0000618
1.0000618
1.0000618
1.0000618
1.0000618
1.0000618
1.0000618
1.0000618
1.0000618
1.0000618
1.0000618
1.0000618
1.0000618
1.0000618
1.0000618
1.0000618
1.0000618
1.0000618
1.0000618
1.0000618
1.0000618
1.0000618
1.0000618
1.0000619
1.0000621
1.0000624
1.0000631
1.0000644
1.0000667
1.0000697
1.0000558
1.0000559
1.0000559
1.0000559
1.0000559
1.0000559
1.0000559
1.0000559
1.0000559
1.000056
1.000056
1.000056
1.000056
1.000056
1.000056
1.000056
1.000056
1.0000561
1.0000561
1.0000561
1.0000561
1.0000561
1.0000561
1.0000561
1.0000561
1.0000561
1.0000562
1.0000562
1.0000562
1.0000562
1.0000562
1.0000562
1.0000562
1.0000562
1.0000562
1.0000562
1.0000562
1.0000562
1.0000562
1.0000562
1.0000562
1.0000562
1.0000562
1.0000562
1.0000562
1.0000562
1.0000562
1.0000562
1.0000562
1.0000562
1.0000562
1.0000562
1.0000563
1.0000564
1.0000567
1.0000573
1.0000585
1.0000607
1.0000634
1.0000507
1.0000507
1.0000507
1.0000507
1.0000508
1.0000508
1.0000508
1.0000508
1.0000508
1.0000508
1.0000508
1.0000508
1.0000508
1.0000508
1.0000509
1.0000509
1.0000509
1.0000509
1.0000509
1.0000509
1.0000509
1.0000509
1.0000509
1.000051
1.000051
1.000051
1.000051
1.000051
1.000051
1.000051
1.000051
1.000051
1.000051
1.000051
1.000051
1.000051
1.000051
1.000051
1.000051
1.000051
1.000051
1.000051
1.000051
1.000051
1.000051
1.000051
1.000051
1.000051
1.000051
1.000051
1.000051
1.000051
1.000051
1.0000512
1.0000514
1.000052
1.0000531
1.000055
1.0000575
1.000046
1.000046
1.000046
1.000046
1.000046
1.000046
1.000046
1.000046
1.0000461
1.0000461
1.0000461
1.0000461
1.0000461
1.0000461
1.0000461
1.0000461
1.0000461
1.0000461
1.0000461
1.0000461
1.0000461
1.0000462
1.0000462
1.0000462
1.0000462
1.0000462
1.0000462
1.0000462
1.0000462
1.0000462
1.0000462
1.0000462
1.0000462
1.0000462
1.0000462
1.0000462
1.0000462
1.0000462
1.0000462
1.0000462
1.0000462
1.0000462
1.0000462
1.0000462
1.0000462
1.0000462
1.0000462
1.0000462
1.0000462
1.0000462
1.0000462
1.0000462
1.0000462
1.0000463
1.0000466
1.0000471
1.000048
1.0000498
1.0000521
1.0000416
1.0000416
1.0000416
1.0000416
1.0000416
1.0000416
1.0000416
1.0000417
1.0000417
1.0000417
1.0000417
1.0000417
1.0000417
1.0000417
1.0000417
1.0000417
1.0000417
1.0000417
1.0000417
1.0000417
1.0000417
1.0000418
1.0000418
1.0000418
1.0000418
1.0000418
1.0000418
1.0000418
1.0000418
1.0000418
1.0000418
1.0000418
1.0000418
1.0000418
1.0000418
1.0000418
1.0000418
1.0000418
1.0000418
1.0000418
1.0000418
1.0000418
1.0000418
1.0000418
1.0000418
1.0000418
1.0000418
1.0000418
1.0000418
1.0000418
1.0000418
1.0000418
1.0000418
1.0000419
1.0000421
1.0000425
1.0000434
1.000045
1.0000471
1.0000376
1.0000376
1.0000376
1.0000376
1.0000376
1.0000376
1.0000376
1.0000376
1.0000376
1.0000376
1.0000376
1.0000377
1.0000377
1.0000377
1.0000377
1.0000377
1.0000377
1.0000377
1.0000377
1.0000377
1.0000377
1.0000377
1.0000377
1.0000377
1.0000377
1.0000377
1.0000377
1.0000378
1.0000378
1.0000378
1.0000378
1.0000378
1.0000378
1.0000378
1.0000378
1.0000378
1.0000378
1.0000378
1.0000378
1.0000378
1.0000378
1.0000378
1.0000378
1.0000378
1.0000377
1.0000377
1.0000377
1.0000377
1.0000377
1.0000377
1.0000377
1.0000377
1.0000377
1.0000378
1.0000379
1.0000383
1.0000391
1.0000406
1.0000425
1.0000339
1.0000339
1.0000339
1.0000339
1.0000339
1.0000339
1.0000339
1.0000339
1.0000339
1.000034
1.000034
1.000034
1.000034
1.000034
1.000034
1.000034
1.000034
1.000034
1.000034
1.000034
1.000034
1.000034
1.000034
1.000034
1.000034
1.000034
1.000034
1.000034
1.0000341
1.0000341
1.0000341
1.0000341
1.0000341
1.0000341
1.000034
1.000034
1.0000341
1.0000341
1.0000341
1.0000341
1.0000341
1.0000341
1.0000341
1.000034
1.000034
1.000034
1.000034
1.000034
1.000034
1.000034
1.000034
1.000034
1.000034
1.000034
1.0000342
1.0000345
1.0000352
1.0000365
1.0000383
1.0000305
1.0000305
1.0000305
1.0000305
1.0000305
1.0000305
1.0000306
1.0000306
1.0000306
1.0000306
1.0000306
1.0000306
1.0000306
1.0000306
1.0000306
1.0000306
1.0000306
1.0000306
1.0000306
1.0000306
1.0000306
1.0000306
1.0000307
1.0000307
1.0000307
1.0000307
1.0000307
1.0000307
1.0000307
1.0000307
1.0000307
1.0000307
1.0000307
1.0000307
1.0000307
1.0000307
1.0000307
1.0000307
1.0000307
1.0000307
1.0000307
1.0000307
1.0000307
1.0000307
1.0000307
1.0000306
1.0000306
1.0000306
1.0000306
1.0000306
1.0000306
1.0000306
1.0000306
1.0000306
1.0000307
1.000031
1.0000316
1.0000328
1.0000344
1.0000274
1.0000275
1.0000275
1.0000275
1.0000275
1.0000275
1.0000275
1.0000275
1.0000275
1.0000275
1.0000275
1.0000275
1.0000275
1.0000275
1.0000275
1.0000275
1.0000275
1.0000275
1.0000275
1.0000275
1.0000275
1.0000276
1.0000276
1.0000276
1.0000276
1.0000276
1.0000276
1.0000276
1.0000276
1.0000276
1.0000276
1.0000276
1.0000276
1.0000276
1.0000276
1.0000276
1.0000276
1.0000276
1.0000276
1.0000276
1.0000276
1.0000276
1.0000276
1.0000276
1.0000276
1.0000276
1.0000276
1.0000276
1.0000276
1.0000276
1.0000275
1.0000275
1.0000275
1.0000275
1.0000276
1.0000278
1.0000283
1.0000294
1.0000309
1.0000247
1.0000247
1.0000247
1.0000247
1.0000247
1.0000247
1.0000247
1.0000247
1.0000247
1.0000247
1.0000247
1.0000247
1.0000247
1.0000247
1.0000247
1.0000248
1.0000248
1.0000248
1.0000248
1.0000248
1.0000248
1.0000248
1.0000248
1.0000248
1.0000248
1.0000248
1.0000248
1.0000248
1.0000248
1.0000248
1.0000248
1.0000248
1.0000248
1.0000248
1.0000248
1.0000248
1.0000248
1.0000248
1.0000248
1.0000248
1.0000248
1.0000248
1.0000248
1.0000248
1.0000248
1.0000248
1.0000248
1.0000248
1.0000248
1.0000248
1.0000248
1.0000247
1.0000247
1.0000247
1.0000248
1.0000249
1.0000254
1.0000263
1.0000277
1.0000223
1.0000223
1.0000223
1.0000223
1.0000223
1.0000223
1.0000223
1.0000223
1.0000223
1.0000223
1.0000223
1.0000223
1.0000223
1.0000223
1.0000223
1.0000223
1.0000223
1.0000223
1.0000223
1.0000223
1.0000223
1.0000224
1.0000224
1.0000224
1.0000224
1.0000224
1.0000224
1.0000224
1.0000224
1.0000224
1.0000224
1.0000224
1.0000224
1.0000224
1.0000224
1.0000224
1.0000224
1.0000224
1.0000224
1.0000224
1.0000224
1.0000224
1.0000224
1.0000224
1.0000224
1.0000224
1.0000223
1.0000223
1.0000223
1.0000223
1.0000223
1.0000223
1.0000223
1.0000223
1.0000223
1.0000224
1.0000228
1.0000237
1.0000249
1.0001009
1.0001122
1.0001249
1.0001388
1.000154
1.0001705
1.0001886
1.0002081
1.0002293
1.0002522
1.0002767
1.000303
1.0003309
1.0003604
1.0003913
1.0004236
1.0004569
1.0004908
1.000525
1.0005589
1.0005919
1.0006231
1.0006517
1.0006768
1.0006973
1.0007123
1.0007205
1.0007212
1.000714
1.0006974
1.0006716
1.0006362
1.0005908
1.0005376
1.0004762
1.0004061
1.0003307
1.0002498
1.0001635
1.0000743
0.99998358
0.99989215
0.99980061
0.99970997
0.99962123
0.99953468
0.99945015
0.99936767
0.99928822
0.99921215
0.99913981
0.99907103
0.99900581
0.99894397
0.99888569
0.99883111
0.99877975
0.99873135
0.99868599
0.99864352
0.99860382
0.99856671
0.99853196
0.99849956
0.99846945
0.99844143
0.99841537
0.99839116
0.99836866
0.99834778
0.9983284
0.9983104
0.99829375
0.99827822
1.0000967
1.0001077
1.00012
1.0001336
1.0001484
1.0001646
1.0001822
1.0002014
1.000222
1.0002444
1.0002683
1.000294
1.0003213
1.0003502
1.0003806
1.0004123
1.000445
1.0004785
1.0005123
1.0005459
1.0005787
1.0006099
1.0006388
1.0006643
1.0006854
1.0007015
1.0007109
1.0007132
1.000708
1.0006936
1.0006704
1.0006382
1.0005965
1.0005461
1.000488
1.0004225
1.000351
1.0002743
1.0001929
1.0001081
1.0000213
0.99993337
0.99984514
0.99975773
0.99967163
0.99958759
0.99950472
0.99942354
0.99934646
0.99927293
0.99920276
0.9991359
0.99907243
0.99901219
0.99895541
0.99890237
0.99885245
0.99880534
0.99876113
0.99871967
0.9986809
0.99864459
0.99861054
0.99857878
0.99854925
0.99852176
0.99849618
0.99847239
0.99845029
0.99842977
0.99841072
0.99839303
0.99837667
0.99836138
1.0000934
1.0001041
1.0001161
1.0001293
1.0001437
1.0001595
1.0001766
1.0001952
1.0002153
1.0002371
1.0002604
1.0002853
1.0003119
1.0003401
1.0003697
1.0004005
1.0004325
1.0004652
1.0004983
1.0005312
1.0005633
1.000594
1.0006225
1.0006479
1.000669
1.0006853
1.0006952
1.0006985
1.0006944
1.0006816
1.0006603
1.0006305
1.0005917
1.0005445
1.0004897
1.0004279
1.0003602
1.0002875
1.0002104
1.0001302
1.0000481
0.99996482
0.99988119
0.99979808
0.99971637
0.99963657
0.99955863
0.99948263
0.99940933
0.99933914
0.99927204
0.99920807
0.99914738
0.99908952
0.99903592
0.99898603
0.99893806
0.99889241
0.99884955
0.99880944
0.99877204
0.99873688
0.99870376
0.99867293
0.99864435
0.99861781
0.99859316
0.99857027
0.99854903
0.99852932
0.99851103
0.99849406
0.99847835
0.99846371
1.0000916
1.000102
1.0001137
1.0001266
1.0001406
1.000156
1.0001727
1.0001908
1.0002105
1.0002317
1.0002545
1.0002788
1.0003047
1.0003322
1.000361
1.0003911
1.0004223
1.0004541
1.0004864
1.0005184
1.0005498
1.0005797
1.0006075
1.0006321
1.0006528
1.0006687
1.0006784
1.0006816
1.0006778
1.0006655
1.0006448
1.000616
1.0005786
1.0005331
1.0004802
1.0004206
1.0003553
1.0002852
1.000211
1.0001338
1.0000548
0.99997491
0.99989469
0.999815
0.99973661
0.99966004
0.99958534
0.99951267
0.99944264
0.99937559
0.99931151
0.99925043
0.99919246
0.99913735
0.9990858
0.99903703
0.99899116
0.99894799
0.99890746
0.99886948
0.99883397
0.99880072
0.99876956
0.99874048
0.99871339
0.99868818
0.99866473
0.99864293
0.99862269
0.99860389
0.99858644
0.99857026
0.99855525
0.99854136
1.0000905
1.0001007
1.0001123
1.0001249
1.0001387
1.0001538
1.0001702
1.000188
1.0002073
1.000228
1.0002504
1.0002742
1.0002996
1.0003265
1.0003547
1.0003842
1.0004146
1.0004458
1.0004772
1.0005085
1.000539
1.0005681
1.0005951
1.000619
1.0006389
1.0006541
1.0006632
1.0006659
1.0006617
1.0006491
1.0006284
1.0005996
1.0005624
1.0005173
1.000465
1.0004062
1.0003418
1.0002729
1.0001999
1.0001241
1.0000466
0.99996833
0.99988982
0.9998119
0.99973532
0.99966056
0.99958769
0.99951688
0.9994487
0.99938346
0.99932117
0.99926184
0.99920555
0.99915219
0.99910188
0.99905466
0.99901023
0.99896842
0.99892918
0.99889242
0.99885806
0.99882592
0.99879586
0.99876782
0.99874172
0.99871744
0.99869481
0.99867402
0.99865472
0.99863676
0.99862005
0.99860449
0.99859005
0.99857657
1.0000899
1.0001
1.0001114
1.0001239
1.0001375
1.0001524
1.0001686
1.0001861
1.0002051
1.0002256
1.0002476
1.0002711
1.0002961
1.0003225
1.0003503
1.0003792
1.0004091
1.0004397
1.0004705
1.0005011
1.0005309
1.0005593
1.0005855
1.0006087
1.0006278
1.0006423
1.0006507
1.0006527
1.0006479
1.0006348
1.0006136
1.0005843
1.0005468
1.0005015
1.0004491
1.0003902
1.0003259
1.000257
1.0001843
1.0001088
1.0000317
0.99995387
0.99987588
0.99979852
0.99972253
0.99964836
0.99957613
0.99950603
0.99943856
0.99937402
0.99931242
0.99925379
0.99919818
0.99914551
0.99909586
0.99904925
0.99900541
0.99896417
0.99892548
0.99888924
0.99885536
0.9988237
0.99879412
0.99876652
0.99874084
0.99871695
0.99869473
0.99867407
0.99865489
0.99863707
0.99862052
0.99860517
0.99859093
0.99857771
1.0000896
1.0000996
1.000111
1.0001233
1.0001368
1.0001516
1.0001676
1.000185
1.0002038
1.000224
1.0002458
1.000269
1.0002937
1.0003198
1.0003472
1.0003758
1.0004052
1.0004353
1.0004656
1.0004957
1.000525
1.0005528
1.0005784
1.0006009
1.0006194
1.0006333
1.000641
1.0006424
1.000637
1.0006233
1.0006015
1.0005718
1.0005338
1.000488
1.0004352
1.000376
1.0003113
1.0002422
1.0001692
1.0000936
1.0000163
0.99993836
0.9998603
0.99978292
0.9997069
0.99963271
0.99956051
0.99949049
0.99942311
0.99935865
0.99929715
0.99923863
0.99918314
0.99913061
0.99908109
0.99903456
0.9989908
0.99894968
0.99891111
0.99887501
0.99884125
0.99880971
0.99878025
0.99875279
0.99872722
0.99870342
0.99868129
0.99866072
0.99864161
0.99862386
0.99860739
0.99859209
0.99857791
0.99856474
1.0000895
1.0000994
1.0001107
1.000123
1.0001364
1.000151
1.000167
1.0001842
1.0002029
1.000223
1.0002445
1.0002676
1.0002921
1.0003179
1.0003451
1.0003733
1.0004025
1.0004322
1.0004622
1.0004918
1.0005207
1.000548
1.0005732
1.0005952
1.0006132
1.0006266
1.0006338
1.0006347
1.0006288
1.0006145
1.0005923
1.0005621
1.0005236
1.0004774
1.0004242
1.0003646
1.0002996
1.0002301
1.0001569
1.0000809
1.0000035
0.99992523
0.99984695
0.99976937
0.99969315
0.99961875
0.99954638
0.99947625
0.99940877
0.99934419
0.99928259
0.99922399
0.99916841
0.99911583
0.99906624
0.99901962
0.99897579
0.99893462
0.99889601
0.99885986
0.99882606
0.99879448
0.998765
0.99873752
0.99871192
0.99868811
0.99866597
0.99864538
0.99862626
0.9986085
0.99859202
0.99857672
0.99856253
0.99854935
1.0000894
1.0000993
1.0001105
1.0001228
1.0001361
1.0001507
1.0001666
1.0001837
1.0002023
1.0002223
1.0002437
1.0002666
1.0002909
1.0003166
1.0003436
1.0003716
1.0004005
1.00043
1.0004597
1.0004891
1.0005176
1.0005446
1.0005694
1.0005911
1.0006087
1.0006217
1.0006285
1.0006291
1.0006228
1.0006082
1.0005856
1.000555
1.0005162
1.0004697
1.0004162
1.0003563
1.000291
1.0002212
1.0001478
1.0000716
0.9999939
0.99991546
0.99983699
0.99975922
0.99968282
0.99960823
0.99953569
0.99946544
0.99939784
0.99933315
0.99927143
0.99921272
0.99915705
0.99910438
0.99905471
0.99900799
0.99896407
0.99892282
0.99888414
0.99884793
0.99881408
0.99878246
0.99875296
0.99872545
0.99869983
0.99867599
0.99865382
0.99863322
0.99861407
0.99859629
0.99857978
0.99856445
0.99855024
0.99853704
1.0000894
1.0000993
1.0001105
1.0001227
1.000136
1.0001505
1.0001663
1.0001834
1.0002019
1.0002218
1.0002432
1.000266
1.0002902
1.0003157
1.0003425
1.0003704
1.0003991
1.0004284
1.0004579
1.0004871
1.0005154
1.0005422
1.0005667
1.0005881
1.0006055
1.0006182
1.0006248
1.000625
1.0006185
1.0006037
1.0005809
1.0005501
1.0005111
1.0004644
1.0004107
1.0003506
1.0002851
1.0002152
1.0001415
1.0000653
0.99998741
0.99990883
0.99983024
0.99975235
0.99967582
0.99960109
0.99952844
0.99945811
0.99939044
0.99932566
0.99926387
0.99920509
0.99914935
0.99909663
0.9990469
0.9990001
0.99895611
0.99891481
0.99887608
0.99883983
0.99880594
0.99877429
0.99874475
0.99871721
0.99869157
0.9986677
0.99864551
0.99862487
0.99860571
0.99858791
0.99857138
0.99855604
0.99854182
0.9985286
1.0000893
1.0000993
1.0001104
1.0001226
1.0001359
1.0001504
1.0001661
1.0001832
1.0002017
1.0002215
1.0002428
1.0002655
1.0002896
1.0003151
1.0003418
1.0003695
1.0003982
1.0004273
1.0004566
1.0004857
1.0005138
1.0005404
1.0005648
1.000586
1.0006032
1.0006158
1.0006222
1.0006221
1.0006156
1.0006006
1.0005777
1.0005468
1.0005077
1.0004609
1.0004071
1.000347
1.0002814
1.0002114
1.0001377
1.0000613
0.99998341
0.99990476
0.9998261
0.99974815
0.99967154
0.99959672
0.99952399
0.99945362
0.99938591
0.99932108
0.99925924
0.99920042
0.99914463
0.99909188
0.9990421
0.99899525
0.99895121
0.99890987
0.99887111
0.99883483
0.99880092
0.99876924
0.99873969
0.99871214
0.99868649
0.99866262
0.99864041
0.99861977
0.9986006
0.99858279
0.99856625
0.9985509
0.99853666
0.99852344
1.0000893
1.0000993
1.0001104
1.0001226
1.0001359
1.0001503
1.000166
1.0001831
1.0002015
1.0002213
1.0002425
1.0002652
1.0002892
1.0003146
1.0003412
1.0003689
1.0003975
1.0004265
1.0004557
1.0004846
1.0005127
1.0005392
1.0005634
1.0005846
1.0006017
1.0006141
1.0006206
1.0006205
1.0006137
1.0005987
1.0005757
1.0005447
1.0005057
1.0004589
1.0004051
1.000345
1.0002794
1.0002094
1.0001356
1.0000593
0.99998135
0.99990267
0.99982399
0.999746
0.99966934
0.99959446
0.99952168
0.99945129
0.99938355
0.9993187
0.99925682
0.99919797
0.99914216
0.99908937
0.99903957
0.99899267
0.9989486
0.99890722
0.99886844
0.99883214
0.9987982
0.99876651
0.99873695
0.99870939
0.99868372
0.99865983
0.99863761
0.99861696
0.99859777
0.99857995
0.99856341
0.99854805
0.9985338
0.99852058
1.0000893
1.0000993
1.0001104
1.0001226
1.0001358
1.0001503
1.000166
1.000183
1.0002014
1.0002211
1.0002423
1.000265
1.000289
1.0003143
1.0003409
1.0003685
1.0003969
1.0004259
1.0004551
1.0004839
1.0005119
1.0005383
1.0005625
1.0005836
1.0006006
1.000613
1.0006194
1.0006195
1.0006127
1.0005977
1.0005748
1.0005438
1.0005048
1.0004581
1.0004044
1.0003444
1.0002788
1.0002088
1.0001351
1.0000588
0.9999809
0.99990222
0.99982353
0.99974554
0.99966884
0.99959392
0.9995211
0.99945069
0.99938294
0.99931805
0.99925615
0.99919726
0.99914142
0.99908861
0.99903877
0.99899184
0.99894773
0.99890632
0.99886751
0.99883119
0.99879723
0.99876552
0.99873594
0.99870837
0.99868269
0.9986588
0.99863657
0.99861591
0.99859671
0.99857888
0.99856233
0.99854696
0.9985327
0.99851947
1.0000893
1.0000993
1.0001104
1.0001226
1.0001358
1.0001502
1.0001659
1.0001829
1.0002013
1.000221
1.0002422
1.0002648
1.0002888
1.0003141
1.0003406
1.0003682
1.0003966
1.0004255
1.0004546
1.0004834
1.0005113
1.0005377
1.0005619
1.0005829
1.0006
1.0006125
1.0006186
1.0006189
1.0006123
1.0005974
1.0005746
1.0005438
1.000505
1.0004584
1.0004048
1.0003449
1.0002795
1.0002096
1.000136
1.0000597
0.99998185
0.99990319
0.99982451
0.99974652
0.9996698
0.99959484
0.99952199
0.99945155
0.99938377
0.99931886
0.99925692
0.999198
0.99914213
0.99908927
0.9990394
0.99899243
0.99894827
0.99890683
0.99886799
0.99883164
0.99879766
0.99876593
0.99873633
0.99870874
0.99868304
0.99865912
0.99863688
0.9986162
0.99859699
0.99857915
0.99856258
0.99854721
0.99853294
0.9985197
1.0000893
1.0000992
1.0001104
1.0001225
1.0001358
1.0001502
1.0001659
1.0001829
1.0002012
1.000221
1.0002421
1.0002647
1.0002886
1.0003139
1.0003404
1.0003679
1.0003963
1.0004252
1.0004543
1.000483
1.0005109
1.0005373
1.0005615
1.0005825
1.0005996
1.0006122
1.0006183
1.0006188
1.0006124
1.0005976
1.0005751
1.0005445
1.0005059
1.0004596
1.0004062
1.0003465
1.0002813
1.0002115
1.000138
1.0000619
0.99998406
0.99990545
0.9998268
0.99974881
0.99967207
0.99959707
0.99952419
0.99945371
0.99938591
0.99932096
0.99925897
0.99920001
0.99914409
0.99909119
0.99904127
0.99899425
0.99895005
0.99890856
0.99886968
0.9988333
0.99879928
0.99876752
0.99873789
0.99871027
0.99868455
0.99866061
0.99863835
0.99861765
0.99859842
0.99858056
0.99856397
0.99854858
0.9985343
0.99852103
1.0000893
1.0000992
1.0001104
1.0001225
1.0001358
1.0001502
1.0001659
1.0001829
1.0002012
1.0002209
1.000242
1.0002646
1.0002885
1.0003137
1.0003402
1.0003677
1.0003961
1.000425
1.000454
1.0004827
1.0005106
1.000537
1.0005612
1.0005823
1.0005995
1.0006122
1.0006184
1.0006191
1.0006129
1.0005984
1.0005762
1.0005459
1.0005076
1.0004616
1.0004086
1.0003491
1.0002842
1.0002146
1.0001413
1.0000653
0.9999876
0.99990906
0.99983045
0.99975247
0.99967572
0.99960069
0.99952776
0.99945724
0.99938939
0.99932439
0.99926235
0.99920333
0.99914735
0.99909439
0.9990444
0.99899732
0.99895306
0.99891152
0.99887259
0.99883615
0.99880209
0.99877029
0.99874062
0.99871297
0.99868721
0.99866324
0.99864095
0.99862023
0.99860097
0.99858308
0.99856648
0.99855106
0.99853677
0.99852349
1.0000893
1.0000992
1.0001104
1.0001225
1.0001358
1.0001502
1.0001659
1.0001828
1.0002011
1.0002208
1.000242
1.0002645
1.0002884
1.0003136
1.0003401
1.0003676
1.0003959
1.0004248
1.0004538
1.0004825
1.0005104
1.0005368
1.0005611
1.0005823
1.0005995
1.0006125
1.0006187
1.0006198
1.0006139
1.0005998
1.0005779
1.0005481
1.0005102
1.0004646
1.000412
1.0003529
1.0002883
1.0002189
1.0001459
1.0000701
0.99999255
0.99991411
0.99983556
0.9997576
0.99968084
0.99960577
0.9995328