/*--------------------------------*- C++ -*----------------------------------*\
| =========                 |                                                 |
| \\      /  F ield         | OpenFOAM: The Open Source CFD Toolbox           |
|  \\    /   O peration     | Version:  v2006                                 |
|   \\  /    A nd           | Website:  www.openfoam.com                      |
|    \\/     M anipulation  |                                                 |
\*---------------------------------------------------------------------------*/
FoamFile
{
    version     2.0;
    format      ascii;
    class       volScalarField;
    location    "5000";
    object      T;
}
// * * * * * * * * * * * * * * * * * * * * * * * * * * * * * * * * * * * * * //

dimensions      [0 0 0 1 0 0 0];


internalField   nonuniform List<scalar> 
55713
(
1.0000063
1.0000075
1.0000083
1.0000086
1.0000086
1.0000086
1.0000086
1.0000086
1.0000086
1.0000086
1.0000086
1.0000086
1.0000086
1.0000086
1.0000086
1.0000087
1.0000087
1.0000087
1.0000087
1.0000087
1.0000087
1.0000086
1.0000086
1.0000086
1.0000086
1.0000085
1.0000085
1.0000085
1.0000085
1.0000085
1.0000085
1.0000085
1.0000085
1.0000086
1.0000085
1.0000085
1.0000085
1.0000085
1.0000086
1.0000086
1.0000086
1.0000086
1.0000085
1.0000085
1.0000085
1.0000085
1.0000086
1.0000086
1.0000086
1.0000086
1.0000086
1.0000086
1.0000086
1.0000086
1.0000086
1.0000086
1.0000086
1.0000086
1.0000086
1.000006
1.0000071
1.0000078
1.000008
1.0000081
1.0000081
1.0000081
1.000008
1.000008
1.000008
1.000008
1.000008
1.000008
1.000008
1.0000081
1.0000081
1.0000081
1.0000081
1.0000081
1.0000081
1.0000081
1.0000081
1.000008
1.000008
1.000008
1.000008
1.000008
1.000008
1.000008
1.000008
1.000008
1.000008
1.000008
1.000008
1.000008
1.000008
1.000008
1.000008
1.000008
1.000008
1.000008
1.000008
1.000008
1.000008
1.000008
1.000008
1.000008
1.000008
1.000008
1.0000081
1.0000081
1.0000081
1.0000081
1.0000081
1.0000081
1.0000081
1.0000081
1.0000081
1.0000081
1.0000057
1.0000068
1.0000074
1.0000076
1.0000076
1.0000076
1.0000076
1.0000075
1.0000075
1.0000075
1.0000075
1.0000075
1.0000075
1.0000075
1.0000076
1.0000076
1.0000076
1.0000076
1.0000076
1.0000076
1.0000076
1.0000075
1.0000075
1.0000075
1.0000075
1.0000075
1.0000075
1.0000075
1.0000075
1.0000075
1.0000075
1.0000075
1.0000075
1.0000075
1.0000075
1.0000075
1.0000075
1.0000075
1.0000075
1.0000075
1.0000075
1.0000075
1.0000075
1.0000075
1.0000075
1.0000075
1.0000075
1.0000075
1.0000076
1.0000076
1.0000076
1.0000076
1.0000076
1.0000076
1.0000076
1.0000076
1.0000076
1.0000076
1.0000076
1.0000055
1.0000065
1.000007
1.0000072
1.0000072
1.0000071
1.0000071
1.0000071
1.0000071
1.0000071
1.0000071
1.0000071
1.0000071
1.0000071
1.0000071
1.0000072
1.0000072
1.0000072
1.0000072
1.0000071
1.0000071
1.0000071
1.0000071
1.0000071
1.0000071
1.0000071
1.0000071
1.0000071
1.0000071
1.0000071
1.0000071
1.0000071
1.0000071
1.0000071
1.0000071
1.0000071
1.0000071
1.0000071
1.0000071
1.0000071
1.0000071
1.0000071
1.0000071
1.000007
1.0000071
1.0000071
1.0000071
1.0000071
1.0000071
1.0000071
1.0000072
1.0000072
1.0000072
1.0000072
1.0000072
1.0000072
1.0000072
1.0000072
1.0000072
1.0000053
1.0000063
1.0000067
1.0000068
1.0000068
1.0000068
1.0000068
1.0000067
1.0000067
1.0000067
1.0000067
1.0000067
1.0000067
1.0000067
1.0000068
1.0000068
1.0000068
1.0000068
1.0000068
1.0000068
1.0000067
1.0000067
1.0000067
1.0000067
1.0000067
1.0000067
1.0000067
1.0000067
1.0000067
1.0000067
1.0000067
1.0000067
1.0000067
1.0000067
1.0000067
1.0000067
1.0000067
1.0000067
1.0000067
1.0000067
1.0000067
1.0000067
1.0000067
1.0000067
1.0000067
1.0000067
1.0000067
1.0000067
1.0000068
1.0000068
1.0000068
1.0000068
1.0000068
1.0000068
1.0000068
1.0000068
1.0000068
1.0000068
1.0000068
1.0000051
1.0000061
1.0000064
1.0000065
1.0000065
1.0000064
1.0000064
1.0000064
1.0000064
1.0000064
1.0000064
1.0000064
1.0000064
1.0000064
1.0000065
1.0000065
1.0000065
1.0000064
1.0000064
1.0000064
1.0000064
1.0000064
1.0000064
1.0000064
1.0000064
1.0000064
1.0000064
1.0000064
1.0000064
1.0000064
1.0000064
1.0000064
1.0000064
1.0000064
1.0000064
1.0000064
1.0000064
1.0000064
1.0000064
1.0000064
1.0000064
1.0000064
1.0000064
1.0000064
1.0000064
1.0000064
1.0000064
1.0000064
1.0000064
1.0000065
1.0000065
1.0000065
1.0000065
1.0000065
1.0000065
1.0000065
1.0000065
1.0000065
1.0000065
1.000005
1.0000059
1.0000062
1.0000062
1.0000062
1.0000062
1.0000061
1.0000062
1.0000062
1.0000061
1.0000061
1.0000061
1.0000061
1.0000062
1.0000062
1.0000062
1.0000062
1.0000061
1.0000061
1.0000061
1.0000061
1.0000061
1.0000061
1.0000061
1.0000061
1.0000061
1.0000061
1.0000061
1.0000061
1.0000061
1.0000061
1.0000061
1.0000061
1.0000061
1.0000061
1.0000061
1.0000061
1.0000061
1.0000061
1.0000061
1.0000061
1.0000061
1.0000061
1.0000061
1.0000061
1.0000061
1.0000061
1.0000062
1.0000062
1.0000062
1.0000062
1.0000062
1.0000062
1.0000062
1.0000062
1.0000062
1.0000062
1.0000062
1.0000062
1.0000049
1.0000057
1.000006
1.000006
1.0000059
1.0000059
1.0000059
1.0000059
1.0000059
1.0000059
1.0000058
1.0000058
1.0000059
1.000006
1.0000059
1.0000059
1.0000059
1.0000059
1.0000059
1.0000059
1.0000058
1.0000058
1.0000058
1.0000058
1.0000058
1.0000058
1.0000058
1.0000058
1.0000058
1.0000058
1.0000058
1.0000058
1.0000058
1.0000059
1.0000059
1.0000059
1.0000059
1.0000059
1.0000059
1.0000058
1.0000058
1.0000058
1.0000058
1.0000059
1.0000059
1.0000059
1.0000059
1.0000059
1.0000059
1.0000059
1.0000059
1.000006
1.000006
1.0000059
1.0000059
1.000006
1.000006
1.0000059
1.000006
1.0000049
1.0000057
1.0000058
1.0000058
1.0000057
1.0000058
1.0000057
1.0000058
1.0000058
1.0000057
1.0000057
1.0000057
1.0000057
1.0000058
1.0000058
1.0000057
1.0000057
1.0000057
1.0000057
1.0000057
1.0000057
1.0000057
1.0000057
1.0000057
1.0000057
1.0000057
1.0000057
1.0000057
1.0000057
1.0000057
1.0000057
1.0000057
1.0000057
1.0000057
1.0000057
1.0000057
1.0000057
1.0000057
1.0000057
1.0000057
1.0000056
1.0000057
1.0000057
1.0000057
1.0000057
1.0000057
1.0000057
1.0000057
1.0000057
1.0000058
1.0000058
1.0000058
1.0000058
1.0000058
1.0000057
1.0000058
1.0000058
1.0000058
1.0000058
1.0000049
1.0000056
1.0000057
1.0000056
1.0000056
1.0000056
1.0000056
1.0000056
1.0000056
1.0000056
1.0000055
1.0000055
1.0000056
1.0000056
1.0000056
1.0000056
1.0000055
1.0000055
1.0000055
1.0000055
1.0000055
1.0000055
1.0000055
1.0000055
1.0000055
1.0000055
1.0000055
1.0000055
1.0000055
1.0000055
1.0000055
1.0000055
1.0000055
1.0000055
1.0000055
1.0000055
1.0000056
1.0000056
1.0000055
1.0000055
1.0000055
1.0000055
1.0000055
1.0000056
1.0000056
1.0000056
1.0000056
1.0000056
1.0000056
1.0000056
1.0000056
1.0000056
1.0000056
1.0000056
1.0000056
1.0000056
1.0000057
1.0000056
1.0000056
1.0000047
1.0000054
1.0000053
1.0000054
1.0000053
1.0000053
1.0000053
1.0000053
1.0000053
1.0000053
1.0000052
1.0000053
1.0000053
1.0000053
1.0000053
1.0000052
1.0000052
1.0000052
1.0000052
1.0000052
1.0000052
1.0000052
1.0000052
1.0000052
1.0000052
1.0000052
1.0000052
1.0000052
1.0000052
1.0000052
1.0000052
1.0000052
1.0000052
1.0000052
1.0000052
1.0000052
1.0000052
1.0000052
1.0000052
1.0000052
1.0000052
1.0000052
1.0000052
1.0000052
1.0000052
1.0000053
1.0000053
1.0000053
1.0000053
1.0000053
1.0000053
1.0000053
1.0000053
1.0000053
1.0000053
1.0000053
1.0000054
1.0000053
1.0000053
1.0000047
1.0000055
1.0000052
1.0000054
1.0000053
1.0000051
1.0000053
1.0000053
1.0000052
1.0000051
1.0000051
1.0000051
1.0000053
1.0000052
1.0000051
1.0000051
1.0000051
1.000005
1.000005
1.000005
1.000005
1.000005
1.000005
1.000005
1.000005
1.000005
1.000005
1.000005
1.000005
1.000005
1.000005
1.000005
1.000005
1.000005
1.000005
1.0000051
1.0000051
1.0000051
1.0000051
1.0000051
1.000005
1.000005
1.0000051
1.0000051
1.0000051
1.0000051
1.0000051
1.0000051
1.0000051
1.0000051
1.0000051
1.0000051
1.0000051
1.0000053
1.0000051
1.0000052
1.0000054
1.0000051
1.0000051
1.0000061
1.0000065
1.0000062
1.0000065
1.0000062
1.0000062
1.0000065
1.0000062
1.0000061
1.0000064
1.0000063
1.0000063
1.0000064
1.0000064
1.0000063
1.0000064
1.0000063
1.0000063
1.0000063
1.0000063
1.0000063
1.0000063
1.0000063
1.0000063
1.0000063
1.0000063
1.0000063
1.0000063
1.0000063
1.0000063
1.0000063
1.0000063
1.0000063
1.0000063
1.0000063
1.0000063
1.0000063
1.0000064
1.0000064
1.0000063
1.0000062
1.0000062
1.0000062
1.0000062
1.0000063
1.0000063
1.0000064
1.0000062
1.0000063
1.0000064
1.0000063
1.0000063
1.0000062
1.0000064
1.0000062
1.0000061
1.0000065
1.0000062
1.0000063
1.000005
1.0000038
1.0000044
1.0000039
1.0000044
1.0000046
1.0000042
1.0000044
1.0000046
1.0000047
1.000005
1.0000048
1.0000041
1.0000038
1.0000037
1.0000036
1.0000037
1.0000037
1.0000037
1.0000037
1.0000038
1.0000038
1.0000038
1.0000038
1.0000038
1.0000038
1.0000038
1.0000038
1.0000038
1.0000038
1.0000038
1.0000038
1.0000038
1.0000038
1.0000038
1.0000038
1.0000038
1.0000038
1.0000039
1.0000042
1.0000046
1.0000049
1.0000049
1.0000048
1.0000047
1.0000047
1.0000045
1.0000046
1.0000045
1.0000044
1.0000044
1.0000044
1.0000045
1.0000043
1.0000048
1.0000046
1.0000039
1.0000048
1.0000048
1.0000327
1.0000327
1.0000327
1.0000327
1.0000327
1.0000327
1.0000327
1.0000328
1.0000328
1.0000328
1.0000328
1.0000328
1.0000328
1.0000328
1.0000328
1.0000328
1.0000328
1.0000328
1.0000328
1.0000329
1.0000329
1.0000329
1.0000329
1.0000329
1.0000329
1.0000329
1.0000329
1.0000329
1.0000329
1.0000329
1.0000329
1.0000329
1.0000329
1.0000329
1.000033
1.000033
1.000033
1.0000329
1.0000329
1.0000329
1.0000329
1.0000329
1.000033
1.000033
1.000033
1.000033
1.000033
1.000033
1.000033
1.000033
1.000033
1.000033
1.0000329
1.0000326
1.0000321
1.0000312
1.0000295
1.0000266
1.0000227
1.00003
1.00003
1.00003
1.00003
1.00003
1.00003
1.00003
1.00003
1.0000301
1.0000301
1.0000301
1.0000301
1.0000301
1.0000301
1.0000301
1.0000301
1.0000301
1.0000301
1.0000301
1.0000301
1.0000301
1.0000301
1.0000301
1.0000301
1.0000301
1.0000301
1.0000301
1.0000301
1.0000301
1.0000301
1.0000301
1.0000302
1.0000302
1.0000302
1.0000302
1.0000302
1.0000302
1.0000302
1.0000302
1.0000302
1.0000302
1.0000302
1.0000302
1.0000302
1.0000302
1.0000302
1.0000302
1.0000302
1.0000302
1.0000303
1.0000303
1.0000302
1.0000301
1.0000299
1.0000295
1.0000286
1.000027
1.0000243
1.0000208
1.0000274
1.0000274
1.0000275
1.0000275
1.0000275
1.0000275
1.0000275
1.0000275
1.0000275
1.0000275
1.0000275
1.0000275
1.0000275
1.0000275
1.0000275
1.0000275
1.0000275
1.0000275
1.0000275
1.0000275
1.0000276
1.0000275
1.0000275
1.0000275
1.0000275
1.0000275
1.0000275
1.0000275
1.0000275
1.0000276
1.0000276
1.0000276
1.0000276
1.0000276
1.0000276
1.0000276
1.0000276
1.0000276
1.0000276
1.0000276
1.0000276
1.0000276
1.0000276
1.0000276
1.0000276
1.0000276
1.0000276
1.0000276
1.0000276
1.0000277
1.0000277
1.0000276
1.0000276
1.0000274
1.000027
1.0000262
1.0000248
1.0000223
1.000019
1.0000251
1.0000251
1.0000251
1.0000251
1.0000251
1.0000251
1.0000251
1.0000251
1.0000251
1.0000251
1.0000251
1.0000251
1.0000251
1.0000252
1.0000252
1.0000252
1.0000252
1.0000251
1.0000252
1.0000252
1.0000252
1.0000252
1.0000251
1.0000251
1.0000251
1.0000251
1.0000251
1.0000251
1.0000251
1.0000251
1.0000252
1.0000252
1.0000252
1.0000252
1.0000252
1.0000252
1.0000252
1.0000252
1.0000252
1.0000252
1.0000252
1.0000252
1.0000252
1.0000252
1.0000252
1.0000252
1.0000252
1.0000252
1.0000252
1.0000252
1.0000252
1.0000252
1.0000252
1.000025
1.0000246
1.0000239
1.0000226
1.0000203
1.0000174
1.0000229
1.0000229
1.0000229
1.0000229
1.0000229
1.0000229
1.0000229
1.0000229
1.0000229
1.0000229
1.0000229
1.0000229
1.0000229
1.0000229
1.0000229
1.0000229
1.0000229
1.0000229
1.0000229
1.0000229
1.0000229
1.0000229
1.0000229
1.0000229
1.0000229
1.0000229
1.0000229
1.0000229
1.0000229
1.0000229
1.0000229
1.0000229
1.0000229
1.000023
1.000023
1.000023
1.000023
1.000023
1.000023
1.0000229
1.0000229
1.0000229
1.0000229
1.0000229
1.0000229
1.000023
1.000023
1.000023
1.000023
1.000023
1.000023
1.000023
1.0000229
1.0000228
1.0000225
1.0000219
1.0000207
1.0000185
1.0000159
1.0000208
1.0000208
1.0000208
1.0000208
1.0000208
1.0000208
1.0000208
1.0000208
1.0000208
1.0000208
1.0000208
1.0000208
1.0000209
1.0000209
1.0000209
1.0000209
1.0000209
1.0000209
1.0000209
1.0000209
1.0000209
1.0000208
1.0000208
1.0000208
1.0000208
1.0000208
1.0000208
1.0000208
1.0000208
1.0000208
1.0000208
1.0000208
1.0000209
1.0000209
1.0000209
1.0000209
1.0000209
1.0000209
1.0000209
1.0000209
1.0000209
1.0000208
1.0000208
1.0000209
1.0000209
1.0000209
1.0000209
1.0000209
1.0000209
1.0000209
1.0000209
1.0000209
1.0000209
1.0000208
1.0000205
1.0000199
1.0000188
1.0000169
1.0000144
1.0000189
1.0000189
1.0000189
1.0000189
1.0000189
1.0000189
1.0000189
1.0000189
1.0000189
1.0000189
1.0000189
1.0000189
1.0000189
1.000019
1.000019
1.000019
1.0000189
1.0000189
1.0000189
1.0000189
1.0000189
1.0000189
1.0000189
1.0000189
1.0000189
1.0000189
1.0000189
1.0000189
1.0000189
1.0000189
1.0000189
1.0000189
1.0000189
1.000019
1.000019
1.000019
1.000019
1.000019
1.000019
1.000019
1.0000189
1.0000189
1.0000189
1.0000189
1.0000189
1.0000189
1.000019
1.000019
1.000019
1.000019
1.000019
1.000019
1.000019
1.0000189
1.0000186
1.0000181
1.0000172
1.0000154
1.0000131
1.0000172
1.0000172
1.0000172
1.0000172
1.0000172
1.0000172
1.0000172
1.0000172
1.0000172
1.0000172
1.0000172
1.0000172
1.0000172
1.0000172
1.0000172
1.0000172
1.0000172
1.0000172
1.0000172
1.0000172
1.0000172
1.0000172
1.0000171
1.0000171
1.0000171
1.0000171
1.0000171
1.0000171
1.0000171
1.0000171
1.0000171
1.0000171
1.0000172
1.0000172
1.0000172
1.0000172
1.0000172
1.0000172
1.0000172
1.0000172
1.0000172
1.0000172
1.0000172
1.0000172
1.0000172
1.0000172
1.0000172
1.0000172
1.0000172
1.0000172
1.0000172
1.0000172
1.0000172
1.0000171
1.0000169
1.0000165
1.0000156
1.000014
1.0000119
1.0000155
1.0000155
1.0000155
1.0000155
1.0000155
1.0000155
1.0000155
1.0000155
1.0000155
1.0000155
1.0000155
1.0000156
1.0000156
1.0000156
1.0000156
1.0000156
1.0000156
1.0000156
1.0000156
1.0000156
1.0000155
1.0000155
1.0000155
1.0000155
1.0000155
1.0000155
1.0000155
1.0000155
1.0000155
1.0000155
1.0000155
1.0000155
1.0000155
1.0000155
1.0000156
1.0000156
1.0000156
1.0000156
1.0000156
1.0000156
1.0000156
1.0000156
1.0000156
1.0000156
1.0000156
1.0000156
1.0000156
1.0000156
1.0000156
1.0000156
1.0000156
1.0000156
1.0000156
1.0000155
1.0000154
1.000015
1.0000142
1.0000127
1.0000108
1.0000141
1.0000141
1.0000141
1.0000141
1.0000141
1.0000141
1.0000141
1.0000141
1.0000141
1.0000141
1.0000141
1.0000141
1.0000141
1.0000141
1.0000141
1.0000141
1.0000141
1.0000141
1.0000141
1.0000141
1.0000141
1.000014
1.000014
1.000014
1.000014
1.000014
1.000014
1.000014
1.000014
1.000014
1.000014
1.000014
1.000014
1.0000141
1.0000141
1.0000141
1.0000141
1.0000141
1.0000141
1.0000141
1.0000141
1.0000141
1.0000141
1.0000141
1.0000141
1.0000141
1.0000141
1.0000141
1.0000141
1.0000141
1.0000141
1.0000141
1.0000141
1.0000141
1.0000139
1.0000136
1.0000129
1.0000116
1.0000098
1.0000127
1.0000127
1.0000127
1.0000127
1.0000127
1.0000127
1.0000127
1.0000127
1.0000127
1.0000127
1.0000127
1.0000127
1.0000127
1.0000127
1.0000127
1.0000127
1.0000127
1.0000127
1.0000127
1.0000127
1.0000127
1.0000127
1.0000127
1.0000127
1.0000127
1.0000127
1.0000127
1.0000127
1.0000127
1.0000127
1.0000127
1.0000127
1.0000127
1.0000127
1.0000127
1.0000127
1.0000127
1.0000128
1.0000128
1.0000128
1.0000128
1.0000127
1.0000127
1.0000127
1.0000127
1.0000127
1.0000127
1.0000127
1.0000127
1.0000127
1.0000127
1.0000127
1.0000127
1.0000127
1.0000126
1.0000124
1.0000118
1.0000105
1.0000089
1.0000115
1.0000115
1.0000115
1.0000115
1.0000115
1.0000115
1.0000115
1.0000115
1.0000115
1.0000115
1.0000115
1.0000115
1.0000115
1.0000115
1.0000115
1.0000115
1.0000115
1.0000115
1.0000115
1.0000115
1.0000114
1.0000114
1.0000114
1.0000114
1.0000114
1.0000114
1.0000114
1.0000114
1.0000114
1.0000114
1.0000114
1.0000114
1.0000114
1.0000114
1.0000115
1.0000115
1.0000115
1.0000115
1.0000115
1.0000115
1.0000115
1.0000115
1.0000115
1.0000115
1.0000115
1.0000115
1.0000115
1.0000115
1.0000115
1.0000115
1.0000115
1.0000115
1.0000115
1.0000115
1.0000114
1.0000112
1.0000107
1.0000096
1.0000081
1.0000104
1.0000104
1.0000104
1.0000104
1.0000104
1.0000104
1.0000104
1.0000104
1.0000104
1.0000104
1.0000103
1.0000103
1.0000103
1.0000103
1.0000103
1.0000103
1.0000103
1.0000103
1.0000103
1.0000103
1.0000103
1.0000103
1.0000103
1.0000103
1.0000103
1.0000103
1.0000103
1.0000103
1.0000103
1.0000103
1.0000103
1.0000103
1.0000103
1.0000103
1.0000103
1.0000104
1.0000104
1.0000104
1.0000104
1.0000104
1.0000104
1.0000104
1.0000104
1.0000104
1.0000104
1.0000104
1.0000104
1.0000104
1.0000103
1.0000103
1.0000104
1.0000104
1.0000104
1.0000104
1.0000104
1.0000102
1.0000097
1.0000088
1.0000074
1.0000094
1.0000094
1.0000094
1.0000094
1.0000094
1.0000094
1.0000094
1.0000094
1.0000094
1.0000094
1.0000093
1.0000093
1.0000093
1.0000093
1.0000093
1.0000093
1.0000093
1.0000093
1.0000093
1.0000093
1.0000093
1.0000093
1.0000093
1.0000093
1.0000093
1.0000093
1.0000093
1.0000093
1.0000093
1.0000093
1.0000093
1.0000093
1.0000093
1.0000093
1.0000093
1.0000093
1.0000094
1.0000094
1.0000094
1.0000094
1.0000094
1.0000094
1.0000094
1.0000094
1.0000094
1.0000094
1.0000094
1.0000094
1.0000094
1.0000093
1.0000094
1.0000094
1.0000094
1.0000094
1.0000094
1.0000093
1.0000089
1.0000081
1.0000068
1.0000249
1.0000275
1.0000304
1.0000336
1.000037
1.0000407
1.0000447
1.0000489
1.0000535
1.0000583
1.0000634
1.0000687
1.0000744
1.0000803
1.0000864
1.0000926
1.000099
1.0001054
1.0001117
1.0001179
1.0001237
1.000129
1.0001337
1.0001375
1.0001402
1.0001418
1.0001416
1.0001401
1.0001368
1.0001315
1.0001244
1.0001158
1.0001055
1.0000926
1.0000782
1.0000638
1.0000473
1.0000301
1.0000131
0.99999536
0.99997706
0.99995853
0.9999401
0.99992178
0.99990372
0.99988619
0.99986934
0.99985333
0.99983811
0.99982372
0.99980979
0.99979648
0.99978387
0.99977198
0.99976086
0.99975046
0.99974069
0.99973151
0.99972291
0.99971487
0.99970737
0.99970036
0.99969381
0.99968773
0.99968209
0.99967686
0.99967201
0.99966752
0.99966335
0.99965949
0.99965591
0.9996526
0.99964953
0.9996467
1.0000291
1.000032
1.0000353
1.0000388
1.0000426
1.0000466
1.000051
1.0000557
1.0000607
1.0000661
1.0000717
1.0000777
1.0000839
1.0000904
1.0000971
1.0001039
1.0001108
1.0001177
1.0001244
1.0001308
1.0001368
1.0001421
1.0001466
1.0001499
1.000152
1.0001525
1.0001512
1.000148
1.0001427
1.0001352
1.0001255
1.0001136
1.0000998
1.000084
1.0000663
1.0000472
1.0000268
1.0000054
0.99998344
0.99996131
0.99993916
0.9999171
0.99989532
0.99987378
0.99985309
0.999833
0.99981465
0.99979721
0.99977955
0.99976259
0.99974648
0.99973125
0.99971687
0.99970337
0.99969076
0.99967881
0.99966759
0.9996571
0.99964734
0.99963828
0.99962986
0.99962203
0.99961477
0.99960804
0.99960182
0.99959608
0.99959076
0.99958583
0.99958128
0.99957706
0.99957315
0.99956953
0.99956617
0.9995631
1.0000323
1.0000356
1.0000392
1.0000431
1.0000472
1.0000518
1.0000566
1.0000618
1.0000674
1.0000734
1.0000797
1.0000863
1.0000933
1.0001005
1.000108
1.0001156
1.0001233
1.0001309
1.0001384
1.0001455
1.0001521
1.0001579
1.0001628
1.0001663
1.0001684
1.0001686
1.0001667
1.0001627
1.0001562
1.0001471
1.0001354
1.0001212
1.0001044
1.0000854
1.0000644
1.0000416
1.0000174
0.99999199
0.9999657
0.99993896
0.99991212
0.99988539
0.99985902
0.99983317
0.99980803
0.99978367
0.99976019
0.99973771
0.99971632
0.99969604
0.99967684
0.99965871
0.99964154
0.99962562
0.99960968
0.99959461
0.99958158
0.99956967
0.99955854
0.99954812
0.99953834
0.99952948
0.99952126
0.99951355
0.99950634
0.99949961
0.99949333
0.99948749
0.99948206
0.99947701
0.99947233
0.99946799
0.99946395
0.99946019
1.0000342
1.0000377
1.0000416
1.0000458
1.0000503
1.0000552
1.0000605
1.0000662
1.0000723
1.0000787
1.0000856
1.0000928
1.0001004
1.0001084
1.0001166
1.000125
1.0001335
1.0001419
1.0001502
1.0001582
1.0001656
1.0001722
1.0001778
1.000182
1.0001845
1.0001852
1.0001835
1.0001795
1.0001728
1.0001632
1.0001508
1.0001356
1.0001175
1.0000968
1.0000739
1.0000489
1.0000222
0.99999416
0.99996504
0.99993526
0.99990521
0.99987516
0.99984538
0.99981612
0.99978761
0.99975997
0.99973321
0.99970743
0.99968279
0.99965934
0.9996371
0.99961606
0.99959616
0.99957754
0.99955962
0.99954342
0.99952803
0.9995136
0.99950011
0.99948755
0.99947584
0.99946493
0.99945478
0.99944533
0.99943666
0.99942863
0.99942118
0.99941427
0.99940787
0.99940192
0.99939641
0.9993913
0.99938658
0.99938217
1.0000352
1.000039
1.000043
1.0000475
1.0000523
1.0000574
1.000063
1.000069
1.0000755
1.0000824
1.0000897
1.0000974
1.0001055
1.000114
1.0001228
1.0001319
1.0001411
1.0001503
1.0001594
1.0001681
1.0001763
1.0001838
1.0001901
1.0001951
1.0001984
1.0001997
1.0001987
1.0001952
1.0001889
1.0001796
1.0001673
1.000152
1.0001337
1.0001127
1.0000891
1.0000633
1.0000357
1.0000065
0.99997616
0.99994499
0.99991342
0.99988174
0.99985025
0.99981921
0.99978887
0.99975937
0.99973075
0.99970313
0.99967664
0.99965137
0.99962734
0.99960454
0.99958296
0.99956261
0.99954348
0.99952555
0.99950873
0.99949297
0.9994782
0.99946441
0.99945155
0.99943954
0.99942835
0.99941794
0.99940827
0.99939929
0.99939097
0.99938303
0.99937565
0.99936886
0.9993626
0.99935686
0.99935155
0.99934673
1.0000358
1.0000397
1.0000439
1.0000484
1.0000534
1.0000588
1.0000646
1.0000709
1.0000776
1.0000848
1.0000924
1.0001005
1.000109
1.0001179
1.0001272
1.0001368
1.0001465
1.0001563
1.0001661
1.0001755
1.0001844
1.0001925
1.0001997
1.0002054
1.0002095
1.0002115
1.0002112
1.0002083
1.0002027
1.000194
1.0001822
1.0001673
1.0001494
1.0001286
1.0001052
1.0000794
1.0000518
1.0000225
0.99999188
0.99996041
0.99992846
0.99989634
0.99986433
0.99983273
0.99980178
0.99977163
0.99974235
0.99971405
0.99968686
0.99966089
0.99963615
0.99961265
0.99959039
0.99956936
0.99954958
0.999531
0.99951356
0.99949719
0.99948186
0.99946752
0.99945413
0.99944164
0.99942999
0.99941914
0.99940906
0.99939969
0.999391
0.99938294
0.99937546
0.99936853
0.99936211
0.99935617
0.99935066
0.99934558
1.0000361
1.00004
1.0000443
1.000049
1.0000541
1.0000596
1.0000656
1.000072
1.0000789
1.0000863
1.0000942
1.0001026
1.0001114
1.0001207
1.0001303
1.0001403
1.0001504
1.0001607
1.0001709
1.0001808
1.0001903
1.000199
1.0002068
1.0002131
1.0002179
1.0002205
1.0002209
1.0002187
1.0002137
1.0002056
1.0001944
1.0001801
1.0001626
1.0001423
1.0001193
1.000094
1.0000666
1.0000376
1.0000073
0.99997597
0.99994416
0.99991214
0.99988021
0.99984864
0.99981769
0.99978751
0.99975818
0.99972982
0.99970256
0.99967649
0.99965164
0.99962803
0.99960565
0.9995845
0.99956459
0.99954587
0.99952829
0.99951179
0.99949633
0.99948187
0.99946837
0.99945576
0.99944401
0.99943306
0.99942288
0.99941342
0.99940464
0.99939649
0.99938893
0.99938192
0.99937543
0.99936942
0.99936385
0.9993587
1.0000363
1.0000402
1.0000446
1.0000494
1.0000545
1.0000601
1.0000662
1.0000728
1.0000798
1.0000874
1.0000954
1.000104
1.000113
1.0001225
1.0001324
1.0001427
1.0001532
1.0001638
1.0001743
1.0001847
1.0001946
1.0002038
1.000212
1.0002188
1.0002241
1.0002273
1.0002282
1.0002266
1.0002221
1.0002145
1.0002038
1.00019
1.0001731
1.0001532
1.0001307
1.0001057
1.0000788
1.0000501
1.0000201
0.99998908
0.99995754
0.99992577
0.99989406
0.99986269
0.99983191
0.99980188
0.99977269
0.99974447
0.99971733
0.99969137
0.99966662
0.99964309
0.99962078
0.9995997
0.99957984
0.99956117
0.99954362
0.99952716
0.99951174
0.99949731
0.99948382
0.99947124
0.99945951
0.99944858
0.99943842
0.99942898
0.99942021
0.99941207
0.99940453
0.99939753
0.99939105
0.99938505
0.99937949
0.99937435
1.0000363
1.0000403
1.0000447
1.0000496
1.0000548
1.0000605
1.0000666
1.0000732
1.0000804
1.000088
1.0000962
1.0001049
1.0001141
1.0001238
1.0001339
1.0001444
1.0001551
1.000166
1.0001768
1.0001875
1.0001977
1.0002072
1.0002158
1.000223
1.0002286
1.0002323
1.0002336
1.0002324
1.0002283
1.0002212
1.0002109
1.0001975
1.0001809
1.0001615
1.0001393
1.0001147
1.000088
1.0000596
1.0000299
0.99999913
0.99996783
0.99993627
0.99990476
0.99987357
0.99984295
0.99981306
0.99978401
0.99975592
0.99972891
0.99970306
0.99967841
0.99965497
0.99963276
0.99961176
0.99959197
0.99957335
0.99955586
0.99953945
0.99952408
0.9995097
0.99949626
0.99948372
0.99947204
0.99946115
0.99945103
0.99944162
0.99943288
0.99942477
0.99941725
0.99941027
0.99940381
0.99939783
0.99939229
0.99938716
1.0000363
1.0000404
1.0000448
1.0000497
1.0000549
1.0000606
1.0000668
1.0000735
1.0000808
1.0000885
1.0000968
1.0001056
1.0001149
1.0001247
1.0001349
1.0001455
1.0001564
1.0001675
1.0001785
1.0001894
1.0001999
1.0002097
1.0002185
1.000226
1.0002319
1.0002359
1.0002375
1.0002368
1.0002329
1.000226
1.0002161
1.000203
1.0001867
1.0001675
1.0001456
1.0001212
1.0000948
1.0000666
1.000037
1.0000065
0.99997534
0.99994393
0.99991255
0.99988148
0.99985096
0.99982116
0.9997922
0.99976419
0.99973726
0.99971148
0.99968689
0.99966351
0.99964135
0.9996204
0.99960065
0.99958207
0.99956461
0.99954823
0.99953289
0.99951853
0.99950512
0.99949261
0.99948095
0.99947008
0.99945998
0.99945059
0.99944187
0.99943377
0.99942626
0.9994193
0.99941285
0.99940688
0.99940135
0.99939624
1.0000363
1.0000404
1.0000448
1.0000497
1.000055
1.0000608
1.000067
1.0000737
1.000081
1.0000888
1.0000971
1.000106
1.0001154
1.0001253
1.0001356
1.0001464
1.0001574
1.0001686
1.0001798
1.0001908
1.0002014
1.0002114
1.0002204
1.0002282
1.0002343
1.0002385
1.0002403
1.0002398
1.0002362
1.0002296
1.0002199
1.000207
1.000191
1.0001719
1.0001502
1.000126
1.0000997
1.0000717
1.0000422
1.0000118
0.99998076
0.99994944
0.99991813
0.99988712
0.99985665
0.99982689
0.99979797
0.99977001
0.99974312
0.99971737
0.99969281
0.99966945
0.99964732
0.99962639
0.99960665
0.99958808
0.99957063
0.99955426
0.99953893
0.99952458
0.99951118
0.99949868
0.99948703
0.99947618
0.99946608
0.9994567
0.99944799
0.9994399
0.9994324
0.99942544
0.999419
0.99941303
0.9994075
0.99940239
1.0000363
1.0000404
1.0000448
1.0000497
1.000055
1.0000608
1.0000671
1.0000738
1.0000811
1.000089
1.0000974
1.0001063
1.0001157
1.0001257
1.0001361
1.0001469
1.000158
1.0001693
1.0001806
1.0001918
1.0002025
1.0002127
1.0002218
1.0002297
1.000236
1.0002404
1.0002423
1.0002418
1.0002386
1.0002323
1.0002227
1.00021
1.0001941
1.0001753
1.0001537
1.0001296
1.0001034
1.0000755
1.0000461
1.0000157
0.99998475
0.99995348
0.99992221
0.99989123
0.99986078
0.99983103
0.99980213
0.99977418
0.99974729
0.99972155
0.999697
0.99967365
0.99965151
0.99963058
0.99961084
0.99959227
0.99957481
0.99955844
0.9995431
0.99952875
0.99951535
0.99950285
0.99949119
0.99948034
0.99947025
0.99946086
0.99945215
0.99944406
0.99943656
0.9994296
0.99942315
0.99941718
0.99941166
0.99940654
1.0000363
1.0000404
1.0000448
1.0000497
1.0000551
1.0000608
1.0000671
1.0000739
1.0000812
1.0000891
1.0000975
1.0001065
1.000116
1.000126
1.0001364
1.0001473
1.0001585
1.0001698
1.0001812
1.0001925
1.0002033
1.0002135
1.0002228
1.0002308
1.0002373
1.0002418
1.0002437
1.0002434
1.0002404
1.0002342
1.0002248
1.0002122
1.0001965
1.0001777
1.0001563
1.0001323
1.0001062
1.0000783
1.000049
1.0000187
0.99998777
0.99995653
0.99992529
0.99989433
0.99986388
0.99983413
0.99980522
0.99977726
0.99975037
0.99972462
0.99970005
0.99967669
0.99965454
0.9996336
0.99961385
0.99959526
0.99957779
0.9995614
0.99954606
0.9995317
0.99951829
0.99950578
0.99949412
0.99948326
0.99947316
0.99946377
0.99945506
0.99944696
0.99943946
0.99943249
0.99942605
0.99942007
0.99941454
0.99940942
1.0000363
1.0000404
1.0000448
1.0000497
1.0000551
1.0000609
1.0000671
1.0000739
1.0000813
1.0000892
1.0000976
1.0001066
1.0001161
1.0001261
1.0001367
1.0001476
1.0001588
1.0001702
1.0001816
1.0001929
1.0002039
1.0002142
1.0002235
1.0002316
1.0002382
1.0002428
1.000245
1.0002447
1.0002417
1.0002356
1.0002263
1.0002139
1.0001983
1.0001797
1.0001583
1.0001344
1.0001084
1.0000806
1.0000514
1.0000211
0.99999021
0.999959
0.99992779
0.99989684
0.99986639
0.99983662
0.99980769
0.99977972
0.99975281
0.99972704
0.99970245
0.99967908
0.99965691
0.99963595
0.99961618
0.99959757
0.99958009
0.99956369
0.99954832
0.99953395
0.99952053
0.99950801
0.99949634
0.99948547
0.99947537
0.99946597
0.99945724
0.99944914
0.99944163
0.99943466
0.99942821
0.99942223
0.99941669
0.99941157
1.0000363
1.0000404
1.0000448
1.0000497
1.0000551
1.0000609
1.0000671
1.000074
1.0000813
1.0000892
1.0000976
1.0001066
1.0001162
1.0001263
1.0001368
1.0001477
1.000159
1.0001704
1.0001819
1.0001933
1.0002042
1.0002146
1.000224
1.0002322
1.0002388
1.0002434
1.0002464
1.0002457
1.0002428
1.0002368
1.0002277
1.0002154
1.0001999
1.0001814
1.0001601
1.0001364
1.0001105
1.0000827
1.0000536
1.0000233
0.99999246
0.99996126
0.99993004
0.99989908
0.99986862
0.99983884
0.99980991
0.99978194
0.99975503
0.99972926
0.99970466
0.99968127
0.99965908
0.9996381
0.99961831
0.99959967
0.99958216
0.99956573
0.99955035
0.99953596
0.99952252
0.99950998
0.9994983
0.99948742
0.99947729
0.99946789
0.99945915
0.99945104
0.99944351
0.99943654
0.99943007
0.99942408
0.99941854
0.99941341
1.0000363
1.0000404
1.0000448
1.0000497
1.0000551
1.0000608
1.0000671
1.000074
1.0000813
1.0000892
1.0000977
1.0001067
1.0001162
1.0001263
1.0001369
1.0001478
1.0001591
1.0001706
1.0001821
1.0001935
1.0002045
1.0002149
1.0002244
1.0002326
1.0002393
1.0002441
1.0002465
1.0002465
1.0002438
1.0002379
1.0002289
1.0002168
1.0002014
1.0001831
1.000162
1.0001383
1.0001125
1.0000849
1.0000558
1.0000256
0.99999475
0.99996357
0.99993235
0.99990139
0.99987092
0.99984113
0.99981217
0.99978418
0.99975724
0.99973143
0.9997068
0.99968337
0.99966115
0.99964014
0.99962031
0.99960165
0.99958411
0.99956766
0.99955225
0.99953784
0.99952438
0.99951182
0.99950012
0.99948922
0.99947909
0.99946967
0.99946091
0.99945279
0.99944526
0.99943827
0.9994318
0.9994258
0.99942025
0.99941512
1.0000363
1.0000404
1.0000448
1.0000497
1.000055
1.0000608
1.0000671
1.0000739
1.0000813
1.0000892
1.0000977
1.0001067
1.0001162
1.0001263
1.0001369
1.0001479
1.0001592
1.0001707
1.0001822
1.0001936
1.0002046
1.0002151
1.0002246
1.0002329
1.0002397
1.0002444
1.0002478
1.0002473
1.0002446
1.0002389
1.0002301
1.0002181
1.000203
1.0001848
1.0001638
1.0001404
1.0001147
1.0000871
1.0000581
1.0000281
0.99999727
0.99996612
0.99993493
0.99990398
0.99987349
0.99984368