/*--------------------------------*- C++ -*----------------------------------*\
| =========                 |                                                 |
| \\      /  F ield         | OpenFOAM: The Open Source CFD Toolbox           |
|  \\    /   O peration     | Version:  v2006                                 |
|   \\  /    A nd           | Website:  www.openfoam.com                      |
|    \\/     M anipulation  |                                                 |
\*---------------------------------------------------------------------------*/
FoamFile
{
    version     2.0;
    format      ascii;
    class       volScalarField;
    location    "5000";
    object      TMean;
}
// * * * * * * * * * * * * * * * * * * * * * * * * * * * * * * * * * * * * * //

dimensions      [0 0 0 1 0 0 0];


internalField   nonuniform List<scalar> 
55713
(
1.0000073
1.0000086
1.0000095
1.0000098
1.0000099
1.0000099
1.0000099
1.0000099
1.0000099
1.0000099
1.0000099
1.0000099
1.0000099
1.0000099
1.0000099
1.0000099
1.0000099
1.0000099
1.0000099
1.0000099
1.0000099
1.0000099
1.0000099
1.0000099
1.0000099
1.0000099
1.0000099
1.0000099
1.0000099
1.0000099
1.0000099
1.0000099
1.0000099
1.0000099
1.0000099
1.0000099
1.0000099
1.0000099
1.0000099
1.0000099
1.0000099
1.0000099
1.0000099
1.0000099
1.0000099
1.0000099
1.0000099
1.0000099
1.0000099
1.0000099
1.0000099
1.0000099
1.0000099
1.0000099
1.0000099
1.0000099
1.0000099
1.0000099
1.0000099
1.0000069
1.0000082
1.0000089
1.0000092
1.0000093
1.0000093
1.0000093
1.0000093
1.0000092
1.0000093
1.0000093
1.0000093
1.0000093
1.0000093
1.0000093
1.0000093
1.0000093
1.0000093
1.0000092
1.0000092
1.0000092
1.0000092
1.0000092
1.0000092
1.0000092
1.0000092
1.0000092
1.0000092
1.0000092
1.0000092
1.0000092
1.0000092
1.0000092
1.0000092
1.0000092
1.0000092
1.0000092
1.0000092
1.0000093
1.0000093
1.0000093
1.0000093
1.0000093
1.0000092
1.0000093
1.0000093
1.0000093
1.0000093
1.0000093
1.0000093
1.0000093
1.0000093
1.0000093
1.0000093
1.0000093
1.0000093
1.0000093
1.0000093
1.0000093
1.0000066
1.0000078
1.0000085
1.0000087
1.0000087
1.0000087
1.0000087
1.0000087
1.0000087
1.0000087
1.0000087
1.0000087
1.0000087
1.0000087
1.0000087
1.0000087
1.0000087
1.0000087
1.0000087
1.0000087
1.0000087
1.0000087
1.0000087
1.0000087
1.0000087
1.0000087
1.0000087
1.0000086
1.0000086
1.0000086
1.0000087
1.0000087
1.0000087
1.0000087
1.0000087
1.0000087
1.0000087
1.0000087
1.0000087
1.0000087
1.0000087
1.0000087
1.0000087
1.0000087
1.0000087
1.0000087
1.0000087
1.0000087
1.0000087
1.0000087
1.0000087
1.0000087
1.0000087
1.0000087
1.0000087
1.0000087
1.0000087
1.0000087
1.0000087
1.0000063
1.0000075
1.000008
1.0000082
1.0000082
1.0000082
1.0000082
1.0000082
1.0000082
1.0000082
1.0000082
1.0000082
1.0000082
1.0000082
1.0000082
1.0000082
1.0000082
1.0000082
1.0000082
1.0000082
1.0000082
1.0000082
1.0000082
1.0000082
1.0000082
1.0000082
1.0000082
1.0000082
1.0000082
1.0000082
1.0000082
1.0000082
1.0000082
1.0000082
1.0000082
1.0000082
1.0000082
1.0000082
1.0000082
1.0000082
1.0000082
1.0000082
1.0000082
1.0000082
1.0000082
1.0000082
1.0000082
1.0000082
1.0000082
1.0000082
1.0000082
1.0000082
1.0000082
1.0000082
1.0000082
1.0000082
1.0000082
1.0000082
1.0000082
1.0000061
1.0000072
1.0000077
1.0000078
1.0000078
1.0000078
1.0000078
1.0000078
1.0000078
1.0000078
1.0000078
1.0000078
1.0000078
1.0000078
1.0000078
1.0000078
1.0000078
1.0000078
1.0000077
1.0000078
1.0000078
1.0000078
1.0000078
1.0000077
1.0000077
1.0000077
1.0000077
1.0000077
1.0000077
1.0000077
1.0000077
1.0000077
1.0000077
1.0000078
1.0000078
1.0000078
1.0000078
1.0000078
1.0000078
1.0000078
1.0000078
1.0000078
1.0000078
1.0000078
1.0000078
1.0000078
1.0000078
1.0000078
1.0000078
1.0000078
1.0000078
1.0000078
1.0000078
1.0000078
1.0000078
1.0000078
1.0000078
1.0000078
1.0000078
1.000006
1.000007
1.0000074
1.0000074
1.0000074
1.0000074
1.0000074
1.0000074
1.0000074
1.0000074
1.0000074
1.0000074
1.0000074
1.0000074
1.0000074
1.0000074
1.0000074
1.0000074
1.0000074
1.0000074
1.0000074
1.0000074
1.0000074
1.0000074
1.0000074
1.0000074
1.0000074
1.0000074
1.0000074
1.0000074
1.0000074
1.0000074
1.0000074
1.0000074
1.0000074
1.0000074
1.0000074
1.0000074
1.0000074
1.0000074
1.0000074
1.0000074
1.0000074
1.0000074
1.0000074
1.0000074
1.0000074
1.0000074
1.0000074
1.0000074
1.0000074
1.0000074
1.0000074
1.0000074
1.0000074
1.0000075
1.0000074
1.0000074
1.0000074
1.0000058
1.0000068
1.0000071
1.0000071
1.0000071
1.0000071
1.0000071
1.0000071
1.0000071
1.0000071
1.0000071
1.0000071
1.0000071
1.0000071
1.0000071
1.0000071
1.0000071
1.0000071
1.0000071
1.0000071
1.0000071
1.0000071
1.0000071
1.0000071
1.000007
1.000007
1.000007
1.000007
1.000007
1.000007
1.000007
1.000007
1.000007
1.0000071
1.0000071
1.0000071
1.0000071
1.0000071
1.0000071
1.0000071
1.0000071
1.0000071
1.0000071
1.0000071
1.0000071
1.0000071
1.0000071
1.0000071
1.0000071
1.0000071
1.0000071
1.0000071
1.0000071
1.0000071
1.0000071
1.0000071
1.0000071
1.0000071
1.0000071
1.0000057
1.0000066
1.0000068
1.0000069
1.0000068
1.0000068
1.0000068
1.0000068
1.0000068
1.0000068
1.0000068
1.0000068
1.0000068
1.0000068
1.0000068
1.0000068
1.0000068
1.0000068
1.0000068
1.0000068
1.0000068
1.0000068
1.0000068
1.0000068
1.0000068
1.0000068
1.0000068
1.0000067
1.0000067
1.0000067
1.0000068
1.0000068
1.0000068
1.0000068
1.0000068
1.0000068
1.0000068
1.0000068
1.0000068
1.0000068
1.0000068
1.0000068
1.0000068
1.0000068
1.0000068
1.0000068
1.0000068
1.0000068
1.0000068
1.0000068
1.0000068
1.0000068
1.0000068
1.0000068
1.0000068
1.0000069
1.0000069
1.0000068
1.0000068
1.0000057
1.0000065
1.0000067
1.0000067
1.0000066
1.0000066
1.0000066
1.0000066
1.0000066
1.0000066
1.0000066
1.0000066
1.0000066
1.0000066
1.0000066
1.0000066
1.0000066
1.0000066
1.0000066
1.0000066
1.0000066
1.0000066
1.0000066
1.0000066
1.0000066
1.0000065
1.0000065
1.0000065
1.0000065
1.0000065
1.0000065
1.0000066
1.0000066
1.0000066
1.0000066
1.0000066
1.0000066
1.0000066
1.0000066
1.0000066
1.0000066
1.0000066
1.0000066
1.0000066
1.0000066
1.0000066
1.0000066
1.0000066
1.0000066
1.0000066
1.0000066
1.0000066
1.0000066
1.0000066
1.0000066
1.0000067
1.0000067
1.0000066
1.0000066
1.0000057
1.0000064
1.0000065
1.0000065
1.0000064
1.0000064
1.0000064
1.0000065
1.0000065
1.0000064
1.0000064
1.0000064
1.0000065
1.0000064
1.0000064
1.0000064
1.0000064
1.0000064
1.0000064
1.0000064
1.0000064
1.0000064
1.0000064
1.0000064
1.0000064
1.0000064
1.0000064
1.0000064
1.0000064
1.0000064
1.0000064
1.0000064
1.0000064
1.0000064
1.0000064
1.0000064
1.0000064
1.0000064
1.0000064
1.0000064
1.0000064
1.0000064
1.0000064
1.0000064
1.0000064
1.0000064
1.0000064
1.0000064
1.0000065
1.0000065
1.0000065
1.0000064
1.0000065
1.0000065
1.0000064
1.0000065
1.0000065
1.0000065
1.0000065
1.0000055
1.0000062
1.0000061
1.0000062
1.0000061
1.0000061
1.0000061
1.0000062
1.0000061
1.0000061
1.0000061
1.0000061
1.0000061
1.0000061
1.0000061
1.000006
1.000006
1.000006
1.0000061
1.0000061
1.000006
1.000006
1.000006
1.000006
1.000006
1.000006
1.000006
1.000006
1.000006
1.000006
1.000006
1.000006
1.000006
1.000006
1.000006
1.000006
1.0000061
1.0000061
1.000006
1.000006
1.000006
1.000006
1.0000061
1.0000061
1.000006
1.000006
1.0000061
1.0000061
1.0000061
1.0000061
1.0000061
1.0000061
1.0000061
1.0000061
1.0000061
1.0000061
1.0000062
1.0000061
1.0000061
1.0000054
1.0000063
1.0000059
1.0000061
1.000006
1.0000059
1.0000061
1.0000061
1.0000059
1.0000059
1.0000059
1.000006
1.000006
1.0000059
1.0000059
1.0000058
1.0000059
1.0000059
1.0000059
1.0000059
1.0000059
1.0000058
1.0000058
1.0000058
1.0000058
1.0000058
1.0000058
1.0000058
1.0000058
1.0000058
1.0000058
1.0000058
1.0000058
1.0000058
1.0000058
1.0000059
1.0000059
1.0000058
1.0000059
1.0000058
1.0000058
1.0000058
1.0000059
1.0000059
1.0000058
1.0000058
1.0000059
1.0000059
1.0000059
1.0000059
1.0000059
1.0000059
1.0000058
1.000006
1.0000059
1.0000059
1.0000062
1.0000059
1.0000059
1.000007
1.0000076
1.0000071
1.0000075
1.0000071
1.0000072
1.0000075
1.0000072
1.0000072
1.0000073
1.0000073
1.0000074
1.0000073
1.0000072
1.0000072
1.0000072
1.0000073
1.0000073
1.0000073
1.0000073
1.0000073
1.0000073
1.0000073
1.0000073
1.0000073
1.0000073
1.0000073
1.0000073
1.0000073
1.0000073
1.0000073
1.0000073
1.0000073
1.0000073
1.0000073
1.0000073
1.0000073
1.0000074
1.0000073
1.0000073
1.0000073
1.0000072
1.0000072
1.0000073
1.0000073
1.0000072
1.0000073
1.0000073
1.0000073
1.0000073
1.0000073
1.0000073
1.0000072
1.0000072
1.0000073
1.0000071
1.0000075
1.0000072
1.0000072
1.0000057
1.0000045
1.000005
1.0000045
1.0000051
1.0000053
1.0000048
1.0000049
1.0000051
1.0000051
1.000005
1.0000048
1.0000047
1.0000047
1.0000048
1.0000047
1.0000047
1.0000046
1.0000044
1.0000044
1.0000044
1.0000044
1.0000044
1.0000043
1.0000043
1.0000043
1.0000043
1.0000043
1.0000043
1.0000043
1.0000043
1.0000043
1.0000043
1.0000043
1.0000043
1.0000044
1.0000044
1.0000044
1.0000046
1.0000047
1.0000048
1.0000049
1.000005
1.0000051
1.0000052
1.0000053
1.0000052
1.0000051
1.0000051
1.0000052
1.0000053
1.0000053
1.0000055
1.0000052
1.0000051
1.0000052
1.0000045
1.0000055
1.0000055
1.0000374
1.0000374
1.0000374
1.0000374
1.0000374
1.0000375
1.0000375
1.0000375
1.0000375
1.0000375
1.0000376
1.0000376
1.0000376
1.0000376
1.0000376
1.0000376
1.0000376
1.0000377
1.0000377
1.0000377
1.0000377
1.0000377
1.0000377
1.0000377
1.0000377
1.0000377
1.0000377
1.0000377
1.0000377
1.0000377
1.0000377
1.0000377
1.0000377
1.0000378
1.0000378
1.0000378
1.0000378
1.0000378
1.0000378
1.0000378
1.0000378
1.0000378
1.0000378
1.0000378
1.0000378
1.0000378
1.0000378
1.0000378
1.0000378
1.0000378
1.0000378
1.0000378
1.0000376
1.0000373
1.0000368
1.0000357
1.0000338
1.0000305
1.0000261
1.0000343
1.0000343
1.0000343
1.0000343
1.0000343
1.0000344
1.0000344
1.0000344
1.0000344
1.0000344
1.0000344
1.0000345
1.0000345
1.0000345
1.0000345
1.0000345
1.0000345
1.0000345
1.0000345
1.0000345
1.0000346
1.0000346
1.0000346
1.0000346
1.0000346
1.0000346
1.0000346
1.0000346
1.0000346
1.0000346
1.0000346
1.0000346
1.0000346
1.0000346
1.0000346
1.0000346
1.0000346
1.0000346
1.0000346
1.0000347
1.0000347
1.0000347
1.0000347
1.0000347
1.0000347
1.0000347
1.0000347
1.0000347
1.0000347
1.0000347
1.0000346
1.0000346
1.0000345
1.0000342
1.0000337
1.0000327
1.000031
1.0000279
1.0000239
1.0000314
1.0000314
1.0000314
1.0000314
1.0000314
1.0000314
1.0000315
1.0000315
1.0000315
1.0000315
1.0000315
1.0000315
1.0000315
1.0000315
1.0000316
1.0000316
1.0000316
1.0000316
1.0000316
1.0000316
1.0000316
1.0000316
1.0000316
1.0000316
1.0000316
1.0000316
1.0000316
1.0000316
1.0000316
1.0000316
1.0000316
1.0000316
1.0000316
1.0000316
1.0000316
1.0000316
1.0000317
1.0000317
1.0000317
1.0000317
1.0000317
1.0000317
1.0000317
1.0000317
1.0000317
1.0000317
1.0000317
1.0000317
1.0000317
1.0000317
1.0000317
1.0000316
1.0000315
1.0000313
1.0000309
1.00003
1.0000283
1.0000255
1.0000219
1.0000286
1.0000287
1.0000287
1.0000287
1.0000287
1.0000287
1.0000287
1.0000287
1.0000287
1.0000288
1.0000288
1.0000288
1.0000288
1.0000288
1.0000288
1.0000288
1.0000288
1.0000288
1.0000288
1.0000288
1.0000288
1.0000288
1.0000288
1.0000288
1.0000288
1.0000288
1.0000288
1.0000288
1.0000288
1.0000288
1.0000288
1.0000289
1.0000289
1.0000289
1.0000289
1.0000289
1.0000289
1.0000289
1.0000289
1.0000289
1.0000289
1.0000289
1.0000289
1.0000289
1.0000289
1.0000289
1.0000289
1.0000289
1.0000289
1.0000289
1.0000289
1.0000289
1.0000288
1.0000286
1.0000282
1.0000274
1.0000259
1.0000233
1.00002
1.0000261
1.0000261
1.0000261
1.0000262
1.0000262
1.0000262
1.0000262
1.0000262
1.0000262
1.0000262
1.0000262
1.0000262
1.0000262
1.0000263
1.0000263
1.0000263
1.0000263
1.0000263
1.0000263
1.0000263
1.0000263
1.0000263
1.0000263
1.0000263
1.0000263
1.0000263
1.0000263
1.0000263
1.0000263
1.0000263
1.0000263
1.0000263
1.0000263
1.0000263
1.0000263
1.0000263
1.0000263
1.0000263
1.0000263
1.0000263
1.0000264
1.0000264
1.0000264
1.0000264
1.0000263
1.0000263
1.0000263
1.0000263
1.0000263
1.0000263
1.0000263
1.0000263
1.0000263
1.0000261
1.0000257
1.000025
1.0000236
1.0000213
1.0000182
1.0000238
1.0000238
1.0000238
1.0000238
1.0000238
1.0000238
1.0000238
1.0000238
1.0000238
1.0000239
1.0000239
1.0000239
1.0000239
1.0000239
1.0000239
1.0000239
1.0000239
1.0000239
1.0000239
1.0000239
1.0000239
1.0000239
1.0000239
1.0000239
1.0000239
1.0000239
1.0000239
1.0000239
1.0000239
1.0000239
1.0000239
1.0000239
1.0000239
1.0000239
1.0000239
1.0000239
1.0000239
1.0000239
1.000024
1.000024
1.000024
1.000024
1.000024
1.000024
1.000024
1.000024
1.000024
1.000024
1.000024
1.000024
1.000024
1.0000239
1.0000239
1.0000238
1.0000234
1.0000228
1.0000216
1.0000194
1.0000166
1.0000216
1.0000216
1.0000216
1.0000216
1.0000216
1.0000216
1.0000217
1.0000217
1.0000217
1.0000217
1.0000217
1.0000217
1.0000217
1.0000217
1.0000217
1.0000217
1.0000217
1.0000217
1.0000217
1.0000217
1.0000217
1.0000217
1.0000217
1.0000217
1.0000217
1.0000217
1.0000217
1.0000217
1.0000217
1.0000217
1.0000217
1.0000217
1.0000217
1.0000217
1.0000217
1.0000217
1.0000217
1.0000217
1.0000218
1.0000218
1.0000218
1.0000218
1.0000218
1.0000218
1.0000218
1.0000218
1.0000218
1.0000218
1.0000218
1.0000218
1.0000218
1.0000218
1.0000217
1.0000216
1.0000213
1.0000208
1.0000196
1.0000176
1.0000151
1.0000196
1.0000196
1.0000196
1.0000196
1.0000196
1.0000196
1.0000196
1.0000196
1.0000196
1.0000197
1.0000197
1.0000197
1.0000197
1.0000197
1.0000197
1.0000197
1.0000197
1.0000197
1.0000197
1.0000197
1.0000197
1.0000197
1.0000197
1.0000197
1.0000197
1.0000197
1.0000197
1.0000197
1.0000197
1.0000197
1.0000197
1.0000197
1.0000197
1.0000197
1.0000197
1.0000197
1.0000197
1.0000197
1.0000197
1.0000197
1.0000197
1.0000197
1.0000197
1.0000197
1.0000197
1.0000197
1.0000197
1.0000197
1.0000197
1.0000197
1.0000197
1.0000197
1.0000197
1.0000196
1.0000194
1.0000189
1.0000179
1.0000161
1.0000137
1.0000178
1.0000178
1.0000178
1.0000178
1.0000178
1.0000178
1.0000178
1.0000178
1.0000178
1.0000178
1.0000178
1.0000178
1.0000178
1.0000178
1.0000178
1.0000178
1.0000178
1.0000178
1.0000178
1.0000178
1.0000179
1.0000178
1.0000178
1.0000178
1.0000178
1.0000178
1.0000178
1.0000178
1.0000178
1.0000178
1.0000178
1.0000178
1.0000178
1.0000178
1.0000178
1.0000178
1.0000178
1.0000179
1.0000179
1.0000179
1.0000179
1.0000179
1.0000179
1.0000179
1.0000179
1.0000179
1.0000179
1.0000179
1.0000179
1.0000179
1.0000179
1.0000179
1.0000179
1.0000178
1.0000176
1.0000172
1.0000163
1.0000146
1.0000125
1.0000161
1.0000161
1.0000161
1.0000161
1.0000161
1.0000161
1.0000161
1.0000161
1.0000161
1.0000161
1.0000161
1.0000161
1.0000161
1.0000161
1.0000161
1.0000161
1.0000161
1.0000161
1.0000161
1.0000161
1.0000161
1.0000161
1.0000161
1.0000161
1.0000161
1.0000161
1.0000161
1.0000161
1.0000161
1.0000161
1.0000161
1.0000161
1.0000161
1.0000161
1.0000161
1.0000161
1.0000161
1.0000161
1.0000162
1.0000162
1.0000162
1.0000162
1.0000162
1.0000162
1.0000162
1.0000162
1.0000162
1.0000162
1.0000162
1.0000162
1.0000162
1.0000162
1.0000162
1.0000161
1.000016
1.0000156
1.0000148
1.0000133
1.0000113
1.0000145
1.0000145
1.0000145
1.0000146
1.0000146
1.0000146
1.0000146
1.0000146
1.0000146
1.0000146
1.0000146
1.0000146
1.0000146
1.0000146
1.0000146
1.0000146
1.0000146
1.0000146
1.0000146
1.0000146
1.0000146
1.0000146
1.0000146
1.0000146
1.0000146
1.0000146
1.0000146
1.0000146
1.0000146
1.0000146
1.0000146
1.0000146
1.0000146
1.0000146
1.0000146
1.0000146
1.0000146
1.0000146
1.0000146
1.0000146
1.0000146
1.0000146
1.0000146
1.0000146
1.0000146
1.0000146
1.0000146
1.0000146
1.0000146
1.0000146
1.0000146
1.0000146
1.0000146
1.0000146
1.0000145
1.0000142
1.0000135
1.0000121
1.0000103
1.0000131
1.0000131
1.0000131
1.0000132
1.0000132
1.0000132
1.0000132
1.0000132
1.0000132
1.0000132
1.0000132
1.0000132
1.0000132
1.0000132
1.0000132
1.0000132
1.0000132
1.0000132
1.0000132
1.0000132
1.0000132
1.0000132
1.0000132
1.0000132
1.0000132
1.0000132
1.0000132
1.0000132
1.0000132
1.0000131
1.0000131
1.0000132
1.0000132
1.0000132
1.0000132
1.0000132
1.0000132
1.0000132
1.0000132
1.0000132
1.0000132
1.0000132
1.0000132
1.0000132
1.0000132
1.0000132
1.0000132
1.0000132
1.0000132
1.0000132
1.0000132
1.0000132
1.0000132
1.0000132
1.0000131
1.0000129
1.0000123
1.000011
1.0000093
1.0000119
1.0000119
1.0000119
1.0000119
1.0000119
1.0000119
1.0000119
1.0000119
1.0000119
1.0000119
1.0000119
1.0000119
1.0000119
1.0000119
1.0000119
1.0000119
1.0000119
1.0000119
1.0000119
1.0000119
1.0000119
1.0000119
1.0000119
1.0000119
1.0000119
1.0000119
1.0000119
1.0000119
1.0000119
1.0000119
1.0000119
1.0000119
1.0000119
1.0000119
1.0000119
1.0000119
1.0000119
1.0000119
1.0000119
1.0000119
1.0000119
1.0000119
1.0000119
1.0000119
1.0000119
1.0000119
1.0000119
1.0000119
1.0000119
1.0000119
1.0000119
1.0000119
1.0000119
1.0000119
1.0000119
1.0000117
1.0000112
1.0000101
1.0000085
1.0000108
1.0000108
1.0000108
1.0000108
1.0000108
1.0000108
1.0000108
1.0000108
1.0000108
1.0000108
1.0000108
1.0000108
1.0000108
1.0000108
1.0000108
1.0000108
1.0000108
1.0000108
1.0000108
1.0000108
1.0000108
1.0000108
1.0000107
1.0000107
1.0000108
1.0000108
1.0000107
1.0000107
1.0000107
1.0000107
1.0000107
1.0000107
1.0000107
1.0000107
1.0000107
1.0000108
1.0000108
1.0000108
1.0000108
1.0000108
1.0000108
1.0000108
1.0000108
1.0000108
1.0000108
1.0000108
1.0000108
1.0000108
1.0000108
1.0000108
1.0000108
1.0000108
1.0000108
1.0000108
1.0000108
1.0000106
1.0000102
1.0000093
1.0000078
1.0000286
1.0000316
1.000035
1.0000386
1.0000426
1.0000469
1.0000516
1.0000566
1.0000619
1.0000675
1.0000736
1.00008
1.0000868
1.0000939
1.0001014
1.0001092
1.0001172
1.0001254
1.0001337
1.000142
1.0001501
1.0001579
1.0001653
1.000172
1.0001778
1.0001826
1.0001861
1.0001882
1.0001887
1.0001875
1.0001846
1.0001799
1.0001737
1.0001657
1.0001561
1.0001453
1.0001335
1.0001205
1.000107
1.0000931
1.0000789
1.0000644
1.0000499
1.0000355
1.0000212
1.0000072
0.99999356
0.99998035
0.99996767
0.99995557
0.99994401
0.9999329
0.99992237
0.99991242
0.99990308
0.99989432
0.99988613
0.99987846
0.9998713
0.9998646
0.99985835
0.99985251
0.99984707
0.99984199
0.99983727
0.99983287
0.99982879
0.99982499
0.99982146
0.99981818
0.99981514
0.99981231
0.99980968
0.99980726
1.0000334
1.0000368
1.0000405
1.0000446
1.000049
1.0000537
1.0000588
1.0000643
1.0000702
1.0000765
1.0000832
1.0000903
1.0000978
1.0001057
1.0001139
1.0001224
1.0001311
1.0001399
1.0001488
1.0001576
1.0001661
1.0001742
1.0001817
1.0001883
1.0001938
1.0001979
1.0002005
1.0002014
1.0002004
1.0001974
1.0001923
1.0001851
1.000176
1.000165
1.0001523
1.0001382
1.0001227
1.0001063
1.0000891
1.0000714
1.0000535
1.0000355
1.0000177
1.0000002
0.99998305
0.99996644
0.99995047
0.99993537
0.99992088
0.99990698
0.99989374
0.99988116
0.99986924
0.99985799
0.99984742
0.9998375
0.9998282
0.99981946
0.99981126
0.9998036
0.99979645
0.9997898
0.9997836
0.99977785
0.99977251
0.99976755
0.99976296
0.9997587
0.99975476
0.9997511
0.99974772
0.99974459
0.99974169
0.99973904
1.000037
1.0000408
1.0000449
1.0000494
1.0000543
1.0000595
1.0000652
1.0000713
1.0000778
1.0000848
1.0000923
1.0001002
1.0001085
1.0001173
1.0001265
1.0001359
1.0001456
1.0001555
1.0001653
1.0001751
1.0001845
1.0001933
1.0002015
1.0002086
1.0002145
1.0002188
1.0002213
1.0002218
1.0002201
1.000216
1.0002095
1.0002006
1.0001893
1.0001758
1.0001603
1.000143
1.0001243
1.0001043
1.0000835
1.000062
1.0000403
1.0000184
0.99999669
0.99997531
0.99995441
0.99993412
0.99991451
0.99989568
0.99987767
0.99986053
0.99984427
0.99982888
0.99981436
0.99980071
0.99978781
0.99977556
0.99976409
0.99975347
0.99974363
0.99973449
0.999726
0.99971812
0.99971081
0.99970403
0.99969775
0.99969192
0.99968652
0.99968151
0.99967688
0.99967259
0.99966863
0.99966497
0.99966158
0.99965847
1.0000391
1.0000432
1.0000477
1.0000525
1.0000578
1.0000635
1.0000696
1.0000762
1.0000833
1.0000909
1.000099
1.0001076
1.0001168
1.0001263
1.0001364
1.0001467
1.0001574
1.0001683
1.0001792
1.0001899
1.0002004
1.0002103
1.0002194
1.0002275
1.0002342
1.0002392
1.0002423
1.0002432
1.0002417
1.0002376
1.0002309
1.0002215
1.0002094
1.0001948
1.0001779
1.0001591
1.0001385
1.0001165
1.0000933
1.0000695
1.0000451
1.0000206
0.99999608
0.99997188
0.99994815
0.99992504
0.99990267
0.99988111
0.99986042
0.99984067
0.99982188
0.99980406
0.99978721
0.99977133
0.99975637
0.99974229
0.99972909
0.99971674
0.99970521
0.99969445
0.99968441
0.99967508
0.99966642
0.99965839
0.99965095
0.99964407
0.99963769
0.99963178
0.99962632
0.99962126
0.99961659
0.99961227
0.99960828
0.99960462
1.0000403
1.0000446
1.0000493
1.0000544
1.00006
1.000066
1.0000725
1.0000795
1.000087
1.0000951
1.0001037
1.0001129
1.0001226
1.0001328
1.0001435
1.0001547
1.0001662
1.0001779
1.0001897
1.0002014
1.0002129
1.0002238
1.000234
1.0002431
1.0002508
1.0002568
1.0002608
1.0002625
1.0002617
1.0002582
1.0002519
1.0002428
1.0002309
1.0002164
1.0001994
1.0001801
1.000159
1.0001364
1.0001124
1.0000876
1.0000622
1.0000365
1.0000107
0.99998514
0.99996001
0.99993547
0.99991164
0.9998886
0.99986645
0.99984524
0.99982502
0.9998058
0.99978759
0.99977038
0.99975416
0.9997389
0.99972459
0.99971118
0.99969863
0.99968691
0.99967597
0.99966577
0.99965628
0.99964745
0.99963925
0.99963163
0.99962458
0.99961801
0.99961191
0.99960625
0.99960102
0.99959619
0.99959172
0.99958764
1.000041
1.0000454
1.0000503
1.0000555
1.0000613
1.0000675
1.0000743
1.0000815
1.0000894
1.0000978
1.0001068
1.0001164
1.0001266
1.0001373
1.0001486
1.0001604
1.0001725
1.0001849
1.0001975
1.00021
1.0002223
1.0002341
1.0002451
1.0002551
1.0002638
1.0002707
1.0002756
1.0002783
1.0002784
1.0002757
1.0002702
1.0002618
1.0002505
1.0002365
1.0002199
1.0002011
1.0001802
1.0001577
1.0001339
1.0001091
1.0000836
1.0000577
1.0000317
1.0000059
0.99998042
0.9999555
0.99993126
0.99990779
0.99988518
0.9998635
0.9998428
0.9998231
0.9998044
0.99978671
0.99977002
0.9997543
0.99973954
0.9997257
0.99971273
0.99970061
0.99968928
0.99967872
0.99966888
0.99965973
0.99965121
0.99964331
0.99963597
0.99962917
0.99962287
0.99961703
0.99961164
0.99960665
0.99960203
0.99959778
1.0000413
1.0000459
1.0000508
1.0000562
1.0000621
1.0000685
1.0000754
1.0000829
1.0000909
1.0000996
1.0001089
1.0001188
1.0001293
1.0001405
1.0001521
1.0001643
1.000177
1.0001899
1.0002031
1.0002162
1.0002291
1.0002417
1.0002534
1.0002642
1.0002736
1.0002814
1.0002871
1.0002906
1.0002915
1.0002897
1.000285
1.0002773
1.0002667
1.0002534
1.0002374
1.0002192
1.0001989
1.0001768
1.0001534
1.000129
1.0001038
1.0000782
1.0000525
1.0000269
1.0000016
0.99997683
0.9999527
0.99992932
0.99990677
0.99988514
0.99986447
0.99984477
0.99982608
0.99980837
0.99979166
0.99977592
0.99976112
0.99974723
0.99973422
0.99972205
0.99971068
0.99970008
0.99969019
0.99968099
0.99967243
0.99966448
0.9996571
0.99965025
0.99964391
0.99963803
0.9996326
0.99962757
0.99962292
0.99961864
1.0000415
1.0000461
1.0000511
1.0000566
1.0000626
1.0000691
1.0000761
1.0000837
1.000092
1.0001008
1.0001103
1.0001204
1.0001312
1.0001426
1.0001546
1.0001671
1.0001801
1.0001935
1.0002071
1.0002207
1.0002341
1.0002472
1.0002595
1.0002709
1.000281
1.0002894
1.0002958
1.0002999
1.0003015
1.0003003
1.0002963
1.0002893
1.0002794
1.0002666
1.0002513
1.0002336
1.0002138
1.0001922
1.0001693
1.0001453
1.0001205
1.0000953
1.0000699
1.0000446
1.0000196
0.99999511
0.99997122
0.99994806
0.99992572
0.99990428
0.99988377
0.99986424
0.99984568
0.99982811
0.99981151
0.99979587
0.99978117
0.99976737
0.99975444
0.99974235
0.99973104
0.99972049
0.99971066
0.99970151
0.99969299
0.99968508
0.99967774
0.99967093
0.99966461
0.99965877
0.99965336
0.99964835
0.99964373
0.99963947
1.0000416
1.0000462
1.0000513
1.0000568
1.0000629
1.0000694
1.0000766
1.0000843
1.0000926
1.0001016
1.0001112
1.0001215
1.0001325
1.0001441
1.0001563
1.0001691
1.0001824
1.000196
1.0002099
1.0002239
1.0002377
1.0002512
1.000264
1.0002758
1.0002863
1.0002952
1.0003021
1.0003068
1.0003089
1.0003083
1.0003048
1.0002983
1.0002888
1.0002766
1.0002617
1.0002444
1.0002251
1.0002039
1.0001813
1.0001577
1.0001332
1.0001083
1.0000832
1.0000582
1.0000334
1.0000091
0.99998543
0.99996245
0.99994029
0.999919
0.99989864
0.99987924
0.99986081
0.99984335
0.99982686
0.99981132
0.99979671
0.99978299
0.99977014
0.99975811
0.99974687
0.99973638
0.99972661
0.99971751
0.99970905
0.99970118
0.99969389
0.99968712
0.99968084
0.99967503
0.99966966
0.99966469
0.99966009
0.99965586
1.0000416
1.0000463
1.0000514
1.000057
1.0000631
1.0000697
1.0000769
1.0000847
1.0000931
1.0001021
1.0001119
1.0001223
1.0001334
1.0001451
1.0001575
1.0001705
1.000184
1.0001978
1.000212
1.0002262
1.0002403
1.0002541
1.0002672
1.0002793
1.0002902
1.0002995
1.0003068
1.0003118
1.0003144
1.0003141
1.000311
1.0003049
1.0002958
1.0002839
1.0002694
1.0002524
1.0002334
1.0002125
1.0001902
1.0001667
1.0001425
1.0001178
1.0000929
1.000068
1.0000434
1.0000192
0.99999566
0.9999728
0.99995074
0.99992954
0.99990927
0.99988995
0.99987159
0.9998542
0.99983777
0.99982229
0.99980773
0.99979406
0.99978125
0.99976927
0.99975807
0.99974762
0.99973788
0.99972882
0.99972038
0.99971255
0.99970528
0.99969854
0.99969229
0.9996865
0.99968115
0.9996762
0.99967162
0.99966741
1.0000417
1.0000463
1.0000514
1.000057
1.0000632
1.0000698
1.000077
1.0000849
1.0000934
1.0001025
1.0001123
1.0001228
1.000134
1.0001458
1.0001584
1.0001715
1.0001851
1.0001991
1.0002134
1.0002278
1.0002422
1.0002561
1.0002695
1.0002819
1.0002931
1.0003026
1.0003102
1.0003155
1.0003183
1.0003184
1.0003155
1.0003097
1.0003009
1.0002893
1.000275
1.0002583
1.0002394
1.0002187
1.0001966
1.0001733
1.0001492
1.0001246
1.0000998
1.000075
1.0000505
1.0000264
1.0000029
0.99998005
0.99995804
0.99993689
0.99991666
0.99989737
0.99987905
0.99986169
0.99984529
0.99982983
0.99981529
0.99980165
0.99978886
0.99977689
0.99976571
0.99975528
0.99974556
0.99973651
0.9997281
0.99972028
0.99971303
0.9997063
0.99970007
0.99969429
0.99968895
0.99968402
0.99967945
0.99967525
1.0000417
1.0000463
1.0000514
1.0000571
1.0000632
1.0000699
1.0000772
1.000085
1.0000936
1.0001027
1.0001126
1.0001232
1.0001344
1.0001463
1.0001589
1.0001721
1.0001859
1.0002
1.0002145
1.000229
1.0002435
1.0002576
1.0002711
1.0002837
1.0002951
1.0003048
1.0003126
1.0003182
1.0003212
1.0003215
1.0003189
1.0003133
1.0003047
1.0002932
1.0002791
1.0002625
1.0002438
1.0002233
1.0002012
1.000178
1.000154
1.0001295
1.0001047
1.00008
1.0000555
1.0000314
1.0000079
0.99998516
0.99996316
0.99994203
0.99992181
0.99990254
0.99988422
0.99986687
0.99985048
0.99983503
0.9998205
0.99980686
0.99979407
0.99978211
0.99977094
0.99976052
0.9997508
0.99974176
0.99973335
0.99972554
0.99971829
0.99971157
0.99970535
0.99969958
0.99969425
0.99968932
0.99968476
0.99968057
1.0000416
1.0000463
1.0000514
1.0000571
1.0000632
1.0000699
1.0000772
1.0000851
1.0000937
1.0001029
1.0001128
1.0001234
1.0001347
1.0001467
1.0001593
1.0001726
1.0001864
1.0002006
1.0002152
1.0002298
1.0002444
1.0002587
1.0002723
1.0002851
1.0002965
1.0003064
1.0003144
1.0003201
1.0003233
1.0003238
1.0003213
1.0003159
1.0003075
1.0002962
1.0002822
1.0002657
1.0002471
1.0002267
1.0002047
1.0001816
1.0001576
1.0001331
1.0001084
1.0000837
1.0000592
1.0000351
1.0000117
0.99998887
0.99996688
0.99994574
0.99992552
0.99990624
0.99988793
0.99987057
0.99985418
0.99983872
0.99982419
0.99981054
0.99979776
0.9997858
0.99977462
0.9997642
0.99975448
0.99974544
0.99973704
0.99972923
0.99972198
0.99971527
0.99970904
0.99970328
0.99969795
0.99969303
0.99968847
0.99968428
1.0000416
1.0000463
1.0000514
1.0000571
1.0000632
1.0000699
1.0000772
1.0000852
1.0000937
1.000103
1.0001129
1.0001235
1.0001349
1.0001469
1.0001596
1.0001729
1.0001868
1.0002011
1.0002157
1.0002304
1.0002451
1.0002594
1.0002731
1.000286
1.0002976
1.0003076
1.0003157
1.0003216
1.0003249
1.0003255
1.0003232
1.0003179
1.0003096
1.0002984
1.0002846
1.0002682
1.0002497
1.0002293
1.0002074
1.0001843
1.0001604
1.000136
1.0001112
1.0000865
1.0000621
1.000038
1.0000145
0.99999175
0.99996975
0.9999486
0.99992837
0.99990908
0.99989075
0.99987339
0.99985698
0.99984152
0.99982698
0.99981333
0.99980053
0.99978857
0.99977739
0.99976696
0.99975724
0.9997482
0.99973979
0.99973198
0.99972473
0.99971802
0.99971179
0.99970603
0.9997007
0.99969578
0.99969123
0.99968703
1.0000416
1.0000463
1.0000514
1.0000571
1.0000632
1.00007
1.0000773
1.0000852
1.0000938
1.000103
1.000113
1.0001236
1.000135
1.000147
1.0001598
1.0001731
1.000187
1.0002013
1.000216
1.0002308
1.0002455
1.0002599
1.0002737
1.0002866
1.0002983
1.0003084
1.0003167
1.0003227
1.0003261
1.0003268
1.0003246
1.0003195
1.0003113
1.0003003
1.0002866
1.0002703
1.0002519
1.0002316
1.0002098
1.0001867
1.0001628
1.0001384
1.0001137
1.000089
1.0000646
1.0000405
1.000017
0.99999421
0.9999722
0.99995104
0.99993079
0.99991148
0.99989314
0.99987576
0.99985934
0.99984387
0.99982931
0.99981565
0.99980284
0.99979087
0.99977968
0.99976924
0.99975952
0.99975047
0.99974206
0.99973424
0.99972699
0.99972027
0.99971404
0.99970828
0.99970295
0.99969802
0.99969347
0.99968928
1.0000416
1.0000463
1.0000514
1.0000571
1.0000632
1.00007
1.0000773
1.0000852
1.0000938
1.000103
1.000113
1.0001237
1.000135
1.0001471
1.0001599
1.0001732
1.0001872
1.0002015
1.0002162
1.000231
1.0002458
1.0002602
1.0002741
1.0002871
1.0002989
1.000309
1.0003174
1.0003235
1.0003271
1.0003279
1.0003259
1.0003209
1.0003129
1.000302
1.0002884
1.0002723
1.000254
1.0002338
1.000212
1.000189
1.0001652
1.0001408
1.0001161
1.0000914
1.000067
1.0000429
1.0000194
0.99999658
0.99997455
0.99995337
0.9999331
0.99991378
0.99989542
0.99987802
0.99986158
0.99984609
0.99983152
0.99981784
0.99980502
0.99979303
0.99978183
0.99977138
0.99976165
0.99975259
0.99974417
0.99973635
0.9997291
0.99972237
0.99971614
0.99971037
0.99970504
0.99970011
0.99969555
0.99969135
1.0000416
1.0000463
1.0000514
1.0000571
1.0000632
1.0000699
1.0000773
1.0000852
1.0000938
1.000103
1.000113
1.0001237
1.0001351
1.0001471
1.0001599
1.0001733
1.0001872
1.0002016
1.0002163
1.0002311
1.0002459
1.0002604
1.0002743
1.0002874
1.0002992
1.0003095
1.000318
1.0003242
1.0003279
1.0003289
1.0003271
1.0003222
1.0003144
1.0003037
1.0002902
1.0002743
1.0002561
1.000236
1.0002143
1.0001914
1.0001676
1.0001433
1.0001187
1.000094
1.0000695
1.0000455
1.000022
0.99999912
0.99997707
0.99995587