/*--------------------------------*- C++ -*----------------------------------*\
| =========                 |                                                 |
| \\      /  F ield         | OpenFOAM: The Open Source CFD Toolbox           |
|  \\    /   O peration     | Version:  v2006                                 |
|   \\  /    A nd           | Website:  www.openfoam.com                      |
|    \\/     M anipulation  |                                                 |
\*---------------------------------------------------------------------------*/
FoamFile
{
    version     2.0;
    format      ascii;
    class       volVectorField;
    location    "5000";
    object      U;
}
// * * * * * * * * * * * * * * * * * * * * * * * * * * * * * * * * * * * * * //

dimensions      [0 1 -1 0 0 0 0];


internalField   nonuniform List<vector> 
55713
(
(0.1032317 6.2691181e-07 0)
(0.10313757 -3.1735966e-07 0)
(0.1031202 8.4176648e-07 2.5656563e-18)
(0.10311789 6.421525e-07 -2.5522863e-18)
(0.10311909 1.4288585e-06 2.570423e-18)
(0.10312036 1.4362937e-06 5.5260118e-28)
(0.103121 1.8718543e-06 -2.6459904e-18)
(0.10312111 2.0367055e-06 0)
(0.10312102 2.3240203e-06 1.0710348e-20)
(0.10312106 2.5550566e-06 0)
(0.1031213 2.7803225e-06 -1.1107336e-20)
(0.10312145 2.9821674e-06 -1.1311818e-20)
(0.10312127 3.1762056e-06 0)
(0.10312081 3.3593056e-06 3.003074e-18)
(0.10312029 3.5424355e-06 -3.0577511e-18)
(0.1031199 3.7383347e-06 -6.0800775e-21)
(0.10311972 3.9239151e-06 3.1749549e-18)
(0.10311976 4.1308153e-06 -3.2249936e-18)
(0.10312 4.328388e-06 6.4094591e-21)
(0.10312043 4.5044464e-06 -3.3386894e-18)
(0.10312102 4.6891746e-06 3.3894553e-18)
(0.10312168 4.8658337e-06 0)
(0.1031223 5.060381e-06 0)
(0.1031228 5.2621303e-06 -1.7920225e-18)
(0.10312316 5.4488686e-06 1.8142801e-18)
(0.1031234 5.6110497e-06 0)
(0.10312354 5.7522977e-06 0)
(0.10312363 5.8932246e-06 0)
(0.10312367 6.051627e-06 2.4140878e-19)
(0.10312367 6.2230002e-06 -1.2826713e-28)
(0.10312363 6.4069989e-06 -2.4389908e-19)
(0.1031235 6.6051379e-06 0)
(0.10312329 6.7831925e-06 0)
(0.10312295 6.9490975e-06 0)
(0.10312254 7.1241367e-06 0)
(0.10312216 7.2915319e-06 1.8038027e-18)
(0.10312197 7.4570787e-06 -1.7674458e-18)
(0.10312206 7.6257149e-06 -3.4901165e-18)
(0.10312238 7.8046028e-06 2.1739031e-27)
(0.10312272 7.9921292e-06 3.3670833e-18)
(0.10312286 8.1814159e-06 0)
(0.10312272 8.3800551e-06 6.3644621e-21)
(0.10312246 8.5843387e-06 -3.2016768e-18)
(0.10312231 8.7887716e-06 3.1451928e-18)
(0.10312236 9.0017828e-06 3.0892042e-18)
(0.10312251 9.2186749e-06 -3.0397029e-18)
(0.10312255 9.4352732e-06 0)
(0.10312238 9.6524069e-06 0)
(0.10312204 9.8795827e-06 -2.8606592e-18)
(0.10312166 1.0102649e-05 2.8198508e-18)
(0.10312131 1.0356686e-05 0)
(0.10312102 1.0590169e-05 0)
(0.10312079 1.0880771e-05 0)
(0.10312052 1.1115352e-05 0)
(0.1031202 1.146078e-05 2.5870254e-18)
(0.10312 1.1698995e-05 -3.3367261e-27)
(0.10312016 1.2084387e-05 -3.7770486e-18)
(0.10312038 1.2439857e-05 1.2272494e-18)
(0.1031202 1.2564407e-05 -1.9264754e-20)
(0.10323737 1.0262944e-06 0)
(0.10315186 -2.5233698e-07 2.4224519e-18)
(0.10313841 9.8301899e-07 -2.504991e-18)
(0.10313717 6.4524321e-07 3.9160837e-20)
(0.10313859 1.2921987e-06 -2.5374509e-18)
(0.10313975 1.2527838e-06 5.1417982e-18)
(0.10314023 1.6971038e-06 6.0571238e-28)
(0.10314022 1.8707165e-06 -2.6836973e-18)
(0.10314009 2.2015578e-06 -1.0692797e-20)
(0.10314021 2.3901515e-06 2.1809269e-20)
(0.10314053 2.6043935e-06 -2.8352385e-18)
(0.1031407 2.7994391e-06 2.9130056e-18)
(0.10314047 2.9689384e-06 2.957482e-18)
(0.10313996 3.101397e-06 3.5726501e-27)
(0.10313943 3.227647e-06 4.5843274e-27)
(0.10313905 3.3350274e-06 -3.1212173e-18)
(0.10313888 3.4135147e-06 -6.2199409e-21)
(0.10313894 3.533698e-06 0)
(0.10313922 3.6761107e-06 3.293624e-18)
(0.10313969 3.8405113e-06 -6.7164649e-18)
(0.1031403 4.0136108e-06 3.4233451e-18)
(0.10314095 4.2346678e-06 1.3575686e-20)
(0.10314152 4.5259891e-06 0)
(0.10314196 4.7567442e-06 7.0186099e-21)
(0.10314226 4.8824777e-06 0)
(0.10314246 4.9376886e-06 9.1359635e-19)
(0.10314258 4.9768902e-06 -1.8859634e-18)
(0.10314264 5.0656105e-06 9.4288196e-19)
(0.10314268 5.2152776e-06 2.4316555e-19)
(0.10314267 5.4330897e-06 -2.6150705e-19)
(0.10314262 5.6675567e-06 0)
(0.1031425 5.8640587e-06 9.5143078e-19)
(0.10314228 6.041011e-06 -1.9031317e-18)
(0.10314194 6.2259029e-06 9.3657389e-19)
(0.1031415 6.3894844e-06 0)
(0.10314107 6.5027417e-06 1.8132335e-18)
(0.10314081 6.5921711e-06 -1.7903399e-18)
(0.10314088 6.6845061e-06 1.3700065e-20)
(0.10314124 6.801755e-06 0)
(0.10314169 6.942227e-06 6.6188706e-21)
(0.10314195 7.1011728e-06 3.3300687e-18)
(0.10314189 7.2883517e-06 -6.5495037e-18)
(0.10314161 7.4979793e-06 8.5120398e-28)
(0.10314137 7.7156673e-06 3.155384e-18)
(0.10314133 7.9094538e-06 -3.0977388e-18)
(0.10314142 8.0867354e-06 6.0867707e-18)
(0.10314142 8.2705043e-06 -5.9669206e-18)
(0.10314124 8.4602049e-06 2.9269225e-18)
(0.10314091 8.6776897e-06 -1.1214353e-20)
(0.10314053 8.8663391e-06 0)
(0.10314016 9.1167177e-06 0)
(0.10313985 9.3134613e-06 0)
(0.1031396 9.6152986e-06 -2.6747481e-18)
(0.10313934 9.786018e-06 2.622957e-18)
(0.10313898 1.0163502e-05 0)
(0.10313868 1.0325544e-05 3.9149761e-20)
(0.10313882 1.072799e-05 0)
(0.10313908 1.0910901e-05 1.8907905e-20)
(0.10313888 1.1292847e-05 1.8547068e-20)
(0.10324225 1.1770768e-06 0)
(0.1031658 -2.4511447e-07 3.7321874e-20)
(0.10315437 9.4411949e-07 -3.793515e-20)
(0.10315408 5.4275815e-07 -3.847192e-20)
(0.10315565 1.0566029e-06 -2.5449049e-18)
(0.10315667 1.0045129e-06 2.5789431e-18)
(0.103157 1.316116e-06 0)
(0.10315687 1.4142482e-06 2.0894275e-20)
(0.10315673 1.6667243e-06 -5.4655012e-18)
(0.10315694 1.8615369e-06 5.5382625e-18)
(0.10315737 2.0950909e-06 0)
(0.10315752 2.3347482e-06 -2.2713899e-20)
(0.10315724 2.5795612e-06 0)
(0.10315673 2.8147401e-06 3.0005636e-18)
(0.10315623 3.035846e-06 -6.1654482e-18)
(0.1031559 3.1955083e-06 3.1413484e-18)
(0.10315578 3.3027904e-06 -3.1875833e-18)
(0.10315589 3.3393261e-06 -6.0928014e-27)
(0.10315621 3.3819007e-06 3.3179788e-18)
(0.10315671 3.490777e-06 -3.3771801e-18)
(0.1031573 3.6033239e-06 -7.0899061e-27)
(0.10315789 3.736056e-06 3.4961749e-18)
(0.10315839 3.8965548e-06 0)
(0.10315876 4.1062334e-06 1.793878e-18)
(0.10315901 4.3561454e-06 1.2512378e-27)
(0.10315916 4.4948322e-06 -1.8390732e-18)
(0.10315926 4.5139248e-06 -1.4831699e-20)
(0.10315931 4.5191532e-06 4.9722585e-19)
(0.10315934 4.5457835e-06 -4.8968047e-19)
(0.10315933 4.6398571e-06 2.4769887e-19)
(0.10315928 4.7675152e-06 -2.467722e-19)
(0.10315916 4.9392873e-06 3.0373512e-20)
(0.10315895 5.1909061e-06 0)
(0.10315862 5.434869e-06 1.4711943e-20)
(0.10315816 5.6236373e-06 -1.4474563e-20)
(0.10315767 5.7565647e-06 -1.4237592e-20)
(0.10315735 5.8753522e-06 -1.40012e-20)
(0.10315737 5.9561937e-06 -1.3765508e-20)
(0.10315777 6.0300249e-06 3.4502774e-18)
(0.10315833 6.0969603e-06 -3.4038371e-18)
(0.10315871 6.1736947e-06 0)
(0.10315872 6.2773223e-06 3.2844361e-18)
(0.10315842 6.3942178e-06 -3.2123721e-18)
(0.10315808 6.5307238e-06 3.1903542e-18)
(0.10315791 6.6711582e-06 -3.1063706e-18)
(0.10315791 6.8474481e-06 -3.0233888e-18)
(0.10315789 7.0432525e-06 -5.9059649e-28)
(0.10315772 7.2277721e-06 2.9061766e-18)
(0.10315743 7.4559866e-06 2.2422642e-20)
(0.10315707 7.6116818e-06 0)
(0.10315671 7.8784281e-06 0)
(0.10315637 8.0332945e-06 0)
(0.10315611 8.3784418e-06 2.0590334e-20)
(0.10315589 8.4816059e-06 -2.0136886e-20)
(0.10315552 8.8648498e-06 0)
(0.10315513 8.9479633e-06 2.4628018e-18)
(0.10315523 9.3695736e-06 -2.406367e-18)
(0.10315555 9.4490826e-06 0)
(0.10315533 9.9281087e-06 0)
(0.1032461 1.2053869e-06 6.8434019e-20)
(0.10317713 -2.4924589e-07 -7.2491254e-20)
(0.1031684 8.2499517e-07 -2.3352984e-18)
(0.10316886 4.8383815e-07 2.419739e-18)
(0.10317046 9.2341242e-07 3.8672956e-20)
(0.10317133 9.0705334e-07 0)
(0.10317151 1.1861106e-06 -2.6014568e-18)
(0.10317128 1.2581236e-06 7.9747592e-18)
(0.10317113 1.445444e-06 -1.0912229e-17)
(0.10317147 1.5725187e-06 5.6021593e-18)
(0.10317198 1.7237543e-06 -2.8517646e-18)
(0.10317207 1.8639521e-06 2.2757525e-20)
(0.10317171 2.0162807e-06 5.9476791e-18)
(0.10317121 2.1912455e-06 -3.0107401e-18)
(0.10317079 2.3873613e-06 0)
(0.10317056 2.6081054e-06 0)
(0.10317054 2.8549679e-06 -1.2559276e-20)
(0.10317073 3.0712648e-06 0)
(0.10317109 3.2418347e-06 0)
(0.10317158 3.369334e-06 2.6527155e-20)
(0.10317212 3.4440743e-06 -1.3498931e-20)
(0.10317263 3.5114895e-06 -2.7469721e-20)
(0.10317304 3.5841364e-06 -1.7883452e-18)
(0.10317333 3.650843e-06 1.8329286e-18)
(0.10317353 3.7801341e-06 1.4446723e-20)
(0.10317366 3.9660126e-06 -1.4685287e-20)
(0.10317374 4.1116965e-06 9.7007047e-19)
(0.10317378 4.1849218e-06 -9.7043478e-19)
(0.1031738 4.1867623e-06 1.540143e-20)
(0.10317379 4.1652685e-06 -2.3361777e-19)
(0.10317374 4.178253e-06 -2.4811828e-19)
(0.10317363 4.238826e-06 4.7329183e-19)
(0.10317344 4.3372877e-06 0)
(0.10317311 4.485583e-06 -1.907456e-18)
(0.10317264 4.698308e-06 1.4546241e-20)
(0.10317212 4.9209617e-06 3.6910696e-18)
(0.10317172 5.1232564e-06 -1.7865478e-18)
(0.10317169 5.2877866e-06 0)
(0.1031721 5.429764e-06 1.3590786e-20)
(0.10317276 5.5338821e-06 0)
(0.10317327 5.6149308e-06 0)
(0.10317335 5.6883867e-06 2.575866e-20)
(0.10317302 5.756789e-06 -1.2642523e-20)
(0.10317255 5.7950779e-06 -3.200614e-18)
(0.10317225 5.8545356e-06 3.1150054e-18)
(0.10317218 5.9225651e-06 -3.3196589e-26)
(0.10317215 6.0411694e-06 2.3381437e-20)
(0.10317201 6.1548395e-06 3.1832722e-26)
(0.10317177 6.3367855e-06 -2.241799e-20)
(0.10317146 6.4529922e-06 -5.5926068e-18)
(0.10317111 6.7149928e-06 5.4891401e-18)
(0.10317077 6.8220104e-06 4.1895983e-20)
(0.10317049 7.1250504e-06 -2.6584144e-18)
(0.10317029 7.2391287e-06 5.10599e-18)
(0.10316995 7.5966074e-06 -5.0142096e-18)
(0.10316945 7.7060824e-06 2.4213776e-18)
(0.10316952 8.1269537e-06 -7.3558198e-20)
(0.10316992 8.1616437e-06 0)
(0.10316968 8.7556391e-06 0)
(0.10324904 1.0967206e-06 -6.613892e-20)
(0.10318747 -2.0147835e-07 7.0440438e-20)
(0.10318066 6.9637735e-07 -2.3191044e-18)
(0.10318173 4.6115193e-07 2.3045578e-18)
(0.10318332 8.4715224e-07 -2.4453252e-18)
(0.10318401 9.0461745e-07 2.5554214e-18)
(0.10318406 1.1995435e-06 2.5463496e-18)
(0.10318373 1.3091019e-06 -2.6558483e-18)
(0.10318362 1.4729062e-06 5.4039683e-18)
(0.10318413 1.5586347e-06 -1.1113653e-17)
(0.10318466 1.6510632e-06 5.7085611e-18)
(0.1031846 1.728207e-06 -2.2799865e-20)
(0.10318416 1.8129132e-06 -2.9817417e-18)
(0.1031837 1.8998073e-06 6.088916e-18)
(0.10318341 1.9842694e-06 -3.1066384e-18)
(0.10318333 2.0938701e-06 -3.1683863e-18)
(0.10318344 2.2284292e-06 2.523285e-20)
(0.10318372 2.3901009e-06 3.2652867e-18)
(0.10318411 2.561537e-06 -2.6187846e-20)
(0.10318457 2.7160281e-06 -5.3328675e-20)
(0.10318503 2.8309161e-06 1.3570463e-20)
(0.10318544 2.9217413e-06 1.3809058e-20)
(0.10318575 3.0086743e-06 0)
(0.10318598 3.110783e-06 -1.8288481e-18)
(0.10318613 3.2247503e-06 -1.4528291e-20)
(0.10318624 3.3561871e-06 1.9052424e-18)
(0.10318631 3.5119213e-06 0)
(0.10318635 3.6555399e-06 0)
(0.10318636 3.7606909e-06 -3.0987939e-20)
(0.10318635 3.825124e-06 2.3492884e-19)
(0.10318631 3.8379953e-06 -2.4938073e-19)
(0.10318621 3.8165773e-06 0)
(0.10318603 3.8143035e-06 0)
(0.10318572 3.8493319e-06 -1.9016448e-18)
(0.10318526 3.9157564e-06 3.7411383e-18)
(0.1031847 4.0176168e-06 -1.8539411e-18)
(0.10318423 4.1515448e-06 -1.7803898e-18)
(0.10318411 4.3098413e-06 1.777803e-18)
(0.10318451 4.4851098e-06 0)
(0.10318524 4.6453636e-06 0)
(0.10318588 4.7955758e-06 -3.3973266e-18)
(0.10318603 4.9059644e-06 3.2835719e-18)
(0.10318566 5.0317649e-06 2.537284e-20)
(0.10318507 5.1223445e-06 -3.1857899e-18)
(0.10318463 5.2282095e-06 6.2226325e-18)
(0.1031845 5.2869206e-06 -3.0847155e-18)
(0.1031845 5.40462e-06 -3.0209669e-18)
(0.1031844 5.4840391e-06 5.8672903e-18)
(0.10318423 5.6409979e-06 -2.8689722e-18)
(0.10318399 5.716918e-06 -6.5704862e-20)
(0.10318368 5.9064332e-06 0)
(0.10318333 5.9826342e-06 -4.1703017e-20)
(0.10318301 6.2006767e-06 2.5997885e-18)
(0.10318285 6.2910102e-06 -5.057918e-18)
(0.10318258 6.5536196e-06 2.5329753e-18)
(0.10318196 6.654753e-06 3.7206108e-20)
(0.10318197 7.0111205e-06 1.4396039e-19)
(0.10318246 7.0315769e-06 6.9439061e-20)
(0.10318222 7.6663886e-06 6.66023e-20)
(0.10325108 9.0507216e-07 -1.0235459e-18)
(0.10319607 -1.2238228e-07 -1.0957624e-18)
(0.10319134 5.5868978e-07 2.338955e-18)
(0.10319286 4.4994319e-07 -2.2666279e-18)
(0.10319438 7.6637131e-07 -6.1433389e-27)
(0.10319488 8.4541213e-07 2.456179e-18)
(0.10319483 1.0787088e-06 4.018932e-20)
(0.10319441 1.1895933e-06 5.2928827e-18)
(0.10319436 1.3589365e-06 4.247461e-20)
(0.1031951 1.4892868e-06 -5.6202355e-18)
(0.10319557 1.6227059e-06 5.6687129e-18)
(0.10319527 1.722728e-06 -5.8244661e-18)
(0.10319474 1.8049982e-06 -2.9894464e-18)
(0.10319438 1.858472e-06 3.0542147e-18)
(0.10319426 1.8674677e-06 2.4360298e-20)
(0.10319436 1.8858899e-06 0)
(0.10319462 1.9274818e-06 -2.5343335e-20)
(0.10319498 1.987506e-06 3.331979e-18)
(0.10319538 2.0764237e-06 -6.7097926e-18)
(0.10319578 2.1666395e-06 2.350068e-26)
(0.10319614 2.2590399e-06 2.7276533e-20)
(0.10319644 2.3465179e-06 3.5530377e-18)
(0.10319667 2.429352e-06 -1.8073811e-18)
(0.10319685 2.5238652e-06 1.8383143e-18)
(0.10319697 2.6291808e-06 1.8693357e-18)
(0.10319706 2.7433602e-06 -1.9152967e-18)
(0.10319711 2.8787539e-06 9.6582249e-19)
(0.10319715 3.0143706e-06 -9.8144678e-19)
(0.10319716 3.1517533e-06 -2.336889e-19)
(0.10319716 3.278126e-06 1.5742418e-20)
(0.10319712 3.3796088e-06 2.5054245e-19)
(0.10319704 3.4472079e-06 0)
(0.10319688 3.4748499e-06 -1.5166946e-20)
(0.1031966 3.4764423e-06 0)
(0.10319616 3.470498e-06 -1.4676518e-20)
(0.10319558 3.4897004e-06 -1.8473417e-18)
(0.10319504 3.5409256e-06 -2.8377753e-20)
(0.10319481 3.5994009e-06 5.3552256e-18)
(0.10319515 3.6885462e-06 -7.0160474e-18)
(0.10319594 3.7764144e-06 -2.6921051e-20)
(0.10319668 3.8955532e-06 6.8202438e-18)
(0.10319689 3.9963254e-06 -3.3213012e-18)
(0.10319649 4.1577936e-06 3.2077088e-18)
(0.10319578 4.2616019e-06 -3.2204899e-18)
(0.10319518 4.4009978e-06 2.4467657e-20)
(0.103195 4.4893417e-06 0)
(0.10319508 4.6326199e-06 0)
(0.10319506 4.7257421e-06 4.5874334e-20)
(0.10319496 4.8613693e-06 5.7369756e-18)
(0.10319479 4.933977e-06 -5.5555134e-18)
(0.10319453 5.0831972e-06 -4.2643039e-20)
(0.10319419 5.1692888e-06 2.6568263e-18)
(0.10319383 5.34086e-06 -5.1243499e-18)
(0.10319366 5.4346975e-06 -3.8192264e-27)
(0.10319352 5.6376905e-06 2.3875985e-18)
(0.10319277 5.7313442e-06 -7.6640602e-26)
(0.1031927 6.0198573e-06 -2.2547635e-18)
(0.1031933 6.0548107e-06 2.0947726e-18)
(0.10319306 6.6127643e-06 -6.4372469e-20)
(0.10325258 6.7884974e-07 0)
(0.10320392 -4.4056617e-08 6.6620124e-20)
(0.10320084 4.2273242e-07 -6.4940358e-26)
(0.10320267 3.9914109e-07 0)
(0.10320407 6.0412319e-07 -2.463069e-18)
(0.10320439 6.9207604e-07 2.5131439e-18)
(0.10320427 8.2848785e-07 0)
(0.10320373 9.0766532e-07 4.120242e-20)
(0.10320381 1.0243436e-06 0)
(0.10320482 1.1410591e-06 5.6180149e-18)
(0.10320505 1.2648154e-06 -5.6731644e-18)
(0.1032045 1.3845299e-06 2.9287361e-18)
(0.103204 1.5011966e-06 2.6291397e-27)
(0.1032038 1.6134814e-06 -3.0636689e-18)
(0.10320385 1.7141928e-06 -3.1536669e-18)
(0.1032041 1.7994147e-06 3.1937681e-18)
(0.10320448 1.8432591e-06 0)
(0.10320489 1.8640865e-06 2.5942232e-20)
(0.10320528 1.8877662e-06 -2.6431519e-20)
(0.1032056 1.9324471e-06 2.5400437e-26)
(0.10320587 1.9940226e-06 -2.7403587e-20)
(0.10320609 2.0574442e-06 0)
(0.10320626 2.1067657e-06 0)
(0.10320639 2.151556e-06 0)
(0.10320649 2.2052159e-06 0)
(0.10320656 2.2617526e-06 0)
(0.10320661 2.3336503e-06 -9.5530277e-19)
(0.10320665 2.4240217e-06 5.085188e-19)
(0.10320666 2.5201422e-06 5.0099675e-19)
(0.10320665 2.6307671e-06 2.3722359e-19)
(0.10320662 2.7479521e-06 -7.5476454e-19)
(0.10320655 2.8639254e-06 5.1069762e-19)
(0.10320642 2.9750455e-06 1.5227525e-20)
(0.10320617 3.0580459e-06 0)
(0.10320577 3.121164e-06 1.4733565e-20)
(0.1032052 3.1439381e-06 0)
(0.10320459 3.1696664e-06 0)
(0.10320425 3.17975e-06 3.6116417e-18)
(0.10320449 3.2284113e-06 -7.0147207e-18)
(0.10320531 3.2662052e-06 6.9440527e-18)
(0.10320614 3.3582148e-06 -6.8445369e-18)
(0.10320642 3.4233954e-06 6.6653126e-18)
(0.10320601 3.5216047e-06 -3.2435796e-18)
(0.10320518 3.5860722e-06 2.5038757e-20)
(0.1032044 3.685144e-06 3.1645221e-18)
(0.10320415 3.7585525e-06 -3.0740153e-18)
(0.10320436 3.8703833e-06 2.3490914e-20)
(0.10320443 3.9455353e-06 -2.2955138e-20)
(0.10320438 4.0566513e-06 5.7360676e-18)
(0.10320429 4.137404e-06 -1.1139994e-17)
(0.10320408 4.2675296e-06 5.4857774e-18)
(0.10320377 4.3602765e-06 4.1325558e-20)
(0.10320336 4.5038981e-06 0)
(0.10320314 4.6083148e-06 -2.5210199e-18)
(0.10320318 4.7750706e-06 2.3954782e-18)
(0.10320229 4.8906758e-06 -7.2009987e-20)
(0.10320211 5.1224845e-06 2.1389646e-18)
(0.10320283 5.188232e-06 -2.0396755e-18)
(0.1032026 5.6513705e-06 1.2454536e-19)
(0.10325356 3.8969716e-07 0)
(0.10321054 2.8003779e-08 -2.2044991e-18)
(0.10320917 2.9810829e-07 -6.7876e-20)
(0.10321112 3.9286192e-07 4.6016347e-18)
(0.10321239 5.0790552e-07 7.3777382e-20)
(0.10321255 6.0018894e-07 -4.9846614e-18)
(0.10321236 6.9020276e-07 2.5428136e-18)
(0.10321169 7.5784872e-07 5.1726815e-18)
(0.10321202 8.2383014e-07 -5.3742397e-18)
(0.10321332 9.0398881e-07 -2.9317918e-26)
(0.10321301 9.7166919e-07 4.4703081e-20)
(0.10321242 1.0617883e-06 -2.2918823e-20)
(0.10321212 1.1480885e-06 0)
(0.10321214 1.2596516e-06 2.4006121e-20)
(0.10321226 1.3831848e-06 3.1644283e-18)
(0.10321257 1.5104014e-06 -3.2057015e-18)
(0.10321301 1.6135695e-06 3.2448793e-18)
(0.10321344 1.6920282e-06 -3.3342996e-18)
(0.10321378 1.7421419e-06 1.7939312e-26)
(0.10321405 1.7952499e-06 -3.4332213e-18)
(0.10321425 1.846313e-06 7.0178756e-18)
(0.10321441 1.9003772e-06 -3.5850003e-18)
(0.10321454 1.9352864e-06 0)
(0.10321465 1.9492744e-06 1.4491015e-20)
(0.10321474 1.9506439e-06 -1.9008861e-18)
(0.10321481 1.9580214e-06 1.9025968e-18)
(0.10321485 1.9823433e-06 -1.5227698e-20)
(0.10321489 2.0213197e-06 4.7973504e-19)
(0.1032149 2.0720872e-06 -5.0315911e-19)
(0.10321489 2.1252449e-06 1.5878216e-20)
(0.10321487 2.1976855e-06 5.0498965e-19)
(0.10321481 2.2805038e-06 -5.1249434e-19)
(0.1032147 2.3772467e-06 -1.5280185e-20)
(0.10321449 2.4736423e-06 0)
(0.10321414 2.5651539e-06 0)
(0.10321359 2.6173577e-06 -1.8752925e-18)
(0.10321295 2.6727715e-06 1.8293038e-18)
(0.10321247 2.7113242e-06 -2.8092423e-20)
(0.10321259 2.7688881e-06 -2.7601984e-20)
(0.10321341 2.8183197e-06 0)
(0.10321433 2.8816986e-06 2.661675e-20)
(0.1032147 2.9292946e-06 -3.3171841e-18)
(0.10321432 2.9978389e-06 3.25342e-18)
(0.10321344 3.0482824e-06 -3.2139358e-18)
(0.10321245 3.1279755e-06 3.1231805e-18)
(0.10321203 3.1851e-06 2.4064831e-20)
(0.10321242 3.2657511e-06 -2.352554e-20)
(0.1032126 3.3320058e-06 0)
(0.10321258 3.4240601e-06 0)
(0.10321256 3.500888e-06 -4.3627983e-20)
(0.10321241 3.6068014e-06 0)
(0.10321215 3.6913041e-06 -4.1139753e-20)
(0.10321171 3.8114438e-06 0)
(0.10321135 3.907288e-06 2.5363149e-18)
(0.10321163 4.0332661e-06 -2.2921484e-18)
(0.10321063 4.1627083e-06 7.0859036e-20)
(0.10321027 4.3177928e-06 -2.1628445e-18)
(0.10321115 4.4094886e-06 3.0768359e-18)
(0.10321094 4.7303829e-06 -1.0852718e-18)
(0.10325257 1.4779009e-07 1.1629372e-19)
(0.10321465 7.7950218e-08 -2.0203671e-18)
(0.10321526 1.6550534e-07 -2.4805007e-27)
(0.10321705 3.1462716e-07 2.1604693e-18)
(0.10321823 3.5293986e-07 0)
(0.1032183 5.0317122e-07 3.802606e-20)
(0.10321795 5.4281659e-07 -3.9502834e-20)
(0.10321717 6.552425e-07 5.276504e-18)
(0.10321794 6.8390013e-07 -1.0812428e-17)
(0.10321941 7.8873228e-07 -4.3510282e-20)
(0.10321813 8.1951425e-07 5.6811712e-18)
(0.10321809 8.7901367e-07 2.9612588e-18)
(0.10321816 9.2475509e-07 -3.0110666e-18)
(0.10321838 9.9647307e-07 -2.407483e-20)
(0.10321832 1.0473287e-06 -2.4610663e-20)
(0.10321859 1.1232769e-06 0)
(0.10321905 1.1863395e-06 2.5646126e-20)
(0.10321948 1.254827e-06 -2.6149977e-20)
(0.10321978 1.3027261e-06 2.664715e-20)
(0.10321999 1.3672208e-06 0)
(0.10322015 1.4314674e-06 3.5640675e-18)
(0.10322029 1.519362e-06 -5.3982147e-18)
(0.1032204 1.5826899e-06 1.8162626e-18)
(0.1032205 1.6407114e-06 1.847225e-18)
(0.10322058 1.6744807e-06 -1.8635039e-18)
(0.10322065 1.6994543e-06 -9.4723812e-19)
(0.10322069 1.7110546e-06 9.7809394e-19)
(0.10322073 1.7345315e-06 0)
(0.10322074 1.7618851e-06 -2.524985e-19)
(0.10322074 1.7750595e-06 2.5489585e-19)
(0.10322072 1.8101104e-06 4.9064072e-19)
(0.10322067 1.8489516e-06 -1.5107318e-18)
(0.10322058 1.9035618e-06 9.960184e-19)
(0.10322041 1.9721132e-06 1.5073707e-20)
(0.1032201 2.0343457e-06 -1.9125e-18)
(0.1032196 2.0890154e-06 1.8806614e-18)
(0.10321892 2.1368051e-06 0)
(0.10321832 2.1789743e-06 -3.6064181e-18)
(0.10321826 2.2284587e-06 3.5435764e-18)
(0.1032191 2.2705007e-06 0)
(0.10322006 2.3234383e-06 0)
(0.10322056 2.370182e-06 -2.6195711e-20)
(0.10322027 2.4213572e-06 2.5689113e-20)
(0.10321943 2.4775042e-06 0)
(0.10321826 2.5200312e-06 0)
(0.10321752 2.5878679e-06 -2.4110945e-20)
(0.1032181 2.6306997e-06 0)
(0.10321841 2.7022288e-06 0)
(0.1032184 2.7636352e-06 5.7336559e-18)
(0.10321842 2.83431e-06 -5.576703e-18)
(0.10321832 2.9128873e-06 0)
(0.10321814 2.9961284e-06 4.0954158e-20)
(0.10321772 3.0828627e-06 -3.9552688e-20)
(0.10321711 3.1770679e-06 -2.4750446e-18)
(0.10321761 3.2867727e-06 2.2642082e-18)
(0.10321662 3.3921448e-06 -6.9737638e-20)
(0.10321595 3.5336995e-06 2.0530414e-18)
(0.10321708 3.6093723e-06 -2.1243446e-18)
(0.1032169 3.8502861e-06 0)
(0.1032506 -9.7342217e-08 -1.1280867e-19)
(0.10321825 2.0430618e-07 2.0297862e-18)
(0.10322101 -5.7423365e-09 -2.0835709e-18)
(0.1032221 4.7946682e-07 -6.8626715e-20)
(0.10322331 2.8672845e-07 3.6054423e-20)
(0.10322361 4.4283076e-07 0)
(0.10322264 4.6570554e-07 3.9275076e-20)
(0.10322192 5.5197195e-07 0)
(0.10322355 6.2491796e-07 5.3535775e-18)
(0.10322461 7.0470831e-07 7.1766636e-27)
(0.10322205 7.3418004e-07 -5.7519016e-18)
(0.10322335 7.8808447e-07 2.2990446e-20)
(0.10322386 8.1234288e-07 0)
(0.10322418 8.7454412e-07 0)
(0.10322363 8.8415962e-07 3.1599142e-18)
(0.10322391 9.4160336e-07 -3.2530787e-18)
(0.10322444 9.5658621e-07 0)
(0.10322487 1.0013672e-06 -1.3121344e-20)
(0.10322513 1.0148139e-06 0)
(0.1032253 1.0629945e-06 0)
(0.10322544 1.0897634e-06 0)
(0.10322556 1.1525012e-06 -1.8053481e-18)
(0.10322565 1.1909583e-06 1.8507456e-18)
(0.10322574 1.2721669e-06 0)
(0.10322581 1.3390863e-06 -1.4833603e-20)
(0.10322587 1.4033916e-06 0)
(0.10322591 1.4498688e-06 -1.532576e-20)
(0.10322594 1.4920618e-06 -5.1396103e-19)
(0.10322595 1.512431e-06 5.064054e-19)
(0.10322594 1.5287134e-06 -1.597174e-20)
(0.10322592 1.5365909e-06 5.3935223e-19)
(0.10322589 1.5548112e-06 -1.4985135e-18)
(0.1032258 1.5860062e-06 9.6753508e-19)
(0.10322566 1.6217338e-06 -3.0215836e-20)
(0.10322539 1.6713639e-06 1.6227058e-26)
(0.10322492 1.7163943e-06 0)
(0.10322421 1.757748e-06 0)
(0.10322345 1.8076339e-06 0)
(0.10322322 1.8433336e-06 1.3879013e-20)
(0.10322408 1.8944442e-06 -3.4900444e-18)
(0.103225 1.937684e-06 6.8664928e-18)
(0.10322568 1.9840264e-06 4.8320414e-27)
(0.10322553 2.0351671e-06 -6.5941109e-18)
(0.10322483 2.0858063e-06 3.2557321e-18)
(0.10322352 2.129028e-06 0)
(0.10322234 2.193617e-06 0)
(0.10322308 2.2245293e-06 0)
(0.10322354 2.3037898e-06 5.8891618e-18)
(0.1032235 2.3480996e-06 -5.7552578e-18)
(0.10322351 2.4128525e-06 2.1756579e-20)
(0.10322346 2.4839073e-06 -4.2177903e-20)
(0.10322336 2.5326654e-06 -4.4589649e-26)
(0.10322304 2.6238058e-06 4.2985109e-26)
(0.10322212 2.7017817e-06 -3.7736142e-20)
(0.10322246 2.7650864e-06 3.6082347e-20)
(0.10322196 2.8475029e-06 0)
(0.10322051 2.8708915e-06 7.1121225e-26)
(0.10322225 3.0937333e-06 6.0937984e-20)
(0.10322209 3.0847802e-06 0)
(0.10325495 -7.073001e-07 9.3072981e-19)
(0.10322758 8.0609482e-07 -9.5921335e-19)
(0.10323231 -3.4898834e-07 0)
(0.10323092 1.9365864e-07 6.7595074e-20)
(0.10323248 -5.6926027e-09 -3.564835e-20)
(0.10323439 1.6314354e-07 2.4308885e-18)
(0.10323104 1.6969572e-07 -2.5381172e-18)
(0.10323118 1.5980603e-07 5.1971501e-18)
(0.10323486 2.3653864e-07 1.4069542e-26)
(0.10323345 2.8359544e-07 -5.563368e-18)
(0.1032309 3.2567849e-07 -5.6879903e-18)
(0.10323291 3.5377021e-07 5.8710389e-18)
(0.10323488 4.0525293e-07 0)
(0.10323489 4.596715e-07 0)
(0.10323388 5.1304676e-07 3.1691426e-18)
(0.10323433 5.5644184e-07 -3.1999984e-18)
(0.1032351 6.0154238e-07 -1.2909157e-20)
(0.10323559 6.7117702e-07 1.330154e-26)
(0.10323583 7.2411656e-07 0)
(0.10323599 7.8998026e-07 1.365882e-20)
(0.10323613 8.3516417e-07 -3.5588594e-18)
(0.10323625 9.1558071e-07 3.6065137e-18)
(0.10323634 9.5918641e-07 1.8411515e-18)
(0.10323643 1.0337535e-06 -1.872011e-18)
(0.1032365 1.0657732e-06 0)
(0.10323655 1.1358046e-06 0)
(0.1032366 1.2178914e-06 -9.5212839e-19)
(0.10323663 1.3302849e-06 1.0143372e-18)
(0.10323665 1.4043443e-06 0)
(0.10323665 1.4774147e-06 1.5998738e-20)
(0.10323664 1.503509e-06 -1.5885803e-20)
(0.1032366 1.5538109e-06 1.5631434e-20)
(0.10323653 1.564513e-06 9.84301e-19)
(0.1032364 1.6270366e-06 9.8348886e-19)
(0.10323616 1.6539368e-06 1.4883864e-20)
(0.10323569 1.7324704e-06 -1.8884313e-18)
(0.1032349 1.769152e-06 -1.82822e-18)
(0.10323394 1.7909826e-06 -1.8115032e-18)
(0.10323367 1.853982e-06 3.5467713e-18)
(0.10323445 1.8371453e-06 1.3664062e-20)
(0.10323534 1.9243122e-06 -2.683348e-20)
(0.1032362 1.925708e-06 1.3165809e-20)
(0.10323637 1.9779038e-06 -1.2910064e-20)
(0.10323577 2.018698e-06 -2.5296483e-20)
(0.10323409 2.0371766e-06 -1.237886e-20)
(0.10323284 2.1319987e-06 -2.4200699e-20)
(0.10323356 2.1040346e-06 0)
(0.10323426 2.2062011e-06 0)
(0.10323429 2.2230574e-06 -5.7093781e-18)
(0.10323406 2.278654e-06 -4.3457311e-20)
(0.10323409 2.3536982e-06 5.4264764e-18)
(0.10323423 2.3786774e-06 -4.0597547e-20)
(0.10323392 2.50901e-06 3.9045246e-20)
(0.10323297 2.5245293e-06 2.4310431e-18)
(0.10323142 2.5982655e-06 -2.3176157e-18)
(0.10323319 2.738851e-06 -2.1632147e-18)
(0.10322943 2.4593061e-06 4.1379059e-18)
(0.10323319 3.2933754e-06 -8.9197682e-19)
(0.10323311 2.3436691e-06 -8.2476981e-19)
(0.10325176 -1.7726337e-06 -1.063469e-19)
(0.10322437 8.669417e-07 5.84561e-20)
(0.10323816 1.2752978e-07 3.1277758e-20)
(0.10322859 7.3222375e-07 0)
(0.10323322 6.0101963e-07 0)
(0.10324009 8.7586034e-07 2.3358647e-18)
(0.10322797 7.8838977e-07 -2.464438e-18)
(0.10323154 7.9372414e-07 5.1962024e-18)
(0.10324123 8.4872521e-07 -5.3512616e-18)
(0.10323383 8.6926576e-07 5.5580341e-18)
(0.10323555 8.3287891e-07 -5.7784516e-18)
(0.10323479 8.0745783e-07 -5.9000309e-18)
(0.10324098 8.2797246e-07 3.029052e-18)
(0.10323892 8.0922796e-07 6.221334e-18)
(0.103239 7.7352488e-07 -3.1769715e-18)
(0.10323883 7.4190687e-07 5.6652031e-26)
(0.10324041 7.0095471e-07 1.294465e-20)
(0.10324112 6.9671543e-07 -3.3527799e-18)
(0.10324149 6.1952694e-07 6.8859884e-18)
(0.10324167 6.1852911e-07 -3.5330291e-18)
(0.10324186 5.511837e-07 0)
(0.103242 5.1232737e-07 1.4175047e-20)
(0.10324212 4.429175e-07 0)
(0.10324223 4.0331602e-07 7.3265748e-21)
(0.10324233 3.5839982e-07 -7.4467797e-21)
(0.10324241 3.4573129e-07 0)
(0.10324248 2.9903922e-07 -2.3071464e-20)
(0.10324254 2.7372807e-07 0)
(0.10324258 2.3533473e-07 0)
(0.10324262 2.1130463e-07 0)
(0.10324262 1.7615937e-07 0)
(0.10324257 1.5144108e-07 0)
(0.10324249 1.1098398e-07 2.3065288e-20)
(0.10324234 8.5289832e-08 7.564407e-21)
(0.10324203 4.1726952e-08 0)
(0.10324138 2.0378707e-08 2.1961084e-20)
(0.10324016 -2.7795758e-08 -1.4399384e-20)
(0.10323904 -5.7268858e-08 7.0793667e-21)
(0.10323954 -9.1946187e-08 -6.9587431e-21)
(0.10323927 -1.3921264e-07 -1.3674517e-20)
(0.10324077 -1.4300651e-07 3.4511713e-18)
(0.10324124 -1.8500394e-07 -6.7605897e-18)
(0.10324256 -1.952214e-07 1.2922653e-20)
(0.10324143 -2.0305175e-07 3.2535403e-18)
(0.10323775 -2.1082713e-07 1.2388132e-20)
(0.10323887 -1.8918266e-07 2.4211852e-20)
(0.10323853 -2.5377326e-07 0)
(0.10324013 -2.1694574e-07 -5.877929e-18)
(0.10324055 -2.3648292e-07 2.2357293e-20)
(0.10323923 -2.3004235e-07 5.5918011e-18)
(0.1032395 -1.9492993e-07 2.0951468e-20)
(0.1032405 -1.8054394e-07 0)
(0.10323953 -1.0503247e-07 -2.4800108e-18)
(0.10323956 -6.0417202e-08 2.3882668e-18)
(0.10323028 2.0438325e-08 0)
(0.10323997 1.0941955e-07 3.3254391e-20)
(0.10322831 2.5287535e-07 -2.0275932e-18)
(0.10323952 5.2507977e-07 1.7982787e-18)
(0.10323956 1.2678781e-07 -1.067946e-19)
(0.10320729 -1.8959496e-06 5.1689637e-20)
(0.10318974 -1.1395789e-06 1.7682346e-18)
(0.10320273 -9.0540008e-07 -1.9947164e-18)
(0.10319279 -1.0190225e-06 2.1002211e-18)
(0.10320394 -5.3283767e-07 -4.4615396e-18)
(0.10320156 -8.8355863e-07 4.7083299e-18)
(0.10319067 -7.5559146e-07 -2.460497e-18)
(0.10320428 -5.2116884e-07 5.1378352e-18)
(0.10320384 -5.8311843e-07 -1.047492e-20)
(0.1031969 -6.0626817e-07 -5.5454872e-18)
(0.10319365 -5.2471877e-07 -5.715488e-18)
(0.10320206 -4.4591941e-07 5.914923e-18)
(0.10320462 -4.4446613e-07 0)
(0.10319781 -4.3991637e-07 -1.2158315e-20)
(0.10319575 -3.4178839e-07 6.2218686e-21)
(0.10319843 -2.509236e-07 -1.2716459e-20)
(0.10319841 -9.6992235e-08 -3.3160474e-18)
(0.10319847 -5.1914726e-08 3.3741554e-18)
(0.10319861 7.975601e-08 -6.7390588e-21)
(0.10319879 1.3844239e-07 3.5257638e-18)
(0.10319889 2.3680648e-07 -7.1453718e-18)
(0.10319899 3.2159686e-07 5.4490755e-18)
(0.10319909 3.8202809e-07 -1.8462453e-18)
(0.10319917 4.7219091e-07 -3.6643651e-21)
(0.10319923 5.292834e-07 -1.8988087e-18)
(0.10319929 6.1570461e-07 1.9404254e-18)
(0.10319934 6.6469962e-07 7.685227e-21)
(0.10319937 7.462499e-07 0)
(0.1031994 7.9224513e-07 0)
(0.10319941 8.7173328e-07 0)
(0.10319941 9.2358309e-07 0)
(0.10319941 1.0069727e-06 -1.0008774e-18)
(0.10319941 1.0721005e-06 9.7724362e-19)
(0.10319939 1.1560062e-06 -1.9422981e-18)
(0.10319937 1.2143586e-06 1.9038646e-18)
(0.10319935 1.2928458e-06 -3.666024e-21)
(0.1031992 1.3698458e-06 0)
(0.10319809 1.4508384e-06 3.6327735e-18)
(0.1031967 1.5226189e-06 -3.5650741e-18)
(0.10319882 1.558987e-06 0)
(0.10319821 1.5475182e-06 -3.4551378e-18)
(0.10319862 1.5113723e-06 3.391289e-18)
(0.10320105 1.4533983e-06 -3.3126689e-18)
(0.10320312 1.3903295e-06 3.2323989e-18)
(0.10320236 1.3570369e-06 -3.1812042e-18)
(0.10319634 1.3697242e-06 3.1079618e-18)