/*--------------------------------*- C++ -*----------------------------------*\
| =========                 |                                                 |
| \\      /  F ield         | OpenFOAM: The Open Source CFD Toolbox           |
|  \\    /   O peration     | Version:  v2006                                 |
|   \\  /    A nd           | Website:  www.openfoam.com                      |
|    \\/     M anipulation  |                                                 |
\*---------------------------------------------------------------------------*/
FoamFile
{
    version     2.0;
    format      ascii;
    class       volVectorField;
    location    "5000";
    object      UMean;
}
// * * * * * * * * * * * * * * * * * * * * * * * * * * * * * * * * * * * * * //

dimensions      [0 1 -1 0 0 0 0];


internalField   nonuniform List<vector> 
55713
(
(0.10320975 6.8704166e-07 0)
(0.10310356 -3.4205411e-07 0)
(0.10308367 9.2996224e-07 2.5663569e-18)
(0.10308097 7.3497052e-07 -2.5529597e-18)
(0.10308221 1.5140909e-06 2.5710571e-18)
(0.10308352 1.5270211e-06 1.6089118e-27)
(0.10308412 2.0246659e-06 -2.6465137e-18)
(0.10308411 2.1781509e-06 0)
(0.10308382 2.51425e-06 1.0711953e-20)
(0.10308359 2.7539306e-06 0)
(0.1030836 3.0217389e-06 -1.1108527e-20)
(0.10308371 3.2751671e-06 -1.1312769e-20)
(0.10308377 3.5272992e-06 0)
(0.1030838 3.7720904e-06 3.0031651e-18)
(0.10308395 4.0092718e-06 -3.057755e-18)
(0.1030842 4.2400235e-06 -6.0799101e-21)
(0.10308443 4.4656255e-06 3.1747816e-18)
(0.1030845 4.6853756e-06 -3.2247349e-18)
(0.10308443 4.9002186e-06 6.408792e-21)
(0.10308435 5.1097153e-06 -3.3382668e-18)
(0.10308442 5.3133414e-06 3.3889527e-18)
(0.10308466 5.5119373e-06 0)
(0.10308499 5.7078033e-06 0)
(0.10308533 5.9019107e-06 -1.791631e-18)
(0.10308561 6.0943969e-06 1.8138367e-18)
(0.10308583 6.2858431e-06 0)
(0.10308599 6.4768935e-06 0)
(0.10308611 6.6679849e-06 0)
(0.10308618 6.8589097e-06 2.4132289e-19)
(0.1030862 7.0499951e-06 -9.1069443e-29)
(0.10308615 7.2408737e-06 -2.4412337e-19)
(0.10308599 7.4319703e-06 0)
(0.10308573 7.6246165e-06 0)
(0.10308535 7.8186133e-06 0)
(0.1030849 8.0143787e-06 0)
(0.10308448 8.2115214e-06 1.8055542e-18)
(0.10308424 8.4105292e-06 -1.7691769e-18)
(0.10308428 8.6126242e-06 -3.4935617e-18)
(0.10308454 8.8184351e-06 2.0952956e-27)
(0.10308483 9.0277662e-06 3.3704547e-18)
(0.10308492 9.2404385e-06 0)
(0.10308474 9.4566117e-06 6.37091e-21)
(0.10308442 9.6772116e-06 -3.2049387e-18)
(0.10308419 9.9011118e-06 3.1484142e-18)
(0.10308417 1.0131573e-05 3.0923856e-18)
(0.10308433 1.0365641e-05 -3.0428492e-18)
(0.10308449 1.0609599e-05 0)
(0.10308455 1.0855334e-05 0)
(0.10308448 1.1117307e-05 -2.863657e-18)
(0.10308433 1.1374121e-05 2.8228182e-18)
(0.10308415 1.1662693e-05 0)
(0.10308399 1.1927162e-05 0)
(0.10308388 1.2256001e-05 0)
(0.10308371 1.2524103e-05 0)
(0.10308346 1.2910156e-05 2.5898294e-18)
(0.10308336 1.3183125e-05 -4.0133818e-27)
(0.10308367 1.3616247e-05 -3.7812161e-18)
(0.10308403 1.4019221e-05 1.2286195e-18)
(0.1030839 1.4152268e-05 -1.9270808e-20)
(0.10321605 1.1251574e-06 0)
(0.10311976 -2.6811682e-07 2.423064e-18)
(0.10310417 1.0760765e-06 -2.5056341e-18)
(0.10310269 7.1368989e-07 3.9170603e-20)
(0.10310418 1.3906143e-06 -2.538048e-18)
(0.10310538 1.3714759e-06 5.1428987e-18)
(0.10310581 1.8641237e-06 3.9362343e-27)
(0.10310567 1.9652445e-06 -2.6841485e-18)
(0.10310531 2.2986151e-06 -1.0694384e-20)
(0.10310512 2.493644e-06 2.18121e-20)
(0.1031052 2.7269346e-06 -2.8355539e-18)
(0.10310532 2.9400024e-06 2.9132695e-18)
(0.10310534 3.1534467e-06 2.9576816e-18)
(0.10310536 3.3590813e-06 2.7793192e-27)
(0.10310554 3.5594037e-06 2.6221388e-27)
(0.10310583 3.7553651e-06 -3.1211895e-18)
(0.10310604 3.9473775e-06 -6.219741e-21)
(0.10310606 4.1351851e-06 0)
(0.10310593 4.3197046e-06 3.293382e-18)
(0.10310584 4.500579e-06 -6.7158474e-18)
(0.10310593 4.6791386e-06 3.4229676e-18)
(0.1031062 4.8553248e-06 1.3573931e-20)
(0.10310655 5.0296795e-06 0)
(0.10310687 5.2026553e-06 7.0174086e-21)
(0.10310714 5.3744385e-06 0)
(0.10310733 5.5452253e-06 9.1339706e-19)
(0.10310747 5.715144e-06 -1.885506e-18)
(0.10310757 5.8846353e-06 9.4262992e-19)
(0.10310763 6.0533978e-06 2.4309449e-19)
(0.10310765 6.2221113e-06 -2.6157241e-19)
(0.10310758 6.3898285e-06 0)
(0.10310743 6.5567792e-06 9.5221439e-19)
(0.10310718 6.7255447e-06 -1.9047145e-18)
(0.10310681 6.8951371e-06 9.3736012e-19)
(0.10310634 7.06434e-06 0)
(0.10310588 7.2325863e-06 1.8147838e-18)
(0.10310559 7.4040635e-06 -1.7918842e-18)
(0.10310558 7.5823442e-06 1.371198e-20)
(0.10310585 7.7652592e-06 0)
(0.10310619 7.9485535e-06 6.6247191e-21)
(0.10310633 8.1319968e-06 3.3330311e-18)
(0.10310617 8.3163612e-06 -6.5553664e-18)
(0.10310582 8.5073203e-06 -4.8013902e-28)
(0.10310551 8.7010769e-06 3.1582411e-18)
(0.10310543 8.9055916e-06 -3.1005593e-18)
(0.10310557 9.1088122e-06 6.0923414e-18)
(0.10310575 9.3266998e-06 -5.9724067e-18)
(0.10310583 9.5352923e-06 2.9296243e-18)
(0.10310577 9.7729181e-06 -1.1224745e-20)
(0.10310561 9.9860114e-06 0)
(0.1031054 1.0261891e-05 0)
(0.1031052 1.047147e-05 0)
(0.10310507 1.0807611e-05 -2.6772705e-18)
(0.10310491 1.1005932e-05 2.6254434e-18)
(0.10310462 1.1414745e-05 0)
(0.10310441 1.1604788e-05 3.9187323e-20)
(0.10310468 1.2073111e-05 0)
(0.10310507 1.2285254e-05 1.8926316e-20)
(0.1031049 1.2713232e-05 1.8552586e-20)
(0.10322146 1.2903539e-06 0)
(0.10313518 -2.724268e-07 3.7330815e-20)
(0.10312215 1.0290884e-06 -3.7944343e-20)
(0.10312172 6.4532865e-07 -3.8481123e-20)
(0.10312337 1.2376269e-06 -2.5454844e-18)
(0.10312443 1.2364948e-06 2.5794785e-18)
(0.1031247 1.6492771e-06 0)
(0.10312444 1.758605e-06 2.0897747e-20)
(0.10312405 2.0455073e-06 -5.4663153e-18)
(0.10312393 2.2224604e-06 5.5389986e-18)
(0.10312409 2.4377284e-06 0)
(0.10312421 2.6236909e-06 -2.2716116e-20)
(0.10312418 2.8113459e-06 0)
(0.10312421 2.9861265e-06 3.0007244e-18)
(0.10312444 3.1562325e-06 -6.1656353e-18)
(0.10312477 3.3225938e-06 3.1413745e-18)
(0.10312496 3.487216e-06 -3.1875471e-18)
(0.10312491 3.649502e-06 -3.8098004e-27)
(0.10312473 3.8091621e-06 3.3178307e-18)
(0.10312465 3.9640453e-06 -3.3769784e-18)
(0.10312478 4.1162032e-06 -3.5644736e-27)
(0.10312509 4.2665159e-06 3.4958545e-18)
(0.10312545 4.4148115e-06 0)
(0.10312576 4.5618849e-06 1.7936469e-18)
(0.103126 4.7088296e-06 1.6767821e-27)
(0.10312617 4.8541312e-06 -1.8387603e-18)
(0.1031263 4.9981999e-06 -1.4828857e-20)
(0.10312639 5.1424289e-06 4.9711982e-19)
(0.10312644 5.2859716e-06 -4.8956533e-19)
(0.10312645 5.4292001e-06 2.4775605e-19)
(0.10312638 5.5716112e-06 -2.4694904e-19)
(0.10312624 5.7123404e-06 3.0395506e-20)
(0.103126 5.8535435e-06 0)
(0.10312564 5.9962103e-06 1.4722802e-20)
(0.10312517 6.140445e-06 -1.4485344e-20)
(0.10312467 6.2836081e-06 -1.4248292e-20)
(0.10312431 6.4291665e-06 -1.4011816e-20)
(0.10312426 6.579695e-06 -1.3776037e-20)
(0.10312453 6.7337862e-06 3.452939e-18)
(0.10312491 6.8882204e-06 -3.406485e-18)
(0.10312513 7.0467068e-06 0)
(0.10312501 7.2034299e-06 3.2870299e-18)
(0.10312463 7.3692513e-06 -3.2149262e-18)
(0.10312424 7.5319569e-06 3.1929074e-18)
(0.10312409 7.7111547e-06 -3.1088722e-18)
(0.1031242 7.8803196e-06 -3.0258376e-18)
(0.1031244 8.0785997e-06 -2.2780641e-27)
(0.1031245 8.2491349e-06 2.9085532e-18)
(0.10312446 8.4731918e-06 2.2441056e-20)
(0.1031243 8.6391246e-06 0)
(0.10312406 8.9135508e-06 0)
(0.10312383 9.0559626e-06 0)
(0.10312368 9.4068113e-06 2.0607535e-20)
(0.10312354 9.5113234e-06 -2.0153778e-20)
(0.10312323 9.9397325e-06 0)
(0.1031229 1.0032869e-05 2.464886e-18)
(0.10312312 1.0513729e-05 -2.4084117e-18)
(0.10312359 1.0626458e-05 0)
(0.10312338 1.1158333e-05 0)
(0.10322571 1.3200184e-06 6.8445396e-20)
(0.10314787 -2.6090016e-07 -7.2507843e-20)
(0.10313791 9.2028203e-07 -2.3358412e-18)
(0.10313832 5.8881305e-07 2.4202987e-18)
(0.10314003 1.0827185e-06 3.8681478e-20)
(0.10314092 1.1036612e-06 0)
(0.10314106 1.4485081e-06 -2.6019285e-18)
(0.10314069 1.5530252e-06 7.9760666e-18)
(0.10314028 1.7985288e-06 -1.0913852e-17)
(0.10314027 1.9534795e-06 5.602913e-18)
(0.10314052 2.1414872e-06 -2.8521047e-18)
(0.10314059 2.3034011e-06 2.2759841e-20)
(0.1031405 2.4666391e-06 5.9481651e-18)
(0.10314056 2.618155e-06 -3.0109212e-18)
(0.10314087 2.765722e-06 0)
(0.10314123 2.9099789e-06 0)
(0.10314138 3.0521435e-06 -1.2559316e-20)
(0.10314125 3.1911628e-06 0)
(0.10314103 3.3275884e-06 0)
(0.10314098 3.4613473e-06 2.6526221e-20)
(0.10314116 3.5934539e-06 -1.3498281e-20)
(0.10314151 3.7241828e-06 -2.7468002e-20)
(0.10314187 3.8534141e-06 -1.788205e-18)
(0.10314217 3.9810716e-06 1.8327537e-18)
(0.10314239 4.1075052e-06 1.4445085e-20)
(0.10314255 4.2326961e-06 -1.4683356e-20)
(0.10314266 4.3583412e-06 9.6992475e-19)
(0.10314273 4.4842472e-06 -9.7027081e-19)
(0.10314278 4.6094231e-06 1.5398534e-20)
(0.10314278 4.7330344e-06 -2.3366771e-19)
(0.10314272 4.854051e-06 -2.4827507e-19)
(0.10314259 4.9729264e-06 4.7359409e-19)
(0.10314237 5.0929746e-06 0)
(0.10314202 5.2134232e-06 -1.9086985e-18)
(0.10314155 5.335359e-06 1.4555803e-20)
(0.10314102 5.4556239e-06 3.6935174e-18)
(0.1031406 5.5795333e-06 -1.7877428e-18)
(0.10314048 5.7053484e-06 0)
(0.10314073 5.8359228e-06 1.3600033e-20)
(0.10314118 5.9642757e-06 0)
(0.10314149 6.1023722e-06 0)
(0.10314143 6.2355227e-06 2.5776615e-20)
(0.10314103 6.3839771e-06 -1.26514e-20)
(0.10314056 6.5182669e-06 -3.2028767e-18)
(0.10314031 6.6790611e-06 3.1172226e-18)
(0.1031404 6.8131252e-06 -3.6649859e-26)
(0.10314063 6.995353e-06 2.3398269e-20)
(0.10314076 7.1276629e-06 3.5168723e-26)
(0.10314073 7.3400304e-06 -2.2434293e-20)
(0.10314058 7.461471e-06 -5.5966927e-18)
(0.10314033 7.7195615e-06 5.4931691e-18)
(0.10314007 7.8224086e-06 4.1926861e-20)
(0.10313988 8.1339059e-06 -2.6603812e-18)
(0.10313977 8.2289982e-06 5.1097807e-18)
(0.10313947 8.5921965e-06 -5.0179453e-18)
(0.10313901 8.691386e-06 2.423187e-18)
(0.10313918 9.136561e-06 -7.3613267e-20)
(0.10313972 9.1843482e-06 0)
(0.10313949 9.8382302e-06 0)
(0.10322894 1.2014292e-06 -6.6149802e-20)
(0.10315943 -2.012335e-07 7.0455971e-20)
(0.10315167 7.8017433e-07 -2.3196265e-18)
(0.10315279 5.3944371e-07 2.3050752e-18)
(0.10315449 9.3114206e-07 -2.4458464e-18)
(0.1031552 9.8676898e-07 2.5559197e-18)
(0.1031552 1.2672132e-06 2.5468018e-18)
(0.10315473 1.3674362e-06 -2.6562801e-18)
(0.10315434 1.5775949e-06 5.4047774e-18)
(0.10315448 1.7114152e-06 -1.1115182e-17)
(0.1031548 1.8762519e-06 5.7092671e-18)
(0.10315479 2.0155515e-06 -2.2802304e-20)
(0.10315464 2.1566238e-06 -2.9820046e-18)
(0.10315477 2.2864006e-06 6.0893286e-18)
(0.10315518 2.4128087e-06 -3.1067877e-18)
(0.10315556 2.5360651e-06 -3.1684844e-18)
(0.10315564 2.6574312e-06 2.5233283e-20)
(0.10315541 2.7758322e-06 3.2653075e-18)
(0.10315517 2.8919837e-06 -2.6187755e-20)
(0.10315516 3.006086e-06 -5.3327926e-20)
(0.10315542 3.1185933e-06 1.3570112e-20)
(0.1031558 3.2300999e-06 1.3808514e-20)
(0.10315617 3.3402712e-06 0)
(0.10315645 3.4490163e-06 -1.8287208e-18)
(0.10315665 3.5562918e-06 -1.4527052e-20)
(0.10315678 3.6628538e-06 1.9050481e-18)
(0.10315688 3.7700402e-06 0)
(0.10315695 3.8774554e-06 0)
(0.10315699 3.9847915e-06 -3.0983237e-20)
(0.10315699 4.0905473e-06 2.3497552e-19)
(0.10315694 4.1940819e-06 -2.4952117e-19)
(0.10315682 4.2951343e-06 0)
(0.10315662 4.3983266e-06 0)
(0.10315629 4.501234e-06 -1.9027491e-18)
(0.10315583 4.6082876e-06 3.7433325e-18)
(0.10315527 4.71179e-06 -1.855039e-18)
(0.10315478 4.8185873e-06 -1.7814542e-18)
(0.10315459 4.9199236e-06 1.7788754e-18)
(0.10315481 5.0282454e-06 0)
(0.10315531 5.1304051e-06 0)
(0.10315573 5.2526915e-06 -3.3994337e-18)
(0.10315576 5.3642603e-06 3.2856252e-18)
(0.10315536 5.4995888e-06 2.5388827e-20)
(0.1031548 5.6077869e-06 -3.1878125e-18)
(0.10315444 5.7523951e-06 6.2266124e-18)
(0.10315448 5.8574359e-06 -3.0867013e-18)
(0.10315475 6.0217979e-06 -3.0229221e-18)
(0.10315491 6.1276535e-06 5.8711061e-18)
(0.10315491 6.3171916e-06 -2.8708475e-18)
(0.10315477 6.4194444e-06 -6.5748016e-20)
(0.10315453 6.641222e-06 0)
(0.10315423 6.7407089e-06 -4.1730632e-20)
(0.103154 6.9977995e-06 2.6015147e-18)
(0.1031539 7.1014098e-06 -5.061284e-18)
(0.10315366 7.3985595e-06 2.5346646e-18)
(0.10315306 7.5105965e-06 3.7230954e-20)
(0.10315315 7.9060014e-06 1.4405653e-19)
(0.10315379 7.9350168e-06 6.9485322e-20)
(0.10315355 8.6181373e-06 6.6619431e-20)
(0.10323117 9.8871497e-07 -1.0237132e-18)
(0.10316905 -1.2198948e-07 -1.0959962e-18)
(0.10316365 6.2020718e-07 2.3394671e-18)
(0.10316529 5.0458716e-07 -2.2671235e-18)
(0.10316691 8.0146128e-07 -6.9456118e-27)
(0.10316743 8.7602914e-07 2.4566471e-18)
(0.10316733 1.0979384e-06 4.0196367e-20)
(0.10316675 1.1948679e-06 5.2937435e-18)
(0.1031664 1.370604e-06 4.2481063e-20)
(0.10316675 1.4846917e-06 -5.6210312e-18)
(0.10316711 1.6274075e-06 5.6694412e-18)
(0.10316694 1.7473061e-06 -5.825124e-18)
(0.10316677 1.866852e-06 -2.9897314e-18)
(0.10316702 1.9786739e-06 3.0544488e-18)
(0.10316753 2.0857278e-06 2.4361738e-20)
(0.10316791 2.1916196e-06 0)
(0.10316788 2.2945809e-06 -2.5344201e-20)
(0.10316755 2.3949676e-06 3.3320652e-18)
(0.1031673 2.4928939e-06 -6.7099089e-18)
(0.10316737 2.5892763e-06 2.6281307e-26)
(0.10316771 2.6842258e-06 2.7276404e-20)
(0.10316812 2.7783634e-06 3.5529749e-18)
(0.10316848 2.8711201e-06 -1.807324e-18)
(0.10316874 2.9627596e-06 1.8382301e-18)
(0.10316892 3.0533803e-06 1.869223e-18)
(0.10316904 3.1442917e-06 -1.9151535e-18)
(0.10316913 3.2350151e-06 9.657362e-19)
(0.10316919 3.3260118e-06 -9.8134482e-19)
(0.10316923 3.417043e-06 -2.336612e-19)
(0.10316923 3.505722e-06 1.574534e-20)
(0.10316918 3.592734e-06 2.5066801e-19)
(0.10316908 3.6776041e-06 0)
(0.10316889 3.7650432e-06 -1.5174692e-20)
(0.1031686 3.8503314e-06 0)
(0.10316815 3.94189e-06 -1.4684158e-20)
(0.10316758 4.0268523e-06 -1.848313e-18)
(0.10316702 4.1200126e-06 -2.8392818e-20)
(0.10316672 4.1997498e-06 5.3580963e-18)
(0.10316689 4.2946859e-06 -7.0198457e-18)
(0.10316743 4.3777965e-06 -2.6935782e-20)
(0.10316798 4.4869468e-06 6.8240137e-18)
(0.10316812 4.5761704e-06 -3.3231543e-18)
(0.10316777 4.6965433e-06 3.2095138e-18)
(0.10316713 4.7846881e-06 -3.2223177e-18)
(0.10316663 4.9143288e-06 2.4481661e-20)
(0.10316659 5.0008314e-06 0)
(0.1031669 5.1453138e-06 0)
(0.10316711 5.2363376e-06 4.5901071e-20)
(0.10316713 5.3990945e-06 5.7403365e-18)
(0.10316701 5.493336e-06 -5.5587843e-18)
(0.10316677 5.6775061e-06 -4.2668251e-20)
(0.10316646 5.7777667e-06 2.6584025e-18)
(0.10316616 5.9865697e-06 -5.1273963e-18)
(0.10316607 6.0959801e-06 -4.2611696e-27)
(0.10316594 6.3390408e-06 2.3890212e-18)
(0.10316518 6.4593342e-06 -8.4292001e-26)
(0.10316517 6.7808831e-06 -2.2561049e-18)
(0.10316593 6.8229215e-06 2.0960127e-18)
(0.10316568 7.4410953e-06 -6.4388381e-20)
(0.10323277 7.3076772e-07 0)
(0.10317783 -4.2985819e-08 6.6633938e-20)
(0.1031743 4.6280285e-07 -7.1217935e-26)
(0.10317629 4.41983e-07 0)
(0.10317778 6.522891e-07 -2.4635696e-18)
(0.1031781 7.6699986e-07 2.513617e-18)
(0.10317793 9.2515287e-07 0)
(0.10317721 1.0317742e-06 4.1209187e-20)
(0.10317699 1.165623e-06 0)
(0.1031776 1.2730361e-06 5.6188357e-18)
(0.10317791 1.3912694e-06 -5.6739165e-18)
(0.10317751 1.4977438e-06 2.9290817e-18)
(0.1031774 1.5957565e-06 5.0141139e-27)
(0.10317783 1.6938482e-06 -3.0639295e-18)
(0.10317842 1.7829445e-06 -3.1538889e-18)
(0.10317876 1.8745942e-06 3.1939563e-18)
(0.10317859 1.9607615e-06 0)
(0.10317815 2.0467494e-06 2.5943406e-20)
(0.10317793 2.128771e-06 -2.6432519e-20)
(0.10317811 2.2114404e-06 2.7808144e-26)
(0.10317853 2.2915801e-06 -2.7404033e-20)
(0.10317897 2.3718922e-06 0)
(0.10317931 2.4497794e-06 0)
(0.10317954 2.5276353e-06 0)
(0.1031797 2.6041852e-06 0)
(0.10317981 2.6811589e-06 0)
(0.10317989 2.7578131e-06 -9.552447e-19)
(0.10317995 2.8344521e-06 5.0848135e-19)
(0.10317998 2.9100212e-06 5.009534e-19)
(0.10317998 2.9844829e-06 2.3726482e-19)
(0.10317994 3.057106e-06 -7.5509974e-19)
(0.10317984 3.128322e-06 5.1092663e-19)
(0.10317968 3.2022843e-06 1.5234418e-20)
(0.10317942 3.2735302e-06 0)
(0.103179 3.3507049e-06 1.4740357e-20)
(0.10317842 3.4192706e-06 0)
(0.1031778 3.498574e-06 0)
(0.10317738 3.5617425e-06 3.6133548e-18)
(0.10317746 3.649473e-06 -7.0180807e-18)
(0.10317803 3.7168462e-06 6.9474155e-18)
(0.10317871 3.8120074e-06 -6.8478862e-18)
(0.10317901 3.8848549e-06 6.6686056e-18)
(0.10317871 3.9865686e-06 -3.2451965e-18)
(0.10317804 4.0619523e-06 2.5051353e-20)
(0.10317737 4.1701479e-06 3.1661289e-18)
(0.10317718 4.2477265e-06 -3.0755911e-18)
(0.10317755 4.3641154e-06 2.3503039e-20)
(0.10317783 4.4488172e-06 -2.2967051e-20)
(0.10317786 4.578367e-06 5.7390618e-18)
(0.10317777 4.6699938e-06 -1.1145843e-17)
(0.10317754 4.8137176e-06 5.4886723e-18)
(0.10317724 4.9139796e-06 4.1347442e-20)
(0.10317687 5.0792171e-06 0)
(0.10317671 5.1882841e-06 -2.5223588e-18)
(0.10317677 5.3796967e-06 2.3967508e-18)
(0.10317585 5.5046488e-06 -7.2048236e-20)
(0.1031757 5.7712967e-06 2.1400973e-18)
(0.1031766 5.8430637e-06 -2.040748e-18)
(0.10317636 6.3565613e-06 1.2457505e-19)
(0.1032338 4.0192624e-07 0)
(0.10318522 3.4126885e-08 -2.2049485e-18)
(0.10318364 3.2256643e-07 -6.7890422e-20)
(0.10318577 4.3929376e-07 4.6026091e-18)
(0.10318712 5.6350706e-07 7.3792095e-20)
(0.10318728 6.8522612e-07 -4.9855868e-18)
(0.10318703 7.9839099e-07 2.5432562e-18)
(0.10318616 9.0892732e-07 5.1735345e-18)
(0.10318618 1.0045305e-06 -5.375082e-18)
(0.10318707 1.1068687e-06 -3.1935912e-26)
(0.10318721 1.194808e-06 4.4709015e-20)
(0.10318652 1.2898202e-06 -2.2921589e-20)
(0.10318663 1.3635114e-06 0)
(0.10318725 1.4521445e-06 2.4008334e-20)
(0.10318788 1.5222294e-06 3.1646811e-18)
(0.10318817 1.604272e-06 -3.2059278e-18)
(0.10318781 1.6724885e-06 3.2450918e-18)
(0.10318727 1.7459883e-06 -3.3345041e-18)
(0.10318714 1.8102031e-06 1.9573441e-26)
(0.10318746 1.8811899e-06 -3.4333748e-18)
(0.10318795 1.944985e-06 7.0181108e-18)
(0.10318839 2.0127823e-06 -3.5850793e-18)
(0.10318871 2.0749576e-06 0)
(0.10318892 2.1406705e-06 1.4491006e-20)
(0.10318906 2.2033195e-06 -1.9008636e-18)
(0.10318916 2.26893e-06 1.9025531e-18)
(0.10318924 2.332386e-06 -1.5227179e-20)
(0.10318929 2.3969128e-06 4.7971335e-19)
(0.10318932 2.4597294e-06 -5.0313074e-19)
(0.10318932 2.5207424e-06 1.5880806e-20)
(0.10318928 2.5800803e-06 5.0518715e-19)
(0.10318921 2.6383144e-06 -5.126969e-19)
(0.10318907 2.6970986e-06 -1.5286285e-20)
(0.10318884 2.7545278e-06 0)
(0.10318846 2.817845e-06 0)
(0.1031879 2.8738231e-06 -1.8760638e-18)
(0.10318721 2.9431907e-06 1.8300638e-18)
(0.10318666 3.0012702e-06 -2.8104211e-20)
(0.1031866 3.0727032e-06 -2.7613679e-20)
(0.10318719 3.1332203e-06 0)
(0.10318801 3.2103161e-06 2.6628264e-20)
(0.1031885 3.2751142e-06 -3.3186314e-18)
(0.10318829 3.3596701e-06 3.2548525e-18)
(0.10318762 3.4271947e-06 -3.2153632e-18)
(0.10318679 3.5172225e-06 3.1245804e-18)
(0.10318634 3.5864328e-06 2.407574e-20)
(0.10318679 3.6817987e-06 -2.3536299e-20)
(0.10318718 3.7625943e-06 0)
(0.10318721 3.8672904e-06 0)
(0.10318716 3.9543073e-06 -4.3648322e-20)
(0.10318693 4.0721453e-06 0)
(0.10318666 4.1691879e-06 -4.1159138e-20)
(0.10318625 4.2987209e-06 0)
(0.10318594 4.4132985e-06 2.5375137e-18)
(0.10318625 4.5594421e-06 -2.2932318e-18)
(0.10318521 4.6938237e-06 7.0892522e-20)
(0.10318485 4.8682485e-06 -2.1638639e-18)
(0.10318593 4.9654911e-06 3.0782735e-18)
(0.10318569 5.3262445e-06 -1.0855222e-18)
(0.10323264 1.279069e-07 1.163129e-19)
(0.10318988 1.0793681e-07 -2.0207737e-18)
(0.10319048 1.718225e-07 -2.5786884e-27)
(0.10319244 3.6151734e-07 2.1609187e-18)
(0.10319369 3.9689786e-07 0)
(0.10319376 5.7082866e-07 3.8033062e-20)
(0.10319335 6.1764201e-07 -3.9509717e-20)
(0.10319233 7.42371e-07 5.2773835e-18)
(0.10319279 7.8775199e-07 -1.0814154e-17)
(0.10319392 9.0137825e-07 -4.3516859e-20)
(0.10319372 9.5568129e-07 5.6819166e-18)
(0.10319271 1.0460795e-06 2.9616293e-18)
(0.10319327 1.0935195e-06 -3.0114068e-18)
(0.10319406 1.1769776e-06 -2.4077278e-20)
(0.10319468 1.2254149e-06 -2.4612885e-20)
(0.10319488 1.3013735e-06 0)
(0.10319425 1.3487456e-06 2.5648161e-20)
(0.10319366 1.4181907e-06 -2.6151968e-20)
(0.10319369 1.4651167e-06 2.6648986e-20)
(0.10319417 1.5303532e-06 0)
(0.10319471 1.5779931e-06 3.5642382e-18)
(0.10319514 1.6391231e-06 -5.3984157e-18)
(0.10319543 1.6859531e-06 1.8163116e-18)
(0.10319561 1.7441617e-06 1.8472566e-18)
(0.10319574 1.7910778e-06 -1.8635175e-18)
(0.10319583 1.8446024e-06 -9.4723602e-19)
(0.1031959 1.8911313e-06 9.7808242e-19)
(0.10319595 1.9405037e-06 0)
(0.10319599 1.9902549e-06 -2.5249071e-19)
(0.10319599 2.039554e-06 2.5493495e-19)
(0.10319596 2.0909431e-06 4.9080988e-19)
(0.10319589 2.1405381e-06 -1.5112584e-18)
(0.10319577 2.1935804e-06 9.9636932e-19)
(0.10319558 2.2480826e-06 1.5079075e-20)
(0.10319525 2.2967264e-06 -1.9131885e-18)
(0.10319471 2.3499121e-06 1.8813462e-18)
(0.10319398 2.3985326e-06 0)
(0.10319328 2.4489537e-06 -3.6077618e-18)
(0.10319304 2.5004264e-06 3.5449103e-18)
(0.10319361 2.5495377e-06 0)
(0.10319455 2.604268e-06 0)
(0.10319531 2.6602353e-06 -2.6205853e-20)
(0.1031952 2.7185881e-06 2.5699151e-20)
(0.10319458 2.7791171e-06 0)
(0.10319362 2.8393326e-06 0)
(0.10319277 2.9086784e-06 -2.4120644e-20)
(0.10319331 2.964281e-06 0)
(0.10319384 3.0417577e-06 0)
(0.10319388 3.1125945e-06 5.7360126e-18)
(0.10319387 3.199087e-06 -5.5790138e-18)
(0.10319363 3.2775761e-06 0)
(0.10319342 3.3735339e-06 4.0971353e-20)
(0.103193 3.4796861e-06 -3.9569349e-20)
(0.10319244 3.575659e-06 -2.4760883e-18)
(0.10319298 3.6977556e-06 2.2651626e-18)
(0.10319196 3.8191404e-06 -6.9767042e-20)
(0.1031912 3.9672871e-06 2.0539057e-18)
(0.10319259 4.0590333e-06 -2.1252295e-18)
(0.10319237 4.3347555e-06 0)
(0.10323035 -1.455652e-07 -1.1282776e-19)
(0.10319389 2.4268066e-07 2.0302004e-18)
(0.10319691 -2.9204679e-08 -2.0840127e-18)
(0.10319806 5.2595889e-07 -6.8641255e-20)
(0.10319937 3.1282946e-07 3.6061706e-20)
(0.10319969 4.9496153e-07 0)
(0.10319863 5.0964314e-07 3.928235e-20)
(0.10319761 6.0893604e-07 0)
(0.10319897 6.6239058e-07 5.3545087e-18)
(0.10320006 7.5697761e-07 8.0655308e-27)
(0.10319929 7.9095694e-07 -5.7526903e-18)
(0.1031981 8.7142553e-07 2.2993599e-20)
(0.10319929 9.0028601e-07 0)
(0.10320022 9.800619e-07 0)
(0.10320078 1.0121626e-06 3.1602401e-18)
(0.10320082 1.0867278e-06 -3.2533922e-18)
(0.10319989 1.1179503e-06 0)
(0.10319934 1.1787311e-06 -1.3122552e-20)
(0.10319958 1.2020833e-06 0)
(0.10320021 1.262219e-06 0)
(0.10320078 1.2867727e-06 0)
(0.10320117 1.3398224e-06 -1.8054436e-18)
(0.10320142 1.3657547e-06 1.8508256e-18)
(0.10320158 1.4173918e-06 0)
(0.10320169 1.4513578e-06 -1.4833972e-20)
(0.10320177 1.5045949e-06 0)
(0.10320183 1.5462647e-06 -1.5325872e-20)
(0.10320187 1.5934169e-06 -5.1396042e-19)
(0.1032019 1.6364638e-06 5.0640041e-19)
(0.1032019 1.6795148e-06 -1.597405e-20)
(0.10320187 1.7211632e-06 5.39517e-19)
(0.10320181 1.7619523e-06 -1.498977e-18)
(0.10320171 1.8037179e-06 9.6783799e-19)
(0.10320154 1.8444579e-06 -3.0225417e-20)
(0.10320125 1.89016e-06 1.7754768e-26)
(0.10320075 1.9353305e-06 0)
(0.10319999 1.9828735e-06 0)
(0.1031991 2.0342976e-06 0)
(0.10319864 2.0793683e-06 1.3883722e-20)
(0.10319916 2.1323414e-06 -3.4912459e-18)
(0.10320013 2.1831707e-06 6.8688794e-18)
(0.10320123 2.2362099e-06 5.2614198e-27)
(0.10320124 2.2942455e-06 -6.5964404e-18)
(0.10320071 2.3521064e-06 3.2568937e-18)
(0.10319966 2.4062027e-06 0)
(0.10319826 2.4696308e-06 0)
(0.10319885 2.516472e-06 0)
(0.1031996 2.5926668e-06 5.8913417e-18)
(0.10319966 2.6510917e-06 -5.7574009e-18)
(0.10319964 2.7262701e-06 2.1764752e-20)
(0.10319939 2.7950396e-06 -4.2193895e-20)
(0.10319927 2.8674481e-06 -4.8785621e-26)
(0.10319888 2.9522242e-06 4.7028564e-26)
(0.10319799 3.0412253e-06 -3.775061e-20)
(0.10319839 3.115502e-06 3.6096168e-20)
(0.1031979 3.2176793e-06 0)
(0.10319622 3.2478993e-06 7.7803033e-26)
(0.10319833 3.4808583e-06 6.0960878e-20)
(0.10319809 3.4815811e-06 0)
(0.10323513 -8.335135e-07 9.3089351e-19)
(0.10320414 9.0935392e-07 -9.5941513e-19)
(0.10320956 -4.0998433e-07 0)
(0.10320783 2.2162533e-07 6.7609678e-20)
(0.10320967 -2.5448288e-08 -3.5655738e-20)
(0.10321183 1.8093264e-07 2.4313674e-18)
(0.10320807 1.8157083e-07 -2.5386131e-18)
(0.10320805 1.7484496e-07 5.198141e-18)
(0.10321148 2.5355106e-07 1.577977e-26)
(0.10321158 3.1812108e-07 -5.5642455e-18)
(0.10321025 3.7701418e-07 -5.6887943e-18)
(0.10320961 4.330446e-07 5.8718414e-18)
(0.10321091 4.8420264e-07 0)
(0.10321239 5.356992e-07 0)
(0.10321284 5.9930113e-07 3.1694759e-18)
(0.10321238 6.5553117e-07 -3.200323e-18)
(0.10321138 7.0960381e-07 -1.2910471e-20)
(0.1032111 7.7984811e-07 1.4688393e-26)
(0.10321148 8.3611072e-07 0)
(0.10321224 8.986866e-07 1.3659908e-20)
(0.10321287 9.5886058e-07 -3.5591079e-18)
(0.10321326 1.0416259e-06 3.6067317e-18)
(0.10321349 1.1070867e-06 1.8412459e-18)
(0.10321365 1.1906956e-06 -1.8720903e-18)
(0.10321376 1.2576142e-06 0)
(0.10321384 1.3389513e-06 0)
(0.1032139 1.4008018e-06 -9.52144e-19)
(0.10321395 1.4686426e-06 1.0143453e-18)
(0.10321398 1.526624e-06 0)
(0.10321398 1.5938928e-06 1.600092e-20)
(0.10321396 1.645404e-06 -1.5890244e-20)
(0.10321391 1.7118042e-06 1.5635867e-20)
(0.10321382 1.7628674e-06 9.8458405e-19)
(0.10321367 1.8341849e-06 9.8377597e-19)
(0.10321341 1.8868495e-06 1.4888275e-20)
(0.10321293 1.9579275e-06 -1.8889999e-18)
(0.10321209 1.9968843e-06 -1.8287803e-18)
(0.10321098 2.0347001e-06 -1.8120687e-18)
(0.10321046 2.0884023e-06 3.5478948e-18)
(0.10321087 2.0952741e-06 1.3668462e-20)
(0.10321177 2.1626021e-06 -2.6842256e-20)
(0.10321313 2.1816323e-06 1.3170133e-20)
(0.10321355 2.2360709e-06 -1.2914332e-20)
(0.10321308 2.2834701e-06 -2.5304943e-20)
(0.10321152 2.3133768e-06 -1.2383049e-20)
(0.10321004 2.4029586e-06 -2.4209005e-20)
(0.10321058 2.39012e-06 0)
(0.10321157 2.4782082e-06 0)
(0.10321186 2.507729e-06 -5.7113759e-18)
(0.10321154 2.5950074e-06 -4.3472682e-20)
(0.1032114 2.6370591e-06 5.4284104e-18)
(0.10321149 2.6870078e-06 -4.0612141e-20)
(0.10321112 2.8274418e-06 3.9059356e-20)
(0.10321028 2.8515676e-06 2.4319216e-18)
(0.10320859 2.9233699e-06 -2.3184559e-18)
(0.10321055 3.0924311e-06 -2.1639945e-18)
(0.10320628 2.7814949e-06 4.1394083e-18)
(0.1032106 3.7083791e-06 -8.9229133e-19)
(0.10321047 2.6473227e-06 -8.2494754e-19)
(0.10323147 -2.0174631e-06 -1.0636569e-19)
(0.10320057 9.8833682e-07 5.8467863e-20)
(0.10321618 1.4698558e-07 3.1283713e-20)
(0.1032054 8.492633e-07 0)
(0.10321074 6.7653622e-07 0)
(0.1032183 1.0088305e-06 2.3362409e-18)
(0.10320467 8.9300589e-07 -2.4648386e-18)
(0.10320883 9.2018921e-07 5.1969799e-18)
(0.10321811 9.6349053e-07 -5.3520781e-18)
(0.10321607 9.4883322e-07 5.5586894e-18)
(0.10321407 9.7041645e-07 -5.7791174e-18)
(0.10321541 9.0955362e-07 -5.9007854e-18)
(0.10321453 9.1157614e-07 3.0295056e-18)
(0.10321861 8.8713169e-07 6.2220409e-18)
(0.10321888 8.855638e-07 -3.1772877e-18)
(0.10321716 8.5508901e-07 6.4230586e-26)
(0.10321695 8.2498221e-07 1.2946007e-20)
(0.10321732 7.9195005e-07 -3.3531214e-18)
(0.10321729 7.4016489e-07 6.8866517e-18)
(0.10321821 7.2057766e-07 -3.5333423e-18)
(0.10321921 6.5723559e-07 0)
(0.10321975 6.2358363e-07 1.4176164e-20)
(0.10322006 5.6795307e-07 0)
(0.10322026 5.2827991e-07 7.3271196e-21)
(0.10322042 4.6928176e-07 -7.4473189e-21)
(0.10322053 4.2716593e-07 0)
(0.10322062 3.7607917e-07 -2.3073055e-20)
(0.1032207 3.5191424e-07 0)
(0.10322075 3.1407526e-07 0)
(0.1032208 2.8883735e-07 0)
(0.1032208 2.5364072e-07 0)
(0.10322073 2.2273316e-07 0)
(0.10322064 1.8266144e-07 2.3069624e-20)
(0.10322047 1.5054991e-07 7.5658301e-21)
(0.10322015 1.0495402e-07 0)
(0.10321952 7.814368e-08 2.1965204e-20)
(0.10321827 2.8452657e-08 -1.4402094e-20)
(0.10321677 -8.5647452e-10 7.0807212e-21)
(0.10321714 -3.9280163e-08 -6.960091e-21)
(0.10321696 -8.8855551e-08 -1.367716e-20)
(0.10321776 -1.095117e-07 3.4518398e-18)
(0.10321852 -1.4120938e-07 -6.7619173e-18)
(0.10322053 -1.5408689e-07 1.2925229e-20)
(0.10321988 -1.6226723e-07 3.2541898e-18)
(0.1032158 -1.7289746e-07 1.2390632e-20)
(0.10321662 -1.515111e-07 2.421685e-20)
(0.10321639 -2.1866028e-07 0)
(0.10321747 -2.0086011e-07 -5.8791621e-18)
(0.10321887 -2.0953184e-07 2.2361986e-20)
(0.10321708 -1.7583988e-07 5.5930244e-18)
(0.10321763 -1.5624569e-07 2.0956148e-20)
(0.10321844 -1.3460167e-07 0)
(0.10321728 -5.0348033e-08 -2.4805921e-18)
(0.10321768 2.1642704e-09 2.3888322e-18)
(0.10320803 9.9516767e-08 0)
(0.10321821 2.0392792e-07 3.3262648e-20)
(0.10320501 3.5311995e-07 -2.0281294e-18)
(0.10321758 6.6919405e-07 1.7987503e-18)
(0.10321753 2.0979682e-07 -1.0681642e-19)
(0.10318124 -2.1604345e-06 5.1701275e-20)
(0.10316148 -1.3096444e-06 1.7686646e-18)
(0.10317612 -1.0337471e-06 -1.9952013e-18)
(0.10316491 -1.2040363e-06 2.100732e-18)
(0.10317744 -5.8707971e-07 -4.4625935e-18)
(0.10317475 -1.059334e-06 4.7094683e-18)
(0.10316263 -8.8315672e-07 -2.4610904e-18)
(0.10317799 -6.2506956e-07 5.1389958e-18)
(0.10317379 -6.6470643e-07 -1.0477099e-20)
(0.10317233 -6.5731005e-07 -5.5465135e-18)
(0.10317 -6.1302758e-07 -5.7166273e-18)
(0.10316912 -5.2433062e-07 5.9160136e-18)
(0.10317472 -4.3107906e-07 0)
(0.10317472 -3.8842734e-07 -1.2159759e-20)
(0.1031729 -3.5560958e-07 6.2229029e-21)
(0.10317126 -3.3242228e-07 -1.2719214e-20)
(0.10317074 -2.4509695e-07 -3.3168296e-18)
(0.10316958 -1.8316011e-07 3.374948e-18)
(0.10317096 -5.6466609e-08 -6.7405387e-21)
(0.1031716 2.3311248e-08 3.5264875e-18)
(0.10317159 1.3940334e-07 -7.1467445e-18)
(0.10317166 2.1957127e-07 5.4500562e-18)
(0.10317177 3.111427e-07 -1.8465556e-18)
(0.10317189 4.02641e-07 -3.6649373e-21)
(0.10317196 4.6888326e-07 -1.8990849e-18)
(0.10317203 5.6603167e-07 1.9406866e-18)
(0.10317209 6.2043885e-07 7.686172e-21)
(0.10317213 7.1481455e-07 0)
(0.10317217 7.6782105e-07 0)
(0.10317218 8.5562898e-07 0)
(0.10317218 9.1648474e-07 0)
(0.10317218 1.0103924e-06 -1.0010486e-18)
(0.10317217 1.0788965e-06 9.7742028e-19)
(0.10317214 1.1775138e-06 -1.9426688e-18)
(0.10317211 1.2499925e-06 1.9042467e-18)
(0.10317206 1.3365912e-06 -3.6667957e-21)
(0.10317205 1.4189944e-06 0)
(0.10317141 1.5118811e-06 3.6336172e-18)
(0.10316904 1.5989851e-06 -3.565953e-18)
(0.10317021 1.6625012e-06 0)
(0.10317138 1.6846344e-06 -3.4561247e-18)
(0.10317258 1.6726875e-06 3.3923284e-18)
(0.10317398 1.6309713e-06 -3.3137417e-18)
(0.10317603 1.5778281e-06 3.2334778e-18)
(0.10317563 1.5506023e-06 -3.1822844e-18)