/*--------------------------------*- C++ -*----------------------------------*\
| =========                 |                                                 |
| \\      /  F ield         | OpenFOAM: The Open Source CFD Toolbox           |
|  \\    /   O peration     | Version:  v2006                                 |
|   \\  /    A nd           | Website:  www.openfoam.com                      |
|    \\/     M anipulation  |                                                 |
\*---------------------------------------------------------------------------*/
FoamFile
{
    version     2.0;
    format      ascii;
    class       volVectorField;
    location    "5000";
    object      wallShearStress;
}
// * * * * * * * * * * * * * * * * * * * * * * * * * * * * * * * * * * * * * //

dimensions      [1 -1 -2 0 0 0 0];


internalField   uniform (0 0 0);

boundaryField
{
    Side
    {
        type            empty;
    }
    Ground
    {
        type            calculated;
        value           uniform (0 0 0);
    }
    Inlet
    {
        type            calculated;
        value           uniform (0 0 0);
    }
    Airfoil
    {
        type            calculated;
        value           nonuniform List<vector> 
527
(
(4.3220956e-06 1.8222335e-06 -2.5141761e-20)
(4.769903e-06 1.6641062e-06 3.4954303e-20)
(4.9334403e-06 1.2179029e-06 1.8402086e-20)
(3.9666466e-06 1.0904615e-06 -1.930564e-20)
(4.015261e-06 1.1284187e-06 -1.9805467e-20)
(3.6650014e-06 1.0132723e-06 2.0338427e-20)
(3.4613059e-06 9.2627583e-07 1.0126673e-23)
(3.3328104e-06 8.783683e-07 -1.0336788e-23)
(3.3253181e-06 8.6725337e-07 -8.2386868e-28)
(3.3481065e-06 8.6579214e-07 1.9551777e-37)
(3.3756508e-06 8.5213294e-07 -5.8774718e-39)
(3.3866499e-06 8.4016452e-07 1.1169161e-20)
(3.4075114e-06 8.3050801e-07 -1.1301153e-20)
(3.4149041e-06 8.1832359e-07 -1.1458027e-20)
(3.4261297e-06 8.133254e-07 1.1587876e-20)
(3.437186e-06 8.0188372e-07 0)
(3.4422845e-06 7.947564e-07 5.8774718e-39)
(3.4541409e-06 7.8155401e-07 -1.1923051e-20)
(3.4606939e-06 7.731772e-07 -2.3569251e-23)
(3.4709148e-06 7.5650056e-07 1.2187541e-20)
(3.4800403e-06 7.4925137e-07 1.2281018e-20)
(3.483193e-06 7.2606587e-07 -1.239467e-20)
(3.4897905e-06 7.2046364e-07 -1.2515816e-20)
(3.4887186e-06 6.9601949e-07 -2.4750679e-23)
(3.4923016e-06 6.8719681e-07 2.2830608e-27)
(3.4888885e-06 6.6930404e-07 -2.518007e-23)
(3.4873867e-06 6.5256485e-07 2.5389023e-23)
(3.484184e-06 6.4133967e-07 1.3093514e-20)
(3.4741424e-06 6.1694467e-07 5.1755971e-23)
(3.4700524e-06 6.0475658e-07 1.3326441e-20)
(3.4555636e-06 5.8350434e-07 -1.3455867e-20)
(3.441404e-06 5.579681e-07 -1.3569072e-20)
(3.4322503e-06 5.3994303e-07 -1.3702393e-20)
(3.3985125e-06 5.0660449e-07 -1.3801837e-20)
(3.3844453e-06 4.804819e-07 -1.3898256e-20)
(3.3606677e-06 4.5864577e-07 5.479494e-23)
(3.3011318e-06 4.1460825e-07 -2.0721475e-27)
(3.2926895e-06 3.8561417e-07 1.4181639e-20)
(3.2454006e-06 3.5658374e-07 -5.8774718e-39)
(3.1626815e-06 3.0597722e-07 -7.1857856e-21)
(3.1434649e-06 2.7025803e-07 -5.6933431e-23)
(3.07748e-06 2.3575864e-07 7.3328632e-21)
(2.96682e-06 1.8516555e-07 7.3528592e-21)
(2.9140962e-06 1.4021382e-07 1.1650438e-22)
(2.8288734e-06 9.6173414e-08 7.4424576e-21)
(2.697823e-06 4.0179977e-08 7.0823535e-37)
(2.5597358e-06 -1.8479605e-08 5.9577149e-23)
(2.5082746e-06 -6.9620808e-08 -7.670311e-21)
(2.3144941e-06 -1.2137848e-07 -7.8670142e-21)
(2.0688919e-06 -2.1309601e-07 -7.7378638e-21)
(2.0262744e-06 -2.589206e-07 -1.4693679e-39)
(1.7874365e-06 -3.3586796e-07 6.8804876e-40)
(1.4645503e-06 -4.2948047e-07 3.5127077e-39)
(1.1951795e-06 -5.0138755e-07 -6.2632269e-23)
(1.1483336e-06 -5.8249024e-07 8.228564e-21)
(6.8854974e-07 -6.7313778e-07 -8.1427843e-21)
(1.493633e-07 -8.0669785e-07 -6.4117608e-23)
(6.0251183e-08 -8.9796296e-07 -8.9683102e-43)
(-2.1797496e-07 -1.0138903e-06 -6.502881e-23)
(-7.651796e-07 -1.1204805e-06 8.4410099e-21)
(-1.2916834e-06 -1.233787e-06 -6.5894043e-23)
(-1.4579971e-06 -1.3335745e-06 6.6116874e-23)
(-1.839394e-06 -1.4514141e-06 6.9485032e-38)
(-2.4602922e-06 -1.55926e-06 -3.6734198e-40)
(-2.9910116e-06 -1.670004e-06 6.6997034e-23)
(-3.2517848e-06 -1.7885719e-06 -6.7596e-23)
(-3.6998004e-06 -1.9211583e-06 -6.7764776e-23)
(-4.4878406e-06 -2.0331052e-06 8.769665e-21)
(-5.1383329e-06 -2.1483748e-06 -1.55753e-37)
(-5.4407537e-06 -2.280209e-06 -8.0815237e-39)
(-5.8777436e-06 -2.4460197e-06 -4.3529368e-21)
(-6.9595356e-06 -2.5488432e-06 -8.7200083e-27)
(-7.9348311e-06 -2.6501251e-06 -8.5558474e-27)
(-8.195012e-06 -2.7822956e-06 -9.0391998e-21)
(-8.4564938e-06 -2.99762e-06 -7.0328165e-23)
(-9.7683946e-06 -3.0806216e-06 1.4073856e-22)
(-1.1249329e-05 -3.1320932e-06 -4.6736049e-21)
(-1.140553e-05 -3.2720075e-06 -4.4052268e-21)
(-1.1776556e-05 -3.4531231e-06 -1.0394868e-26)
(-1.265172e-05 -3.5884337e-06 -1.4357124e-22)
(-1.4164528e-05 -3.6196827e-06 7.1832811e-23)
(-1.4944401e-05 -3.7003889e-06 7.2448399e-23)
(-1.5233765e-05 -3.84501e-06 4.5816348e-21)
(-1.5539214e-05 -4.0750283e-06 9.3604743e-21)
(-1.6979918e-05 -4.1057881e-06 -4.6941758e-21)
(-1.8489666e-05 -4.1038021e-06 9.2085817e-27)
(-1.8617307e-05 -4.2647364e-06 3.7046309e-23)
(-1.9042743e-05 -4.4425103e-06 -3.7250208e-23)
(-1.9771955e-05 -4.613194e-06 4.7793418e-21)
(-2.1384271e-05 -4.606679e-06 -4.8054519e-21)
(-2.2513209e-05 -4.6414974e-06 -3.764099e-23)
(-2.274865e-05 -4.8111867e-06 -4.8112294e-21)
(-2.3091497e-05 -5.0521463e-06 4.8839848e-21)
(-2.428349e-05 -5.1564738e-06 -1.4693679e-38)
(-2.6275882e-05 -5.0701782e-06 -4.8713699e-21)
(-2.7169616e-05 -5.122193e-06 9.7827778e-21)
(-2.7399366e-05 -5.2986621e-06 -4.9144095e-21)
(-2.7652587e-05 -5.5870301e-06 3.9048066e-23)
(-2.918135e-05 -5.621505e-06 -5.0348921e-21)
(-3.1540363e-05 -5.4348953e-06 -1.8514036e-37)
(-3.2283087e-05 -5.4888995e-06 2.5199665e-21)
(-3.2461496e-05 -5.6708551e-06 2.5696336e-21)
(-3.2667282e-05 -5.9676527e-06 2.5533252e-21)
(-3.4156929e-05 -6.0014082e-06 2.5157726e-21)
(-3.6646368e-05 -5.7621321e-06 -2.5168598e-21)
(-3.7532574e-05 -5.783204e-06 -1.1525335e-26)
(-3.7658136e-05 -5.9676412e-06 2.5470798e-21)
(-3.7872827e-05 -6.2357133e-06 0)
(-3.8985944e-05 -6.352151e-06 4.669261e-39)
(-4.1507428e-05 -6.079839e-06 -1.5869174e-37)
(-4.293e-05 -5.9862328e-06 -2.6319442e-21)
(-4.2964513e-05 -6.1673773e-06 2.6466476e-21)
(-4.3213207e-05 -6.3742971e-06 -2.6589868e-21)
(-4.3623212e-05 -6.6691378e-06 4.1926577e-23)
(-4.6048976e-05 -6.40065e-06 -6.462615e-27)
(-4.8349262e-05 -6.125892e-06 -2.7285883e-21)
(-4.8191433e-05 -6.3448899e-06 5.417241e-21)
(-4.853309e-05 -6.5001978e-06 2.6789973e-21)
(-4.876786e-05 -6.7877526e-06 4.282461e-23)
(-5.0353507e-05 -6.7352279e-06 4.2962836e-23)
(-5.2737327e-05 -6.4512849e-06 -8.5996262e-23)
(-5.3471641e-05 -6.4982065e-06 -2.7267194e-21)
(-5.3758116e-05 -6.6451283e-06 -1.0101905e-37)
(-5.4086759e-05 -6.8397845e-06 -5.6011073e-21)
(-5.4554176e-05 -7.106646e-06 2.778884e-21)
(-5.6737619e-05 -6.8740774e-06 8.8256357e-23)
(-5.8897677e-05 -6.6388624e-06 -4.4236397e-23)
(-5.8906052e-05 -6.8505141e-06 2.8550801e-21)
(-5.9337926e-05 -6.9967536e-06 -4.4844681e-23)
(-5.9556568e-05 -7.2946241e-06 9.0139313e-23)
(-6.0780695e-05 -7.3981802e-06 -2.9485499e-21)
(-6.384544e-05 -6.9612711e-06 1.4495215e-21)
(-6.5734833e-05 -6.7682501e-06 1.4082013e-21)
(-6.5635832e-05 -6.984377e-06 1.5124672e-21)
(-6.58229e-05 -7.1808779e-06 1.5203422e-21)
(-6.5719567e-05 -7.6213034e-06 1.436582e-21)
(-6.7841602e-05 -7.5006384e-06 1.4881869e-21)
(-7.226595e-05 -6.7174259e-06 -4.6352329e-23)
(-7.3878349e-05 -6.5296684e-06 4.6480976e-23)
(-7.3437011e-05 -6.7684712e-06 -4.6905066e-23)
(-7.3333685e-05 -6.9838818e-06 1.5101428e-21)
(-7.2932545e-05 -7.4678511e-06 9.4997283e-23)
(-7.5272882e-05 -7.2441715e-06 1.523274e-21)
(-8.0334962e-05 -6.2562162e-06 -1.5651299e-21)
(-8.1928459e-05 -6.017711e-06 1.5216126e-21)
(-8.1181576e-05 -6.2792152e-06 2.8698593e-42)
(-8.108211e-05 -6.4276434e-06 1.545786e-21)
(-8.0835511e-05 -6.7358406e-06 -9.9182336e-39)
(-8.2019137e-05 -6.7259597e-06 -1.5129983e-21)
(-8.5428251e-05 -6.1000761e-06 -4.883053e-23)
(-8.7192729e-05 -5.8442902e-06 4.8973679e-23)
(-8.668348e-05 -6.0746098e-06 -4.9131615e-27)
(-8.6864737e-05 -6.163304e-06 -4.9707105e-23)
(-8.7032009e-05 -6.3060731e-06 1.54915e-38)
(-8.7431229e-05 -6.4463268e-06 2.5108061e-23)
(-8.8857726e-05 -6.3119967e-06 -2.5237788e-23)
(-9.0200283e-05 -6.2240718e-06 -7.8597882e-22)
(-9.0291961e-05 -6.3937571e-06 -2.548258e-23)
(-9.07083e-05 -6.4886865e-06 8.2032358e-22)
(-9.0752975e-05 -6.7094836e-06 3.6734198e-40)
(-9.0564864e-05 -7.1145183e-06 -8.5801355e-22)
(-9.3299069e-05 -6.7556012e-06 8.5613457e-22)
(-9.746823e-05 -6.099313e-06 -1.6367884e-21)
(-9.7602329e-05 -6.261099e-06 -5.2213173e-23)
(-9.7101877e-05 -6.5045647e-06 -8.1439316e-22)
(-9.6450354e-05 -6.7977742e-06 -8.2005768e-22)
(-9.4322428e-05 -7.6330993e-06 8.5643059e-22)
(-9.4787804e-05 -8.3617876e-06 8.3178148e-22)
(-0.00010938689 -5.7942086e-06 -2.6038533e-23)
(-0.00012067907 -2.6781316e-06 -3.8757959e-22)
(-0.00011357465 -4.1117031e-06 2.6069408e-23)
(-0.00011136471 -4.3550643e-06 -2.6411982e-23)
(-0.00010773034 -5.1283819e-06 2.6717418e-23)
(-0.00010282122 -6.6307508e-06 -2.7150599e-23)
(-0.00011032174 -5.6916679e-06 4.2629285e-22)
(-0.00013599789 4.3532983e-07 4.4769804e-40)
(-0.00014499574 3.3069468e-06 -2.260796e-22)
(-0.00013281716 1.2687073e-06 -7.6439901e-23)
(-0.00012841761 9.0636313e-07 -1.1335944e-40)
(-0.00012166808 -2.8128618e-07 0)
(-0.0001135001 -2.5038631e-06 1.477932e-46)
(-0.00012697234 -2.4718755e-07 3.4713102e-28)
(-0.000157418 8.6611693e-06 -1.6213023e-42)
(-0.00015953281 1.0649016e-05 -9.9182336e-39)
(-0.0001477609 8.4450078e-06 -7.999524e-22)
(-0.00014171258 7.7586004e-06 3.6734198e-39)
(-0.00013417089 6.4435284e-06 8.3333196e-22)
(-0.00012601715 4.4683366e-06 -3.5815844e-39)
(-0.00013564398 6.1304786e-06 2.5879627e-23)
(-0.00016075882 1.4369045e-05 -2.4730125e-23)
(-0.00016303339 1.6456165e-05 -8.1026504e-22)
(-0.0001508477 1.3961444e-05 5.0002103e-23)
(-0.00014429882 1.3061018e-05 -2.559527e-23)
(-0.00013640616 1.1599342e-05 8.637477e-22)
(-0.00012635954 9.506425e-06 8.6204875e-22)
(-0.00012985154 1.0290765e-05 -2.6388227e-23)
(-0.00016471341 2.029009e-05 -7.5173271e-22)
(-0.00018061131 2.7511468e-05 1.7821009e-26)
(-0.00016015114 2.2528306e-05 -2.428684e-23)
(-0.00015258274 2.1455469e-05 -2.2040519e-39)
(-0.00014457835 1.9911013e-05 1.6714186e-21)
(-0.00013518557 1.7893523e-05 -2.6389627e-23)
(-0.00012847635 1.6502646e-05 -1.7168916e-21)
(-0.0001512852 2.3019294e-05 -1.2439638e-23)
(-0.00017488316 3.2231416e-05 1.2112027e-23)
(-0.00016214112 2.9760728e-05 4.2628889e-38)
(-0.000152376 2.7719547e-05 0)
(-0.00014487668 2.6185144e-05 0)
(-0.00013820864 2.4704282e-05 -1.681944e-21)
(-0.00013053805 2.2921303e-05 1.7930881e-38)
(-0.00012839702 2.2658541e-05 -1.7095544e-21)
(-0.00014863562 2.9200451e-05 1.6125142e-21)
(-0.00016084571 3.5008822e-05 1.5840673e-21)
(-0.00014484012 3.057702e-05 0)
(-0.00013895408 2.945521e-05 5.2994765e-27)
(-0.00013227091 2.7848038e-05 1.7279339e-21)
(-0.00012634006 2.6342632e-05 1.7548102e-21)
(-0.00011930236 2.4648194e-05 -1.4052873e-23)
(-0.00011923076 2.5206766e-05 -1.7889677e-21)
(-0.0001427366 3.2895292e-05 1.6475902e-21)
(-0.00015567683 3.9220065e-05 4.5917748e-41)
(-0.00013868813 3.4203807e-05 1.6451581e-21)
(-0.00013306158 3.3031477e-05 1.3376227e-23)
(-0.0001264908 3.1313872e-05 4.5616764e-27)
(-0.00012118706 2.9858036e-05 1.400806e-23)
(-0.0001153431 2.8361797e-05 1.8199803e-21)
(-0.00011359378 2.8546837e-05 -2.9387359e-39)
(-0.00012829994 3.3599279e-05 -1.3407965e-23)
(-0.00014148701 3.9317354e-05 1.3276372e-23)
(-0.00013262296 3.7156887e-05 -1.6944422e-21)
(-0.00012541724 3.5217454e-05 -1.3739119e-23)
(-0.0001198098 3.369071e-05 1.4083948e-23)
(-0.00011496883 3.2279657e-05 1.8277823e-21)
(-0.00011046522 3.0888809e-05 -5.8774718e-38)
(-0.00010641422 2.9994958e-05 2.4905891e-45)
(-0.00010813359 3.1348762e-05 5.7513773e-40)
(-0.00012170209 3.6216444e-05 0)
(-0.00012748653 3.9406059e-05 -1.7856357e-21)
(-0.00011642281 3.5804277e-05 -3.176342e-27)
(-0.00011225377 3.4696885e-05 -2.9973332e-27)
(-0.00010728501 3.3180691e-05 2.9843715e-23)
(-0.0001032829 3.1925458e-05 -3.0491964e-23)
(-9.9516747e-05 3.0684721e-05 1.5560559e-23)
(-9.6401687e-05 2.9997846e-05 -4.0448801e-21)
(-9.9340633e-05 3.2053981e-05 1.9612826e-21)
(-0.00011484234 3.7564225e-05 6.6121557e-39)
(-0.00012194184 4.1549864e-05 1.8165755e-21)
(-0.00011041319 3.7575917e-05 -2.9387359e-39)
(-0.00010677806 3.6572702e-05 3.849935e-21)
(-0.00010225775 3.5105655e-05 -2.9387359e-38)
(-9.8866056e-05 3.39899e-05 0)
(-9.5762895e-05 3.2950787e-05 -1.0210395e-21)
(-9.3330701e-05 3.2251689e-05 1.0366824e-21)
(-9.318114e-05 3.2722132e-05 -4.4081038e-39)
(-9.8904008e-05 3.5113387e-05 7.7370542e-24)
(-0.00010519127 3.8018962e-05 9.7365147e-22)
(-0.00010249431 3.746779e-05 9.8571598e-22)
(-9.7537525e-05 3.5769648e-05 -5.8774718e-39)
(-9.4421455e-05 3.4728336e-05 -1.0312956e-21)
(-9.1403415e-05 3.3685614e-05 -1.9101783e-38)
(-8.8834389e-05 3.2794323e-05 -2.9387359e-39)
(-8.6663531e-05 3.2043159e-05 1.084036e-21)
(-8.5148955e-05 3.1636129e-05 -8.5567317e-24)
(-8.551499e-05 3.2253478e-05 1.0998618e-21)
(-8.9958616e-05 3.4312655e-05 -1.6370164e-23)
(-9.4747096e-05 3.6439954e-05 8.1264607e-24)
(-9.2730973e-05 3.5947363e-05 -4.08416e-24)
(-8.8574222e-05 3.4455908e-05 1.0789854e-21)
(-8.5917208e-05 3.3512427e-05 3.4515618e-28)
(-8.3256129e-05 3.2541078e-05 -4.3451268e-24)
(-8.096345e-05 3.1708396e-05 -1.1311559e-21)
(-7.912246e-05 3.1028431e-05 2.2977835e-21)
(-7.7962743e-05 3.0641727e-05 -1.1754944e-38)
(-7.7754965e-05 3.0945377e-05 0)
(-8.0773438e-05 3.3077578e-05 2.2229323e-21)
(-8.926375e-05 3.6606436e-05 4.0891853e-24)
(-9.4035711e-05 3.8991885e-05 1.0453536e-21)
(-8.8067276e-05 3.6752244e-05 4.2030522e-24)
(-8.5613984e-05 3.5888491e-05 -2.9387359e-39)
(-8.2847778e-05 3.485004e-05 -1.1221013e-21)
(-8.074782e-05 3.4050678e-05 2.080086e-28)
(-7.8811564e-05 3.3320882e-05 -2.2654854e-24)
(-7.7222934e-05 3.2739672e-05 -4.017803e-41)
(-7.6015647e-05 3.2330409e-05 1.6794416e-38)
(-7.5331286e-05 3.2203639e-05 0)
(-7.5667299e-05 3.2679142e-05 1.7749849e-27)
(-7.7837144e-05 3.3891078e-05 8.0109431e-41)
(-8.0321953e-05 3.5033767e-05 0)
(-7.9426176e-05 3.4689134e-05 -5.7909571e-22)
(-7.6705266e-05 3.3618309e-05 5.8932045e-22)
(-7.5056956e-05 3.2971319e-05 1.1714889e-24)
(-7.3340518e-05 3.2285803e-05 6.098331e-22)
(-7.1879362e-05 3.1704098e-05 -1.2044475e-24)
(-7.0559197e-05 3.1194046e-05 -6.2467112e-22)
(-6.9512485e-05 3.0815334e-05 -2.94309e-29)
(-6.8868919e-05 3.0601907e-05 -1.2700676e-21)
(-6.8682276e-05 3.0657931e-05 6.3402881e-22)
(-6.9118922e-05 3.1204418e-05 0)
(-7.1088365e-05 3.2541477e-05 -1.4560227e-25)
(-7.4664368e-05 3.4138263e-05 1.45221e-25)
(-7.6096239e-05 3.4693119e-05 -2.9387359e-39)
(-7.249349e-05 3.327271e-05 6.1300839e-22)
(-7.1171829e-05 3.2743486e-05 -6.2424616e-22)
(-6.9350741e-05 3.1995775e-05 3.0958748e-25)
(-6.7968383e-05 3.1421522e-05 0)
(-6.6641916e-05 3.0876157e-05 6.3644805e-25)
(-6.5522362e-05 3.0427207e-05 2.5221469e-29)
(-6.461258e-05 3.0077921e-05 -6.504368e-25)
(-6.4008081e-05 2.9875e-05 6.7103248e-22)
(-6.3764467e-05 2.9880132e-05 -6.7140347e-22)
(-6.391937e-05 3.0166154e-05 1.3355321e-21)
(-6.4706428e-05 3.0907312e-05 -1.2844e-24)
(-6.6636899e-05 3.2126729e-05 1.2568514e-24)
(-6.9038272e-05 3.3180144e-05 -3.1859552e-22)
(-6.9179028e-05 3.3099424e-05 0)
(-6.631827e-05 3.1942387e-05 6.5359572e-22)
(-6.4886868e-05 3.1332189e-05 1.3037014e-24)
(-6.315943e-05 3.0583581e-05 -3.4114625e-22)
(-6.1752754e-05 2.9959541e-05 1.3493257e-24)
(-6.038768e-05 2.9352516e-05 3.5077908e-22)
(-5.9161558e-05 2.8805098e-05 -3.5737643e-22)
(-5.8052244e-05 2.8300363e-05 1.409508e-24)
(-5.7079408e-05 2.7860076e-05 1.426612e-24)
(-5.6261845e-05 2.7512764e-05 -1.4418142e-24)
(-5.5643032e-05 2.7285965e-05 -7.4731135e-39)
(-5.5245382e-05 2.7201361e-05 -5.6051939e-45)
(-5.5089675e-05 2.7294675e-05 -1.9102949e-28)
(-5.5295688e-05 2.7632659e-05 -3.7318283e-22)
(-5.6056665e-05 2.8138759e-05 1.4363804e-24)
(-5.6913283e-05 2.840793e-05 3.6787977e-22)
(-5.6504788e-05 2.8074047e-05 2.9387359e-39)
(-5.4974216e-05 2.7453101e-05 -1.4707047e-24)
(-5.4174087e-05 2.7142382e-05 -3.7997632e-22)
(-5.3417147e-05 2.6881037e-05 1.9117777e-22)
(-5.3015822e-05 2.6812435e-05 3.0303738e-24)
(-5.2886833e-05 2.6895547e-05 -3.0270691e-24)
(-5.3078088e-05 2.7156089e-05 1.5037863e-24)
(-5.3610235e-05 2.7622812e-05 -5.8774718e-39)
(-5.4522334e-05 2.832525e-05 3.7469957e-22)
(-5.5845384e-05 2.9294534e-05 -3.6611161e-22)
(-5.7614801e-05 3.0569418e-05 1.7744355e-22)
(-5.9893189e-05 3.218642e-05 -1.71951e-22)
(-6.2723783e-05 3.4136055e-05 6.4221361e-25)
(-6.5988428e-05 3.638934e-05 1.5703733e-22)
(-6.9676976e-05 3.907307e-05 2.9838402e-22)
(-7.4589721e-05 4.2118051e-05 2.7678085e-25)
(-8.0517402e-05 4.4186876e-05 -1.0271934e-26)
(-8.219747e-05 4.543944e-05 -1.2824721e-22)
(-8.2943437e-05 5.1466284e-05 5.9086175e-26)
(-3.8756342e-05 -3.9888226e-06 0)
(-3.5732091e-05 -3.3297603e-06 -3.0696841e-24)
(-3.6684039e-05 -3.1909086e-06 3.0735822e-24)
(-3.514486e-05 -2.5022915e-06 -6.3030236e-21)
(-3.3451857e-05 -2.0509152e-06 2.4464976e-37)
(-3.2481288e-05 -1.6886662e-06 -3.0882242e-24)
(-3.0722005e-05 -1.2780983e-06 -6.3309498e-21)
(-2.9603507e-05 -1.1318082e-06 3.1684848e-21)
(-2.9470873e-05 -1.0997908e-06 3.1769714e-21)
(-2.9117402e-05 -1.0459312e-06 -3.1755374e-21)
(-2.8790298e-05 -1.0073203e-06 -3.1027051e-24)
(-2.8579663e-05 -9.904764e-07 -3.1783446e-21)
(-2.8584525e-05 -1.0041983e-06 1.5522392e-24)
(-2.870307e-05 -1.0049466e-06 3.1810254e-21)
(-2.8691521e-05 -9.7367763e-07 3.1797978e-21)
(-2.8732058e-05 -9.2936596e-07 -6.3603404e-21)
(-2.8448086e-05 -8.0864716e-07 -5.9967884e-30)
(-2.7959276e-05 -6.995062e-07 -3.1819073e-21)
(-2.7750847e-05 -6.2390034e-07 3.1828429e-21)
(-2.7540271e-05 -5.4056597e-07 -3.1835662e-21)
(-2.7116926e-05 -4.4068996e-07 -1.5922442e-21)
(-2.6823782e-05 -3.8781229e-07 -1.592739e-21)
(-2.6787451e-05 -3.3903778e-07 3.1867888e-21)
(-2.6509801e-05 -2.6207488e-07 -1.5559428e-24)
(-2.6261716e-05 -2.180499e-07 -7.9565877e-22)
(-2.635411e-05 -1.7921977e-07 -7.9729229e-22)
(-2.6039156e-05 -8.0306876e-08 3.9849672e-22)
(-2.5596658e-05 -1.608319e-08 -9.9654105e-23)
(-2.554811e-05 3.8629762e-08 -3.5873241e-42)
(-2.5128582e-05 1.268375e-07 7.9751318e-22)
(-2.475662e-05 1.6510402e-07 -1.5955064e-21)
(-2.4799593e-05 2.0157323e-07 -7.9784525e-22)
(-2.4565747e-05 2.6562839e-07 -1.5958437e-21)
(-2.4226251e-05 3.1254972e-07 -4.4540216e-39)
(-2.4190982e-05 3.6061001e-07 1.1479437e-41)
(-2.3739227e-05 4.4827566e-07 1.5958527e-21)
(-2.3209819e-05 4.8717963e-07 -3.1943671e-21)
(-2.3089927e-05 5.2983692e-07 3.1957604e-21)
(-2.2744472e-05 5.784065e-07 -3.1955163e-21)
(-2.2397301e-05 6.0745079e-07 -3.1962847e-21)
(-2.2264779e-05 6.424744e-07 -1.8724567e-37)
(-2.1938516e-05 6.9691839e-07 -3.1957198e-21)
(-2.1377518e-05 7.4399701e-07 -3.1982058e-21)
(-2.0890416e-05 7.8203309e-07 -3.2008216e-21)
(-2.0409741e-05 8.3254622e-07 1.5627139e-24)
(-1.9465806e-05 8.7670195e-07 -3.1266664e-24)
(-1.8479485e-05 8.7658242e-07 -1.2813393e-20)
(-1.7648792e-05 8.7256923e-07 -6.4112457e-21)
(-1.6647168e-05 8.242085e-07 -1.2196902e-41)
(-1.5953221e-05 7.4754301e-07 -6.422569e-21)
(-1.5462472e-05 6.610216e-07 -2.7183213e-28)
(-1.5042764e-05 5.549244e-07 3.2158057e-21)
(-1.4599199e-05 4.2023961e-07 -3.2139232e-21)
(-1.4775544e-05 2.4564735e-07 -3.2143715e-21)
(-1.5299622e-05 8.1925729e-08 3.1390992e-24)
(-1.5598326e-05 -1.2700371e-07 -6.2779232e-24)
(-1.6213697e-05 -3.6621487e-07 3.13837e-24)
(-1.714304e-05 -6.3890549e-07 3.2096106e-21)
(-1.8243192e-05 -9.6426768e-07 3.1363082e-24)
(-1.9522894e-05 -1.3303411e-06 -6.4233373e-21)
(-2.0919435e-05 -1.7373541e-06 3.1333362e-24)
(-2.2651504e-05 -2.1977251e-06 -1.2829018e-20)
(-2.434796e-05 -2.7148639e-06 3.1290691e-24)
(-2.7295637e-05 -3.3744756e-06 1.2796535e-20)
(-2.962664e-05 -4.1509739e-06 -1.2780543e-20)
(-3.7234852e-05 -5.135545e-06 6.2343763e-24)
(-3.1356811e-05 -5.3216474e-06 1.271851e-20)
(-6.8628052e-05 -1.1108206e-05 3.0085309e-37)
(-5.6070337e-05 6.4073953e-06 6.0580266e-21)
(-0.00011944226 -8.7181962e-05 -9.2980506e-22)
(-8.9050851e-05 -5.6693963e-05 3.4061734e-23)
(-9.012617e-05 -5.4441461e-05 -6.993448e-27)
(-0.00010388104 -6.0909554e-05 -3.6573399e-21)
(-0.00015993465 -0.00010052408 1.5421882e-21)
(-0.00013490506 -6.3969662e-05 -1.5045006e-21)
(-1.7882569e-05 2.2849652e-06 -1.1754944e-38)
(-1.625347e-05 2.7880865e-07 4.5163228e-21)
(-2.1477716e-05 -3.926767e-06 6.0978769e-38)
(7.2259028e-06 5.3828626e-06 3.7675974e-21)
(6.6443786e-07 3.76091e-06 1.8140314e-26)
(-1.2890786e-05 1.2786529e-07 1.1606283e-26)
(-2.0887061e-05 -1.6380091e-06 -2.0227367e-23)
(-3.0712809e-05 -4.1272279e-06 -4.6344212e-21)
(-3.661951e-05 -5.364248e-06 -4.2214499e-21)
(-3.6938312e-05 -5.0794419e-06 -3.8743114e-21)
(-3.7235129e-05 -5.1544327e-06 -1.4005804e-23)
(-4.2127861e-05 -6.231773e-06 -6.4625699e-24)
(-3.9863392e-05 -4.8926158e-06 -6.0179256e-21)
(-3.6461954e-05 -4.3397331e-06 5.5371227e-24)
(-4.0467761e-05 -5.1423822e-06 5.3789881e-21)
(-2.3936851e-06 -1.6566949e-05 5.4183138e-22)
(-3.1942302e-06 -2.1673128e-05 0)
(-4.5204236e-06 -2.9811645e-05 1.0089048e-21)
(-6.8363097e-06 -4.0520084e-05 -9.5577597e-22)
(-9.9058721e-06 -4.3731134e-05 -9.1370769e-22)
(-1.0754126e-05 -4.6249868e-05 8.777126e-22)
(-1.3411865e-05 -5.5734968e-05 -2.2040519e-39)
(-1.6322872e-05 -6.5252649e-05 2.3881279e-23)
(-2.300098e-05 -9.1584223e-05 -7.0353862e-22)
(-3.3511646e-05 -9.4760824e-05 -4.2277995e-23)
(-3.2636733e-05 -7.3448337e-05 4.3300615e-27)
(-3.3170586e-05 -6.9270809e-05 -1.4307084e-21)
(-3.9246536e-05 -8.044981e-05 1.3670667e-21)
(-4.8501714e-05 -9.7154877e-05 1.2498548e-21)
(-5.1353422e-05 -9.2878867e-05 2.9387359e-39)
(-5.0613975e-05 -8.7252832e-05 2.4351317e-21)
(-5.9415924e-05 -9.9965707e-05 -1.0758401e-26)
(-6.8834943e-05 -0.00011175332 3.1104667e-23)
(-9.9146521e-05 -0.00016537473 -3.4757205e-21)
(-0.00010027329 -0.00012893637 -2.738909e-23)
(-6.4774557e-05 -6.7271462e-05 4.6199217e-21)
(-6.9089335e-05 -6.8781205e-05 0)
(-8.5230676e-05 -8.5171359e-05 0)
(-0.00011218181 -0.00011461345 -9.1835496e-41)
(-0.00010068825 -9.0854782e-05 -2.9405455e-23)
(-7.2328637e-05 -5.609113e-05 3.6186854e-23)
(-7.9269775e-05 -5.982805e-05 2.2169357e-21)
(-9.2523294e-05 -6.9055695e-05 -1.9237453e-21)
(-0.00012596578 -9.8844508e-05 -2.9387359e-39)
(-4.9121907e-07 -8.254908e-06 3.522505e-23)
(-5.0954139e-07 2.9495922e-06 -6.2687593e-22)
(-9.233725e-07 9.212528e-06 3.6734198e-40)
(-1.9222912e-06 1.6895128e-05 7.3468397e-40)
(-3.774571e-06 2.212774e-05 -1.0091121e-21)
(-4.9973063e-06 2.6788908e-05 -9.2716451e-22)
(-6.1821097e-06 3.2406013e-05 -8.3678462e-22)
(-7.6047772e-06 3.9474067e-05 5.5101298e-40)
(-1.0259625e-05 4.6364218e-05 -6.0769711e-22)
(-1.1655457e-05 6.4371445e-05 4.3674321e-27)
(-1.8197936e-05 6.6859974e-05 1.1077074e-21)
(-2.1242939e-05 5.745526e-05 3.2326095e-38)
(-2.3164552e-05 5.6706355e-05 1.8007286e-23)
(-2.583767e-05 6.1903959e-05 -1.6356427e-23)
(-2.9186392e-05 6.7614371e-05 4.7524654e-22)
(-3.2768331e-05 7.9962239e-05 -4.3747013e-22)
(-3.6641075e-05 8.3856778e-05 -8.3694203e-22)
(-3.8291524e-05 7.7454076e-05 -4.4112884e-22)
(-3.9893982e-05 7.5545586e-05 -4.2273042e-22)
(-4.2795993e-05 7.8797794e-05 -3.7969676e-22)
(-4.6769453e-05 8.4420082e-05 3.4531006e-22)
(-5.1823682e-05 9.2891807e-05 -1.0015728e-23)
(-5.8554708e-05 0.00010097886 -5.4641773e-22)
(-6.6801235e-05 0.00012820583 2.5723625e-22)
(-7.2459251e-05 0.00013123282 -9.2957246e-24)
(-6.4396412e-05 8.4840728e-05 1.2552574e-23)
(-5.7703845e-05 6.5977792e-05 -4.7961271e-22)
(-5.6929612e-05 6.2749399e-05 -8.1018052e-24)
(-6.0855055e-05 6.3917718e-05 5.001896e-22)
(-6.6614469e-05 6.8883265e-05 -2.9387359e-39)
(-7.3358834e-05 7.6060377e-05 0)
(-8.153465e-05 8.8526741e-05 -2.9387359e-39)
(-8.7151006e-05 0.00010273995 3.7755365e-22)
(-7.9584109e-05 8.8607506e-05 7.0291357e-24)
(-6.5706329e-05 5.8291686e-05 -5.8747588e-22)
(-5.844331e-05 4.6718796e-05 6.9554508e-22)
(-5.627012e-05 4.2955286e-05 7.5419319e-22)
(-5.8136407e-05 4.2278219e-05 7.3677036e-22)
(-6.2216194e-05 4.5092614e-05 2.1936527e-23)
(-6.6827694e-05 4.9726619e-05 3.1476364e-22)
(-7.1627993e-05 5.5212045e-05 5.9976978e-22)
(-7.7158817e-05 6.0792966e-05 -5.8774718e-39)
(-8.4102047e-05 6.8576167e-05 -7.9138065e-24)
(-8.954996e-05 8.189852e-05 -2.5693978e-22)
(-8.1063454e-05 7.4052717e-05 6.2903491e-22)
(-6.2173675e-05 4.4873662e-05 -1.3000073e-23)
(-5.167611e-05 3.1595578e-05 -5.154725e-22)
(-4.665619e-05 2.5325077e-05 6.31135e-22)
(-4.4847885e-05 2.1607671e-05 -6.6807529e-22)
(-4.4428092e-05 2.0398354e-05 2.0979137e-23)
(-4.4953105e-05 2.0888646e-05 1.2955239e-21)
(-4.5652789e-05 2.2148138e-05 6.3873883e-22)
(-4.6943898e-05 2.3737427e-05 1.2304343e-21)
(-4.8920535e-05 2.5721519e-05 -1.8427252e-23)
(-5.1518924e-05 2.7770146e-05 1.7635191e-23)
(-5.4657094e-05 3.0066472e-05 2.6855994e-22)
(-5.8744324e-05 3.3147744e-05 1.5765045e-23)
(-6.0742543e-05 3.8110714e-05 -1.5311121e-23)
(-6.8253377e-05 2.346071e-05 2.1541458e-22)
)
;
    }
    Outlet
    {
        type            calculated;
        value           uniform (0 0 0);
    }
}


// ************************************************************************* //
