/*--------------------------------*- C++ -*----------------------------------*\
| =========                 |                                                 |
| \\      /  F ield         | OpenFOAM: The Open Source CFD Toolbox           |
|  \\    /   O peration     | Version:  v2006                                 |
|   \\  /    A nd           | Website:  www.openfoam.com                      |
|    \\/     M anipulation  |                                                 |
\*---------------------------------------------------------------------------*/
FoamFile
{
    version     2.0;
    format      ascii;
    class       volScalarField;
    location    "5000";
    object      yPlus;
}
// * * * * * * * * * * * * * * * * * * * * * * * * * * * * * * * * * * * * * //

dimensions      [0 0 0 0 0 0 0];


internalField   uniform 0;

boundaryField
{
    Side
    {
        type            empty;
    }
    Ground
    {
        type            calculated;
        value           nonuniform List<scalar> 
519
(
1.2016118
1.2101709
1.2197816
1.231703
1.245858
1.2625254
1.2806478
1.3002174
1.3274713
1.3585947
1.3626719
1.3986926
1.6047803
1.5883406
1.6687392
1.6176941
1.5711373
1.5257338
1.4822861
1.4407699
1.4012926
1.3640479
1.3292205
1.2971284
1.2681528
1.2426752
1.2213647
1.2059916
1.6966133
1.7004653
1.7037258
1.7065482
1.7088506
1.7106811
1.7118778
1.7122793
1.7117645
1.7102189
1.7075276
1.7035451
1.6980955
1.6909564
1.6818519
1.6704473
1.656342
1.6390619
1.6180543
1.5926991
1.562245
1.5260129
1.4830717
1.4321094
1.3724117
1.3021383
1.2196227
1.1239787
1.011098
0.87362577
0.69818393
0.4386241
0.2192093
0.57162798
0.77853346
0.94309953
1.0896417
1.2060053
1.2885356
1.3639508
1.4328837
1.4952587
1.5509371
1.6009227
1.6458789
1.6861588
1.7221071
1.7536914
1.7810367
1.8047706
1.8256026
1.8439921
1.8603559
1.8749246
1.8875752
1.8986363
1.9086647
1.917805
1.9260689
1.9335086
1.9402202
1.9463953
1.9520634
1.9571531
1.9617096
1.9658187
1.9695402
1.9729147
1.9759831
1.9787763
1.9813368
1.9836604
1.9858399
1.9877276
1.7886099
1.7501177
1.7230877
1.7086359
1.6923081
1.678701
1.6667316
1.6568778
1.6483313
1.6409776
1.6345995
1.6292772
1.6247897
1.6209544
1.6176761
1.6147441
1.6121485
1.6097513
1.607513
1.6053338
1.6032427
1.6011101
1.5990042
1.5966897
1.5942709
1.5915607
1.5885263
1.5852424
1.581642
1.5778244
1.5734373
1.5684891
1.5631188
1.5572616
1.5511178
1.5443561
1.5367654
1.5287967
1.5201399
1.5104787
1.5000478
1.4884724
1.4758515
1.4626276
1.4487407
1.4337719
1.4175988
1.4000915
1.3810335
1.3607651
1.3401907
1.3198696
1.2985234
1.27674
1.2537376
1.2288706
1.2016329
1.1726757
1.1431565
1.1149097
1.0889144
1.0648433
1.0397805
1.0121084
0.97964085
0.94157047
0.89780671
0.85025272
0.79956992
0.74684643
0.70283493
0.6653277
0.63535716
0.60047264
0.56188626
0.51611906
0.46372754
0.41497317
0.39385943
0.41496985
0.45910681
0.50498322
0.54524767
0.58017962
0.61221721
0.64477947
0.67978938
0.71694354
0.75559927
0.79379637
0.82984399
0.86190634
0.88916599
0.91173379
0.93037383
0.94675755
0.9621078
0.9778745
0.99505404
1.0142345
1.0352219
1.056323
1.0761346
1.0932705
1.1073351
1.1189714
1.1287469
1.1378727
1.147564
1.1586815
1.1715963
1.1856188
1.1996901
1.212924
1.2245473
1.2345268
1.2431705
1.2510311
1.2595437
1.2696563
1.2817956
1.2953456
1.308824
1.3210939
1.3319404
1.3423181
1.3538314
1.3674377
1.3826318
1.3983963
1.4135571
1.4279734
1.442519
1.4579917
1.4744581
1.4914394
1.5081911
1.5246922
1.5414308
1.5584474
1.5755317
1.5924253
1.6089139
1.6252251
1.6415703
1.6575614
1.6728212
1.6871418
1.7007322
1.7144892
1.7286716
1.7425968
1.7559022
1.768518
1.7803219
1.7914726
1.8020988
1.8121514
1.8214648
1.8300151
1.8377747
1.8448109
1.8514595
1.8578886
1.8636313
1.8685505
1.8726849
1.876058
1.8789602
1.8824497
1.8863593
1.8892998
1.8916846
1.8933488
1.8944106
1.8957805
1.8985433
1.9015736
1.9037447
1.9054398
1.906619
1.907481
1.9089503
1.9118017
1.9147993
1.917357
1.9194914
1.9212071
1.9225946
1.9242632
1.9270481
1.9299803
1.9324598
1.9348023
1.9368507
1.9384528
1.9400522
1.943113
1.9472123
1.9507085
1.9541282
1.9571905
1.9598805
1.9621547
1.9652587
1.9696962
1.9738122
1.9776264
1.9810836
1.9843132
1.9873784
1.9902216
1.9935527
1.9977432
2.0017681
2.0054639
2.0085725
2.0117363
2.0147406
2.0173407
2.0206832
2.0248792
2.028534
2.0321091
2.0354173
2.0385566
2.0414808
2.0441474
2.047157
2.0508134
2.0542781
2.0575578
2.0606341
2.0635226
2.0662327
2.0687371
2.0710768
2.073786
2.0768625
2.0795856
2.0821827
2.0845596
2.0867475
2.0887804
2.0906982
2.0924865
2.0946563
2.0972623
2.0995297
2.1016965
2.1036752
2.1055067
2.1071868
2.1087188
2.1100962
2.1115147
2.1131625
2.1147713
2.1161998
2.117478
2.1185821
2.1195353
2.1203651
2.1210697
2.1216431
2.1222235
2.1229471
2.1236301
2.1241697
2.1245986
2.1249086
2.1251002
2.1251774
2.1251569
2.1250288
2.1247869
2.1246767
2.1247815
2.1247387
2.1246081
2.1243603
2.1240194
2.1235791
2.1230389
2.1224063
2.1216872
2.120869
2.120012
2.1191944
2.1183306
2.1173618
2.1163354
2.1152519
2.1141003
2.1128666
2.1115592
2.1101812
2.108736
2.1072256
2.1056564
2.1041357
2.1026711
2.1011021
2.0994822
2.0977903
2.096037
2.0942241
2.0923566
2.0904339
2.0884619
2.0864412
2.0843744
2.0822579
2.0801159
2.0780145
2.0759362
2.0737978
2.071617
2.0693875
2.0671186
2.0648063
2.0624532
2.0600643
2.0576397
2.0551785
2.0526857
2.0501644
2.0476114
2.0450297
2.0424374
2.0398603
2.0372812
2.0346678
2.0320297
2.0293659
2.02668
2.0239718
2.0212431
2.0184955
2.015727
2.0129314
2.0101082
2.007264
2.0044055
2.0015349
1.9986594
1.9957945
1.99292
1.9900273
0.95874149
0.98125393
1.0015911
1.0187932
1.0315933
1.0380429
1.0348361
1.0166158
0.97761297
0.91958536
0.86356596
0.84249619
0.86156119
0.89573472
0.93179413
0.9695676
1.0100543
1.0534081
1.0986528
1.1450058
1.1921059
1.2403488
1.290313
1.3425079
1.3984807
1.4594194
1.5250578
1.5936558
1.6629121
1.729754
1.7909032
1.8438867
1.8860695
1.9155924
1.9314243
1.9336955
1.9244218
1.906871
1.8853775
1.8628892
1.8420119
1.8284142
1.8180967
1.7999399
0.93513965
0.9127655
0.89293121
0.87509872
0.85874916
0.84349945
0.82915177
0.81561958
0.80287041
0.79089401
0.77969464
0.76925226
0.75955615
0.75054563
0.74223076
0.73448382
0.72740481
0.72061802
0.71480607
0.70847629
0.70445645
0.69710562
0.69663823
0.68668141
)
;
    }
    Inlet
    {
        type            calculated;
        value           uniform 0;
    }
    Airfoil
    {
        type            calculated;
        value           nonuniform List<scalar> 
527
(
1.5113727
1.7729139
1.8179955
1.6011646
1.579663
1.4881471
1.4263874
1.3784782
1.3554839
1.3388099
1.3252847
1.3081972
1.2933577
1.2762192
1.2592219
1.2432019
1.2257102
1.2105318
1.1940039
1.1795314
1.1638267
1.1495102
1.1336393
1.1192665
1.1037986
1.0884797
1.0735981
1.057662
1.0428444
1.0271968
1.0113205
0.99604908
0.98036471
0.96392624
0.94919706
0.93237883
0.9147319
0.90140986
0.88236622
0.86276312
0.84890612
0.82839124
0.80507832
0.78803068
0.76584724
0.73932225
0.71204891
0.69542568
0.659618
0.61832896
0.60434847
0.56085103
0.50540118
0.4559775
0.44517612
0.36492227
0.31690422
0.32856807
0.35719954
0.42717675
0.50031214
0.52168743
0.56632866
0.63170112
0.68281564
0.70340336
0.73881001
0.79888842
0.84491795
0.86049102
0.88483523
0.94844056
1.0050169
1.0118414
1.0196212
1.0801597
1.1543822
1.1531182
1.1616706
1.1917652
1.252423
1.279512
1.2810888
1.2838934
1.3280692
1.3825174
1.3766107
1.3813137
1.3959979
1.4419145
1.474108
1.4708519
1.4713404
1.4964107
1.550728
1.5709958
1.5667403
1.5637374
1.5937306
1.6542905
1.668106
1.6621087
1.6573558
1.6827866
1.7405591
1.7572937
1.7500182
1.7451583
1.7598634
1.8107685
1.8403992
1.8313649
1.827
1.8263053
1.8665536
1.9156559
1.9033281
1.9007296
1.8964283
1.9169091
1.9601662
1.9688472
1.9652083
1.9624563
1.9624003
1.9923842
2.0308541
2.0226447
2.0216122
2.0172907
2.0293898
2.0762613
2.1080232
2.0986762
2.0939458
2.085157
2.1101876
2.1807521
2.2081319
2.1946146
2.186216
2.173924
2.2010043
2.2791087
2.3065062
2.2899872
2.2825774
2.2733565
2.2838245
2.3303092
2.3572167
2.3449548
2.3419996
2.3389183
2.3389945
2.3530657
2.3692359
2.3653601
2.3657102
2.3613399
2.3542609
2.3840326
2.4416686
2.4427178
2.4320932
2.4196179
2.3891071
2.3915375
2.5706603
2.7430622
2.6585185
2.6301623
2.5845835
2.5235764
2.6112236
2.936988
3.0858954
2.9537561
2.9052681
2.8283071
2.7327293
2.8910276
3.2798819
3.3489091
3.2264209
3.1641261
3.0824162
2.9906412
3.1080925
3.43086
3.4980029
3.370526
3.3035913
3.2179737
3.1025062
3.152789
3.5868432
3.8313007
3.614933
3.5396123
3.4550496
3.3495459
3.2744457
3.5693513
3.8999895
3.7770646
3.6741778
3.5949395
3.5227698
3.4343774
3.4182354
3.6982082
3.8917821
3.7036589
3.6418272
3.5656937
3.4967345
3.4094976
3.4225691
3.7665675
3.970684
3.7592395
3.6976817
3.6188597
3.5552039
3.48135
3.4700578
3.7063055
3.9147289
3.8047891
3.7149329
3.6454358
3.5846381
3.5266484
3.4755979
3.5204039
3.75184
3.8511499
3.6930628
3.641317
3.5734772
3.5192603
3.4669475
3.4263717
3.4965279
3.7746408
3.8900223
3.7145306
3.6681126
3.6035385
3.5566465
3.5133136
3.4817908
3.4944043
3.6152022
3.7334951
3.6904787
3.6134218
3.56852
3.523775
3.4862654
3.4554884
3.4378225
3.459904
3.5630136
3.6580806
3.6212231
3.5514042
3.5098907
3.4668348
3.4301731
3.401954
3.3880967
3.3972733
3.4798956
3.6702375
3.7450887
3.6326691
3.5939288
3.5472952
3.5133929
3.4821756
3.45788
3.4416675
3.4375178
3.457843
3.5193766
3.5752965
3.5530569
3.5021934
3.4746326
3.4447548
3.4200854
3.3982832
3.3826535
3.376432
3.3820283
3.4048657
3.465643
3.5593765
3.5720554
3.4966664
3.4738555
3.4385742
3.4130595
3.3884555
3.3685853
3.3537309
3.3466009
3.3492428
3.3633384
3.395435
3.4562861
3.517066
3.5014581
3.4374469
3.4082613
3.3709248
3.3409547
3.3114935
3.2851254
3.2613327
3.2409435
3.2248331
3.2144454
3.2107087
3.214613
3.2295742
3.2593043
3.2804181
3.2588421
3.2217174
3.2051402
3.1901472
3.1856361
3.1894096
3.2029802
3.2272173
3.2632741
3.3120136
3.3742762
3.4512402
3.543025
3.6459814
3.7593817
3.8961261
4.0428575
4.1021293
4.1607461
1.8232133
1.7424891
1.7571562
1.7091935
1.6600288
1.6290184
1.5781208
1.546271
1.5406712
1.5294681
1.5191972
1.5122301
1.5112208
1.513033
1.5112063
1.510685
1.5011854
1.4865944
1.4796898
1.4727919
1.4602517
1.4515369
1.449852
1.441621
1.4344053
1.4365564
1.427553
1.4152188
1.4138433
1.4022664
1.392068
1.3935621
1.3874099
1.3783108
1.3779228
1.3659314
1.3515042
1.3489544
1.3399628
1.3308055
1.3280377
1.3197963
1.304514
1.2912787
1.2783389
1.250871
1.2208522
1.1951041
1.1622942
1.1384923
1.1209408
1.1050066
1.0870561
1.0898088
1.1046637
1.1099355
1.1247435
1.1480301
1.1742695
1.2035263
1.2335118
1.270063
1.3019028
1.3614646
1.3983804
1.5531185
1.4090801
2.0094243
2.1713819
4.168693
3.4975458
3.4640059
3.6760058
4.5798398
3.8422684
1.2655458
1.2141575
1.3814129
0.85318664
0.49980339
1.0364261
1.3294585
1.6228193
1.7752999
1.7798053
1.7919727
1.9126403
1.8506084
1.7745619
1.8764166
1.2221184
1.393779
1.6322742
1.9151723
2.0307917
2.0865375
2.2907806
2.4792883
2.9406432
3.1161804
2.8068737
2.7473687
2.9744748
3.292562
3.2773378
3.2071114
3.4586101
3.6899274
4.503163
4.1505282
3.1596511
3.2499873
3.646672
4.2455619
3.8732763
3.2188999
3.3896443
3.6983766
4.416422
0.83105263
0.52930609
0.9938974
1.4082979
1.6507772
1.9011739
2.1793892
2.4993586
2.8101333
3.4182504
3.3350721
3.1744416
3.2573312
3.4961283
3.7501321
4.1608292
4.1357989
4.0551251
4.1053655
4.2794384
4.514421
4.8165264
5.1176672
5.7590652
4.8706705
4.1954894
3.8384402
3.8142525
3.9366792
4.1428492
4.3903593
4.730908
4.6996145
3.9940962
3.4693771
3.2172161
3.1512797
3.1970699
3.3251024
3.4831897
3.6521685
3.8286147
4.0448323
4.037797
3.3244139
2.8071581
2.498786
2.3486712
2.2821197
2.2678827
2.2912081
2.3268497
2.3782346
2.4468817
2.5270705
2.617116
2.7258582
2.8381529
2.8494825
)
;
    }
    Outlet
    {
        type            calculated;
        value           uniform 0;
    }
}


// ************************************************************************* //
