/*--------------------------------*- C++ -*----------------------------------*\
| =========                 |                                                 |
| \\      /  F ield         | OpenFOAM: The Open Source CFD Toolbox           |
|  \\    /   O peration     | Version:  v2006                                 |
|   \\  /    A nd           | Website:  www.openfoam.com                      |
|    \\/     M anipulation  |                                                 |
\*---------------------------------------------------------------------------*/
FoamFile
{
    version     2.0;
    format      ascii;
    class       volScalarField;
    location    "2000";
    object      alphat;
}
// * * * * * * * * * * * * * * * * * * * * * * * * * * * * * * * * * * * * * //

dimensions      [1 -1 -1 0 0 0 0];


internalField   nonuniform List<scalar> 
55713
(
2.91974e-10
2.8823979e-09
2.8888702e-08
6.9316446e-08
8.9613308e-08
9.5670532e-08
9.5902974e-08
9.505069e-08
9.4487996e-08
9.4282212e-08
9.4248758e-08
9.4260456e-08
9.4271843e-08
9.4276825e-08
9.4278491e-08
9.4279042e-08
9.4278128e-08
9.4276393e-08
9.4275961e-08
9.4277524e-08
9.4279055e-08
9.427931e-08
9.4278508e-08
9.4277668e-08
9.4276977e-08
9.4276834e-08
9.4276765e-08
9.4276748e-08
9.4276558e-08
9.4276412e-08
9.4276187e-08
9.4275981e-08
9.4275741e-08
9.4275624e-08
9.427568e-08
9.4276232e-08
9.4276211e-08
9.4275742e-08
9.4274934e-08
9.4274101e-08
9.4273347e-08
9.4272723e-08
9.4271918e-08
9.4270939e-08
9.4269833e-08
9.4268762e-08
9.426766e-08
9.4266653e-08
9.4265648e-08
9.4264689e-08
9.426366e-08
9.4262626e-08
9.4261494e-08
9.4260399e-08
9.4259267e-08
9.4258196e-08
9.4257072e-08
9.4255962e-08
9.4254682e-08
3.4914294e-10
4.1805432e-09
3.5929294e-08
7.6171054e-08
9.3054713e-08
9.6976112e-08
9.6596641e-08
9.576589e-08
9.5334426e-08
9.5209095e-08
9.5202592e-08
9.521625e-08
9.522427e-08
9.5226857e-08
9.5227735e-08
9.5227688e-08
9.5226048e-08
9.5223848e-08
9.5223197e-08
9.5224743e-08
9.5225858e-08
9.5225331e-08
9.522414e-08
9.5222953e-08
9.5221983e-08
9.5221531e-08
9.5221129e-08
9.522075e-08
9.5220236e-08
9.5219738e-08
9.5219185e-08
9.5218627e-08
9.5218049e-08
9.5217551e-08
9.5217238e-08
9.5217523e-08
9.5217313e-08
9.5216499e-08
9.5215338e-08
9.5214097e-08
9.5212953e-08
9.5211958e-08
9.5210821e-08
9.5209461e-08
9.5207955e-08
9.5206447e-08
9.5204908e-08
9.5203448e-08
9.5202e-08
9.5200559e-08
9.5199037e-08
9.5197466e-08
9.5195761e-08
9.5194029e-08
9.5192232e-08
9.5190426e-08
9.5188513e-08
9.5186516e-08
9.5184287e-08
4.3148786e-10
5.8739064e-09
4.3421021e-08
8.2289162e-08
9.5731971e-08
9.8041844e-08
9.7317086e-08
9.6573234e-08
9.626302e-08
9.6197385e-08
9.6205631e-08
9.6217889e-08
9.6222471e-08
9.6223203e-08
9.622353e-08
9.622293e-08
9.6220788e-08
9.6218112e-08
9.6217481e-08
9.621876e-08
9.6219165e-08
9.6218125e-08
9.6216573e-08
9.621507e-08
9.6213838e-08
9.6213113e-08
9.6212369e-08
9.6211675e-08
9.6210814e-08
9.6210005e-08
9.6209126e-08
9.6208251e-08
9.620734e-08
9.6206497e-08
9.6205805e-08
9.6205806e-08
9.6205495e-08
9.6204378e-08
9.6202871e-08
9.620125e-08
9.6199716e-08
9.6198381e-08
9.6196936e-08
9.6195236e-08
9.619334e-08
9.6191425e-08
9.6189472e-08
9.618761e-08
9.6185763e-08
9.6183899e-08
9.6181931e-08
9.6179885e-08
9.6177663e-08
9.6175357e-08
9.6172952e-08
9.617049e-08
9.6167866e-08
9.6165075e-08
9.6161969e-08
5.5130264e-10
8.1904364e-09
5.156628e-08
8.78025e-08
9.7966951e-08
9.8990053e-08
9.8091236e-08
9.7478213e-08
9.7276885e-08
9.7252718e-08
9.7266645e-08
9.7275038e-08
9.7276323e-08
9.727639e-08
9.7276411e-08
9.7275249e-08
9.7272603e-08
9.7269512e-08
9.7268949e-08
9.7269912e-08
9.726965e-08
9.7268135e-08
9.7266244e-08
9.7264443e-08
9.7262995e-08
9.7261999e-08
9.7260953e-08
9.7259959e-08
9.7258803e-08
9.7257711e-08
9.7256535e-08
9.7255357e-08
9.7254145e-08
9.725298e-08
9.7251938e-08
9.7251606e-08
9.7251292e-08
9.7249907e-08
9.7248089e-08
9.7246105e-08
9.7244203e-08
9.7242547e-08
9.7240836e-08
9.7238837e-08
9.7236583e-08
9.7234279e-08
9.7231948e-08
9.7229725e-08
9.7227535e-08
9.7225297e-08
9.7222935e-08
9.7220464e-08
9.7217782e-08
9.7214951e-08
9.721199e-08
9.7208931e-08
9.7205659e-08
9.720215e-08
9.7198241e-08
7.2596954e-10
1.1277119e-08
6.006634e-08
9.2556015e-08
9.9796287e-08
9.9877206e-08
9.8952592e-08
9.8489671e-08
9.8375059e-08
9.837536e-08
9.8388456e-08
9.8392106e-08
9.8391697e-08
9.8391614e-08
9.8391186e-08
9.8389472e-08
9.8386335e-08
9.8382961e-08
9.8382546e-08
9.8383087e-08
9.838216e-08
9.8380256e-08
9.837807e-08
9.8376007e-08
9.8374382e-08
9.8373118e-08
9.8371805e-08
9.8370529e-08
9.8369123e-08
9.8367777e-08
9.8366347e-08
9.8364905e-08
9.8363432e-08
9.8361973e-08
9.8360614e-08
9.8359932e-08
9.8359621e-08
9.8358073e-08
9.8355976e-08
9.8353658e-08
9.8351417e-08
9.8349466e-08
9.834754e-08
9.8345305e-08
9.8342738e-08
9.8340075e-08
9.8337412e-08
9.8334881e-08
9.8332406e-08
9.8329857e-08
9.8327166e-08
9.8324339e-08
9.832127e-08
9.8317983e-08
9.8314538e-08
9.8310966e-08
9.8307139e-08
9.8303013e-08
9.8298408e-08
9.8241666e-10
1.5328962e-08
6.8646384e-08
9.6141137e-08
1.013224e-07
1.0076632e-07
9.9925738e-08
9.9610199e-08
9.9557248e-08
9.9568472e-08
9.9576823e-08
9.957722e-08
9.9576119e-08
9.9575936e-08
9.9574916e-08
9.9572731e-08
9.9569122e-08
9.9565674e-08
9.956543e-08
9.9565455e-08
9.9563929e-08
9.9561673e-08
9.9559245e-08
9.9556978e-08
9.9555218e-08
9.9553708e-08
9.9552162e-08
9.9550633e-08
9.954902e-08
9.9547447e-08
9.9545806e-08
9.9544142e-08
9.9542457e-08
9.9540758e-08
9.9539132e-08
9.9538101e-08
9.953775e-08
9.95362e-08
9.9533857e-08
9.9531244e-08
9.9528696e-08
9.9526484e-08
9.9524394e-08
9.9521997e-08
9.9519183e-08
9.9516209e-08
9.9513263e-08
9.9510484e-08
9.9507785e-08
9.9504993e-08
9.9502042e-08
9.9498942e-08
9.9495572e-08
9.949192e-08
9.9488071e-08
9.9484084e-08
9.9479806e-08
9.9475184e-08
9.9470002e-08
1.3630021e-09
2.0558815e-08
7.6906514e-08
9.9024169e-08
1.0256379e-07
1.0169767e-07
1.0102901e-07
1.0084009e-07
1.0082504e-07
1.0083672e-07
1.0084053e-07
1.008389e-07
1.0083768e-07
1.0083734e-07
1.0083561e-07
1.0083303e-07
1.0082901e-07
1.0082578e-07
1.0082567e-07
1.0082512e-07
1.0082304e-07
1.0082049e-07
1.0081786e-07
1.0081549e-07
1.0081361e-07
1.0081192e-07
1.0081015e-07
1.0080844e-07
1.0080664e-07
1.008049e-07
1.0080308e-07
1.0080125e-07
1.007994e-07
1.0079752e-07
1.0079569e-07
1.0079436e-07
1.0079386e-07
1.0079255e-07
1.0078999e-07
1.0078713e-07
1.0078431e-07
1.0078188e-07
1.0077968e-07
1.0077721e-07
1.0077423e-07
1.0077102e-07
1.0076787e-07
1.0076491e-07
1.0076206e-07
1.0075911e-07
1.0075598e-07
1.0075269e-07
1.0074913e-07
1.0074522e-07
1.0074107e-07
1.0073679e-07
1.0073219e-07
1.0072721e-07
1.0072161e-07
1.9400691e-09
2.7192112e-08
8.5009844e-08
1.0204744e-07
1.0365965e-07
1.0274178e-07
1.0227459e-07
1.0217768e-07
1.0218226e-07
1.0218928e-07
1.0218965e-07
1.0218698e-07
1.0218601e-07
1.0218528e-07
1.0218283e-07
1.0217993e-07
1.0217566e-07
1.0217291e-07
1.0217289e-07
1.0217166e-07
1.0216914e-07
1.0216632e-07
1.0216359e-07
1.0216119e-07
1.0215924e-07
1.0215739e-07
1.0215549e-07
1.0215363e-07
1.0215171e-07
1.0214984e-07
1.021479e-07
1.0214596e-07
1.02144e-07
1.0214201e-07
1.0214005e-07
1.0213846e-07
1.021378e-07
1.0213687e-07
1.021342e-07
1.0213114e-07
1.0212811e-07
1.0212551e-07
1.0212328e-07
1.0212081e-07
1.0211779e-07
1.0211445e-07
1.021112e-07
1.0210813e-07
1.0210523e-07
1.021022e-07
1.0209899e-07
1.0209561e-07
1.0209199e-07
1.0208796e-07
1.0208364e-07
1.0207919e-07
1.0207444e-07
1.0206929e-07
1.0206344e-07
2.8591264e-09
3.5441678e-08
9.2217977e-08
1.0434079e-07
1.0476842e-07
1.0396107e-07
1.0366489e-07
1.0362618e-07
1.0363499e-07
1.0363738e-07
1.0363598e-07
1.0363298e-07
1.0363238e-07
1.0363105e-07
1.0362795e-07
1.0362484e-07
1.0362053e-07
1.0361855e-07
1.0361844e-07
1.0361654e-07
1.0361363e-07
1.0361062e-07
1.036079e-07
1.0360557e-07
1.0360359e-07
1.0360164e-07
1.0359968e-07
1.0359773e-07
1.0359578e-07
1.0359383e-07
1.0359185e-07
1.0358987e-07
1.0358787e-07
1.0358585e-07
1.0358383e-07
1.0358209e-07
1.0358131e-07
1.0358071e-07
1.035782e-07
1.03575e-07
1.0357182e-07
1.0356912e-07
1.0356695e-07
1.0356459e-07
1.0356167e-07
1.035583e-07
1.0355511e-07
1.0355203e-07
1.035492e-07
1.035462e-07
1.0354301e-07
1.0353967e-07
1.0353614e-07
1.0353217e-07
1.0352783e-07
1.0352341e-07
1.0351869e-07
1.0351357e-07
1.035077e-07
4.4543949e-09
4.54608e-08
9.8585873e-08
1.0633523e-07
1.0599411e-07
1.0535986e-07
1.0519733e-07
1.0519042e-07
1.0519653e-07
1.0519535e-07
1.0519333e-07
1.0519031e-07
1.0519012e-07
1.0518804e-07
1.0518444e-07
1.0518125e-07
1.0517718e-07
1.0517623e-07
1.0517575e-07
1.0517326e-07
1.0517004e-07
1.0516701e-07
1.0516443e-07
1.0516224e-07
1.0516029e-07
1.0515832e-07
1.0515639e-07
1.0515444e-07
1.0515253e-07
1.051506e-07
1.0514867e-07
1.0514673e-07
1.0514479e-07
1.0514282e-07
1.0514086e-07
1.0513908e-07
1.0513821e-07
1.0513794e-07
1.0513593e-07
1.0513265e-07
1.0512938e-07
1.0512669e-07
1.0512465e-07
1.0512255e-07
1.0511991e-07
1.0511662e-07
1.0511369e-07
1.0511072e-07
1.0510809e-07
1.0510528e-07
1.0510225e-07
1.050991e-07
1.0509583e-07
1.0509217e-07
1.0508801e-07
1.0508382e-07
1.0507939e-07
1.0507458e-07
1.0506897e-07
7.1609958e-09
5.727284e-08
1.0383565e-07
1.081046e-07
1.0738219e-07
1.0694843e-07
1.0687645e-07
1.0688107e-07
1.0688226e-07
1.0687931e-07
1.0687754e-07
1.0687458e-07
1.0687482e-07
1.0687201e-07
1.0686809e-07
1.0686494e-07
1.0686155e-07
1.0686177e-07
1.0686064e-07
1.0685761e-07
1.0685426e-07
1.0685144e-07
1.0684916e-07
1.0684718e-07
1.0684533e-07
1.0684346e-07
1.0684166e-07
1.0683982e-07
1.0683806e-07
1.0683624e-07
1.0683449e-07
1.0683269e-07
1.0683094e-07
1.0682912e-07
1.0682734e-07
1.0682567e-07
1.068248e-07
1.068248e-07
1.0682372e-07
1.0682046e-07
1.0681719e-07
1.0681464e-07
1.0681284e-07
1.0681111e-07
1.0680907e-07
1.0680595e-07
1.0680351e-07
1.0680078e-07
1.0679853e-07
1.0679606e-07
1.067934e-07
1.0679063e-07
1.0678785e-07
1.0678474e-07
1.0678106e-07
1.0677736e-07
1.0677354e-07
1.0676932e-07
1.0676434e-07
1.1022621e-08
7.0805092e-08
1.0729019e-07
1.0970643e-07
1.0897487e-07
1.0873102e-07
1.0870897e-07
1.0871285e-07
1.0871078e-07
1.0870763e-07
1.0870659e-07
1.0870366e-07
1.0870449e-07
1.0870091e-07
1.0869706e-07
1.0869407e-07
1.0869206e-07
1.0869318e-07
1.0869128e-07
1.086878e-07
1.0868465e-07
1.0868232e-07
1.0868048e-07
1.0867877e-07
1.0867717e-07
1.0867552e-07
1.0867399e-07
1.0867239e-07
1.0867092e-07
1.0866935e-07
1.0866793e-07
1.0866638e-07
1.0866498e-07
1.0866345e-07
1.0866203e-07
1.0866059e-07
1.0865988e-07
1.0866016e-07
1.0866025e-07
1.0865739e-07
1.0865425e-07
1.0865192e-07
1.0865047e-07
1.0864922e-07
1.0864826e-07
1.0864537e-07
1.086437e-07
1.0864135e-07
1.0863963e-07
1.0863771e-07
1.0863569e-07
1.0863356e-07
1.0863152e-07
1.0862923e-07
1.0862642e-07
1.0862349e-07
1.0862068e-07
1.0861739e-07
1.0861346e-07
1.6794991e-08
8.5995203e-08
1.095998e-07
1.1121147e-07
1.1079356e-07
1.1070441e-07
1.1070215e-07
1.1070171e-07
1.1069908e-07
1.1069661e-07
1.1069652e-07
1.1069367e-07
1.1069512e-07
1.1069106e-07
1.106878e-07
1.1068551e-07
1.1068513e-07
1.1068657e-07
1.1068419e-07
1.1068063e-07
1.106782e-07
1.1067657e-07
1.1067525e-07
1.1067397e-07
1.1067276e-07
1.1067154e-07
1.1067043e-07
1.1066926e-07
1.1066822e-07
1.106671e-07
1.1066615e-07
1.1066506e-07
1.1066415e-07
1.1066311e-07
1.1066222e-07
1.1066125e-07
1.1066087e-07
1.1066135e-07
1.106627e-07
1.1066081e-07
1.1065804e-07
1.1065604e-07
1.1065502e-07
1.1065454e-07
1.106547e-07
1.1065238e-07
1.1065181e-07
1.1064998e-07
1.1064893e-07
1.1064788e-07
1.1064676e-07
1.1064554e-07
1.106445e-07
1.1064333e-07
1.1064176e-07
1.1063994e-07
1.1063852e-07
1.1063657e-07
1.1063416e-07
2.4866332e-08
1.0252583e-07
1.1277086e-07
1.1294247e-07
1.1284874e-07
1.1284337e-07
1.1284411e-07
1.1284238e-07
1.1284074e-07
1.1283941e-07
1.1283995e-07
1.1283781e-07
1.1283883e-07
1.1283591e-07
1.128338e-07
1.1283314e-07
1.1283362e-07
1.1283488e-07
1.1283276e-07
1.1283028e-07
1.1282915e-07
1.1282842e-07
1.1282776e-07
1.1282714e-07
1.1282655e-07
1.12826e-07
1.1282549e-07
1.12825e-07
1.1282455e-07
1.1282413e-07
1.1282377e-07
1.1282338e-07
1.1282309e-07
1.1282276e-07
1.1282252e-07
1.1282225e-07
1.128223e-07
1.1282281e-07
1.1282468e-07
1.1282437e-07
1.1282247e-07
1.1282131e-07
1.1282089e-07
1.1282129e-07
1.1282188e-07
1.1282111e-07
1.1282176e-07
1.1282086e-07
1.1282071e-07
1.1282078e-07
1.1282076e-07
1.1282071e-07
1.1282078e-07
1.1282091e-07
1.1282082e-07
1.1282052e-07
1.1282072e-07
1.1282039e-07
1.1281999e-07
8.5589174e-08
8.5586941e-08
8.5585455e-08
8.5586711e-08
8.5587394e-08
8.5588291e-08
8.5589181e-08
8.5590068e-08
8.5591001e-08
8.5591912e-08
8.5592839e-08
8.5593742e-08
8.5594668e-08
8.5595611e-08
8.5596621e-08
8.5597685e-08
8.5598809e-08
8.5599922e-08
8.5600955e-08
8.560183e-08
8.5602566e-08
8.5603189e-08
8.5603695e-08
8.5604002e-08
8.560409e-08
8.5604011e-08
8.5603904e-08
8.5603846e-08
8.5603844e-08
8.5603836e-08
8.5603796e-08
8.5603736e-08
8.5603738e-08
8.5603852e-08
8.5603998e-08
8.5603966e-08
8.5603651e-08
8.5603239e-08
8.5603043e-08
8.5603011e-08
8.5602217e-08
8.5598756e-08
8.5591019e-08
8.558256e-08
8.5592208e-08
8.566505e-08
8.5867483e-08
8.6236509e-08
8.6652942e-08
8.6634441e-08
8.5099182e-08
8.0224973e-08
6.9351753e-08
5.0618428e-08
2.6986373e-08
8.6143522e-09
1.6821555e-09
5.0968694e-10
7.0154189e-10
8.5879018e-08
8.5877082e-08
8.5876685e-08
8.5877697e-08
8.5878528e-08
8.5879398e-08
8.5880308e-08
8.5881204e-08
8.588214e-08
8.5883053e-08
8.5883977e-08
8.5884877e-08
8.5885798e-08
8.5886738e-08
8.5887744e-08
8.5888804e-08
8.588992e-08
8.5891022e-08
8.5892037e-08
8.5892893e-08
8.5893614e-08
8.589423e-08
8.5894733e-08
8.5895041e-08
8.5895124e-08
8.5895037e-08
8.5894925e-08
8.5894867e-08
8.5894864e-08
8.5894851e-08
8.5894806e-08
8.5894744e-08
8.5894745e-08
8.5894856e-08
8.5894998e-08
8.5894966e-08
8.5894657e-08
8.5894241e-08
8.5894004e-08
8.5893858e-08
8.5892881e-08
8.5889355e-08
8.5882112e-08
8.5874875e-08
8.5885142e-08
8.5954207e-08
8.6144199e-08
8.6495164e-08
8.6911168e-08
8.6963139e-08
8.564247e-08
8.1157414e-08
7.0980419e-08
5.2845722e-08
2.9038601e-08
9.6162583e-09
1.8202437e-09
4.708195e-10
6.2617283e-10
8.6198162e-08
8.6196425e-08
8.6196471e-08
8.6197395e-08
8.6198282e-08
8.6199154e-08
8.6200081e-08
8.6200987e-08
8.6201933e-08
8.6202851e-08
8.6203779e-08
8.6204678e-08
8.6205596e-08
8.6206531e-08
8.620753e-08
8.6208583e-08
8.6209691e-08
8.6210782e-08
8.6211786e-08
8.6212628e-08
8.6213338e-08
8.621395e-08
8.6214459e-08
8.6214773e-08
8.6214859e-08
8.6214764e-08
8.6214646e-08
8.6214584e-08
8.6214583e-08
8.6214571e-08
8.6214527e-08
8.6214457e-08
8.6214447e-08
8.6214553e-08
8.6214715e-08
8.6214711e-08
8.6214402e-08
8.6213935e-08
8.621365e-08
8.6213601e-08
8.621306e-08
8.6210363e-08
8.620377e-08
8.6194873e-08
8.6196784e-08
8.624561e-08
8.6403613e-08
8.6728155e-08
8.7171586e-08
8.7389178e-08
8.6477186e-08
8.2728962e-08
7.3582127e-08
5.6305031e-08
3.2193136e-08
1.1145724e-08
2.0513225e-09
4.4666515e-10
5.527361e-10
8.6549846e-08
8.654841e-08
8.6548859e-08
8.6549732e-08
8.6550665e-08
8.6551541e-08
8.6552481e-08
8.6553396e-08
8.6554348e-08
8.6555269e-08
8.6556197e-08
8.6557093e-08
8.6558008e-08
8.6558937e-08
8.655993e-08
8.6560973e-08
8.6562072e-08
8.6563148e-08
8.6564133e-08
8.6564955e-08
8.6565652e-08
8.6566258e-08
8.656677e-08
8.6567086e-08
8.6567168e-08
8.6567063e-08
8.6566939e-08
8.6566875e-08
8.6566876e-08
8.6566864e-08
8.656682e-08
8.6566744e-08
8.6566725e-08
8.6566826e-08
8.6567004e-08
8.6567031e-08
8.6566735e-08
8.6566227e-08
8.6565873e-08
8.6565817e-08
8.6565491e-08
8.6563398e-08
8.655769e-08
8.6548754e-08
8.654623e-08
8.6580527e-08
8.6710122e-08
8.7001397e-08
8.744474e-08
8.7774156e-08
8.7194925e-08
8.4099802e-08
7.5954486e-08
5.9660733e-08
3.5503894e-08
1.2886512e-08
2.3611506e-09
4.3374484e-10
4.9157093e-10
8.6938074e-08
8.6937022e-08
8.6937742e-08
8.6938596e-08
8.6939549e-08
8.6940434e-08
8.6941382e-08
8.6942304e-08
8.6943261e-08
8.6944183e-08
8.694511e-08
8.6946002e-08
8.6946912e-08
8.6947835e-08
8.6948821e-08
8.6949853e-08
8.6950938e-08
8.6951995e-08
8.6952957e-08
8.6953754e-08
8.6954436e-08
8.6955037e-08
8.6955551e-08
8.6955865e-08
8.695594e-08
8.695582e-08
8.695569e-08
8.6955625e-08
8.695563e-08
8.6955619e-08
8.6955576e-08
8.6955495e-08
8.6955465e-08
8.6955558e-08
8.6955755e-08
8.6955819e-08
8.6955545e-08
8.6955e-08
8.6954568e-08
8.6954494e-08
8.6954377e-08
8.6952886e-08
8.6948111e-08
8.6939377e-08
8.6933015e-08
8.695353e-08
8.7054276e-08
8.7307688e-08
8.7738754e-08
8.8160866e-08
8.7899556e-08
8.5466254e-08
7.8376166e-08
6.3225673e-08
3.9241054e-08
1.4983062e-08
2.7825743e-09
4.3227408e-10
4.3549847e-10
8.7367505e-08
8.7366942e-08
8.7367819e-08
8.7368675e-08
8.7369635e-08
8.737053e-08
8.7371483e-08
8.737241e-08
8.7373367e-08
8.7374288e-08
8.7375211e-08
8.7376097e-08
8.7377e-08
8.7377916e-08
8.7378893e-08
8.7379913e-08
8.7380981e-08
8.7382013e-08
8.7382944e-08
8.7383711e-08
8.7384376e-08
8.7384971e-08
8.7385484e-08
8.7385793e-08
8.7385854e-08
8.7385716e-08
8.7385578e-08
8.7385514e-08
8.7385523e-08
8.7385514e-08
8.7385473e-08
8.7385387e-08
8.7385346e-08
8.738543e-08
8.7385643e-08
8.7385754e-08
8.7385513e-08
8.7384939e-08
8.7384419e-08
8.738429e-08
8.7384314e-08
8.7383355e-08
8.7379573e-08
8.7371595e-08
8.7362914e-08
8.7372092e-08
8.7445587e-08
8.7657281e-08
8.8060054e-08
8.8542657e-08
8.8558814e-08
8.6761016e-08
8.0739731e-08
6.6899281e-08
4.3355321e-08
1.7474129e-08
3.3305941e-09
4.4575424e-10
3.8825836e-10
8.7843739e-08
8.7843641e-08
8.7844581e-08
8.7845452e-08
8.7846412e-08
8.7847314e-08
8.7848267e-08
8.7849195e-08
8.7850147e-08
8.7851064e-08
8.7851978e-08
8.7852856e-08
8.7853751e-08
8.7854657e-08
8.7855623e-08
8.7856627e-08
8.7857674e-08
8.7858674e-08
8.7859565e-08
8.7860296e-08
8.7860943e-08
8.7861529e-08
8.7862038e-08
8.7862336e-08
8.7862376e-08
8.7862214e-08
8.7862069e-08
8.7862007e-08
8.7862021e-08
8.7862015e-08
8.7861976e-08
8.7861886e-08
8.7861833e-08
8.7861905e-08
8.7862134e-08
8.7862298e-08
8.7862107e-08
8.7861515e-08
8.7860901e-08
8.7860689e-08
8.7860802e-08
8.7860297e-08
8.7857486e-08
8.7850601e-08
8.7840835e-08
8.7841105e-08
8.7889796e-08
8.8058041e-08
8.8419269e-08
8.8930871e-08
8.9179208e-08
8.7983677e-08
8.2978341e-08
7.0660336e-08
4.7870236e-08
2.046905e-08
4.0509954e-09
4.7557976e-10
3.4719042e-10
8.837338e-08
8.8373555e-08
8.8374538e-08
8.8375429e-08
8.8376383e-08
8.8377288e-08
8.8378236e-08
8.8379159e-08
8.8380101e-08
8.8381006e-08
8.8381906e-08
8.838277e-08
8.8383653e-08
8.8384548e-08
8.8385499e-08
8.8386483e-08
8.8387504e-08
8.8388462e-08
8.8389304e-08
8.8389993e-08
8.8390617e-08
8.8391194e-08
8.8391695e-08
8.8391972e-08
8.8391982e-08
8.8391789e-08
8.8391637e-08
8.8391579e-08
8.8391598e-08
8.8391596e-08
8.8391561e-08
8.8391468e-08
8.8391403e-08
8.8391459e-08
8.8391701e-08
8.8391927e-08
8.8391803e-08
8.8391211e-08
8.8390502e-08
8.8390176e-08
8.8390323e-08
8.8390186e-08
8.8388281e-08
8.8382719e-08
8.8373035e-08
8.8367063e-08
8.8394433e-08
8.8519565e-08
8.8828223e-08
8.9336638e-08
8.9760509e-08
8.9111361e-08
8.5201433e-08
7.4445187e-08
5.276498e-08
2.4052761e-08
5.0034015e-09
5.3019401e-10
3.1232505e-10
8.8964089e-08
8.896448e-08
8.896547e-08
8.8966369e-08
8.8967311e-08
8.8968212e-08
8.8969147e-08
8.8970056e-08
8.8970982e-08
8.8971865e-08
8.8972743e-08
8.8973586e-08
8.8974452e-08
8.8975329e-08
8.897626e-08
8.8977218e-08
8.8978205e-08
8.8979111e-08
8.8979893e-08
8.8980532e-08
8.8981132e-08
8.8981696e-08
8.898218e-08
8.8982428e-08
8.8982396e-08
8.8982162e-08
8.8982004e-08
8.8981951e-08
8.8981975e-08
8.8981977e-08
8.8981947e-08
8.8981854e-08
8.8981778e-08
8.8981815e-08
8.8982062e-08
8.898236e-08
8.8982327e-08
8.898176e-08
8.898096e-08
8.8980494e-08
8.8980622e-08
8.8980761e-08
8.8979659e-08
8.8975482e-08
8.8966822e-08
8.8957239e-08
8.8967609e-08
8.9052357e-08
8.930099e-08
8.9776606e-08
9.0318427e-08
9.0141851e-08
8.7275637e-08
7.8201774e-08
5.8003214e-08
2.8318444e-08
6.2615243e-09
6.0990201e-10
2.8318887e-10
8.9625198e-08
8.9625741e-08
8.9626719e-08
8.9627618e-08
8.962854e-08
8.9629426e-08
8.9630338e-08
8.9631222e-08
8.9632118e-08
8.9632969e-08
8.9633813e-08
8.9634625e-08
8.9635465e-08
8.9636315e-08
8.9637218e-08
8.9638141e-08
8.9639083e-08
8.9639923e-08
8.9640633e-08
8.9641217e-08
8.9641789e-08
8.9642334e-08
8.9642793e-08
8.9643e-08
8.964291e-08
8.964262e-08
8.964246e-08
8.9642415e-08
8.9642443e-08
8.9642449e-08
8.9642425e-08
8.9642335e-08
8.9642249e-08
8.9642264e-08
8.9642503e-08
8.964289e-08
8.9642971e-08
8.9642466e-08
8.964159e-08
8.9640956e-08
8.9641016e-08
8.9641344e-08
8.9640901e-08
8.9638068e-08
8.9631064e-08
8.9620266e-08
8.9618494e-08
8.9667955e-08
8.9853542e-08
9.0270284e-08
9.0868571e-08
9.1080033e-08
8.9194112e-08
8.182417e-08
6.3519399e-08
3.3354666e-08
7.9386635e-09
7.2833706e-10
2.5962261e-10
9.0368026e-08
9.0368661e-08
9.0369612e-08
9.0370499e-08
9.0371387e-08
9.0372247e-08
9.0373119e-08
9.0373967e-08
9.0374816e-08
9.037562e-08
9.0376414e-08
9.0377183e-08
9.0377982e-08
9.0378796e-08
9.0379654e-08
9.038053e-08
9.0381411e-08
9.038217e-08
9.0382795e-08
9.038332e-08
9.0383859e-08
9.0384378e-08
9.0384797e-08
9.038495e-08
9.0384785e-08
9.0384411e-08
9.038426e-08
9.0384226e-08
9.0384254e-08
9.0384266e-08
9.0384246e-08
9.0384167e-08
9.0384074e-08
9.0384066e-08
9.038427e-08
9.0384778e-08
9.0384995e-08
9.0384601e-08
9.038368e-08
9.0382852e-08
9.0382788e-08
9.0383244e-08
9.0383331e-08
9.0381642e-08
9.0376597e-08
9.0366525e-08
9.0357556e-08
9.0378842e-08
9.0503529e-08
9.0842252e-08
9.1435964e-08
9.193203e-08
9.0931457e-08
8.5099917e-08
6.9219329e-08
3.9230676e-08
1.018419e-08
8.965899e-10
2.4235217e-10
9.1206253e-08
9.1206955e-08
9.1207866e-08
9.1208726e-08
9.1209567e-08
9.1210384e-08
9.12112e-08
9.1211996e-08
9.1212777e-08
9.1213517e-08
9.121424e-08
9.1214951e-08
9.1215691e-08
9.1216455e-08
9.1217249e-08
9.1218062e-08
9.1218859e-08
9.1219519e-08
9.1220044e-08
9.1220507e-08
9.1221004e-08
9.1221488e-08
9.1221849e-08
9.1221943e-08
9.1221649e-08
9.1221201e-08
9.1221047e-08
9.1221036e-08
9.1221058e-08
9.1221078e-08
9.1221061e-08
9.1221002e-08
9.1220904e-08
9.1220872e-08
9.1221041e-08
9.122164e-08
9.1222061e-08
9.1221836e-08
9.1220928e-08
9.1219875e-08
9.1219582e-08
9.1220171e-08
9.1220699e-08
9.121991e-08
9.1216698e-08
9.1208697e-08
9.1197032e-08
9.1198553e-08
9.1269524e-08
9.1520208e-08
9.2055511e-08
9.2715473e-08
9.2456417e-08
8.8346015e-08
7.4962311e-08
4.5976124e-08
1.3207135e-08
1.1317966e-09
2.3391338e-10
9.2155979e-08
9.2156753e-08
9.215763e-08
9.2158452e-08
9.2159227e-08
9.2159987e-08
9.2160731e-08
9.2161461e-08
9.2162156e-08
9.2162815e-08
9.2163449e-08
9.2164087e-08
9.2164752e-08
9.2165452e-08
9.2166169e-08
9.2166893e-08
9.2167583e-08
9.2168126e-08
9.2168537e-08
9.2168935e-08
9.2169388e-08
9.216983e-08
9.2170115e-08
9.2170145e-08
9.2169611e-08
9.2169173e-08
9.2168999e-08
9.2169009e-08
9.2169025e-08
9.2169046e-08
9.216904e-08
9.2169004e-08
9.216891e-08
9.2168846e-08
9.2169005e-08
9.2169639e-08
9.2170311e-08
9.2170361e-08
9.2169547e-08
9.2168241e-08
9.2167549e-08
9.2168286e-08
9.2169296e-08
9.216911e-08
9.2167376e-08
9.2162013e-08
9.2151156e-08
9.21416e-08
9.2170302e-08
9.2332973e-08
9.2770243e-08
9.348642e-08
9.3791591e-08
9.1233261e-08
8.0616129e-08
5.3552994e-08
1.7282957e-08
1.4829807e-09
2.4012328e-10
9.3233662e-08
9.3234619e-08
9.323546e-08
9.323625e-08
9.3236956e-08
9.3237676e-08
9.323835e-08
9.323903e-08
9.3239636e-08
9.324022e-08
9.3240756e-08
9.324132e-08
9.32419e-08
9.3242543e-08
9.3243181e-08
9.3243838e-08
9.3244412e-08
9.3244845e-08
9.324513e-08
9.3245476e-08
9.3245906e-08
9.3246331e-08
9.3246538e-08
9.3246388e-08
9.3245674e-08
9.3245275e-08
9.3245107e-08
9.3245125e-08
9.3245126e-08
9.3245156e-08
9.3245148e-08
9.3245162e-08
9.3245066e-08
9.3245006e-08
9.3245141e-08
9.3245793e-08
9.324657e-08
9.324712e-08
9.3246456e-08
9.3245027e-08
9.3243851e-08
9.3244486e-08
9.3246023e-08
9.3246358e-08
9.3245563e-08
9.3242652e-08
9.3234687e-08
9.3221729e-08
9.3222296e-08
9.3307018e-08
9.3621426e-08
9.4292566e-08
9.4981753e-08
9.3785059e-08
8.5928108e-08
6.184039e-08
2.2733245e-08
2.0516964e-09
2.558047e-10
7.7471801e-10
8.1564289e-10
8.4348287e-10
8.6419201e-10
8.8207374e-10
8.9868661e-10
9.1407821e-10
9.2787141e-10
9.3971363e-10
9.4936637e-10
9.5662266e-10
9.6127193e-10
9.6305861e-10
9.6166928e-10
9.5671058e-10
9.4771842e-10
9.3414854e-10
9.1540609e-10
8.908698e-10
8.5995111e-10
8.221477e-10
7.7712696e-10
7.2484038e-10
6.6578182e-10
6.011393e-10
5.3185064e-10
4.5937696e-10
3.8537886e-10
3.1191598e-10
2.4231417e-10
1.7614084e-10
1.1902596e-10
7.1617735e-11
3.5807612e-11
1.1785455e-11
7.8206105e-13
2.4588866e-12
1.1037736e-11
2.8516045e-11
5.7566465e-11
9.3399302e-11
1.3290412e-10
1.7096432e-10
2.0842606e-10
2.4691474e-10
2.8624391e-10
3.2456199e-10
3.617364e-10
3.9677661e-10
4.3056385e-10
4.6317968e-10
4.9412476e-10
5.2313174e-10
5.5016329e-10
5.7512497e-10
5.9792817e-10
6.1870714e-10
6.3767297e-10
6.5502146e-10
6.7091552e-10
6.8550438e-10
6.9892588e-10
7.1121835e-10
7.2239174e-10
7.3258434e-10
7.4197317e-10
7.5066622e-10
7.5872902e-10
7.6621293e-10
7.7315165e-10
7.7958282e-10
7.8554033e-10
7.9108114e-10
7.9618709e-10
5.6627877e-10
6.0702752e-10
6.4669012e-10
6.822586e-10
7.1283638e-10
7.3890538e-10
7.6118841e-10
7.8021244e-10
7.9627935e-10
8.0958778e-10
8.2026459e-10
8.2837215e-10
8.3388709e-10
8.366936e-10
8.3657368e-10
8.332151e-10
8.2621145e-10
8.1507937e-10
7.992786e-10
7.7825283e-10
7.514767e-10
7.1851274e-10
6.7912866e-10
6.3265981e-10
5.7881005e-10
5.1887451e-10
4.5508849e-10
3.8935314e-10
3.2348033e-10
2.6001301e-10
2.0085318e-10
1.4780995e-10
1.0175139e-10
6.6870675e-11
3.9770374e-11
1.9325802e-11
8.1791234e-12
9.3134317e-12
1.6247623e-11
3.0742531e-11
5.1299832e-11
7.6669299e-11
1.0395999e-10
1.3189928e-10
1.6055698e-10
1.9004712e-10
2.196313e-10
2.4889719e-10
2.771465e-10
3.0431873e-10
3.3047061e-10
3.5550307e-10
3.7927149e-10
4.0176436e-10
4.2291161e-10
4.4264227e-10
4.6094467e-10
4.7786053e-10
4.9346494e-10
5.0784458e-10
5.2108982e-10
5.3329474e-10
5.4454987e-10
5.5491584e-10
5.6444215e-10
5.7319854e-10
5.812541e-10
5.8867251e-10
5.9551032e-10
6.0181749e-10
6.0763563e-10
6.1300206e-10
6.1795978e-10
6.2252276e-10
1.4539065e-09
1.2252469e-09
1.0389934e-09
8.9684642e-10
7.9527179e-10
7.2662788e-10
6.8463901e-10
6.6485301e-10
6.6172528e-10
6.6975211e-10
6.8396759e-10
7.0079989e-10
7.1768151e-10
7.328628e-10
7.4522943e-10
7.5412507e-10
7.5917407e-10
7.6012911e-10
7.5676706e-10
7.4882605e-10
7.3599333e-10
7.1794876e-10
6.9442364e-10
6.6504527e-10
6.2941909e-10
5.876113e-10
5.4036359e-10
4.888431e-10
4.3439673e-10
3.7866239e-10
3.2354447e-10
2.7001444e-10
2.2000043e-10
1.7427052e-10
1.3535516e-10
1.0335005e-10
7.6876965e-11
5.8973054e-11
4.576237e-11
4.3989922e-11
4.6429702e-11
5.3089258e-11
6.306484e-11
7.5171613e-11
8.8994815e-11
1.0443758e-10
1.2102691e-10
1.3834294e-10
1.5597512e-10
1.7361102e-10
1.9103728e-10
2.08087e-10
2.2463251e-10
2.4058265e-10
2.5586584e-10
2.7042763e-10
2.8423106e-10
2.9725694e-10
3.0950283e-10
3.2097941e-10
3.3170731e-10
3.4171467e-10
3.5102661e-10
3.5967094e-10
3.6768649e-10
3.7511191e-10
3.8198494e-10
3.8834243e-10
3.9422016e-10
3.9965209e-10
4.046699e-10
4.0930254e-10
4.1358098e-10
4.1752203e-10
6.5342218e-09
4.6905861e-09
3.4298369e-09
2.5942614e-09
2.0538409e-09
1.6892478e-09
1.4175737e-09
1.2099561e-09
1.0310871e-09
9.0055808e-10
8.0499519e-10
7.3953254e-10
6.9921594e-10
6.7879982e-10
6.7281204e-10
6.7631379e-10
6.8534045e-10
6.9671946e-10
7.0798217e-10
7.1660924e-10
7.2019534e-10
7.1873264e-10
7.1236732e-10
7.0108933e-10
6.8475985e-10
6.6325839e-10
6.3665833e-10
6.0532417e-10
5.6984343e-10
5.3103275e-10
4.8992635e-10
4.4780499e-10
4.0570569e-10
3.6402961e-10
3.2394614e-10
2.8657871e-10
2.5245045e-10
2.204436e-10
1.938501e-10
1.7166346e-10
1.5428817e-10
1.418184e-10
1.3192303e-10
1.2752503e-10
1.2546799e-10
1.250743e-10
1.2616667e-10
1.2850184e-10
1.3183857e-10
1.3593891e-10
1.4063087e-10
1.4558087e-10
1.5091434e-10
1.5650474e-10
1.6224037e-10
1.6802846e-10
1.7379251e-10
1.7947089e-10
1.85015e-10
1.9038778e-10
1.9556182e-10
2.0051761e-10
2.0524354e-10
2.0973301e-10
2.139821e-10
2.1799066e-10
2.2176182e-10
2.2530113e-10
2.2861628e-10
2.3171018e-10
2.3459321e-10
2.3727586e-10
2.3977366e-10
2.4207998e-10
2.1760795e-08
1.6310207e-08
1.1981841e-08
8.7062316e-09
6.3299583e-09
4.672648e-09
3.547007e-09
2.7581386e-09
2.217709e-09
1.8352945e-09
1.552243e-09
1.3334318e-09
1.1512324e-09
1.003802e-09
8.9192684e-10
8.0804215e-10
7.487968e-10
7.1015448e-10
6.8859698e-10
6.8309633e-10
6.8768144e-10
6.97539e-10
7.0601731e-10
7.1121437e-10
7.1284909e-10
7.1082985e-10
7.05011e-10
6.9529416e-10
6.8170988e-10
6.6445581e-10
6.4387088e-10
6.205413e-10
5.9512028e-10
5.6817049e-10
5.4020095e-10
5.1182909e-10
4.8102445e-10
4.5518556e-10
4.2929678e-10
4.0463478e-10
3.810862e-10
3.5929493e-10
3.3971291e-10
3.2314051e-10
3.0927963e-10
2.9788485e-10
2.8869675e-10
2.808605e-10
2.7413088e-10
2.677467e-10
2.6367537e-10
2.595285e-10
2.5643806e-10
2.5394082e-10
2.5189333e-10
2.502268e-10
2.4888702e-10
2.4782587e-10
2.4700014e-10
2.4637215e-10
2.4590915e-10
2.4558288e-10
2.4536889e-10
2.4524603e-10
2.4519664e-10
2.4520561e-10
2.452603e-10
2.4534718e-10
2.4546204e-10
2.4560015e-10
2.4575473e-10
2.4591977e-10
2.460925e-10
2.4626222e-10
4.3806306e-08
3.5681753e-08
2.8216801e-08
2.1791085e-08
1.6515601e-08
1.2362436e-08
9.2251003e-09
6.8925445e-09
5.2041349e-09
3.9968526e-09
3.1416899e-09
2.5386498e-09
2.088782e-09
1.7626915e-09
1.5165297e-09
1.3220581e-09
1.165185e-09
1.0276764e-09
9.2086129e-10
8.3706865e-10
7.7387798e-10
7.3541235e-10
7.163793e-10
7.105404e-10
7.1368253e-10
7.198174e-10
7.2523741e-10
7.288913e-10
7.3040028e-10
7.2959703e-10
7.2638631e-10
7.2079371e-10
7.129779e-10
7.0323552e-10
6.9178192e-10
6.7927271e-10
6.6593674e-10
6.5142909e-10
6.3655504e-10
6.216411e-10
6.0685371e-10
5.9181851e-10
5.7640838e-10
5.6132869e-10
5.4803845e-10
5.3599214e-10
5.2515722e-10
5.1538656e-10
5.065064e-10
4.9833686e-10
4.9092806e-10
4.8421099e-10
4.7814394e-10
4.7267108e-10
4.6773657e-10
4.6328507e-10
4.5926716e-10
4.55639e-10
4.5236093e-10
4.4939751e-10
4.467168e-10
4.4429034e-10
4.420924e-10
4.4009898e-10
4.3828871e-10
4.366428e-10
4.3515438e-10
4.3380817e-10
4.3257659e-10
4.3144932e-10
4.304171e-10
4.2947188e-10
4.2860509e-10
4.278132e-10
6.3522777e-08
5.5653055e-08