/*--------------------------------*- C++ -*----------------------------------*\
| =========                 |                                                 |
| \\      /  F ield         | OpenFOAM: The Open Source CFD Toolbox           |
|  \\    /   O peration     | Version:  v2006                                 |
|   \\  /    A nd           | Website:  www.openfoam.com                      |
|    \\/     M anipulation  |                                                 |
\*---------------------------------------------------------------------------*/
FoamFile
{
    version     2.0;
    format      ascii;
    class       volScalarField;
    location    "2000";
    object      Cp;
}
// * * * * * * * * * * * * * * * * * * * * * * * * * * * * * * * * * * * * * //

dimensions      [0 0 0 0 0 0 0];


internalField   nonuniform List<scalar> 
55713
(
0.0058084954
0.0058091579
0.0058090695
0.0058094937
0.0058094683
0.0058095325
0.0058095026
0.0058095036
0.0058094611
0.0058094314
0.0058094306
0.0058094617
0.0058095032
0.0058095685
0.0058096548
0.0058097294
0.0058097355
0.0058096638
0.0058095659
0.0058095054
0.0058094653
0.0058094382
0.0058094214
0.0058094071
0.0058093849
0.0058093467
0.0058092875
0.0058092066
0.0058091113
0.0058090062
0.0058089139
0.0058088493
0.0058088047
0.0058087556
0.0058086966
0.0058086345
0.0058085667
0.005808493
0.0058084158
0.0058083309
0.0058082374
0.0058081328
0.0058080156
0.0058078805
0.0058077198
0.0058075325
0.0058073267
0.0058071089
0.0058068877
0.0058066647
0.0058064438
0.0058062147
0.0058059847
0.0058057331
0.0058054784
0.005805197
0.005804896
0.0058046049
0.0058041459
0.0053956345
0.0053968781
0.0053968678
0.0053976667
0.0053977202
0.0053981355
0.0053982053
0.0053983683
0.0053983588
0.0053983309
0.0053982577
0.0053982093
0.005398232
0.0053983027
0.0053984733
0.0053987786
0.0053991371
0.005399441
0.0053996987
0.0053999301
0.0054000852
0.005400148
0.0054002028
0.0054003368
0.0054005335
0.0054007625
0.0054009989
0.0054011779
0.0054012678
0.0054012377
0.0054011246
0.0054011069
0.0054011171
0.0054011483
0.0054012358
0.0054013862
0.0054015548
0.0054017015
0.0054017869
0.0054018071
0.0054017955
0.0054017756
0.0054017554
0.0054017202
0.0054016418
0.005401516
0.0054014297
0.0054014218
0.0054014689
0.0054015606
0.0054016831
0.0054017973
0.0054019497
0.0054020494
0.005402151
0.0054022139
0.0054022558
0.0054022946
0.0054022577
0.0050387661
0.0050402324
0.0050403716
0.0050413153
0.0050416441
0.0050422977
0.0050427578
0.0050432891
0.0050437359
0.0050441368
0.0050444689
0.0050447368
0.0050449359
0.0050450853
0.0050451889
0.0050453186
0.0050455712
0.0050459917
0.0050464139
0.0050467479
0.0050469758
0.0050471224
0.0050471995
0.0050472618
0.0050473704
0.0050475877
0.0050478917
0.0050482511
0.0050485827
0.0050488218
0.0050489641
0.005048989
0.005048938
0.0050488954
0.0050489531
0.0050490719
0.0050492327
0.0050493615
0.0050494121
0.0050493711
0.0050493305
0.0050492988
0.0050492818
0.0050492961
0.0050493849
0.0050495716
0.0050498459
0.0050501953
0.0050505796
0.0050509451
0.0050512704
0.0050515563
0.0050517982
0.0050519704
0.0050522699
0.0050523573
0.0050527781
0.0050528098
0.0050532979
0.0047276586
0.0047292143
0.0047294865
0.0047304959
0.0047309695
0.0047317807
0.0047323752
0.004733128
0.0047338127
0.0047345041
0.0047351505
0.004735754
0.0047362968
0.0047367649
0.0047371432
0.00473737
0.004737457
0.0047375224
0.0047375974
0.0047376972
0.0047378032
0.0047379098
0.0047379968
0.0047380646
0.0047381217
0.0047381973
0.0047383326
0.0047385688
0.0047389195
0.0047393426
0.0047397164
0.0047400018
0.0047402021
0.0047403002
0.0047403132
0.0047402587
0.0047402246
0.0047401634
0.0047401905
0.0047403472
0.0047406003
0.0047408993
0.0047412275
0.004741594
0.0047420122
0.0047424777
0.0047429271
0.0047432981
0.0047435829
0.0047437577
0.0047439032
0.0047439732
0.0047441682
0.0047442228
0.0047445967
0.004744658
0.0047452755
0.0047453203
0.0047461041
0.0044609217
0.0044624595
0.0044627943
0.0044637778
0.0044642603
0.0044649786
0.0044654331
0.0044659395
0.0044663475
0.0044667838
0.0044672138
0.0044676561
0.0044680797
0.0044684788
0.0044688508
0.0044692136
0.0044694891
0.0044696631
0.0044697948
0.0044699444
0.0044701281
0.0044703312
0.0044705238
0.004470684
0.0044708115
0.0044708944
0.0044709651
0.004471056
0.0044712105
0.0044714607
0.0044718053
0.0044722124
0.0044725787
0.0044728717
0.0044730872
0.004473226
0.0044733287
0.0044734631
0.0044736843
0.0044739476
0.0044742575
0.0044746229
0.0044750331
0.004475418
0.004475744
0.0044759861
0.0044761528
0.0044762572
0.004476357
0.0044764436
0.0044766386
0.0044767731
0.0044771067
0.004477242
0.0044777112
0.0044778281
0.0044784696
0.0044785203
0.0044793723
0.0042329476
0.0042343723
0.0042347367
0.004235627
0.004236048
0.0042366218
0.0042369817
0.0042373501
0.0042376271
0.0042378833
0.0042380928
0.004238278
0.0042384481
0.0042386352
0.0042388626
0.0042391634
0.0042395493
0.0042399242
0.0042402673
0.0042405972
0.0042409279
0.00424126
0.0042415835
0.0042418832
0.004242144
0.0042423586
0.0042425092
0.0042426052
0.004242682
0.0042427728
0.0042429159
0.0042431394
0.0042434429
0.0042438116
0.0042441758
0.004244512
0.0042448259
0.0042451227
0.0042453939
0.0042455821
0.004245742
0.0042458775
0.00424602
0.0042461436
0.0042462667
0.0042463759
0.0042465305
0.0042466802
0.0042469422
0.0042471444
0.0042475013
0.0042476948
0.004248115
0.0042482811
0.0042487851
0.004248916
0.0042495446
0.004249634
0.0042504718
0.0040274095
0.0040286544
0.0040290297
0.0040298099
0.0040302689
0.0040308009
0.0040312099
0.0040316466
0.0040320339
0.0040323957
0.0040327124
0.0040329922
0.0040332461
0.0040334985
0.0040337684
0.0040340426
0.0040343409
0.0040346893
0.004035058
0.004035404
0.0040357215
0.0040360234
0.0040363348
0.0040366604
0.0040369943
0.0040372962
0.0040375516
0.0040377586
0.0040379004
0.0040379956
0.0040380752
0.0040381624
0.004038293
0.0040384868
0.0040387447
0.0040390442
0.0040393425
0.0040396113
0.0040398444
0.0040400238
0.004040194
0.0040403237
0.0040404832
0.0040406216
0.004040829
0.0040410007
0.0040412711
0.0040414776
0.004041797
0.0040420068
0.0040423542
0.00404255
0.0040429502
0.0040431349
0.0040436136
0.0040437734
0.004044367
0.0040444504
0.0040452199
0.00384663
0.0038474973
0.003847801
0.0038483445
0.0038486155
0.0038490501
0.0038493413
0.0038497126
0.0038500273
0.0038503683
0.0038506943
0.0038510043
0.0038512967
0.0038515677
0.003851807
0.0038519994
0.0038521471
0.0038522634
0.0038523762
0.0038524852
0.0038525909
0.0038526925
0.0038527996
0.0038529319
0.0038530987
0.0038533087
0.0038535517
0.0038537744
0.003853956
0.0038540974
0.0038541882
0.0038542447
0.0038542786
0.0038543092
0.0038543663
0.0038544468
0.0038545716
0.0038546983
0.0038548602
0.0038549882
0.0038551509
0.0038552655
0.0038554383
0.0038555471
0.0038557368
0.0038558351
0.0038560417
0.003856119
0.0038563375
0.0038563944
0.0038566423
0.0038566885
0.0038569759
0.0038570062
0.0038573302
0.0038573524
0.00385773
0.0038577036
0.0038581846
0.0037481723
0.0037487396
0.0037488659
0.0037492272
0.0037495497
0.0037497317
0.0037500001
0.0037501645
0.0037503897
0.0037505488
0.0037507471
0.0037509076
0.0037510919
0.0037512446
0.0037513993
0.0037515111
0.0037516193
0.0037516943
0.0037517614
0.0037518184
0.0037518704
0.0037519109
0.0037519442
0.0037519701
0.0037520018
0.0037520482
0.0037521324
0.0037522582
0.0037524
0.0037525388
0.0037526527
0.0037527366
0.0037527827
0.0037527916
0.0037527869
0.0037527968
0.003752819
0.0037528642
0.0037529104
0.0037529616
0.003753012
0.003753062
0.0037531199
0.0037531732
0.0037532361
0.0037532879
0.0037533425
0.0037534131
0.0037534629
0.0037535427
0.003753589
0.003753671
0.0037537065
0.0037537617
0.0037538244
0.0037538434
0.003753888
0.0037538696
0.0037538774
0.0036614324
0.0036625629
0.0036634472
0.0036635403
0.0036642922
0.003664425
0.0036649872
0.0036651577
0.0036655598
0.0036657023
0.0036660502
0.0036662028
0.0036665246
0.0036666843
0.0036669693
0.0036671431
0.0036674016
0.0036675835
0.0036678551
0.0036680715
0.0036683333
0.0036685547
0.0036688005
0.0036690078
0.0036692238
0.0036694184
0.003669619
0.0036698336
0.0036700757
0.003670342
0.0036706304
0.0036709144
0.0036711823
0.0036714331
0.0036716759
0.0036719184
0.0036721666
0.0036724255
0.0036726882
0.0036729531
0.003673224
0.0036734996
0.0036737788
0.0036740656
0.0036743561
0.0036746614
0.0036749745
0.0036752881
0.0036756257
0.0036759677
0.0036763318
0.0036767064
0.0036771069
0.0036775523
0.0036779783
0.0036784952
0.0036789759
0.003679675
0.003680393
0.0033154656
0.0033154575
0.0033165244
0.0033171038
0.0033178162
0.0033184672
0.0033190714
0.0033196203
0.0033201332
0.003320606
0.0033210401
0.0033214467
0.0033218048
0.0033221438
0.0033224557
0.0033227465
0.0033230215
0.0033232813
0.0033235166
0.0033237563
0.0033239864
0.0033242066
0.0033243872
0.003324575
0.0033247053
0.0033248159
0.0033248817
0.0033249241
0.003324941
0.0033249547
0.0033249877
0.0033250534
0.003325134
0.0033252142
0.0033252636
0.0033252915
0.0033252979
0.00332529
0.0033252821
0.0033252605
0.0033252264
0.0033251807
0.0033251193
0.0033250438
0.0033249528
0.0033248637
0.0033247495
0.0033246091
0.0033244522
0.0033242659
0.0033240647
0.0033238329
0.0033235841
0.0033233083
0.0033229812
0.0033226699
0.0033222142
0.003321929
0.0033214667
0.0032959873
0.0032926612
0.0032914717
0.0032893905
0.0032879528
0.0032865726
0.0032850754
0.0032839508
0.0032827556
0.0032817389
0.0032806782
0.0032797514
0.0032788382
0.00327801
0.0032771798
0.0032763616
0.0032755835
0.0032748105
0.0032740706
0.0032733329
0.0032726189
0.0032719615
0.0032713011
0.0032706794
0.0032700582
0.0032695008
0.003268928
0.0032683957
0.0032678214
0.0032672984
0.0032667384
0.0032662232
0.0032656792
0.0032651653
0.0032646326
0.0032641309
0.0032635929
0.0032630988
0.0032625605
0.0032620649
0.0032615376
0.0032610083
0.0032604738
0.0032599044
0.0032593174
0.0032587111
0.0032580351
0.0032574586
0.0032566826
0.0032560489
0.0032551743
0.0032544409
0.0032534539
0.0032525472
0.0032513986
0.0032503562
0.0032489808
0.00324771
0.0032457051
0.0049607159
0.0049595253
0.0049583894
0.0049574458
0.0049565717
0.0049557681
0.0049548752
0.0049540778
0.0049534097
0.0049527715
0.0049522016
0.0049516374
0.0049511249
0.0049506724
0.0049502733
0.0049499082
0.0049495593
0.0049492263
0.0049489159
0.0049486335
0.0049483742
0.0049481422
0.0049479321
0.0049477493
0.0049475815
0.0049474281
0.0049472892
0.0049471707
0.0049470737
0.0049469924
0.0049469252
0.0049468723
0.0049468335
0.0049468114
0.0049468029
0.0049468058
0.0049468342
0.0049468713
0.0049469162
0.004946967
0.0049470225
0.0049470868
0.0049471581
0.0049472454
0.0049473592
0.0049474972
0.0049476519
0.0049478092
0.0049479915
0.0049482
0.0049484413
0.0049486962
0.0049490043
0.0049493185
0.0049497534
0.0049500662
0.0049506163
0.0049509159
0.0049515068
0.0031460874
0.0031497846
0.0031496569
0.0031525216
0.003152533
0.0031543386
0.0031550404
0.0031563272
0.0031568162
0.0031578993
0.0031582891
0.0031592621
0.0031595381
0.0031603457
0.0031605747
0.0031613037
0.0031615288
0.0031621876
0.0031624119
0.0031629263
0.0031631396
0.0031635195
0.0031637138
0.0031640141
0.0031641756
0.0031644267
0.0031645597
0.0031647646
0.0031648713
0.0031650348
0.0031651161
0.0031652423
0.0031652972
0.0031653844
0.0031654101
0.0031654523
0.0031654529
0.0031654507
0.0031654324
0.0031653994
0.0031653568
0.0031653052
0.0031652461
0.0031651824
0.0031651077
0.0031650122
0.0031648877
0.0031647487
0.0031645985
0.0031644244
0.0031642351
0.0031640045
0.003163762
0.0031634489
0.003163135
0.0031626728
0.0031622683
0.0031615545
0.0031610312
0.023439469
0.023446135
0.023454497
0.023461892
0.023469602
0.023477065
0.023484489
0.02349181
0.023499038
0.02350617
0.023513204
0.023520137
0.023526966
0.02353369
0.023540305
0.023546808
0.023553195
0.023559462
0.023565605
0.023571619
0.023577498
0.023583237
0.023588829
0.023594268
0.02359955
0.02360467
0.023609623
0.023614405
0.023619015
0.023623451
0.023627711
0.023631796
0.023635706
0.023639442
0.023643007
0.023646401
0.023649626
0.023652685
0.02365558
0.023658313
0.023660886
0.023663302
0.023665563
0.02366767
0.023669627
0.023671434
0.023673094
0.023674607
0.023675976
0.023677202
0.023678286
0.023679229
0.023680029
0.023680688
0.023681224
0.023681606
0.023681873
0.023682014
0.023682034
0.021427564
0.021433349
0.021440325
0.021446659
0.0214531
0.021459374
0.021465562
0.021471649
0.021477634
0.021483519
0.021489301
0.021494981
0.021500557
0.021506029
0.021511395
0.021516654
0.021521805
0.021526846
0.021531777
0.021536597
0.021541303
0.021545895
0.021550372
0.021554732
0.021558975
0.021563099
0.021567103
0.021570986
0.021574748
0.021578387
0.021581903
0.021585295
0.021588562
0.021591704
0.021594721
0.021597611
0.021600374
0.021603011
0.021605521
0.021607904
0.021610159
0.021612288
0.02161429
0.021616166
0.021617916
0.021619541
0.021621041
0.021622418
0.021623671
0.021624801
0.021625809
0.021626696
0.021627457
0.0216281
0.021628629
0.021629008
0.021629287
0.021629461
0.021629508
0.019554179
0.019559079
0.019564825
0.019570101
0.019575399
0.019580568
0.019585643
0.019590626
0.019595513
0.019600309
0.019605012
0.019609624
0.019614145
0.019618575
0.019622913
0.01962716
0.019631315
0.019635378
0.019639349
0.019643226
0.019647009
0.019650698
0.019654292
0.01965779
0.019661193
0.019664499
0.019667707
0.019670819
0.019673832
0.019676747
0.019679563
0.019682279
0.019684896
0.019687414
0.019689831
0.019692149
0.019694366
0.019696483
0.0196985
0.019700417
0.019702233
0.01970395
0.019705567
0.019707085
0.019708504
0.019709824
0.019711045
0.019712169
0.019713194
0.019714122
0.019714953
0.019715685
0.019716317
0.01971686
0.019717293
0.019717615
0.019717847
0.019717992
0.01971803
0.017802136
0.017806344
0.017811062
0.017815481
0.017819844
0.017824112
0.01782828
0.017832363
0.017836358
0.017840269
0.017844096
0.017847842
0.017851507
0.017855092
0.017858599
0.017862028
0.017865378
0.017868652
0.017871847
0.017874966
0.017878007
0.017880971
0.017883858
0.017886667
0.017889399
0.017892053
0.01789463
0.017897128
0.017899549
0.017901891
0.017904155
0.017906341
0.017908447
0.017910476
0.017912425
0.017914296
0.017916087
0.0179178
0.017919434
0.017920989
0.017922466
0.017923863
0.017925182
0.017926422
0.017927584
0.017928667
0.017929672
0.017930599
0.017931447
0.017932217
0.017932909
0.017933519
0.017934051
0.01793451
0.017934855
0.017935131
0.017935328
0.017935452
0.017935485
0.016175644
0.01617926
0.016183097
0.016186772
0.016190344
0.01619384
0.016197241
0.016200562
0.016203803
0.016206968
0.016210059
0.016213078
0.016216026
0.016218905
0.016221717
0.016224463
0.016227143
0.016229758
0.016232309
0.016234796
0.01623722
0.016239581
0.01624188
0.016244116
0.01624629
0.016248403
0.016250453
0.016252442
0.016254369
0.016256235
0.016258039
0.016259782
0.016261463
0.016263082
0.01626464
0.016266137
0.016267572
0.016268946
0.016270258
0.016271509
0.016272699
0.016273827
0.016274893
0.016275899
0.016276842
0.016277724
0.016278545
0.016279304
0.01628
0.016280635
0.016281206
0.016281712
0.016282161
0.016282533
0.016282826
0.016283057
0.016283223
0.01628333
0.016283358
0.014666469
0.014669611
0.014672726
0.014675779
0.014678709
0.014681571
0.014684347
0.014687048
0.014689677
0.014692237
0.014694731
0.014697162
0.014699531
0.01470184
0.014704092
0.014706287
0.014708427
0.014710512
0.014712544
0.014714524
0.014716452
0.014718329
0.014720156
0.014721932
0.014723658
0.014725335
0.014726964
0.014728543
0.014730074
0.014731556
0.01473299
0.014734377
0.014735715
0.014737005
0.014738248
0.014739443
0.014740591
0.01474169
0.014742742
0.014743747
0.014744704
0.014745613
0.014746474
0.014747288
0.014748054
0.014748771
0.01474944
0.014750061
0.014750632
0.014751154
0.014751625
0.014752048
0.014752422
0.014752719
0.014752966
0.014753161
0.014753301
0.014753392
0.014753416
0.013272545
0.013275292
0.013277827
0.013280349
0.013282749
0.013285086
0.013287344
0.013289535
0.01329166
0.013293724
0.013295729
0.013297679
0.013299575
0.013301419
0.013303215
0.013304962
0.013306663
0.013308318
0.01330993
0.013311498
0.013313024
0.013314509
0.013315952
0.013317356
0.01331872
0.013320045
0.013321331
0.013322579
0.013323789
0.013324961
0.013326096
0.013327194
0.013328254
0.013329278
0.013330264
0.013331214
0.013332128
0.013333004
0.013333844
0.013334648
0.013335415
0.013336145
0.013336839
0.013337495
0.013338115
0.013338697
0.013339241
0.013339748
0.013340216
0.013340644
0.013341034
0.013341388
0.013341683
0.013341934
0.013342141
0.013342305
0.013342423
0.013342501
0.013342521
0.011988381
0.011990722
0.011992805
0.011994879
0.011996842
0.011998744
0.012000577
0.012002349
0.012004061
0.01200572
0.012007327
0.012008885
0.012010397
0.012011865
0.01201329
0.012014675
0.012016021
0.012017329
0.012018601
0.012019838
0.01202104
0.012022209
0.012023345
0.012024449
0.012025521
0.012026563
0.012027574
0.012028555
0.012029507
0.012030429
0.012031323
0.012032188
0.012033024
0.012033832
0.012034612
0.012035364
0.012036088
0.012036784
0.012037453
0.012038093
0.012038705
0.01203929
0.012039846
0.012040374
0.012040874
0.012041345
0.012041786
0.012042199
0.01204258
0.012042933
0.012043257
0.012043538
0.012043781
0.01204399
0.012044163
0.012044302
0.0120444
0.012044469
0.012044485
0.010809395
0.010811352
0.010813069
0.010814773
0.010816378
0.010817926
0.010819413
0.010820844
0.010822223
0.010823553
0.010824839
0.010826082
0.010827285
0.01082845
0.010829579
0.010830674
0.010831737
0.010832768
0.010833768
0.01083474
0.010835684
0.010836601
0.010837492
0.010838357
0.010839197
0.010840013
0.010840805
0.010841573
0.010842319
0.010843043
0.010843744
0.010844424
0.010845081
0.010845717
0.010846332
0.010846926
0.010847498
0.010848049
0.01084858
0.010849089
0.010849577
0.010850044
0.01085049
0.010850914
0.010851317
0.010851697
0.010852055
0.01085239
0.010852704
0.010852996
0.010853253
0.01085348
0.010853682
0.010853856
0.010854001
0.010854119
0.010854199
0.01085426
0.010854272
0.0097310447
0.0097326654
0.0097340765
0.0097354717
0.009736783
0.0097380391
0.0097392413
0.0097403938
0.0097415005
0.0097425648
0.0097435896
0.0097445777
0.0097455311
0.0097464523
0.0097473427
0.0097482044
0.0097490386
0.0097498468
0.0097506301
0.0097513897
0.0097521265
0.0097528414
0.0097535352
0.0097542087
0.0097548624
0.0097554973
0.0097561136
0.009756712
0.0097572928
0.0097578564
0.009758403
0.009758933
0.0097594465
0.0097599439
0.0097604251
0.0097608905
0.0097613402
0.0097617741
0.0097621923
0.0097625949
0.0097629816
0.0097633524
0.0097637073
0.0097640459
0.009764368
0.0097646734
0.0097649621
0.0097652348
0.0097654898
0.0097657156
0.0097659218
0.0097661082
0.0097662743
0.0097664188
0.0097665386
0.0097666371
0.0097667006
0.0097667558
0.0097667636
0.0087488882
0.00875023
0.0087513924
0.008752532
0.008753604
0.0087546239
0.0087555964
0.0087565249
0.0087574132
0.0087582646
0.0087590816
0.0087598671
0.0087606229
0.0087613513
0.0087620537
0.008762732
0.0087633873
0.0087640211
0.0087646343
0.0087652281
0.0087658032
0.0087663605
0.0087669007
0.0087674249
0.0087679336
0.0087684278
0.0087689079
0.0087693742
0.008769827
0.0087702665
0.0087706932
0.0087711074
0.0087715093
0.0087718994
0.0087722776
0.0087726444
0.0087729996
0.0087733433
0.0087736754
0.0087739959
0.0087743047
0.0087746018
0.0087748871
0.0087751604
0.0087754217
0.0087756718
0.0087759101
0.0087761313
0.0087763309
0.0087765176
0.0087766897
0.0087768469
0.0087769879
0.008777112
0.0087772148
0.0087773033
0.0087773566
0.0087774116
0.0087774127
0.0078547261
0.0078558367
0.0078568001
0.0078577263
0.0078585995
0.0078594255
0.0078602098
0.007860955
0.0078616651
0.0078623428
0.0078629906
0.0078636111
0.0078642064
0.0078647783
0.0078653286
0.0078658588
0.0078663701
0.0078668637
0.0078673406
0.0078678017
0.0078682476
0.007868679
0.0078690969
0.007869502
0.0078698953
0.0078702775
0.0078706488
0.0078710091
0.0078713587
0.007871698
0.0078720277
0.0078723483
0.0078726601
0.0078729635
0.0078732586
0.0078735453
0.0078738234
0.0078740929
0.0078743536
0.007874606
0.00787485
0.007875086
0.0078753141
0.0078755351
0.0078757482
0.0078759508
0.0078761364
0.0078763121
0.007876477
0.0078766317
0.0078767757
0.0078769083
0.0078770275
0.0078771348
0.0078772224
0.0078773044
0.0078773485
0.0078774075
0.0078773971
0.0070454345
0.0070463369
0.0070471553
0.0070479215
0.007048639
0.0070493136
0.0070499516
0.0070505534
0.007051124
0.0070516648
0.0070521789
0.0070526681
0.0070531347
0.0070535806
0.0070540077
0.0070544181
0.0070548131
0.0070551943
0.0070555628
0.0070559198
0.0070562659
0.0070566021
0.0070569288
0.0070572462
0.0070575543
0.0070578527
0.0070581413
0.0070584202
0.0070586906
0.007058954
0.0070592119
0.0070594651
0.0070597139
0.007059958
0.0070601969
0.0070604299
0.0070606565
0.0070608766
0.0070610913
0.0070613012
0.0070615047
0.0070616999
0.0070618866
0.0070620653
0.0070622321
0.0070623913
0.0070625423
0.007062685
0.0070628199
0.0070629475
0.007063067
0.007063179
0.0070632783
0.0070633708
0.0070634429
0.0070635182
0.0070635477
0.0070636042
0.0070636064
0.0063384805
0.0063391936
0.0063398693
0.0063405269
0.006341144
0.0063417245
0.0063422791
0.0063428021
0.0063433015
0.0063437751
0.0063442264
0.0063446551
0.006345062
0.0063454476
0.0063458125
0.0063461582
0.0063464869
0.0063468017
0.0063471053
0.0063473998
0.0063476869
0.0063479679
0.006348242
0.0063485067
0.0063487594
0.0063489979
0.006349222
0.0063494343
0.0063496391
0.0063498397
0.0063500359
0.0063502253
0.0063504066
0.0063505789
0.0063507419
0.0063508962
0.0063510425
0.0063511821
0.006351315
0.0063514407
0.0063515624
0.0063516875
0.0063518129
0.0063519309
0.0063520354
0.006352128
0.006352212
0.0063522882
0.0063523592
0.0063524303
0.0063525002
0.0063525682
0.006352619
0.0063526723
0.0063527086
0.0063527633
0.0063527834
0.0063528588
0.0063528762
0.026116637
0.029082812
0.032407338
0.036050461
0.040029693
0.044377777
0.049115943
0.054264639
0.059843567
0.065869944
0.072357934
0.079315578
0.086745361
0.094639621
0.10298072
0.111736
0.12085776
0.13027727
0.13990572
0.14962845
0.15930735
0.16877664
0.17784882
0.18631755
0.19396322
0.20054718
0.20583372
0.20966242
0.21172491
0.21199565
0.21045346
0.20686698
0.20130912
0.19388892
0.18473529
0.1739475
0.16170059
0.14830357
0.13393567
0.11885601
0.10326265
0.087291905
0.071139696
0.054994251
0.039035987
0.023357431
0.0080521552
-0.0068368521
-0.021151801
-0.034841977
-0.048003985
-0.060593215
-0.072552615
-0.083936975
-0.094736808
-0.1048966
-0.11445898
-0.12345273
-0.13189938
-0.13982144
-0.14724231
-0.15419148
-0.16068072
-0.16670257
-0.17231054
-0.17756535
-0.18247548
-0.18705248
-0.19131808
-0.1952883
-0.19897783
-0.20241219
-0.20560471
-0.20858409
0.026116608
0.029082791
0.0324073
0.036050415
0.040029647
0.044377733
0.049115902
0.054264603
0.059843537
0.065869921
0.072357922
0.079315581
0.086745405
0.094639692
0.10298083
0.11173617
0.12085799
0.13027758
0.13990612
0.14962897
0.15930799
0.16877742
0.17784962
0.1863185
0.19396412
0.20054826
0.20583483
0.20966355
0.2117259
0.21199657
0.21045435
0.20686823
0.20131078
0.19389067
0.18473296
0.1739432
0.16170085
0.14830381
0.13393568
0.1188503
0.10325099
0.087280628
0.071133736
0.054992856
0.039035729
0.023356634
0.0080523973
-0.0068408491
-0.021160699
-0.034849795
-0.048009447
-0.06059823
-0.072553038
-0.083932874
-0.094735957
-0.10489797
-0.11446241
-0.12345719
-0.13190426
-0.13982645
-0.14724762
-0.15419739
-0.16068457
-0.16669933
-0.17230409
-0.17756433
-0.18247795
-0.18705763
-0.19132549
-0.19529739
-0.19898741
-0.2024217
-0.20561375
-0.20859409
0.02611638
0.029082585
0.032407047
0.036050129
0.040029337
0.044377397
0.049115539
0.054264212
0.059843117
0.065869474
0.072357453
0.079315092
0.086744893
0.094639162
0.1029803
0.11173564
0.12085747
0.1302771
0.1399057
0.14962864
0.15930779
0.16877742
0.17785002
0.18631917
0.19396551
0.20054979
0.20583681
0.20966618
0.21172892
0.21200019
0.2104588
0.20687316
0.20131602
0.19389586
0.18473698
0.17394877
0.16170886
0.14831082
0.13394332
0.11885695
0.103256
0.087286128
0.07113963
0.054999106
0.03903992
0.023359648
0.008053837
-0.0068319493
-0.021152417
-0.034854967
-0.048019931
-0.060609714
-0.072569252
-0.08394685
-0.094739126
-0.10489839
-0.1144586
-0.12345282
-0.13189927
-0.13982104
-0.14724144
-0.1542001
-0.16070219
-0.16671507
-0.17230419
-0.17755087
-0.18245956
-0.18703647
-0.19130353
-0.19527127
-0.19895501
-0.2023885
-0.20558264
-0.20857556
0.026115897
0.029082235
0.0324066
0.036049629
0.040028798
0.044376814
0.049114907
0.054263529
0.05984238
0.065868667
0.072356581
0.079314156
0.086743898
0.094638116
0.10297921
0.11173453
0.12085638
0.13027605
0.13990475
0.14962784
0.15930723
0.16877727
0.17785077
0.18632041
0.19396709
0.20055226
0.20584037
0.20967106
0.21173467
0.21200722
0.21046749
0.20688308
0.20132724
0.19390831
0.18474881
0.17396109
0.16172385
0.14832601
0.13395979
0.11887164
0.10326694
0.08729614
0.071150961
0.055013079
0.039054202
0.023374044
0.0080686902
-0.006811346
-0.021135537
-0.034848638
-0.04801334
-0.060601156
-0.072564908
-0.083936698
-0.094722719
-0.10488364
-0.11444701
-0.123443
-0.13189035
-0.13981212
-0.14723235
-0.15417949
-0.1606624
-0.16668226
-0.17229683
-0.17756034
-0.18247721
-0.18705783
-0.19133771
-0.195315
-0.19899099
-0.20241286
-0.2056029
-0.20858118
0.026115215
0.029081724
0.032405954
0.036048899
0.040027993
0.044375921
0.049113918
0.054262438
0.059841179
0.065867358
0.072355161
0.079312629
0.086742264
0.094636388
0.10297741
0.11173268
0.12085452
0.13027426
0.1399031
0.14962645
0.15930615
0.16877663
0.17785069
0.18632159
0.19396927
0.20055593
0.20584571
0.20967853
0.21174366
0.21201839
0.21048153
0.20689921
0.20134554
0.19392851
0.18476894
0.17398277
0.16174941
0.14835227
0.13398735
0.1188977
0.10329011
0.08731961
0.071176329
0.055040546
0.039080736
0.023399548
0.0080932235
-0.0067823102
-0.021108465
-0.034830903
-0.047997827
-0.06058645
-0.072554632
-0.083924759
-0.09470521
-0.10486582
-0.11442865
-0.12342292
-0.13186883
-0.1397891
-0.14720715
-0.15414961
-0.16063464
-0.16667248
-0.1722982
-0.17754958
-0.18245468
-0.18702725
-0.19128608
-0.19524446
-0.19892552
-0.20235646
-0.20555118
-0.20852501
0.026114376
0.029081036
0.032405105
0.036047939
0.040026929
0.044374739
0.049112605
0.054260985
0.059839574
0.065865589
0.072353217
0.079310508
0.08673996
0.094633917
0.10297478
0.11172995
0.12085172
0.13027148
0.13990045
0.14962408
0.15930429
0.16877555
0.17785057
0.186323
0.19397229
0.20056103
0.2058533
0.20968936
0.21175688
0.21203499
0.21050253
0.20692347
0.20137323
0.19395938
0.18480099
0.17401739
0.16178863
0.14839275
0.13402968
0.11893903
0.10332866
0.087358038
0.071216145
0.055082267
0.039121892
0.023440262
0.008133639
-0.0067371635
-0.021065431
-0.0347979
-0.047967779
-0.060556097
-0.07252687
-0.083895122
-0.094668827
-0.10482834
-0.11439186
-0.12338672
-0.13183335
-0.13975378
-0.14717133
-0.15411078
-0.16059155
-0.16662969
-0.17225826
-0.17751521
-0.18242509
-0.18700229
-0.19126706
-0.19523809
-0.19892851
-0.20236085
-0.2055542
-0.20852712
0.026113386
0.029080156
0.03240404
0.036046733
0.040025586
0.044373238
0.049110928
0.054259116
0.059837495
0.065863283
0.072350669
0.079307713
0.08673691
0.094630624
0.10297126
0.11172625
0.12084792
0.13026768
0.13989679
0.1496208
0.15930162
0.16877383
0.17785028
0.1863245
0.19397622
0.20056789
0.20586374
0.20970443
0.21177547
0.21205853
0.21053252
0.20695829
0.20141318
0.19400419
0.18484846
0.17406873
0.16184588
0.14845242
0.13409199
0.11900089
0.10338807
0.08741771
0.071277691
0.055146072
0.039185225
0.023502866
0.0081953711
-0.0066721152
-0.0210031
-0.034745235
-0.047918512
-0.060507289
-0.072481294
-0.083849043
-0.094618201
-0.10477753
-0.11434208
-0.12333688
-0.13178288
-0.1397021
-0.14711798
-0.15405468
-0.16053452
-0.16657888
-0.17221659
-0.177477
-0.18238307
-0.18695398
-0.19121006
-0.1951708
-0.19885516
-0.202285
-0.205477
-0.20845109
0.026112229
0.029079073
0.032402748
0.036045265
0.040023943
0.044371394
0.049108858
0.054256797
0.059834901
0.06586039
0.072347452
0.07930416
0.086733006
0.09462638
0.1029667
0.11172142
0.1208429
0.13026262
0.13989188
0.14961631
0.15929791
0.16877137
0.17784954
0.18632629
0.19398134
0.20057699
0.20587777
0.20972491
0.21180093
0.212091
0.21057415
0.20700684
0.20146918
0.19406731
0.18491638
0.17414247
0.1619273
0.14853771
0.13418094
0.11909026
0.10347562
0.087505852
0.071367804
0.055238274
0.039276811
0.023593582
0.0082851289
-0.0065796729
-0.02091324
-0.03466457
-0.047842082
-0.060431894
-0.072408544
-0.08377579
-0.094540761
-0.10469892
-0.11426377
-0.12325851
-0.13170449
-0.13962364
-0.1470393
-0.15397544
-0.16045537
-0.16650205
-0.17214201
-0.17740293
-0.18230928
-0.18688221
-0.19114202
-0.19510869
-0.19880062
-0.20223694
-0.20543312
-0.20841053
0.026110906
0.029077783
0.032401218
0.036043519
0.040021979
0.04436918
0.049106361
0.054253986
0.05983174
0.065856843
0.072343486
0.079299753
0.086728132
0.094621044
0.10296091
0.11171526
0.12083645
0.13025607
0.13988545
0.14961038
0.15929295
0.168768
0.17784857
0.18632838
0.19398791
0.20058887
0.20589632
0.20975223
0.21183515
0.21213497
0.21063081
0.20707315
0.201546
0.19415433
0.18501108
0.17424561
0.16204049
0.14865681
0.13430524
0.11921628
0.10360078
0.087632199
0.071496544
0.055369356
0.039407544
0.02372347
0.0084138415
-0.0064494145
-0.020786147
-0.034546638
-0.047729267
-0.060320853
-0.072300265
-0.083668047
-0.094430652
-0.10458862
-0.11415475
-0.12315041
-0.13159691
-0.13951622
-0.14693175
-0.15386763
-0.16034805
-0.16639734
-0.17204118
-0.17730511
-0.18221241
-0.1867844
-0.1910418
-0.19500508
-0.19869349
-0.20212682
-0.20532097
-0.20829742
0.026109418
0.029076279
0.032399439
0.03604148
0.040019672
0.044366564
0.049103394
0.054250628
0.059827944
0.065852561
0.07233867
0.079294368
0.086722141
0.094614445
0.10295372
0.11170754
0.12082831
0.13024773
0.13987722
0.14960272
0.15928644
0.16876352
0.1778471
0.18633072
0.19399628
0.20060424
0.20592057
0.20978822
0.21188043
0.21219352
0.21070678
0.20716249
0.20164993
0.19427249
0.18514081
0.1743873
0.16219543
0.1488205
0.13447627
0.11939083
0.10377585
0.087809319
0.071676585
0.055551895
0.03958979
0.023904633
0.0085934293
-0.0062694541
-0.020609774
-0.034379041
-0.047567402
-0.060161563
-0.072143877
-0.083512808