/*--------------------------------*- C++ -*----------------------------------*\
| =========                 |                                                 |
| \\      /  F ield         | OpenFOAM: The Open Source CFD Toolbox           |
|  \\    /   O peration     | Version:  v2006                                 |
|   \\  /    A nd           | Website:  www.openfoam.com                      |
|    \\/     M anipulation  |                                                 |
\*---------------------------------------------------------------------------*/
FoamFile
{
    version     2.0;
    format      ascii;
    class       volScalarField;
    location    "2000";
    object      k;
}
// * * * * * * * * * * * * * * * * * * * * * * * * * * * * * * * * * * * * * //

dimensions      [0 2 -2 0 0 0 0];


internalField   nonuniform List<scalar> 
55713
(
1.6493034e-09
4.0035949e-09
1.3276134e-08
2.0751571e-08
2.4163685e-08
2.5101702e-08
2.5114762e-08
2.496388e-08
2.4868862e-08
2.4835846e-08
2.4831435e-08
2.4833804e-08
2.4835721e-08
2.4836649e-08
2.4837215e-08
2.4837486e-08
2.4837291e-08
2.4836858e-08
2.483665e-08
2.4836851e-08
2.4837047e-08
2.4836979e-08
2.4836676e-08
2.4836364e-08
2.4836078e-08
2.4835921e-08
2.4835771e-08
2.4835618e-08
2.48354e-08
2.483517e-08
2.4834903e-08
2.4834632e-08
2.483434e-08
2.4834078e-08
2.4833848e-08
2.4833726e-08
2.4833409e-08
2.4832942e-08
2.4832358e-08
2.4831755e-08
2.4831166e-08
2.4830597e-08
2.4829931e-08
2.4829182e-08
2.4828403e-08
2.4827661e-08
2.4826915e-08
2.4826189e-08
2.4825448e-08
2.4824703e-08
2.4823913e-08
2.4823097e-08
2.4822233e-08
2.4821371e-08
2.4820485e-08
2.4819612e-08
2.481876e-08
2.4817987e-08
2.4817216e-08
1.7993485e-09
5.3420668e-09
1.5760478e-08
2.3000234e-08
2.5852501e-08
2.6446456e-08
2.6351863e-08
2.6202047e-08
2.6128588e-08
2.610841e-08
2.6107708e-08
2.6109627e-08
2.6110343e-08
2.6110399e-08
2.6110371e-08
2.6109973e-08
2.610907e-08
2.6108041e-08
2.6107338e-08
2.6107123e-08
2.6106801e-08
2.6106107e-08
2.6105281e-08
2.6104465e-08
2.6103703e-08
2.6103075e-08
2.6102451e-08
2.610182e-08
2.6101137e-08
2.6100434e-08
2.6099701e-08
2.6098954e-08
2.609819e-08
2.6097443e-08
2.6096739e-08
2.6096176e-08
2.6095426e-08
2.609446e-08
2.6093361e-08
2.609222e-08
2.6091097e-08
2.6090001e-08
2.6088808e-08
2.6087492e-08
2.608612e-08
2.6084764e-08
2.6083389e-08
2.6082008e-08
2.6080593e-08
2.6079142e-08
2.6077614e-08
2.6076012e-08
2.6074309e-08
2.6072546e-08
2.6070697e-08
2.6068773e-08
2.6066769e-08
2.6064728e-08
2.6062606e-08
2.0365631e-09
6.9657658e-09
1.8382879e-08
2.5247339e-08
2.7542299e-08
2.7858277e-08
2.7701597e-08
2.7567181e-08
2.7514332e-08
2.7503475e-08
2.7504355e-08
2.7505266e-08
2.7504779e-08
2.7504035e-08
2.750337e-08
2.7502227e-08
2.7500643e-08
2.7499017e-08
2.7497877e-08
2.7497161e-08
2.7496213e-08
2.7494935e-08
2.749357e-08
2.7492238e-08
2.7490986e-08
2.7489874e-08
2.7488753e-08
2.7487637e-08
2.7486463e-08
2.748528e-08
2.7484064e-08
2.7482837e-08
2.7481583e-08
2.7480344e-08
2.7479145e-08
2.7478126e-08
2.747696e-08
2.7475492e-08
2.7473862e-08
2.7472171e-08
2.7470494e-08
2.7468867e-08
2.7467144e-08
2.7465261e-08
2.7463283e-08
2.7461306e-08
2.7459292e-08
2.7457253e-08
2.7455161e-08
2.7453002e-08
2.7450734e-08
2.7448352e-08
2.7445811e-08
2.7443147e-08
2.7440339e-08
2.7437372e-08
2.7434225e-08
2.7430926e-08
2.7427446e-08
2.3914722e-09
9.0272731e-09
2.1256758e-08
2.7545978e-08
2.9282827e-08
2.9376463e-08
2.9192783e-08
2.9082762e-08
2.904823e-08
2.9043508e-08
2.9044393e-08
2.9043852e-08
2.9042189e-08
2.9040886e-08
2.9039572e-08
2.9037639e-08
2.9035371e-08
2.9033165e-08
2.90316e-08
2.9030359e-08
2.9028772e-08
2.9026895e-08
2.9024979e-08
2.9023123e-08
2.9021384e-08
2.901978e-08
2.901816e-08
2.901655e-08
2.9014886e-08
2.9013219e-08
2.9011515e-08
2.9009799e-08
2.9008055e-08
2.900632e-08
2.9004621e-08
2.9003127e-08
2.9001578e-08
2.8999611e-08
2.8997447e-08
2.8995195e-08
2.8992954e-08
2.8990789e-08
2.8988546e-08
2.8986103e-08
2.8983513e-08
2.8980906e-08
2.8978249e-08
2.8975548e-08
2.8972777e-08
2.8969909e-08
2.8966902e-08
2.896374e-08
2.8960363e-08
2.8956792e-08
2.895302e-08
2.8949006e-08
2.8944706e-08
2.8940141e-08
2.8935288e-08
2.9037061e-09
1.1577079e-08
2.4336378e-08
2.9881087e-08
3.1098723e-08
3.1033847e-08
3.0852738e-08
3.0770564e-08
3.0750214e-08
3.074866e-08
3.0748417e-08
3.0746219e-08
3.0743801e-08
3.0741996e-08
3.0739924e-08
3.0737172e-08
3.0734217e-08
3.0731478e-08
3.0729515e-08
3.0727706e-08
3.0725453e-08
3.0722983e-08
3.0720513e-08
3.0718135e-08
3.0715912e-08
3.071381e-08
3.0711693e-08
3.0709588e-08
3.0707438e-08
3.0705291e-08
3.0703104e-08
3.0700902e-08
3.0698673e-08
3.0696441e-08
3.0694243e-08
3.0692268e-08
3.0690362e-08
3.068793e-08
3.0685233e-08
3.0682418e-08
3.0679609e-08
3.0676909e-08
3.0674168e-08
3.0671191e-08
3.0668e-08
3.0664762e-08
3.0661473e-08
3.0658124e-08
3.0654692e-08
3.0651131e-08
3.0647404e-08
3.0643488e-08
3.06393e-08
3.0634841e-08
3.0630124e-08
3.0625093e-08
3.0619665e-08
3.0613865e-08
3.0607664e-08
3.6341448e-09
1.468499e-08
2.7596091e-08
3.2271051e-08
3.3033075e-08
3.2870254e-08
3.2712424e-08
3.2656749e-08
3.2646076e-08
3.2645135e-08
3.2643091e-08
3.263968e-08
3.2636723e-08
3.2634376e-08
3.2631459e-08
3.2627901e-08
3.2624272e-08
3.2621077e-08
3.2618731e-08
3.2616308e-08
3.2613395e-08
3.261033e-08
3.2607321e-08
3.2604434e-08
3.2601742e-08
3.2599146e-08
3.2596545e-08
3.2593955e-08
3.2591336e-08
3.2588718e-08
3.2586065e-08
3.2583393e-08
3.2580696e-08
3.2577984e-08
3.2575301e-08
3.2572842e-08
3.2570603e-08
3.2567778e-08
3.2564562e-08
3.2561189e-08
3.2557819e-08
3.2554595e-08
3.2551393e-08
3.2547932e-08
3.2544171e-08
3.2540317e-08
3.253642e-08
3.2532451e-08
3.2528389e-08
3.2524172e-08
3.2519762e-08
3.2515137e-08
3.2510188e-08
3.2504884e-08
3.2499263e-08
3.2493273e-08
3.248677e-08
3.2479794e-08
3.2472297e-08
4.6763199e-09
1.8411644e-08
3.0971218e-08
3.4755188e-08
3.5135084e-08
3.4929105e-08
3.4806474e-08
3.4772485e-08
3.4767197e-08
3.4765058e-08
3.4761408e-08
3.4757081e-08
3.4753713e-08
3.4750767e-08
3.4746937e-08
3.474262e-08
3.4738343e-08
3.4734813e-08
3.473209e-08
3.4729024e-08
3.4725462e-08
3.4721822e-08
3.4718297e-08
3.4714947e-08
3.4711802e-08
3.4708743e-08
3.4705674e-08
3.4702633e-08
3.4699563e-08
3.4696512e-08
3.4693418e-08
3.4690313e-08
3.4687179e-08
3.4684025e-08
3.4680885e-08
3.4677963e-08
3.4675409e-08
3.4672321e-08
3.4668615e-08
3.466471e-08
3.4660792e-08
3.4657073e-08
3.4653465e-08
3.4649605e-08
3.4645334e-08
3.4640904e-08
3.4636447e-08
3.463191e-08
3.4627279e-08
3.462247e-08
3.4617446e-08
3.4612189e-08
3.4606569e-08
3.4600505e-08
3.4594055e-08
3.4587206e-08
3.4579729e-08
3.4571686e-08
3.4563001e-08
6.1899587e-09
2.2804307e-08
3.4622868e-08
3.7393678e-08
3.7462416e-08
3.7260207e-08
3.7175319e-08
3.7156368e-08
3.7152959e-08
3.7148908e-08
3.7144069e-08
3.7139058e-08
3.7135403e-08
3.7131762e-08
3.7127025e-08
3.7121994e-08
3.7117153e-08
3.7113438e-08
3.7110355e-08
3.710662e-08
3.7102447e-08
3.7098268e-08
3.7094287e-08
3.7090533e-08
3.7086983e-08
3.7083499e-08
3.7080018e-08
3.7076567e-08
3.7073104e-08
3.7069663e-08
3.7066185e-08
3.7062701e-08
3.7059192e-08
3.7055654e-08
3.7052119e-08
3.7048776e-08
3.7045934e-08
3.7042755e-08
3.7038642e-08
3.7034246e-08
3.7029818e-08
3.7025646e-08
3.7021719e-08
3.7017585e-08
3.7012912e-08
3.7007979e-08
3.7003051e-08
3.699803e-08
3.6992935e-08
3.6987643e-08
3.6982113e-08
3.6976344e-08
3.6970196e-08
3.6963516e-08
3.6956363e-08
3.694882e-08
3.6940535e-08
3.6931605e-08
3.6921912e-08
8.5052543e-09
2.7882263e-08
3.8328244e-08
4.018502e-08
4.0085694e-08
3.9920374e-08
3.9867498e-08
3.9857268e-08
3.9853203e-08
3.9847431e-08
3.9841916e-08
3.9836385e-08
3.9832569e-08
3.9828148e-08
3.9822564e-08
3.9816903e-08
3.981164e-08
3.9807959e-08
3.9804514e-08
3.9800126e-08
3.9795385e-08
3.9790754e-08
3.9786418e-08
3.9782354e-08
3.977847e-08
3.9774636e-08
3.9770827e-08
3.9767047e-08
3.9763278e-08
3.9759527e-08
3.9755756e-08
3.9751984e-08
3.9748192e-08
3.9744369e-08
3.9740539e-08
3.9736863e-08
3.9733793e-08
3.9730686e-08
3.972637e-08
3.9721554e-08
3.9716679e-08
3.9712126e-08
3.9707999e-08
3.9703786e-08
3.9698879e-08
3.9693571e-08
3.9688323e-08
3.9682948e-08
3.9677552e-08
3.9671949e-08
3.9666088e-08
3.9659991e-08
3.9653526e-08
3.9646471e-08
3.9638812e-08
3.9630827e-08
3.9622002e-08
3.9612464e-08
3.9602056e-08
1.2386791e-08
3.3612821e-08
4.2189992e-08
4.3263511e-08
4.3090504e-08
4.2973408e-08
4.2943842e-08
4.2937526e-08
4.2931832e-08
4.2924877e-08
4.2919146e-08
4.2913222e-08
4.2909414e-08
4.2904181e-08
4.2897843e-08
4.2891706e-08
4.2886264e-08
4.2882919e-08
4.2879089e-08
4.2874103e-08
4.2868889e-08
4.2863965e-08
4.2859436e-08
4.2855184e-08
4.2851088e-08
4.2847029e-08
4.2843026e-08
4.2839046e-08
4.2835106e-08
4.2831175e-08
4.2827255e-08
4.2823334e-08
4.2819408e-08
4.2815452e-08
4.2811482e-08
4.2807625e-08
4.2804421e-08
4.2801569e-08
4.2797425e-08
4.2792306e-08
4.2787077e-08
4.2782276e-08
4.2778108e-08
4.2774083e-08
4.2769219e-08
4.2763727e-08
4.2758406e-08
4.2752879e-08
4.2747425e-08
4.2741789e-08
4.273586e-08
4.2729718e-08
4.272324e-08
4.2716185e-08
4.2708339e-08
4.2700282e-08
4.2691343e-08
4.2681608e-08
4.2670939e-08
1.8665355e-08
3.9882418e-08
4.6240415e-08
4.6734053e-08
4.656838e-08
4.6498687e-08
4.6483203e-08
4.6477597e-08
4.6470401e-08
4.6463004e-08
4.6457512e-08
4.6451355e-08
4.6447803e-08
4.6441772e-08
4.6434884e-08
4.6428527e-08
4.6423314e-08
4.6420689e-08
4.6416452e-08
4.6410938e-08
4.640546e-08
4.6400514e-08
4.6396017e-08
4.639177e-08
4.6387647e-08
4.6383569e-08
4.6379568e-08
4.6375597e-08
4.6371689e-08
4.6367792e-08
4.6363938e-08
4.6360079e-08
4.6356249e-08
4.6352391e-08
4.6348523e-08
4.6344725e-08
4.6341556e-08
4.6339133e-08
4.6335767e-08
4.6330569e-08
4.6325126e-08
4.6320299e-08
4.6316334e-08
4.6312768e-08
4.630845e-08
4.6303046e-08
4.629805e-08
4.6292661e-08
4.6287512e-08
4.6282266e-08
4.6276672e-08
4.6270903e-08
4.6264862e-08
4.6258346e-08
4.6250858e-08
4.6243228e-08
4.6234855e-08
4.6225506e-08
4.6215274e-08
2.7000325e-08
4.6556011e-08
5.0600623e-08
5.0741159e-08
5.0629001e-08
5.0595309e-08
5.0586563e-08
5.0580484e-08
5.0572699e-08
5.0565652e-08
5.0560962e-08
5.0554799e-08
5.0551963e-08
5.0545105e-08
5.0538184e-08
5.0532034e-08
5.0527737e-08
5.0526146e-08
5.0521549e-08
5.0515681e-08
5.0510336e-08
5.0505767e-08
5.0501631e-08
5.0497673e-08
5.0493832e-08
5.0490042e-08
5.0486361e-08
5.0482707e-08
5.0479155e-08
5.0475606e-08
5.0472149e-08
5.0468673e-08
5.0465281e-08
5.0461855e-08
5.045847e-08
5.0455086e-08
5.0452276e-08
5.0450521e-08
5.0448568e-08
5.0443822e-08
5.0438422e-08
5.0433892e-08
5.0430515e-08
5.0427684e-08
5.0424713e-08
5.041975e-08
5.0415717e-08
5.0410868e-08
5.0406555e-08
5.0402312e-08
5.0397654e-08
5.0392855e-08
5.0387902e-08
5.0382625e-08
5.0376419e-08
5.0369856e-08
5.0363095e-08
5.0354928e-08
5.034617e-08
3.8773914e-08
5.3554363e-08
5.5458708e-08
5.5445904e-08
5.5396156e-08
5.5383725e-08
5.5377765e-08
5.5371443e-08
5.5364958e-08
5.5359102e-08
5.5355965e-08
5.5350238e-08
5.5348584e-08
5.5341389e-08
5.5335315e-08
5.5330331e-08
5.5327597e-08
5.5327182e-08
5.5322571e-08
5.5316887e-08
5.5312398e-08
5.5308746e-08
5.5305426e-08
5.5302227e-08
5.5299143e-08
5.5296129e-08
5.5293235e-08
5.5290386e-08
5.5287654e-08
5.5284946e-08
5.5282359e-08
5.527977e-08
5.5277301e-08
5.5274815e-08
5.5272426e-08
5.5270027e-08
5.52681e-08
5.5267286e-08
5.5267236e-08
5.5263888e-08
5.525914e-08
5.5255478e-08
5.5253136e-08
5.5251548e-08
5.5250525e-08
5.5246732e-08
5.5244585e-08
5.5240875e-08
5.5238142e-08
5.5235645e-08
5.5232786e-08
5.5229751e-08
5.5226805e-08
5.5223624e-08
5.521992e-08
5.5215351e-08
5.5211511e-08
5.5205802e-08
5.5199939e-08
5.4270976e-08
6.0642443e-08
6.1025446e-08
6.0994586e-08
6.0985353e-08
6.0981077e-08
6.097805e-08
6.0973762e-08
6.0969888e-08
6.0966343e-08
6.0965163e-08
6.0961056e-08
6.096031e-08
6.0955206e-08
6.0951223e-08
6.0949045e-08
6.0948e-08
6.0948531e-08
6.094492e-08
6.0940958e-08
6.0938529e-08
6.0936603e-08
6.0934825e-08
6.0933144e-08
6.0931558e-08
6.0930061e-08
6.092866e-08
6.0927339e-08
6.0926113e-08
6.0924958e-08
6.092391e-08
6.0922912e-08
6.0922029e-08
6.092118e-08
6.0920442e-08
6.0919733e-08
6.0919329e-08
6.091969e-08
6.0921358e-08
6.0920628e-08
6.0918069e-08
6.091651e-08
6.0915817e-08
6.0916187e-08
6.0916823e-08
6.0915916e-08
6.0916421e-08
6.0915174e-08
6.0915001e-08
6.0915046e-08
6.0914993e-08
6.0914796e-08
6.0914854e-08
6.0914785e-08
6.0914697e-08
6.0913849e-08
6.0913952e-08
6.0912773e-08
6.0911743e-08
1.5318187e-08
1.5317547e-08
1.5317081e-08
1.5317622e-08
1.5317952e-08
1.5318383e-08
1.5318809e-08
1.5319243e-08
1.5319688e-08
1.5320128e-08
1.5320567e-08
1.5320997e-08
1.5321424e-08
1.5321845e-08
1.5322271e-08
1.5322698e-08
1.5323128e-08
1.5323551e-08
1.5323955e-08
1.5324323e-08
1.5324651e-08
1.5324939e-08
1.532518e-08
1.5325362e-08
1.5325489e-08
1.5325575e-08
1.5325636e-08
1.5325683e-08
1.5325717e-08
1.5325728e-08
1.532571e-08
1.5325663e-08
1.5325603e-08
1.5325541e-08
1.5325465e-08
1.532534e-08
1.5325143e-08
1.5324903e-08
1.5324667e-08
1.5324433e-08
1.5324071e-08
1.5323322e-08
1.5321961e-08
1.5320446e-08
1.5321324e-08
1.5330807e-08
1.5358096e-08
1.5408035e-08
1.5462721e-08
1.5452146e-08
1.5223518e-08
1.4531023e-08
1.3078077e-08
1.0650518e-08
7.3553514e-09
3.8833809e-09
1.6684547e-09
1.6187406e-09
1.0841381e-08
1.5580977e-08
1.5580425e-08
1.558035e-08
1.5580805e-08
1.5581197e-08
1.5581623e-08
1.5582063e-08
1.5582505e-08
1.5582956e-08
1.55834e-08
1.5583844e-08
1.5584276e-08
1.5584706e-08
1.5585131e-08
1.558556e-08
1.558599e-08
1.5586425e-08
1.5586852e-08
1.5587258e-08
1.5587626e-08
1.5587954e-08
1.5588242e-08
1.5588485e-08
1.5588668e-08
1.5588796e-08
1.558888e-08
1.558894e-08
1.5588986e-08
1.5589018e-08
1.5589026e-08
1.5589005e-08
1.5588956e-08
1.5588894e-08
1.558883e-08
1.5588752e-08
1.5588623e-08
1.5588425e-08
1.5588182e-08
1.5587942e-08
1.5587693e-08
1.5587304e-08
1.5586536e-08
1.5585226e-08
1.558387e-08
1.5584865e-08
1.5593945e-08
1.561977e-08
1.5667617e-08
1.5722676e-08
1.5721831e-08
1.5521432e-08
1.4881055e-08
1.3495825e-08
1.1118849e-08
7.8065046e-09
4.2139739e-09
1.74208e-09
1.4444403e-09
9.1745249e-09
1.587391e-08
1.5873423e-08
1.5873497e-08
1.5873928e-08
1.5874347e-08
1.5874781e-08
1.5875233e-08
1.5875685e-08
1.5876145e-08
1.5876598e-08
1.5877048e-08
1.5877486e-08
1.5877921e-08
1.587835e-08
1.5878783e-08
1.5879218e-08
1.5879657e-08
1.5880089e-08
1.5880498e-08
1.5880867e-08
1.5881196e-08
1.5881486e-08
1.5881731e-08
1.5881918e-08
1.5882048e-08
1.5882132e-08
1.5882191e-08
1.5882237e-08
1.588227e-08
1.5882279e-08
1.5882259e-08
1.588221e-08
1.5882147e-08
1.5882084e-08
1.588201e-08
1.5881889e-08
1.5881694e-08
1.5881447e-08
1.5881205e-08
1.5880973e-08
1.5880647e-08
1.5879991e-08
1.5878763e-08
1.5877169e-08
1.5877005e-08
1.5883316e-08
1.5904891e-08
1.5949681e-08
1.6009982e-08
1.6034492e-08
1.5892371e-08
1.5347745e-08
1.4078302e-08
1.1786027e-08
8.450826e-09
4.6760833e-09
1.8649425e-09
1.2996808e-09
7.6575153e-09
1.620152e-08
1.6201124e-08
1.6201349e-08
1.6201764e-08
1.6202207e-08
1.6202649e-08
1.6203112e-08
1.6203573e-08
1.6204042e-08
1.62045e-08
1.6204956e-08
1.6205398e-08
1.6205836e-08
1.6206269e-08
1.6206705e-08
1.6207143e-08
1.6207587e-08
1.6208022e-08
1.6208434e-08
1.6208802e-08
1.6209131e-08
1.6209421e-08
1.6209668e-08
1.6209856e-08
1.6209987e-08
1.6210069e-08
1.6210127e-08
1.6210172e-08
1.6210206e-08
1.6210215e-08
1.6210196e-08
1.6210146e-08
1.6210082e-08
1.6210018e-08
1.6209949e-08
1.6209834e-08
1.6209643e-08
1.6209393e-08
1.6209144e-08
1.6208917e-08
1.6208624e-08
1.6208049e-08
1.6206936e-08
1.6205328e-08
1.6204552e-08
1.6208876e-08
1.6226633e-08
1.6267226e-08
1.6328574e-08
1.6370543e-08
1.6276711e-08
1.5820383e-08
1.4668397e-08
1.2475338e-08
9.137649e-09
5.1910272e-09
2.0400394e-09
1.1962196e-09
6.4215045e-09
1.6569128e-08
1.6568854e-08
1.6569179e-08
1.6569593e-08
1.6570051e-08
1.6570503e-08
1.6570976e-08
1.6571445e-08
1.657192e-08
1.6572384e-08
1.6572843e-08
1.6573288e-08
1.6573729e-08
1.6574164e-08
1.6574603e-08
1.6575044e-08
1.6575491e-08
1.6575929e-08
1.6576341e-08
1.6576708e-08
1.6577035e-08
1.6577325e-08
1.6577573e-08
1.6577763e-08
1.6577893e-08
1.6577972e-08
1.6578027e-08
1.6578071e-08
1.6578106e-08
1.6578116e-08
1.6578097e-08
1.6578047e-08
1.6577982e-08
1.6577918e-08
1.6577854e-08
1.6577748e-08
1.6577564e-08
1.6577312e-08
1.6577056e-08
1.6576833e-08
1.6576575e-08
1.6576086e-08
1.6575095e-08
1.6573506e-08
1.6572187e-08
1.6574595e-08
1.6588401e-08
1.6624059e-08
1.6684743e-08
1.6741771e-08
1.6694928e-08
1.6330239e-08
1.5307681e-08
1.3235049e-08
9.913884e-09
5.7889737e-09
2.2788684e-09
1.1269636e-09
5.349261e-09
1.6983208e-08
1.6983095e-08
1.6983487e-08
1.6983907e-08
1.6984376e-08
1.6984837e-08
1.6985319e-08
1.6985795e-08
1.6986274e-08
1.6986741e-08
1.6987202e-08
1.6987648e-08
1.6988089e-08
1.6988524e-08
1.6988964e-08
1.6989407e-08
1.6989856e-08
1.6990295e-08
1.6990706e-08
1.699107e-08
1.6991394e-08
1.6991683e-08
1.6991931e-08
1.699212e-08
1.6992247e-08
1.6992321e-08
1.6992373e-08
1.6992416e-08
1.6992451e-08
1.6992462e-08
1.6992445e-08
1.6992394e-08
1.6992329e-08
1.6992265e-08
1.6992206e-08
1.6992111e-08
1.6991936e-08
1.6991684e-08
1.6991421e-08
1.6991197e-08
1.6990969e-08
1.6990559e-08
1.6989704e-08
1.6988211e-08
1.6986561e-08
1.6987374e-08
1.6997383e-08
1.7027411e-08
1.7084986e-08
1.7152552e-08
1.7147625e-08
1.6873231e-08
1.5988567e-08
1.4058692e-08
1.0781385e-08
6.4786118e-09
2.5806253e-09
1.0958805e-09
4.4713889e-09
1.7451704e-08
1.7451742e-08
1.7452172e-08
1.7452604e-08
1.745308e-08
1.7453551e-08
1.7454039e-08
1.7454519e-08
1.7455e-08
1.7455467e-08
1.7455927e-08
1.745637e-08
1.7456809e-08
1.7457242e-08
1.745768e-08
1.7458123e-08
1.7458572e-08
1.745901e-08
1.7459417e-08
1.7459774e-08
1.7460094e-08
1.7460379e-08
1.7460626e-08
1.7460812e-08
1.7460934e-08
1.7461e-08
1.7461048e-08
1.746109e-08
1.7461125e-08
1.7461137e-08
1.7461121e-08
1.7461071e-08
1.7461004e-08
1.7460941e-08
1.7460888e-08
1.7460807e-08
1.7460645e-08
1.7460396e-08
1.7460126e-08
1.74599e-08
1.7459696e-08
1.745936e-08
1.7458644e-08
1.7457297e-08
1.7455488e-08
1.7455034e-08
1.746153e-08
1.7485533e-08
1.7537899e-08
1.7611496e-08
1.764266e-08
1.7455729e-08
1.67162e-08
1.4952518e-08
1.175343e-08
7.2884736e-09
2.9641829e-09
1.0998852e-09
3.738053e-09
1.7984389e-08
1.7984534e-08
1.7984986e-08
1.7985431e-08
1.7985912e-08
1.7986389e-08
1.7986879e-08
1.7987359e-08
1.7987839e-08
1.7988302e-08
1.7988756e-08
1.7989192e-08
1.7989624e-08
1.7990051e-08
1.7990484e-08
1.7990922e-08
1.7991369e-08
1.7991801e-08
1.7992199e-08
1.7992546e-08
1.7992859e-08
1.7993139e-08
1.7993383e-08
1.7993563e-08
1.7993675e-08
1.7993731e-08
1.7993773e-08
1.7993812e-08
1.7993848e-08
1.799386e-08
1.7993846e-08
1.7993797e-08
1.7993731e-08
1.7993667e-08
1.7993622e-08
1.7993558e-08
1.7993415e-08
1.7993173e-08
1.7992897e-08
1.7992666e-08
1.7992485e-08
1.7992216e-08
1.7991635e-08
1.7990474e-08
1.7988672e-08
1.7987324e-08
1.7990756e-08
1.8008632e-08
1.8053925e-08
1.8128733e-08
1.8188666e-08
1.8083576e-08
1.7493834e-08
1.5919561e-08
1.2839602e-08
8.238942e-09
3.4521408e-09
1.1507807e-09
3.1345133e-09
1.8593397e-08
1.8593621e-08
1.859408e-08
1.8594534e-08
1.8595017e-08
1.8595495e-08
1.8595983e-08
1.8596458e-08
1.8596929e-08
1.8597381e-08
1.8597823e-08
1.8598246e-08
1.8598665e-08
1.8599079e-08
1.8599502e-08
1.8599931e-08
1.8600369e-08
1.8600789e-08
1.8601172e-08
1.8601504e-08
1.8601806e-08
1.8602078e-08
1.8602315e-08
1.8602484e-08
1.8602583e-08
1.8602622e-08
1.8602657e-08
1.8602693e-08
1.8602728e-08
1.8602742e-08
1.860273e-08
1.8602682e-08
1.8602617e-08
1.8602555e-08
1.8602518e-08
1.8602476e-08
1.8602359e-08
1.8602131e-08
1.8601852e-08
1.8601616e-08
1.8601454e-08
1.8601249e-08
1.8600798e-08
1.859984e-08
1.8598183e-08
1.859632e-08
1.859728e-08
1.8609296e-08
1.8646137e-08
1.8717438e-08
1.8797701e-08
1.8765886e-08
1.8326446e-08
1.6963726e-08
1.4050373e-08
9.3548901e-09
4.0690259e-09
1.2396753e-09
2.6414711e-09
1.9294052e-08
1.9294326e-08
1.9294786e-08
1.9295243e-08
1.9295721e-08
1.9296194e-08
1.9296671e-08
1.9297132e-08
1.9297586e-08
1.9298019e-08
1.9298438e-08
1.9298838e-08
1.9299235e-08
1.9299628e-08
1.9300032e-08
1.9300443e-08
1.9300865e-08
1.9301265e-08
1.9301623e-08
1.9301932e-08
1.9302217e-08
1.9302477e-08
1.93027e-08
1.9302854e-08
1.9302931e-08
1.9302947e-08
1.9302972e-08
1.9303005e-08
1.9303038e-08
1.9303052e-08
1.9303043e-08
1.9303e-08
1.9302937e-08
1.9302878e-08
1.9302849e-08
1.9302837e-08
1.9302754e-08
1.9302551e-08
1.9302276e-08
1.9302034e-08
1.9301891e-08
1.9301748e-08
1.9301422e-08
1.9300669e-08
1.9299255e-08
1.9297234e-08
1.929642e-08
1.930322e-08
1.9330874e-08
1.9394375e-08
1.9485689e-08
1.951554e-08
1.9222178e-08
1.808947e-08
1.5395385e-08
1.0664309e-08
4.8559798e-09
1.3838476e-09
2.2440604e-09
2.0105932e-08
2.0106234e-08
2.0106687e-08
2.010714e-08
2.0107604e-08
2.0108062e-08
2.0108516e-08
2.0108951e-08
2.0109375e-08
2.0109774e-08
2.0110157e-08
2.011052e-08
2.0110881e-08
2.011124e-08
2.0111612e-08
2.0111994e-08
2.0112388e-08
2.0112754e-08
2.0113075e-08
2.0113351e-08
2.0113611e-08
2.011385e-08
2.0114052e-08
2.0114181e-08
2.0114227e-08
2.0114208e-08
2.0114222e-08
2.0114249e-08
2.0114279e-08
2.0114294e-08
2.0114289e-08
2.0114252e-08
2.0114195e-08
2.011414e-08
2.0114118e-08
2.011415e-08
2.0114113e-08
2.011395e-08
2.0113689e-08
2.0113444e-08
2.011332e-08
2.0113245e-08
2.0113044e-08
2.0112486e-08
2.0111367e-08
2.0109485e-08
2.0107635e-08
2.0110217e-08
2.0128739e-08
2.0181021e-08
2.0273848e-08
2.0350755e-08
2.0193403e-08
1.9303691e-08
1.6883789e-08
1.2197245e-08
5.8639325e-09
1.5907324e-09
1.9354252e-09
2.1054303e-08
2.1054626e-08
2.1055067e-08
2.1055502e-08
2.1055942e-08
2.1056371e-08
2.1056786e-08
2.1057181e-08
2.1057556e-08
2.1057904e-08
2.105823e-08
2.1058538e-08
2.1058844e-08
2.1059152e-08
2.1059474e-08
2.1059811e-08
2.1060159e-08
2.1060473e-08
2.1060738e-08
2.1060968e-08
2.1061191e-08
2.1061398e-08
2.1061566e-08
2.1061662e-08
2.1061655e-08
2.1061595e-08
2.1061591e-08
2.1061612e-08
2.1061636e-08
2.106165e-08
2.1061651e-08
2.1061624e-08
2.1061576e-08
2.1061531e-08
2.1061522e-08
2.1061601e-08
2.1061635e-08
2.1061532e-08
2.1061302e-08
2.106106e-08
2.1060949e-08
2.1060964e-08
2.1060899e-08
2.1060521e-08
2.1059703e-08
2.1058164e-08
2.1055977e-08
2.1055599e-08
2.1065892e-08
2.1104845e-08
2.1190228e-08
2.1297163e-08
2.1259044e-08
2.0618022e-08
1.8524628e-08
1.3984454e-08
7.1635287e-09
1.8756119e-09
1.7208401e-09
2.2171797e-08
2.2172157e-08
2.2172577e-08
2.2172985e-08
2.2173387e-08
2.2173772e-08
2.2174133e-08
2.2174468e-08
2.2174776e-08
2.2175051e-08
2.2175299e-08
2.2175531e-08
2.217576e-08
2.2175997e-08
2.2176249e-08
2.2176522e-08
2.2176802e-08
2.2177042e-08
2.2177229e-08
2.2177396e-08
2.2177568e-08
2.2177732e-08
2.2177852e-08
2.2177902e-08
2.2177803e-08
2.2177711e-08
2.2177677e-08
2.217769e-08
2.2177705e-08
2.2177718e-08
2.2177728e-08
2.2177717e-08
2.2177685e-08
2.2177654e-08
2.2177671e-08
2.2177795e-08
2.2177924e-08
2.2177916e-08
2.2177748e-08
2.2177519e-08
2.2177404e-08
2.2177532e-08
2.2177649e-08
2.2177436e-08
2.217689e-08
2.2175782e-08
2.2173819e-08
2.2171842e-08
2.2175592e-08
2.2200765e-08
2.2271324e-08
2.2390042e-08
2.244727e-08
2.2048046e-08
2.0328689e-08
1.6054835e-08
8.8423802e-09
2.3013317e-09
1.6225655e-09
2.3499021e-08
2.3499448e-08
2.3499841e-08
2.3500224e-08
2.3500589e-08
2.350093e-08
2.350123e-08
2.3501505e-08
2.3501736e-08
2.3501931e-08
2.3502089e-08
2.3502236e-08
2.3502378e-08
2.3502535e-08
2.3502707e-08
2.3502912e-08
2.3503114e-08
2.3503267e-08
2.3503358e-08
2.3503454e-08
2.3503575e-08
2.3503697e-08
2.350376e-08
2.3503727e-08
2.3503535e-08
2.3503411e-08
2.3503351e-08
2.3503352e-08
2.3503358e-08
2.3503375e-08
2.3503393e-08
2.350341e-08
2.3503399e-08
2.3503397e-08
2.3503448e-08
2.3503626e-08
2.3503835e-08
2.3504001e-08
2.3503921e-08
2.3503723e-08
2.3503596e-08
2.3503813e-08
2.3504153e-08
2.3504142e-08
2.3503814e-08
2.3503098e-08
2.3501694e-08
2.3499364e-08
2.3498782e-08
2.3511483e-08
2.3562395e-08
2.3675061e-08
2.3797959e-08
2.3621563e-08
2.2312451e-08
1.8437577e-08
1.0984956e-08
2.9970534e-09
1.5830493e-09
1.3195106e-08
1.6074246e-08
1.9208739e-08
2.2710176e-08
2.6709216e-08
3.1306135e-08
3.6571881e-08
4.2562774e-08
4.9329631e-08
5.6919902e-08
6.5372004e-08
7.4709498e-08
8.4932288e-08
9.6007077e-08
1.0785433e-07
1.2033555e-07
1.3323664e-07
1.4625447e-07
1.5898377e-07
1.7091278e-07
1.814255e-07
1.8982066e-07
1.9535545e-07
1.9735711e-07
1.9535368e-07
1.888583e-07
1.7765629e-07
1.6178006e-07
1.4166464e-07
1.186741e-07
9.2718339e-08
6.7122251e-08
4.3129381e-08
2.2955497e-08
8.0181225e-09
5.6294944e-10
1.8671815e-09
8.8165598e-09
2.3892955e-08
5.0459435e-08
8.5423808e-08
1.2651716e-07
1.6898515e-07
2.1341601e-07
2.6133585e-07
3.1250377e-07
3.6476889e-07
4.1772629e-07
4.6994436e-07
5.2215859e-07
5.742278e-07
6.2529715e-07
6.7477599e-07
7.2237096e-07
7.6772935e-07
8.1051835e-07
8.5072743e-07
8.8848311e-07
9.2392421e-07
9.571721e-07
9.8835239e-07
1.0175949e-06
1.0449008e-06
1.07024e-06
1.0937824e-06
1.1157697e-06
1.1363508e-06
1.1556184e-06
1.173649e-06
1.1904959e-06
1.2062217e-06
1.2208851e-06
1.2345841e-06
1.2473004e-06
2.0943858e-09
2.6449941e-09
3.2689643e-09
3.9621062e-09
4.7298287e-09
5.5840877e-09
6.5384945e-09
7.6056013e-09
8.7961045e-09
1.0119325e-08
1.1583051e-08
1.3192911e-08
1.4951195e-08
1.6855237e-08
1.8895491e-08
2.1053292e-08
2.3298399e-08
2.5586318e-08
2.7856148e-08
3.002898e-08
3.2008035e-08
3.3680119e-08
3.4923022e-08
3.5573921e-08
3.54685e-08
3.4532827e-08
3.2782266e-08
3.0250884e-08
2.7016054e-08
2.3264888e-08
1.9189319e-08
1.5029247e-08
1.0977065e-08
7.6303718e-09
4.7890978e-09
2.4500615e-09
1.0880687e-09
1.2966625e-09
2.3610187e-09
4.652837e-09
8.0751908e-09
1.2532289e-08
1.7610778e-08
2.3099632e-08
2.9007169e-08
3.5353094e-08
4.1995057e-08
4.8837554e-08
5.5696299e-08
6.2526968e-08
6.9320119e-08
7.6028867e-08
8.2591301e-08
8.8994385e-08
9.5193908e-08
1.0114336e-07
1.0681387e-07
1.1219126e-07
1.1727358e-07
1.2206452e-07
1.2657125e-07
1.3080672e-07
1.3479094e-07
1.385293e-07
1.4201952e-07
1.4527406e-07
1.4830688e-07
1.5113282e-07
1.5376558e-07
1.5621864e-07
1.5850111e-07
1.6062335e-07
1.6259215e-07
1.6446283e-07
1.6051527e-09
1.5581774e-09
1.5283387e-09
1.5251763e-09
1.5601276e-09
1.6397774e-09
1.7721534e-09
1.968421e-09
2.2350506e-09
2.5744273e-09
2.9850746e-09
3.4649247e-09
4.0109395e-09
4.6192489e-09
5.2852057e-09
6.0031961e-09
6.7661028e-09
7.5643571e-09
8.384911e-09
9.2100686e-09
1.0016693e-08
1.0776113e-08
1.1454864e-08
1.2012204e-08
1.2401102e-08
1.2578973e-08
1.251778e-08
1.2203786e-08
1.1638767e-08
1.0844356e-08
9.8640433e-09
8.7287161e-09
7.5127367e-09
6.2636406e-09
5.1044921e-09
4.0777755e-09
3.1637806e-09
2.5242483e-09
2.0318799e-09
2.0213567e-09
2.2038604e-09
2.5989409e-09
3.1790718e-09
3.8955759e-09
4.7335356e-09
5.6926864e-09
6.7511826e-09
7.8866583e-09
9.0752249e-09
1.0297243e-08
1.153752e-08
1.2782474e-08
1.4020767e-08
1.5243201e-08
1.6441116e-08
1.7607187e-08
1.8735461e-08
1.9821275e-08
2.0861342e-08
2.1853504e-08
2.2796624e-08
2.3690337e-08
2.4533764e-08
2.5326698e-08
2.6070952e-08
2.6768475e-08
2.7421168e-08
2.8031023e-08
2.8600218e-08
2.913093e-08
2.9625151e-08
3.0084928e-08
3.0511953e-08
3.0910441e-08
3.230039e-09
2.6259313e-09
2.1911078e-09
1.8983058e-09
1.724439e-09
1.627985e-09
1.5669989e-09
1.5319164e-09
1.4923932e-09
1.486939e-09
1.5128182e-09
1.5781863e-09
1.6904626e-09
1.8548309e-09
2.0729221e-09
2.3436607e-09
2.6644233e-09
3.0307427e-09
3.4363206e-09
3.8694765e-09
4.3128312e-09
4.7575621e-09
5.1940361e-09
5.60984e-09
5.9895656e-09
6.3159575e-09
6.5723557e-09
6.7442418e-09
6.821533e-09
6.7995733e-09
6.6796882e-09
6.4718607e-09
6.1884378e-09
5.8358676e-09
5.436952e-09
5.0178551e-09
4.595788e-09
4.1591173e-09
3.7790855e-09
3.4484808e-09
3.186301e-09
3.0046882e-09
2.8622199e-09
2.8284514e-09
2.8403424e-09
2.8857355e-09
2.9629008e-09
3.0678032e-09
3.1959307e-09
3.3426566e-09
3.5044957e-09
3.6733938e-09
3.8526628e-09
4.0392483e-09
4.2302011e-09
4.4229855e-09
4.6154576e-09
4.8058181e-09
4.9925896e-09
5.1745746e-09
5.3508489e-09
5.5206821e-09
5.6835703e-09
5.839221e-09
5.98742e-09
6.1280683e-09
6.2611478e-09
6.3867238e-09
6.5049672e-09
6.6157621e-09
6.7193721e-09
6.8161412e-09
6.9064365e-09
6.9905996e-09
6.3124476e-09
5.1833638e-09
4.224878e-09
3.4384577e-09
2.8206191e-09
2.3617446e-09
2.0406361e-09
1.8094074e-09
1.6596847e-09
1.56587e-09
1.5078046e-09
1.471924e-09
1.4410206e-09
1.4214548e-09
1.4253788e-09
1.4536351e-09
1.5124429e-09
1.6061943e-09
1.7391318e-09
1.9209106e-09
2.1465429e-09
2.4090123e-09
2.6885056e-09
2.975345e-09
3.2635794e-09
3.5468506e-09
3.8176989e-09
4.0676579e-09
4.2889176e-09
4.4748466e-09
4.6198363e-09
4.7214642e-09
4.7797115e-09
4.7954865e-09
4.7713988e-09
4.7127835e-09
4.6003513e-09
4.5061752e-09
4.3853414e-09
4.2528543e-09
4.1105301e-09
3.9681719e-09
3.8337419e-09
3.7192504e-09
3.6243288e-09
3.54867e-09
3.4914168e-09
3.4438534e-09
3.4040601e-09
3.3636039e-09
3.3482139e-09
3.3284924e-09
3.3193212e-09
3.3152452e-09
3.3147079e-09
3.3170611e-09
3.3218242e-09
3.3285637e-09
3.3368816e-09
3.346424e-09
3.3568847e-09
3.3679957e-09
3.3795132e-09
3.3912374e-09
3.4030231e-09
3.4147514e-09
3.4263142e-09
3.4375831e-09
3.4485483e-09
3.4591968e-09
3.4694781e-09
3.4793553e-09
3.4888049e-09
3.4978051e-09
9.5157144e-09
8.1766844e-09
6.9183288e-09
5.7900128e-09
4.8106209e-09
3.9870886e-09
3.3214611e-09
2.7877641e-09
2.3747041e-09
2.0627933e-09
1.8357596e-09
1.6791617e-09
1.5622886e-09
1.4883202e-09
1.4425049e-09
1.4133146e-09
1.3963728e-09
1.3769471e-09
1.375607e-09
1.3900539e-09
1.4242459e-09
1.4951567e-09
1.6034837e-09
1.7446678e-09
1.9150156e-09
2.1022002e-09
2.2955347e-09
2.4892614e-09
2.6790613e-09
2.8610016e-09
3.0308514e-09
3.1851331e-09
3.3213908e-09
3.4382358e-09
3.5348439e-09
3.6134915e-09
3.6745086e-09
3.7156958e-09
3.7415875e-09
3.7546634e-09
3.7569485e-09
3.7470597e-09
3.7248747e-09
3.695556e-09
3.6697121e-09
3.6448852e-09
3.621904e-09
3.600564e-09
3.5803148e-09
3.5606126e-09
3.5424588e-09
3.5258504e-09
3.5109151e-09
3.4976229e-09
3.4858422e-09
3.4754063e-09
3.4661797e-09
3.4580446e-09
3.4508912e-09
3.444617e-09
3.4391284e-09
3.4343394e-09
3.4301632e-09
3.42652e-09
3.4233459e-09
3.4205885e-09
3.4182742e-09
3.4163546e-09
3.4146735e-09
3.4132031e-09
3.4119238e-09
3.4108201e-09
3.4098747e-09
3.4090725e-09