/*--------------------------------*- C++ -*----------------------------------*\
| =========                 |                                                 |
| \\      /  F ield         | OpenFOAM: The Open Source CFD Toolbox           |
|  \\    /   O peration     | Version:  v2006                                 |
|   \\  /    A nd           | Website:  www.openfoam.com                      |
|    \\/     M anipulation  |                                                 |
\*---------------------------------------------------------------------------*/
FoamFile
{
    version     2.0;
    format      ascii;
    class       volScalarField;
    location    "2000";
    object      nut;
}
// * * * * * * * * * * * * * * * * * * * * * * * * * * * * * * * * * * * * * //

dimensions      [0 2 -1 0 0 0 0];


internalField   nonuniform List<scalar> 
55713
(
2.9196715e-10
2.8823339e-09
2.8888081e-08
6.9314976e-08
8.9611415e-08
9.5668512e-08
9.5900948e-08
9.504868e-08
9.4485997e-08
9.4280217e-08
9.4246764e-08
9.4258462e-08
9.4269849e-08
9.427483e-08
9.4276496e-08
9.4277047e-08
9.4276133e-08
9.4274396e-08
9.4273963e-08
9.4275524e-08
9.4277055e-08
9.427731e-08
9.4276508e-08
9.4275668e-08
9.4274976e-08
9.4274833e-08
9.4274764e-08
9.4274747e-08
9.4274557e-08
9.4274411e-08
9.4274187e-08
9.4273982e-08
9.4273742e-08
9.4273625e-08
9.4273681e-08
9.4274233e-08
9.4274212e-08
9.4273743e-08
9.4272936e-08
9.4272104e-08
9.4271351e-08
9.4270726e-08
9.4269921e-08
9.4268942e-08
9.4267838e-08
9.4266768e-08
9.4265666e-08
9.426466e-08
9.4263655e-08
9.4262696e-08
9.4261668e-08
9.4260634e-08
9.4259502e-08
9.4258409e-08
9.4257277e-08
9.4256207e-08
9.4255083e-08
9.4253973e-08
9.4252694e-08
3.4913538e-10
4.1804576e-09
3.5928582e-08
7.6169563e-08
9.3052896e-08
9.6974217e-08
9.6594753e-08
9.5764017e-08
9.533256e-08
9.5207231e-08
9.5200729e-08
9.5214386e-08
9.5222405e-08
9.5224992e-08
9.5225869e-08
9.5225823e-08
9.5224183e-08
9.5221981e-08
9.5221329e-08
9.5222873e-08
9.5223988e-08
9.522346e-08
9.5222269e-08
9.5221082e-08
9.5220111e-08
9.521966e-08
9.5219257e-08
9.5218878e-08
9.5218364e-08
9.5217867e-08
9.5217314e-08
9.5216757e-08
9.5216179e-08
9.5215682e-08
9.5215369e-08
9.5215653e-08
9.5215443e-08
9.5214629e-08
9.5213468e-08
9.5212229e-08
9.5211085e-08
9.521009e-08
9.5208953e-08
9.5207592e-08
9.5206088e-08
9.5204581e-08
9.5203043e-08
9.5201583e-08
9.5200135e-08
9.5198694e-08
9.5197173e-08
9.5195601e-08
9.5193898e-08
9.5192167e-08
9.519037e-08
9.5188565e-08
9.5186651e-08
9.5184655e-08
9.5182426e-08
4.3147921e-10
5.8737952e-09
4.3420223e-08
8.2287664e-08
9.5730231e-08
9.8040062e-08
9.7315315e-08
9.6571475e-08
9.6261266e-08
9.6195632e-08
9.6203879e-08
9.6216136e-08
9.6220717e-08
9.6221449e-08
9.6221776e-08
9.6221176e-08
9.6219033e-08
9.6216355e-08
9.6215723e-08
9.6217e-08
9.6217405e-08
9.6216365e-08
9.6214813e-08
9.621331e-08
9.6212077e-08
9.6211352e-08
9.6210607e-08
9.6209914e-08
9.6209052e-08
9.6208244e-08
9.6207365e-08
9.6206491e-08
9.620558e-08
9.6204738e-08
9.6204046e-08
9.6204047e-08
9.6203736e-08
9.6202618e-08
9.6201112e-08
9.6199492e-08
9.6197958e-08
9.6196624e-08
9.6195177e-08
9.6193477e-08
9.6191582e-08
9.6189669e-08
9.6187717e-08
9.6185855e-08
9.6184008e-08
9.6182144e-08
9.6180176e-08
9.617813e-08
9.6175909e-08
9.6173604e-08
9.61712e-08
9.6168738e-08
9.6166113e-08
9.6163323e-08
9.6160218e-08
5.5129237e-10
8.1902922e-09
5.1565397e-08
8.7801009e-08
9.7965287e-08
9.8988371e-08
9.8089567e-08
9.7476553e-08
9.7275228e-08
9.7251062e-08
9.726499e-08
9.7273381e-08
9.7274665e-08
9.7274732e-08
9.7274753e-08
9.7273592e-08
9.7270944e-08
9.7267851e-08
9.7267287e-08
9.7268248e-08
9.7267986e-08
9.7266472e-08
9.7264581e-08
9.7262779e-08
9.7261331e-08
9.7260334e-08
9.7259288e-08
9.7258293e-08
9.7257137e-08
9.7256046e-08
9.725487e-08
9.7253693e-08
9.7252482e-08
9.7251317e-08
9.7250276e-08
9.7249944e-08
9.7249628e-08
9.7248243e-08
9.7246426e-08
9.7244443e-08
9.7242542e-08
9.7240885e-08
9.7239174e-08
9.7237175e-08
9.723492e-08
9.7232618e-08
9.7230289e-08
9.7228066e-08
9.7225876e-08
9.7223638e-08
9.7221276e-08
9.7218805e-08
9.7216124e-08
9.7213293e-08
9.7210334e-08
9.7207276e-08
9.7204003e-08
9.7200494e-08
9.7196585e-08
7.259569e-10
1.1276933e-08
6.0065376e-08
9.2554538e-08
9.9794694e-08
9.987561e-08
9.8951009e-08
9.8488095e-08
9.8373485e-08
9.8373786e-08
9.8386882e-08
9.8390531e-08
9.8390121e-08
9.8390038e-08
9.838961e-08
9.8387896e-08
9.8384758e-08
9.8381382e-08
9.8380964e-08
9.8381505e-08
9.8380579e-08
9.8378675e-08
9.8376488e-08
9.8374425e-08
9.8372799e-08
9.8371535e-08
9.8370222e-08
9.8368945e-08
9.836754e-08
9.8366193e-08
9.8364764e-08
9.8363322e-08
9.836185e-08
9.8360392e-08
9.8359034e-08
9.8358352e-08
9.835804e-08
9.835649e-08
9.8354394e-08
9.8352077e-08
9.8349837e-08
9.8347886e-08
9.834596e-08
9.8343724e-08
9.8341157e-08
9.8338496e-08
9.8335834e-08
9.8333304e-08
9.8330829e-08
9.832828e-08
9.8325588e-08
9.8322762e-08
9.8319693e-08
9.8316407e-08
9.8312964e-08
9.8309393e-08
9.8305564e-08
9.8301438e-08
9.8296833e-08
9.8240059e-10
1.5328725e-08
6.8645345e-08
9.6139688e-08
1.0132087e-07
1.007648e-07
9.9924227e-08
9.9608691e-08
9.9555742e-08
9.9566966e-08
9.9575317e-08
9.9575713e-08
9.9574611e-08
9.9574429e-08
9.9573408e-08
9.9571223e-08
9.9567612e-08
9.9564162e-08
9.9563917e-08
9.9563941e-08
9.9562416e-08
9.9560159e-08
9.9557731e-08
9.9555463e-08
9.9553703e-08
9.9552193e-08
9.9550646e-08
9.9549118e-08
9.9547504e-08
9.9545932e-08
9.9544291e-08
9.9542627e-08
9.9540943e-08
9.9539245e-08
9.953762e-08
9.9536589e-08
9.9536237e-08
9.9534686e-08
9.9532343e-08
9.9529731e-08
9.9527185e-08
9.9524973e-08
9.9522882e-08
9.9520484e-08
9.951767e-08
9.9514697e-08
9.9511753e-08
9.9508975e-08
9.9506275e-08
9.9503484e-08
9.9500533e-08
9.9497433e-08
9.9494063e-08
9.9490412e-08
9.9486564e-08
9.9482579e-08
9.94783e-08
9.9473677e-08
9.9468495e-08
1.3629811e-09
2.0558515e-08
7.6905414e-08
9.9022755e-08
1.0256232e-07
1.0169622e-07
1.0102756e-07
1.0083864e-07
1.0082359e-07
1.0083527e-07
1.0083908e-07
1.0083745e-07
1.0083624e-07
1.0083589e-07
1.0083416e-07
1.0083158e-07
1.0082756e-07
1.0082432e-07
1.0082422e-07
1.0082367e-07
1.0082159e-07
1.0081904e-07
1.0081641e-07
1.0081404e-07
1.0081215e-07
1.0081046e-07
1.008087e-07
1.0080699e-07
1.0080518e-07
1.0080345e-07
1.0080162e-07
1.007998e-07
1.0079794e-07
1.0079607e-07
1.0079423e-07
1.0079291e-07
1.0079241e-07
1.0079109e-07
1.0078854e-07
1.0078568e-07
1.0078286e-07
1.0078043e-07
1.0077823e-07
1.0077576e-07
1.0077278e-07
1.0076957e-07
1.0076642e-07
1.0076346e-07
1.0076061e-07
1.0075766e-07
1.0075453e-07
1.0075124e-07
1.0074769e-07
1.0074377e-07
1.0073963e-07
1.0073534e-07
1.0073074e-07
1.0072577e-07
1.0072016e-07
1.9400408e-09
2.7191737e-08
8.5008691e-08
1.0204606e-07
1.0365824e-07
1.0274038e-07
1.022732e-07
1.0217629e-07
1.0218087e-07
1.0218789e-07
1.0218826e-07
1.0218559e-07
1.0218462e-07
1.0218389e-07
1.0218144e-07
1.0217853e-07
1.0217426e-07
1.0217151e-07
1.0217149e-07
1.0217026e-07
1.0216775e-07
1.0216492e-07
1.0216219e-07
1.0215979e-07
1.0215784e-07
1.0215599e-07
1.0215409e-07
1.0215223e-07
1.0215031e-07
1.0214844e-07
1.021465e-07
1.0214456e-07
1.021426e-07
1.0214061e-07
1.0213865e-07
1.0213707e-07
1.0213641e-07
1.0213547e-07
1.021328e-07
1.0212975e-07
1.0212671e-07
1.0212411e-07
1.0212188e-07
1.0211941e-07
1.021164e-07
1.0211305e-07
1.021098e-07
1.0210674e-07
1.0210384e-07
1.0210081e-07
1.020976e-07
1.0209422e-07
1.020906e-07
1.0208657e-07
1.0208225e-07
1.0207781e-07
1.0207305e-07
1.0206789e-07
1.0206205e-07
2.8590862e-09
3.5441205e-08
9.221676e-08
1.043394e-07
1.0476703e-07
1.0395969e-07
1.0366351e-07
1.0362481e-07
1.0363362e-07
1.0363601e-07
1.0363461e-07
1.0363161e-07
1.0363101e-07
1.0362967e-07
1.0362658e-07
1.0362346e-07
1.0361914e-07
1.0361716e-07
1.0361706e-07
1.0361516e-07
1.0361225e-07
1.0360924e-07
1.0360651e-07
1.0360419e-07
1.036022e-07
1.0360025e-07
1.035983e-07
1.0359635e-07
1.0359439e-07
1.0359245e-07
1.0359047e-07
1.0358849e-07
1.0358649e-07
1.0358446e-07
1.0358245e-07
1.0358071e-07
1.0357993e-07
1.0357933e-07
1.0357682e-07
1.0357362e-07
1.0357044e-07
1.0356774e-07
1.0356557e-07
1.0356321e-07
1.0356029e-07
1.0355692e-07
1.0355373e-07
1.0355066e-07
1.0354782e-07
1.0354483e-07
1.0354164e-07
1.0353829e-07
1.0353476e-07
1.035308e-07
1.0352645e-07
1.0352204e-07
1.0351732e-07
1.035122e-07
1.0350633e-07
4.4543341e-09
4.5460211e-08
9.85846e-08
1.0633385e-07
1.0599274e-07
1.0535849e-07
1.0519596e-07
1.0518906e-07
1.0519517e-07
1.0519399e-07
1.0519197e-07
1.0518894e-07
1.0518875e-07
1.0518668e-07
1.0518307e-07
1.0517988e-07
1.051758e-07
1.0517485e-07
1.0517438e-07
1.0517189e-07
1.0516867e-07
1.0516563e-07
1.0516306e-07
1.0516086e-07
1.0515891e-07
1.0515694e-07
1.0515502e-07
1.0515307e-07
1.0515116e-07
1.0514922e-07
1.051473e-07
1.0514536e-07
1.0514342e-07
1.0514144e-07
1.0513949e-07
1.0513771e-07
1.0513684e-07
1.0513657e-07
1.0513456e-07
1.0513127e-07
1.0512801e-07
1.0512532e-07
1.0512328e-07
1.0512117e-07
1.0511853e-07
1.0511525e-07
1.0511232e-07
1.0510935e-07
1.0510672e-07
1.0510391e-07
1.0510088e-07
1.0509772e-07
1.0509446e-07
1.050908e-07
1.0508663e-07
1.0508246e-07
1.0507802e-07
1.0507321e-07
1.050676e-07
7.1609102e-09
5.7272189e-08
1.0383447e-07
1.0810337e-07
1.0738096e-07
1.0694721e-07
1.0687523e-07
1.0687985e-07
1.0688104e-07
1.0687808e-07
1.0687632e-07
1.0687335e-07
1.068736e-07
1.0687078e-07
1.0686686e-07
1.0686371e-07
1.0686031e-07
1.0686053e-07
1.0685941e-07
1.0685638e-07
1.0685303e-07
1.0685021e-07
1.0684793e-07
1.0684594e-07
1.0684409e-07
1.0684222e-07
1.0684042e-07
1.0683858e-07
1.0683682e-07
1.06835e-07
1.0683326e-07
1.0683145e-07
1.068297e-07
1.0682789e-07
1.0682611e-07
1.0682444e-07
1.0682357e-07
1.0682357e-07
1.0682249e-07
1.0681923e-07
1.0681596e-07
1.0681341e-07
1.0681161e-07
1.0680988e-07
1.0680784e-07
1.0680472e-07
1.0680228e-07
1.0679956e-07
1.067973e-07
1.0679483e-07
1.0679217e-07
1.067894e-07
1.0678663e-07
1.0678352e-07
1.0677983e-07
1.0677614e-07
1.0677233e-07
1.067681e-07
1.0676311e-07
1.102249e-08
7.0804304e-08
1.0728897e-07
1.097052e-07
1.0897365e-07
1.0872977e-07
1.0870776e-07
1.0871164e-07
1.0870954e-07
1.0870639e-07
1.0870535e-07
1.0870243e-07
1.0870326e-07
1.0869967e-07
1.0869581e-07
1.0869283e-07
1.0869082e-07
1.0869194e-07
1.0869004e-07
1.0868656e-07
1.0868341e-07
1.0868108e-07
1.0867924e-07
1.0867753e-07
1.0867592e-07
1.0867428e-07
1.0867275e-07
1.0867115e-07
1.0866968e-07
1.0866811e-07
1.0866669e-07
1.0866514e-07
1.0866374e-07
1.0866221e-07
1.086608e-07
1.0865936e-07
1.0865865e-07
1.0865893e-07
1.0865901e-07
1.0865615e-07
1.0865301e-07
1.0865068e-07
1.0864924e-07
1.0864799e-07
1.0864702e-07
1.0864414e-07
1.0864247e-07
1.0864013e-07
1.0863841e-07
1.0863648e-07
1.0863446e-07
1.0863234e-07
1.0863029e-07
1.0862802e-07
1.086252e-07
1.0862227e-07
1.0861949e-07
1.0861617e-07
1.0861224e-07
1.6794666e-08
8.5993575e-08
1.0959769e-07
1.1120936e-07
1.1079142e-07
1.1070228e-07
1.1070006e-07
1.1069958e-07
1.1069695e-07
1.106945e-07
1.106944e-07
1.1069157e-07
1.10693e-07
1.1068893e-07
1.1068567e-07
1.1068338e-07
1.1068302e-07
1.1068445e-07
1.1068208e-07
1.1067852e-07
1.1067608e-07
1.1067446e-07
1.1067313e-07
1.1067186e-07
1.1067065e-07
1.1066943e-07
1.1066831e-07
1.1066715e-07
1.1066611e-07
1.1066499e-07
1.1066403e-07
1.1066294e-07
1.1066203e-07
1.1066099e-07
1.106601e-07
1.1065913e-07
1.1065876e-07
1.1065924e-07
1.1066058e-07
1.106587e-07
1.1065592e-07
1.1065392e-07
1.106529e-07
1.1065243e-07
1.1065259e-07
1.1065026e-07
1.1064969e-07
1.1064786e-07
1.1064681e-07
1.1064576e-07
1.1064465e-07
1.1064343e-07
1.1064237e-07
1.1064121e-07
1.1063965e-07
1.1063781e-07
1.1063643e-07
1.1063445e-07
1.1063204e-07
2.4866059e-08
1.0252461e-07
1.1276956e-07
1.1294112e-07
1.1284745e-07
1.128421e-07
1.1284278e-07
1.1284108e-07
1.1283946e-07
1.1283812e-07
1.1283865e-07
1.1283648e-07
1.1283751e-07
1.1283458e-07
1.1283248e-07
1.1283182e-07
1.1283229e-07
1.1283354e-07
1.128314e-07
1.1282892e-07
1.1282778e-07
1.1282705e-07
1.1282639e-07
1.1282577e-07
1.1282519e-07
1.1282463e-07
1.1282412e-07
1.1282363e-07
1.1282319e-07
1.1282276e-07
1.128224e-07
1.1282201e-07
1.1282172e-07
1.1282139e-07
1.1282116e-07
1.1282088e-07
1.1282094e-07
1.1282146e-07
1.1282335e-07
1.1282305e-07
1.1282117e-07
1.1282002e-07
1.128196e-07
1.1282e-07
1.1282061e-07
1.1281985e-07
1.1282046e-07
1.1281955e-07
1.1281942e-07
1.128195e-07
1.1281948e-07
1.1281942e-07
1.1281951e-07
1.128196e-07
1.1281952e-07
1.1281923e-07
1.1281937e-07
1.1281913e-07
1.1281873e-07
8.5581587e-08
8.5579353e-08
8.5577865e-08
8.5579118e-08
8.5579798e-08
8.5580693e-08
8.558158e-08
8.5582465e-08
8.5583395e-08
8.5584303e-08
8.5585229e-08
8.5586129e-08
8.5587052e-08
8.5587993e-08
8.5589e-08
8.5590062e-08
8.5591183e-08
8.5592294e-08
8.5593324e-08
8.5594197e-08
8.5594931e-08
8.5595552e-08
8.5596055e-08
8.559636e-08
8.5596446e-08
8.5596365e-08
8.5596256e-08
8.5596197e-08
8.5596193e-08
8.5596184e-08
8.5596142e-08
8.5596081e-08
8.5596082e-08
8.5596194e-08
8.559634e-08
8.5596307e-08
8.5595992e-08
8.559558e-08
8.5595384e-08
8.5595351e-08
8.5594557e-08
8.5591095e-08
8.5583358e-08
8.55749e-08
8.5584546e-08
8.565738e-08
8.5859796e-08
8.6228788e-08
8.6645185e-08
8.6626685e-08
8.5091563e-08
8.0217787e-08
6.9345533e-08
5.0613875e-08
2.6983932e-08
8.6135648e-09
1.6819987e-09
5.0963778e-10
7.0147114e-10
8.587207e-08
8.5870132e-08
8.5869733e-08
8.5870743e-08
8.5871571e-08
8.587244e-08
8.5873348e-08
8.5874241e-08
8.5875175e-08
8.5876086e-08
8.5877008e-08
8.5877906e-08
8.5878825e-08
8.5879763e-08
8.5880766e-08
8.5881825e-08
8.5882938e-08
8.5884038e-08
8.5885051e-08
8.5885906e-08
8.5886625e-08
8.5887239e-08
8.588774e-08
8.5888045e-08
8.5888127e-08
8.5888039e-08
8.5887926e-08
8.5887867e-08
8.5887862e-08
8.5887848e-08
8.5887802e-08
8.5887738e-08
8.5887738e-08
8.5887848e-08
8.588799e-08
8.5887958e-08
8.5887649e-08
8.5887232e-08
8.5886996e-08
8.5886848e-08
8.5885871e-08
8.5882345e-08
8.5875101e-08
8.5867864e-08
8.587813e-08
8.5947189e-08
8.6137164e-08
8.6488102e-08
8.6904071e-08
8.6956039e-08
8.5635477e-08
8.1150784e-08
7.0974613e-08
5.2841387e-08
2.9036205e-08
9.6154565e-09
1.8200889e-09
4.7077806e-10
6.2611522e-10
8.6191805e-08
8.6190068e-08
8.6190112e-08
8.6191033e-08
8.6191919e-08
8.6192789e-08
8.6193714e-08
8.6194619e-08
8.6195562e-08
8.6196479e-08
8.6197405e-08
8.6198302e-08
8.6199219e-08
8.6200151e-08
8.6201149e-08
8.62022e-08
8.6203306e-08
8.6204396e-08
8.6205398e-08
8.6206238e-08
8.6206947e-08
8.6207558e-08
8.6208065e-08
8.6208377e-08
8.6208461e-08
8.6208366e-08
8.6208247e-08
8.6208184e-08
8.6208181e-08
8.6208168e-08
8.6208122e-08
8.6208052e-08
8.6208041e-08
8.6208147e-08
8.6208308e-08
8.6208304e-08
8.6207996e-08
8.6207528e-08
8.6207244e-08
8.6207195e-08
8.6206653e-08
8.6203956e-08
8.6197363e-08
8.6188465e-08
8.6190375e-08
8.6239198e-08
8.6397188e-08
8.6721707e-08
8.7165106e-08
8.7382682e-08
8.6470756e-08
8.2722809e-08
7.3576647e-08
5.6300827e-08
3.2190719e-08
1.1144878e-08
2.0511638e-09
4.4662937e-10
5.5268981e-10
8.6544045e-08
8.6542608e-08
8.6543055e-08
8.6543927e-08
8.6544858e-08
8.6545732e-08
8.6546671e-08
8.6547584e-08
8.6548535e-08
8.6549454e-08
8.6550381e-08
8.6551276e-08
8.6552189e-08
8.6553116e-08
8.6554108e-08
8.655515e-08
8.6556246e-08
8.655732e-08
8.6558305e-08
8.6559125e-08
8.6559821e-08
8.6560426e-08
8.6560937e-08
8.6561251e-08
8.6561332e-08
8.6561226e-08
8.6561101e-08
8.6561036e-08
8.6561037e-08
8.6561023e-08
8.6560978e-08
8.6560902e-08
8.6560882e-08
8.6560982e-08
8.6561161e-08
8.6561187e-08
8.6560891e-08
8.6560384e-08
8.656003e-08
8.6559974e-08
8.6559648e-08
8.6557555e-08
8.6551846e-08
8.6542911e-08
8.6540386e-08
8.6574681e-08
8.6704266e-08
8.6995522e-08
8.7438836e-08
8.776823e-08
8.7189038e-08
8.4094122e-08
7.5949351e-08
5.9656689e-08
3.5501475e-08
1.2885625e-08
2.3609848e-09
4.337133e-10
4.9153355e-10
8.6932788e-08
8.6931735e-08
8.6932454e-08
8.6933307e-08
8.6934258e-08
8.6935142e-08
8.6936089e-08
8.693701e-08
8.6937965e-08
8.6938886e-08
8.6939811e-08
8.6940702e-08
8.6941611e-08
8.6942532e-08
8.6943517e-08
8.6944548e-08
8.6945632e-08
8.6946687e-08
8.6947648e-08
8.6948444e-08
8.6949125e-08
8.6949725e-08
8.6950237e-08
8.6950551e-08
8.6950625e-08
8.6950504e-08
8.6950373e-08
8.6950307e-08
8.6950311e-08
8.6950299e-08
8.6950256e-08
8.6950174e-08
8.6950144e-08
8.6950237e-08
8.6950433e-08
8.6950498e-08
8.6950223e-08
8.6949679e-08
8.6949248e-08
8.6949174e-08
8.6949056e-08
8.6947565e-08
8.694279e-08
8.6934056e-08
8.6927694e-08
8.6948208e-08
8.7048948e-08
8.7302344e-08
8.7733384e-08
8.8155471e-08
8.7894177e-08
8.5461023e-08
7.8371364e-08
6.322179e-08
3.9238632e-08
1.4982127e-08
2.7823973e-09
4.322456e-10
4.3546846e-10
8.7362699e-08
8.7362135e-08
8.7363011e-08
8.7363865e-08
8.7364825e-08
8.7365718e-08
8.736667e-08
8.7367596e-08
8.7368551e-08
8.7369471e-08
8.7370393e-08
8.7371278e-08
8.737218e-08
8.7373095e-08
8.7374071e-08
8.7375089e-08
8.7376156e-08
8.7377187e-08
8.7378116e-08
8.7378883e-08
8.7379548e-08
8.7380141e-08
8.7380653e-08
8.7380961e-08
8.7381021e-08
8.7380883e-08
8.7380745e-08
8.738068e-08
8.7380688e-08
8.7380679e-08
8.7380637e-08
8.738055e-08
8.7380509e-08
8.7380592e-08
8.7380806e-08
8.7380916e-08
8.7380676e-08
8.7380102e-08
8.7379583e-08
8.7379454e-08
8.7379479e-08
8.7378519e-08
8.7374737e-08
8.7366759e-08
8.7358078e-08
8.7367255e-08
8.7440746e-08
8.7652428e-08
8.805518e-08
8.8537757e-08
8.8553913e-08
8.6756214e-08
8.0735259e-08
6.6895568e-08
4.3352902e-08
1.7473145e-08
3.3304027e-09
4.457277e-10
3.8823418e-10
8.7839376e-08
8.7839276e-08
8.7840215e-08
8.7841085e-08
8.7842044e-08
8.7842945e-08
8.7843897e-08
8.7844824e-08
8.7845776e-08
8.7846691e-08
8.7847604e-08
8.7848481e-08
8.7849375e-08
8.7850281e-08
8.7851245e-08
8.7852248e-08
8.7853294e-08
8.7854293e-08
8.7855183e-08
8.7855914e-08
8.785656e-08
8.7857146e-08
8.7857653e-08
8.785795e-08
8.7857989e-08
8.7857827e-08
8.7857682e-08
8.7857619e-08
8.7857632e-08
8.7857626e-08
8.7857587e-08
8.7857496e-08
8.7857443e-08
8.7857514e-08
8.7857744e-08
8.7857908e-08
8.7857716e-08
8.7857125e-08
8.7856512e-08
8.78563e-08
8.7856414e-08
8.7855909e-08
8.7853098e-08
8.7846213e-08
8.7836447e-08
8.7836716e-08
8.7885405e-08
8.8053642e-08
8.8414852e-08
8.8926429e-08
8.9174754e-08
8.7979284e-08
8.2974194e-08
7.0656798e-08
4.7867828e-08
2.046801e-08
4.0507855e-09
4.7555422e-10
3.4717091e-10
8.8369425e-08
8.8369599e-08
8.8370581e-08
8.8371471e-08
8.8372424e-08
8.8373328e-08
8.8374275e-08
8.8375197e-08
8.8376139e-08
8.8377043e-08
8.8377942e-08
8.8378805e-08
8.8379688e-08
8.8380581e-08
8.8381531e-08
8.8382515e-08
8.8383534e-08
8.8384491e-08
8.8385333e-08
8.8386021e-08
8.8386645e-08
8.8387221e-08
8.838772e-08
8.8387997e-08
8.8388007e-08
8.8387814e-08
8.8387661e-08
8.8387603e-08
8.8387621e-08
8.8387618e-08
8.8387583e-08
8.8387489e-08
8.8387425e-08
8.838748e-08
8.8387722e-08
8.8387948e-08
8.8387824e-08
8.8387233e-08
8.8386524e-08
8.83862e-08
8.8386347e-08
8.838621e-08
8.8384304e-08
8.8378743e-08
8.8369059e-08
8.8363088e-08
8.8390455e-08
8.8515582e-08
8.8824227e-08
8.9332619e-08
8.9756472e-08
8.9107354e-08
8.51976e-08
7.4441832e-08
5.2762592e-08
2.4051662e-08
5.0031684e-09
5.3016841e-10
3.1230925e-10
8.8960509e-08
8.89609e-08
8.8961888e-08
8.8962786e-08
8.8963728e-08
8.8964628e-08
8.8965563e-08
8.8966471e-08
8.8967395e-08
8.8968278e-08
8.8969155e-08
8.8969998e-08
8.8970863e-08
8.8971739e-08
8.8972669e-08
8.8973626e-08
8.8974612e-08
8.8975517e-08
8.8976299e-08
8.8976937e-08
8.8977537e-08
8.89781e-08
8.8978583e-08
8.8978831e-08
8.8978798e-08
8.8978564e-08
8.8978406e-08
8.8978353e-08
8.8978376e-08
8.8978377e-08
8.8978347e-08
8.8978253e-08
8.8978177e-08
8.8978214e-08
8.8978461e-08
8.897876e-08
8.8978726e-08
8.897816e-08
8.8977361e-08
8.8976896e-08
8.8977024e-08
8.8977164e-08
8.8976061e-08
8.8971884e-08
8.8963224e-08
8.8953642e-08
8.8964011e-08
8.9048756e-08
8.9297379e-08
8.9772976e-08
9.0314777e-08
9.0138208e-08
8.727211e-08
7.8198609e-08
5.8000857e-08
2.8317283e-08
6.2612625e-09
6.0987558e-10
2.8317601e-10
8.9621962e-08
8.9622504e-08
8.9623481e-08
8.9624379e-08
8.9625301e-08
8.9626186e-08
8.9627097e-08
8.9627981e-08
8.9628875e-08
8.9629725e-08
8.9630569e-08
8.9631381e-08
8.963222e-08
8.963307e-08
8.9633971e-08
8.9634893e-08
8.9635834e-08
8.9636673e-08
8.9637384e-08
8.9637967e-08
8.9638539e-08
8.9639083e-08
8.9639541e-08
8.9639747e-08
8.9639658e-08
8.9639367e-08
8.9639207e-08
8.9639161e-08
8.9639189e-08
8.9639194e-08
8.963917e-08
8.963908e-08
8.9638994e-08
8.9639009e-08
8.9639248e-08
8.9639635e-08
8.9639716e-08
8.9639211e-08
8.9638336e-08
8.9637704e-08
8.9637764e-08
8.9638092e-08
8.9637649e-08
8.9634816e-08
8.9627812e-08
8.9617015e-08
8.9615243e-08
8.9664702e-08
8.9850282e-08
9.026701e-08
9.0865276e-08
9.1076731e-08
8.9190878e-08
8.18212e-08
6.3517085e-08
3.335344e-08
7.9383663e-09
7.283088e-10
2.5961204e-10
9.0365102e-08
9.0365737e-08
9.0366687e-08
9.0367573e-08
9.0368462e-08
9.036932e-08
9.0370192e-08
9.0371039e-08
9.0371887e-08
9.037269e-08
9.0373484e-08
9.0374253e-08
9.0375051e-08
9.0375864e-08
9.0376721e-08
9.0377596e-08
9.0378476e-08
9.0379235e-08
9.037986e-08
9.0380385e-08
9.0380923e-08
9.0381441e-08
9.0381859e-08
9.0382012e-08
9.0381847e-08
9.0381473e-08
9.0381321e-08
9.0381287e-08
9.0381314e-08
9.0381326e-08
9.0381306e-08
9.0381227e-08
9.0381133e-08
9.0381126e-08
9.0381329e-08
9.0381838e-08
9.0382055e-08
9.0381661e-08
9.0380741e-08
9.0379914e-08
9.037985e-08
9.0380307e-08
9.0380394e-08
9.0378705e-08
9.0373661e-08
9.0363589e-08
9.035462e-08
9.0375906e-08
9.0500589e-08
9.0839301e-08
9.1432995e-08
9.1929045e-08
9.0928506e-08
8.5097153e-08
6.9217074e-08
3.9229387e-08
1.018385e-08
8.965588e-10
2.4234334e-10
9.1203615e-08
9.1204317e-08
9.1205227e-08
9.1206087e-08
9.1206927e-08
9.1207744e-08
9.1208559e-08
9.1209354e-08
9.1210134e-08
9.1210874e-08
9.1211596e-08
9.1212307e-08
9.1213046e-08
9.1213809e-08
9.1214602e-08
9.1215414e-08
9.121621e-08
9.121687e-08
9.1217395e-08
9.1217858e-08
9.1218355e-08
9.1218838e-08
9.1219198e-08
9.1219291e-08
9.1218998e-08
9.1218549e-08
9.1218396e-08
9.1218384e-08
9.1218405e-08
9.1218425e-08
9.1218407e-08
9.1218348e-08
9.121825e-08
9.1218218e-08
9.1218387e-08
9.1218986e-08
9.1219408e-08
9.1219183e-08
9.1218276e-08
9.1217223e-08
9.1216932e-08
9.1217522e-08
9.1218049e-08
9.1217261e-08
9.1214049e-08
9.1206048e-08
9.1194383e-08
9.1195904e-08
9.1266873e-08
9.151755e-08
9.2052839e-08
9.2712783e-08
9.2453735e-08
8.8343451e-08
7.496013e-08
4.5974777e-08
1.3206741e-08
1.1317616e-09
2.3390577e-10
9.21536e-08
9.2154374e-08
9.215525e-08
9.2156071e-08
9.2156846e-08
9.2157605e-08
9.2158348e-08
9.2159077e-08
9.2159772e-08
9.216043e-08
9.2161064e-08
9.2161701e-08
9.2162366e-08
9.2163066e-08
9.2163781e-08
9.2164504e-08
9.2165193e-08
9.2165736e-08
9.2166147e-08
9.2166546e-08
9.2166998e-08
9.2167439e-08
9.2167723e-08
9.2167753e-08
9.2167219e-08
9.2166781e-08
9.2166607e-08
9.2166616e-08
9.2166631e-08
9.2166652e-08
9.2166646e-08
9.216661e-08
9.2166515e-08
9.2166452e-08
9.2166611e-08
9.2167245e-08
9.2167917e-08
9.2167967e-08
9.2167154e-08
9.2165848e-08
9.2165157e-08
9.2165896e-08
9.2166906e-08
9.2166721e-08
9.2164986e-08
9.2159624e-08
9.2148767e-08
9.2139212e-08
9.2167913e-08
9.2330579e-08
9.2767838e-08
9.3483998e-08
9.3789162e-08
9.1230899e-08
8.0614038e-08
5.3551596e-08
1.7282498e-08
1.4829399e-09
2.4011632e-10
9.3231506e-08
9.3232462e-08
9.3233303e-08
9.3234092e-08
9.3234798e-08
9.3235518e-08
9.323619e-08
9.3236869e-08
9.3237475e-08
9.3238059e-08
9.3238595e-08
9.3239158e-08
9.3239738e-08
9.3240379e-08
9.3241016e-08
9.3241672e-08
9.3242245e-08
9.3242679e-08
9.3242964e-08
9.324331e-08
9.3243738e-08
9.3244163e-08
9.3244369e-08
9.3244219e-08
9.3243505e-08
9.3243106e-08
9.3242938e-08
9.3242956e-08
9.3242956e-08
9.3242986e-08
9.3242977e-08
9.3242991e-08
9.3242895e-08
9.3242835e-08
9.324297e-08
9.3243623e-08
9.32444e-08
9.3244949e-08
9.3244286e-08
9.3242858e-08
9.3241683e-08
9.3242319e-08
9.3243857e-08
9.3244192e-08
9.3243397e-08
9.3240486e-08
9.3232522e-08
9.3219565e-08
9.3220131e-08
9.3304851e-08
9.3619253e-08
9.4290378e-08
9.497955e-08
9.3782885e-08
8.5926114e-08
6.1838948e-08
2.2732707e-08
2.0516461e-09
2.5579808e-10
7.7463169e-10
8.1554147e-10
8.4336571e-10
8.6405821e-10
8.8192182e-10
8.9851471e-10
9.1388433e-10
9.2765355e-10
9.3946981e-10
9.490947e-10
9.5632134e-10
9.6093937e-10
9.6269351e-10
9.6127077e-10
9.5627837e-10
9.4725303e-10
9.3365147e-10
9.148801e-10
8.9031913e-10
8.5938164e-10
8.2156707e-10
7.7654451e-10
7.2426693e-10
6.6522905e-10
6.0061876e-10
5.313736e-10
4.5895322e-10
3.8501608e-10
3.1161877e-10
2.4208244e-10
1.759732e-10
1.1891431e-10
7.1552157e-11
3.5775927e-11
1.177548e-11
7.8143578e-13
2.4570494e-12
1.1030125e-11
2.8498153e-11
5.7534145e-11
9.3353225e-11
1.3284788e-10
1.7090423e-10
2.0836774e-10
2.4686312e-10
2.8620393e-10
3.2453865e-10
3.6173425e-10
3.9679946e-10
4.3061473e-10
4.6326137e-10
4.942394e-10
5.2328077e-10
5.5034777e-10
5.7534545e-10
5.9818451e-10
6.1899883e-10
6.3799926e-10
6.553814e-10
6.7130801e-10
6.8592822e-10
6.9937979e-10
7.11701e-10
7.2290159e-10
7.3311985e-10
7.4253303e-10
7.512492e-10
7.5933387e-10
7.6683843e-10
7.7379663e-10
7.8024612e-10
7.8622086e-10
7.9177783e-10
7.9689897e-10
5.6621836e-10
6.0695515e-10
6.4660389e-10
6.8215705e-10
7.1271817e-10
7.3876907e-10
7.610325e-10
7.8003534e-10
7.9607944e-10
8.0936342e-10
8.2001419e-10
8.2809421e-10
8.3358027e-10
8.3635685e-10
8.3620635e-10
8.3281711e-10
8.257835e-10
8.1462311e-10
7.9879689e-10
7.777499e-10
7.5095831e-10
7.1798622e-10
6.7860279e-10
6.3214514e-10
5.7831838e-10
5.1841735e-10
4.5467555e-10
3.8899198e-10
3.2317609e-10
2.597671e-10
2.0066373e-10
1.476722e-10
1.0165856e-10
6.6811537e-11
3.9736612e-11
1.9310225e-11
8.172935e-12
9.3068935e-12
1.6237175e-11
3.0724678e-11
5.1273362e-11
7.6634846e-11
1.0392032e-10
1.3185795e-10
1.6051756e-10
1.9001316e-10
2.1960642e-10
2.4888491e-10
2.7714972e-10
3.0434024e-10
3.3051279e-10
3.5556787e-10
3.793603e-10
4.0187845e-10
4.2305179e-10
4.4280874e-10
4.6113723e-10
4.7807885e-10
4.9370854e-10
5.0811281e-10
5.2138192e-10
5.3360987e-10
5.4488713e-10
5.5527418e-10
5.6482049e-10
5.7359592e-10
5.8166958e-10
5.8910512e-10
5.959591e-10
6.0228154e-10
6.0811403e-10
6.1349397e-10
6.1846437e-10
6.2303928e-10
1.4537566e-09
1.2251057e-09
1.0388594e-09
8.9671726e-10
7.9514412e-10
7.2649808e-10
6.8450317e-10
6.6470676e-10
6.6156423e-10
6.6957212e-10
6.8376506e-10
7.0057174e-10
7.1742523e-10
7.3257645e-10
7.4491169e-10
7.537752e-10
7.5879203e-10
7.5971559e-10
7.5632365e-10
7.4835542e-10
7.3549935e-10
7.1743665e-10
6.9389997e-10
6.6451809e-10
6.2889777e-10
5.8710613e-10
5.398848e-10
4.8839989e-10
4.33997e-10
3.7831159e-10
3.2324511e-10
2.6976719e-10
2.1980288e-10
1.7411848e-10
1.352415e-10
1.0326738e-10
7.6819006e-11
5.8931611e-11
4.5732749e-11
4.3964035e-11
4.6405222e-11
5.3064614e-11
6.303961e-11
7.5146386e-11
8.8970653e-11
1.0441583e-10
1.2100921e-10
1.3833107e-10
1.5597085e-10
1.7361599e-10
1.9105304e-10
2.0811493e-10
2.2467372e-10
2.4063808e-10
2.5593623e-10
2.7051342e-10
2.8433254e-10
2.973742e-10
3.0963582e-10
3.2112796e-10
3.3187112e-10
3.4189336e-10
3.5121974e-10
3.5987781e-10
3.6790646e-10
3.7534449e-10
3.8222963e-10
3.8859867e-10
3.9448741e-10
3.9992984e-10
4.0495756e-10
4.0959953e-10
4.1388674e-10
4.1783607e-10
6.5335614e-09
4.6900565e-09
3.4294037e-09
2.5938956e-09
2.0535183e-09
1.6889526e-09
1.4172987e-09
1.2096959e-09
1.0308418e-09
9.0032156e-10
8.0476227e-10
7.3929732e-10
6.9897204e-10
6.7854078e-10
6.7253189e-10
6.7600742e-10
6.8500372e-10
6.9634945e-10
7.0757727e-10
7.1616967e-10
7.197236e-10
7.1823235e-10
7.1184312e-10
7.0054704e-10
6.8420645e-10
6.6270202e-10
6.3610789e-10
6.0478862e-10
5.693317e-10
5.3055257e-10
4.8948382e-10
4.4740457e-10
4.0534981e-10
3.637192e-10
3.2368014e-10
2.8635433e-10
2.5226396e-10
2.2029158e-10
1.9372674e-10
1.7156391e-10
1.5420776e-10
1.4175307e-10
1.3187037e-10
1.27482e-10
1.2543335e-10
1.2504735e-10
1.2614696e-10
1.2848919e-10
1.3183295e-10
1.359404e-10
1.4063966e-10
1.4559716e-10
1.5093833e-10
1.5653662e-10
1.6228034e-10
1.6807662e-10
1.7384891e-10
1.7953555e-10
1.8508788e-10
1.9046872e-10
1.956507e-10
2.0061425e-10
2.0534777e-10
2.0984462e-10
2.1410084e-10
2.1811626e-10
2.2189401e-10
2.2543961e-10
2.2876075e-10
2.3186035e-10
2.3474876e-10
2.3743648e-10
2.3993907e-10
2.4224992e-10
2.175862e-08
1.6308386e-08
1.1980347e-08
8.7050198e-09
6.3289772e-09
4.6718428e-09
3.5463286e-09
2.7575542e-09
2.2171894e-09
1.83482e-09
1.551801e-09
1.3330146e-09
1.1508375e-09
1.0034255e-09
8.9156189e-10
8.0768256e-10
7.4843551e-10
7.0978423e-10
6.882105e-10
6.8268526e-10
6.8723969e-10
6.9706301e-10
7.0550819e-10
7.1067546e-10
7.1228495e-10
7.102462e-10
7.0441464e-10
6.9469259e-10
6.8111152e-10
6.6386888e-10
6.4330308e-10
6.1999992e-10
5.946113e-10
5.676985e-10
5.3976918e-10
5.114394e-10
4.8067926e-10
4.5488098e-10
4.2903204e-10
4.0440772e-10
3.8089435e-10
3.5913539e-10
3.3958253e-10
3.2303604e-10
3.091982e-10
2.9782403e-10
2.8865449e-10
2.8083522e-10
2.7412112e-10
2.6775116e-10
2.6369297e-10
2.595583e-10
2.5647924e-10
2.5399265e-10
2.5195516e-10
2.5029799e-10
2.4896698e-10
2.4791408e-10
2.470961e-10
2.464754e-10
2.4601927e-10
2.4569945e-10
2.4549153e-10
2.4537438e-10
2.4533033e-10
2.4534432e-10
2.4540373e-10
2.4549504e-10
2.4561406e-10
2.4575607e-10
2.459143e-10
2.4608276e-10
2.462587e-10
2.4643144e-10
4.3801953e-08
3.5677797e-08
2.8213306e-08
2.1788075e-08
1.6513062e-08
1.2360323e-08
9.223352e-09
6.8910981e-09
5.2029279e-09
3.9958301e-09
3.1408051e-09
2.5378645e-09
2.0880739e-09
1.7620382e-09
1.5159169e-09
1.3214772e-09
1.1646302e-09
1.0271478e-09
9.2035162e-10
8.3657211e-10
7.7338817e-10
7.349181e-10
7.1587075e-10
7.1001065e-10
7.1312711e-10
7.192365e-10
7.2463483e-10
7.2827228e-10
7.2977146e-10
7.2896544e-10
7.2575912e-10
7.2017864e-10
7.1238219e-10
7.0266558e-10
6.9124334e-10
6.7876986e-10
6.6547307e-10
6.5100724e-10
6.3617627e-10
6.2130573e-10
6.0656133e-10
5.9156842e-10
5.7619941e-10
5.6115898e-10
5.4790548e-10
5.3589358e-10
5.2509082e-10
5.1535021e-10
5.0649801e-10
4.9835441e-10
4.9096974e-10
4.8427514e-10
4.7822894e-10
4.7277545e-10
4.6785896e-10
4.6342417e-10
4.5942175e-10
4.5580796e-10
4.5254323e-10
4.4959218e-10
4.4692296e-10
4.4450717e-10
4.4231912e-10
4.4033487e-10
4.385331e-10
4.3689507e-10
4.35414e-10
4.3407464e-10
4.3284941e-10
4.3172806e-10
4.3070132e-10
4.297612e-10
4.2889915e-10
4.2811168e-10
6.3516485e-08