/*--------------------------------*- C++ -*----------------------------------*\
| =========                 |                                                 |
| \\      /  F ield         | OpenFOAM: The Open Source CFD Toolbox           |
|  \\    /   O peration     | Version:  v2006                                 |
|   \\  /    A nd           | Website:  www.openfoam.com                      |
|    \\/     M anipulation  |                                                 |
\*---------------------------------------------------------------------------*/
FoamFile
{
    version     2.0;
    format      ascii;
    class       volScalarField;
    location    "2000";
    object      nutMean;
}
// * * * * * * * * * * * * * * * * * * * * * * * * * * * * * * * * * * * * * //

dimensions      [0 2 -1 0 0 0 0];


internalField   nonuniform List<scalar> 
55713
(
4.3057694e-10
3.1031894e-09
2.9040481e-08
6.9342372e-08
8.9552902e-08
9.5605926e-08
9.5865606e-08
9.5034116e-08
9.4479723e-08
9.427533e-08
9.4241158e-08
9.4252179e-08
9.42633e-08
9.4267862e-08
9.4268992e-08
9.4269206e-08
9.4269137e-08
9.426923e-08
9.4269496e-08
9.4269499e-08
9.4269113e-08
9.426855e-08
9.4267982e-08
9.4267482e-08
9.4267131e-08
9.4266955e-08
9.4266869e-08
9.4266783e-08
9.4266637e-08
9.4266449e-08
9.426624e-08
9.4266011e-08
9.42658e-08
9.4265737e-08
9.4265993e-08
9.4266672e-08
9.4267064e-08
9.4266821e-08
9.4266163e-08
9.4265232e-08
9.4264263e-08
9.4263342e-08
9.4262322e-08
9.4261133e-08
9.4259887e-08
9.4258673e-08
9.4257519e-08
9.4256454e-08
9.4255474e-08
9.4254531e-08
9.4253575e-08
9.4252587e-08
9.4251563e-08
9.4250537e-08
9.4249524e-08
9.4248551e-08
9.424761e-08
9.4246523e-08
9.4245223e-08
5.0942314e-10
4.408427e-09
3.6105824e-08
7.618645e-08
9.2984158e-08
9.6916057e-08
9.6566898e-08
9.5753639e-08
9.532758e-08
9.5202524e-08
9.5195151e-08
9.5208281e-08
9.5216098e-08
9.5218284e-08
9.5218481e-08
9.5218186e-08
9.5217631e-08
9.5217365e-08
9.5217275e-08
9.5216832e-08
9.5215987e-08
9.5215024e-08
9.5214084e-08
9.5213236e-08
9.5212566e-08
9.5212072e-08
9.5211654e-08
9.5211224e-08
9.5210745e-08
9.5210221e-08
9.5209677e-08
9.5209108e-08
9.5208533e-08
9.5208086e-08
9.5207945e-08
9.5208362e-08
9.5208574e-08
9.5208026e-08
9.5207045e-08
9.5205743e-08
9.5204385e-08
9.5203107e-08
9.5201757e-08
9.5200187e-08
9.5198517e-08
9.5196865e-08
9.519526e-08
9.5193728e-08
9.5192273e-08
9.5190841e-08
9.5189375e-08
9.5187847e-08
9.5186243e-08
9.5184591e-08
9.5182905e-08
9.5181189e-08
9.5179455e-08
9.5177518e-08
9.5175247e-08
6.1770542e-10
6.1567615e-09
4.364491e-08
8.2283264e-08
9.5654843e-08
9.7989339e-08
9.7294569e-08
9.6564173e-08
9.6257046e-08
9.6190976e-08
9.6198453e-08
9.6210264e-08
9.621461e-08
9.6214984e-08
9.6214682e-08
9.6213874e-08
9.6212884e-08
9.621228e-08
9.6211805e-08
9.6210887e-08
9.6209625e-08
9.6208284e-08
9.6206992e-08
9.6205822e-08
9.6204855e-08
9.6204059e-08
9.620332e-08
9.6202564e-08
9.6201765e-08
9.6200926e-08
9.6200064e-08
9.6199176e-08
9.6198274e-08
9.6197443e-08
9.6196936e-08
9.6197047e-08
9.6197129e-08
9.6196334e-08
9.6195055e-08
9.6193415e-08
9.6191684e-08
9.6190066e-08
9.6188425e-08
9.6186517e-08
9.6184451e-08
9.618239e-08
9.6180366e-08
9.6178401e-08
9.6176506e-08
9.6174628e-08
9.6172699e-08
9.6170682e-08
9.6168553e-08
9.6166334e-08
9.6164041e-08
9.6161658e-08
9.6159207e-08
9.6156509e-08
9.6153345e-08
7.6928254e-10
8.5306838e-09
5.1778884e-08
8.7767795e-08
9.7889716e-08
9.8947001e-08
9.8074995e-08
9.7471335e-08
9.7271412e-08
9.7246521e-08
9.7259691e-08
9.7267738e-08
9.7269004e-08
9.7268595e-08
9.7267924e-08
9.7266605e-08
9.7265217e-08
9.7264327e-08
9.7263464e-08
9.7262111e-08
9.726046e-08
9.7258763e-08
9.7257146e-08
9.7255688e-08
9.7254457e-08
9.7253382e-08
9.7252344e-08
9.7251288e-08
9.7250196e-08
9.7249068e-08
9.7247915e-08
9.7246735e-08
9.7245534e-08
9.7244373e-08
9.7243497e-08
9.72433e-08
9.724328e-08
9.7242305e-08
9.7240764e-08
9.7238819e-08
9.7236737e-08
9.7234794e-08
9.7232899e-08
9.7230713e-08
9.7228288e-08
9.7225847e-08
9.722344e-08
9.7221077e-08
9.7218779e-08
9.7216494e-08
9.7214147e-08
9.721169e-08
9.7209086e-08
9.7206349e-08
9.7203506e-08
9.7200518e-08
9.7197405e-08
9.7194025e-08
9.719004e-08
9.8283515e-10
1.1662034e-08
6.0241875e-08
9.2498991e-08
9.9724238e-08
9.9843925e-08
9.8941299e-08
9.8484127e-08
9.836988e-08
9.8369386e-08
9.8381718e-08
9.8385345e-08
9.8384936e-08
9.838422e-08
9.8383095e-08
9.8381267e-08
9.837954e-08
9.8378414e-08
9.8377174e-08
9.8375412e-08
9.8373397e-08
9.8371369e-08
9.8369463e-08
9.8367761e-08
9.8366298e-08
9.8364969e-08
9.8363658e-08
9.8362331e-08
9.8360974e-08
9.8359589e-08
9.8358177e-08
9.8356737e-08
9.8355273e-08
9.8353827e-08
9.8352612e-08
9.8352096e-08
9.8351989e-08
9.8350929e-08
9.8349168e-08
9.8346957e-08
9.8344555e-08
9.8342306e-08
9.8340197e-08
9.8337808e-08
9.8335075e-08
9.8332293e-08
9.8329548e-08
9.8326834e-08
9.8324182e-08
9.8321544e-08
9.8318838e-08
9.8316006e-08
9.8312998e-08
9.8309813e-08
9.8306495e-08
9.8302992e-08
9.8299297e-08
9.8295341e-08
9.8290638e-08
1.2878526e-09
1.5757304e-08
6.8780442e-08
9.6070752e-08
1.0125917e-07
1.0074228e-07
9.9917984e-08
9.9605376e-08
9.955227e-08
9.9562718e-08
9.9570511e-08
9.9571059e-08
9.9569877e-08
9.956896e-08
9.9567311e-08
9.9565e-08
9.9563036e-08
9.9561712e-08
9.9560114e-08
9.9557977e-08
9.9555626e-08
9.95533e-08
9.9551155e-08
9.954926e-08
9.9547601e-08
9.9546047e-08
9.9544497e-08
9.9542936e-08
9.954135e-08
9.9539746e-08
9.9538113e-08
9.9536454e-08
9.9534766e-08
9.9533082e-08
9.9531578e-08
9.9530744e-08
9.9530539e-08
9.9529518e-08
9.9527596e-08
9.9525163e-08
9.9522478e-08
9.9519946e-08
9.9517662e-08
9.9515159e-08
9.9512186e-08
9.950911e-08
9.9506082e-08
9.9503072e-08
9.9500126e-08
9.9497198e-08
9.9494201e-08
9.9491072e-08
9.9487743e-08
9.9484193e-08
9.9480483e-08
9.9476573e-08
9.9472391e-08
9.9467985e-08
9.9462683e-08
1.7307548e-09
2.102176e-08
7.701428e-08
9.8943412e-08
1.0251214e-07
1.0168168e-07
1.0102346e-07
1.0083567e-07
1.0082033e-07
1.008313e-07
1.0083469e-07
1.0083336e-07
1.0083198e-07
1.0083081e-07
1.0082861e-07
1.0082587e-07
1.0082379e-07
1.0082231e-07
1.0082038e-07
1.0081791e-07
1.0081524e-07
1.0081267e-07
1.0081035e-07
1.0080832e-07
1.0080651e-07
1.0080476e-07
1.0080302e-07
1.0080127e-07
1.007995e-07
1.0079772e-07
1.0079591e-07
1.0079408e-07
1.0079222e-07
1.0079035e-07
1.0078862e-07
1.0078749e-07
1.0078716e-07
1.0078631e-07
1.0078431e-07
1.0078172e-07
1.007788e-07
1.0077601e-07
1.0077359e-07
1.0077107e-07
1.0076795e-07
1.0076464e-07
1.007614e-07
1.0075816e-07
1.00755e-07
1.0075186e-07
1.0074865e-07
1.0074532e-07
1.0074177e-07
1.0073797e-07
1.0073396e-07
1.0072978e-07
1.0072523e-07
1.0072052e-07
1.0071477e-07
2.3937156e-09
2.7671893e-08
8.5031842e-08
1.0195742e-07
1.0362144e-07
1.0273189e-07
1.0227014e-07
1.0217365e-07
1.0217789e-07
1.0218427e-07
1.0218434e-07
1.0218209e-07
1.021808e-07
1.0217928e-07
1.0217654e-07
1.0217348e-07
1.021714e-07
1.021698e-07
1.0216759e-07
1.021648e-07
1.0216187e-07
1.0215912e-07
1.0215671e-07
1.0215461e-07
1.0215268e-07
1.0215079e-07
1.021489e-07
1.0214702e-07
1.0214512e-07
1.0214322e-07
1.021413e-07
1.0213936e-07
1.0213738e-07
1.021354e-07
1.021335e-07
1.0213213e-07
1.0213166e-07
1.0213108e-07
1.0212915e-07
1.0212646e-07
1.0212336e-07
1.0212036e-07
1.0211784e-07
1.0211541e-07
1.0211228e-07
1.0210881e-07
1.0210544e-07
1.0210206e-07
1.0209877e-07
1.0209552e-07
1.0209221e-07
1.0208878e-07
1.0208515e-07
1.0208122e-07
1.0207704e-07
1.0207274e-07
1.0206798e-07
1.0206315e-07
1.0205713e-07
3.4296076e-09
3.5907383e-08
9.2197888e-08
1.042666e-07
1.0474338e-07
1.039549e-07
1.0366086e-07
1.0362261e-07
1.0363106e-07
1.0363284e-07
1.0363125e-07
1.0362872e-07
1.0362763e-07
1.0362565e-07
1.0362241e-07
1.0361918e-07
1.0361723e-07
1.0361559e-07
1.0361313e-07
1.0361005e-07
1.0360691e-07
1.0360411e-07
1.036017e-07
1.0359958e-07
1.0359759e-07
1.0359563e-07
1.0359366e-07
1.0359171e-07
1.0358975e-07
1.035878e-07
1.0358583e-07
1.0358385e-07
1.0358184e-07
1.0357981e-07
1.0357784e-07
1.035763e-07
1.035757e-07
1.0357541e-07
1.0357379e-07
1.035711e-07
1.0356788e-07
1.0356473e-07
1.0356215e-07
1.0355994e-07
1.0355694e-07
1.0355342e-07
1.0355003e-07
1.0354662e-07
1.0354331e-07
1.0354008e-07
1.0353678e-07
1.0353341e-07
1.0352984e-07
1.0352597e-07
1.0352176e-07
1.0351754e-07
1.0351276e-07
1.0350803e-07
1.0350197e-07
5.1331107e-09
4.587173e-08
9.8535929e-08
1.062787e-07
1.0597893e-07
1.0535585e-07
1.051936e-07
1.0518756e-07
1.0519307e-07
1.0519133e-07
1.0518925e-07
1.0518672e-07
1.0518586e-07
1.0518337e-07
1.0517973e-07
1.0517654e-07
1.0517484e-07
1.0517327e-07
1.0517056e-07
1.0516721e-07
1.0516399e-07
1.0516127e-07
1.0515898e-07
1.0515691e-07
1.0515493e-07
1.0515297e-07
1.0515101e-07
1.0514908e-07
1.0514715e-07
1.0514523e-07
1.0514329e-07
1.0514136e-07
1.0513941e-07
1.0513744e-07
1.0513549e-07
1.0513389e-07
1.0513318e-07
1.0513319e-07
1.0513216e-07
1.0512962e-07
1.0512634e-07
1.0512313e-07
1.0512057e-07
1.0511866e-07
1.05116e-07
1.0511257e-07
1.051093e-07
1.05106e-07
1.0510281e-07
1.0509977e-07
1.0509664e-07
1.0509349e-07
1.0509015e-07
1.0508657e-07
1.0508254e-07
1.0507861e-07
1.0507409e-07
1.0506968e-07
1.0506388e-07
7.850447e-09
5.7601036e-08
1.0377886e-07
1.0806739e-07
1.073741e-07
1.0694574e-07
1.0687321e-07
1.0687923e-07
1.0687944e-07
1.0687603e-07
1.0687437e-07
1.0687187e-07
1.0687129e-07
1.0686829e-07
1.0686443e-07
1.068615e-07
1.0686026e-07
1.0685886e-07
1.0685583e-07
1.0685229e-07
1.0684919e-07
1.0684674e-07
1.0684465e-07
1.0684272e-07
1.0684084e-07
1.0683898e-07
1.0683715e-07
1.0683534e-07
1.0683354e-07
1.0683176e-07
1.0682997e-07
1.068282e-07
1.0682642e-07
1.0682463e-07
1.0682284e-07
1.0682129e-07
1.0682055e-07
1.0682083e-07
1.0682067e-07
1.0681855e-07
1.0681528e-07
1.0681212e-07
1.0680969e-07
1.0680816e-07
1.0680608e-07
1.0680291e-07
1.0679997e-07
1.0679694e-07
1.0679404e-07
1.067914e-07
1.0678863e-07
1.0678593e-07
1.0678304e-07
1.0678001e-07
1.0677643e-07
1.0677303e-07
1.0676912e-07
1.0676531e-07
1.0676013e-07
1.1745062e-08
7.1063596e-08
1.0724067e-07
1.0968482e-07
1.0897091e-07
1.0872902e-07
1.0870624e-07
1.0871185e-07
1.0870836e-07
1.0870512e-07
1.0870439e-07
1.0870174e-07
1.0870167e-07
1.0869812e-07
1.0869437e-07
1.0869201e-07
1.086915e-07
1.0869029e-07
1.0868688e-07
1.0868333e-07
1.0868066e-07
1.0867863e-07
1.0867686e-07
1.0867518e-07
1.0867353e-07
1.0867192e-07
1.0867034e-07
1.0866879e-07
1.0866725e-07
1.0866575e-07
1.0866425e-07
1.0866278e-07
1.0866131e-07
1.0865985e-07
1.0865838e-07
1.0865705e-07
1.0865636e-07
1.0865693e-07
1.086578e-07
1.0865653e-07
1.0865337e-07
1.0865036e-07
1.0864824e-07
1.0864713e-07
1.0864597e-07
1.0864323e-07
1.0864089e-07
1.0863834e-07
1.0863592e-07
1.0863395e-07
1.0863177e-07
1.0862976e-07
1.0862758e-07
1.0862538e-07
1.0862265e-07
1.0862001e-07
1.0861716e-07
1.0861421e-07
1.0861012e-07
1.7422749e-08
8.6164844e-08
1.0957365e-07
1.112005e-07
1.1079067e-07
1.1070208e-07
1.1069905e-07
1.1069983e-07
1.1069625e-07
1.1069417e-07
1.1069455e-07
1.1069167e-07
1.1069231e-07
1.1068851e-07
1.1068533e-07
1.1068393e-07
1.1068434e-07
1.1068326e-07
1.1067961e-07
1.1067656e-07
1.1067461e-07
1.1067314e-07
1.1067182e-07
1.1067055e-07
1.1066931e-07
1.1066812e-07
1.1066696e-07
1.1066584e-07
1.1066474e-07
1.1066368e-07
1.1066265e-07
1.1066164e-07
1.1066065e-07
1.1065969e-07
1.1065874e-07
1.1065786e-07
1.1065741e-07
1.1065817e-07
1.1066e-07
1.1066e-07
1.1065725e-07
1.1065463e-07
1.10653e-07
1.1065239e-07
1.1065234e-07
1.1065028e-07
1.1064889e-07
1.1064708e-07
1.1064536e-07
1.1064429e-07
1.1064302e-07
1.1064192e-07
1.1064076e-07
1.1063963e-07
1.1063813e-07
1.1063658e-07
1.1063513e-07
1.1063346e-07
1.1063092e-07
2.5140661e-08
1.0258715e-07
1.1276465e-07
1.1293999e-07
1.1284786e-07
1.1284189e-07
1.1284268e-07
1.1284151e-07
1.1283917e-07
1.1283838e-07
1.1283937e-07
1.1283693e-07
1.1283759e-07
1.1283492e-07
1.1283296e-07
1.1283279e-07
1.1283374e-07
1.1283296e-07
1.1283005e-07
1.1282835e-07
1.1282745e-07
1.1282674e-07
1.1282607e-07
1.1282545e-07
1.1282486e-07
1.1282431e-07
1.1282379e-07
1.128233e-07
1.1282285e-07
1.1282243e-07
1.1282204e-07
1.1282169e-07
1.1282136e-07
1.1282107e-07
1.128208e-07
1.1282057e-07
1.1282054e-07
1.1282112e-07
1.1282331e-07
1.1282433e-07
1.1282267e-07
1.1282117e-07
1.128204e-07
1.1282045e-07
1.1282096e-07
1.1282037e-07
1.1282025e-07
1.1281958e-07
1.1281904e-07
1.1281899e-07
1.1281896e-07
1.1281897e-07
1.1281902e-07
1.128191e-07
1.1281906e-07
1.1281895e-07
1.1281904e-07
1.1281895e-07
1.1281853e-07
8.5572308e-08
8.5569373e-08
8.556744e-08
8.5568885e-08
8.5569398e-08
8.5570208e-08
8.5570938e-08
8.5571736e-08
8.5572582e-08
8.557346e-08
8.5574347e-08
8.5575238e-08
8.557615e-08
8.5577112e-08
8.5578138e-08
8.5579208e-08
8.5580279e-08
8.5581318e-08
8.5582312e-08
8.5583257e-08
8.5584137e-08
8.5584899e-08
8.5585449e-08
8.5585709e-08
8.5585679e-08
8.5585462e-08
8.5585203e-08
8.5585016e-08
8.558494e-08
8.558495e-08
8.558498e-08
8.5584992e-08
8.5585012e-08
8.5585077e-08
8.5585183e-08
8.5585283e-08
8.5585312e-08
8.558521e-08
8.5584963e-08
8.5584508e-08
8.5583296e-08
8.5579822e-08
8.5572612e-08
8.556515e-08
8.5576137e-08
8.5650278e-08
8.5852725e-08
8.6217953e-08
8.6623527e-08
8.6585062e-08
8.5023664e-08
8.0127768e-08
6.9249879e-08
5.0546497e-08
2.6976764e-08
8.6991312e-09
1.848133e-09
6.4701625e-10
9.0548371e-10
8.5862569e-08
8.5860004e-08
8.5859355e-08
8.5860449e-08
8.5861136e-08
8.5861898e-08
8.5862662e-08
8.5863475e-08
8.5864335e-08
8.5865221e-08
8.5866112e-08
8.5867007e-08
8.5867923e-08
8.5868889e-08
8.5869915e-08
8.5870984e-08
8.5872051e-08
8.5873089e-08
8.5874085e-08
8.5875033e-08
8.5875914e-08
8.5876673e-08
8.5877216e-08
8.5877463e-08
8.5877419e-08
8.5877188e-08
8.5876925e-08
8.587674e-08
8.5876664e-08
8.5876666e-08
8.5876684e-08
8.5876685e-08
8.5876698e-08
8.5876759e-08
8.5876863e-08
8.5876962e-08
8.5876996e-08
8.5876906e-08
8.5876649e-08
8.5876101e-08
8.5874698e-08
8.5871146e-08
8.5864425e-08
8.5858169e-08
8.5869686e-08
8.5939865e-08
8.6129689e-08
8.6476963e-08
8.6882909e-08
8.6916652e-08
8.5571847e-08
8.107107e-08
7.0885928e-08
5.2782499e-08
2.9036714e-08
9.6849782e-09
1.9834337e-09
5.9607205e-10
8.1137611e-10
8.6182273e-08
8.617994e-08
8.6179787e-08
8.6180761e-08
8.6181514e-08
8.6182276e-08
8.618306e-08
8.6183887e-08
8.6184758e-08
8.6185653e-08
8.618655e-08
8.6187449e-08
8.6188367e-08
8.6189334e-08
8.6190362e-08
8.6191429e-08
8.6192498e-08
8.6193536e-08
8.6194534e-08
8.6195483e-08
8.6196364e-08
8.6197123e-08
8.6197665e-08
8.6197907e-08
8.6197854e-08
8.6197613e-08
8.6197344e-08
8.6197158e-08
8.6197079e-08
8.6197075e-08
8.6197086e-08
8.6197079e-08
8.6197082e-08
8.6197138e-08
8.6197245e-08
8.6197356e-08
8.6197404e-08
8.6197327e-08
8.6197095e-08
8.619666e-08
8.6195633e-08
8.6192816e-08
8.6186659e-08
8.6178659e-08
8.6181732e-08
8.623167e-08
8.6389812e-08
8.6711524e-08
8.7146428e-08
8.7347907e-08
8.641351e-08
8.2643612e-08
7.3493498e-08
5.6247534e-08
3.2199147e-08
1.1213825e-08
2.2045117e-09
5.6247343e-10
7.2073203e-10
8.6534508e-08
8.6532516e-08
8.6532841e-08
8.6533727e-08
8.6534528e-08
8.6535293e-08
8.6536093e-08
8.6536934e-08
8.6537813e-08
8.6538712e-08
8.653961e-08
8.6540508e-08
8.6541427e-08
8.6542395e-08
8.6543424e-08
8.6544491e-08
8.6545558e-08
8.6546596e-08
8.6547593e-08
8.654854e-08
8.6549419e-08
8.6550173e-08
8.6550707e-08
8.6550936e-08
8.6550866e-08
8.6550609e-08
8.6550335e-08
8.6550152e-08
8.6550073e-08
8.6550065e-08
8.6550069e-08
8.6550054e-08
8.6550048e-08
8.6550098e-08
8.6550207e-08
8.6550328e-08
8.6550392e-08
8.6550333e-08
8.6550113e-08
8.6549713e-08
8.6548861e-08
8.6546566e-08
8.6541217e-08
8.6533111e-08
8.6531669e-08
8.6567023e-08
8.6696903e-08
8.6985945e-08
8.7421951e-08
8.773689e-08
8.7137059e-08
8.4021909e-08
7.5870429e-08
5.9606348e-08
3.5517465e-08
1.2964518e-08
2.5032671e-09
5.4163274e-10
6.4488727e-10
8.6923281e-08
8.6921734e-08
8.6922374e-08
8.6923223e-08
8.6924045e-08
8.692482e-08
8.6925632e-08
8.6926482e-08
8.6927366e-08
8.6928265e-08
8.692916e-08
8.6930054e-08
8.6930971e-08
8.6931938e-08
8.6932967e-08
8.6934032e-08
8.6935097e-08
8.6936133e-08
8.6937129e-08
8.6938071e-08
8.6938944e-08
8.6939691e-08
8.6940211e-08
8.6940423e-08
8.6940331e-08
8.6940055e-08
8.6939775e-08
8.6939596e-08
8.693952e-08
8.693951e-08
8.6939509e-08
8.6939486e-08
8.6939471e-08
8.6939514e-08
8.6939625e-08
8.6939758e-08
8.6939843e-08
8.6939806e-08
8.6939605e-08
8.6939245e-08
8.6938569e-08
8.6936784e-08
8.6932275e-08
8.6924296e-08
8.6918942e-08
8.6940472e-08
8.704166e-08
8.7293441e-08
8.7718356e-08
8.8127587e-08
8.7847027e-08
8.5393806e-08
7.8295912e-08
6.3171913e-08
3.9258612e-08
1.507563e-08
2.9165893e-09
5.3386935e-10
5.7650629e-10
8.7353233e-08
8.7352258e-08
8.7353096e-08
8.7353934e-08
8.7354761e-08
8.7355547e-08
8.7356368e-08
8.7357224e-08
8.7358108e-08
8.7359001e-08
8.7359889e-08
8.7360776e-08
8.7361688e-08
8.7362653e-08
8.7363679e-08
8.7364741e-08
8.7365801e-08
8.7366834e-08
8.7367825e-08
8.7368759e-08
8.7369622e-08
8.7370357e-08
8.7370859e-08
8.7371046e-08
8.7370926e-08
8.7370627e-08
8.7370341e-08
8.7370169e-08
8.7370098e-08
8.7370088e-08
8.7370082e-08
8.7370052e-08
8.7370027e-08
8.7370063e-08
8.7370176e-08
8.7370322e-08
8.737043e-08
8.7370421e-08
8.7370242e-08
8.7369908e-08
8.7369356e-08
8.7368007e-08
8.7364388e-08
8.7357083e-08
8.7349339e-08
8.735948e-08
8.7433538e-08
8.764414e-08
8.8041872e-08
8.8513119e-08
8.8511414e-08
8.6694037e-08
8.0662947e-08
6.6844711e-08
4.3371821e-08
1.7582094e-08
3.4678462e-09
5.4270228e-10
5.1856525e-10
8.7829961e-08
8.7829554e-08
8.7830488e-08
8.7831332e-08
8.7832156e-08
8.7832949e-08
8.7833775e-08
8.7834632e-08
8.7835512e-08
8.7836395e-08
8.7837271e-08
8.7838146e-08
8.7839049e-08
8.7840008e-08
8.784103e-08
8.7842085e-08
8.7843138e-08
8.7844164e-08
8.7845145e-08
8.7846067e-08
8.7846916e-08
8.7847634e-08
8.7848112e-08
8.7848267e-08
8.7848111e-08
8.7847785e-08
8.7847492e-08
8.7847328e-08
8.7847266e-08
8.7847256e-08
8.7847248e-08
8.7847212e-08
8.7847177e-08
8.7847204e-08
8.7847318e-08
8.7847479e-08
8.7847613e-08
8.7847637e-08
8.7847488e-08
8.7847178e-08
8.7846714e-08
8.7845722e-08
8.7842959e-08
8.7836654e-08
8.7827754e-08
8.7828931e-08
8.7878274e-08
8.8045922e-08
8.8403178e-08
8.8904916e-08
8.9136692e-08
8.7921827e-08
8.2905615e-08
7.060419e-08
4.7880987e-08
2.0576389e-08
4.1913213e-09
5.6999318e-10
4.6853417e-10
8.8360076e-08
8.8360091e-08
8.8361065e-08
8.8361916e-08
8.8362732e-08
8.8363528e-08
8.8364354e-08
8.8365206e-08
8.8366074e-08
8.836694e-08
8.8367797e-08
8.8368655e-08
8.8369545e-08
8.8370495e-08
8.8371507e-08
8.8372551e-08
8.8373592e-08
8.8374607e-08
8.8375572e-08
8.8376475e-08
8.8377305e-08
8.8378e-08
8.8378447e-08
8.8378561e-08
8.837836e-08
8.8378001e-08
8.8377702e-08
8.837755e-08
8.8377497e-08
8.837749e-08
8.8377479e-08
8.8377438e-08
8.8377394e-08
8.8377412e-08
8.8377525e-08
8.8377702e-08
8.8377866e-08
8.837793e-08
8.8377818e-08
8.8377533e-08
8.8377127e-08
8.8376407e-08
8.8374417e-08
8.8369334e-08
8.8360439e-08
8.8355314e-08
8.8383386e-08
8.8508351e-08
8.8814068e-08
8.9314125e-08
8.9722784e-08
8.9054472e-08
8.5131492e-08
7.4387e-08
5.2768561e-08
2.4157861e-08
5.148026e-09
6.2262096e-10
4.2658211e-10
8.8951313e-08
8.8951611e-08
8.8952599e-08
8.8953448e-08
8.8954249e-08
8.8955041e-08
8.8955859e-08
8.8956698e-08
8.8957546e-08
8.8958387e-08
8.8959217e-08
8.896005e-08
8.896092e-08
8.8961853e-08
8.8962849e-08
8.8963874e-08
8.8964898e-08
8.8965894e-08
8.8966835e-08
8.8967711e-08
8.8968516e-08
8.8969181e-08
8.8969587e-08
8.896965e-08
8.8969394e-08
8.8968995e-08
8.8968692e-08
8.8968553e-08
8.8968511e-08
8.8968507e-08
8.8968496e-08
8.8968452e-08
8.8968399e-08
8.8968408e-08
8.896852e-08
8.8968714e-08
8.8968913e-08
8.8969024e-08
8.896896e-08
8.8968708e-08
8.8968339e-08
8.8967808e-08
8.8966463e-08
8.8962667e-08
8.8954701e-08
8.8945901e-08
8.8956983e-08
8.9041915e-08
8.928858e-08
8.975738e-08
9.0285436e-08
9.0089965e-08
8.7208743e-08
7.814123e-08
5.7997631e-08
2.8418492e-08
6.4175305e-09
7.0760415e-10
3.9218597e-10
8.9612963e-08
8.9613462e-08
8.9614436e-08
8.9615269e-08
8.9616049e-08
8.9616828e-08
8.9617628e-08
8.9618444e-08
8.9619261e-08
8.9620065e-08
8.9620857e-08
8.9621655e-08
8.9622494e-08
8.9623402e-08
8.9624371e-08
8.962537e-08
8.9626367e-08
8.9627334e-08
8.9628239e-08
8.9629079e-08
8.962985e-08
8.9630476e-08
8.963083e-08
8.9630829e-08
8.9630503e-08
8.9630056e-08
8.9629752e-08
8.962963e-08
8.9629599e-08
8.96296e-08
8.962959e-08
8.9629544e-08
8.9629485e-08
8.9629484e-08
8.9629595e-08
8.9629807e-08
8.9630046e-08
8.9630214e-08
8.9630212e-08
8.9630006e-08
8.9629666e-08
8.9629257e-08
8.9628405e-08
8.9625813e-08
8.9619405e-08
8.9609333e-08
8.960824e-08
8.9658139e-08
8.9842645e-08
9.0254154e-08
9.0840307e-08
9.1033264e-08
8.9130406e-08
8.1761753e-08
6.3503967e-08
3.3444728e-08
8.1060701e-09
8.3558821e-10
3.6554941e-10
9.0356346e-08
9.035697e-08
9.0357911e-08
9.0358713e-08
9.0359462e-08
9.0360214e-08
9.0360983e-08
9.036176e-08
9.0362531e-08
9.0363284e-08
9.0364022e-08
9.036477e-08
9.0365567e-08
9.0366436e-08
9.0367367e-08
9.0368326e-08
9.0369285e-08
9.0370208e-08
9.0371062e-08
9.0371851e-08
9.0372579e-08
9.0373155e-08
9.037344e-08
9.037336e-08
9.0372944e-08
9.0372441e-08
9.0372141e-08
9.037204e-08
9.037202e-08
9.0372026e-08
9.0372018e-08
9.0371973e-08
9.0371911e-08
9.0371902e-08
9.037201e-08
9.0372242e-08
9.037253e-08
9.0372765e-08
9.0372843e-08
9.0372702e-08
9.0372396e-08
9.0372058e-08
9.0371549e-08
9.0369969e-08
9.0365383e-08
9.0355995e-08
9.034764e-08
9.0369502e-08
9.0493867e-08
9.082895e-08
9.141243e-08
9.1890673e-08
9.0871211e-08
8.5036945e-08
6.9194244e-08
3.9305813e-08
1.035894e-08
1.0172014e-09
3.4754324e-10
9.1195142e-08
9.1195851e-08
9.1196746e-08
9.1197503e-08
9.1198206e-08
9.1198916e-08
9.1199635e-08
9.1200356e-08
9.1201062e-08
9.1201746e-08
9.1202414e-08
9.1203094e-08
9.1203832e-08
9.1204648e-08
9.1205525e-08
9.120643e-08
9.1207336e-08
9.1208194e-08
9.1208974e-08
9.1209699e-08
9.1210372e-08
9.1210882e-08
9.1211082e-08
9.1210903e-08
9.1210366e-08
9.1209805e-08
9.1209514e-08
9.1209438e-08
9.1209428e-08
9.1209438e-08
9.1209435e-08
9.1209396e-08
9.1209335e-08
9.120932e-08
9.1209425e-08
9.1209681e-08
9.1210025e-08
9.1210342e-08
9.1210521e-08
9.1210476e-08
9.1210216e-08
9.1209924e-08
9.1209635e-08
9.1208806e-08
9.1205964e-08
9.1198574e-08
9.1187435e-08
9.1189561e-08
9.126079e-08
9.150936e-08
9.203664e-08
9.2680021e-08
9.2400049e-08
8.8281388e-08
7.4928363e-08
4.6032998e-08
1.3378026e-08
1.2758078e-09
3.4048937e-10
9.2145451e-08
9.2146234e-08
9.214709e-08
9.2147785e-08
9.2148429e-08
9.2149081e-08
9.2149736e-08
9.2150386e-08
9.2151009e-08
9.2151606e-08
9.2152188e-08
9.2152787e-08
9.2153452e-08
9.2154204e-08
9.2155015e-08
9.2155854e-08
9.2156689e-08
9.2157457e-08
9.2158137e-08
9.2158789e-08
9.21594e-08
9.2159824e-08
9.2159929e-08
9.2159612e-08
9.2158915e-08
9.2158319e-08
9.2158042e-08
9.2157989e-08
9.215799e-08
9.2158003e-08
9.2158011e-08
9.2157981e-08
9.2157928e-08
9.2157914e-08
9.2158019e-08
9.2158299e-08
9.2158699e-08
9.215911e-08
9.2159419e-08
9.2159506e-08
9.2159318e-08
9.2159057e-08
9.215891e-08
9.2158571e-08
9.2157121e-08
9.215228e-08
9.2141881e-08
9.2132874e-08
9.2162176e-08
9.2324068e-08
9.275574e-08
9.3457425e-08
9.3740246e-08
9.1167344e-08
8.0573588e-08
5.3593712e-08
1.7437291e-08
1.6546431e-09
3.5019811e-10
9.3223725e-08
9.3224681e-08
9.3225506e-08
9.3226132e-08
9.3226726e-08
9.3227328e-08
9.3227926e-08
9.3228509e-08
9.3229056e-08
9.3229567e-08
9.3230062e-08
9.3230582e-08
9.3231181e-08
9.3231872e-08
9.3232625e-08
9.3233415e-08
9.3234185e-08
9.3234846e-08
9.3235419e-08
9.3236005e-08
9.3236563e-08
9.3236905e-08
9.3236908e-08
9.3236384e-08
9.3235524e-08
9.323494e-08
9.3234699e-08
9.3234663e-08
9.3234674e-08
9.3234694e-08
9.3234717e-08
9.3234707e-08
9.3234668e-08
9.3234661e-08
9.3234774e-08
9.3235076e-08
9.3235517e-08
9.3236021e-08
9.3236484e-08
9.3236734e-08
9.3236655e-08
9.3236419e-08
9.3236354e-08
9.3236309e-08
9.3235771e-08
9.3233277e-08
9.3225769e-08
9.3213219e-08
9.3214509e-08
9.329945e-08
9.3610671e-08
9.427033e-08
9.4937071e-08
9.3718777e-08
8.5876256e-08
6.1872044e-08
2.2878159e-08
2.2475905e-09
3.7759378e-10
9.9470068e-10
1.0426907e-09
1.0739163e-09
1.0970291e-09
1.1171433e-09
1.1360338e-09
1.1537678e-09
1.1699487e-09
1.1842265e-09
1.1963908e-09
1.2062764e-09
1.2137374e-09
1.2185739e-09
1.2205149e-09
1.2191653e-09
1.2140201e-09
1.204458e-09
1.1897955e-09
1.169304e-09
1.1422766e-09
1.1080483e-09
1.066092e-09
1.0160102e-09
9.5784649e-10
8.9206361e-10
8.1947231e-10
7.410438e-10
6.5821484e-10
5.7285574e-10
4.8734456e-10
4.0362942e-10
3.2413574e-10
2.5182536e-10
1.8863366e-10
1.3598258e-10
9.4601228e-11
6.5145458e-11
4.6269315e-11
3.6715839e-11
3.6145241e-11
4.4298131e-11
5.9063812e-11
7.8159045e-11
9.9546322e-11
1.2246279e-10
1.4697007e-10
1.7199619e-10
1.9708563e-10
2.2191624e-10
2.4627923e-10
2.7007329e-10
2.9312461e-10
3.1521985e-10
3.3622938e-10
3.560904e-10
3.7473689e-10
3.9215218e-10
4.0836594e-10
4.2343057e-10
4.3742599e-10
4.5043662e-10
4.6254057e-10
4.7380875e-10
4.8429714e-10
4.9405543e-10
5.031373e-10
5.1159952e-10
5.194953e-10
5.2687383e-10
5.3377674e-10
5.4024453e-10
5.4630551e-10
5.5199941e-10
5.5729999e-10
7.2346731e-10
7.8163844e-10
8.3327743e-10
8.7702256e-10
9.1323904e-10
9.4339523e-10
9.6889105e-10
9.9065701e-10
1.0092419e-09
1.0250049e-09
1.0381806e-09
1.0489175e-09
1.0572628e-09
1.063163e-09
1.0664325e-09
1.0667555e-09
1.0636783e-09
1.0566453e-09
1.0450199e-09
1.02814e-09
1.0053421e-09
9.7604265e-10
9.397258e-10
8.9604724e-10
8.4431925e-10
7.8460581e-10
7.1815743e-10
6.4659285e-10
5.7166856e-10
4.954129e-10
4.2013e-10
3.4799596e-10
2.8094475e-10
2.2095039e-10
1.7016391e-10
1.2695779e-10
9.2318592e-11
6.6875488e-11
5.0653521e-11
4.2089149e-11
4.0556034e-11
4.4890646e-11
5.3773084e-11
6.5708336e-11
7.997733e-11
9.6203282e-11
1.1371996e-10
1.3199778e-10
1.5049402e-10
1.6890887e-10
1.870524e-10
2.0477983e-10
2.2195522e-10
2.3846573e-10
2.5425106e-10
2.692634e-10
2.8346116e-10
2.9682426e-10
3.0935285e-10
3.2106611e-10
3.3199655e-10
3.4218333e-10
3.5166959e-10
3.6049901e-10
3.6871188e-10
3.7634694e-10
3.8344147e-10
3.9003255e-10
3.9615465e-10
4.0184127e-10
4.071232e-10
4.1202865e-10
4.1659022e-10
4.2081321e-10
1.6058599e-09
1.3664006e-09
1.1754133e-09
1.0336225e-09
9.3514934e-10
8.7175779e-10
8.3784032e-10
8.2756942e-10
8.3395909e-10
8.5060203e-10
8.7255754e-10
8.9627169e-10
9.1928669e-10
9.4004278e-10
9.576546e-10
9.7168668e-10
9.8193191e-10
9.8825169e-10
9.9045525e-10
9.8826988e-10
9.8133499e-10
9.692261e-10
9.5146143e-10
9.2760474e-10
8.9712917e-10
8.5963075e-10
8.1517528e-10
7.6431026e-10
7.0795955e-10
6.4735673e-10
5.840454e-10
5.1964592e-10
4.5582935e-10
3.9395259e-10
3.3606419e-10
2.8371284e-10
2.3742017e-10
1.9779052e-10
1.6527887e-10
1.3874694e-10
1.1936676e-10
1.0589719e-10
9.7489845e-11
9.3243007e-11
9.2260699e-11
9.3947405e-11
9.7841836e-11
1.0355072e-10
1.1063346e-10
1.1870384e-10
1.2744306e-10
1.3663697e-10
1.4612586e-10
1.5565279e-10
1.6504562e-10
1.7419632e-10
1.8308941e-10
1.916753e-10
1.9988414e-10
2.0769961e-10
2.1511236e-10
2.2211898e-10
2.2872233e-10
2.3492891e-10
2.4074928e-10
2.4619691e-10
2.5128695e-10
2.5603616e-10
2.6046179e-10
2.6458135e-10
2.6841253e-10
2.7197184e-10
2.752787e-10
2.7833792e-10
6.6580886e-09
4.8472325e-09
3.6057855e-09
2.7898162e-09
2.2580191e-09
1.8846717e-09
1.5942423e-09
1.3581571e-09
1.1765596e-09
1.0434956e-09
9.5030379e-10
8.9127975e-10
8.6006086e-10
8.499775e-10
8.5466546e-10
8.6887411e-10
8.8839347e-10
9.0987788e-10
9.2999723e-10
9.4616987e-10
9.5748136e-10
9.6410436e-10
9.660972e-10
9.6335575e-10
9.5564954e-10
9.4268031e-10
9.2421646e-10
9.0020738e-10
8.7083798e-10
8.3652784e-10
7.9793397e-10
7.5593848e-10
7.1155848e-10
6.6571867e-10
6.1924539e-10
5.7328276e-10
5.2873962e-10
4.8605192e-10
4.4566897e-10
4.0982506e-10
3.7745076e-10
3.4895446e-10
3.2461447e-10
3.0432754e-10
2.8764054e-10
2.7399798e-10
2.6279627e-10
2.5373927e-10
2.4656193e-10
2.4100262e-10
2.3678881e-10
2.3367933e-10
2.3152108e-10
2.3018187e-10
2.2951731e-10
2.2939777e-10
2.2971274e-10
2.3037645e-10
2.3131134e-10
2.3245052e-10
2.337378e-10
2.3512651e-10
2.365786e-10
2.3806337e-10
2.3955647e-10
2.4103858e-10
2.4249478e-10
2.439138e-10
2.452876e-10
2.4661025e-10
2.4787822e-10
2.4908827e-10
2.5024462e-10
2.5132723e-10
2.1767907e-08
1.6361113e-08
1.205469e-08
8.805194e-09
6.4680015e-09
4.857027e-09
3.7497158e-09
2.9733312e-09
2.4326635e-09
2.0408531e-09
1.7425015e-09
1.5019843e-09
1.3044575e-09
1.1529714e-09
1.039787e-09
9.5986928e-10
9.0835504e-10
8.8160922e-10
8.7622143e-10
8.8690579e-10
9.0595938e-10
9.2709935e-10
9.4606808e-10
9.6203697e-10
9.7484591e-10
9.8432628e-10
9.9024184e-10
9.9234784e-10
9.9046033e-10
9.8450467e-10
9.7453959e-10
9.607867e-10
9.4361175e-10
9.2351808e-10
9.0090006e-10
8.766412e-10
8.4968916e-10
8.2225951e-10
7.9562338e-10
7.6911546e-10
7.4330507e-10
7.1791152e-10
6.936434e-10
6.7126221e-10
6.511042e-10
6.332197e-10
6.1754946e-10
6.0374622e-10
5.9150514e-10
5.8051379e-10
5.7061837e-10
5.6180985e-10
5.5398868e-10
5.4707632e-10
5.4096508e-10
5.35578e-10
5.3082872e-10
5.2663682e-10
5.2294211e-10
5.1968964e-10
5.1682828e-10
5.1431327e-10
5.1210557e-10
5.1017062e-10
5.0847801e-10
5.0700066e-10
5.0571493e-10
5.0460023e-10
5.036387e-10
5.0281476e-10
5.0211526e-10
5.0152747e-10
5.010454e-10
5.0064588e-10
4.3729326e-08
3.5615369e-08
2.8167409e-08
2.1763182e-08
1.6519295e-08
1.241813e-08
9.3230982e-09
7.0333224e-09
5.3752761e-09
4.1918036e-09
3.3512577e-09
2.7448331e-09
2.2974366e-09
1.9629653e-09
1.7022373e-09
1.4899787e-09
1.315302e-09
1.1740195e-09
1.065704e-09
9.8833112e-10
9.4101043e-10
9.2115853e-10
9.2127078e-10
9.3336164e-10
9.515597e-10
9.7081347e-10
9.8935842e-10
1.0065199e-09
1.021884e-09
1.0351113e-09
1.0459359e-09
1.0541941e-09
1.05983e-09
1.0629138e-09
1.0635893e-09
1.0620523e-09
1.0589141e-09
1.054095e-09
1.0477705e-09
1.0403248e-09
1.0321555e-09
1.0233718e-09
1.013786e-09
1.0035e-09
9.9305608e-10
9.8298186e-10
9.7345885e-10
9.6458262e-10
9.5637691e-10
9.4881447e-10
9.4186268e-10
9.3551627e-10
9.2972671e-10
9.2445157e-10
9.1965589e-10
9.1531149e-10
9.113903e-10
9.0786787e-10
9.0471167e-10
9.0189037e-10
8.9937696e-10
8.9714647e-10
8.9517532e-10
8.9344144e-10
8.9192467e-10
8.9060572e-10
8.8946616e-10
8.8849272e-10
8.8767275e-10
8.8699484e-10
8.8644873e-10
8.8602618e-10
8.8571867e-10
8.8552523e-10
6.3412013e-08