/*--------------------------------*- C++ -*----------------------------------*\
| =========                 |                                                 |
| \\      /  F ield         | OpenFOAM: The Open Source CFD Toolbox           |
|  \\    /   O peration     | Version:  v2006                                 |
|   \\  /    A nd           | Website:  www.openfoam.com                      |
|    \\/     M anipulation  |                                                 |
\*---------------------------------------------------------------------------*/
FoamFile
{
    version     2.0;
    format      ascii;
    class       volScalarField;
    location    "2000";
    object      omega;
}
// * * * * * * * * * * * * * * * * * * * * * * * * * * * * * * * * * * * * * //

dimensions      [0 0 -1 0 0 0 0];


internalField   nonuniform List<scalar> 
55713
(
5.6489348
1.3890115
0.45957135
0.29938078
0.26964963
0.26238207
0.26188231
0.2626431
0.26320156
0.26342585
0.26347255
0.26346498
0.2634535
0.26344942
0.26345076
0.2634521
0.26345259
0.26345285
0.26345185
0.26344962
0.26344742
0.26344599
0.26344501
0.26344405
0.26344295
0.26344169
0.26344028
0.26343871
0.26343693
0.2634349
0.26343269
0.2634304
0.26342797
0.26342551
0.26342292
0.26342008
0.26341678
0.26341314
0.26340919
0.26340512
0.26340098
0.26339668
0.26339187
0.26338666
0.26338149
0.2633766
0.26337177
0.26336687
0.26336182
0.2633566
0.26335109
0.26334533
0.26333932
0.26333323
0.26332698
0.26332072
0.26331482
0.26330971
0.26330511
5.153727
1.2778665
0.43866127
0.30196096
0.27782586
0.27271636
0.27280843
0.27361057
0.27407832
0.27422717
0.27423853
0.27421935
0.27420378
0.27419691
0.27419409
0.27419005
0.27418529
0.27418082
0.27417531
0.27416861
0.27416203
0.27415625
0.274151
0.27414586
0.27414065
0.27413535
0.27412995
0.27412443
0.27411873
0.27411278
0.27410667
0.27410044
0.27409407
0.27408766
0.27408116
0.27407443
0.27406716
0.27405936
0.27405116
0.27404274
0.27403423
0.27402559
0.27401633
0.27400643
0.27399635
0.27398644
0.27397642
0.27396611
0.27395542
0.27394432
0.27393265
0.27392035
0.27390736
0.27389382
0.27387956
0.27386454
0.273849
0.2738333
0.27381741
4.7199565
1.1859055
0.42337137
0.30681803
0.28770743
0.28415197
0.28465814
0.28545884
0.28582973
0.28591189
0.28589652
0.28586958
0.2858509
0.285841
0.28583312
0.28582302
0.28581293
0.28580398
0.28579401
0.28578277
0.28577172
0.28576152
0.28575194
0.28574256
0.28573321
0.28572381
0.28571437
0.28570483
0.28569519
0.28568529
0.28567526
0.2856651
0.28565477
0.2856444
0.28563398
0.28562339
0.28561219
0.28560025
0.28558778
0.28557501
0.28556213
0.28554918
0.28553557
0.28552103
0.28550609
0.28549122
0.28547608
0.28546041
0.28544413
0.28542722
0.28540948
0.28539078
0.28537096
0.2853501
0.28532803
0.28530449
0.28527955
0.28525351
0.28522654
4.3379382
1.1021918
0.41222912
0.31373191
0.29891024
0.29676681
0.29761353
0.29835648
0.29861899
0.29864463
0.29861097
0.29857965
0.29855861
0.29854501
0.29853144
0.29851513
0.29849994
0.29848675
0.29847239
0.29845669
0.29844117
0.29842652
0.29841263
0.29839907
0.29838564
0.2983722
0.29835876
0.29834525
0.29833169
0.2983179
0.29830399
0.29828994
0.29827573
0.29826146
0.29824719
0.29823284
0.29821788
0.2982019
0.29818522
0.29816814
0.29815093
0.29813374
0.29811593
0.29809692
0.29807721
0.29805744
0.29803726
0.2980163
0.29799451
0.29797187
0.29794818
0.29792323
0.29789671
0.29786865
0.29783891
0.29780699
0.29777277
0.29773656
0.29769861
3.9998326
1.0266159
0.40516483
0.32284842
0.31162702
0.31072498
0.31179812
0.31242928
0.3125864
0.31256965
0.31252558
0.31249164
0.31246837
0.31245029
0.31243059
0.31240806
0.312388
0.31237087
0.31235225
0.31233214
0.31231218
0.31229312
0.31227496
0.31225733
0.31223989
0.31222253
0.31220519
0.31218784
0.31217044
0.31215288
0.31213519
0.31211738
0.31209938
0.31208132
0.31206328
0.31204536
0.31202697
0.31200716
0.3119864
0.31196512
0.31194367
0.3119224
0.31190064
0.31187746
0.31185315
0.31182866
0.31180366
0.31177763
0.31175057
0.31172244
0.31169307
0.3116622
0.31162933
0.31159439
0.31155732
0.31151747
0.31147439
0.31142845
0.31137996
3.6992495
0.95800467
0.40200965
0.33566836
0.3260244
0.32620769
0.32737229
0.3278504
0.32791756
0.32787114
0.32782312
0.32778756
0.32776149
0.32773852
0.32771258
0.32768405
0.32765948
0.32763874
0.32761599
0.32759157
0.32756733
0.32754397
0.32752173
0.3275002
0.32747895
0.32745784
0.3274368
0.32741581
0.3273948
0.32737368
0.32735242
0.32733105
0.3273095
0.32728783
0.32726622
0.32724491
0.32722357
0.32720029
0.32717568
0.32715038
0.32712488
0.32709977
0.32707446
0.32704757
0.32701902
0.32699006
0.32696058
0.32692982
0.32689787
0.32686466
0.32683003
0.32679373
0.32675505
0.32671374
0.32666986
0.32662274
0.32657142
0.32651647
0.32645811
3.4309499
0.89557268
0.40271831
0.35098184
0.34257302
0.34346514
0.34452455
0.34483293
0.34483196
0.3447708
0.34472159
0.34468425
0.344655
0.34462695
0.3445949
0.3445609
0.34453223
0.34450826
0.34448161
0.3444531
0.34442486
0.34439748
0.34437148
0.34434635
0.3443216
0.34429704
0.34427261
0.34424828
0.344224
0.34419966
0.34417519
0.34415062
0.34412587
0.34410096
0.34407608
0.34405162
0.34402796
0.34400183
0.34397379
0.3439448
0.34391554
0.34388693
0.34385864
0.34382878
0.34379655
0.34376353
0.34373005
0.34369512
0.34365888
0.34362123
0.34358202
0.34354106
0.34349741
0.34345055
0.34340066
0.34334729
0.34328872
0.34322584
0.34315871
3.1906332
0.83864842
0.40728622
0.36643923
0.36140315
0.36266371
0.36349034
0.36364961
0.36359995
0.36353532
0.36348666
0.36344713
0.36341481
0.36338176
0.36334411
0.36330522
0.36327304
0.36324645
0.36321633
0.36318415
0.36315225
0.36312139
0.36309214
0.3630639
0.36303611
0.36300857
0.36298124
0.36295407
0.36292699
0.36289995
0.36287279
0.36284557
0.36281818
0.3627906
0.36276297
0.36273586
0.36271037
0.36268257
0.36265177
0.36261958
0.36258699
0.36255537
0.36252484
0.36249313
0.36245807
0.36242164
0.36238491
0.3623466
0.362307
0.36226592
0.36222315
0.36217863
0.36213124
0.36208011
0.36202536
0.36196722
0.36190292
0.36183371
0.36175948
2.9748156
0.78671882
0.41563208
0.38513753
0.38261746
0.38399858
0.38458565
0.38463056
0.38455863
0.38449409
0.38444605
0.38440382
0.38436921
0.38433151
0.3842891
0.38424603
0.38421125
0.38418306
0.3841502
0.3841149
0.38407992
0.38404638
0.38401464
0.38398403
0.3839539
0.38392412
0.3838946
0.38386533
0.3838362
0.38380719
0.38377813
0.38374905
0.38371984
0.38369044
0.38366091
0.38363187
0.38360512
0.38357736
0.38354498
0.38351033
0.38347504
0.38344108
0.38340927
0.38337733
0.38334076
0.38330197
0.38326308
0.38322256
0.38318095
0.38313792
0.38309311
0.38304661
0.38299721
0.38294374
0.38288582
0.38282503
0.38275724
0.382684
0.38260515
2.7808401
0.7393899
0.42795723
0.40686488
0.40654205
0.40787797
0.40822709
0.40819385
0.40811601
0.40805447
0.40800783
0.40796326
0.40792777
0.40788609
0.40783979
0.40779382
0.4077579
0.40772977
0.4076952
0.40765745
0.40762035
0.40758529
0.40755221
0.40752028
0.40748889
0.40745793
0.40742731
0.40739702
0.40736694
0.40733707
0.40730724
0.40727746
0.40724764
0.40721765
0.40718748
0.40715767
0.40713055
0.40710449
0.40707287
0.4070369
0.4069998
0.40696454
0.40693277
0.40690263
0.40686659
0.40682706
0.40678777
0.40674668
0.40670497
0.40666222
0.40661752
0.40657129
0.40652227
0.40646933
0.40641077
0.40635024
0.40628232
0.40620829
0.40612842
2.6065619
0.69636622
0.44532818
0.43230892
0.43367445
0.43478169
0.4349296
0.43485836
0.43478621
0.43472903
0.43468481
0.43463926
0.43460502
0.43456004
0.43451153
0.43446486
0.43442989
0.43440443
0.43436935
0.43433008
0.43429243
0.43425759
0.43422478
0.4341931
0.43416202
0.43413145
0.43410132
0.43407162
0.43404221
0.4340131
0.43398412
0.43395533
0.4339266
0.43389784
0.43386886
0.4338401
0.43381397
0.43379128
0.43376417
0.43372873
0.43369106
0.43365622
0.4336264
0.43360005
0.4335679
0.43352995
0.43349308
0.43345369
0.43341462
0.43337554
0.43333393
0.43329116
0.43324585
0.43319742
0.43314227
0.43308578
0.43302283
0.43295241
0.4328768
2.4495668
0.65753081
0.47162932
0.46252281
0.46459858
0.46533077
0.46534456
0.46527203
0.46520938
0.46515806
0.46511937
0.46507517
0.4650455
0.46499777
0.4649506
0.4649068
0.46487585
0.46485641
0.46482226
0.46478317
0.46474743
0.46471535
0.46468519
0.46465606
0.46462759
0.46459975
0.46457242
0.46454564
0.46451924
0.46449328
0.46446755
0.46444216
0.46441694
0.46439194
0.46436684
0.46434185
0.46431901
0.46430165
0.46428332
0.46425187
0.46421559
0.46418386
0.46415895
0.46413822
0.464115
0.46408163
0.46405166
0.46401703
0.46398466
0.46395383
0.46391957
0.46388448
0.46384765
0.46380874
0.46376364
0.46371573
0.46366537
0.46360435
0.46354048
2.3087041
0.62277168
0.50602077
0.49857226
0.50000402
0.50029436
0.50025056
0.50019562
0.50014889
0.50010708
0.50007916
0.50004025
0.50001882
0.4999722
0.49993204
0.49989736
0.49987432
0.49986408
0.49983313
0.49979785
0.49976831
0.49974264
0.49971863
0.49969549
0.49967308
0.49965136
0.49963023
0.49960975
0.49958976
0.49957033
0.49955129
0.49953279
0.49951459
0.49949684
0.49947925
0.49946196
0.49944621
0.49943668
0.49943019
0.49940843
0.49937806
0.49935403
0.49933746
0.49932523
0.49931526
0.49929149
0.49927464
0.49924936
0.49922941
0.4992116
0.49919077
0.49916883
0.49914698
0.49912345
0.49909702
0.49906402
0.49903554
0.49899286
0.49895076
2.1825322
0.59149159
0.54115174
0.54005651
0.54042295
0.54041067
0.54038058
0.54035076
0.54032417
0.54029917
0.54028616
0.54026015
0.54024866
0.54021741
0.54019219
0.54017603
0.54016454
0.54016325
0.54014147
0.54011824
0.54010217
0.5400886
0.54007598
0.54006405
0.5400528
0.54004218
0.54003222
0.54002284
0.54001411
0.54000592
0.53999836
0.53999137
0.53998492
0.53997899
0.53997357
0.53996861
0.53996475
0.53996544
0.53997116
0.53996614
0.53995247
0.53994416
0.53994001
0.53994136
0.5399441
0.53993972
0.53994125
0.53993456
0.53993366
0.53993368
0.5399333
0.53993181
0.53993192
0.53993087
0.53993046
0.53992433
0.53992461
0.53991529
0.53990806
0.17898928
0.17898648
0.17898414
0.17898785
0.17899028
0.17899344
0.17899657
0.17899979
0.17900304
0.17900628
0.17900948
0.17901261
0.17901567
0.17901863
0.17902149
0.17902426
0.17902695
0.17902957
0.17903213
0.1790346
0.1790369
0.17903896
0.17904073
0.17904222
0.17904353
0.17904469
0.17904563
0.17904631
0.17904672
0.17904687
0.17904673
0.17904632
0.17904561
0.17904465
0.17904347
0.17904207
0.17904043
0.17903848
0.17903614
0.17903347
0.17903091
0.1790294
0.17902968
0.17902968
0.17901975
0.17897823
0.17887412
0.17868782
0.17846024
0.17837628
0.17890749
0.18114465
0.18859293
0.21042684
0.27258264
0.4508448
0.99194766
3.1762572
15.455207
0.18144406
0.18144173
0.1814417
0.18144486
0.18144767
0.1814508
0.181454
0.18145726
0.18146054
0.18146379
0.18146701
0.18147015
0.18147322
0.18147618
0.18147905
0.18148182
0.18148453
0.18148718
0.18148977
0.18149225
0.18149455
0.18149661
0.18149837
0.18149986
0.18150118
0.18150234
0.18150328
0.18150393
0.18150432
0.18150445
0.18150429
0.18150385
0.18150314
0.18150216
0.18150095
0.18149952
0.18149786
0.18149592
0.18149363
0.18149104
0.18148857
0.18148709
0.18148713
0.18148664
0.18147653
0.18143636
0.18133602
0.18115343
0.1809199
0.18080206
0.18125002
0.18337537
0.19015004
0.21041933
0.26885416
0.43825001
0.95714004
3.0681979
14.653094
0.18416959
0.18416766
0.18416842
0.18417146
0.18417443
0.1841776
0.18418087
0.18418418
0.1841875
0.18419079
0.18419404
0.18419721
0.18420029
0.18420328
0.18420617
0.18420896
0.1842117
0.18421437
0.18421698
0.18421947
0.18422177
0.18422382
0.18422558
0.18422708
0.18422841
0.18422959
0.18423053
0.18423119
0.18423159
0.18423172
0.18423159
0.18423116
0.18423046
0.1842295
0.1842283
0.1842269
0.1842253
0.18422344
0.18422123
0.18421865
0.18421602
0.18421418
0.18421402
0.18421455
0.18420856
0.18417746
0.18409037
0.18391798
0.18367422
0.18349736
0.18378896
0.1855322
0.19134198
0.20934021
0.26252368
0.41957241
0.90921189
2.9099762
13.854996
0.18720549
0.18720402
0.18720565
0.18720856
0.18721167
0.18721488
0.18721821
0.18722156
0.18722491
0.18722822
0.18723148
0.18723465
0.18723774
0.18724073
0.18724363
0.18724644
0.18724919
0.18725189
0.18725452
0.187257
0.18725929
0.18726133
0.18726308
0.18726458
0.18726592
0.1872671
0.18726803
0.18726869
0.18726908
0.18726922
0.18726909
0.18726868
0.18726798
0.18726703
0.18726584
0.18726446
0.18726289
0.18726111
0.187259
0.18725649
0.18725381
0.1872517
0.18725118
0.18725195
0.18724843
0.18722421
0.18714919
0.18698923
0.18674281
0.18652015
0.186683
0.18812709
0.19313394
0.20911884
0.25738787
0.40285414
0.86406292
2.7580885
13.064224
0.190597
0.19059615
0.19059832
0.1906012
0.19060439
0.19060765
0.19061102
0.19061439
0.19061776
0.19062107
0.19062433
0.19062749
0.19063057
0.19063355
0.19063644
0.19063925
0.19064202
0.19064474
0.19064738
0.19064986
0.19065212
0.19065414
0.19065587
0.19065736
0.1906587
0.19065987
0.1906608
0.19066144
0.19066183
0.19066198
0.19066186
0.19066146
0.19066078
0.19065984
0.19065867
0.19065731
0.19065579
0.19065409
0.1906521
0.19064969
0.19064698
0.19064462
0.1906437
0.19064457
0.19064336
0.19062606
0.19056406
0.19041939
0.19017553
0.18991187
0.1899435
0.19108405
0.19532237
0.20934316
0.25265621
0.38639198
0.81903056
2.6072299
12.283923
0.19439885
0.19439881
0.19440134
0.19440425
0.19440748
0.19441078
0.19441417
0.19441756
0.19442092
0.19442422
0.19442744
0.19443057
0.19443362
0.19443656
0.19443942
0.19444222
0.19444499
0.19444772
0.19445036
0.19445282
0.19445505
0.19445703
0.19445873
0.19446021
0.19446153
0.19446268
0.19446359
0.19446422
0.19446461
0.19446475
0.19446465
0.19446426
0.1944636
0.19446269
0.19446154
0.1944602
0.19445874
0.19445713
0.19445528
0.194453
0.19445033
0.19444778
0.19444641
0.19444708
0.19444751
0.19443639
0.19438744
0.19426057
0.1940259
0.19373149
0.19364052
0.19449017
0.19803698
0.21015879
0.24868888
0.37077538
0.77486885
2.4586322
11.517247
0.19867746
0.19867811
0.19868089
0.19868384
0.19868709
0.19869041
0.19869381
0.19869718
0.19870051
0.19870375
0.19870692
0.19870998
0.19871296
0.19871583
0.19871865
0.19872141
0.19872416
0.19872688
0.1987295
0.19873191
0.19873409
0.19873602
0.19873768
0.19873913
0.19874042
0.19874155
0.19874242
0.19874303
0.19874341
0.19874356
0.19874346
0.19874309
0.19874246
0.19874157
0.19874046
0.19873916
0.19873776
0.19873626
0.19873457
0.19873247
0.1987299
0.19872722
0.19872542
0.19872567
0.19872716
0.19872138
0.19868521
0.19857819
0.19835919
0.19804569
0.19784367
0.19840726
0.20146263
0.21162178
0.24553923
0.35609097
0.73175509
2.3128493
10.767184
0.2035137
0.20351495
0.20351779
0.20352078
0.20352403
0.20352734
0.20353071
0.20353402
0.20353728
0.20354043
0.2035435
0.20354645
0.20354931
0.20355207
0.20355479
0.20355748
0.20356019
0.20356287
0.20356544
0.20356778
0.20356988
0.20357173
0.20357333
0.20357473
0.20357598
0.20357705
0.20357788
0.20357846
0.20357882
0.20357897
0.20357889
0.20357855
0.20357795
0.2035771
0.20357604
0.20357479
0.20357346
0.20357209
0.20357059
0.20356873
0.20356633
0.20356362
0.20356143
0.20356109
0.20356302
0.20356152
0.20353732
0.20345155
0.20325451
0.2029352
0.20264462
0.20294145
0.20533247
0.21385236
0.24334668
0.34255188
0.68999094
2.1705946
10.036569
0.20900731
0.20900892
0.20901176
0.20901475
0.20901796
0.20902122
0.2090245
0.20902771
0.20903084
0.20903385
0.20903675
0.20903952
0.2090422
0.2090448
0.20904737
0.20904993
0.20905254
0.20905514
0.20905761
0.20905984
0.20906182
0.20906356
0.20906508
0.20906641
0.20906759
0.20906858
0.20906934
0.20906988
0.20907022
0.20907036
0.2090703
0.20906999
0.20906944
0.20906865
0.20906765
0.20906648
0.20906524
0.20906402
0.20906275
0.20906119
0.20905907
0.20905644
0.20905396
0.209053
0.20905473
0.20905631
0.20904274
0.20897873
0.20880945
0.20849746
0.20813539
0.20819014
0.20999201
0.21693131
0.24224423
0.33035974
0.64987307
2.0326692
9.3280188
0.21528264
0.21528439
0.21528717
0.21529012
0.21529324
0.21529639
0.21529952
0.21530254
0.21530546
0.21530824
0.2153109
0.21531341
0.21531582
0.21531816
0.2153205
0.21532287
0.21532532
0.21532776
0.21533006
0.2153321
0.21533391
0.2153355
0.21533689
0.21533811
0.21533918
0.21534006
0.21534073
0.2153412
0.21534151
0.21534165
0.21534161
0.21534134
0.21534085
0.21534015
0.21533925
0.21533819
0.21533708
0.21533603
0.21533505
0.21533387
0.21533213
0.21532975
0.21532718
0.21532558
0.21532664
0.21533003
0.2153252
0.21528226
0.21514539
0.21485562
0.21444593
0.2142758
0.21551731
0.22108537
0.24238179
0.31973639
0.61171022
1.9000837
8.6438995
0.22249665
0.22249842
0.2225011
0.22250392
0.22250688
0.22250983
0.22251271
0.22251544
0.22251804
0.22252048
0.22252276
0.22252488
0.22252691
0.22252888
0.22253089
0.22253296
0.22253515
0.22253733
0.22253935
0.22254111
0.22254266
0.22254403
0.22254523
0.22254628
0.2225472
0.22254791
0.22254844
0.22254883
0.22254909
0.22254922
0.22254922
0.222549
0.2225486
0.22254802
0.22254727
0.22254637
0.22254543
0.22254459
0.22254397
0.22254329
0.22254208
0.22254013
0.22253769
0.22253567
0.22253571
0.22253969
0.22254131
0.22251746
0.22241556
0.22216178
0.22173448
0.22137459
0.22208
0.22684297
0.24392521
0.31092112
0.57580706
1.7742645
7.986294
0.23084943
0.2308512
0.23085373
0.23085633
0.23085902
0.23086165
0.23086415
0.23086646
0.2308686
0.23087054
0.23087229
0.23087387
0.23087535
0.2308768
0.23087832
0.23087996
0.23088176
0.23088353
0.23088511
0.23088645
0.23088764
0.23088869
0.23088962
0.23089044
0.2308911
0.23089158
0.23089192
0.23089219
0.23089239
0.2308925
0.23089256
0.23089241
0.23089213
0.23089172
0.23089119
0.23089054
0.23088984
0.23088928
0.23088907
0.23088907
0.23088859
0.23088726
0.23088522
0.23088307
0.23088222
0.23088562
0.23089116
0.23088316
0.23081641
0.23060982
0.23019635
0.22971118
0.22994252
0.23338484
0.24712641
0.30417665
0.54241455
1.65725
7.3569801
0.24059611
0.24059799
0.24060026
0.24060254
0.24060489
0.24060708
0.24060905
0.24061079
0.24061231
0.24061358
0.24061462
0.24061547
0.24061622
0.24061696
0.24061783
0.24061891
0.24062015
0.24062133
0.24062228
0.24062305
0.24062375
0.24062438
0.24062493
0.2406254
0.24062571
0.24062586
0.24062595
0.24062607
0.24062619
0.24062627
0.2406264
0.24062637
0.24062627
0.2406261
0.24062587
0.24062556
0.24062521
0.24062499
0.24062529
0.24062621
0.24062677
0.24062623
0.24062486
0.24062304
0.24062164
0.24062362
0.24063066
0.24063417
0.24059991
0.24044867
0.24007592
0.23950667
0.23933757
0.24167301
0.25217307
0.29980125
0.51163784
1.5518712
6.7574145
0.25205021
0.2520522
0.25205415
0.25205613
0.25205813
0.25205984
0.25206124
0.25206236
0.2520632
0.25206371
0.25206396
0.25206401
0.25206396
0.25206391
0.25206404
0.25206446
0.25206508
0.25206555
0.25206576
0.25206585
0.25206599
0.25206615
0.25206627
0.25206632
0.25206619
0.25206593
0.25206575
0.25206571
0.25206577
0.25206588
0.25206609
0.25206624
0.25206638
0.25206652
0.2520667
0.25206684
0.25206699
0.25206728
0.25206821
0.25206995
0.25207177
0.25207238
0.25207186
0.25207084
0.25206948
0.25206967
0.25207614
0.25208618
0.2520784
0.25198564
0.25168322
0.25108671
0.25055877
0.25187499
0.25967019
0.29815476
0.48322254
1.4608043
6.1886676
17.034039
19.709906
22.776286
26.283155
30.285243
34.842095
40.018064
45.882188
52.507947
59.972838
68.35778
77.746319
88.223601
99.875165
112.78549
127.03634
142.7049
159.8619
178.56942
198.87879
220.8286
244.44273
269.72853
296.67543
325.25405
355.41528
387.09018
420.19039
454.6088
490.22182
526.88896
564.45901
602.76843
641.64646
680.91683
720.40397
759.92834
799.31643
838.40366
877.03459
915.06006
952.34608
988.77102
1024.2277
1058.6265
1091.8919
1123.9613
1154.7878
1184.3372
1212.5888
1239.5331
1265.1706
1289.5104
1312.5718
1334.3798
1354.9638
1374.3603
1392.6084
1409.7504
1425.8315
1440.8977
1454.9962
1468.1739
1480.4782
1491.9558
1502.6533
1512.6149
1521.8844
1530.5036
1538.5126
1545.9502
1552.8526
1559.2557
1565.1926
3.6989013
4.3578082
5.0555902
5.8082025
6.636324
7.5586376
8.59161
9.7503292
11.04928
12.50282
14.125428
15.931655
17.936119
20.153164
22.596684
25.279611
28.213689
31.40878
34.872629
38.610073
42.622919
46.909145
51.463127
56.274926
61.330404
66.612021
72.100349
77.767371
83.59546
89.560564
95.629234
101.77438
107.97973
114.2074
120.52104
126.87897
133.13071
139.3228
145.40822
151.43648
157.49291
163.53251
169.46423
175.18574
180.71025
186.05603
191.22873
196.22545
200.96105
205.45087
209.73506
213.82378
217.71203
221.44602
225.01715
228.41321
231.63142
234.67103
237.53606
240.23114
242.7611
245.13549
247.37406
249.4791
251.44188
253.269
254.96757
256.54643
258.01365
259.3781
260.64373
261.81732
262.89655
263.96864
1.1041413
1.2718717
1.4711699
1.7008441
1.962069
2.2570981
2.588963
2.9613374
3.3784332
3.8448842
4.3656436
4.9458528
5.5907423
6.3054837
7.0950769
7.964173
8.9169397
9.9568275
11.086406
12.307078
13.618902
15.020299
16.507947
18.076564
19.718789
21.425382
23.18602
24.987283
26.817621
28.665144
30.515677
32.356478
34.179428
35.97344
37.743533
39.487548
41.184868
42.83352
44.429428
45.977507
47.491647
48.976911
50.429751
51.839831
53.203337
54.519381
55.790653
57.012921
58.185389
59.310455
60.389092
61.420262
62.405016
63.344925
64.239112
65.088036
65.892777
66.65432
67.373799
68.052323
68.691197
69.291596
69.853031
70.375824
70.86299
71.317084
71.740038
72.133606
72.499698
72.8401
73.156186
73.449616
73.720536
73.977437
0.49437647
0.55989332
0.63891803
0.73183586
0.83974854
0.96390211
1.1056237
1.2663649
1.4477422
1.6515644
1.8798325
2.1347113
2.4184982
2.7335585
3.0822658
3.4669156
3.8896479
4.3523301
4.8564598
5.4030165
5.9923437
6.6239875
7.2966023
8.0077991
8.7540325
9.5306145
10.33214
11.151403
11.98165
12.816022
13.646392
14.465343
15.266907
16.044981
16.797298
17.523238
18.218171
18.880055
19.507299
20.100269
20.66239
21.196636
21.704799
22.187064
22.644235
23.077143
23.487692
23.875964
24.242275
24.589133
24.918261
25.229845
25.524748
25.803855
26.067243
26.315293
26.548671
26.768059
26.974157
27.167582
27.34899
27.518892
27.67778
27.826403
27.96542
28.095421
28.216841
28.330087
28.435679
28.533391
28.623674
28.707219
28.784126
28.856974
0.2901125
0.31783425
0.35265073
0.39499711
0.44566744
0.50552741
0.57542217
0.65616384
0.74855342
0.85341887
0.97164813
1.104207
1.2521495
1.4166022
1.5987435
1.7997605
2.0208059
2.2629331
2.5270347
2.8137573
3.1234268
3.4559462
3.8107362
4.1866438
4.5818452
4.9938326
5.4196757
5.8553351
6.2969389
6.740558
7.1814304
7.6152659
8.0383799
8.4472419
8.8397021
9.2147448
9.5705217
9.906273
10.221477
10.516254
10.791785
11.049237
11.289573
11.513423
11.721701
11.915325
12.095488
12.262897
12.418088
12.562425
12.697395
12.823679
12.941871
13.052524
13.155944
13.252448
13.342429
13.426279
13.504388
13.577111
13.644804
13.707787
13.766313
13.820666
13.871188
13.918201
13.961948
14.002658
14.040517
14.075733
14.108484
14.138964
14.167235
14.193827
0.21724407
0.22918132
0.24521511
0.26574229
0.29132216
0.32257154
0.36011432
0.4045457
0.45641688
0.5162365
0.58448695
0.66164358
0.74819605
0.84465828
0.9515726
1.069496
1.1989839
1.340554
1.4946537
1.6616068
1.8415667
2.0344535
2.2399067
2.4572417
2.6853776
2.9228219
3.1678504
3.4180367
3.6710963
3.9247424
4.1761121
4.4226987
4.6623721
4.8931325
5.1137475
5.3235887
5.5216488
5.7076105
5.8813692
6.0431817
6.1938477
6.3341105
6.4645584
6.5855775
6.6977102
6.8015094
6.8976716
6.9866354
7.0687637
7.1447399
7.2152284
7.2806761
7.3414943
7.3980637
7.4506262
7.4994066
7.5446574
7.5866263
7.6255504
7.661648
7.6951259
7.7261734
7.7549512
7.7816229
7.806357
7.8293135
7.8506299
7.8704312
7.8888255
7.9059099
7.9217861
7.9365474
7.9502949
7.9630449
0.1902216
0.19457327
0.20150954
0.21131596
0.22436294
0.2410702
0.26188657
0.28726521
0.31763959
0.35340457
0.39490847
0.44245421
0.49630909
0.55671622
0.6239059
0.69809778
0.77950104
0.86829967
0.96463821
1.068592
1.1801396
1.2991247
1.4252252
1.5579268
1.6964777
1.8398795
1.987013
2.1363125
2.2863484
2.4357296
2.5826896
2.72574
2.8636563
2.9953391
3.1201469
3.2378122
3.3479073
3.4503773
3.5453152
3.6330145
3.7140561
3.7889942
3.8582842
3.9222531
3.9812781
4.0357263
4.0860179
4.1324383
4.1752226
4.2147502
4.2513831
4.2853696
4.3169295
4.3462657
4.3735139
4.398797
4.4222496
4.4440042
4.4641853
4.4829077
4.5002779
4.5163936
4.5313399
4.5452002
4.5580603
4.5700061
4.58111
4.5914366
4.6010425
4.609979
4.6182986
4.6260304
4.6332887
4.6398234
0.18032107
0.18083447
0.18300063
0.18706263
0.19328077
0.20193817
0.21334271
0.22782025
0.24570068
0.26730005
0.29290419
0.3227567
0.35705444
0.39594829
0.43954924
0.48793292
0.54114462
0.5991971
0.66206693
0.72968117
0.80190371
0.87851403
0.95918955
1.0434928
1.1308414
1.2205064
1.3117038
1.4033679
1.4945607
1.5844022
1.6717807
1.7558096
1.8357959
1.9111623
1.9816128
2.0470894
2.1074911
2.162919
2.2135657
2.2597245
2.3018253
2.3402776
2.3754279
2.4075456
2.4369059
2.463767
2.4883949
2.510984
2.5316942
2.5507387
2.5683188
2.584578
2.5996378
2.613607
2.6265619
2.6385692
2.6496976
2.6600138
2.6695795
2.6784512
2.686681
2.6943163
2.7013999
2.707973
2.7140771
2.7197515
2.7250292
2.72994
2.7345107
2.7387646
2.7427304
2.7464087
2.7499078
2.752893
0.17695846
0.17559832
0.17527168
0.1761724
0.17851002
0.18249548
0.18834643
0.19629091
0.20656559
0.21940803
0.23504507
0.2536798
0.27548103
0.30057556
0.32904586
0.36092974
0.39622287
0.43487942
0.4768129
0.52189158
0.56993346
0.62069694
0.6738709
0.72907337
0.78583218
0.84358781
0.90176278
0.95960424
1.0164755
1.0718053
1.1248858
1.1751925
1.2223476
1.2660743
1.3062756
1.3430061
1.3763208
1.406385
1.4334151
1.4576734
1.4794786
1.4991279
1.5168723
1.532912
1.5474364
1.5606163
1.572615
1.5835556
1.5935388
1.6026826
1.6110972
1.6188611
1.6260429
1.6327075
1.6388951
1.6446375
1.6499667
1.6549136
1.6595068
1.6637723
1.6677341
1.6714143
1.6748329
1.6780092
1.6809618
1.6837086
1.6862652
1.6886456
1.6908633
1.692929
1.6948586
1.6966442
1.6983699
1.6997453
0.17599957
0.17384126
0.17216858
0.17145499
0.17162818
0.17288433
0.17539953
0.17934396
0.18488775
0.19220178
0.2014542
0.21280323
0.22638877
0.24232335
0.2606856
0.28151517
0.30481091
0.33052926
0.35858452
0.38884711
0.42114209
0.45524608
0.49088324
0.52772805
0.5653969
0.60345255
0.64145737
0.67886424
0.71522997
0.75017519
0.78324211
0.8141236
0.84262619
0.86863988
0.89217372
0.91333405
0.93223793
0.94905992
0.96399831
0.9772663
0.98909444
0.99969028
1.0092249
1.0178323
1.0256318
1.0327274
1.0392102
1.0451744
1.0506747
1.0557669
1.0605009
1.0649124
1.0690256
1.0728559
1.076421
1.0797373
1.0828219
1.0856911
1.0883605
1.0908438
1.0931537
1.0953022
1.0973004
1.0991587
1.1008877
1.102497
1.1039954
1.1053909
1.1066908
1.1079012
1.1090319
1.1100744
1.1110928
1.1118564
0.17591187
0.17341057
0.17130918
0.16967487
0.16864715
0.16834184
0.16887598
0.17037546
0.17296608
0.17677171
0.18191341
0.18850702
0.19665923
0.20646184
0.21798585
0.23127552
0.24634398
0.26316936
0.28169273
0.3018158
0.32339969
0.34626359
0.37018378
0.39489693
0.42009901
0.44544987
0.47061448
0.49519055
0.51886123
0.54136801
0.5624081
0.58180648
0.59947644
0.61539614
0.62962357
0.64227943
0.65349353
0.66342254
0.67222918
0.68007415
0.68711702
0.69349454
0.69931641
0.70465739
0.70961175
0.7142347
0.71856967
0.72262141
0.72640886
0.72995913
0.73329776
0.73644208
0.73940469
0.7421959
0.74482295
0.7472921
0.7496101
0.75178418
0.75382142
0.75572869
0.75751267
0.75917993
0.76073691
0.76219
0.76354548
0.76480945
0.76598759
0.76708529
0.76810786
0.76905967
0.76994809
0.77076664
0.77156462
0.7721637
0.17609613
0.17347129
0.17116704
0.16917536
0.16756781
0.16638421
0.16580323
0.16584997
0.16662654
0.16822684
0.17073952
0.17424803
0.17882965
0.18455306
0.19147508
0.1996365
0.20905795
0.21973561
0.23163785
0.24470189
0.25883158
0.27389564
0.28972739
0.30612678
0.32286286
0.3396735
0.35632161
0.37245871
0.38798717
0.40260409
0.41611822
0.4284448
0.43955956
0.44948675
0.45830438
0.46612971
0.47308405
0.47929823
0.48489956
0.49000508
0.49472335
0.49913521
0.50332258
0.50733089
0.51115977
0.51482261
0.51833247
0.52169581
0.52491554
0.52799733
0.53094675
0.53376596
0.53645526
0.53901489
0.54144471
0.54374528
0.54591846
0.54796741
0.549896
0.55170859
0.55340991
0.55500482
0.55649831
0.55789536
0.55920093
0.56041984
0.56155681
0.56261636
0.563603
0.5645206
0.56537534
0.56616297
0.5669215
0.56751642
0.17630498
0.17367065
0.17129815
0.16917852
0.16732591
0.16576976
0.16456399
0.16377964
0.163481
0.16373313
0.16459955
0.16614066
0.16841202
0.17146313
0.17533595
0.1800628
0.18566379
0.19214358
0.1994882
0.20766166
0.21660315
0.22622465
0.2364103
0.24701714
0.25787585
0.2687991
0.27959729
0.2900689
0.30001816
0.30934766
0.31794947
0.32575634
0.33276252
0.33900709
0.34456992
0.3495571
0.35407486
0.35822853
0.36211413
0.36581179
0.36939454
0.37292488
0.37640893
0.37985218
0.38325455
0.38661085
0.38991275
0.39314842
0.39630526
0.39937353
0.4023453
0.40521251
0.40796762
0.41060467
0.41311924
0.41550872
0.41777257
0.419912
0.42192955
0.42382865
0.42561336
0.42728811
0.42885752
0.43032628
0.43169908
0.43298056
0.43417531
0.43528783
0.43632261
0.43728379
0.438177
0.4390008
0.43978341
0.44042775
0.17645157
0.1738584
0.17149398
0.16934796
0.16741434
0.16570134
0.16422175
0.16301347
0.16212131
0.16158976
0.16146878
0.16179639
0.16261324
0.16395587
0.16585507
0.16833492
0.17141168
0.17509186
0.17937007
0.1842263
0.18962341
0.19550456
0.20179271
0.20838954
0.21517574
0.22202228
0.22878545
0.23535188
0.24153722
0.24731914
0.2526225
0.25742406
0.26174209
0.26562719
0.26915711
0.27242503
0.27551993
0.27852366
0.28150114
0.28451293
0.28759372
0.29075117
0.29398433
0.29728098
0.30062251
0.30398684
0.30735049
0.3106893
0.31398029
0.31720418
0.32034494
0.32338858
0.32632332
0.32913999
0.33183197
0.33439502
0.33682724
0.33912867
0.34130089
0.34334664
0.34526952
0.34707376
0.34876399
0.35034512
0.35182222
0.35320042
0.35448481
0.35568047
0.35679237
0.3578252
0.35878454
0.359671
0.36050597
0.36122172
0.17652783
0.17398452
0.17166111
0.16953745
0.16759969
0.16584279
0.16426499
0.16287622
0.16169504
0.16076175
0.16002648
0.15967809
0.15963853
0.15993932
0.16060852
0.16166677
0.1631279
0.16499862
0.16727747
0.16995308
0.17300247
0.17638868
0.1800612
0.18395299
0.18798178
0.19205986
0.19608835
0.1999866
0.20365691
0.20706623
0.21017931
0.21300037
0.21556646
0.21793831
0.22019353
0.22241599
0.22468161
0.22705055
0.22957732
0.23228614
0.23518202
0.23825869
0.24149692
0.24486744
0.24833612