/*--------------------------------*- C++ -*----------------------------------*\
| =========                 |                                                 |
| \\      /  F ield         | OpenFOAM: The Open Source CFD Toolbox           |
|  \\    /   O peration     | Version:  v2006                                 |
|   \\  /    A nd           | Website:  www.openfoam.com                      |
|    \\/     M anipulation  |                                                 |
\*---------------------------------------------------------------------------*/
FoamFile
{
    version     2.0;
    format      ascii;
    class       volScalarField;
    location    "2000";
    object      p;
}
// * * * * * * * * * * * * * * * * * * * * * * * * * * * * * * * * * * * * * //

dimensions      [1 -1 -2 0 0 0 0];


internalField   nonuniform List<scalar> 
55713
(
1.0000311
1.0000311
1.0000311
1.0000311
1.0000311
1.0000311
1.0000311
1.0000311
1.0000311
1.0000311
1.0000311
1.0000311
1.0000311
1.0000311
1.0000311
1.0000311
1.0000311
1.0000311
1.0000311
1.0000311
1.0000311
1.0000311
1.0000311
1.0000311
1.0000311
1.0000311
1.0000311
1.0000311
1.0000311
1.0000311
1.0000311
1.0000311
1.0000311
1.0000311
1.0000311
1.0000311
1.0000311
1.0000311
1.0000311
1.0000311
1.0000311
1.0000311
1.0000311
1.0000311
1.0000311
1.0000311
1.0000311
1.0000311
1.0000311
1.000031
1.000031
1.000031
1.000031
1.000031
1.000031
1.000031
1.000031
1.000031
1.000031
1.0000289
1.0000289
1.0000289
1.0000289
1.0000289
1.0000289
1.0000289
1.0000289
1.0000289
1.0000289
1.0000289
1.0000289
1.0000289
1.0000289
1.0000289
1.0000289
1.0000289
1.0000289
1.0000289
1.0000289
1.0000289
1.0000289
1.0000289
1.0000289
1.0000289
1.0000289
1.0000289
1.0000289
1.0000289
1.0000289
1.0000289
1.0000289
1.0000289
1.0000289
1.0000289
1.0000289
1.0000289
1.0000289
1.0000289
1.0000289
1.0000289
1.0000289
1.0000289
1.0000289
1.0000289
1.0000289
1.0000289
1.0000289
1.0000289
1.0000289
1.0000289
1.0000289
1.0000289
1.0000289
1.0000289
1.0000289
1.0000289
1.0000289
1.0000289
1.0000269
1.000027
1.000027
1.000027
1.000027
1.000027
1.000027
1.000027
1.000027
1.000027
1.000027
1.000027
1.000027
1.000027
1.000027
1.000027
1.000027
1.000027
1.000027
1.000027
1.000027
1.000027
1.000027
1.000027
1.000027
1.000027
1.000027
1.000027
1.000027
1.000027
1.000027
1.000027
1.000027
1.000027
1.000027
1.000027
1.000027
1.000027
1.000027
1.000027
1.000027
1.000027
1.000027
1.000027
1.000027
1.000027
1.000027
1.000027
1.000027
1.000027
1.000027
1.000027
1.000027
1.000027
1.000027
1.000027
1.000027
1.000027
1.000027
1.0000253
1.0000253
1.0000253
1.0000253
1.0000253
1.0000253
1.0000253
1.0000253
1.0000253
1.0000253
1.0000253
1.0000253
1.0000253
1.0000253
1.0000253
1.0000253
1.0000253
1.0000253
1.0000253
1.0000253
1.0000253
1.0000253
1.0000253
1.0000253
1.0000253
1.0000253
1.0000253
1.0000253
1.0000253
1.0000253
1.0000253
1.0000253
1.0000253
1.0000253
1.0000253
1.0000253
1.0000253
1.0000253
1.0000253
1.0000253
1.0000253
1.0000254
1.0000254
1.0000254
1.0000254
1.0000254
1.0000254
1.0000254
1.0000254
1.0000254
1.0000254
1.0000254
1.0000254
1.0000254
1.0000254
1.0000254
1.0000254
1.0000254
1.0000254
1.0000239
1.0000239
1.0000239
1.0000239
1.0000239
1.0000239
1.0000239
1.0000239
1.0000239
1.0000239
1.0000239
1.0000239
1.0000239
1.0000239
1.0000239
1.0000239
1.0000239
1.0000239
1.0000239
1.0000239
1.0000239
1.0000239
1.0000239
1.0000239
1.0000239
1.0000239
1.0000239
1.0000239
1.0000239
1.0000239
1.0000239
1.0000239
1.0000239
1.0000239
1.0000239
1.0000239
1.0000239
1.0000239
1.0000239
1.0000239
1.0000239
1.0000239
1.0000239
1.0000239
1.0000239
1.0000239
1.0000239
1.0000239
1.0000239
1.0000239
1.0000239
1.0000239
1.0000239
1.0000239
1.0000239
1.0000239
1.0000239
1.0000239
1.000024
1.0000226
1.0000226
1.0000226
1.0000226
1.0000227
1.0000227
1.0000227
1.0000227
1.0000227
1.0000227
1.0000227
1.0000227
1.0000227
1.0000227
1.0000227
1.0000227
1.0000227
1.0000227
1.0000227
1.0000227
1.0000227
1.0000227
1.0000227
1.0000227
1.0000227
1.0000227
1.0000227
1.0000227
1.0000227
1.0000227
1.0000227
1.0000227
1.0000227
1.0000227
1.0000227
1.0000227
1.0000227
1.0000227
1.0000227
1.0000227
1.0000227
1.0000227
1.0000227
1.0000227
1.0000227
1.0000227
1.0000227
1.0000227
1.0000227
1.0000227
1.0000227
1.0000227
1.0000227
1.0000227
1.0000227
1.0000227
1.0000227
1.0000227
1.0000227
1.0000215
1.0000215
1.0000215
1.0000215
1.0000216
1.0000216
1.0000216
1.0000216
1.0000216
1.0000216
1.0000216
1.0000216
1.0000216
1.0000216
1.0000216
1.0000216
1.0000216
1.0000216
1.0000216
1.0000216
1.0000216
1.0000216
1.0000216
1.0000216
1.0000216
1.0000216
1.0000216
1.0000216
1.0000216
1.0000216
1.0000216
1.0000216
1.0000216
1.0000216
1.0000216
1.0000216
1.0000216
1.0000216
1.0000216
1.0000216
1.0000216
1.0000216
1.0000216
1.0000216
1.0000216
1.0000216
1.0000216
1.0000216
1.0000216
1.0000216
1.0000216
1.0000216
1.0000216
1.0000216
1.0000216
1.0000216
1.0000216
1.0000216
1.0000216
1.0000206
1.0000206
1.0000206
1.0000206
1.0000206
1.0000206
1.0000206
1.0000206
1.0000206
1.0000206
1.0000206
1.0000206
1.0000206
1.0000206
1.0000206
1.0000206
1.0000206
1.0000206
1.0000206
1.0000206
1.0000206
1.0000206
1.0000206
1.0000206
1.0000206
1.0000206
1.0000206
1.0000206
1.0000206
1.0000206
1.0000206
1.0000206
1.0000206
1.0000206
1.0000206
1.0000206
1.0000206
1.0000206
1.0000206
1.0000206
1.0000206
1.0000206
1.0000206
1.0000206
1.0000206
1.0000206
1.0000206
1.0000206
1.0000206
1.0000206
1.0000206
1.0000206
1.0000206
1.0000206
1.0000206
1.0000206
1.0000206
1.0000206
1.0000206
1.00002
1.00002
1.00002
1.00002
1.00002
1.0000201
1.0000201
1.0000201
1.0000201
1.0000201
1.0000201
1.0000201
1.0000201
1.0000201
1.0000201
1.0000201
1.0000201
1.0000201
1.0000201
1.0000201
1.0000201
1.0000201
1.0000201
1.0000201
1.0000201
1.0000201
1.0000201
1.0000201
1.0000201
1.0000201
1.0000201
1.0000201
1.0000201
1.0000201
1.0000201
1.0000201
1.0000201
1.0000201
1.0000201
1.0000201
1.0000201
1.0000201
1.0000201
1.0000201
1.0000201
1.0000201
1.0000201
1.0000201
1.0000201
1.0000201
1.0000201
1.0000201
1.0000201
1.0000201
1.0000201
1.0000201
1.0000201
1.0000201
1.0000201
1.0000196
1.0000196
1.0000196
1.0000196
1.0000196
1.0000196
1.0000196
1.0000196
1.0000196
1.0000196
1.0000196
1.0000196
1.0000196
1.0000196
1.0000196
1.0000196
1.0000196
1.0000196
1.0000196
1.0000196
1.0000196
1.0000196
1.0000196
1.0000196
1.0000196
1.0000196
1.0000196
1.0000196
1.0000196
1.0000196
1.0000196
1.0000196
1.0000196
1.0000196
1.0000196
1.0000196
1.0000196
1.0000196
1.0000196
1.0000196
1.0000196
1.0000196
1.0000196
1.0000196
1.0000196
1.0000196
1.0000197
1.0000197
1.0000197
1.0000197
1.0000197
1.0000197
1.0000197
1.0000197
1.0000197
1.0000197
1.0000197
1.0000197
1.0000197
1.0000177
1.0000177
1.0000177
1.0000177
1.0000177
1.0000177
1.0000177
1.0000178
1.0000178
1.0000178
1.0000178
1.0000178
1.0000178
1.0000178
1.0000178
1.0000178
1.0000178
1.0000178
1.0000178
1.0000178
1.0000178
1.0000178
1.0000178
1.0000178
1.0000178
1.0000178
1.0000178
1.0000178
1.0000178
1.0000178
1.0000178
1.0000178
1.0000178
1.0000178
1.0000178
1.0000178
1.0000178
1.0000178
1.0000178
1.0000178
1.0000178
1.0000178
1.0000178
1.0000178
1.0000178
1.0000178
1.0000178
1.0000178
1.0000178
1.0000178
1.0000178
1.0000178
1.0000178
1.0000178
1.0000178
1.0000178
1.0000178
1.0000178
1.0000178
1.0000176
1.0000176
1.0000176
1.0000176
1.0000176
1.0000176
1.0000176
1.0000176
1.0000176
1.0000175
1.0000175
1.0000175
1.0000175
1.0000175
1.0000175
1.0000175
1.0000175
1.0000175
1.0000175
1.0000175
1.0000175
1.0000175
1.0000175
1.0000175
1.0000175
1.0000175
1.0000175
1.0000175
1.0000175
1.0000175
1.0000175
1.0000175
1.0000175
1.0000175
1.0000175
1.0000175
1.0000175
1.0000174
1.0000174
1.0000174
1.0000174
1.0000174
1.0000174
1.0000174
1.0000174
1.0000174
1.0000174
1.0000174
1.0000174
1.0000174
1.0000174
1.0000174
1.0000174
1.0000174
1.0000174
1.0000174
1.0000174
1.0000174
1.0000174
1.0000265
1.0000265
1.0000265
1.0000265
1.0000265
1.0000265
1.0000265
1.0000265
1.0000265
1.0000265
1.0000265
1.0000265
1.0000265
1.0000265
1.0000265
1.0000265
1.0000265
1.0000265
1.0000265
1.0000265
1.0000265
1.0000265
1.0000265
1.0000265
1.0000265
1.0000265
1.0000265
1.0000265
1.0000265
1.0000265
1.0000265
1.0000265
1.0000265
1.0000265
1.0000265
1.0000265
1.0000265
1.0000265
1.0000265
1.0000265
1.0000265
1.0000265
1.0000265
1.0000265
1.0000265
1.0000265
1.0000265
1.0000265
1.0000265
1.0000265
1.0000265
1.0000265
1.0000265
1.0000265
1.0000265
1.0000265
1.0000265
1.0000265
1.0000265
1.0000168
1.0000168
1.0000168
1.0000169
1.0000169
1.0000169
1.0000169
1.0000169
1.0000169
1.0000169
1.0000169
1.0000169
1.0000169
1.0000169
1.0000169
1.0000169
1.0000169
1.0000169
1.0000169
1.0000169
1.0000169
1.0000169
1.0000169
1.0000169
1.0000169
1.0000169
1.0000169
1.0000169
1.0000169
1.0000169
1.0000169
1.0000169
1.0000169
1.0000169
1.0000169
1.0000169
1.0000169
1.0000169
1.0000169
1.0000169
1.0000169
1.0000169
1.0000169
1.0000169
1.0000169
1.0000169
1.0000169
1.0000169
1.0000169
1.0000169
1.0000169
1.0000169
1.0000169
1.0000169
1.0000169
1.0000169
1.0000169
1.0000169
1.0000169
1.0001253
1.0001254
1.0001254
1.0001255
1.0001255
1.0001255
1.0001256
1.0001256
1.0001257
1.0001257
1.0001257
1.0001258
1.0001258
1.0001258
1.0001259
1.0001259
1.0001259
1.000126
1.000126
1.000126
1.0001261
1.0001261
1.0001261
1.0001262
1.0001262
1.0001262
1.0001262
1.0001263
1.0001263
1.0001263
1.0001263
1.0001264
1.0001264
1.0001264
1.0001264
1.0001264
1.0001265
1.0001265
1.0001265
1.0001265
1.0001265
1.0001265
1.0001265
1.0001266
1.0001266
1.0001266
1.0001266
1.0001266
1.0001266
1.0001266
1.0001266
1.0001266
1.0001266
1.0001266
1.0001266
1.0001266
1.0001266
1.0001266
1.0001266
1.0001146
1.0001146
1.0001146
1.0001147
1.0001147
1.0001147
1.0001148
1.0001148
1.0001148
1.0001149
1.0001149
1.0001149
1.000115
1.000115
1.000115
1.0001151
1.0001151
1.0001151
1.0001151
1.0001152
1.0001152
1.0001152
1.0001152
1.0001153
1.0001153
1.0001153
1.0001153
1.0001153
1.0001154
1.0001154
1.0001154
1.0001154
1.0001154
1.0001155
1.0001155
1.0001155
1.0001155
1.0001155
1.0001155
1.0001155
1.0001156
1.0001156
1.0001156
1.0001156
1.0001156
1.0001156
1.0001156
1.0001156
1.0001156
1.0001156
1.0001156
1.0001156
1.0001156
1.0001156
1.0001157
1.0001157
1.0001157
1.0001157
1.0001157
1.0001046
1.0001046
1.0001046
1.0001046
1.0001047
1.0001047
1.0001047
1.0001048
1.0001048
1.0001048
1.0001048
1.0001049
1.0001049
1.0001049
1.0001049
1.0001049
1.000105
1.000105
1.000105
1.000105
1.0001051
1.0001051
1.0001051
1.0001051
1.0001051
1.0001051
1.0001052
1.0001052
1.0001052
1.0001052
1.0001052
1.0001052
1.0001053
1.0001053
1.0001053
1.0001053
1.0001053
1.0001053
1.0001053
1.0001053
1.0001054
1.0001054
1.0001054
1.0001054
1.0001054
1.0001054
1.0001054
1.0001054
1.0001054
1.0001054
1.0001054
1.0001054
1.0001054
1.0001054
1.0001054
1.0001054
1.0001054
1.0001054
1.0001054
1.0000952
1.0000952
1.0000952
1.0000953
1.0000953
1.0000953
1.0000953
1.0000954
1.0000954
1.0000954
1.0000954
1.0000954
1.0000955
1.0000955
1.0000955
1.0000955
1.0000955
1.0000955
1.0000956
1.0000956
1.0000956
1.0000956
1.0000956
1.0000956
1.0000957
1.0000957
1.0000957
1.0000957
1.0000957
1.0000957
1.0000957
1.0000957
1.0000958
1.0000958
1.0000958
1.0000958
1.0000958
1.0000958
1.0000958
1.0000958
1.0000958
1.0000958
1.0000958
1.0000959
1.0000959
1.0000959
1.0000959
1.0000959
1.0000959
1.0000959
1.0000959
1.0000959
1.0000959
1.0000959
1.0000959
1.0000959
1.0000959
1.0000959
1.0000959
1.0000865
1.0000865
1.0000865
1.0000866
1.0000866
1.0000866
1.0000866
1.0000866
1.0000866
1.0000867
1.0000867
1.0000867
1.0000867
1.0000867
1.0000867
1.0000868
1.0000868
1.0000868
1.0000868
1.0000868
1.0000868
1.0000868
1.0000868
1.0000869
1.0000869
1.0000869
1.0000869
1.0000869
1.0000869
1.0000869
1.0000869
1.0000869
1.000087
1.000087
1.000087
1.000087
1.000087
1.000087
1.000087
1.000087
1.000087
1.000087
1.000087
1.000087
1.000087
1.000087
1.000087
1.000087
1.0000871
1.0000871
1.0000871
1.0000871
1.0000871
1.0000871
1.0000871
1.0000871
1.0000871
1.0000871
1.0000871
1.0000784
1.0000784
1.0000785
1.0000785
1.0000785
1.0000785
1.0000785
1.0000785
1.0000785
1.0000786
1.0000786
1.0000786
1.0000786
1.0000786
1.0000786
1.0000786
1.0000786
1.0000787
1.0000787
1.0000787
1.0000787
1.0000787
1.0000787
1.0000787
1.0000787
1.0000787
1.0000787
1.0000788
1.0000788
1.0000788
1.0000788
1.0000788
1.0000788
1.0000788
1.0000788
1.0000788
1.0000788
1.0000788
1.0000788
1.0000788
1.0000788
1.0000788
1.0000789
1.0000789
1.0000789
1.0000789
1.0000789
1.0000789
1.0000789
1.0000789
1.0000789
1.0000789
1.0000789
1.0000789
1.0000789
1.0000789
1.0000789
1.0000789
1.0000789
1.000071
1.000071
1.000071
1.000071
1.000071
1.000071
1.000071
1.0000711
1.0000711
1.0000711
1.0000711
1.0000711
1.0000711
1.0000711
1.0000711
1.0000711
1.0000712
1.0000712
1.0000712
1.0000712
1.0000712
1.0000712
1.0000712
1.0000712
1.0000712
1.0000712
1.0000712
1.0000712
1.0000712
1.0000713
1.0000713
1.0000713
1.0000713
1.0000713
1.0000713
1.0000713
1.0000713
1.0000713
1.0000713
1.0000713
1.0000713
1.0000713
1.0000713
1.0000713
1.0000713
1.0000713
1.0000713
1.0000713
1.0000713
1.0000713
1.0000713
1.0000713
1.0000713
1.0000713
1.0000713
1.0000713
1.0000713
1.0000713
1.0000713
1.0000641
1.0000641
1.0000641
1.0000641
1.0000641
1.0000642
1.0000642
1.0000642
1.0000642
1.0000642
1.0000642
1.0000642
1.0000642
1.0000642
1.0000642
1.0000642
1.0000643
1.0000643
1.0000643
1.0000643
1.0000643
1.0000643
1.0000643
1.0000643
1.0000643
1.0000643
1.0000643
1.0000643
1.0000643
1.0000643
1.0000643
1.0000643
1.0000643
1.0000643
1.0000644
1.0000644
1.0000644
1.0000644
1.0000644
1.0000644
1.0000644
1.0000644
1.0000644
1.0000644
1.0000644
1.0000644
1.0000644
1.0000644
1.0000644
1.0000644
1.0000644
1.0000644
1.0000644
1.0000644
1.0000644
1.0000644
1.0000644
1.0000644
1.0000644
1.0000578
1.0000578
1.0000578
1.0000578
1.0000578
1.0000578
1.0000579
1.0000579
1.0000579
1.0000579
1.0000579
1.0000579
1.0000579
1.0000579
1.0000579
1.0000579
1.0000579
1.0000579
1.0000579
1.0000579
1.0000579
1.0000579
1.0000579
1.000058
1.000058
1.000058
1.000058
1.000058
1.000058
1.000058
1.000058
1.000058
1.000058
1.000058
1.000058
1.000058
1.000058
1.000058
1.000058
1.000058
1.000058
1.000058
1.000058
1.000058
1.000058
1.000058
1.000058
1.000058
1.000058
1.000058
1.000058
1.000058
1.000058
1.000058
1.000058
1.000058
1.000058
1.000058
1.000058
1.000052
1.000052
1.000052
1.0000521
1.0000521
1.0000521
1.0000521
1.0000521
1.0000521
1.0000521
1.0000521
1.0000521
1.0000521
1.0000521
1.0000521
1.0000521
1.0000521
1.0000521
1.0000521
1.0000521
1.0000521
1.0000521
1.0000522
1.0000522
1.0000522
1.0000522
1.0000522
1.0000522
1.0000522
1.0000522
1.0000522
1.0000522
1.0000522
1.0000522
1.0000522
1.0000522
1.0000522
1.0000522
1.0000522
1.0000522
1.0000522
1.0000522
1.0000522
1.0000522
1.0000522
1.0000522
1.0000522
1.0000522
1.0000522
1.0000522
1.0000522
1.0000522
1.0000522
1.0000522
1.0000522
1.0000522
1.0000522
1.0000522
1.0000522
1.0000468
1.0000468
1.0000468
1.0000468
1.0000468
1.0000468
1.0000468
1.0000468
1.0000468
1.0000468
1.0000468
1.0000468
1.0000468
1.0000468
1.0000469
1.0000469
1.0000469
1.0000469
1.0000469
1.0000469
1.0000469
1.0000469
1.0000469
1.0000469
1.0000469
1.0000469
1.0000469
1.0000469
1.0000469
1.0000469
1.0000469
1.0000469
1.0000469
1.0000469
1.0000469
1.0000469
1.0000469
1.0000469
1.0000469
1.0000469
1.0000469
1.0000469
1.0000469
1.0000469
1.0000469
1.0000469
1.0000469
1.0000469
1.0000469
1.0000469
1.0000469
1.0000469
1.0000469
1.0000469
1.0000469
1.0000469
1.0000469
1.0000469
1.0000469
1.000042
1.000042
1.000042
1.000042
1.000042
1.000042
1.000042
1.000042
1.000042
1.000042
1.000042
1.000042
1.0000421
1.0000421
1.0000421
1.0000421
1.0000421
1.0000421
1.0000421
1.0000421
1.0000421
1.0000421
1.0000421
1.0000421
1.0000421
1.0000421
1.0000421
1.0000421
1.0000421
1.0000421
1.0000421
1.0000421
1.0000421
1.0000421
1.0000421
1.0000421
1.0000421
1.0000421
1.0000421
1.0000421
1.0000421
1.0000421
1.0000421
1.0000421
1.0000421
1.0000421
1.0000421
1.0000421
1.0000421
1.0000421
1.0000421
1.0000421
1.0000421
1.0000421
1.0000421
1.0000421
1.0000421
1.0000421
1.0000421
1.0000377
1.0000377
1.0000377
1.0000377
1.0000377
1.0000377
1.0000377
1.0000377
1.0000377
1.0000377
1.0000377
1.0000377
1.0000377
1.0000377
1.0000377
1.0000377
1.0000377
1.0000377
1.0000377
1.0000377
1.0000377
1.0000377
1.0000377
1.0000377
1.0000377
1.0000377
1.0000377
1.0000377
1.0000377
1.0000377
1.0000377
1.0000377
1.0000377
1.0000378
1.0000378
1.0000378
1.0000378
1.0000378
1.0000378
1.0000378
1.0000378
1.0000378
1.0000378
1.0000378
1.0000378
1.0000378
1.0000378
1.0000378
1.0000378
1.0000378
1.0000378
1.0000378
1.0000378
1.0000378
1.0000378
1.0000378
1.0000378
1.0000378
1.0000378
1.0000339
1.0000339
1.0000339
1.0000339
1.0000339
1.0000339
1.0000339
1.0000339
1.0000339
1.0000339
1.0000339
1.0000339
1.0000339
1.0000339
1.0000339
1.0000339
1.0000339
1.0000339
1.0000339
1.0000339
1.0000339
1.0000339
1.0000339
1.0000339
1.0000339
1.0000339
1.000034
1.000034
1.000034
1.000034
1.000034
1.000034
1.000034
1.000034
1.000034
1.000034
1.000034
1.000034
1.000034
1.000034
1.000034
1.000034
1.000034
1.000034
1.000034
1.000034
1.000034
1.000034
1.000034
1.000034
1.000034
1.000034
1.000034
1.000034
1.000034
1.000034
1.000034
1.000034
1.000034
1.0001396
1.0001555
1.0001733
1.0001928
1.000214
1.0002373
1.0002626
1.0002902
1.00032
1.0003522
1.0003869
1.0004241
1.0004638
1.0005061
1.0005507
1.0005975
1.0006462
1.0006966
1.0007481
1.0008001
1.0008518
1.0009025
1.000951
1.0009963
1.0010371
1.0010724
1.0011006
1.0011211
1.0011321
1.0011336
1.0011253
1.0011061
1.0010764
1.0010367
1.0009878
1.0009301
1.0008646
1.000793
1.0007162
1.0006355
1.0005522
1.0004668
1.0003804
1.0002941
1.0002087
1.0001249
1.0000431
0.99996344
0.9998869
0.9998137
0.99974332
0.999676
0.99961205
0.99955118
0.99949343
0.9994391
0.99938797
0.99933988
0.99929472
0.99925236
0.99921268
0.99917552
0.99914082
0.99910862
0.99907863
0.99905053
0.99902428
0.99899981
0.998977
0.99895577
0.99893604
0.99891768
0.9989006
0.99888467
1.0001396
1.0001555
1.0001733
1.0001928
1.000214
1.0002373
1.0002626
1.0002902
1.00032
1.0003522
1.0003869
1.0004241
1.0004638
1.0005061
1.0005507
1.0005975
1.0006462
1.0006966
1.0007481
1.0008001
1.0008518
1.0009025
1.000951
1.0009963
1.0010372
1.0010724
1.0011006
1.0011211
1.0011321
1.0011336
1.0011253
1.0011062
1.0010764
1.0010368
1.0009878
1.0009301
1.0008646
1.000793
1.0007162
1.0006355
1.0005521
1.0004667
1.0003804
1.0002941
1.0002087
1.0001249
1.0000431
0.99996342
0.99988685
0.99981365
0.99974329
0.99967597
0.99961205
0.9995512
0.99949343
0.9994391
0.99938795
0.99933986
0.99929469
0.99925233
0.99921265
0.99917549
0.9991408
0.99910864
0.99907867
0.99905054
0.99902427
0.99899978
0.99897696
0.99895572
0.99893599
0.99891762
0.99890056
0.99888462
1.0001396
1.0001555
1.0001733
1.0001928
1.000214
1.0002373
1.0002626
1.0002902
1.00032
1.0003522
1.0003869
1.0004241
1.0004638
1.000506
1.0005506
1.0005975
1.0006462
1.0006966
1.0007481
1.0008001
1.0008518
1.0009025
1.000951
1.0009963
1.0010372
1.0010724
1.0011006
1.0011211
1.0011321
1.0011336
1.0011254
1.0011062
1.0010765
1.0010368
1.0009878
1.0009301
1.0008647
1.000793
1.0007162
1.0006355
1.0005521
1.0004667
1.0003804
1.0002941
1.0002088
1.0001249
1.0000431
0.99996347
0.9998869
0.99981363
0.99974323
0.99967591
0.99961196
0.99955113
0.99949342
0.99943909
0.99938797
0.99933988
0.99929472
0.99925236
0.99921268
0.99917547
0.9991407
0.99910855
0.99907867
0.99905061
0.99902436
0.99899989
0.99897707
0.99895586
0.99893616
0.9989178
0.99890072
0.99888472
1.0001396
1.0001555
1.0001733
1.0001928
1.000214
1.0002373
1.0002626
1.0002902
1.00032
1.0003522
1.0003869
1.0004241
1.0004638
1.000506
1.0005506
1.0005975
1.0006462
1.0006966
1.0007481
1.0008001
1.0008518
1.0009025
1.000951
1.0009963
1.0010372
1.0010724
1.0011007
1.0011211
1.0011322
1.0011336
1.0011254
1.0011062
1.0010765
1.0010369
1.0009879
1.0009302
1.0008648
1.0007931
1.0007163
1.0006356
1.0005522
1.0004668
1.0003805
1.0002942
1.0002088
1.000125
1.0000431
0.99996358
0.99988699
0.99981366
0.99974327
0.99967596
0.99961199
0.99955118
0.99949351
0.99943917
0.99938804
0.99933993
0.99929476
0.99925241
0.99921273
0.99917558
0.99914092
0.99910873
0.99907871
0.99905056
0.99902427
0.99899978
0.99897689
0.99895562
0.99893597
0.99891767
0.99890061
0.99888469
1.0001396
1.0001555
1.0001733
1.0001928
1.000214
1.0002373
1.0002626
1.0002901
1.00032
1.0003522
1.0003869
1.0004241
1.0004638
1.000506
1.0005506
1.0005974
1.0006462
1.0006966
1.0007481
1.0008001
1.0008518
1.0009025
1.000951
1.0009963
1.0010372
1.0010724
1.0011007
1.0011212
1.0011322
1.0011337
1.0011255
1.0011063
1.0010766
1.001037
1.000988
1.0009303
1.0008649
1.0007933
1.0007164
1.0006358
1.0005523
1.0004669
1.0003806
1.0002943
1.000209
1.0001251
1.0000433
0.99996373
0.99988713
0.99981375
0.99974335
0.99967604
0.99961204
0.99955124
0.9994936
0.99943927
0.99938813
0.99934004
0.99929488
0.99925253
0.99921286
0.99917574
0.99914107
0.99910878
0.9990787
0.99905062
0.99902439
0.99899994
0.99897717
0.998956
0.99893632
0.99891797
0.99890089
0.99888499
1.0001396
1.0001555
1.0001733
1.0001928
1.000214
1.0002373
1.0002626
1.0002901
1.00032
1.0003522
1.0003869
1.0004241
1.0004638
1.000506
1.0005506
1.0005974
1.0006462
1.0006966
1.0007481
1.0008001
1.0008518
1.0009025
1.000951
1.0009963
1.0010372
1.0010724
1.0011007
1.0011212
1.0011323
1.0011338
1.0011256
1.0011064
1.0010768
1.0010371
1.0009882
1.0009305
1.0008651
1.0007935
1.0007167
1.000636
1.0005525
1.0004671
1.0003808
1.0002945
1.0002092
1.0001253
1.0000435
0.99996398
0.99988736
0.99981393
0.99974351
0.9996762
0.99961219
0.9995514
0.99949379
0.99943947
0.99938833
0.99934023
0.99929507
0.99925272
0.99921306
0.99917595
0.9991413
0.99910901
0.99907891
0.9990508
0.99902455
0.99900007
0.99897727
0.99895604
0.9989363
0.99891795
0.99890087
0.99888498
1.0001396
1.0001555
1.0001733
1.0001927
1.000214
1.0002373
1.0002626
1.0002901
1.00032
1.0003522
1.0003869
1.0004241
1.0004638
1.000506
1.0005506
1.0005974
1.0006462
1.0006966
1.000748
1.0008
1.0008518
1.0009025
1.000951
1.0009963
1.0010372
1.0010725
1.0011008
1.0011213
1.0011324
1.0011339
1.0011257
1.0011066
1.001077
1.0010374
1.0009884
1.0009308
1.0008654
1.0007938
1.000717
1.0006363
1.0005528
1.0004674
1.0003811
1.0002949
1.0002095
1.0001257
1.0000438
0.99996432
0.99988769
0.99981421
0.99974377
0.99967646
0.99961243
0.99955165
0.99949406
0.99943974
0.9993886
0.9993405
0.99929534
0.99925299
0.99921334
0.99917625
0.9991416
0.99910928
0.99907914
0.99905101
0.99902477
0.99900033
0.99897757
0.9989564
0.9989367
0.99891836
0.99890129
0.99888538
1.0001396
1.0001555
1.0001733
1.0001927
1.000214
1.0002373
1.0002626
1.0002901
1.0003199
1.0003522
1.0003869
1.000424
1.0004638
1.000506
1.0005506
1.0005974
1.0006462
1.0006965
1.000748
1.0008
1.0008518
1.0009024
1.000951
1.0009963
1.0010372
1.0010725
1.0011009
1.0011214
1.0011325
1.0011341
1.001126
1.0011069
1.0010773
1.0010377
1.0009888
1.0009312
1.0008658
1.0007943
1.0007175
1.0006368
1.0005533
1.0004679
1.0003816
1.0002954
1.00021
1.0001262
1.0000443
0.99996482
0.99988817
0.99981464
0.99974418
0.99967686
0.99961282
0.99955204
0.99949448
0.99944016
0.99938902
0.99934092
0.99929576
0.99925341
0.99921376
0.99917667
0.99914202
0.99910969
0.99907953
0.9990514
0.99902517
0.99900072
0.99897794
0.99895673
0.99893699
0.99891861
0.99890152
0.9988856
1.0001396
1.0001555
1.0001733
1.0001927
1.000214
1.0002372
1.0002626
1.0002901
1.0003199
1.0003521
1.0003868
1.000424
1.0004637
1.000506
1.0005505
1.0005974
1.0006461
1.0006965
1.000748
1.0008
1.0008518
1.0009024
1.000951
1.0009963
1.0010373
1.0010726
1.001101
1.0011216
1.0011327
1.0011343
1.0011263
1.0011072
1.0010777
1.0010382
1.0009893
1.0009317
1.0008665
1.0007949
1.0007181
1.0006375
1.000554
1.0004686
1.0003823
1.0002961
1.0002107
1.0001269
1.000045
0.99996551
0.99988885
0.99981527
0.99974479
0.99967746
0.9996134
0.99955262
0.99949507
0.99944075
0.9993896
0.9993415
0.99929633
0.99925399
0.99921434
0.99917725
0.9991426
0.99911025
0.99908007
0.99905193
0.99902569
0.99900124
0.99897847
0.99895728
0.99893756
0.9989192
0.99890212
0.99888621
1.0001396
1.0001555
1.0001732
1.0001927
1.000214
1.0002372
1.0002626
1.0002901
1.0003199
1.0003521
1.0003868
1.000424
1.0004637
1.0005059
1.0005505
1.0005973
1.0006461
1.0006965
1.0007479
1.0007999
1.0008517
1.0009024
1.000951
1.0009963
1.0010373
1.0010727
1.0011011
1.0011218
1.001133
1.0011346
1.0011267
1.0011077
1.0010782
1.0010388
1.00099
1.0009325
1.0008673
1.0007958
1.0007191
1.0006384
1.0005549
1.0004695
1.0003833
1.000297
1.0002117
1.0001278
1.000046
0.99996648
0.9998898
0.99981617
0.99974565
0.99967831
0.99961424
0.99955345
0.9994959
0.99944159
0.99939043
0.99934233
0.99929716
0.99925481
0.99921516
0.99917806
0.99914341
0.99911105
0.99908086
0.9990527
0.99902645
0.999002
0.99897922
0.99895801
0.99893826
0.99891988
0.99890277
0.99888684
1.0001396
1.0001555
1.0001732
1.0001927
1.000214
1.0002372
1.0002625
1.0002901
1.0003199
1.0003521
1.0003868
1.000424
1.0004637
1.0005059
1.0005505
1.0005973
1.000646
1.0006964
1.0007479
1.0007999
1.0008517
1.0009024
1.000951
1.0009964
1.0010374
1.0010728
1.0011013
1.001122
1.0011333
1.001135
1.0011272
1.0011084
1.001079
1.0010396
1.0009909
1.0009335
1.0008684
1.0007969
1.0007203
1.0006397
1.0005562
1.0004708
1.0003846
1.0002984
1.000213
1.0001292
1.0000473
0.9999678
0.9998911
0.99981742
0.99974687
0.99967951
0.99961542
0.99955461
0.99949707
0.99944275
0.99939158
0.99934346
0.99929829
0.99925593
0.99921626
0.99917916
0.99914449
0.99911212
0.99908191
0.99905374
0.99902748
0.99900302
0.99898024
0.99895902
0.99893928
0.9989209
0.99890379
0.99888786
1.0001396
1.0001555
1.0001732
1.0001927
1.000214
1.0002372
1.0002625
1.00029
1.0003199
1.0003521
1.0003867
1.0004239
1.0004636
1.0005058
1.0005504
1.0005972
1.000646
1.0006963
1.0007478
1.0007998
1.0008516
1.0009023
1.0009509
1.0009964
1.0010374
1.0010729
1.0011015
1.0011223
1.0011337
1.0011356
1.0011279
1.0011092
1.00108
1.0010408
1.0009922
1.0009349
1.0008699
1.0007985
1.000722
1.0006414
1.0005579
1.0004726
1.0003864
1.0003002
1.0002149
1.000131
1.0000491
0.99996959
0.99989286
0.99981914
0.99974855
0.99968116
0.99961704
0.99955622
0.99949867
0.99944433
0.99939315
0.99934502
0.99929983
0.99925746
0.99921779
0.99918067
0.99914599
0.9991136
0.99908338
0.99905519
0.99902892
0.99900444
0.99898164
0.99896041
0.99894064
0.99892224
0.99890512
0.99888917
1.0001396
1.0001554
1.0001732
1.0001927
1.0002139
1.0002372
1.0002625
1.00029
1.0003198
1.000352
1.0003867
1.0004239
1.0004636
1.0005058
1.0005503
1.0005971
1.0006459
1.0006962
1.0007477
1.0007997
1.0008516
1.0009023
1.0009509
1.0009964
1.0010375
1.0010731
1.0011017
1.0011228
1.0011342
1.0011363
1.0011288
1.0011103
1.0010813
1.0010422
1.0009938
1.0009367
1.0008719
1.0008007
1.0007242
1.0006437
1.0005603
1.000475
1.0003888
1.0003026
1.0002173
1.0001334
1.0000515
0.999972
0.99989524
0.99982147
0.99975083
0.99968341
0.99961926
0.99955841
0.99950084
0.99944648
0.99939528
0.99934712
0.99930191
0.99925952
0.99921982
0.99918268
0.99914797
0.99911556
0.99908532
0.99905711
0.99903082
0.99900632
0.99898351
0.99896226
0.99894248
0.99892407
0.99890694
0.99889098
1.0001396
1.0001554
1.0001732
1.0001927
1.0002139
1.0002372
1.0002625
1.00029
1.0003198
1.000352
1.0003866
1.0004238
1.0004635
1.0005057
1.0005502
1.000597
1.0006458
1.0006961
1.0007476
1.0007996
1.0008515
1.0009022
1.0009509
1.0009964
1.0010376
1.0010733
1.0011021
1.0011233
1.0011349
1.0011372
1.00113
1.0011117
1.0010829
1.0010442
1.000996
1.0009391
1.0008745
1.0008034
1.0007271
1.0006467
1.0005634
1.0004782
1.000392
1.0003059
1.0002206
1.0001367
1.0000547
0.9999752
0.9998984
0.99982458
0.99975389
0.99968642
0.99962224
0.99956135
0.99950374
0.99944936
0.99939812
0.99934994
0.9993047
0.99926227
0.99922255
0.99918538
0.99915065
0.99911821
0.99908794
0.99905971
0.99903339
0.99900887
0.99898603
0.99896477
0.99894497
0.99892654
0.99890938
0.99889341
1.0001396
1.0001554
1.0001732
1.0001926
1.0002139
1.0002371
1.0002624
1.0002899
1.0003197
1.0003519
1.0003866
1.0004237
1.0004634
1.0005056
1.0005501
1.0005969
1.0006457
1.000696
1.0007475
1.0007995
1.0008513
1.0009021
1.0009509
1.0009965
1.0010378
1.0010736
1.0011025
1.0011239
1.0011358
1.0011384
1.0011315
1.0011135
1.0010851
1.0010467
1.0009988
1.0009422
1.0008779
1.0008071
1.0007309
1.0006507
1.0005675
1.0004823
1.0003963
1.0003102
1.0002248
1.0001409
1.000059
0.99997943
0.99990259
0.99982871
0.99975796
0.99969044
0.9996262
0.99956527
0.99950761
0.99945318
0.9994019
0.99935367
0.99930838
0.99926592
0.99922615
0.99918894
0.99915417
0.99912169
0.99909138
0.99906312
0.99903677
0.99901223
0.99898936
0.99896807
0.99894825
0.99892979
0.99891262
0.99889662
1.0001395
1.0001554
1.0001732
1.0001926
1.0002139
1.0002371
1.0002624
1.0002899
1.0003197
1.0003519
1.0003865
1.0004237
1.0004633
1.0005055
1.00055
1.0005968
1.0006455
1.0006958
1.0007473
1.0007994
1.0008512
1.000902
1.0009508
1.0009965
1.0010379
1.0010739
1.0011031
1.0011247
1.0011369
1.0011399
1.0011334
1.0011158
1.0010878
1.0010499
1.0010024
1.0009462
1.0008823
1.0008118
1.0007359
1.0006559
1.0005728
1.0004878
1.0004018
1.0003158
1.0002305
1.0001465
1.0000646
0.99998497
0.99990807
0.99983413
0.9997633
0.99969571
0.99963141
0.99957041
0.99951269
0.9994582
0.99940685
0.99935857
0.99931322
0.9992707
0.99923088
0.99919362
0.9991588
0.99912628
0.99909593
0.99906763
0.99904124
0.99901666
0.99899376
0.99897243
0.99895258
0.9989341
0.9989169
0.99890088
1.0001395
1.0001554
1.0001731
1.0001926
1.0002138
1.0002371
1.0002624
1.0002898
1.0003196
1.0003518
1.0003864
1.0004236
1.0004632
1.0005054
1.0005499
1.0005966
1.0006453
1.0006957
1.0007471
1.0007992
1.000851
1.0009019
1.0009508
1.0009965
1.0010381
1.0010743
1.0011038
1.0011257
1.0011384
1.0011418
1.0011358
1.0011188
1.0010914
1.0010539
1.001007
1.0009513
1.0008879
1.0008178
1.0007423
1.0006625
1.0005797
1.0004948
1.0004089
1.000323
1.0002377
1.0001538
1.0000718
0.99999216
0.9999152
0.99984117
0.99977027
0.99970259
0.9996382
0.99957711
0.99951931
0.99946473
0.99941331
0.99936495
0.99931953
0.99927693
0.99923704
0.99919972
0.99916483
0.99913225
0.99910184
0.99907348
0.99904704
0.99902241
0.99899946