/*--------------------------------*- C++ -*----------------------------------*\
| =========                 |                                                 |
| \\      /  F ield         | OpenFOAM: The Open Source CFD Toolbox           |
|  \\    /   O peration     | Version:  v2006                                 |
|   \\  /    A nd           | Website:  www.openfoam.com                      |
|    \\/     M anipulation  |                                                 |
\*---------------------------------------------------------------------------*/
FoamFile
{
    version     2.0;
    format      ascii;
    class       surfaceScalarField;
    location    "2000";
    object      phi;
}
// * * * * * * * * * * * * * * * * * * * * * * * * * * * * * * * * * * * * * //

dimensions      [1 0 -1 0 0 0 0];
oriented        oriented;


internalField   nonuniform List<scalar> 
110670
(
1.7254195e-05
-0.00037603363
0.00035877947
3.0324786e-05
-0.00035385167
0.00034078109
4.0152295e-05
-0.00033461274
0.00032478527
4.7432064e-05
-0.00031764918
0.0003103694
5.2689852e-05
-0.00030257388
0.00029731613
5.6328233e-05
-0.00028910434
0.00028546595
5.8659135e-05
-0.00027702156
0.00027469069
5.9926849e-05
-0.00026614885
0.00026488111
6.0324692e-05
-0.0002563414
0.00025594359
6.0006806e-05
-0.00024747797
0.00024779583
5.9097227e-05
-0.00023945804
0.00024036765
5.7696194e-05
-0.00023219308
0.00023359409
5.5885581e-05
-0.00022561055
0.0002274212
5.373237e-05
-0.00021964723
0.00022180041
5.129218e-05
-0.00021424871
0.00021668894
4.8610765e-05
-0.00020936838
0.00021204975
4.5726489e-05
-0.00020496498
0.00020784929
4.2671222e-05
-0.0002010031
0.00020405832
3.9472232e-05
-0.00019745236
0.00020065138
3.6152421e-05
-0.00019428685
0.00019760662
3.2731603e-05
-0.00019148418
0.00019490503
2.9226389e-05
-0.00018902464
0.00019252981
2.5651394e-05
-0.00018689125
0.00019046628
2.2019007e-05
-0.00018506944
0.00018870178
1.8340489e-05
-0.00018354718
0.00018722574
1.4625558e-05
-0.00018231456
0.00018602945
1.088338e-05
-0.00018136379
0.00018510601
7.1220504e-06
-0.00018068884
0.00018445012
3.3495607e-06
-0.00018028553
0.00018405806
-4.2677883e-07
-0.00018015131
0.0001839276
-4.1993362e-06
-0.00018028535
0.00018405796
-7.960784e-06
-0.00018068844
0.00018444983
-1.1703105e-05
-0.00018136304
0.00018510541
-1.5418243e-05
-0.00018231332
0.0001860284
-1.9097047e-05
-0.00018354535
0.0001872242
-2.2729877e-05
-0.00018506718
0.00018869995
-2.6305441e-05
-0.00018688899
0.00019046461
-2.9811318e-05
-0.00018902297
0.00019252879
-3.3232728e-05
-0.00019148337
0.00019490483
-3.6553058e-05
-0.00019428659
0.00019760686
-3.9752551e-05
-0.00019745188
0.00020065142
-4.2808578e-05
-0.00020100177
0.00020405774
-4.5693965e-05
-0.00020496287
0.00020784831
-4.8376847e-05
-0.00020936622
0.00021204904
-5.081859e-05
-0.0002142473
0.00021668909
-5.2973339e-05
-0.00021964688
0.00022180157
-5.478543e-05
-0.00022561107
0.0002274232
-5.6188011e-05
-0.00023219418
0.00023359671
-5.7099163e-05
-0.00023945938
0.00024037057
-5.7418722e-05
-0.00024747893
0.00024779843
-5.7022738e-05
-0.00025634115
0.00025594521
-5.5757391e-05
-0.00026614708
0.00026488168
-5.3429423e-05
-0.00027701895
0.00027469102
-4.9794735e-05
-0.00028910233
0.00028546759
-4.4541177e-05
-0.00030257443
0.00029732091
-3.7265578e-05
-0.00031765319
0.00031037753
-2.7439338e-05
-0.00033461185
0.00032478565
-1.4360328e-05
-0.0003537941
0.00034071504
-0.00037564581
0.00035836506
2.9204625e-06
1.7291994e-05
-0.00039332566
3.0391158e-05
-0.00036695086
4.0237438e-05
-0.00034445905
4.7529069e-05
-0.00032494083
5.2793143e-05
-0.00030783798
5.643344e-05
-0.00029274465
5.8762818e-05
-0.00027935096
6.0026377e-05
-0.00026741242
6.0417855e-05
-0.00025673289
6.0091993e-05
-0.00024715212
5.9172961e-05
-0.00023853902
5.7761379e-05
-0.00023078151
5.593914e-05
-0.00022378832
5.3773629e-05
-0.00021748173
5.1320427e-05
-0.00021179552
4.8625505e-05
-0.00020667346
4.572716e-05
-0.00020206664
4.2657514e-05
-0.00019793346
3.9443771e-05
-0.00019423862
3.6109044e-05
-0.00019095213
3.2673041e-05
-0.00018804818
2.9152557e-05
-0.00018550417
2.5562065e-05
-0.00018330076
2.1914137e-05
-0.00018142153
1.821991e-05
-0.00017985295
1.4489292e-05
-0.00017858396
1.0731317e-05
-0.00017760581
6.9542622e-06
-0.0001769118
3.1659863e-06
-0.00017649725
-6.2603484e-07
-0.00017635931
-4.4143185e-06
-0.00017649706
-8.1913947e-06
-0.00017691139
-1.194939e-05
-0.00017760504
-1.568008e-05
-0.00017858265
-1.9374427e-05
-0.00017985099
-2.3022622e-05
-0.00018141901
-2.6613502e-05
-0.0001832981
-3.0134491e-05
-0.00018550201
-3.3570904e-05
-0.00018804694
-3.6905933e-05
-0.00019095159
-4.0119883e-05
-0.00019423791
-4.3189951e-05
-0.00019793174
-4.6089011e-05
-0.00020206379
-4.8785026e-05
-0.00020667024
-5.1239353e-05
-0.00021179295
-5.340588e-05
-0.00021748038
-5.5228893e-05
-0.00022378803
-5.6641342e-05
-0.00023078177
-5.756122e-05
-0.00023853947
-5.7888021e-05
-0.00024715216
-5.7497495e-05
-0.00025673165
-5.6235317e-05
-0.0002674093
-5.3907764e-05
-0.00027934647
-5.0269928e-05
-0.0002927402
-4.5008842e-05
-0.00030783548
-3.7720235e-05
-0.00032494184
-2.7874072e-05
-0.00034445797
-1.4766062e-05
-0.00036690216
-0.0003929671
2.5552677e-06
1.7332738e-05
-0.0004106584
3.0460472e-05
-0.0003800786
4.0326234e-05
-0.00035432482
4.7630362e-05
-0.00033224496
5.2901383e-05
-0.000313109
5.6544294e-05
-0.00029638757
5.8872941e-05
-0.0002816796
6.0133088e-05
-0.00026867257
6.0519068e-05
-0.00025711887
6.0185981e-05
-0.00024681904
5.9258364e-05
-0.0002376114
5.783694e-05
-0.0002293601
5.600394e-05
-0.00022195532
5.3826941e-05
-0.00021530474
5.1361687e-05
-0.00020933026
4.8654153e-05
-0.00020396594
4.5742694e-05
-0.00019915518
4.2659481e-05
-0.00019485026
3.9431856e-05
-0.00019101099
3.6083002e-05
-0.00018760329
3.263271e-05
-0.00018459788
2.9097763e-05
-0.00018196924
2.5492688e-05
-0.00017969567
2.1830041e-05
-0.0001777589
1.8121007e-05
-0.00017614391
1.4375473e-05
-0.00017483845
1.060252e-05
-0.00017383285
6.810419e-06
-0.00017311972
3.007091e-06
-0.0001726939
-7.9996584e-07
-0.00017255228
-4.603217e-06
-0.0001726938
-8.3952066e-06
-0.00017311942
-1.2168034e-05
-0.0001738322
-1.591348e-05
-0.00017483723
-1.9622483e-05
-0.00017614197
-2.3285249e-05
-0.00017775627
-2.6890574e-05
-0.00017969276
-3.0425864e-05
-0.00018196675
-3.3876391e-05
-0.00018459639
-3.7225319e-05
-0.00018760269
-4.0452868e-05
-0.00019101033
-4.3536158e-05
-0.00019484848
-4.6448e-05
-0.00019915193
-4.9156327e-05
-0.00020396194
-5.1622441e-05
-0.00020932681
-5.3800087e-05
-0.00021530277
-5.5633375e-05
-0.00022195471
-5.7055082e-05
-0.00022936009
-5.7983043e-05
-0.00023761148
-5.831648e-05
-0.00024681876
-5.7930804e-05
-0.00025711729
-5.6671222e-05
-0.00026866892
-5.4343533e-05
-0.00028167413
-5.0702117e-05
-0.00029638165
-4.5433125e-05
-0.00031310445
-3.8131272e-05
-0.00033224373
-2.8265136e-05
-0.00035432408
-1.5128343e-05
-0.00038003899
-0.00041032848
2.2330715e-06
1.7373145e-05
-0.00042803154
3.0530855e-05
-0.00039323632
4.0416831e-05
-0.00036421079
4.773397e-05
-0.0003395621
5.3012559e-05
-0.00031838759
5.6658794e-05
-0.00030003381
5.8987493e-05
-0.0002840083
6.0244986e-05
-0.00026993007
6.0626177e-05
-0.00025750006
6.0286585e-05
-0.00024647945
5.9350973e-05
-0.00023667578
5.7920305e-05
-0.00022792944
5.6077083e-05
-0.00022011209
5.3889173e-05
-0.00021311684
5.1412456e-05
-0.00020685354
4.8692981e-05
-0.00020124648
4.5769154e-05
-0.00019623134
4.2673187e-05
-0.00019175431
3.9432504e-05
-0.0001877703
3.607035e-05
-0.00018424115
3.2606545e-05
-0.00018113406
2.90579e-05
-0.00017842061
2.5438981e-05
-0.00017607675
2.1762391e-05
-0.00017408233
1.8039331e-05
-0.00017242084
1.4279703e-05
-0.00017107884
1.0492597e-05
-0.00017004573
6.6862723e-06
-0.00016931342
2.8686517e-06
-0.00016887627
-9.5274155e-07
-0.00016873091
-4.7703346e-06
-0.00016887619
-8.5766111e-06
-0.00016931317
-1.2363631e-05
-0.00017004516
-1.6123143e-05
-0.00017107775
-1.9846084e-05
-0.00017241901
-2.3522642e-05
-0.00017407974
-2.7141632e-05
-0.00017607375
-3.0690463e-05
-0.00017841794
-3.4154416e-05
-0.00018113242
-3.7516607e-05
-0.00018424053
-4.075718e-05
-0.00018776974
-4.3853154e-05
-0.00019175253
-4.6777267e-05
-0.00019622779
-4.9497388e-05
-0.00020124185
-5.1974789e-05
-0.00020684939
-5.4163065e-05
-0.00021311453
-5.6006117e-05
-0.00022011164
-5.7436498e-05
-0.00022792974
-5.8371875e-05
-0.00023667608
-5.8711229e-05
-0.00024647944
-5.8329677e-05
-0.00025749882
-5.7071975e-05
-0.00026992665
-5.4743452e-05
-0.00028400263
-5.1097866e-05
-0.00030002727
-4.5820368e-05
-0.00031838192
-3.8504804e-05
-0.00033955932
-2.8618275e-05
-0.00036421058
-1.5452458e-05
-0.00039320485
-0.0004277301
1.949194e-06
1.7413671e-05
-0.0004454451
3.0600679e-05
-0.00040642325
4.0507345e-05
-0.00037411735
4.7838009e-05
-0.00034689272
5.312482e-05
-0.00032367431
5.6775053e-05
-0.00030368402
5.9104594e-05
-0.00028633777
6.0360258e-05
-0.00027118573
6.0737592e-05
-0.00025787733
6.0392386e-05
-0.00024613426
5.9449737e-05
-0.00023573308
5.801063e-05
-0.00022649034
5.6158051e-05
-0.00021825947
5.3959976e-05
-0.00021091879
5.1472437e-05
-0.00020436596
4.8741478e-05
-0.00019851555
4.5805743e-05
-0.00019329557
4.2697458e-05
-0.00018864605
3.9444214e-05
-0.00018451702
3.606924e-05
-0.00018086621
3.2592466e-05
-0.00017765726
2.9030637e-05
-0.00017485881
2.5398414e-05
-0.00017244449
2.1708359e-05
-0.00017039231
1.797179e-05
-0.00016868424
1.4198588e-05
-0.00016730567
1.0397907e-05
-0.00016624502
6.5779692e-06
-0.00016549351
2.7467359e-06
-0.00016504501
-1.0883421e-06
-0.00016489587
-4.9196439e-06
-0.00016504486
-8.7396692e-06
-0.00016549318
-1.2540401e-05
-0.00016624441
-1.6313564e-05
-0.00016730462
-2.0050005e-05
-0.00016868255
-2.3739912e-05
-0.00017038987
-2.7372112e-05
-0.00017244153
-3.0934076e-05
-0.00017485601
-3.4411041e-05
-0.00017765544
-3.7786025e-05
-0.00018086558
-4.1039083e-05
-0.00018451667
-4.4147158e-05
-0.00018864449
-4.7082902e-05
-0.00019329203
-4.9814113e-05
-0.00019851067
-5.2302077e-05
-0.00020436141
-5.4500315e-05
-0.00021091632
-5.635254e-05
-0.0002182594
-5.7791064e-05
-0.00022649125
-5.8733356e-05
-0.00023573378
-5.9078139e-05
-0.00024613469
-5.8700269e-05
-0.00025787668
-5.7444051e-05
-0.0002711829
-5.511438e-05
-0.00028633229
-5.1464353e-05
-0.00030367733
-4.6178113e-05
-0.00032366815
-3.8848587e-05
-0.00034688888
-2.8941505e-05
-0.00037411765
-1.5746578e-05
-0.0004063998
-0.00044517198
1.6953194e-06
1.7453691e-05
-0.00046289892
3.0669163e-05
-0.00041963882
4.0596312e-05
-0.00038404462
4.7940593e-05
-0.00035423707
5.3235708e-05
-0.00032896953
5.6890286e-05
-0.00030733865
5.9220918e-05
-0.00028866849
6.0475121e-05
-0.00027243997
6.0848885e-05
-0.00025825117
6.0498574e-05
-0.00024578397
5.9549273e-05
-0.00023478384
5.8102279e-05
-0.00022504337
5.6240844e-05
-0.00021639809
5.4033234e-05
-0.00020871119
5.153528e-05
-0.00020186806
4.87933e-05
-0.00019577357
4.5845843e-05
-0.00019034816
4.2725501e-05
-0.00018552572
3.9459875e-05
-0.00018125143
3.6072489e-05
-0.00017747883
3.2583078e-05
-0.00017416788
2.9008533e-05
-0.00017128428
2.5363348e-05
-0.00016879934
2.166029e-05
-0.00016668926
1.7910553e-05
-0.00016493453
1.4124201e-05
-0.00016351933
1.0310274e-05
-0.00016243112
6.477166e-06
-0.00016166042
2.6327136e-06
-0.00016120059
-1.2154911e-06
-0.00016104768
-5.0599757e-06
-0.0001612004
-8.8931344e-06
-0.00016166004
-1.2707071e-05
-0.00016243049
-1.6493378e-05
-0.00016351833
-2.024296e-05
-0.00016493298
-2.3945854e-05
-0.00016668699
-2.7590929e-05
-0.00016879646
-3.1165548e-05
-0.00017128141
-3.4655001e-05
-0.00017416599
-3.8042164e-05
-0.00017747844
-4.1307099e-05
-0.00018125174
-4.4426613e-05
-0.000185525
-4.7373329e-05
-0.00019034532
-5.011493e-05
-0.00019576909
-5.2612811e-05
-0.00020186352
-5.4820537e-05
-0.00020870862
-5.6681618e-05
-0.00021639831
-5.8128125e-05
-0.00022504477
-5.9077193e-05
-0.0002347847
-5.9427212e-05
-0.00024578469
-5.905276e-05
-0.00025825112
-5.7797715e-05
-0.00027243797
-5.5466526e-05
-0.00028866346
-5.1811783e-05
-0.0003073321
-4.6516495e-05
-0.00032896342
-3.917276e-05
-0.00035423265
-2.9244956e-05
-0.00038404543
-1.6020894e-05
-0.0004196239
-0.00046265403
1.4611933e-06
1.7494618e-05
-0.00048039355
3.0740283e-05
-0.00043288449
4.0688702e-05
-0.00039399305
4.8047151e-05
-0.00036159553
5.335126e-05
-0.00033427365
5.701071e-05
-0.00031099811
5.9342997e-05
-0.00029100078
6.0596113e-05
-0.00027369309
6.0966854e-05
-0.00025862192
6.061177e-05
-0.00024542889
5.9656211e-05
-0.0002338283
5.8201513e-05
-0.00022358868
5.6331704e-05
-0.00021452829
5.4114899e-05
-0.0002064944
5.160703e-05
-0.0001993602
4.8854489e-05
-0.00019302105
4.5895918e-05
-0.0001873896
4.2763993e-05
-0.00018239381
3.9486609e-05
-0.00017797406
3.6087323e-05
-0.00017407956
3.2585878e-05
-0.00017066645
2.8999081e-05
-0.0001676975
2.5341492e-05
-0.00016514176
2.1625853e-05
-0.00016297364
1.7863433e-05
-0.00016117213
1.4064283e-05
-0.0001597202
1.0237528e-05
-0.00015860438
6.391543e-06
-0.00015781445
2.5342368e-06
-0.00015734329
-1.3268099e-06
-0.00015718665
-5.1840708e-06
-0.00015734315
-9.0299677e-06
-0.00015781416
-1.2856577e-05
-0.00015860388
-1.6655531e-05
-0.00015971939
-2.041769e-05
-0.00016117082
-2.4133064e-05
-0.00016297164
-2.779046e-05
-0.00016513907
-3.1377259e-05
-0.00016769464
-3.4878759e-05
-0.00017066449
-3.8277789e-05
-0.00017407943
-4.1554313e-05
-0.00017797521
-4.4685061e-05
-0.00018239427
-4.7642588e-05
-0.00018738779
-5.0394467e-05
-0.00019301724
-5.2902079e-05
-0.00019935591
-5.5119164e-05
-0.00020649155
-5.6988894e-05
-0.00021452858
-5.8443201e-05
-0.00022359049
-5.9398831e-05
-0.00023382906
-5.9753775e-05
-0.00024542978
-5.9382409e-05
-0.00025862248
-5.8128208e-05
-0.0002736922
-5.5795189e-05
-0.00029099647
-5.2135552e-05
-0.00031099177
-4.6831127e-05
-0.00033426782
-3.9473094e-05
-0.00036159071
-2.9524689e-05
-0.00039399381
-1.6271603e-05
-0.00043287702
-0.00048017593
1.250324e-06
1.7535793e-05
-0.00049792934
3.0810597e-05
-0.0004461593
4.0780891e-05
-0.00040396335
4.8153791e-05
-0.00036896843
5.3467189e-05
-0.00033958705
5.7131929e-05
-0.00031466285
5.9466089e-05
-0.00029333495
6.0718383e-05
-0.00027494539
6.1086433e-05
-0.00025898998
6.0726835e-05
-0.0002450693
5.976516e-05
-0.00023286663
5.8302855e-05
-0.00022212638
5.6424959e-05
-0.0002126504
5.4199223e-05
-0.00020426867
5.1681652e-05
-0.00019684263
4.8918852e-05
-0.00019025825
4.5949378e-05
-0.00018442013
4.2806192e-05
-0.00017925063
3.9517372e-05
-0.00017468525
3.6106526e-05
-0.00017066872
3.2593302e-05
-0.00016715323
2.899451e-05
-0.00016409871
2.5324762e-05
-0.00016147202
2.1596827e-05
-0.00015924571
1.7821997e-05
-0.0001573973
1.401033e-05
-0.00015590854
1.0170974e-05
-0.00015476502
6.3123334e-06
-0.00015395582
2.4423469e-06
-0.00015347331
-1.431373e-06
-0.00015331294
-5.3012801e-06
-0.00015347324
-9.1597739e-06
-0.00015395568
-1.2998917e-05
-0.00015476474
-1.681032e-05
-0.00015590801
-2.0584826e-05
-0.00015739632
-2.431243e-05
-0.00015924405
-2.7981927e-05
-0.00016146957
-3.1580719e-05
-0.00016409586
-3.5094151e-05
-0.00016715106
-3.8504954e-05
-0.00017066864
-4.1793022e-05
-0.00017468714
-4.4934928e-05
-0.00017925238
-4.7903245e-05
-0.00018441947
-5.0665385e-05
-0.00019025512
-5.3182564e-05
-0.00019683872
-5.5408838e-05
-0.0002042653
-5.7286799e-05
-0.00021265061
-5.8748439e-05
-0.00022212887
-5.9710187e-05
-0.00023286731
-6.006963e-05
-0.00024507035
-5.9700915e-05
-0.00025899118
-5.8447092e-05
-0.00027494605
-5.6111642e-05
-0.00029333191
-5.2446495e-05
-0.00031465694
-4.7132394e-05
-0.00033958191
-3.9759165e-05
-0.00036896397
-2.9789338e-05
-0.00040396362
-1.6506037e-05
-0.00044616035
-0.00049773905
1.0571044e-06
1.7573664e-05
-0.00051550301
3.0878055e-05
-0.00045946371
4.0870409e-05
-0.0004139557
4.8257183e-05
-0.00037635523
5.357975e-05
-0.00034490961
5.7250257e-05
-0.00031833338
5.958615e-05
-0.00029567084
6.0837804e-05
-0.00027619707
6.1203741e-05
-0.00025935591
6.0840074e-05
-0.00024470566
5.9872559e-05
-0.00023189911
5.8403039e-05
-0.00022065688
5.6517511e-05
-0.00021076487
5.4283284e-05
-0.00020203446
5.1756438e-05
-0.00019431579
4.898367e-05
-0.00018748551
4.6003453e-05
-0.00018143991
4.2849272e-05
-0.00017609647
3.9549316e-05
-0.00017138529
3.6127111e-05
-0.00016724654
3.2602281e-05
-0.0001636284
2.8991652e-05
-0.0001604881
2.5309921e-05
-0.00015779029
2.1569883e-05
-0.00015550569
1.7782881e-05
-0.0001536103
1.395897e-05
-0.00015208465
1.0107299e-05
-0.00015091336
6.2362738e-06
-0.00015008482
2.353858e-06
-0.0001495909
-1.5323235e-06
-0.00014942678
-5.4147029e-06
-0.00014959087
-9.2856514e-06
-0.00015008475
-1.3137217e-05
-0.00015091319
-1.6960965e-05
-0.00015208427
-2.0747742e-05
-0.00015360955
-2.4487487e-05
-0.00015550432
-2.8168995e-05
-0.00015778807
-3.1779637e-05
-0.00016048523
-3.5304831e-05
-0.00016362588
-3.8727207e-05
-0.00016724628
-4.2026701e-05
-0.00017138766
-4.5179549e-05
-0.00017609954
-4.8158473e-05
-0.00018144056
-5.0930776e-05
-0.00018748282
-5.3457535e-05
-0.00019431198
-5.5692972e-05
-0.00020202987
-5.7578976e-05
-0.00021076462
-5.9047567e-05
-0.00022066028
-6.0015118e-05
-0.00023189977
-6.0378915e-05
-0.00024470656
-6.0012736e-05
-0.00025935738
-5.8759155e-05
-0.00027619963
-5.6421124e-05
-0.00029566995
-5.2750251e-05
-0.00031832781
-4.7427026e-05
-0.00034490514
-4.0038383e-05
-0.00037635261
-3.0047757e-05
-0.00041395425
-1.6734228e-05
-0.00045947389
-0.00051534345
8.7017412e-07
1.7610362e-05
-0.00053311338
3.0942102e-05
-0.00047279544
4.0955711e-05
-0.00042396933
4.8353541e-05
-0.00038375305
5.3683629e-05
-0.00035023972
5.7361108e-05
-0.00032201085
5.9697808e-05
-0.00029800756
6.0949359e-05
-0.00027744861
6.1314913e-05
-0.00025972149
6.0949012e-05
-0.00024433974
5.9976878e-05
-0.000230927
5.8502342e-05
-0.00021918234
5.6610261e-05
-0.00020887281
5.4369677e-05
-0.00019979386
5.1835592e-05
-0.00019178172
4.9054433e-05
-0.00018470434
4.6065371e-05
-0.00017845087
4.2902553e-05
-0.00017293364
3.9593654e-05
-0.00016807642
3.6162016e-05
-0.00016381489
3.262755e-05
-0.00016009396
2.9007139e-05
-0.00015686768
2.531539e-05
-0.00015409857
2.1565247e-05
-0.00015175554
1.7767973e-05
-0.00014981305
1.3933747e-05
-0.00014825041
1.0071637e-05
-0.00014705128
6.1901388e-06
-0.00014620331
2.2971167e-06
-0.0001456979
-1.5996887e-06
-0.00014552996
-5.4927431e-06
-0.00014569784
-9.3742788e-06
-0.0001462032
-1.3236415e-05
-0.00014705108
-1.7070622e-05
-0.00014825005
-2.0867806e-05
-0.00014981239
-2.4617808e-05
-0.0001517543
-2.8309491e-05
-0.00015409642
-3.1930161e-05
-0.00015686455
-3.5465095e-05
-0.00016009097
-3.889705e-05
-0.00016381431
-4.220612e-05
-0.00016807862
-4.5368145e-05
-0.00017293751
-4.8355641e-05
-0.00017845309
-5.1136146e-05
-0.0001847023
-5.3671498e-05
-0.00019177665
-5.5914307e-05
-0.00019978705
-5.7806923e-05
-0.00020887203
-5.9280579e-05
-0.00021918661
-6.0252084e-05
-0.00023092829
-6.0619143e-05
-0.00024433949
-6.025436e-05
-0.00025972218
-5.8999997e-05
-0.00027745398
-5.6658906e-05
-0.00029801106
-5.2981725e-05
-0.00032200499
-4.7652208e-05
-0.00035023468
-4.0248992e-05
-0.00038375582
-3.0242172e-05
-0.00042396108
-1.6901884e-05
-0.00047281418
-0.00053298421
7.3887856e-07
1.7652952e-05
-0.00055076634
3.1004201e-05
-0.00048614669
4.1044506e-05
-0.00043400964
4.8449038e-05
-0.00039115759
5.378596e-05
-0.00035557665
5.7473505e-05
-0.0003256984
5.9805136e-05
-0.0003003392
6.105432e-05
-0.00027869779
6.1420564e-05
-0.00026008774
6.105348e-05
-0.00024397266
6.0075947e-05
-0.00022994948
5.8597736e-05
-0.00021770413
5.6695803e-05
-0.00020697089
5.4449172e-05
-0.00019754723
5.1908257e-05
-0.00018924082
4.9117359e-05
-0.00018191344
4.6119828e-05
-0.00017545336
4.2949122e-05
-0.00016976293
3.9631845e-05
-0.00016475915
3.6190023e-05
-0.00016037307
3.2645976e-05
-0.00015654993
2.9016002e-05
-0.00015323771
2.5314617e-05
-0.0001503972
2.1554744e-05
-0.00014799567
1.7747692e-05
-0.00014600602
1.3903608e-05
-0.00014440633
1.0031632e-05
-0.00014317931
6.1402417e-06
-0.00014231192
2.2373693e-06
-0.00014179504
-1.6692658e-06
-0.00014162333
-5.5720799e-06
-0.00014179504
-9.4633954e-06
-0.00014231189
-1.3335256e-05
-0.00014317923
-1.7179191e-05
-0.00014440612
-2.0986064e-05
-0.00014600553
-2.4745805e-05
-0.00014799457
-2.8447247e-05
-0.00015039499
-3.2077876e-05
-0.00015323393
-3.5621443e-05
-0.00015654741
-3.9062337e-05
-0.00016037343
-4.2379924e-05
-0.00016476103
-4.5551315e-05
-0.00016976613
-4.8546065e-05
-0.00017545834
-5.1333321e-05
-0.00018191506
-5.3877969e-05
-0.00018923201
-5.6125974e-05
-0.00019753906
-5.8024892e-05
-0.00020697312
-5.9501636e-05
-0.00021770988
-6.047445e-05
-0.00022995548
-6.0844037e-05
-0.00024396992
-6.0478288e-05
-0.00026008793
-5.9219585e-05
-0.0002787127
-5.6872266e-05
-0.00030035838
-5.3183444e-05
-0.00032569382
-4.7850453e-05
-0.00035556767
-4.0425745e-05
-0.00039118055
-3.040533e-05
-0.00043398149
-1.7028152e-05
-0.00048619137
-0.00055067319
6.6083504e-07
1.7714898e-05
-0.00056848125
3.1124764e-05
-0.00049955657
4.1202401e-05
-0.00044408728
4.8634912e-05
-0.00039859011
5.4001884e-05
-0.00036094363
5.769454e-05
-0.00032939106
6.0030026e-05
-0.0003026747
6.1291666e-05
-0.00027995944
6.1646216e-05
-0.0002604423
6.1269458e-05
-0.00024359591
6.0276835e-05
-0.00022895687
5.8779889e-05
-0.00021620719
5.6870182e-05
-0.0002050612
5.4606283e-05
-0.00019528334
5.2044073e-05
-0.00018667863
4.9231298e-05
-0.00017910067
4.6214014e-05
-0.00017243609
4.3019939e-05
-0.00016656886
3.9678315e-05
-0.00016141755
3.6215445e-05
-0.0001569102
3.2647871e-05
-0.00015298238
2.8993544e-05
-0.00014958339
2.5267617e-05
-0.0001466713
2.148316e-05
-0.00014421121
1.7651565e-05
-0.00014217445
1.3783071e-05
-0.00014053784
9.886834e-06
-0.00013928311
5.9714262e-06
-0.00013839651
2.044783e-06
-0.00013786844
-1.8854411e-06
-0.00013769311
-5.8120218e-06
-0.0001378685
-9.7273189e-06
-0.00013839659
-1.3623397e-05
-0.00013928319
-1.749163e-05
-0.00014053788
-2.1322821e-05
-0.00014217438
-2.5106533e-05
-0.00014421085
-2.8831325e-05
-0.00014667024
-3.2484146e-05
-0.00014958109
-3.6052117e-05
-0.00015297949
-3.9515961e-05
-0.00015690957
-4.2857067e-05
-0.00016141998
-4.6051269e-05
-0.00016657191
-4.9068495e-05
-0.00017244117
-5.1875393e-05
-0.00017910814
-5.4433849e-05
-0.00018667361
-5.6702694e-05
-0.00019527019
-5.86201e-05
-0.00020505577
-6.0113307e-05
-0.00021621665
-6.1103013e-05
-0.00022896583
-6.1479916e-05
-0.00024359299
-6.1126207e-05
-0.0002604417
-5.9871287e-05
-0.0002799676
-5.7528685e-05
-0.00030270104
-5.3828378e-05
-0.00032939411
-4.8475015e-05
-0.00036092108
-4.1022746e-05
-0.00039863279
-3.0958013e-05
-0.00044404627
-1.7532212e-05
-0.00049961715
-0.00056843047
2.2502759e-07
1.7578463e-05
-0.00058605972
3.1066435e-05
-0.00051304455
4.1123198e-05
-0.00045414406
4.8613891e-05
-0.00040608081
5.396802e-05
-0.00036629778
5.7635036e-05
-0.00033305808
6.0017227e-05
-0.00030505691
6.128082e-05
-0.00028122304
6.1641744e-05
-0.00026080325
6.1259229e-05
-0.0002432134
6.0285561e-05
-0.00022798323
5.8813354e-05
-0.00021473498
5.6906758e-05
-0.00020315464
5.462717e-05
-0.00019300375
5.2049753e-05
-0.00018410125
4.9233475e-05
-0.00017628439
4.6214352e-05
-0.00016941701
4.3029496e-05
-0.000163384
3.9704644e-05
-0.00015809274
3.6257939e-05
-0.00015346349
3.2705673e-05
-0.00014943016
2.9065907e-05
-0.00014594361
2.5353788e-05
-0.00014295922
2.1582512e-05
-0.00014043993
1.7763454e-05
-0.00013835544
1.3906944e-05
-0.00013668132
1.00221e-05
-0.00013539831
6.1175555e-06
-0.00013449196
2.2011999e-06
-0.00013395213
-1.7190446e-06
-0.00013377285
-5.6354648e-06
-0.00013395212
-9.5400984e-06
-0.00013449194
-1.3425042e-05
-0.00013539829
-1.7281634e-05
-0.00013668128
-2.110066e-05
-0.0001383554
-2.4871642e-05
-0.00014043986
-2.8583016e-05
-0.0001429589
-3.2221956e-05
-0.00014594215
-3.5778113e-05
-0.00014942337
-3.9238186e-05
-0.00015344949
-4.25823e-05
-0.0001580759
-4.5784504e-05
-0.00016336971
-4.8817333e-05
-0.00016940837
-5.1640038e-05
-0.00017628544
-5.4202308e-05
-0.00018411136
-5.6462919e-05
-0.00019300959
-5.8378415e-05
-0.0002031403
-5.988572e-05
-0.00021470936
-6.0887684e-05
-0.00022796389
-6.1277097e-05
-0.00024320359
-6.0925013e-05
-0.00026079381
-5.9686517e-05
-0.00028120611
-5.7343874e-05
-0.00030504371
-5.3662741e-05
-0.00033307525
-4.82686e-05
-0.00036631526
-4.0847801e-05
-0.0004060536
-3.072658e-05
-0.00045416753
-1.7354811e-05
-0.00051298893
-0.00058612398
3.3865825e-07
1.7605539e-05
3.1104047e-05
4.1166391e-05
4.8665242e-05
5.4011789e-05
5.7685228e-05
6.007268e-05
6.1325594e-05
6.1693699e-05
6.1312739e-05
6.0344049e-05
5.8877524e-05
5.6964081e-05
5.468457e-05
5.2110189e-05
4.929691e-05
4.6277976e-05
4.3095165e-05
3.9772101e-05
3.6323404e-05
3.2770889e-05
2.9131263e-05
2.5419235e-05
2.1647902e-05
1.782861e-05
1.3971667e-05
1.0086195e-05
6.180844e-06
2.2634837e-06
-1.6578395e-06
-5.5752673e-06
-9.4806525e-06
-1.3366192e-05
-1.7223151e-05
-2.1042536e-05
-2.4813915e-05
-2.8526122e-05
-3.2166323e-05
-3.5721159e-05
-3.9180089e-05
-4.2521625e-05
-4.5721027e-05
-4.875095e-05
-5.1572351e-05
-5.4137407e-05
-5.6392485e-05
-5.8303196e-05
-5.9805699e-05
-6.080019e-05
-6.1187852e-05
-6.0825963e-05
-5.9581501e-05
-5.7226036e-05
-5.354149e-05
-4.8139367e-05
-4.0712118e-05
-3.0579489e-05
-1.7190151e-05
5.2463776e-07
-8.6125855e-06
-0.00022288449
0.00021694613
1.4551008e-05
-3.4564542e-06
-0.00022358076
0.00021842469
9.8940934e-07
-0.00022430983
0.000219864
4.7889477e-06
-0.0002250625
0.00022126301
7.99904e-06
-0.00022583044
0.00022262038
1.0670721e-05
-0.00022660676
0.00022393513
1.284984e-05
-0.00022738515
0.00022520606
1.4577871e-05
-0.00022815995
0.00022643197
1.5892392e-05
-0.00022892633
0.00022761184
1.6827671e-05
-0.00022967974
0.0002287445
1.7415079e-05
-0.00023041631
0.00022982894
1.7683415e-05
-0.00023113243
0.00023086414
1.765928e-05
-0.00023182493
0.0002318491
1.7367359e-05
-0.00023249097
0.00023278293
1.6830591e-05
-0.00023312778
0.00023366459
1.6070467e-05
-0.00023373312
0.00023449328
1.5107129e-05
-0.00023430488
0.00023526825
1.3959596e-05
-0.00023484126
0.00023598883
1.264584e-05
-0.00023534055
0.00023665434
1.1182959e-05
-0.00023580118
0.00023726409
9.587254e-06
-0.00023622164
0.00023781738
7.8743631e-06
-0.00023660067
0.00023831359
6.0593398e-06
-0.00023693732
0.00023875236
4.1567632e-06
-0.00023723088
0.00023913348
2.1808007e-06
-0.00023748084
0.00023945682
1.4529942e-07
-0.00023768655
0.00023972207
-1.9361913e-06
-0.0002378473
0.0002399288
-4.0503186e-06
-0.00023796245
0.00024007659
-6.1838641e-06
-0.00023803156
0.00024016512
-8.3237099e-06
-0.00023805442
0.00024019427
-1.0456779e-05
-0.00023803099
0.00024016406
-1.256996e-05
-0.00023796137
0.00024007456
-1.4650054e-05
-0.00023784577
0.00023992587
-1.668371e-05
-0.00023768448
0.00023971814
-1.8657364e-05
-0.00023747791
0.00023945157
-2.0557174e-05
-0.00023722659
0.00023912641
-2.2368971e-05
-0.00023693123
0.00023874303
-2.4078202e-05
-0.0002365926
0.00023830184
-2.5669863e-05
-0.00023621171
0.00023780337
-2.7128416e-05
-0.00023578966
0.00023724822
-2.8437658e-05
-0.00023532776
0.00023663701
-2.9580586e-05
-0.00023482744
0.00023597037
-3.0539258e-05
-0.00023429023
0.0002352489
-3.1294686e-05
-0.00023371778
0.00023447321
-3.1826703e-05
-0.00023311186
0.00023364388
-3.2113866e-05
-0.00023247455
0.00023276172
-3.2133183e-05
-0.0002318081
0.00023182742
-3.1859976e-05
-0.0002311152
0.00023084199
-3.1267567e-05
-0.00023039852
0.00022980612
-3.0327131e-05
-0.00022966103
0.0002287206
-2.9007327e-05
-0.00022890611
0.00022758632
-2.727403e-05
-0.00022813762
0.00022640433
-2.5089936e-05
-0.00022736064
0.00022517655
-2.2414183e-05
-0.00022658182
0.00022390608
-1.9202157e-05
-0.0002258122
0.00022260017
-1.540531e-05
-0.00022507317
0.00022127636
-1.0972029e-05
-0.0002244134
0.00021998015
-5.8506885e-06
-0.00022396137
0.00021884007
-0.0002240917
0.00021824101
-7.215022e-06
-0.00022927576
1.3606297e-05
-1.6704659e-06
-0.00022912529
3.1053108e-06
-0.00022908561
7.1815062e-06
-0.00022913866
1.0619772e-05
-0.0002292687
1.3475343e-05
-0.0002294623
1.5797832e-05
-0.00022970763
1.7632118e-05
-0.00022999421
1.9018853e-05
-0.00023031306
1.9995136e-05
-0.00023065599
2.0594907e-05
-0.00023101607
2.0849337e-05
-0.00023138683
2.0787203e-05
-0.00023176279
2.043522e-05
-0.00023213896
1.9818199e-05
-0.00023251076
1.8959413e-05
-0.00023287432
1.7880667e-05
-0.00023322613
1.6602553e-05
-0.00023356314
1.5144522e-05
-0.00023388252
1.3525068e-05
-0.00023418172
1.1761813e-05
-0.00023445839
9.8716747e-06
-0.00023471053
7.870947e-06
-0.00023493659
5.7754161e-06
-0.00023513535
3.6004098e-06
-0.00023530583
1.3608845e-06
-0.00023544702
-9.2850995e-07
-0.00023555791
-3.2533508e-06
-0.00023563761
-5.59937e-06
-0.00023568554
-7.9523866e-06
-0.0002357014
-1.0298243e-05
-0.00023568513
-1.2622759e-05
-0.00023563686
-1.4911653e-05
-0.00023555688
-1.7150484e-05
-0.00023544565
-1.9324575e-05
-0.00023530382
-2.1418942e-05
-0.00023513222
-2.3418229e-05
-0.00023493194
-2.5306632e-05
-0.0002347042
-2.706785e-05
-0.00023445049
-2.8684999e-05
-0.00023417251
-3.0140502e-05
-0.00023387226
-3.1415946e-05
-0.000233552
-3.2491936e-05
-0.00023321424
-3.3347936e-05
-0.00023286177
-3.3962125e-05
-0.00023249767
-3.4311252e-05
-0.00023212542
-3.4370449e-05
-0.0002317489
-3.4112982e-05
-0.00023137266
-3.3509985e-05
-0.00023100152
-3.2530305e-05
-0.00023064071
-3.1139958e-05
-0.00023029646
-2.9301922e-05
-0.00022997565
-2.697568e-05
-0.00022968688
-2.4116783e-05
-0.00022944072
-2.0676377e-05
-0.0002292526
-1.6601179e-05
-0.0002291484
-1.1833757e-05
-0.00022918085
-6.3160817e-06
-0.00022947908
-0.00023040778
-5.7912451e-06
-0.00023615787
1.2673356e-05
1.7461931e-07
-0.00023509112
5.3085784e-06
-0.00023421957
9.6855113e-06
-0.00023351557
1.3372106e-05
-0.0002329553
1.6428134e-05
-0.0002325183
1.890726e-05
-0.00023218676
2.0858052e-05
-0.00023194498
2.2324481e-05
-0.00023177949
2.3346697e-05
-0.00023167819
2.3961412e-05
-0.00023163079
2.4202361e-05
-0.00023162777
2.4100671e-05
-0.0002316611
2.3685254e-05
-0.00023172354
2.2982955e-05
-0.00023180846
2.201895e-05
-0.00023191031
2.0816834e-05
-0.00023202402
1.9398898e-05
-0.0002321452
1.7786193e-05
-0.00023226982
1.5998741e-05
-0.00023239427
1.4055624e-05
-0.00023251528
1.1975155e-05
-0.00023263007
9.7749714e-06
-0.00023273642
7.4721495e-06
-0.00023283253
5.0832752e-06