/*--------------------------------*- C++ -*----------------------------------*\
| =========                 |                                                 |
| \\      /  F ield         | OpenFOAM: The Open Source CFD Toolbox           |
|  \\    /   O peration     | Version:  v2006                                 |
|   \\  /    A nd           | Website:  www.openfoam.com                      |
|    \\/     M anipulation  |                                                 |
\*---------------------------------------------------------------------------*/
FoamFile
{
    version     2.0;
    format      ascii;
    class       volScalarField;
    location    "2000";
    object      pMean;
}
// * * * * * * * * * * * * * * * * * * * * * * * * * * * * * * * * * * * * * //

dimensions      [1 -1 -2 0 0 0 0];


internalField   nonuniform List<scalar> 
55713
(
1.0000383
1.0000383
1.0000383
1.0000383
1.0000383
1.0000383
1.0000383
1.0000383
1.0000383
1.0000383
1.0000383
1.0000383
1.0000383
1.0000383
1.0000383
1.0000383
1.0000383
1.0000383
1.0000383
1.0000383
1.0000383
1.0000383
1.0000383
1.0000383
1.0000383
1.0000383
1.0000383
1.0000383
1.0000383
1.0000383
1.0000383
1.0000383
1.0000383
1.0000383
1.0000383
1.0000383
1.0000383
1.0000383
1.0000383
1.0000383
1.0000383
1.0000383
1.0000383
1.0000383
1.0000383
1.0000383
1.0000383
1.0000383
1.0000383
1.0000383
1.0000383
1.0000383
1.0000383
1.0000383
1.0000383
1.0000383
1.0000383
1.0000383
1.0000383
1.0000359
1.0000359
1.0000359
1.0000359
1.0000359
1.0000359
1.0000359
1.0000359
1.0000359
1.0000359
1.0000359
1.0000359
1.0000359
1.0000359
1.0000359
1.0000359
1.0000359
1.0000359
1.0000359
1.0000359
1.0000359
1.0000359
1.0000359
1.0000359
1.0000359
1.0000359
1.0000359
1.0000359
1.0000359
1.0000359
1.0000359
1.0000359
1.0000359
1.0000359
1.0000359
1.0000359
1.0000359
1.0000359
1.0000359
1.0000359
1.0000359
1.0000359
1.0000359
1.0000359
1.0000359
1.0000359
1.0000359
1.0000359
1.0000359
1.0000359
1.0000359
1.0000359
1.0000359
1.0000359
1.0000359
1.0000359
1.0000359
1.0000359
1.0000359
1.0000338
1.0000338
1.0000338
1.0000338
1.0000338
1.0000339
1.0000339
1.0000339
1.0000339
1.0000339
1.0000339
1.0000339
1.0000339
1.0000339
1.0000339
1.0000339
1.0000339
1.0000339
1.0000339
1.0000339
1.0000339
1.0000339
1.0000339
1.0000339
1.0000339
1.0000339
1.0000339
1.0000339
1.0000339
1.0000339
1.0000339
1.0000339
1.0000339
1.0000339
1.0000339
1.0000339
1.0000339
1.0000339
1.0000339
1.0000339
1.0000339
1.0000339
1.0000339
1.0000339
1.0000339
1.0000339
1.0000339
1.0000339
1.0000339
1.0000339
1.0000339
1.0000339
1.0000339
1.0000339
1.0000339
1.0000339
1.0000339
1.0000339
1.0000339
1.000032
1.000032
1.000032
1.000032
1.000032
1.000032
1.0000321
1.0000321
1.0000321
1.0000321
1.0000321
1.0000321
1.0000321
1.0000321
1.0000321
1.0000321
1.0000321
1.0000321
1.0000321
1.0000321
1.0000321
1.0000321
1.0000321
1.0000321
1.0000321
1.0000321
1.0000321
1.0000321
1.0000321
1.0000321
1.0000321
1.0000321
1.0000321
1.0000321
1.0000321
1.0000321
1.0000321
1.0000321
1.0000321
1.0000321
1.0000321
1.0000321
1.0000321
1.0000321
1.0000321
1.0000321
1.0000321
1.0000321
1.0000321
1.0000321
1.0000321
1.0000321
1.0000321
1.0000321
1.0000321
1.0000321
1.0000321
1.0000321
1.0000321
1.0000305
1.0000305
1.0000305
1.0000305
1.0000305
1.0000305
1.0000305
1.0000305
1.0000305
1.0000305
1.0000305
1.0000305
1.0000305
1.0000305
1.0000305
1.0000305
1.0000305
1.0000305
1.0000305
1.0000305
1.0000305
1.0000305
1.0000305
1.0000305
1.0000305
1.0000305
1.0000305
1.0000305
1.0000305
1.0000305
1.0000305
1.0000305
1.0000305
1.0000305
1.0000305
1.0000305
1.0000306
1.0000306
1.0000306
1.0000306
1.0000306
1.0000306
1.0000306
1.0000306
1.0000306
1.0000306
1.0000306
1.0000306
1.0000306
1.0000306
1.0000306
1.0000306
1.0000306
1.0000306
1.0000306
1.0000306
1.0000306
1.0000306
1.0000306
1.0000292
1.0000292
1.0000292
1.0000292
1.0000292
1.0000292
1.0000292
1.0000292
1.0000292
1.0000292
1.0000292
1.0000292
1.0000292
1.0000292
1.0000292
1.0000292
1.0000292
1.0000292
1.0000292
1.0000292
1.0000292
1.0000292
1.0000292
1.0000292
1.0000292
1.0000292
1.0000292
1.0000292
1.0000292
1.0000292
1.0000292
1.0000292
1.0000292
1.0000292
1.0000292
1.0000292
1.0000292
1.0000292
1.0000292
1.0000292
1.0000292
1.0000292
1.0000292
1.0000293
1.0000293
1.0000293
1.0000293
1.0000293
1.0000293
1.0000293
1.0000293
1.0000293
1.0000293
1.0000293
1.0000293
1.0000293
1.0000293
1.0000293
1.0000293
1.000028
1.000028
1.000028
1.000028
1.000028
1.000028
1.000028
1.000028
1.000028
1.000028
1.000028
1.000028
1.000028
1.000028
1.000028
1.000028
1.000028
1.000028
1.000028
1.000028
1.000028
1.000028
1.0000281
1.0000281
1.0000281
1.0000281
1.0000281
1.0000281
1.0000281
1.0000281
1.0000281
1.0000281
1.0000281
1.0000281
1.0000281
1.0000281
1.0000281
1.0000281
1.0000281
1.0000281
1.0000281
1.0000281
1.0000281
1.0000281
1.0000281
1.0000281
1.0000281
1.0000281
1.0000281
1.0000281
1.0000281
1.0000281
1.0000281
1.0000281
1.0000281
1.0000281
1.0000281
1.0000281
1.0000281
1.000027
1.000027
1.000027
1.000027
1.000027
1.000027
1.000027
1.000027
1.000027
1.000027
1.000027
1.000027
1.000027
1.000027
1.000027
1.000027
1.000027
1.000027
1.000027
1.000027
1.000027
1.000027
1.000027
1.000027
1.000027
1.000027
1.000027
1.000027
1.000027
1.000027
1.000027
1.000027
1.000027
1.000027
1.000027
1.000027
1.000027
1.000027
1.000027
1.000027
1.000027
1.000027
1.000027
1.000027
1.000027
1.000027
1.000027
1.000027
1.000027
1.000027
1.000027
1.000027
1.000027
1.000027
1.000027
1.000027
1.000027
1.000027
1.000027
1.0000265
1.0000265
1.0000265
1.0000265
1.0000265
1.0000265
1.0000265
1.0000265
1.0000265
1.0000265
1.0000265
1.0000265
1.0000265
1.0000265
1.0000265
1.0000265
1.0000265
1.0000265
1.0000265
1.0000265
1.0000265
1.0000265
1.0000265
1.0000265
1.0000265
1.0000265
1.0000265
1.0000265
1.0000265
1.0000265
1.0000265
1.0000265
1.0000265
1.0000265
1.0000265
1.0000265
1.0000265
1.0000265
1.0000265
1.0000265
1.0000265
1.0000265
1.0000265
1.0000265
1.0000265
1.0000265
1.0000265
1.0000265
1.0000265
1.0000265
1.0000265
1.0000265
1.0000265
1.0000265
1.0000265
1.0000265
1.0000265
1.0000265
1.0000265
1.0000261
1.0000261
1.0000261
1.0000261
1.0000261
1.0000261
1.0000261
1.0000261
1.0000261
1.0000261
1.0000261
1.0000261
1.0000261
1.0000261
1.0000261
1.0000261
1.0000261
1.0000261
1.0000261
1.0000261
1.0000261
1.0000261
1.0000261
1.0000261
1.0000261
1.0000261
1.0000261
1.0000261
1.0000261
1.0000261
1.0000261
1.0000261
1.0000261
1.0000261
1.0000261
1.0000261
1.0000261
1.0000261
1.0000261
1.0000261
1.0000261
1.0000261
1.0000261
1.0000261
1.0000262
1.0000262
1.0000262
1.0000262
1.0000262
1.0000262
1.0000262
1.0000262
1.0000262
1.0000262
1.0000262
1.0000262
1.0000262
1.0000262
1.0000262
1.0000238
1.0000238
1.0000238
1.0000238
1.0000238
1.0000238
1.0000238
1.0000238
1.0000238
1.0000238
1.0000238
1.0000238
1.0000238
1.0000238
1.0000238
1.0000238
1.0000238
1.0000238
1.0000238
1.0000238
1.0000238
1.0000238
1.0000238
1.0000238
1.0000238
1.0000238
1.0000238
1.0000238
1.0000238
1.0000238
1.0000238
1.0000238
1.0000238
1.0000238
1.0000238
1.0000238
1.0000238
1.0000238
1.0000238
1.0000238
1.0000238
1.0000238
1.0000238
1.0000238
1.0000238
1.0000238
1.0000238
1.0000238
1.0000238
1.0000238
1.0000238
1.0000238
1.0000238
1.0000238
1.0000238
1.0000238
1.0000238
1.0000238
1.0000238
1.0000238
1.0000237
1.0000237
1.0000237
1.0000237
1.0000237
1.0000237
1.0000237
1.0000237
1.0000237
1.0000236
1.0000236
1.0000236
1.0000236
1.0000236
1.0000236
1.0000236
1.0000236
1.0000236
1.0000236
1.0000236
1.0000236
1.0000236
1.0000236
1.0000236
1.0000236
1.0000236
1.0000236
1.0000235
1.0000235
1.0000235
1.0000235
1.0000235
1.0000235
1.0000235
1.0000235
1.0000235
1.0000235
1.0000235
1.0000235
1.0000235
1.0000235
1.0000235
1.0000235
1.0000235
1.0000235
1.0000235
1.0000235
1.0000235
1.0000235
1.0000235
1.0000234
1.0000234
1.0000234
1.0000234
1.0000234
1.0000234
1.0000234
1.0000234
1.0000361
1.0000361
1.000036
1.000036
1.000036
1.000036
1.000036
1.000036
1.000036
1.000036
1.000036
1.000036
1.000036
1.000036
1.000036
1.000036
1.000036
1.000036
1.000036
1.000036
1.000036
1.000036
1.000036
1.000036
1.000036
1.000036
1.000036
1.000036
1.000036
1.000036
1.000036
1.000036
1.000036
1.000036
1.000036
1.000036
1.000036
1.000036
1.000036
1.000036
1.000036
1.000036
1.000036
1.000036
1.000036
1.000036
1.000036
1.000036
1.000036
1.000036
1.000036
1.000036
1.000036
1.000036
1.000036
1.000036
1.000036
1.000036
1.000036
1.0000229
1.0000229
1.0000229
1.000023
1.000023
1.000023
1.000023
1.000023
1.000023
1.000023
1.000023
1.000023
1.000023
1.000023
1.000023
1.000023
1.000023
1.000023
1.000023
1.000023
1.000023
1.000023
1.000023
1.000023
1.000023
1.000023
1.000023
1.0000231
1.0000231
1.0000231
1.0000231
1.0000231
1.0000231
1.0000231
1.0000231
1.0000231
1.0000231
1.0000231
1.0000231
1.0000231
1.0000231
1.0000231
1.0000231
1.0000231
1.0000231
1.0000231
1.0000231
1.000023
1.000023
1.000023
1.000023
1.000023
1.000023
1.000023
1.000023
1.000023
1.000023
1.000023
1.000023
1.0001429
1.000143
1.000143
1.0001431
1.0001431
1.0001431
1.0001432
1.0001432
1.0001433
1.0001433
1.0001434
1.0001434
1.0001434
1.0001435
1.0001435
1.0001436
1.0001436
1.0001436
1.0001437
1.0001437
1.0001437
1.0001438
1.0001438
1.0001438
1.0001439
1.0001439
1.0001439
1.000144
1.000144
1.000144
1.000144
1.0001441
1.0001441
1.0001441
1.0001441
1.0001442
1.0001442
1.0001442
1.0001442
1.0001442
1.0001442
1.0001443
1.0001443
1.0001443
1.0001443
1.0001443
1.0001443
1.0001443
1.0001443
1.0001443
1.0001443
1.0001443
1.0001444
1.0001444
1.0001444
1.0001444
1.0001444
1.0001444
1.0001444
1.000131
1.000131
1.0001311
1.0001311
1.0001311
1.0001312
1.0001312
1.0001312
1.0001313
1.0001313
1.0001313
1.0001314
1.0001314
1.0001314
1.0001315
1.0001315
1.0001315
1.0001316
1.0001316
1.0001316
1.0001317
1.0001317
1.0001317
1.0001317
1.0001318
1.0001318
1.0001318
1.0001318
1.0001319
1.0001319
1.0001319
1.0001319
1.0001319
1.000132
1.000132
1.000132
1.000132
1.000132
1.000132
1.0001321
1.0001321
1.0001321
1.0001321
1.0001321
1.0001321
1.0001321
1.0001321
1.0001321
1.0001321
1.0001322
1.0001322
1.0001322
1.0001322
1.0001322
1.0001322
1.0001322
1.0001322
1.0001322
1.0001322
1.0001199
1.0001199
1.0001199
1.00012
1.00012
1.00012
1.0001201
1.0001201
1.0001201
1.0001201
1.0001202
1.0001202
1.0001202
1.0001203
1.0001203
1.0001203
1.0001203
1.0001204
1.0001204
1.0001204
1.0001204
1.0001204
1.0001205
1.0001205
1.0001205
1.0001205
1.0001205
1.0001206
1.0001206
1.0001206
1.0001206
1.0001206
1.0001206
1.0001207
1.0001207
1.0001207
1.0001207
1.0001207
1.0001207
1.0001207
1.0001207
1.0001208
1.0001208
1.0001208
1.0001208
1.0001208
1.0001208
1.0001208
1.0001208
1.0001208
1.0001208
1.0001208
1.0001208
1.0001208
1.0001208
1.0001208
1.0001208
1.0001208
1.0001208
1.0001095
1.0001095
1.0001095
1.0001096
1.0001096
1.0001096
1.0001096
1.0001097
1.0001097
1.0001097
1.0001097
1.0001097
1.0001098
1.0001098
1.0001098
1.0001098
1.0001098
1.0001099
1.0001099
1.0001099
1.0001099
1.0001099
1.00011
1.00011
1.00011
1.00011
1.00011
1.00011
1.0001101
1.0001101
1.0001101
1.0001101
1.0001101
1.0001101
1.0001101
1.0001101
1.0001102
1.0001102
1.0001102
1.0001102
1.0001102
1.0001102
1.0001102
1.0001102
1.0001102
1.0001102
1.0001102
1.0001102
1.0001102
1.0001102
1.0001103
1.0001103
1.0001103
1.0001103
1.0001103
1.0001103
1.0001103
1.0001103
1.0001103
1.0000998
1.0000998
1.0000999
1.0000999
1.0000999
1.0000999
1.0001
1.0001
1.0001
1.0001
1.0001
1.0001
1.0001001
1.0001001
1.0001001
1.0001001
1.0001001
1.0001001
1.0001002
1.0001002
1.0001002
1.0001002
1.0001002
1.0001002
1.0001002
1.0001003
1.0001003
1.0001003
1.0001003
1.0001003
1.0001003
1.0001003
1.0001003
1.0001003
1.0001004
1.0001004
1.0001004
1.0001004
1.0001004
1.0001004
1.0001004
1.0001004
1.0001004
1.0001004
1.0001004
1.0001004
1.0001004
1.0001004
1.0001004
1.0001004
1.0001005
1.0001005
1.0001005
1.0001005
1.0001005
1.0001005
1.0001005
1.0001005
1.0001005
1.0000909
1.0000909
1.0000909
1.0000909
1.0000909
1.000091
1.000091
1.000091
1.000091
1.000091
1.000091
1.0000911
1.0000911
1.0000911
1.0000911
1.0000911
1.0000911
1.0000911
1.0000911
1.0000912
1.0000912
1.0000912
1.0000912
1.0000912
1.0000912
1.0000912
1.0000912
1.0000912
1.0000912
1.0000913
1.0000913
1.0000913
1.0000913
1.0000913
1.0000913
1.0000913
1.0000913
1.0000913
1.0000913
1.0000913
1.0000913
1.0000913
1.0000913
1.0000913
1.0000914
1.0000914
1.0000914
1.0000914
1.0000914
1.0000914
1.0000914
1.0000914
1.0000914
1.0000914
1.0000914
1.0000914
1.0000914
1.0000914
1.0000914
1.0000826
1.0000826
1.0000826
1.0000826
1.0000827
1.0000827
1.0000827
1.0000827
1.0000827
1.0000827
1.0000827
1.0000827
1.0000828
1.0000828
1.0000828
1.0000828
1.0000828
1.0000828
1.0000828
1.0000828
1.0000828
1.0000828
1.0000829
1.0000829
1.0000829
1.0000829
1.0000829
1.0000829
1.0000829
1.0000829
1.0000829
1.0000829
1.0000829
1.0000829
1.0000829
1.0000829
1.000083
1.000083
1.000083
1.000083
1.000083
1.000083
1.000083
1.000083
1.000083
1.000083
1.000083
1.000083
1.000083
1.000083
1.000083
1.000083
1.000083
1.000083
1.000083
1.000083
1.000083
1.000083
1.000083
1.000075
1.000075
1.000075
1.000075
1.000075
1.000075
1.000075
1.0000751
1.0000751
1.0000751
1.0000751
1.0000751
1.0000751
1.0000751
1.0000751
1.0000751
1.0000751
1.0000751
1.0000752
1.0000752
1.0000752
1.0000752
1.0000752
1.0000752
1.0000752
1.0000752
1.0000752
1.0000752
1.0000752
1.0000752
1.0000752
1.0000752
1.0000752
1.0000752
1.0000752
1.0000753
1.0000753
1.0000753
1.0000753
1.0000753
1.0000753
1.0000753
1.0000753
1.0000753
1.0000753
1.0000753
1.0000753
1.0000753
1.0000753
1.0000753
1.0000753
1.0000753
1.0000753
1.0000753
1.0000753
1.0000753
1.0000753
1.0000753
1.0000753
1.000068
1.000068
1.000068
1.000068
1.000068
1.000068
1.000068
1.000068
1.0000681
1.0000681
1.0000681
1.0000681
1.0000681
1.0000681
1.0000681
1.0000681
1.0000681
1.0000681
1.0000681
1.0000681
1.0000681
1.0000681
1.0000681
1.0000681
1.0000682
1.0000682
1.0000682
1.0000682
1.0000682
1.0000682
1.0000682
1.0000682
1.0000682
1.0000682
1.0000682
1.0000682
1.0000682
1.0000682
1.0000682
1.0000682
1.0000682
1.0000682
1.0000682
1.0000682
1.0000682
1.0000682
1.0000682
1.0000682
1.0000682
1.0000682
1.0000682
1.0000682
1.0000682
1.0000682
1.0000682
1.0000682
1.0000682
1.0000682
1.0000682
1.0000616
1.0000616
1.0000616
1.0000616
1.0000616
1.0000616
1.0000616
1.0000616
1.0000616
1.0000616
1.0000616
1.0000617
1.0000617
1.0000617
1.0000617
1.0000617
1.0000617
1.0000617
1.0000617
1.0000617
1.0000617
1.0000617
1.0000617
1.0000617
1.0000617
1.0000617
1.0000617
1.0000617
1.0000617
1.0000617
1.0000617
1.0000617
1.0000617
1.0000617
1.0000617
1.0000618
1.0000618
1.0000618
1.0000618
1.0000618
1.0000618
1.0000618
1.0000618
1.0000618
1.0000618
1.0000618
1.0000618
1.0000618
1.0000618
1.0000618
1.0000618
1.0000618
1.0000618
1.0000618
1.0000618
1.0000618
1.0000618
1.0000618
1.0000618
1.0000557
1.0000558
1.0000558
1.0000558
1.0000558
1.0000558
1.0000558
1.0000558
1.0000558
1.0000558
1.0000558
1.0000558
1.0000558
1.0000558
1.0000558
1.0000558
1.0000558
1.0000558
1.0000558
1.0000558
1.0000558
1.0000558
1.0000559
1.0000559
1.0000559
1.0000559
1.0000559
1.0000559
1.0000559
1.0000559
1.0000559
1.0000559
1.0000559
1.0000559
1.0000559
1.0000559
1.0000559
1.0000559
1.0000559
1.0000559
1.0000559
1.0000559
1.0000559
1.0000559
1.0000559
1.0000559
1.0000559
1.0000559
1.0000559
1.0000559
1.0000559
1.0000559
1.0000559
1.0000559
1.0000559
1.0000559
1.0000559
1.0000559
1.0000559
1.0000504
1.0000504
1.0000504
1.0000505
1.0000505
1.0000505
1.0000505
1.0000505
1.0000505
1.0000505
1.0000505
1.0000505
1.0000505
1.0000505
1.0000505
1.0000505
1.0000505
1.0000505
1.0000505
1.0000505
1.0000505
1.0000505
1.0000505
1.0000505
1.0000505
1.0000505
1.0000505
1.0000505
1.0000505
1.0000505
1.0000505
1.0000505
1.0000505
1.0000505
1.0000505
1.0000505
1.0000506
1.0000506
1.0000506
1.0000506
1.0000506
1.0000506
1.0000506
1.0000506
1.0000506
1.0000506
1.0000506
1.0000506
1.0000506
1.0000506
1.0000506
1.0000506
1.0000506
1.0000506
1.0000506
1.0000506
1.0000506
1.0000506
1.0000506
1.0000456
1.0000456
1.0000456
1.0000457
1.0000457
1.0000457
1.0000457
1.0000457
1.0000457
1.0000457
1.0000457
1.0000457
1.0000457
1.0000457
1.0000457
1.0000457
1.0000457
1.0000457
1.0000457
1.0000457
1.0000457
1.0000457
1.0000457
1.0000457
1.0000457
1.0000457
1.0000457
1.0000457
1.0000457
1.0000457
1.0000457
1.0000457
1.0000457
1.0000457
1.0000457
1.0000457
1.0000457
1.0000457
1.0000457
1.0000457
1.0000457
1.0000457
1.0000457
1.0000457
1.0000457
1.0000457
1.0000457
1.0000457
1.0000457
1.0000457
1.0000457
1.0000457
1.0000457
1.0000457
1.0000457
1.0000457
1.0000457
1.0000457
1.0000457
1.0000414
1.0000415
1.0000415
1.0000415
1.0000415
1.0000415
1.0000415
1.0000415
1.0000415
1.0000415
1.0000415
1.0000415
1.0000415
1.0000415
1.0000415
1.0000415
1.0000415
1.0000415
1.0000415
1.0000415
1.0000415
1.0000415
1.0000415
1.0000415
1.0000415
1.0000415
1.0000415
1.0000415
1.0000415
1.0000415
1.0000415
1.0000415
1.0000415
1.0000415
1.0000415
1.0000415
1.0000415
1.0000415
1.0000415
1.0000415
1.0000415
1.0000415
1.0000415
1.0000415
1.0000415
1.0000415
1.0000415
1.0000415
1.0000415
1.0000415
1.0000415
1.0000415
1.0000415
1.0000415
1.0000415
1.0000415
1.0000415
1.0000415
1.0000415
1.0001588
1.0001764
1.0001961
1.0002177
1.0002413
1.0002671
1.0002952
1.0003258
1.000359
1.0003949
1.0004336
1.0004751
1.0005197
1.0005671
1.0006175
1.0006706
1.0007263
1.0007842
1.0008439
1.0009049
1.0009665
1.0010279
1.001088
1.0011459
1.0012004
1.0012502
1.0012941
1.0013308
1.0013593
1.0013786
1.0013882
1.0013876
1.0013766
1.0013555
1.0013249
1.0012856
1.0012382
1.0011839
1.0011239
1.0010594
1.0009913
1.0009209
1.0008488
1.0007759
1.0007031
1.000631
1.0005601
1.0004908
1.0004235
1.0003586
1.0002963
1.0002365
1.0001793
1.0001248
1.0000731
1.0000239
0.99997745
0.99993354
0.99989215
0.9998532
0.99981656
0.99978215
0.99974985
0.99971956
0.9996912
0.99966464
0.99963979
0.99961652
0.99959474
0.99957435
0.99955528
0.99953743
0.99952075
0.99950511
1.0001588
1.0001764
1.0001961
1.0002177
1.0002413
1.0002671
1.0002952
1.0003258
1.000359
1.0003949
1.0004336
1.0004751
1.0005197
1.0005671
1.0006175
1.0006706
1.0007263
1.0007842
1.0008439
1.0009049
1.0009665
1.0010279
1.001088
1.0011459
1.0012004
1.0012502
1.0012941
1.0013308
1.0013593
1.0013787
1.0013882
1.0013876
1.0013766
1.0013555
1.0013249
1.0012855
1.0012382
1.0011839
1.0011239
1.0010593
1.0009913
1.0009208
1.0008487
1.0007759
1.0007031
1.0006309
1.00056
1.0004908
1.0004235
1.0003586
1.0002962
1.0002364
1.0001793
1.0001248
1.0000731
1.0000239
0.99997744
0.99993352
0.99989214
0.99985319
0.99981655
0.99978214
0.99974984
0.99971955
0.99969119
0.99966465
0.9996398
0.99961653
0.99959475
0.99957436
0.9995553
0.99953744
0.99952076
0.9995051
1.0001588
1.0001764
1.0001961
1.0002177
1.0002413
1.0002671
1.0002952
1.0003258
1.000359
1.0003949
1.0004336
1.0004751
1.0005197
1.0005671
1.0006175
1.0006706
1.0007263
1.0007842
1.0008439
1.0009049
1.0009665
1.0010279
1.001088
1.0011459
1.0012004
1.0012502
1.0012941
1.0013308
1.0013594
1.0013787
1.0013882
1.0013876
1.0013766
1.0013556
1.001325
1.0012856
1.0012382
1.0011839
1.001124
1.0010594
1.0009914
1.0009209
1.0008488
1.0007759
1.0007031
1.000631
1.0005601
1.0004908
1.0004235
1.0003586
1.0002962
1.0002364
1.0001793
1.0001248
1.000073
1.0000239
0.99997741
0.99993351
0.99989214
0.99985319
0.99981656
0.99978216
0.99974985
0.99971956
0.9996912
0.99966466
0.99963982
0.99961657
0.99959481
0.99957445
0.99955539
0.99953755
0.99952087
0.99950521
1.0001588
1.0001764
1.0001961
1.0002177
1.0002413
1.0002671
1.0002952
1.0003258
1.000359
1.0003949
1.0004336
1.0004751
1.0005197
1.0005671
1.0006175
1.0006706
1.0007263
1.0007842
1.0008439
1.0009049
1.0009665
1.0010279
1.001088
1.0011459
1.0012004
1.0012502
1.0012941
1.0013309
1.0013594
1.0013787
1.0013883
1.0013877
1.0013767
1.0013556
1.001325
1.0012856
1.0012383
1.001184
1.001124
1.0010595
1.0009914
1.0009209
1.0008488
1.000776
1.0007032
1.000631
1.0005601
1.0004909
1.0004236
1.0003587
1.0002963
1.0002365
1.0001793
1.0001248
1.0000731
1.000024
0.99997748
0.99993359
0.99989222
0.99985327
0.99981664
0.99978224
0.99974995
0.99971968
0.99969133
0.99966478
0.99963993
0.99961667
0.9995949
0.99957451
0.99955544
0.99953759
0.99952089
0.99950525
1.0001588
1.0001764
1.0001961
1.0002177
1.0002413
1.0002671
1.0002952
1.0003258
1.000359
1.0003948
1.0004335
1.0004751
1.0005197
1.0005671
1.0006175
1.0006706
1.0007263
1.0007842
1.0008439
1.0009049
1.0009665
1.0010279
1.001088
1.0011459
1.0012004
1.0012502
1.0012941
1.0013309
1.0013594
1.0013788
1.0013883
1.0013877
1.0013768
1.0013557
1.0013251
1.0012858
1.0012384
1.0011841
1.0011242
1.0010596
1.0009916
1.0009211
1.000849
1.0007761
1.0007033
1.0006312
1.0005603
1.000491
1.0004238
1.0003588
1.0002964
1.0002366
1.0001794
1.0001249
1.0000732
1.0000241
0.99997758
0.99993369
0.99989233
0.99985338
0.99981677
0.99978237
0.99975009
0.99971982
0.99969147
0.99966492
0.99964007
0.99961681
0.99959505
0.99957468
0.99955563
0.99953779
0.99952109
0.99950544
1.0001588
1.0001764
1.0001961
1.0002177
1.0002413
1.0002671
1.0002952
1.0003258
1.000359
1.0003948
1.0004335
1.0004751
1.0005196
1.0005671
1.0006175
1.0006706
1.0007262
1.0007842
1.0008439
1.0009049
1.0009665
1.0010278
1.001088
1.0011459
1.0012004
1.0012503
1.0012942
1.0013309
1.0013595
1.0013788
1.0013884
1.0013879
1.0013769
1.0013559
1.0013253
1.0012859
1.0012386
1.0011843
1.0011244
1.0010598
1.0009918
1.0009213
1.0008492
1.0007763
1.0007035
1.0006314
1.0005605
1.0004912
1.000424
1.000359
1.0002966
1.0002368
1.0001796
1.0001251
1.0000733
1.0000242
0.99997777
0.99993389
0.99989253
0.99985359
0.99981698
0.99978259
0.99975032
0.99972006
0.99969171
0.99966517
0.99964032
0.99961706
0.99959529
0.99957491
0.99955584
0.99953799
0.99952127
0.9995056
1.0001588
1.0001764
1.0001961
1.0002177
1.0002413
1.0002671
1.0002952
1.0003258
1.0003589
1.0003948
1.0004335
1.0004751
1.0005196
1.0005671
1.0006174
1.0006705
1.0007262
1.0007841
1.0008439
1.0009049
1.0009665
1.0010278
1.001088
1.0011459
1.0012005
1.0012503
1.0012942
1.001331
1.0013596
1.0013789
1.0013886
1.001388
1.0013771
1.0013561
1.0013255
1.0012862
1.0012389
1.0011846
1.0011247
1.0010601
1.0009921
1.0009216
1.0008495
1.0007766
1.0007038
1.0006317
1.0005608
1.0004915
1.0004243
1.0003594
1.0002969
1.0002371
1.0001799
1.0001254
1.0000736
1.0000245
0.99997805
0.99993418
0.99989282
0.99985389
0.99981728
0.99978289
0.99975063
0.99972037
0.99969203
0.99966548
0.99964063
0.99961737
0.9995956
0.99957522
0.99955615
0.9995383
0.99952159
0.99950591
1.0001588
1.0001764
1.0001961
1.0002177
1.0002413
1.0002671
1.0002952
1.0003258
1.0003589
1.0003948
1.0004335
1.0004751
1.0005196
1.0005671
1.0006174
1.0006705
1.0007262
1.0007841
1.0008438
1.0009048
1.0009664
1.0010278
1.001088
1.0011459
1.0012005
1.0012503
1.0012942
1.0013311
1.0013597
1.0013791
1.0013888
1.0013882
1.0013773
1.0013564
1.0013259
1.0012865
1.0012393
1.0011851
1.0011251
1.0010606
1.0009926
1.000922
1.0008499
1.0007771
1.0007043
1.0006322
1.0005613
1.000492
1.0004248
1.0003598
1.0002974
1.0002375
1.0001803
1.0001258
1.000074
1.0000249
0.99997847
0.99993461
0.99989325
0.99985433
0.99981773
0.99978335
0.99975109
0.99972084
0.9996925
0.99966595
0.9996411
0.99961783
0.99959606
0.99957567
0.9995566
0.99953873
0.99952201
0.99950631
1.0001588
1.0001763
1.000196
1.0002176
1.0002412
1.000267
1.0002952
1.0003257
1.0003589
1.0003948
1.0004335
1.000475
1.0005196
1.000567
1.0006174
1.0006705
1.0007261
1.000784
1.0008438
1.0009048
1.0009664
1.0010278
1.0010879
1.0011459
1.0012005
1.0012503
1.0012943
1.0013312
1.0013598
1.0013793
1.001389
1.0013885
1.0013777
1.0013568
1.0013263
1.0012871
1.0012398
1.0011856
1.0011257
1.0010612
1.0009932
1.0009227
1.0008506
1.0007778
1.000705
1.0006329
1.0005619
1.0004927
1.0004254
1.0003605
1.000298
1.0002381
1.0001809
1.0001264
1.0000746
1.0000255
0.99997908
0.99993522
0.99989387
0.99985494
0.99981834
0.99978397
0.99975171
0.99972146
0.99969312
0.99966657
0.99964171
0.99961844
0.99959666
0.99957628
0.99955719
0.99953932
0.9995226
0.9995069
1.0001588
1.0001763
1.000196
1.0002176
1.0002412
1.000267
1.0002951
1.0003257
1.0003589
1.0003948
1.0004334
1.000475
1.0005195
1.000567
1.0006173
1.0006704
1.0007261
1.000784
1.0008437
1.0009047
1.0009663
1.0010277
1.0010879
1.0011459
1.0012005
1.0012504
1.0012944
1.0013313
1.00136
1.0013795
1.0013893
1.001389
1.0013782
1.0013574
1.001327
1.0012878
1.0012406
1.0011865
1.0011266
1.0010621
1.0009941
1.0009236
1.0008515
1.0007787
1.0007059
1.0006338
1.0005629
1.0004936
1.0004264
1.0003614
1.0002989
1.000239
1.0001818
1.0001273
1.0000755
1.0000264
0.99997995
0.99993608
0.99989474
0.99985581
0.99981922
0.99978484
0.99975259
0.99972235
0.999694
0.99966745
0.99964259
0.99961932
0.99959753
0.99957714
0.99955805
0.99954016
0.99952343
0.99950771
1.0001588
1.0001763
1.000196
1.0002176
1.0002412
1.000267
1.0002951
1.0003257
1.0003589
1.0003947
1.0004334
1.000475
1.0005195
1.0005669
1.0006173
1.0006704
1.000726
1.0007839
1.0008436
1.0009047
1.0009663
1.0010276
1.0010879
1.0011458
1.0012005
1.0012504
1.0012945
1.0013315
1.0013602
1.0013799
1.0013898
1.0013895
1.0013789
1.0013581
1.0013278
1.0012887
1.0012416
1.0011876
1.0011278
1.0010633
1.0009954
1.0009249
1.0008528
1.00078
1.0007072
1.0006351
1.0005642
1.0004949
1.0004277
1.0003627
1.0003002
1.0002403
1.000183
1.0001285
1.0000767
1.0000276
0.99998115
0.99993728
0.99989593
0.99985701
0.99982041
0.99978604
0.99975378
0.99972353
0.99969519
0.99966863
0.99964376
0.99962048
0.99959869
0.99957828
0.99955918
0.99954128
0.99952453
0.99950881
1.0001587
1.0001763
1.000196
1.0002176
1.0002412
1.000267
1.0002951
1.0003257
1.0003588
1.0003947
1.0004334
1.0004749
1.0005194
1.0005669
1.0006172
1.0006703
1.0007259
1.0007838
1.0008436
1.0009046
1.0009662
1.0010276
1.0010878
1.0011458
1.0012005
1.0012505
1.0012946
1.0013317
1.0013606
1.0013803
1.0013903
1.0013902
1.0013797
1.0013591
1.001329
1.00129
1.001243
1.001189
1.0011293
1.001065
1.0009971
1.0009266
1.0008546
1.0007818
1.000709
1.0006369
1.000566
1.0004967
1.0004294
1.0003644
1.0003019
1.000242
1.0001847
1.0001302
1.0000784
1.0000293
0.99998279
0.99993892
0.99989757
0.99985864
0.99982204
0.99978767
0.99975541
0.99972515
0.9996968
0.99967024
0.99964537
0.99962208
0.99960027
0.99957985
0.99956074
0.99954283
0.99952606
0.99951032
1.0001587
1.0001763
1.000196
1.0002176
1.0002412
1.000267
1.0002951
1.0003256
1.0003588
1.0003946
1.0004333
1.0004749
1.0005194
1.0005668
1.0006171
1.0006702
1.0007258
1.0007837
1.0008434
1.0009044
1.000966
1.0010274
1.0010877
1.0011457
1.0012005
1.0012505
1.0012948
1.001332
1.001361
1.0013809
1.0013911
1.0013912
1.0013808
1.0013605
1.0013305
1.0012916
1.0012448
1.001191
1.0011314
1.0010672
1.0009993
1.0009289
1.0008569
1.0007842
1.0007114
1.0006393
1.0005684
1.0004991
1.0004318
1.0003668
1.0003043
1.0002443
1.000187
1.0001325
1.0000806
1.0000315
0.99998502
0.99994114
0.99989978
0.99986084
0.99982423
0.99978985
0.99975758
0.99972731
0.99969895
0.99967237
0.99964748
0.99962418
0.99960236
0.99958192
0.99956279
0.99954486
0.99952807
0.99951231
1.0001587
1.0001763
1.000196
1.0002176
1.0002412
1.0002669
1.000295
1.0003256
1.0003587
1.0003946
1.0004333
1.0004748
1.0005193
1.0005667
1.000617
1.0006701
1.0007257
1.0007836
1.0008433
1.0009043
1.0009659
1.0010273
1.0010876
1.0011457
1.0012005
1.0012506
1.001295
1.0013323
1.0013615
1.0013816
1.0013921
1.0013924
1.0013823
1.0013622
1.0013325
1.0012938
1.0012472
1.0011936
1.0011342
1.00107
1.0010023
1.000932
1.00086
1.0007873
1.0007146
1.0006425
1.0005716
1.0005023
1.000435
1.00037
1.0003074
1.0002474
1.0001901
1.0001355
1.0000836
1.0000345
0.999988
0.9999441
0.99990272
0.99986377
0.99982715
0.99979275
0.99976046
0.99973019
0.99970181
0.99967522
0.99965031
0.99962699
0.99960515
0.99958469
0.99956554
0.99954759
0.99953078
0.999515
1.0001587
1.0001763
1.000196
1.0002175
1.0002411
1.0002669
1.000295
1.0003256
1.0003587
1.0003945
1.0004332
1.0004747
1.0005192
1.0005666
1.0006169
1.0006699
1.0007256
1.0007834
1.0008431
1.0009041
1.0009657
1.0010271
1.0010875
1.0011456
1.0012004
1.0012507
1.0012952
1.0013327
1.0013622
1.0013825
1.0013933
1.0013939
1.0013842
1.0013644
1.001335
1.0012967
1.0012504
1.001197
1.0011378
1.0010738
1.0010062
1.000936
1.0008641
1.0007915
1.0007188
1.0006467
1.0005758
1.0005065
1.0004392
1.0003741
1.0003115
1.0002515
1.0001942
1.0001395
1.0000876
1.0000385
0.99999194
0.99994802
0.99990662
0.99986764
0.99983099
0.99979657
0.99976426
0.99973395
0.99970555
0.99967893
0.999654
0.99963065
0.99960878
0.9995883
0.99956911
0.99955114
0.9995343
0.99951849
1.0001587
1.0001763
1.0001959
1.0002175
1.0002411
1.0002669
1.000295
1.0003255
1.0003586
1.0003945
1.0004331
1.0004746
1.0005191
1.0005665
1.0006167
1.0006698
1.0007254
1.0007832
1.0008429
1.0009039
1.0009655
1.0010269
1.0010873
1.0011455
1.0012004
1.0012508
1.0012955
1.0013333
1.001363
1.0013837
1.0013949
1.0013959
1.0013866
1.0013673
1.0013383
1.0013004
1.0012544
1.0012014
1.0011425
1.0010788
1.0010114
1.0009413
1.0008695
1.0007969
1.0007243
1.0006522
1.0005813
1.000512
1.0004447
1.0003796
1.0003169
1.0002569
1.0001995
1.0001448
1.0000929
1.0000437
0.99999711
0.99995315
0.99991171
0.9998727
0.99983602
0.99980156
0.99976921
0.99973888
0.99971044
0.99968379
0.99965882
0.99963544
0.99961354
0.99959303
0.99957381
0.9995558
0.99953893
0.99952309
1.0001587
1.0001762
1.0001959
1.0002175
1.0002411
1.0002668
1.0002949
1.0003255
1.0003586
1.0003944
1.000433
1.0004745
1.000519
1.0005663
1.0006166
1.0006696
1.0007251
1.000783
1.0008426
1.0009036
1.0009652
1.0010267
1.0010871
1.0011454
1.0012004
1.001251
1.0012959
1.001334
1.0013641
1.0013852
1.0013968
1.0013984
1.0013897
1.0013709
1.0013425
1.0013051
1.0012597
1.0012071
1.0011485
1.0010851
1.001018
1.0009481
1.0008765
1.000804
1.0007314
1.0006594
1.0005885
1.0005192
1.0004518
1.0003867
1.000324
1.0002639
1.0002064
1.0001517
1.0000997
1.0000505
1.0000038
0.99995982
0.99991833
0.99987926
0.99984252
0.99980801
0.99977562
0.99974523
0.99971674
0.99969005
0.99966503
0.9996416
0.99961966
0.9995991
0.99957984
0.99956179
0.99954488
0.99952899
1.0001587
1.0001762
1.0001959
1.0002175
1.000241
1.0002668
1.0002949
1.0003254
1.0003585
1.0003943
1.0004329
1.0004744
1.0005188
1.0005661