/*--------------------------------*- C++ -*----------------------------------*\
| =========                 |                                                 |
| \\      /  F ield         | OpenFOAM: The Open Source CFD Toolbox           |
|  \\    /   O peration     | Version:  v2006                                 |
|   \\  /    A nd           | Website:  www.openfoam.com                      |
|    \\/     M anipulation  |                                                 |
\*---------------------------------------------------------------------------*/
FoamFile
{
    version     2.0;
    format      ascii;
    class       volScalarField;
    location    "2000";
    object      rho;
}
// * * * * * * * * * * * * * * * * * * * * * * * * * * * * * * * * * * * * * //

dimensions      [1 -3 0 0 0 0 0];


internalField   nonuniform List<scalar> 
55713
(
1.0000235
1.0000222
1.0000215
1.0000212
1.0000211
1.0000211
1.0000211
1.0000211
1.0000212
1.0000212
1.0000212
1.0000212
1.0000212
1.0000212
1.0000212
1.0000212
1.0000212
1.0000212
1.0000212
1.0000212
1.0000212
1.0000212
1.0000212
1.0000212
1.0000212
1.0000212
1.0000212
1.0000212
1.0000212
1.0000212
1.0000212
1.0000212
1.0000212
1.0000212
1.0000212
1.0000212
1.0000212
1.0000212
1.0000212
1.0000212
1.0000212
1.0000212
1.0000212
1.0000212
1.0000212
1.0000212
1.0000211
1.0000211
1.0000211
1.0000211
1.0000211
1.0000211
1.0000211
1.0000211
1.0000211
1.0000211
1.0000211
1.0000211
1.0000211
1.0000216
1.0000205
1.0000198
1.0000196
1.0000195
1.0000195
1.0000196
1.0000196
1.0000196
1.0000196
1.0000196
1.0000196
1.0000196
1.0000196
1.0000196
1.0000196
1.0000196
1.0000196
1.0000196
1.0000196
1.0000196
1.0000196
1.0000196
1.0000196
1.0000197
1.0000197
1.0000197
1.0000197
1.0000197
1.0000197
1.0000197
1.0000196
1.0000196
1.0000196
1.0000196
1.0000196
1.0000196
1.0000196
1.0000196
1.0000196
1.0000196
1.0000196
1.0000196
1.0000196
1.0000196
1.0000196
1.0000196
1.0000196
1.0000196
1.0000196
1.0000196
1.0000196
1.0000196
1.0000196
1.0000196
1.0000196
1.0000196
1.0000196
1.0000195
1.00002
1.0000189
1.0000184
1.0000182
1.0000182
1.0000182
1.0000182
1.0000182
1.0000182
1.0000182
1.0000182
1.0000182
1.0000182
1.0000182
1.0000182
1.0000182
1.0000182
1.0000183
1.0000183
1.0000183
1.0000183
1.0000183
1.0000183
1.0000183
1.0000183
1.0000183
1.0000183
1.0000183
1.0000183
1.0000183
1.0000183
1.0000183
1.0000183
1.0000183
1.0000183
1.0000183
1.0000183
1.0000183
1.0000183
1.0000183
1.0000183
1.0000183
1.0000183
1.0000183
1.0000183
1.0000183
1.0000182
1.0000182
1.0000182
1.0000182
1.0000182
1.0000182
1.0000182
1.0000182
1.0000182
1.0000182
1.0000182
1.0000182
1.0000182
1.0000186
1.0000176
1.0000171
1.000017
1.000017
1.000017
1.000017
1.000017
1.000017
1.000017
1.000017
1.000017
1.000017
1.000017
1.000017
1.000017
1.0000171
1.0000171
1.0000171
1.0000171
1.0000171
1.0000171
1.0000171
1.0000171
1.0000171
1.0000171
1.0000171
1.0000171
1.0000171
1.0000171
1.0000171
1.0000171
1.0000171
1.0000171
1.0000171
1.0000171
1.0000171
1.0000171
1.0000171
1.0000171
1.0000171
1.0000171
1.0000171
1.0000171
1.0000171
1.0000171
1.0000171
1.0000171
1.0000171
1.0000171
1.0000171
1.0000171
1.0000171
1.000017
1.000017
1.000017
1.000017
1.000017
1.000017
1.0000174
1.0000165
1.000016
1.000016
1.000016
1.000016
1.000016
1.000016
1.000016
1.000016
1.000016
1.000016
1.000016
1.000016
1.000016
1.000016
1.000016
1.0000161
1.0000161
1.0000161
1.0000161
1.0000161
1.0000161
1.0000161
1.0000161
1.0000161
1.0000161
1.0000161
1.0000161
1.0000161
1.0000161
1.0000161
1.0000161
1.0000161
1.0000161
1.0000161
1.0000161
1.0000161
1.0000161
1.0000161
1.0000161
1.0000161
1.0000161
1.0000161
1.0000161
1.0000161
1.000016
1.000016
1.000016
1.000016
1.000016
1.000016
1.000016
1.000016
1.000016
1.000016
1.000016
1.000016
1.000016
1.0000164
1.0000155
1.0000151
1.0000151
1.0000151
1.0000151
1.0000151
1.0000151
1.0000151
1.0000151
1.0000151
1.0000151
1.0000151
1.0000151
1.0000151
1.0000151
1.0000152
1.0000152
1.0000152
1.0000152
1.0000152
1.0000152
1.0000152
1.0000152
1.0000152
1.0000152
1.0000152
1.0000152
1.0000152
1.0000152
1.0000152
1.0000152
1.0000152
1.0000152
1.0000152
1.0000152
1.0000152
1.0000152
1.0000152
1.0000152
1.0000152
1.0000152
1.0000152
1.0000152
1.0000152
1.0000152
1.0000152
1.0000152
1.0000152
1.0000152
1.0000152
1.0000152
1.0000152
1.0000152
1.0000151
1.0000151
1.0000151
1.0000151
1.0000151
1.0000154
1.0000146
1.0000143
1.0000143
1.0000143
1.0000143
1.0000143
1.0000143
1.0000143
1.0000143
1.0000143
1.0000143
1.0000144
1.0000143
1.0000143
1.0000144
1.0000144
1.0000144
1.0000144
1.0000144
1.0000144
1.0000144
1.0000144
1.0000144
1.0000144
1.0000144
1.0000144
1.0000144
1.0000144
1.0000144
1.0000144
1.0000144
1.0000144
1.0000144
1.0000144
1.0000144
1.0000144
1.0000144
1.0000144
1.0000144
1.0000144
1.0000144
1.0000144
1.0000144
1.0000144
1.0000144
1.0000144
1.0000144
1.0000144
1.0000144
1.0000144
1.0000144
1.0000144
1.0000144
1.0000144
1.0000143
1.0000143
1.0000144
1.0000144
1.0000145
1.0000138
1.0000136
1.0000136
1.0000136
1.0000136
1.0000136
1.0000136
1.0000136
1.0000136
1.0000136
1.0000136
1.0000136
1.0000136
1.0000136
1.0000137
1.0000137
1.0000137
1.0000137
1.0000137
1.0000137
1.0000137
1.0000137
1.0000137
1.0000137
1.0000137
1.0000137
1.0000137
1.0000137
1.0000137
1.0000137
1.0000137
1.0000137
1.0000137
1.0000137
1.0000137
1.0000137
1.0000137
1.0000137
1.0000137
1.0000137
1.0000137
1.0000137
1.0000137
1.0000137
1.0000137
1.0000137
1.0000137
1.0000137
1.0000137
1.0000137
1.0000136
1.0000136
1.0000136
1.0000136
1.0000136
1.0000136
1.0000136
1.0000136
1.0000141
1.0000134
1.0000132
1.0000132
1.0000133
1.0000133
1.0000133
1.0000133
1.0000133
1.0000133
1.0000133
1.0000133
1.0000133
1.0000133
1.0000133
1.0000133
1.0000133
1.0000133
1.0000133
1.0000133
1.0000133
1.0000133
1.0000133
1.0000134
1.0000134
1.0000134
1.0000134
1.0000134
1.0000134
1.0000134
1.0000134
1.0000134
1.0000134
1.0000133
1.0000133
1.0000133
1.0000133
1.0000133
1.0000133
1.0000133
1.0000133
1.0000133
1.0000133
1.0000133
1.0000133
1.0000133
1.0000133
1.0000133
1.0000133
1.0000133
1.0000133
1.0000133
1.0000133
1.0000133
1.0000133
1.0000132
1.0000132
1.0000133
1.0000133
1.0000136
1.000013
1.0000129
1.0000129
1.000013
1.000013
1.000013
1.000013
1.000013
1.000013
1.000013
1.000013
1.000013
1.000013
1.000013
1.000013
1.0000131
1.0000131
1.0000131
1.000013
1.0000131
1.0000131
1.0000131
1.0000131
1.0000131
1.0000131
1.0000131
1.0000131
1.0000131
1.0000131
1.0000131
1.0000131
1.0000131
1.0000131
1.0000131
1.000013
1.000013
1.000013
1.0000131
1.0000131
1.0000131
1.0000131
1.0000131
1.0000131
1.0000131
1.0000131
1.0000131
1.000013
1.000013
1.0000131
1.000013
1.0000131
1.000013
1.000013
1.000013
1.000013
1.000013
1.000013
1.000013
1.000012
1.0000114
1.0000114
1.0000114
1.0000114
1.0000115
1.0000114
1.0000114
1.0000115
1.0000115
1.0000115
1.0000115
1.0000114
1.0000115
1.0000115
1.0000115
1.0000116
1.0000115
1.0000115
1.0000115
1.0000115
1.0000115
1.0000116
1.0000116
1.0000116
1.0000116
1.0000116
1.0000116
1.0000116
1.0000116
1.0000116
1.0000116
1.0000116
1.0000116
1.0000115
1.0000115
1.0000115
1.0000115
1.0000115
1.0000115
1.0000116
1.0000115
1.0000115
1.0000115
1.0000115
1.0000115
1.0000115
1.0000115
1.0000115
1.0000115
1.0000115
1.0000115
1.0000115
1.0000114
1.0000115
1.0000114
1.0000114
1.0000115
1.0000115
1.0000119
1.0000111
1.0000114
1.0000112
1.0000113
1.0000115
1.0000112
1.0000112
1.0000114
1.0000114
1.0000114
1.0000113
1.0000113
1.0000114
1.0000114
1.0000115
1.0000114
1.0000114
1.0000114
1.0000114
1.0000114
1.0000114
1.0000114
1.0000114
1.0000114
1.0000114
1.0000114
1.0000114
1.0000114
1.0000114
1.0000114
1.0000114
1.0000114
1.0000114
1.0000114
1.0000113
1.0000113
1.0000114
1.0000113
1.0000114
1.0000114
1.0000114
1.0000113
1.0000113
1.0000114
1.0000114
1.0000113
1.0000113
1.0000113
1.0000113
1.0000113
1.0000113
1.0000113
1.0000111
1.0000112
1.0000112
1.0000109
1.0000113
1.0000112
1.0000194
1.0000189
1.0000193
1.000019
1.0000193
1.0000193
1.000019
1.0000192
1.0000192
1.0000191
1.0000192
1.000019
1.0000192
1.0000192
1.0000192
1.0000192
1.0000191
1.0000191
1.0000191
1.0000191
1.0000191
1.0000191
1.0000191
1.0000191
1.0000191
1.0000191
1.0000191
1.0000191
1.0000191
1.0000191
1.0000191
1.0000191
1.0000191
1.0000191
1.0000191
1.0000191
1.0000191
1.000019
1.0000191
1.0000191
1.0000191
1.0000192
1.0000192
1.0000191
1.0000191
1.0000192
1.0000191
1.0000191
1.0000191
1.0000191
1.0000191
1.0000191
1.0000192
1.0000191
1.0000191
1.0000193
1.0000189
1.0000192
1.0000192
1.000011
1.000012
1.0000115
1.000012
1.0000114
1.0000112
1.0000117
1.0000115
1.0000113
1.0000115
1.0000115
1.0000118
1.0000118
1.0000118
1.0000117
1.0000117
1.0000118
1.0000119
1.000012
1.0000121
1.0000121
1.0000121
1.0000121
1.0000121
1.0000121
1.0000121
1.0000121
1.0000121
1.0000121
1.0000121
1.0000121
1.0000121
1.0000121
1.0000121
1.0000121
1.0000121
1.0000121
1.000012
1.0000118
1.0000117
1.0000116
1.0000115
1.0000114
1.0000114
1.0000113
1.0000112
1.0000115
1.0000116
1.0000115
1.0000114
1.0000114
1.0000114
1.0000113
1.0000116
1.0000115
1.0000115
1.000012
1.0000111
1.0000111
1.0000887
1.0000887
1.0000887
1.0000887
1.0000888
1.0000888
1.0000888
1.0000888
1.0000889
1.0000889
1.0000889
1.000089
1.000089
1.000089
1.000089
1.0000891
1.0000891
1.0000891
1.0000892
1.0000892
1.0000892
1.0000892
1.0000893
1.0000893
1.0000893
1.0000893
1.0000893
1.0000894
1.0000894
1.0000894
1.0000894
1.0000894
1.0000894
1.0000895
1.0000895
1.0000895
1.0000895
1.0000895
1.0000895
1.0000895
1.0000895
1.0000895
1.0000895
1.0000895
1.0000895
1.0000895
1.0000895
1.0000895
1.0000895
1.0000895
1.0000895
1.0000896
1.0000897
1.00009
1.0000904
1.0000914
1.0000932
1.0000965
1.0001009
1.0000809
1.0000809
1.000081
1.000081
1.000081
1.000081
1.0000811
1.0000811
1.0000811
1.0000811
1.0000812
1.0000812
1.0000812
1.0000812
1.0000812
1.0000813
1.0000813
1.0000813
1.0000813
1.0000814
1.0000814
1.0000814
1.0000814
1.0000814
1.0000815
1.0000815
1.0000815
1.0000815
1.0000815
1.0000815
1.0000816
1.0000816
1.0000816
1.0000816
1.0000816
1.0000816
1.0000816
1.0000816
1.0000816
1.0000816
1.0000816
1.0000816
1.0000816
1.0000816
1.0000817
1.0000817
1.0000817
1.0000817
1.0000817
1.0000817
1.0000817
1.0000817
1.0000818
1.000082
1.0000825
1.0000834
1.000085
1.000088
1.000092
1.0000737
1.0000738
1.0000738
1.0000738
1.0000738
1.0000738
1.0000739
1.0000739
1.0000739
1.0000739
1.0000739
1.000074
1.000074
1.000074
1.000074
1.000074
1.0000741
1.0000741
1.0000741
1.0000741
1.0000741
1.0000742
1.0000742
1.0000742
1.0000742
1.0000742
1.0000742
1.0000742
1.0000743
1.0000743
1.0000743
1.0000743
1.0000743
1.0000743
1.0000743
1.0000743
1.0000743
1.0000743
1.0000743
1.0000743
1.0000743
1.0000743
1.0000743
1.0000743
1.0000744
1.0000744
1.0000744
1.0000744
1.0000744
1.0000743
1.0000744
1.0000744
1.0000745
1.0000747
1.0000751
1.0000759
1.0000774
1.0000801
1.0000838
1.000067
1.000067
1.0000671
1.0000671
1.0000671
1.0000671
1.0000671
1.0000671
1.0000672
1.0000672
1.0000672
1.0000672
1.0000672
1.0000672
1.0000673
1.0000673
1.0000673
1.0000673
1.0000673
1.0000673
1.0000674
1.0000674
1.0000674
1.0000674
1.0000674
1.0000674
1.0000674
1.0000674
1.0000675
1.0000675
1.0000675
1.0000675
1.0000675
1.0000675
1.0000675
1.0000675
1.0000675
1.0000675
1.0000675
1.0000675
1.0000675
1.0000675
1.0000675
1.0000675
1.0000675
1.0000675
1.0000675
1.0000675
1.0000675
1.0000675
1.0000675
1.0000675
1.0000676
1.0000678
1.0000681
1.0000689
1.0000702
1.0000727
1.0000761
1.0000608
1.0000608
1.0000608
1.0000608
1.0000609
1.0000609
1.0000609
1.0000609
1.0000609
1.0000609
1.0000609
1.000061
1.000061
1.000061
1.000061
1.000061
1.000061
1.0000611
1.0000611
1.0000611
1.0000611
1.0000611
1.0000611
1.0000611
1.0000611
1.0000611
1.0000611
1.0000612
1.0000612
1.0000612
1.0000612
1.0000612
1.0000612
1.0000612
1.0000612
1.0000612
1.0000612
1.0000612
1.0000612
1.0000612
1.0000612
1.0000612
1.0000612
1.0000612
1.0000612
1.0000612
1.0000612
1.0000612
1.0000612
1.0000612
1.0000612
1.0000612
1.0000613
1.0000614
1.0000617
1.0000624
1.0000636
1.0000659
1.0000689
1.000055
1.000055
1.000055
1.0000551
1.0000551
1.0000551
1.0000551
1.0000551
1.0000551
1.0000551
1.0000551
1.0000552
1.0000552
1.0000552
1.0000552
1.0000552
1.0000552
1.0000552
1.0000552
1.0000552
1.0000553
1.0000553
1.0000553
1.0000553
1.0000553
1.0000553
1.0000553
1.0000553
1.0000553
1.0000553
1.0000553
1.0000554
1.0000554
1.0000554
1.0000554
1.0000554
1.0000554
1.0000554
1.0000553
1.0000553
1.0000553
1.0000553
1.0000553
1.0000554
1.0000554
1.0000554
1.0000554
1.0000554
1.0000554
1.0000553
1.0000553
1.0000553
1.0000554
1.0000555
1.0000558
1.0000564
1.0000575
1.0000596
1.0000623
1.0000497
1.0000497
1.0000497
1.0000497
1.0000497
1.0000497
1.0000497
1.0000498
1.0000498
1.0000498
1.0000498
1.0000498
1.0000498
1.0000498
1.0000498
1.0000498
1.0000499
1.0000499
1.0000499
1.0000499
1.0000499
1.0000499
1.0000499
1.0000499
1.0000499
1.0000499
1.0000499
1.0000499
1.0000499
1.00005
1.00005
1.00005
1.00005
1.00005
1.00005
1.00005
1.00005
1.00005
1.00005
1.00005
1.0000499
1.0000499
1.00005
1.00005
1.00005
1.00005
1.00005
1.00005
1.00005
1.0000499
1.0000499
1.0000499
1.00005
1.0000501
1.0000503
1.0000508
1.0000518
1.0000537
1.0000562
1.0000448
1.0000448
1.0000448
1.0000448
1.0000448
1.0000448
1.0000448
1.0000448
1.0000448
1.0000448
1.0000449
1.0000449
1.0000449
1.0000449
1.0000449
1.0000449
1.0000449
1.0000449
1.0000449
1.0000449
1.0000449
1.000045
1.000045
1.000045
1.000045
1.000045
1.000045
1.000045
1.000045
1.000045
1.000045
1.000045
1.000045
1.000045
1.000045
1.000045
1.000045
1.000045
1.000045
1.000045
1.000045
1.000045
1.000045
1.000045
1.000045
1.000045
1.000045
1.000045
1.000045
1.000045
1.000045
1.000045
1.000045
1.0000451
1.0000453
1.0000457
1.0000466
1.0000483
1.0000506
1.0000402
1.0000403
1.0000403
1.0000403
1.0000403
1.0000403
1.0000403
1.0000403
1.0000403
1.0000403
1.0000403
1.0000403
1.0000403
1.0000404
1.0000404
1.0000404
1.0000404
1.0000404
1.0000404
1.0000404
1.0000404
1.0000404
1.0000404
1.0000404
1.0000404
1.0000404
1.0000404
1.0000404
1.0000405
1.0000405
1.0000405
1.0000405
1.0000405
1.0000405
1.0000405
1.0000405
1.0000405
1.0000405
1.0000405
1.0000404
1.0000404
1.0000404
1.0000404
1.0000404
1.0000404
1.0000404
1.0000404
1.0000404
1.0000404
1.0000404
1.0000404
1.0000404
1.0000404
1.0000405
1.0000406
1.000041
1.0000418
1.0000433
1.0000454
1.0000361
1.0000361
1.0000361
1.0000361
1.0000361
1.0000361
1.0000362
1.0000362
1.0000362
1.0000362
1.0000362
1.0000362
1.0000362
1.0000362
1.0000362
1.0000362
1.0000362
1.0000363
1.0000363
1.0000363
1.0000363
1.0000363
1.0000363
1.0000363
1.0000363
1.0000363
1.0000363
1.0000363
1.0000363
1.0000363
1.0000363
1.0000363
1.0000363
1.0000363
1.0000363
1.0000363
1.0000363
1.0000363
1.0000363
1.0000363
1.0000363
1.0000363
1.0000363
1.0000363
1.0000363
1.0000363
1.0000363
1.0000363
1.0000363
1.0000363
1.0000363
1.0000362
1.0000363
1.0000363
1.0000364
1.0000367
1.0000374
1.0000388
1.0000407
1.0000323
1.0000324
1.0000324
1.0000324
1.0000324
1.0000324
1.0000324
1.0000324
1.0000324
1.0000324
1.0000324
1.0000324
1.0000324
1.0000324
1.0000325
1.0000325
1.0000325
1.0000325
1.0000325
1.0000325
1.0000325
1.0000325
1.0000325
1.0000325
1.0000325
1.0000325
1.0000325
1.0000325
1.0000325
1.0000325
1.0000325
1.0000325
1.0000325
1.0000325
1.0000325
1.0000325
1.0000325
1.0000325
1.0000325
1.0000325
1.0000325
1.0000325
1.0000325
1.0000325
1.0000325
1.0000325
1.0000325
1.0000325
1.0000325
1.0000325
1.0000325
1.0000325
1.0000325
1.0000325
1.0000326
1.0000328
1.0000335
1.0000347
1.0000364
1.0000289
1.0000289
1.0000289
1.0000289
1.0000289
1.0000289
1.000029
1.000029
1.000029
1.000029
1.000029
1.000029
1.000029
1.000029
1.000029
1.000029
1.000029
1.000029
1.000029
1.000029
1.000029
1.0000291
1.0000291
1.0000291
1.0000291
1.0000291
1.0000291
1.0000291
1.0000291
1.0000291
1.0000291
1.0000291
1.0000291
1.0000291
1.0000291
1.0000291
1.0000291
1.0000291
1.0000291
1.0000291
1.0000291
1.000029
1.000029
1.000029
1.000029
1.000029
1.000029
1.000029
1.000029
1.000029
1.000029
1.000029
1.000029
1.000029
1.0000291
1.0000293
1.0000298
1.0000309
1.0000325
1.0000258
1.0000258
1.0000258
1.0000258
1.0000258
1.0000258
1.0000259
1.0000259
1.0000259
1.0000259
1.0000259
1.0000259
1.0000259
1.0000259
1.0000259
1.0000259
1.0000259
1.0000259
1.0000259
1.0000259
1.0000259
1.0000259
1.000026
1.000026
1.000026
1.000026
1.000026
1.000026
1.000026
1.000026
1.000026
1.000026
1.000026
1.000026
1.000026
1.000026
1.000026
1.000026
1.000026
1.000026
1.0000259
1.0000259
1.0000259
1.0000259
1.0000259
1.0000259
1.0000259
1.0000259
1.0000259
1.0000259
1.0000259
1.0000259
1.0000259
1.0000259
1.0000259
1.0000261
1.0000265
1.0000275
1.000029
1.0000231
1.0000231
1.0000231
1.0000231
1.0000231
1.0000232
1.0000232
1.0000232
1.0000232
1.0000232
1.0000232
1.0000232
1.0000232
1.0000232
1.0000232
1.0000232
1.0000232
1.0000232
1.0000232
1.0000232
1.0000232
1.0000233
1.0000233
1.0000233
1.0000233
1.0000233
1.0000233
1.0000233
1.0000233
1.0000233
1.0000233
1.0000233
1.0000233
1.0000233
1.0000233
1.0000233
1.0000233
1.0000233
1.0000233
1.0000233
1.0000232
1.0000232
1.0000232
1.0000232
1.0000232
1.0000232
1.0000232
1.0000232
1.0000232
1.0000232
1.0000232
1.0000232
1.0000232
1.0000232
1.0000232
1.0000233
1.0000237
1.0000245
1.0000259
1.0001114
1.0001244
1.0001389
1.0001548
1.0001723
1.0001913
1.0002122
1.0002349
1.0002595
1.0002862
1.0003151
1.0003461
1.0003792
1.0004146
1.000452
1.0004913
1.0005324
1.0005749
1.0006185
1.0006626
1.0007067
1.0007501
1.0007918
1.0008309
1.0008667
1.0008978
1.0009233
1.0009422
1.0009538
1.0009572
1.0009526
1.0009389
1.0009165
1.0008856
1.0008471
1.0008002
1.0007477
1.0006901
1.0006279
1.0005618
1.0004936
1.0004234
1.0003516
1.0002799
1.0002091
1.0001397
1.0000719
1.0000059
0.99994242
0.99988184
0.99982366
0.99976805
0.99971519
0.9996648
0.99961678
0.99957147
0.99952877
0.99948857
0.99945079
0.99941533
0.99938209
0.99935097
0.99932184
0.99929473
0.99926956
0.99924601
0.99922399
0.99920345
0.99918431
0.99916647
0.99914988
0.99913444
0.9991201
0.99910669
1.0001067
1.0001192
1.0001334
1.0001489
1.0001659
1.0001845
1.0002049
1.000227
1.0002511
1.0002772
1.0003054
1.0003356
1.0003681
1.0004026
1.0004393
1.0004779
1.0005182
1.0005601
1.000603
1.0006466
1.0006903
1.0007333
1.0007749
1.0008142
1.0008502
1.0008819
1.0009082
1.0009285
1.0009414
1.0009466
1.0009441
1.0009328
1.0009131
1.0008851
1.0008497
1.0008067
1.0007572
1.0007025
1.0006435
1.0005811
1.0005163
1.0004496
1.0003817
1.0003134
1.0002456
1.0001787
1.0001133
1.0000493
0.9999884
0.99992932
0.99987238
0.99981774
0.99976592
0.99971609
0.99966863
0.99962406
0.99958243
0.99954333
0.99950659
0.9994721
0.99943975
0.99940944
0.99938106
0.99935467
0.99933017
0.99930721
0.99928571
0.99926566
0.99924696
0.99922953
0.9992133
0.99919818
0.99918413
0.99917098
1.0001031
1.0001153
1.000129
1.000144
1.0001606
1.0001787
1.0001985
1.00022
1.0002434
1.0002688
1.0002962
1.0003257
1.0003572
1.0003909
1.0004266
1.0004641
1.0005035
1.0005443
1.0005863
1.0006289
1.0006716
1.0007138
1.0007547
1.0007933
1.0008289
1.0008604
1.0008868
1.0009075
1.000921
1.0009273
1.0009261
1.0009165
1.0008988
1.0008732
1.0008404
1.0008006
1.0007545
1.0007032
1.0006477
1.0005888
1.0005275
1.0004644
1.0004002
1.0003357
1.0002716
1.0002083
1.0001463
1.0000858
1.0000274
0.99997138
0.99991751
0.99986579
0.99981656
0.99976965
0.99972498
0.99968283
0.9996431
0.99960568
0.99957047
0.99953742
0.99950641
0.99947736
0.99945011
0.99942517
0.99940211
0.99938036
0.99935984
0.99934062
0.99932252
0.99930551
0.99928965
0.99927491
0.99926124
0.99924842
1.0001011
1.0001129
1.0001263
1.000141
1.0001571
1.0001748
1.0001941
1.0002151
1.000238
1.0002627
1.0002894
1.0003182
1.000349
1.0003818
1.0004166
1.0004532
1.0004916
1.0005314
1.0005722
1.0006138
1.0006554
1.0006966
1.0007364
1.0007741
1.0008088
1.0008395
1.0008653
1.0008855
1.0008988
1.000905
1.0009041
1.000895
1.000878
1.0008534
1.0008218
1.0007836
1.0007393
1.0006901
1.0006368
1.0005803
1.0005214
1.0004609
1.0003993
1.0003375
1.0002761
1.0002156
1.0001563
1.0000985
1.0000426
0.99998902
0.99993751
0.99988811
0.99984106
0.99979629
0.9997537
0.99971349
0.99967558
0.99963987
0.99960625
0.99957504
0.99954575
0.99951827
0.99949243
0.99946809
0.99944542
0.99942416
0.99940428
0.99938575
0.99936845
0.99935233
0.99933739
0.99932352
0.9993106
0.9992985
1.0001
1.0001116
1.0001248
1.0001392
1.000155
1.0001723
1.0001913
1.0002119
1.0002343
1.0002586
1.0002848
1.000313
1.0003431
1.0003753
1.0004093
1.0004452
1.0004827
1.0005216
1.0005616
1.0006021
1.0006428
1.0006829
1.0007216
1.0007583
1.000792
1.0008218
1.0008466
1.0008659
1.0008785
1.0008841
1.0008826
1.0008732
1.000856
1.0008314
1.0007999
1.000762
1.0007181
1.0006696
1.0006171
1.0005615
1.0005037
1.0004442
1.0003839
1.0003234
1.0002634
1.0002042
1.0001464
1.00009
1.0000356
0.99998337
0.99993323
0.99988519
0.99983944
0.99979594
0.99975462
0.99971559
0.99967882
0.9996442
0.99961164
0.99958107
0.99955241
0.99952555
0.99950041
0.99947695
0.99945509
0.99943466
0.99941557
0.99939772
0.99938107
0.99936555
0.9993511
0.99933763
0.99932506
0.99931334
1.0000994
1.0001109
1.0001239
1.0001382
1.0001538
1.0001709
1.0001896
1.0002099
1.000232
1.0002559
1.0002817
1.0003095
1.0003391
1.0003708
1.0004043
1.0004395
1.0004764
1.0005146
1.0005538
1.0005935
1.0006333
1.0006725
1.0007104
1.0007461
1.0007789
1.0008077
1.0008316
1.00085
1.0008617
1.0008664
1.0008642
1.000854
1.0008362
1.0008111
1.0007791
1.0007408
1.0006968
1.000648
1.0005954
1.0005398
1.000482
1.0004228
1.0003627
1.0003024
1.0002427
1.0001839
1.0001265
1.0000705
1.0000166
0.99996478
0.9999151
0.99986754
0.99982226
0.99977924
0.99973841
0.99969984
0.99966352
0.99962932
0.99959718
0.999567
0.99953871
0.99951222
0.99948743
0.9994643
0.99944273
0.99942258
0.99940373
0.99938613
0.9993697
0.99935437
0.99934009
0.99932678
0.99931439
0.99930282
1.0000991
1.0001105
1.0001234
1.0001375
1.000153
1.00017
1.0001885
1.0002086
1.0002305
1.0002542
1.0002797
1.0003071
1.0003365
1.0003677
1.0004008
1.0004356
1.0004719
1.0005096
1.0005482
1.0005873
1.0006264
1.0006649
1.000702
1.000737
1.000769
1.0007969
1.00082
1.0008376
1.0008485
1.0008525
1.0008495
1.0008386
1.0008201
1.0007943
1.0007617
1.0007228
1.0006782
1.000629
1.000576
1.00052
1.0004619
1.0004023
1.000342
1.0002815
1.0002217
1.0001627
1.0001051
1.0000492
0.99999511
0.99994325
0.99989353
0.99984596
0.99980067
0.99975766
0.99971687
0.99967834
0.99964205
0.99960789
0.99957579
0.99954566
0.99951743
0.99949099
0.99946626
0.99944316
0.9994216
0.99940147
0.99938267
0.99936512
0.99934876
0.9993335
0.99931928
0.99930603
0.99929367
0.99928213
1.0000989
1.0001103
1.0001231
1.0001372
1.0001526
1.0001694
1.0001878
1.0002078
1.0002295
1.000253
1.0002783
1.0003055
1.0003346
1.0003656
1.0003984
1.0004328
1.0004688
1.000506
1.0005442
1.0005829
1.0006215
1.0006594
1.000696
1.0007303
1.0007617
1.000789
1.0008115
1.0008284
1.0008386
1.000842
1.0008383
1.0008268
1.0008077
1.0007813
1.0007482
1.0007088
1.0006637
1.000614
1.0005605
1.0005041
1.0004456
1.0003857
1.000325
1.0002643
1.0002041
1.0001449
1.0000871
1.0000308
0.99997659
0.99992451
0.9998746
0.99982687
0.99978143
0.99973828
0.99969739
0.99965876
0.99962236
0.99958812
0.99955593
0.99952573
0.99949743
0.99947092
0.99944614
0.99942298
0.99940137
0.99938118
0.99936234
0.99934475
0.99932834
0.99931303
0.99929876
0.99928545
0.99927305
0.99926147
1.0000988
1.0001102
1.000123
1.000137
1.0001523
1.0001691
1.0001874
1.0002073
1.0002289
1.0002523
1.0002775
1.0003045
1.0003334
1.0003642
1.0003967
1.0004309
1.0004666
1.0005035
1.0005414
1.0005797
1.0006179
1.0006555
1.0006916
1.0007255
1.0007564
1.0007833
1.0008052
1.0008217
1.0008314
1.0008343
1.0008302
1.0008182
1.0007986
1.0007719
1.0007383
1.0006985
1.000653
1.000603
1.0005492
1.0004924
1.0004336
1.0003734
1.0003124
1.0002514
1.000191
1.0001316
1.0000735
1.0000171
0.99996271
0.99991043
0.99986034
0.99981246
0.99976688
0.99972361
0.99968261
0.99964388
0.99960738
0.99957304
0.99954077
0.99951049
0.99948212
0.99945555
0.9994307
0.99940748
0.9993858
0.99936556
0.99934666
0.99932903
0.99931258
0.99929725
0.99928296
0.99926963
0.99925722
0.99924561
1.0000988
1.0001101
1.0001229
1.0001369
1.0001522
1.0001689
1.0001872
1.000207
1.0002285
1.0002518
1.0002769
1.0003038
1.0003326
1.0003632
1.0003955
1.0004296
1.0004651
1.0005018
1.0005394
1.0005774
1.0006154
1.0006526
1.0006884
1.000722
1.0007526
1.0007791
1.0008008
1.0008169
1.0008263
1.0008288
1.0008244
1.0008121
1.0007923
1.0007652
1.0007314
1.0006913
1.0006456
1.0005953
1.0005413
1.0004843
1.0004253
1.0003649
1.0003038
1.0002426
1.000182
1.0001225
1.0000643
1.0000078
0.99995322
0.99990081
0.9998506
0.99980262
0.99975694
0.99971359
0.99967252
0.99963373
0.99959717
0.99956277
0.99953045
0.99950012
0.99947169
0.99944508
0.99942019
0.99939693
0.99937521
0.99935492
0.99933599
0.99931833
0.99930185
0.99928649
0.99927216
0.99925879
0.99924634
0.9992347
1.0000988
1.0001101
1.0001229
1.0001368
1.0001521
1.0001688
1.000187
1.0002068
1.0002283
1.0002515
1.0002765
1.0003033
1.000332
1.0003625
1.0003947
1.0004286
1.000464
1.0005005
1.0005379
1.0005758
1.0006136
1.0006506
1.0006862
1.0007196
1.0007499
1.0007762
1.0007976
1.0008136
1.0008228
1.0008251
1.0008205
1.000808
1.000788
1.0007608
1.0007268
1.0006866
1.0006408
1.0005904
1.0005362
1.0004792
1.00042
1.0003595
1.0002983
1.000237
1.0001764
1.0001167
1.0000585
1.0000019
0.99994724
0.99989475
0.99984446
0.99979642
0.99975069
0.99970728
0.99966618
0.99962735
0.99959075
0.99955631
0.99952396
0.99949359
0.99946514
0.9994385
0.99941359
0.9993903
0.99936855
0.99934824
0.99932928
0.9993116
0.99929511
0.99927973
0.99926539
0.99925202
0.99923956
0.99922791
1.0000988
1.0001101
1.0001228
1.0001368
1.000152
1.0001687
1.0001869
1.0002066
1.0002281
1.0002512
1.0002762
1.000303
1.0003316
1.000362
1.0003942
1.000428
1.0004632
1.0004996
1.0005369
1.0005746
1.0006123
1.0006492
1.0006846
1.0007178
1.000748
1.0007742
1.0007955
1.0008113
1.0008203
1.0008225
1.0008179
1.0008054
1.0007853
1.0007581
1.0007241
1.0006838
1.000638
1.0005875
1.0005333
1.0004762
1.000417
1.0003564
1.0002952
1.0002339
1.0001732
1.0001135
1.0000552
0.99999861
0.99994393
0.99989137
0.99984103
0.99979295
0.99974718
0.99970374
0.99966261
0.99962376
0.99958714
0.99955268
0.9995203
0.99948992
0.99946145
0.99943479
0.99940986
0.99938655
0.99936478
0.99934445
0.99932548
0.99930779
0.99929128
0.99927588
0.99926153
0.99924814
0.99923566
0.999224
1.0000988
1.0001101
1.0001228
1.0001368
1.000152
1.0001687
1.0001868
1.0002066
1.000228
1.0002511
1.000276
1.0003027
1.0003313
1.0003616
1.0003937
1.0004275
1.0004626
1.000499
1.0005362
1.0005738
1.0006114
1.0006482
1.0006835
1.0007166
1.0007468
1.0007729
1.0007941
1.0008099
1.0008188
1.000821
1.0008165
1.000804
1.0007839
1.0007567
1.0007227
1.0006825
1.0006367
1.0005863
1.0005322
1.0004751
1.0004158
1.0003553
1.000294
1.0002327
1.000172
1.0001123
1.000054
0.99999732
0.99994261
0.99989001
0.99983963
0.99979152
0.99974572
0.99970226
0.99966111
0.99962225
0.99958561
0.99955113
0.99951874
0.99948834
0.99945985
0.99943318
0.99940823
0.9993849
0.99936312
0.99934278
0.99932379
0.99930608
0.99928956
0.99927416
0.99925979
0.9992464
0.99923391
0.99922224
1.0000988
1.0001101
1.0001228
1.0001368
1.000152
1.0001686
1.0001868
1.0002065
1.0002279
1.000251
1.0002758
1.0003025
1.0003311
1.0003614
1.0003934
1.0004271
1.0004622
1.0004985
1.0005357
1.0005732
1.0006107
1.0006474
1.0006827
1.0007158
1.0007459
1.000772
1.0007932
1.0008091
1.0008181
1.0008204
1.0008159
1.0008035
1.0007835
1.0007564
1.0007226
1.0006825
1.0006368
1.0005865
1.0005324
1.0004754
1.0004162
1.0003556
1.0002944
1.0002331
1.0001724
1.0001127
1.0000543
0.99999768
0.99994294
0.99989031
0.99983988
0.99979174
0.99974592
0.99970243
0.99966126
0.99962237
0.99958571
0.99955121
0.99951879
0.99948837
0.99945987
0.99943317
0.9994082
0.99938486
0.99936306
0.9993427
0.9993237
0.99930597
0.99928944
0.99927401
0.99925963
0.99924622
0.99923372
0.99922204
1.0000988
1.0001101
1.0001228
1.0001367
1.000152
1.0001686
1.0001867
1.0002064
1.0002278
1.0002509
1.0002757
1.0003024
1.0003309
1.0003612
1.0003932
1.0004268
1.0004619
1.0004982
1.0005353
1.0005728
1.0006102
1.0006469
1.0006822
1.0007153
1.0007454
1.0007715
1.0007928
1.0008088
1.0008177
1.0008203
1.000816
1.0008038
1.000784
1.0007571
1.0007235
1.0006835
1.0006381
1.0005879
1.0005339
1.000477
1.0004179
1.0003574
1.0002962
1.000235
1.0001742
1.0001145
1.0000562
0.99999946
0.99994469
0.99989202
0.99984155
0.99979337
0.99974751
0.99970399
0.99966278
0.99962386
0.99958717
0.99955265
0.9995202
0.99948976
0.99946122
0.9994345
0.99940951
0.99938614
0.99936432
0.99934394
0.99932491
0.99930717
0.99929061
0.99927518
0.99926078
0.99924735
0.99923484
0.99922314
1.0000988
1.0001101
1.0001228
1.0001367
1.0001519
1.0001686
1.0001867
1.0002064
1.0002277
1.0002508
1.0002757
1.0003023
1.0003308
1.000361
1.000393
1.0004266
1.0004616
1.0004979
1.0005349
1.0005724
1.0006098
1.0006465
1.0006818
1.0007149
1.000745
1.0007713
1.0007926
1.0008088
1.0008177
1.0008207
1.0008167
1.0008048
1.0007853
1.0007587
1.0007253
1.0006857
1.0006405
1.0005905
1.0005367
1.0004799
1.0004209
1.0003605
1.0002994
1.0002382
1.0001775
1.0001177
1.0000594
1.0000026
0.99994784
0.99989512
0.99984461
0.99979638
0.99975047
0.99970691
0.99966566
0.9996267
0.99958997
0.9995554
0.99952292
0.99949244
0.99946387
0.99943712
0.99941209
0.9993887
0.99936684
0.99934643
0.99932738
0.99930961
0.99929304
0.99927758
0.99926316
0.99924971
0.99923718
0.99922547
1.0000988
1.0001101
1.0001228
1.0001367
1.0001519
1.0001686
1.0001867
1.0002064
1.0002277
1.0002507
1.0002756
1.0003022
1.0003306
1.0003609
1.0003928
1.0004264
1.0004614
1.0004976
1.0005346
1.0005721
1.0006095
1.0006462
1.0006815
1.0007147
1.0007449
1.0007712
1.0007928
1.0008091
1.0008186
1.0008217
1.0008179
1.0008064
1.0007873
1.0007611
1.0007281
1.0006888
1.000644
1.0005943
1.0005408
1.0004842
1.0004253
1.000365
1.000304
1.0002428
1.0001822
1.0001224
1.000064
1.0000073
0.99995245
0.99989968
0.99984911
0.99980082
0.99975486
0.99971123
0.99966993
0.99963092
0.99959413
0.99955951
0.99952698
0.99949645
0.99946783
0.99944103
0.99941596
0.99939252
0.99937063
0.99935018
0.9993311
0.99931329
0.99929669
0.9992812
0.99926675