/*--------------------------------*- C++ -*----------------------------------*\
| =========                 |                                                 |
| \\      /  F ield         | OpenFOAM: The Open Source CFD Toolbox           |
|  \\    /   O peration     | Version:  v2006                                 |
|   \\  /    A nd           | Website:  www.openfoam.com                      |
|    \\/     M anipulation  |                                                 |
\*---------------------------------------------------------------------------*/
FoamFile
{
    version     2.0;
    format      ascii;
    class       volScalarField;
    location    "2000";
    object      T;
}
// * * * * * * * * * * * * * * * * * * * * * * * * * * * * * * * * * * * * * //

dimensions      [0 0 0 1 0 0 0];


internalField   nonuniform List<scalar> 
55713
(
1.0000065
1.0000078
1.0000085
1.0000088
1.0000089
1.0000089
1.0000089
1.0000089
1.0000088
1.0000088
1.0000088
1.0000089
1.0000089
1.0000089
1.0000089
1.0000089
1.0000089
1.0000088
1.0000088
1.0000088
1.0000088
1.0000088
1.0000088
1.0000088
1.0000088
1.0000088
1.0000088
1.0000088
1.0000088
1.0000088
1.0000088
1.0000088
1.0000088
1.0000088
1.0000088
1.0000088
1.0000088
1.0000088
1.0000088
1.0000088
1.0000088
1.0000088
1.0000088
1.0000088
1.0000088
1.0000088
1.0000088
1.0000088
1.0000088
1.0000088
1.0000088
1.0000089
1.0000089
1.0000089
1.0000089
1.0000089
1.0000089
1.0000089
1.0000089
1.0000061
1.0000073
1.000008
1.0000082
1.0000083
1.0000083
1.0000082
1.0000082
1.0000082
1.0000082
1.0000082
1.0000082
1.0000082
1.0000082
1.0000082
1.0000082
1.0000082
1.0000082
1.0000082
1.0000082
1.0000081
1.0000081
1.0000082
1.0000082
1.0000082
1.0000082
1.0000082
1.0000082
1.0000082
1.0000082
1.0000082
1.0000082
1.0000082
1.0000082
1.0000082
1.0000082
1.0000082
1.0000082
1.0000082
1.0000082
1.0000082
1.0000082
1.0000082
1.0000082
1.0000082
1.0000082
1.0000082
1.0000082
1.0000082
1.0000082
1.0000082
1.0000082
1.0000082
1.0000083
1.0000083
1.0000083
1.0000083
1.0000083
1.0000083
1.0000058
1.0000069
1.0000075
1.0000077
1.0000077
1.0000077
1.0000077
1.0000077
1.0000077
1.0000077
1.0000077
1.0000077
1.0000077
1.0000077
1.0000077
1.0000077
1.0000077
1.0000076
1.0000076
1.0000076
1.0000076
1.0000076
1.0000076
1.0000076
1.0000076
1.0000076
1.0000076
1.0000076
1.0000076
1.0000076
1.0000076
1.0000076
1.0000076
1.0000076
1.0000076
1.0000077
1.0000077
1.0000077
1.0000077
1.0000077
1.0000077
1.0000077
1.0000077
1.0000077
1.0000077
1.0000077
1.0000077
1.0000077
1.0000077
1.0000077
1.0000077
1.0000077
1.0000077
1.0000077
1.0000077
1.0000077
1.0000077
1.0000077
1.0000077
1.0000056
1.0000066
1.0000071
1.0000072
1.0000072
1.0000072
1.0000072
1.0000072
1.0000072
1.0000072
1.0000072
1.0000072
1.0000072
1.0000072
1.0000072
1.0000072
1.0000072
1.0000072
1.0000071
1.0000071
1.0000071
1.0000071
1.0000071
1.0000071
1.0000071
1.0000071
1.0000071
1.0000071
1.0000071
1.0000071
1.0000071
1.0000071
1.0000071
1.0000072
1.0000072
1.0000072
1.0000072
1.0000072
1.0000072
1.0000072
1.0000072
1.0000072
1.0000072
1.0000072
1.0000072
1.0000072
1.0000072
1.0000072
1.0000072
1.0000072
1.0000072
1.0000072
1.0000072
1.0000072
1.0000073
1.0000073
1.0000073
1.0000073
1.0000073
1.0000053
1.0000063
1.0000067
1.0000068
1.0000068
1.0000068
1.0000068
1.0000068
1.0000068
1.0000068
1.0000068
1.0000068
1.0000068
1.0000068
1.0000068
1.0000068
1.0000067
1.0000067
1.0000067
1.0000067
1.0000067
1.0000067
1.0000067
1.0000067
1.0000067
1.0000067
1.0000067
1.0000067
1.0000067
1.0000067
1.0000067
1.0000067
1.0000067
1.0000067
1.0000068
1.0000068
1.0000068
1.0000068
1.0000068
1.0000068
1.0000068
1.0000068
1.0000068
1.0000068
1.0000068
1.0000067
1.0000067
1.0000067
1.0000067
1.0000068
1.0000068
1.0000068
1.0000068
1.0000068
1.0000068
1.0000069
1.0000068
1.0000068
1.0000068
1.0000052
1.0000061
1.0000064
1.0000065
1.0000065
1.0000065
1.0000064
1.0000064
1.0000064
1.0000064
1.0000064
1.0000064
1.0000064
1.0000064
1.0000064
1.0000064
1.0000064
1.0000064
1.0000063
1.0000063
1.0000064
1.0000064
1.0000064
1.0000064
1.0000064
1.0000064
1.0000064
1.0000064
1.0000064
1.0000064
1.0000064
1.0000064
1.0000064
1.0000064
1.0000064
1.0000064
1.0000064
1.0000064
1.0000064
1.0000064
1.0000064
1.0000064
1.0000064
1.0000064
1.0000064
1.0000064
1.0000064
1.0000064
1.0000064
1.0000064
1.0000064
1.0000065
1.0000065
1.0000065
1.0000065
1.0000065
1.0000065
1.0000065
1.0000065
1.000005
1.0000059
1.0000061
1.0000062
1.0000062
1.0000061
1.0000061
1.0000061
1.0000061
1.0000061
1.0000061
1.0000061
1.0000061
1.0000061
1.0000061
1.0000061
1.0000061
1.000006
1.000006
1.000006
1.0000061
1.0000061
1.0000061
1.0000061
1.0000061
1.0000061
1.0000061
1.0000061
1.0000061
1.0000061
1.0000061
1.0000061
1.0000061
1.0000061
1.0000061
1.0000061
1.0000061
1.0000061
1.0000061
1.0000061
1.0000061
1.0000061
1.0000061
1.0000061
1.0000061
1.0000061
1.0000061
1.000006
1.0000061
1.0000061
1.0000061
1.0000061
1.0000062
1.0000062
1.0000062
1.0000062
1.0000062
1.0000062
1.0000062
1.0000049
1.0000057
1.0000059
1.0000059
1.0000059
1.0000059
1.0000059
1.0000059
1.0000059
1.0000059
1.0000059
1.0000059
1.0000059
1.0000059
1.0000058
1.0000058
1.0000058
1.0000058
1.0000058
1.0000058
1.0000058
1.0000058
1.0000058
1.0000058
1.0000058
1.0000058
1.0000058
1.0000058
1.0000058
1.0000058
1.0000058
1.0000058
1.0000058
1.0000058
1.0000058
1.0000058
1.0000058
1.0000058
1.0000058
1.0000058
1.0000058
1.0000058
1.0000058
1.0000058
1.0000058
1.0000058
1.0000058
1.0000058
1.0000058
1.0000058
1.0000058
1.0000059
1.0000059
1.0000059
1.0000059
1.0000059
1.0000059
1.0000059
1.0000059
1.0000049
1.0000056
1.0000057
1.0000057
1.0000057
1.0000057
1.0000057
1.0000057
1.0000057
1.0000057
1.0000057
1.0000057
1.0000057
1.0000057
1.0000056
1.0000056
1.0000056
1.0000056
1.0000056
1.0000056
1.0000056
1.0000056
1.0000056
1.0000056
1.0000056
1.0000056
1.0000056
1.0000056
1.0000056
1.0000056
1.0000056
1.0000056
1.0000056
1.0000056
1.0000056
1.0000056
1.0000056
1.0000056
1.0000056
1.0000056
1.0000056
1.0000057
1.0000056
1.0000056
1.0000056
1.0000056
1.0000056
1.0000056
1.0000056
1.0000056
1.0000056
1.0000057
1.0000057
1.0000057
1.0000057
1.0000058
1.0000057
1.0000057
1.0000057
1.0000048
1.0000055
1.0000056
1.0000056
1.0000055
1.0000055
1.0000055
1.0000055
1.0000055
1.0000055
1.0000055
1.0000055
1.0000055
1.0000055
1.0000055
1.0000054
1.0000054
1.0000054
1.0000054
1.0000055
1.0000055
1.0000055
1.0000055
1.0000054
1.0000054
1.0000054
1.0000054
1.0000054
1.0000054
1.0000054
1.0000054
1.0000054
1.0000054
1.0000054
1.0000054
1.0000055
1.0000055
1.0000055
1.0000055
1.0000055
1.0000055
1.0000055
1.0000055
1.0000055
1.0000054
1.0000054
1.0000054
1.0000054
1.0000055
1.0000055
1.0000055
1.0000055
1.0000055
1.0000056
1.0000055
1.0000056
1.0000056
1.0000055
1.0000055
1.0000047
1.0000052
1.0000052
1.0000053
1.0000052
1.0000052
1.0000052
1.0000053
1.0000052
1.0000052
1.0000052
1.0000052
1.0000052
1.0000052
1.0000051
1.0000051
1.0000051
1.0000051
1.0000051
1.0000052
1.0000052
1.0000052
1.0000051
1.0000051
1.0000051
1.0000051
1.0000051
1.0000051
1.0000051
1.0000051
1.0000051
1.0000051
1.0000051
1.0000051
1.0000051
1.0000051
1.0000051
1.0000051
1.0000051
1.0000051
1.0000051
1.0000052
1.0000052
1.0000052
1.0000051
1.0000051
1.0000051
1.0000051
1.0000051
1.0000052
1.0000051
1.0000051
1.0000052
1.0000053
1.0000053
1.0000053
1.0000053
1.0000052
1.0000052
1.0000046
1.0000054
1.0000051
1.0000052
1.0000052
1.000005
1.0000053
1.0000053
1.000005
1.000005
1.000005
1.0000051
1.0000051
1.000005
1.000005
1.0000049
1.0000049
1.0000049
1.000005
1.000005
1.000005
1.000005
1.000005
1.0000049
1.0000049
1.0000049
1.0000049
1.0000049
1.0000049
1.0000049
1.0000049
1.0000049
1.0000049
1.0000049
1.0000049
1.0000049
1.000005
1.000005
1.000005
1.0000049
1.0000049
1.0000049
1.0000051
1.0000051
1.000005
1.000005
1.0000049
1.000005
1.000005
1.000005
1.000005
1.0000049
1.0000049
1.0000053
1.0000053
1.000005
1.0000053
1.000005
1.000005
1.0000059
1.0000064
1.000006
1.0000063
1.000006
1.000006
1.0000063
1.000006
1.000006
1.0000062
1.0000061
1.0000063
1.0000061
1.000006
1.000006
1.000006
1.0000061
1.0000061
1.0000061
1.0000062
1.0000062
1.0000062
1.0000061
1.0000061
1.0000061
1.0000061
1.0000061
1.0000061
1.0000061
1.0000061
1.0000061
1.0000061
1.0000061
1.0000061
1.0000061
1.0000061
1.0000061
1.0000062
1.0000062
1.0000061
1.000006
1.0000061
1.0000061
1.0000062
1.0000062
1.0000062
1.0000062
1.0000061
1.0000061
1.0000062
1.0000062
1.000006
1.000006
1.000006
1.0000063
1.000006
1.0000063
1.0000061
1.0000061
1.0000047
1.0000037
1.0000042
1.0000038
1.0000043
1.0000045
1.0000039
1.0000042
1.0000045
1.0000043
1.0000043
1.000004
1.0000041
1.0000042
1.0000043
1.0000044
1.0000043
1.0000042
1.0000041
1.0000038
1.0000037
1.0000037
1.0000037
1.0000037
1.0000037
1.0000037
1.0000037
1.0000037
1.0000037
1.0000037
1.0000037
1.0000037
1.0000037
1.0000037
1.0000037
1.0000037
1.0000037
1.0000037
1.0000038
1.0000039
1.0000041
1.0000042
1.0000042
1.0000043
1.0000046
1.0000047
1.0000046
1.0000048
1.0000048
1.0000046
1.0000046
1.0000046
1.0000045
1.0000038
1.0000037
1.0000042
1.0000038
1.0000046
1.0000046
1.0000359
1.000036
1.000036
1.000036
1.000036
1.000036
1.000036
1.000036
1.0000361
1.0000361
1.0000361
1.0000361
1.0000361
1.0000361
1.0000361
1.0000361
1.0000361
1.0000361
1.0000361
1.0000361
1.0000361
1.0000361
1.0000362
1.0000362
1.0000362
1.0000362
1.0000362
1.0000362
1.0000362
1.0000362
1.0000362
1.0000362
1.0000362
1.0000362
1.0000362
1.0000362
1.0000362
1.0000363
1.0000363
1.0000363
1.0000363
1.0000363
1.0000363
1.0000363
1.0000363
1.0000363
1.0000363
1.0000363
1.0000363
1.0000363
1.0000363
1.0000363
1.0000362
1.0000359
1.0000354
1.0000345
1.0000327
1.0000294
1.0000251
1.0000329
1.0000329
1.0000329
1.0000329
1.0000329
1.0000329
1.000033
1.000033
1.000033
1.000033
1.000033
1.000033
1.000033
1.000033
1.000033
1.000033
1.000033
1.000033
1.000033
1.000033
1.000033
1.000033
1.000033
1.0000331
1.0000331
1.0000331
1.0000331
1.0000331
1.0000331
1.0000331
1.0000331
1.0000331
1.0000331
1.0000331
1.0000331
1.0000331
1.0000331
1.0000331
1.0000332
1.0000332
1.0000332
1.0000332
1.0000332
1.0000332
1.0000332
1.0000332
1.0000332
1.0000332
1.0000332
1.0000332
1.0000332
1.0000332
1.0000331
1.0000328
1.0000324
1.0000315
1.0000298
1.0000269
1.0000229
1.00003
1.00003
1.00003
1.00003
1.00003
1.00003
1.0000301
1.0000301
1.0000301
1.0000301
1.0000301
1.0000301
1.0000301
1.0000301
1.0000301
1.0000301
1.0000301
1.0000301
1.0000301
1.0000301
1.0000301
1.0000301
1.0000301
1.0000301
1.0000301
1.0000301
1.0000301
1.0000301
1.0000301
1.0000301
1.0000301
1.0000301
1.0000301
1.0000301
1.0000301
1.0000301
1.0000301
1.0000302
1.0000302
1.0000302
1.0000302
1.0000302
1.0000302
1.0000302
1.0000302
1.0000302
1.0000302
1.0000302
1.0000303
1.0000303
1.0000303
1.0000302
1.0000302
1.00003
1.0000295
1.0000287
1.0000272
1.0000245
1.0000209
1.0000273
1.0000273
1.0000273
1.0000273
1.0000273
1.0000274
1.0000274
1.0000274
1.0000274
1.0000274
1.0000274
1.0000274
1.0000274
1.0000274
1.0000274
1.0000274
1.0000274
1.0000274
1.0000274
1.0000274
1.0000274
1.0000274
1.0000274
1.0000274
1.0000274
1.0000274
1.0000274
1.0000274
1.0000274
1.0000274
1.0000274
1.0000274
1.0000274
1.0000274
1.0000274
1.0000274
1.0000274
1.0000274
1.0000275
1.0000275
1.0000275
1.0000275
1.0000275
1.0000275
1.0000275
1.0000275
1.0000275
1.0000275
1.0000275
1.0000275
1.0000275
1.0000275
1.0000274
1.0000273
1.0000269
1.0000262
1.0000248
1.0000223
1.000019
1.0000248
1.0000248
1.0000248
1.0000248
1.0000248
1.0000248
1.0000249
1.0000249
1.0000249
1.0000249
1.0000249
1.0000249
1.0000249
1.0000249
1.0000249
1.0000249
1.0000248
1.0000248
1.0000248
1.0000249
1.0000249
1.0000249
1.0000249
1.0000249
1.0000249
1.0000249
1.0000249
1.0000249
1.0000249
1.0000249
1.0000249
1.0000249
1.0000249
1.0000249
1.0000249
1.0000249
1.0000249
1.0000249
1.0000249
1.0000249
1.0000249
1.0000249
1.0000249
1.0000249
1.0000249
1.000025
1.000025
1.000025
1.000025
1.000025
1.000025
1.000025
1.0000249
1.0000248
1.0000245
1.0000238
1.0000226
1.0000203
1.0000173
1.0000225
1.0000225
1.0000225
1.0000225
1.0000225
1.0000225
1.0000225
1.0000225
1.0000225
1.0000225
1.0000225
1.0000225
1.0000225
1.0000225
1.0000225
1.0000225
1.0000225
1.0000225
1.0000225
1.0000225
1.0000225
1.0000225
1.0000225
1.0000225
1.0000225
1.0000225
1.0000225
1.0000225
1.0000225
1.0000225
1.0000225
1.0000225
1.0000225
1.0000225
1.0000225
1.0000225
1.0000225
1.0000225
1.0000225
1.0000226
1.0000226
1.0000226
1.0000226
1.0000226
1.0000226
1.0000226
1.0000226
1.0000226
1.0000226
1.0000226
1.0000226
1.0000226
1.0000226
1.0000225
1.0000222
1.0000216
1.0000205
1.0000184
1.0000157
1.0000204
1.0000204
1.0000204
1.0000204
1.0000204
1.0000204
1.0000204
1.0000204
1.0000204
1.0000204
1.0000204
1.0000204
1.0000204
1.0000204
1.0000204
1.0000204
1.0000204
1.0000204
1.0000204
1.0000204
1.0000204
1.0000204
1.0000204
1.0000204
1.0000204
1.0000204
1.0000204
1.0000204
1.0000204
1.0000204
1.0000204
1.0000204
1.0000204
1.0000204
1.0000204
1.0000203
1.0000203
1.0000204
1.0000204
1.0000204
1.0000204
1.0000204
1.0000204
1.0000204
1.0000204
1.0000204
1.0000204
1.0000204
1.0000205
1.0000205
1.0000205
1.0000205
1.0000204
1.0000203
1.0000201
1.0000196
1.0000186
1.0000167
1.0000142
1.0000184
1.0000184
1.0000184
1.0000184
1.0000184
1.0000184
1.0000184
1.0000184
1.0000184
1.0000184
1.0000184
1.0000184
1.0000184
1.0000184
1.0000184
1.0000184
1.0000184
1.0000184
1.0000184
1.0000184
1.0000184
1.0000184
1.0000184
1.0000184
1.0000184
1.0000184
1.0000184
1.0000184
1.0000184
1.0000184
1.0000184
1.0000184
1.0000184
1.0000184
1.0000184
1.0000184
1.0000184
1.0000184
1.0000184
1.0000184
1.0000184
1.0000184
1.0000184
1.0000184
1.0000184
1.0000185
1.0000185
1.0000185
1.0000185
1.0000185
1.0000185
1.0000185
1.0000185
1.0000184
1.0000182
1.0000177
1.0000168
1.0000151
1.0000129
1.0000166
1.0000166
1.0000166
1.0000166
1.0000166
1.0000166
1.0000166
1.0000166
1.0000166
1.0000166
1.0000166
1.0000166
1.0000166
1.0000166
1.0000166
1.0000166
1.0000166
1.0000166
1.0000166
1.0000166
1.0000166
1.0000166
1.0000166
1.0000166
1.0000166
1.0000166
1.0000166
1.0000166
1.0000166
1.0000166
1.0000165
1.0000165
1.0000165
1.0000165
1.0000165
1.0000165
1.0000165
1.0000165
1.0000165
1.0000166
1.0000166
1.0000166
1.0000166
1.0000166
1.0000166
1.0000166
1.0000166
1.0000166
1.0000166
1.0000166
1.0000166
1.0000167
1.0000166
1.0000166
1.0000164
1.000016
1.0000152
1.0000137
1.0000116
1.0000149
1.0000149
1.0000149
1.0000149
1.0000149
1.0000149
1.0000149
1.0000149
1.0000149
1.0000149
1.0000149
1.0000149
1.0000149
1.0000149
1.0000149
1.0000149
1.0000149
1.0000149
1.0000149
1.0000149
1.0000149
1.0000149
1.0000149
1.0000149
1.0000149
1.0000149
1.0000149
1.0000149
1.0000149
1.0000149
1.0000149
1.0000149
1.0000149
1.0000149
1.0000149
1.0000149
1.0000149
1.0000149
1.0000149
1.0000149
1.0000149
1.0000149
1.0000149
1.000015
1.000015
1.000015
1.000015
1.000015
1.000015
1.000015
1.000015
1.000015
1.000015
1.0000149
1.0000148
1.0000145
1.0000138
1.0000124
1.0000105
1.0000134
1.0000134
1.0000134
1.0000134
1.0000134
1.0000134
1.0000134
1.0000134
1.0000134
1.0000134
1.0000134
1.0000134
1.0000134
1.0000134
1.0000134
1.0000134
1.0000134
1.0000134
1.0000134
1.0000134
1.0000134
1.0000134
1.0000134
1.0000134
1.0000134
1.0000134
1.0000134
1.0000134
1.0000134
1.0000134
1.0000134
1.0000134
1.0000134
1.0000134
1.0000133
1.0000133
1.0000133
1.0000133
1.0000133
1.0000134
1.0000134
1.0000134
1.0000134
1.0000134
1.0000134
1.0000134
1.0000134
1.0000134
1.0000134
1.0000134
1.0000134
1.0000135
1.0000135
1.0000134
1.0000133
1.0000131
1.0000125
1.0000113
1.0000095
1.0000121
1.0000121
1.0000121
1.0000121
1.0000121
1.0000121
1.000012
1.000012
1.000012
1.000012
1.000012
1.000012
1.000012
1.000012
1.000012
1.000012
1.000012
1.000012
1.000012
1.000012
1.000012
1.000012
1.000012
1.000012
1.000012
1.000012
1.000012
1.000012
1.000012
1.000012
1.000012
1.000012
1.000012
1.000012
1.000012
1.000012
1.000012
1.000012
1.000012
1.000012
1.000012
1.000012
1.000012
1.0000121
1.0000121
1.0000121
1.0000121
1.0000121
1.0000121
1.0000121
1.0000121
1.0000121
1.0000121
1.0000121
1.000012
1.0000118
1.0000113
1.0000102
1.0000085
1.0000108
1.0000108
1.0000108
1.0000108
1.0000108
1.0000108
1.0000108
1.0000108
1.0000108
1.0000108
1.0000108
1.0000108
1.0000108
1.0000108
1.0000108
1.0000108
1.0000108
1.0000108
1.0000108
1.0000108
1.0000108
1.0000108
1.0000108
1.0000108
1.0000108
1.0000108
1.0000108
1.0000107
1.0000107
1.0000107
1.0000107
1.0000107
1.0000107
1.0000107
1.0000107
1.0000107
1.0000107
1.0000107
1.0000107
1.0000107
1.0000108
1.0000108
1.0000108
1.0000108
1.0000108
1.0000108
1.0000108
1.0000108
1.0000108
1.0000108
1.0000108
1.0000108
1.0000108
1.0000108
1.0000108
1.0000106
1.0000102
1.0000091
1.0000077
1.0000097
1.0000097
1.0000097
1.0000097
1.0000097
1.0000097
1.0000097
1.0000097
1.0000097
1.0000097
1.0000097
1.0000097
1.0000097
1.0000097
1.0000097
1.0000097
1.0000097
1.0000097
1.0000097
1.0000097
1.0000097
1.0000097
1.0000097
1.0000097
1.0000097
1.0000097
1.0000096
1.0000096
1.0000096
1.0000096
1.0000096
1.0000096
1.0000096
1.0000096
1.0000096
1.0000096
1.0000096
1.0000096
1.0000096
1.0000096
1.0000097
1.0000097
1.0000097
1.0000097
1.0000097
1.0000097
1.0000097
1.0000097
1.0000097
1.0000097
1.0000097
1.0000097
1.0000097
1.0000097
1.0000097
1.0000096
1.0000092
1.0000084
1.000007
1.0000276
1.0000306
1.0000339
1.0000375
1.0000415
1.0000458
1.0000504
1.0000554
1.0000607
1.0000664
1.0000724
1.0000788
1.0000856
1.0000928
1.0001003
1.0001081
1.0001161
1.0001244
1.0001327
1.000141
1.0001492
1.0001571
1.0001645
1.0001712
1.0001771
1.0001819
1.0001855
1.0001878
1.0001882
1.0001872
1.0001844
1.0001799
1.0001736
1.0001659
1.0001565
1.0001471
1.0001348
1.0001218
1.0001087
1.0000948
1.0000807
1.0000666
1.0000531
1.0000393
1.0000256
1.000012
0.99999874
0.99998593
0.99997355
0.9999615
0.99995
0.99993895
0.99992845
0.99991863
0.99990946
0.99990091
0.99989292
0.99988545
0.99987848
0.99987196
0.99986587
0.99986019
0.9998549
0.99984999
0.99984544
0.9998412
0.99983723
0.99983353
0.99983008
0.99982688
0.9998239
0.99982113
0.99981856
0.9998162
1.0000323
1.0000357
1.0000394
1.0000434
1.0000478
1.0000526
1.0000576
1.0000631
1.000069
1.0000754
1.0000821
1.0000892
1.0000967
1.0001046
1.0001129
1.0001214
1.0001302
1.0001391
1.000148
1.0001569
1.0001655
1.0001736
1.0001811
1.0001878
1.0001934
1.0001976
1.0002003
1.0002013
1.0002003
1.0001975
1.0001926
1.0001856
1.0001767
1.000166
1.0001535
1.0001399
1.000125
1.000109
1.0000923
1.000075
1.0000574
1.0000397
1.0000222
1.0000051
0.99998849
0.99997236
0.99995674
0.99994184
0.9999269
0.99991341
0.9999007
0.99988863
0.99987716
0.9998669
0.99985713
0.99984762
0.99983846
0.99982986
0.99982182
0.99981433
0.99980734
0.99980085
0.99979481
0.9997892
0.999784
0.99977916
0.99977464
0.99977043
0.99976653
0.99976292
0.99975958
0.99975649
0.99975362
0.999751
1.0000358
1.0000396
1.0000438
1.0000483
1.0000531
1.0000583
1.000064
1.0000701
1.0000767
1.0000837
1.0000912
1.0000991
1.0001075
1.0001163
1.0001255
1.0001351
1.0001448
1.0001547
1.0001647
1.0001745
1.000184
1.000193
1.0002012
1.0002084
1.0002144
1.0002188
1.0002214
1.000222
1.0002204
1.0002165
1.0002102
1.0002016
1.0001906
1.0001775
1.0001623
1.0001455
1.0001272
1.0001078
1.0000875
1.0000667
1.0000455
1.0000242
1.000003
0.99998212
0.99996172
0.99994196
0.99992287
0.99990458
0.99988706
0.99987037
0.99985452
0.99983951
0.99982535
0.99981202
0.99979948
0.99978774
0.99977677
0.99976652
0.99975694
0.999748
0.99973963
0.99973191
0.99972442
0.99971721
0.99971072
0.99970481
0.99969942
0.99969438
0.99969013
0.99968618
0.99968245
0.99967895
0.99967568
0.99967263
1.0000379
1.000042
1.0000464
1.0000513
1.0000565
1.0000622
1.0000684
1.000075
1.0000821
1.0000898
1.0000979
1.0001066
1.0001157
1.0001254
1.0001355
1.0001459
1.0001567
1.0001676
1.0001786
1.0001895
1.0002001
1.0002101
1.0002193
1.0002275
1.0002343
1.0002395
1.0002427
1.0002437
1.0002423
1.0002385
1.000232
1.0002229
1.0002111
1.000197
1.0001806
1.0001622
1.000142
1.0001206
1.000098
1.0000748
1.0000511
1.0000272
1.0000034
0.99997977
0.99995662
0.99993409
0.99991226
0.99989125
0.99987115
0.99985199
0.99983375
0.99981643
0.99980003
0.99978455
0.99976996
0.99975626
0.99974344
0.99973145
0.99972021
0.99970934
0.99969935
0.99968992
0.99968152
0.99967389
0.99966681
0.99966019
0.99965401
0.99964825
0.99964294
0.99963785
0.99963312
0.99962879
0.99962482
0.99962119
1.000039
1.0000433
1.000048
1.0000531
1.0000586
1.0000646
1.0000712
1.0000782
1.0000857
1.0000938
1.0001025
1.0001117
1.0001215
1.0001318
1.0001426
1.0001539
1.0001654
1.0001773
1.0001892
1.000201
1.0002126
1.0002237
1.000234
1.0002432
1.000251
1.0002571
1.0002613
1.0002632
1.0002625
1.0002593
1.0002533
1.0002445
1.0002329
1.0002188
1.0002023
1.0001836
1.000163
1.0001408
1.0001175
1.0000933
1.0000686
1.0000436
1.0000184
0.99999351
0.99996899
0.99994504
0.99992178
0.99989931
0.99987776
0.99985716
0.99983751
0.99981882
0.99980109
0.99978431
0.99976848
0.99975359
0.99973962
0.99972653
0.99971428
0.99970284
0.99969215
0.99968219
0.99967291
0.9996643
0.99965632
0.9996489
0.99964202
0.99963562
0.99962969
0.9996242
0.99961911
0.9996144
0.99961004
0.99960601
1.0000396
1.000044
1.0000488
1.0000541
1.0000599
1.0000661
1.0000729
1.0000802
1.0000881
1.0000965
1.0001056
1.0001152
1.0001255
1.0001363
1.0001476
1.0001595
1.0001717
1.0001842
1.0001969
1.0002096
1.000222
1.0002339
1.0002451
1.0002553
1.0002641
1.0002711
1.0002763
1.000279
1.0002793
1.0002769
1.0002717
1.0002636
1.0002527
1.0002391
1.000223
1.0002046
1.0001843
1.0001624
1.0001391
1.000115
1.0000901
1.0000649
1.0000396
1.0000144
0.99998952
0.9999652
0.99994153
0.99991863
0.99989661
0.99987553
0.9998554
0.99983621
0.99981799
0.99980074
0.99978444
0.99976908
0.99975466
0.99974114
0.99972847
0.99971662
0.99970556
0.99969524
0.99968563
0.99967669
0.9996684
0.99966068
0.99965351
0.99964685
0.99964067
0.99963495
0.99962965
0.99962474
0.99962021
0.99961602
1.0000399
1.0000444
1.0000493
1.0000547
1.0000606
1.000067
1.0000739
1.0000814
1.0000895
1.0000982
1.0001076
1.0001175
1.0001281
1.0001393
1.0001511
1.0001634
1.0001761
1.0001892
1.0002025
1.0002157
1.0002288
1.0002415
1.0002534
1.0002643
1.0002739
1.0002818
1.0002877
1.0002914
1.0002924
1.0002908
1.0002864
1.0002791
1.0002689
1.0002559
1.0002405
1.0002227
1.0002029
1.0001815
1.0001587
1.0001349
1.0001104
1.0000854
1.0000603
1.0000353
1.0000107
0.99998648
0.99996291
0.99994009
0.99991813
0.99989707
0.99987695
0.99985776
0.99983953
0.99982226
0.99980593
0.99979055
0.99977609
0.99976252
0.99974981
0.99973791
0.9997268
0.99971644
0.99970678
0.99969779
0.99968944
0.99968167
0.99967446
0.99966777
0.99966156
0.99965581
0.99965048
0.99964555
0.99964099
0.99963678
1.00004
1.0000446
1.0000496
1.0000551
1.000061
1.0000675
1.0000746
1.0000822
1.0000905
1.0000994
1.0001089
1.0001191
1.0001299
1.0001414
1.0001535
1.0001661
1.0001792
1.0001927
1.0002064
1.0002201
1.0002337
1.0002469
1.0002594
1.000271
1.0002812
1.0002897
1.0002963
1.0003006
1.0003024
1.0003014
1.0002977
1.000291
1.0002814
1.0002691
1.0002542
1.000237
1.0002178
1.0001968
1.0001744
1.0001511
1.0001269
1.0001024
1.0000776
1.0000529
1.0000285
1.0000046
0.9999813
0.9999587
0.99993693
0.99991605
0.99989608
0.99987705
0.99985895
0.99984181
0.9998256
0.99981033
0.99979597
0.99978249
0.99976986
0.99975804
0.999747
0.99973669
0.99972709
0.99971815
0.99970984
0.99970212
0.99969495
0.99968829
0.99968211
0.99967638
0.99967108
0.99966617
0.99966163
0.99965744
1.0000401
1.0000447
1.0000497
1.0000553
1.0000613
1.0000678
1.000075
1.0000827
1.0000911
1.0001001
1.0001098
1.0001201
1.0001311
1.0001428
1.0001551
1.000168
1.0001814
1.0001951
1.0002092
1.0002233
1.0002372
1.0002508
1.0002638
1.0002758
1.0002865
1.0002955
1.0003026
1.0003074
1.0003097
1.0003093
1.0003061
1.0002999
1.0002908
1.000279
1.0002646
1.0002478
1.0002289
1.0002083
1.0001864
1.0001633
1.0001395
1.0001153
1.0000908
1.0000663
1.0000422
1.0000185
0.99999535
0.99997294
0.99995134
0.99993062
0.99991079
0.99989189
0.99987393
0.9998569
0.99984081
0.99982564
0.99981137
0.99979798
0.99978543
0.99977369
0.99976272
0.99975248
0.99974293
0.99973405
0.99972579
0.99971811
0.99971098
0.99970436
0.99969823
0.99969254
0.99968727
0.9996824
0.99967789
0.99967373
1.0000401
1.0000447
1.0000498
1.0000554
1.0000614
1.000068
1.0000752
1.000083
1.0000915
1.0001006
1.0001103
1.0001208
1.0001319
1.0001438
1.0001562
1.0001693
1.0001829
1.0001969
1.0002111
1.0002255
1.0002397
1.0002536
1.0002669
1.0002792
1.0002903
1.0002997
1.0003072
1.0003124
1.000315
1.000315
1.0003122
1.0003064
1.0002977
1.0002862
1.0002721
1.0002556
1.0002371
1.0002168
1.0001951
1.0001722
1.0001487
1.0001246
1.0001003
1.000076
1.000052
1.0000285
1.0000055
0.99998317
0.99996167
0.99994104
0.9999213
0.99990248
0.99988459
0.99986764
0.99985162
0.99983651
0.9998223
0.99980897
0.99979647
0.99978477
0.99977384
0.99976364
0.99975414
0.99974528
0.99973705
0.9997294
0.99972229
0.9997157
0.99970958
0.99970392
0.99969866
0.99969381
0.99968931
0.99968516
1.0000401
1.0000447
1.0000498
1.0000554
1.0000615
1.0000681
1.0000754
1.0000832
1.0000917
1.0001009
1.0001107
1.0001212
1.0001325
1.0001444
1.000157
1.0001702
1.0001839
1.000198
1.0002125
1.000227
1.0002415
1.0002556
1.0002691
1.0002817
1.000293
1.0003027
1.0003104
1.000316
1.0003186
1.0003191
1.0003166
1.0003111
1.0003027
1.0002914
1.0002776
1.0002613
1.000243
1.0002229
1.0002013
1.0001786
1.0001552
1.0001312
1.0001071
1.0000829
1.000059
1.0000355
1.0000126
0.99999033
0.99996888
0.99994829
0.99992859
0.99990981
0.99989195
0.99987503
0.99985904
0.99984396
0.99982978
0.99981647
0.99980399
0.99979232
0.99978141
0.99977122
0.99976174
0.9997529
0.99974468
0.99973704
0.99972995
0.99972337
0.99971726
0.99971161
0.99970637
0.99970152
0.99969703
0.99969289
1.0000401
1.0000447
1.0000498
1.0000554
1.0000615
1.0000682
1.0000755
1.0000833
1.0000919
1.0001011
1.000111
1.0001215
1.0001328
1.0001448
1.0001575
1.0001708
1.0001846
1.0001989
1.0002134
1.0002281
1.0002427
1.000257
1.0002707
1.0002834
1.0002949
1.0003048
1.0003128
1.0003185
1.0003216
1.0003221
1.0003198
1.0003145
1.0003063
1.0002952
1.0002815
1.0002655
1.0002472
1.0002273
1.0002058
1.0001833
1.0001599
1.0001361
1.000112
1.0000878
1.0000639
1.0000405
1.0000176
0.99999533
0.99997389
0.99995331
0.99993362
0.99991484
0.99989699
0.99988008
0.99986409
0.99984902
0.99983484
0.99982153
0.99980906
0.9997974
0.9997865
0.99977633
0.99976685
0.99975803
0.99974982
0.99974219
0.9997351
0.99972852
0.99972242
0.99971677
0.99971153
0.99970668
0.99970219
0.99969804
1.0000401
1.0000447
1.0000498
1.0000554
1.0000615
1.0000682
1.0000755
1.0000834
1.000092
1.0001012
1.0001111
1.0001217
1.0001331
1.0001451
1.0001579
1.0001712
1.0001851
1.0001994
1.0002141
1.0002289
1.0002436
1.000258
1.0002718
1.0002846
1.0002963
1.0003063
1.0003145
1.0003203
1.0003236
1.0003247
1.0003222
1.000317
1.0003089
1.000298
1.0002844
1.0002685
1.0002504
1.0002305
1.0002091
1.0001866
1.0001633
1.0001395
1.0001154
1.0000914
1.0000675
1.0000441
1.0000212
0.99999902
0.99997761
0.99995704
0.99993735
0.99991858
0.99990073
0.99988381
0.99986781
0.99985273
0.99983855
0.99982523
0.99981275
0.99980108
0.99979017
0.99977999
0.9997705
0.99976167
0.99975345
0.99974582
0.99973872
0.99973213
0.99972602
0.99972036
0.99971511
0.99971025
0.99970575
0.9997016
1.0000401
1.0000447
1.0000498
1.0000554
1.0000615
1.0000682
1.0000755
1.0000834
1.000092
1.0001012
1.0001112
1.0001219
1.0001332
1.0001453
1.0001581
1.0001715
1.0001854
1.0001998
1.0002145
1.0002294
1.0002441
1.0002586
1.0002725
1.0002855
1.0002972
1.0003074
1.0003156
1.0003217
1.000325
1.0003259
1.0003238
1.0003189
1.000311
1.0003003
1.0002869
1.000271
1.000253
1.0002332
1.0002119
1.0001894
1.0001661
1.0001423
1.0001183
1.0000942
1.0000703
1.0000469
1.000024
1.0000018
0.9999804
0.99995981
0.99994011
0.99992131
0.99990345
0.99988651
0.99987051
0.99985542
0.99984123
0.99982791
0.99981542
0.99980374
0.99979282
0.99978263
0.99977313
0.99976429
0.99975606
0.99974842
0.99974131
0.99973472
0.99972861
0.99972294
0.99971769
0.99971283
0.99970833
0.99970418
1.0000401
1.0000447
1.0000498
1.0000554
1.0000615
1.0000682
1.0000755
1.0000834
1.000092
1.0001013
1.0001112
1.0001219
1.0001333
1.0001454
1.0001582
1.0001716
1.0001856
1.0002
1.0002148
1.0002297
1.0002445
1.0002591
1.000273
1.0002861
1.0002979
1.0003081
1.0003165
1.0003226
1.0003262
1.0003272
1.0003253
1.0003204
1.0003126
1.000302
1.0002887
1.0002729
1.000255
1.0002353
1.0002141
1.0001917
1.0001684
1.0001446
1.0001206
1.0000966
1.0000727
1.0000493
1.0000264
1.0000042
0.99998278
0.99996217
0.99994245
0.99992365
0.99990578
0.99988884
0.99987283
0.99985774
0.99984354
0.99983021
0.99981771
0.99980602
0.99979508
0.99978488
0.99977537
0.99976651
0.99975827
0.99975061
0.9997435
0.9997369
0.99973077
0.9997251
0.99971984
0.99971498
0.99971048
0.99970632
1.0000401
1.0000447
1.0000498
1.0000554
1.0000615
1.0000682
1.0000755
1.0000834
1.000092
1.0001013
1.0001113
1.0001219
1.0001334
1.0001455
1.0001583
1.0001717
1.0001857
1.0002002
1.0002149
1.0002299
1.0002448
1.0002593
1.0002733
1.0002865
1.0002984
1.0003087
1.0003172
1.0003232
1.0003278
1.0003284
1.0003265
1.0003217
1.000314
1.0003036
1.0002904
1.0002748
1.000257
1.0002374
1.0002162
1.0001939
1.0001707
1.0001469
1.0001229
1.0000989
1.0000751
1.0000517
1.0000288
1.0000065
0.99998509
0.99996446
0.99994472
0.9999259
0.99990801
0.99989105
0.99987503
0.99985992
0.9998457
0.99983235
0.99981984
0.99980812
0.99979717
0.99978695
0.99977742
0.99976855
0.99976029
0.99975262
0.99974549
0.99973887
0.99973274
0.99972705
0.99972178
0.99971691
0.99971239
0.99970822
1.0000401
1.0000447
1.0000498
1.0000554
1.0000615
1.0000682
1.0000755
1.0000834
1.000092
1.0001013
1.0001113
1.000122
1.0001334
1.0001455
1.0001583
1.0001717
1.0001858
1.0002002
1.000215
1.00023
1.0002449
1.0002595
1.0002735
1.0002867
1.0002987
1.0003091
1.0003177
1.0003239
1.0003284
1.0003293
1.0003276
1.000323
1.0003155
1.0003052
1.0002922
1.0002767
1.0002591
1.0002396
1.0002185
1.0001963
1.0001732
1.0001495
1.0001255
1.0001015
1.0000777
1.0000542
1.0000313
1.0000091
0.99998759
0.99996693
0.99994717
0.99992831
0.99991039
0.99989341
0.99987735
0.99986222
0.99984798
0.9998346
0.99982206