/*--------------------------------*- C++ -*----------------------------------*\
| =========                 |                                                 |
| \\      /  F ield         | OpenFOAM: The Open Source CFD Toolbox           |
|  \\    /   O peration     | Version:  v2006                                 |
|   \\  /    A nd           | Website:  www.openfoam.com                      |
|    \\/     M anipulation  |                                                 |
\*---------------------------------------------------------------------------*/
FoamFile
{
    version     2.0;
    format      ascii;
    class       volScalarField;
    location    "2000";
    object      TMean;
}
// * * * * * * * * * * * * * * * * * * * * * * * * * * * * * * * * * * * * * //

dimensions      [0 0 0 1 0 0 0];


internalField   nonuniform List<scalar> 
55713
(
1.0000086
1.0000102
1.0000112
1.0000116
1.0000117
1.0000118
1.0000117
1.0000117
1.0000117
1.0000117
1.0000118
1.0000118
1.0000118
1.0000118
1.0000118
1.0000118
1.0000118
1.0000118
1.0000118
1.0000118
1.0000118
1.0000118
1.0000118
1.0000118
1.0000118
1.0000118
1.0000118
1.0000117
1.0000117
1.0000117
1.0000117
1.0000118
1.0000118
1.0000118
1.0000118
1.0000118
1.0000118
1.0000118
1.0000118
1.0000118
1.0000118
1.0000118
1.0000118
1.0000118
1.0000118
1.0000118
1.0000118
1.0000118
1.0000118
1.0000117
1.0000117
1.0000117
1.0000117
1.0000117
1.0000117
1.0000117
1.0000117
1.0000117
1.0000117
1.0000082
1.0000097
1.0000106
1.0000109
1.000011
1.000011
1.000011
1.000011
1.000011
1.000011
1.000011
1.000011
1.000011
1.000011
1.000011
1.0000111
1.0000111
1.000011
1.000011
1.000011
1.000011
1.000011
1.000011
1.000011
1.000011
1.000011
1.000011
1.000011
1.000011
1.000011
1.000011
1.000011
1.000011
1.000011
1.000011
1.000011
1.000011
1.000011
1.0000111
1.0000111
1.0000111
1.0000111
1.0000111
1.000011
1.000011
1.000011
1.000011
1.000011
1.000011
1.000011
1.000011
1.000011
1.000011
1.000011
1.000011
1.000011
1.000011
1.000011
1.000011
1.0000079
1.0000093
1.0000101
1.0000103
1.0000104
1.0000104
1.0000104
1.0000104
1.0000104
1.0000104
1.0000104
1.0000104
1.0000104
1.0000104
1.0000104
1.0000104
1.0000104
1.0000104
1.0000104
1.0000104
1.0000104
1.0000104
1.0000104
1.0000104
1.0000104
1.0000104
1.0000104
1.0000104
1.0000104
1.0000104
1.0000104
1.0000104
1.0000104
1.0000104
1.0000104
1.0000104
1.0000104
1.0000104
1.0000104
1.0000104
1.0000104
1.0000104
1.0000104
1.0000104
1.0000104
1.0000104
1.0000104
1.0000104
1.0000104
1.0000104
1.0000104
1.0000104
1.0000104
1.0000104
1.0000104
1.0000104
1.0000104
1.0000104
1.0000104
1.0000076
1.0000089
1.0000096
1.0000098
1.0000098
1.0000098
1.0000098
1.0000098
1.0000098
1.0000098
1.0000098
1.0000098
1.0000098
1.0000098
1.0000098
1.0000099
1.0000098
1.0000098
1.0000098
1.0000098
1.0000098
1.0000098
1.0000098
1.0000098
1.0000098
1.0000098
1.0000098
1.0000098
1.0000098
1.0000098
1.0000098
1.0000098
1.0000098
1.0000098
1.0000098
1.0000098
1.0000098
1.0000098
1.0000099
1.0000099
1.0000099
1.0000099
1.0000099
1.0000098
1.0000098
1.0000099
1.0000099
1.0000099
1.0000099
1.0000098
1.0000098
1.0000098
1.0000098
1.0000098
1.0000098
1.0000098
1.0000098
1.0000098
1.0000098
1.0000074
1.0000086
1.0000092
1.0000094
1.0000094
1.0000093
1.0000093
1.0000093
1.0000093
1.0000093
1.0000094
1.0000094
1.0000094
1.0000094
1.0000094
1.0000094
1.0000094
1.0000093
1.0000093
1.0000093
1.0000093
1.0000094
1.0000094
1.0000093
1.0000093
1.0000093
1.0000093
1.0000093
1.0000093
1.0000093
1.0000093
1.0000093
1.0000093
1.0000093
1.0000094
1.0000094
1.0000094
1.0000094
1.0000094
1.0000094
1.0000094
1.0000094
1.0000094
1.0000094
1.0000094
1.0000094
1.0000094
1.0000094
1.0000094
1.0000094
1.0000094
1.0000093
1.0000093
1.0000093
1.0000094
1.0000094
1.0000094
1.0000093
1.0000093
1.0000072
1.0000084
1.0000089
1.000009
1.0000089
1.0000089
1.0000089
1.0000089
1.0000089
1.0000089
1.0000089
1.0000089
1.0000089
1.0000089
1.0000089
1.0000089
1.0000089
1.0000089
1.0000089
1.0000089
1.0000089
1.0000089
1.0000089
1.0000089
1.0000089
1.0000089
1.0000089
1.0000089
1.0000089
1.0000089
1.0000089
1.0000089
1.0000089
1.0000089
1.0000089
1.0000089
1.0000089
1.0000089
1.0000089
1.0000089
1.000009
1.000009
1.000009
1.0000089
1.0000089
1.0000089
1.000009
1.000009
1.000009
1.000009
1.0000089
1.0000089
1.0000089
1.0000089
1.000009
1.000009
1.0000089
1.0000089
1.0000089
1.000007
1.0000081
1.0000085
1.0000086
1.0000086
1.0000086
1.0000085
1.0000085
1.0000086
1.0000086
1.0000086
1.0000086
1.0000086
1.0000086
1.0000086
1.0000086
1.0000085
1.0000085
1.0000085
1.0000085
1.0000086
1.0000086
1.0000085
1.0000085
1.0000085
1.0000085
1.0000085
1.0000085
1.0000085
1.0000085
1.0000085
1.0000085
1.0000085
1.0000085
1.0000086
1.0000086
1.0000086
1.0000086
1.0000086
1.0000086
1.0000086
1.0000086
1.0000086
1.0000086
1.0000086
1.0000086
1.0000086
1.0000086
1.0000086
1.0000086
1.0000086
1.0000086
1.0000086
1.0000086
1.0000086
1.0000086
1.0000086
1.0000086
1.0000086
1.0000069
1.000008
1.0000083
1.0000083
1.0000082
1.0000082
1.0000082
1.0000082
1.0000082
1.0000083
1.0000083
1.0000082
1.0000082
1.0000083
1.0000083
1.0000082
1.0000082
1.0000082
1.0000082
1.0000082
1.0000082
1.0000082
1.0000082
1.0000082
1.0000082
1.0000082
1.0000082
1.0000082
1.0000082
1.0000082
1.0000082
1.0000082
1.0000082
1.0000082
1.0000082
1.0000082
1.0000082
1.0000082
1.0000082
1.0000082
1.0000082
1.0000083
1.0000083
1.0000082
1.0000082
1.0000082
1.0000083
1.0000083
1.0000083
1.0000083
1.0000083
1.0000082
1.0000082
1.0000082
1.0000083
1.0000083
1.0000083
1.0000082
1.0000083
1.0000069
1.0000079
1.0000081
1.000008
1.000008
1.000008
1.000008
1.000008
1.000008
1.000008
1.000008
1.000008
1.000008
1.000008
1.000008
1.000008
1.000008
1.000008
1.000008
1.000008
1.000008
1.000008
1.000008
1.000008
1.000008
1.000008
1.000008
1.0000079
1.0000079
1.0000079
1.000008
1.000008
1.000008
1.000008
1.000008
1.000008
1.000008
1.000008
1.000008
1.000008
1.000008
1.000008
1.000008
1.000008
1.000008
1.000008
1.000008
1.000008
1.000008
1.000008
1.000008
1.000008
1.000008
1.000008
1.000008
1.0000081
1.0000081
1.000008
1.000008
1.0000069
1.0000078
1.0000079
1.0000079
1.0000078
1.0000078
1.0000078
1.0000078
1.0000078
1.0000078
1.0000078
1.0000078
1.0000078
1.0000078
1.0000078
1.0000078
1.0000078
1.0000078
1.0000078
1.0000078
1.0000078
1.0000078
1.0000078
1.0000078
1.0000078
1.0000077
1.0000077
1.0000077
1.0000077
1.0000077
1.0000077
1.0000077
1.0000078
1.0000078
1.0000078
1.0000078
1.0000078
1.0000078
1.0000078
1.0000078
1.0000078
1.0000078
1.0000078
1.0000078
1.0000078
1.0000078
1.0000078
1.0000078
1.0000078
1.0000078
1.0000078
1.0000078
1.0000078
1.0000078
1.0000078
1.0000079
1.0000079
1.0000078
1.0000078
1.0000067
1.0000075
1.0000074
1.0000075
1.0000074
1.0000074
1.0000074
1.0000075
1.0000074
1.0000074
1.0000074
1.0000074
1.0000074
1.0000074
1.0000074
1.0000073
1.0000073
1.0000073
1.0000074
1.0000074
1.0000074
1.0000073
1.0000073
1.0000073
1.0000073
1.0000073
1.0000073
1.0000073
1.0000073
1.0000073
1.0000073
1.0000073
1.0000073
1.0000073
1.0000073
1.0000073
1.0000074
1.0000074
1.0000074
1.0000074
1.0000073
1.0000074
1.0000074
1.0000074
1.0000074
1.0000074
1.0000074
1.0000074
1.0000074
1.0000074
1.0000074
1.0000074
1.0000074
1.0000074
1.0000074
1.0000074
1.0000075
1.0000074
1.0000074
1.0000066
1.0000076
1.0000072
1.0000074
1.0000073
1.0000071
1.0000074
1.0000074
1.0000072
1.0000072
1.0000072
1.0000072
1.0000073
1.0000072
1.0000071
1.0000071
1.0000071
1.0000072
1.0000071
1.0000071
1.0000071
1.0000071
1.0000071
1.0000071
1.0000071
1.0000071
1.0000071
1.0000071
1.0000071
1.000007
1.0000071
1.0000071
1.0000071
1.0000071
1.0000071
1.0000071
1.0000071
1.0000071
1.0000071
1.0000071
1.0000071
1.0000071
1.0000072
1.0000072
1.0000071
1.0000071
1.0000071
1.0000072
1.0000072
1.0000072
1.0000071
1.0000072
1.0000071
1.0000073
1.0000072
1.0000072
1.0000075
1.0000071
1.0000071
1.0000086
1.0000092
1.0000087
1.0000092
1.0000087
1.0000088
1.0000091
1.0000088
1.0000088
1.0000089
1.0000089
1.000009
1.0000089
1.0000088
1.0000088
1.0000089
1.0000089
1.0000089
1.000009
1.000009
1.0000089
1.0000089
1.0000089
1.0000089
1.0000089
1.0000089
1.0000089
1.0000089
1.0000089
1.0000089
1.0000089
1.0000089
1.0000089
1.0000089
1.0000089
1.0000089
1.0000089
1.000009
1.0000089
1.0000089
1.0000089
1.0000089
1.0000089
1.0000089
1.0000089
1.0000089
1.0000089
1.0000089
1.0000089
1.0000089
1.0000089
1.0000089
1.0000088
1.0000089
1.000009
1.0000087
1.0000092
1.0000088
1.0000089
1.000007
1.0000055
1.0000062
1.0000055
1.0000062
1.0000064
1.000006
1.000006
1.0000063
1.0000061
1.0000061
1.0000058
1.0000057
1.0000058
1.0000058
1.0000058
1.0000057
1.0000056
1.0000054
1.0000053
1.0000053
1.0000053
1.0000053
1.0000053
1.0000053
1.0000053
1.0000053
1.0000053
1.0000053
1.0000053
1.0000053
1.0000053
1.0000053
1.0000053
1.0000053
1.0000053
1.0000053
1.0000054
1.0000055
1.0000056
1.0000057
1.0000059
1.000006
1.0000061
1.0000062
1.0000063
1.0000062
1.0000062
1.0000063
1.0000063
1.0000064
1.0000064
1.0000066
1.0000063
1.0000063
1.0000063
1.0000056
1.0000067
1.0000066
1.0000425
1.0000426
1.0000426
1.0000426
1.0000427
1.0000427
1.0000427
1.0000428
1.0000428
1.0000428
1.0000429
1.0000429
1.0000429
1.0000429
1.000043
1.000043
1.000043
1.000043
1.000043
1.0000431
1.0000431
1.0000431
1.0000431
1.0000431
1.0000431
1.0000431
1.0000431
1.0000431
1.0000431
1.0000431
1.0000431
1.0000431
1.0000431
1.0000431
1.0000431
1.0000432
1.0000432
1.0000432
1.0000432
1.0000432
1.0000432
1.0000432
1.0000432
1.0000432
1.0000432
1.0000432
1.0000432
1.0000432
1.0000432
1.0000432
1.0000431
1.000043
1.0000429
1.0000425
1.0000419
1.0000406
1.0000384
1.0000347
1.0000298
1.0000391
1.0000391
1.0000391
1.0000392
1.0000392
1.0000392
1.0000392
1.0000393
1.0000393
1.0000393
1.0000393
1.0000394
1.0000394
1.0000394
1.0000394
1.0000395
1.0000395
1.0000395
1.0000395
1.0000395
1.0000395
1.0000395
1.0000395
1.0000395
1.0000395
1.0000395
1.0000395
1.0000395
1.0000395
1.0000395
1.0000396
1.0000396
1.0000396
1.0000396
1.0000396
1.0000396
1.0000396
1.0000396
1.0000396
1.0000397
1.0000397
1.0000397
1.0000397
1.0000396
1.0000396
1.0000396
1.0000396
1.0000396
1.0000396
1.0000396
1.0000396
1.0000395
1.0000393
1.000039
1.0000384
1.0000373
1.0000352
1.0000318
1.0000274
1.0000358
1.0000358
1.0000358
1.0000359
1.0000359
1.0000359
1.000036
1.000036
1.000036
1.000036
1.000036
1.0000361
1.0000361
1.0000361
1.0000361
1.0000362
1.0000362
1.0000362
1.0000362
1.0000362
1.0000362
1.0000362
1.0000362
1.0000362
1.0000362
1.0000362
1.0000362
1.0000362
1.0000362
1.0000362
1.0000362
1.0000362
1.0000362
1.0000363
1.0000363
1.0000363
1.0000363
1.0000363
1.0000363
1.0000363
1.0000363
1.0000363
1.0000363
1.0000363
1.0000363
1.0000363
1.0000363
1.0000363
1.0000363
1.0000362
1.0000362
1.0000362
1.000036
1.0000358
1.0000352
1.0000342
1.0000323
1.0000291
1.0000251
1.0000327
1.0000328
1.0000328
1.0000328
1.0000328
1.0000329
1.0000329
1.0000329
1.0000329
1.0000329
1.000033
1.000033
1.000033
1.000033
1.0000331
1.0000331
1.0000331
1.0000331
1.0000331
1.0000331
1.0000331
1.0000331
1.0000331
1.0000331
1.0000331
1.0000331
1.0000331
1.0000331
1.0000331
1.0000331
1.0000331
1.0000331
1.0000331
1.0000332
1.0000332
1.0000332
1.0000332
1.0000332
1.0000332
1.0000332
1.0000332
1.0000332
1.0000332
1.0000332
1.0000332
1.0000332
1.0000331
1.0000331
1.0000331
1.0000331
1.0000331
1.0000331
1.000033
1.0000327
1.0000322
1.0000313
1.0000296
1.0000267
1.0000229
1.0000299
1.0000299
1.00003
1.00003
1.00003
1.00003
1.00003
1.0000301
1.0000301
1.0000301
1.0000301
1.0000301
1.0000302
1.0000302
1.0000302
1.0000302
1.0000302
1.0000302
1.0000302
1.0000303
1.0000303
1.0000303
1.0000303
1.0000302
1.0000302
1.0000302
1.0000302
1.0000302
1.0000302
1.0000302
1.0000302
1.0000303
1.0000303
1.0000303
1.0000303
1.0000303
1.0000303
1.0000303
1.0000303
1.0000303
1.0000303
1.0000303
1.0000303
1.0000303
1.0000303
1.0000303
1.0000303
1.0000303
1.0000302
1.0000302
1.0000302
1.0000302
1.0000301
1.0000299
1.0000295
1.0000286
1.000027
1.0000244
1.000021
1.0000273
1.0000273
1.0000273
1.0000273
1.0000273
1.0000274
1.0000274
1.0000274
1.0000274
1.0000274
1.0000275
1.0000275
1.0000275
1.0000275
1.0000275
1.0000275
1.0000275
1.0000276
1.0000276
1.0000276
1.0000276
1.0000276
1.0000276
1.0000276
1.0000276
1.0000276
1.0000276
1.0000276
1.0000276
1.0000276
1.0000276
1.0000276
1.0000276
1.0000276
1.0000276
1.0000276
1.0000276
1.0000276
1.0000276
1.0000276
1.0000276
1.0000276
1.0000276
1.0000276
1.0000276
1.0000276
1.0000276
1.0000276
1.0000276
1.0000276
1.0000276
1.0000275
1.0000275
1.0000273
1.0000269
1.0000261
1.0000247
1.0000222
1.0000191
1.0000248
1.0000249
1.0000249
1.0000249
1.0000249
1.0000249
1.0000249
1.000025
1.000025
1.000025
1.000025
1.000025
1.000025
1.0000251
1.0000251
1.0000251
1.0000251
1.0000251
1.0000251
1.0000251
1.0000251
1.0000251
1.0000251
1.0000251
1.0000251
1.0000251
1.0000251
1.0000251
1.0000251
1.0000251
1.0000251
1.0000251
1.0000251
1.0000251
1.0000251
1.0000251
1.0000251
1.0000251
1.0000252
1.0000252
1.0000252
1.0000252
1.0000252
1.0000251
1.0000251
1.0000251
1.0000251
1.0000251
1.0000251
1.0000251
1.0000251
1.0000251
1.000025
1.0000249
1.0000245
1.0000239
1.0000226
1.0000203
1.0000174
1.0000226
1.0000226
1.0000226
1.0000226
1.0000226
1.0000227
1.0000227
1.0000227
1.0000227
1.0000227
1.0000227
1.0000228
1.0000228
1.0000228
1.0000228
1.0000228
1.0000228
1.0000228
1.0000228
1.0000228
1.0000228
1.0000228
1.0000228
1.0000228
1.0000228
1.0000228
1.0000228
1.0000228
1.0000228
1.0000228
1.0000228
1.0000228
1.0000228
1.0000228
1.0000229
1.0000229
1.0000229
1.0000229
1.0000229
1.0000229
1.0000229
1.0000229
1.0000229
1.0000229
1.0000228
1.0000228
1.0000228
1.0000228
1.0000228
1.0000228
1.0000228
1.0000228
1.0000227
1.0000226
1.0000224
1.0000218
1.0000206
1.0000185
1.0000159
1.0000205
1.0000205
1.0000206
1.0000206
1.0000206
1.0000206
1.0000206
1.0000206
1.0000206
1.0000206
1.0000207
1.0000207
1.0000207
1.0000207
1.0000207
1.0000207
1.0000207
1.0000207
1.0000207
1.0000208
1.0000208
1.0000208
1.0000208
1.0000207
1.0000207
1.0000207
1.0000207
1.0000207
1.0000207
1.0000207
1.0000207
1.0000207
1.0000207
1.0000208
1.0000208
1.0000208
1.0000208
1.0000208
1.0000208
1.0000208
1.0000208
1.0000208
1.0000208
1.0000208
1.0000208
1.0000207
1.0000207
1.0000207
1.0000207
1.0000207
1.0000207
1.0000207
1.0000207
1.0000206
1.0000204
1.0000198
1.0000188
1.0000169
1.0000145
1.0000186
1.0000186
1.0000187
1.0000187
1.0000187
1.0000187
1.0000187
1.0000187
1.0000187
1.0000187
1.0000187
1.0000188
1.0000188
1.0000188
1.0000188
1.0000188
1.0000188
1.0000188
1.0000188
1.0000188
1.0000188
1.0000188
1.0000188
1.0000188
1.0000188
1.0000188
1.0000188
1.0000188
1.0000188
1.0000188
1.0000188
1.0000188
1.0000188
1.0000188
1.0000188
1.0000188
1.0000188
1.0000188
1.0000188
1.0000189
1.0000189
1.0000189
1.0000188
1.0000188
1.0000188
1.0000188
1.0000188
1.0000188
1.0000188
1.0000188
1.0000188
1.0000188
1.0000188
1.0000187
1.0000185
1.0000181
1.0000172
1.0000154
1.0000132
1.0000169
1.0000169
1.0000169
1.0000169
1.000017
1.000017
1.000017
1.000017
1.000017
1.000017
1.000017
1.000017
1.000017
1.0000171
1.0000171
1.0000171
1.0000171
1.0000171
1.0000171
1.0000171
1.0000171
1.0000171
1.0000171
1.0000171
1.0000171
1.0000171
1.0000171
1.0000171
1.0000171
1.0000171
1.0000171
1.0000171
1.0000171
1.0000171
1.0000171
1.0000171
1.0000171
1.0000171
1.0000171
1.0000171
1.0000171
1.0000171
1.0000171
1.0000171
1.0000171
1.0000171
1.0000171
1.0000171
1.000017
1.000017
1.000017
1.000017
1.000017
1.000017
1.0000168
1.0000165
1.0000157
1.0000141
1.000012
1.0000153
1.0000153
1.0000154
1.0000154
1.0000154
1.0000154
1.0000154
1.0000154
1.0000154
1.0000154
1.0000154
1.0000154
1.0000155
1.0000155
1.0000155
1.0000155
1.0000155
1.0000155
1.0000155
1.0000155
1.0000155
1.0000155
1.0000155
1.0000155
1.0000155
1.0000155
1.0000155
1.0000155
1.0000155
1.0000155
1.0000155
1.0000155
1.0000155
1.0000155
1.0000155
1.0000155
1.0000155
1.0000155
1.0000155
1.0000155
1.0000155
1.0000155
1.0000155
1.0000155
1.0000155
1.0000155
1.0000155
1.0000155
1.0000154
1.0000154
1.0000154
1.0000155
1.0000155
1.0000154
1.0000153
1.000015
1.0000143
1.0000129
1.000011
1.0000139
1.0000139
1.0000139
1.0000139
1.000014
1.000014
1.000014
1.000014
1.000014
1.000014
1.000014
1.000014
1.000014
1.000014
1.000014
1.000014
1.000014
1.000014
1.0000141
1.0000141
1.0000141
1.0000141
1.000014
1.000014
1.000014
1.000014
1.000014
1.000014
1.000014
1.000014
1.000014
1.000014
1.000014
1.000014
1.000014
1.0000141
1.0000141
1.000014
1.000014
1.0000141
1.0000141
1.0000141
1.0000141
1.0000141
1.0000141
1.000014
1.000014
1.000014
1.000014
1.000014
1.000014
1.000014
1.000014
1.000014
1.0000139
1.0000137
1.0000131
1.0000118
1.00001
1.0000127
1.0000127
1.0000127
1.0000127
1.0000127
1.0000127
1.0000127
1.0000127
1.0000127
1.0000127
1.0000127
1.0000127
1.0000127
1.0000127
1.0000127
1.0000127
1.0000128
1.0000128
1.0000128
1.0000128
1.0000128
1.0000128
1.0000128
1.0000128
1.0000128
1.0000128
1.0000127
1.0000127
1.0000127
1.0000127
1.0000127
1.0000127
1.0000127
1.0000128
1.0000128
1.0000128
1.0000128
1.0000128
1.0000128
1.0000128
1.0000128
1.0000128
1.0000128
1.0000128
1.0000128
1.0000128
1.0000128
1.0000127
1.0000127
1.0000127
1.0000127
1.0000127
1.0000127
1.0000127
1.0000127
1.0000125
1.000012
1.0000109
1.0000092
1.0000327
1.0000361
1.0000399
1.000044
1.0000485
1.0000534
1.0000587
1.0000643
1.0000704
1.0000769
1.0000838
1.0000912
1.0000991
1.0001074
1.0001161
1.0001253
1.0001348
1.0001447
1.0001548
1.0001651
1.0001753
1.0001855
1.0001953
1.0002047
1.0002134
1.0002213
1.000228
1.0002336
1.0002377
1.0002401
1.0002409
1.0002401
1.0002376
1.0002335
1.0002279
1.0002211
1.0002134
1.0002042
1.0001941
1.0001836
1.0001726
1.0001613
1.0001501
1.0001389
1.0001278
1.0001169
1.0001061
1.0000956
1.0000853
1.0000754
1.0000659
1.0000567
1.000048
1.0000397
1.0000319
1.0000245
1.0000177
1.0000113
1.0000053
0.99999972
0.99999452
0.99998966
0.99998513
0.9999809
0.99997698
0.99997332
0.99996992
0.99996676
0.99996382
0.99996108
0.99995853
0.99995616
0.99995394
0.99995191
1.0000379
1.0000418
1.000046
1.0000506
1.0000555
1.0000609
1.0000667
1.0000729
1.0000797
1.0000869
1.0000946
1.0001027
1.0001114
1.0001206
1.0001302
1.0001402
1.0001506
1.0001613
1.0001722
1.0001832
1.0001941
1.0002047
1.0002149
1.0002245
1.0002332
1.0002407
1.000247
1.0002516
1.0002545
1.0002556
1.0002547
1.0002518
1.0002469
1.0002402
1.0002318
1.000222
1.0002109
1.0001988
1.0001857
1.0001721
1.000158
1.0001437
1.0001293
1.000115
1.0001011
1.0000874
1.0000742
1.0000615
1.0000492
1.0000373
1.0000262
1.0000156
1.0000056
0.99999623
0.9999875
0.99997936
0.9999717
0.99996446
0.99995763
0.99995121
0.99994519
0.99993958
0.99993434
0.99992947
0.99992494
0.99992073
0.99991683
0.99991321
0.99990986
0.99990674
0.99990386
0.99990121
0.99989875
0.9998965
1.000042
1.0000463
1.0000509
1.000056
1.0000614
1.0000674
1.0000738
1.0000807
1.0000882
1.0000961
1.0001047
1.0001138
1.0001234
1.0001336
1.0001443
1.0001555
1.000167
1.0001789
1.000191
1.0002031
1.0002151
1.0002268
1.000238
1.0002484
1.0002578
1.0002659
1.0002724
1.0002771
1.0002797
1.0002802
1.0002784
1.0002743
1.0002678
1.0002592
1.0002486
1.0002362
1.0002223
1.0002071
1.000191
1.0001741
1.0001567
1.0001391
1.0001214
1.0001039
1.0000866
1.0000697
1.0000534
1.0000377
1.0000226
1.0000081
0.99999438
0.99998135
0.99996902
0.99995741
0.99994647
0.99993616
0.9999265
0.99991747
0.99990904
0.99990119
0.99989386
0.99988704
0.99988069
0.99987475
0.99986921
0.99986407
0.99985931
0.99985491
0.99985088
0.99984719
0.99984381
0.99984072
0.99983788
0.99983531
1.0000444
1.000049
1.000054
1.0000595
1.0000654
1.0000718
1.0000787
1.0000862
1.0000943
1.000103
1.0001122
1.0001221
1.0001326
1.0001437
1.0001554
1.0001676
1.0001803
1.0001933
1.0002066
1.00022
1.0002333
1.0002462
1.0002586
1.0002703
1.0002808
1.0002899
1.0002973
1.0003028
1.000306
1.0003069
1.0003053
1.0003011
1.0002943
1.0002852
1.0002737
1.0002603
1.000245
1.0002283
1.0002103
1.0001915
1.0001721
1.0001523
1.0001324
1.0001126
1.0000929
1.0000737
1.0000551
1.000037
1.0000196
1.000003
0.99998714
0.99997208
0.99995781
0.99994432
0.9999316
0.99991963
0.99990839
0.99989786
0.99988803
0.9998788
0.99987012
0.99986203
0.9998545
0.99984755
0.99984116
0.99983528
0.99982986
0.99982487
0.99982026
0.99981601
0.99981209
0.99980849
0.99980518
0.99980217
1.0000458
1.0000506
1.0000559
1.0000616
1.0000679
1.0000746
1.000082
1.0000899
1.0000984
1.0001076
1.0001175
1.000128
1.0001392
1.000151
1.0001635
1.0001766
1.0001902
1.0002042
1.0002185
1.000233
1.0002474
1.0002616
1.0002752
1.0002881
1.0002998
1.0003101
1.0003187
1.0003253
1.0003295
1.0003313
1.0003305
1.000327
1.0003208
1.000312
1.0003008
1.0002874
1.0002721
1.0002551
1.0002367
1.0002174
1.0001973
1.0001767
1.0001559
1.0001351
1.0001145
1.0000942
1.0000745
1.0000553
1.0000368
1.000019
1.000002
0.99998587
0.99997052
0.99995599
0.99994226
0.99992933
0.99991717
0.99990576
0.99989509
0.99988511
0.9998758
0.99986713
0.99985906
0.99985156
0.9998446
0.99983815
0.99983219
0.99982667
0.99982158
0.99981689
0.99981256
0.99980858
0.99980491
0.99980156
1.0000466
1.0000516
1.000057
1.000063
1.0000694
1.0000764
1.000084
1.0000923
1.0001012
1.0001107
1.000121
1.000132
1.0001437
1.0001561
1.0001692
1.000183
1.0001973
1.0002121
1.0002273
1.0002426
1.000258
1.0002732
1.0002879
1.0003018
1.0003147
1.0003261
1.0003358
1.0003435
1.0003489
1.0003518
1.000352
1.0003494
1.0003441
1.0003361
1.0003256
1.0003129
1.0002981
1.0002816
1.0002636
1.0002445
1.0002246
1.0002042
1.0001834
1.0001626
1.0001419
1.0001215
1.0001016
1.0000822
1.0000635
1.0000455
1.0000282
1.0000118
0.99999616
0.99998134
0.99996732
0.99995409
0.99994164
0.99992996
0.99991901
0.99990876
0.9998992
0.99989028
0.99988198
0.99987426
0.99986709
0.99986044
0.99985428
0.99984858
0.99984332
0.99983845
0.99983396
0.99982982
0.999826
0.99982251
1.0000471
1.0000521
1.0000577
1.0000638
1.0000704
1.0000776
1.0000854
1.0000938
1.000103
1.0001128
1.0001234
1.0001347
1.0001468
1.0001596
1.0001732
1.0001875
1.0002024
1.0002178
1.0002336
1.0002497
1.0002658
1.0002818
1.0002973
1.0003122
1.0003259
1.0003383
1.000349
1.0003577
1.0003641
1.0003679
1.0003691
1.0003675
1.0003631
1.000356
1.0003463
1.0003343
1.0003203
1.0003044
1.0002871
1.0002686
1.0002492
1.0002293
1.0002089
1.0001885
1.0001682
1.0001481
1.0001284
1.0001093
1.0000908
1.0000729
1.0000559
1.0000396
1.000024
1.0000093
0.99999537
0.99998222
0.99996983
0.99995819
0.99994728
0.99993707
0.99992752
0.99991862
0.99991033
0.99990262
0.99989545
0.9998888
0.99988264
0.99987693
0.99987165
0.99986677
0.99986226
0.99985811
0.99985428
0.99985077
1.0000473
1.0000524
1.0000581
1.0000642
1.000071
1.0000783
1.0000862
1.0000948
1.0001042
1.0001142
1.000125
1.0001366
1.000149
1.0001621
1.000176
1.0001907
1.000206
1.0002218
1.0002382
1.0002548
1.0002715
1.0002881
1.0003043
1.0003198
1.0003343
1.0003475
1.0003589
1.0003684
1.0003756
1.0003802
1.0003822
1.0003814
1.0003778
1.0003714
1.0003625
1.0003513
1.0003379
1.0003226
1.0003059
1.000288
1.0002691
1.0002497
1.0002298
1.0002098
1.0001899
1.0001702
1.0001509
1.0001321
1.0001138
1.0000963
1.0000794
1.0000634
1.000048
1.0000335
1.0000197
1.0000067
0.9999945
0.999983
0.99997221
0.99996211
0.99995268
0.99994387
0.99993566
0.99992803
0.99992093
0.99991435
0.99990824
0.99990259
0.99989735
0.99989252
0.99988805
0.99988393
0.99988013
0.99987666
1.0000474
1.0000526
1.0000583
1.0000645
1.0000713
1.0000787
1.0000868
1.0000955
1.000105
1.0001152
1.0001261
1.0001379
1.0001505
1.0001639
1.000178
1.0001929
1.0002086
1.0002248
1.0002415
1.0002585
1.0002756
1.0002927
1.0003094
1.0003254
1.0003405
1.0003542
1.0003663
1.0003764
1.0003842
1.0003895
1.0003921
1.0003919
1.0003889
1.0003831
1.0003748
1.0003641
1.0003512
1.0003365
1.0003202
1.0003027
1.0002843
1.0002652
1.0002457
1.000226
1.0002064
1.000187
1.0001679
1.0001494
1.0001314
1.000114
1.0000974
1.0000814
1.0000663
1.0000519
1.0000383
1.0000254
1.0000133
1.0000019
0.99999119
0.99998119
0.99997184
0.99996311
0.99995498
0.99994741
0.99994038
0.99993386
0.99992781
0.99992221
0.99991703
0.99991224
0.99990782
0.99990375
0.99989999
0.99989655
1.0000474
1.0000527
1.0000584
1.0000647
1.0000716
1.000079
1.0000872
1.000096
1.0001055
1.0001158
1.0001269
1.0001388
1.0001515
1.0001651
1.0001794
1.0001946
1.0002104
1.0002269
1.0002438
1.0002612
1.0002786
1.000296
1.0003131
1.0003295
1.000345
1.0003592
1.0003717
1.0003823
1.0003905
1.0003963
1.0003994
1.0003996
1.0003971
1.0003918
1.0003839
1.0003735
1.000361
1.0003467
1.0003307
1.0003135
1.0002954
1.0002765
1.0002573
1.0002378
1.0002184
1.0001991
1.0001802
1.0001618
1.0001439
1.0001267
1.0001101
1.0000943
1.0000793
1.000065
1.0000514
1.0000386
1.0000265
1.0000152
1.0000046
0.99999463
0.99998534
0.99997666
0.99996858
0.99996106
0.99995407
0.99994759
0.99994158
0.99993602
0.99993087
0.99992612
0.99992174
0.9999177
0.99991398
0.99991057
1.0000475
1.0000527
1.0000585
1.0000648
1.0000717
1.0000792
1.0000874
1.0000963
1.0001059
1.0001163
1.0001274
1.0001394
1.0001523
1.0001659
1.0001804
1.0001957
1.0002117
1.0002284
1.0002456
1.0002631
1.0002808
1.0002985
1.0003158
1.0003325
1.0003483
1.0003628
1.0003757
1.0003866
1.0003952
1.0004013
1.0004047
1.0004053
1.0004031
1.0003981
1.0003905
1.0003804
1.0003682
1.0003541
1.0003383
1.0003213
1.0003033
1.0002847
1.0002655
1.0002462
1.0002269
1.0002077
1.0001889
1.0001705
1.0001527
1.0001355
1.000119
1.0001032
1.0000882
1.0000739
1.0000604
1.0000477
1.0000356
1.0000243
1.0000137
1.0000038
0.99999455
0.9999859
0.99997785
0.99997036
0.9999634
0.99995694
0.99995096
0.99994542
0.9999403
0.99993558
0.99993122
0.99992721
0.99992351
0.99992013
1.0000475
1.0000527
1.0000585
1.0000648
1.0000718
1.0000793
1.0000875
1.0000965
1.0001061
1.0001166
1.0001278
1.0001399
1.0001528
1.0001665
1.0001811
1.0001965
1.0002127
1.0002295
1.0002468
1.0002645
1.0002824
1.0003002
1.0003178
1.0003347
1.0003507
1.0003654
1.0003785
1.0003897
1.0003986
1.0004049
1.0004087
1.0004095
1.0004075
1.0004028
1.0003954
1.0003855
1.0003734
1.0003595
1.0003439
1.000327
1.0003091
1.0002905
1.0002714
1.0002521
1.0002328
1.0002137
1.0001949
1.0001766
1.0001588
1.0001417
1.0001252
1.0001094
1.0000944
1.0000801
1.0000666
1.0000539
1.0000419
1.0000306
1.00002
1.0000101
1.0000009
0.99999223
0.99998419
0.99997671
0.99996977
0.99996333
0.99995737
0.99995185
0.99994675
0.99994205
0.99993771
0.99993371
0.99993003
0.99992667
1.0000475
1.0000527
1.0000585
1.0000649
1.0000718
1.0000794
1.0000876
1.0000966
1.0001063
1.0001167
1.000128
1.0001402
1.0001531
1.000167
1.0001816
1.0001971
1.0002133
1.0002302
1.0002477
1.0002655
1.0002835
1.0003015
1.0003192
1.0003363
1.0003524
1.0003673
1.0003806
1.000392
1.0004011
1.0004076
1.0004115
1.0004126
1.0004108
1.0004062
1.000399
1.0003892
1.0003773
1.0003634
1.0003479
1.0003311
1.0003133
1.0002947
1.0002757
1.0002564
1.0002372
1.0002181
1.0001993
1.000181
1.0001632
1.000146
1.0001296
1.0001138
1.0000988
1.0000845
1.000071
1.0000583
1.0000463
1.000035
1.0000244
1.0000145
1.0000053
0.99999666
0.99998864
0.99998117
0.99997424
0.99996782
0.99996187
0.99995636
0.99995128
0.99994658
0.99994226
0.99993827
0.99993461
0.99993126
1.0000475
1.0000527
1.0000585
1.0000649
1.0000718
1.0000794
1.0000877
1.0000966
1.0001064
1.0001169
1.0001282
1.0001404
1.0001534
1.0001673
1.000182
1.0001975
1.0002138
1.0002308
1.0002483
1.0002662
1.0002843
1.0003024
1.0003202
1.0003374
1.0003537
1.0003687
1.0003822
1.0003936
1.0004029
1.0004096
1.0004137
1.0004149
1.0004133
1.0004088
1.0004017
1.0003921
1.0003803
1.0003665
1.0003511
1.0003343
1.0003165
1.000298
1.000279
1.0002597
1.0002405
1.0002214
1.0002026
1.0001843
1.0001665
1.0001493
1.0001328
1.0001171
1.0001021
1.0000878
1.0000743
1.0000615
1.0000495
1.0000383
1.0000277
1.0000178
1.0000086
0.99999995
0.99999193
0.99998448
0.99997756
0.99997114
0.9999652
0.99995971
0.99995463
0.99994995
0.99994564
0.99994167
0.99993801
0.99993467
1.0000475
1.0000527
1.0000585
1.0000649
1.0000718
1.0000794
1.0000877
1.0000967
1.0001064
1.0001169
1.0001283
1.0001405
1.0001535
1.0001674
1.0001822
1.0001978
1.0002141
1.0002311
1.0002487
1.0002666
1.0002848
1.000303
1.0003208
1.0003381
1.0003545
1.0003697
1.0003832
1.0003949
1.0004043
1.0004112
1.0004153
1.0004167
1.0004152
1.0004109
1.0004039
1.0003944
1.0003827
1.000369
1.0003536
1.0003369
1.0003191
1.0003006
1.0002817
1.0002624
1.0002432
1.0002241
1.0002053
1.000187
1.0001692
1.000152
1.0001355
1.0001198
1.0001047
1.0000905
1.000077
1.0000642
1.0000522
1.0000409
1.0000304
1.0000205
1.0000112
1.0000026
0.9999946
0.99998715
0.99998024
0.99997383
0.9999679
0.99996241
0.99995734
0.99995267
0.99994836
0.9999444
0.99994075
0.99993742
1.0000475
1.0000527
1.0000585
1.0000649
1.0000718
1.0000794
1.0000877
1.0000967
1.0001064
1.000117
1.0001283
1.0001405
1.0001536
1.0001676
1.0001823
1.0001979
1.0002143
1.0002313
1.0002489
1.0002669
1.0002852
1.0003034
1.0003213
1.0003387
1.0003551
1.0003704
1.000384
1.0003958
1.0004053
1.0004124
1.0004167
1.0004182
1.0004168
1.0004127
1.0004058
1.0003964
1.0003848
1.0003712
1.0003559
1.0003392
1.0003215
1.0003031
1.0002841
1.0002649
1.0002457
1.0002266
1.0002078
1.0001895
1.0001717
1.0001545
1.000138
1.0001222
1.0001072
1.0000929
1.0000794
1.0000666
1.0000546
1.0000433
1.0000328
1.0000229
1.0000136
1.000005
0.99999703
0.99998958
0.99998267
0.99997626
0.99997033
0.99996485
0.99995979
0.99995512
0.99995082
0.99994686
0.99994322
0.99993989
1.0000475
1.0000528
1.0000586
1.0000649
1.0000718
1.0000794
1.0000877
1.0000967
1.0001064
1.000117
1.0001284
1.0001406
1.0001537
1.0001676
1.0001824
1.000198
1.0002144
1.0002315
1.0002491
1.0002671
1.0002853
1.0003036
1.0003216
1.000339
1.0003555
1.0003709
1.0003846
1.0003965
1.0004061
1.0004133
1.0004178
1.0004195
1.0004183
1.0004143
1.0004076
1.0003984
1.0003869
1.0003734
1.0003582
1.0003416
1.000324
1.0003056
1.0002867
1.0002675
1.0002483
1.0002292
1.0002104
1.0001921
1.0001743
1.0001571
1.0001406
1.0001248
1.0001097
1.0000954
1.0000819
1.0000691
1.0000571
1.0000458
1.0000352
1.0000253
1.0000161
1.0000075
0.99999948
0.99999204
0.99998512
0.99997872
0.99997279
0.99996731
0.99996224
0.99995758
0.99995327
0.99994932
0.99994567
0.99994234
1.0000475
1.0000528
1.0000586
1.0000649
1.0000719
1.0000794
1.0000877
1.0000967