/*--------------------------------*- C++ -*----------------------------------*\
| =========                 |                                                 |
| \\      /  F ield         | OpenFOAM: The Open Source CFD Toolbox           |
|  \\    /   O peration     | Version:  v2006                                 |
|   \\  /    A nd           | Website:  www.openfoam.com                      |
|    \\/     M anipulation  |                                                 |
\*---------------------------------------------------------------------------*/
FoamFile
{
    version     2.0;
    format      ascii;
    class       volVectorField;
    location    "2000";
    object      U;
}
// * * * * * * * * * * * * * * * * * * * * * * * * * * * * * * * * * * * * * //

dimensions      [0 1 -1 0 0 0 0];


internalField   nonuniform List<vector> 
55713
(
(0.10322319 7.0560679e-07 0)
(0.103129 -3.3577601e-07 0)
(0.1031107 9.5677139e-07 2.5657714e-18)
(0.10310853 7.3685561e-07 -2.55235e-18)
(0.10310984 1.5674142e-06 2.570428e-18)
(0.10311115 1.5814919e-06 2.2521373e-28)
(0.10311178 2.0758513e-06 -2.6458882e-18)
(0.10311183 2.2336257e-06 0)
(0.1031116 2.5666872e-06 1.070956e-20)
(0.10311139 2.8109921e-06 0)
(0.10311137 3.0741638e-06 -1.110616e-20)
(0.10311149 3.3360246e-06 -1.1310409e-20)
(0.10311164 3.5822032e-06 0)
(0.10311187 3.8023809e-06 3.0025595e-18)
(0.10311229 3.9948705e-06 -3.0571457e-18)
(0.10311287 4.1679407e-06 -6.0787129e-21)
(0.10311335 4.3571494e-06 3.1741693e-18)
(0.10311354 4.5962985e-06 -3.2241308e-18)
(0.10311344 4.8314573e-06 6.4076329e-21)
(0.10311328 5.0439764e-06 -3.3376827e-18)
(0.10311326 5.2492762e-06 3.38838e-18)
(0.10311345 5.4526047e-06 0)
(0.10311374 5.665754e-06 0)
(0.10311403 5.8603258e-06 -1.7913629e-18)
(0.10311425 6.0464503e-06 1.8135777e-18)
(0.1031144 6.2235861e-06 0)
(0.1031145 6.3873285e-06 0)
(0.10311455 6.5472468e-06 0)
(0.10311457 6.7181133e-06 2.4129425e-19)
(0.10311456 6.9158173e-06 -1.2898575e-28)
(0.10311451 7.139085e-06 -2.4405456e-19)
(0.10311438 7.3428236e-06 0)
(0.10311415 7.5282954e-06 0)
(0.10311379 7.7185537e-06 0)
(0.10311335 7.9086151e-06 0)
(0.10311294 8.0943616e-06 1.8050035e-18)
(0.10311271 8.2830172e-06 -1.7686313e-18)
(0.10311278 8.4791629e-06 -3.4924708e-18)
(0.10311306 8.6822787e-06 1.4868892e-27)
(0.10311335 8.8920467e-06 3.369378e-18)
(0.10311341 9.106192e-06 0)
(0.10311314 9.3254698e-06 6.3688361e-21)
(0.10311268 9.5459316e-06 -3.2038885e-18)
(0.10311227 9.763523e-06 3.1473758e-18)
(0.1031121 9.9751937e-06 3.0913605e-18)
(0.10311216 1.0199191e-05 -3.0418339e-18)
(0.10311232 1.0430195e-05 0)
(0.10311244 1.0671873e-05 0)
(0.10311243 1.0927703e-05 -2.8626809e-18)
(0.10311229 1.1185743e-05 2.8218488e-18)
(0.10311206 1.1468754e-05 0)
(0.1031118 1.1733154e-05 0)
(0.10311157 1.2058658e-05 0)
(0.10311133 1.2317218e-05 0)
(0.10311104 1.2710428e-05 2.5889158e-18)
(0.10311087 1.2964359e-05 -3.9671448e-27)
(0.10311105 1.3405587e-05 -3.7798675e-18)
(0.10311128 1.3792394e-05 1.2281786e-18)
(0.10311109 1.3933759e-05 -1.9266151e-20)
(0.10323036 1.1535779e-06 0)
(0.10314588 -2.7242665e-07 2.4225401e-18)
(0.1031311 1.1023576e-06 -2.505067e-18)
(0.10312993 7.0796974e-07 3.9161323e-20)
(0.10313145 1.3886714e-06 -2.5374319e-18)
(0.10313265 1.3321887e-06 5.1416655e-18)
(0.10313311 1.7756378e-06 1.6499259e-27)
(0.10313304 1.9134852e-06 -2.6835424e-18)
(0.10313274 2.2813894e-06 -1.0692025e-20)
(0.10313256 2.5466579e-06 2.1807395e-20)
(0.10313261 2.8393051e-06 -2.8349553e-18)
(0.10313278 3.0792168e-06 2.9126663e-18)
(0.10313295 3.3076671e-06 2.9570781e-18)
(0.1031332 3.5111902e-06 1.9542929e-27)
(0.10313366 3.6326336e-06 3.9177756e-27)
(0.10313422 3.6978132e-06 -3.1205705e-18)
(0.10313462 3.7593373e-06 -6.2185314e-21)
(0.10313468 3.9116821e-06 0)
(0.10313446 4.1096407e-06 3.2927796e-18)
(0.10313425 4.3526447e-06 -6.7146553e-18)
(0.10313426 4.6465314e-06 3.4223778e-18)
(0.10313449 4.9227494e-06 1.3571669e-20)
(0.10313481 5.1248011e-06 0)
(0.1031351 5.2502678e-06 7.0163249e-21)
(0.10313532 5.354507e-06 0)
(0.10313546 5.4333372e-06 9.1326687e-19)
(0.10313554 5.5186235e-06 -1.885248e-18)
(0.10313558 5.6326265e-06 9.4250606e-19)
(0.1031356 5.8104284e-06 2.4306384e-19)
(0.10313558 6.0891871e-06 -2.6152143e-19)
(0.10313553 6.3366312e-06 0)
(0.1031354 6.525022e-06 9.5195553e-19)
(0.10313517 6.7339614e-06 -1.9041912e-18)
(0.10313481 6.9260948e-06 9.3709973e-19)
(0.10313434 7.0731684e-06 0)
(0.10313387 7.1973192e-06 1.8142682e-18)
(0.10313358 7.3562554e-06 -1.791369e-18)
(0.1031336 7.5540931e-06 1.3707988e-20)
(0.1031339 7.7399681e-06 0)
(0.10313426 7.8963154e-06 6.6227427e-21)
(0.10313438 8.0475407e-06 3.3320265e-18)
(0.10313414 8.2006645e-06 -6.5533719e-18)
(0.10313365 8.371645e-06 4.7480822e-28)
(0.10313318 8.5557011e-06 3.1572669e-18)
(0.103133 8.749385e-06 -3.0995974e-18)
(0.10313313 8.9487154e-06 6.0904389e-18)
(0.10313336 9.1161339e-06 -5.9705303e-18)
(0.10313349 9.3127078e-06 2.9286979e-18)
(0.10313345 9.5497105e-06 -1.1221175e-20)
(0.10313328 9.7852411e-06 0)
(0.103133 1.0070034e-05 0)
(0.1031327 1.0299374e-05 0)
(0.10313245 1.0644228e-05 -2.6763998e-18)
(0.1031322 1.0823189e-05 2.6245842e-18)
(0.10313188 1.1249794e-05 0)
(0.10313161 1.1404526e-05 3.9174326e-20)
(0.10313175 1.1883491e-05 0)
(0.10313201 1.2075939e-05 1.8919982e-20)
(0.10313179 1.2518604e-05 1.8548118e-20)
(0.1032367 1.322937e-06 0)
(0.10316096 -2.7517462e-07 3.7322863e-20)
(0.10314897 1.0343484e-06 -3.7935986e-20)
(0.10314873 6.0122875e-07 -3.8472144e-20)
(0.10315037 1.1630577e-06 -2.5448745e-18)
(0.10315141 1.1111732e-06 2.5788719e-18)
(0.10315172 1.4625512e-06 0)
(0.10315154 1.5523832e-06 2.0893123e-20)
(0.1031512 1.8037029e-06 -5.4651337e-18)
(0.10315107 1.9792463e-06 5.537829e-18)
(0.10315121 2.1936829e-06 0)
(0.10315143 2.4109389e-06 -2.2711514e-20)
(0.10315161 2.6478487e-06 0)
(0.10315192 2.9190812e-06 3.0001286e-18)
(0.10315246 3.2220974e-06 -6.1644179e-18)
(0.10315304 3.4989859e-06 3.1407602e-18)
(0.10315335 3.6198905e-06 -3.1869358e-18)
(0.10315326 3.6786557e-06 -7.3368794e-27)
(0.10315291 3.833458e-06 3.3172309e-18)
(0.10315266 4.0009809e-06 -3.3763845e-18)
(0.10315268 4.1412832e-06 -3.4332157e-27)
(0.10315295 4.2975889e-06 3.4952745e-18)
(0.1031533 4.5202727e-06 0)
(0.1031536 4.7438767e-06 1.793369e-18)
(0.10315381 4.8822049e-06 1.6025842e-27)
(0.10315393 4.9424816e-06 -1.8384949e-18)
(0.10315401 4.9793943e-06 -1.4826793e-20)
(0.10315405 4.9895398e-06 4.9705309e-19)
(0.10315406 5.0257619e-06 -4.8950204e-19)
(0.10315404 5.1262523e-06 2.4770909e-19)
(0.10315398 5.3083403e-06 -2.468862e-19)
(0.10315387 5.5786611e-06 3.0387682e-20)
(0.10315365 5.8568563e-06 0)
(0.10315329 6.0742563e-06 1.4718935e-20)
(0.1031528 6.2438254e-06 -1.4481505e-20)
(0.10315228 6.3830995e-06 -1.4244477e-20)
(0.10315192 6.5190306e-06 -1.4008025e-20)
(0.10315189 6.6688621e-06 -1.3772265e-20)
(0.1031522 6.7914293e-06 3.4519823e-18)
(0.10315263 6.8626384e-06 -3.4055296e-18)
(0.10315284 6.9352228e-06 0)
(0.10315265 7.0215586e-06 3.2860895e-18)
(0.10315213 7.1321467e-06 -3.2139998e-18)
(0.10315161 7.255556e-06 3.1919807e-18)
(0.10315143 7.3845274e-06 -3.1079633e-18)
(0.10315163 7.5637975e-06 -3.0249455e-18)
(0.10315195 7.7750451e-06 -4.9725429e-27)
(0.10315209 8.0165106e-06 2.9076844e-18)
(0.103152 8.2931979e-06 2.2434322e-20)
(0.10315176 8.5428718e-06 0)
(0.10315142 8.8362259e-06 0)
(0.10315108 9.0458205e-06 0)
(0.10315079 9.4249549e-06 2.0601215e-20)
(0.10315056 9.4541173e-06 -2.0147558e-20)
(0.10315022 9.8867248e-06 0)
(0.10314984 9.8901294e-06 2.4641144e-18)
(0.10314994 1.0378781e-05 -2.4076548e-18)
(0.10315025 1.0446411e-05 0)
(0.10315002 1.098142e-05 0)
(0.10324186 1.3496515e-06 6.8436232e-20)
(0.10317376 -2.769349e-07 -7.2492311e-20)
(0.10316457 9.2505054e-07 -2.335317e-18)
(0.1031651 5.5274441e-07 2.4197223e-18)
(0.10316677 1.0620866e-06 3.8672105e-20)
(0.10316765 1.0599442e-06 0)
(0.10316782 1.4035177e-06 -2.6013326e-18)
(0.10316753 1.4911295e-06 7.974285e-18)
(0.10316717 1.702904e-06 -1.0911466e-17)
(0.10316712 1.8309127e-06 5.6017164e-18)
(0.10316736 1.9819589e-06 -2.8515091e-18)
(0.10316758 2.1240233e-06 2.2755163e-20)
(0.10316778 2.2723782e-06 5.9469564e-18)
(0.10316819 2.4200319e-06 -3.0103126e-18)
(0.10316884 2.6104815e-06 0)
(0.10316944 2.8992027e-06 0)
(0.10316965 3.2121832e-06 -1.2556859e-20)
(0.10316939 3.4391296e-06 0)
(0.10316892 3.5490743e-06 0)
(0.10316862 3.5824135e-06 2.6521438e-20)
(0.10316868 3.6220994e-06 -1.3495909e-20)
(0.10316899 3.7128652e-06 -2.7463307e-20)
(0.10316935 3.8548171e-06 -1.7879085e-18)
(0.10316965 4.0209702e-06 1.832459e-18)
(0.10316985 4.2147696e-06 1.4442833e-20)
(0.10316997 4.4019687e-06 -1.4681133e-20)
(0.10317004 4.5304087e-06 9.6978235e-19)
(0.10317008 4.5807647e-06 -9.7013264e-19)
(0.10317008 4.5586169e-06 1.539641e-20)
(0.10317006 4.5344254e-06 -2.3362465e-19)
(0.10317001 4.5746839e-06 -2.4821674e-19)
(0.1031699 4.6652772e-06 4.7348125e-19)
(0.1031697 4.8215881e-06 0)
(0.10316936 5.0517068e-06 -1.9082323e-18)
(0.10316887 5.3297424e-06 1.4552214e-20)
(0.10316831 5.5577059e-06 3.6925968e-18)
(0.10316787 5.6913961e-06 -1.7872927e-18)
(0.10316778 5.7133039e-06 0)
(0.10316809 5.6835227e-06 1.3596525e-20)
(0.10316859 5.7198747e-06 0)
(0.10316891 5.8297787e-06 0)
(0.10316878 5.9494482e-06 2.576971e-20)
(0.10316826 6.0743497e-06 -1.264798e-20)
(0.10316768 6.2375034e-06 -3.2020026e-18)
(0.10316747 6.429306e-06 3.1163631e-18)
(0.10316775 6.6609691e-06 -3.6604508e-26)
(0.10316817 6.9416166e-06 2.3391675e-20)
(0.10316834 7.1940011e-06 3.5157208e-26)
(0.10316819 7.4490928e-06 -2.2427914e-20)
(0.10316786 7.5977187e-06 -5.5950955e-18)
(0.10316746 7.8280839e-06 5.4915937e-18)
(0.10316707 7.874929e-06 4.1914759e-20)
(0.10316675 8.1599079e-06 -2.6596093e-18)
(0.10316653 8.182469e-06 5.1082884e-18)
(0.1031662 8.5418389e-06 -5.0164688e-18)
(0.10316572 8.5715184e-06 2.4224681e-18)
(0.10316576 9.0254173e-06 -7.3591336e-20)
(0.10316614 9.052081e-06 0)
(0.10316589 9.7072721e-06 0)
(0.10324596 1.2380018e-06 -6.6140471e-20)
(0.10318567 -2.1354755e-07 7.044081e-20)
(0.10317819 8.0020403e-07 -2.3191039e-18)
(0.10317932 5.3600723e-07 2.3045266e-18)
(0.10318096 9.9398955e-07 -2.4452611e-18)
(0.10318166 1.0669763e-06 2.5553255e-18)
(0.10318171 1.3952424e-06 2.5462281e-18)
(0.10318133 1.528159e-06 -2.6556946e-18)
(0.10318098 1.7409784e-06 5.4036102e-18)
(0.10318104 1.8835102e-06 -1.1112838e-17)
(0.10318137 2.0375762e-06 5.7080879e-18)
(0.10318157 2.1760538e-06 -2.2797655e-20)
(0.10318179 2.2842848e-06 -2.9814009e-18)
(0.10318234 2.3392992e-06 6.0880973e-18)
(0.10318313 2.3606019e-06 -3.1061617e-18)
(0.10318373 2.3953197e-06 -3.1678525e-18)
(0.10318382 2.5129115e-06 2.5228367e-20)
(0.10318338 2.669192e-06 3.2646903e-18)
(0.10318277 2.7917281e-06 -2.6182964e-20)
(0.10318246 2.8844487e-06 -5.3318439e-20)
(0.10318258 2.9714737e-06 1.3567767e-20)
(0.10318294 3.0657755e-06 1.3806195e-20)
(0.10318332 3.1784707e-06 0)
(0.10318361 3.3059119e-06 -1.8284318e-18)
(0.1031838 3.4703375e-06 -1.4524825e-20)
(0.10318391 3.6595937e-06 1.9047645e-18)
(0.10318397 3.8545037e-06 0)
(0.10318401 4.0372481e-06 0)
(0.10318401 4.1529207e-06 -3.0979015e-20)
(0.103184 4.185462e-06 2.3493344e-19)
(0.10318395 4.1536191e-06 -2.4946492e-19)
(0.10318385 4.1318524e-06 0)
(0.10318367 4.1621466e-06 0)
(0.10318335 4.2266156e-06 -1.9023021e-18)
(0.10318287 4.3381658e-06 3.7424425e-18)
(0.10318229 4.4708368e-06 -1.8545926e-18)
(0.10318178 4.5931889e-06 -1.7810206e-18)
(0.1031816 4.6797989e-06 1.7784367e-18)
(0.10318188 4.8336144e-06 0)
(0.10318245 5.0321486e-06 0)
(0.10318289 5.2046332e-06 -3.3985615e-18)
(0.10318287 5.3440486e-06 3.2847728e-18)
(0.10318238 5.4868831e-06 2.5382184e-20)
(0.10318175 5.6535926e-06 -3.1869714e-18)
(0.10318148 5.8349879e-06 6.2249532e-18)
(0.10318178 5.983855e-06 -3.0858683e-18)
(0.1031823 6.1354039e-06 -3.0220972e-18)
(0.10318252 6.2093968e-06 5.8694934e-18)
(0.10318232 6.3271218e-06 -2.8700579e-18)
(0.10318189 6.3671447e-06 -6.5729907e-20)
(0.10318143 6.5667366e-06 0)
(0.10318101 6.6302459e-06 -4.1719005e-20)
(0.10318064 6.8948038e-06 2.6007852e-18)
(0.10318043 6.9839476e-06 -5.0598549e-18)
(0.10318015 7.3007177e-06 2.5339428e-18)
(0.10317956 7.3996018e-06 3.7220251e-20)
(0.10317953 7.810712e-06 1.4401493e-19)
(0.10317998 7.8205761e-06 6.9465212e-20)
(0.10317973 8.5168244e-06 6.6603549e-20)
(0.10324904 1.0335247e-06 -1.0235612e-18)
(0.10319515 -1.2727081e-07 -1.0957598e-18)
(0.10319004 6.4640833e-07 2.3389373e-18)
(0.10319161 5.1469127e-07 -2.2665838e-18)
(0.10319315 8.6288705e-07 -6.4510965e-27)
(0.10319366 9.2800286e-07 2.4560812e-18)
(0.10319361 1.1621448e-06 4.0187361e-20)
(0.10319314 1.2592635e-06 5.2925803e-18)
(0.10319282 1.4345377e-06 4.2471903e-20)
(0.10319302 1.5802194e-06 -5.6198511e-18)
(0.10319344 1.7387732e-06 5.6682723e-18)
(0.10319354 1.8712448e-06 -5.8239366e-18)
(0.1031938 1.9641362e-06 -2.9891242e-18)
(0.10319454 2.0274289e-06 3.0538289e-18)
(0.10319544 2.0825186e-06 2.435681e-20)
(0.10319602 2.1167902e-06 0)
(0.10319596 2.1490342e-06 -2.5339284e-20)
(0.10319531 2.212659e-06 3.331443e-18)
(0.10319461 2.3073359e-06 -6.7087026e-18)
(0.10319433 2.413443e-06 2.5067482e-26)
(0.10319454 2.5202368e-06 2.7271806e-20)
(0.10319496 2.6122947e-06 3.5523943e-18)
(0.10319535 2.6898928e-06 -1.8070375e-18)
(0.10319563 2.7662515e-06 1.8379478e-18)
(0.1031958 2.8491938e-06 1.8689446e-18)
(0.1031959 2.9631955e-06 -1.9148768e-18)
(0.10319596 3.1261337e-06 9.6560078e-19)
(0.10319599 3.3111527e-06 -9.8121128e-19)
(0.103196 3.4965139e-06 -2.336303e-19)
(0.10319599 3.65469e-06 1.5742599e-20)
(0.10319595 3.7383563e-06 2.5061299e-19)
(0.10319587 3.7593377e-06 0)
(0.10319571 3.7387355e-06 -1.5171286e-20)
(0.10319542 3.7119261e-06 0)
(0.10319497 3.7237428e-06 -1.4680777e-20)
(0.10319437 3.7794902e-06 -1.8478822e-18)
(0.10319379 3.8834037e-06 -2.8386118e-20)
(0.1031935 4.0007131e-06 5.3568151e-18)
(0.10319374 4.1895409e-06 -7.0181441e-18)
(0.10319437 4.3703107e-06 -2.6929161e-20)
(0.10319496 4.5453897e-06 6.8223165e-18)
(0.10319507 4.6901136e-06 -3.3223197e-18)
(0.10319466 4.8007298e-06 3.2087013e-18)
(0.10319401 4.8683867e-06 -3.2214957e-18)
(0.10319362 4.9513455e-06 2.4475357e-20)
(0.10319385 4.9876731e-06 0)
(0.10319443 5.079351e-06 0)
(0.10319469 5.121443e-06 4.5888796e-20)
(0.10319446 5.2657674e-06 5.738795e-18)
(0.10319398 5.3568363e-06 -5.557288e-18)
(0.10319345 5.5548397e-06 -4.2656715e-20)
(0.10319303 5.6571328e-06 2.6576771e-18)
(0.1031926 5.8748032e-06 -5.1259865e-18)
(0.10319237 5.9778253e-06 -4.4123431e-27)
(0.10319221 6.2305518e-06 2.3883536e-18)
(0.10319149 6.3477743e-06 -8.4992852e-26)
(0.10319139 6.6740859e-06 -2.2554649e-18)
(0.10319192 6.7060078e-06 2.0954176e-18)
(0.10319167 7.3343798e-06 -6.4373077e-20)
(0.10325145 7.8728749e-07 0)
(0.10320397 -4.4157933e-08 6.6619527e-20)
(0.10320051 4.9993517e-07 -7.1762202e-26)
(0.10320238 4.5261813e-07 0)
(0.10320379 6.6891914e-07 -2.4629868e-18)
(0.10320411 7.5021252e-07 2.513041e-18)
(0.10320399 8.9432321e-07 0)
(0.10320339 9.5930938e-07 4.1200157e-20)
(0.10320315 1.0840632e-06 0)
(0.10320352 1.1873679e-06 5.6176699e-18)
(0.103204 1.3017629e-06 -5.6727605e-18)
(0.10320391 1.4055697e-06 2.9284927e-18)
(0.10320427 1.4968003e-06 4.0525553e-27)
(0.10320522 1.5917639e-06 -3.0633185e-18)
(0.10320621 1.7133046e-06 -3.1532652e-18)
(0.10320672 1.8669765e-06 3.1933374e-18)
(0.10320645 1.9860349e-06 0)
(0.10320558 2.0613069e-06 2.5938769e-20)
(0.10320482 2.1220584e-06 -2.6428006e-20)
(0.10320467 2.2028753e-06 2.7924476e-26)
(0.10320501 2.2921996e-06 -2.7399673e-20)
(0.10320549 2.369551e-06 0)
(0.1032059 2.4207285e-06 0)
(0.10320616 2.4476689e-06 0)
(0.10320631 2.4673205e-06 0)
(0.1032064 2.5067935e-06 0)
(0.10320646 2.5606455e-06 -9.5511955e-19)
(0.10320649 2.6542034e-06 5.0841693e-19)
(0.10320649 2.7924754e-06 5.0089201e-19)
(0.10320648 2.9451145e-06 2.3722458e-19)
(0.10320645 3.0973532e-06 -7.5493358e-19)
(0.10320638 3.2235532e-06 5.1081307e-19)
(0.10320625 3.3077999e-06 1.5230997e-20)
(0.103206 3.3570732e-06 0)
(0.10320558 3.3829424e-06 1.4736976e-20)
(0.103205 3.4032383e-06 0)
(0.10320435 3.4427593e-06 0)
(0.10320395 3.4732052e-06 3.6124971e-18)
(0.1032041 3.549471e-06 -7.0163932e-18)
(0.10320479 3.6190529e-06 6.9457208e-18)
(0.10320553 3.7308778e-06 -6.8461944e-18)
(0.1032058 3.8146157e-06 6.6669401e-18)
(0.10320551 3.910227e-06 -3.2443778e-18)
(0.10320489 3.9656619e-06 2.504497e-20)
(0.10320436 4.0671757e-06 3.1653133e-18)
(0.10320439 4.1323038e-06 -3.0747882e-18)
(0.10320495 4.2488435e-06 2.3496809e-20)
(0.10320521 4.3415577e-06 -2.2960886e-20)
(0.10320499 4.4754331e-06 5.7375093e-18)
(0.10320452 4.5748225e-06 -1.1142815e-17)
(0.10320395 4.716914e-06 5.4871752e-18)
(0.10320356 4.8107163e-06 4.1336054e-20)
(0.10320308 4.9754509e-06 0)
(0.10320279 5.0777133e-06 -2.5216542e-18)
(0.1032028 5.2683179e-06 2.396076e-18)
(0.10320197 5.395987e-06 -7.2027735e-20)
(0.10320176 5.6710931e-06 2.1394857e-18)
(0.10320239 5.7297584e-06 -2.0401662e-18)
(0.10320216 6.2380468e-06 1.2454551e-19)
(0.10325323 4.7846526e-07 0)
(0.1032113 1.8192187e-08 -2.204469e-18)
(0.10320965 3.5372858e-07 -6.7874747e-20)
(0.10321161 4.3195805e-07 4.6015101e-18)
(0.10321289 5.6622212e-07 7.377488e-20)
(0.10321304 6.6276077e-07 -4.9844625e-18)
(0.10321284 7.690441e-07 2.542697e-18)
(0.1032121 8.6142561e-07 5.1724178e-18)
(0.10321203 9.4944954e-07 -5.3739529e-18)
(0.10321258 1.0249011e-06 -3.280307e-26)
(0.10321307 1.0937815e-06 4.4700096e-20)
(0.10321266 1.1764823e-06 -2.2917089e-20)
(0.10321332 1.2437539e-06 0)
(0.10321448 1.348367e-06 2.4003663e-20)
(0.10321549 1.4627922e-06 3.1640723e-18)
(0.10321589 1.597406e-06 -3.205326e-18)
(0.10321532 1.7173456e-06 3.2445076e-18)
(0.10321421 1.8263922e-06 -3.3339357e-18)
(0.10321347 1.8878925e-06 2.0089329e-26)
(0.10321354 1.9445194e-06 -3.4328407e-18)
(0.10321404 2.0003649e-06 7.0170541e-18)
(0.10321459 2.0729548e-06 -3.5845561e-18)
(0.10321499 2.1363839e-06 0)
(0.10321523 2.1923562e-06 1.4489027e-20)
(0.10321537 2.2181105e-06 -1.9006127e-18)
(0.10321546 2.2136239e-06 1.9023107e-18)
(0.1032155 2.2030119e-06 -1.5225307e-20)
(0.10321553 2.2167394e-06 4.7965651e-19)
(0.10321554 2.2567411e-06 -5.0307332e-19)
(0.10321553 2.333679e-06 1.587819e-20)
(0.1032155 2.4434663e-06 5.0507651e-19)
(0.10321545 2.5645122e-06 -5.125833e-19)
(0.10321534 2.6963095e-06 -1.5282859e-20)
(0.10321513 2.8085019e-06 0)
(0.10321477 2.8866306e-06 0)
(0.10321421 2.9133244e-06 -1.8756294e-18)
(0.10321353 2.9338261e-06 1.8296353e-18)
(0.10321299 2.9364355e-06 -2.8097553e-20)
(0.10321301 2.9712031e-06 -2.7607052e-20)
(0.10321373 3.016008e-06 0)
(0.10321463 3.0927838e-06 2.6621682e-20)
(0.1032151 3.1537528e-06 -3.3178011e-18)
(0.10321493 3.2411161e-06 3.2540278e-18)
(0.10321439 3.3091103e-06 -3.2145376e-18)
(0.10321375 3.4071253e-06 3.1237675e-18)
(0.10321342 3.4805267e-06 2.4069399e-20)
(0.10321396 3.5838275e-06 -2.3530007e-20)
(0.10321414 3.6660201e-06 0)
(0.10321394 3.765995e-06 0)
(0.10321358 3.8466061e-06 -4.3636304e-20)
(0.10321301 3.9543664e-06 0)
(0.10321268 4.0505988e-06 -4.1147634e-20)
(0.10321219 4.1757397e-06 0)
(0.10321175 4.2889098e-06 2.5367944e-18)
(0.10321199 4.4220071e-06 -2.2925775e-18)
(0.10321109 4.5642937e-06 7.0872065e-20)
(0.10321072 4.7344536e-06 -2.1632363e-18)
(0.10321149 4.8067627e-06 3.0773854e-18)
(0.10321129 5.191518e-06 -1.0852657e-18)
(0.10325292 2.2549522e-07 1.1629324e-19)
(0.10321602 8.1736621e-08 -2.0203294e-18)
(0.1032164 2.242647e-07 -2.8314338e-27)
(0.10321819 3.4634368e-07 2.1604034e-18)
(0.10321937 4.0378885e-07 0)
(0.10321942 5.7032853e-07 3.8024519e-20)
(0.10321906 6.1711548e-07 -3.9501037e-20)
(0.1032182 7.5509555e-07 5.2762427e-18)
(0.10321844 8.0470884e-07 -1.081189e-17)
(0.10321915 9.1980039e-07 -4.3508094e-20)
(0.10321956 9.7228862e-07 5.6807761e-18)
(0.1032187 1.0564378e-06 2.9610461e-18)
(0.10321995 1.0926838e-06 -3.0108141e-18)
(0.10322129 1.1661425e-06 -2.4072551e-20)
(0.10322225 1.2110691e-06 -2.4608108e-20)
(0.10322254 1.2817642e-06 0)
(0.1032215 1.3172946e-06 2.5643535e-20)
(0.10322014 1.3818081e-06 -2.6147531e-20)
(0.10321951 1.4205195e-06 2.6644712e-20)
(0.1032199 1.479642e-06 0)
(0.10322055 1.5282818e-06 3.5637051e-18)
(0.10322113 1.5972436e-06 -5.3976332e-18)
(0.10322151 1.6664819e-06 1.8160571e-18)
(0.10322173 1.7581109e-06 1.8470065e-18)
(0.10322186 1.8300262e-06 -1.8632741e-18)
(0.10322194 1.8950558e-06 -9.4711661e-19)
(0.10322199 1.9070779e-06 9.7796355e-19)
(0.10322201 1.9002557e-06 0)
(0.10322202 1.9008382e-06 -2.5246223e-19)
(0.10322202 1.907111e-06 2.548943e-19)
(0.103222 1.9340582e-06 4.9070686e-19)
(0.10322195 1.9843549e-06 -1.5109367e-18)
(0.10322187 2.0654368e-06 9.9615415e-19)
(0.1032217 2.1717528e-06 1.5075773e-20)
(0.10322138 2.2581885e-06 -1.9127637e-18)
(0.10322087 2.3230261e-06 1.8809229e-18)
(0.10322016 2.3629144e-06 0)
(0.10321949 2.3981314e-06 -3.6069276e-18)
(0.1032193 2.4380562e-06 3.5440791e-18)
(0.10322004 2.4846789e-06 0)
(0.10322107 2.5383379e-06 0)
(0.1032218 2.5907548e-06 -2.6199411e-20)
(0.10322173 2.6477022e-06 2.5692737e-20)
(0.10322128 2.7056596e-06 0)
(0.1032206 2.7677639e-06 0)
(0.10321972 2.8337089e-06 -2.4114326e-20)
(0.10322036 2.8853911e-06 0)
(0.10322043 2.9598196e-06 0)
(0.10322025 3.0206695e-06 5.7344531e-18)
(0.10322004 3.1061486e-06 -5.5774801e-18)
(0.10321951 3.1839182e-06 0)
(0.10321927 3.2805937e-06 4.0959892e-20)
(0.10321882 3.3799012e-06 -3.9558172e-20)
(0.10321814 3.4777988e-06 -2.4753855e-18)
(0.10321857 3.5924208e-06 2.2645165e-18)
(0.10321773 3.7263991e-06 -6.9746912e-20)
(0.10321708 3.8605883e-06 2.0533087e-18)
(0.10321811 3.954075e-06 -2.1246174e-18)
(0.10321793 4.2698075e-06 0)
(0.10325156 -1.606687e-08 -1.1280763e-19)
(0.10322044 1.938701e-07 2.0297399e-18)
(0.10322273 2.3059577e-08 -2.0835157e-18)
(0.10322379 5.1812346e-07 -6.8624532e-20)
(0.10322498 3.2944401e-07 3.6053129e-20)
(0.10322527 5.0347596e-07 0)
(0.10322431 5.2135206e-07 3.9273328e-20)
(0.10322348 6.3094601e-07 0)
(0.10322438 6.8200519e-07 5.3533359e-18)
(0.10322513 7.7938148e-07 7.3773504e-27)
(0.10322526 8.1770579e-07 -5.751451e-18)
(0.10322392 8.93369e-07 2.2988778e-20)
(0.10322599 9.1482817e-07 0)
(0.10322753 9.9027758e-07 0)
(0.10322839 1.0155376e-06 3.159585e-18)
(0.10322847 1.0828408e-06 -3.2527363e-18)
(0.10322674 1.105588e-06 0)
(0.10322529 1.144664e-06 -1.312021e-20)
(0.10322487 1.1574353e-06 0)
(0.10322558 1.202978e-06 0)
(0.10322636 1.2240613e-06 0)
(0.10322695 1.2778102e-06 -1.8051665e-18)
(0.1032273 1.3120121e-06 1.8505508e-18)
(0.1032275 1.3841785e-06 0)
(0.10322761 1.4374023e-06 -1.4831922e-20)
(0.10322768 1.521565e-06 0)
(0.10322772 1.5876392e-06 -1.5323903e-20)
(0.10322774 1.6355611e-06 -5.138968e-19)
(0.10322775 1.6632213e-06 5.0633993e-19)
(0.10322774 1.6746948e-06 -1.5971595e-20)
(0.10322772 1.6756861e-06 5.3941319e-19)
(0.10322769 1.6952788e-06 -1.4986835e-18)
(0.10322761 1.7290491e-06 9.6764474e-19)
(0.10322746 1.7729645e-06 -3.0219271e-20)
(0.1032272 1.8286269e-06 1.7017115e-26)
(0.10322672 1.8819725e-06 0)
(0.10322598 1.9311175e-06 0)
(0.10322515 1.9767746e-06 0)
(0.10322471 2.0193387e-06 1.3880626e-20)
(0.10322542 2.0665969e-06 -3.4904502e-18)
(0.1032265 2.119337e-06 6.8672787e-18)
(0.1032276 2.1654846e-06 4.9838978e-27)
(0.10322762 2.2217215e-06 -6.5948438e-18)
(0.10322719 2.2788691e-06 3.2560895e-18)
(0.10322644 2.3254476e-06 0)
(0.10322487 2.3883956e-06 0)
(0.10322583 2.4278843e-06 0)
(0.10322589 2.5034272e-06 5.8897681e-18)
(0.10322573 2.5570736e-06 -5.7558451e-18)
(0.10322559 2.626584e-06 2.1758794e-20)
(0.10322513 2.6949968e-06 -4.218223e-20)
(0.10322501 2.7628184e-06 -4.6779628e-26)
(0.10322467 2.840128e-06 4.5096076e-26)
(0.10322371 2.9381802e-06 -3.7739911e-20)
(0.10322393 3.0002437e-06 3.6085917e-20)
(0.10322364 3.1090948e-06 0)
(0.10322226 3.1550075e-06 7.4625643e-26)
(0.10322389 3.3421585e-06 6.0943626e-20)
(0.10322375 3.4115166e-06 0)
(0.1032564 -6.1280771e-07 9.3071604e-19)
(0.10322983 7.994676e-07 -9.5918746e-19)
(0.10323442 -3.1618126e-07 0)
(0.1032329 2.3410923e-07 6.7592649e-20)
(0.10323448 2.8593689e-08 -3.5646925e-20)
(0.10323645 2.1975581e-07 2.4307825e-18)
(0.10323318 2.2220298e-07 -2.5379943e-18)
(0.10323311 2.3224708e-07 5.1968814e-18)
(0.10323564 2.9572327e-07 1.4152979e-26)
(0.10323629 3.6435931e-07 -5.5629462e-18)
(0.10323549 4.2907395e-07 -5.6874695e-18)
(0.10323424 4.8105993e-07 5.8705203e-18)
(0.10323638 5.1622399e-07 0)
(0.10323902 5.5887504e-07 0)
(0.10323969 6.2395879e-07 3.1687862e-18)
(0.10323893 6.7617106e-07 -3.1996604e-18)
(0.10323676 7.1697697e-07 -1.2907992e-20)
(0.1032357 7.8630603e-07 1.3799373e-26)
(0.10323554 8.4923585e-07 0)
(0.10323626 8.9980512e-07 1.3657662e-20)
(0.10323734 9.4471932e-07 -3.558543e-18)
(0.10323799 1.0143528e-06 3.6061796e-18)
(0.10323832 1.0620666e-06 1.840975e-18)
(0.1032385 1.1269563e-06 -1.8718263e-18)
(0.10323861 1.208275e-06 0)
(0.10323868 1.2767923e-06 0)
(0.10323873 1.3468734e-06 -9.520266e-19)
(0.10323876 1.4405591e-06 1.014226e-18)
(0.10323877 1.5501715e-06 0)
(0.10323877 1.6388373e-06 1.5998555e-20)
(0.10323876 1.6795708e-06 -1.5887247e-20)
(0.10323873 1.6882919e-06 1.5632851e-20)
(0.10323866 1.6861471e-06 9.8438971e-19)
(0.10323853 1.7277259e-06 9.8357717e-19)
(0.10323829 1.7639151e-06 1.4885193e-20)
(0.10323783 1.8417672e-06 -1.8885997e-18)
(0.10323703 1.9022365e-06 -1.8283835e-18)
(0.10323596 1.9590967e-06 -1.8116667e-18)
(0.10323545 2.0036579e-06 3.5470884e-18)
(0.10323603 2.0130453e-06 1.3665278e-20)
(0.10323698 2.0723953e-06 -2.6835833e-20)
(0.1032384 2.0902694e-06 1.3166906e-20)
(0.10323886 2.1339719e-06 -1.2911085e-20)
(0.10323839 2.1801883e-06 -2.5298445e-20)
(0.10323665 2.2098808e-06 -1.2379807e-20)
(0.10323513 2.2930635e-06 -2.4202462e-20)
(0.10323627 2.2601478e-06 0)
(0.10323683 2.355382e-06 0)
(0.10323674 2.383662e-06 -5.7097432e-18)
(0.10323621 2.4428607e-06 -4.3460103e-20)
(0.10323607 2.5067707e-06 5.4268037e-18)
(0.10323623 2.5381757e-06 -4.059995e-20)
(0.10323593 2.6831645e-06 3.9047517e-20)
(0.10323496 2.6849342e-06 2.4311828e-18)
(0.10323328 2.7875792e-06 -2.3177481e-18)
(0.10323526 2.8868478e-06 -2.1633341e-18)
(0.10323166 2.6618889e-06 4.138123e-18)
(0.10323527 3.5135078e-06 -8.9202429e-19)
(0.10323519 2.5511773e-06 -8.2475259e-19)
(0.10325382 -1.6969192e-06 -1.0634492e-19)
(0.1032272 8.3614887e-07 5.8454482e-20)
(0.10324048 1.5364609e-07 3.1276841e-20)
(0.10323153 7.5414472e-07 0)
(0.10323573 6.0860501e-07 0)
(0.10324241 9.0264631e-07 2.3357726e-18)
(0.10323062 8.0950503e-07 -2.46433e-18)
(0.10323416 8.3736609e-07 5.1959547e-18)
(0.1032413 8.8159895e-07 -5.3511366e-18)
(0.10324209 8.4091549e-07 5.5576102e-18)
(0.10323861 9.2623331e-07 -5.7780682e-18)
(0.10323964 7.9783334e-07 -5.8997665e-18)
(0.10323755 8.5014151e-07 3.0289687e-18)
(0.10324516 8.0245045e-07 6.2208298e-18)
(0.10324568 8.5741867e-07 -3.1766684e-18)
(0.10324213 8.1501373e-07 5.5269747e-26)
(0.10324124 8.139869e-07 1.2943692e-20)
(0.10324136 7.9967009e-07 -3.352529e-18)
(0.10324126 7.6301181e-07 6.8854679e-18)
(0.10324046 7.4671814e-07 -3.532738e-18)
(0.10324276 7.0212768e-07 0)
(0.10324376 6.5469759e-07 1.4173619e-20)
(0.10324419 6.238412e-07 0)
(0.10324445 5.8056829e-07 7.3257764e-21)
(0.1032446 5.1660919e-07 -7.4459421e-21)
(0.10324471 4.6990822e-07 0)
(0.10324478 4.3346094e-07 -2.306872e-20)
(0.10324484 4.1949663e-07 0)
(0.10324488 3.9088434e-07 0)
(0.10324492 3.6706948e-07 0)
(0.10324493 3.3751033e-07 0)
(0.10324488 3.0805371e-07 0)
(0.1032448 2.79895e-07 2.3067609e-20)
(0.10324465 2.4752162e-07 7.5651676e-21)
(0.10324434 2.0884856e-07 0)
(0.10324372 1.8887889e-07 2.1963285e-20)
(0.10324259 1.471428e-07 -1.4400825e-20)
(0.10324086 1.2275257e-07 7.0800906e-21)
(0.1032415 9.1018866e-08 -6.9594611e-21)
(0.10324133 4.7238491e-08 -1.3675915e-20)
(0.10324239 3.6431165e-08 3.4515167e-18)
(0.10324277 -1.0890705e-09 -6.7612533e-18)
(0.10324528 -9.8850951e-09 1.2923861e-20)
(0.10324481 -1.1415843e-08 3.2538377e-18)
(0.10323942 -1.3802631e-08 1.2389312e-20)
(0.10324087 1.0098647e-08 2.4214154e-20)
(0.10324024 -6.4486435e-08 0)
(0.10324294 -3.3613274e-08 -5.8784025e-18)
(0.10324321 -3.4076531e-08 2.2359111e-20)
(0.10324037 -2.3011719e-08 5.5922922e-18)
(0.1032416 1.3042914e-08 2.0953237e-20)
(0.10324272 3.3685848e-08 0)
(0.10324177 1.1145774e-07 -2.4802119e-18)
(0.1032418 1.6431266e-07 2.3884552e-18)
(0.1032326 2.44299e-07 0)
(0.10324227 3.4203475e-07 3.3256812e-20)
(0.10323103 4.8618528e-07 -2.0277284e-18)
(0.10324185 7.6941442e-07 1.7983953e-18)
(0.1032419 3.7026939e-07 -1.0679201e-19)
(0.10321042 -1.8154795e-06 5.1687587e-20)
(0.10319332 -1.0812005e-06 1.7681514e-18)
(0.1032062 -8.1745902e-07 -1.9946126e-18)
(0.10319629 -1.0033532e-06 2.1001032e-18)
(0.10320739 -3.6580921e-07 -4.4612763e-18)
(0.10320514 -8.6473194e-07 4.7080227e-18)
(0.10319419 -6.5796912e-07 -2.4603213e-18)
(0.1032082 -4.1845485e-07 5.1374061e-18)
(0.10320148 -4.3015155e-07 -1.0473684e-20)
(0.10320611 -3.7698858e-07 -5.5445444e-18)
(0.10319887 -3.4292127e-07 -5.7146223e-18)
(0.10319822 -2.2076982e-07 5.9138234e-18)
(0.1032084 -1.0184521e-07 0)
(0.10320891 -1.1090703e-07 -1.2155567e-20)
(0.10320583 -1.567533e-07 6.221114e-21)
(0.10320138 -1.9184339e-07 -1.2716309e-20)
(0.10320321 -1.8184761e-07 -3.3162063e-18)
(0.10319985 -1.6609125e-07 3.3744422e-18)
(0.1031991 -6.276311e-08 -6.7396702e-21)
(0.10320275 1.1808077e-08 3.5260481e-18)
(0.10320231 1.1910937e-07 -7.1459175e-18)
(0.10320231 1.9245915e-07 5.4494875e-18)
(0.10320243 2.7537458e-07 -1.846385e-18)
(0.10320251 3.5796846e-07 -3.6646475e-21)
(0.10320258 4.1670416e-07 -1.8989569e-18)
(0.10320264 4.9958412e-07 1.9405802e-18)
(0.10320268 5.505531e-07 7.6858506e-21)
(0.10320271 6.3456569e-07 0)
(0.10320274 6.8458675e-07 0)
(0.10320275 7.5825482e-07 0)
(0.10320276 8.1551385e-07 0)
(0.10320276 8.9817047e-07 -1.0007655e-18)
(0.10320276 9.5705885e-07 9.7713566e-19)
(0.10320274 1.04545e-06 -1.942087e-18)
(0.10320272 1.1189693e-06 1.90366e-18)
(0.1032027 1.1965893e-06 -3.6656372e-21)
(0.10320252 1.2604608e-06 0)
(0.10320203 1.3442897e-06 3.6324049e-18)
(0.10319965 1.4223531e-06 -3.5647327e-18)
(0.10320101 1.4719986e-06 0)
(0.10320103 1.4803308e-06 -3.4548752e-18)
(0.10320216 1.4639918e-06 3.3910752e-18)
(0.10320519 1.4181974e-06 -3.312484e-18)
(0.10320724 1.3578512e-06 3.232228e-18)
(0.10320642 1.3298185e-06 -3.1810556e-18)