/*--------------------------------*- C++ -*----------------------------------*\
| =========                 |                                                 |
| \\      /  F ield         | OpenFOAM: The Open Source CFD Toolbox           |
|  \\    /   O peration     | Version:  v2006                                 |
|   \\  /    A nd           | Website:  www.openfoam.com                      |
|    \\/     M anipulation  |                                                 |
\*---------------------------------------------------------------------------*/
FoamFile
{
    version     2.0;
    format      ascii;
    class       volVectorField;
    location    "2000";
    object      UMean;
}
// * * * * * * * * * * * * * * * * * * * * * * * * * * * * * * * * * * * * * //

dimensions      [0 1 -1 0 0 0 0];


internalField   nonuniform List<vector> 
55713
(
(0.10318066 7.345654e-07 0)
(0.10305543 -3.7300993e-07 0)
(0.10303207 1.0174979e-06 2.5673828e-18)
(0.10302869 8.1306946e-07 -2.5539783e-18)
(0.10302994 1.6674541e-06 2.5720543e-18)
(0.10303131 1.692026e-06 1.7192355e-27)
(0.1030319 2.2369403e-06 -2.647408e-18)
(0.10303178 2.4138166e-06 0)
(0.10303131 2.786553e-06 1.071501e-20)
(0.10303089 3.0519093e-06 0)
(0.10303073 3.3506751e-06 -1.1111185e-20)
(0.10303074 3.6307092e-06 -1.1315208e-20)
(0.10303073 3.9126946e-06 0)
(0.10303074 4.1880975e-06 3.0036643e-18)
(0.10303089 4.4539275e-06 -3.0581847e-18)
(0.10303115 4.7117066e-06 -6.0806059e-21)
(0.10303134 4.9628677e-06 3.1750633e-18)
(0.10303129 5.2063894e-06 -3.224939e-18)
(0.10303103 5.4440629e-06 6.4090346e-21)
(0.1030308 5.6754116e-06 -3.3383081e-18)
(0.10303078 5.9008566e-06 3.3889054e-18)
(0.10303102 6.1214966e-06 0)
(0.1030314 6.3401232e-06 0)
(0.10303181 6.5568227e-06 -1.7914565e-18)
(0.10303217 6.7715372e-06 1.8136082e-18)
(0.10303245 6.9857673e-06 0)
(0.10303267 7.1991348e-06 0)
(0.10303286 7.4124121e-06 0)
(0.10303299 7.6254355e-06 2.4126432e-19)
(0.10303304 7.8385147e-06 -1.0323171e-28)
(0.10303298 8.0511833e-06 -2.443736e-19)
(0.10303278 8.264223e-06 0)
(0.10303246 8.4788784e-06 0)
(0.10303203 8.6952009e-06 0)
(0.10303153 8.9140414e-06 0)
(0.10303105 9.1344868e-06 1.8075118e-18)
(0.10303074 9.3569529e-06 -1.7711112e-18)
(0.10303071 9.5825751e-06 -3.4974129e-18)
(0.10303091 9.8119688e-06 2.3653694e-27)
(0.10303117 1.0045295e-05 3.3742278e-18)
(0.10303127 1.0282602e-05 0)
(0.10303115 1.0523503e-05 6.3781389e-21)
(0.10303092 1.0769185e-05 -3.2085982e-18)
(0.1030308 1.1018845e-05 3.1520303e-18)
(0.10303092 1.127546e-05 3.0959569e-18)
(0.10303122 1.1536549e-05 -3.0463817e-18)
(0.10303154 1.1807608e-05 0)
(0.10303173 1.2082361e-05 0)
(0.10303177 1.2372106e-05 -2.8670335e-18)
(0.10303171 1.266063e-05 2.8261644e-18)
(0.10303163 1.2977906e-05 0)
(0.10303161 1.3275927e-05 0)
(0.10303162 1.3637356e-05 0)
(0.10303154 1.3938043e-05 0)
(0.10303136 1.4366704e-05 2.5929923e-18)
(0.10303135 1.4665872e-05 -4.558803e-27)
(0.10303185 1.5154652e-05 -3.7859107e-18)
(0.1030324 1.5590915e-05 1.2301608e-18)
(0.10303234 1.574397e-05 -1.9279494e-20)
(0.10318689 1.2094159e-06 0)
(0.10307304 -2.9258565e-07 2.4239757e-18)
(0.10305474 1.1673458e-06 -2.5066056e-18)
(0.1030528 7.8409733e-07 3.918583e-20)
(0.10305435 1.5257334e-06 -2.5390136e-18)
(0.10305561 1.5142323e-06 5.1447464e-18)
(0.10305601 2.0519042e-06 4.2809963e-27)
(0.10305575 2.1718323e-06 -2.6849757e-18)
(0.10305521 2.5386633e-06 -1.0697446e-20)
(0.10305483 2.7541314e-06 2.1817894e-20)
(0.10305476 3.0158002e-06 -2.8362487e-18)
(0.10305479 3.2512417e-06 2.9139211e-18)
(0.10305476 3.4907329e-06 2.9582778e-18)
(0.10305477 3.7215959e-06 2.9954268e-27)
(0.10305497 3.9463526e-06 2.8120317e-27)
(0.10305528 4.16624e-06 -3.1216023e-18)
(0.10305545 4.3808192e-06 -6.2204212e-21)
(0.10305532 4.5893723e-06 0)
(0.103055 4.7945771e-06 3.2935941e-18)
(0.10305476 4.9956268e-06 -6.7161275e-18)
(0.10305478 5.1941183e-06 3.42303e-18)
(0.10305507 5.3893727e-06 1.3573848e-20)
(0.10305548 5.5838089e-06 0)
(0.10305587 5.7766651e-06 7.0170159e-21)
(0.10305619 5.9683198e-06 0)
(0.10305645 6.1598057e-06 9.1329935e-19)
(0.10305664 6.3492746e-06 -1.8852558e-18)
(0.1030568 6.5385539e-06 9.4248041e-19)
(0.10305692 6.7270283e-06 2.4304961e-19)
(0.10305696 6.9157709e-06 -2.616663e-19)
(0.10305689 7.103458e-06 0)
(0.10305669 7.2899804e-06 9.5310542e-19)
(0.10305638 7.4784534e-06 -1.9065141e-18)
(0.10305596 7.6682415e-06 9.3825404e-19)
(0.10305545 7.8576946e-06 0)
(0.10305494 8.0447428e-06 1.8165453e-18)
(0.10305458 8.2345981e-06 -1.7936383e-18)
(0.1030545 8.4325265e-06 1.3725516e-20)
(0.1030547 8.6361183e-06 0)
(0.103055 8.84128e-06 6.631365e-21)
(0.10305515 9.0482337e-06 3.336399e-18)
(0.10305504 9.2547923e-06 -6.5620358e-18)
(0.10305476 9.4666741e-06 -4.542919e-28)
(0.10305455 9.6818266e-06 3.1614949e-18)
(0.1030546 9.9083477e-06 -3.103772e-18)
(0.10305488 1.0135223e-05 6.0986881e-18)
(0.10305521 1.0375761e-05 -5.9786605e-18)
(0.10305541 1.0611027e-05 2.9327078e-18)
(0.10305545 1.0870748e-05 -1.1236623e-20)
(0.10305537 1.1113419e-05 0)
(0.10305525 1.1409339e-05 0)
(0.10305518 1.1649102e-05 0)
(0.10305518 1.2012313e-05 -2.6801609e-18)
(0.10305511 1.223632e-05 2.6282933e-18)
(0.10305486 1.2692285e-05 0)
(0.10305472 1.2897105e-05 3.9230389e-20)
(0.10305517 1.3431593e-05 0)
(0.10305576 1.3648897e-05 1.8947396e-20)
(0.10305564 1.4139683e-05 1.8560659e-20)
(0.10319215 1.3852444e-06 0)
(0.10308973 -2.9731181e-07 3.7344381e-20)
(0.10307461 1.1116896e-06 -3.7958457e-20)
(0.1030739 7.076606e-07 -3.8495679e-20)
(0.10307565 1.3554948e-06 -2.546432e-18)
(0.10307677 1.3642237e-06 2.5803845e-18)
(0.103077 1.812758e-06 0)
(0.10307661 1.9409652e-06 2.090411e-20)
(0.10307603 2.2565522e-06 -5.4678748e-18)
(0.10307572 2.4541492e-06 5.5404769e-18)
(0.10307576 2.6961416e-06 0)
(0.10307581 2.9035321e-06 -2.2721305e-20)
(0.10307574 3.1114727e-06 0)
(0.10307578 3.3014162e-06 3.0012875e-18)
(0.10307606 3.4870611e-06 -6.1666619e-18)
(0.10307641 3.672575e-06 3.1418313e-18)
(0.10307654 3.8581315e-06 -3.187945e-18)
(0.10307633 4.0420208e-06 -4.10877e-27)
(0.10307595 4.2225426e-06 3.3181128e-18)
(0.10307572 4.3967079e-06 -3.3771971e-18)
(0.10307582 4.5667394e-06 -3.848615e-27)
(0.10307616 4.7345254e-06 3.4959309e-18)
(0.10307658 4.9003232e-06 0)
(0.10307696 5.0633622e-06 1.7936059e-18)
(0.10307726 5.2276347e-06 1.8120383e-27)
(0.10307748 5.3901973e-06 -1.8386351e-18)
(0.10307766 5.5505096e-06 -1.4827507e-20)
(0.1030778 5.7124322e-06 4.970632e-19)
(0.10307789 5.872092e-06 -4.894983e-19)
(0.10307793 6.0319983e-06 2.4783984e-19)
(0.10307785 6.1918063e-06 -2.4715493e-19)
(0.10307767 6.3485023e-06 3.0421099e-20)
(0.10307737 6.5069748e-06 0)
(0.10307697 6.6671204e-06 1.4735434e-20)
(0.10307646 6.8282485e-06 -1.4497885e-20)
(0.10307592 6.9883699e-06 -1.4260736e-20)
(0.1030755 7.1498787e-06 -1.402416e-20)
(0.10307537 7.3161154e-06 -1.3788282e-20)
(0.10307556 7.4873971e-06 3.456034e-18)
(0.1030759 7.6595004e-06 -3.4095632e-18)
(0.10307612 7.8373839e-06 0)
(0.10307604 8.0135517e-06 3.2900444e-18)
(0.10307571 8.1982773e-06 -3.2178945e-18)
(0.10307541 8.3793948e-06 3.1958743e-18)
(0.10307536 8.5771455e-06 -3.1117784e-18)
(0.10307561 8.7676166e-06 -3.0286819e-18)
(0.10307596 8.983474e-06 -2.4339498e-27)
(0.10307619 9.1799438e-06 2.9113159e-18)
(0.10307624 9.4208573e-06 2.2462481e-20)
(0.10307614 9.6160668e-06 0)
(0.10307598 9.9046968e-06 0)
(0.10307586 1.0080843e-05 0)
(0.10307585 1.0460649e-05 2.062759e-20)
(0.1030758 1.0580395e-05 -2.0173481e-20)
(0.10307552 1.1066464e-05 0)
(0.10307523 1.1158874e-05 2.4673198e-18)
(0.10307562 1.1709572e-05 -2.4107993e-18)
(0.10307628 1.1818514e-05 0)
(0.10307612 1.2421614e-05 0)
(0.10319614 1.4119879e-06 6.8461992e-20)
(0.10310353 -2.8238206e-07 -7.2533505e-20)
(0.10309201 9.8996327e-07 -2.3366907e-18)
(0.10309231 6.4378693e-07 2.4211995e-18)
(0.10309415 1.1842945e-06 3.8695611e-20)
(0.10309509 1.2168478e-06 0)
(0.10309517 1.58944e-06 -2.602765e-18)
(0.10309466 1.7135655e-06 7.9784761e-18)
(0.10309405 1.9817952e-06 -1.0916963e-17)
(0.10309388 2.1555661e-06 5.6044172e-18)
(0.10309403 2.3663837e-06 -2.852821e-18)
(0.10309406 2.5474345e-06 2.276515e-20)
(0.10309394 2.72862e-06 5.9494426e-18)
(0.10309403 2.8944363e-06 -3.0115106e-18)
(0.10309441 3.0551932e-06 0)
(0.1030948 3.2144625e-06 0)
(0.10309487 3.3736123e-06 -1.256106e-20)
(0.10309455 3.5297804e-06 0)
(0.10309412 3.6838792e-06 0)
(0.10309394 3.8355923e-06 2.6528483e-20)
(0.10309411 3.9845323e-06 -1.3499175e-20)
(0.10309452 4.13158e-06 -2.7469281e-20)
(0.10309495 4.2772112e-06 -1.7882524e-18)
(0.10309531 4.4202102e-06 1.8327656e-18)
(0.10309558 4.561706e-06 1.4444887e-20)
(0.10309578 4.7012297e-06 -1.468286e-20)
(0.10309593 4.8406329e-06 9.6987224e-19)
(0.10309606 4.9809948e-06 -9.7019852e-19)
(0.10309614 5.1203168e-06 1.5397072e-20)
(0.10309617 5.2577861e-06 -2.3374236e-19)
(0.10309609 5.3929996e-06 -2.4846163e-19)
(0.10309592 5.5245526e-06 4.7395348e-19)
(0.10309565 5.6585248e-06 0)
(0.10309526 5.7936788e-06 -1.9101748e-18)
(0.10309476 5.9302799e-06 1.4567166e-20)
(0.1030942 6.0624771e-06 3.6964263e-18)
(0.10309372 6.2007653e-06 -1.7891633e-18)
(0.10309353 6.3439602e-06 0)
(0.10309369 6.492217e-06 1.3611035e-20)
(0.10309407 6.6356557e-06 0)
(0.10309438 6.7890423e-06 0)
(0.10309435 6.9381431e-06 2.5797974e-20)
(0.103094 7.1027933e-06 -1.2661961e-20)
(0.1030936 7.2530387e-06 -3.2055683e-18)
(0.10309344 7.4300193e-06 3.1198589e-18)
(0.10309365 7.586025e-06 -3.9873651e-26)
(0.10309402 7.7828067e-06 2.3418281e-20)
(0.10309428 7.9397138e-06 3.8262889e-26)
(0.10309435 8.165843e-06 -2.2453687e-20)
(0.10309425 8.3130317e-06 -5.6015563e-18)
(0.10309407 8.591345e-06 5.4979668e-18)
(0.10309389 8.7076091e-06 4.1963639e-20)
(0.10309384 9.0596605e-06 -2.6627238e-18)
(0.10309383 9.1534103e-06 5.1142969e-18)
(0.10309355 9.5724368e-06 -5.0223994e-18)
(0.10309309 9.6655499e-06 2.4253463e-18)
(0.10309341 1.0162166e-05 -7.367901e-20)
(0.10309417 1.0221089e-05 0)
(0.10309396 1.09341e-05 0)
(0.10319902 1.2694423e-06 -6.6166098e-20)
(0.10311613 -2.1312414e-07 7.0480461e-20)
(0.1031072 8.3153893e-07 -2.3204593e-18)
(0.10310835 5.8864513e-07 2.3059228e-18)
(0.1031102 1.0165953e-06 -2.446724e-18)
(0.10311094 1.0864128e-06 2.5567836e-18)
(0.10311089 1.3881982e-06 2.5476107e-18)
(0.10311026 1.5079504e-06 -2.6570786e-18)
(0.10310966 1.7358904e-06 5.4063206e-18)
(0.10310966 1.887144e-06 -1.1118187e-17)
(0.10310992 2.0706648e-06 5.7107188e-18)
(0.10310987 2.2272218e-06 -2.2807725e-20)
(0.10310971 2.3835913e-06 -2.9826631e-18)
(0.1031099 2.5267024e-06 6.0905662e-18)
(0.10311039 2.6640846e-06 -3.1073638e-18)
(0.1031108 2.8001574e-06 -3.169017e-18)
(0.10311078 2.9358794e-06 2.5237108e-20)
(0.10311033 3.0686961e-06 3.2657514e-18)
(0.10310987 3.2006881e-06 -2.6190904e-20)
(0.10310977 3.3300481e-06 -5.3333463e-20)
(0.10311005 3.4564933e-06 1.3571286e-20)
(0.10311051 3.5823252e-06 1.3809462e-20)
(0.10311095 3.7061018e-06 0)
(0.10311129 3.8284328e-06 -1.8287805e-18)
(0.10311153 3.9487119e-06 -1.4527266e-20)
(0.1031117 4.0672455e-06 1.9050418e-18)
(0.10311184 4.1866244e-06 0)
(0.10311195 4.3056982e-06 0)
(0.10311202 4.4250629e-06 -3.0981455e-20)
(0.10311204 4.542872e-06 2.3504661e-19)
(0.10311197 4.6583014e-06 -2.4969029e-19)
(0.10311181 4.770556e-06 0)
(0.10311156 4.8856899e-06 0)
(0.10311121 4.999902e-06 -1.9040771e-18)
(0.10311072 5.1212798e-06 3.7459694e-18)
(0.10311014 5.2359181e-06 -1.8563578e-18)
(0.1031096 5.3563678e-06 -1.7827324e-18)
(0.10310933 5.4732777e-06 1.7801638e-18)
(0.10310945 5.5946341e-06 0)
(0.10310988 5.7077188e-06 0)
(0.10311027 5.8433653e-06 -3.4019636e-18)
(0.10311033 5.9690518e-06 3.2880901e-18)
(0.10310998 6.1207553e-06 2.540802e-20)
(0.10310948 6.2474873e-06 -3.1902403e-18)
(0.10310919 6.4050546e-06 6.2313875e-18)
(0.10310934 6.5288713e-06 -3.0890836e-18)
(0.10310974 6.7044808e-06 -3.0252686e-18)
(0.10311004 6.8285341e-06 5.8756886e-18)
(0.10311013 7.0331474e-06 -2.8731006e-18)
(0.10311004 7.1501514e-06 -6.57999e-20)
(0.10310984 7.3954943e-06 0)
(0.10310962 7.5041226e-06 -4.1763886e-20)
(0.1031095 7.7943289e-06 2.6035948e-18)
(0.10310952 7.9025945e-06 -5.0653435e-18)
(0.10310929 8.2406848e-06 2.536705e-18)
(0.10310866 8.3560946e-06 3.7261016e-20)
(0.10310888 8.7917066e-06 1.4417297e-19)
(0.10310975 8.8353037e-06 6.9541421e-20)
(0.10310952 9.5629045e-06 6.6645914e-20)
(0.10320079 1.0356795e-06 -1.0239698e-18)
(0.10312659 -1.2709933e-07 -1.0963712e-18)
(0.10312041 6.5643023e-07 2.3402991e-18)
(0.10312221 5.4897391e-07 -2.2679485e-18)
(0.10312397 8.7164978e-07 -7.4778649e-27)
(0.1031245 9.6232313e-07 2.4574666e-18)
(0.10312435 1.2003061e-06 4.020905e-20)
(0.1031236 1.3155539e-06 5.2953355e-18)
(0.10312305 1.5048187e-06 4.2493273e-20)
(0.10312329 1.6356972e-06 -5.6225675e-18)
(0.10312362 1.7922521e-06 5.6709057e-18)
(0.10312341 1.9284557e-06 -5.8265407e-18)
(0.10312324 2.0596179e-06 -2.9904118e-18)
(0.10312359 2.1842514e-06 3.055094e-18)
(0.10312421 2.3002704e-06 2.4366484e-20)
(0.10312461 2.4181356e-06 0)
(0.10312444 2.5331945e-06 -2.5348371e-20)
(0.10312385 2.6460568e-06 3.3325674e-18)
(0.10312339 2.7576531e-06 -6.7108262e-18)
(0.10312341 2.8667926e-06 2.8391626e-26)
(0.10312381 2.9734629e-06 2.7279289e-20)
(0.10312432 3.0797261e-06 3.5532933e-18)
(0.10312475 3.1838432e-06 -1.8074568e-18)
(0.10312506 3.286857e-06 1.8383356e-18)
(0.10312527 3.3882263e-06 1.8693003e-18)
(0.10312542 3.4890028e-06 -1.915202e-18)
(0.10312554 3.5896379e-06 9.6574518e-19)
(0.10312564 3.690546e-06 -9.813382e-19)
(0.10312571 3.7916409e-06 -2.3365589e-19)
(0.10312572 3.8906696e-06 1.5749861e-20)
(0.10312566 3.988348e-06 2.5082095e-19)
(0.10312552 4.0827951e-06 0)
(0.10312529 4.1815116e-06 -1.5184137e-20)
(0.10312496 4.276396e-06 0)
(0.1031245 4.3810681e-06 -1.4693478e-20)
(0.10312391 4.4761242e-06 -1.8494975e-18)
(0.10312332 4.5829487e-06 -2.8411191e-20)
(0.10312295 4.6734394e-06 5.3615977e-18)
(0.10312301 4.7775742e-06 -7.0244796e-18)
(0.10312346 4.8718105e-06 -2.6953739e-20)
(0.10312397 4.9915262e-06 6.828606e-18)
(0.10312413 5.0949603e-06 -3.3254104e-18)
(0.10312381 5.2269087e-06 3.2117111e-18)
(0.10312323 5.3316834e-06 -3.2245415e-18)
(0.10312278 5.4707319e-06 2.4498688e-20)
(0.10312283 5.5723436e-06 0)
(0.10312326 5.7287952e-06 0)
(0.10312361 5.8327338e-06 4.5933613e-20)
(0.10312372 6.0126984e-06 5.7444299e-18)
(0.10312366 6.118092e-06 -5.5627713e-18)
(0.10312345 6.3237444e-06 -4.2699025e-20)
(0.10312319 6.4342941e-06 2.6603291e-18)
(0.103123 6.6690561e-06 -5.131125e-18)
(0.10312302 6.7877593e-06 -4.4873838e-27)
(0.10312291 7.0622516e-06 2.3907684e-18)
(0.10312209 7.192072e-06 -9.099105e-26)
(0.10312217 7.5429774e-06 -2.25776e-18)
(0.10312319 7.5948225e-06 2.0975454e-18)
(0.10312293 8.2572491e-06 -6.4413373e-20)
(0.10320189 7.4209264e-07 0)
(0.10313618 -3.8857832e-08 6.665641e-20)
(0.10313216 4.7888152e-07 -7.6849209e-26)
(0.1031344 4.8090846e-07 0)
(0.10313603 7.0565666e-07 -2.4644284e-18)
(0.10313635 8.4020605e-07 2.5144468e-18)
(0.10313613 1.0085339e-06 0)
(0.10313522 1.1354389e-06 4.1221608e-20)
(0.1031348 1.276083e-06 0)
(0.10313534 1.4014002e-06 5.6203876e-18)
(0.10313567 1.5284654e-06 -5.6754036e-18)
(0.1031352 1.6508896e-06 2.9298092e-18)
(0.10313513 1.7575595e-06 5.3866538e-27)
(0.10313569 1.8675861e-06 -3.0645986e-18)
(0.1031364 1.9641678e-06 -3.1545299e-18)
(0.10313676 2.066996e-06 3.1945596e-18)
(0.10313639 2.1635808e-06 0)
(0.10313565 2.2607005e-06 2.5947657e-20)
(0.10313525 2.3542836e-06 -2.6436514e-20)
(0.10313544 2.4477711e-06 3.0007543e-26)
(0.10313595 2.5378728e-06 -2.7407395e-20)
(0.10313649 2.6281766e-06 0)
(0.10313691 2.7151287e-06 0)
(0.10313718 2.8021624e-06 0)
(0.10313736 2.8873816e-06 0)
(0.1031375 2.97275e-06 0)
(0.10313761 3.0579528e-06 -9.5527887e-19)
(0.10313769 3.1431018e-06 5.0849228e-19)
(0.10313776 3.227536e-06 5.0095707e-19)
(0.10313777 3.3107693e-06 2.373296e-19)
(0.10313771 3.3923242e-06 -7.555152e-19)
(0.10313758 3.4723833e-06 5.1121067e-19)
(0.10313738 3.5551354e-06 1.5242977e-20)
(0.10313708 3.6359839e-06 0)
(0.10313665 3.7234168e-06 1.4748809e-20)
(0.10313607 3.8031346e-06 0)
(0.10313542 3.8921298e-06 0)
(0.10313494 3.9646253e-06 3.6154911e-18)
(0.1031349 4.0587712e-06 -7.0222758e-18)
(0.10313537 4.1385507e-06 6.9516139e-18)
(0.10313599 4.2406142e-06 -6.8520674e-18)
(0.10313629 4.3263714e-06 6.6727169e-18)
(0.10313604 4.4357943e-06 -3.2472156e-18)
(0.1031354 4.5244746e-06 2.506708e-20)
(0.10313478 4.641962e-06 3.1681335e-18)
(0.10313466 4.7315604e-06 -3.077554e-18)
(0.10313513 4.8594878e-06 2.3518146e-20)
(0.10313555 4.955225e-06 -2.2981907e-20)
(0.10313568 5.0988884e-06 5.7427972e-18)
(0.10313564 5.2011562e-06 -1.1153142e-17)
(0.10313543 5.3608782e-06 5.4922887e-18)
(0.10313515 5.472314e-06 4.1374827e-20)
(0.10313487 5.6548232e-06 0)
(0.10313485 5.7756748e-06 -2.5240393e-18)
(0.10313493 5.9885648e-06 2.3983517e-18)
(0.10313391 6.1239842e-06 -7.209651e-20)
(0.10313381 6.415803e-06 2.1415305e-18)
(0.10313499 6.4963529e-06 -2.0421077e-18)
(0.10313472 7.0591888e-06 1.246224e-19)
(0.1032024 3.6378989e-07 0)
(0.10314426 5.0892579e-08 -2.2056882e-18)
(0.1031425 3.2364158e-07 -6.7914418e-20)
(0.10314493 4.8477089e-07 4.6042597e-18)
(0.1031464 6.0497785e-07 7.3817501e-20)
(0.10314655 7.5329581e-07 -4.9872175e-18)
(0.10314625 8.6612298e-07 2.5440529e-18)
(0.10314515 9.9873969e-07 5.1750987e-18)
(0.103145 1.0967024e-06 -5.3766475e-18)
(0.10314588 1.2165336e-06 -3.3833346e-26)
(0.10314607 1.310336e-06 4.4720884e-20)
(0.10314526 1.4184771e-06 -2.2927397e-20)
(0.10314549 1.4987154e-06 0)
(0.10314628 1.598951e-06 2.4013736e-20)
(0.10314704 1.6759089e-06 3.1653491e-18)
(0.10314733 1.7694086e-06 -3.2065628e-18)
(0.10314668 1.8453386e-06 3.2456988e-18)
(0.10314581 1.9283038e-06 -3.3350929e-18)
(0.10314556 2.000593e-06 2.0743824e-26)
(0.10314594 2.0812774e-06 -3.4338964e-18)
(0.10314657 2.1536898e-06 7.0190826e-18)
(0.10314712 2.2302269e-06 -3.5855279e-18)
(0.1031475 2.3000343e-06 0)
(0.10314774 2.3729613e-06 1.4492442e-20)
(0.1031479 2.4427511e-06 -1.9010277e-18)
(0.10314802 2.5153109e-06 1.9026932e-18)
(0.10314812 2.5865985e-06 -1.5228108e-20)
(0.1031482 2.6589102e-06 4.7973654e-19)
(0.10314826 2.7293079e-06 -5.0314879e-19)
(0.10314827 2.7987225e-06 1.5884937e-20)
(0.10314821 2.8656203e-06 5.054368e-19)
(0.1031481 2.9319821e-06 -5.1295297e-19)
(0.10314793 2.9992645e-06 -1.5294003e-20)
(0.10314767 3.0666491e-06 0)
(0.10314728 3.1363966e-06 0)
(0.10314672 3.2016005e-06 -1.877042e-18)
(0.10314603 3.2751084e-06 1.8310284e-18)
(0.10314542 3.3425417e-06 -2.8119193e-20)
(0.10314524 3.4216497e-06 -2.7628576e-20)
(0.1031457 3.4915402e-06 0)
(0.10314645 3.5764267e-06 2.664297e-20)
(0.10314693 3.6512503e-06 -3.3204839e-18)
(0.10314676 3.7436884e-06 3.2566877e-18)
(0.10314612 3.8221793e-06 -3.2171943e-18)
(0.10314532 3.9204899e-06 3.126377e-18)
(0.10314493 4.0004908e-06 2.4089711e-20)
(0.10314545 4.1055475e-06 -2.3550071e-20)
(0.10314598 4.1971267e-06 0)
(0.10314612 4.313036e-06 0)
(0.10314612 4.4117564e-06 -4.3674393e-20)
(0.1031459 4.5423415e-06 0)
(0.10314563 4.6519569e-06 -4.1184041e-20)
(0.10314527 4.7969184e-06 0)
(0.1031451 4.9236286e-06 2.5390594e-18)
(0.10314547 5.0882254e-06 -2.294632e-18)
(0.10314429 5.2385196e-06 7.0935972e-20)
(0.10314392 5.4342582e-06 -2.1651905e-18)
(0.10314532 5.5458163e-06 3.0801488e-18)
(0.10314504 5.9281252e-06 -1.0859273e-18)
(0.10320044 4.533358e-08 1.1634401e-19)
(0.10314931 1.48614e-07 -2.0214523e-18)
(0.10315 1.3784249e-07 -2.5305295e-27)
(0.10315226 4.0867264e-07 2.1616889e-18)
(0.10315362 4.234391e-07 0)
(0.10315369 6.201627e-07 3.8045497e-20)
(0.10315321 6.7365098e-07 -3.952217e-20)
(0.10315192 8.0993563e-07 5.2789989e-18)
(0.10315228 8.6300506e-07 -1.0817351e-17)
(0.10315347 9.8663079e-07 -4.3529191e-20)
(0.10315332 1.0494398e-06 5.6834575e-18)
(0.10315209 1.1494883e-06 2.9624026e-18)
(0.10315293 1.2007239e-06 -3.0121514e-18)
(0.1031539 1.2961253e-06 -2.4082907e-20)
(0.10315465 1.3487997e-06 -2.4618323e-20)
(0.10315484 1.4365288e-06 0)
(0.10315381 1.4879163e-06 2.5653294e-20)
(0.10315286 1.5664567e-06 -2.6156961e-20)
(0.10315286 1.6177364e-06 2.6653779e-20)
(0.10315347 1.6923334e-06 0)
(0.10315417 1.7457271e-06 3.5647916e-18)
(0.10315471 1.8125269e-06 -5.3991886e-18)
(0.10315505 1.864487e-06 1.8165503e-18)
(0.10315526 1.9273974e-06 1.8474779e-18)
(0.1031554 1.9807604e-06 -1.8637196e-18)
(0.10315551 2.0406579e-06 -9.47328e-19)
(0.1031556 2.0933701e-06 9.7816643e-19)
(0.10315567 2.1482332e-06 0)
(0.10315573 2.204028e-06 -2.5250682e-19)
(0.10315573 2.2581791e-06 2.5499819e-19)
(0.10315569 2.3151989e-06 4.9102636e-19)
(0.1031556 2.3691681e-06 -1.5119326e-18)
(0.10315545 2.4272275e-06 9.9681906e-19)
(0.10315523 2.4840282e-06 1.5085962e-20)
(0.10315489 2.5443419e-06 -1.9140725e-18)
(0.10315436 2.603261e-06 1.8822256e-18)
(0.10315364 2.6601645e-06 0)
(0.1031529 2.7171308e-06 -3.609489e-18)
(0.10315253 2.7740265e-06 3.5466303e-18)
(0.10315294 2.8295124e-06 0)
(0.10315379 2.8896078e-06 0)
(0.10315452 2.9516916e-06 -2.621907e-20)
(0.10315446 3.0166e-06 2.5712257e-20)
(0.10315386 3.0835141e-06 0)
(0.10315294 3.1521065e-06 0)
(0.10315212 3.2288807e-06 -2.4133355e-20)
(0.10315267 3.2927603e-06 0)
(0.10315336 3.3771514e-06 0)
(0.1031535 3.4575218e-06 5.7391115e-18)
(0.10315355 3.5508946e-06 -5.5820508e-18)
(0.10315332 3.6395465e-06 0)
(0.1031531 3.7432586e-06 4.0993994e-20)
(0.10315268 3.8585152e-06 -3.9591346e-20)
(0.10315224 3.9575924e-06 -2.4774684e-18)
(0.10315289 4.1012644e-06 2.2664274e-18)
(0.1031517 4.2189374e-06 -6.9806189e-20)
(0.10315084 4.3772192e-06 2.0550608e-18)
(0.10315262 4.4900535e-06 -2.1264151e-18)
(0.10315232 4.7773811e-06 0)
(0.10319714 -2.7796618e-07 -1.1285919e-19)
(0.10315332 3.0784087e-07 2.0308979e-18)
(0.10315705 -8.6310913e-08 -2.0847628e-18)
(0.10315837 5.667949e-07 -6.8666195e-20)
(0.10315983 3.2311762e-07 3.6074368e-20)
(0.10316017 5.2888377e-07 0)
(0.10315896 5.4342938e-07 3.9295364e-20)
(0.1031576 6.5344459e-07 0)
(0.10315902 7.0938823e-07 5.3561915e-18)
(0.10316026 8.1585775e-07 8.7414863e-27)
(0.10315946 8.5285657e-07 -5.7543708e-18)
(0.10315789 9.4391212e-07 2.3000111e-20)
(0.10315964 9.7375106e-07 0)
(0.10316078 1.0661682e-06 0)
(0.10316147 1.1007947e-06 3.1610126e-18)
(0.10316145 1.1864078e-06 -3.2541542e-18)
(0.10315994 1.2188956e-06 0)
(0.10315909 1.288938e-06 -1.3125408e-20)
(0.10315941 1.315618e-06 0)
(0.10316024 1.3840561e-06 0)
(0.10316098 1.4115467e-06 0)
(0.10316147 1.4703221e-06 -1.8057532e-18)
(0.10316177 1.5001694e-06 1.8511223e-18)
(0.10316194 1.5555406e-06 0)
(0.10316207 1.5919304e-06 -1.4836028e-20)
(0.10316216 1.6517878e-06 0)
(0.10316223 1.6979747e-06 -1.5327671e-20)
(0.10316229 1.7512389e-06 -5.1401552e-19)
(0.10316234 1.7992073e-06 5.0644955e-19)
(0.10316233 1.8465976e-06 -1.5977833e-20)
(0.10316229 1.8937661e-06 5.3972476e-19)
(0.10316221 1.9396974e-06 -1.4995627e-18)
(0.10316207 1.9886145e-06 9.6822179e-19)
(0.10316188 2.0363906e-06 -3.0237581e-20)
(0.10316158 2.0888027e-06 1.9711352e-26)
(0.1031611 2.1385385e-06 0)
(0.10316035 2.1935083e-06 0)
(0.10315946 2.247622e-06 0)
(0.10315885 2.3038384e-06 1.3889753e-20)
(0.10315918 2.3589041e-06 -3.4927891e-18)
(0.10316004 2.4207311e-06 6.8719656e-18)
(0.10316107 2.478525e-06 5.8347625e-27)
(0.10316115 2.5441014e-06 -6.5994936e-18)
(0.10316064 2.6096556e-06 3.2584225e-18)
(0.10315961 2.6715831e-06 0)
(0.10315822 2.739278e-06 0)
(0.1031587 2.7982541e-06 0)
(0.10315963 2.8786395e-06 5.8942499e-18)
(0.10315981 2.9468617e-06 -5.7602696e-18)
(0.10315987 3.0303554e-06 2.1775694e-20)
(0.10315963 3.1040535e-06 -4.2215299e-20)
(0.1031595 3.1924552e-06 -5.4146056e-26)
(0.10315899 3.2776617e-06 5.2195196e-26)
(0.10315817 3.3770532e-06 -3.7770132e-20)
(0.10315878 3.4634429e-06 3.6114858e-20)
(0.10315815 3.5768885e-06 0)
(0.10315612 3.6027281e-06 8.6345337e-26)
(0.10315881 3.8690909e-06 6.09922e-20)
(0.1031584 3.8464101e-06 0)
(0.10320221 -1.1000205e-06 9.3116686e-19)
(0.10316501 1.0713835e-06 -9.5975755e-19)
(0.10317154 -5.2699055e-07 0)
(0.10316941 2.3172795e-07 6.7634856e-20)
(0.10317164 -7.7569468e-08 -3.5668634e-20)
(0.10317414 1.6414801e-07 2.4322143e-18)
(0.1031697 1.6411807e-07 -2.5394998e-18)
(0.10316956 1.4268948e-07 5.199935e-18)
(0.10317345 2.3642111e-07 1.8302269e-26)
(0.10317363 3.0676526e-07 -5.566029e-18)
(0.10317207 3.7631733e-07 -5.6905726e-18)
(0.10317119 4.3768143e-07 5.873621e-18)
(0.10317299 4.9306201e-07 0)
(0.10317493 5.4947714e-07 0)
(0.1031754 6.2524325e-07 3.1703177e-18)
(0.10317461 6.8638611e-07 -3.2011493e-18)
(0.10317307 7.4641107e-07 -1.291371e-20)
(0.10317263 8.2161824e-07 1.6496881e-26)
(0.10317312 8.8362965e-07 0)
(0.10317416 9.5284294e-07 1.3662882e-20)
(0.10317498 1.0179506e-06 -3.5598404e-18)
(0.10317546 1.1124231e-06 3.6074324e-18)
(0.10317573 1.1826438e-06 1.8415828e-18)
(0.1031759 1.2826645e-06 -1.8724122e-18)
(0.10317602 1.3568464e-06 0)
(0.10317611 1.458688e-06 0)
(0.10317619 1.527991e-06 -9.5227691e-19)
(0.10317625 1.6086495e-06 1.0144762e-18)
(0.1031763 1.6733398e-06 0)
(0.1031763 1.7517115e-06 1.6004531e-20)
(0.10317627 1.8119103e-06 -1.5895667e-20)
(0.1031762 1.8882994e-06 1.5641312e-20)
(0.10317607 1.9483942e-06 9.849338e-19)
(0.10317591 2.0288859e-06 9.8413263e-19)
(0.10317564 2.0889305e-06 1.4893786e-20)
(0.10317518 2.166703e-06 -1.889713e-18)
(0.10317437 2.2075117e-06 -1.8294845e-18)
(0.10317326 2.2573837e-06 -1.8127808e-18)
(0.1031726 2.3049866e-06 3.5493182e-18)
(0.10317281 2.329296e-06 1.3674063e-20)
(0.10317359 2.3886645e-06 -2.6853498e-20)
(0.10317486 2.4231862e-06 1.3175762e-20)
(0.10317532 2.4763898e-06 -1.2919955e-20)
(0.10317489 2.5334212e-06 -2.5316154e-20)
(0.10317337 2.5691422e-06 -1.2388629e-20)
(0.1031719 2.6637052e-06 -2.4220115e-20)
(0.10317235 2.6570022e-06 0)
(0.10317345 2.7562325e-06 0)
(0.10317389 2.7814157e-06 -5.7141094e-18)
(0.10317364 2.8897994e-06 -4.3493743e-20)
(0.10317352 2.9286646e-06 5.4310711e-18)
(0.10317353 2.9909765e-06 -4.063229e-20)
(0.1031731 3.1379804e-06 3.9078919e-20)
(0.10317242 3.1863811e-06 2.433145e-18)
(0.10317063 3.237099e-06 -2.3196294e-18)
(0.10317274 3.4685772e-06 -2.1650886e-18)
(0.10316763 3.0887635e-06 4.1415299e-18)
(0.10317286 4.1559552e-06 -8.9273556e-19)
(0.10317263 2.9039026e-06 -8.2524505e-19)
(0.10319729 -2.4525745e-06 -1.0639743e-19)
(0.10316035 1.1916172e-06 5.8487981e-20)
(0.10317917 1.5438471e-07 3.1293999e-20)
(0.10316615 1.0020724e-06 0)
(0.10317286 7.8705014e-07 0)
(0.10318157 1.1811223e-06 2.3369187e-18)
(0.10316533 1.038652e-06 -2.4655685e-18)
(0.10317019 1.0690379e-06 5.1984315e-18)
(0.10318106 1.1130125e-06 -5.3534913e-18)
(0.10317903 1.0933148e-06 5.5601053e-18)
(0.1031762 1.1230118e-06 -5.7805817e-18)
(0.10317794 1.0359317e-06 -5.9022482e-18)
(0.10317652 1.0456055e-06 3.0302263e-18)
(0.10318244 1.0151702e-06 6.2234367e-18)
(0.10318241 1.0198741e-06 -3.177993e-18)
(0.10317965 9.8035933e-07 7.7274634e-26)
(0.10317947 9.4457622e-07 1.2948868e-20)
(0.10317994 8.9834373e-07 -3.3538571e-18)
(0.10317972 8.3582337e-07 6.8881455e-18)
(0.10318109 8.1011849e-07 -3.5340968e-18)
(0.10318238 7.3139241e-07 0)
(0.10318303 6.9641473e-07 1.4179152e-20)
(0.10318339 6.289665e-07 0)
(0.10318362 5.8311469e-07 7.3286708e-21)
(0.10318379 5.1268915e-07 -7.4488997e-21)
(0.10318391 4.5830179e-07 0)
(0.10318402 3.9219102e-07 -2.3077981e-20)
(0.10318411 3.6535944e-07 0)
(0.10318418 3.1748666e-07 0)
(0.10318425 2.889451e-07 0)
(0.10318424 2.4512564e-07 0)
(0.10318414 2.0861674e-07 0)
(0.10318404 1.5957092e-07 2.3074396e-20)
(0.10318385 1.2172805e-07 7.5673937e-21)
(0.10318354 6.6734243e-08 0)
(0.10318295 3.0740691e-08 2.1969703e-20)
(0.10318178 -2.6646709e-08 -1.4405032e-20)
(0.10318012 -6.4391169e-08 7.0821761e-21)
(0.10318034 -1.1346078e-07 -6.9615318e-21)
(0.10318012 -1.6860117e-07 -1.3680003e-20)
(0.10318065 -2.0349707e-07 3.4525666e-18)
(0.10318139 -2.3780457e-07 -6.7633632e-18)
(0.10318322 -2.6641626e-07 1.2928039e-20)
(0.10318274 -2.7528401e-07 3.2549069e-18)
(0.10317887 -2.9827254e-07 1.2393403e-20)
(0.1031793 -2.7791063e-07 2.4222407e-20)
(0.10317924 -3.5173378e-07 0)
(0.10318015 -3.3267154e-07 -5.8805832e-18)
(0.10318185 -3.5074891e-07 2.2367525e-20)
(0.10318015 -3.0789586e-07 5.5944374e-18)
(0.10318079 -2.9188778e-07 2.0961634e-20)
(0.10318134 -2.6279521e-07 0)
(0.10318004 -1.7177591e-07 -2.4812922e-18)
(0.10318085 -1.1275546e-07 2.3895232e-18)
(0.10317053 8.100978e-09 0)
(0.10318156 1.2932196e-07 3.3273098e-20)
(0.1031657 2.9091239e-07 -2.02883e-18)
(0.10318066 6.6788807e-07 1.7993713e-18)
(0.10318044 9.6033464e-08 -1.0685332e-19)
(0.10313713 -2.6246452e-06 5.1721199e-20)
(0.10311361 -1.6053298e-06 1.7694026e-18)
(0.10313101 -1.2852419e-06 -1.9960344e-18)
(0.10311775 -1.4779818e-06 2.1016121e-18)
(0.1031325 -7.7843251e-07 -4.4644129e-18)
(0.10312925 -1.3176279e-06 4.7114374e-18)
(0.10311509 -1.1198036e-06 -2.4621209e-18)
(0.10313311 -8.26066e-07 5.1410527e-18)
(0.10312775 -8.6752027e-07 -1.0481241e-20)
(0.10312687 -8.5809922e-07 -5.5486819e-18)
(0.1031231 -8.0359306e-07 -5.7188157e-18)
(0.10312227 -6.8915611e-07 5.9181545e-18)
(0.10313034 -5.7450445e-07 0)
(0.10312999 -5.3484905e-07 -1.2163934e-20)
(0.1031272 -5.1554036e-07 6.2250709e-21)
(0.10312523 -4.9210542e-07 -1.2723618e-20)
(0.1031243 -4.0073019e-07 -3.317943e-18)
(0.10312261 -3.2483167e-07 3.3760203e-18)
(0.10312479 -1.6950564e-07 -6.7425186e-21)
(0.10312545 -7.7675484e-08 3.5274505e-18)
(0.10312543 7.0498442e-08 -7.1485503e-18)
(0.10312555 1.5445269e-07 5.4513265e-18)
(0.10312568 2.739396e-07 -1.8469507e-18)
(0.10312579 3.7378159e-07 -3.6656489e-21)
(0.10312589 4.5789234e-07 -1.89942e-18)
(0.10312598 5.7166908e-07 1.9409929e-18)
(0.10312605 6.3317864e-07 7.6872351e-21)
(0.10312611 7.4886261e-07 0)
(0.10312615 8.0855752e-07 0)
(0.10312617 9.1457509e-07 0)
(0.10312617 9.8509793e-07 0)
(0.10312616 1.0974013e-06 -1.0014039e-18)
(0.10312613 1.1761558e-06 9.7778151e-19)
(0.1031261 1.2904919e-06 -1.9434156e-18)
(0.10312604 1.3783029e-06 1.9050069e-18)
(0.10312598 1.4865472e-06 -3.6683101e-21)
(0.10312596 1.5780159e-06 0)
(0.10312557 1.6880356e-06 3.635227e-18)
(0.10312314 1.7923104e-06 -3.567589e-18)
(0.10312401 1.8765521e-06 0)
(0.10312527 1.9215948e-06 -3.4578397e-18)
(0.10312617 1.930944e-06 3.3940798e-18)
(0.10312773 1.9090942e-06 -3.315511e-18)
(0.10312977 1.8694588e-06 3.2352485e-18)
(0.10312951 1.8503117e-06 -3.1840534e-18)