/*--------------------------------*- C++ -*----------------------------------*\
| =========                 |                                                 |
| \\      /  F ield         | OpenFOAM: The Open Source CFD Toolbox           |
|  \\    /   O peration     | Version:  v2006                                 |
|   \\  /    A nd           | Website:  www.openfoam.com                      |
|    \\/     M anipulation  |                                                 |
\*---------------------------------------------------------------------------*/
FoamFile
{
    version     2.0;
    format      ascii;
    class       volVectorField;
    location    "2000";
    object      wallShearStress;
}
// * * * * * * * * * * * * * * * * * * * * * * * * * * * * * * * * * * * * * //

dimensions      [1 -1 -2 0 0 0 0];


internalField   uniform (0 0 0);

boundaryField
{
    Side
    {
        type            empty;
    }
    Ground
    {
        type            calculated;
        value           uniform (0 0 0);
    }
    Inlet
    {
        type            calculated;
        value           uniform (0 0 0);
    }
    Airfoil
    {
        type            calculated;
        value           nonuniform List<vector> 
527
(
(3.6234121e-06 1.3650373e-06 -2.5649668e-20)
(3.9183649e-06 1.3726701e-06 3.5749814e-20)
(4.3470631e-06 1.0723923e-06 1.8717139e-20)
(3.5413674e-06 9.7439404e-07 -1.9525169e-20)
(3.6544075e-06 1.0297434e-06 -1.9973574e-20)
(3.3020289e-06 9.1989575e-07 2.0487695e-20)
(3.0730696e-06 8.3087831e-07 1.0201534e-23)
(2.9107788e-06 7.7678525e-07 -1.0414933e-23)
(2.8720357e-06 7.5870332e-07 -6.1430169e-28)
(2.8718231e-06 7.5228179e-07 2.0745639e-37)
(2.8849364e-06 7.3779996e-07 5.8774718e-39)
(2.8926834e-06 7.270217e-07 1.125976e-20)
(2.9173366e-06 7.204277e-07 -1.1390618e-20)
(2.9288886e-06 7.1183957e-07 -1.1545199e-20)
(2.9446567e-06 7.0949684e-07 1.1672848e-20)
(2.9556274e-06 7.0096747e-07 5.8774718e-39)
(2.9606305e-06 6.9564909e-07 -5.8774718e-39)
(2.9684894e-06 6.8463975e-07 -1.200216e-20)
(2.9729918e-06 6.7783063e-07 -2.3722731e-23)
(2.9783078e-06 6.6365956e-07 1.2264601e-20)
(2.9871775e-06 6.5822825e-07 1.2357099e-20)
(2.9896697e-06 6.3961531e-07 -1.2469056e-20)
(2.9977935e-06 6.3546475e-07 -1.2589052e-20)
(2.9992189e-06 6.1673068e-07 -2.4890073e-23)
(3.0011111e-06 6.0936905e-07 1.6580431e-27)
(3.0017501e-06 5.9622848e-07 -2.5314785e-23)
(2.9983955e-06 5.8295533e-07 2.5521015e-23)
(2.9981773e-06 5.7490585e-07 1.3159825e-20)
(2.9898575e-06 5.5597056e-07 5.2009889e-23)
(2.9848271e-06 5.4722974e-07 1.3390418e-20)
(2.9761559e-06 5.3153937e-07 -1.3518486e-20)
(2.9636382e-06 5.1349885e-07 -1.3630437e-20)
(2.9581944e-06 5.0233992e-07 -1.3762821e-20)
(2.9382051e-06 4.7780022e-07 -1.3860553e-20)
(2.9259132e-06 4.590147e-07 -1.3955599e-20)
(2.9143679e-06 4.4400861e-07 5.5014739e-23)
(2.880876e-06 4.0793119e-07 -1.4919643e-27)
(2.8713851e-06 3.8651491e-07 1.42341e-20)
(2.8465655e-06 3.6803097e-07 -1.1754944e-38)
(2.8000283e-06 3.2924986e-07 -7.2100075e-21)
(2.7866952e-06 3.0610863e-07 -5.711779e-23)
(2.7485566e-06 2.8436931e-07 7.3557568e-21)
(2.6922218e-06 2.4774887e-07 7.3740599e-21)
(2.6613753e-06 2.1702115e-07 1.1682013e-22)
(2.6136898e-06 1.8856503e-07 7.4614321e-21)
(2.5507463e-06 1.5205394e-07 5.3191119e-37)
(2.470265e-06 1.1344041e-07 5.9701609e-23)
(2.4423162e-06 8.0040597e-08 -7.6849446e-21)
(2.3363823e-06 4.0029973e-08 -7.8807262e-21)
(2.1843057e-06 -1.7764718e-08 -7.7483723e-21)
(2.1574415e-06 -5.739097e-08 8.8162076e-39)
(2.0066004e-06 -9.704657e-08 -2.4953426e-39)
(1.8248389e-06 -1.607618e-07 4.5802954e-39)
(1.6501168e-06 -2.2541993e-07 -6.2657349e-23)
(1.6347898e-06 -2.6826715e-07 8.2300307e-21)
(1.3559336e-06 -3.3611281e-07 -8.1430541e-21)
(1.0153322e-06 -4.2067748e-07 -6.4071468e-23)
(9.6051933e-07 -4.6891932e-07 -3.5873241e-43)
(7.8171858e-07 -5.4057918e-07 -6.4971051e-23)
(4.2759078e-07 -6.1946609e-07 8.44411e-21)
(7.2227974e-08 -7.1700015e-07 -6.6031115e-23)
(-4.2974194e-08 -7.9879429e-07 6.6343721e-23)
(-3.1045251e-07 -8.9475236e-07 2.1340273e-38)
(-7.471479e-07 -9.9125771e-07 1.549724e-39)
(-1.132115e-06 -1.085948e-06 6.7533751e-23)
(-1.3338085e-06 -1.1790433e-06 -6.8146722e-23)
(-1.6704371e-06 -1.2874118e-06 -6.8342481e-23)
(-2.2631654e-06 -1.3901533e-06 8.8496558e-21)
(-2.7631291e-06 -1.4925734e-06 1.7779352e-37)
(-3.0263179e-06 -1.5999291e-06 -1.7632415e-38)
(-3.3841095e-06 -1.7351912e-06 -4.394772e-21)
(-4.2399914e-06 -1.8346562e-06 -6.9907569e-27)
(-5.0125019e-06 -1.9339081e-06 -6.9458568e-27)
(-5.2697947e-06 -2.042072e-06 -9.1350573e-21)
(-5.5139207e-06 -2.2139758e-06 -7.1069251e-23)
(-6.5901236e-06 -2.3010289e-06 1.4235727e-22)
(-7.7835585e-06 -2.3667745e-06 -4.7293655e-21)
(-7.9533416e-06 -2.4834004e-06 -4.4573924e-21)
(-8.3056196e-06 -2.6339499e-06 -8.5042804e-27)
(-9.0549934e-06 -2.7577048e-06 -1.453186e-22)
(-1.0311746e-05 -2.8087925e-06 7.2750033e-23)
(-1.0976372e-05 -2.8905652e-06 7.3386522e-23)
(-1.1276274e-05 -3.012622e-06 4.640043e-21)
(-1.1577402e-05 -3.2048548e-06 9.478657e-21)
(-1.2817145e-05 -3.2520999e-06 -4.756918e-21)
(-1.4083686e-05 -3.2697999e-06 7.6303246e-27)
(-1.4238788e-05 -3.403644e-06 3.7548597e-23)
(-1.4652187e-05 -3.552019e-06 -3.774799e-23)
(-1.5308962e-05 -3.7012175e-06 4.8440412e-21)
(-1.6693973e-05 -3.7164702e-06 -4.8735162e-21)
(-1.7659197e-05 -3.7585386e-06 -3.8181276e-23)
(-1.7905917e-05 -3.9007845e-06 -4.8803298e-21)
(-1.8246336e-05 -4.102427e-06 4.9526472e-21)
(-1.930359e-05 -4.2038483e-06 -7.3468397e-39)
(-2.1009701e-05 -4.1540409e-06 -4.9450769e-21)
(-2.178571e-05 -4.2067702e-06 9.9321129e-21)
(-2.2033366e-05 -4.3538564e-06 -4.9895424e-21)
(-2.2304196e-05 -4.5942919e-06 3.9634602e-23)
(-2.3665454e-05 -4.6399755e-06 -5.1127365e-21)
(-2.5686879e-05 -4.5035357e-06 -1.3224311e-37)
(-2.6334451e-05 -4.5543865e-06 2.5613518e-21)
(-2.6532593e-05 -4.7038956e-06 2.6116071e-21)
(-2.6758445e-05 -4.9511994e-06 2.5945265e-21)
(-2.8090882e-05 -4.994135e-06 2.5571863e-21)
(-3.0231839e-05 -4.8106933e-06 -2.5601659e-21)
(-3.0991978e-05 -4.8338656e-06 -9.7728946e-27)
(-3.11356e-05 -4.9877938e-06 2.5915645e-21)
(-3.1366071e-05 -5.2129294e-06 -7.3468397e-40)
(-3.2377087e-05 -5.3227908e-06 -4.4893208e-38)
(-3.4569446e-05 -5.1115027e-06 -9.6610942e-38)
(-3.5780175e-05 -5.0378324e-06 -2.6808554e-21)
(-3.5834133e-05 -5.1894237e-06 2.6959917e-21)
(-3.609046e-05 -5.3596437e-06 -2.7081751e-21)
(-3.6490962e-05 -5.6116385e-06 4.2694471e-23)
(-3.8635331e-05 -5.4032287e-06 -5.4998985e-27)
(-4.058599e-05 -5.1751286e-06 -2.7823145e-21)
(-4.0460106e-05 -5.3589208e-06 5.5245319e-21)
(-4.0785513e-05 -5.4878728e-06 2.7317841e-21)
(-4.102124e-05 -5.7325004e-06 4.3662284e-23)
(-4.2439039e-05 -5.7008845e-06 4.3820996e-23)
(-4.4489852e-05 -5.4688718e-06 -8.7768032e-23)
(-4.5112837e-05 -5.5095438e-06 -2.7836572e-21)
(-4.5376161e-05 -5.6334249e-06 -1.2783501e-37)
(-4.5687736e-05 -5.795428e-06 -5.7179906e-21)
(-4.6127486e-05 -6.0251871e-06 2.8365874e-21)
(-4.8059616e-05 -5.8418458e-06 9.0149897e-23)
(-4.9891163e-05 -5.6431709e-06 -4.5208401e-23)
(-4.9898444e-05 -5.8225247e-06 2.9182795e-21)
(-5.0291263e-05 -5.9443192e-06 -4.5837773e-23)
(-5.0510384e-05 -6.1955552e-06 9.2126656e-23)
(-5.1621396e-05 -6.2937777e-06 -3.0142205e-21)
(-5.4291328e-05 -5.93635e-06 1.4831523e-21)
(-5.587496e-05 -5.7674764e-06 1.4416469e-21)
(-5.5785802e-05 -5.949086e-06 1.5486363e-21)
(-5.5974187e-05 -6.1124508e-06 1.5566348e-21)
(-5.5931382e-05 -6.4875648e-06 1.47057e-21)
(-5.7854467e-05 -6.4070853e-06 1.5241699e-21)
(-6.1675857e-05 -5.7444613e-06 -4.7533964e-23)
(-6.3002311e-05 -5.5744996e-06 4.7693524e-23)
(-6.2614517e-05 -5.7738476e-06 -4.8135896e-23)
(-6.2553745e-05 -5.9475561e-06 1.5495916e-21)
(-6.2260716e-05 -6.3658838e-06 9.7450753e-23)
(-6.4387396e-05 -6.2026507e-06 1.5634937e-21)
(-6.8753214e-05 -5.3602724e-06 -1.6088045e-21)
(-7.0052656e-05 -5.1431691e-06 1.5651028e-21)
(-6.9399935e-05 -5.363876e-06 -5.7397185e-42)
(-6.9335213e-05 -5.4866584e-06 1.5899759e-21)
(-6.9157851e-05 -5.7498709e-06 -4.8489142e-38)
(-7.0243489e-05 -5.7533059e-06 -1.5563124e-21)
(-7.3207201e-05 -5.2237667e-06 -5.0279687e-23)
(-7.4672987e-05 -4.9975551e-06 5.0457343e-23)
(-7.4219729e-05 -5.1936336e-06 -4.1704037e-27)
(-7.4379461e-05 -5.2689105e-06 -5.1222773e-23)
(-7.4528351e-05 -5.390528e-06 3.1292945e-38)
(-7.4880063e-05 -5.5140276e-06 2.5878127e-23)
(-7.6122095e-05 -5.4036223e-06 -2.6024944e-23)
(-7.7242916e-05 -5.3262527e-06 -8.1088748e-22)
(-7.7296435e-05 -5.4721253e-06 -2.629506e-23)
(-7.7646265e-05 -5.552198e-06 8.4665912e-22)
(-7.769631e-05 -5.7366399e-06 3.6734198e-40)
(-7.7557034e-05 -6.0904077e-06 -8.8559376e-22)
(-7.9972187e-05 -5.7990235e-06 8.8449811e-22)
(-8.348567e-05 -5.231324e-06 -1.6933735e-21)
(-8.3490502e-05 -5.3668097e-06 -5.4048431e-23)
(-8.2991772e-05 -5.5732873e-06 -8.4323438e-22)
(-8.2438368e-05 -5.803213e-06 -8.4914468e-22)
(-8.0733177e-05 -6.508076e-06 8.8638482e-22)
(-8.1287484e-05 -7.1911482e-06 8.6069076e-22)
(-9.4021961e-05 -4.9859556e-06 -2.7060566e-23)
(-0.00010339693 -2.2860552e-06 -4.0402047e-22)
(-9.7034543e-05 -3.5187405e-06 2.7193791e-23)
(-9.5070216e-05 -3.7177291e-06 -2.7541758e-23)
(-9.2013686e-05 -4.347329e-06 2.7845671e-23)
(-8.7934562e-05 -5.6884309e-06 -2.8254407e-23)
(-9.4629138e-05 -4.9779125e-06 4.4460493e-22)
(-0.00011675972 3.4132099e-07 -3.2142424e-40)
(-0.000124154 2.8856399e-06 -2.3817647e-22)
(-0.00011337556 1.1138095e-06 -8.0520753e-23)
(-0.0001095273 8.1947797e-07 -4.7639664e-40)
(-0.00010383336 -1.9910627e-07 0)
(-9.682788e-05 -2.1792613e-06 -6.2401572e-46)
(-0.00010870708 -2.455266e-07 3.1556049e-28)
(-0.00013496291 7.439529e-06 7.9318538e-40)
(-0.00013650056 9.2097403e-06 1.0744753e-38)
(-0.00012609386 7.2791338e-06 -8.5017724e-22)
(-0.00012085349 6.6903557e-06 2.038748e-38)
(-0.00011446587 5.5564017e-06 8.8374213e-22)
(-0.00010735114 3.7759795e-06 -1.9285454e-39)
(-0.00011572007 5.1223735e-06 2.7468239e-23)
(-0.0001374962 1.2321021e-05 -2.6394373e-23)
(-0.00013928377 1.4160936e-05 -8.6684302e-22)
(-0.00012847875 1.1969549e-05 5.3487773e-23)
(-0.00012282218 1.1200797e-05 -2.7354218e-23)
(-0.000116202 9.9514464e-06 9.2165733e-22)
(-0.00010759283 8.0806064e-06 9.1756379e-22)
(-0.00011033883 8.5952179e-06 -2.8141718e-23)
(-0.00014077848 1.7325371e-05 -8.068001e-22)
(-0.00015481791 2.3717799e-05 1.6223651e-26)
(-0.00013670874 1.93269e-05 -2.6161194e-23)
(-0.00013012121 1.8393681e-05 1.4693679e-39)
(-0.00012334337 1.7080435e-05 1.7959223e-21)
(-0.0001153628 1.5304822e-05 -2.8295875e-23)
(-0.00010906869 1.3929421e-05 -1.8408997e-21)
(-0.00012896908 1.957793e-05 -1.3392079e-23)
(-0.00014992284 2.771382e-05 1.3092778e-23)
(-0.00013875679 2.5557853e-05 1.5485761e-38)
(-0.00013016584 2.3756431e-05 0)
(-0.00012367352 2.2431843e-05 0)
(-0.00011804033 2.1167383e-05 -1.8133871e-21)
(-0.00011139747 1.9568006e-05 5.4091107e-38)
(-0.00010910675 1.9187679e-05 -1.8423565e-21)
(-0.00012696824 2.4933342e-05 1.7432042e-21)
(-0.00013796723 3.0086809e-05 1.7168925e-21)
(-0.00012374276 2.6172926e-05 1.4693679e-39)
(-0.00011865025 2.5204667e-05 4.5878185e-27)
(-0.00011292735 2.3838025e-05 1.8693067e-21)
(-0.0001079853 2.2564341e-05 1.8952415e-21)
(-0.00010186845 2.1028082e-05 -1.5151118e-23)
(-0.00010131674 2.1356654e-05 -1.9331252e-21)
(-0.00012211612 2.8108853e-05 1.7863359e-21)
(-0.00013385257 3.3738988e-05 0)
(-0.00011872861 2.9306118e-05 1.7877976e-21)
(-0.0001138775 2.8299248e-05 1.4523424e-23)
(-0.00010821474 2.6827738e-05 3.792626e-27)
(-0.00010374347 2.5588443e-05 1.5176734e-23)
(-9.8643017e-05 2.4231263e-05 1.9691503e-21)
(-9.6734048e-05 2.4252968e-05 -1.4693679e-39)
(-0.00010964914 2.8667136e-05 -1.4571783e-23)
(-0.00012154706 3.3756851e-05 1.4455517e-23)
(-0.00011381422 3.1890189e-05 -1.8452476e-21)
(-0.0001074973 3.0188452e-05 -1.4950892e-23)
(-0.00010265109 2.8878613e-05 1.5314768e-23)
(-9.8527401e-05 2.7685522e-05 1.9856327e-21)
(-9.4688662e-05 2.6496153e-05 0)
(-9.1063969e-05 2.5610832e-05 3.0434451e-45)
(-9.2294988e-05 2.6702153e-05 5.4814312e-40)
(-0.00010438132 3.1008695e-05 0)
(-0.00010971241 3.386864e-05 -1.9475427e-21)
(-9.9874694e-05 3.0702466e-05 -2.9649279e-27)
(-9.6333912e-05 2.9768897e-05 -2.8130441e-27)
(-9.2087105e-05 2.8481536e-05 3.2481983e-23)
(-8.8738345e-05 2.7433107e-05 -3.3143289e-23)
(-8.5541526e-05 2.6359919e-05 1.6890752e-23)
(-8.2699017e-05 2.5646748e-05 -4.3947689e-21)
(-8.4959419e-05 2.733511e-05 2.1357054e-21)
(-9.8793407e-05 3.2154702e-05 5.8774718e-39)
(-0.00010527405 3.5798126e-05 1.9849847e-21)
(-9.4983938e-05 3.2288776e-05 0)
(-9.1889386e-05 3.1436851e-05 4.2031674e-21)
(-8.7969725e-05 3.0170535e-05 -3.5264831e-38)
(-8.5075527e-05 2.9218322e-05 0)
(-8.2402327e-05 2.8311611e-05 -1.1125001e-21)
(-8.0225872e-05 2.7661684e-05 1.1293542e-21)
(-7.9950311e-05 2.8000981e-05 -2.9387359e-39)
(-8.4933085e-05 3.0117229e-05 8.4589942e-24)
(-9.0608802e-05 3.2679967e-05 1.065311e-21)
(-8.8332064e-05 3.2232835e-05 1.0789217e-21)
(-8.3983753e-05 3.0751285e-05 5.8774718e-39)
(-8.1315149e-05 2.9862313e-05 -1.1276716e-21)
(-7.8725115e-05 2.8970712e-05 -3.5264831e-38)
(-7.6527773e-05 2.8206036e-05 -5.8774718e-39)
(-7.4640671e-05 2.7542111e-05 1.183663e-21)
(-7.3251901e-05 2.7143617e-05 -9.3516056e-24)
(-7.3470746e-05 2.7624147e-05 1.2036433e-21)
(-7.73595e-05 2.9425972e-05 -1.793947e-23)
(-8.1683012e-05 3.1349148e-05 8.9090347e-24)
(-8.0021818e-05 3.0958833e-05 -4.4789263e-24)
(-7.6402437e-05 2.9670806e-05 1.1825752e-21)
(-7.4166697e-05 2.8882267e-05 7.4060806e-28)
(-7.1921178e-05 2.8066648e-05 -4.7541627e-24)
(-6.9987526e-05 2.7365873e-05 -1.2366625e-21)
(-6.839584e-05 2.6781519e-05 2.5107634e-21)
(-6.7357537e-05 2.6397892e-05 -5.8774718e-39)
(-6.7057278e-05 2.657736e-05 -1.1754944e-38)
(-6.9549402e-05 2.8369926e-05 2.4405219e-21)
(-7.7077476e-05 3.152748e-05 4.496243e-24)
(-8.1414275e-05 3.3650118e-05 1.1503643e-21)
(-7.6140085e-05 3.1702448e-05 4.6245513e-24)
(-7.405746e-05 3.0962592e-05 -8.8162076e-39)
(-7.1656669e-05 3.0064422e-05 -1.2334625e-21)
(-6.9855659e-05 2.9379417e-05 2.0271981e-28)
(-6.8185637e-05 2.8748344e-05 -2.4888578e-24)
(-6.6802423e-05 2.8236832e-05 -5.1657467e-41)
(-6.5724831e-05 2.7861057e-05 1.2208381e-38)
(-6.5070349e-05 2.7721342e-05 -1.1210388e-44)
(-6.5312157e-05 2.8106316e-05 1.6318053e-27)
(-6.7226486e-05 2.9190467e-05 2.1344578e-41)
(-6.9511892e-05 3.0235627e-05 1.4693679e-39)
(-6.8795496e-05 2.9959213e-05 -6.3838223e-22)
(-6.6433023e-05 2.903782e-05 6.4943379e-22)
(-6.5047094e-05 2.8495001e-05 1.2903787e-24)
(-6.3588965e-05 2.7915062e-05 6.7145772e-22)
(-6.2354101e-05 2.7423407e-05 -1.3256145e-24)
(-6.1225291e-05 2.6985844e-05 -6.8731603e-22)
(-6.0313023e-05 2.6653551e-05 -2.9966554e-29)
(-5.9724251e-05 2.645819e-05 -1.397818e-21)
(-5.9530078e-05 2.6462654e-05 6.9880374e-22)
(-5.984631e-05 2.6890909e-05 0)
(-6.1537244e-05 2.8071127e-05 -1.6158619e-25)
(-6.4772018e-05 2.95384e-05 1.6044701e-25)
(-6.6135162e-05 3.0057429e-05 -2.9387359e-39)
(-6.2974441e-05 2.8830606e-05 6.7733898e-22)
(-6.1901155e-05 2.8397434e-05 -6.8924554e-22)
(-6.0350562e-05 2.7764593e-05 3.4162809e-25)
(-5.919717e-05 2.7286808e-05 0)
(-5.80791e-05 2.6828988e-05 7.0151458e-25)
(-5.7132891e-05 2.6451614e-05 2.6291362e-29)
(-5.6352571e-05 2.6159228e-05 -7.164757e-25)
(-5.5834922e-05 2.5982384e-05 7.3916472e-22)
(-5.5628348e-05 2.5970384e-05 -7.3982085e-22)
(-5.5756791e-05 2.6196172e-05 1.4726326e-21)
(-5.6442102e-05 2.683869e-05 -1.4171117e-24)
(-5.8181005e-05 2.7964771e-05 1.386583e-24)
(-6.0426074e-05 2.8979429e-05 -3.5119585e-22)
(-6.0680744e-05 2.8969693e-05 5.8774718e-39)
(-5.8232241e-05 2.7997087e-05 7.1971503e-22)
(-5.7092369e-05 2.7513123e-05 1.4334773e-24)
(-5.5677672e-05 2.6906614e-05 -3.7453382e-22)
(-5.4551412e-05 2.6412348e-05 1.479013e-24)
(-5.3457637e-05 2.5932606e-05 3.8386529e-22)
(-5.2481708e-05 2.550588e-05 -3.904488e-22)
(-5.160005e-05 2.5122318e-05 1.5375621e-24)
(-5.0843518e-05 2.4788855e-05 1.5538047e-24)
(-5.0220904e-05 2.4522211e-05 -1.5679593e-24)
(-4.9762708e-05 2.4353587e-05 1.6358198e-39)
(-4.94985e-05 2.4304185e-05 1.1210388e-44)
(-4.9440066e-05 2.4410736e-05 -4.684069e-28)
(-4.9704545e-05 2.4744032e-05 -4.0364777e-22)
(-5.0455842e-05 2.5244193e-05 1.5528351e-24)
(-5.1295406e-05 2.555201e-05 3.9730279e-22)
(-5.102012e-05 2.5301458e-05 0)
(-4.9721697e-05 2.4772621e-05 -1.586129e-24)
(-4.9064195e-05 2.4505842e-05 -4.093191e-22)
(-4.8424322e-05 2.4267729e-05 2.0577549e-22)
(-4.8079392e-05 2.4180273e-05 3.2605205e-24)
(-4.7941533e-05 2.42143e-05 -3.2599372e-24)
(-4.8061659e-05 2.4402396e-05 1.6216652e-24)
(-4.8466385e-05 2.4769697e-05 -2.9387359e-39)
(-4.9198745e-05 2.5344631e-05 4.0560326e-22)
(-5.0293308e-05 2.615921e-05 -3.9714848e-22)
(-5.179017e-05 2.7254512e-05 1.9288358e-22)
(-5.3754426e-05 2.8671516e-05 -1.872565e-22)
(-5.6231025e-05 3.0412425e-05 7.0038174e-25)
(-5.9121767e-05 3.2466351e-05 1.7139354e-22)
(-6.2455759e-05 3.4955722e-05 3.2572375e-22)
(-6.6976555e-05 3.7831124e-05 3.0205174e-25)
(-7.2374501e-05 3.9983932e-05 -9.932718e-27)
(-7.4243147e-05 4.1417752e-05 -1.3933365e-22)
(-7.5300106e-05 4.7087493e-05 6.4052862e-26)
(-3.8941918e-05 -3.9663471e-06 -7.3468397e-40)
(-3.5886344e-05 -3.328919e-06 -3.0674228e-24)
(-3.6906958e-05 -3.2016079e-06 3.0715174e-24)
(-3.530619e-05 -2.513517e-06 -6.2993574e-21)
(-3.3568631e-05 -2.0504756e-06 5.5266602e-37)
(-3.2611671e-05 -1.6904897e-06 -3.086922e-24)
(-3.0822058e-05 -1.2756127e-06 -6.3285719e-21)
(-2.9688284e-05 -1.1296447e-06 3.1674417e-21)
(-2.9555803e-05 -1.0987255e-06 3.1760159e-21)
(-2.9198263e-05 -1.0451914e-06 -3.1746534e-21)
(-2.8871288e-05 -1.0071801e-06 -3.1019028e-24)
(-2.8661984e-05 -9.9077407e-07 -3.1775557e-21)
(-2.867011e-05 -1.0050081e-06 1.5518556e-24)
(-2.8793992e-05 -1.0072708e-06 3.1802834e-21)
(-2.8786491e-05 -9.7535078e-07 3.1790762e-21)
(-2.8827859e-05 -9.3125063e-07 -6.3589329e-21)
(-2.854436e-05 -8.1030502e-07 -2.6566707e-30)
(-2.8056688e-05 -7.0196767e-07 -3.1812407e-21)
(-2.7848561e-05 -6.257924e-07 3.1821925e-21)
(-2.763728e-05 -5.4079549e-07 -3.1829327e-21)
(-2.7212022e-05 -4.4225586e-07 -1.5919363e-21)
(-2.6919344e-05 -3.8876474e-07 -1.5924388e-21)
(-2.6884712e-05 -3.3932909e-07 3.1861984e-21)
(-2.6606326e-05 -2.622476e-07 -1.5556601e-24)
(-2.6356751e-05 -2.1884608e-07 -7.9551743e-22)
(-2.6449026e-05 -1.7966276e-07 -7.9715359e-22)
(-2.6132104e-05 -8.0438508e-08 3.9842886e-22)
(-2.5687767e-05 -1.5931569e-08 -9.9637561e-23)
(-2.563962e-05 3.8810281e-08 -3.5873241e-42)
(-2.5215775e-05 1.272855e-07 7.9738646e-22)
(-2.4840237e-05 1.6563298e-07 -1.5952612e-21)
(-2.4881425e-05 2.0214896e-07 -7.9772571e-22)
(-2.4641851e-05 2.6634205e-07 -1.5956125e-21)
(-2.4296982e-05 3.1331566e-07 -5.2214219e-38)
(-2.4259265e-05 3.614726e-07 -1.1479437e-41)
(-2.3800601e-05 4.4923472e-07 1.5956464e-21)
(-2.3262848e-05 4.8805289e-07 -3.1939775e-21)
(-2.3136527e-05 5.306439e-07 3.1953916e-21)
(-2.2781885e-05 5.7905536e-07 -3.1951707e-21)
(-2.2425111e-05 6.0787153e-07 -3.195965e-21)
(-2.2283053e-05 6.426436e-07 -1.3259306e-37)
(-2.1945408e-05 6.9673887e-07 -3.1954545e-21)
(-2.1371594e-05 7.4334891e-07 -3.197972e-21)
(-2.087058e-05 7.8079974e-07 -3.2006218e-21)
(-2.037569e-05 8.3063297e-07 1.5626356e-24)
(-1.9415434e-05 8.7382346e-07 -3.1265441e-24)
(-1.8413005e-05 8.7276845e-07 -1.2813056e-20)
(-1.7566692e-05 8.6780127e-07 -6.4111547e-21)
(-1.6548532e-05 8.1852441e-07 -4.8787607e-41)
(-1.5840876e-05 7.4146991e-07 -6.4226282e-21)
(-1.5336928e-05 6.5483698e-07 -2.7317673e-28)
(-1.4907237e-05 5.4918075e-07 3.2158922e-21)
(-1.445478e-05 4.1534876e-07 -3.2140286e-21)
(-1.4622319e-05 2.425529e-07 -3.214503e-21)
(-1.5140168e-05 8.0714153e-08 3.1392348e-24)
(-1.5435464e-05 -1.258736e-07 -6.278194e-24)
(-1.6048886e-05 -3.6237033e-07 3.1385046e-24)
(-1.697589e-05 -6.3236374e-07 3.2097441e-21)
(-1.8075107e-05 -9.5482386e-07 3.1364297e-24)
(-1.935878e-05 -1.3182048e-06 -6.4235624e-21)
(-2.0756081e-05 -1.7227344e-06 3.1334327e-24)
(-2.2497745e-05 -2.1811655e-06 -1.2829364e-20)
(-2.4187346e-05 -2.6958533e-06 3.1291417e-24)
(-2.7156934e-05 -3.3547259e-06 1.2796812e-20)
(-2.9447151e-05 -4.1261388e-06 -1.2780847e-20)
(-3.7105336e-05 -5.1136575e-06 6.2345363e-24)
(-3.1105031e-05 -5.2874247e-06 1.2719363e-20)
(-6.8356957e-05 -1.1062378e-05 -6.6635836e-37)
(-5.5768115e-05 6.3543114e-06 6.0635621e-21)
(-0.00012341146 -9.0313645e-05 -9.0687141e-22)
(-9.0849657e-05 -5.774609e-05 3.3470813e-23)
(-9.1520145e-05 -5.5074787e-05 -6.3769105e-27)
(-0.00010589132 -6.1804169e-05 -3.6031503e-21)
(-0.00016460485 -0.0001033111 1.5149108e-21)
(-0.00013764083 -6.561851e-05 -1.4810338e-21)
(-1.3689224e-05 4.0406998e-06 -5.8774718e-39)
(-1.1332685e-05 2.0926845e-06 4.5802883e-21)
(-1.709619e-05 -2.8575462e-06 7.3468397e-40)
(1.2796543e-05 6.7393311e-06 3.7594009e-21)
(3.9280263e-06 4.8070577e-06 2.0066428e-26)
(-1.0426654e-05 8.6034672e-07 1.3097744e-26)
(-1.9048908e-05 -1.1599943e-06 -2.0214194e-23)
(-2.9448941e-05 -3.7984199e-06 -4.6287811e-21)
(-3.5809932e-05 -5.1448273e-06 -4.2155909e-21)
(-3.6429485e-05 -4.9351613e-06 -3.8699383e-21)
(-3.6957715e-05 -5.0596838e-06 -1.3984666e-23)
(-4.2133465e-05 -6.1974121e-06 -6.4526469e-24)
(-3.9922118e-05 -4.8876917e-06 -6.0103722e-21)
(-3.6545328e-05 -4.3208226e-06 5.5301551e-24)
(-4.0692571e-05 -5.1544668e-06 5.3726779e-21)
(-4.8554156e-06 -3.2536248e-05 4.9986927e-22)
(-4.582055e-06 -3.3479663e-05 7.3468397e-40)
(-6.2582068e-06 -4.2499505e-05 9.3517287e-22)
(-8.8385497e-06 -5.4635195e-05 -8.8778411e-22)
(-1.271388e-05 -5.5585065e-05 -8.5659981e-22)
(-1.3088947e-05 -5.6586484e-05 8.2692121e-22)
(-1.601386e-05 -6.6963459e-05 -7.3468397e-40)
(-1.9283227e-05 -7.7666395e-05 2.232305e-23)
(-2.6945312e-05 -0.00010805143 -6.5520082e-22)
(-3.826124e-05 -0.0001095727 -3.9309297e-23)
(-3.6085984e-05 -8.1981971e-05 2.5286724e-27)
(-3.608044e-05 -7.5122569e-05 -1.3791546e-21)
(-4.3022027e-05 -8.75218e-05 1.3112668e-21)
(-5.3075095e-05 -0.00010626739 1.196312e-21)
(-5.5829546e-05 -0.00010105571 0)
(-5.4528808e-05 -9.4102726e-05 2.3451873e-21)
(-6.3951646e-05 -0.00010734627 -1.4273788e-26)
(-7.4229326e-05 -0.00012014032 2.975272e-23)
(-0.00010700073 -0.00017843122 -3.3190144e-21)
(-0.00010697805 -0.00013849824 -2.6131101e-23)
(-6.641438e-05 -6.9183372e-05 4.4943273e-21)
(-7.0787059e-05 -6.9948612e-05 0)
(-8.8439258e-05 -8.7853671e-05 0)
(-0.00011748415 -0.000119725 0)
(-0.00010460624 -9.4737101e-05 -2.8608546e-23)
(-7.3402651e-05 -5.6987429e-05 3.5622624e-23)
(-8.0690098e-05 -6.0619827e-05 2.1895439e-21)
(-9.4720822e-05 -7.0334042e-05 -1.8894409e-21)
(-0.00013042015 -0.00010204304 -2.9387359e-39)
(1.2989487e-07 -2.7000953e-05 3.1492248e-23)
(1.4758352e-07 -1.2145502e-05 -5.8493528e-22)
(-1.1989209e-07 -6.3485947e-06 -7.3468397e-40)
(-5.2889131e-07 1.2225801e-06 2.2040519e-39)
(-1.3360316e-06 7.2954598e-06 -1.1797069e-21)
(-2.4263563e-06 1.2937675e-05 -1.0939297e-21)
(-3.4742606e-06 1.8121863e-05 -9.9872115e-22)
(-4.7220613e-06 2.4164728e-05 -1.8367099e-39)
(-6.8858368e-06 3.0174198e-05 -7.4298172e-22)
(-8.1131732e-06 4.41641e-05 3.6905247e-27)
(-1.3187864e-05 4.7543716e-05 1.3585483e-21)
(-1.5907105e-05 4.3036719e-05 1.1754944e-38)
(-1.7765509e-05 4.3958078e-05 2.0818799e-23)
(-2.0115839e-05 4.8741874e-05 -1.8962584e-23)
(-2.2806413e-05 5.3557773e-05 5.5439769e-22)
(-2.575199e-05 6.3682114e-05 -5.1258741e-22)
(-2.9152318e-05 6.7049899e-05 -9.8096401e-22)
(-3.0772147e-05 6.2599168e-05 -5.1230086e-22)
(-3.2477102e-05 6.1837774e-05 -4.8629621e-22)
(-3.5162972e-05 6.5098287e-05 -4.3597312e-22)
(-3.8610524e-05 7.0098396e-05 3.9642387e-22)
(-4.2993466e-05 7.7483348e-05 -1.150036e-23)
(-4.8664162e-05 8.4347726e-05 -6.2793118e-22)
(-5.5527158e-05 0.00010742642 2.9525996e-22)
(-6.057063e-05 0.00011006993 -1.069338e-23)
(-5.413947e-05 7.1296834e-05 1.4293343e-23)
(-4.940621e-05 5.6275492e-05 -5.4050965e-22)
(-4.9408964e-05 5.4654521e-05 -8.9691835e-24)
(-5.3069778e-05 5.6205028e-05 5.4936828e-22)
(-5.7790965e-05 6.0704545e-05 -2.9387359e-39)
(-6.3470987e-05 6.6854732e-05 0)
(-7.0494064e-05 7.7628735e-05 -2.9387359e-39)
(-7.5354783e-05 8.9892564e-05 4.1893219e-22)
(-6.9231784e-05 7.7627395e-05 7.780819e-24)
(-5.7579599e-05 5.1600086e-05 -6.4219682e-22)
(-5.1994133e-05 4.1872142e-05 7.5241766e-22)
(-5.0762768e-05 3.9180414e-05 8.071521e-22)
(-5.2676269e-05 3.9030908e-05 7.8002702e-22)
(-5.6176267e-05 4.1573406e-05 2.3264282e-23)
(-5.992852e-05 4.5742864e-05 3.3569722e-22)
(-6.3830705e-05 5.0426476e-05 6.4432239e-22)
(-6.8582098e-05 5.507661e-05 0)
(-7.4555325e-05 6.1812498e-05 -8.6009504e-24)
(-7.9080669e-05 7.3401228e-05 -2.7905231e-22)
(-7.2012034e-05 6.5934786e-05 6.8255492e-22)
(-5.5640723e-05 4.0262526e-05 -1.3914917e-23)
(-4.7032609e-05 2.8883169e-05 -5.4494658e-22)
(-4.3006441e-05 2.3520694e-05 6.5872084e-22)
(-4.1758039e-05 2.0476545e-05 -6.8932279e-22)
(-4.1679955e-05 1.9831026e-05 2.1303857e-23)
(-4.2180105e-05 2.0524659e-05 1.3125763e-21)
(-4.2768986e-05 2.1821188e-05 6.4756836e-22)
(-4.3902856e-05 2.3349937e-05 1.2512416e-21)
(-4.5648284e-05 2.4960238e-05 -1.8843087e-23)
(-4.7746434e-05 2.6962353e-05 1.8097174e-23)
(-5.0418639e-05 2.8875505e-05 2.7717062e-22)
(-5.3513256e-05 3.1530546e-05 1.6445066e-23)
(-5.528506e-05 3.5332643e-05 -1.6033943e-23)
(-6.2528456e-05 2.2615947e-05 2.268787e-22)
)
;
    }
    Outlet
    {
        type            calculated;
        value           uniform (0 0 0);
    }
}


// ************************************************************************* //
