/*--------------------------------*- C++ -*----------------------------------*\
| =========                 |                                                 |
| \\      /  F ield         | OpenFOAM: The Open Source CFD Toolbox           |
|  \\    /   O peration     | Version:  v2006                                 |
|   \\  /    A nd           | Website:  www.openfoam.com                      |
|    \\/     M anipulation  |                                                 |
\*---------------------------------------------------------------------------*/
FoamFile
{
    version     2.0;
    format      ascii;
    class       volScalarField;
    location    "2000";
    object      yPlus;
}
// * * * * * * * * * * * * * * * * * * * * * * * * * * * * * * * * * * * * * //

dimensions      [0 0 0 0 0 0 0];


internalField   uniform 0;

boundaryField
{
    Side
    {
        type            empty;
    }
    Ground
    {
        type            calculated;
        value           nonuniform List<scalar> 
519
(
1.2295104
1.2340611
1.2394423
1.2472225
1.2575103
1.2704826
1.2851336
1.3015666
1.3260258
1.3545946
1.3564209
1.3897377
1.5925181
1.5637529
1.7644284
1.7085459
1.6572553
1.6072298
1.5591763
1.513053
1.4689522
1.4272403
1.3880945
1.3513827
1.3172034
1.2866418
1.2604888
1.2392241
1.7964119
1.8033932
1.8088119
1.8140383
1.8188583
1.8233041
1.8272132
1.8304369
1.8328652
1.8344146
1.8349907
1.8344875
1.8327691
1.8296635
1.8249503
1.8183609
1.8095642
1.7981707
1.7837263
1.7657195
1.743578
1.7166778
1.6843699
1.6460055
1.6008675
1.5480301
1.487104
1.4168833
1.3361958
1.2454837
1.1427692
1.0253636
0.88618472
0.71964096
0.4882855
0.094974805
0.46467743
0.67497048
0.82349136
0.96241218
1.0672252
1.1517508
1.2151289
1.271273
1.3221493
1.3678911
1.4089327
1.4454042
1.477274
1.5065983
1.5332248
1.5569604
1.5781048
1.5969683
1.6136347
1.6282468
1.6411874
1.6527501
1.663137
1.6724988
1.6809775
1.6886866
1.6955789
1.7016659
1.7072099
1.7123931
1.7172171
1.7216836
1.725816
1.7296149
1.7331179
1.7363469
1.739392
1.7421256
1.6039761
1.5685689
1.5448271
1.5322557
1.5188371
1.5080244
1.499151
1.4923398
1.4869032
1.4826128
1.4792467
1.4768726
1.4752899
1.4743231
1.4738715
1.4737377
1.4739065
1.4742656
1.4748061
1.4754443
1.4761905
1.476923
1.4777204
1.4783762
1.4790095
1.4795104
1.4798654
1.4800345
1.479877
1.4794946
1.4786539
1.4773735
1.4757333
1.4736075
1.4711291
1.4682331
1.4649071
1.4613497
1.457231
1.452437
1.4472759
1.4414661
1.4349899
1.4281819
1.4207757
1.4125272
1.403613
1.3940042
1.3834066
1.3717085
1.3591788
1.3458695
1.331937
1.3176183
1.3025415
1.2860216
1.2676353
1.24774
1.2267173
1.2055616
1.1853167
1.1657886
1.1470805
1.1284017
1.1085689
1.0863217
1.0605874
1.0317633
1.000936
0.97049277
0.94296508
0.91848374
0.89627508
0.87512028
0.85353112
0.82913029
0.79980943
0.76517743
0.72512323
0.67840208
0.63394686
0.59090824
0.55694259
0.52466892
0.49531075
0.4670718
0.43834732
0.4089776
0.38071776
0.35907046
0.35218249
0.36527356
0.39321533
0.42647408
0.4595135
0.4902071
0.51777487
0.54285451
0.56666375
0.59094633
0.61703875
0.64496848
0.67435426
0.70399555
0.73266146
0.75930869
0.7829734
0.80380461
0.82277744
0.84142741
0.86141985
0.88338839
0.90705723
0.93155603
0.95547433
0.9778915
0.99829217
1.01671
1.0343603
1.0523936
1.071795
1.0926047
1.1138089
1.1343607
1.1535379
1.1714324
1.1889956
1.207081
1.2258074
1.2449538
1.2638899
1.2823735
1.30059
1.3187384
1.3368509
1.3549501
1.3728645
1.3907272
1.4086841
1.4264293
1.4437999
1.4607895
1.477313
1.4935684
1.5097228
1.5253308
1.5399982
1.5538353
1.5673881
1.5811344
1.5948445
1.608069
1.6206194
1.6325475
1.6438259
1.6544604
1.6644597
1.6737953
1.6824125
1.6904424
1.6979167
1.7047379
1.7109394
1.7166206
1.7216223
1.7260543
1.7300103
1.7333753
1.7361342
1.739118
1.7423425
1.7448094
1.7470228
1.7487191
1.7496992
1.7506243
1.7526699
1.7551617
1.7571813
1.7589269
1.7601
1.7606444
1.7615712
1.7639569
1.7665991
1.7687658
1.7705596
1.7718767
1.7727599
1.7740047
1.7764146
1.7790055
1.7811174
1.7829691
1.7844886
1.7856639
1.7869338
1.78957
1.7931019
1.7959574
1.79864
1.801012
1.8031275
1.8049468
1.8075147
1.8112257
1.8146216
1.8178272
1.8208536
1.8236889
1.8261825
1.8283701
1.8311685
1.8346638
1.8376846
1.8406001
1.8432653
1.8457531
1.8479965
1.850018
1.8526958
1.8561084
1.8590373
1.8618694
1.8644638
1.8668873
1.8690998
1.8710745
1.873347
1.8761769
1.8787996
1.8812566
1.8835973
1.8857965
1.8878131
1.8896416
1.8913159
1.8933128
1.8956522
1.8976887
1.8996205
1.9013839
1.9030211
1.9045076
1.9057763
1.9068467
1.908257
1.9100629
1.911572
1.9129878
1.9142331
1.9153411
1.9163059
1.9171326
1.9178142
1.918513
1.9193976
1.9202483
1.9209443
1.9215158
1.9219493
1.9222502
1.9224281
1.922485
1.9224161
1.9223214
1.9223236
1.9223355
1.9222763
1.9221097
1.9218258
1.9214322
1.9209278
1.9203324
1.9196404
1.9188443
1.9181577
1.9176631
1.9170419
1.9163362
1.9155157
1.9146022
1.9135989
1.9125073
1.9113347
1.9100892
1.9087615
1.9074052
1.90609
1.9047528
1.9033533
1.9018916
1.900305
1.8986021
1.8968243
1.8949854
1.8930846
1.8911271
1.8891149
1.8870541
1.8850276
1.8830487
1.8809737
1.8788494
1.8766646
1.8744276
1.8721349
1.8697906
1.8673942
1.8649494
1.8624564
1.859919
1.8573351
1.8547241
1.8521421
1.849575
1.846951
1.8442842
1.8415694
1.8388143
1.8360149
1.8331725
1.8302899
1.827367
1.8244077
1.8214197
1.8183846
1.8152924
1.8121612
1.8090126
1.8058719
1.8027231
1.7995379
1.7963218
1.7930729
1.789793
1.7864814
1.7831393
1.7797676
1.7763689
1.7729431
1.7694927
1.7660293
1.7625681
1.7591032
1.7556313
1.752159
1.7486728
1.745159
1.1223858
1.1308532
1.1302573
1.1251086
1.1190604
1.1142041
1.1117427
1.109685
1.102563
1.0825618
1.0372689
0.95901933
0.8737781
0.84298471
0.88172933
0.93533239
0.98159962
1.0263461
1.0690205
1.1117475
1.1566923
1.2100958
1.2736789
1.3355581
1.3895941
1.4364513
1.4824221
1.5391391
1.6009974
1.658871
1.7107152
1.7532403
1.7840441
1.8007949
1.8025435
1.7909571
1.769121
1.7408926
1.7105239
1.681435
1.6557199
1.638922
1.6287921
1.6151484
1.0995605
1.0633316
1.0202485
0.97748793
0.94071057
0.91160573
0.88905067
0.871238
0.85647102
0.84367244
0.83222963
0.8218236
0.8122783
0.80345311
0.79530785
0.78767494
0.78069588
0.77388862
0.76803677
0.76144383
0.75721161
0.74896942
0.74827518
0.73625548
)
;
    }
    Inlet
    {
        type            calculated;
        value           uniform 0;
    }
    Airfoil
    {
        type            calculated;
        value           nonuniform List<scalar> 
527
(
1.3718432
1.6069215
1.706239
1.5127584
1.5069691
1.4127433
1.3443189
1.2886268
1.2600956
1.2403038
1.2255254
1.2093633
1.1970354
1.1822467
1.1677347
1.1531989
1.1371161
1.1226193
1.107101
1.0930701
1.0787179
1.0654452
1.0511646
1.0382909
1.0237486
1.0101815
0.99606815
0.98172821
0.9680734
0.95336441
0.93927298
0.92514076
0.91105637
0.89722449
0.88357938
0.86933203
0.85552988
0.84282687
0.82751797
0.81293303
0.80053416
0.7842305
0.76829859
0.754538
0.73769272
0.72051825
0.7011912
0.68793876
0.66431167
0.63675247
0.62461258
0.59459389
0.56226547
0.52955832
0.52091131
0.46963511
0.40892234
0.39576232
0.36172363
0.30314565
0.2858775
0.30025191
0.33374296
0.39588302
0.45079523
0.47729989
0.51768773
0.5815162
0.6306405
0.6519717
0.68072178
0.74679434
0.80390465
0.81624062
0.82826851
0.89077224
0.96291714
0.96563441
0.97820317
1.0105764
1.0704881
1.0983402
1.1038977
1.1099421
1.1552912
1.2078427
1.2051364
1.2128276
1.2295013
1.2749887
1.3064828
1.3058467
1.3088019
1.3350268
1.3874226
1.4075178
1.4057085
1.4051235
1.4359103
1.4935569
1.5072476
1.5032997
1.5006094
1.526666
1.5814996
1.597459
1.5918644
1.5887809
1.6043825
1.6531353
1.6807958
1.6731394
1.6702678
1.6709673
1.7103508
1.7557878
1.7446441
1.7430813
1.7399591
1.7605101
1.8010911
1.8091495
1.8062435
1.8043871
1.8052252
1.8344698
1.8699313
1.862391
1.8619428
1.8585882
1.8710756
1.9154994
1.9444052
1.9357089
1.931855
1.9245284
1.9496438
2.0156456
2.0401482
2.0274838
2.0201608
2.0096085
2.0367287
2.1095682
2.1339441
2.1184552
2.1119148
2.1039018
2.1147161
2.1584305
2.1826799
2.1710875
2.1684283
2.1656692
2.1658993
2.1792409
2.1938112
2.1898853
2.1901314
2.186261
2.1800349
2.2086618
2.2612523
2.2607505
2.2499812
2.2384889
2.2118156
2.2162808
2.385064
2.5408879
2.4591175
2.4319222
2.3903707
2.3355031
2.420359
2.7235554
2.8577364
2.7311476
2.6851754
2.6148234
2.5260488
2.6772626
3.0394952
3.1002954
2.9829025
2.9243335
2.8493339
2.7624206
2.8730365
3.1755883
3.2358596
3.1131068
3.0502903
2.9724569
2.8650286
2.9083858
3.3188087
3.5501323
3.3425929
3.2713035
3.193754
3.0965312
3.0190688
3.2981284
3.6137802
3.4967811
3.3983919
3.3239218
3.2579562
3.1747314
3.1529695
3.420453
3.606887
3.4256562
3.3675214
3.2968971
3.234895
3.1523992
3.1567541
3.4860839
3.6841027
3.4803698
3.4228237
3.3492638
3.2913375
3.2211554
3.2037582
3.4281564
3.6303194
3.5265783
3.4411124
3.3760973
3.3202165
3.2668174
3.216476
3.2537511
3.4761636
3.5741401
3.4221241
3.374777
3.3122403
3.2635699
3.215661
3.1744654
3.2345591
3.5018021
3.6156368
3.4465356
3.4040097
3.3435352
3.3004524
3.2600916
3.2290177
3.2376704
3.351297
3.4660167
3.4270177
3.3539553
3.312555
3.2712055
3.2366673
3.2076351
3.1892639
3.2075526
3.3047555
3.3973174
3.3646977
3.2991735
3.2618402
3.2229874
3.1899641
3.1637148
3.1496779
3.155092
3.2293074
3.4110979
3.4850554
3.3782993
3.3430021
3.2994461
3.2682398
3.2392801
3.2164024
3.2004318
3.1949881
3.2126549
3.2710435
3.3263307
3.3070014
3.2595611
3.2349099
3.2078277
3.1856406
3.1657212
3.151033
3.1444359
3.1484712
3.1679648
3.2244972
3.3155057
3.3301816
3.2592944
3.2398718
3.2078627
3.1853651
3.1634042
3.145665
3.132206
3.1257311
3.1281331
3.1409024
3.1708865
3.2297108
3.2908034
3.2797076
3.2215333
3.1973781
3.1653572
3.140492
3.1160914
3.0945787
3.0753878
3.0594416
3.0473048
3.0402001
3.0392372
3.0452413
3.0618163
3.0923137
3.1148149
3.097121
3.0642429
3.0502663
3.0370833
3.0329252
3.0354939
3.0464967
3.0669501
3.098211
3.1413627
3.1975283
3.2681805
3.3537186
3.4509438
3.5600492
3.6941599
3.8380417
3.9044988
3.9708178
1.827362
1.7461201
1.7623869
1.7130387
1.6628507
1.6322218
1.5806309
1.5484329
1.5428435
1.531548
1.5212936
1.5143701
1.5134473
1.5153962
1.5136745
1.5131726
1.5036959
1.4891569
1.4822687
1.47536
1.4627883
1.4540995
1.4524616
1.4442239
1.4369803
1.4391234
1.4300816
1.417719
1.4163574
1.404682
1.3944023
1.395845
1.3895432
1.3803077
1.3798526
1.3676825
1.3530341
1.3503018
1.3410513
1.3316183
1.3285692
1.3199901
1.3043195
1.2906515
1.2772577
1.2492367
1.2186391
1.1923056
1.1588297
1.1344601
1.116364
1.1000003
1.0816483
1.0841251
1.098873
1.1041058
1.1189909
1.1423966
1.1688224
1.1984298
1.2286568
1.2657124
1.2975683
1.357962
1.394105
1.5503697
1.4034075
2.0054094
2.1654372
4.2378691
3.5311009
3.4879806
3.7081177
4.6440028
3.8814995
1.1099348
1.0082395
1.2301529
1.0944866
0.68564489
0.92998988
1.2681918
1.588248
1.7549837
1.7670574
1.7849153
1.9124798
1.8517831
1.7763778
1.8814496
1.7141401
1.7306414
1.9480461
2.2225243
2.2899649
2.3072005
2.5101406
2.7038447
3.1926934
3.347665
2.962746
2.8614154
3.1039209
3.4427503
3.417354
3.3294167
3.5842668
3.82639
4.6761691
4.2941556
3.2014624
3.2826062
3.7078784
4.3404426
3.9496489
3.2426743
3.4160742
3.7374279
4.4899719
1.5053972
1.0754529
0.82252079
0.38278003
0.94660976
1.3211499
1.6300181
1.9563854
2.2686149
2.8329415
2.8147743
2.7469745
2.865949
3.1001542
3.33481
3.7105848
3.6977811
3.6441823
3.7128976
3.8882225
4.1119573
4.3972913
4.6759859
5.2693671
4.4620181
3.8481284
3.5490399
3.5577543
3.6851776
3.8756735
4.1022939
4.417902
4.386635
3.7339211
3.2560773
3.0402043
3.0001689
3.0543507
3.1722978
3.3149825
3.4654204
3.6247292
3.8227565
3.8089977
3.1368254
2.6579024
2.3865479
2.2579903
2.2067023
2.2046171
2.2299607
2.2645685
2.3137093
2.3752266
2.4471213
2.5268947
2.6175647
2.7160185
2.7381853
)
;
    }
    Outlet
    {
        type            calculated;
        value           uniform 0;
    }
}


// ************************************************************************* //
