/*--------------------------------*- C++ -*----------------------------------*\
| =========                 |                                                 |
| \\      /  F ield         | OpenFOAM: The Open Source CFD Toolbox           |
|  \\    /   O peration     | Version:  v2006                                 |
|   \\  /    A nd           | Website:  www.openfoam.com                      |
|    \\/     M anipulation  |                                                 |
\*---------------------------------------------------------------------------*/
FoamFile
{
    version     2.0;
    format      ascii;
    class       volScalarField;
    location    "10000";
    object      alphat;
}
// * * * * * * * * * * * * * * * * * * * * * * * * * * * * * * * * * * * * * //

dimensions      [1 -1 -1 0 0 0 0];


internalField   nonuniform List<scalar> 
55713
(
2.7469088e-10
2.8791419e-09
2.891751e-08
6.9339543e-08
8.9620285e-08
9.5669262e-08
9.5900196e-08
9.5048999e-08
9.4487845e-08
9.4283527e-08
9.4250939e-08
9.426217e-08
9.4271952e-08
9.427465e-08
9.4275885e-08
9.4278122e-08
9.4279818e-08
9.4279606e-08
9.4278015e-08
9.4276419e-08
9.4275592e-08
9.4275781e-08
9.4276276e-08
9.4276655e-08
9.4276817e-08
9.4276905e-08
9.4276905e-08
9.4276831e-08
9.427668e-08
9.4276496e-08
9.4276257e-08
9.427604e-08
9.427582e-08
9.4275711e-08
9.4275803e-08
9.4276368e-08
9.4276328e-08
9.4275738e-08
9.4274755e-08
9.4273648e-08
9.4272593e-08
9.4271697e-08
9.4270791e-08
9.4269874e-08
9.4268943e-08
9.426806e-08
9.4267156e-08
9.4266287e-08
9.426536e-08
9.4264398e-08
9.4263377e-08
9.4262355e-08
9.4261303e-08
9.4260251e-08
9.4259161e-08
9.4258066e-08
9.4256965e-08
9.4255829e-08
9.4254598e-08
3.3430853e-10
4.1771595e-09
3.5949075e-08
7.6187537e-08
9.3057861e-08
9.6973744e-08
9.6594138e-08
9.5764681e-08
9.5334623e-08
9.521068e-08
9.5204791e-08
9.5217624e-08
9.5223704e-08
9.5223627e-08
9.5224554e-08
9.5226902e-08
9.5228208e-08
9.5226985e-08
9.5224876e-08
9.5222943e-08
9.5221921e-08
9.5221863e-08
9.5222002e-08
9.5221963e-08
9.5221761e-08
9.5221484e-08
9.5221173e-08
9.5220726e-08
9.5220273e-08
9.5219731e-08
9.5219184e-08
9.5218606e-08
9.5218052e-08
9.5217547e-08
9.5217276e-08
9.5217575e-08
9.5217362e-08
9.5216432e-08
9.5215108e-08
9.5213608e-08
9.5212161e-08
9.5210884e-08
9.5209629e-08
9.5208319e-08
9.5206983e-08
9.5205662e-08
9.5204335e-08
9.5203018e-08
9.5201653e-08
9.5200205e-08
9.5198689e-08
9.5197118e-08
9.5195493e-08
9.5193813e-08
9.5192065e-08
9.5190239e-08
9.5188348e-08
9.5186324e-08
9.518415e-08
4.1925474e-10
5.8751443e-09
4.3443021e-08
8.2301254e-08
9.5732249e-08
9.8039091e-08
9.731505e-08
9.657247e-08
9.6263531e-08
9.6199317e-08
9.6207745e-08
9.6218963e-08
9.6220736e-08
9.6219201e-08
9.6220169e-08
9.6222531e-08
9.6222881e-08
9.6221029e-08
9.6218534e-08
9.6216299e-08
9.6215098e-08
9.6214801e-08
9.6214566e-08
9.6214141e-08
9.6213567e-08
9.6212964e-08
9.6212322e-08
9.6211538e-08
9.6210782e-08
9.6209922e-08
9.6209073e-08
9.6208174e-08
9.6207288e-08
9.6206432e-08
9.6205773e-08
9.620579e-08
9.6205497e-08
9.6204267e-08
9.6202604e-08
9.6200742e-08
9.6198906e-08
9.6197281e-08
9.6195704e-08
9.6194046e-08
9.6192323e-08
9.61906e-08
9.6188874e-08
9.6187155e-08
9.618538e-08
9.6183502e-08
9.6181533e-08
9.6179476e-08
9.6177324e-08
9.6175078e-08
9.617273e-08
9.6170249e-08
9.6167647e-08
9.6164828e-08
9.6161784e-08
5.4178974e-10
8.1956016e-09
5.1586853e-08
8.7809897e-08
9.7965343e-08
9.8987369e-08
9.8089652e-08
9.747776e-08
9.7277656e-08
9.7254891e-08
9.7268637e-08
9.727521e-08
9.7273805e-08
9.7271857e-08
9.7273166e-08
9.727507e-08
9.7274526e-08
9.7272125e-08
9.7269297e-08
9.726683e-08
9.7265521e-08
9.7264956e-08
9.7264391e-08
9.7263566e-08
9.7262693e-08
9.7261776e-08
9.7260852e-08
9.7259755e-08
9.7258708e-08
9.7257554e-08
9.7256402e-08
9.7255229e-08
9.7254032e-08
9.7252869e-08
9.7251846e-08
9.7251542e-08
9.7251263e-08
9.7249768e-08
9.724781e-08
9.7245596e-08
9.724341e-08
9.7241453e-08
9.7239601e-08
9.7237635e-08
9.7235565e-08
9.7233461e-08
9.7231373e-08
9.7229292e-08
9.7227147e-08
9.7224885e-08
9.722251e-08
9.7220014e-08
9.7217387e-08
9.7214622e-08
9.7211729e-08
9.720865e-08
9.7205402e-08
9.7201858e-08
9.7198019e-08
7.1941035e-10
1.1286618e-08
6.0084805e-08
9.2559386e-08
9.9793606e-08
9.9874868e-08
9.8951393e-08
9.8489435e-08
9.8376105e-08
9.8377743e-08
9.8389876e-08
9.8391568e-08
9.8388411e-08
9.8386646e-08
9.8388283e-08
9.8389561e-08
9.8388064e-08
9.8385173e-08
9.838208e-08
9.8379504e-08
9.8378099e-08
9.8377253e-08
9.8376354e-08
9.8375149e-08
9.8374027e-08
9.837283e-08
9.8371663e-08
9.8370284e-08
9.8368975e-08
9.8367555e-08
9.8366141e-08
9.8364714e-08
9.836325e-08
9.83618e-08
9.8360465e-08
9.8359809e-08
9.8359579e-08
9.8357914e-08
9.8355701e-08
9.8353159e-08
9.8350654e-08
9.8348402e-08
9.8346324e-08
9.8344111e-08
9.8341747e-08
9.8339302e-08
9.8336892e-08
9.833449e-08
9.8332034e-08
9.8329437e-08
9.8326729e-08
9.8323855e-08
9.8320831e-08
9.8317608e-08
9.8314252e-08
9.8310654e-08
9.8306856e-08
9.8302683e-08
9.8298157e-08
9.7927684e-10
1.5342823e-08
6.8661502e-08
9.6140676e-08
1.0131936e-07
1.0076447e-07
9.9924808e-08
9.9610133e-08
9.9558696e-08
9.9570801e-08
9.9577604e-08
9.9576024e-08
9.9571988e-08
9.9570759e-08
9.9572721e-08
9.9573121e-08
9.9570687e-08
9.9567339e-08
9.9564096e-08
9.9561548e-08
9.9560032e-08
9.955891e-08
9.9557666e-08
9.9556135e-08
9.9554793e-08
9.9553353e-08
9.9551992e-08
9.9550352e-08
9.9548858e-08
9.9547173e-08
9.954558e-08
9.9543908e-08
9.9542241e-08
9.9540537e-08
9.9538943e-08
9.9537935e-08
9.9537709e-08
9.9536046e-08
9.9533596e-08
9.9530764e-08
9.9527971e-08
9.9525475e-08
9.9523227e-08
9.952083e-08
9.9518234e-08
9.9515494e-08
9.9512816e-08
9.9510152e-08
9.9507453e-08
9.950459e-08
9.9501617e-08
9.9498443e-08
9.9495102e-08
9.9491507e-08
9.9487769e-08
9.9483756e-08
9.9479508e-08
9.9474829e-08
9.946973e-08
1.3639624e-09
2.0576884e-08
7.6917222e-08
9.9022357e-08
1.0256092e-07
1.0169634e-07
1.0102826e-07
1.0084027e-07
1.0082691e-07
1.0083889e-07
1.0084061e-07
1.0083707e-07
1.0083273e-07
1.0083233e-07
1.0083448e-07
1.0083378e-07
1.0083042e-07
1.0082669e-07
1.0082347e-07
1.0082107e-07
1.0081938e-07
1.0081799e-07
1.0081641e-07
1.0081467e-07
1.0081313e-07
1.0081152e-07
1.0080997e-07
1.0080814e-07
1.0080648e-07
1.0080459e-07
1.0080286e-07
1.00801e-07
1.0079916e-07
1.0079728e-07
1.0079547e-07
1.0079416e-07
1.0079383e-07
1.0079241e-07
1.0078975e-07
1.0078667e-07
1.0078362e-07
1.0078094e-07
1.0077858e-07
1.0077608e-07
1.0077332e-07
1.0077037e-07
1.0076749e-07
1.0076465e-07
1.0076178e-07
1.0075873e-07
1.0075557e-07
1.0075219e-07
1.0074864e-07
1.0074477e-07
1.0074076e-07
1.0073645e-07
1.0073188e-07
1.0072684e-07
1.0072132e-07
1.9462396e-09
2.7213807e-08
8.5017059e-08
1.0204444e-07
1.0365732e-07
1.0274091e-07
1.0227386e-07
1.0217828e-07
1.0218438e-07
1.021911e-07
1.02189e-07
1.0218443e-07
1.0218022e-07
1.0218091e-07
1.0218302e-07
1.0218099e-07
1.0217676e-07
1.0217284e-07
1.0216985e-07
1.0216761e-07
1.0216571e-07
1.0216403e-07
1.0216224e-07
1.0216037e-07
1.0215872e-07
1.0215699e-07
1.0215529e-07
1.0215332e-07
1.0215153e-07
1.021495e-07
1.0214769e-07
1.0214569e-07
1.0214376e-07
1.0214176e-07
1.0213981e-07
1.0213823e-07
1.0213779e-07
1.0213676e-07
1.0213398e-07
1.021307e-07
1.0212744e-07
1.0212465e-07
1.0212227e-07
1.0211975e-07
1.0211693e-07
1.0211382e-07
1.0211086e-07
1.0210791e-07
1.0210498e-07
1.0210185e-07
1.0209861e-07
1.0209513e-07
1.0209149e-07
1.0208748e-07
1.0208332e-07
1.0207886e-07
1.0207414e-07
1.0206892e-07
1.0206315e-07
2.8729187e-09
3.5465672e-08
9.2221021e-08
1.0433743e-07
1.0476673e-07
1.0396053e-07
1.0366408e-07
1.0362731e-07
1.0363722e-07
1.0363874e-07
1.0363456e-07
1.0362968e-07
1.0362589e-07
1.0362787e-07
1.0362954e-07
1.0362605e-07
1.0362111e-07
1.0361732e-07
1.0361477e-07
1.0361261e-07
1.0361039e-07
1.0360845e-07
1.036066e-07
1.0360475e-07
1.0360309e-07
1.0360126e-07
1.0359948e-07
1.0359742e-07
1.0359558e-07
1.0359348e-07
1.0359164e-07
1.0358958e-07
1.0358764e-07
1.0358558e-07
1.0358361e-07
1.0358185e-07
1.0358132e-07
1.0358064e-07
1.0357803e-07
1.0357459e-07
1.0357118e-07
1.0356834e-07
1.0356605e-07
1.0356362e-07
1.0356085e-07
1.0355769e-07
1.0355477e-07
1.0355183e-07
1.0354896e-07
1.0354586e-07
1.0354267e-07
1.0353921e-07
1.0353564e-07
1.0353167e-07
1.0352751e-07
1.0352309e-07
1.0351841e-07
1.0351322e-07
1.0350744e-07
4.4795434e-09
4.5484627e-08
9.8585815e-08
1.0633228e-07
1.0599303e-07
1.0535953e-07
1.0519644e-07
1.0519218e-07
1.0519866e-07
1.0519627e-07
1.0519102e-07
1.0518632e-07
1.0518322e-07
1.0518665e-07
1.0518732e-07
1.0518233e-07
1.0517712e-07
1.0517383e-07
1.0517177e-07
1.0516953e-07
1.0516692e-07
1.0516485e-07
1.0516316e-07
1.0516147e-07
1.0515985e-07
1.0515799e-07
1.0515619e-07
1.0515414e-07
1.0515233e-07
1.0515026e-07
1.0514848e-07
1.0514642e-07
1.0514458e-07
1.0514254e-07
1.0514065e-07
1.0513883e-07
1.0513824e-07
1.0513797e-07
1.0513583e-07
1.0513227e-07
1.0512878e-07
1.0512599e-07
1.0512392e-07
1.051217e-07
1.0511915e-07
1.0511602e-07
1.0511331e-07
1.051105e-07
1.0510784e-07
1.0510495e-07
1.0510196e-07
1.0509869e-07
1.0509538e-07
1.0509165e-07
1.050877e-07
1.0508353e-07
1.0507915e-07
1.0507426e-07
1.0506874e-07
7.19012e-09
5.7293593e-08
1.0383396e-07
1.0810243e-07
1.0738157e-07
1.0694823e-07
1.0687563e-07
1.0688337e-07
1.0688413e-07
1.0687973e-07
1.0687435e-07
1.0687017e-07
1.0686804e-07
1.0687295e-07
1.0687204e-07
1.068657e-07
1.0686085e-07
1.0685829e-07
1.0685659e-07
1.0685412e-07
1.068513e-07
1.0684939e-07
1.0684803e-07
1.0684655e-07
1.0684499e-07
1.0684319e-07
1.0684147e-07
1.0683955e-07
1.0683786e-07
1.0683595e-07
1.0683431e-07
1.068324e-07
1.0683075e-07
1.0682885e-07
1.0682716e-07
1.0682544e-07
1.0682484e-07
1.0682496e-07
1.0682372e-07
1.0682013e-07
1.0681662e-07
1.0681402e-07
1.0681231e-07
1.0681037e-07
1.0680832e-07
1.0680533e-07
1.06803e-07
1.0680051e-07
1.0679826e-07
1.0679574e-07
1.0679317e-07
1.0679031e-07
1.0678747e-07
1.0678426e-07
1.0678078e-07
1.0677711e-07
1.0677336e-07
1.0676906e-07
1.0676416e-07
1.1058806e-08
7.0823448e-08
1.0728811e-07
1.0970503e-07
1.0897457e-07
1.0873092e-07
1.087083e-07
1.0871548e-07
1.0871226e-07
1.0870758e-07
1.0870277e-07
1.0869943e-07
1.0869854e-07
1.0870461e-07
1.0870172e-07
1.0869473e-07
1.0869068e-07
1.0868877e-07
1.0868702e-07
1.0868464e-07
1.086824e-07
1.0868097e-07
1.0867982e-07
1.0867845e-07
1.0867699e-07
1.0867535e-07
1.0867384e-07
1.086722e-07
1.0867076e-07
1.0866915e-07
1.0866779e-07
1.0866617e-07
1.0866484e-07
1.0866324e-07
1.086619e-07
1.0866042e-07
1.0865995e-07
1.086605e-07
1.086605e-07
1.0865715e-07
1.0865365e-07
1.0865135e-07
1.0865016e-07
1.0864855e-07
1.0864742e-07
1.0864466e-07
1.0864294e-07
1.0864096e-07
1.0863942e-07
1.0863743e-07
1.0863556e-07
1.0863335e-07
1.0863126e-07
1.0862882e-07
1.0862621e-07
1.0862331e-07
1.0862057e-07
1.0861721e-07
1.0861336e-07
1.6831476e-08
8.6009696e-08
1.0959865e-07
1.1121079e-07
1.1079349e-07
1.107044e-07
1.1070171e-07
1.1070406e-07
1.1069992e-07
1.1069606e-07
1.1069207e-07
1.1069011e-07
1.1069034e-07
1.1069663e-07
1.1069188e-07
1.1068602e-07
1.1068362e-07
1.1068185e-07
1.1067927e-07
1.10678e-07
1.1067728e-07
1.1067631e-07
1.1067522e-07
1.1067396e-07
1.1067274e-07
1.1067149e-07
1.1067037e-07
1.1066919e-07
1.1066817e-07
1.1066703e-07
1.1066609e-07
1.1066498e-07
1.106641e-07
1.1066303e-07
1.1066217e-07
1.1066118e-07
1.1066097e-07
1.1066179e-07
1.1066334e-07
1.1066075e-07
1.1065739e-07
1.1065557e-07
1.1065494e-07
1.1065403e-07
1.1065396e-07
1.1065176e-07
1.1065095e-07
1.1064965e-07
1.1064887e-07
1.1064768e-07
1.1064673e-07
1.1064546e-07
1.106444e-07
1.1064305e-07
1.1064165e-07
1.1063985e-07
1.106385e-07
1.1063649e-07
1.1063414e-07
2.4887764e-08
1.025321e-07
1.1277054e-07
1.1294238e-07
1.1284877e-07
1.1284337e-07
1.1284391e-07
1.1284372e-07
1.1284032e-07
1.1283894e-07
1.1283459e-07
1.1283432e-07
1.1283584e-07
1.1284083e-07
1.1283653e-07
1.1283332e-07
1.1283292e-07
1.1283132e-07
1.1282713e-07
1.1282753e-07
1.1282871e-07
1.1282844e-07
1.1282781e-07
1.1282715e-07
1.1282656e-07
1.1282599e-07
1.1282549e-07
1.1282499e-07
1.1282456e-07
1.1282411e-07
1.1282377e-07
1.1282336e-07
1.128231e-07
1.1282274e-07
1.1282253e-07
1.1282222e-07
1.1282237e-07
1.1282299e-07
1.1282499e-07
1.1282383e-07
1.1282212e-07
1.1282132e-07
1.128209e-07
1.1282118e-07
1.128217e-07
1.12821e-07
1.1282155e-07
1.1282078e-07
1.1282072e-07
1.1282072e-07
1.1282077e-07
1.1282067e-07
1.1282078e-07
1.1282079e-07
1.1282078e-07
1.128205e-07
1.1282073e-07
1.1282036e-07
1.1282e-07
8.5588841e-08
8.5587682e-08
8.558696e-08
8.558816e-08
8.5588972e-08
8.558993e-08
8.5590881e-08
8.5591825e-08
8.5592788e-08
8.5593732e-08
8.5594685e-08
8.5595623e-08
8.5596567e-08
8.5597502e-08
8.5598442e-08
8.5599375e-08
8.5600316e-08
8.560125e-08
8.5602167e-08
8.5603038e-08
8.5603866e-08
8.5604637e-08
8.5605298e-08
8.5605755e-08
8.5605966e-08
8.5605968e-08
8.560588e-08
8.5605804e-08
8.560578e-08
8.5605769e-08
8.5605706e-08
8.5605518e-08
8.5605174e-08
8.5604696e-08
8.5604178e-08
8.5603774e-08
8.5603636e-08
8.5603786e-08
8.5604043e-08
8.5604014e-08
8.5602984e-08
8.5599593e-08
8.5592501e-08
8.5584875e-08
8.5594658e-08
8.5666106e-08
8.5865535e-08
8.6231372e-08
8.6647956e-08
8.6638373e-08
8.5126509e-08
8.0293707e-08
6.9470152e-08
5.076951e-08
2.7120552e-08
8.6749473e-09
1.5843841e-09
4.0761215e-10
5.303913e-10
8.58791e-08
8.5878132e-08
8.5878208e-08
8.5879242e-08
8.5880153e-08
8.5881091e-08
8.5882053e-08
8.5882998e-08
8.5883959e-08
8.5884899e-08
8.5885846e-08
8.5886779e-08
8.5887718e-08
8.5888645e-08
8.5889578e-08
8.5890504e-08
8.5891439e-08
8.5892367e-08
8.5893277e-08
8.5894142e-08
8.5894967e-08
8.5895738e-08
8.5896397e-08
8.5896847e-08
8.5897043e-08
8.5897029e-08
8.589693e-08
8.5896852e-08
8.5896827e-08
8.5896812e-08
8.5896741e-08
8.5896549e-08
8.5896203e-08
8.5895727e-08
8.5895214e-08
8.5894812e-08
8.5894678e-08
8.5894839e-08
8.5895093e-08
8.5894991e-08
8.5893776e-08
8.5890259e-08
8.5883572e-08
8.5877122e-08
8.5887608e-08
8.5955578e-08
8.6143056e-08
8.6491225e-08
8.6907008e-08
8.6965901e-08
8.5664494e-08
8.1214245e-08
7.1083698e-08
5.298184e-08
2.9157256e-08
9.6635587e-09
1.74043e-09
3.8329134e-10
4.7670964e-10
8.6198331e-08
8.6197549e-08
8.6197925e-08
8.6198907e-08
8.6199859e-08
8.6200801e-08
8.6201777e-08
8.6202729e-08
8.6203696e-08
8.6204639e-08
8.6205589e-08
8.6206521e-08
8.6207458e-08
8.6208382e-08
8.6209309e-08
8.6210228e-08
8.6211157e-08
8.621208e-08
8.6212986e-08
8.6213848e-08
8.6214674e-08
8.621545e-08
8.6216114e-08
8.6216563e-08
8.6216749e-08
8.621672e-08
8.6216611e-08
8.6216529e-08
8.6216504e-08
8.6216491e-08
8.6216431e-08
8.6216254e-08
8.6215927e-08
8.6215461e-08
8.6214938e-08
8.6214505e-08
8.6214331e-08
8.6214474e-08
8.6214766e-08
8.6214809e-08
8.6213969e-08
8.6211149e-08
8.6205027e-08
8.6196995e-08
8.6199415e-08
8.6247595e-08
8.6403488e-08
8.6725184e-08
8.7167289e-08
8.7389041e-08
8.6491684e-08
8.2772502e-08
7.3667803e-08
5.6424824e-08
3.2302766e-08
1.1191872e-08
1.9887842e-09
3.7133201e-10
4.2448446e-10
8.655012e-08
8.6549584e-08
8.6550248e-08
8.655119e-08
8.6552173e-08
8.6553119e-08
8.6554104e-08
8.6555059e-08
8.6556027e-08
8.6556968e-08
8.6557917e-08
8.6558845e-08
8.6559777e-08
8.6560694e-08
8.6561612e-08
8.6562522e-08
8.6563442e-08
8.6564359e-08
8.6565258e-08
8.6566115e-08
8.6566941e-08
8.6567721e-08
8.6568387e-08
8.6568828e-08
8.6568998e-08
8.6568947e-08
8.6568827e-08
8.6568742e-08
8.6568719e-08
8.6568707e-08
8.6568652e-08
8.6568486e-08
8.6568175e-08
8.6567719e-08
8.6567194e-08
8.6566738e-08
8.6566533e-08
8.6566661e-08
8.6566975e-08
8.656709e-08
8.6566442e-08
8.6564099e-08
8.6558738e-08
8.6550663e-08
8.6548832e-08
8.6582852e-08
8.6710786e-08
8.6999444e-08
8.7440923e-08
8.7772524e-08
8.7204101e-08
8.4132758e-08
7.602472e-08
5.9765807e-08
3.5604307e-08
1.292573e-08
2.3138066e-09
3.686913e-10
3.8056452e-10
8.6938431e-08
8.6938194e-08
8.6939035e-08
8.6939962e-08
8.694096e-08
8.6941913e-08
8.6942902e-08
8.6943859e-08
8.6944824e-08
8.6945761e-08
8.6946704e-08
8.6947627e-08
8.6948551e-08
8.6949457e-08
8.6950364e-08
8.6951262e-08
8.6952174e-08
8.6953081e-08
8.6953972e-08
8.6954822e-08
8.6955648e-08
8.695643e-08
8.6957096e-08
8.6957526e-08
8.6957675e-08
8.69576e-08
8.6957468e-08
8.6957381e-08
8.6957361e-08
8.6957351e-08
8.6957303e-08
8.6957149e-08
8.6956856e-08
8.6956413e-08
8.6955888e-08
8.695541e-08
8.6955169e-08
8.6955277e-08
8.6955618e-08
8.695582e-08
8.6955375e-08
8.6953507e-08
8.6948931e-08
8.6941025e-08
8.6935512e-08
8.6956088e-08
8.7055597e-08
8.7306658e-08
8.7735508e-08
8.8158203e-08
8.7904334e-08
8.5489873e-08
7.8432511e-08
6.3316903e-08
3.9334894e-08
1.5015533e-08
2.7423752e-09
3.7633635e-10
3.4038978e-10
8.7367994e-08
8.7368034e-08
8.7369004e-08
8.7369933e-08
8.7370936e-08
8.7371894e-08
8.7372884e-08
8.7373836e-08
8.7374793e-08
8.7375722e-08
8.7376656e-08
8.7377568e-08
8.7378481e-08
8.7379372e-08
8.7380265e-08
8.7381148e-08
8.7382047e-08
8.7382942e-08
8.7383822e-08
8.7384662e-08
8.7385488e-08
8.7386271e-08
8.7386934e-08
8.7387348e-08
8.7387471e-08
8.7387367e-08
8.7387223e-08
8.7387136e-08
8.738712e-08
8.7387113e-08
8.7387071e-08
8.7386929e-08
8.7386655e-08
8.7386229e-08
8.7385709e-08
8.7385211e-08
8.7384933e-08
8.7385015e-08
8.7385382e-08
8.7385665e-08
8.7385389e-08
8.7383928e-08
8.7380169e-08
8.737294e-08
8.7365216e-08
8.7374748e-08
8.7447416e-08
8.7657099e-08
8.8057538e-08
8.8539563e-08
8.8560374e-08
8.6776869e-08
8.078325e-08
6.6976657e-08
4.3444072e-08
1.751228e-08
3.2980073e-09
3.9704865e-10
3.0636855e-10
8.7844313e-08
8.7844618e-08
8.7845643e-08
8.7846582e-08
8.7847585e-08
8.7848545e-08
8.7849528e-08
8.785047e-08
8.7851416e-08
8.785233e-08
8.7853251e-08
8.7854148e-08
8.7855045e-08
8.7855918e-08
8.7856791e-08
8.7857655e-08
8.785854e-08
8.7859419e-08
8.7860284e-08
8.7861111e-08
8.7861935e-08
8.7862718e-08
8.7863374e-08
8.7863765e-08
8.7863855e-08
8.7863718e-08
8.7863562e-08
8.7863477e-08
8.7863466e-08
8.7863462e-08
8.7863427e-08
8.7863297e-08
8.7863043e-08
8.7862638e-08
8.7862127e-08
8.7861613e-08
8.7861295e-08
8.7861345e-08
8.7861735e-08
8.7862105e-08
8.7861985e-08
8.7860869e-08
8.7857875e-08
8.7851614e-08
8.7842866e-08
8.7843744e-08
8.7891992e-08
8.8058596e-08
8.8417538e-08
8.8927775e-08
8.9178528e-08
8.7993251e-08
8.3009822e-08
7.0724223e-08
4.7952443e-08
2.0513184e-08
4.0274902e-09
4.3667026e-10
2.7719853e-10
8.8373912e-08
8.8374437e-08
8.8375464e-08
8.837641e-08
8.8377404e-08
8.8378359e-08
8.8379328e-08
8.8380252e-08
8.8381178e-08
8.8382075e-08
8.8382978e-08
8.8383855e-08
8.8384731e-08
8.838558e-08
8.8386429e-08
8.838727e-08
8.8388136e-08
8.8388994e-08
8.8389841e-08
8.8390653e-08
8.8391474e-08
8.8392253e-08
8.8392897e-08
8.8393259e-08
8.8393308e-08
8.8393131e-08
8.8392965e-08
8.8392883e-08
8.8392879e-08
8.8392877e-08
8.8392849e-08
8.839273e-08
8.8392499e-08
8.8392118e-08
8.8391624e-08
8.8391099e-08
8.8390739e-08
8.8390746e-08
8.8391155e-08
8.8391621e-08
8.8391652e-08
8.8390816e-08
8.8388498e-08
8.8383379e-08
8.837472e-08
8.8369573e-08
8.8396858e-08
8.8520734e-08
8.8827287e-08
8.9333875e-08
8.9758454e-08
8.9116119e-08
8.5223385e-08
7.4496072e-08
5.2839556e-08
2.4102607e-08
4.9874019e-09
4.9270098e-10
2.5248739e-10
8.8964592e-08
8.8965225e-08
8.8966241e-08
8.8967184e-08
8.8968163e-08
8.8969102e-08
8.8970047e-08
8.8970946e-08
8.8971847e-08
8.8972719e-08
8.8973597e-08
8.8974446e-08
8.8975293e-08
8.8976109e-08
8.8976926e-08
8.8977737e-08
8.8978577e-08
8.8979409e-08
8.8980229e-08
8.8981023e-08
8.8981837e-08
8.898261e-08
8.8983233e-08
8.8983557e-08
8.8983555e-08
8.8983332e-08
8.8983155e-08
8.898308e-08
8.8983082e-08
8.8983083e-08
8.8983062e-08
8.8982956e-08
8.8982749e-08
8.8982398e-08
8.8981927e-08
8.89814e-08
8.8980999e-08
8.8980949e-08
8.8981365e-08
8.8981941e-08
8.8982134e-08
8.8981531e-08
8.8979765e-08
8.8975788e-08
8.8968095e-08
8.8959515e-08
8.8970133e-08
8.905401e-08
8.9300804e-08
8.97744e-08
9.0315722e-08
9.0143124e-08
8.7289523e-08
7.8240503e-08
5.8068654e-08
2.8373001e-08
6.2548906e-09
5.7803689e-10
2.3220855e-10
8.9625613e-08
8.9626312e-08
8.9627311e-08
8.9628241e-08
8.9629194e-08
8.9630109e-08
8.9631022e-08
8.9631887e-08
8.9632755e-08
8.9633593e-08
8.9634437e-08
8.9635247e-08
8.9636053e-08
8.9636824e-08
8.96376e-08
8.9638369e-08
8.9639175e-08
8.9639971e-08
8.9640759e-08
8.9641527e-08
8.9642332e-08
8.964309e-08
8.9643684e-08
8.9643959e-08
8.9643895e-08
8.9643611e-08
8.964343e-08
8.9643362e-08
8.9643371e-08
8.9643374e-08
8.9643361e-08
8.9643268e-08
8.9643088e-08
8.9642771e-08
8.9642335e-08
8.9641815e-08
8.9641379e-08
8.9641259e-08
8.9641652e-08
8.9642363e-08
8.9642743e-08
8.9642346e-08
8.9640984e-08
8.9638038e-08
8.9631867e-08
8.9622203e-08
8.9620996e-08
8.9669965e-08
8.9854031e-08
9.0268758e-08
9.086578e-08
9.1079048e-08
8.9201725e-08
8.1851883e-08
6.357448e-08
3.3412685e-08
7.9413115e-09
6.9945507e-10
2.1661413e-10
9.0368335e-08
9.0369061e-08
9.0370026e-08
9.0370935e-08
9.0371851e-08
9.0372729e-08
9.0373594e-08
9.0374413e-08
9.0375232e-08
9.0376024e-08
9.0376814e-08
9.037757e-08
9.0378316e-08
9.0379028e-08
9.0379744e-08
9.0380461e-08
9.0381216e-08
9.0381965e-08
9.0382707e-08
9.0383445e-08
9.0384233e-08
9.038497e-08
9.0385516e-08
9.0385734e-08
9.038559e-08
9.0385225e-08
9.0385045e-08
9.0384991e-08
9.0385002e-08
9.038501e-08
9.0385001e-08
9.0384925e-08
9.0384772e-08
9.03845e-08
9.0384106e-08
9.038361e-08
9.0383146e-08
9.0382944e-08
9.0383247e-08
9.0384153e-08
9.0384745e-08
9.038457e-08
9.0383488e-08
9.0381321e-08
9.0376868e-08
9.0368005e-08
9.0359904e-08
9.0381075e-08
9.0504586e-08
9.084144e-08
9.1433481e-08
9.1929803e-08
9.0934472e-08
8.5117436e-08
6.926287e-08
3.9289677e-08
1.0199461e-08
8.6883799e-10
2.0676611e-10
9.1206459e-08
9.1207204e-08
9.1208126e-08
9.1208998e-08
9.1209861e-08
9.1210685e-08
9.1211482e-08
9.121224e-08
9.1212989e-08
9.1213716e-08
9.1214432e-08
9.1215111e-08
9.1215773e-08
9.1216408e-08
9.1217046e-08
9.1217695e-08
9.121838e-08
9.1219067e-08
9.1219747e-08
9.122045e-08
9.1221211e-08
9.1221915e-08
9.1222394e-08
9.1222546e-08
9.1222287e-08
9.122183e-08
9.1221646e-08
9.122162e-08
9.1221629e-08
9.1221644e-08
9.1221638e-08
9.1221581e-08
9.1221456e-08
9.1221238e-08
9.1220902e-08
9.122045e-08
9.1219968e-08
9.1219675e-08
9.1219852e-08
9.1220891e-08
9.1221812e-08
9.1221899e-08
9.1221038e-08
9.1219358e-08
9.12164e-08
9.120957e-08
9.1199078e-08
9.1200872e-08
9.1271033e-08
9.1520078e-08
9.2053578e-08
9.2712777e-08
9.2456416e-08
8.8356059e-08
7.4993754e-08
4.6031118e-08
1.3238013e-08
1.1045751e-09
2.0583608e-10
9.2156093e-08
9.2156865e-08
9.2157751e-08
9.2158573e-08
9.2159366e-08
9.2160117e-08
9.2160831e-08
9.2161512e-08
9.2162177e-08
9.2162821e-08
9.2163442e-08
9.2164026e-08
9.2164583e-08
9.2165126e-08
9.2165672e-08
9.2166239e-08
9.2166832e-08
9.2167439e-08
9.2168045e-08
9.2168707e-08
9.2169434e-08
9.2170091e-08
9.2170486e-08
9.217058e-08
9.2170069e-08
9.216961e-08
9.2169414e-08
9.2169403e-08
9.2169413e-08
9.2169435e-08
9.2169436e-08
9.2169401e-08
9.2169307e-08
9.2169145e-08
9.216889e-08
9.2168506e-08
9.2168021e-08
9.2167614e-08
9.2167666e-08
9.2168733e-08
9.2170015e-08
9.2170521e-08
9.2169894e-08
9.2168446e-08
9.2166415e-08
9.2162065e-08
9.2152714e-08
9.2143852e-08
9.2172139e-08
9.233344e-08
9.2768962e-08
9.3483808e-08
9.3789789e-08
9.1237746e-08
8.0636686e-08
5.3597507e-08
1.7325882e-08
1.4637535e-09
2.1509888e-10
9.3233673e-08
9.3234592e-08
9.3235454e-08
9.3236227e-08
9.3236956e-08
9.3237647e-08
9.3238285e-08
9.3238897e-08
9.323948e-08
9.3240049e-08
9.3240576e-08
9.3241065e-08
9.3241513e-08
9.324197e-08
9.3242425e-08
9.3242917e-08
9.3243432e-08
9.3243952e-08
9.3244483e-08
9.3245123e-08
9.3245825e-08
9.3246437e-08
9.3246759e-08
9.3246668e-08
9.3245954e-08
9.3245517e-08
9.3245337e-08
9.3245326e-08
9.3245333e-08
9.3245374e-08
9.3245392e-08
9.3245387e-08
9.3245328e-08
9.3245217e-08
9.3245043e-08
9.3244746e-08
9.3244277e-08
9.3243782e-08
9.3243717e-08
9.3244703e-08
9.3246208e-08
9.3247422e-08
9.32471e-08
9.3245652e-08
9.3243842e-08
9.324161e-08
9.3235545e-08
9.3223759e-08
9.322436e-08
9.3307982e-08
9.3620787e-08
9.429037e-08
9.4979119e-08
9.3785931e-08
8.5940844e-08
6.1871986e-08
2.2769562e-08
2.042703e-09
2.3435808e-10
5.8042267e-10
6.0662774e-10
6.2189645e-10
6.3211835e-10
6.4026919e-10
6.4724242e-10
6.5298506e-10
6.5719384e-10
6.5960237e-10
6.6000835e-10
6.5823193e-10
6.5408017e-10
6.4732691e-10
6.3770474e-10
6.2489877e-10
6.0856037e-10
5.8831842e-10
5.6380693e-10
5.347075e-10
5.0076081e-10
4.6198725e-10
4.1878531e-10
3.7176813e-10
3.2174384e-10
2.6940864e-10
2.1611939e-10
1.6431336e-10
1.1424383e-10
7.0641769e-11
3.550153e-11
1.0728634e-11
6.2648384e-13
4.4891373e-12
1.9937738e-11
5.0483547e-11
9.9900163e-11
1.6359325e-10
2.2674703e-10
2.9338712e-10
3.6529812e-10
4.4160659e-10
5.2019187e-10
6.0201472e-10
6.8115801e-10
7.5788446e-10
8.3165888e-10
9.0117614e-10
9.6508802e-10
1.0234349e-09
1.0767554e-09
1.1255361e-09
1.1702253e-09
1.2108103e-09
1.2472712e-09
1.2802033e-09
1.3102994e-09
1.3378105e-09
1.362886e-09
1.3859349e-09
1.407171e-09
1.4265483e-09
1.4441197e-09
1.4600377e-09
1.4744601e-09
1.4875334e-09
1.4993916e-09
1.5101591e-09
1.5199434e-09
1.5288429e-09
1.5369343e-09
1.5442757e-09
1.5509064e-09
1.5569389e-09
1.5623785e-09
4.4097223e-10
4.6394169e-10
4.8483881e-10
5.046636e-10
5.220858e-10
5.3675486e-10
5.486967e-10
5.5800979e-10
5.6478381e-10
5.6909763e-10
5.7102455e-10
5.7059508e-10
5.6778806e-10
5.6250317e-10
5.5457049e-10
5.4374763e-10
5.297484e-10
5.1225179e-10
4.9095356e-10
4.6554518e-10
4.3591926e-10
4.0116091e-10
3.6113857e-10
3.1735721e-10
2.7110614e-10
2.2362862e-10
1.7702966e-10
1.329687e-10
9.2951893e-11
5.951379e-11
3.4354394e-11
1.5268017e-11
7.0229925e-12
1.1893478e-11
2.6732798e-11
5.3672284e-11
9.2806974e-11
1.3749401e-10
1.8602343e-10
2.3835881e-10
2.9419072e-10
3.5266774e-10
4.1412337e-10
4.7607804e-10
5.3708431e-10
5.971212e-10
6.5533195e-10
7.107245e-10
7.6273227e-10
8.1120007e-10
8.5619405e-10
8.9790137e-10
9.3638283e-10
9.7157021e-10
1.0036688e-09
1.0330074e-09
1.0598617e-09
1.084443e-09
1.1069522e-09
1.1276272e-09
1.1466194e-09
1.1640453e-09
1.1800173e-09
1.1946463e-09
1.2080385e-09
1.220296e-09
1.2315135e-09
1.2417818e-09
1.2511816e-09
1.259793e-09
1.2676839e-09
1.2749065e-09
1.281524e-09
1.2875622e-09
1.3327432e-09
1.1084334e-09
9.2916205e-10
7.8563624e-10
6.7759819e-10
6.0003162e-10
5.4653638e-10
5.1272091e-10
4.9466273e-10
4.8767687e-10
4.8776121e-10
4.9135774e-10
4.9596595e-10
4.9981305e-10
5.0169786e-10
5.0085084e-10
4.9680211e-10
4.8926604e-10
4.780642e-10
4.6304455e-10
4.4415637e-10
4.2113384e-10
3.9370888e-10
3.6213343e-10
3.2703907e-10
2.8921947e-10
2.4994354e-10
2.1019276e-10
1.7110544e-10
1.3390149e-10
1.0130037e-10
7.3912696e-11
5.2497116e-11
3.6440214e-11
3.4217409e-11
3.8782417e-11
5.1102193e-11
6.9364945e-11
9.3048446e-11
1.2128362e-10
1.5330104e-10
1.8835465e-10
2.260114e-10
2.6547794e-10
3.0590829e-10
3.4679395e-10
3.8760307e-10
4.2780591e-10
4.6694007e-10
5.0465498e-10
5.4071359e-10
5.749912e-10
6.0726773e-10
6.3733805e-10
6.652731e-10
6.9115266e-10
7.1513062e-10
7.3725911e-10
7.5782968e-10
7.7696451e-10
7.9474831e-10
8.1126068e-10
8.2657857e-10
8.4077668e-10
8.5392766e-10
8.6610137e-10
8.7736485e-10
8.8778121e-10
8.974123e-10
9.0631408e-10
9.1455101e-10
9.221712e-10
9.2922145e-10
9.3572944e-10
6.5308985e-09
4.6391304e-09
3.3314434e-09
2.4632393e-09
1.8995157e-09
1.5228315e-09
1.2589762e-09
1.0567074e-09
9.0157032e-10
7.6757054e-10
6.6958431e-10
5.9645501e-10
5.4428865e-10
5.0935666e-10
4.8758647e-10
4.7526551e-10
4.6879943e-10
4.6538757e-10
4.6282179e-10
4.5938989e-10
4.5329985e-10
4.4311984e-10
4.2884106e-10
4.1065515e-10
3.8883554e-10
3.6376126e-10
3.3594316e-10
3.064276e-10
2.7614105e-10
2.4534708e-10
2.1484614e-10
1.8572251e-10
1.589434e-10
1.3338225e-10
1.1319478e-10
9.9044989e-11
8.9176333e-11
8.7062493e-11
8.8441687e-11
9.3277282e-11
1.0091639e-10
1.1130657e-10
1.2422666e-10
1.3928227e-10
1.5605909e-10
1.7417174e-10
1.932552e-10
2.1297423e-10
2.3302473e-10
2.5313803e-10
2.7308599e-10
2.9268119e-10
3.1176157e-10
3.3018893e-10
3.4786533e-10
3.6472418e-10
3.8072853e-10
3.9585946e-10
4.101286e-10
4.2355371e-10
4.361598e-10
4.4797681e-10
4.5903722e-10
4.6937511e-10
4.7902555e-10
4.8802391e-10
4.9640554e-10
5.042053e-10
5.1145723e-10
5.1819504e-10
5.2444427e-10
5.3023239e-10
5.3559583e-10
5.4055072e-10
2.1894196e-08
1.6414233e-08
1.2036925e-08
8.7208808e-09
6.3071225e-09
4.5962135e-09
3.4196243e-09
2.6180131e-09
2.0484126e-09
1.6530706e-09
1.3702473e-09
1.1602578e-09
9.9600509e-10
8.6480025e-10
7.5151569e-10
6.6533469e-10
5.9825025e-10
5.4777222e-10
5.1104378e-10
4.8538031e-10
4.702226e-10
4.6137743e-10
4.5554937e-10
4.4937564e-10
4.4068902e-10
4.2919466e-10
4.1498174e-10
3.9839662e-10
3.7992926e-10
3.5997181e-10
3.3873759e-10
3.1688274e-10
2.9399197e-10
2.7228193e-10
2.5072778e-10
2.3057225e-10
2.1220228e-10
1.9707141e-10
1.8503414e-10
1.7630034e-10
1.6882899e-10
1.6487546e-10
1.6254282e-10
1.6164049e-10
1.6201729e-10
1.6352299e-10
1.6601436e-10
1.6934296e-10
1.7336219e-10
1.7793319e-10
1.8292869e-10
1.8823309e-10
1.9374369e-10
1.9937037e-10
2.0503615e-10
2.1067556e-10
2.1623432e-10
2.2166948e-10
2.2694803e-10
2.3204407e-10
2.3693876e-10
2.4161963e-10
2.4607901e-10
2.5031315e-10
2.5432143e-10
2.5810596e-10
2.6167067e-10
2.6502109e-10
2.6816416e-10
2.7110735e-10
2.7385939e-10
2.7642833e-10
2.7882561e-10
2.8104825e-10
4.3985804e-08
3.5882021e-08
2.8414592e-08
2.1968698e-08
1.6662592e-08
1.2464084e-08
9.2584079e-09
6.8910034e-09
5.1532526e-09
3.9041745e-09
3.0115069e-09
2.3768029e-09
1.9248474e-09
1.5876345e-09
1.3386589e-09
1.150439e-09
1.0046903e-09
8.8527156e-10
7.867669e-10
7.0063138e-10
6.3342127e-10
5.7960141e-10
5.3974066e-10
5.1257076e-10
4.9436297e-10
4.8196739e-10
4.7318804e-10
4.6490566e-10
4.5573323e-10
4.454661e-10
4.3413405e-10
4.2188164e-10
4.0902175e-10
3.9555186e-10
3.8173471e-10
3.6776778e-10
3.5397895e-10
3.3954489e-10
3.2626809e-10
3.1466829e-10
3.045125e-10
2.956647e-10
2.8804349e-10
2.8202127e-10
2.7656591e-10
2.7179591e-10
2.6774045e-10
2.6434476e-10
2.6153677e-10
2.5924185e-10
2.574123e-10
2.5597105e-10
2.5485657e-10
2.5401555e-10
2.5340233e-10
2.5297795e-10
2.5271005e-10
2.5257087e-10
2.5253657e-10
2.5258719e-10
2.5270549e-10
2.5287656e-10
2.5308769e-10
2.5332804e-10
2.5358856e-10
2.5386171e-10
2.5414129e-10
2.5442221e-10
2.5470046e-10
2.5497267e-10
2.5523604e-10
2.5548874e-10
2.5572924e-10