/*--------------------------------*- C++ -*----------------------------------*\
| =========                 |                                                 |
| \\      /  F ield         | OpenFOAM: The Open Source CFD Toolbox           |
|  \\    /   O peration     | Version:  v2006                                 |
|   \\  /    A nd           | Website:  www.openfoam.com                      |
|    \\/     M anipulation  |                                                 |
\*---------------------------------------------------------------------------*/
FoamFile
{
    version     2.0;
    format      ascii;
    class       volScalarField;
    location    "10000";
    object      Cp;
}
// * * * * * * * * * * * * * * * * * * * * * * * * * * * * * * * * * * * * * //

dimensions      [0 0 0 0 0 0 0];


internalField   nonuniform List<scalar> 
55713
(
0.0055700764
0.0055706535
0.0055705745
0.0055709446
0.0055708786
0.0055711051
0.0055711341
0.0055712328
0.0055712212
0.0055711594
0.0055710156
0.0055709079
0.0055708573
0.0055708182
0.0055707776
0.0055707606
0.0055707675
0.0055707819
0.0055707924
0.0055708067
0.0055708151
0.0055708164
0.0055708069
0.0055707808
0.0055707347
0.0055706709
0.0055705962
0.005570521
0.0055704573
0.0055704151
0.0055703872
0.0055703522
0.0055703093
0.0055702652
0.0055702204
0.0055701703
0.0055701116
0.0055700403
0.0055699511
0.0055698425
0.0055697173
0.00556958
0.0055694365
0.0055692909
0.005569149
0.0055690109
0.0055688751
0.0055687319
0.0055685759
0.0055683988
0.0055682058
0.0055680039
0.0055677978
0.0055675807
0.0055673603
0.0055671266
0.0055668799
0.0055666419
0.005566264
0.0052070087
0.005208093
0.005208078
0.005208799
0.0052089682
0.005209522
0.0052098715
0.0052103771
0.0052107901
0.0052111714
0.0052114649
0.0052116819
0.0052118096
0.0052118465
0.0052117993
0.0052117024
0.0052116846
0.0052117251
0.0052117626
0.0052118508
0.005211959
0.0052121247
0.0052123173
0.0052125405
0.0052127539
0.0052129098
0.0052129806
0.0052129384
0.0052128422
0.0052128156
0.0052128164
0.0052128175
0.005212841
0.005212897
0.0052129802
0.0052130952
0.0052132235
0.0052133671
0.0052135089
0.0052136387
0.0052137496
0.0052138383
0.005213922
0.0052140186
0.0052141354
0.0052142491
0.005214369
0.0052144505
0.00521448
0.0052144723
0.0052144296
0.0052143684
0.005214317
0.0052142832
0.0052142569
0.0052142478
0.00521425
0.0052142549
0.0052142408
0.0048940551
0.0048953453
0.0048955048
0.0048963711
0.0048966576
0.0048973241
0.0048976611
0.0048981492
0.0048985447
0.0048990452
0.0048995709
0.0049001062
0.0049005807
0.0049009797
0.0049012905
0.004901522
0.0049016657
0.0049017275
0.0049017286
0.0049017009
0.004901673
0.004901712
0.004901798
0.0049019685
0.0049022131
0.0049025302
0.0049028385
0.0049030713
0.0049032232
0.0049032906
0.0049032927
0.0049032313
0.004903173
0.0049031947
0.004903251
0.0049033188
0.0049034586
0.0049036223
0.0049038508
0.0049041125
0.0049043867
0.0049046765
0.0049049709
0.0049052562
0.0049055143
0.0049057356
0.0049058972
0.0049060003
0.0049061723
0.0049062789
0.0049065096
0.0049066077
0.0049068627
0.0049069098
0.0049072131
0.0049071953
0.0049075669
0.0049075524
0.0049079833
0.0046224448
0.0046238338
0.0046240844
0.0046249932
0.0046253255
0.0046258995
0.0046261756
0.0046264954
0.0046267002
0.0046269223
0.0046271443
0.0046274309
0.0046277805
0.0046282209
0.0046287228
0.0046292127
0.0046296416
0.0046299919
0.0046302727
0.0046304915
0.0046306339
0.0046307245
0.004630767
0.0046308007
0.0046308724
0.004631022
0.0046312847
0.0046316511
0.0046320208
0.0046323386
0.0046325891
0.0046327765
0.0046328999
0.0046329596
0.0046329751
0.0046329693
0.0046329673
0.004632991
0.004633063
0.0046331761
0.0046333475
0.0046335526
0.0046337691
0.0046339329
0.0046340449
0.0046340872
0.0046341903
0.0046342756
0.0046345359
0.0046347072
0.0046350841
0.004635272
0.0046357081
0.0046358691
0.0046363482
0.0046364427
0.0046369962
0.0046370406
0.0046377286
0.0043871902
0.0043885501
0.0043888197
0.0043896756
0.0043900573
0.0043906133
0.0043909711
0.0043913737
0.0043916886
0.0043919624
0.0043921589
0.0043923203
0.0043924508
0.0043926013
0.0043927899
0.0043930526
0.004393388
0.0043937968
0.0043942357
0.0043946349
0.0043949773
0.004395255
0.0043954757
0.0043956234
0.0043957134
0.0043957767
0.0043958563
0.0043959927
0.0043962177
0.0043965239
0.0043968881
0.0043972436
0.004397558
0.0043978154
0.0043980213
0.004398179
0.0043982888
0.0043983667
0.0043984309
0.0043984973
0.0043985995
0.0043987058
0.0043988354
0.004398918
0.0043990434
0.0043991449
0.0043993666
0.0043995323
0.0043998353
0.0043999993
0.00440033
0.0044004658
0.0044008458
0.004400971
0.0044014358
0.0044015441
0.0044021289
0.0044021953
0.0044029544
0.0041860701
0.0041873146
0.004187616
0.0041883812
0.0041887556
0.0041893235
0.0041897358
0.0041902306
0.0041906758
0.0041911011
0.0041914717
0.0041917866
0.0041920262
0.0041922076
0.0041923386
0.0041924525
0.0041925669
0.0041927122
0.0041929087
0.0041931609
0.0041934711
0.0041938146
0.0041941434
0.0041944234
0.004194645
0.0041948029
0.0041949027
0.0041949643
0.004195019
0.0041951132
0.0041952627
0.004195482
0.0041957664
0.0041960816
0.0041963938
0.0041966689
0.0041969096
0.0041971201
0.0041973071
0.0041974622
0.0041976251
0.0041977582
0.0041979268
0.0041980757
0.0041983097
0.0041985063
0.0041987985
0.0041989749
0.0041992677
0.0041993981
0.0041997037
0.0041998137
0.0042001649
0.004200276
0.0042007125
0.0042008179
0.0042013763
0.0042014416
0.004202187
0.0040044315
0.0040055219
0.0040058684
0.0040065487
0.0040069839
0.004007504
0.0040079195
0.0040083694
0.0040087745
0.0040092081
0.0040096465
0.0040100724
0.0040104596
0.0040107939
0.0040110823
0.0040113224
0.0040115107
0.004011651
0.0040117701
0.004011883
0.0040120203
0.0040122025
0.0040124355
0.0040127179
0.0040130168
0.0040132833
0.0040135018
0.0040136726
0.0040137896
0.0040138698
0.0040139428
0.0040140254
0.0040141415
0.0040143061
0.004014517
0.0040147564
0.0040150043
0.0040152317
0.0040154591
0.0040156471
0.0040158615
0.0040160254
0.004016256
0.0040164346
0.0040166975
0.0040168869
0.0040171552
0.0040173264
0.0040176099
0.004017776
0.0040180969
0.0040182656
0.0040186408
0.0040188181
0.0040192552
0.0040194114
0.0040199381
0.0040200311
0.0040207306
0.0038440525
0.0038447944
0.0038450578
0.0038455199
0.0038457651
0.0038461324
0.0038463674
0.0038466403
0.003846841
0.0038470431
0.0038472404
0.0038474499
0.0038476963
0.0038479562
0.0038482304
0.0038484812
0.0038486965
0.0038488741
0.0038490097
0.0038491117
0.0038491867
0.0038492542
0.0038493284
0.0038494255
0.0038495617
0.0038497406
0.0038499491
0.0038501387
0.0038502906
0.0038504095
0.0038504873
0.0038505353
0.0038505702
0.0038506091
0.0038506782
0.0038507605
0.0038508819
0.0038509879
0.0038511197
0.0038512222
0.0038513531
0.0038514534
0.0038515936
0.0038516853
0.0038518342
0.003851904
0.0038520666
0.003852122
0.0038523094
0.0038523565
0.0038525709
0.0038526081
0.0038528608
0.0038528821
0.0038531585
0.0038531556
0.0038534569
0.0038534395
0.0038537879
0.0037628731
0.0037633323
0.0037634485
0.0037637483
0.0037640297
0.0037641695
0.0037643852
0.0037645049
0.0037646577
0.003764755
0.0037648503
0.0037649173
0.0037649885
0.0037650612
0.0037651471
0.0037652432
0.0037653615
0.0037654792
0.0037655995
0.0037657112
0.0037658098
0.0037658803
0.0037659308
0.0037659564
0.0037659705
0.0037659963
0.0037660569
0.0037661493
0.0037662572
0.003766364
0.0037664555
0.0037665149
0.0037665469
0.0037665567
0.0037665669
0.0037665887
0.0037666144
0.0037666448
0.0037666818
0.003766702
0.0037667502
0.0037667628
0.003766815
0.0037668256
0.0037668741
0.0037668967
0.0037669284
0.0037669695
0.0037669934
0.0037670335
0.0037670604
0.0037670931
0.0037671096
0.0037671245
0.0037671357
0.0037671218
0.0037671028
0.0037670798
0.0037670579
0.0036911248
0.003692167
0.003693021
0.0036930798
0.0036937979
0.0036939073
0.0036944417
0.0036946044
0.0036950211
0.0036951661
0.0036955228
0.0036956586
0.0036959432
0.0036960799
0.0036963288
0.0036964861
0.0036967145
0.003696895
0.0036971365
0.0036973445
0.0036975819
0.0036978092
0.0036980432
0.0036982656
0.0036984768
0.0036986687
0.0036988612
0.003699064
0.0036992914
0.0036995432
0.0036998139
0.0037000807
0.0037003336
0.0037005743
0.003700813
0.0037010567
0.0037013032
0.0037015539
0.0037018074
0.0037020638
0.003702325
0.0037025896
0.0037028608
0.0037031387
0.0037034231
0.0037037199
0.0037040205
0.0037043312
0.003704659
0.0037049949
0.0037053511
0.0037057231
0.0037061192
0.0037065473
0.0037069789
0.0037074798
0.0037080005
0.0037086959
0.0037094131
0.0033542713
0.0033542503
0.0033553087
0.0033558751
0.0033565856
0.0033572276
0.0033578307
0.0033583755
0.0033588927
0.0033593626
0.0033597943
0.0033602008
0.0033605729
0.0033609181
0.0033612414
0.0033615337
0.0033618023
0.0033620575
0.0033622599
0.0033624928
0.0033626859
0.0033628677
0.0033630339
0.0033631854
0.0033632868
0.003363404
0.0033634706
0.0033635289
0.0033635354
0.0033635683
0.0033635985
0.0033636653
0.0033637217
0.0033637799
0.0033638009
0.0033638133
0.0033638101
0.0033637981
0.003363781
0.0033637504
0.003363708
0.0033636575
0.0033635908
0.0033635131
0.0033634165
0.003363321
0.0033632068
0.0033630629
0.0033629055
0.0033627182
0.0033625143
0.0033622856
0.0033620343
0.0033617599
0.0033614379
0.0033611392
0.003360687
0.0033603877
0.0033599145
0.0033432524
0.0033398397
0.0033385899
0.0033364696
0.0033349907
0.0033335366
0.0033320444
0.0033308396
0.003329635
0.0033285242
0.0033274572
0.0033264594
0.0033254981
0.003324557
0.0033236761
0.0033228137
0.0033220294
0.0033212267
0.0033204978
0.00331977
0.0033190398
0.0033184042
0.0033176996
0.0033171102
0.0033164832
0.0033159598
0.0033153373
0.0033148197
0.0033142164
0.0033137092
0.0033131214
0.0033126225
0.0033120463
0.0033115556
0.0033109887
0.0033105062
0.0033099325
0.0033094629
0.0033088907
0.0033084192
0.0033078569
0.0033073525
0.0033067783
0.0033062359
0.0033056058
0.003305033
0.0033043114
0.0033037599
0.0033029471
0.0033023314
0.0033014287
0.0033007
0.003299686
0.0032987855
0.0032976045
0.0032965543
0.0032951406
0.0032938554
0.0032917962
0.0050399606
0.0050387466
0.0050375827
0.0050366415
0.0050356988
0.0050348571
0.0050339832
0.0050331643
0.0050324755
0.0050318576
0.0050312533
0.0050306891
0.0050301783
0.0050296946
0.0050292131
0.0050287678
0.0050283773
0.0050280266
0.00502771
0.0050274297
0.0050271802
0.0050269632
0.0050267677
0.0050265967
0.0050264345
0.0050262883
0.0050261673
0.0050260657
0.0050259809
0.0050259122
0.0050258581
0.0050258183
0.0050257942
0.005025784
0.0050257882
0.0050258122
0.0050258514
0.0050259023
0.0050259615
0.0050260273
0.0050260977
0.0050261782
0.0050262688
0.005026376
0.0050265097
0.0050266685
0.0050268458
0.0050270314
0.0050272421
0.0050274805
0.0050277576
0.0050280522
0.0050284046
0.005028765
0.0050292486
0.0050296237
0.0050302456
0.0050306199
0.0050313031
0.003196491
0.0032002819
0.0032001496
0.0032030958
0.0032030825
0.003205117
0.0032055891
0.0032071629
0.0032074354
0.0032087842
0.0032090411
0.0032102025
0.0032104489
0.0032114477
0.0032117363
0.0032125675
0.0032128139
0.0032134708
0.0032137137
0.0032141921
0.003214427
0.0032147688
0.0032149766
0.0032152496
0.0032154223
0.0032156491
0.0032157884
0.0032159745
0.0032160821
0.0032162305
0.0032163099
0.0032164229
0.0032164739
0.0032165471
0.003216569
0.0032165988
0.0032165928
0.0032165804
0.0032165517
0.003216508
0.0032164551
0.0032163936
0.0032163235
0.0032162474
0.00321616
0.0032160518
0.0032159148
0.0032157629
0.0032155986
0.0032154064
0.0032151978
0.0032149467
0.0032146824
0.003214351
0.0032140182
0.0032135399
0.0032131173
0.0032123864
0.0032118481
0.020741489
0.020746979
0.020753935
0.020760058
0.020766451
0.020772645
0.020778802
0.020784877
0.020790874
0.020796794
0.020802632
0.020808387
0.020814058
0.020819641
0.020825134
0.020830534
0.02083584
0.020841046
0.02084615
0.020851146
0.020856031
0.0208608
0.020865446
0.020869966
0.020874355
0.020878608
0.020882722
0.020886695
0.020890523
0.020894206
0.020897743
0.020901133
0.020904378
0.020907478
0.020910434
0.02091325
0.020915925
0.020918462
0.020920863
0.020923129
0.020925262
0.020927264
0.020929138
0.020930884
0.020932504
0.020934
0.020935373
0.020936625
0.020937757
0.02093877
0.020939664
0.020940441
0.0209411
0.020941641
0.020942078
0.020942392
0.020942608
0.020942721
0.020942737
0.019032482
0.019037276
0.019043096
0.019048369
0.01905373
0.019058957
0.019064109
0.019069179
0.019074164
0.019079065
0.019083881
0.019088612
0.019093257
0.019097815
0.019102285
0.019106665
0.019110956
0.019115156
0.019119263
0.019123277
0.019127197
0.019131022
0.01913475
0.019138382
0.019141915
0.019145349
0.019148683
0.019151917
0.01915505
0.01915808
0.019161008
0.019163832
0.019166553
0.019169169
0.019171681
0.019174088
0.019176389
0.019178585
0.019180675
0.019182659
0.019184538
0.019186312
0.01918798
0.019189543
0.019191001
0.019192355
0.019193605
0.019194752
0.019195797
0.019196739
0.019197579
0.019198319
0.019198954
0.019199491
0.019199932
0.019200248
0.019200481
0.019200626
0.019200665
0.017436724
0.017440804
0.017445612
0.017450024
0.01745445
0.017458772
0.017463013
0.017467178
0.017471264
0.017475273
0.017479205
0.01748306
0.017486839
0.017490542
0.017494168
0.017497718
0.01750119
0.017504585
0.017507903
0.017511142
0.017514303
0.017517385
0.017520388
0.01752331
0.017526152
0.017528914
0.017531594
0.017534193
0.017536709
0.017539144
0.017541496
0.017543765
0.017545951
0.017548054
0.017550073
0.017552009
0.017553861
0.017555629
0.017557314
0.017558916
0.017560433
0.017561868
0.017563219
0.017564487
0.017565673
0.017566776
0.017567797
0.017568735
0.017569593
0.017570368
0.017571062
0.017571674
0.017572202
0.017572656
0.017573016
0.017573286
0.017573479
0.017573601
0.017573632
0.015940642
0.015944161
0.015948117
0.015951826
0.015955482
0.015959061
0.015962556
0.01596598
0.01596933
0.015972609
0.015975818
0.015978959
0.015982032
0.015985038
0.015987978
0.015990852
0.015993661
0.015996404
0.015999083
0.016001696
0.016004245
0.016006729
0.016009148
0.016011502
0.01601379
0.016016014
0.016018173
0.016020266
0.016022294
0.016024256
0.016026153
0.016027983
0.016029748
0.016031447
0.01603308
0.016034647
0.016036148
0.016037583
0.016038952
0.016040255
0.016041492
0.016042663
0.016043768
0.016044808
0.016045781
0.016046689
0.016047531
0.016048307
0.016049018
0.016049664
0.016050243
0.016050755
0.016051201
0.016051585
0.016051875
0.016052106
0.016052272
0.016052377
0.016052404
0.014548163
0.014551203
0.014554423
0.014557519
0.014560522
0.014563463
0.014566324
0.014569118
0.014571844
0.014574507
0.014577106
0.014579645
0.014582125
0.014584546
0.014586911
0.014589219
0.014591472
0.014593671
0.014595816
0.014597906
0.014599944
0.014601929
0.014603861
0.014605741
0.014607568
0.014609344
0.014611067
0.014612739
0.014614358
0.014615927
0.014617443
0.014618907
0.01462032
0.014621682
0.014622992
0.01462425
0.014625456
0.014626611
0.014627715
0.014628766
0.014629767
0.014630716
0.014631613
0.014632458
0.014633252
0.014633995
0.014634685
0.014635324
0.014635911
0.014636445
0.014636926
0.014637353
0.014637732
0.014638045
0.014638292
0.014638487
0.014638628
0.014638718
0.014638741
0.013252768
0.013255438
0.013258056
0.013260635
0.013263106
0.01326552
0.013267862
0.013270141
0.013272358
0.013274518
0.013276622
0.013278672
0.013280671
0.013282619
0.013284518
0.013286369
0.013288174
0.013289933
0.013291647
0.013293316
0.013294942
0.013296525
0.013298065
0.013299563
0.013301019
0.013302433
0.013303806
0.013305138
0.013306429
0.013307679
0.013308888
0.013310057
0.013311186
0.013312274
0.013313322
0.013314329
0.013315296
0.013316224
0.013317111
0.013317958
0.013318765
0.013319531
0.013320257
0.013320943
0.013321589
0.013322194
0.013322758
0.013323281
0.013323763
0.013324202
0.013324599
0.013324956
0.01332527
0.013325521
0.013325729
0.013325893
0.013326011
0.013326089
0.013326109
0.012053357
0.012055693
0.012057836
0.012059972
0.012062004
0.012063982
0.012065895
0.01206775
0.01206955
0.012071298
0.012072996
0.012074648
0.012076254
0.012077816
0.012079337
0.012080817
0.012082258
0.01208366
0.012085025
0.012086354
0.012087647
0.012088904
0.012090128
0.012091317
0.012092472
0.012093595
0.012094685
0.012095742
0.012096767
0.012097761
0.012098722
0.012099653
0.012100551
0.012101419
0.012102255
0.012103061
0.012103835
0.012104579
0.012105292
0.012105973
0.012106624
0.012107244
0.012107832
0.01210839
0.012108916
0.01210941
0.012109873
0.012110303
0.012110701
0.012111065
0.012111397
0.012111699
0.012111949
0.012112162
0.012112338
0.012112478
0.012112578
0.012112646
0.012112662
0.010945853
0.010947837
0.010949599
0.010951359
0.010953025
0.010954639
0.010956195
0.010957697
0.010959151
0.010960558
0.010961921
0.010963243
0.010964525
0.01096577
0.010966979
0.010968154
0.010969296
0.010970405
0.010971484
0.010972533
0.010973552
0.010974543
0.010975506
0.010976442
0.010977352
0.010978235
0.010979092
0.010979923
0.01098073
0.010981512
0.010982269
0.010983002
0.010983711
0.010984396
0.010985057
0.010985694
0.010986308
0.010986897
0.010987464
0.010988006
0.010988525
0.01098902
0.010989492
0.010989939
0.010990362
0.010990761
0.010991135
0.010991484
0.010991807
0.010992106
0.01099238
0.010992617
0.010992823
0.010993
0.010993147
0.010993264
0.010993347
0.010993406
0.010993419
0.009926643
0.0099283142
0.0099297694
0.0099312199
0.0099325874
0.0099339058
0.009935172
0.0099363909
0.0099375657
0.0099386995
0.0099397948
0.009940854
0.0099418792
0.0099428721
0.0099438344
0.0099447677
0.0099456731
0.0099465519
0.009947405
0.0099482336
0.0099490383
0.0099498199
0.0099505792
0.0099513167
0.009952033
0.0099527286
0.009953404
0.0099540596
0.0099546957
0.0099553127
0.0099559109
0.0099564905
0.0099570517
0.0099575946
0.0099581194
0.0099586261
0.009959115
0.0099595859
0.009960039
0.0099604741
0.0099608914
0.0099612907
0.0099616719
0.009962035
0.0099623796
0.0099627055
0.0099630123
0.0099632996
0.0099635687
0.0099638191
0.0099640391
0.0099642336
0.0099644068
0.0099645567
0.0099646815
0.009964783
0.0099648523
0.0099649056
0.0099649161
0.0089920692
0.0089934682
0.00899467
0.00899586
0.008996979
0.0089980511
0.0089990772
0.0090000608
0.0090010052
0.0090019135
0.0090027879
0.009003631
0.0090044446
0.0090052305
0.0090059903
0.0090067254
0.0090074372
0.0090081268
0.0090087952
0.0090094433
0.009010072
0.009010682
0.0090112739
0.0090118484
0.0090124061
0.0090129475
0.0090134732
0.0090139835
0.0090144787
0.0090149594
0.0090154256
0.0090158777
0.0090163158
0.0090167402
0.0090171508
0.0090175479
0.0090179315
0.0090183017
0.0090186584
0.0090190019
0.0090193319
0.0090196484
0.0090199514
0.0090202407
0.0090205159
0.0090207768
0.0090210236
0.0090212566
0.0090214745
0.0090216667
0.0090218436
0.0090220033
0.0090221457
0.0090222696
0.0090223725
0.0090224576
0.0090225128
0.0090225614
0.0090225685
0.0081387553
0.0081399163
0.0081409137
0.0081418911
0.00814281
0.0081436845
0.0081445181
0.0081453139
0.0081460752
0.0081468045
0.0081475043
0.0081481767
0.0081488236
0.0081494468
0.0081500476
0.0081506277
0.0081511881
0.00815173
0.0081522543
0.0081527619
0.0081532536
0.0081537302
0.0081541923
0.0081546407
0.0081550758
0.0081554983
0.0081559087
0.0081563073
0.0081566945
0.0081570706
0.0081574356
0.0081577899
0.0081581335
0.0081584668
0.0081587899
0.0081591029
0.0081594059
0.008159699
0.0081599823
0.0081602557
0.0081605193
0.0081607731
0.0081610167
0.0081612501
0.008161473
0.0081616859
0.0081618877
0.008162074
0.0081622437
0.0081624022
0.0081625481
0.0081626811
0.0081628003
0.0081629049
0.0081629913
0.0081630663
0.0081631099
0.0081631531
0.0081631519
0.0073601621
0.0073611164
0.0073619424
0.0073627373
0.0073634859
0.0073641944
0.0073648667
0.0073655058
0.0073661146
0.0073666956
0.0073672511
0.0073677831
0.0073682932
0.007368783
0.0073692538
0.007369707
0.0073701435
0.0073705646
0.0073709711
0.0073713641
0.0073717442
0.0073721123
0.0073724692
0.0073728155
0.0073731518
0.0073734787
0.0073737963
0.007374105
0.0073744045
0.0073746953
0.0073749774
0.0073752513
0.0073755172
0.0073757757
0.0073760269
0.0073762709
0.007376508
0.007376738
0.007376961
0.0073771771
0.0073773863
0.0073775887
0.007377784
0.0073779723
0.007378153
0.007378323
0.0073784795
0.0073786279
0.0073787672
0.0073788977
0.007379019
0.0073791305
0.0073792308
0.0073793208
0.0073793938
0.0073794625
0.0073794961
0.0073795414
0.0073795409
0.0066539953
0.0066547752
0.0066554808
0.0066561415
0.0066567587
0.0066573392
0.0066578868
0.0066584035
0.0066588933
0.0066593582
0.0066598013
0.0066602243
0.006660629
0.0066610165
0.0066613876
0.0066617435
0.006662085
0.0066624135
0.0066627302
0.0066630363
0.0066633328
0.0066636208
0.0066639008
0.0066641735
0.0066644391
0.0066646977
0.006664949
0.0066651929
0.006665429
0.0066656578
0.0066658801
0.0066660969
0.0066663092
0.0066665178
0.0066667229
0.0066669241
0.0066671213
0.0066673141
0.0066675025
0.0066676859
0.0066678624
0.0066680302
0.0066681894
0.0066683402
0.0066684806
0.0066686161
0.0066687447
0.006668867
0.006668983
0.0066690932
0.0066691967
0.0066692929
0.0066693788
0.00666946
0.0066695223
0.0066695894
0.0066696155
0.0066696649
0.0066696673
0.0060350126
0.0060356303
0.0060362166
0.0060367851
0.0060373163
0.0060378176
0.0060382942
0.0060387444
0.006039173
0.0060395815
0.0060399719
0.0060403447
0.006040702
0.0060410441
0.0060413729
0.0060416886
0.006041992
0.0060422834
0.006042564
0.0060428347
0.0060430958
0.0060433472
0.0060435884
0.006043819
0.0060440394
0.0060442493
0.006044449
0.0060446386
0.0060448182
0.0060449896
0.0060451549
0.0060453163
0.0060454737
0.0060456253
0.0060457702
0.0060459081
0.0060460386
0.0060461618
0.0060462782
0.0060463866
0.006046489
0.0060465877
0.0060466811
0.0060467699
0.0060468567
0.0060469416
0.0060470227
0.0060471023
0.0060471879
0.0060472832
0.0060473818
0.0060474799
0.0060475671
0.0060476568
0.0060477148
0.0060477769
0.0060478019
0.0060478696
0.006047885
0.023006136
0.02551172
0.028310062
0.031365382
0.034689824
0.038307514
0.042232272
0.046476074
0.051049429
0.055959916
0.061210529
0.066798252
0.072712206
0.078932085
0.085425346
0.092146115
0.099029316
0.10599362
0.11293278
0.11972016
0.12620239
0.13221636
0.137543
0.14196539
0.14530027
0.14718255
0.14752686
0.14619398
0.14280753
0.13732085
0.12972506
0.11991301
0.10795074
0.094013992
0.07820878
0.060791055
0.041980606
0.021930391
0.00097251869
-0.020559271
-0.042458186
-0.064527799
-0.086495576
-0.10818097
-0.12941184
-0.15021145
-0.17050489
-0.19001119
-0.20871931
-0.22662357
-0.24369258
-0.25992455
-0.27529584
-0.28974292
-0.3033483
-0.3161938
-0.32827778
-0.33959279
-0.35021458
-0.36019638
-0.36949739
-0.37815604
-0.3862235
-0.39373358
-0.4007178
-0.40720911
-0.41323818
-0.41883538
-0.42402696
-0.42884086
-0.43329412
-0.43741014
-0.44121346
-0.44475651
0.023006112
0.025511704
0.028310033
0.031365348
0.03468979
0.038307483
0.042232244
0.046476051
0.051049413
0.055959907
0.061210534
0.066798287
0.072712261
0.078932176
0.085425478
0.092146299
0.09902956
0.10599394
0.11293319
0.11972065
0.12620299
0.13221696
0.13754366
0.14196618
0.14530111
0.14718329
0.14752761
0.14619482
0.14280874
0.13732251
0.1297242
0.11991212
0.10795192
0.094014639
0.078208807
0.060784906
0.041971982
0.021926401
0.00097327251
-0.020558995
-0.042458113
-0.06453127
-0.086501741
-0.10819077
-0.129417
-0.15020935
-0.17050438
-0.19001424
-0.20872421
-0.22662914
-0.24369875
-0.25993125
-0.27530313
-0.28974767
-0.30335132
-0.31619837
-0.32828394
-0.33959935
-0.35022528
-0.36021243
-0.36951315
-0.37817041
-0.38623682
-0.39374623
-0.40072938
-0.40721994
-0.41324865
-0.418846
-0.4240379
-0.42885366
-0.43331092
-0.43742898
-0.44123037
-0.44476969
0.023005922
0.025511535
0.028309826
0.031365115
0.034689539
0.038307213
0.042231955
0.046475742
0.051049087
0.055959569
0.061210185
0.066797925
0.072711894
0.07893181
0.085425125
0.092145968
0.099029277
0.10599372
0.11293307
0.1197207
0.12620316
0.13221755
0.1375447
0.1419674
0.14530283
0.14718535
0.14753028
0.14619833
0.14281287
0.13732705
0.1297279
0.11991773
0.10795915
0.09402119
0.0782164
0.060792377
0.041977324
0.021933337
0.00098098739
-0.02055323
-0.042453492
-0.06452342
-0.086493432
-0.10818554
-0.12942453
-0.15022137
-0.17050487
-0.19000978
-0.20871932
-0.2266238
-0.24369304
-0.25993088
-0.27530823
-0.28975522
-0.30335402
-0.31619716
-0.328281
-0.33958512
-0.35020062
-0.36019413
-0.36949965
-0.37815992
-0.38622819
-0.39373926
-0.40072577
-0.40721676
-0.41324598
-0.4188433
-0.42403611
-0.4288537
-0.43329923
-0.43740307
-0.44120079
-0.44474968
0.023005519
0.02551125
0.028309463
0.031364712
0.034689106
0.038306748
0.042231456
0.046475208
0.051048508
0.055958947
0.061209523
0.066797229
0.072711173
0.078931076
0.085424401
0.092145269
0.099028648
0.1059932
0.11293274
0.11972066
0.12620398
0.13221848
0.13754601
0.14196946
0.14530597
0.14718923
0.14753536
0.14620502
0.14282092
0.13733666
0.12973768
0.11992956
0.10797334
0.094035901
0.078233045
0.060807751
0.041989607
0.021948003
0.00099876668
-0.020535524
-0.042435573
-0.064503008
-0.086474192
-0.10816993
-0.1294198
-0.15021509
-0.17048669
-0.18999377
-0.20870608
-0.22661179
-0.24368216
-0.25991294
-0.27528002
-0.28973632
-0.30335391
-0.31620148
-0.32828763
-0.33960552
-0.35023495
-0.36021213
-0.36950796
-0.37816471
-0.3862302
-0.39373815
-0.40071998
-0.40721035
-0.41323912
-0.41883884
-0.42403443
-0.42887606
-0.43335554
-0.43744681
-0.4411938
-0.44469588
0.02300495
0.025510834
0.028308936
0.031364119
0.034688455
0.038306031
0.042230669
0.046474348
0.051047577
0.05595795
0.061208462
0.066796111
0.072710012
0.07892989
0.085423226
0.092144135
0.099027627
0.1059923
0.11293207
0.11972033
0.126204
0.13221958
0.13754787
0.14197254
0.1453107
0.14719519
0.1475433
0.14621563
0.14283375
0.13735201
0.12975403
0.11994913
0.10799657
0.094060514
0.078260163
0.060834551
0.042014612
0.021976336
0.0010302376
-0.020504773
-0.04240549
-0.064470847
-0.086442597
-0.10814117
-0.12940092
-0.15019812
-0.17046088
-0.18996874
-0.20868152
-0.22658687
-0.24365648
-0.25988304
-0.27524897
-0.28971872
-0.30334857
-0.31619102
-0.32827539
-0.33959925
-0.35021523
-0.36018057
-0.36947466
-0.37813395
-0.38620187
-0.39371216
-0.40069752
-0.40718985
-0.41321901
-0.41881592
-0.4240066
-0.42881837
-0.43326281
-0.43736873
-0.44117538
-0.444717
0.023004247
0.025510273
0.028308242
0.031363339
0.034687595
0.038305083
0.042229625
0.046473204
0.051046327
0.05595659
0.06120699
0.066794534
0.072708343
0.078928152
0.085421461
0.092142381
0.099025979
0.10599086
0.11293103
0.1197198
0.12620435
0.13222096
0.13755046
0.14197686
0.14531743
0.1472038
0.14755491
0.14623125
0.14285272
0.13737486
0.12977933
0.11997912
0.10803159
0.094098158
0.078301544
0.060876668
0.042055455
0.022020785
0.0010782975
-0.020456784
-0.042357496
-0.064420218
-0.086392627
-0.10809474
-0.12936533
-0.15016459
-0.17041728
-0.18992483
-0.20863916
-0.22654553
-0.24361597
-0.25983984
-0.27520243
-0.28967874
-0.30331489
-0.31616306
-0.32825068
-0.33958447
-0.35020588
-0.36016019
-0.36945593
-0.37811549
-0.38618129
-0.39369002
-0.40067323
-0.40716335
-0.41319141
-0.41878736
-0.42397862
-0.42879371
-0.43325499
-0.4373764
-0.44118458
-0.44470925
0.023003419
0.025509554
0.028307372
0.031362358
0.034686509
0.038303879
0.042228291
0.046471732
0.051044708
0.05595482
0.061205066
0.066792462
0.07270614
0.078925844
0.085419104
0.092140027
0.099023758
0.10598887
0.1129295
0.11971894
0.12620444
0.13222257
0.13755385
0.14198266
0.14532664
0.14721571
0.14757109
0.14625319
0.1428795
0.13740732
0.12981608
0.12002244
0.10808188
0.094152848
0.07836155
0.060938745
0.042117372
0.022087408
0.0011495358
-0.020385017
-0.042285633
-0.064346001
-0.086319484
-0.1080255
-0.12930653
-0.15010809
-0.17035206
-0.18986011
-0.20857675
-0.22648407
-0.2435548
-0.25977606
-0.27513681
-0.28962198
-0.3032696
-0.31612379
-0.32821132
-0.33954664
-0.35016628
-0.36011275
-0.36940212
-0.37805961
-0.38612522
-0.39363435
-0.40061857
-0.40710967
-0.41313807
-0.41873295
-0.42392156
-0.42873018
-0.43318237
-0.43730251
-0.44111803
-0.44465549
0.023002454
0.025508669
0.028306315
0.031361164
0.034685181
0.038302399
0.042226645
0.046469905
0.051042688
0.055952598
0.061202635
0.066789826
0.072703317
0.078922866
0.085416035
0.092136936
0.099020801
0.1059862
0.11292742
0.11971771
0.12620448
0.13222455
0.1375583
0.14199034
0.14533895
0.14723176
0.14759309
0.14628318
0.14291625
0.13745209
0.1298676
0.1200831
0.10815212
0.09422989
0.078446061
0.061027285
0.042207383
0.022183403
0.0012511929
-0.020282085
-0.042182169
-0.064239946
-0.08621442
-0.10792452
-0.12921592
-0.15002061
-0.17025693
-0.18976506
-0.208484
-0.22639255
-0.24346425
-0.25968468
-0.27504535
-0.28953843
-0.30319466
-0.31605323
-0.32814227
-0.33948193
-0.35010524
-0.36004916
-0.36933706
-0.37799661
-0.38606391
-0.39357359
-0.40055787
-0.40704852
-0.41307635
-0.4186709
-0.42386017
-0.42867099
-0.43312847
-0.43725634
-0.44107644
-0.44461205
0.023001352
0.025507612
0.028305064
0.031359744
0.034683593
0.038300621
0.042224657
0.04646769
0.051040225
0.055949873
0.061199636
0.066786554
0.072699789
0.078919118
0.085412144
0.092132988
0.099016991
0.10598272
0.11292466
0.11971605
0.12620456
0.13222692
0.13756398
0.14200032
0.14535509
0.14725297
0.14762236
0.14632336
0.14296574
0.1375127
0.12993819
0.12016619
0.10824823
0.094336014
0.078562595
0.061150525
0.042334339
0.022318175
0.0013932178
-0.020137527
-0.042036348
-0.064091328
-0.086066909
-0.10778149
-0.12908314
-0.14989155
-0.17012148
-0.18962997
-0.20835208
-0.22626282
-0.24333626
-0.25955706
-0.27491882
-0.28941957
-0.30308534
-0.31595071
-0.3280434
-0.33938647
-0.35001082
-0.35995113
-0.36923548
-0.37789339
-0.38595949
-0.39346824
-0.40045215
-0.40694279
-0.41297071
-0.41856517
-0.42375404
-0.42856403
-0.43302046
-0.43714792
-0.44096925
-0.44450808
0.023000113
0.025506379
0.028303609
0.031358085
0.034681727
0.03829852
0.042222296
0.046465043
0.051037266
0.055946582
0.061195993
0.066782557
0.072695452
0.078914481
0.085407295
0.092128037
0.09901217
0.10597829
0.1129211
0.11971387
0.12620458
0.1322297
0.13757123
0.14201316
0.14537605
0.14728076
0.14766086
0.14637635
0.14303128
0.13759343
0.13003324
0.1202782
0.10837778
0.094479924
0.078720863
0.061319141
0.042509831
0.022503997
0.0015884194
-0.019938142
-0.041834718
-0.063886531