/*--------------------------------*- C++ -*----------------------------------*\
| =========                 |                                                 |
| \\      /  F ield         | OpenFOAM: The Open Source CFD Toolbox           |
|  \\    /   O peration     | Version:  v2006                                 |
|   \\  /    A nd           | Website:  www.openfoam.com                      |
|    \\/     M anipulation  |                                                 |
\*---------------------------------------------------------------------------*/
FoamFile
{
    version     2.0;
    format      ascii;
    class       volScalarField;
    location    "10000";
    object      k;
}
// * * * * * * * * * * * * * * * * * * * * * * * * * * * * * * * * * * * * * //

dimensions      [0 2 -2 0 0 0 0];


internalField   nonuniform List<scalar> 
55713
(
1.5516621e-09
3.9983909e-09
1.3287616e-08
2.075746e-08
2.4165311e-08
2.5101536e-08
2.5114352e-08
2.4963748e-08
2.4869094e-08
2.4836452e-08
2.4832277e-08
2.4834525e-08
2.4835998e-08
2.4836159e-08
2.4836408e-08
2.4837027e-08
2.4837483e-08
2.4837442e-08
2.483706e-08
2.483666e-08
2.4836388e-08
2.483631e-08
2.4836293e-08
2.4836266e-08
2.4836201e-08
2.4836112e-08
2.4835983e-08
2.483582e-08
2.4835619e-08
2.483538e-08
2.4835115e-08
2.483484e-08
2.4834553e-08
2.4834288e-08
2.4834068e-08
2.4833951e-08
2.483364e-08
2.4833147e-08
2.4832525e-08
2.4831853e-08
2.4831189e-08
2.483055e-08
2.4829867e-08
2.4829144e-08
2.482842e-08
2.482772e-08
2.4827019e-08
2.4826316e-08
2.4825586e-08
2.4824831e-08
2.4824042e-08
2.482323e-08
2.4822395e-08
2.482155e-08
2.482068e-08
2.4819803e-08
2.4818962e-08
2.4818187e-08
2.4817434e-08
1.7228857e-09
5.3369207e-09
1.5767491e-08
2.3004382e-08
2.5853168e-08
2.6445943e-08
2.635141e-08
2.6201922e-08
2.6128815e-08
2.6109021e-08
2.61085e-08
2.6110199e-08
2.611036e-08
2.6109483e-08
2.6109257e-08
2.6109461e-08
2.6109339e-08
2.6108557e-08
2.6107593e-08
2.6106658e-08
2.6105903e-08
2.6105331e-08
2.6104817e-08
2.6104287e-08
2.6103738e-08
2.6103159e-08
2.610256e-08
2.6101912e-08
2.6101249e-08
2.6100535e-08
2.6099806e-08
2.6099056e-08
2.6098296e-08
2.6097546e-08
2.6096852e-08
2.6096297e-08
2.6095556e-08
2.6094568e-08
2.6093435e-08
2.6092227e-08
2.6091025e-08
2.6089851e-08
2.6088633e-08
2.6087336e-08
2.6086014e-08
2.6084698e-08
2.6083371e-08
2.6082019e-08
2.608062e-08
2.607916e-08
2.6077633e-08
2.6076034e-08
2.6074361e-08
2.6072617e-08
2.6070789e-08
2.6068862e-08
2.606687e-08
2.6064824e-08
2.6062724e-08
1.9788129e-09
6.9663152e-09
1.8390745e-08
2.5250394e-08
2.7542223e-08
2.7857589e-08
2.7701165e-08
2.7567074e-08
2.7514569e-08
2.7504133e-08
2.7505079e-08
2.7505695e-08
2.750435e-08
2.7502728e-08
2.750207e-08
2.7501802e-08
2.7500914e-08
2.7499459e-08
2.7497904e-08
2.7496421e-08
2.7495161e-08
2.7494077e-08
2.7493043e-08
2.7492e-08
2.7490944e-08
2.7489865e-08
2.748877e-08
2.748763e-08
2.7486484e-08
2.748529e-08
2.7484077e-08
2.7482845e-08
2.7481596e-08
2.7480355e-08
2.7479164e-08
2.7478154e-08
2.7477007e-08
2.7475518e-08
2.7473856e-08
2.74721e-08
2.7470341e-08
2.7468626e-08
2.7466868e-08
2.7464998e-08
2.7463064e-08
2.7461125e-08
2.7459163e-08
2.7457159e-08
2.7455086e-08
2.7452922e-08
2.7450656e-08
2.7448274e-08
2.7445762e-08
2.7443122e-08
2.7440337e-08
2.7437368e-08
2.7434232e-08
2.7430928e-08
2.7427473e-08
2.3501958e-09
9.0318827e-09
2.1263934e-08
2.7547745e-08
2.9282208e-08
2.9375718e-08
2.919238e-08
2.9082655e-08
2.9048486e-08
2.9044206e-08
2.9045042e-08
2.9043949e-08
2.9041387e-08
2.9039225e-08
2.9038192e-08
2.9037307e-08
2.9035654e-08
2.9033526e-08
2.903137e-08
2.9029339e-08
2.9027571e-08
2.9025961e-08
2.9024403e-08
2.9022837e-08
2.9021275e-08
2.9019686e-08
2.9018096e-08
2.9016456e-08
2.9014825e-08
2.9013141e-08
2.9011443e-08
2.9009725e-08
2.9007986e-08
2.9006248e-08
2.9004556e-08
2.9003073e-08
2.9001551e-08
2.8999564e-08
2.8997371e-08
2.8995056e-08
2.899273e-08
2.8990468e-08
2.8988178e-08
2.898574e-08
2.8983192e-08
2.898062e-08
2.8978022e-08
2.8975364e-08
2.8972614e-08
2.8969744e-08
2.8966741e-08
2.8963575e-08
2.8960223e-08
2.8956679e-08
2.8952934e-08
2.8948917e-08
2.894463e-08
2.8940058e-08
2.8935234e-08
2.8774617e-09
1.1585606e-08
2.4342739e-08
2.988172e-08
3.1097763e-08
3.1033127e-08
3.085236e-08
3.077045e-08
3.0750516e-08
3.0749409e-08
3.074885e-08
3.0746021e-08
3.0742584e-08
3.0739985e-08
3.0738557e-08
3.0736989e-08
3.0734542e-08
3.0731737e-08
3.072898e-08
3.0726412e-08
3.0724129e-08
3.072198e-08
3.0719895e-08
3.0717805e-08
3.0715737e-08
3.0713638e-08
3.0711556e-08
3.0709414e-08
3.0707303e-08
3.0705129e-08
3.0702953e-08
3.070075e-08
3.0698525e-08
3.0696291e-08
3.0694101e-08
3.0692134e-08
3.0690268e-08
3.0687817e-08
3.0685095e-08
3.0682217e-08
3.0679323e-08
3.0676517e-08
3.0673717e-08
3.0670735e-08
3.0667587e-08
3.0664385e-08
3.0661162e-08
3.0657861e-08
3.0654451e-08
3.0650892e-08
3.0647173e-08
3.0643246e-08
3.0639079e-08
3.0634648e-08
3.0629965e-08
3.0624929e-08
3.0619516e-08
3.0613705e-08
3.0607537e-08
3.6225246e-09
1.4696976e-08
2.7601253e-08
3.2270713e-08
3.3031961e-08
3.2869606e-08
3.2712046e-08
3.2656636e-08
3.2646497e-08
3.2645864e-08
3.2643266e-08
3.2639175e-08
3.2635028e-08
3.2632067e-08
3.2630236e-08
3.2627908e-08
3.2624665e-08
3.2621188e-08
3.2617849e-08
3.2614764e-08
3.2611969e-08
3.2609286e-08
3.2606683e-08
3.2604075e-08
3.2601511e-08
3.2598907e-08
3.2596346e-08
3.2593713e-08
3.2591138e-08
3.2588485e-08
3.258585e-08
3.2583174e-08
3.2580483e-08
3.2577767e-08
3.2575093e-08
3.2572641e-08
3.2570458e-08
3.2567615e-08
3.2564376e-08
3.2560939e-08
3.2557481e-08
3.2554146e-08
3.2550871e-08
3.254739e-08
3.2543672e-08
3.2539861e-08
3.2536038e-08
3.2532124e-08
3.2528089e-08
3.2523875e-08
3.2519476e-08
3.2514833e-08
3.2509898e-08
3.2504621e-08
3.2499043e-08
3.2493046e-08
3.2486558e-08
3.2479568e-08
3.2472106e-08
4.6796175e-09
1.8426439e-08
3.0974764e-08
3.475417e-08
3.5133992e-08
3.4928561e-08
3.4806086e-08
3.4772423e-08
3.4767776e-08
3.4765739e-08
3.4761288e-08
3.4756263e-08
3.4751499e-08
3.4748274e-08
3.4746011e-08
3.4742858e-08
3.4738831e-08
3.4734709e-08
3.4730824e-08
3.4727263e-08
3.4723961e-08
3.4720771e-08
3.4717668e-08
3.4714577e-08
3.471153e-08
3.4708454e-08
3.4705427e-08
3.470234e-08
3.4699319e-08
3.4696221e-08
3.4693157e-08
3.4690043e-08
3.4686915e-08
3.4683757e-08
3.4680624e-08
3.4677707e-08
3.4675227e-08
3.4672127e-08
3.4668398e-08
3.4664421e-08
3.4660412e-08
3.4656579e-08
3.4652884e-08
3.4648984e-08
3.4644753e-08
3.4640377e-08
3.4636006e-08
3.4631536e-08
3.4626938e-08
3.4622135e-08
3.4617121e-08
3.4611838e-08
3.4606222e-08
3.460018e-08
3.4593783e-08
3.4586928e-08
3.4579464e-08
3.4571405e-08
3.4562756e-08
6.2096671e-09
2.2821066e-08
3.4625153e-08
3.7392299e-08
3.746144e-08
3.725975e-08
3.7174883e-08
3.7156458e-08
3.7153662e-08
3.7149468e-08
3.7143609e-08
3.7137883e-08
3.713262e-08
3.7129253e-08
3.7126526e-08
3.7122499e-08
3.711773e-08
3.711302e-08
3.7108664e-08
3.7104666e-08
3.7100899e-08
3.7097242e-08
3.7093692e-08
3.7090157e-08
3.7086678e-08
3.7083172e-08
3.7079733e-08
3.7076235e-08
3.7072823e-08
3.7069325e-08
3.7065892e-08
3.7062389e-08
3.705889e-08
3.7055346e-08
3.705182e-08
3.7048473e-08
3.7045724e-08
3.7042547e-08
3.7038413e-08
3.7033933e-08
3.7029406e-08
3.7025122e-08
3.7021095e-08
3.7016898e-08
3.7012257e-08
3.7007388e-08
3.7002562e-08
3.6997623e-08
3.6992569e-08
3.6987282e-08
3.6981766e-08
3.6975962e-08
3.6969806e-08
3.6963139e-08
3.6956051e-08
3.6948503e-08
3.6940231e-08
3.693128e-08
3.6921627e-08
8.5463468e-09
2.7899631e-08
3.832893e-08
4.0183465e-08
4.0084892e-08
3.9919986e-08
3.9866989e-08
3.9857604e-08
3.9854004e-08
3.9847816e-08
3.9841054e-08
3.983482e-08
3.9829198e-08
3.982586e-08
3.9822612e-08
3.9817722e-08
3.9812279e-08
3.9807095e-08
3.9802373e-08
3.9798004e-08
3.9793844e-08
3.97898e-08
3.9785882e-08
3.9781977e-08
3.9778143e-08
3.9774285e-08
3.9770516e-08
3.9766689e-08
3.9762971e-08
3.9759158e-08
3.9755445e-08
3.9751639e-08
3.9747869e-08
3.9744033e-08
3.9740216e-08
3.9736525e-08
3.9733562e-08
3.973048e-08
3.9726153e-08
3.9721241e-08
3.9716251e-08
3.9711594e-08
3.9707355e-08
3.9703049e-08
3.9698163e-08
3.9692922e-08
3.9687788e-08
3.9682519e-08
3.9677173e-08
3.9671574e-08
3.9665733e-08
3.9659592e-08
3.965311e-08
3.9646052e-08
3.9638471e-08
3.9630486e-08
3.9621675e-08
3.9612111e-08
3.9601744e-08
1.2456894e-08
3.3628783e-08
4.2189426e-08
4.3262074e-08
4.3089894e-08
4.2973073e-08
4.2943259e-08
4.2938225e-08
4.2932663e-08
4.292506e-08
4.2917782e-08
4.2911271e-08
4.2905479e-08
4.2902402e-08
4.2898572e-08
4.28929e-08
4.2886919e-08
4.2881439e-08
4.28765e-08
4.2871869e-08
4.2867446e-08
4.2863143e-08
4.2858978e-08
4.2854823e-08
4.2850758e-08
4.2846676e-08
4.2842706e-08
4.2838684e-08
4.283479e-08
4.2830801e-08
4.2826943e-08
4.2822971e-08
4.2819087e-08
4.2815105e-08
4.2811159e-08
4.2807275e-08
4.2804181e-08
4.2801383e-08
4.2797252e-08
4.2792027e-08
4.2786662e-08
4.2781761e-08
4.2777475e-08
4.2773327e-08
4.2768458e-08
4.2763043e-08
4.275783e-08
4.2752443e-08
4.274705e-08
4.2741413e-08
4.2735513e-08
4.2729322e-08
4.272282e-08
4.271574e-08
4.2707985e-08
4.2699933e-08
4.2691012e-08
4.2681246e-08
4.2670619e-08
1.8741564e-08
3.9894957e-08
4.623918e-08
4.6732908e-08
4.6567942e-08
4.6498395e-08
4.6482627e-08
4.6478686e-08
4.6471197e-08
4.6462931e-08
4.6455582e-08
4.6449065e-08
4.6443372e-08
4.6440875e-08
4.6436458e-08
4.6430128e-08
4.6423871e-08
4.6418372e-08
4.6413415e-08
4.6408716e-08
4.6404237e-08
4.6399881e-08
4.639565e-08
4.6391443e-08
4.6387336e-08
4.6383238e-08
4.6379262e-08
4.6375258e-08
4.6371388e-08
4.6367443e-08
4.6363644e-08
4.6359731e-08
4.6355951e-08
4.6352051e-08
4.6348226e-08
4.6344391e-08
4.6341327e-08
4.6338985e-08
4.6335669e-08
4.6330355e-08
4.6324753e-08
4.6319818e-08
4.631576e-08
4.631204e-08
4.6307662e-08
4.6302359e-08
4.6297436e-08
4.6292237e-08
4.628717e-08
4.6281901e-08
4.6276354e-08
4.6270532e-08
4.6264465e-08
4.6257896e-08
4.6250508e-08
4.6242892e-08
4.6234545e-08
4.6225158e-08
4.6214969e-08
2.7089493e-08
4.6565671e-08
5.0599197e-08
5.0740381e-08
5.0628713e-08
5.0595066e-08
5.0586031e-08
5.0581928e-08
5.0573373e-08
5.0565303e-08
5.055847e-08
5.0552248e-08
5.0547105e-08
5.05456e-08
5.0540721e-08
5.0533982e-08
5.0527915e-08
5.052279e-08
5.0518119e-08
5.0513672e-08
5.0509468e-08
5.0505358e-08
5.0501362e-08
5.0497407e-08
5.0493572e-08
5.0489767e-08
5.0486102e-08
5.0482425e-08
5.0478898e-08
5.0475318e-08
5.04719e-08
5.0468382e-08
5.0465032e-08
5.0461564e-08
5.0458221e-08
5.0454805e-08
5.0452084e-08
5.0450443e-08
5.044857e-08
5.0443705e-08
5.0438108e-08
5.0433476e-08
5.0430041e-08
5.0427047e-08
5.0423923e-08
5.0419113e-08
5.0415074e-08
5.0410487e-08
5.0406285e-08
5.0401972e-08
5.0397386e-08
5.0392535e-08
5.0387563e-08
5.0382205e-08
5.0376102e-08
5.0369561e-08
5.0362841e-08
5.0354624e-08
5.0345908e-08
3.8858901e-08
5.3559883e-08
5.5457652e-08
5.5445515e-08
5.5396006e-08
5.5383555e-08
5.5377316e-08
5.5372869e-08
5.5365229e-08
5.5358558e-08
5.5352962e-08
5.534772e-08
5.5343713e-08
5.5343667e-08
5.5338692e-08
5.5332201e-08
5.5327113e-08
5.5322926e-08
5.5319023e-08
5.5315358e-08
5.5311915e-08
5.5308535e-08
5.5305257e-08
5.5302051e-08
5.529897e-08
5.5295948e-08
5.5293064e-08
5.5290201e-08
5.5287483e-08
5.5284757e-08
5.5282193e-08
5.5279579e-08
5.5277136e-08
5.5274625e-08
5.5272262e-08
5.5269838e-08
5.5267978e-08
5.5267291e-08
5.526737e-08
5.5263911e-08
5.525888e-08
5.5255131e-08
5.5252816e-08
5.5251083e-08
5.5249852e-08
5.5246241e-08
5.5243939e-08
5.5240599e-08
5.5237979e-08
5.5235371e-08
5.5232595e-08
5.522952e-08
5.5226566e-08
5.5223282e-08
5.5219673e-08
5.5215138e-08
5.5211344e-08
5.5205585e-08
5.5199755e-08
5.4318391e-08
6.0644016e-08
6.1025127e-08
6.0994501e-08
6.0985316e-08
6.0980992e-08
6.0977814e-08
6.0974646e-08
6.0969509e-08
6.0966058e-08
6.0962717e-08
6.095956e-08
6.0957358e-08
6.0958366e-08
6.0954439e-08
6.0949898e-08
6.0947038e-08
6.0944673e-08
6.0942408e-08
6.0940335e-08
6.0938405e-08
6.0936539e-08
6.0934762e-08
6.0933075e-08
6.0931491e-08
6.0929991e-08
6.0928593e-08
6.0927268e-08
6.0926045e-08
6.0924884e-08
6.0923846e-08
6.0922838e-08
6.0921967e-08
6.0921105e-08
6.0920382e-08
6.0919659e-08
6.0919288e-08
6.0919711e-08
6.0921581e-08
6.0920752e-08
6.0917912e-08
6.091634e-08
6.0915721e-08
6.0915991e-08
6.091648e-08
6.0915701e-08
6.0915932e-08
6.0915062e-08
6.0914953e-08
6.0914915e-08
6.091491e-08
6.0914701e-08
6.0914755e-08
6.0914621e-08
6.091458e-08
6.0913767e-08
6.0913892e-08
6.0912696e-08
6.0911675e-08
1.5320178e-08
1.5319914e-08
1.5319692e-08
1.532019e-08
1.532055e-08
1.5320981e-08
1.5321413e-08
1.5321851e-08
1.5322296e-08
1.5322736e-08
1.5323174e-08
1.5323605e-08
1.532403e-08
1.5324447e-08
1.5324857e-08
1.532526e-08
1.532566e-08
1.5326057e-08
1.5326447e-08
1.5326821e-08
1.5327171e-08
1.532749e-08
1.5327765e-08
1.5327982e-08
1.532814e-08
1.5328246e-08
1.5328317e-08
1.5328365e-08
1.5328398e-08
1.5328409e-08
1.5328384e-08
1.5328311e-08
1.5328185e-08
1.5328013e-08
1.5327816e-08
1.5327622e-08
1.5327459e-08
1.5327327e-08
1.5327188e-08
1.5326972e-08
1.5326583e-08
1.5325849e-08
1.5324591e-08
1.5323212e-08
1.5324125e-08
1.5333418e-08
1.5360282e-08
1.540977e-08
1.5464502e-08
1.5455279e-08
1.5230162e-08
1.4543632e-08
1.309794e-08
1.0676244e-08
7.3840041e-09
3.9047167e-09
1.569011e-09
1.292877e-09
8.1958774e-09
1.5582955e-08
1.5582737e-08
1.5582802e-08
1.5583244e-08
1.5583648e-08
1.5584079e-08
1.5584521e-08
1.5584966e-08
1.5585416e-08
1.5585859e-08
1.5586301e-08
1.5586734e-08
1.5587162e-08
1.558758e-08
1.5587993e-08
1.5588398e-08
1.5588801e-08
1.5589202e-08
1.5589596e-08
1.5589973e-08
1.5590325e-08
1.5590646e-08
1.5590922e-08
1.559114e-08
1.5591297e-08
1.55914e-08
1.5591467e-08
1.5591513e-08
1.5591544e-08
1.5591552e-08
1.5591524e-08
1.5591447e-08
1.5591318e-08
1.5591144e-08
1.5590946e-08
1.5590751e-08
1.5590586e-08
1.5590454e-08
1.5590314e-08
1.5590087e-08
1.5589667e-08
1.5588904e-08
1.5587687e-08
1.5586465e-08
1.558751e-08
1.5596443e-08
1.5621907e-08
1.566935e-08
1.5724394e-08
1.5724616e-08
1.552715e-08
1.4891999e-08
1.3513559e-08
1.1142316e-08
7.8311726e-09
4.2290676e-09
1.6634319e-09
1.1746149e-09
6.9841813e-09
1.5875775e-08
1.5875607e-08
1.5875782e-08
1.5876211e-08
1.5876637e-08
1.5877075e-08
1.587753e-08
1.5877984e-08
1.5878442e-08
1.5878892e-08
1.587934e-08
1.5879779e-08
1.5880211e-08
1.5880633e-08
1.5881048e-08
1.5881456e-08
1.5881863e-08
1.5882269e-08
1.5882667e-08
1.5883047e-08
1.5883403e-08
1.5883728e-08
1.5884008e-08
1.5884228e-08
1.5884385e-08
1.5884487e-08
1.5884553e-08
1.5884598e-08
1.588463e-08
1.5884639e-08
1.5884613e-08
1.5884541e-08
1.5884415e-08
1.5884243e-08
1.5884043e-08
1.5883843e-08
1.5883673e-08
1.5883541e-08
1.588341e-08
1.5883206e-08
1.5882838e-08
1.5882167e-08
1.5881022e-08
1.5879578e-08
1.5879512e-08
1.5885743e-08
1.5907013e-08
1.5951384e-08
1.6011496e-08
1.6036652e-08
1.5896788e-08
1.5356613e-08
1.4093465e-08
1.1807025e-08
8.4731978e-09
4.6901259e-09
1.8059863e-09
1.0794959e-09
5.8804178e-09
1.6203278e-08
1.6203174e-08
1.6203461e-08
1.6203882e-08
1.6204327e-08
1.6204774e-08
1.6205239e-08
1.6205701e-08
1.6206165e-08
1.6206621e-08
1.6207074e-08
1.6207516e-08
1.6207951e-08
1.6208375e-08
1.6208792e-08
1.6209202e-08
1.6209612e-08
1.6210021e-08
1.6210424e-08
1.6210806e-08
1.6211165e-08
1.6211492e-08
1.6211775e-08
1.6211996e-08
1.6212152e-08
1.621225e-08
1.6212313e-08
1.6212357e-08
1.6212389e-08
1.6212399e-08
1.6212374e-08
1.6212303e-08
1.621218e-08
1.6212009e-08
1.6211808e-08
1.6211605e-08
1.6211431e-08
1.6211298e-08
1.6211173e-08
1.6210984e-08
1.6210642e-08
1.6210031e-08
1.6208984e-08
1.6207531e-08
1.6206886e-08
1.6211189e-08
1.6228706e-08
1.6268906e-08
1.6329976e-08
1.6372289e-08
1.6280139e-08
1.582751e-08
1.468126e-08
1.2494131e-08
9.1578667e-09
5.2017993e-09
1.9971328e-09
1.0160396e-09
4.9711685e-09
1.6570771e-08
1.6570753e-08
1.6571115e-08
1.6571538e-08
1.6571996e-08
1.6572453e-08
1.6572927e-08
1.6573396e-08
1.6573866e-08
1.6574326e-08
1.6574782e-08
1.6575226e-08
1.6575663e-08
1.6576087e-08
1.6576505e-08
1.6576916e-08
1.6577328e-08
1.6577741e-08
1.6578145e-08
1.6578529e-08
1.657889e-08
1.657922e-08
1.6579504e-08
1.6579725e-08
1.6579878e-08
1.6579972e-08
1.6580031e-08
1.6580074e-08
1.6580106e-08
1.6580117e-08
1.6580094e-08
1.6580025e-08
1.6579905e-08
1.6579736e-08
1.6579535e-08
1.6579328e-08
1.6579149e-08
1.6579016e-08
1.65789e-08
1.6578729e-08
1.6578418e-08
1.6577869e-08
1.6576923e-08
1.657549e-08
1.6574334e-08
1.6576776e-08
1.6590406e-08
1.6625706e-08
1.6686048e-08
1.6743169e-08
1.6697496e-08
1.6335777e-08
1.5318316e-08
1.3251689e-08
9.9327707e-09
5.796798e-09
2.2440007e-09
9.8051271e-10
4.1808662e-09
1.6984748e-08
1.6984827e-08
1.6985245e-08
1.6985675e-08
1.6986143e-08
1.698661e-08
1.6987091e-08
1.6987566e-08
1.6988038e-08
1.6988501e-08
1.6988957e-08
1.6989402e-08
1.6989838e-08
1.6990261e-08
1.6990677e-08
1.6991088e-08
1.6991501e-08
1.6991915e-08
1.699232e-08
1.6992704e-08
1.6993066e-08
1.6993397e-08
1.6993682e-08
1.6993901e-08
1.6994049e-08
1.6994136e-08
1.6994191e-08
1.6994233e-08
1.6994265e-08
1.6994276e-08
1.6994255e-08
1.6994189e-08
1.6994072e-08
1.6993907e-08
1.6993707e-08
1.6993497e-08
1.6993314e-08
1.6993179e-08
1.6993073e-08
1.6992921e-08
1.6992639e-08
1.6992144e-08
1.6991306e-08
1.6989963e-08
1.6988503e-08
1.6989404e-08
1.6999302e-08
1.7029019e-08
1.7086225e-08
1.7153696e-08
1.7149505e-08
1.6877396e-08
1.5997116e-08
1.4073122e-08
1.0799385e-08
6.4883456e-09
2.5534474e-09
9.7561237e-10
3.5281809e-09
1.7453129e-08
1.7453305e-08
1.7453751e-08
1.7454192e-08
1.7454668e-08
1.7455144e-08
1.745563e-08
1.7456107e-08
1.745658e-08
1.7457041e-08
1.7457496e-08
1.7457938e-08
1.745837e-08
1.7458789e-08
1.7459202e-08
1.7459609e-08
1.7460021e-08
1.7460434e-08
1.7460838e-08
1.746122e-08
1.7461581e-08
1.7461911e-08
1.7462196e-08
1.746241e-08
1.7462551e-08
1.7462628e-08
1.7462678e-08
1.7462717e-08
1.746275e-08
1.7462762e-08
1.7462743e-08
1.746268e-08
1.7462568e-08
1.7462406e-08
1.7462209e-08
1.7461998e-08
1.746181e-08
1.7461674e-08
1.746158e-08
1.7461451e-08
1.7461199e-08
1.7460753e-08
1.7460017e-08
1.7458807e-08
1.7457209e-08
1.7456895e-08
1.7463345e-08
1.7487092e-08
1.7539088e-08
1.7612457e-08
1.7643999e-08
1.7458727e-08
1.6722833e-08
1.4964717e-08
1.1770252e-08
7.3001e-09
2.9450384e-09
1.0094244e-09
2.984392e-09
1.7985671e-08
1.798593e-08
1.7986385e-08
1.7986837e-08
1.7987317e-08
1.7987798e-08
1.7988285e-08
1.7988761e-08
1.798923e-08
1.7989687e-08
1.7990136e-08
1.7990571e-08
1.7990996e-08
1.7991406e-08
1.7991811e-08
1.7992212e-08
1.7992619e-08
1.7993028e-08
1.7993428e-08
1.7993804e-08
1.7994161e-08
1.7994489e-08
1.799477e-08
1.7994977e-08
1.7995106e-08
1.7995171e-08
1.7995214e-08
1.7995251e-08
1.7995284e-08
1.7995296e-08
1.799528e-08
1.7995219e-08
1.7995113e-08
1.7994957e-08
1.7994765e-08
1.7994555e-08
1.7994364e-08
1.7994226e-08
1.7994145e-08
1.7994045e-08
1.7993828e-08
1.7993426e-08
1.7992782e-08
1.7991731e-08
1.7990157e-08
1.7988999e-08
1.7992451e-08
1.8010131e-08
1.8055073e-08
1.8129569e-08
1.8189602e-08
1.8085619e-08
1.7498753e-08
1.5929547e-08
1.2855044e-08
8.2522739e-09
3.4391045e-09
1.0689524e-09
2.5339151e-09
1.8594535e-08
1.8594839e-08
1.8595298e-08
1.8595756e-08
1.8596238e-08
1.8596719e-08
1.8597202e-08
1.859767e-08
1.859813e-08
1.8598576e-08
1.8599013e-08
1.8599435e-08
1.8599846e-08
1.8600242e-08
1.8600633e-08
1.8601022e-08
1.860142e-08
1.8601819e-08
1.8602209e-08
1.8602575e-08
1.8602925e-08
1.8603248e-08
1.860352e-08
1.8603715e-08
1.8603828e-08
1.8603875e-08
1.8603909e-08
1.8603944e-08
1.8603976e-08
1.8603989e-08
1.8603975e-08
1.8603919e-08
1.860382e-08
1.8603672e-08
1.8603488e-08
1.8603282e-08
1.860309e-08
1.8602952e-08
1.8602885e-08
1.8602821e-08
1.8602647e-08
1.8602289e-08
1.8601723e-08
1.8600837e-08
1.8599414e-08
1.8597791e-08
1.8598839e-08
1.8610723e-08
1.8647249e-08
1.8718194e-08
1.8798352e-08
1.8767183e-08
1.832988e-08
1.6971545e-08
1.4064121e-08
9.3695636e-09
4.0626512e-09
1.1744466e-09
2.1659006e-09
1.9295032e-08
1.929536e-08
1.9295819e-08
1.9296278e-08
1.9296755e-08
1.929723e-08
1.92977e-08
1.9298152e-08
1.9298595e-08
1.9299022e-08
1.9299439e-08
1.9299838e-08
1.9300225e-08
1.9300598e-08
1.9300967e-08
1.9301335e-08
1.9301716e-08
1.9302099e-08
1.930247e-08
1.9302819e-08
1.9303157e-08
1.9303468e-08
1.9303726e-08
1.9303903e-08
1.9303992e-08
1.9304015e-08
1.9304038e-08
1.9304069e-08
1.93041e-08
1.9304114e-08
1.9304103e-08
1.9304052e-08
1.9303961e-08
1.9303825e-08
1.9303654e-08
1.9303458e-08
1.930327e-08
1.9303132e-08
1.9303078e-08
1.9303063e-08
1.9302946e-08
1.9302639e-08
1.9302137e-08
1.9301402e-08
1.9300214e-08
1.9298481e-08
1.9297827e-08
1.9304564e-08
1.9331949e-08
1.9395082e-08
1.9486151e-08
1.9516282e-08
1.9224391e-08
1.8095256e-08
1.5407158e-08
1.0679949e-08
4.855488e-09
1.3284745e-09
1.8722802e-09
2.0106753e-08
2.0107086e-08
2.0107537e-08
2.0107989e-08
2.0108453e-08
2.0108911e-08
2.0109357e-08
2.0109781e-08
2.0110194e-08
2.0110589e-08
2.0110971e-08
2.0111334e-08
2.0111684e-08
2.011202e-08
2.0112354e-08
2.011269e-08
2.0113042e-08
2.0113395e-08
2.0113736e-08
2.0114059e-08
2.0114375e-08
2.0114667e-08
2.0114902e-08
2.0115052e-08
2.0115107e-08
2.0115094e-08
2.0115104e-08
2.011513e-08
2.0115158e-08
2.0115172e-08
2.0115165e-08
2.0115122e-08
2.0115043e-08
2.0114923e-08
2.011477e-08
2.0114591e-08
2.0114415e-08
2.0114282e-08
2.0114236e-08
2.0114293e-08
2.0114249e-08
2.011401e-08
2.0113566e-08
2.0112951e-08
2.011203e-08
2.0110482e-08
2.0108872e-08
2.0111467e-08
2.0129773e-08
2.0181697e-08
2.0274195e-08
2.0351111e-08
2.0194657e-08
1.9307637e-08
1.6893235e-08
1.2213098e-08
5.8705702e-09
1.5409224e-09
1.6512096e-09
2.1054961e-08
2.10553e-08
2.1055738e-08
2.1056172e-08
2.1056611e-08
2.1057037e-08
2.1057443e-08
2.1057824e-08
2.1058188e-08
2.1058534e-08
2.1058862e-08
2.1059169e-08
2.1059462e-08
2.1059743e-08
2.1060024e-08
2.1060313e-08
2.1060618e-08
2.1060926e-08
2.106122e-08
2.1061503e-08
2.1061786e-08
2.1062047e-08
2.1062245e-08
2.1062357e-08
2.106236e-08
2.10623e-08
2.1062292e-08
2.1062313e-08
2.1062335e-08
2.1062349e-08
2.1062348e-08
2.1062315e-08
2.1062252e-08
2.1062155e-08
2.1062029e-08
2.1061879e-08
2.1061726e-08
2.1061608e-08
2.1061572e-08
2.1061702e-08
2.1061774e-08
2.1061629e-08
2.1061253e-08
2.1060724e-08
2.1060043e-08
2.1058876e-08
2.1057021e-08
2.1056743e-08
2.1066882e-08
2.1105501e-08
2.1190515e-08
2.1297269e-08
2.1259593e-08
2.0620426e-08
1.8531536e-08
1.3999086e-08
7.178086e-09
1.8298399e-09
1.5142647e-09
2.2172298e-08
2.217266e-08
2.2173076e-08
2.2173481e-08
2.2173883e-08
2.2174262e-08
2.217461e-08
2.2174929e-08
2.2175226e-08
2.2175501e-08
2.2175753e-08
2.2175982e-08
2.2176195e-08
2.21764e-08
2.2176608e-08
2.217683e-08
2.2177071e-08
2.2177312e-08
2.2177539e-08
2.2177766e-08
2.2178003e-08
2.2178218e-08
2.2178363e-08
2.2178428e-08
2.2178333e-08
2.2178237e-08
2.2178202e-08
2.2178213e-08
2.2178229e-08
2.2178241e-08
2.217825e-08
2.2178232e-08
2.217819e-08
2.2178125e-08
2.2178036e-08
2.2177929e-08
2.2177815e-08
2.2177724e-08
2.2177717e-08
2.2177915e-08
2.2178128e-08
2.2178136e-08
2.2177858e-08
2.217739e-08
2.217687e-08
2.2176155e-08
2.2174637e-08
2.2172862e-08
2.2176531e-08
2.22014e-08
2.2271582e-08
2.2390004e-08
2.2447332e-08
2.204927e-08
2.0333253e-08
1.6066559e-08
8.8623407e-09
2.2708659e-09
1.4534541e-09
2.3499364e-08
2.3499782e-08
2.3500174e-08
2.3500551e-08
2.3500916e-08
2.3501247e-08
2.3501532e-08
2.3501784e-08
2.3502007e-08
2.3502203e-08
2.3502369e-08
2.350251e-08
2.3502631e-08
2.350275e-08
2.3502875e-08
2.3503025e-08
2.3503197e-08
2.350336e-08
2.3503506e-08
2.3503672e-08
2.3503858e-08
2.3504023e-08
2.3504111e-08
2.3504089e-08
2.3503893e-08
2.3503762e-08
2.3503703e-08
2.3503701e-08
2.3503709e-08
2.3503727e-08
2.3503748e-08
2.3503753e-08
2.3503741e-08
2.3503717e-08
2.3503676e-08
2.3503627e-08
2.3503566e-08
2.3503522e-08
2.3503565e-08
2.3503824e-08
2.3504164e-08
2.3504419e-08
2.3504286e-08
2.350387e-08
2.3503392e-08
2.3503053e-08
2.3502241e-08
2.3500237e-08
2.3499668e-08
2.3512098e-08
2.3562634e-08
2.3674947e-08
2.3797705e-08
2.3621951e-08
2.2315271e-08
1.8445763e-08
1.1000745e-08
2.9833422e-09
1.4503126e-09
9.8850156e-09
1.1954038e-08
1.4161242e-08
1.6609971e-08
1.9385591e-08
2.2544913e-08
2.6123306e-08
3.0143761e-08
3.4622438e-08
3.9568042e-08
4.4977688e-08
5.08312e-08
5.7084335e-08
6.366113e-08
7.0444744e-08
7.7269086e-08
8.3910075e-08
9.0079744e-08
9.5425577e-08
9.9529298e-08
1.0195526e-07
1.0230268e-07
1.0021073e-07
9.5390867e-08
8.7569409e-08
7.6763591e-08
6.3565642e-08
4.7976922e-08
3.2097782e-08
1.7395744e-08
5.6506822e-09
3.5352525e-10
2.7054306e-09
1.2792154e-08
3.437726e-08
7.1982574e-08
1.243613e-07
1.8133086e-07
2.4613276e-07
3.2062849e-07
4.0446942e-07
4.9593082e-07
5.9597415e-07
6.9860154e-07
8.0350661e-07
9.0954803e-07
1.0146526e-06
1.1165493e-06
1.2144909e-06
1.3083876e-06
1.3981937e-06
1.483917e-06
1.5650591e-06
1.6411547e-06
1.7126049e-06
1.780034e-06
1.843549e-06
1.9031605e-06
1.959285e-06
2.0121105e-06
2.0614785e-06
2.1073904e-06
2.1500116e-06
2.1895365e-06
2.2261607e-06
2.2600762e-06
2.2914718e-06
2.3205216e-06
2.3473933e-06
2.3722265e-06
2.3951372e-06
2.4162133e-06
2.4356619e-06
2.4535231e-06
1.6287642e-09
2.0187083e-09
2.4471295e-09
2.9258527e-09
3.4576414e-09
4.0477765e-09
4.7019446e-09
5.4249254e-09
6.2201382e-09
7.0895598e-09
8.0335837e-09
9.0502455e-09
1.0134244e-08
1.1275597e-08
1.2458157e-08
1.3658142e-08
1.4842686e-08
1.5968659e-08
1.6982469e-08
1.7818744e-08
1.8407757e-08
1.8632337e-08
1.8391046e-08
1.7663063e-08
1.6435549e-08
1.4718647e-08
1.2607859e-08
1.0212083e-08
7.6725372e-09
5.2613916e-09
3.2450706e-09
1.5361672e-09
7.4995085e-10
1.3443043e-09
3.1886531e-09
6.7394015e-09
1.225311e-08
1.9047046e-08
2.6957098e-08
3.6040894e-08
4.6314412e-08
5.7684963e-08
7.020354e-08
8.3447858e-08
9.709275e-08
1.1123388e-07
1.2565423e-07
1.4007076e-07
1.5427491e-07
1.681392e-07
1.8158734e-07
1.9458022e-07
2.0705475e-07
2.1888451e-07
2.3004634e-07
2.4057564e-07
2.505055e-07
2.5984571e-07
2.6860815e-07
2.7684865e-07
2.8458986e-07
2.9184476e-07
2.9862927e-07
3.0496236e-07
3.1086433e-07
3.1635822e-07
3.2146528e-07
3.262103e-07
3.3061375e-07
3.3470245e-07
3.3849798e-07
3.4201571e-07
3.4525965e-07
3.4834345e-07
1.4686744e-09
1.4065821e-09
1.3633744e-09
1.3322279e-09
1.3249128e-09
1.3489775e-09
1.4085448e-09
1.5104389e-09
1.6612201e-09
1.8622819e-09
2.1128531e-09
2.4087596e-09
2.7451782e-09
3.1161951e-09
3.5147886e-09
3.9328143e-09
4.3607285e-09
4.7872313e-09
5.1988437e-09
5.579262e-09
5.9102864e-09
6.1677627e-09
6.3236733e-09
6.3555357e-09
6.24737e-09
5.990346e-09
5.591082e-09
5.0577411e-09
4.4112851e-09
3.6837517e-09
2.9636541e-09
2.2916333e-09
1.7186005e-09
1.2554654e-09
1.2367867e-09
1.4665024e-09
2.0173849e-09
2.8533615e-09
3.9798151e-09
5.3825692e-09
7.0462466e-09
8.9503469e-09
1.1083963e-08
1.3413914e-08
1.5899481e-08
1.851781e-08
2.1237163e-08
2.4022485e-08
2.6839476e-08
2.9657507e-08
3.24509e-08
3.5200412e-08
3.7871186e-08
4.0425479e-08
4.2858558e-08
4.5166788e-08
4.7355604e-08
4.9418385e-08
5.1380842e-08
5.3247983e-08
5.5020395e-08
5.6698924e-08
5.8285e-08
5.9780578e-08
6.1188182e-08
6.2510696e-08
6.3751294e-08
6.4913343e-08
6.600054e-08
6.7016651e-08
6.7966848e-08
6.8854872e-08
6.9682461e-08
7.0458002e-08
3.2225218e-09
2.5914726e-09
2.1227711e-09
1.796984e-09
1.5892358e-09
1.4615798e-09
1.3850567e-09
1.3305043e-09
1.296587e-09
1.2579773e-09
1.2475665e-09
1.2602693e-09
1.3009132e-09
1.3736183e-09
1.4797545e-09
1.6188526e-09
1.7872588e-09
1.9801164e-09
2.1910427e-09
2.4121234e-09
2.631077e-09
2.8331491e-09
3.0090904e-09
3.1501642e-09
3.2476088e-09
3.2941169e-09
3.284496e-09
3.2202882e-09
3.1055874e-09
2.9395396e-09
2.7307198e-09
2.4941206e-09
2.2461353e-09
1.9759084e-09
1.7514189e-09
1.5952307e-09
1.4908268e-09
1.5069636e-09
1.5812096e-09
1.7187451e-09
1.9127055e-09
2.1660279e-09
2.4779441e-09
2.8434251e-09
3.2562758e-09
3.7102554e-09
4.1981589e-09
4.7128051e-09
5.2472565e-09
5.7948926e-09
6.3496576e-09
6.9060613e-09
7.4587818e-09
8.003033e-09
8.5350314e-09
9.0517648e-09
9.5508653e-09
1.0030558e-08
1.0490149e-08
1.0929019e-08
1.1346864e-08
1.1743688e-08
1.2119686e-08
1.2475201e-08
1.2810693e-08
1.3126714e-08
1.3423893e-08
1.3702913e-08
1.3964497e-08
1.4209425e-08
1.4438114e-08
1.465124e-08
1.4849539e-08
1.5034765e-08
6.3422191e-09
5.206816e-09
4.2344257e-09
3.4343718e-09
2.8007011e-09
2.3135037e-09
1.9577457e-09
1.7076511e-09
1.5227485e-09
1.3994321e-09
1.3189881e-09
1.2673194e-09
1.2315354e-09
1.207344e-09
1.18141e-09
1.174428e-09
1.1823032e-09
1.2083712e-09
1.2544609e-09
1.3214994e-09
1.4151322e-09
1.5293426e-09
1.6569241e-09
1.7864528e-09
1.9068325e-09
2.0126181e-09
2.0996855e-09
2.1650323e-09
2.2073089e-09
2.2253207e-09
2.2180276e-09
2.1881327e-09
2.1315887e-09
2.064436e-09
1.9802195e-09
1.8900351e-09
1.7995739e-09
1.7240216e-09
1.6653545e-09
1.6284919e-09
1.5970472e-09
1.5940849e-09
1.6033671e-09
1.624259e-09
1.6562998e-09
1.698819e-09
1.7508263e-09
1.8111458e-09
1.8785368e-09
1.9517348e-09
2.029514e-09
2.1106881e-09
2.1941142e-09
2.2787841e-09
2.3638426e-09
2.4485322e-09
2.532166e-09
2.6141802e-09
2.6941394e-09
2.7716576e-09
2.8464267e-09
2.9182352e-09
2.9869421e-09
3.0524627e-09
3.114758e-09
3.1738281e-09
3.2297039e-09
3.2824405e-09
3.332118e-09
3.3788241e-09
3.4226674e-09
3.4637606e-09
3.5022317e-09
3.5381653e-09
9.5467651e-09
8.2124712e-09
6.9548588e-09
5.8238257e-09
4.8391124e-09
4.005015e-09
3.3183584e-09
2.7719454e-09
2.3362513e-09
1.9995943e-09
1.7439898e-09
1.5557696e-09
1.4222882e-09
1.3217398e-09
1.252674e-09
1.206818e-09
1.1780496e-09
1.1567371e-09
1.1419391e-09
1.1258442e-09
1.122962e-09
1.129554e-09
1.1518883e-09
1.1931817e-09
1.2499446e-09
1.3178481e-09
1.3930258e-09
1.4667277e-09
1.5336122e-09
1.5913641e-09
1.6387665e-09
1.6752352e-09
1.7010206e-09
1.7156909e-09
1.7201604e-09
1.7154298e-09
1.7036173e-09
1.6812384e-09
1.6576076e-09
1.6363646e-09
1.6174036e-09
1.6008672e-09
1.58709e-09
1.5788306e-09
1.5710299e-09
1.5648645e-09
1.5607959e-09
1.5587677e-09
1.5586118e-09
1.5601064e-09
1.5631567e-09
1.5674537e-09
1.572733e-09
1.5787809e-09
1.5854322e-09
1.5925429e-09
1.59998e-09
1.6076286e-09
1.6153958e-09
1.6231932e-09
1.6309402e-09
1.6385733e-09
1.6460416e-09
1.6533047e-09
1.6603308e-09
1.6670961e-09
1.6735836e-09
1.6797815e-09
1.685684e-09
1.6912869e-09
1.6965877e-09
1.7015899e-09
1.7063056e-09
1.710729e-09
1.2107082e-08
1.0859099e-08
9.5880265e-09