/*--------------------------------*- C++ -*----------------------------------*\
| =========                 |                                                 |
| \\      /  F ield         | OpenFOAM: The Open Source CFD Toolbox           |
|  \\    /   O peration     | Version:  v2006                                 |
|   \\  /    A nd           | Website:  www.openfoam.com                      |
|    \\/     M anipulation  |                                                 |
\*---------------------------------------------------------------------------*/
FoamFile
{
    version     2.0;
    format      ascii;
    class       volScalarField;
    location    "10000";
    object      nut;
}
// * * * * * * * * * * * * * * * * * * * * * * * * * * * * * * * * * * * * * //

dimensions      [0 2 -1 0 0 0 0];


internalField   nonuniform List<scalar> 
55713
(
2.7468468e-10
2.8790804e-09
2.8916913e-08
6.9338133e-08
8.961847e-08
9.5667326e-08
9.5898253e-08
9.5047072e-08
9.4485929e-08
9.4281615e-08
9.4249028e-08
9.4260259e-08
9.427004e-08
9.4272738e-08
9.4273972e-08
9.4276208e-08
9.4277904e-08
9.4277692e-08
9.42761e-08
9.4274503e-08
9.4273676e-08
9.4273864e-08
9.4274359e-08
9.4274738e-08
9.42749e-08
9.4274988e-08
9.4274988e-08
9.4274913e-08
9.4274762e-08
9.4274578e-08
9.4274339e-08
9.4274123e-08
9.4273904e-08
9.4273795e-08
9.4273887e-08
9.4274452e-08
9.4274411e-08
9.4273822e-08
9.4272839e-08
9.4271734e-08
9.427068e-08
9.4269783e-08
9.4268876e-08
9.426796e-08
9.426703e-08
9.4266148e-08
9.4265245e-08
9.4264376e-08
9.4263449e-08
9.4262487e-08
9.4261466e-08
9.4260445e-08
9.4259393e-08
9.4258343e-08
9.4257254e-08
9.4256159e-08
9.4255057e-08
9.4253922e-08
9.4252692e-08
3.3430153e-10
4.1770769e-09
3.5948386e-08
7.6186096e-08
9.3056106e-08
9.6971915e-08
9.6592315e-08
9.5762872e-08
9.5332821e-08
9.520888e-08
9.5202992e-08
9.5215825e-08
9.5221904e-08
9.5221826e-08
9.5222753e-08
9.5225101e-08
9.5226406e-08
9.5225182e-08
9.5223072e-08
9.5221139e-08
9.5220117e-08
9.5220058e-08
9.5220197e-08
9.5220158e-08
9.5219955e-08
9.5219678e-08
9.5219366e-08
9.5218919e-08
9.5218466e-08
9.5217924e-08
9.5217378e-08
9.52168e-08
9.5216247e-08
9.5215742e-08
9.5215471e-08
9.521577e-08
9.5215557e-08
9.5214626e-08
9.5213303e-08
9.5211805e-08
9.5210358e-08
9.5209081e-08
9.5207825e-08
9.5206515e-08
9.520518e-08
9.520386e-08
9.5202534e-08
9.5201217e-08
9.5199852e-08
9.5198404e-08
9.5196889e-08
9.5195318e-08
9.5193693e-08
9.5192014e-08
9.5190268e-08
9.5188441e-08
9.5186551e-08
9.5184527e-08
9.5182353e-08
4.1924655e-10
5.8750359e-09
4.3442244e-08
8.2299797e-08
9.5730557e-08
9.8037358e-08
9.7313328e-08
9.6570759e-08
9.6261825e-08
9.6197613e-08
9.6206041e-08
9.6217259e-08
9.621903e-08
9.6217495e-08
9.6218463e-08
9.6220824e-08
9.6221174e-08
9.6219321e-08
9.6216825e-08
9.621459e-08
9.6213388e-08
9.6213091e-08
9.6212856e-08
9.621243e-08
9.6211856e-08
9.6211253e-08
9.621061e-08
9.6209826e-08
9.620907e-08
9.620821e-08
9.6207361e-08
9.6206462e-08
9.6205577e-08
9.6204722e-08
9.6204063e-08
9.620408e-08
9.6203786e-08
9.6202556e-08
9.6200893e-08
9.6199032e-08
9.6197198e-08
9.6195572e-08
9.6193995e-08
9.6192336e-08
9.6190614e-08
9.6188892e-08
9.6187167e-08
9.6185448e-08
9.6183673e-08
9.6181796e-08
9.6179827e-08
9.617777e-08
9.6175618e-08
9.6173374e-08
9.6171027e-08
9.6168546e-08
9.6165943e-08
9.6163124e-08
9.6160081e-08
5.4177983e-10
8.1954601e-09
5.1585988e-08
8.7808436e-08
9.7963715e-08
9.8985721e-08
9.8088018e-08
9.7476135e-08
9.7276034e-08
9.725327e-08
9.7267015e-08
9.7273588e-08
9.7272182e-08
9.7270233e-08
9.7271542e-08
9.7273446e-08
9.7272901e-08
9.7270499e-08
9.726767e-08
9.7265204e-08
9.7263894e-08
9.7263329e-08
9.7262763e-08
9.7261938e-08
9.7261065e-08
9.7260147e-08
9.7259222e-08
9.7258125e-08
9.7257078e-08
9.7255924e-08
9.7254772e-08
9.72536e-08
9.7252404e-08
9.7251241e-08
9.7250218e-08
9.7249914e-08
9.7249635e-08
9.724814e-08
9.7246181e-08
9.7243969e-08
9.7241784e-08
9.7239827e-08
9.7237974e-08
9.7236008e-08
9.7233937e-08
9.7231835e-08
9.7229748e-08
9.7227667e-08
9.7225522e-08
9.722326e-08
9.7220886e-08
9.721839e-08
9.7215764e-08
9.7212999e-08
9.7210108e-08
9.7207029e-08
9.720378e-08
9.7200236e-08
9.7196398e-08
7.1939798e-10
1.1286435e-08
6.0083855e-08
9.255793e-08
9.9792037e-08
9.9873295e-08
9.8949833e-08
9.8487881e-08
9.8374553e-08
9.8376191e-08
9.8388324e-08
9.8390015e-08
9.8386857e-08
9.8385092e-08
9.8386728e-08
9.8388006e-08
9.8386509e-08
9.8383617e-08
9.8380523e-08
9.8377946e-08
9.8376542e-08
9.8375695e-08
9.8374795e-08
9.8373591e-08
9.8372468e-08
9.8371271e-08
9.8370103e-08
9.8368724e-08
9.8367415e-08
9.8365994e-08
9.836458e-08
9.8363154e-08
9.8361691e-08
9.8360242e-08
9.8358907e-08
9.8358251e-08
9.8358021e-08
9.8356355e-08
9.8354142e-08
9.8351601e-08
9.8349098e-08
9.8346846e-08
9.8344767e-08
9.8342553e-08
9.8340189e-08
9.8337745e-08
9.8335337e-08
9.8332935e-08
9.8330479e-08
9.8327882e-08
9.8325174e-08
9.83223e-08
9.8319277e-08
9.8316055e-08
9.8312701e-08
9.8309103e-08
9.8305304e-08
9.8301131e-08
9.8296606e-08
9.7926091e-10
1.5342587e-08
6.8660471e-08
9.6139238e-08
1.0131784e-07
1.0076296e-07
9.9923309e-08
9.9608637e-08
9.9557201e-08
9.9569306e-08
9.9576109e-08
9.9574527e-08
9.9570491e-08
9.9569262e-08
9.9571224e-08
9.9571624e-08
9.9569189e-08
9.956584e-08
9.9562596e-08
9.9560048e-08
9.9558531e-08
9.9557409e-08
9.9556164e-08
9.9554634e-08
9.9553292e-08
9.9551851e-08
9.955049e-08
9.9548849e-08
9.9547354e-08
9.954567e-08
9.9544077e-08
9.9542406e-08
9.9540739e-08
9.9539036e-08
9.9537443e-08
9.9536435e-08
9.9536208e-08
9.9534544e-08
9.9532094e-08
9.9529264e-08
9.9526472e-08
9.9523976e-08
9.9521727e-08
9.9519329e-08
9.9516734e-08
9.9513994e-08
9.9511318e-08
9.9508655e-08
9.9505955e-08
9.9503092e-08
9.9500119e-08
9.9496946e-08
9.9493606e-08
9.9490011e-08
9.9486275e-08
9.9482263e-08
9.9478013e-08
9.9473335e-08
9.9468235e-08
1.3639414e-09
2.0576584e-08
7.6916124e-08
9.9020945e-08
1.0255945e-07
1.0169489e-07
1.0102681e-07
1.0083883e-07
1.0082547e-07
1.0083745e-07
1.0083916e-07
1.0083562e-07
1.0083128e-07
1.0083089e-07
1.0083304e-07
1.0083233e-07
1.0082897e-07
1.0082525e-07
1.0082202e-07
1.0081962e-07
1.0081793e-07
1.0081654e-07
1.0081496e-07
1.0081322e-07
1.0081168e-07
1.0081007e-07
1.0080852e-07
1.0080669e-07
1.0080502e-07
1.0080314e-07
1.0080141e-07
1.0079955e-07
1.0079771e-07
1.0079583e-07
1.0079402e-07
1.0079271e-07
1.0079238e-07
1.0079096e-07
1.0078829e-07
1.0078522e-07
1.0078217e-07
1.007795e-07
1.0077713e-07
1.0077463e-07
1.0077187e-07
1.0076892e-07
1.0076604e-07
1.007632e-07
1.0076033e-07
1.0075729e-07
1.0075413e-07
1.0075075e-07
1.0074719e-07
1.0074333e-07
1.0073931e-07
1.0073501e-07
1.0073044e-07
1.007254e-07
1.0071988e-07
1.9462111e-09
2.721343e-08
8.50159e-08
1.0204305e-07
1.036559e-07
1.0273951e-07
1.0227246e-07
1.0217688e-07
1.0218298e-07
1.021897e-07
1.021876e-07
1.0218303e-07
1.0217882e-07
1.0217951e-07
1.0218162e-07
1.0217959e-07
1.0217536e-07
1.0217143e-07
1.0216845e-07
1.0216621e-07
1.021643e-07
1.0216263e-07
1.0216083e-07
1.0215896e-07
1.0215732e-07
1.0215558e-07
1.0215388e-07
1.0215191e-07
1.0215013e-07
1.0214809e-07
1.0214628e-07
1.0214429e-07
1.0214236e-07
1.0214035e-07
1.0213841e-07
1.0213683e-07
1.0213638e-07
1.0213535e-07
1.0213258e-07
1.021293e-07
1.0212604e-07
1.0212325e-07
1.0212086e-07
1.0211834e-07
1.0211552e-07
1.0211242e-07
1.0210946e-07
1.0210651e-07
1.0210358e-07
1.0210045e-07
1.0209721e-07
1.0209373e-07
1.0209009e-07
1.0208608e-07
1.0208192e-07
1.0207747e-07
1.0207274e-07
1.0206752e-07
1.0206176e-07
2.8728778e-09
3.5465194e-08
9.2219791e-08
1.0433603e-07
1.0476533e-07
1.0395913e-07
1.0366269e-07
1.0362592e-07
1.0363583e-07
1.0363735e-07
1.0363316e-07
1.0362829e-07
1.0362449e-07
1.0362648e-07
1.0362815e-07
1.0362465e-07
1.0361972e-07
1.0361592e-07
1.0361337e-07
1.0361121e-07
1.0360899e-07
1.0360706e-07
1.0360521e-07
1.0360336e-07
1.036017e-07
1.0359987e-07
1.0359808e-07
1.0359603e-07
1.0359419e-07
1.0359208e-07
1.0359024e-07
1.0358818e-07
1.0358624e-07
1.0358418e-07
1.0358221e-07
1.0358045e-07
1.0357993e-07
1.0357925e-07
1.0357664e-07
1.035732e-07
1.0356979e-07
1.0356695e-07
1.0356466e-07
1.0356222e-07
1.0355946e-07
1.0355629e-07
1.0355338e-07
1.0355044e-07
1.0354757e-07
1.0354447e-07
1.0354128e-07
1.0353782e-07
1.0353426e-07
1.0353028e-07
1.0352612e-07
1.035217e-07
1.0351703e-07
1.0351183e-07
1.0350605e-07
4.4794813e-09
4.5484029e-08
9.8584523e-08
1.0633088e-07
1.0599164e-07
1.0535814e-07
1.0519505e-07
1.051908e-07
1.0519727e-07
1.0519488e-07
1.0518963e-07
1.0518493e-07
1.0518183e-07
1.0518526e-07
1.0518593e-07
1.0518093e-07
1.0517573e-07
1.0517244e-07
1.0517038e-07
1.0516813e-07
1.0516553e-07
1.0516345e-07
1.0516177e-07
1.0516008e-07
1.0515846e-07
1.051566e-07
1.051548e-07
1.0515275e-07
1.0515093e-07
1.0514886e-07
1.0514708e-07
1.0514502e-07
1.0514319e-07
1.0514115e-07
1.0513925e-07
1.0513744e-07
1.0513685e-07
1.0513657e-07
1.0513443e-07
1.0513088e-07
1.0512738e-07
1.051246e-07
1.0512253e-07
1.051203e-07
1.0511776e-07
1.0511463e-07
1.0511191e-07
1.0510911e-07
1.0510645e-07
1.0510355e-07
1.0510057e-07
1.050973e-07
1.0509399e-07
1.0509027e-07
1.0508631e-07
1.0508215e-07
1.0507777e-07
1.0507287e-07
1.0506735e-07
7.1900322e-09
5.7292929e-08
1.0383276e-07
1.0810118e-07
1.0738032e-07
1.0694698e-07
1.0687438e-07
1.0688213e-07
1.0688288e-07
1.0687847e-07
1.068731e-07
1.0686891e-07
1.068668e-07
1.0687169e-07
1.0687079e-07
1.0686445e-07
1.0685959e-07
1.0685704e-07
1.0685533e-07
1.0685286e-07
1.0685004e-07
1.0684813e-07
1.0684677e-07
1.0684529e-07
1.0684373e-07
1.0684194e-07
1.0684021e-07
1.0683829e-07
1.068366e-07
1.0683469e-07
1.0683305e-07
1.0683114e-07
1.0682949e-07
1.0682759e-07
1.0682591e-07
1.0682418e-07
1.0682359e-07
1.0682371e-07
1.0682246e-07
1.0681888e-07
1.0681536e-07
1.0681277e-07
1.0681106e-07
1.0680912e-07
1.0680706e-07
1.0680407e-07
1.0680175e-07
1.0679926e-07
1.0679701e-07
1.0679449e-07
1.0679192e-07
1.0678906e-07
1.0678622e-07
1.0678302e-07
1.0677953e-07
1.0677587e-07
1.0677212e-07
1.0676781e-07
1.0676291e-07
1.1058671e-08
7.0822642e-08
1.0728686e-07
1.0970377e-07
1.0897331e-07
1.0872964e-07
1.0870705e-07
1.0871423e-07
1.08711e-07
1.087063e-07
1.087015e-07
1.0869817e-07
1.0869728e-07
1.0870335e-07
1.0870045e-07
1.0869346e-07
1.0868941e-07
1.086875e-07
1.0868575e-07
1.0868337e-07
1.0868113e-07
1.086797e-07
1.0867855e-07
1.0867718e-07
1.0867571e-07
1.0867408e-07
1.0867257e-07
1.0867093e-07
1.0866949e-07
1.0866788e-07
1.0866652e-07
1.086649e-07
1.0866357e-07
1.0866197e-07
1.0866063e-07
1.0865916e-07
1.0865869e-07
1.0865924e-07
1.0865924e-07
1.0865588e-07
1.0865239e-07
1.0865008e-07
1.086489e-07
1.0864729e-07
1.0864616e-07
1.086434e-07
1.0864168e-07
1.086397e-07
1.0863816e-07
1.0863618e-07
1.086343e-07
1.0863209e-07
1.0863e-07
1.0862759e-07
1.0862496e-07
1.0862206e-07
1.0861935e-07
1.0861595e-07
1.0861211e-07
1.6831142e-08
8.6008028e-08
1.0959648e-07
1.1120863e-07
1.107913e-07
1.1070222e-07
1.1069955e-07
1.1070189e-07
1.1069773e-07
1.1069388e-07
1.106899e-07
1.1068794e-07
1.1068817e-07
1.1069446e-07
1.1068971e-07
1.1068385e-07
1.1068145e-07
1.1067969e-07
1.106771e-07
1.1067583e-07
1.1067511e-07
1.1067414e-07
1.1067305e-07
1.1067179e-07
1.1067057e-07
1.1066932e-07
1.1066821e-07
1.1066702e-07
1.10666e-07
1.1066486e-07
1.1066392e-07
1.1066281e-07
1.1066193e-07
1.1066086e-07
1.1066e-07
1.1065901e-07
1.1065881e-07
1.1065963e-07
1.1066117e-07
1.1065858e-07
1.1065522e-07
1.106534e-07
1.1065277e-07
1.1065187e-07
1.106518e-07
1.1064959e-07
1.1064878e-07
1.1064748e-07
1.106467e-07
1.1064552e-07
1.1064457e-07
1.1064329e-07
1.1064222e-07
1.1064088e-07
1.1063949e-07
1.1063767e-07
1.1063635e-07
1.1063431e-07
1.1063197e-07
2.4887489e-08
1.0253084e-07
1.1276921e-07
1.1294099e-07
1.1284745e-07
1.1284206e-07
1.1284256e-07
1.1284237e-07
1.1283899e-07
1.1283762e-07
1.1283327e-07
1.1283296e-07
1.1283445e-07
1.1283944e-07
1.1283513e-07
1.1283193e-07
1.1283153e-07
1.1282993e-07
1.1282574e-07
1.1282615e-07
1.1282732e-07
1.1282704e-07
1.1282641e-07
1.1282575e-07
1.1282515e-07
1.1282458e-07
1.1282408e-07
1.1282358e-07
1.1282315e-07
1.128227e-07
1.1282237e-07
1.1282196e-07
1.1282169e-07
1.1282133e-07
1.1282113e-07
1.1282082e-07
1.1282097e-07
1.128216e-07
1.1282362e-07
1.1282247e-07
1.1282077e-07
1.1281998e-07
1.1281957e-07
1.1281986e-07
1.128204e-07
1.128197e-07
1.1282023e-07
1.1281945e-07
1.1281939e-07
1.1281939e-07
1.1281946e-07
1.1281937e-07
1.1281948e-07
1.1281945e-07
1.1281946e-07
1.1281917e-07
1.1281934e-07
1.1281907e-07
1.1281871e-07
8.558215e-08
8.5580991e-08
8.5580267e-08
8.5581464e-08
8.5582274e-08
8.558323e-08
8.5584179e-08
8.5585121e-08
8.5586082e-08
8.5587024e-08
8.5587974e-08
8.5588911e-08
8.5589853e-08
8.5590786e-08
8.5591723e-08
8.5592654e-08
8.5593592e-08
8.5594524e-08
8.559544e-08
8.5596309e-08
8.5597136e-08
8.5597904e-08
8.5598563e-08
8.5599018e-08
8.5599227e-08
8.5599228e-08
8.5599139e-08
8.5599062e-08
8.5599036e-08
8.5599023e-08
8.5598959e-08
8.559877e-08
8.5598425e-08
8.5597946e-08
8.5597428e-08
8.5597024e-08
8.5596886e-08
8.5597035e-08
8.5597292e-08
8.5597263e-08
8.5596233e-08
8.5592842e-08
8.558575e-08
8.5578125e-08
8.5587906e-08
8.5659348e-08
8.5858761e-08
8.6224569e-08
8.664112e-08
8.6631538e-08
8.5119792e-08
8.0287367e-08
6.9464659e-08
5.0765483e-08
2.7118388e-08
8.6742471e-09
1.5842536e-09
4.0757741e-10
5.303441e-10
8.5872949e-08
8.5871981e-08
8.5872054e-08
8.5873086e-08
8.5873996e-08
8.5874932e-08
8.5875892e-08
8.5876835e-08
8.5877794e-08
8.5878732e-08
8.5879678e-08
8.5880609e-08
8.5881546e-08
8.5882472e-08
8.5883402e-08
8.5884327e-08
8.588526e-08
8.5886187e-08
8.5887095e-08
8.5887959e-08
8.5888781e-08
8.5889551e-08
8.5890208e-08
8.5890657e-08
8.5890851e-08
8.5890836e-08
8.5890736e-08
8.5890657e-08
8.5890631e-08
8.5890615e-08
8.5890543e-08
8.589035e-08
8.5890003e-08
8.5889526e-08
8.5889012e-08
8.5888611e-08
8.5888476e-08
8.5888637e-08
8.5888892e-08
8.5888789e-08
8.5887574e-08
8.5884056e-08
8.587737e-08
8.5870921e-08
8.5881406e-08
8.5949369e-08
8.6136834e-08
8.6484978e-08
8.6900731e-08
8.6959619e-08
8.5658305e-08
8.1208375e-08
7.1078553e-08
5.2977993e-08
2.9155127e-08
9.6628446e-09
1.7402987e-09
3.8326142e-10
4.7667078e-10
8.6192682e-08
8.6191899e-08
8.6192274e-08
8.6193254e-08
8.6194204e-08
8.6195145e-08
8.6196119e-08
8.619707e-08
8.6198035e-08
8.6198976e-08
8.6199925e-08
8.6200856e-08
8.6201792e-08
8.6202714e-08
8.6203639e-08
8.6204557e-08
8.6205484e-08
8.6206406e-08
8.620731e-08
8.6208171e-08
8.6208996e-08
8.6209771e-08
8.6210433e-08
8.6210881e-08
8.6211066e-08
8.6211035e-08
8.6210925e-08
8.6210843e-08
8.6210817e-08
8.6210803e-08
8.6210741e-08
8.6210564e-08
8.6210237e-08
8.620977e-08
8.6209246e-08
8.6208813e-08
8.6208639e-08
8.6208782e-08
8.6209074e-08
8.6209118e-08
8.6208278e-08
8.6205458e-08
8.6199336e-08
8.6191305e-08
8.6193724e-08
8.62419e-08
8.6397783e-08
8.6719458e-08
8.7161533e-08
8.7383271e-08
8.6485973e-08
8.2767034e-08
7.366293e-08
5.6421081e-08
3.230061e-08
1.1191117e-08
1.9886472e-09
3.7130551e-10
4.2445284e-10
8.6544943e-08
8.6544406e-08
8.6545069e-08
8.6546009e-08
8.654699e-08
8.6547935e-08
8.6548919e-08
8.6549873e-08
8.655084e-08
8.655178e-08
8.6552727e-08
8.6553654e-08
8.6554585e-08
8.65555e-08
8.6556417e-08
8.6557325e-08
8.6558244e-08
8.655916e-08
8.6560058e-08
8.6560914e-08
8.6561739e-08
8.6562517e-08
8.6563182e-08
8.6563622e-08
8.6563791e-08
8.656374e-08
8.6563619e-08
8.6563533e-08
8.6563509e-08
8.6563496e-08
8.6563441e-08
8.6563274e-08
8.6562962e-08
8.6562506e-08
8.656198e-08
8.6561525e-08
8.656132e-08
8.6561448e-08
8.6561762e-08
8.6561877e-08
8.6561229e-08
8.6558887e-08
8.6553526e-08
8.6545451e-08
8.654362e-08
8.6577638e-08
8.6705564e-08
8.6994204e-08
8.7435657e-08
8.7767238e-08
8.7198849e-08
8.4127689e-08
7.6020135e-08
5.9762192e-08
3.560214e-08
1.2924935e-08
2.3136613e-09
3.6866731e-10
3.8053866e-10
8.6933693e-08
8.6933455e-08
8.6934294e-08
8.6935221e-08
8.6936217e-08
8.6937169e-08
8.6938158e-08
8.6939113e-08
8.6940077e-08
8.6941013e-08
8.6941955e-08
8.6942876e-08
8.69438e-08
8.6944705e-08
8.6945611e-08
8.6946508e-08
8.6947418e-08
8.6948324e-08
8.6949214e-08
8.6950063e-08
8.6950889e-08
8.6951669e-08
8.6952334e-08
8.6952763e-08
8.6952911e-08
8.6952836e-08
8.6952703e-08
8.6952616e-08
8.6952595e-08
8.6952584e-08
8.6952536e-08
8.6952381e-08
8.6952087e-08
8.6951644e-08
8.6951119e-08
8.6950641e-08
8.6950401e-08
8.6950508e-08
8.695085e-08
8.6951052e-08
8.6950607e-08
8.6948739e-08
8.6944163e-08
8.6936258e-08
8.6930745e-08
8.695132e-08
8.7050823e-08
8.7301871e-08
8.7730697e-08
8.8153369e-08
8.7899514e-08
8.5485185e-08
7.8428204e-08
6.3313418e-08
3.9332717e-08
1.5014692e-08
2.7422184e-09
3.7631406e-10
3.4036873e-10
8.7363664e-08
8.7363704e-08
8.7364673e-08
8.7365601e-08
8.7366603e-08
8.736756e-08
8.7368549e-08
8.73695e-08
8.7370456e-08
8.7371384e-08
8.7372317e-08
8.7373228e-08
8.737414e-08
8.7375031e-08
8.7375922e-08
8.7376804e-08
8.7377702e-08
8.7378596e-08
8.7379476e-08
8.7380315e-08
8.738114e-08
8.7381922e-08
8.7382584e-08
8.7382997e-08
8.7383119e-08
8.7383015e-08
8.7382871e-08
8.7382784e-08
8.7382767e-08
8.7382759e-08
8.7382717e-08
8.7382574e-08
8.7382299e-08
8.7381873e-08
8.7381353e-08
8.7380855e-08
8.7380577e-08
8.738066e-08
8.7381027e-08
8.738131e-08
8.7381034e-08
8.7379574e-08
8.7375815e-08
8.7368587e-08
8.7360863e-08
8.7370395e-08
8.7443059e-08
8.7652731e-08
8.8053151e-08
8.8535152e-08
8.8555962e-08
8.6772545e-08
8.0779221e-08
6.6973309e-08
4.3441888e-08
1.751139e-08
3.2978362e-09
3.9702729e-10
3.0635134e-10
8.7840362e-08
8.7840667e-08
8.7841691e-08
8.7842629e-08
8.7843631e-08
8.784459e-08
8.7845573e-08
8.7846514e-08
8.7847458e-08
8.7848372e-08
8.7849292e-08
8.7850188e-08
8.7851084e-08
8.7851956e-08
8.7852829e-08
8.7853692e-08
8.7854575e-08
8.7855453e-08
8.7856318e-08
8.7857145e-08
8.7857968e-08
8.785875e-08
8.7859405e-08
8.7859795e-08
8.7859885e-08
8.7859747e-08
8.7859591e-08
8.7859506e-08
8.7859495e-08
8.7859489e-08
8.7859454e-08
8.7859323e-08
8.7859069e-08
8.7858664e-08
8.7858154e-08
8.785764e-08
8.7857321e-08
8.7857372e-08
8.7857763e-08
8.7858133e-08
8.7858013e-08
8.7856897e-08
8.7853904e-08
8.7847643e-08
8.7838895e-08
8.7839774e-08
8.7888019e-08
8.8054615e-08
8.8413542e-08
8.8923756e-08
8.9174498e-08
8.7989274e-08
8.3006068e-08
7.0721018e-08
4.7950259e-08
2.051224e-08
4.0273008e-09
4.3664897e-10
2.771844e-10
8.8370311e-08
8.8370836e-08
8.8371862e-08
8.8372807e-08
8.83738e-08
8.8374755e-08
8.8375723e-08
8.8376646e-08
8.8377571e-08
8.8378467e-08
8.837937e-08
8.8380246e-08
8.8381122e-08
8.8381969e-08
8.8382818e-08
8.8383658e-08
8.8384523e-08
8.8385381e-08
8.8386226e-08
8.8387038e-08
8.8387859e-08
8.8388637e-08
8.838928e-08
8.8389641e-08
8.838969e-08
8.8389513e-08
8.8389346e-08
8.8389264e-08
8.8389259e-08
8.8389257e-08
8.8389229e-08
8.838911e-08
8.8388878e-08
8.8388497e-08
8.8388003e-08
8.8387478e-08
8.8387119e-08
8.8387126e-08
8.8387536e-08
8.8388001e-08
8.8388033e-08
8.8387198e-08
8.838488e-08
8.8379761e-08
8.8371103e-08
8.8365956e-08
8.839324e-08
8.8517111e-08
8.8823651e-08
8.9330218e-08
8.9754781e-08
8.9112473e-08
8.5219896e-08
7.4493016e-08
5.2837378e-08
2.4101603e-08
4.9871898e-09
4.9267924e-10
2.5247574e-10
8.8961314e-08
8.8961945e-08
8.8962961e-08
8.8963904e-08
8.8964882e-08
8.896582e-08
8.8966764e-08
8.8967662e-08
8.8968563e-08
8.8969434e-08
8.8970311e-08
8.897116e-08
8.8972007e-08
8.8972822e-08
8.8973639e-08
8.8974448e-08
8.8975287e-08
8.8976118e-08
8.8976939e-08
8.8977732e-08
8.8978546e-08
8.8979317e-08
8.897994e-08
8.8980263e-08
8.8980261e-08
8.8980037e-08
8.8979861e-08
8.8979785e-08
8.8979786e-08
8.8979787e-08
8.8979766e-08
8.897966e-08
8.8979452e-08
8.8979101e-08
8.8978631e-08
8.8978104e-08
8.8977703e-08
8.8977654e-08
8.897807e-08
8.8978646e-08
8.897884e-08
8.8978237e-08
8.8976472e-08
8.8972495e-08
8.8964803e-08
8.8956223e-08
8.896684e-08
8.9050714e-08
8.9297499e-08
8.9771078e-08
9.0312381e-08
9.013979e-08
8.7286293e-08
7.8237603e-08
5.8066492e-08
2.8371935e-08
6.2546506e-09
5.7801386e-10
2.3219887e-10
8.962263e-08
8.9623329e-08
8.9624327e-08
8.9625256e-08
8.9626209e-08
8.9627123e-08
8.9628035e-08
8.96289e-08
8.9629767e-08
8.9630604e-08
8.9631448e-08
8.9632257e-08
8.9633063e-08
8.9633834e-08
8.9634608e-08
8.9635377e-08
8.9636182e-08
8.9636977e-08
8.9637765e-08
8.9638533e-08
8.9639338e-08
8.9640095e-08
8.9640688e-08
8.9640962e-08
8.9640897e-08
8.9640614e-08
8.9640433e-08
8.9640364e-08
8.9640373e-08
8.9640376e-08
8.9640362e-08
8.9640269e-08
8.9640088e-08
8.9639772e-08
8.9639336e-08
8.9638816e-08
8.9638381e-08
8.9638261e-08
8.9638654e-08
8.9639366e-08
8.9639746e-08
8.9639349e-08
8.9637988e-08
8.9635043e-08
8.9628872e-08
8.9619209e-08
8.9618001e-08
8.9666969e-08
8.9851028e-08
9.0265742e-08
9.0862745e-08
9.1076006e-08
8.9198746e-08
8.1849146e-08
6.3572346e-08
3.3411552e-08
7.941037e-09
6.9942996e-10
2.1660598e-10
9.0365622e-08
9.0366347e-08
9.0367312e-08
9.036822e-08
9.0369135e-08
9.0370013e-08
9.0370877e-08
9.0371696e-08
9.0372514e-08
9.0373305e-08
9.0374095e-08
9.037485e-08
9.0375596e-08
9.0376308e-08
9.0377023e-08
9.0377738e-08
9.0378493e-08
9.0379241e-08
9.0379983e-08
9.0380722e-08
9.0381509e-08
9.0382245e-08
9.0382791e-08
9.0383008e-08
9.0382863e-08
9.0382499e-08
9.0382318e-08
9.0382264e-08
9.0382275e-08
9.0382283e-08
9.0382273e-08
9.0382197e-08
9.0382044e-08
9.0381772e-08
9.0381379e-08
9.0380883e-08
9.0380419e-08
9.0380217e-08
9.038052e-08
9.0381427e-08
9.038202e-08
9.0381844e-08
9.0380764e-08
9.0378597e-08
9.0374144e-08
9.0365282e-08
9.0357181e-08
9.0378351e-08
9.0501858e-08
9.0838703e-08
9.1430726e-08
9.1927034e-08
9.0931734e-08
8.511487e-08
6.9260775e-08
3.9288479e-08
1.0199143e-08
8.6880992e-10
2.067591e-10
9.1203992e-08
9.1204736e-08
9.1205657e-08
9.1206529e-08
9.1207392e-08
9.1208215e-08
9.1209011e-08
9.1209769e-08
9.1210517e-08
9.1211244e-08
9.1211959e-08
9.1212639e-08
9.12133e-08
9.1213935e-08
9.1214571e-08
9.1215219e-08
9.1215903e-08
9.121659e-08
9.1217271e-08
9.1217974e-08
9.1218734e-08
9.1219436e-08
9.1219915e-08
9.1220067e-08
9.1219808e-08
9.1219351e-08
9.1219167e-08
9.121914e-08
9.1219149e-08
9.1219163e-08
9.1219157e-08
9.12191e-08
9.1218975e-08
9.1218757e-08
9.1218421e-08
9.121797e-08
9.1217488e-08
9.1217195e-08
9.1217373e-08
9.1218412e-08
9.1219334e-08
9.1219421e-08
9.1218561e-08
9.1216881e-08
9.1213924e-08
9.1207094e-08
9.1196603e-08
9.1198397e-08
9.1268555e-08
9.1517594e-08
9.205108e-08
9.2710262e-08
9.2453909e-08
8.8353662e-08
7.4991714e-08
4.6029856e-08
1.3237643e-08
1.1045431e-09
2.0582981e-10
9.215385e-08
9.2154621e-08
9.2155506e-08
9.2156327e-08
9.215712e-08
9.2157871e-08
9.2158584e-08
9.2159264e-08
9.2159928e-08
9.2160573e-08
9.2161193e-08
9.2161777e-08
9.2162333e-08
9.2162876e-08
9.2163421e-08
9.2163986e-08
9.2164579e-08
9.2165186e-08
9.2165793e-08
9.2166454e-08
9.2167181e-08
9.2167837e-08
9.216823e-08
9.2168324e-08
9.2167813e-08
9.2167354e-08
9.2167158e-08
9.2167147e-08
9.2167156e-08
9.2167178e-08
9.2167179e-08
9.2167144e-08
9.216705e-08
9.2166888e-08
9.2166633e-08
9.2166249e-08
9.2165765e-08
9.2165359e-08
9.2165411e-08
9.2166478e-08
9.216776e-08
9.2168267e-08
9.2167641e-08
9.2166193e-08
9.2164163e-08
9.2159814e-08
9.2150463e-08
9.2141601e-08
9.2169887e-08
9.2331183e-08
9.2766695e-08
9.3481526e-08
9.37875e-08
9.1235519e-08
8.0634714e-08
5.3596187e-08
1.7325448e-08
1.4637155e-09
2.1509299e-10
9.3231622e-08
9.3232541e-08
9.3233402e-08
9.3234174e-08
9.3234903e-08
9.3235594e-08
9.323623e-08
9.3236841e-08
9.3237424e-08
9.3237992e-08
9.323852e-08
9.3239009e-08
9.3239456e-08
9.3239912e-08
9.3240366e-08
9.3240857e-08
9.3241372e-08
9.3241892e-08
9.3242423e-08
9.3243062e-08
9.3243764e-08
9.3244375e-08
9.3244696e-08
9.3244606e-08
9.3243892e-08
9.3243455e-08
9.3243274e-08
9.3243263e-08
9.324327e-08
9.324331e-08
9.3243327e-08
9.3243323e-08
9.3243264e-08
9.3243153e-08
9.324298e-08
9.3242682e-08
9.3242214e-08
9.324172e-08
9.3241655e-08
9.3242642e-08
9.3244147e-08
9.3245361e-08
9.324504e-08
9.3243592e-08
9.3241783e-08
9.3239551e-08
9.3233487e-08
9.3221701e-08
9.3222301e-08
9.3305921e-08
9.361872e-08
9.4288289e-08
9.4977024e-08
9.3783863e-08
8.5938947e-08
6.1870613e-08
2.2769048e-08
2.0426552e-09
2.343523e-10
5.8036583e-10
6.0656173e-10
6.2182121e-10
6.3203347e-10
6.4017393e-10
6.4713589e-10
6.5286635e-10
6.570621e-10
6.5945686e-10
6.5984842e-10
6.5805711e-10
6.5389023e-10
6.4712189e-10
6.3748508e-10
6.2466538e-10
6.0831476e-10
5.8806279e-10
5.6354426e-10
5.3444162e-10
5.004964e-10
4.6172966e-10
4.1854027e-10
3.7154143e-10
3.2154096e-10
2.6923446e-10
2.1597754e-10
1.6420504e-10
1.1416902e-10
7.0596458e-11
3.5479566e-11
1.0722342e-11
6.2614323e-13
4.4869262e-12
1.9929117e-11
5.0465244e-11
9.9871549e-11
1.6355992e-10
2.2672111e-10
2.9338092e-10
3.6532532e-10
4.4168241e-10
5.2033223e-10
6.0223587e-10
6.8147388e-10
7.5830743e-10
8.3220026e-10
9.0184478e-10
9.6588868e-10
1.0243701e-09
1.0778261e-09
1.1267415e-09
1.1715638e-09
1.2122788e-09
1.2488649e-09
1.2819174e-09
1.3121294e-09
1.3397517e-09
1.364933e-09
1.3880828e-09
1.4094151e-09
1.4288831e-09
1.4465397e-09
1.4625375e-09
1.4770347e-09
1.4901778e-09
1.5021011e-09
1.5129293e-09
1.52277e-09
1.531722e-09
1.5398621e-09
1.5472487e-09
1.5539211e-09
1.5599922e-09
1.5654677e-09
4.4093083e-10
4.6389324e-10
4.8478242e-10
5.0459836e-10
5.2201091e-10
5.3666956e-10
5.4860028e-10
5.5790156e-10
5.6466314e-10
5.6896397e-10
5.7087746e-10
5.7043426e-10
5.6761339e-10
5.6231483e-10
5.5436901e-10
5.4353398e-10
5.2952411e-10
5.1201905e-10
4.9071526e-10
4.6530497e-10
4.3568149e-10
4.00931e-10
3.6092258e-10
3.1716066e-10
2.7093367e-10
2.2348393e-10
1.7691435e-10
1.3288245e-10
9.2892653e-11
5.947707e-11
3.4334203e-11
1.5259641e-11
7.0194794e-12
1.1888205e-11
2.6722687e-11
5.3655858e-11
9.2785839e-11
1.3747427e-10
1.8601322e-10
2.3836753e-10
2.9422896e-10
3.527469e-10
4.1425535e-10
4.7627425e-10
5.3735468e-10
5.9747659e-10
6.5578003e-10
7.1127066e-10
7.6338039e-10
8.1195259e-10
8.5705201e-10
8.9886479e-10
9.3745048e-10
9.7273925e-10
1.0049362e-09
1.0343699e-09
1.0613158e-09
1.0859847e-09
1.1085776e-09
1.1293327e-09
1.1484008e-09
1.1658983e-09
1.181938e-09
1.1966306e-09
1.2100825e-09
1.2223959e-09
1.2336657e-09
1.2439829e-09
1.2534283e-09
1.2620821e-09
1.2700126e-09
1.2772718e-09
1.2839233e-09
1.2899932e-09
1.3326222e-09
1.1083215e-09
9.290575e-10
7.8553791e-10
6.7750404e-10
5.9993922e-10
5.4644328e-10
5.1262448e-10
4.9456022e-10
4.8756574e-10
4.8763927e-10
4.912233e-10
4.958178e-10
4.9965052e-10
5.0152079e-10
5.0065961e-10
4.9659766e-10
4.8904988e-10
4.7783847e-10
4.6281204e-10
4.4392049e-10
4.208987e-10
3.9347933e-10
3.6191463e-10
3.268359e-10
2.8903656e-10
2.4978421e-10
2.100591e-10
1.7099835e-10
1.3382017e-10
1.0124161e-10
7.3872502e-11
5.2470947e-11
3.6424003e-11
3.4204292e-11
3.8770202e-11
5.1089895e-11
6.9353782e-11
9.3041273e-11
1.2128478e-10
1.5331607e-10
1.8838999e-10
2.2607402e-10
2.6557504e-10
3.0604677e-10
3.4698056e-10
3.8784411e-10
4.2810649e-10
4.673044e-10
5.0508633e-10
5.4121422e-10
5.755626e-10
6.0791006e-10
6.3805001e-10
6.6605413e-10
6.9200167e-10
7.1604575e-10
7.3823787e-10
7.5887021e-10
7.7806464e-10
7.959053e-10
8.1247174e-10
8.2784095e-10
8.4208767e-10
8.5528456e-10
8.6750157e-10
8.7880567e-10
8.892602e-10
8.9892709e-10
9.0786243e-10
9.1613069e-10
9.2378014e-10
9.3085768e-10
9.3739127e-10
6.5303178e-09
4.6386715e-09
3.3310764e-09
2.4629376e-09
1.8992575e-09
1.5226021e-09
1.2587665e-09
1.0565131e-09
9.0138768e-10
7.6739959e-10
6.6942073e-10
5.9629555e-10
5.4412982e-10
5.0919486e-10
4.8741839e-10
4.750883e-10
4.6861105e-10
4.6518684e-10
4.6260846e-10
4.5916474e-10
4.5306489e-10
4.4287838e-10
4.2859707e-10
4.1041303e-10
3.8859983e-10
3.6353678e-10
3.3573418e-10
3.0623743e-10
2.7597234e-10
2.4520159e-10
2.1472438e-10
1.8562378e-10
1.5886586e-10
1.3332409e-10
1.1315214e-10
9.9014219e-11
8.9155026e-11
8.7048384e-11
8.8434496e-11
9.3277471e-11
1.0092518e-10
1.1132584e-10
1.2425884e-10
1.3933019e-10
1.5612582e-10
1.7426047e-10
1.9336913e-10
2.1311622e-10
2.3319738e-10
2.5334359e-10
2.7332631e-10
2.929577e-10
3.1207525e-10
3.3054023e-10
3.4825438e-10
3.6515087e-10
3.8119242e-10
3.9635979e-10
4.1066451e-10
4.241242e-10
4.3676363e-10
4.4861266e-10
4.5970374e-10
4.700709e-10
4.7974918e-10
4.8877396e-10
4.971806e-10
5.0500398e-10
5.1227816e-10
5.1903699e-10
5.2530584e-10
5.3111215e-10
5.3649248e-10
5.4146331e-10
2.1892272e-08
1.6412629e-08
1.2035615e-08
8.7198268e-09
6.3062769e-09
4.5955311e-09
3.419063e-09
2.6175389e-09
2.048004e-09
1.6527083e-09
1.3699179e-09
1.1599527e-09
9.957193e-10
8.6453024e-10
7.5126114e-10
6.6509101e-10
5.980142e-10
5.4754031e-10
5.1081267e-10
4.8514699e-10
4.6998366e-10
4.6113106e-10
4.5529549e-10
4.4911624e-10
4.4042762e-10
4.2893563e-10
4.1472945e-10
3.9815517e-10
3.7970276e-10
3.5976372e-10
3.3855068e-10
3.1671897e-10
2.938528e-10
2.7216698e-10
2.5063662e-10
2.3050343e-10
2.1215394e-10
1.9704142e-10
1.8502066e-10
1.7630192e-10
1.6884457e-10
1.6490457e-10
1.6258518e-10
1.6169605e-10
1.620862e-10
1.6360561e-10
1.661112e-10
1.6945447e-10
1.7348886e-10
1.7807551e-10
1.8308709e-10
1.8840791e-10
1.9393517e-10
1.9957861e-10
2.0526115e-10
2.1091726e-10
2.1649257e-10
2.2194399e-10
2.2723845e-10
2.3235002e-10
2.3725976e-10
2.4195512e-10
2.4642845e-10
2.5067594e-10
2.5469699e-10
2.584936e-10
2.6206976e-10
2.6543104e-10
2.6858438e-10
2.7153725e-10
2.7429841e-10
2.7687591e-10
2.7928123e-10
2.8151142e-10
4.3981965e-08
3.5878541e-08
2.8411525e-08
2.1966065e-08
1.6660378e-08
1.246225e-08
9.2569026e-09
6.8897677e-09
5.1522353e-09
3.9033279e-09
3.010791e-09
2.376185e-09
1.9243017e-09
1.5871449e-09
1.3382111e-09
1.1500231e-09
1.0042991e-09
8.8490192e-10
7.8641613e-10
7.0029951e-10
6.3310426e-10
5.7929676e-10
5.3944473e-10
5.1227986e-10
4.9407486e-10
4.8168184e-10
4.7290589e-10
4.646296e-10
4.5546738e-10
4.4521451e-10
4.3390045e-10
4.2166952e-10
4.0883394e-10
3.9539056e-10
3.8160144e-10
3.6766331e-10
3.5390337e-10
3.3949798e-10
3.2624879e-10
3.1467529e-10
3.0454452e-10
2.9572054e-10
2.8812193e-10
2.8212134e-10
2.7668643e-10
2.7193587e-10
2.6789902e-10
2.6452099e-10
2.6172981e-10
2.5945094e-10
2.5763671e-10
2.5621009e-10
2.5510956e-10
2.5428178e-10
2.5368115e-10
2.5326876e-10
2.5301227e-10
2.528839e-10
2.5285985e-10
2.5292019e-10
2.5304765e-10
2.5322737e-10
2.5344663e-10
2.5369463e-10
2.5396234e-10
2.5424222e-10
2.5452811e-10
2.5481494e-10
2.550987e-10
2.5537606e-10
2.5564423e-10
2.5590139e-10
2.5614603e-10
2.5637703e-10
6.3670716e-08