/*--------------------------------*- C++ -*----------------------------------*\
| =========                 |                                                 |
| \\      /  F ield         | OpenFOAM: The Open Source CFD Toolbox           |
|  \\    /   O peration     | Version:  v2006                                 |
|   \\  /    A nd           | Website:  www.openfoam.com                      |
|    \\/     M anipulation  |                                                 |
\*---------------------------------------------------------------------------*/
FoamFile
{
    version     2.0;
    format      ascii;
    class       volScalarField;
    location    "10000";
    object      nutMean;
}
// * * * * * * * * * * * * * * * * * * * * * * * * * * * * * * * * * * * * * //

dimensions      [0 2 -1 0 0 0 0];


internalField   nonuniform List<scalar> 
55713
(
3.078594e-10
2.9229484e-09
2.8935863e-08
6.933512e-08
8.9604856e-08
9.5656003e-08
9.5892774e-08
9.5045166e-08
9.448486e-08
9.4279885e-08
9.4246552e-08
9.4258085e-08
9.426922e-08
9.4273518e-08
9.4274149e-08
9.4274231e-08
9.4274396e-08
9.4274635e-08
9.4274855e-08
9.4274962e-08
9.4274908e-08
9.4274759e-08
9.4274547e-08
9.427428e-08
9.4274016e-08
9.4273841e-08
9.4273724e-08
9.4273595e-08
9.4273437e-08
9.4273245e-08
9.427303e-08
9.42728e-08
9.4272587e-08
9.4272473e-08
9.42726e-08
9.4273088e-08
9.427312e-08
9.427263e-08
9.4271817e-08
9.4270868e-08
9.4269978e-08
9.4269171e-08
9.4268294e-08
9.4267278e-08
9.4266215e-08
9.4265179e-08
9.4264181e-08
9.4263222e-08
9.4262292e-08
9.4261363e-08
9.4260395e-08
9.4259366e-08
9.4258283e-08
9.4257186e-08
9.4256098e-08
9.4255021e-08
9.4253957e-08
9.4252823e-08
9.4251569e-08
3.7073891e-10
4.2224392e-09
3.5975566e-08
7.6183539e-08
9.3041952e-08
9.6961857e-08
9.658818e-08
9.5761585e-08
9.5331819e-08
9.5206985e-08
9.520047e-08
9.5213936e-08
9.5221663e-08
9.5223436e-08
9.5223138e-08
9.5222833e-08
9.5222634e-08
9.5222464e-08
9.5222274e-08
9.5221983e-08
9.5221516e-08
9.5220965e-08
9.5220378e-08
9.5219742e-08
9.5219133e-08
9.5218626e-08
9.5218169e-08
9.5217699e-08
9.521721e-08
9.5216684e-08
9.5216134e-08
9.5215564e-08
9.5214996e-08
9.5214508e-08
9.5214255e-08
9.5214503e-08
9.5214323e-08
9.5213508e-08
9.5212344e-08
9.5211011e-08
9.520973e-08
9.5208568e-08
9.5207354e-08
9.5205963e-08
9.5204485e-08
9.5203021e-08
9.5201582e-08
9.5200166e-08
9.5198766e-08
9.5197353e-08
9.5195885e-08
9.5194323e-08
9.5192661e-08
9.5190937e-08
9.5189176e-08
9.5187369e-08
9.5185508e-08
9.5183502e-08
9.5181286e-08
4.5972408e-10
5.9293385e-09
4.3477782e-08
8.2294759e-08
9.5716159e-08
9.8028841e-08
9.7310364e-08
9.6569851e-08
9.6260771e-08
9.6195449e-08
9.6203587e-08
9.6215656e-08
9.6219782e-08
9.621958e-08
9.6218843e-08
9.6218211e-08
9.6217626e-08
9.6217035e-08
9.6216448e-08
9.6215742e-08
9.621487e-08
9.6213956e-08
9.6213011e-08
9.6212026e-08
9.6211095e-08
9.6210273e-08
9.6209491e-08
9.6208698e-08
9.6207892e-08
9.620705e-08
9.6206185e-08
9.6205294e-08
9.6204398e-08
9.6203553e-08
9.6202927e-08
9.6202906e-08
9.6202595e-08
9.6201492e-08
9.62e-08
9.6198303e-08
9.6196645e-08
9.6195148e-08
9.6193635e-08
9.6191909e-08
9.6190047e-08
9.6188185e-08
9.6186339e-08
9.6184502e-08
9.6182669e-08
9.6180814e-08
9.617889e-08
9.6176849e-08
9.6174665e-08
9.6172371e-08
9.6170002e-08
9.6167537e-08
9.616496e-08
9.6162172e-08
9.6159073e-08
5.8738949e-10
8.2594229e-09
5.1619941e-08
8.7799589e-08
9.7949962e-08
9.8978974e-08
9.8086069e-08
9.7475482e-08
9.7274869e-08
9.7250929e-08
9.7264661e-08
9.72728e-08
9.7273673e-08
9.7272645e-08
9.7271655e-08
9.7270662e-08
9.7269674e-08
9.7268705e-08
9.7267759e-08
9.726666e-08
9.7265418e-08
9.7264167e-08
9.7262885e-08
9.7261579e-08
9.7260358e-08
9.7259242e-08
9.7258161e-08
9.7257072e-08
9.7255976e-08
9.7254845e-08
9.725369e-08
9.7252509e-08
9.7251313e-08
9.7250147e-08
9.7249164e-08
9.724885e-08
9.7248478e-08
9.724714e-08
9.7245352e-08
9.7243315e-08
9.7241298e-08
9.7239486e-08
9.7237715e-08
9.7235705e-08
9.7233496e-08
9.7231268e-08
9.7229053e-08
9.7226832e-08
9.7224603e-08
9.7222344e-08
9.7220008e-08
9.7217538e-08
9.7214884e-08
9.721207e-08
9.7209146e-08
9.7206085e-08
9.7202852e-08
9.7199356e-08
9.7195447e-08
7.7143939e-10
1.1357488e-08
6.0111511e-08
9.2546267e-08
9.9779659e-08
9.9868284e-08
9.8948679e-08
9.8487361e-08
9.8373213e-08
9.8373717e-08
9.8386442e-08
9.8389943e-08
9.8389073e-08
9.8387717e-08
9.8386426e-08
9.8385052e-08
9.8383687e-08
9.8382389e-08
9.8381112e-08
9.837964e-08
9.8378064e-08
9.8376504e-08
9.8374912e-08
9.8373318e-08
9.8371839e-08
9.8370457e-08
9.8369105e-08
9.8367751e-08
9.8366392e-08
9.8365004e-08
9.8363591e-08
9.8362152e-08
9.8360692e-08
9.8359243e-08
9.8357939e-08
9.835731e-08
9.8356917e-08
9.8355437e-08
9.8353392e-08
9.8351047e-08
9.8348695e-08
9.8346588e-08
9.8344607e-08
9.834238e-08
9.8339872e-08
9.833732e-08
9.8334785e-08
9.8332228e-08
9.8329656e-08
9.8327044e-08
9.8324352e-08
9.8321518e-08
9.8318469e-08
9.8315206e-08
9.8311799e-08
9.8308227e-08
9.8304428e-08
9.8300325e-08
9.8295711e-08
1.039442e-09
1.5420496e-08
6.8681434e-08
9.6126404e-08
1.0130727e-07
1.0075953e-07
9.9922724e-08
9.9608133e-08
9.9555565e-08
9.9566899e-08
9.9574802e-08
9.9575176e-08
9.9573445e-08
9.95719e-08
9.9570265e-08
9.9568523e-08
9.9566827e-08
9.9565257e-08
9.9563679e-08
9.9561865e-08
9.9559998e-08
9.955816e-08
9.9556294e-08
9.9554456e-08
9.9552755e-08
9.9551142e-08
9.9549557e-08
9.9547973e-08
9.9546389e-08
9.9544779e-08
9.9543148e-08
9.954149e-08
9.9539807e-08
9.9538121e-08
9.9536544e-08
9.9535604e-08
9.953517e-08
9.95337e-08
9.9531443e-08
9.9528831e-08
9.9526171e-08
9.9523792e-08
9.952165e-08
9.9519287e-08
9.9516543e-08
9.9513715e-08
9.9510919e-08
9.9508086e-08
9.9505231e-08
9.950233e-08
9.9499347e-08
9.9496225e-08
9.9492867e-08
9.948924e-08
9.9485435e-08
9.9481453e-08
9.9477189e-08
9.9472602e-08
9.94674e-08
1.4346601e-09
2.0659734e-08
7.6933683e-08
9.9006528e-08
1.02551e-07
1.0169276e-07
1.0102656e-07
1.0083819e-07
1.0082354e-07
1.008352e-07
1.008385e-07
1.0083697e-07
1.0083492e-07
1.0083321e-07
1.0083121e-07
1.0082913e-07
1.0082717e-07
1.0082539e-07
1.0082355e-07
1.0082143e-07
1.0081932e-07
1.0081724e-07
1.0081515e-07
1.0081312e-07
1.0081124e-07
1.0080944e-07
1.0080766e-07
1.008059e-07
1.0080413e-07
1.0080234e-07
1.0080054e-07
1.0079871e-07
1.0079686e-07
1.0079499e-07
1.0079319e-07
1.0079197e-07
1.0079145e-07
1.0079017e-07
1.0078777e-07
1.0078494e-07
1.0078201e-07
1.0077938e-07
1.0077713e-07
1.0077473e-07
1.0077183e-07
1.0076879e-07
1.007658e-07
1.0076277e-07
1.0075971e-07
1.007566e-07
1.007534e-07
1.0075008e-07
1.0074652e-07
1.0074264e-07
1.0073854e-07
1.0073427e-07
1.0072967e-07
1.0072475e-07
1.007191e-07
2.0315936e-09
2.7298649e-08
8.5018255e-08
1.0202725e-07
1.036498e-07
1.0273835e-07
1.0227241e-07
1.0217598e-07
1.021809e-07
1.0218778e-07
1.0218763e-07
1.0218513e-07
1.0218307e-07
1.0218114e-07
1.021788e-07
1.0217645e-07
1.0217429e-07
1.0217238e-07
1.0217031e-07
1.0216795e-07
1.0216564e-07
1.0216337e-07
1.0216111e-07
1.0215896e-07
1.0215695e-07
1.0215501e-07
1.0215311e-07
1.0215121e-07
1.0214932e-07
1.0214741e-07
1.0214549e-07
1.0214355e-07
1.0214158e-07
1.0213959e-07
1.0213765e-07
1.0213619e-07
1.0213556e-07
1.021346e-07
1.0213219e-07
1.021292e-07
1.0212605e-07
1.0212321e-07
1.021209e-07
1.0211859e-07
1.0211564e-07
1.0211246e-07
1.0210937e-07
1.0210623e-07
1.0210305e-07
1.0209983e-07
1.0209653e-07
1.0209312e-07
1.0208948e-07
1.0208549e-07
1.0208121e-07
1.0207681e-07
1.0207203e-07
1.0206695e-07
1.0206105e-07
2.9780342e-09
3.5547084e-08
9.2215572e-08
1.0432336e-07
1.047615e-07
1.0395855e-07
1.0366276e-07
1.036247e-07
1.0363373e-07
1.0363587e-07
1.0363394e-07
1.0363115e-07
1.0362917e-07
1.0362698e-07
1.0362437e-07
1.0362182e-07
1.0361957e-07
1.0361762e-07
1.0361536e-07
1.0361282e-07
1.0361037e-07
1.0360798e-07
1.0360564e-07
1.0360343e-07
1.0360135e-07
1.0359935e-07
1.0359738e-07
1.0359542e-07
1.0359347e-07
1.035915e-07
1.0358954e-07
1.0358756e-07
1.0358556e-07
1.0358353e-07
1.0358152e-07
1.0357989e-07
1.0357918e-07
1.0357856e-07
1.035764e-07
1.0357332e-07
1.0357e-07
1.0356701e-07
1.0356467e-07
1.0356259e-07
1.0355973e-07
1.0355651e-07
1.0355344e-07
1.0355029e-07
1.0354713e-07
1.0354393e-07
1.0354064e-07
1.0353727e-07
1.0353371e-07
1.0352978e-07
1.0352549e-07
1.0352113e-07
1.0351638e-07
1.0351135e-07
1.0350542e-07
4.6015681e-09
4.5555741e-08
9.8575644e-08
1.063214e-07
1.0598945e-07
1.0535786e-07
1.0519522e-07
1.0518924e-07
1.0519532e-07
1.0519385e-07
1.0519125e-07
1.0518848e-07
1.0518662e-07
1.0518421e-07
1.0518139e-07
1.0517875e-07
1.0517654e-07
1.0517466e-07
1.0517227e-07
1.0516961e-07
1.051671e-07
1.051647e-07
1.0516236e-07
1.0516018e-07
1.0515812e-07
1.0515614e-07
1.0515418e-07
1.0515224e-07
1.0515032e-07
1.0514839e-07
1.0514646e-07
1.0514453e-07
1.0514259e-07
1.0514061e-07
1.0513864e-07
1.0513695e-07
1.0513616e-07
1.0513592e-07
1.0513433e-07
1.0513126e-07
1.0512783e-07
1.0512477e-07
1.0512249e-07
1.0512074e-07
1.0511818e-07
1.0511502e-07
1.0511212e-07
1.0510911e-07
1.051061e-07
1.0510309e-07
1.0509996e-07
1.0509681e-07
1.0509351e-07
1.0508988e-07
1.0508576e-07
1.0508167e-07
1.050772e-07
1.0507247e-07
1.050668e-07
7.3129942e-09
5.7350142e-08
1.0382297e-07
1.0809505e-07
1.0737929e-07
1.0694685e-07
1.0687455e-07
1.0688035e-07
1.0688121e-07
1.0687798e-07
1.0687557e-07
1.0687292e-07
1.0687125e-07
1.0686867e-07
1.0686578e-07
1.0686319e-07
1.068612e-07
1.0685952e-07
1.0685703e-07
1.0685432e-07
1.0685188e-07
1.068496e-07
1.0684739e-07
1.0684534e-07
1.0684341e-07
1.0684154e-07
1.0683971e-07
1.068379e-07
1.068361e-07
1.0683432e-07
1.0683254e-07
1.0683076e-07
1.0682899e-07
1.068272e-07
1.068254e-07
1.0682378e-07
1.0682296e-07
1.0682308e-07
1.068224e-07
1.0681955e-07
1.0681606e-07
1.0681304e-07
1.0681092e-07
1.0680961e-07
1.068076e-07
1.0680466e-07
1.0680212e-07
1.0679943e-07
1.0679673e-07
1.0679413e-07
1.0679137e-07
1.0678864e-07
1.067858e-07
1.0678273e-07
1.0677908e-07
1.067755e-07
1.0677165e-07
1.0676751e-07
1.0676246e-07
1.1185969e-08
7.0867584e-08
1.0727838e-07
1.0970032e-07
1.0897295e-07
1.0872958e-07
1.0870722e-07
1.0871237e-07
1.0870971e-07
1.0870638e-07
1.0870464e-07
1.0870211e-07
1.0870079e-07
1.0869811e-07
1.0869536e-07
1.0869304e-07
1.0869151e-07
1.0869012e-07
1.0868759e-07
1.0868496e-07
1.0868279e-07
1.0868079e-07
1.0867885e-07
1.0867706e-07
1.0867539e-07
1.0867378e-07
1.086722e-07
1.0867065e-07
1.0866912e-07
1.0866761e-07
1.0866613e-07
1.0866465e-07
1.0866318e-07
1.0866172e-07
1.0866024e-07
1.0865887e-07
1.0865815e-07
1.0865861e-07
1.0865904e-07
1.0865681e-07
1.0865335e-07
1.086505e-07
1.0864871e-07
1.0864787e-07
1.0864677e-07
1.0864418e-07
1.0864227e-07
1.086401e-07
1.0863791e-07
1.0863598e-07
1.0863383e-07
1.0863177e-07
1.0862965e-07
1.0862742e-07
1.0862462e-07
1.0862181e-07
1.0861899e-07
1.0861577e-07
1.0861178e-07
1.6940686e-08
8.6037421e-08
1.0959238e-07
1.1120714e-07
1.1079121e-07
1.1070221e-07
1.106997e-07
1.1070023e-07
1.1069704e-07
1.1069462e-07
1.1069377e-07
1.1069145e-07
1.1069068e-07
1.1068815e-07
1.1068584e-07
1.1068414e-07
1.1068328e-07
1.1068226e-07
1.1067984e-07
1.106776e-07
1.1067598e-07
1.1067444e-07
1.1067293e-07
1.1067159e-07
1.1067034e-07
1.1066915e-07
1.10668e-07
1.1066688e-07
1.1066579e-07
1.1066473e-07
1.1066369e-07
1.1066269e-07
1.106617e-07
1.1066073e-07
1.1065978e-07
1.1065889e-07
1.1065847e-07
1.1065914e-07
1.1066064e-07
1.1065954e-07
1.1065639e-07
1.1065393e-07
1.1065265e-07
1.1065236e-07
1.1065238e-07
1.1065037e-07
1.1064939e-07
1.1064796e-07
1.1064651e-07
1.1064548e-07
1.1064425e-07
1.106431e-07
1.1064198e-07
1.1064084e-07
1.1063929e-07
1.1063756e-07
1.1063616e-07
1.1063425e-07
1.106318e-07
2.4934009e-08
1.0254134e-07
1.1276834e-07
1.1294082e-07
1.1284754e-07
1.1284204e-07
1.1284268e-07
1.1284144e-07
1.1283936e-07
1.1283829e-07
1.1283817e-07
1.1283651e-07
1.1283617e-07
1.1283455e-07
1.1283314e-07
1.1283247e-07
1.1283231e-07
1.1283174e-07
1.1282998e-07
1.1282872e-07
1.1282798e-07
1.1282716e-07
1.1282635e-07
1.128257e-07
1.1282511e-07
1.1282456e-07
1.1282404e-07
1.1282355e-07
1.128231e-07
1.1282268e-07
1.128223e-07
1.1282195e-07
1.1282162e-07
1.1282133e-07
1.1282105e-07
1.1282082e-07
1.1282086e-07
1.1282145e-07
1.1282341e-07
1.1282355e-07
1.1282158e-07
1.1282018e-07
1.1281973e-07
1.1282002e-07
1.1282059e-07
1.1281999e-07
1.1282008e-07
1.128197e-07
1.1281936e-07
1.1281936e-07
1.1281934e-07
1.1281932e-07
1.1281938e-07
1.1281947e-07
1.1281941e-07
1.1281917e-07
1.1281929e-07
1.1281909e-07
1.1281868e-07
8.5580691e-08
8.5578997e-08
8.557787e-08
8.5579125e-08
8.5579822e-08
8.5580733e-08
8.5581602e-08
8.5582505e-08
8.5583428e-08
8.5584361e-08
8.558529e-08
8.558621e-08
8.5587121e-08
8.5588034e-08
8.5588957e-08
8.5589891e-08
8.5590832e-08
8.5591771e-08
8.5592697e-08
8.5593597e-08
8.5594458e-08
8.5595251e-08
8.5595902e-08
8.5596323e-08
8.5596483e-08
8.5596443e-08
8.5596324e-08
8.5596235e-08
8.5596207e-08
8.5596212e-08
8.5596209e-08
8.5596183e-08
8.5596143e-08
8.5596097e-08
8.5596022e-08
8.5595875e-08
8.5595624e-08
8.5595272e-08
8.5594859e-08
8.5594347e-08
8.5593202e-08
8.5589927e-08
8.5582914e-08
8.5575284e-08
8.5585269e-08
8.5657463e-08
8.5858052e-08
8.622443e-08
8.6638911e-08
8.6622082e-08
8.509625e-08
8.0243558e-08
6.9400539e-08
5.0694135e-08
2.7065104e-08
8.6667072e-09
1.6528188e-09
4.725695e-10
6.3430091e-10
8.5871321e-08
8.5869871e-08
8.5869687e-08
8.5870727e-08
8.5871549e-08
8.5872433e-08
8.5873321e-08
8.587423e-08
8.5875157e-08
8.587609e-08
8.5877016e-08
8.5877931e-08
8.5878837e-08
8.5879745e-08
8.5880663e-08
8.5881595e-08
8.5882534e-08
8.5883473e-08
8.5884398e-08
8.5885294e-08
8.588615e-08
8.5886936e-08
8.5887576e-08
8.5887984e-08
8.5888131e-08
8.5888077e-08
8.5887952e-08
8.5887863e-08
8.5887836e-08
8.5887837e-08
8.5887828e-08
8.5887796e-08
8.5887751e-08
8.5887701e-08
8.5887622e-08
8.5887475e-08
8.5887232e-08
8.5886896e-08
8.588648e-08
8.588588e-08
8.588454e-08
8.5881154e-08
8.5874583e-08
8.586815e-08
8.5878788e-08
8.5947347e-08
8.6135754e-08
8.6484332e-08
8.6898314e-08
8.6951073e-08
8.5637677e-08
8.1171213e-08
7.1021704e-08
5.2914124e-08
2.9109344e-08
9.6576816e-09
1.8015662e-09
4.4050129e-10
5.689739e-10
8.6191048e-08
8.6189798e-08
8.618997e-08
8.6190945e-08
8.6191814e-08
8.6192702e-08
8.6193605e-08
8.6194525e-08
8.6195459e-08
8.6196397e-08
8.6197325e-08
8.6198241e-08
8.6199145e-08
8.6200051e-08
8.6200968e-08
8.6201899e-08
8.6202838e-08
8.6203776e-08
8.6204699e-08
8.620559e-08
8.620644e-08
8.620722e-08
8.6207856e-08
8.6208259e-08
8.6208398e-08
8.6208335e-08
8.6208205e-08
8.6208114e-08
8.6208086e-08
8.6208086e-08
8.6208076e-08
8.6208041e-08
8.6207995e-08
8.6207947e-08
8.6207878e-08
8.6207744e-08
8.6207513e-08
8.6207182e-08
8.6206777e-08
8.620627e-08
8.6205276e-08
8.6202607e-08
8.6196634e-08
8.6188594e-08
8.619104e-08
8.6239622e-08
8.6396337e-08
8.6718627e-08
8.7159661e-08
8.7376754e-08
8.6469513e-08
8.2735161e-08
7.3614031e-08
5.6364708e-08
3.2259923e-08
1.1186332e-08
2.041379e-09
4.2206645e-10
5.0524497e-10
8.6543291e-08
8.6542314e-08
8.6542832e-08
8.6543757e-08
8.6544663e-08
8.6545556e-08
8.6546469e-08
8.6547397e-08
8.6548336e-08
8.6549275e-08
8.6550202e-08
8.6551114e-08
8.6552014e-08
8.6552915e-08
8.6553828e-08
8.6554756e-08
8.6555694e-08
8.6556631e-08
8.6557549e-08
8.6558433e-08
8.6559275e-08
8.6560048e-08
8.6560675e-08
8.6561066e-08
8.6561192e-08
8.6561115e-08
8.6560978e-08
8.6560887e-08
8.6560859e-08
8.6560859e-08
8.6560847e-08
8.656081e-08
8.6560761e-08
8.6560714e-08
8.6560651e-08
8.656053e-08
8.6560313e-08
8.6559993e-08
8.655959e-08
8.6559105e-08
8.6558265e-08
8.6556091e-08
8.6550925e-08
8.6542853e-08
8.6540965e-08
8.6575221e-08
8.6703818e-08
8.6993095e-08
8.7433948e-08
8.7761974e-08
8.718548e-08
8.410128e-08
7.5978073e-08
5.971215e-08
3.5566523e-08
1.2924848e-08
2.3584505e-09
4.1406004e-10
4.5200907e-10
8.6932031e-08
8.6931398e-08
8.6932134e-08
8.693304e-08
8.6933963e-08
8.6934865e-08
8.6935786e-08
8.693672e-08
8.6937661e-08
8.6938598e-08
8.6939521e-08
8.6940426e-08
8.694132e-08
8.6942215e-08
8.6943123e-08
8.6944047e-08
8.6944981e-08
8.6945915e-08
8.6946827e-08
8.6947701e-08
8.6948532e-08
8.6949296e-08
8.6949912e-08
8.6950289e-08
8.6950396e-08
8.6950303e-08
8.6950158e-08
8.6950067e-08
8.6950042e-08
8.6950042e-08
8.6950029e-08
8.694999e-08
8.6949939e-08
8.6949893e-08
8.6949838e-08
8.6949731e-08
8.6949531e-08
8.6949225e-08
8.694883e-08
8.694837e-08
8.6947684e-08
8.6945994e-08
8.6941668e-08
8.6933792e-08
8.6928155e-08
8.6948812e-08
8.7048833e-08
8.7300524e-08
8.7729121e-08
8.8149175e-08
8.7888787e-08
8.5463362e-08
7.8392217e-08
6.3268892e-08
3.9300447e-08
1.5020082e-08
2.7829176e-09
4.170785e-10
4.0333651e-10
8.7361957e-08
8.7361709e-08
8.7362591e-08
8.7363497e-08
8.7364426e-08
8.7365336e-08
8.7366261e-08
8.7367197e-08
8.7368136e-08
8.7369068e-08
8.7369983e-08
8.7370878e-08
8.7371761e-08
8.7372647e-08
8.7373548e-08
8.7374466e-08
8.7375396e-08
8.7376323e-08
8.7377225e-08
8.7378085e-08
8.7378905e-08
8.7379657e-08
8.7380258e-08
8.7380616e-08
8.73807e-08
8.7380585e-08
8.7380431e-08
8.7380343e-08
8.7380321e-08
8.7380322e-08
8.7380309e-08
8.7380268e-08
8.7380215e-08
8.738017e-08
8.7380123e-08
8.7380032e-08
8.7379853e-08
8.7379564e-08
8.7379179e-08
8.7378732e-08
8.737815e-08
8.7376869e-08
8.7373422e-08
8.7366273e-08
8.7358381e-08
8.7367853e-08
8.7440876e-08
8.7651155e-08
8.8051611e-08
8.8531749e-08
8.8547378e-08
8.6754697e-08
8.0748805e-08
6.6934e-08
4.3411428e-08
1.7517182e-08
3.3360025e-09
4.342873e-10
3.6234092e-10
8.783864e-08
8.7838736e-08
8.7839694e-08
8.784061e-08
8.7841539e-08
8.7842453e-08
8.7843379e-08
8.7844312e-08
8.7845245e-08
8.7846167e-08
8.7847069e-08
8.7847949e-08
8.7848818e-08
8.7849692e-08
8.7850583e-08
8.7851492e-08
8.7852413e-08
8.785333e-08
8.7854217e-08
8.785506e-08
8.7855864e-08
8.7856601e-08
8.7857184e-08
8.7857518e-08
8.7857572e-08
8.785743e-08
8.7857266e-08
8.7857181e-08
8.7857163e-08
8.7857167e-08
8.7857154e-08
8.7857113e-08
8.7857058e-08
8.7857014e-08
8.7856975e-08
8.7856903e-08
8.7856747e-08
8.7856482e-08
8.7856113e-08
8.7855676e-08
8.7855165e-08
8.7854213e-08
8.7851602e-08
8.7845493e-08
8.7836561e-08
8.7837252e-08
8.7885694e-08
8.8052837e-08
8.8411995e-08
8.8920952e-08
8.9167638e-08
8.797476e-08
8.2981027e-08
7.068661e-08
4.7921344e-08
2.0515938e-08
4.0625789e-09
4.6937216e-10
3.2693507e-10
8.8368606e-08
8.8368979e-08
8.8369963e-08
8.8370887e-08
8.837181e-08
8.8372723e-08
8.8373644e-08
8.8374569e-08
8.8375489e-08
8.8376395e-08
8.8377277e-08
8.8378136e-08
8.8378986e-08
8.8379842e-08
8.8380718e-08
8.8381614e-08
8.8382522e-08
8.8383423e-08
8.8384289e-08
8.8385109e-08
8.8385894e-08
8.8386613e-08
8.8387172e-08
8.8387475e-08
8.8387491e-08
8.8387316e-08
8.8387142e-08
8.8387061e-08
8.8387049e-08
8.8387055e-08
8.8387043e-08
8.8387002e-08
8.8386946e-08
8.8386904e-08
8.8386875e-08
8.8386824e-08
8.8386694e-08
8.8386458e-08
8.8386113e-08
8.8385689e-08
8.8385219e-08
8.8384511e-08
8.8382648e-08
8.8377782e-08
8.8368957e-08
8.8363508e-08
8.839082e-08
8.8515153e-08
8.8822061e-08
8.9327859e-08
8.9749296e-08
8.9100698e-08
8.5198999e-08
7.4463208e-08
5.2810059e-08
2.4102809e-08
5.0210888e-09
5.2459529e-10
2.9700652e-10
8.8959626e-08
8.8960178e-08
8.8961168e-08
8.8962093e-08
8.8963005e-08
8.8963909e-08
8.8964818e-08
8.8965726e-08
8.8966626e-08
8.8967507e-08
8.896836e-08
8.896919e-08
8.8970011e-08
8.8970844e-08
8.8971698e-08
8.8972574e-08
8.8973463e-08
8.8974341e-08
8.8975176e-08
8.8975966e-08
8.8976727e-08
8.8977423e-08
8.8977951e-08
8.8978215e-08
8.8978184e-08
8.8977967e-08
8.8977784e-08
8.8977709e-08
8.8977703e-08
8.8977712e-08
8.8977702e-08
8.8977661e-08
8.8977606e-08
8.8977566e-08
8.8977548e-08
8.8977522e-08
8.8977424e-08
8.8977224e-08
8.8976913e-08
8.8976508e-08
8.8976062e-08
8.8975517e-08
8.897427e-08
8.8970687e-08
8.8962882e-08
8.8953905e-08
8.8964375e-08
8.90486e-08
8.9295842e-08
8.9769045e-08
9.0307985e-08
9.0130249e-08
8.7269026e-08
7.8212012e-08
5.8041016e-08
2.8370376e-08
6.2870122e-09
6.0892259e-10
2.7235146e-10
8.9621024e-08
8.9621682e-08
8.9622663e-08
8.9623577e-08
8.962447e-08
8.9625356e-08
8.9626241e-08
8.9627123e-08
8.9627991e-08
8.9628834e-08
8.9629647e-08
8.9630435e-08
8.9631219e-08
8.9632018e-08
8.9632841e-08
8.9633689e-08
8.9634549e-08
8.9635391e-08
8.9636185e-08
8.9636937e-08
8.9637668e-08
8.9638333e-08
8.9638821e-08
8.9639036e-08
8.9638944e-08
8.9638674e-08
8.9638484e-08
8.9638418e-08
8.9638417e-08
8.963843e-08
8.9638422e-08
8.9638385e-08
8.9638332e-08
8.9638295e-08
8.9638289e-08
8.9638293e-08
8.9638235e-08
8.9638079e-08
8.9637813e-08
8.9637441e-08
8.9637016e-08
8.9636565e-08
8.9635765e-08
8.963338e-08
8.9627208e-08
8.9617085e-08
8.9615537e-08
8.9664713e-08
8.9849278e-08
9.0263946e-08
9.0859217e-08
9.1068257e-08
8.9184436e-08
8.1827389e-08
6.354904e-08
3.3406865e-08
7.971991e-09
7.3112566e-10
2.5318304e-10
9.0364116e-08
9.0364827e-08
9.0365783e-08
9.0366672e-08
9.0367534e-08
9.0368388e-08
9.0369237e-08
9.0370077e-08
9.0370898e-08
9.0371687e-08
9.0372443e-08
9.0373175e-08
9.0373907e-08
9.037466e-08
9.037544e-08
9.0376246e-08
9.0377065e-08
9.0377856e-08
9.0378594e-08
9.0379295e-08
9.0379988e-08
9.0380613e-08
9.038105e-08
9.0381204e-08
9.0381033e-08
9.0380695e-08
9.0380501e-08
9.0380448e-08
9.0380453e-08
9.0380468e-08
9.0380464e-08
9.0380431e-08
9.0380384e-08
9.0380352e-08
9.0380361e-08
9.0380403e-08
9.0380392e-08
9.0380289e-08
9.0380083e-08
9.0379765e-08
9.0379368e-08
9.037897e-08
9.0378459e-08
9.0377046e-08
9.0372773e-08
9.0363436e-08
9.035479e-08
9.0375979e-08
9.0499996e-08
9.0837074e-08
9.1427919e-08
9.1920745e-08
9.0919801e-08
8.5096891e-08
6.9240141e-08
3.928078e-08
1.0226574e-08
9.0274733e-10
2.4041832e-10
9.1202591e-08
9.1203335e-08
9.1204251e-08
9.12051e-08
9.1205917e-08
9.1206722e-08
9.1207517e-08
9.1208298e-08
9.1209053e-08
9.120977e-08
9.1210448e-08
9.1211106e-08
9.121177e-08
9.1212461e-08
9.1213182e-08
9.1213932e-08
9.1214691e-08
9.1215411e-08
9.1216072e-08
9.1216712e-08
9.1217357e-08
9.1217931e-08
9.1218302e-08
9.1218383e-08
9.1218099e-08
9.1217684e-08
9.1217486e-08
9.1217454e-08
9.1217462e-08
9.1217481e-08
9.1217481e-08
9.1217457e-08
9.1217419e-08
9.1217395e-08
9.1217423e-08
9.1217509e-08
9.1217559e-08
9.1217523e-08
9.1217392e-08
9.121715e-08
9.1216802e-08
9.1216448e-08
9.1216098e-08
9.1215377e-08
9.1212875e-08
9.120564e-08
9.1194382e-08
9.1195947e-08
9.1266558e-08
9.1516067e-08
9.2048894e-08
9.2705242e-08
9.2443821e-08
8.8338139e-08
7.4973967e-08
4.6020422e-08
1.3258379e-08
1.142466e-09
2.3673049e-10
9.2152541e-08
9.2153328e-08
9.2154211e-08
9.2155006e-08
9.2155762e-08
9.2156502e-08
9.2157229e-08
9.2157938e-08
9.2158609e-08
9.2159233e-08
9.2159816e-08
9.2160384e-08
9.2160967e-08
9.2161584e-08
9.2162235e-08
9.2162914e-08
9.2163592e-08
9.2164217e-08
9.2164781e-08
9.2165349e-08
9.2165941e-08
9.2166452e-08
9.2166747e-08
9.2166736e-08
9.2166272e-08
9.216581e-08
9.2165614e-08
9.2165597e-08
9.216561e-08
9.216563e-08
9.2165642e-08
9.2165628e-08
9.2165605e-08
9.2165596e-08
9.2165652e-08
9.2165785e-08
9.2165903e-08
9.2165949e-08
9.2165912e-08
9.216577e-08
9.2165502e-08
9.21652e-08
9.2164939e-08
9.2164626e-08
9.2163484e-08
9.2158914e-08
9.2148556e-08
9.2139144e-08
9.2167732e-08
9.2329682e-08
9.2765032e-08
9.3477674e-08
9.3779034e-08
9.122182e-08
8.0619387e-08
5.358782e-08
1.733944e-08
1.5040487e-09
2.4568713e-10
9.3230424e-08
9.3231359e-08
9.3232219e-08
9.3232959e-08
9.3233661e-08
9.3234345e-08
9.3235013e-08
9.3235656e-08
9.3236247e-08
9.3236778e-08
9.3237266e-08
9.3237746e-08
9.3238249e-08
9.3238793e-08
9.3239379e-08
9.3239998e-08
9.3240602e-08
9.3241121e-08
9.324158e-08
9.3242085e-08
9.3242639e-08
9.3243099e-08
9.3243323e-08
9.3243141e-08
9.3242483e-08
9.3242034e-08
9.3241863e-08
9.3241843e-08
9.3241861e-08
9.3241886e-08
9.3241914e-08
9.3241919e-08
9.3241918e-08
9.324193e-08
9.3242023e-08
9.3242206e-08
9.3242388e-08
9.3242526e-08
9.3242595e-08
9.3242573e-08
9.3242412e-08
9.324217e-08
9.3241957e-08
9.324182e-08
9.3241517e-08
9.3239425e-08
9.3232081e-08
9.3219333e-08
9.3219966e-08
9.3304339e-08
9.3617449e-08
9.4285532e-08
9.4970123e-08
9.3771445e-08
8.5924794e-08
6.1865385e-08
2.2783679e-08
2.0838495e-09
2.6584677e-10
6.9642071e-10
7.2960917e-10
7.5033315e-10
7.6504372e-10
7.7735993e-10
7.8845793e-10
7.9832488e-10
8.066285e-10
8.1307137e-10
8.1744716e-10
8.1957203e-10
8.192586e-10
8.1627888e-10
8.1035292e-10
8.0113394e-10
7.8821985e-10
7.7115633e-10
7.4947123e-10
7.2270516e-10
6.9045706e-10
6.5247378e-10
6.0879884e-10
5.5983097e-10
5.0617317e-10
4.4858437e-10
3.882295e-10
3.2693431e-10
2.6566921e-10
2.0752761e-10
1.550849e-10
1.1039759e-10
7.6530053e-11
5.5481903e-11
4.5703915e-11
4.8557717e-11
6.6545948e-11
9.8300113e-11
1.3730812e-10
1.8149194e-10
2.3077296e-10
2.8454317e-10
3.4133881e-10
4.0106978e-10
4.6068032e-10
5.1924387e-10
5.7635921e-10
6.3120641e-10
6.8292478e-10
7.3109277e-10
7.7570928e-10
8.1691684e-10
8.5492329e-10
8.8985291e-10
9.2171332e-10
9.5069399e-10
9.7715357e-10
1.001373e-09
1.0235409e-09
1.0438654e-09
1.0625485e-09
1.0797135e-09
1.095448e-09
1.109852e-09
1.1230325e-09
1.1350948e-09
1.1461377e-09
1.1562548e-09
1.1655313e-09
1.1740457e-09
1.181865e-09
1.1890536e-09
1.1956507e-09
1.2017306e-09
1.2072737e-09
5.186186e-10
5.5169007e-10
5.8205885e-10
6.0948088e-10
6.3302434e-10
6.5284326e-10
6.6935167e-10
6.8288922e-10
6.9367253e-10
7.0185883e-10
7.0756138e-10
7.1084223e-10
7.1169084e-10
7.1001343e-10
7.0562405e-10
6.9825379e-10
6.8755798e-10
6.7314e-10
6.5458127e-10
6.3146958e-10
6.0348192e-10
5.7003021e-10
5.3068796e-10
4.8591262e-10
4.3663497e-10
3.8406615e-10
3.2990231e-10
2.7593572e-10
2.239133e-10
1.7571906e-10
1.3426132e-10
9.8450222e-11
7.1031413e-11
5.4526188e-11
4.7701333e-11
5.1308726e-11
6.5684551e-11
8.8291595e-11
1.1698871e-10
1.5050334e-10
1.8805241e-10
2.286822e-10
2.7221965e-10
3.1720739e-10
3.6249069e-10
4.0754871e-10
4.5182969e-10
4.9469899e-10
5.3562021e-10
5.7429835e-10
6.1060933e-10
6.4454905e-10
6.7615981e-10
7.0543036e-10
7.3240799e-10
7.5722675e-10
7.8004699e-10
8.0102023e-10
8.2029014e-10
8.3800482e-10
8.5429924e-10
8.6928685e-10
8.8306913e-10
8.9573977e-10
9.0738586e-10
9.1808939e-10
9.2792576e-10
9.3696679e-10
9.4527718e-10
9.5291862e-10
9.5994696e-10
9.6641058e-10
9.7236319e-10
9.7782196e-10
1.407888e-09
1.1793722e-09
9.9614058e-10
8.5348059e-10
7.4856499e-10
6.7554135e-10
6.2790411e-10
6.0118255e-10
5.9068145e-10
5.9117678e-10
5.9818834e-10
6.0817714e-10
6.1864351e-10
6.2785921e-10
6.346984e-10
6.384774e-10
6.387941e-10
6.3539997e-10
6.2810411e-10
6.1671666e-10
6.0106235e-10
5.8088637e-10
5.5587242e-10
5.2591362e-10
4.9122297e-10
4.5231936e-10
4.1009187e-10
3.6565326e-10
3.2001014e-10
2.7456792e-10
2.3107042e-10
1.9116729e-10
1.5555307e-10
1.2573602e-10
1.034217e-10
8.949238e-11
8.3063283e-11
8.3444618e-11
8.9884331e-11
1.0144027e-10
1.1754354e-10
1.3733388e-10
1.6022244e-10
1.8550057e-10
2.1243382e-10
2.4043878e-10
2.6902611e-10
2.9775207e-10
3.262062e-10
3.5404924e-10
3.81021e-10
4.0694743e-10
4.3169314e-10
4.5507236e-10
4.7702451e-10
4.9754958e-10
5.1669991e-10
5.3452029e-10
5.5109146e-10
5.6650854e-10
5.8084515e-10
5.9416681e-10
6.0653549e-10
6.1801044e-10
6.2864875e-10
6.3850523e-10
6.4763213e-10
6.5607938e-10
6.6389435e-10
6.7112193e-10
6.7780557e-10
6.8398529e-10
6.8970181e-10
6.9497825e-10
6.55459e-09
4.6892817e-09
3.4027413e-09
2.55004e-09
1.9967705e-09
1.6232163e-09
1.3543664e-09
1.1454354e-09
9.7755009e-10
8.4515723e-10
7.4851497e-10
6.7934577e-10
6.3331905e-10
6.0581339e-10
5.9207618e-10
5.8780851e-10
5.8922081e-10
5.9332713e-10
5.9766839e-10
6.0022087e-10
5.9916535e-10
5.9367982e-10
5.8383047e-10
5.696953e-10
5.5134552e-10
5.2894521e-10
5.0280748e-10
4.7353259e-10
4.419553e-10
4.0872384e-10
3.744046e-10
3.4007197e-10
3.0653464e-10
2.7430787e-10
2.4460617e-10
2.1889941e-10
1.9726253e-10
1.8077046e-10
1.6879789e-10
1.6096525e-10
1.565696e-10
1.5526647e-10
1.5689475e-10
1.6107546e-10
1.6739824e-10
1.7547165e-10
1.849119e-10
1.9541203e-10
2.0669418e-10
2.185063e-10
2.3062158e-10
2.4284786e-10
2.5503322e-10
2.6704592e-10
2.7877583e-10
2.9013744e-10
3.0106827e-10
3.1152637e-10
3.2148676e-10
3.3093745e-10
3.3987573e-10
3.4830607e-10
3.5623827e-10
3.6368604e-10
3.7066598e-10
3.7719669e-10
3.8329812e-10
3.8899104e-10
3.9429658e-10
3.9923599e-10
4.0382987e-10
4.08096e-10
4.1205884e-10
4.1572173e-10
2.1841964e-08
1.6382276e-08
1.2029732e-08
8.7342772e-09
6.3427004e-09
4.6581557e-09
3.5045391e-09
2.7136942e-09
2.1537147e-09
1.7613152e-09
1.4758702e-09
1.2587798e-09
1.0862735e-09
9.465209e-10
8.3336361e-10
7.4849016e-10
6.8553089e-10
6.4158553e-10
6.1334476e-10
5.9832892e-10
5.9331678e-10
5.9359564e-10
5.9535069e-10
5.9543965e-10
5.9261598e-10
5.8668458e-10
5.7765929e-10
5.656352e-10
5.5088512e-10
5.3374942e-10
5.1451555e-10
4.9358454e-10
4.7144273e-10
4.4819306e-10
4.2508973e-10
4.0230156e-10
3.8016518e-10
3.5977532e-10
3.4159676e-10
3.2575795e-10
3.117091e-10
3.0001925e-10
2.9037981e-10
2.8260017e-10
2.7651023e-10
2.7191812e-10
2.6863501e-10
2.6645666e-10
2.6521575e-10
2.6474339e-10
2.6491367e-10
2.6562522e-10
2.6678185e-10
2.6829426e-10
2.7008088e-10
2.7207474e-10
2.7421494e-10
2.7644932e-10
2.7873659e-10
2.8104246e-10
2.8333849e-10
2.8560206e-10
2.8781557e-10
2.8996547e-10
2.9204165e-10
2.9403678e-10
2.9594597e-10
2.9776631e-10
2.9949657e-10
3.0113678e-10
3.0268821e-10
3.0415218e-10
3.0553401e-10
3.0682507e-10
4.3898439e-08
3.5788546e-08
2.8326191e-08
2.1893055e-08
1.6605903e-08
1.2434118e-08
9.2610342e-09
6.9173831e-09
5.2053152e-09
3.9768454e-09
3.0999959e-09
2.476624e-09
2.0271793e-09
1.6920048e-09
1.441976e-09
1.2488243e-09
1.0953649e-09
9.6911239e-10
8.6514246e-10
7.8151364e-10
7.1848494e-10
6.7308456e-10
6.4446987e-10
6.28585e-10
6.2110365e-10
6.1833235e-10
6.175558e-10
6.162316e-10
6.1352465e-10
6.0924143e-10
6.0338848e-10
5.9603076e-10
5.8736062e-10
5.7755356e-10
5.6677644e-10
5.5526607e-10
5.4336784e-10
5.3088202e-10
5.1824947e-10
5.0623517e-10
4.9496678e-10
4.845114e-10
4.7485739e-10
4.6616346e-10
4.5829936e-10
4.5119955e-10
4.4484617e-10
4.3919972e-10
4.3420707e-10
4.2980682e-10
4.2594309e-10
4.225658e-10
4.1961815e-10
4.1704867e-10
4.1481147e-10
4.1286675e-10
4.1117941e-10
4.0971908e-10
4.0845734e-10
4.0736909e-10
4.0643261e-10
4.0562888e-10
4.0494103e-10
4.0435414e-10
4.0385524e-10
4.0343278e-10
4.0307655e-10
4.0277823e-10
4.025306e-10
4.023274e-10
4.0216314e-10
4.0203337e-10
4.0193383e-10
4.0186246e-10
6.359124e-08
5.5747172e-08