/*--------------------------------*- C++ -*----------------------------------*\
| =========                 |                                                 |
| \\      /  F ield         | OpenFOAM: The Open Source CFD Toolbox           |
|  \\    /   O peration     | Version:  v2006                                 |
|   \\  /    A nd           | Website:  www.openfoam.com                      |
|    \\/     M anipulation  |                                                 |
\*---------------------------------------------------------------------------*/
FoamFile
{
    version     2.0;
    format      ascii;
    class       volScalarField;
    location    "10000";
    object      omega;
}
// * * * * * * * * * * * * * * * * * * * * * * * * * * * * * * * * * * * * * //

dimensions      [0 0 -1 0 0 0 0];


internalField   nonuniform List<scalar> 
55713
(
5.6488847
1.3887737
0.45951016
0.29936572
0.26964655
0.26238359
0.26188539
0.26264615
0.2632042
0.26342837
0.26347515
0.26346761
0.2634559
0.26345007
0.26344925
0.26344957
0.26344968
0.26344983
0.26345023
0.26345045
0.26344987
0.26344852
0.26344695
0.26344561
0.26344447
0.26344328
0.26344192
0.26344039
0.26343869
0.26343666
0.26343452
0.26343221
0.26342978
0.26342727
0.26342467
0.26342186
0.26341866
0.26341509
0.26341123
0.26340719
0.2634031
0.26339882
0.26339411
0.263389
0.26338392
0.26337896
0.26337404
0.26336901
0.26336386
0.26335854
0.26335302
0.26334727
0.26334134
0.26333531
0.26332912
0.26332288
0.26331703
0.26331198
0.26330743
5.1536876
1.2776688
0.4386147
0.30194987
0.27782345
0.27271755
0.27281063
0.27361254
0.27407995
0.27422884
0.27424033
0.27422121
0.27420539
0.27419641
0.27419137
0.27418675
0.27418171
0.27417703
0.27417297
0.27416872
0.27416373
0.2741579
0.2741521
0.27414665
0.27414146
0.27413619
0.27413079
0.27412527
0.27411961
0.27411367
0.27410759
0.27410137
0.27409499
0.27408857
0.27408206
0.27407537
0.2740682
0.2740605
0.27405241
0.27404403
0.27403557
0.27402692
0.27401774
0.27400789
0.27399784
0.27398783
0.2739777
0.27396728
0.27395652
0.27394535
0.27393367
0.27392139
0.27390849
0.27389501
0.27388082
0.27386583
0.27385034
0.27383467
0.27381886
4.7199265
1.1857485
0.42333782
0.30680992
0.28770566
0.2841528
0.28465952
0.28545984
0.28583054
0.28591285
0.28589763
0.2858707
0.28585146
0.28583916
0.28582944
0.28581965
0.28580938
0.28579976
0.28579101
0.28578224
0.28577271
0.28576233
0.28575228
0.2857427
0.28573344
0.28572402
0.28571454
0.28570502
0.28569535
0.28568549
0.28567541
0.28566527
0.28565492
0.28564455
0.28563414
0.28562359
0.28561253
0.2856007
0.28558837
0.28557564
0.2855628
0.2855498
0.2855362
0.28552168
0.28550669
0.28549164
0.28547637
0.28546064
0.28544435
0.28542742
0.28540971
0.28539104
0.2853713
0.28535052
0.28532853
0.28530501
0.28528012
0.28525413
0.28522723
4.3379167
1.1020593
0.41220367
0.31372549
0.29890872
0.29676723
0.29761413
0.29835667
0.29861915
0.29864504
0.29861142
0.29858001
0.29855799
0.29854174
0.29852711
0.29851216
0.29849684
0.29848234
0.29846885
0.29845554
0.29844139
0.29842656
0.29841228
0.29839871
0.29838533
0.29837181
0.2983583
0.2983448
0.29833124
0.29831746
0.29830354
0.29828947
0.29827526
0.29826095
0.29824669
0.29823237
0.29821759
0.29820174
0.29818519
0.29816817
0.29815095
0.29813369
0.29811582
0.29809677
0.29807691
0.2980569
0.29803659
0.29801562
0.29799391
0.29797133
0.29794772
0.2979228
0.29789637
0.29786839
0.29783872
0.29780683
0.29777267
0.2977365
0.29769862
3.999819
1.0265071
0.40514609
0.32284343
0.31162569
0.31072497
0.311798
0.3124288
0.31258608
0.31256963
0.31252539
0.31249127
0.31246637
0.31244556
0.31242584
0.31240585
0.31238573
0.31236641
0.31234821
0.31233028
0.31231153
0.31229239
0.31227405
0.31225662
0.31223917
0.31222162
0.31220416
0.31218677
0.31216946
0.31215187
0.31213424
0.31211636
0.31209839
0.31208027
0.31206224
0.31204433
0.31202608
0.31200644
0.3119858
0.31196459
0.31194311
0.31192172
0.31189984
0.31187654
0.31185202
0.31182721
0.31180208
0.31177612
0.31174923
0.31172127
0.31169202
0.3116612
0.3116284
0.31159354
0.31155655
0.31151672
0.31147369
0.3114278
0.31137939
3.6992436
0.95792033
0.40199627
0.33566641
0.32602315
0.32620724
0.32737153
0.32784944
0.32791698
0.32787076
0.32782227
0.32778639
0.32775803
0.32773234
0.3277075
0.32768279
0.32765824
0.32763434
0.32761148
0.32758888
0.32756579
0.32754253
0.32752049
0.32749932
0.32747798
0.32745657
0.32743531
0.32741427
0.32739331
0.3273722
0.32735097
0.32732958
0.32730803
0.32728635
0.32726471
0.32724339
0.32722221
0.32719912
0.32717463
0.3271494
0.32712383
0.32709852
0.32707301
0.32704592
0.32701708
0.32698779
0.32695817
0.32692758
0.32689591
0.32686296
0.32682851
0.32679228
0.32675364
0.32671241
0.32666861
0.3266215
0.32657023
0.32651532
0.32645704
3.430952
0.89550524
0.40270834
0.35097797
0.34257195
0.34346426
0.34452326
0.34483169
0.34483129
0.34477012
0.34472012
0.34468238
0.34464999
0.34461934
0.34458956
0.34456068
0.34453224
0.34450409
0.34447658
0.34444946
0.34442248
0.34439557
0.34437019
0.34434549
0.34432052
0.34429551
0.34427079
0.34424641
0.34422212
0.34419783
0.34417335
0.34414878
0.34412403
0.34409913
0.34407423
0.34404975
0.34402626
0.34400037
0.34397246
0.34394349
0.34391412
0.34388522
0.34385662
0.34382645
0.34379387
0.34376054
0.34372697
0.3436923
0.34365645
0.34361917
0.34358018
0.34353927
0.34349565
0.34344885
0.34339904
0.34334566
0.34328713
0.34322429
0.34315725
3.1906442
0.83859572
0.40727855
0.3664365
0.3614019
0.36266234
0.36348868
0.3636484
0.36359932
0.36353437
0.36348451
0.36344472
0.3634082
0.36337279
0.36333861
0.3633064
0.36327477
0.36324263
0.36321059
0.36317944
0.36314934
0.36311949
0.36309113
0.36306317
0.36303496
0.36300682
0.36297918
0.36295195
0.36292489
0.36289786
0.36287071
0.36284348
0.36281609
0.36278851
0.36276088
0.36273372
0.36270839
0.36268095
0.36265032
0.36261811
0.36258534
0.36255333
0.36252234
0.36249018
0.36245476
0.36241808
0.36238134
0.36234341
0.36230431
0.36226365
0.36222112
0.36217663
0.36212924
0.36207814
0.36202347
0.36196532
0.36190102
0.36183186
0.36175771
2.9748383
0.78667639
0.41562586
0.38513507
0.382616
0.38399691
0.38458378
0.38462968
0.38455815
0.38449281
0.38444309
0.38440102
0.38436084
0.38432126
0.38428374
0.3842495
0.38421529
0.38417932
0.3841432
0.38410905
0.38407713
0.38404527
0.3840143
0.38398347
0.38395263
0.38392217
0.3838924
0.38386307
0.383834
0.38380498
0.38377595
0.38374685
0.38371764
0.38368824
0.38365869
0.38362957
0.38360292
0.38357566
0.38354358
0.38350888
0.38347333
0.38343888
0.38340642
0.38337385
0.38333691
0.38329802
0.38325924
0.38321923
0.38317821
0.38313562
0.383091
0.3830445
0.38299507
0.38294162
0.38288377
0.38282297
0.38275515
0.38268196
0.38260317
2.7808786
0.73935365
0.42795182
0.40686275
0.4065405
0.40787616
0.40822508
0.40819372
0.40811574
0.40805273
0.40800392
0.40796026
0.40791721
0.40787465
0.40783564
0.40780109
0.40776442
0.40772506
0.4076861
0.40765075
0.40761879
0.40758592
0.40755283
0.40751988
0.4074875
0.4074559
0.40742512
0.40739482
0.40736481
0.40733491
0.40730511
0.40727531
0.40724548
0.40721551
0.40718531
0.40715538
0.40712825
0.4071027
0.4070717
0.40703575
0.40699825
0.4069624
0.40692966
0.40689882
0.40686235
0.40682295
0.40678386
0.40674345
0.40670244
0.40666002
0.40661544
0.40656916
0.40652011
0.40646714
0.40640866
0.40634812
0.40628016
0.40620616
0.40612635
2.6066036
0.696333
0.44532362
0.43230711
0.43367296
0.43477987
0.43492767
0.43485929
0.43478615
0.43472675
0.43467985
0.43463588
0.43459123
0.43454794
0.43451028
0.43447684
0.43443803
0.43439695
0.43435752
0.43432358
0.43429311
0.43426011
0.43422605
0.43419269
0.43416058
0.43412952
0.43409933
0.43406963
0.43404028
0.43401113
0.43398221
0.43395336
0.43392467
0.43389587
0.43386691
0.433838
0.43381173
0.43378933
0.43376335
0.43372816
0.43368998
0.43365432
0.43362327
0.43359631
0.43356369
0.43352615
0.43348949
0.43345093
0.4334126
0.43337349
0.43333199
0.43328907
0.43324377
0.43319525
0.43314022
0.43308373
0.43302077
0.43295031
0.43287475
2.4496155
0.65749695
0.4716253
0.46252177
0.46459737
0.4653291
0.46534268
0.46527421
0.46520935
0.46515524
0.46511291
0.46506992
0.46502641
0.4649866
0.46495409
0.46492203
0.46488351
0.46484455
0.46480906
0.46477832
0.46474921
0.46471752
0.46468563
0.46465512
0.46462609
0.46459805
0.46457079
0.46454398
0.46451766
0.46449163
0.46446598
0.4644405
0.46441536
0.46439027
0.46436524
0.46434009
0.46431706
0.46429963
0.46428237
0.46425195
0.46421537
0.46418259
0.46415602
0.46413534
0.46411143
0.46407895
0.4640491
0.46401532
0.46398322
0.46395201
0.46391781
0.46388258
0.46384574
0.46380672
0.46376174
0.46371392
0.46366361
0.46360246
0.46353862
2.3087501
0.6227312
0.50601673
0.49857205
0.5000032
0.5002931
0.50024877
0.50019807
0.50014781
0.50010494
0.5000724
0.50003386
0.49999662
0.49996779
0.4999443
0.49991214
0.499877
0.49984715
0.49982356
0.49979619
0.49976831
0.49974215
0.49971747
0.49969418
0.49967185
0.49965021
0.49962917
0.49960865
0.4995887
0.49956922
0.49955027
0.49953167
0.49951356
0.49949571
0.49947822
0.4994608
0.49944492
0.499435
0.49942875
0.49940916
0.49937889
0.49935322
0.49933515
0.49932356
0.49931275
0.49929007
0.4992729
0.4992486
0.49922842
0.4992102
0.4991894
0.49916739
0.49914549
0.49912185
0.49909554
0.49906275
0.49903438
0.49899154
0.4989494
2.1825581
0.59147098
0.54115062
0.54005636
0.54042264
0.54041012
0.54037958
0.54035242
0.54032307
0.54029904
0.54029026
0.54026375
0.54023712
0.54022217
0.54020799
0.54018309
0.54015965
0.54014633
0.5401463
0.54012599
0.54010328
0.54008807
0.54007533
0.54006356
0.54005236
0.5400418
0.5400318
0.54002247
0.54001367
0.54000554
0.53999795
0.53999097
0.53998452
0.5399786
0.53997317
0.53996823
0.53996425
0.53996497
0.53997188
0.53997003
0.53995298
0.53994282
0.5399393
0.53994033
0.53994209
0.53993852
0.53993804
0.53993404
0.53993337
0.53993301
0.53993263
0.53993124
0.53993119
0.53993015
0.53992971
0.5399239
0.53992421
0.53991487
0.53990758
0.17901138
0.17901071
0.17900963
0.17901294
0.17901546
0.17901849
0.17902156
0.17902471
0.17902789
0.17903106
0.17903419
0.17903727
0.17904027
0.17904318
0.17904602
0.17904878
0.17905149
0.17905417
0.17905682
0.17905937
0.17906173
0.17906384
0.17906568
0.17906727
0.17906867
0.17906991
0.17907092
0.17907165
0.17907209
0.17907224
0.17907209
0.17907163
0.17907088
0.17906987
0.17906865
0.17906723
0.17906562
0.17906376
0.1790616
0.17905914
0.17905675
0.17905526
0.1790554
0.17905525
0.17904545
0.17900461
0.17890174
0.1787167
0.17848917
0.17840245
0.17892622
0.18114471
0.18855545
0.21030517
0.27228772
0.4501505
0.99037872
3.1721017
15.453886
0.18146524
0.18146475
0.18146534
0.18146831
0.1814711
0.18147413
0.18147726
0.18148044
0.18148365
0.18148684
0.18148998
0.18149306
0.18149606
0.18149897
0.18150181
0.18150457
0.18150729
0.18151
0.18151267
0.18151523
0.18151759
0.1815197
0.18152154
0.18152312
0.18152453
0.18152577
0.18152676
0.18152746
0.18152788
0.18152801
0.18152783
0.18152735
0.18152658
0.18152556
0.18152433
0.18152291
0.18152128
0.18151941
0.18151723
0.1815148
0.18151248
0.18151103
0.181511
0.1815104
0.18150041
0.18146082
0.18136152
0.18118002
0.18094663
0.18082665
0.18126847
0.18338008
0.19012147
0.21031971
0.26860362
0.4376628
0.95583126
3.0647879
14.652002
0.18418936
0.18418908
0.18419031
0.1841932
0.18419611
0.18419918
0.18420237
0.18420561
0.18420886
0.18421207
0.18421524
0.18421834
0.18422135
0.18422428
0.18422712
0.18422989
0.18423263
0.18423537
0.18423806
0.18424062
0.18424299
0.1842451
0.18424693
0.18424853
0.18424996
0.1842512
0.1842522
0.1842529
0.18425333
0.18425346
0.1842533
0.18425283
0.18425208
0.18425108
0.18424987
0.18424848
0.18424688
0.18424504
0.1842429
0.18424045
0.18423797
0.18423621
0.18423601
0.18423643
0.18423049
0.18419983
0.18411367
0.18394239
0.18369911
0.18352085
0.1838077
0.18554021
0.1913237
0.2092662
0.26232315
0.41909364
0.90814821
2.9072983
13.854113
0.18722386
0.18722382
0.1872257
0.18722853
0.18723155
0.18723467
0.18723791
0.18724119
0.18724446
0.1872477
0.18725087
0.18725398
0.18725699
0.18725991
0.18726274
0.18726552
0.18726827
0.18727101
0.18727372
0.18727628
0.18727864
0.18728074
0.18728257
0.18728417
0.1872856
0.18728685
0.18728784
0.18728854
0.18728896
0.18728909
0.18728893
0.18728847
0.18728772
0.18728674
0.18728555
0.18728419
0.18728262
0.1872808
0.18727869
0.18727625
0.18727371
0.18727172
0.18727121
0.1872719
0.18726841
0.18724453
0.1871703
0.18701138
0.18676563
0.18654215
0.18670131
0.18813675
0.19312331
0.20906413
0.25722798
0.40246233
0.86319153
2.7559797
13.063504
0.19061391
0.19061422
0.19061655
0.19061938
0.19062246
0.19062564
0.19062892
0.19063222
0.19063551
0.19063875
0.19064192
0.19064502
0.19064801
0.19065091
0.19065373
0.19065649
0.19065924
0.19066199
0.19066469
0.19066725
0.19066958
0.19067166
0.19067348
0.19067508
0.19067651
0.19067775
0.19067873
0.19067942
0.19067983
0.19067997
0.19067982
0.19067937
0.19067863
0.19067766
0.1906765
0.19067517
0.19067364
0.19067187
0.19066979
0.19066738
0.19066477
0.19066256
0.19066171
0.19066256
0.19066136
0.19064433
0.19058299
0.19043929
0.19019623
0.18993226
0.18996119
0.19109483
0.19531641
0.20930301
0.25253203
0.38607505
0.8183158
2.6055702
12.283344
0.19441433
0.19441514
0.19441777
0.19442062
0.19442375
0.19442697
0.19443028
0.19443359
0.19443687
0.1944401
0.19444325
0.19444631
0.19444927
0.19445213
0.19445491
0.19445765
0.19446038
0.19446312
0.19446581
0.19446833
0.19447063
0.19447268
0.19447448
0.19447606
0.19447748
0.19447871
0.19447966
0.19448033
0.19448074
0.19448088
0.19448074
0.19448029
0.19447957
0.19447863
0.1944775
0.19447621
0.19447472
0.194473
0.19447097
0.1944686
0.19446598
0.19446357
0.19446235
0.19446306
0.19446354
0.19445265
0.19440424
0.19427825
0.19404445
0.19375011
0.19365726
0.19450157
0.19803503
0.2101303
0.24859383
0.37052145
0.77427965
2.457293
11.51678
0.19869145
0.19869277
0.19869553
0.19869843
0.19870158
0.19870482
0.19870813
0.19871143
0.19871469
0.19871787
0.19872097
0.19872397
0.19872686
0.19872966
0.19873238
0.19873506
0.19873776
0.19874047
0.19874312
0.19874559
0.19874783
0.19874983
0.19875158
0.19875314
0.19875454
0.19875573
0.19875665
0.19875729
0.19875769
0.19875784
0.1987577
0.19875727
0.19875657
0.19875565
0.19875456
0.19875333
0.19875191
0.19875024
0.19874829
0.19874599
0.19874339
0.19874084
0.19873923
0.19873962
0.19874122
0.19873566
0.19869995
0.1985937
0.19837558
0.19806245
0.19785925
0.19841881
0.20146519
0.21160211
0.24546795
0.35588995
0.73126855
2.3117527
10.766811
0.20352617
0.20352789
0.20353068
0.20353361
0.20353677
0.20354001
0.20354329
0.20354654
0.20354972
0.20355282
0.20355583
0.20355873
0.20356152
0.20356422
0.20356684
0.20356944
0.20357206
0.20357471
0.20357728
0.20357967
0.20358182
0.20358374
0.20358544
0.20358695
0.2035883
0.20358943
0.2035903
0.20359091
0.2035913
0.20359144
0.20359132
0.20359091
0.20359024
0.20358936
0.20358832
0.20358715
0.20358582
0.20358425
0.20358238
0.20358018
0.20357764
0.20357502
0.20357308
0.20357298
0.20357511
0.20357386
0.20355008
0.20346497
0.20326876
0.20295002
0.20265886
0.20295272
0.20533648
0.21383947
0.24329452
0.34239522
0.68958764
2.1696721
10.036271
0.20901821
0.20902015
0.20902292
0.20902586
0.20902898
0.20903218
0.20903539
0.20903853
0.20904159
0.20904455
0.20904741
0.20905016
0.20905279
0.20905532
0.2090578
0.20906027
0.20906277
0.20906531
0.20906776
0.20907001
0.20907203
0.20907384
0.20907544
0.20907687
0.20907815
0.2090792
0.20908
0.20908056
0.20908093
0.20908107
0.20908097
0.20908058
0.20907995
0.20907912
0.20907815
0.20907708
0.20907587
0.20907442
0.20907269
0.20907062
0.20906821
0.20906561
0.20906339
0.20906278
0.20906486
0.20906677
0.2090536
0.20899016
0.20882163
0.2085103
0.20814812
0.20820087
0.20999724
0.21692312
0.24220718
0.33024056
0.64954087
2.0318657
9.3277829
0.21529197
0.21529395
0.21529666
0.21529956
0.2153026
0.21530569
0.21530875
0.21531171
0.21531457
0.21531732
0.21531995
0.21532245
0.21532485
0.21532715
0.21532941
0.21533167
0.21533399
0.21533634
0.21533859
0.21534064
0.21534247
0.21534412
0.21534559
0.2153469
0.21534805
0.21534898
0.21534968
0.21535018
0.21535051
0.21535065
0.21535057
0.21535023
0.21534965
0.21534889
0.21534802
0.21534708
0.21534603
0.21534478
0.21534324
0.21534136
0.21533914
0.21533667
0.21533434
0.21533321
0.21533479
0.21533867
0.21533427
0.21529181
0.21515557
0.21486647
0.21445699
0.21428566
0.21552311
0.22108057
0.24235629
0.31964839
0.61144256
1.8993675
8.6437144
0.22250445
0.22250634
0.22250896
0.22251173
0.22251462
0.22251751
0.22252033
0.22252301
0.22252555
0.22252798
0.22253026
0.22253241
0.22253445
0.22253642
0.22253835
0.22254031
0.22254234
0.22254441
0.22254636
0.22254811
0.22254967
0.22255109
0.22255234
0.22255347
0.22255443
0.22255519
0.22255575
0.22255616
0.22255645
0.22255658
0.22255653
0.22255624
0.22255574
0.22255509
0.22255436
0.22255361
0.2225528
0.22255183
0.22255056
0.22254896
0.22254702
0.2225448
0.22254256
0.22254109
0.22254186
0.22254655
0.22254869
0.22252527
0.22242386
0.22217069
0.22174379
0.22138331
0.22208591
0.22684212
0.24390768
0.310857
0.57559444
1.7736013
7.9861523
0.23085569
0.23085753
0.23086
0.23086255
0.23086519
0.23086777
0.23087021
0.23087246
0.23087456
0.23087651
0.2308783
0.23087995
0.23088149
0.23088296
0.23088443
0.23088595
0.23088757
0.23088921
0.23089071
0.23089203
0.23089321
0.23089429
0.23089524
0.23089609
0.23089678
0.23089728
0.23089766
0.23089795
0.23089818
0.23089829
0.23089829
0.23089808
0.2308977
0.2308972
0.23089666
0.23089616
0.2308957
0.23089515
0.23089431
0.23089311
0.23089156
0.23088974
0.23088781
0.23088626
0.23088627
0.23089077
0.23089699
0.2308894
0.230823
0.23061687
0.23020388
0.22971857
0.22994802
0.23338508
0.24711444
0.30413056
0.54224803
1.6566487
7.3568775
0.24060089
0.2406028
0.24060501
0.24060725
0.24060955
0.2406117
0.24061362
0.2406153
0.24061679
0.24061809
0.24061921
0.24062017
0.24062103
0.24062183
0.24062266
0.2406236
0.24062466
0.2406257
0.24062658
0.24062731
0.24062798
0.2406286
0.24062915
0.24062961
0.24062991
0.24063007
0.2406302
0.24063035
0.2406305
0.24063058
0.24063067
0.24063056
0.24063035
0.24063007
0.24062977
0.24062961
0.24062964
0.24062971
0.2406295
0.24062886
0.24062783
0.24062659
0.24062522
0.24062391
0.24062357
0.24062717
0.24063511
0.24063899
0.24060495
0.24045398
0.24008166
0.23951261
0.23934247
0.24167419
0.252165
0.29977056
0.51152158
1.5514394
6.7573291
0.25205358
0.25205558
0.25205745
0.25205941
0.25206136
0.25206303
0.25206437
0.25206543
0.25206624
0.25206681
0.25206716
0.25206735
0.25206744
0.25206748
0.25206759
0.25206788
0.25206833
0.25206867
0.2520688
0.25206885
0.25206896
0.25206908
0.25206915
0.25206915
0.25206899
0.25206876
0.25206862
0.25206862
0.25206869
0.25206877
0.25206895
0.25206902
0.25206905
0.25206909
0.25206913
0.2520694
0.25207001
0.25207087
0.25207151
0.25207162
0.2520712
0.25207065
0.25207009
0.25206954
0.25206931
0.25207171
0.2520794
0.25208976
0.25208204
0.25198934
0.2516872
0.25109107
0.25056276
0.2518765
0.25966423
0.29813447
0.48314471
1.4605217
6.1885997
17.032387
19.707867
22.773816
26.280208
30.281756
34.837989
40.013252
45.876578
52.501446
59.965351
68.349217
77.736595
88.212647
99.862933
112.77197
127.02155
142.68897
159.84502
178.55192
198.86117
220.81158
244.42734
269.71616
296.66786
325.25335
355.42395
387.11139
420.22714
454.66561
490.30317
527.00072
564.60763
602.95857
641.88263
681.20664
720.75155
760.34091
799.79698
838.95287
877.65198
915.74718
953.10418
989.60255
1025.1333
1059.6054
1092.9437
1125.0857
1155.9814
1185.5977
1213.9135
1240.9179
1266.6122
1291.0059
1314.1171
1335.9714
1356.5994
1376.0378
1394.3252
1411.5045
1427.6209
1442.7202
1456.8494
1470.0556
1482.3867
1493.8893
1504.6099
1514.5928
1523.8819
1532.5191
1540.5447
1547.9975
1554.9137
1561.3295
1567.278
3.6939223
4.3516656
5.0478924
5.7983793
6.6236957
7.5424
8.5708025
9.723804
11.015662
12.460472
14.072343
15.865537
17.85413
20.052106
22.472679
25.128405
28.030236
31.187627
34.607584
38.294763
42.250491
46.472677
50.955652
55.691217
60.662631
65.859979
71.265329
76.850506
82.595738
88.460841
94.514226
100.66863
106.83853
113.07883
119.32382
125.60421
132.05798
138.5499
144.92034
151.19884
157.40943
163.53075
169.46924
175.20968
180.68653
186.17279
191.61033
196.93033
202.09441
207.08007
211.87435
216.47329
220.87007
225.01868
228.91637
232.58183
236.03295
239.27198
242.29981
245.14357
247.81406
250.3175
252.66069
254.85087
256.89516
258.80176
260.57729
262.23054
263.76758
265.19863
266.53121
267.77049
268.90988
270.03512
1.1020935
1.2691102
1.4674812
1.6959435
1.9555791
2.2485236
2.5776597
2.9464821
3.3589845
3.8195502
4.3328198
4.9035939
5.5366673
6.2367493
7.008261
7.8552658
8.7812103
9.7888405
10.879919
12.055136
13.31384
14.653793
16.07117
17.56087
19.114699
20.725219
22.383649
24.077705
25.797238
27.527627
29.273085
31.021466
32.753373
34.468077
36.158816
37.825503
39.486964
41.142118
42.774728
44.379594
45.958957
47.509673
49.028025
50.508942
51.951147
53.368436
54.756957
56.11334
57.434676
58.717699
59.959438
61.158269
62.297351
63.357854
64.346959
65.269767
66.134886
66.941005
67.707022
68.436451
69.129323
69.785719
70.406036
70.99092
71.541315
72.058309
72.543107
72.997019
73.421461
73.818068
74.189031
74.535995
74.858341
75.16392
0.49347089
0.55866698
0.63726281
0.72961005
0.8367669
0.95992239
1.1003285
1.2593353
1.4384344
1.6392729
1.8636508
2.1134977
2.3908141
2.697628
3.0359021
3.4074772
3.8139493
4.2566045
4.7362788
5.2532855
5.807285
6.3971266
7.0207908
7.675595
8.3572058
9.061303
9.7830255
10.515658
11.253256
11.988257
12.717325
13.436428
14.138565
14.82034
15.478443
16.111127
16.721736
17.311793
17.880009
18.426154
18.951717
19.45665
19.941794
20.407818
20.856741
21.291434
21.710596
22.11378
22.501352
22.87365
23.231052
23.573578
23.900587
24.211979
24.508037
24.789109
25.055234
25.306699
25.544329
25.768441
25.979416
26.177789
26.364123
26.538978
26.702897
26.85641
27.000034
27.134268
27.259598
27.376517
27.485158
27.585962
27.678932
27.766914
0.28970127
0.31724448
0.35182461
0.3938578
0.44411324
0.50342466
0.57259713
0.65238804
0.74352808
0.84675083
0.96282271
1.0925613
1.2368299
1.3965319
1.5725691
1.7658155
1.9770487
2.2069082
2.455814
2.7239155
3.0110243
3.3165031
3.639228
3.9777068
4.3295026
4.6921215
5.0627837
5.4376598
5.8132549
6.1855061
6.5515378
6.9087517
7.2539337
7.5851818
7.9007587
8.1995966
8.4823968
8.7495389
9.0009109
9.2369497
9.4586825
9.6667113
9.8617052
10.045137
10.218636
10.383623
10.540086
10.688097
10.827997
10.960153
11.084965
11.202758
11.313648
11.417978
11.516269
11.60897
11.696318
11.778558
11.856001
11.928803
11.99709
12.06106
12.120931
12.176927
12.229269
12.278169
12.323833
12.366453
12.406224
12.443317
12.477897
12.510155
12.540162
12.568461
0.2170609
0.22889647
0.24479006
0.26512832
0.29045634
0.32137175
0.35847395
0.40232785
0.45344422
0.51227936
0.57924637
0.65473421
0.73911912
0.83277828
0.93608103
1.0493858
1.1730067
1.3071924
1.45208
1.607661
1.7737395
1.949871
2.1353222
2.3291599
2.5298688
2.7359307
2.9456724
3.1567677
3.3671176
3.5743761
3.776826
3.972863
4.160664
4.3392308
4.5077408
4.6657629
4.8137922
4.9521307
5.0808086
5.2001688
5.3108939
5.4134463
5.508397
5.5962822
5.6780158
5.7545351
5.8260607
5.892794
5.9550411
6.0131076
6.0672901
6.117845
6.1649316
6.208785
6.2497043
6.2879563
6.3237252
6.3571807
6.3885029
6.4178082
6.4451901
6.4707589
6.494628
6.5169085
6.5377048
6.5571175
6.5752406
6.5921625
6.6079676
6.6227306
6.6365187
6.649397
6.6614564
6.6727076
0.19015149
0.1944457
0.20129833
0.21098759
0.22387451
0.2403666
0.26089649
0.28589788
0.31577922
0.35090406
0.39158016
0.43806005
0.49054541
0.54919856
0.61414672
0.68548906
0.7632867
0.84755726
0.93825117
1.0352347
1.1382671
1.2469567
1.3607465
1.4789691
1.6005876
1.7245968
1.84992
1.975066
2.0987221
2.2194743
2.3362908
2.4482523
2.5543592
2.6540949
2.7471072
2.8332895
2.9130536
2.9867394
3.0545351
3.1167657
3.1739218
3.2263683
3.2745157
3.3187284
3.3595352
3.3974736
3.4327172
3.4654083
3.4957404
3.5239034
3.5500739
3.5744025
3.5969891
3.6179625
3.6374797
3.655689
3.6726959
3.68859
3.7034616
3.717372
3.7303704
3.7425099
3.7538459
3.764433
3.7743225
3.7835644
3.7922042
3.8002857
3.8078491
3.8149313
3.8215702
3.8277849
3.8336638
3.8390104
0.18030701
0.18079064
0.18290874
0.1868991
0.19301524
0.20153171
0.21274521
0.22696771
0.2445119
0.26567273
0.29070973
0.31983474
0.35320443
0.39092109
0.43303389
0.47954602
0.5304135
0.5855481
0.64480835
0.70799453
0.774836
0.84497157
0.91793543
0.99320529
1.0700216
1.1476718
1.2254188
1.3022681
1.3773719
1.4498599
1.5191022
1.5845806
1.6457817
1.702482
1.7545849
1.8021486
1.8455113
1.884989
1.9208167
1.9532867
1.9827608
2.0095257
2.0338706
2.0560513
2.0763853
2.0951823
2.1125683
2.1286385
2.1435075
2.1572835
2.1700631
2.1819278
2.1929343
2.2031516
2.2126597
2.2215386
2.2298417
2.2376109
2.2448864
2.2516991
2.2580729
2.2640334
2.2696073
2.2748212
2.2796994
2.2842661
2.2885428
2.2925499
2.2963069
2.2998305
2.3031411
2.3062377
2.3092026
2.311782
0.17697278
0.17558826
0.17524121
0.17610287
0.17837862
0.18227364
0.1879978
0.19576913
0.20581177
0.21834786
0.2335854
0.25170519
0.27284865
0.29711064
0.32453426
0.35511181
0.38878377
0.42544246
0.46492922
0.5070358
0.55150041
0.5979969
0.64613299
0.69548456
0.745474
0.79557175
0.84525159
0.89383131
0.94074995
0.98546439
1.0275941
1.0668584
1.1030166
1.1360117
1.1658804
1.1927548
1.2169172
1.2386377
1.2581354
1.2756452
1.2914246
1.3056794
1.3186016
1.330357
1.3411336
1.3510991
1.3603552
1.3689641
1.3769816
1.3844572
1.391434
1.3979474
1.4040225
1.4096899
1.4149872
1.4199429
1.4245809
1.4289234
1.4329923
1.4368041
1.4403721
1.4437101
1.4468326
1.4497535
1.4524862
1.4550434
1.4574371
1.4596786
1.4617787
1.4637466
1.4655955
1.4673199
1.4689871
1.4703701
0.17602429
0.17386687
0.17215454
0.17143377
0.17157515
0.17277683
0.17521058
0.17903953
0.18442465
0.19152534
0.20049563
0.21147704
0.22458914
0.23992122
0.25752416
0.27740651
0.29953034
0.32381188
0.35011976
0.37827695
0.40805982
0.43919649
0.47136312
0.50422377
0.53732497
0.57026529
0.60267641
0.63407531
0.6640723
0.69232238
0.7186037
0.74277865
0.76475665
0.78456702
0.80230525
0.8181243
0.83225614
0.84491958
0.85629325
0.86655081
0.8758651
0.88437114
0.89218336
0.89943222
0.90621618
0.91262148
0.91865412
0.92431936
0.92963973
0.93463944
0.93933918
0.94375553
0.94790043
0.95178929
0.9554414
0.95887491
0.9621033
0.9651377
0.96798867
0.97066483
0.97317377
0.97552353
0.97772276
0.97978018
0.98170432
0.98350348
0.98518567
0.9867584
0.98822915
0.98960409
0.99089266
0.99208901
0.99324741
0.99417961
0.17594096
0.17344315
0.17133671
0.16968775
0.1686399
0.16830138
0.16878563
0.17021139
0.17269679
0.17635693
0.18130221
0.1876358
0.19544897
0.2048157
0.21578602
0.22838088
0.24258672
0.25835313
0.27558975
0.29416676
0.31391456
0.33462266
0.35604002
0.37790834
0.39985588
0.42171081
0.44301515
0.46347133
0.4828541
0.50095157
0.5176311
0.53283216
0.54654161
0.55882749
0.56980319
0.57961472
0.58844748
0.59647061
0.60381772
0.61060691
0.61694742
0.62294263
0.62865274
0.63408451
0.63927554
0.64426231
0.64905056
0.6536366
0.65802104
0.66220596
0.66619279
0.66998248
0.6735756
0.67697614
0.68019154
0.68322973
0.68609708
0.68879943
0.69134279
0.69373297
0.69597564
0.69807698
0.70004369
0.70188269
0.70360091
0.70520522
0.70670231
0.70809868
0.70940077
0.71061412
0.71174687
0.71279515
0.71380221
0.71462087
0.17612675
0.17350449
0.17120359
0.16920807
0.16758536
0.16640898
0.16578147
0.16577727
0.16648465
0.16798809
0.17036718
0.17369539
0.1780382
0.18345052
0.18997304
0.19762844
0.20641684
0.21631263
0.22726087
0.23917591
0.25194006
0.26540304
0.27938318
0.29368206
0.30806145
0.32226054
0.33612829
0.3494117
0.36192022
0.37352196
0.38415212
0.39380053
0.40249607
0.41032192
0.41739062
0.4238307
0.42978652
0.43538476
0.44071354
0.4458648
0.45090283
0.45583341
0.46066854
0.46541366
0.47007466
0.47465325
0.47913333
0.48349403
0.48771946
0.49179754
0.49571816
0.49947311
0.50305627
0.50646531
0.50970132
0.51276707
0.51566556
0.51840032
0.52097554
0.52339592
0.52566663
0.52779337
0.52978241
0.53164036
0.53337395
0.53498991
0.53649498
0.53789568
0.53919848
0.54040916
0.54153526
0.54257566
0.54356344
0.54438989
0.17633525
0.17370352
0.1713347
0.16921738
0.16735977
0.16579519
0.16457624
0.16376476
0.16342293
0.16361185
0.16438925
0.16580795
0.16791443
0.17074759
0.17433702
0.17870104
0.18384386
0.18975315
0.19639689
0.20372151
0.21165054
0.22008161
0.22889147
0.23793677
0.24705712
0.25607801
0.26485091
0.27323496
0.28111386
0.28840805
0.29509038
0.30118001
0.30672775
0.31182041
0.31656215
0.32106118
0.32542934
0.32975005
0.33410641
0.3385198
0.34300035
0.34754551
0.35214112
0.35676555
0.3613972
0.36601315
0.37058164
0.37506989
0.37945101
0.38370359
0.38781021
0.39175719
0.39553451
0.3991363
0.40256031
0.40580662
0.40887668
0.41177305
0.41449943
0.41706043
0.41946142
0.42170846
0.42380813
0.42576738
0.42759334
0.42929317
0.43087399
0.43234277
0.43370637
0.43497108
0.43614441
0.43722745
0.43824625
0.43912275
0.17648066
0.17389044
0.17152914
0.16938657
0.16745426
0.16573619
0.16425012
0.16302894
0.16211278
0.16154344
0.16136354
0.1616096
0.16231527
0.16350857
0.16521068
0.16743495
0.17018554
0.17345588
0.17722678
0.18146468
0.18612055
0.19112708
0.19640347
0.2018498
0.20736646
0.21282038
0.21812974
0.2232006
0.22796342
0.23238312
0.23646477
0.240249
0.24380013
0.24720489
0.25055747
0.25394968
0.25745931
0.26116871
0.26509111
0.26922978
0.2735748
0.27809972
0.28276743
0.28753583
0.29236371
0.29721097
0.30203467
0.30679378
0.31145396
0.31598756
0.32037245
0.32459149
0.3286323
0.332487
0.33615161
0.33962499
0.34290803
0.34600328
0.34891468
0.3516473
0.35420714
0.35660086
0.35883568
0.36091912
0.36285889
0.36466273
0.36633832
0.36789318
0.3693347
0.37066976
0.371906
0.37304652
0.37411155
0.37504924
0.17655583
0.17401539
0.17169484
0.16957422
0.16763952
0.16588241
0.16430166
0.16290628
0.16171363
0.16075158
0.16002312
0.15960014
0.15947592
0.15967138
0.16020391
0.16108418
0.16231614
0.16389629
0.16581262
0.16804353
0.17055748
0.1733098
0.17624846
0.17930622
0.18242032
0.18550961
0.18851594
0.19138892
0.19409979
0.19664437
0.19905069
0.20137504
0.20369099
0.2060843
0.20864239
0.21143761
0.21454851
0.21799995
0.22179778
0.2259269
0.23035608
0.23503951