/*--------------------------------*- C++ -*----------------------------------*\
| =========                 |                                                 |
| \\      /  F ield         | OpenFOAM: The Open Source CFD Toolbox           |
|  \\    /   O peration     | Version:  v2006                                 |
|   \\  /    A nd           | Website:  www.openfoam.com                      |
|    \\/     M anipulation  |                                                 |
\*---------------------------------------------------------------------------*/
FoamFile
{
    version     2.0;
    format      ascii;
    class       volScalarField;
    location    "10000";
    object      p;
}
// * * * * * * * * * * * * * * * * * * * * * * * * * * * * * * * * * * * * * //

dimensions      [1 -1 -2 0 0 0 0];


internalField   nonuniform List<scalar> 
55713
(
1.0000298
1.0000298
1.0000298
1.0000298
1.0000298
1.0000298
1.0000298
1.0000298
1.0000298
1.0000298
1.0000298
1.0000298
1.0000298
1.0000298
1.0000298
1.0000298
1.0000298
1.0000298
1.0000298
1.0000298
1.0000298
1.0000298
1.0000298
1.0000298
1.0000298
1.0000298
1.0000298
1.0000298
1.0000298
1.0000298
1.0000298
1.0000298
1.0000298
1.0000298
1.0000298
1.0000298
1.0000298
1.0000298
1.0000298
1.0000298
1.0000298
1.0000298
1.0000298
1.0000298
1.0000298
1.0000298
1.0000298
1.0000298
1.0000298
1.0000298
1.0000298
1.0000298
1.0000298
1.0000298
1.0000298
1.0000298
1.0000298
1.0000298
1.0000298
1.0000278
1.0000278
1.0000278
1.0000279
1.0000279
1.0000279
1.0000279
1.0000279
1.0000279
1.0000279
1.0000279
1.0000279
1.0000279
1.0000279
1.0000279
1.0000279
1.0000279
1.0000279
1.0000279
1.0000279
1.0000279
1.0000279
1.0000279
1.0000279
1.0000279
1.0000279
1.0000279
1.0000279
1.0000279
1.0000279
1.0000279
1.0000279
1.0000279
1.0000279
1.0000279
1.0000279
1.0000279
1.0000279
1.0000279
1.0000279
1.0000279
1.0000279
1.0000279
1.0000279
1.0000279
1.0000279
1.0000279
1.0000279
1.0000279
1.0000279
1.0000279
1.0000279
1.0000279
1.0000279
1.0000279
1.0000279
1.0000279
1.0000279
1.0000279
1.0000262
1.0000262
1.0000262
1.0000262
1.0000262
1.0000262
1.0000262
1.0000262
1.0000262
1.0000262
1.0000262
1.0000262
1.0000262
1.0000262
1.0000262
1.0000262
1.0000262
1.0000262
1.0000262
1.0000262
1.0000262
1.0000262
1.0000262
1.0000262
1.0000262
1.0000262
1.0000262
1.0000262
1.0000262
1.0000262
1.0000262
1.0000262
1.0000262
1.0000262
1.0000262
1.0000262
1.0000262
1.0000262
1.0000262
1.0000262
1.0000262
1.0000262
1.0000262
1.0000262
1.0000262
1.0000262
1.0000262
1.0000262
1.0000262
1.0000262
1.0000262
1.0000262
1.0000262
1.0000262
1.0000262
1.0000262
1.0000262
1.0000262
1.0000262
1.0000247
1.0000247
1.0000247
1.0000247
1.0000247
1.0000247
1.0000247
1.0000247
1.0000247
1.0000247
1.0000247
1.0000247
1.0000247
1.0000247
1.0000248
1.0000248
1.0000248
1.0000248
1.0000248
1.0000248
1.0000248
1.0000248
1.0000248
1.0000248
1.0000248
1.0000248
1.0000248
1.0000248
1.0000248
1.0000248
1.0000248
1.0000248
1.0000248
1.0000248
1.0000248
1.0000248
1.0000248
1.0000248
1.0000248
1.0000248
1.0000248
1.0000248
1.0000248
1.0000248
1.0000248
1.0000248
1.0000248
1.0000248
1.0000248
1.0000248
1.0000248
1.0000248
1.0000248
1.0000248
1.0000248
1.0000248
1.0000248
1.0000248
1.0000248
1.0000235
1.0000235
1.0000235
1.0000235
1.0000235
1.0000235
1.0000235
1.0000235
1.0000235
1.0000235
1.0000235
1.0000235
1.0000235
1.0000235
1.0000235
1.0000235
1.0000235
1.0000235
1.0000235
1.0000235
1.0000235
1.0000235
1.0000235
1.0000235
1.0000235
1.0000235
1.0000235
1.0000235
1.0000235
1.0000235
1.0000235
1.0000235
1.0000235
1.0000235
1.0000235
1.0000235
1.0000235
1.0000235
1.0000235
1.0000235
1.0000235
1.0000235
1.0000235
1.0000235
1.0000235
1.0000235
1.0000235
1.0000235
1.0000235
1.0000235
1.0000235
1.0000235
1.0000235
1.0000235
1.0000235
1.0000235
1.0000235
1.0000235
1.0000235
1.0000224
1.0000224
1.0000224
1.0000224
1.0000224
1.0000224
1.0000224
1.0000224
1.0000224
1.0000224
1.0000224
1.0000224
1.0000224
1.0000224
1.0000224
1.0000224
1.0000224
1.0000224
1.0000224
1.0000224
1.0000224
1.0000224
1.0000224
1.0000224
1.0000224
1.0000224
1.0000224
1.0000224
1.0000224
1.0000224
1.0000224
1.0000224
1.0000224
1.0000224
1.0000224
1.0000224
1.0000224
1.0000224
1.0000224
1.0000224
1.0000224
1.0000224
1.0000224
1.0000224
1.0000224
1.0000224
1.0000225
1.0000225
1.0000225
1.0000225
1.0000225
1.0000225
1.0000225
1.0000225
1.0000225
1.0000225
1.0000225
1.0000225
1.0000225
1.0000214
1.0000214
1.0000214
1.0000214
1.0000214
1.0000214
1.0000214
1.0000214
1.0000214
1.0000214
1.0000214
1.0000214
1.0000214
1.0000214
1.0000214
1.0000214
1.0000215
1.0000215
1.0000215
1.0000215
1.0000215
1.0000215
1.0000215
1.0000215
1.0000215
1.0000215
1.0000215
1.0000215
1.0000215
1.0000215
1.0000215
1.0000215
1.0000215
1.0000215
1.0000215
1.0000215
1.0000215
1.0000215
1.0000215
1.0000215
1.0000215
1.0000215
1.0000215
1.0000215
1.0000215
1.0000215
1.0000215
1.0000215
1.0000215
1.0000215
1.0000215
1.0000215
1.0000215
1.0000215
1.0000215
1.0000215
1.0000215
1.0000215
1.0000215
1.0000206
1.0000206
1.0000206
1.0000206
1.0000206
1.0000206
1.0000206
1.0000206
1.0000206
1.0000206
1.0000206
1.0000206
1.0000206
1.0000206
1.0000206
1.0000206
1.0000206
1.0000206
1.0000206
1.0000206
1.0000206
1.0000206
1.0000206
1.0000206
1.0000206
1.0000206
1.0000206
1.0000206
1.0000206
1.0000206
1.0000206
1.0000206
1.0000206
1.0000206
1.0000206
1.0000206
1.0000206
1.0000206
1.0000206
1.0000206
1.0000206
1.0000206
1.0000206
1.0000206
1.0000206
1.0000206
1.0000206
1.0000206
1.0000206
1.0000206
1.0000206
1.0000206
1.0000206
1.0000206
1.0000206
1.0000206
1.0000206
1.0000206
1.0000206
1.0000201
1.0000201
1.0000201
1.0000201
1.0000201
1.0000201
1.0000201
1.0000201
1.0000201
1.0000201
1.0000201
1.0000201
1.0000201
1.0000201
1.0000201
1.0000201
1.0000201
1.0000201
1.0000201
1.0000201
1.0000201
1.0000201
1.0000201
1.0000201
1.0000201
1.0000201
1.0000201
1.0000201
1.0000201
1.0000201
1.0000201
1.0000201
1.0000201
1.0000201
1.0000201
1.0000201
1.0000201
1.0000201
1.0000201
1.0000201
1.0000201
1.0000201
1.0000201
1.0000201
1.0000201
1.0000201
1.0000201
1.0000201
1.0000201
1.0000201
1.0000201
1.0000201
1.0000201
1.0000201
1.0000201
1.0000201
1.0000201
1.0000201
1.0000201
1.0000197
1.0000197
1.0000197
1.0000197
1.0000198
1.0000198
1.0000198
1.0000198
1.0000198
1.0000198
1.0000198
1.0000198
1.0000198
1.0000198
1.0000198
1.0000198
1.0000198
1.0000198
1.0000198
1.0000198
1.0000198
1.0000198
1.0000198
1.0000198
1.0000198
1.0000198
1.0000198
1.0000198
1.0000198
1.0000198
1.0000198
1.0000198
1.0000198
1.0000198
1.0000198
1.0000198
1.0000198
1.0000198
1.0000198
1.0000198
1.0000198
1.0000198
1.0000198
1.0000198
1.0000198
1.0000198
1.0000198
1.0000198
1.0000198
1.0000198
1.0000198
1.0000198
1.0000198
1.0000198
1.0000198
1.0000198
1.0000198
1.0000198
1.0000198
1.0000179
1.0000179
1.0000179
1.0000179
1.0000179
1.000018
1.000018
1.000018
1.000018
1.000018
1.000018
1.000018
1.000018
1.000018
1.000018
1.000018
1.000018
1.000018
1.000018
1.000018
1.000018
1.000018
1.000018
1.000018
1.000018
1.000018
1.000018
1.000018
1.000018
1.000018
1.000018
1.000018
1.000018
1.000018
1.000018
1.000018
1.000018
1.000018
1.000018
1.000018
1.000018
1.000018
1.000018
1.000018
1.000018
1.000018
1.000018
1.000018
1.000018
1.000018
1.000018
1.000018
1.000018
1.000018
1.000018
1.000018
1.000018
1.000018
1.000018
1.0000179
1.0000179
1.0000179
1.0000178
1.0000178
1.0000178
1.0000178
1.0000178
1.0000178
1.0000178
1.0000178
1.0000178
1.0000178
1.0000178
1.0000178
1.0000178
1.0000178
1.0000178
1.0000178
1.0000178
1.0000177
1.0000177
1.0000177
1.0000177
1.0000177
1.0000177
1.0000177
1.0000177
1.0000177
1.0000177
1.0000177
1.0000177
1.0000177
1.0000177
1.0000177
1.0000177
1.0000177
1.0000177
1.0000177
1.0000177
1.0000177
1.0000177
1.0000177
1.0000177
1.0000177
1.0000177
1.0000177
1.0000177
1.0000177
1.0000177
1.0000177
1.0000176
1.0000176
1.0000176
1.0000176
1.0000176
1.0000176
1.0000176
1.0000176
1.0000269
1.0000269
1.0000269
1.0000269
1.0000269
1.0000269
1.0000269
1.0000269
1.0000269
1.0000269
1.0000269
1.0000269
1.0000269
1.0000269
1.0000269
1.0000269
1.0000269
1.0000269
1.0000269
1.0000269
1.0000269
1.0000269
1.0000269
1.0000269
1.0000269
1.0000269
1.0000269
1.0000269
1.0000269
1.0000269
1.0000269
1.0000269
1.0000269
1.0000269
1.0000269
1.0000269
1.0000269
1.0000269
1.0000269
1.0000269
1.0000269
1.0000269
1.0000269
1.0000269
1.0000269
1.0000269
1.0000269
1.0000269
1.0000269
1.0000269
1.0000269
1.0000269
1.0000269
1.0000269
1.0000269
1.0000269
1.0000269
1.0000269
1.0000269
1.0000171
1.0000171
1.0000171
1.0000171
1.0000171
1.0000171
1.0000171
1.0000171
1.0000172
1.0000172
1.0000172
1.0000172
1.0000172
1.0000172
1.0000172
1.0000172
1.0000172
1.0000172
1.0000172
1.0000172
1.0000172
1.0000172
1.0000172
1.0000172
1.0000172
1.0000172
1.0000172
1.0000172
1.0000172
1.0000172
1.0000172
1.0000172
1.0000172
1.0000172
1.0000172
1.0000172
1.0000172
1.0000172
1.0000172
1.0000172
1.0000172
1.0000172
1.0000172
1.0000172
1.0000172
1.0000172
1.0000172
1.0000172
1.0000172
1.0000172
1.0000172
1.0000172
1.0000172
1.0000172
1.0000172
1.0000172
1.0000172
1.0000172
1.0000172
1.0001109
1.0001109
1.000111
1.000111
1.000111
1.0001111
1.0001111
1.0001111
1.0001112
1.0001112
1.0001112
1.0001113
1.0001113
1.0001113
1.0001114
1.0001114
1.0001114
1.0001114
1.0001115
1.0001115
1.0001115
1.0001115
1.0001116
1.0001116
1.0001116
1.0001116
1.0001117
1.0001117
1.0001117
1.0001117
1.0001117
1.0001118
1.0001118
1.0001118
1.0001118
1.0001118
1.0001118
1.0001119
1.0001119
1.0001119
1.0001119
1.0001119
1.0001119
1.0001119
1.0001119
1.0001119
1.0001119
1.000112
1.000112
1.000112
1.000112
1.000112
1.000112
1.000112
1.000112
1.000112
1.000112
1.000112
1.000112
1.0001018
1.0001018
1.0001018
1.0001019
1.0001019
1.0001019
1.0001019
1.000102
1.000102
1.000102
1.000102
1.0001021
1.0001021
1.0001021
1.0001021
1.0001022
1.0001022
1.0001022
1.0001022
1.0001023
1.0001023
1.0001023
1.0001023
1.0001023
1.0001024
1.0001024
1.0001024
1.0001024
1.0001024
1.0001024
1.0001025
1.0001025
1.0001025
1.0001025
1.0001025
1.0001025
1.0001025
1.0001026
1.0001026
1.0001026
1.0001026
1.0001026
1.0001026
1.0001026
1.0001026
1.0001026
1.0001026
1.0001026
1.0001026
1.0001026
1.0001027
1.0001027
1.0001027
1.0001027
1.0001027
1.0001027
1.0001027
1.0001027
1.0001027
1.0000932
1.0000933
1.0000933
1.0000933
1.0000933
1.0000934
1.0000934
1.0000934
1.0000934
1.0000934
1.0000935
1.0000935
1.0000935
1.0000935
1.0000935
1.0000936
1.0000936
1.0000936
1.0000936
1.0000936
1.0000937
1.0000937
1.0000937
1.0000937
1.0000937
1.0000937
1.0000937
1.0000938
1.0000938
1.0000938
1.0000938
1.0000938
1.0000938
1.0000938
1.0000938
1.0000939
1.0000939
1.0000939
1.0000939
1.0000939
1.0000939
1.0000939
1.0000939
1.0000939
1.0000939
1.0000939
1.0000939
1.0000939
1.0000939
1.000094
1.000094
1.000094
1.000094
1.000094
1.000094
1.000094
1.000094
1.000094
1.000094
1.0000852
1.0000853
1.0000853
1.0000853
1.0000853
1.0000853
1.0000854
1.0000854
1.0000854
1.0000854
1.0000854
1.0000854
1.0000855
1.0000855
1.0000855
1.0000855
1.0000855
1.0000855
1.0000855
1.0000856
1.0000856
1.0000856
1.0000856
1.0000856
1.0000856
1.0000856
1.0000857
1.0000857
1.0000857
1.0000857
1.0000857
1.0000857
1.0000857
1.0000857
1.0000857
1.0000857
1.0000857
1.0000858
1.0000858
1.0000858
1.0000858
1.0000858
1.0000858
1.0000858
1.0000858
1.0000858
1.0000858
1.0000858
1.0000858
1.0000858
1.0000858
1.0000858
1.0000858
1.0000858
1.0000858
1.0000858
1.0000858
1.0000858
1.0000858
1.0000778
1.0000778
1.0000778
1.0000778
1.0000779
1.0000779
1.0000779
1.0000779
1.0000779
1.0000779
1.0000779
1.000078
1.000078
1.000078
1.000078
1.000078
1.000078
1.000078
1.000078
1.0000781
1.0000781
1.0000781
1.0000781
1.0000781
1.0000781
1.0000781
1.0000781
1.0000781
1.0000781
1.0000782
1.0000782
1.0000782
1.0000782
1.0000782
1.0000782
1.0000782
1.0000782
1.0000782
1.0000782
1.0000782
1.0000782
1.0000782
1.0000782
1.0000782
1.0000782
1.0000782
1.0000783
1.0000783
1.0000783
1.0000783
1.0000783
1.0000783
1.0000783
1.0000783
1.0000783
1.0000783
1.0000783
1.0000783
1.0000783
1.0000709
1.0000709
1.0000709
1.0000709
1.0000709
1.0000709
1.0000709
1.000071
1.000071
1.000071
1.000071
1.000071
1.000071
1.000071
1.000071
1.000071
1.0000711
1.0000711
1.0000711
1.0000711
1.0000711
1.0000711
1.0000711
1.0000711
1.0000711
1.0000711
1.0000711
1.0000711
1.0000712
1.0000712
1.0000712
1.0000712
1.0000712
1.0000712
1.0000712
1.0000712
1.0000712
1.0000712
1.0000712
1.0000712
1.0000712
1.0000712
1.0000712
1.0000712
1.0000712
1.0000712
1.0000712
1.0000712
1.0000712
1.0000712
1.0000712
1.0000713
1.0000713
1.0000713
1.0000713
1.0000713
1.0000713
1.0000713
1.0000713
1.0000645
1.0000645
1.0000645
1.0000645
1.0000645
1.0000645
1.0000645
1.0000645
1.0000645
1.0000645
1.0000646
1.0000646
1.0000646
1.0000646
1.0000646
1.0000646
1.0000646
1.0000646
1.0000646
1.0000646
1.0000646
1.0000646
1.0000646
1.0000647
1.0000647
1.0000647
1.0000647
1.0000647
1.0000647
1.0000647
1.0000647
1.0000647
1.0000647
1.0000647
1.0000647
1.0000647
1.0000647
1.0000647
1.0000647
1.0000647
1.0000647
1.0000647
1.0000647
1.0000647
1.0000647
1.0000648
1.0000648
1.0000648
1.0000648
1.0000648
1.0000648
1.0000648
1.0000648
1.0000648
1.0000648
1.0000648
1.0000648
1.0000648
1.0000648
1.0000585
1.0000585
1.0000585
1.0000586
1.0000586
1.0000586
1.0000586
1.0000586
1.0000586
1.0000586
1.0000586
1.0000586
1.0000586
1.0000586
1.0000586
1.0000586
1.0000587
1.0000587
1.0000587
1.0000587
1.0000587
1.0000587
1.0000587
1.0000587
1.0000587
1.0000587
1.0000587
1.0000587
1.0000587
1.0000587
1.0000587
1.0000587
1.0000587
1.0000587
1.0000587
1.0000587
1.0000587
1.0000587
1.0000588
1.0000588
1.0000588
1.0000588
1.0000588
1.0000588
1.0000588
1.0000588
1.0000588
1.0000588
1.0000588
1.0000588
1.0000588
1.0000588
1.0000588
1.0000588
1.0000588
1.0000588
1.0000588
1.0000588
1.0000588
1.0000531
1.0000531
1.0000531
1.0000531
1.0000531
1.0000531
1.0000531
1.0000531
1.0000531
1.0000531
1.0000531
1.0000532
1.0000532
1.0000532
1.0000532
1.0000532
1.0000532
1.0000532
1.0000532
1.0000532
1.0000532
1.0000532
1.0000532
1.0000532
1.0000532
1.0000532
1.0000532
1.0000532
1.0000532
1.0000532
1.0000532
1.0000532
1.0000532
1.0000532
1.0000532
1.0000533
1.0000533
1.0000533
1.0000533
1.0000533
1.0000533
1.0000533
1.0000533
1.0000533
1.0000533
1.0000533
1.0000533
1.0000533
1.0000533
1.0000533
1.0000533
1.0000533
1.0000533
1.0000533
1.0000533
1.0000533
1.0000533
1.0000533
1.0000533
1.0000481
1.0000481
1.0000481
1.0000481
1.0000481
1.0000481
1.0000481
1.0000481
1.0000481
1.0000481
1.0000481
1.0000481
1.0000481
1.0000482
1.0000482
1.0000482
1.0000482
1.0000482
1.0000482
1.0000482
1.0000482
1.0000482
1.0000482
1.0000482
1.0000482
1.0000482
1.0000482
1.0000482
1.0000482
1.0000482
1.0000482
1.0000482
1.0000482
1.0000482
1.0000482
1.0000482
1.0000482
1.0000482
1.0000482
1.0000482
1.0000482
1.0000482
1.0000482
1.0000482
1.0000482
1.0000482
1.0000482
1.0000482
1.0000482
1.0000482
1.0000482
1.0000482
1.0000482
1.0000482
1.0000482
1.0000482
1.0000482
1.0000482
1.0000482
1.0000435
1.0000435
1.0000435
1.0000435
1.0000435
1.0000435
1.0000435
1.0000436
1.0000436
1.0000436
1.0000436
1.0000436
1.0000436
1.0000436
1.0000436
1.0000436
1.0000436
1.0000436
1.0000436
1.0000436
1.0000436
1.0000436
1.0000436
1.0000436
1.0000436
1.0000436
1.0000436
1.0000436
1.0000436
1.0000436
1.0000436
1.0000436
1.0000436
1.0000436
1.0000436
1.0000436
1.0000436
1.0000436
1.0000436
1.0000436
1.0000436
1.0000436
1.0000436
1.0000436
1.0000436
1.0000436
1.0000436
1.0000436
1.0000436
1.0000436
1.0000436
1.0000436
1.0000436
1.0000436
1.0000436
1.0000436
1.0000436
1.0000436
1.0000436
1.0000394
1.0000394
1.0000394
1.0000394
1.0000394
1.0000394
1.0000394
1.0000394
1.0000394
1.0000394
1.0000394
1.0000394
1.0000394
1.0000394
1.0000394
1.0000394
1.0000394
1.0000394
1.0000394
1.0000394
1.0000394
1.0000394
1.0000394
1.0000394
1.0000394
1.0000394
1.0000394
1.0000394
1.0000394
1.0000394
1.0000394
1.0000394
1.0000394
1.0000394
1.0000394
1.0000394
1.0000394
1.0000394
1.0000394
1.0000394
1.0000394
1.0000394
1.0000394
1.0000395
1.0000395
1.0000395
1.0000395
1.0000395
1.0000395
1.0000395
1.0000395
1.0000395
1.0000395
1.0000395
1.0000395
1.0000395
1.0000395
1.0000395
1.0000395
1.0000356
1.0000356
1.0000356
1.0000356
1.0000356
1.0000356
1.0000356
1.0000356
1.0000356
1.0000356
1.0000356
1.0000356
1.0000356
1.0000356
1.0000356
1.0000356
1.0000356
1.0000356
1.0000356
1.0000356
1.0000356
1.0000356
1.0000356
1.0000356
1.0000356
1.0000356
1.0000356
1.0000356
1.0000356
1.0000356
1.0000356
1.0000356
1.0000356
1.0000356
1.0000356
1.0000356
1.0000356
1.0000357
1.0000357
1.0000357
1.0000357
1.0000357
1.0000357
1.0000357
1.0000357
1.0000357
1.0000357
1.0000357
1.0000357
1.0000357
1.0000357
1.0000357
1.0000357
1.0000357
1.0000357
1.0000357
1.0000357
1.0000357
1.0000357
1.0000323
1.0000323
1.0000323
1.0000323
1.0000323
1.0000323
1.0000323
1.0000323
1.0000323
1.0000323
1.0000323
1.0000323
1.0000323
1.0000323
1.0000323
1.0000323
1.0000323
1.0000323
1.0000323
1.0000323
1.0000323
1.0000323
1.0000323
1.0000323
1.0000323
1.0000323
1.0000323
1.0000323
1.0000323
1.0000323
1.0000323
1.0000323
1.0000323
1.0000323
1.0000323
1.0000323
1.0000323
1.0000323
1.0000323
1.0000323
1.0000323
1.0000323
1.0000323
1.0000323
1.0000323
1.0000323
1.0000323
1.0000323
1.0000323
1.0000323
1.0000323
1.0000323
1.0000323
1.0000323
1.0000323
1.0000323
1.0000323
1.0000323
1.0000323
1.000123
1.0001364
1.0001514
1.0001677
1.0001855
1.0002048
1.0002258
1.0002485
1.000273
1.0002992
1.0003273
1.0003572
1.0003888
1.0004221
1.0004568
1.0004927
1.0005295
1.0005668
1.0006039
1.0006402
1.0006748
1.000707
1.0007355
1.0007591
1.0007769
1.000787
1.0007888
1.0007817
1.0007636
1.0007343
1.0006937
1.0006412
1.0005772
1.0005027
1.0004182
1.0003251
1.0002245
1.0001173
1.0000052
0.99989007
0.99977297
0.99965496
0.9995375
0.99942154
0.99930802
0.9991968
0.99908829
0.99898399
0.99888395
0.99878821
0.99869694
0.99861015
0.99852796
0.99845071
0.99837796
0.99830927
0.99824466
0.99818415
0.99812736
0.99807398
0.99802425
0.99797795
0.99793481
0.99789465
0.99785731
0.9978226
0.99779036
0.99776043
0.99773267
0.99770693
0.99768312
0.99766111
0.99764077
0.99762183
1.000123
1.0001364
1.0001514
1.0001677
1.0001855
1.0002048
1.0002258
1.0002485
1.000273
1.0002992
1.0003273
1.0003572
1.0003888
1.0004221
1.0004568
1.0004927
1.0005295
1.0005668
1.0006039
1.0006402
1.0006748
1.000707
1.0007355
1.0007591
1.0007769
1.000787
1.0007888
1.0007817
1.0007636
1.0007343
1.0006937
1.0006412
1.0005772
1.0005027
1.0004182
1.000325
1.0002244
1.0001172
1.0000052
0.99989007
0.99977297
0.99965494
0.99953746
0.99942149
0.99930799
0.99919681
0.99908829
0.99898397
0.99888392
0.99878818
0.99869691
0.99861011
0.99852792
0.99845068
0.99837794
0.99830925
0.99824462
0.99818412
0.9981273
0.9980739
0.99802416
0.99797787
0.99793474
0.99789459
0.99785725
0.99782254
0.9977903
0.99776038
0.99773261
0.99770686
0.99768303
0.99766101
0.99764068
0.99762176
1.000123
1.0001364
1.0001514
1.0001677
1.0001855
1.0002048
1.0002258
1.0002485
1.000273
1.0002992
1.0003273
1.0003572
1.0003888
1.0004221
1.0004568
1.0004927
1.0005295
1.0005668
1.0006039
1.0006402
1.0006748
1.000707
1.0007355
1.0007591
1.000777
1.000787
1.0007889
1.0007817
1.0007636
1.0007343
1.0006937
1.0006412
1.0005773
1.0005027
1.0004182
1.0003251
1.0002245
1.0001173
1.0000052
0.9998901
0.999773
0.99965498
0.99953751
0.99942152
0.99930795
0.99919675
0.99908829
0.99898399
0.99888395
0.99878821
0.99869694
0.99861012
0.99852789
0.99845064
0.99837793
0.99830925
0.99824464
0.99818419
0.99812743
0.99807399
0.99802424
0.99797793
0.99793479
0.99789462
0.99785727
0.99782256
0.99779032
0.99776039
0.99773262
0.99770686
0.99768309
0.99766115
0.99764084
0.99762186
1.000123
1.0001364
1.0001514
1.0001677
1.0001855
1.0002048
1.0002258
1.0002485
1.000273
1.0002992
1.0003273
1.0003572
1.0003888
1.0004221
1.0004568
1.0004927
1.0005295
1.0005668
1.0006039
1.0006402
1.0006748
1.000707
1.0007355
1.0007591
1.000777
1.000787
1.0007889
1.0007818
1.0007637
1.0007344
1.0006937
1.0006413
1.0005773
1.0005028
1.0004183
1.0003251
1.0002245
1.0001174
1.0000053
0.99989019
0.99977309
0.99965509
0.99953761
0.9994216
0.99930798
0.99919678
0.99908839
0.99898408
0.99888402
0.99878828
0.998697
0.99861021
0.99852804
0.99845074
0.99837793
0.99830923
0.9982446
0.99818408
0.99812725
0.9980739
0.99802419
0.9979779
0.99793478
0.99789463
0.9978573
0.99782259
0.99779036
0.99776041
0.99773263
0.99770674
0.99768279
0.99766091
0.99764088
0.99762215
1.000123
1.0001364
1.0001514
1.0001677
1.0001855
1.0002048
1.0002258
1.0002485
1.000273
1.0002992
1.0003273
1.0003572
1.0003888
1.000422
1.0004568
1.0004927
1.0005295
1.0005668
1.0006039
1.0006402
1.0006748
1.000707
1.0007355
1.0007591
1.000777
1.0007871
1.0007889
1.0007818
1.0007638
1.0007344
1.0006938
1.0006414
1.0005775
1.000503
1.0004185
1.0003253
1.0002247
1.0001175
1.0000055
0.99989036
0.99977325
0.99965527
0.99953778
0.99942175
0.99930808
0.99919687
0.99908852
0.99898421
0.99888415
0.99878841
0.99869714
0.99861037
0.99852821
0.99845084
0.99837796
0.99830928
0.99824467
0.99818412
0.99812735
0.99807407
0.99802437
0.99797807
0.99793493
0.99789477
0.99785742
0.9978227
0.99779046
0.99776054
0.99773278
0.99770705
0.99768329
0.99766133
0.99764098
0.99762204
1.000123
1.0001364
1.0001514
1.0001677
1.0001855
1.0002048
1.0002258
1.0002485
1.000273
1.0002992
1.0003273
1.0003572
1.0003888
1.000422
1.0004568
1.0004927
1.0005295
1.0005667
1.0006039
1.0006402
1.0006748
1.000707
1.0007355
1.0007592
1.000777
1.0007871
1.000789
1.0007819
1.0007639
1.0007346
1.0006939
1.0006415
1.0005777
1.0005032
1.0004187
1.0003255
1.0002249
1.0001177
1.0000058
0.99989061
0.99977351
0.99965554
0.99953805
0.999422
0.99930827
0.99919705
0.99908876
0.99898445
0.99888438
0.99878863
0.99869735
0.9986106
0.99852846
0.99845105
0.99837814
0.99830943
0.9982448
0.9981842
0.9981274
0.99807418
0.99802447
0.99797817
0.99793504
0.99789489
0.99785755
0.99782284
0.99779061
0.99776069
0.99773293
0.99770718
0.99768333
0.99766129
0.99764093
0.99762208
1.000123
1.0001364
1.0001514
1.0001677
1.0001855
1.0002048
1.0002258
1.0002485
1.0002729
1.0002992
1.0003273
1.0003571
1.0003888
1.000422
1.0004567
1.0004927
1.0005295
1.0005667
1.0006038
1.0006402
1.0006748
1.000707
1.0007355
1.0007592
1.0007771
1.0007872
1.0007891
1.000782
1.000764
1.0007347
1.0006941
1.0006418
1.0005779
1.0005034
1.000419
1.0003258
1.0002252
1.0001181
1.0000061
0.999891
0.99977389
0.99965593
0.99953844
0.99942237
0.99930858
0.99919735
0.99908911
0.99898479
0.99888471
0.99878896
0.99869768
0.99861094
0.99852881
0.99845135
0.99837838
0.99830964
0.99824501
0.9981844
0.99812761
0.99807443
0.99802476
0.99797847
0.99793534
0.99789519
0.99785784
0.99782313
0.9977909
0.99776098
0.99773324
0.99770752
0.99768372
0.99766169
0.99764128
0.99762237
1.000123
1.0001364
1.0001514
1.0001677
1.0001855
1.0002048
1.0002258
1.0002485
1.0002729
1.0002992
1.0003273
1.0003571
1.0003888
1.000422
1.0004567
1.0004927
1.0005295
1.0005667
1.0006038
1.0006401
1.0006748
1.000707
1.0007355
1.0007592
1.0007771
1.0007873
1.0007892
1.0007822
1.0007642
1.000735
1.0006944
1.0006421
1.0005783
1.0005039
1.0004195
1.0003263
1.0002257
1.0001186
1.0000067
0.99989155
0.99977445
0.9996565
0.999539
0.99942291
0.99930907
0.99919782
0.99908961
0.9989853
0.99888521
0.99878945
0.99869816
0.99861143
0.9985293
0.9984518
0.99837878
0.99831002
0.99824538
0.99818475
0.99812794
0.99807477
0.99802511
0.9979788
0.99793567
0.99789551
0.99785816
0.99782346
0.99779123
0.99776131
0.99773356
0.99770784
0.997684
0.99766193
0.99764151
0.9976226
1.000123
1.0001364
1.0001514
1.0001677
1.0001855
1.0002048
1.0002258
1.0002485
1.0002729
1.0002992
1.0003272
1.0003571
1.0003887
1.000422
1.0004567
1.0004926
1.0005295
1.0005667
1.0006038
1.0006401
1.0006748
1.000707
1.0007356
1.0007593
1.0007772
1.0007874
1.0007894
1.0007824
1.0007645
1.0007353
1.0006948
1.0006425
1.0005788
1.0005044
1.0004201
1.000327
1.0002264
1.0001193
1.0000074
0.99989232
0.99977523
0.9996573
0.99953979
0.99942368
0.99930978
0.99919851
0.99909034
0.99898602
0.99888591
0.99879014
0.99869885
0.99861211
0.99852997
0.99845244
0.99837936
0.99831057
0.99824591
0.99818526
0.99812845
0.99807529
0.99802565
0.99797935
0.99793622
0.99789607
0.99785873
0.99782402
0.99779179
0.99776188
0.99773413
0.99770841
0.99768458
0.99766251
0.99764208
0.99762316
1.000123
1.0001364
1.0001513
1.0001677
1.0001854
1.0002048
1.0002258
1.0002485
1.0002729
1.0002992
1.0003272
1.0003571
1.0003887
1.000422
1.0004567
1.0004926
1.0005294
1.0005667
1.0006038
1.0006401
1.0006748
1.000707
1.0007356
1.0007594
1.0007773
1.0007875
1.0007896
1.0007827
1.0007648
1.0007357
1.0006953
1.0006431
1.0005795
1.0005052
1.0004209
1.0003279
1.0002273
1.0001203
1.0000085
0.99989339
0.9997763
0.99965839
0.99954088
0.99942474
0.99931079
0.9991995
0.99909135
0.99898703
0.9988869
0.99879112
0.99869981
0.99861307
0.99853091
0.99845333
0.99838021
0.99831138
0.9982467
0.99818603
0.9981292
0.99807605
0.99802641
0.9979801
0.99793696
0.9978968
0.99785944
0.99782473
0.99779249
0.99776256
0.99773481
0.99770908
0.99768523
0.99766315
0.99764271
0.99762378
1.000123
1.0001364
1.0001513
1.0001677
1.0001854
1.0002048
1.0002258
1.0002484
1.0002729
1.0002991
1.0003272
1.0003571
1.0003887
1.0004219
1.0004567
1.0004926
1.0005294
1.0005667
1.0006038
1.0006401
1.0006748
1.0007071
1.0007357
1.0007595
1.0007775
1.0007877
1.0007898
1.0007831
1.0007653
1.0007363
1.000696
1.0006439
1.0005804
1.0005062
1.0004221
1.0003291
1.0002286
1.0001217
1.0000099
0.99989484
0.99977777
0.99965988
0.99954237
0.9994262
0.9993122
0.99920088
0.99909275
0.99898842
0.99888827
0.99879246
0.99870113
0.99861437
0.99853218
0.99845456
0.99838138
0.99831252
0.99824781
0.99818711
0.99813027
0.99807711
0.99802746
0.99798116
0.99793801
0.99789785
0.99786049
0.99782577
0.99779353
0.9977636
0.99773584
0.9977101
0.99768625
0.99766416
0.9976437
0.99762477
1.000123
1.0001364
1.0001513
1.0001677
1.0001854
1.0002048
1.0002257
1.0002484
1.0002729
1.0002991
1.0003272
1.000357
1.0003886
1.0004219
1.0004566
1.0004925
1.0005294
1.0005666
1.0006037
1.0006401
1.0006748
1.0007071
1.0007357
1.0007596
1.0007777
1.000788
1.0007902
1.0007835
1.0007659
1.000737
1.0006969
1.000645
1.0005817
1.0005076
1.0004236
1.0003307
1.0002303
1.0001235
1.0000118
0.99989679
0.99977975
0.99966189
0.99954437
0.99942818
0.99931413
0.99920278
0.99909465
0.99899031
0.99889013
0.99879429
0.99870293
0.99861613
0.99853391
0.99845624
0.99838301
0.9983141
0.99824935
0.99818863
0.99813176
0.99807859
0.99802893
0.9979826
0.99793944
0.99789926
0.99786188
0.99782714
0.99779488
0.99776494
0.99773716
0.99771141
0.99768755
0.99766545
0.99764498
0.99762604
1.000123
1.0001364
1.0001513
1.0001676
1.0001854
1.0002047
1.0002257
1.0002484
1.0002728
1.0002991
1.0003271
1.000357
1.0003886
1.0004219
1.0004566
1.0004925
1.0005293
1.0005666
1.0006037
1.0006401
1.0006748
1.0007071
1.0007358
1.0007597
1.0007779
1.0007883
1.0007906
1.0007842
1.0007666
1.000738
1.000698
1.0006464
1.0005832
1.0005094
1.0004256
1.0003329
1.0002326
1.0001259
1.0000143
0.99989938
0.9997824
0.99966456
0.99954705
0.99943084
0.99931674
0.99920535
0.99909722
0.99899285
0.99889263
0.99879675
0.99870535
0.99861851
0.99853624
0.99845851
0.99838522
0.99831625
0.99825146
0.9981907
0.9981338
0.99808059
0.99803091
0.99798456
0.99794138
0.99790118
0.99786379
0.99782904
0.99779676
0.9977668
0.99773901
0.99771324
0.99768936
0.99766724
0.99764676
0.9976278
1.000123
1.0001363
1.0001513
1.0001676
1.0001854
1.0002047
1.0002257
1.0002484
1.0002728
1.000299
1.0003271
1.000357
1.0003886
1.0004218
1.0004565
1.0004924
1.0005292
1.0005665
1.0006037
1.00064
1.0006748
1.0007071
1.0007359
1.0007599
1.0007782
1.0007887
1.0007912
1.0007849
1.0007676
1.0007392
1.0006995
1.0006481
1.0005853
1.0005117
1.0004281
1.0003357
1.0002356
1.0001291
1.0000176
0.9999028
0.99978588
0.9996681
0.9995506
0.99943437
0.99932022
0.99920879
0.99910063
0.99899623
0.99889596
0.99880002
0.99870857
0.99862167
0.99853934
0.99846154
0.99838818
0.99831915
0.9982543
0.99819349
0.99813655
0.9980833
0.99803358
0.9979872
0.99794399
0.99790375
0.99786633
0.99783155
0.99779925
0.99776926
0.99774145
0.99771566
0.99769176
0.99766963
0.99764913
0.99763016
1.0001229
1.0001363
1.0001513
1.0001676
1.0001854
1.0002047
1.0002257
1.0002483
1.0002728
1.000299
1.0003271
1.0003569
1.0003885
1.0004217
1.0004564
1.0004924
1.0005292
1.0005664
1.0006036
1.00064
1.0006748
1.0007072
1.000736
1.0007601
1.0007785
1.0007892
1.0007919
1.0007859
1.0007689
1.0007408
1.0007014
1.0006504
1.000588
1.0005147
1.0004315
1.0003393
1.0002395
1.0001332
1.000022
0.99990728
0.99979046
0.99967273
0.99955525
0.99943901
0.99932482
0.99921335
0.99910515
0.9990007
0.99890036
0.99880435
0.99871282
0.99862584
0.99854343
0.99846555
0.99839211
0.998323
0.99825808
0.9981972
0.9981402
0.9980869
0.99803713
0.9979907
0.99794744
0.99790716
0.9978697
0.99783488
0.99780255
0.99777253
0.99774468
0.99771886
0.99769493
0.99767277
0.99765224
0.99763324
1.0001229
1.0001363
1.0001513
1.0001676
1.0001854
1.0002047
1.0002256
1.0002483
1.0002727
1.000299
1.000327
1.0003568
1.0003884
1.0004217
1.0004564
1.0004923
1.0005291
1.0005664
1.0006035
1.0006399
1.0006748
1.0007072
1.0007362
1.0007604
1.000779
1.0007899
1.0007928
1.0007871
1.0007705
1.0007428
1.0007039
1.0006533
1.0005914
1.0005186
1.0004358
1.000344
1.0002445
1.0001386
1.0000276
0.99991309
0.9997964
0.99967876
0.99956132
0.99944507
0.99933084
0.99921931
0.99911106
0.99900654
0.99890612
0.99881002
0.9987184
0.99863132
0.99854881
0.99847082
0.99839728
0.99832807
0.99826306
0.9982021
0.99814502
0.99809165
0.99804181
0.99799532
0.997952
0.99791168
0.99787416
0.9978393
0.99780692
0.99777686
0.99774898
0.99772312
0.99769917
0.99767697
0.99765643
0.9976374
1.0001229
1.0001363
1.0001513
1.0001676
1.0001853
1.0002046
1.0002256
1.0002483
1.0002727
1.0002989
1.0003269
1.0003568
1.0003884
1.0004216
1.0004563
1.0004922
1.000529
1.0005663
1.0006034
1.0006399
1.0006748
1.0007073
1.0007363
1.0007607
1.0007795
1.0007907
1.000794
1.0007887
1.0007725
1.0007454
1.000707
1.0006571
1.0005957
1.0005235
1.0004413
1.0003501
1.000251
1.0001455
1.0000348
0.99992057
0.99980406
0.99968654
0.99956916
0.99945291
0.99933865
0.99922706