/*--------------------------------*- C++ -*----------------------------------*\
| =========                 |                                                 |
| \\      /  F ield         | OpenFOAM: The Open Source CFD Toolbox           |
|  \\    /   O peration     | Version:  v2006                                 |
|   \\  /    A nd           | Website:  www.openfoam.com                      |
|    \\/     M anipulation  |                                                 |
\*---------------------------------------------------------------------------*/
FoamFile
{
    version     2.0;
    format      ascii;
    class       surfaceScalarField;
    location    "10000";
    object      phi;
}
// * * * * * * * * * * * * * * * * * * * * * * * * * * * * * * * * * * * * * //

dimensions      [1 0 -1 0 0 0 0];
oriented        oriented;


internalField   nonuniform List<scalar> 
110670
(
1.7248355e-05
-0.00037606853
0.00035881999
3.030998e-05
-0.00035388351
0.00034082168
4.0129443e-05
-0.00033464727
0.00032482765
4.7401296e-05
-0.00031768168
0.00031040967
5.2651359e-05
-0.00030260447
0.00029735429
5.6282228e-05
-0.00028913339
0.0002855024
5.8605781e-05
-0.00027704942
0.00027472578
5.9866386e-05
-0.00026617589
0.00026491518
6.0257369e-05
-0.00025636809
0.00025597704
5.9933054e-05
-0.00024750482
0.00024782905
5.9017452e-05
-0.00023948521
0.00024040077
5.7610752e-05
-0.00023222028
0.0002336269
5.5794593e-05
-0.00022563709
0.00022745322
5.3635823e-05
-0.0002196723
0.000221831
5.1189899e-05
-0.00021427165
0.00021671756
4.8502689e-05
-0.00020938916
0.00021207631
4.5612679e-05
-0.00020498436
0.00020787436
4.2551956e-05
-0.00020102219
0.00020408286
3.9347718e-05
-0.00019747191
0.00020067614
3.6022817e-05
-0.00019430689
0.00019763174
3.2596879e-05
-0.00019150426
0.00019493019
2.9086566e-05
-0.0001890443
0.00019255457
2.5506422e-05
-0.00018691029
0.00019049043
2.1868951e-05
-0.00018508796
0.00018872539
1.8185317e-05
-0.00018356539
0.00018724902
1.4465313e-05
-0.00018233266
0.00018605262
1.0717986e-05
-0.00018138188
0.00018512921
6.9515176e-06
-0.00018070697
0.00018447339
3.1738021e-06
-0.0001803037
0.00018408142
-6.0772531e-07
-0.00018016954
0.00018395102
-4.3855181e-06
-0.00018030363
0.00018408144
-8.1521531e-06
-0.00018070679
0.00018447338
-1.1899732e-05
-0.00018138147
0.00018512906
-1.56201e-05
-0.00018233186
0.00018605219
-1.9304215e-05
-0.00018356406
0.00018724819
-2.2942332e-05
-0.0001850861
0.00018872418
-2.6523273e-05
-0.00018690813
0.00019048908
-3.00345e-05
-0.00018904231
0.00019255351
-3.3461361e-05
-0.00019150291
0.00019492979
-3.6787124e-05
-0.00019430636
0.00019763209
-3.9992146e-05
-0.00019747196
0.00020067699
-4.3053667e-05
-0.00020102231
0.00020408379
-4.5944633e-05
-0.00020498404
0.00020787502
-4.8633077e-05
-0.00020938819
0.00021207661
-5.1080527e-05
-0.00021427018
0.00021671764
-5.3241051e-05
-0.00021967058
0.00022183107
-5.5059138e-05
-0.00022563533
0.00022745343
-5.6467844e-05
-0.00023221873
0.00023362741
-5.7385388e-05
-0.00023948411
0.00024040167
-5.7711486e-05
-0.00024750402
0.0002478301
-5.7322277e-05
-0.00025636696
0.00025597777
-5.6063762e-05
-0.00026617396
0.00026491543
-5.3742761e-05
-0.00027704709
0.0002747261
-5.011504e-05
-0.00028913176
0.00028550402
-4.4868577e-05
-0.00030260518
0.00029735873
-3.7600091e-05
-0.00031768539
0.00031041688
-2.7781057e-05
-0.00033464579
0.00032482677
-1.4709202e-05
-0.00035383001
0.00034075814
-0.00037568405
0.00035841045
2.5644088e-06
1.728691e-05
-0.00039335526
3.0379296e-05
-0.00036697573
4.0218524e-05
-0.00034448633
4.7503342e-05
-0.00032496636
5.2760825e-05
-0.00030786183
5.6394686e-05
-0.00029276714
5.8717744e-05
-0.00027937239
5.9975139e-05
-0.00026743318
6.0360647e-05
-0.00025675354
6.0029171e-05
-0.00024717326
5.9104851e-05
-0.00023856086
5.768827e-05
-0.00023080364
5.5861121e-05
-0.00022380991
5.369064e-05
-0.00021750178
5.1232311e-05
-0.0002118133
4.8532233e-05
-0.00020668906
4.5628894e-05
-0.000202081
4.2554529e-05
-0.00019794781
3.9336319e-05
-0.00019425367
3.5997238e-05
-0.00019096779
3.2556871e-05
-0.00018806387
2.9032009e-05
-0.00018551941
2.543713e-05
-0.00018331539
2.1784872e-05
-0.00018143568
1.8086315e-05
-0.00017986682
1.4351403e-05
-0.00017859772
1.0589088e-05
-0.00017761956
6.8076908e-06
-0.00017692555
3.014996e-06
-0.00017651099
-7.8143875e-07
-0.00017637308
-4.5741942e-06
-0.00017651087
-8.355717e-06
-0.00017692525
-1.2118216e-05
-0.00017761896
-1.5853388e-05
-0.00017859668
-1.955229e-05
-0.00017986515
-2.3205037e-05
-0.00018143334
-2.6800554e-05
-0.00018331261
-3.0326164e-05
-0.00018551669
-3.3767277e-05
-0.0001880618
-3.7106995e-05
-0.00019096663
-4.0325709e-05
-0.00019425324
-4.3400504e-05
-0.0001979475
-4.6304378e-05
-0.00020208016
-4.9005235e-05
-0.00020668733
-5.1464634e-05
-0.00021181077
-5.3636409e-05
-0.0002174988
-5.5464967e-05
-0.00022380676
-5.6883041e-05
-0.00023080065
-5.780872e-05
-0.00023855843
-5.8141362e-05
-0.00024717138
-5.7756869e-05
-0.00025675145
-5.6500762e-05
-0.00026743007
-5.4179421e-05
-0.00027936843
-5.0547816e-05
-0.00029276336
-4.5293122e-05
-0.00030785987
-3.8010988e-05
-0.00032496752
-2.8171472e-05
-0.00034448531
-1.507016e-05
-0.00036693133
-0.00039299848
2.2442761e-06
1.7327498e-05
-0.00041068275
3.0450257e-05
-0.00038009847
4.0309688e-05
-0.00035434575
4.7607676e-05
-0.00033226434
5.2872846e-05
-0.00031312698
5.651012e-05
-0.0002964044
5.8833341e-05
-0.00028169558
6.00882e-05
-0.00026868802
6.0469062e-05
-0.00025713438
6.0131099e-05
-0.00024683527
5.9198773e-05
-0.00023762852
5.7772765e-05
-0.00022937759
5.5935109e-05
-0.00022197225
5.3753319e-05
-0.00021531996
5.1283068e-05
-0.00020934305
4.8570656e-05
-0.00020397663
4.5654655e-05
-0.00019916499
4.2567364e-05
-0.00019486051
3.9335968e-05
-0.00019102226
3.5983464e-05
-0.00018761528
3.2529499e-05
-0.00018460988
2.8990838e-05
-0.00018198075
2.5382043e-05
-0.00017970657
2.17157e-05
-0.00017776933
1.8002987e-05
-0.00017615407
1.4253798e-05
-0.00017484852
1.0477193e-05
-0.00017384292
6.6814785e-06
-0.00017312981
2.8745158e-06
-0.000172704
-9.3616791e-07
-0.00017256237
-4.7431285e-06
-0.00017270388
-8.5388149e-06
-0.00017312953
-1.2315411e-05
-0.00017384235
-1.6064602e-05
-0.00017484746
-1.9777446e-05
-0.00017615229
-2.344404e-05
-0.00017776672
-2.7053308e-05
-0.00017970332
-3.059255e-05
-0.00018197743
-3.4047134e-05
-0.0001846072
-3.74001e-05
-0.00018761366
-4.0631755e-05
-0.00019102157
-4.3719128e-05
-0.00019486012
-4.6635158e-05
-0.00019916411
-4.9347727e-05
-0.00020397475
-5.1818327e-05
-0.00020934016
-5.4000677e-05
-0.00021531643
-5.5838984e-05
-0.00022196844
-5.726577e-05
-0.00022937385
-5.8198879e-05
-0.0002376253
-5.8537408e-05
-0.00024683284
-5.8156953e-05
-0.0002571319
-5.6902653e-05
-0.00026868436
-5.4580413e-05
-0.00028169066
-5.0944481e-05
-0.00029639928
-4.5681161e-05
-0.00031312318
-3.8385103e-05
-0.00033226357
-2.8524972e-05
-0.00035434543
-1.5394299e-05
-0.00038006199
-0.00041035346
1.9606828e-06
1.7367897e-05
-0.00042805065
3.0519405e-05
-0.00039324997
4.0399639e-05
-0.000364226
4.7711344e-05
-0.00033957605
5.2984823e-05
-0.00031840047
5.662624e-05
-0.00030004584
5.8950382e-05
-0.00028401973
6.0203504e-05
-0.00026994117
6.0580535e-05
-0.0002575114
6.0236989e-05
-0.00024649174
5.9297506e-05
-0.00023668903
5.7862901e-05
-0.00022794299
5.6015519e-05
-0.00022012487
5.3823097e-05
-0.00021312753
5.1341557e-05
-0.00020686152
4.8617391e-05
-0.00020125245
4.5689282e-05
-0.0001962369
4.2589628e-05
-0.00019176086
3.9345604e-05
-0.00018777826
3.5980266e-05
-0.00018424996
3.2513261e-05
-0.00018114289
2.8961408e-05
-0.00017842892
2.5339296e-05
-0.00017608446
2.1659529e-05
-0.00017408959
1.7933313e-05
-0.00017242785
1.4170521e-05
-0.00017108575
1.0380235e-05
-0.00017005262
6.5707526e-06
-0.00016932034
2.7499853e-06
-0.00016888323
-1.0745123e-06
-0.00016873788
-4.8952394e-06
-0.00016888316
-8.7046309e-06
-0.00016932014
-1.249484e-05
-0.00017005214
-1.6257553e-05
-0.00017108475
-1.9983789e-05
-0.00017242606
-2.3663663e-05
-0.00017408686
-2.7286057e-05
-0.00017608093
-3.0838309e-05
-0.0001784252
-3.4305725e-05
-0.00018113978
-3.7671316e-05
-0.00018424808
-4.0915294e-05
-0.00018777759
-4.4014634e-05
-0.00019176079
-4.6942173e-05
-0.00019623657
-4.966576e-05
-0.00020125118
-5.2146839e-05
-0.00020685907
-5.4339069e-05
-0.00021312422
-5.6186461e-05
-0.00022012104
-5.762137e-05
-0.00022793895
-5.8561315e-05
-0.00023668535
-5.8905148e-05
-0.00024648901
-5.8528126e-05
-0.00025750891
-5.7275061e-05
-0.00026993743
-5.4951361e-05
-0.00028401435
-5.1310652e-05
-0.00030004
-4.6038212e-05
-0.00031839562
-3.8727868e-05
-0.00033957392
-2.8846788e-05
-0.0003642265
-1.5686579e-05
-0.00039322221
-0.00042774912
1.7090884e-06
1.7408587e-05
-0.00044545933
3.0590239e-05
-0.00040643173
4.0491669e-05
-0.0003741275
4.781751e-05
-0.00034690198
5.3099819e-05
-0.00032368283
5.6745856e-05
-0.00030369195
5.9071378e-05
-0.00028634529
6.0323197e-05
-0.00027119306
6.0696861e-05
-0.00025788509
6.034826e-05
-0.00024614321
5.9402228e-05
-0.000235743
5.7959629e-05
-0.00022650045
5.6103273e-05
-0.00021826851
5.3900994e-05
-0.00021092529
5.1409028e-05
-0.00020436954
4.8673908e-05
-0.00019851736
4.5734524e-05
-0.00019329751
4.2623186e-05
-0.00018864954
3.9367164e-05
-0.00018452223
3.598951e-05
-0.00018087232
3.2509962e-05
-0.00017766334
2.89454e-05
-0.00017486438
2.5310454e-05
-0.00017244951
2.1617781e-05
-0.00017039694
1.7878593e-05
-0.00016868866
1.4102805e-05
-0.00016730999
1.0299492e-05
-0.00016624931
6.4769306e-06
-0.0001654978
2.6430374e-06
-0.00016504933
-1.1946494e-06
-0.00016490021
-5.0285753e-06
-0.00016504922
-8.8511911e-06
-0.00016549754
-1.2654562e-05
-0.00016624876
-1.643037e-05
-0.00016730896
-2.016954e-05
-0.00016868688
-2.3862199e-05
-0.00017039421
-2.7497215e-05
-0.00017244591
-3.1061948e-05
-0.00017486047
-3.4541691e-05
-0.00017766003
-3.7919397e-05
-0.00018087038
-4.1175217e-05
-0.00018452176
-4.428603e-05
-0.00018864998
-4.7224621e-05
-0.00019329797
-4.9958756e-05
-0.00019851704
-5.2449887e-05
-0.00020436794
-5.4651578e-05
-0.00021092253
-5.6507683e-05
-0.00021826494
-5.7950301e-05
-0.00022649633
-5.8896688e-05
-0.00023573897
-5.924538e-05
-0.00024614032
-5.8871376e-05
-0.00025788292
-5.7619086e-05
-0.00027118972
-5.5293536e-05
-0.0002863399
-5.1647695e-05
-0.00030368584
-4.6365849e-05
-0.00032367746
-3.9040936e-05
-0.00034689883
-2.9138774e-05
-0.00037412867
-1.5948959e-05
-0.00040641202
-0.00044518547
1.4873941e-06
1.7449377e-05
-0.00046290861
3.0660929e-05
-0.00041964319
4.0583923e-05
-0.00038405042
4.792432e-05
-0.00035424228
5.3215818e-05
-0.00032897427
5.6866977e-05
-0.00030734302
5.9194319e-05
-0.0002886726
6.0445305e-05
-0.00027244397
6.0816009e-05
-0.00025825578
6.046288e-05
-0.00024579002
5.951064e-05
-0.00023479075
5.8060551e-05
-0.00022505032
5.6195683e-05
-0.00021640363
5.3984199e-05
-0.00020871378
5.1482382e-05
-0.00020186772
4.8737058e-05
-0.00019577201
4.5787027e-05
-0.00019034747
4.2664691e-05
-0.00018552717
3.9397241e-05
-0.00018125478
3.600788e-05
-0.00017748292
3.2516291e-05
-0.00017417176
2.8939521e-05
-0.00017128757
2.5292115e-05
-0.00016880212
2.1586922e-05
-0.00016669171
1.783507e-05
-0.00016493682
1.4046651e-05
-0.00016352154
1.0230636e-05
-0.0001624333
6.3954541e-06
-0.0001616626
2.5488922e-06
-0.00016120278
-1.3014104e-06
-0.00016104989
-5.1480217e-06
-0.00016120262
-8.9832849e-06
-0.00016166226
-1.279935e-05
-0.00016243271
-1.6587755e-05
-0.00016352053
-2.033949e-05
-0.00016493515
-2.4044531e-05
-0.00016668914
-2.7691836e-05
-0.00016879861
-3.126868e-05
-0.0001712836
-3.4760449e-05
-0.00017416827
-3.8149943e-05
-0.00017748086
-4.1417327e-05
-0.00018125439
-4.4539337e-05
-0.00018552795
-4.7488759e-05
-0.00019034856
-5.0233195e-05
-0.00019577259
-5.2734116e-05
-0.00020186703
-5.4944946e-05
-0.00020871168
-5.6809339e-05
-0.00021640056
-5.8259207e-05
-0.00022504645
-5.9211632e-05
-0.00023478655
-5.9564815e-05
-0.00024578712
-5.919352e-05
-0.00025825422
-5.7941703e-05
-0.00027244152
-5.5614017e-05
-0.0002886676
-5.1962864e-05
-0.00030733698
-4.6671435e-05
-0.0003289689
-3.933183e-05
-0.00035423842
-2.9408564e-05
-0.00038405194
-1.6189228e-05
-0.00041963135
-0.00046266232
1.2876076e-06
1.7490301e-05
-0.0004803989
3.0731969e-05
-0.00043288484
4.0676524e-05
-0.00039399496
4.8031416e-05
-0.00036159716
5.3332252e-05
-0.0003342751
5.6988688e-05
-0.00031099944
5.9318133e-05
-0.00029100204
6.0568533e-05
-0.00027369435
6.0936808e-05
-0.00025862405
6.0579546e-05
-0.00024543273
5.9621502e-05
-0.00023383271
5.8164237e-05
-0.00022359303
5.6291383e-05
-0.00021453078
5.4071156e-05
-0.00020649353
5.1559999e-05
-0.00019935656
4.8804838e-05
-0.00019301684
4.5844526e-05
-0.00018738715
4.2711461e-05
-0.00018239409
3.9432972e-05
-0.00017797628
3.603227e-05
-0.0001740822
3.2529139e-05
-0.00017066861
2.8940579e-05
-0.00016769898
2.528122e-05
-0.00016514275
2.1563877e-05
-0.00016297434
1.7799767e-05
-0.0001611727
1.399898e-05
-0.00015972072
1.0170569e-05
-0.00015860489
6.3229654e-06
-0.00015781497
2.4640028e-06
-0.00015734381
-1.3986785e-06
-0.00015718718
-5.2576155e-06
-0.00015734368
-9.1051587e-06
-0.00015781469
-1.2933451e-05
-0.00015860441
-1.6734046e-05
-0.00015971991
-2.0497885e-05
-0.00016117131
-2.4214918e-05
-0.00016297209
-2.7874058e-05
-0.00016513947
-3.1462622e-05
-0.00016769502
-3.4965997e-05
-0.0001706649
-3.836693e-05
-0.00017407991
-4.1645509e-05
-0.00017797581
-4.4778424e-05
-0.00018239501
-4.7738352e-05
-0.00018738864
-5.0492767e-05
-0.00019301815
-5.3003056e-05
-0.00019935675
-5.5222666e-05
-0.00020649204
-5.7094875e-05
-0.00021452835
-5.855155e-05
-0.00022358975
-5.9509618e-05
-0.00023382849
-5.9866986e-05
-0.00024542973
-5.9498119e-05
-0.0002586231
-5.8246533e-05
-0.00027369309
-5.5916425e-05
-0.00029099772
-5.2259814e-05
-0.00031099357
-4.6958658e-05
-0.00033427007
-3.9604198e-05
-0.00036159286
-2.9659811e-05
-0.00039399634
-1.641097e-05
-0.00043288017
-0.00048017946
1.1061707e-06
1.7531766e-05
-0.00049793066
3.0803195e-05
-0.00044615625
4.0770076e-05
-0.00040396183
4.8139897e-05
-0.00036896697
5.3450522e-05
-0.00033958571
5.7112759e-05
-0.00031466167
5.9444594e-05
-0.00029333386
6.0694726e-05
-0.00027494447
6.1061022e-05
-0.00025899033
6.0699926e-05
-0.00024507162
5.9736239e-05
-0.000232869
5.8272077e-05
-0.00022212885
5.6391644e-05
-0.00021265033
5.4163109e-05
-0.00020426497
5.1642915e-05
-0.00019683635
4.8878121e-05
-0.00019025202
4.5907585e-05
-0.00018441661
4.2763826e-05
-0.00017925031
3.9474271e-05
-0.00017468671
3.6062249e-05
-0.00017067016
3.2547601e-05
-0.00016715395
2.8947358e-05
-0.00016409872
2.527619e-05
-0.00016147157
2.1546908e-05
-0.00015924503
1.777075e-05
-0.00015739653
1.3957802e-05
-0.00015590775
1.0117155e-05
-0.00015476423
6.2572558e-06
-0.00015395504
2.3859812e-06
-0.00015347253
-1.4890028e-06
-0.00015331217
-5.3602138e-06
-0.00015347246
-9.2199875e-06
-0.00015395489
-1.3060455e-05
-0.00015476394
-1.6873154e-05
-0.00015590718
-2.0648991e-05
-0.00015739547
-2.4377895e-05
-0.00015924316
-2.804874e-05
-0.00016146862
-3.1648875e-05
-0.00016409485
-3.5163724e-05
-0.00016715004
-3.8575958e-05
-0.00017066765
-4.1865622e-05
-0.00017468614
-4.5009313e-05
-0.0001792513
-4.7979628e-05
-0.00018441832
-5.0743895e-05
-0.00019025386
-5.3263369e-05
-0.00019683727
-5.5491719e-05
-0.00020426367
-5.7371617e-05
-0.00021264845
-5.8834884e-05
-0.00022212646
-5.979837e-05
-0.00023286501
-6.0159691e-05
-0.00024506838
-5.9792983e-05
-0.00025898981
-5.8541299e-05
-0.00027494475
-5.6208278e-05
-0.00029333074
-5.2545707e-05
-0.00031465612
-4.7234371e-05
-0.00033958141
-3.9864234e-05
-0.00036896297
-2.9897997e-05
-0.00040396259
-1.6618528e-05
-0.00044615961
-0.00049773827
9.4026448e-07
1.7569988e-05
-0.00051550063
3.0870651e-05
-0.00045945691
4.0860009e-05
-0.00041395117
4.8244186e-05
-0.00037635114
5.3564417e-05
-0.00034490592
5.72328e-05
-0.00031833004
5.9566672e-05
-0.00029566771
6.0816489e-05
-0.00027619427
6.1181196e-05
-0.00025935501
6.0816038e-05
-0.00024470645
5.9846268e-05
-0.00023189921
5.8375378e-05
-0.00022065794
5.6487613e-05
-0.00021076255
5.4251067e-05
-0.00020202841
5.1722012e-05
-0.00019430728
4.8947765e-05
-0.00018747775
4.5967229e-05
-0.00018143605
4.2812993e-05
-0.00017609605
3.9512597e-05
-0.0001713863
3.6089439e-05
-0.00016724698
3.2563429e-05
-0.00016362793
2.8951647e-05
-0.00016048691
2.5268804e-05
-0.00015778871
2.1527745e-05
-0.00015550395
1.7739737e-05
-0.00015360851
1.3914868e-05
-0.00015208285
1.0062224e-05
-0.00015091157
6.1902598e-06
-0.00015008304
2.3068783e-06
-0.00014958914
-1.5802361e-06
-0.00014942502
-5.4635873e-06
-0.0001495891
-9.3354778e-06
-0.00015008297
-1.3188032e-05
-0.00015091138
-1.7012738e-05
-0.00015208244
-2.0800516e-05
-0.00015360769
-2.4541213e-05
-0.00015550242
-2.8223707e-05
-0.00015778613
-3.1835303e-05
-0.00016048322
-3.5361518e-05
-0.00016362383
-3.8784896e-05
-0.00016724423
-4.2085531e-05
-0.00017138552
-4.5239786e-05
-0.000176097
-4.8220292e-05
-0.00018143783
-5.0994217e-05
-0.00018747989
-5.3522783e-05
-0.00019430872
-5.5759801e-05
-0.00020202661
-5.7647423e-05
-0.00021076085
-5.911715e-05
-0.00022065668
-6.0085963e-05
-0.00023189622
-6.0451182e-05
-0.00024470312
-6.0086622e-05
-0.0002593544
-5.8834779e-05
-0.00027619654
-5.6498791e-05
-0.00029566676
-5.2830123e-05
-0.00031832473
-4.750925e-05
-0.00034490232
-4.0123301e-05
-0.00037634887
-3.0135887e-05
-0.00041395004
-1.6825837e-05
-0.00045946961
-0.00051533869
7.7454314e-07
1.760677e-05
-0.00053310739
3.0935728e-05
-0.00047278585
4.0946699e-05
-0.00042396214
4.8342478e-05
-0.00038374689
5.367068e-05
-0.00035023412
5.7346272e-05
-0.00032200561
5.968109e-05
-0.00029800253
6.0931035e-05
-0.00027744419
6.1295991e-05
-0.00025971997
6.0926876e-05
-0.00024433731
5.9951163e-05
-0.0002309235
5.8475748e-05
-0.0002191825
5.6582559e-05
-0.00020886936
5.4339777e-05
-0.00019978559
5.1803531e-05
-0.00019177103
4.9021613e-05
-0.0001846958
4.6033031e-05
-0.00017844747
4.2870406e-05
-0.00017293339
3.9561253e-05
-0.00016807715
3.6129086e-05
-0.00016381478
3.2593776e-05
-0.00016009262
2.8972501e-05
-0.0001568656
2.5279937e-05
-0.00015409615
2.1529025e-05
-0.000151753
1.7731003e-05
-0.00014981049
1.3896055e-05
-0.00014824786
1.0033217e-05
-0.00014704874
6.1510095e-06
-0.00014620079
2.2572645e-06
-0.0001456954
-1.6402402e-06
-0.00014552747
-5.5340113e-06
-0.00014569534
-9.4162415e-06
-0.00014620069
-1.3279101e-05
-0.00014704854
-1.711401e-05
-0.00014824749
-2.0911933e-05
-0.00014980979
-2.4662641e-05
-0.00015175167
-2.8355043e-05
-0.00015409375
-3.1976396e-05
-0.00015686182
-3.5512061e-05
-0.00016008819
-3.8944712e-05
-0.00016381153
-4.2254467e-05
-0.00016807579
-4.541741e-05
-0.000172934
-4.8406036e-05
-0.00017844923
-5.1187632e-05
-0.00018469824
-5.3723986e-05
-0.0001917724
-5.5967713e-05
-0.00019978282
-5.786153e-05
-0.00020886707
-5.9336187e-05
-0.00021918197
-6.0308705e-05
-0.00023092374
-6.06767e-05
-0.00024433507
-6.0313244e-05
-0.00025971789
-5.9060375e-05
-0.00027744935
-5.6721099e-05
-0.00029800608
-5.304592e-05
-0.00032199986
-4.7718551e-05
-0.00035022973
-4.0317784e-05
-0.00038374958
-3.0314043e-05
-0.00042395383
-1.6977012e-05
-0.00047280658
-0.00053297563
6.5987711e-07
1.7649091e-05
-0.00055075647
3.099806e-05
-0.0004861348
4.1036381e-05
-0.00043400045
4.8438448e-05
-0.00039114894
5.3773712e-05
-0.00035556938
5.7459802e-05
-0.00032569168
5.9789599e-05
-0.00030033232
6.1037029e-05
-0.0002786916
6.1403984e-05
-0.00026008691
6.1030067e-05
-0.00024396337
6.0048561e-05
-0.00022994199
5.8570342e-05
-0.00021770426
5.6672753e-05
-0.00020697176
5.4423252e-05
-0.00019753607
5.1880293e-05
-0.00018922807
4.909017e-05
-0.00018190565
4.609368e-05
-0.00017545097
4.2922895e-05
-0.00016976258
3.9605366e-05
-0.00016475962
3.6164539e-05
-0.00016037392
3.2620362e-05
-0.00015654844
2.8990009e-05
-0.00015323522
2.5288215e-05
-0.00015039436
2.1527935e-05
-0.00014799269
1.7720453e-05
-0.00014600301
1.3875957e-05
-0.00014440333
1.0003542e-05
-0.00014317633
6.1117414e-06
-0.00014230896
2.2084301e-06
-0.00014179209
-1.6986129e-06
-0.00014162039
-5.6018672e-06
-0.00014179209
-9.4935921e-06
-0.00014230893
-1.3365893e-05
-0.00014317624
-1.7210235e-05
-0.0001444031
-2.1017558e-05
-0.00014600247
-2.4777688e-05
-0.0001479915
-2.8479573e-05
-0.00015039187
-3.2110571e-05
-0.00015323078
-3.5654573e-05
-0.0001565442
-3.9095885e-05
-0.00016037017
-4.2413907e-05
-0.00016475778
-4.5585089e-05
-0.00016976278
-4.8580455e-05
-0.00017545388
-5.1368396e-05
-0.00018191026
-5.3913154e-05
-0.00018922765
-5.6161355e-05
-0.00019753458
-5.8060132e-05
-0.0002069683
-5.9538159e-05
-0.00021770391
-6.0511732e-05
-0.00022995018
-6.0880771e-05
-0.00024396599
-6.0515753e-05
-0.00026008293
-5.9258101e-05
-0.00027870696
-5.6912318e-05
-0.00030035189
-5.3224995e-05
-0.00032568713
-4.7894043e-05
-0.00035556072
-4.0471134e-05
-0.00039117244
-3.0453598e-05
-0.0004339714
-1.7078901e-05
-0.00048618122
-0.00055066161
6.0703468e-07
1.7712329e-05
-0.00056846879
3.1120708e-05
-0.00049954317
4.1197065e-05
-0.00044407679
4.8627978e-05
-0.00039857984
5.399365e-05
-0.00036093503
5.7685122e-05
-0.00032938313
6.0019548e-05
-0.00030266673
6.1279546e-05
-0.00027995158
6.1638711e-05
-0.00026044606
6.1253275e-05
-0.00024357791
6.0266157e-05
-0.00022895485
5.8770028e-05
-0.0002162081
5.6855482e-05
-0.0002050572
5.4584408e-05
-0.00019526497
5.2019137e-05
-0.00018666278
4.9208746e-05
-0.00017909522
4.6189481e-05
-0.0001724317
4.2994926e-05
-0.00016656799
3.9653121e-05
-0.0001614178
3.6187812e-05
-0.00015690857
3.2619005e-05
-0.00015297963
2.8963981e-05
-0.00014958015
2.5237518e-05
-0.00014666789
2.1452637e-05
-0.00014420776
1.7620638e-05
-0.00014217101
1.3751775e-05
-0.00014053442
9.8551616e-06
-0.00013927972
5.9394088e-06
-0.00013839315
2.0124009e-06
-0.00013786509
-1.9181631e-06
-0.00013768976
-5.8451163e-06
-0.00013786515
-9.7607613e-06
-0.00013839322
-1.3657222e-05
-0.00013927979
-1.7525807e-05
-0.00014053445
-2.1357382e-05
-0.00014217092
-2.5141485e-05
-0.00014420733
-2.8866712e-05
-0.00014666667
-3.2519924e-05
-0.0001495775
-3.6088263e-05
-0.00015297589
-3.9552287e-05
-0.00015690608
-4.2893566e-05
-0.00016141654
-4.6088199e-05
-0.00016656807
-4.9105868e-05
-0.00017243625
-5.1913395e-05
-0.00017910265
-5.4472592e-05
-0.0001866685
-5.6741607e-05
-0.00019526549
-5.8658447e-05
-0.00020505151
-6.0151644e-05
-0.00021621063
-6.1142306e-05
-0.00022895957
-6.1520195e-05
-0.00024358802
-6.1167291e-05
-0.00026043589
-5.9913289e-05
-0.00027996088
-5.7571713e-05
-0.00030269353
-5.3872896e-05
-0.00032938586
-4.8520527e-05
-0.00036091316
-4.1069551e-05
-0.00039862332
-3.1006141e-05
-0.0004440349
-1.7582213e-05
-0.00049960505
-0.00056841685
1.729292e-07
1.7566179e-05
-0.00058603496
3.1054132e-05
-0.00051303111
4.110905e-05
-0.00045413171
4.8599715e-05
-0.00040607049
5.3952721e-05
-0.00036628803
5.7618292e-05
-0.00033304869
5.9999786e-05
-0.00030504822
6.1260342e-05
-0.00028121211
6.1597774e-05
-0.00026078349
6.1215633e-05
-0.00024319574
6.0223858e-05
-0.00022796308
5.8720899e-05
-0.00021470512
5.6797419e-05
-0.00020313372
5.4538131e-05
-0.00019300565
5.1994402e-05
-0.00018411906
4.9204698e-05
-0.00017630549
4.6204711e-05
-0.00016943172
4.3028375e-05
-0.00016339162
3.9703812e-05
-0.00015809325
3.6254911e-05
-0.00015345963
3.2701715e-05
-0.00014942644
2.9061607e-05
-0.00014594
2.5349364e-05
-0.00014295566
2.157808e-05
-0.00014043643
1.7759052e-05
-0.000138352
1.39026e-05
-0.00013667792
1.0017809e-05
-0.00013539495
6.1133268e-06
-0.00013448861
2.1970168e-06
-0.0001339488
-1.7231682e-06
-0.00013376953
-5.639546e-06
-0.0001339488
-9.5441086e-06
-0.0001344886
-1.3429007e-05
-0.00013539492
-1.7285521e-05
-0.00013667788
-2.1104501e-05
-0.00013835196
-2.4875427e-05
-0.00014043634
-2.8586784e-05
-0.00014295534
-3.222572e-05
-0.0001459385
-3.5782097e-05
-0.00014941954
-3.924276e-05
-0.00015344536
-4.2587977e-05
-0.00015807135
-4.5791192e-05
-0.0001633648
-4.8823834e-05
-0.00016940363
-5.164646e-05
-0.00017627997
-5.4210187e-05
-0.0001841048
-5.6472885e-05
-0.00019300274
-5.838947e-05
-0.00020313496
-5.9894509e-05
-0.00021470554
-6.0894833e-05
-0.00022795927
-6.1285716e-05
-0.00024319708
-6.0935218e-05
-0.00026078643
-5.969803e-05
-0.00028119801
-5.7357004e-05
-0.0003050346
-5.3678667e-05
-0.00033306414
-4.8289392e-05
-0.0003663025
-4.0870765e-05
-0.00040604188
-3.0749904e-05
-0.00045415583
-1.7381277e-05
-0.0005129736
-0.00058610672
3.0850389e-07
1.759339e-05
3.1091861e-05
4.115308e-05
4.8652047e-05
5.3998098e-05
5.767083e-05
6.005794e-05
6.1308519e-05
6.1649345e-05
6.1273124e-05
6.0279554e-05
5.8782294e-05
5.6861341e-05
5.4607012e-05
5.2067492e-05
4.9278513e-05
4.6280522e-05
4.3106261e-05
3.9783631e-05
3.6336298e-05
3.2784392e-05
2.9145246e-05
2.5433699e-05
2.1662848e-05
1.7844021e-05
1.3987557e-05
1.0102541e-05
6.1976598e-06
2.2807449e-06
-1.6401144e-06
-5.5571079e-06
-9.4620206e-06
-1.3347115e-05
-1.720359e-05
-2.1022535e-05
-2.4793395e-05
-2.8505146e-05
-3.2144877e-05
-3.5699546e-05
-3.9158816e-05
-4.250129e-05
-4.5700598e-05
-4.8729923e-05
-5.1550693e-05
-5.4116154e-05
-5.6372824e-05
-5.8284414e-05
-5.9785207e-05
-6.0777245e-05
-6.1164283e-05
-6.0803132e-05
-5.9559118e-05
-5.7204748e-05
-5.3521736e-05
-4.812439e-05
-4.0698248e-05
-3.0565702e-05
-1.7178032e-05
5.3448109e-07
-6.3981015e-06
-0.00022317284
0.00021726236
1.2308651e-05
-1.2711402e-06
-0.00022387018
0.00021874327
3.144369e-06
-0.00022460037
0.0002201849
6.912436e-06
-0.00022535418
0.00022158616
1.0090071e-05
-0.00022612329
0.00022294569
1.2728369e-05
-0.00022690079
0.00022426254
1.4873269e-05
-0.00022768037
0.00022553551
1.6566295e-05
-0.00022845635
0.00022676337
1.7845096e-05
-0.00022922386
0.00022794509
1.8743985e-05
-0.00022997833
0.00022907949
1.9294387e-05
-0.00023071589
0.00023016552
1.9525138e-05
-0.00023143289
0.00023120218
1.9462881e-05
-0.00023212618
0.00023218847
1.913232e-05
-0.00023279293
0.00023312353
1.8556417e-05
-0.00023343042
0.00023400635
1.7756674e-05
-0.00023403643
0.00023483621
1.6753256e-05
-0.00023460892
0.00023561236
1.5565204e-05
-0.00023514608
0.00023633416
1.4210533e-05
-0.0002356462
0.00023700089
1.2706389e-05
-0.00023610766
0.00023761183
1.1069123e-05
-0.00023652896
0.00023816624
9.3144256e-06
-0.00023690878
0.0002386635
7.4573894e-06
-0.00023724616
0.00023910321
5.5126294e-06
-0.00023754037
0.00023948515
3.4943345e-06
-0.00023779088
0.00023980919
1.4163745e-06
-0.00023799703
0.00024007501
-7.0767202e-07
-0.00023815812
0.00024028218
-2.8644286e-06
-0.0002382735
0.00024043027
-5.0406701e-06
-0.00023834272
0.00024051897
-7.2232535e-06
-0.00023836554
0.00024054813
-9.3990976e-06
-0.00023834192
0.00024051777
-1.1555091e-05
-0.00023827204
0.00024042804
-1.3678043e-05
-0.00023815619
0.00024027915
-1.5754591e-05
-0.00023799476
0.00024007132
-1.7771139e-05
-0.00023778818
0.00023980473
-1.9713798e-05
-0.0002375369
0.00023947956
-2.1568353e-05
-0.0002372415
0.00023909606
-2.3320208e-05
-0.00023690268
0.00023865454
-2.4954309e-05
-0.00023652142
0.00023815552
-2.6455046e-05
-0.00023609887
0.00023759961
-2.7806131e-05
-0.00023563637
0.00023698746
-2.8990485e-05
-0.00023513537
0.00023631973
-2.9990124e-05
-0.00023459739
0.00023559703
-3.0786052e-05
-0.00023402412
0.00023482005
-3.1358105e-05
-0.00023341739
0.00023398945
-3.1684832e-05
-0.00023277933
0.00023310606
-3.1743212e-05
-0.00023211217
0.00023217056
-3.1508527e-05
-0.00023141856
0.00023118389
-3.0954055e-05
-0.00023070113
0.00023014667
-3.005093e-05
-0.00022996281
0.0002290597
-2.8767767e-05
-0.00022920703
0.00022792387
-2.7070381e-05
-0.00022843768
0.0002267403
-2.4921394e-05
-0.00022765988
0.0002255109
-2.227986e-05
-0.00022688022
0.0002242387
-1.9101039e-05
-0.0002261095
0.00022293069
-1.5336169e-05
-0.00022536831
0.00022160346
-1.0932691e-05
-0.00022470212
0.00022029865
-5.8363751e-06
-0.00022422607
0.00021912977
-0.00022426885
0.00021843247
-5.1767518e-06
-0.00022953791
1.15419e-05
3.4054325e-07
-0.00022938742
5.0880451e-06
-0.00022934783
9.1349998e-06
-0.00022940107
1.2543155e-05
-0.0002295314
1.5367794e-05
-0.00022972538
1.7658611e-05
-0.00022997114
1.946052e-05
-0.0002302582
2.0814242e-05
-0.00023057754
2.1756902e-05
-0.00023092094
2.2322502e-05
-0.00023128145
2.2542241e-05
-0.00023165258
2.2444951e-05
-0.00023202885
2.2057365e-05
-0.0002324053
2.1404332e-05
-0.00023277735
2.0509128e-05
-0.00023314118
1.9393576e-05
-0.00023349333
1.8078272e-05
-0.00023383074
1.6582697e-05
-0.0002341506
1.4925371e-05
-0.00023445031
1.3123965e-05
-0.00023472753
1.1195438e-05
-0.00023498023
9.1561276e-06
-0.00023520683
7.0218522e-06
-0.00023540608
4.8079695e-06
-0.00023557699
2.5294587e-06
-0.00023571851
2.0099534e-07
-0.00023582965
-2.1629827e-06
-0.00023590952
-4.5481931e-06
-0.0002359575
-6.9404316e-06
-0.00023597329
-9.3255251e-06
-0.00023595682
-1.1689276e-05
-0.00023590828
-1.4017394e-05
-0.00023582807
-1.6295422e-05
-0.00023571673
-1.8508668e-05
-0.00023557492
-2.064213e-05
-0.00023540343
-2.2680432e-05
-0.00023520319
-2.4607749e-05
-0.00023497536
-2.6407748e-05
-0.00023472141
-2.8063479e-05
-0.00023444313
-2.9557286e-05
-0.00023414256
-3.0870668e-05
-0.00023382198
-3.1984172e-05
-0.00023348388
-3.2877238e-05
-0.00023313104
-3.3528054e-05
-0.00023276657
-3.3913372e-05
-0.000232394
-3.4008326e-05
-0.00023201721
-3.3786157e-05
-0.00023164073
-3.3217971e-05
-0.00023126931
-3.2272574e-05
-0.0002309082
-3.091594e-05
-0.00023056365
-2.9110999e-05
-0.00023024261
-2.6817172e-05
-0.0002299537
-2.3989925e-05
-0.00022970747
-2.0580324e-05
-0.0002295191
-1.6534858e-05
-0.00022941378
-1.1795479e-05
-0.0002294415
-6.301679e-06
-0.00022971988
-0.00023057052
-3.9235971e-06
-0.00023639533
1.0781093e-05
2.0166832e-06
-0.00023532764
7.1242114e-06
-0.00023445532
1.1473913e-05
-0.00023375072
1.5132542e-05
-0.00023319
1.8159904e-05
-0.00023275269
2.0609738e-05
-0.00023242095
2.2530636e-05
-0.00023217905
2.3966632e-05
-0.0002320135
2.4957894e-05
-0.00023191216
2.5541196e-05
-0.00023186472
2.5750289e-05
-0.00023186164
2.561636e-05
-0.0002318949
2.5168333e-05
-0.00023195724
2.4433095e-05
-0.00023204209
2.3435821e-05
-0.00023214389
2.2200125e-05
-0.00023225762
2.0748289e-05
-0.0002323789
1.9101386e-05
-0.00023250368
1.7279448e-05
-0.00023262836
1.5301595e-05
-0.00023274967
1.3186169e-05
-0.0002328648
1.0950849e-05
-0.00023297151
8.6127389e-06
-0.00023306797