/*--------------------------------*- C++ -*----------------------------------*\
| =========                 |                                                 |
| \\      /  F ield         | OpenFOAM: The Open Source CFD Toolbox           |
|  \\    /   O peration     | Version:  v2006                                 |
|   \\  /    A nd           | Website:  www.openfoam.com                      |
|    \\/     M anipulation  |                                                 |
\*---------------------------------------------------------------------------*/
FoamFile
{
    version     2.0;
    format      ascii;
    class       volScalarField;
    location    "10000";
    object      pMean;
}
// * * * * * * * * * * * * * * * * * * * * * * * * * * * * * * * * * * * * * //

dimensions      [1 -1 -2 0 0 0 0];


internalField   nonuniform List<scalar> 
55713
(
1.0000317
1.0000317
1.0000317
1.0000317
1.0000317
1.0000317
1.0000317
1.0000317
1.0000317
1.0000317
1.0000317
1.0000317
1.0000317
1.0000317
1.0000317
1.0000317
1.0000317
1.0000317
1.0000317
1.0000317
1.0000317
1.0000317
1.0000317
1.0000317
1.0000317
1.0000317
1.0000317
1.0000317
1.0000317
1.0000317
1.0000317
1.0000317
1.0000317
1.0000317
1.0000317
1.0000317
1.0000317
1.0000317
1.0000317
1.0000317
1.0000317
1.0000317
1.0000317
1.0000317
1.0000317
1.0000317
1.0000317
1.0000317
1.0000316
1.0000316
1.0000316
1.0000316
1.0000316
1.0000316
1.0000316
1.0000316
1.0000316
1.0000316
1.0000316
1.0000296
1.0000296
1.0000296
1.0000296
1.0000296
1.0000296
1.0000296
1.0000296
1.0000296
1.0000296
1.0000296
1.0000296
1.0000296
1.0000296
1.0000296
1.0000296
1.0000296
1.0000296
1.0000296
1.0000296
1.0000296
1.0000296
1.0000296
1.0000296
1.0000296
1.0000296
1.0000296
1.0000296
1.0000296
1.0000296
1.0000296
1.0000296
1.0000296
1.0000296
1.0000296
1.0000296
1.0000296
1.0000296
1.0000296
1.0000296
1.0000296
1.0000296
1.0000296
1.0000296
1.0000296
1.0000296
1.0000296
1.0000296
1.0000296
1.0000296
1.0000296
1.0000296
1.0000296
1.0000296
1.0000296
1.0000296
1.0000296
1.0000296
1.0000296
1.0000278
1.0000278
1.0000278
1.0000278
1.0000278
1.0000278
1.0000278
1.0000278
1.0000278
1.0000278
1.0000278
1.0000278
1.0000278
1.0000278
1.0000278
1.0000278
1.0000278
1.0000278
1.0000278
1.0000278
1.0000278
1.0000278
1.0000278
1.0000278
1.0000278
1.0000278
1.0000278
1.0000278
1.0000278
1.0000278
1.0000278
1.0000278
1.0000278
1.0000278
1.0000278
1.0000278
1.0000278
1.0000278
1.0000278
1.0000278
1.0000278
1.0000278
1.0000278
1.0000278
1.0000278
1.0000278
1.0000278
1.0000278
1.0000278
1.0000278
1.0000278
1.0000279
1.0000279
1.0000279
1.0000279
1.0000279
1.0000279
1.0000279
1.0000279
1.0000262
1.0000262
1.0000262
1.0000262
1.0000262
1.0000262
1.0000262
1.0000262
1.0000263
1.0000263
1.0000263
1.0000263
1.0000263
1.0000263
1.0000263
1.0000263
1.0000263
1.0000263
1.0000263
1.0000263
1.0000263
1.0000263
1.0000263
1.0000263
1.0000263
1.0000263
1.0000263
1.0000263
1.0000263
1.0000263
1.0000263
1.0000263
1.0000263
1.0000263
1.0000263
1.0000263
1.0000263
1.0000263
1.0000263
1.0000263
1.0000263
1.0000263
1.0000263
1.0000263
1.0000263
1.0000263
1.0000263
1.0000263
1.0000263
1.0000263
1.0000263
1.0000263
1.0000263
1.0000263
1.0000263
1.0000263
1.0000263
1.0000263
1.0000263
1.0000249
1.0000249
1.0000249
1.0000249
1.0000249
1.0000249
1.0000249
1.0000249
1.0000249
1.0000249
1.0000249
1.0000249
1.0000249
1.0000249
1.0000249
1.0000249
1.0000249
1.0000249
1.0000249
1.0000249
1.0000249
1.0000249
1.0000249
1.0000249
1.0000249
1.0000249
1.0000249
1.0000249
1.0000249
1.0000249
1.0000249
1.0000249
1.0000249
1.0000249
1.0000249
1.0000249
1.0000249
1.0000249
1.0000249
1.0000249
1.0000249
1.0000249
1.000025
1.000025
1.000025
1.000025
1.000025
1.000025
1.000025
1.000025
1.000025
1.000025
1.000025
1.000025
1.000025
1.000025
1.000025
1.000025
1.000025
1.0000237
1.0000237
1.0000237
1.0000238
1.0000238
1.0000238
1.0000238
1.0000238
1.0000238
1.0000238
1.0000238
1.0000238
1.0000238
1.0000238
1.0000238
1.0000238
1.0000238
1.0000238
1.0000238
1.0000238
1.0000238
1.0000238
1.0000238
1.0000238
1.0000238
1.0000238
1.0000238
1.0000238
1.0000238
1.0000238
1.0000238
1.0000238
1.0000238
1.0000238
1.0000238
1.0000238
1.0000238
1.0000238
1.0000238
1.0000238
1.0000238
1.0000238
1.0000238
1.0000238
1.0000238
1.0000238
1.0000238
1.0000238
1.0000238
1.0000238
1.0000238
1.0000238
1.0000238
1.0000238
1.0000238
1.0000238
1.0000238
1.0000238
1.0000238
1.0000227
1.0000227
1.0000227
1.0000227
1.0000227
1.0000227
1.0000227
1.0000227
1.0000227
1.0000227
1.0000227
1.0000227
1.0000227
1.0000227
1.0000227
1.0000227
1.0000227
1.0000227
1.0000228
1.0000228
1.0000228
1.0000228
1.0000228
1.0000228
1.0000228
1.0000228
1.0000228
1.0000228
1.0000228
1.0000228
1.0000228
1.0000228
1.0000228
1.0000228
1.0000228
1.0000228
1.0000228
1.0000228
1.0000228
1.0000228
1.0000228
1.0000228
1.0000228
1.0000228
1.0000228
1.0000228
1.0000228
1.0000228
1.0000228
1.0000228
1.0000228
1.0000228
1.0000228
1.0000228
1.0000228
1.0000228
1.0000228
1.0000228
1.0000228
1.0000218
1.0000218
1.0000218
1.0000218
1.0000218
1.0000218
1.0000218
1.0000218
1.0000218
1.0000218
1.0000218
1.0000218
1.0000218
1.0000218
1.0000218
1.0000218
1.0000218
1.0000218
1.0000218
1.0000218
1.0000218
1.0000218
1.0000218
1.0000218
1.0000218
1.0000218
1.0000218
1.0000218
1.0000218
1.0000218
1.0000218
1.0000218
1.0000218
1.0000218
1.0000218
1.0000218
1.0000218
1.0000218
1.0000218
1.0000218
1.0000218
1.0000218
1.0000218
1.0000218
1.0000218
1.0000218
1.0000218
1.0000218
1.0000218
1.0000218
1.0000218
1.0000218
1.0000218
1.0000218
1.0000218
1.0000218
1.0000219
1.0000219
1.0000219
1.0000213
1.0000213
1.0000213
1.0000213
1.0000213
1.0000213
1.0000213
1.0000213
1.0000213
1.0000213
1.0000213
1.0000213
1.0000213
1.0000213
1.0000213
1.0000214
1.0000214
1.0000214
1.0000214
1.0000214
1.0000214
1.0000214
1.0000214
1.0000214
1.0000214
1.0000214
1.0000214
1.0000214
1.0000214
1.0000214
1.0000214
1.0000214
1.0000214
1.0000214
1.0000214
1.0000214
1.0000214
1.0000214
1.0000214
1.0000214
1.0000214
1.0000214
1.0000214
1.0000214
1.0000214
1.0000214
1.0000214
1.0000214
1.0000214
1.0000214
1.0000214
1.0000214
1.0000214
1.0000214
1.0000214
1.0000214
1.0000214
1.0000214
1.0000214
1.0000209
1.0000209
1.0000209
1.000021
1.000021
1.000021
1.000021
1.000021
1.000021
1.000021
1.000021
1.000021
1.000021
1.000021
1.000021
1.000021
1.000021
1.000021
1.000021
1.000021
1.000021
1.000021
1.000021
1.000021
1.000021
1.000021
1.000021
1.000021
1.000021
1.000021
1.000021
1.000021
1.000021
1.000021
1.000021
1.000021
1.000021
1.000021
1.000021
1.000021
1.000021
1.000021
1.000021
1.000021
1.000021
1.000021
1.000021
1.000021
1.000021
1.000021
1.000021
1.000021
1.000021
1.000021
1.000021
1.000021
1.000021
1.000021
1.000021
1.000019
1.000019
1.000019
1.000019
1.000019
1.000019
1.0000191
1.0000191
1.0000191
1.0000191
1.0000191
1.0000191
1.0000191
1.0000191
1.0000191
1.0000191
1.0000191
1.0000191
1.0000191
1.0000191
1.0000191
1.0000191
1.0000191
1.0000191
1.0000191
1.0000191
1.0000191
1.0000191
1.0000191
1.0000191
1.0000191
1.0000191
1.0000191
1.0000191
1.0000191
1.0000191
1.0000191
1.0000191
1.0000191
1.0000191
1.0000191
1.0000191
1.0000191
1.0000191
1.0000191
1.0000191
1.0000191
1.0000191
1.0000191
1.0000191
1.0000191
1.0000191
1.0000191
1.0000191
1.0000191
1.0000191
1.0000191
1.0000191
1.0000191
1.000019
1.000019
1.0000189
1.0000189
1.0000189
1.0000189
1.0000189
1.0000189
1.0000189
1.0000189
1.0000189
1.0000189
1.0000189
1.0000189
1.0000189
1.0000189
1.0000189
1.0000188
1.0000188
1.0000188
1.0000188
1.0000188
1.0000188
1.0000188
1.0000188
1.0000188
1.0000188
1.0000188
1.0000188
1.0000188
1.0000188
1.0000188
1.0000188
1.0000188
1.0000188
1.0000188
1.0000188
1.0000188
1.0000188
1.0000188
1.0000188
1.0000188
1.0000188
1.0000188
1.0000188
1.0000188
1.0000188
1.0000188
1.0000187
1.0000187
1.0000187
1.0000187
1.0000187
1.0000187
1.0000187
1.0000187
1.0000187
1.0000187
1.0000187
1.0000287
1.0000287
1.0000286
1.0000286
1.0000286
1.0000286
1.0000286
1.0000286
1.0000286
1.0000286
1.0000286
1.0000286
1.0000286
1.0000286
1.0000286
1.0000286
1.0000286
1.0000286
1.0000286
1.0000286
1.0000286
1.0000286
1.0000286
1.0000286
1.0000286
1.0000286
1.0000286
1.0000286
1.0000286
1.0000286
1.0000286
1.0000286
1.0000286
1.0000286
1.0000286
1.0000286
1.0000286
1.0000286
1.0000286
1.0000286
1.0000286
1.0000286
1.0000286
1.0000286
1.0000286
1.0000286
1.0000286
1.0000286
1.0000286
1.0000286
1.0000286
1.0000286
1.0000286
1.0000286
1.0000286
1.0000286
1.0000286
1.0000286
1.0000286
1.0000182
1.0000182
1.0000182
1.0000182
1.0000182
1.0000182
1.0000182
1.0000182
1.0000182
1.0000183
1.0000183
1.0000183
1.0000183
1.0000183
1.0000183
1.0000183
1.0000183
1.0000183
1.0000183
1.0000183
1.0000183
1.0000183
1.0000183
1.0000183
1.0000183
1.0000183
1.0000183
1.0000183
1.0000183
1.0000183
1.0000183
1.0000183
1.0000183
1.0000183
1.0000183
1.0000183
1.0000183
1.0000183
1.0000183
1.0000183
1.0000183
1.0000183
1.0000183
1.0000183
1.0000183
1.0000183
1.0000183
1.0000183
1.0000183
1.0000183
1.0000183
1.0000183
1.0000183
1.0000183
1.0000183
1.0000183
1.0000183
1.0000183
1.0000183
1.0001198
1.0001198
1.0001199
1.0001199
1.00012
1.00012
1.00012
1.0001201
1.0001201
1.0001201
1.0001202
1.0001202
1.0001202
1.0001203
1.0001203
1.0001203
1.0001204
1.0001204
1.0001204
1.0001205
1.0001205
1.0001205
1.0001205
1.0001206
1.0001206
1.0001206
1.0001207
1.0001207
1.0001207
1.0001207
1.0001207
1.0001208
1.0001208
1.0001208
1.0001208
1.0001208
1.0001208
1.0001209
1.0001209
1.0001209
1.0001209
1.0001209
1.0001209
1.0001209
1.0001209
1.000121
1.000121
1.000121
1.000121
1.000121
1.000121
1.000121
1.000121
1.000121
1.000121
1.000121
1.000121
1.000121
1.000121
1.0001098
1.0001099
1.0001099
1.0001099
1.0001099
1.00011
1.00011
1.00011
1.0001101
1.0001101
1.0001101
1.0001102
1.0001102
1.0001102
1.0001102
1.0001103
1.0001103
1.0001103
1.0001103
1.0001104
1.0001104
1.0001104
1.0001104
1.0001104
1.0001105
1.0001105
1.0001105
1.0001105
1.0001105
1.0001106
1.0001106
1.0001106
1.0001106
1.0001106
1.0001106
1.0001107
1.0001107
1.0001107
1.0001107
1.0001107
1.0001107
1.0001107
1.0001107
1.0001108
1.0001108
1.0001108
1.0001108
1.0001108
1.0001108
1.0001108
1.0001108
1.0001108
1.0001108
1.0001108
1.0001108
1.0001108
1.0001108
1.0001108
1.0001108
1.0001005
1.0001005
1.0001006
1.0001006
1.0001006
1.0001006
1.0001007
1.0001007
1.0001007
1.0001007
1.0001008
1.0001008
1.0001008
1.0001008
1.0001008
1.0001009
1.0001009
1.0001009
1.0001009
1.0001009
1.000101
1.000101
1.000101
1.000101
1.000101
1.000101
1.0001011
1.0001011
1.0001011
1.0001011
1.0001011
1.0001011
1.0001011
1.0001012
1.0001012
1.0001012
1.0001012
1.0001012
1.0001012
1.0001012
1.0001012
1.0001012
1.0001012
1.0001013
1.0001013
1.0001013
1.0001013
1.0001013
1.0001013
1.0001013
1.0001013
1.0001013
1.0001013
1.0001013
1.0001013
1.0001013
1.0001013
1.0001013
1.0001013
1.0000918
1.0000918
1.0000918
1.0000918
1.0000919
1.0000919
1.0000919
1.0000919
1.0000919
1.000092
1.000092
1.000092
1.000092
1.000092
1.0000921
1.0000921
1.0000921
1.0000921
1.0000921
1.0000921
1.0000922
1.0000922
1.0000922
1.0000922
1.0000922
1.0000922
1.0000922
1.0000922
1.0000923
1.0000923
1.0000923
1.0000923
1.0000923
1.0000923
1.0000923
1.0000923
1.0000923
1.0000923
1.0000924
1.0000924
1.0000924
1.0000924
1.0000924
1.0000924
1.0000924
1.0000924
1.0000924
1.0000924
1.0000924
1.0000924
1.0000924
1.0000924
1.0000924
1.0000924
1.0000924
1.0000924
1.0000924
1.0000924
1.0000924
1.0000837
1.0000837
1.0000837
1.0000837
1.0000837
1.0000838
1.0000838
1.0000838
1.0000838
1.0000838
1.0000838
1.0000839
1.0000839
1.0000839
1.0000839
1.0000839
1.0000839
1.0000839
1.0000839
1.000084
1.000084
1.000084
1.000084
1.000084
1.000084
1.000084
1.000084
1.000084
1.0000841
1.0000841
1.0000841
1.0000841
1.0000841
1.0000841
1.0000841
1.0000841
1.0000841
1.0000841
1.0000841
1.0000841
1.0000841
1.0000842
1.0000842
1.0000842
1.0000842
1.0000842
1.0000842
1.0000842
1.0000842
1.0000842
1.0000842
1.0000842
1.0000842
1.0000842
1.0000842
1.0000842
1.0000842
1.0000842
1.0000842
1.0000761
1.0000761
1.0000762
1.0000762
1.0000762
1.0000762
1.0000762
1.0000762
1.0000762
1.0000763
1.0000763
1.0000763
1.0000763
1.0000763
1.0000763
1.0000763
1.0000763
1.0000763
1.0000764
1.0000764
1.0000764
1.0000764
1.0000764
1.0000764
1.0000764
1.0000764
1.0000764
1.0000764
1.0000764
1.0000765
1.0000765
1.0000765
1.0000765
1.0000765
1.0000765
1.0000765
1.0000765
1.0000765
1.0000765
1.0000765
1.0000765
1.0000765
1.0000765
1.0000765
1.0000765
1.0000765
1.0000765
1.0000765
1.0000765
1.0000765
1.0000766
1.0000766
1.0000766
1.0000766
1.0000766
1.0000766
1.0000766
1.0000766
1.0000766
1.0000692
1.0000692
1.0000692
1.0000692
1.0000692
1.0000692
1.0000692
1.0000692
1.0000693
1.0000693
1.0000693
1.0000693
1.0000693
1.0000693
1.0000693
1.0000693
1.0000693
1.0000693
1.0000693
1.0000694
1.0000694
1.0000694
1.0000694
1.0000694
1.0000694
1.0000694
1.0000694
1.0000694
1.0000694
1.0000694
1.0000694
1.0000694
1.0000694
1.0000694
1.0000694
1.0000694
1.0000695
1.0000695
1.0000695
1.0000695
1.0000695
1.0000695
1.0000695
1.0000695
1.0000695
1.0000695
1.0000695
1.0000695
1.0000695
1.0000695
1.0000695
1.0000695
1.0000695
1.0000695
1.0000695
1.0000695
1.0000695
1.0000695
1.0000695
1.0000627
1.0000627
1.0000628
1.0000628
1.0000628
1.0000628
1.0000628
1.0000628
1.0000628
1.0000628
1.0000628
1.0000628
1.0000628
1.0000628
1.0000629
1.0000629
1.0000629
1.0000629
1.0000629
1.0000629
1.0000629
1.0000629
1.0000629
1.0000629
1.0000629
1.0000629
1.0000629
1.0000629
1.0000629
1.0000629
1.0000629
1.0000629
1.000063
1.000063
1.000063
1.000063
1.000063
1.000063
1.000063
1.000063
1.000063
1.000063
1.000063
1.000063
1.000063
1.000063
1.000063
1.000063
1.000063
1.000063
1.000063
1.000063
1.000063
1.000063
1.000063
1.000063
1.000063
1.000063
1.000063
1.0000568
1.0000568
1.0000568
1.0000568
1.0000569
1.0000569
1.0000569
1.0000569
1.0000569
1.0000569
1.0000569
1.0000569
1.0000569
1.0000569
1.0000569
1.0000569
1.0000569
1.0000569
1.0000569
1.0000569
1.0000569
1.000057
1.000057
1.000057
1.000057
1.000057
1.000057
1.000057
1.000057
1.000057
1.000057
1.000057
1.000057
1.000057
1.000057
1.000057
1.000057
1.000057
1.000057
1.000057
1.000057
1.000057
1.000057
1.000057
1.000057
1.000057
1.000057
1.000057
1.000057
1.000057
1.000057
1.000057
1.000057
1.000057
1.000057
1.000057
1.000057
1.000057
1.000057
1.0000514
1.0000514
1.0000514
1.0000514
1.0000514
1.0000514
1.0000514
1.0000515
1.0000515
1.0000515
1.0000515
1.0000515
1.0000515
1.0000515
1.0000515
1.0000515
1.0000515
1.0000515
1.0000515
1.0000515
1.0000515
1.0000515
1.0000515
1.0000515
1.0000515
1.0000515
1.0000515
1.0000515
1.0000515
1.0000515
1.0000515
1.0000515
1.0000515
1.0000515
1.0000516
1.0000516
1.0000516
1.0000516
1.0000516
1.0000516
1.0000516
1.0000516
1.0000516
1.0000516
1.0000516
1.0000516
1.0000516
1.0000516
1.0000516
1.0000516
1.0000516
1.0000516
1.0000516
1.0000516
1.0000516
1.0000516
1.0000516
1.0000516
1.0000516
1.0000465
1.0000465
1.0000465
1.0000465
1.0000465
1.0000465
1.0000465
1.0000465
1.0000465
1.0000465
1.0000465
1.0000465
1.0000465
1.0000465
1.0000465
1.0000465
1.0000465
1.0000465
1.0000465
1.0000465
1.0000466
1.0000466
1.0000466
1.0000466
1.0000466
1.0000466
1.0000466
1.0000466
1.0000466
1.0000466
1.0000466
1.0000466
1.0000466
1.0000466
1.0000466
1.0000466
1.0000466
1.0000466
1.0000466
1.0000466
1.0000466
1.0000466
1.0000466
1.0000466
1.0000466
1.0000466
1.0000466
1.0000466
1.0000466
1.0000466
1.0000466
1.0000466
1.0000466
1.0000466
1.0000466
1.0000466
1.0000466
1.0000466
1.0000466
1.000042
1.000042
1.000042
1.000042
1.000042
1.000042
1.000042
1.000042
1.000042
1.000042
1.000042
1.000042
1.000042
1.000042
1.000042
1.000042
1.000042
1.000042
1.000042
1.000042
1.000042
1.000042
1.000042
1.000042
1.000042
1.000042
1.000042
1.000042
1.0000421
1.0000421
1.0000421
1.0000421
1.0000421
1.0000421
1.0000421
1.0000421
1.0000421
1.0000421
1.0000421
1.0000421
1.0000421
1.0000421
1.0000421
1.0000421
1.0000421
1.0000421
1.0000421
1.0000421
1.0000421
1.0000421
1.0000421
1.0000421
1.0000421
1.0000421
1.0000421
1.0000421
1.0000421
1.0000421
1.0000421
1.0000379
1.0000379
1.0000379
1.0000379
1.0000379
1.0000379
1.0000379
1.0000379
1.0000379
1.0000379
1.0000379
1.0000379
1.0000379
1.0000379
1.0000379
1.0000379
1.0000379
1.0000379
1.0000379
1.0000379
1.0000379
1.0000379
1.000038
1.000038
1.000038
1.000038
1.000038
1.000038
1.000038
1.000038
1.000038
1.000038
1.000038
1.000038
1.000038
1.000038
1.000038
1.000038
1.000038
1.000038
1.000038
1.000038
1.000038
1.000038
1.000038
1.000038
1.000038
1.000038
1.000038
1.000038
1.000038
1.000038
1.000038
1.000038
1.000038
1.000038
1.000038
1.000038
1.000038
1.0000343
1.0000343
1.0000343
1.0000343
1.0000343
1.0000343
1.0000343
1.0000343
1.0000344
1.0000344
1.0000344
1.0000344
1.0000344
1.0000344
1.0000344
1.0000344
1.0000344
1.0000344
1.0000344
1.0000344
1.0000344
1.0000344
1.0000344
1.0000344
1.0000344
1.0000344
1.0000344
1.0000344
1.0000344
1.0000344
1.0000344
1.0000344
1.0000344
1.0000344
1.0000344
1.0000344
1.0000344
1.0000344
1.0000344
1.0000344
1.0000344
1.0000344
1.0000344
1.0000344
1.0000344
1.0000344
1.0000344
1.0000344
1.0000344
1.0000344
1.0000344
1.0000344
1.0000344
1.0000344
1.0000344
1.0000344
1.0000344
1.0000344
1.0000344
1.0001331
1.0001478
1.0001642
1.0001821
1.0002017
1.0002231
1.0002463
1.0002715
1.0002986
1.0003279
1.0003593
1.0003929
1.0004286
1.0004664
1.000506
1.0005474
1.0005902
1.000634
1.0006784
1.0007225
1.0007657
1.0008072
1.0008457
1.0008803
1.0009097
1.0009326
1.0009478
1.0009544
1.0009512
1.0009375
1.0009129
1.0008771
1.0008303
1.000773
1.000706
1.0006303
1.000547
1.0004573
1.0003624
1.0002639
1.0001629
1.0000606
0.99995801
0.99985623
0.99975612
0.99965804
0.99956234
0.99946973
0.99938061
0.99929517
0.99921356
0.99913583
0.999062
0.99899223
0.99892646
0.99886443
0.99880601
0.99875114
0.99869966
0.99865136
0.99860614
0.99856391
0.99852449
0.99848773
0.99845347
0.99842156
0.99839187
0.99836424
0.99833855
0.99831468
0.9982925
0.9982719
0.99825282
0.99823503
1.0001331
1.0001478
1.0001642
1.0001821
1.0002017
1.0002231
1.0002463
1.0002715
1.0002986
1.0003279
1.0003593
1.0003929
1.0004286
1.0004664
1.000506
1.0005474
1.0005902
1.000634
1.0006784
1.0007225
1.0007657
1.0008072
1.0008457
1.0008803
1.0009097
1.0009326
1.0009478
1.0009544
1.0009512
1.0009375
1.0009129
1.0008771
1.0008303
1.000773
1.000706
1.0006303
1.000547
1.0004573
1.0003624
1.0002638
1.0001629
1.0000606
0.99995799
0.99985619
0.99975609
0.99965803
0.99956233
0.99946971
0.99938059
0.99929515
0.99921353
0.9991358
0.99906197
0.9989922
0.99892644
0.99886441
0.99880599
0.99875111
0.99869962
0.99865132
0.99860609
0.99856386
0.99852444
0.99848768
0.99845342
0.99842151
0.99839182
0.9983642
0.99833851
0.99831463
0.99829245
0.99827185
0.99825277
0.99823498
1.0001331
1.0001478
1.0001642
1.0001821
1.0002017
1.0002231
1.0002463
1.0002715
1.0002986
1.0003279
1.0003593
1.0003929
1.0004286
1.0004664
1.000506
1.0005474
1.0005902
1.000634
1.0006784
1.0007225
1.0007657
1.0008072
1.0008457
1.0008803
1.0009097
1.0009326
1.0009478
1.0009544
1.0009513
1.0009375
1.0009129
1.0008772
1.0008303
1.0007731
1.000706
1.0006303
1.0005471
1.0004573
1.0003624
1.0002639
1.0001629
1.0000606
0.99995802
0.99985623
0.9997561
0.99965801
0.99956232
0.99946971
0.9993806
0.99929516
0.99921355
0.99913581
0.99906197
0.99899218
0.99892642
0.9988644
0.99880599
0.99875113
0.99869967
0.99865138
0.99860615
0.99856391
0.99852449
0.99848773
0.99845347
0.99842156
0.99839187
0.99836425
0.99833856
0.99831469
0.99829251
0.99827193
0.99825286
0.99823506
1.0001331
1.0001478
1.0001642
1.0001821
1.0002017
1.0002231
1.0002463
1.0002714
1.0002986
1.0003279
1.0003593
1.0003929
1.0004286
1.0004664
1.000506
1.0005474
1.0005902
1.000634
1.0006783
1.0007225
1.0007657
1.0008072
1.0008457
1.0008803
1.0009097
1.0009326
1.0009478
1.0009545
1.0009513
1.0009376
1.000913
1.0008772
1.0008304
1.0007731
1.0007061
1.0006304
1.0005471
1.0004574
1.0003625
1.000264
1.000163
1.0000607
0.99995812
0.99985632
0.99975616
0.99965806
0.99956238
0.99946979
0.99938067
0.99929523
0.99921361
0.99913588
0.99906206
0.99899228
0.99892648
0.99886443
0.99880601
0.99875112
0.99869962
0.99865132
0.99860611
0.99856388
0.99852447
0.99848771
0.99845346
0.99842157
0.99839188
0.99836426
0.99833857
0.99831468
0.99829246
0.99827185
0.99825284
0.99823521
1.0001331
1.0001478
1.0001642
1.0001821
1.0002017
1.0002231
1.0002463
1.0002714
1.0002986
1.0003279
1.0003593
1.0003929
1.0004286
1.0004664
1.000506
1.0005474
1.0005902
1.000634
1.0006783
1.0007225
1.0007657
1.0008072
1.0008457
1.0008803
1.0009097
1.0009326
1.0009478
1.0009545
1.0009514
1.0009376
1.0009131
1.0008773
1.0008305
1.0007733
1.0007063
1.0006305
1.0005473
1.0004575
1.0003627
1.0002641
1.0001631
1.0000608
0.99995827
0.99985647
0.99975629
0.99965817
0.99956251
0.99946991
0.99938079
0.99929535
0.99921373
0.999136
0.9990622
0.9989924
0.99892657
0.99886451
0.99880609
0.9987512
0.99869971
0.99865143
0.99860625
0.99856402
0.99852462
0.99848786
0.99845361
0.99842171
0.99839202
0.9983644
0.99833872
0.99831486
0.9982927
0.99827213
0.99825304
0.9982353
1.0001331
1.0001478
1.0001642
1.0001821
1.0002017
1.0002231
1.0002463
1.0002714
1.0002986
1.0003279
1.0003593
1.0003929
1.0004286
1.0004663
1.000506
1.0005474
1.0005902
1.000634
1.0006783
1.0007225
1.0007657
1.0008072
1.0008457
1.0008803
1.0009097
1.0009326
1.0009479
1.0009546
1.0009514
1.0009377
1.0009132
1.0008775
1.0008307
1.0007735
1.0007065
1.0006307
1.0005475
1.0004577
1.0003629
1.0002644
1.0001634
1.0000611
0.99995852
0.99985671
0.9997565
0.99965837
0.99956271
0.99947013
0.99938101
0.99929556
0.99921393
0.99913621
0.99906241
0.99899261
0.99892676
0.99886469
0.99880625
0.99875135
0.99869984
0.99865156
0.99860637
0.99856415
0.99852474
0.99848799
0.99845374
0.99842185
0.99839216
0.99836455
0.99833887
0.998315
0.99829283
0.99827223
0.99825313
0.99823539
1.0001331
1.0001477
1.0001642
1.0001821
1.0002017
1.0002231
1.0002463
1.0002714
1.0002986
1.0003279
1.0003593
1.0003929
1.0004286
1.0004663
1.000506
1.0005474
1.0005902
1.000634
1.0006783
1.0007225
1.0007657
1.0008072
1.0008458
1.0008803
1.0009098
1.0009327
1.000948
1.0009547
1.0009516
1.0009379
1.0009134
1.0008777
1.0008309
1.0007737
1.0007067
1.000631
1.0005478
1.0004581
1.0003632
1.0002647
1.0001637
1.0000614
0.99995889
0.99985708
0.99975684
0.99965868
0.99956304
0.99947045
0.99938133
0.99929588
0.99921425
0.99913652
0.99906273
0.99899292
0.99892704
0.99886495
0.9988065
0.99875159
0.99870008
0.99865181
0.99860664
0.99856443
0.99852503
0.99848828
0.99845404
0.99842214
0.99839246
0.99836485
0.99833918
0.99831532
0.99829315
0.99827257
0.99825346
0.9982357
1.0001331
1.0001477
1.0001642
1.0001821
1.0002017
1.0002231
1.0002463
1.0002714
1.0002986
1.0003279
1.0003593
1.0003929
1.0004286
1.0004663
1.000506
1.0005474
1.0005902
1.000634
1.0006783
1.0007225
1.0007657
1.0008072
1.0008458
1.0008804
1.0009098
1.0009328
1.0009481
1.0009548
1.0009517
1.0009381
1.0009136
1.000878
1.0008313
1.0007741
1.0007072
1.0006315
1.0005483
1.0004586
1.0003638
1.0002652
1.0001643
1.000062
0.99995942
0.9998576
0.99975734
0.99965916
0.99956352
0.99947093
0.9993818
0.99929635
0.99921471
0.99913698
0.99906319
0.99899337
0.99892747
0.99886536
0.9988069
0.99875197
0.99870045
0.99865218
0.998607
0.99856479
0.99852539
0.99848864
0.99845439
0.99842249
0.99839281
0.9983652
0.99833952
0.99831566
0.99829348
0.99827289
0.99825377
0.998236
1.0001331
1.0001477
1.0001642
1.0001821
1.0002017
1.000223
1.0002462
1.0002714
1.0002986
1.0003279
1.0003593
1.0003928
1.0004285
1.0004663
1.000506
1.0005473
1.0005901
1.000634
1.0006783
1.0007224
1.0007657
1.0008072
1.0008458
1.0008804
1.0009099
1.0009329
1.0009482
1.000955
1.000952
1.0009384
1.0009139
1.0008784
1.0008317
1.0007746
1.0007077
1.0006321
1.0005489
1.0004592
1.0003645
1.000266
1.000165
1.0000627
0.99996017
0.99985835
0.99975805
0.99965986
0.99956421
0.99947163
0.99938249
0.99929702
0.99921537
0.99913764
0.99906385
0.99899401
0.99892808
0.99886594
0.99880746
0.99875253
0.99870099
0.99865272
0.99860755
0.99856534
0.99852594
0.9984892
0.99845495
0.99842306
0.99839338
0.99836577
0.9983401
0.99831623
0.99829406
0.99827346
0.99825434
0.99823656
1.000133
1.0001477
1.0001641
1.0001821
1.0002017
1.000223
1.0002462
1.0002714
1.0002986
1.0003278
1.0003593
1.0003928
1.0004285
1.0004663
1.0005059
1.0005473
1.0005901
1.0006339
1.0006782
1.0007224
1.0007657
1.0008072
1.0008458
1.0008804
1.00091
1.000933
1.0009484
1.0009552
1.0009523
1.0009388
1.0009144
1.0008789
1.0008323
1.0007753
1.0007085
1.0006329
1.0005498
1.0004602
1.0003654
1.000267
1.000166
1.0000637
0.99996121
0.99985938
0.99975906
0.99966084
0.99956519
0.9994726
0.99938345
0.99929797
0.99921631
0.99913856
0.99906476
0.99899491
0.99892895
0.99886678
0.99880829
0.99875333
0.99870179
0.99865351
0.99860833
0.99856612
0.99852671
0.99848996
0.99845571
0.99842381
0.99839412
0.9983665
0.99834081
0.99831694
0.99829476
0.99827416
0.99825502
0.99823724
1.000133
1.0001477
1.0001641
1.0001821
1.0002017
1.000223
1.0002462
1.0002714
1.0002985
1.0003278
1.0003592
1.0003928
1.0004285
1.0004662
1.0005059
1.0005473
1.0005901
1.0006339
1.0006782
1.0007224
1.0007657
1.0008071
1.0008458
1.0008805
1.0009101
1.0009331
1.0009486
1.0009555
1.0009527
1.0009393
1.000915
1.0008796
1.0008332
1.0007763
1.0007096
1.0006341
1.000551
1.0004614
1.0003668
1.0002683
1.0001674
1.0000652
0.99996263
0.99986079
0.99976045
0.9996622
0.99956654
0.99947394
0.99938478
0.99929928
0.9992176
0.99913983
0.99906601
0.99899614
0.99893015
0.99886795
0.99880943
0.99875446
0.9987029
0.9986546
0.99860942
0.9985672
0.99852779
0.99849103
0.99845677
0.99842487
0.99839518
0.99836756
0.99834187
0.99831799
0.99829581
0.99827519
0.99825605
0.99823826
1.000133
1.0001477
1.0001641
1.0001821
1.0002017
1.000223
1.0002462
1.0002713
1.0002985
1.0003278
1.0003592
1.0003927
1.0004284
1.0004662
1.0005058
1.0005472
1.00059
1.0006338
1.0006782
1.0007223
1.0007656
1.0008071
1.0008458
1.0008806
1.0009102
1.0009333
1.0009489
1.0009559
1.0009532
1.0009399
1.0009158
1.0008805
1.0008343
1.0007775
1.0007109
1.0006356
1.0005526
1.0004631
1.0003685
1.0002702
1.0001693
1.0000671
0.99996455
0.99986271
0.99976234
0.99966407
0.99956839
0.99947578
0.99938659
0.99930107
0.99921936
0.99914157
0.99906772
0.99899782
0.9989318
0.99886957
0.99881101
0.99875602
0.99870443
0.99865612
0.99861092
0.99856869
0.99852926
0.99849249
0.99845822
0.9984263
0.9983966
0.99836896
0.99834326
0.99831937
0.99829717
0.99827655
0.99825739
0.99823959
1.000133
1.0001477
1.0001641
1.0001821
1.0002016
1.000223
1.0002462
1.0002713
1.0002985
1.0003278
1.0003592
1.0003927
1.0004284
1.0004661
1.0005058
1.0005472
1.0005899
1.0006338
1.0006781
1.0007223
1.0007656
1.0008071
1.0008459
1.0008806
1.0009103
1.0009336
1.0009492
1.0009564
1.0009538
1.0009407
1.0009168
1.0008818
1.0008357
1.0007791
1.0007128
1.0006376
1.0005547
1.0004654
1.0003709
1.0002726
1.0001718
1.0000696
0.99996712
0.99986528
0.99976489
0.99966659
0.99957089
0.99947825
0.99938904
0.99930348
0.99922174
0.99914391
0.99907003
0.99900008
0.99893402
0.99887175
0.99881316
0.99875813
0.99870652
0.99865817
0.99861295
0.9985707
0.99853125
0.99849447
0.99846018
0.99842825
0.99839853
0.99837087
0.99834516
0.99832126
0.99829904
0.9982784
0.99825923
0.99824141
1.000133
1.0001477
1.0001641
1.0001821
1.0002016
1.000223
1.0002461
1.0002713
1.0002985
1.0003277
1.0003591
1.0003927
1.0004283
1.0004661
1.0005057
1.0005471
1.0005899
1.0006337
1.000678
1.0007222
1.0007655
1.0008071
1.0008459
1.0008807
1.0009105
1.0009339
1.0009497
1.000957
1.0009547
1.0009418
1.0009181
1.0008834
1.0008376
1.0007813
1.0007152
1.0006402
1.0005575
1.0004684
1.000374
1.0002759
1.0001751
1.000073
0.99997053
0.99986869
0.99976828
0.99966995
0.99957422
0.99948156
0.9993923
0.9993067
0.99922492
0.99914704
0.99907311
0.99900311
0.998937
0.99887468
0.99881604
0.99876097
0.99870932
0.99866094
0.99861569
0.9985734
0.99853393
0.99849711
0.9984628
0.99843084
0.9984011
0.99837342
0.99834769
0.99832376
0.99830153
0.99828087
0.99826169
0.99824386
1.000133
1.0001477
1.0001641
1.000182
1.0002016
1.0002229
1.0002461
1.0002713
1.0002984
1.0003277
1.0003591
1.0003926
1.0004283
1.000466
1.0005056
1.000547
1.0005898
1.0006336
1.0006779
1.0007221
1.0007655
1.0008071
1.0008459
1.0008809
1.0009108
1.0009343
1.0009502
1.0009578
1.0009558
1.0009432
1.0009199
1.0008854
1.00084
1.000784
1.0007183
1.0006436
1.0005612
1.0004723
1.0003781
1.0002801
1.0001795
1.0000774
0.99997501
0.99987318
0.99977276
0.99967439
0.99957863
0.99948593
0.99939662
0.99931096
0.99922912
0.99915118
0.99907719
0.99900712
0.99894094
0.99887856
0.99881987
0.99876474
0.99871303
0.99866461
0.99861931
0.99857698
0.99853747
0.99850061
0.99846627
0.99843427
0.9984045
0.99837679
0.99835102
0.99832707
0.99830481
0.99828412
0.99826491
0.99824705
1.000133
1.0001477
1.0001641
1.000182
1.0002016
1.0002229
1.0002461
1.0002712
1.0002984
1.0003276
1.000359
1.0003925
1.0004282
1.0004659
1.0005055
1.0005469
1.0005897
1.0006335
1.0006778
1.000722
1.0007654
1.0008071
1.000846
1.000881
1.0009111
1.0009347
1.000951
1.0009588
1.0009571
1.0009449
1.000922
1.0008881
1.0008431
1.0007876
1.0007222
1.000648
1.0005659
1.0004773
1.0003834
1.0002856
1.0001851
1.0000832
0.99998084
0.99987904
0.99977861
0.99968021
0.99958441
0.99949165
0.99940228
0.99931655
0.99923463
0.99915661
0.99908253
0.99901239
0.99894613
0.99888367
0.9988249
0.99876969
0.99871792
0.99866944
0.99862408
0.9985817
0.99854213
0.99850523
0.99847083
0.9984388
0.99840898
0.99838124
0.99835544
0.99833145
0.99830916
0.99828845
0.99826921
0.99825133
1.000133
1.0001476
1.000164
1.000182
1.0002015
1.0002229
1.000246
1.0002712
1.0002983
1.0003276
1.0003589
1.0003924
1.0004281
1.0004658
1.0005054
1.0005467
1.0005895
1.0006333
1.0006777
1.0007219
1.0007653
1.000807
1.000846
1.0008812
1.0009114
1.0009354
1.0009519
1.0009601
1.0009588
1.0009472
1.0009248
1.0008914
1.000847
1.0007921
1.0007273
1.0006536
1.000572
1.0004838
1.0003903
1.0002927
1.0001925
1.0000907
0.99998839
0.99988663
0.99978619
0.99968777
0.99959191
0.99949908
0.99940963
0.99932381
0.99924179
0.99916367
0.99908949
0.99901924
0.99895288
0.99889031
0.99883145
0.99877615
0.99872429
0.99867572
0.99863029
0.99858783
0.99854819