/*--------------------------------*- C++ -*----------------------------------*\
| =========                 |                                                 |
| \\      /  F ield         | OpenFOAM: The Open Source CFD Toolbox           |
|  \\    /   O peration     | Version:  v2006                                 |
|   \\  /    A nd           | Website:  www.openfoam.com                      |
|    \\/     M anipulation  |                                                 |
\*---------------------------------------------------------------------------*/
FoamFile
{
    version     2.0;
    format      ascii;
    class       volScalarField;
    location    "10000";
    object      rho;
}
// * * * * * * * * * * * * * * * * * * * * * * * * * * * * * * * * * * * * * //

dimensions      [1 -3 0 0 0 0 0];


internalField   nonuniform List<scalar> 
55713
(
1.0000226
1.0000214
1.0000206
1.0000203
1.0000202
1.0000202
1.0000203
1.0000203
1.0000203
1.0000203
1.0000203
1.0000203
1.0000203
1.0000203
1.0000203
1.0000203
1.0000203
1.0000203
1.0000203
1.0000203
1.0000203
1.0000203
1.0000203
1.0000203
1.0000203
1.0000203
1.0000203
1.0000203
1.0000203
1.0000203
1.0000203
1.0000203
1.0000203
1.0000203
1.0000203
1.0000203
1.0000203
1.0000203
1.0000203
1.0000203
1.0000203
1.0000203
1.0000203
1.0000203
1.0000203
1.0000203
1.0000203
1.0000203
1.0000203
1.0000203
1.0000203
1.0000203
1.0000203
1.0000202
1.0000202
1.0000202
1.0000202
1.0000202
1.0000202
1.0000209
1.0000198
1.0000192
1.0000189
1.0000189
1.0000189
1.0000189
1.0000189
1.0000189
1.0000189
1.0000189
1.0000189
1.0000189
1.0000189
1.0000189
1.0000189
1.0000189
1.0000189
1.0000189
1.0000189
1.0000189
1.000019
1.000019
1.000019
1.000019
1.000019
1.000019
1.000019
1.000019
1.000019
1.000019
1.000019
1.000019
1.000019
1.000019
1.000019
1.000019
1.000019
1.000019
1.0000189
1.0000189
1.0000189
1.0000189
1.0000189
1.0000189
1.0000189
1.0000189
1.0000189
1.0000189
1.0000189
1.0000189
1.0000189
1.0000189
1.0000189
1.0000189
1.0000189
1.0000189
1.0000189
1.0000189
1.0000195
1.0000184
1.0000179
1.0000177
1.0000177
1.0000177
1.0000177
1.0000177
1.0000177
1.0000177
1.0000177
1.0000177
1.0000177
1.0000177
1.0000177
1.0000177
1.0000177
1.0000178
1.0000178
1.0000178
1.0000178
1.0000178
1.0000178
1.0000178
1.0000178
1.0000178
1.0000178
1.0000178
1.0000178
1.0000178
1.0000178
1.0000178
1.0000178
1.0000178
1.0000178
1.0000178
1.0000178
1.0000178
1.0000178
1.0000178
1.0000178
1.0000178
1.0000178
1.0000178
1.0000178
1.0000178
1.0000177
1.0000177
1.0000177
1.0000177
1.0000177
1.0000177
1.0000177
1.0000177
1.0000177
1.0000177
1.0000177
1.0000177
1.0000177
1.0000183
1.0000173
1.0000168
1.0000166
1.0000166
1.0000166
1.0000167
1.0000167
1.0000167
1.0000167
1.0000167
1.0000167
1.0000167
1.0000167
1.0000167
1.0000167
1.0000167
1.0000167
1.0000167
1.0000167
1.0000167
1.0000167
1.0000167
1.0000167
1.0000167
1.0000167
1.0000168
1.0000168
1.0000168
1.0000168
1.0000168
1.0000168
1.0000167
1.0000167
1.0000167
1.0000167
1.0000167
1.0000167
1.0000167
1.0000167
1.0000167
1.0000167
1.0000167
1.0000167
1.0000167
1.0000167
1.0000167
1.0000167
1.0000167
1.0000167
1.0000167
1.0000167
1.0000167
1.0000167
1.0000167
1.0000167
1.0000167
1.0000167
1.0000167
1.0000172
1.0000162
1.0000158
1.0000157
1.0000157
1.0000157
1.0000158
1.0000158
1.0000158
1.0000158
1.0000158
1.0000158
1.0000158
1.0000158
1.0000158
1.0000158
1.0000158
1.0000158
1.0000158
1.0000158
1.0000158
1.0000158
1.0000158
1.0000158
1.0000158
1.0000159
1.0000159
1.0000159
1.0000159
1.0000159
1.0000159
1.0000159
1.0000159
1.0000158
1.0000158
1.0000158
1.0000158
1.0000159
1.0000158
1.0000158
1.0000158
1.0000158
1.0000158
1.0000158
1.0000158
1.0000158
1.0000158
1.0000158
1.0000158
1.0000158
1.0000158
1.0000158
1.0000158
1.0000158
1.0000158
1.0000158
1.0000158
1.0000158
1.0000158
1.0000163
1.0000154
1.000015
1.000015
1.000015
1.000015
1.000015
1.000015
1.000015
1.000015
1.000015
1.000015
1.000015
1.000015
1.000015
1.000015
1.000015
1.0000151
1.0000151
1.0000151
1.0000151
1.0000151
1.0000151
1.0000151
1.0000151
1.0000151
1.0000151
1.0000151
1.0000151
1.0000151
1.0000151
1.0000151
1.0000151
1.0000151
1.0000151
1.0000151
1.0000151
1.0000151
1.0000151
1.0000151
1.0000151
1.0000151
1.0000151
1.0000151
1.0000151
1.0000151
1.0000151
1.000015
1.0000151
1.0000151
1.0000151
1.000015
1.000015
1.000015
1.000015
1.000015
1.000015
1.000015
1.000015
1.0000154
1.0000146
1.0000143
1.0000143
1.0000143
1.0000143
1.0000143
1.0000143
1.0000143
1.0000143
1.0000143
1.0000143
1.0000143
1.0000143
1.0000143
1.0000143
1.0000144
1.0000144
1.0000144
1.0000144
1.0000144
1.0000144
1.0000144
1.0000144
1.0000144
1.0000144
1.0000144
1.0000144
1.0000144
1.0000144
1.0000144
1.0000144
1.0000144
1.0000144
1.0000144
1.0000144
1.0000144
1.0000144
1.0000144
1.0000144
1.0000144
1.0000144
1.0000144
1.0000144
1.0000144
1.0000144
1.0000144
1.0000144
1.0000144
1.0000144
1.0000144
1.0000143
1.0000143
1.0000143
1.0000143
1.0000143
1.0000143
1.0000143
1.0000143
1.0000146
1.0000139
1.0000136
1.0000136
1.0000137
1.0000137
1.0000137
1.0000137
1.0000137
1.0000137
1.0000137
1.0000137
1.0000137
1.0000137
1.0000137
1.0000137
1.0000137
1.0000137
1.0000137
1.0000137
1.0000137
1.0000137
1.0000137
1.0000137
1.0000138
1.0000138
1.0000138
1.0000138
1.0000138
1.0000138
1.0000138
1.0000138
1.0000138
1.0000137
1.0000137
1.0000137
1.0000137
1.0000137
1.0000137
1.0000137
1.0000137
1.0000137
1.0000137
1.0000137
1.0000137
1.0000137
1.0000137
1.0000137
1.0000137
1.0000137
1.0000137
1.0000137
1.0000137
1.0000137
1.0000137
1.0000137
1.0000137
1.0000137
1.0000137
1.0000142
1.0000135
1.0000133
1.0000134
1.0000134
1.0000134
1.0000134
1.0000134
1.0000134
1.0000134
1.0000134
1.0000134
1.0000134
1.0000134
1.0000134
1.0000134
1.0000134
1.0000135
1.0000135
1.0000135
1.0000135
1.0000135
1.0000135
1.0000135
1.0000135
1.0000135
1.0000135
1.0000135
1.0000135
1.0000135
1.0000135
1.0000135
1.0000135
1.0000135
1.0000135
1.0000134
1.0000134
1.0000134
1.0000135
1.0000135
1.0000134
1.0000134
1.0000134
1.0000135
1.0000135
1.0000135
1.0000134
1.0000134
1.0000134
1.0000134
1.0000134
1.0000134
1.0000134
1.0000134
1.0000134
1.0000134
1.0000134
1.0000134
1.0000134
1.0000139
1.0000131
1.0000131
1.0000131
1.0000132
1.0000132
1.0000132
1.0000132
1.0000132
1.0000132
1.0000132
1.0000132
1.0000132
1.0000132
1.0000132
1.0000132
1.0000132
1.0000132
1.0000132
1.0000132
1.0000133
1.0000133
1.0000133
1.0000133
1.0000133
1.0000133
1.0000133
1.0000133
1.0000133
1.0000133
1.0000133
1.0000133
1.0000133
1.0000133
1.0000133
1.0000132
1.0000132
1.0000132
1.0000133
1.0000133
1.0000133
1.0000132
1.0000132
1.0000133
1.0000133
1.0000133
1.0000132
1.0000132
1.0000132
1.0000132
1.0000132
1.0000132
1.0000132
1.0000132
1.0000132
1.0000132
1.0000132
1.0000132
1.0000132
1.0000122
1.0000116
1.0000116
1.0000116
1.0000116
1.0000117
1.0000117
1.0000116
1.0000117
1.0000117
1.0000118
1.0000117
1.0000117
1.0000117
1.0000117
1.0000117
1.0000118
1.0000118
1.0000118
1.0000118
1.0000118
1.0000118
1.0000118
1.0000118
1.0000118
1.0000118
1.0000118
1.0000118
1.0000118
1.0000118
1.0000118
1.0000118
1.0000118
1.0000118
1.0000118
1.0000117
1.0000117
1.0000117
1.0000118
1.0000118
1.0000118
1.0000118
1.0000117
1.0000117
1.0000118
1.0000118
1.0000117
1.0000117
1.0000117
1.0000117
1.0000117
1.0000117
1.0000117
1.0000117
1.0000117
1.0000116
1.0000116
1.0000117
1.0000117
1.0000122
1.0000114
1.0000117
1.0000115
1.0000116
1.0000117
1.0000115
1.0000115
1.0000116
1.0000118
1.0000117
1.0000116
1.0000116
1.0000116
1.0000117
1.0000117
1.0000117
1.0000117
1.0000117
1.0000117
1.0000117
1.0000117
1.0000117
1.0000117
1.0000117
1.0000117
1.0000117
1.0000117
1.0000117
1.0000117
1.0000117
1.0000117
1.0000117
1.0000117
1.0000117
1.0000116
1.0000116
1.0000116
1.0000116
1.0000116
1.0000116
1.0000116
1.0000116
1.0000116
1.0000116
1.0000116
1.0000116
1.0000115
1.0000115
1.0000115
1.0000116
1.0000115
1.0000116
1.0000114
1.0000115
1.0000115
1.0000112
1.0000115
1.0000115
1.0000199
1.0000194
1.0000198
1.0000194
1.0000198
1.0000197
1.0000195
1.0000196
1.0000197
1.0000197
1.0000197
1.0000196
1.0000195
1.0000196
1.0000196
1.0000196
1.0000196
1.0000196
1.0000196
1.0000196
1.0000196
1.0000196
1.0000196
1.0000196
1.0000196
1.0000196
1.0000196
1.0000196
1.0000196
1.0000196
1.0000196
1.0000196
1.0000196
1.0000196
1.0000196
1.0000196
1.0000195
1.0000195
1.0000196
1.0000196
1.0000196
1.0000196
1.0000196
1.0000196
1.0000196
1.0000196
1.0000196
1.0000196
1.0000196
1.0000196
1.0000196
1.0000196
1.0000197
1.0000196
1.0000196
1.0000198
1.0000194
1.0000197
1.0000197
1.0000111
1.0000123
1.0000118
1.0000123
1.0000117
1.0000116
1.000012
1.000012
1.0000118
1.0000116
1.0000117
1.0000121
1.0000123
1.0000124
1.0000124
1.0000123
1.0000123
1.0000123
1.0000123
1.0000123
1.0000123
1.0000124
1.0000124
1.0000124
1.0000124
1.0000124
1.0000124
1.0000124
1.0000124
1.0000124
1.0000124
1.0000125
1.0000125
1.0000125
1.0000124
1.0000124
1.0000124
1.0000123
1.0000121
1.0000121
1.000012
1.0000118
1.0000118
1.0000117
1.0000116
1.0000115
1.0000117
1.0000118
1.0000118
1.0000117
1.0000116
1.0000116
1.0000115
1.0000119
1.0000117
1.0000117
1.0000123
1.0000114
1.0000114
1.0000782
1.0000782
1.0000782
1.0000782
1.0000783
1.0000783
1.0000783
1.0000783
1.0000784
1.0000784
1.0000784
1.0000784
1.0000784
1.0000785
1.0000785
1.0000785
1.0000785
1.0000786
1.0000786
1.0000786
1.0000786
1.0000787
1.0000787
1.0000787
1.0000787
1.0000787
1.0000788
1.0000788
1.0000788
1.0000788
1.0000788
1.0000788
1.0000788
1.0000789
1.0000789
1.0000789
1.0000789
1.0000789
1.0000789
1.0000789
1.0000789
1.0000789
1.0000789
1.0000789
1.0000789
1.0000789
1.0000789
1.0000789
1.0000789
1.0000789
1.0000789
1.000079
1.0000791
1.0000793
1.0000798
1.0000807
1.0000824
1.0000852
1.000089
1.0000716
1.0000716
1.0000717
1.0000717
1.0000717
1.0000717
1.0000717
1.0000718
1.0000718
1.0000718
1.0000718
1.0000718
1.0000719
1.0000719
1.0000719
1.0000719
1.0000719
1.000072
1.000072
1.000072
1.000072
1.000072
1.0000721
1.0000721
1.0000721
1.0000721
1.0000721
1.0000721
1.0000721
1.0000722
1.0000722
1.0000722
1.0000722
1.0000722
1.0000722
1.0000722
1.0000722
1.0000722
1.0000722
1.0000722
1.0000722
1.0000722
1.0000722
1.0000722
1.0000722
1.0000722
1.0000722
1.0000722
1.0000722
1.0000722
1.0000722
1.0000723
1.0000724
1.0000726
1.0000731
1.0000739
1.0000754
1.0000781
1.0000815
1.0000655
1.0000655
1.0000656
1.0000656
1.0000656
1.0000656
1.0000656
1.0000657
1.0000657
1.0000657
1.0000657
1.0000657
1.0000657
1.0000658
1.0000658
1.0000658
1.0000658
1.0000658
1.0000658
1.0000659
1.0000659
1.0000659
1.0000659
1.0000659
1.0000659
1.0000659
1.0000659
1.000066
1.000066
1.000066
1.000066
1.000066
1.000066
1.000066
1.000066
1.000066
1.000066
1.000066
1.000066
1.000066
1.000066
1.000066
1.000066
1.000066
1.000066
1.000066
1.000066
1.000066
1.000066
1.000066
1.000066
1.0000661
1.0000662
1.0000663
1.0000667
1.0000675
1.0000689
1.0000714
1.0000745
1.0000598
1.0000598
1.0000598
1.0000599
1.0000599
1.0000599
1.0000599
1.0000599
1.0000599
1.0000599
1.00006
1.00006
1.00006
1.00006
1.00006
1.00006
1.00006
1.0000601
1.0000601
1.0000601
1.0000601
1.0000601
1.0000601
1.0000601
1.0000602
1.0000602
1.0000602
1.0000602
1.0000602
1.0000602
1.0000602
1.0000602
1.0000602
1.0000602
1.0000602
1.0000602
1.0000602
1.0000602
1.0000602
1.0000602
1.0000602
1.0000602
1.0000602
1.0000602
1.0000602
1.0000602
1.0000602
1.0000602
1.0000602
1.0000602
1.0000602
1.0000602
1.0000603
1.0000605
1.0000608
1.0000615
1.0000628
1.0000651
1.0000679
1.0000545
1.0000545
1.0000545
1.0000545
1.0000546
1.0000546
1.0000546
1.0000546
1.0000546
1.0000546
1.0000546
1.0000546
1.0000546
1.0000547
1.0000547
1.0000547
1.0000547
1.0000547
1.0000547
1.0000547
1.0000547
1.0000547
1.0000548
1.0000548
1.0000548
1.0000548
1.0000548
1.0000548
1.0000548
1.0000548
1.0000548
1.0000548
1.0000548
1.0000548
1.0000548
1.0000548
1.0000548
1.0000548
1.0000548
1.0000548
1.0000548
1.0000548
1.0000548
1.0000548
1.0000548
1.0000548
1.0000548
1.0000548
1.0000548
1.0000548
1.0000548
1.0000548
1.0000549
1.000055
1.0000554
1.000056
1.0000572
1.0000592
1.0000619
1.0000496
1.0000496
1.0000496
1.0000496
1.0000496
1.0000496
1.0000496
1.0000496
1.0000496
1.0000497
1.0000497
1.0000497
1.0000497
1.0000497
1.0000497
1.0000497
1.0000497
1.0000497
1.0000497
1.0000497
1.0000498
1.0000498
1.0000498
1.0000498
1.0000498
1.0000498
1.0000498
1.0000498
1.0000498
1.0000498
1.0000498
1.0000498
1.0000498
1.0000498
1.0000498
1.0000498
1.0000498
1.0000498
1.0000498
1.0000498
1.0000498
1.0000498
1.0000498
1.0000498
1.0000498
1.0000498
1.0000498
1.0000498
1.0000498
1.0000498
1.0000498
1.0000498
1.0000499
1.00005
1.0000503
1.0000508
1.0000519
1.0000538
1.0000562
1.000045
1.000045
1.000045
1.000045
1.000045
1.000045
1.000045
1.000045
1.000045
1.0000451
1.0000451
1.0000451
1.0000451
1.0000451
1.0000451
1.0000451
1.0000451
1.0000451
1.0000451
1.0000451
1.0000452
1.0000452
1.0000452
1.0000452
1.0000452
1.0000452
1.0000452
1.0000452
1.0000452
1.0000452
1.0000452
1.0000452
1.0000452
1.0000452
1.0000452
1.0000452
1.0000452
1.0000452
1.0000452
1.0000452
1.0000452
1.0000452
1.0000452
1.0000452
1.0000452
1.0000452
1.0000452
1.0000452
1.0000452
1.0000452
1.0000452
1.0000452
1.0000452
1.0000453
1.0000456
1.0000461
1.000047
1.0000488
1.000051
1.0000407
1.0000408
1.0000408
1.0000408
1.0000408
1.0000408
1.0000408
1.0000408
1.0000408
1.0000408
1.0000408
1.0000408
1.0000408
1.0000408
1.0000409
1.0000409
1.0000409
1.0000409
1.0000409
1.0000409
1.0000409
1.0000409
1.0000409
1.0000409
1.0000409
1.0000409
1.0000409
1.0000409
1.0000409
1.000041
1.000041
1.000041
1.000041
1.000041
1.000041
1.000041
1.000041
1.000041
1.000041
1.0000409
1.0000409
1.0000409
1.0000409
1.0000409
1.0000409
1.0000409
1.0000409
1.0000409
1.0000409
1.0000409
1.0000409
1.0000409
1.0000409
1.000041
1.0000412
1.0000416
1.0000425
1.0000441
1.0000461
1.0000369
1.0000369
1.0000369
1.0000369
1.0000369
1.0000369
1.0000369
1.0000369
1.0000369
1.0000369
1.0000369
1.0000369
1.0000369
1.0000369
1.000037
1.000037
1.000037
1.000037
1.000037
1.000037
1.000037
1.000037
1.000037
1.000037
1.000037
1.000037
1.000037
1.000037
1.000037
1.000037
1.000037
1.000037
1.000037
1.000037
1.000037
1.000037
1.000037
1.000037
1.000037
1.000037
1.000037
1.000037
1.000037
1.000037
1.000037
1.000037
1.000037
1.000037
1.000037
1.000037
1.000037
1.000037
1.000037
1.0000371
1.0000372
1.0000376
1.0000384
1.0000398
1.0000417
1.0000333
1.0000333
1.0000333
1.0000333
1.0000333
1.0000333
1.0000333
1.0000333
1.0000333
1.0000333
1.0000334
1.0000334
1.0000334
1.0000334
1.0000334
1.0000334
1.0000334
1.0000334
1.0000334
1.0000334
1.0000334
1.0000334
1.0000334
1.0000334
1.0000334
1.0000334
1.0000334
1.0000334
1.0000334
1.0000335
1.0000335
1.0000335
1.0000335
1.0000335
1.0000335
1.0000335
1.0000335
1.0000334
1.0000334
1.0000334
1.0000334
1.0000334
1.0000334
1.0000334
1.0000334
1.0000334
1.0000334
1.0000334
1.0000334
1.0000334
1.0000334
1.0000334
1.0000334
1.0000334
1.0000336
1.0000339
1.0000346
1.0000359
1.0000376
1.00003
1.00003
1.00003
1.00003
1.00003
1.0000301
1.0000301
1.0000301
1.0000301
1.0000301
1.0000301
1.0000301
1.0000301
1.0000301
1.0000301
1.0000301
1.0000301
1.0000301
1.0000301
1.0000301
1.0000301
1.0000301
1.0000302
1.0000302
1.0000302
1.0000302
1.0000302
1.0000302
1.0000302
1.0000302
1.0000302
1.0000302
1.0000302
1.0000302
1.0000302
1.0000302
1.0000302
1.0000302
1.0000302
1.0000302
1.0000302
1.0000302
1.0000301
1.0000301
1.0000301
1.0000301
1.0000301
1.0000301
1.0000301
1.0000301
1.0000301
1.0000301
1.0000301
1.0000301
1.0000302
1.0000305
1.0000311
1.0000323
1.0000339
1.000027
1.0000271
1.0000271
1.0000271
1.0000271
1.0000271
1.0000271
1.0000271
1.0000271
1.0000271
1.0000271
1.0000271
1.0000271
1.0000271
1.0000271
1.0000271
1.0000271
1.0000271
1.0000271
1.0000271
1.0000272
1.0000272
1.0000272
1.0000272
1.0000272
1.0000272
1.0000272
1.0000272
1.0000272
1.0000272
1.0000272
1.0000272
1.0000272
1.0000272
1.0000272
1.0000272
1.0000272
1.0000272
1.0000272
1.0000272
1.0000272
1.0000272
1.0000272
1.0000272
1.0000271
1.0000271
1.0000271
1.0000271
1.0000271
1.0000271
1.0000271
1.0000271
1.0000271
1.0000271
1.0000272
1.0000274
1.0000279
1.000029
1.0000305
1.0000243
1.0000244
1.0000244
1.0000244
1.0000244
1.0000244
1.0000244
1.0000244
1.0000244
1.0000244
1.0000244
1.0000244
1.0000244
1.0000244
1.0000244
1.0000244
1.0000244
1.0000244
1.0000244
1.0000244
1.0000245
1.0000245
1.0000245
1.0000245
1.0000245
1.0000245
1.0000245
1.0000245
1.0000245
1.0000245
1.0000245
1.0000245
1.0000245
1.0000245
1.0000245
1.0000245
1.0000245
1.0000245
1.0000245
1.0000245
1.0000245
1.0000245
1.0000244
1.0000244
1.0000244
1.0000244
1.0000244
1.0000244
1.0000244
1.0000244
1.0000244
1.0000244
1.0000244
1.0000244
1.0000245
1.0000246
1.0000251
1.000026
1.0000274
1.000022
1.000022
1.000022
1.000022
1.000022
1.000022
1.000022
1.000022
1.0000221
1.0000221
1.0000221
1.0000221
1.0000221
1.0000221
1.0000221
1.0000221
1.0000221
1.0000221
1.0000221
1.0000221
1.0000221
1.0000221
1.0000221
1.0000221
1.0000221
1.0000221
1.0000221
1.0000221
1.0000221
1.0000221
1.0000221
1.0000221
1.0000221
1.0000221
1.0000221
1.0000221
1.0000221
1.0000221
1.0000221
1.0000221
1.0000221
1.0000221
1.0000221
1.0000221
1.0000221
1.0000221
1.0000221
1.0000221
1.0000221
1.0000221
1.0000221
1.0000221
1.0000221
1.000022
1.0000221
1.0000222
1.0000226
1.0000234
1.0000247
1.0000979
1.0001088
1.000121
1.0001343
1.0001488
1.0001646
1.0001818
1.0002005
1.0002207
1.0002424
1.0002657
1.0002905
1.0003168
1.0003446
1.0003736
1.0004038
1.0004347
1.0004661
1.0004975
1.0005283
1.0005579
1.0005855
1.0006102
1.0006309
1.0006469
1.0006568
1.0006597
1.0006553
1.0006418
1.0006191
1.0005868
1.000544
1.0004928
1.0004326
1.0003627
1.0002865
1.0002038
1.0001143
1.0000211
0.99992552
0.99982834
0.99973025
0.99963279
0.99953648
0.99944221
0.99934946
0.99925858
0.99917107
0.99908706
0.99900665
0.9989302
0.99885753
0.99878866
0.99872392
0.99866293
0.99860532
0.99855109
0.99850032
0.99845265
0.99840781
0.99836601
0.99832707
0.99829076
0.99825694
0.99822547
0.99819621
0.99816903
0.99814378
0.99812035
0.99809862
0.99807851
0.9980599
0.99804273
0.9980267
1.0000939
1.0001044
1.0001163
1.0001293
1.0001435
1.0001589
1.0001758
1.000194
1.0002137
1.0002349
1.0002577
1.0002819
1.0003077
1.0003349
1.0003634
1.0003931
1.0004236
1.0004546
1.0004856
1.0005162
1.0005457
1.0005734
1.0005984
1.0006197
1.0006366
1.0006474
1.0006518
1.0006491
1.0006377
1.0006174
1.0005881
1.0005489
1.0005005
1.0004436
1.0003784
1.0003061
1.0002278
1.0001436
1.0000549
0.99996342
0.99987003
0.9997756
0.99968142
0.99958804
0.99949685
0.99940518
0.99931672
0.99923213
0.99915098
0.9990732
0.99899893
0.99892819
0.99886111
0.99879819
0.99873891
0.99868283
0.99862995
0.99858039
0.99853376
0.99848981
0.99844882
0.99841061
0.99837496
0.99834175
0.99831085
0.99828211
0.9982554
0.99823059
0.99820758
0.99818622
0.99816644
0.99814815
0.99813128
0.99811553
1.0000908
1.000101
1.0001125
1.0001252
1.000139
1.000154
1.0001704
1.0001881
1.0002073
1.0002279
1.0002501
1.0002737
1.0002988
1.0003253
1.0003531
1.000382
1.0004117
1.000442
1.0004724
1.0005024
1.0005314
1.0005587
1.0005834
1.0006046
1.0006216
1.0006328
1.0006379
1.0006363
1.0006263
1.0006077
1.0005805
1.0005441
1.0004987
1.0004451
1.0003835
1.0003151
1.0002407
1.000161
1.0000771
0.99999047
0.99990199
0.9998124
0.99972297
0.99963437
0.99954754
0.99946219
0.99937854
0.99929789
0.99922036
0.99914599
0.99907499
0.99900723
0.99894338
0.99888417
0.99882738
0.99877312
0.99872196
0.9986742
0.99862884
0.99858606
0.99854632
0.99850942
0.99847509
0.99844317
0.9984135
0.99838594
0.99836047
0.99833683
0.99831489
0.99829451
0.9982757
0.99825831
0.99824224
0.99822717
1.0000889
1.0000989
1.0001102
1.0001225
1.000136
1.0001506
1.0001666
1.0001839
1.0002026
1.0002228
1.0002444
1.0002674
1.0002919
1.0003178
1.0003448
1.000373
1.000402
1.0004315
1.0004611
1.0004904
1.0005186
1.0005452
1.0005693
1.0005899
1.0006066
1.0006175
1.0006225
1.000621
1.0006113
1.0005934
1.000567
1.0005319
1.0004881
1.0004362
1.0003768
1.0003108
1.000239
1.0001621
1.0000813
0.99999797
0.99991293
0.99982693
0.99974107
0.99965604
0.99957262
0.99949082
0.99941083
0.99933373
0.99925964
0.9991886
0.99912076
0.99905614
0.99899485
0.99893718
0.99888283
0.99883147
0.99878306
0.9987377
0.99869504
0.99865492
0.9986175
0.99858263
0.99855012
0.99851983
0.99849165
0.99846544
0.99844109
0.99841846
0.99839747
0.99837786
0.99835987
0.99834355
0.99832867
0.99831458
1.0000879
1.0000977
1.0001088
1.0001209
1.0001341
1.0001485
1.0001642
1.0001811
1.0001995
1.0002193
1.0002404
1.000263
1.000287
1.0003123
1.0003388
1.0003664
1.0003947
1.0004235
1.0004524
1.0004809
1.0005084
1.0005343
1.0005576
1.0005776
1.0005935
1.0006039
1.0006083
1.0006064
1.0005965
1.0005784
1.0005521
1.0005171
1.0004736
1.0004224
1.0003637
1.0002986
1.0002279
1.0001522
1.0000729
0.99999108
0.9999077
0.99982349
0.99973948
0.99965637
0.99957486
0.99949502
0.99941706
0.99934195
0.99926984
0.99920076
0.99913484
0.99907212
0.99901266
0.99895663
0.99890383
0.99885404
0.99880715
0.99876319
0.99872196
0.99868322
0.99864708
0.99861339
0.99858198
0.99855274
0.99852547
0.9985004
0.99847716
0.99845555
0.99843544
0.99841676
0.99839946
0.99838344
0.99836859
0.9983547
1.0000873
1.000097
1.0001079
1.0001199
1.0001329
1.0001472
1.0001626
1.0001794
1.0001974
1.0002169
1.0002378
1.00026
1.0002836
1.0003085
1.0003346
1.0003616
1.0003895
1.0004177
1.000446
1.0004739
1.0005007
1.0005259
1.0005486
1.0005678
1.0005831
1.0005928
1.0005966
1.0005941
1.0005837
1.0005651
1.0005384
1.0005031
1.0004594
1.000408
1.0003492
1.0002841
1.0002136
1.0001382
1.0000592
0.99997775
0.99989484
0.99981118
0.99972777
0.99964529
0.99956442
0.99948529
0.99940812
0.99933377
0.99926242
0.99919411
0.99912897
0.99906702
0.99900832
0.99895301
0.99890089
0.99885177
0.99880553
0.99876217
0.99872153
0.99868342
0.99864782
0.99861465
0.99858376
0.99855499
0.99852822
0.99850335
0.99848024
0.99845878
0.99843887
0.9984204
0.99840328
0.99838747
0.99837285
0.99835932
1.000087
1.0000966
1.0001075
1.0001193
1.0001322
1.0001463
1.0001616
1.0001782
1.0001961
1.0002154
1.000236
1.000258
1.0002813
1.0003059
1.0003316
1.0003583
1.0003857
1.0004135
1.0004414
1.0004688
1.0004951
1.0005197
1.0005418
1.0005605
1.0005752
1.0005843
1.0005875
1.0005845
1.0005734
1.0005543
1.0005271
1.0004913
1.0004472
1.0003954
1.0003364
1.000271
1.0002001
1.0001245
1.0000454
0.99996383
0.99988083
0.99979713
0.9997137
0.99963122
0.99955035
0.99947127
0.99939423
0.99931998
0.99924875
0.99918056
0.99911555
0.99905376
0.99899523
0.99894004
0.99888803
0.99883904
0.99879296
0.99874974
0.99870925
0.99867132
0.99863589
0.99860286
0.9985721
0.99854345
0.9985168
0.99849203
0.99846902
0.99844767
0.99842786
0.99840951
0.99839251
0.99837677
0.99836221
0.99834869
1.0000868
1.0000964
1.0001072
1.000119
1.0001318
1.0001458
1.000161
1.0001775
1.0001952
1.0002143
1.0002348
1.0002566
1.0002797
1.0003041
1.0003295
1.0003559
1.0003831
1.0004106
1.0004381
1.0004651
1.000491
1.0005152
1.0005368
1.0005551
1.0005693
1.0005779
1.0005807
1.0005772
1.0005657
1.0005461
1.0005184
1.0004822
1.0004377
1.0003856
1.0003261
1.0002604
1.0001892
1.0001134
1.0000339
0.99995214
0.99986891
0.99978501
0.99970138
0.99961872
0.99953765
0.99945842
0.99938129
0.99930694
0.99923559
0.99916732
0.99910223
0.99904038
0.99898179
0.99892652
0.99887444
0.99882539
0.99877927
0.99873601
0.99869548
0.99865754
0.99862209
0.99858905
0.99855826
0.9985296
0.99850294
0.99847816
0.99845515
0.99843379
0.99841398
0.99839561
0.99837859
0.99836282
0.99834823
0.99833472
1.0000868
1.0000963
1.0001071
1.0001188
1.0001316
1.0001455
1.0001606
1.000177
1.0001947
1.0002137
1.000234
1.0002557
1.0002786
1.0003028
1.0003281
1.0003543
1.0003812
1.0004084
1.0004357
1.0004624
1.000488
1.0005119
1.0005333
1.0005512
1.000565
1.0005733
1.0005757
1.0005718
1.00056
1.0005401
1.0005121
1.0004756
1.0004308
1.0003783
1.0003186
1.0002526
1.0001812
1.0001051
1.0000255
0.99994346
0.99986003
0.99977594
0.99969214
0.9996093
0.99952804
0.99944865
0.99937142
0.99929695
0.99922548
0.9991571
0.99909191
0.99902997
0.99897131
0.99891593
0.99886375
0.99881461
0.99876842
0.9987251
0.99868451
0.99864654
0.99861107
0.99857799
0.99854718
0.99851849
0.9984918
0.998467
0.99844396
0.99842258
0.99840275
0.99838436
0.99836733
0.99835155
0.99833694
0.9983234
1.0000867
1.0000963
1.000107
1.0001187
1.0001314
1.0001453
1.0001604
1.0001767
1.0001943
1.0002132
1.0002335
1.000255
1.0002779
1.0003019
1.0003271
1.0003531
1.0003798
1.0004069
1.000434
1.0004605
1.0004859
1.0005096
1.0005307
1.0005483
1.000562
1.0005701
1.0005722
1.0005681
1.000556
1.0005359
1.0005076
1.000471
1.000426
1.0003733
1.0003135
1.0002473
1.0001757
1.0000995
1.0000197
0.99993757
0.99985401
0.99976981
0.99968588
0.99960293
0.99952153
0.99944203
0.99936474
0.99929019
0.99921864
0.99915018
0.99908492
0.99902292
0.9989642
0.99890875
0.99885648
0.99880728
0.99876105
0.99871767
0.99867705
0.99863905
0.99860355
0.99857044
0.99853959
0.99851087
0.99848416
0.99845933
0.99843628
0.99841487
0.99839502
0.99837661
0.99835956
0.99834375
0.99832913
0.99831558
1.0000867
1.0000963
1.0001069
1.0001186
1.0001313
1.0001452
1.0001602
1.0001765
1.000194
1.0002129
1.0002331
1.0002546
1.0002773
1.0003013
1.0003263
1.0003523
1.0003789
1.0004058
1.0004327
1.0004591
1.0004844
1.0005079
1.0005288
1.0005463
1.0005598
1.0005677
1.0005697
1.0005655
1.0005533
1.0005331
1.0005047
1.0004679
1.0004229
1.0003701
1.0003102
1.000244
1.0001723
1.000096
1.0000162
0.99993398
0.99985035
0.9997661
0.9996821
0.99959907
0.99951758
0.99943801
0.99936069
0.9992861
0.99921449
0.99914599
0.99908069
0.99901865
0.99895988
0.99890437
0.99885205
0.9988028
0.99875653
0.99871312
0.99867247
0.99863445
0.99859894
0.99856582
0.99853496
0.99850623
0.99847951
0.99845467
0.9984316
0.99841019
0.99839033
0.99837191
0.99835484
0.99833903
0.99832439
0.99831083
1.0000867
1.0000962
1.0001069
1.0001186
1.0001313
1.0001451
1.0001601
1.0001764
1.0001939
1.0002127
1.0002328
1.0002543
1.000277
1.0003009
1.0003258
1.0003517
1.0003782
1.0004051
1.0004319
1.0004581
1.0004833
1.0005067
1.0005275
1.0005449
1.0005584
1.000566
1.0005679
1.0005638
1.0005516
1.0005313
1.0005029
1.0004662
1.0004211
1.0003684
1.0003085
1.0002422
1.0001705
1.0000943
1.0000144
0.99993222
0.99984857
0.99976429
0.99968027
0.99959719
0.99951564
0.99943602
0.99935869
0.99928407
0.99921243
0.99914389
0.99907856
0.99901649
0.99895769
0.99890214
0.99884977
0.99880048
0.99875418
0.99871075
0.99867008
0.99863204
0.99859652
0.99856338
0.99853251
0.99850376
0.99847702
0.99845217
0.99842909
0.99840766
0.99838779
0.99836936
0.99835228
0.99833646
0.99832181
0.99830825
1.0000867
1.0000962
1.0001069
1.0001186
1.0001313
1.0001451
1.0001601
1.0001763
1.0001938
1.0002125
1.0002326
1.000254
1.0002767
1.0003005
1.0003255
1.0003513
1.0003777
1.0004045
1.0004312
1.0004574
1.0004825
1.0005059
1.0005267
1.000544
1.0005574
1.0005652
1.0005669
1.0005628
1.0005506
1.0005304
1.0005021
1.0004654
1.0004204
1.0003678
1.000308
1.0002418
1.0001701
1.0000939
1.0000141
0.99993196
0.99984832
0.99976406
0.99968002
0.99959691
0.99951532
0.99943567
0.99935833
0.99928369
0.99921201
0.99914345
0.99907808
0.99901598
0.99895714
0.99890155
0.99884914
0.99879981
0.99875348
0.99871002
0.99866932
0.99863127
0.99859573
0.99856258
0.99853169
0.99850293
0.99847618
0.99845132
0.99842822
0.99840679
0.9983869
0.99836846
0.99835137
0.99833554
0.99832088
0.9983073
1.0000867
1.0000962
1.0001069
1.0001186
1.0001312
1.000145
1.00016
1.0001762
1.0001937
1.0002124
1.0002325
1.0002539
1.0002765
1.0003003
1.0003252
1.0003509
1.0003774
1.0004041
1.0004308
1.000457
1.000482
1.0005053
1.0005261
1.0005434
1.0005569
1.0005639
1.0005664
1.0005624
1.0005503
1.0005302
1.000502
1.0004654
1.0004207
1.0003682
1.0003085
1.0002424
1.0001709
1.0000948
1.0000151
0.99993299
0.99984939
0.99976515
0.99968112
0.99959799
0.99951636
0.99943668
0.99935933
0.99928467
0.99921295
0.99914435
0.99907895
0.9990168
0.99895793
0.99890229
0.99884983
0.99880046
0.99875409
0.9987106
0.99866987
0.99863179
0.99859623
0.99856306
0.99853214
0.99850337
0.9984766
0.99845171
0.9984286
0.99840715
0.99838725
0.9983688
0.9983517
0.99833585
0.99832118
0.9983076
1.0000867
1.0000962
1.0001069
1.0001186
1.0001312
1.000145
1.00016
1.0001762
1.0001936
1.0002124
1.0002324
1.0002538
1.0002764
1.0003001
1.000325
1.0003507
1.0003771
1.0004038
1.0004305
1.0004566
1.0004816
1.0005049
1.0005257
1.000543
1.0005565
1.0005643
1.0005663
1.0005623
1.0005504
1.0005305
1.0005025
1.0004662
1.0004217
1.0003694
1.00031
1.0002441
1.0001728
1.0000968
1.0000173
0.99993524
0.9998517
0.99976751
0.9996835
0.99960037
0.99951871
0.999439
0.99936162
0.99928693
0.99921518
0.99914653
0.99908108
0.99901888
0.99895995
0.99890426
0.99885174
0.99880232
0.9987559
0.99871237
0.9986716
0.99863348
0.99859789
0.99856468
0.99853374
0.99850494
0.99847814
0.99845323
0.9984301
0.99840862
0.9983887
0.99837023
0.9983531
0.99833724
0.99832255
0.99830895
1.0000867
1.0000962
1.0001069
1.0001185
1.0001312
1.000145
1.00016
1.0001761
1.0001936
1.0002123
1.0002323
1.0002537
1.0002762
1.0003
1.0003248
1.0003505
1.0003769
1.0004036
1.0004302
1.0004563
1.0004814
1.0005047
1.0005255
1.0005429
1.0005566
1.0005638
1.0005665
1.0005628
1.0005511
1.0005315
1.0005038
1.0004678
1.0004236
1.0003716
1.0003125
1.0002469
1.0001758
1.0001
1.0000207
0.99993881
0.99985537
0.99977124
0.99968726
0.99960413
0.99952244
0.9994427
0.99936528
0.99929055
0.99921874
0.99915003
0.99908451
0.99902225
0.99896325
0.99890749
0.9988549
0.99880542
0.99875893
0.99871534
0.99867452
0.99863636
0.99860072
0.99856747
0.99853649
0.99850764
0.99848081
0.99845588
0.99843271
0.99841121
0.99839126
0.99837277
0.99835562
0.99833974
0.99832504
0.99831142
1.0000867
1.0000962
1.0001069
1.0001185
1.0001312
1.000145
1.0001599
1.0001761
1.0001935
1.0002123
1.0002323
1.0002536
1.0002762
1.0002999
1.0003247
1.0003504
1.0003767
1.0004034
1.00043
1.0004561
1.0004812
1.0005045
1.0005254
1.0005429
1.0005566
1.0005643
1.000567
1.0005635
1.0005522
1.0005329
1.0005056
1.0004701
1.0004263
1.0003748
1.000316
1.0002508
1.00018
1.0001046
1.0000255
0.99994378
0.99986047
0.99977643
0.99969249
0.99960936
0.99952766
0.99944787
0.99937041
0.99929562
0.99922374
0.99915495
0.99908935