/*--------------------------------*- C++ -*----------------------------------*\
| =========                 |                                                 |
| \\      /  F ield         | OpenFOAM: The Open Source CFD Toolbox           |
|  \\    /   O peration     | Version:  v2006                                 |
|   \\  /    A nd           | Website:  www.openfoam.com                      |
|    \\/     M anipulation  |                                                 |
\*---------------------------------------------------------------------------*/
FoamFile
{
    version     2.0;
    format      ascii;
    class       volScalarField;
    location    "10000";
    object      T;
}
// * * * * * * * * * * * * * * * * * * * * * * * * * * * * * * * * * * * * * //

dimensions      [0 0 0 1 0 0 0];


internalField   nonuniform List<scalar> 
55713
(
1.0000062
1.0000075
1.0000082
1.0000085
1.0000086
1.0000086
1.0000086
1.0000085
1.0000085
1.0000085
1.0000085
1.0000085
1.0000085
1.0000085
1.0000085
1.0000085
1.0000085
1.0000085
1.0000085
1.0000085
1.0000085
1.0000085
1.0000085
1.0000085
1.0000085
1.0000085
1.0000085
1.0000085
1.0000085
1.0000085
1.0000085
1.0000085
1.0000085
1.0000085
1.0000085
1.0000085
1.0000085
1.0000085
1.0000085
1.0000085
1.0000085
1.0000085
1.0000085
1.0000085
1.0000085
1.0000085
1.0000085
1.0000085
1.0000085
1.0000085
1.0000085
1.0000085
1.0000085
1.0000086
1.0000086
1.0000086
1.0000086
1.0000086
1.0000086
1.0000059
1.0000071
1.0000077
1.000008
1.000008
1.000008
1.000008
1.000008
1.000008
1.0000079
1.0000079
1.0000079
1.0000079
1.0000079
1.0000079
1.0000079
1.0000079
1.0000079
1.0000079
1.0000079
1.0000079
1.0000079
1.0000079
1.0000079
1.0000079
1.0000079
1.0000079
1.0000079
1.0000079
1.0000079
1.0000079
1.0000079
1.0000079
1.0000079
1.000008
1.000008
1.000008
1.000008
1.000008
1.000008
1.000008
1.000008
1.000008
1.000008
1.0000079
1.0000079
1.0000079
1.0000079
1.0000079
1.0000079
1.000008
1.000008
1.000008
1.000008
1.000008
1.000008
1.000008
1.000008
1.000008
1.0000057
1.0000068
1.0000073
1.0000075
1.0000075
1.0000075
1.0000075
1.0000075
1.0000075
1.0000075
1.0000074
1.0000074
1.0000074
1.0000074
1.0000074
1.0000074
1.0000074
1.0000074
1.0000074
1.0000074
1.0000075
1.0000075
1.0000074
1.0000074
1.0000074
1.0000074
1.0000074
1.0000074
1.0000074
1.0000074
1.0000074
1.0000075
1.0000075
1.0000075
1.0000075
1.0000075
1.0000075
1.0000075
1.0000075
1.0000075
1.0000075
1.0000075
1.0000075
1.0000075
1.0000075
1.0000075
1.0000075
1.0000075
1.0000075
1.0000075
1.0000075
1.0000075
1.0000075
1.0000075
1.0000076
1.0000076
1.0000075
1.0000075
1.0000076
1.0000055
1.0000065
1.000007
1.0000071
1.0000071
1.0000071
1.0000071
1.0000071
1.0000071
1.000007
1.000007
1.000007
1.000007
1.000007
1.000007
1.000007
1.000007
1.000007
1.000007
1.000007
1.000007
1.000007
1.000007
1.000007
1.000007
1.000007
1.000007
1.000007
1.000007
1.000007
1.000007
1.000007
1.000007
1.0000071
1.0000071
1.0000071
1.0000071
1.0000071
1.0000071
1.0000071
1.0000071
1.0000071
1.0000071
1.0000071
1.0000071
1.0000071
1.0000071
1.0000071
1.0000071
1.0000071
1.0000071
1.0000071
1.0000071
1.0000071
1.0000071
1.0000071
1.0000071
1.0000071
1.0000071
1.0000053
1.0000062
1.0000067
1.0000068
1.0000068
1.0000067
1.0000067
1.0000067
1.0000067
1.0000067
1.0000067
1.0000066
1.0000066
1.0000066
1.0000067
1.0000067
1.0000067
1.0000067
1.0000067
1.0000067
1.0000067
1.0000067
1.0000067
1.0000067
1.0000067
1.0000067
1.0000067
1.0000067
1.0000067
1.0000067
1.0000067
1.0000067
1.0000067
1.0000067
1.0000067
1.0000067
1.0000067
1.0000067
1.0000067
1.0000067
1.0000067
1.0000067
1.0000067
1.0000067
1.0000067
1.0000067
1.0000067
1.0000067
1.0000067
1.0000067
1.0000067
1.0000067
1.0000067
1.0000068
1.0000068
1.0000068
1.0000068
1.0000068
1.0000068
1.0000051
1.000006
1.0000064
1.0000065
1.0000064
1.0000064
1.0000064
1.0000064
1.0000064
1.0000064
1.0000064
1.0000063
1.0000063
1.0000064
1.0000064
1.0000064
1.0000064
1.0000064
1.0000064
1.0000064
1.0000064
1.0000064
1.0000064
1.0000063
1.0000063
1.0000063
1.0000063
1.0000063
1.0000063
1.0000063
1.0000063
1.0000064
1.0000064
1.0000064
1.0000064
1.0000064
1.0000064
1.0000064
1.0000064
1.0000064
1.0000064
1.0000064
1.0000064
1.0000064
1.0000064
1.0000064
1.0000064
1.0000064
1.0000064
1.0000064
1.0000064
1.0000064
1.0000064
1.0000064
1.0000065
1.0000065
1.0000065
1.0000065
1.0000065
1.000005
1.0000059
1.0000062
1.0000062
1.0000062
1.0000062
1.0000061
1.0000061
1.0000061
1.0000061
1.0000061
1.0000061
1.0000061
1.0000061
1.0000061
1.0000061
1.0000061
1.0000061
1.0000061
1.0000061
1.0000061
1.0000061
1.0000061
1.0000061
1.0000061
1.0000061
1.0000061
1.0000061
1.0000061
1.0000061
1.0000061
1.0000061
1.0000061
1.0000061
1.0000061
1.0000061
1.0000061
1.0000061
1.0000061
1.0000061
1.0000061
1.0000061
1.0000061
1.0000061
1.0000061
1.0000061
1.0000061
1.0000061
1.0000061
1.0000061
1.0000061
1.0000061
1.0000061
1.0000062
1.0000062
1.0000062
1.0000062
1.0000062
1.0000062
1.0000049
1.0000057
1.0000059
1.0000059
1.0000059
1.0000059
1.0000059
1.0000059
1.0000059
1.0000059
1.0000058
1.0000058
1.0000059
1.0000059
1.0000059
1.0000059
1.0000059
1.0000059
1.0000059
1.0000058
1.0000058
1.0000058
1.0000058
1.0000058
1.0000058
1.0000058
1.0000058
1.0000058
1.0000058
1.0000058
1.0000058
1.0000058
1.0000058
1.0000059
1.0000059
1.0000059
1.0000059
1.0000059
1.0000059
1.0000059
1.0000059
1.0000059
1.0000059
1.0000059
1.0000059
1.0000059
1.0000059
1.0000059
1.0000059
1.0000059
1.0000059
1.0000059
1.0000059
1.0000059
1.0000059
1.000006
1.0000059
1.0000059
1.0000059
1.0000049
1.0000056
1.0000058
1.0000058
1.0000057
1.0000058
1.0000057
1.0000057
1.0000057
1.0000057
1.0000056
1.0000057
1.0000057
1.0000057
1.0000057
1.0000057
1.0000057
1.0000057
1.0000057
1.0000057
1.0000057
1.0000057
1.0000057
1.0000057
1.0000057
1.0000057
1.0000057
1.0000057
1.0000057
1.0000057
1.0000057
1.0000057
1.0000057
1.0000057
1.0000057
1.0000057
1.0000057
1.0000057
1.0000057
1.0000057
1.0000057
1.0000057
1.0000057
1.0000057
1.0000057
1.0000057
1.0000057
1.0000057
1.0000058
1.0000057
1.0000057
1.0000057
1.0000057
1.0000058
1.0000057
1.0000058
1.0000058
1.0000058
1.0000058
1.0000049
1.0000056
1.0000057
1.0000056
1.0000056
1.0000056
1.0000056
1.0000056
1.0000056
1.0000056
1.0000055
1.0000055
1.0000056
1.0000056
1.0000056
1.0000056
1.0000055
1.0000055
1.0000055
1.0000055
1.0000055
1.0000055
1.0000055
1.0000055
1.0000055
1.0000055
1.0000055
1.0000055
1.0000055
1.0000055
1.0000055
1.0000055
1.0000055
1.0000055
1.0000055
1.0000055
1.0000056
1.0000056
1.0000056
1.0000056
1.0000056
1.0000056
1.0000056
1.0000056
1.0000056
1.0000055
1.0000056
1.0000056
1.0000056
1.0000056
1.0000056
1.0000055
1.0000056
1.0000056
1.0000056
1.0000057
1.0000057
1.0000056
1.0000056
1.0000048
1.0000053
1.0000053
1.0000054
1.0000053
1.0000053
1.0000053
1.0000054
1.0000053
1.0000052
1.0000052
1.0000053
1.0000053
1.0000053
1.0000053
1.0000052
1.0000052
1.0000052
1.0000052
1.0000052
1.0000052
1.0000052
1.0000052
1.0000052
1.0000052
1.0000052
1.0000052
1.0000052
1.0000052
1.0000052
1.0000052
1.0000052
1.0000052
1.0000052
1.0000052
1.0000052
1.0000052
1.0000052
1.0000052
1.0000053
1.0000053
1.0000053
1.0000053
1.0000053
1.0000053
1.0000053
1.0000053
1.0000053
1.0000053
1.0000053
1.0000053
1.0000052
1.0000052
1.0000053
1.0000054
1.0000054
1.0000054
1.0000053
1.0000053
1.0000047
1.0000055
1.0000052
1.0000053
1.0000052
1.0000051
1.0000054
1.0000054
1.0000052
1.000005
1.0000051
1.0000051
1.0000052
1.0000051
1.0000051
1.0000051
1.0000051
1.0000051
1.0000051
1.000005
1.000005
1.000005
1.000005
1.000005
1.000005
1.000005
1.000005
1.000005
1.000005
1.000005
1.000005
1.000005
1.000005
1.000005
1.000005
1.0000051
1.0000051
1.0000051
1.0000051
1.0000051
1.0000051
1.0000051
1.0000052
1.0000052
1.0000051
1.0000051
1.0000051
1.0000051
1.0000051
1.0000052
1.0000051
1.0000052
1.000005
1.0000053
1.0000054
1.0000051
1.0000054
1.0000051
1.0000051
1.0000061
1.0000065
1.0000062
1.0000065
1.0000062
1.0000061
1.0000066
1.0000062
1.0000061
1.0000063
1.0000064
1.0000063
1.0000063
1.0000064
1.0000063
1.0000064
1.0000063
1.0000063
1.0000063
1.0000063
1.0000063
1.0000063
1.0000063
1.0000063
1.0000063
1.0000063
1.0000063
1.0000063
1.0000063
1.0000063
1.0000063
1.0000063
1.0000063
1.0000063
1.0000063
1.0000063
1.0000063
1.0000064
1.0000063
1.0000064
1.0000063
1.0000063
1.0000063
1.0000064
1.0000064
1.0000063
1.0000064
1.0000062
1.0000063
1.0000064
1.0000063
1.0000063
1.0000062
1.0000061
1.0000065
1.0000061
1.0000065
1.0000063
1.0000063
1.0000048
1.0000038
1.0000044
1.0000039
1.0000044
1.0000046
1.0000039
1.0000044
1.0000048
1.000005
1.0000049
1.0000048
1.0000044
1.0000039
1.0000038
1.0000037
1.0000037
1.0000037
1.0000037
1.0000037
1.0000037
1.0000037
1.0000037
1.0000038
1.0000038
1.0000038
1.0000038
1.0000038
1.0000038
1.0000038
1.0000038
1.0000038
1.0000038
1.0000038
1.0000038
1.0000038
1.0000038
1.0000038
1.0000038
1.0000038
1.000004
1.0000042
1.0000042
1.0000044
1.0000046
1.0000047
1.0000046
1.0000047
1.0000047
1.0000045
1.0000048
1.0000049
1.000005
1.0000045
1.0000039
1.0000044
1.0000039
1.0000048
1.0000048
1.0000318
1.0000318
1.0000318
1.0000318
1.0000318
1.0000318
1.0000318
1.0000318
1.0000319
1.0000319
1.0000319
1.0000319
1.0000319
1.0000319
1.0000319
1.0000319
1.0000319
1.0000319
1.0000319
1.0000319
1.0000319
1.0000319
1.0000319
1.0000319
1.0000319
1.0000319
1.000032
1.000032
1.000032
1.000032
1.000032
1.000032
1.000032
1.000032
1.000032
1.000032
1.000032
1.000032
1.000032
1.000032
1.000032
1.0000321
1.0000321
1.0000321
1.0000321
1.0000321
1.0000321
1.0000321
1.0000321
1.0000321
1.0000321
1.000032
1.0000319
1.0000317
1.0000312
1.0000303
1.0000286
1.0000258
1.000022
1.0000292
1.0000292
1.0000292
1.0000292
1.0000292
1.0000292
1.0000292
1.0000292
1.0000292
1.0000293
1.0000293
1.0000293
1.0000293
1.0000293
1.0000293
1.0000293
1.0000293
1.0000293
1.0000293
1.0000293
1.0000293
1.0000293
1.0000293
1.0000293
1.0000293
1.0000293
1.0000293
1.0000293
1.0000293
1.0000293
1.0000293
1.0000293
1.0000293
1.0000293
1.0000293
1.0000294
1.0000294
1.0000294
1.0000294
1.0000294
1.0000294
1.0000294
1.0000294
1.0000294
1.0000294
1.0000294
1.0000294
1.0000294
1.0000294
1.0000294
1.0000294
1.0000294
1.0000293
1.0000291
1.0000286
1.0000278
1.0000263
1.0000236
1.0000202
1.0000267
1.0000267
1.0000267
1.0000267
1.0000268
1.0000268
1.0000268
1.0000268
1.0000268
1.0000268
1.0000268
1.0000268
1.0000268
1.0000268
1.0000268
1.0000268
1.0000268
1.0000268
1.0000268
1.0000268
1.0000268
1.0000268
1.0000268
1.0000268
1.0000268
1.0000268
1.0000268
1.0000268
1.0000268
1.0000268
1.0000268
1.0000268
1.0000269
1.0000269
1.0000269
1.0000269
1.0000269
1.0000269
1.0000269
1.0000269
1.0000269
1.0000269
1.0000269
1.0000269
1.0000269
1.0000269
1.0000269
1.0000269
1.0000269
1.0000269
1.0000269
1.0000269
1.0000268
1.0000266
1.0000262
1.0000255
1.0000241
1.0000216
1.0000185
1.0000244
1.0000244
1.0000245
1.0000245
1.0000245
1.0000245
1.0000245
1.0000245
1.0000245
1.0000245
1.0000245
1.0000245
1.0000245
1.0000245
1.0000245
1.0000245
1.0000245
1.0000245
1.0000245
1.0000245
1.0000245
1.0000245
1.0000245
1.0000245
1.0000245
1.0000245
1.0000245
1.0000245
1.0000245
1.0000245
1.0000245
1.0000245
1.0000245
1.0000245
1.0000245
1.0000245
1.0000245
1.0000245
1.0000246
1.0000246
1.0000246
1.0000246
1.0000246
1.0000246
1.0000246
1.0000246
1.0000246
1.0000246
1.0000246
1.0000246
1.0000246
1.0000246
1.0000245
1.0000244
1.000024
1.0000233
1.000022
1.0000198
1.0000169
1.0000223
1.0000223
1.0000223
1.0000223
1.0000223
1.0000223
1.0000223
1.0000223
1.0000223
1.0000224
1.0000224
1.0000224
1.0000224
1.0000224
1.0000224
1.0000224
1.0000224
1.0000224
1.0000224
1.0000224
1.0000224
1.0000224
1.0000224
1.0000224
1.0000224
1.0000224
1.0000224
1.0000224
1.0000224
1.0000224
1.0000224
1.0000224
1.0000224
1.0000224
1.0000224
1.0000224
1.0000224
1.0000224
1.0000224
1.0000224
1.0000224
1.0000224
1.0000224
1.0000224
1.0000224
1.0000224
1.0000224
1.0000224
1.0000224
1.0000225
1.0000225
1.0000224
1.0000224
1.0000222
1.0000219
1.0000213
1.0000201
1.0000181
1.0000154
1.0000203
1.0000203
1.0000203
1.0000203
1.0000203
1.0000204
1.0000204
1.0000204
1.0000204
1.0000204
1.0000204
1.0000204
1.0000204
1.0000204
1.0000204
1.0000204
1.0000204
1.0000204
1.0000204
1.0000204
1.0000204
1.0000204
1.0000204
1.0000204
1.0000204
1.0000204
1.0000204
1.0000204
1.0000204
1.0000204
1.0000204
1.0000204
1.0000204
1.0000204
1.0000204
1.0000204
1.0000204
1.0000204
1.0000204
1.0000204
1.0000204
1.0000204
1.0000204
1.0000204
1.0000204
1.0000204
1.0000204
1.0000204
1.0000204
1.0000204
1.0000204
1.0000204
1.0000204
1.0000203
1.00002
1.0000195
1.0000184
1.0000165
1.0000141
1.0000185
1.0000185
1.0000185
1.0000185
1.0000185
1.0000185
1.0000185
1.0000185
1.0000185
1.0000185
1.0000185
1.0000185
1.0000185
1.0000185
1.0000185
1.0000185
1.0000185
1.0000185
1.0000185
1.0000185
1.0000185
1.0000185
1.0000185
1.0000185
1.0000185
1.0000185
1.0000185
1.0000185
1.0000185
1.0000185
1.0000185
1.0000185
1.0000185
1.0000185
1.0000185
1.0000185
1.0000185
1.0000185
1.0000185
1.0000185
1.0000185
1.0000185
1.0000185
1.0000186
1.0000186
1.0000186
1.0000186
1.0000186
1.0000186
1.0000186
1.0000186
1.0000186
1.0000186
1.0000185
1.0000182
1.0000177
1.0000168
1.000015
1.0000128
1.0000168
1.0000168
1.0000168
1.0000168
1.0000168
1.0000168
1.0000168
1.0000168
1.0000168
1.0000168
1.0000168
1.0000168
1.0000168
1.0000168
1.0000168
1.0000168
1.0000168
1.0000168
1.0000168
1.0000168
1.0000168
1.0000168
1.0000168
1.0000168
1.0000168
1.0000168
1.0000168
1.0000168
1.0000168
1.0000168
1.0000168
1.0000168
1.0000168
1.0000168
1.0000168
1.0000168
1.0000168
1.0000168
1.0000168
1.0000168
1.0000168
1.0000168
1.0000168
1.0000168
1.0000168
1.0000169
1.0000169
1.0000168
1.0000169
1.0000169
1.0000169
1.0000169
1.0000169
1.0000168
1.0000166
1.0000162
1.0000153
1.0000137
1.0000117
1.0000153
1.0000153
1.0000153
1.0000153
1.0000153
1.0000153
1.0000153
1.0000153
1.0000153
1.0000152
1.0000152
1.0000152
1.0000153
1.0000153
1.0000153
1.0000152
1.0000152
1.0000152
1.0000152
1.0000152
1.0000152
1.0000152
1.0000152
1.0000152
1.0000152
1.0000152
1.0000152
1.0000152
1.0000152
1.0000152
1.0000152
1.0000152
1.0000152
1.0000152
1.0000153
1.0000153
1.0000153
1.0000153
1.0000152
1.0000152
1.0000152
1.0000152
1.0000153
1.0000153
1.0000153
1.0000153
1.0000153
1.0000153
1.0000153
1.0000153
1.0000153
1.0000153
1.0000153
1.0000152
1.0000151
1.0000147
1.0000139
1.0000125
1.0000106
1.0000138
1.0000138
1.0000138
1.0000138
1.0000138
1.0000138
1.0000138
1.0000138
1.0000138
1.0000138
1.0000138
1.0000138
1.0000138
1.0000138
1.0000138
1.0000138
1.0000138
1.0000138
1.0000138
1.0000138
1.0000138
1.0000138
1.0000138
1.0000138
1.0000138
1.0000138
1.0000138
1.0000138
1.0000138
1.0000138
1.0000138
1.0000138
1.0000138
1.0000138
1.0000138
1.0000138
1.0000138
1.0000138
1.0000138
1.0000138
1.0000138
1.0000138
1.0000138
1.0000138
1.0000138
1.0000138
1.0000138
1.0000138
1.0000138
1.0000138
1.0000138
1.0000139
1.0000139
1.0000138
1.0000137
1.0000134
1.0000127
1.0000114
1.0000097
1.0000125
1.0000125
1.0000125
1.0000125
1.0000125
1.0000125
1.0000125
1.0000125
1.0000125
1.0000125
1.0000125
1.0000125
1.0000125
1.0000125
1.0000125
1.0000125
1.0000125
1.0000125
1.0000125
1.0000125
1.0000125
1.0000125
1.0000125
1.0000125
1.0000125
1.0000125
1.0000125
1.0000125
1.0000125
1.0000125
1.0000125
1.0000125
1.0000125
1.0000125
1.0000125
1.0000125
1.0000125
1.0000125
1.0000125
1.0000125
1.0000125
1.0000125
1.0000125
1.0000125
1.0000125
1.0000125
1.0000125
1.0000125
1.0000125
1.0000125
1.0000125
1.0000125
1.0000125
1.0000125
1.0000124
1.0000122
1.0000116
1.0000104
1.0000088
1.0000113
1.0000113
1.0000113
1.0000113
1.0000113
1.0000113
1.0000113
1.0000113
1.0000113
1.0000113
1.0000113
1.0000113
1.0000113
1.0000113
1.0000113
1.0000113
1.0000113
1.0000113
1.0000113
1.0000113
1.0000113
1.0000113
1.0000113
1.0000113
1.0000113
1.0000113
1.0000113
1.0000113
1.0000113
1.0000113
1.0000113
1.0000113
1.0000113
1.0000113
1.0000113
1.0000113
1.0000113
1.0000113
1.0000113
1.0000113
1.0000113
1.0000113
1.0000113
1.0000113
1.0000113
1.0000113
1.0000113
1.0000113
1.0000113
1.0000113
1.0000113
1.0000113
1.0000113
1.0000113
1.0000113
1.0000111
1.0000106
1.0000095
1.000008
1.0000103
1.0000103
1.0000103
1.0000103
1.0000103
1.0000102
1.0000102
1.0000102
1.0000102
1.0000102
1.0000102
1.0000102
1.0000102
1.0000102
1.0000102
1.0000102
1.0000102
1.0000102
1.0000102
1.0000102
1.0000102
1.0000102
1.0000102
1.0000102
1.0000102
1.0000102
1.0000102
1.0000102
1.0000102
1.0000102
1.0000102
1.0000102
1.0000102
1.0000102
1.0000102
1.0000102
1.0000102
1.0000102
1.0000102
1.0000102
1.0000102
1.0000102
1.0000102
1.0000102
1.0000102
1.0000102
1.0000102
1.0000102
1.0000102
1.0000102
1.0000102
1.0000102
1.0000103
1.0000103
1.0000102
1.0000101
1.0000096
1.0000087
1.0000073
1.0000093
1.0000093
1.0000093
1.0000093
1.0000093
1.0000093
1.0000093
1.0000093
1.0000092
1.0000092
1.0000092
1.0000092
1.0000092
1.0000092
1.0000092
1.0000092
1.0000092
1.0000093
1.0000093
1.0000093
1.0000092
1.0000092
1.0000092
1.0000092
1.0000092
1.0000092
1.0000092
1.0000092
1.0000092
1.0000092
1.0000092
1.0000092
1.0000092
1.0000092
1.0000092
1.0000092
1.0000092
1.0000092
1.0000092
1.0000092
1.0000092
1.0000092
1.0000092
1.0000092
1.0000092
1.0000092
1.0000092
1.0000092
1.0000092
1.0000092
1.0000092
1.0000093
1.0000093
1.0000093
1.0000093
1.0000092
1.0000088
1.000008
1.0000067
1.0000241
1.0000266
1.0000294
1.0000324
1.0000357
1.0000392
1.000043
1.000047
1.0000513
1.0000559
1.0000607
1.0000657
1.000071
1.0000765
1.0000822
1.000088
1.0000939
1.0000997
1.0001054
1.0001109
1.000116
1.0001206
1.0001244
1.0001272
1.0001291
1.0001294
1.0001283
1.0001256
1.000121
1.0001144
1.0001061
1.0000965
1.0000838
1.0000695
1.0000549
1.000038
1.0000202
1.0000024
0.99998361
0.9999641
0.9999442
0.9999243
0.9999043
0.99988465
0.9998654
0.99984694
0.99982929
0.99981249
0.99979645
0.9997811
0.99976626
0.99975211
0.99973875
0.99972622
0.99971444
0.99970333
0.99969291
0.99968316
0.99967401
0.99966544
0.99965748
0.9996501
0.99964324
0.99963688
0.99963098
0.9996255
0.99962042
0.99961572
0.99961136
0.99960733
0.99960362
0.99960019
0.99959701
0.99959408
1.0000282
1.000031
1.0000341
1.0000375
1.000041
1.0000449
1.0000491
1.0000535
1.0000583
1.0000633
1.0000687
1.0000743
1.0000801
1.0000861
1.0000924
1.0000987
1.000105
1.0001112
1.0001173
1.000123
1.0001281
1.0001326
1.0001361
1.0001385
1.0001394
1.0001387
1.0001362
1.0001317
1.000125
1.0001161
1.0001048
1.0000916
1.0000761
1.0000585
1.0000392
1.0000183
0.9999961
0.99997316
0.99994979
0.99992618
0.99990249
0.99987891
0.99985561
0.99983301
0.99981071
0.9997912
0.9997711
0.99975135
0.99973243
0.99971444
0.99969741
0.99968133
0.99966617
0.99965182
0.99963834
0.99962569
0.99961392
0.99960294
0.99959272
0.99958323
0.99957447
0.99956635
0.99955883
0.99955186
0.9995454
0.99953941
0.99953385
0.9995287
0.99952393
0.99951952
0.99951544
0.99951168
0.9995082
0.99950501
1.0000313
1.0000344
1.0000379
1.0000416
1.0000456
1.0000499
1.0000545
1.0000594
1.0000647
1.0000703
1.0000763
1.0000825
1.000089
1.0000958
1.0001027
1.0001098
1.0001168
1.0001238
1.0001305
1.0001368
1.0001425
1.0001474
1.0001511
1.0001536
1.0001544
1.0001533
1.0001501
1.0001446
1.0001365
1.0001258
1.0001124
1.0000964
1.0000778
1.000057
1.0000341
1.0000094
0.99998319
0.99995579
0.99992765
0.99989914
0.99987054
0.99984212
0.99981407
0.99978667
0.99975992
0.99973406
0.99970923
0.99968555
0.99966301
0.99964161
0.9996213
0.9996022
0.99958378
0.99956569
0.99954975
0.9995353
0.9995218
0.99950908
0.99949765
0.99948696
0.9994769
0.99946746
0.99945861
0.99945034
0.99944261
0.99943543
0.99942863
0.99942231
0.99941646
0.99941105
0.99940606
0.99940148
0.99939723
0.99939329
1.0000331
1.0000365
1.0000402
1.0000442
1.0000486
1.0000532
1.0000582
1.0000636
1.0000694
1.0000755
1.0000819
1.0000888
1.0000959
1.0001033
1.0001109
1.0001187
1.0001265
1.0001343
1.0001418
1.0001488
1.0001553
1.0001608
1.0001652
1.0001682
1.0001695
1.0001686
1.0001655
1.0001599
1.0001515
1.0001401
1.0001259
1.0001086
1.0000886
1.0000659
1.0000408
1.0000138
0.99998497
0.99995473
0.99992351
0.99989172
0.99985966
0.99982767
0.99979605
0.99976505
0.99973484
0.99970542
0.99967699
0.99964975
0.99962376
0.99959902
0.99957554
0.99955333
0.99953241
0.99951273
0.99949423
0.99947685
0.99946059
0.99944539
0.99943117
0.99941791
0.99940557
0.99939411
0.99938346
0.99937356
0.99936438
0.99935585
0.99934793
0.99934059
0.99933376
0.99932746
0.99932146
0.99931587
0.99931069
0.99930603
1.0000342
1.0000377
1.0000416
1.0000459
1.0000504
1.0000554
1.0000607
1.0000664
1.0000725
1.000079
1.0000859
1.0000932
1.0001008
1.0001087
1.0001169
1.0001253
1.0001338
1.0001422
1.0001504
1.0001582
1.0001654
1.0001718
1.0001769
1.0001806
1.0001825
1.0001822
1.0001797
1.0001745
1.0001663
1.0001552
1.0001409
1.0001235
1.0001031
1.0000799
1.0000541
1.0000261
0.99999621
0.99996472
0.9999321
0.99989876
0.99986504
0.99983128
0.99979779
0.99976486
0.99973268
0.99970129
0.99967088
0.99964165
0.99961366
0.99958696
0.99956156
0.99953748
0.99951473
0.99949334
0.99947322
0.99945429
0.99943653
0.99941989
0.99940431
0.99938972
0.99937613
0.99936347
0.9993517
0.99934074
0.99933062
0.99932094
0.99931191
0.99930356
0.99929588
0.9992888
0.99928231
0.99927634
0.99927081
0.99926574
1.0000347
1.0000384
1.0000425
1.0000468
1.0000516
1.0000567
1.0000622
1.0000682
1.0000745
1.0000813
1.0000885
1.0000961
1.0001042
1.0001125
1.0001212
1.0001301
1.0001391
1.000148
1.0001568
1.0001653
1.0001731
1.0001801
1.0001859
1.0001903
1.0001929
1.0001934
1.0001914
1.0001869
1.0001793
1.0001686
1.0001548
1.0001377
1.0001175
1.0000945
1.0000688
1.0000407
1.0000107
0.999979
0.99994607
0.99991233
0.99987815
0.99984385
0.99980976
0.99977618
0.9997433
0.9997112
0.99968004
0.99965005
0.99962129
0.99959382
0.99956765
0.9995428
0.99951931
0.99949717
0.99947632
0.9994567
0.99943826
0.99942097
0.99940478
0.99938962
0.99937547
0.99936229
0.99935002
0.9993386
0.99932798
0.99931812
0.99930896
0.99930046
0.99929258
0.99928527
0.99927851
0.99927225
0.99926648
0.99926114
1.000035
1.0000388
1.0000429
1.0000474
1.0000523
1.0000575
1.0000632
1.0000693
1.0000758
1.0000828
1.0000903
1.0000982
1.0001065
1.0001151
1.0001241
1.0001334
1.0001428
1.0001522
1.0001615
1.0001704
1.0001788
1.0001863
1.0001927
1.0001977
1.0002009
1.0002019
1.0002006
1.0001967
1.0001897
1.0001795
1.0001662
1.0001497
1.00013
1.0001073
1.000082
1.0000542
1.0000245
0.99999299
0.99996023
0.99992663
0.99989254
0.99985829
0.99982422
0.99979062
0.99975768
0.99972551
0.99969428
0.99966418
0.9996353
0.99960769
0.99958138
0.99955639
0.99953275
0.99951044
0.99948942
0.99946964
0.99945104
0.9994336
0.99941726
0.99940197
0.99938769
0.99937438
0.99936197
0.99935043
0.9993397
0.99932972
0.99932046
0.99931186
0.99930389
0.99929651
0.99928967
0.99928334
0.99927748
0.99927205
1.0000352
1.000039
1.0000432
1.0000477
1.0000527
1.000058
1.0000638
1.00007
1.0000767
1.0000839
1.0000915
1.0000995
1.000108
1.000117
1.0001262
1.0001357
1.0001454
1.0001552
1.0001648
1.0001741
1.0001829
1.0001909
1.0001977
1.0002032
1.0002069
1.0002084
1.0002076
1.0002041
1.0001976
1.000188
1.0001752
1.0001591
1.0001398
1.0001176
1.0000926
1.0000653
1.0000358
1.0000047
0.99997221
0.99993887
0.99990501
0.99987097
0.99983709
0.99980365
0.99977086
0.99973883
0.99970772
0.99967773
0.99964895
0.99962142
0.99959519
0.99957027
0.99954667
0.99952441
0.99950342
0.99948367
0.9994651
0.99944768
0.99943136
0.99941609
0.99940183
0.99938853
0.99937615
0.99936461
0.99935389
0.99934392
0.99933467
0.99932608
0.99931811
0.99931073
0.99930389
0.99929755
0.99929169
0.99928626
1.0000353
1.0000391
1.0000433
1.0000479
1.0000529
1.0000583
1.0000642
1.0000705
1.0000773
1.0000845
1.0000923
1.0001005
1.0001091
1.0001182
1.0001276
1.0001374
1.0001473
1.0001573
1.0001672
1.0001768
1.0001858
1.0001941
1.0002013
1.0002072
1.0002112
1.0002131
1.0002127
1.0002096
1.0002035
1.0001943
1.0001819
1.0001661
1.0001472
1.0001254
1.0001007
1.0000737
1.0000445
1.0000136
0.99998143
0.99994832
0.99991467
0.99988083
0.99984712
0.99981384
0.99978118
0.99974929
0.99971832
0.99968844
0.99965977
0.99963234
0.99960619
0.99958136
0.99955784
0.99953563
0.9995147
0.999495
0.99947648
0.99945911
0.99944284
0.99942762
0.9994134
0.99940014
0.99938779
0.99937629
0.9993656
0.99935566
0.99934643
0.99933786
0.99932992
0.99932255
0.99931573
0.99930941
0.99930356
0.99929815
1.0000353
1.0000392
1.0000434
1.000048
1.0000531
1.0000585
1.0000644
1.0000708
1.0000776
1.000085
1.0000928
1.0001011
1.0001099
1.0001191
1.0001286
1.0001385
1.0001486
1.0001588
1.0001688
1.0001787
1.000188
1.0001965
1.000204
1.00021
1.0002144
1.0002165
1.0002164
1.0002137
1.0002079
1.000199
1.0001868
1.0001714
1.0001527
1.0001311
1.0001067
1.0000799
1.000051
1.0000203
0.99998822
0.99995527
0.99992176
0.99988805
0.99985447
0.99982128
0.99978871
0.9997569
0.99972601
0.99969622
0.99966761
0.99964024
0.99961415
0.99958936
0.99956589
0.99954371
0.99952281
0.99950314
0.99948465
0.99946731
0.99945107
0.99943587
0.99942168
0.99940845
0.99939611
0.99938463
0.99937395
0.99936403
0.99935481
0.99934626
0.99933833
0.99933097
0.99932416
0.99931785
0.999312
0.9993066
1.0000353
1.0000392
1.0000434
1.0000481
1.0000531
1.0000586
1.0000646
1.000071
1.0000779
1.0000853
1.0000931
1.0001015
1.0001104
1.0001196
1.0001293
1.0001393
1.0001495
1.0001598
1.00017
1.00018
1.0001895
1.0001982
1.0002058
1.0002121
1.0002167
1.0002191
1.0002192
1.0002166
1.0002111
1.0002024
1.0001904
1.0001752
1.0001568
1.0001353
1.0001111
1.0000845
1.0000557
1.0000251
0.99999316
0.99996031
0.99992689
0.99989326
0.99985973
0.9998266
0.99979407
0.9997623
0.99973146
0.9997017
0.99967312
0.99964577
0.99961971
0.99959494
0.99957148
0.99954932
0.99952843
0.99950876
0.99949028
0.99947295
0.99945671
0.99944153
0.99942735
0.99941413
0.9994018
0.99939033
0.99937966
0.99936974
0.99936053
0.99935198
0.99934406
0.9993367
0.99932989
0.99932358
0.99931774
0.99931234
1.0000353
1.0000392
1.0000434
1.0000481
1.0000532
1.0000587
1.0000647
1.0000711
1.000078
1.0000854
1.0000934
1.0001018
1.0001107
1.0001201
1.0001298
1.0001399
1.0001502
1.0001606
1.0001709
1.000181
1.0001906
1.0001994
1.0002072
1.0002136
1.0002183
1.000221
1.0002213
1.0002188
1.0002134
1.0002048
1.0001931
1.000178
1.0001598
1.0001385
1.0001144
1.0000878
1.0000591
1.0000287
0.99999681
0.99996402
0.99993066
0.99989707
0.99986358
0.99983046
0.99979794
0.99976619
0.99973537
0.99970562
0.99967704
0.9996497
0.99962364
0.99959887
0.99957541
0.99955324
0.99953234
0.99951267
0.99949418
0.99947685
0.99946061
0.99944543
0.99943125
0.99941802
0.99940569
0.99939422
0.99938354
0.99937362
0.99936441
0.99935586
0.99934793
0.99934057
0.99933376
0.99932745
0.9993216
0.9993162
1.0000353
1.0000392
1.0000434
1.0000481
1.0000532
1.0000587
1.0000647
1.0000712
1.0000781
1.0000856
1.0000935
1.000102
1.0001109
1.0001203
1.0001301
1.0001402
1.0001506
1.0001611
1.0001715
1.0001816
1.0001913
1.0002003
1.0002082
1.0002147
1.0002195
1.0002222
1.0002228
1.0002204
1.0002151
1.0002067
1.0001951
1.0001802
1.000162
1.0001409
1.0001169
1.0000904
1.0000618
1.0000314
0.99999962
0.99996687
0.99993354
0.99989998
0.9998665
0.99983339
0.99980087
0.99976912
0.99973829
0.99970854
0.99967996
0.99965261
0.99962654
0.99960176
0.99957828
0.9995561
0.99953518
0.99951549
0.99949699
0.99947965
0.9994634
0.99944821
0.99943402
0.99942079
0.99940845
0.99939697
0.99938629
0.99937637
0.99936715
0.99935859
0.99935066
0.9993433
0.99933648
0.99933016
0.99932432
0.9993189
1.0000353
1.0000392
1.0000434
1.0000481
1.0000532
1.0000587
1.0000647
1.0000712
1.0000782
1.0000856
1.0000936
1.0001021
1.0001111
1.0001205
1.0001303
1.0001405
1.0001509
1.0001614
1.0001719
1.0001821
1.0001918
1.0002009
1.0002088
1.0002155
1.0002203
1.0002238
1.0002239
1.0002216
1.0002164
1.0002082
1.0001967
1.0001819
1.0001639
1.0001428
1.0001189
1.0000926
1.000064
1.0000337
1.000002
0.99996927
0.99993597
0.99990242
0.99986895
0.99983584
0.99980331
0.99977155
0.99974071
0.99971095
0.99968235
0.99965498
0.99962889
0.9996041
0.9995806
0.99955839
0.99953745
0.99951774
0.99949923
0.99948186
0.9994656
0.9994504
0.9994362
0.99942295
0.99941061
0.99939911
0.99938842
0.99937849
0.99936926
0.9993607
0.99935275
0.99934539
0.99933856
0.99933224
0.99932639
0.99932097
1.0000353
1.0000391
1.0000434
1.0000481
1.0000532
1.0000587
1.0000647
1.0000712
1.0000782
1.0000857
1.0000937
1.0001022
1.0001112
1.0001206
1.0001305
1.0001407
1.0001511
1.0001616
1.0001721
1.0001824
1.0001922
1.0002013
1.0002093
1.0002161
1.000221
1.000224
1.0002247
1.0002226
1.0002176
1.0002094
1.0001981
1.0001834
1.0001655
1.0001446
1.0001208
1.0000945
1.0000661
1.0000358
1.0000042
0.99997149
0.99993822
0.99990469
0.99987123
0.9998381
0.99980556
0.99977378
0.99974293
0.99971315
0.99968453
0.99965714
0.99963102
0.9996062
0.99958267
0.99956044
0.99953947
0.99951973
0.99950119
0.99948381
0.99946753
0.9994523
0.99943808
0.99942482
0.99941246
0.99940096
0.99939025
0.99938031
0.99937107
0.99936249
0.99935454
0.99934716
0.99934033
0.999334
0.99932813
0.99932271
1.0000353
1.0000391
1.0000434
1.0000481
1.0000532
1.0000587
1.0000647
1.0000712
1.0000782
1.0000857
1.0000937
1.0001022
1.0001112
1.0001207
1.0001306
1.0001408
1.0001512
1.0001618
1.0001723
1.0001826
1.0001925
1.0002016
1.0002097
1.0002165
1.0002214
1.0002253
1.0002254
1.0002234
1.0002185
1.0002104
1.0001992
1.0001847
1.000167
1.0001462
1.0001226
1.0000964
1.0000681
1.0000379
1.0000063
0.99997372
0.99994049
0.99990699
0.99987353
0.99984041
0.99980785
0.99977605
0.99974519
0.99971538
0.99968673
0.99965931
0.99963316
0.99960831
0.99958475
0.99956249
0.99954149
0.99952172
0.99950315
0.99948574
0.99946944
0.99945419
0.99943995
0.99942667
0.99941429
0.99940277
0.99939205
0.99938209
0.99937283
0.99936425
0.99935628
0.99934889
0.99934205
0.99933571
0.99932984
0.9993244
1.0000353
1.0000391
1.0000434
1.0000481
1.0000532
1.0000587
1.0000647
1.0000712
1.0000782
1.0000857
1.0000937
1.0001022
1.0001112
1.0001207
1.0001306
1.0001408
1.0001513
1.0001619
1.0001724
1.0001828
1.0001926
1.0002018
1.0002099
1.0002168
1.0002219
1.0002254
1.000226
1.0002242
1.0002194
1.0002116
1.0002005
1.0001862
1.0001686
1.000148
1.0001246
1.0000986
1.0000703
1.0000403
1.0000088
0.99997625
0.99994307