/*--------------------------------*- C++ -*----------------------------------*\
| =========                 |                                                 |
| \\      /  F ield         | OpenFOAM: The Open Source CFD Toolbox           |
|  \\    /   O peration     | Version:  v2006                                 |
|   \\  /    A nd           | Website:  www.openfoam.com                      |
|    \\/     M anipulation  |                                                 |
\*---------------------------------------------------------------------------*/
FoamFile
{
    version     2.0;
    format      ascii;
    class       volScalarField;
    location    "10000";
    object      TMean;
}
// * * * * * * * * * * * * * * * * * * * * * * * * * * * * * * * * * * * * * //

dimensions      [0 0 0 1 0 0 0];


internalField   nonuniform List<scalar> 
55713
(
1.0000068
1.0000081
1.0000088
1.0000092
1.0000092
1.0000093
1.0000092
1.0000092
1.0000092
1.0000092
1.0000092
1.0000092
1.0000092
1.0000092
1.0000092
1.0000092
1.0000092
1.0000092
1.0000092
1.0000092
1.0000092
1.0000092
1.0000092
1.0000092
1.0000092
1.0000092
1.0000092
1.0000092
1.0000092
1.0000092
1.0000092
1.0000092
1.0000092
1.0000092
1.0000092
1.0000092
1.0000092
1.0000092
1.0000092
1.0000092
1.0000092
1.0000092
1.0000092
1.0000092
1.0000092
1.0000092
1.0000092
1.0000092
1.0000092
1.0000092
1.0000092
1.0000092
1.0000092
1.0000092
1.0000092
1.0000092
1.0000092
1.0000092
1.0000092
1.0000064
1.0000076
1.0000083
1.0000086
1.0000087
1.0000087
1.0000086
1.0000086
1.0000086
1.0000086
1.0000086
1.0000086
1.0000086
1.0000086
1.0000086
1.0000086
1.0000086
1.0000086
1.0000086
1.0000086
1.0000086
1.0000086
1.0000086
1.0000086
1.0000086
1.0000086
1.0000086
1.0000086
1.0000086
1.0000086
1.0000086
1.0000086
1.0000086
1.0000086
1.0000086
1.0000086
1.0000086
1.0000086
1.0000086
1.0000086
1.0000086
1.0000086
1.0000086
1.0000086
1.0000086
1.0000086
1.0000086
1.0000086
1.0000086
1.0000086
1.0000086
1.0000086
1.0000086
1.0000086
1.0000087
1.0000087
1.0000086
1.0000087
1.0000087
1.0000061
1.0000073
1.0000079
1.0000081
1.0000081
1.0000081
1.0000081
1.0000081
1.0000081
1.0000081
1.0000081
1.0000081
1.0000081
1.0000081
1.0000081
1.0000081
1.0000081
1.0000081
1.0000081
1.0000081
1.0000081
1.0000081
1.0000081
1.0000081
1.0000081
1.0000081
1.0000081
1.0000081
1.000008
1.0000081
1.0000081
1.0000081
1.0000081
1.0000081
1.0000081
1.0000081
1.0000081
1.0000081
1.0000081
1.0000081
1.0000081
1.0000081
1.0000081
1.0000081
1.0000081
1.0000081
1.0000081
1.0000081
1.0000081
1.0000081
1.0000081
1.0000081
1.0000081
1.0000081
1.0000081
1.0000081
1.0000081
1.0000081
1.0000081
1.0000059
1.000007
1.0000075
1.0000077
1.0000077
1.0000077
1.0000077
1.0000076
1.0000076
1.0000077
1.0000077
1.0000077
1.0000076
1.0000076
1.0000076
1.0000076
1.0000076
1.0000076
1.0000076
1.0000076
1.0000076
1.0000076
1.0000076
1.0000076
1.0000076
1.0000076
1.0000076
1.0000076
1.0000076
1.0000076
1.0000076
1.0000076
1.0000076
1.0000076
1.0000076
1.0000076
1.0000076
1.0000076
1.0000076
1.0000076
1.0000077
1.0000077
1.0000076
1.0000076
1.0000076
1.0000076
1.0000077
1.0000077
1.0000077
1.0000077
1.0000077
1.0000077
1.0000077
1.0000077
1.0000077
1.0000077
1.0000077
1.0000077
1.0000077
1.0000057
1.0000067
1.0000072
1.0000073
1.0000073
1.0000073
1.0000073
1.0000072
1.0000073
1.0000073
1.0000073
1.0000073
1.0000073
1.0000073
1.0000073
1.0000073
1.0000072
1.0000072
1.0000072
1.0000072
1.0000072
1.0000072
1.0000072
1.0000072
1.0000072
1.0000072
1.0000072
1.0000072
1.0000072
1.0000072
1.0000072
1.0000072
1.0000072
1.0000072
1.0000072
1.0000072
1.0000072
1.0000072
1.0000072
1.0000072
1.0000073
1.0000073
1.0000073
1.0000072
1.0000072
1.0000073
1.0000073
1.0000073
1.0000073
1.0000073
1.0000073
1.0000073
1.0000073
1.0000073
1.0000073
1.0000073
1.0000073
1.0000073
1.0000073
1.0000055
1.0000065
1.0000069
1.000007
1.0000069
1.0000069
1.0000069
1.0000069
1.0000069
1.0000069
1.0000069
1.0000069
1.0000069
1.0000069
1.0000069
1.0000069
1.0000069
1.0000069
1.0000069
1.0000069
1.0000069
1.0000069
1.0000069
1.0000069
1.0000069
1.0000069
1.0000069
1.0000069
1.0000069
1.0000069
1.0000069
1.0000069
1.0000069
1.0000069
1.0000069
1.0000069
1.0000069
1.0000069
1.0000069
1.0000069
1.0000069
1.0000069
1.0000069
1.0000069
1.0000069
1.0000069
1.0000069
1.0000069
1.0000069
1.0000069
1.0000069
1.0000069
1.0000069
1.0000069
1.000007
1.000007
1.000007
1.000007
1.000007
1.0000054
1.0000063
1.0000066
1.0000067
1.0000066
1.0000066
1.0000066
1.0000066
1.0000066
1.0000066
1.0000066
1.0000066
1.0000066
1.0000066
1.0000066
1.0000066
1.0000066
1.0000066
1.0000066
1.0000066
1.0000066
1.0000066
1.0000066
1.0000066
1.0000066
1.0000066
1.0000066
1.0000066
1.0000066
1.0000066
1.0000066
1.0000066
1.0000066
1.0000066
1.0000066
1.0000066
1.0000066
1.0000066
1.0000066
1.0000066
1.0000066
1.0000066
1.0000066
1.0000066
1.0000066
1.0000066
1.0000066
1.0000066
1.0000066
1.0000066
1.0000066
1.0000066
1.0000066
1.0000066
1.0000067
1.0000067
1.0000067
1.0000067
1.0000067
1.0000053
1.0000062
1.0000064
1.0000064
1.0000064
1.0000064
1.0000064
1.0000064
1.0000064
1.0000064
1.0000064
1.0000064
1.0000064
1.0000064
1.0000064
1.0000063
1.0000063
1.0000063
1.0000063
1.0000063
1.0000063
1.0000063
1.0000063
1.0000063
1.0000063
1.0000063
1.0000063
1.0000063
1.0000063
1.0000063
1.0000063
1.0000063
1.0000063
1.0000063
1.0000063
1.0000063
1.0000063
1.0000063
1.0000063
1.0000063
1.0000063
1.0000064
1.0000064
1.0000063
1.0000063
1.0000063
1.0000064
1.0000064
1.0000064
1.0000064
1.0000064
1.0000064
1.0000064
1.0000064
1.0000064
1.0000064
1.0000064
1.0000064
1.0000064
1.0000053
1.0000061
1.0000062
1.0000062
1.0000062
1.0000062
1.0000062
1.0000062
1.0000062
1.0000062
1.0000062
1.0000062
1.0000062
1.0000062
1.0000062
1.0000062
1.0000061
1.0000061
1.0000061
1.0000061
1.0000061
1.0000061
1.0000061
1.0000061
1.0000061
1.0000061
1.0000061
1.0000061
1.0000061
1.0000061
1.0000061
1.0000061
1.0000061
1.0000061
1.0000061
1.0000062
1.0000062
1.0000061
1.0000061
1.0000061
1.0000062
1.0000062
1.0000062
1.0000062
1.0000062
1.0000061
1.0000062
1.0000062
1.0000062
1.0000062
1.0000062
1.0000062
1.0000062
1.0000062
1.0000062
1.0000062
1.0000062
1.0000062
1.0000062
1.0000053
1.000006
1.0000061
1.0000061
1.000006
1.000006
1.000006
1.000006
1.000006
1.000006
1.000006
1.000006
1.000006
1.000006
1.000006
1.000006
1.000006
1.000006
1.000006
1.000006
1.000006
1.000006
1.000006
1.000006
1.000006
1.0000059
1.0000059
1.0000059
1.0000059
1.0000059
1.0000059
1.0000059
1.000006
1.000006
1.000006
1.000006
1.000006
1.000006
1.000006
1.000006
1.000006
1.000006
1.000006
1.000006
1.000006
1.000006
1.000006
1.000006
1.000006
1.000006
1.000006
1.000006
1.000006
1.000006
1.000006
1.0000061
1.0000061
1.000006
1.000006
1.0000051
1.0000058
1.0000057
1.0000058
1.0000057
1.0000057
1.0000057
1.0000058
1.0000057
1.0000057
1.0000057
1.0000057
1.0000057
1.0000057
1.0000057
1.0000056
1.0000056
1.0000056
1.0000056
1.0000056
1.0000056
1.0000056
1.0000056
1.0000056
1.0000056
1.0000056
1.0000056
1.0000056
1.0000056
1.0000056
1.0000056
1.0000056
1.0000056
1.0000056
1.0000056
1.0000057
1.0000057
1.0000057
1.0000056
1.0000056
1.0000056
1.0000057
1.0000057
1.0000057
1.0000057
1.0000056
1.0000057
1.0000057
1.0000057
1.0000057
1.0000057
1.0000057
1.0000057
1.0000057
1.0000057
1.0000057
1.0000058
1.0000057
1.0000057
1.0000051
1.0000059
1.0000056
1.0000058
1.0000057
1.0000055
1.0000057
1.0000057
1.0000056
1.0000055
1.0000055
1.0000056
1.0000056
1.0000055
1.0000055
1.0000055
1.0000055
1.0000055
1.0000055
1.0000055
1.0000055
1.0000055
1.0000054
1.0000054
1.0000054
1.0000054
1.0000054
1.0000054
1.0000054
1.0000054
1.0000054
1.0000054
1.0000054
1.0000054
1.0000054
1.0000055
1.0000055
1.0000055
1.0000055
1.0000055
1.0000055
1.0000054
1.0000055
1.0000055
1.0000055
1.0000055
1.0000055
1.0000055
1.0000055
1.0000055
1.0000055
1.0000056
1.0000054
1.0000056
1.0000056
1.0000056
1.0000058
1.0000055
1.0000055
1.0000066
1.0000071
1.0000067
1.000007
1.0000067
1.0000067
1.000007
1.0000067
1.0000067
1.0000068
1.0000068
1.0000069
1.0000068
1.0000068
1.0000068
1.0000068
1.0000068
1.0000068
1.0000068
1.0000068
1.0000068
1.0000068
1.0000068
1.0000068
1.0000068
1.0000068
1.0000068
1.0000068
1.0000068
1.0000068
1.0000068
1.0000068
1.0000068
1.0000068
1.0000068
1.0000068
1.0000068
1.0000069
1.0000068
1.0000068
1.0000068
1.0000068
1.0000067
1.0000068
1.0000068
1.0000068
1.0000068
1.0000068
1.0000068
1.0000068
1.0000068
1.0000068
1.0000067
1.0000068
1.0000068
1.0000066
1.000007
1.0000067
1.0000068
1.0000053
1.0000042
1.0000047
1.0000042
1.0000048
1.0000049
1.0000045
1.0000046
1.0000048
1.0000047
1.0000047
1.0000045
1.0000044
1.0000044
1.0000044
1.0000044
1.0000043
1.0000043
1.0000042
1.0000041
1.0000041
1.0000041
1.0000041
1.0000041
1.0000041
1.0000041
1.0000041
1.0000041
1.0000041
1.0000041
1.0000041
1.0000041
1.0000041
1.0000041
1.0000041
1.0000041
1.0000041
1.0000042
1.0000043
1.0000044
1.0000045
1.0000046
1.0000047
1.0000048
1.0000049
1.000005
1.0000049
1.0000048
1.0000048
1.0000049
1.000005
1.0000049
1.0000051
1.0000048
1.0000048
1.0000048
1.0000042
1.0000051
1.0000051
1.0000347
1.0000347
1.0000347
1.0000347
1.0000347
1.0000348
1.0000348
1.0000348
1.0000348
1.0000348
1.0000348
1.0000348
1.0000348
1.0000349
1.0000349
1.0000349
1.0000349
1.0000349
1.0000349
1.0000349
1.0000349
1.0000349
1.0000349
1.0000349
1.0000349
1.0000349
1.0000349
1.0000349
1.0000349
1.0000349
1.0000349
1.000035
1.000035
1.000035
1.000035
1.000035
1.000035
1.000035
1.000035
1.000035
1.000035
1.000035
1.0000351
1.0000351
1.0000351
1.0000351
1.0000351
1.0000351
1.0000351
1.0000351
1.0000351
1.000035
1.0000349
1.0000346
1.0000341
1.0000331
1.0000313
1.0000282
1.0000241
1.0000318
1.0000318
1.0000318
1.0000319
1.0000319
1.0000319
1.0000319
1.0000319
1.0000319
1.0000319
1.0000319
1.0000319
1.000032
1.000032
1.000032
1.000032
1.000032
1.000032
1.000032
1.000032
1.000032
1.000032
1.000032
1.000032
1.000032
1.000032
1.000032
1.000032
1.000032
1.000032
1.000032
1.000032
1.0000321
1.0000321
1.0000321
1.0000321
1.0000321
1.0000321
1.0000321
1.0000321
1.0000321
1.0000321
1.0000321
1.0000321
1.0000321
1.0000321
1.0000321
1.0000321
1.0000321
1.0000321
1.0000321
1.0000321
1.000032
1.0000317
1.0000313
1.0000304
1.0000287
1.0000259
1.0000221
1.0000291
1.0000291
1.0000292
1.0000292
1.0000292
1.0000292
1.0000292
1.0000292
1.0000292
1.0000292
1.0000292
1.0000292
1.0000292
1.0000293
1.0000293
1.0000293
1.0000293
1.0000293
1.0000293
1.0000293
1.0000293
1.0000293
1.0000293
1.0000293
1.0000293
1.0000293
1.0000293
1.0000293
1.0000293
1.0000293
1.0000293
1.0000293
1.0000293
1.0000293
1.0000293
1.0000293
1.0000293
1.0000294
1.0000294
1.0000294
1.0000294
1.0000294
1.0000294
1.0000294
1.0000294
1.0000294
1.0000294
1.0000294
1.0000294
1.0000294
1.0000294
1.0000294
1.0000293
1.0000291
1.0000286
1.0000278
1.0000263
1.0000237
1.0000202
1.0000266
1.0000266
1.0000266
1.0000266
1.0000267
1.0000267
1.0000267
1.0000267
1.0000267
1.0000267
1.0000267
1.0000267
1.0000267
1.0000267
1.0000267
1.0000267
1.0000267
1.0000267
1.0000267
1.0000267
1.0000268
1.0000268
1.0000267
1.0000267
1.0000267
1.0000267
1.0000267
1.0000268
1.0000268
1.0000268
1.0000268
1.0000268
1.0000268
1.0000268
1.0000268
1.0000268
1.0000268
1.0000268
1.0000268
1.0000268
1.0000268
1.0000268
1.0000268
1.0000268
1.0000268
1.0000268
1.0000268
1.0000268
1.0000268
1.0000268
1.0000268
1.0000268
1.0000267
1.0000266
1.0000262
1.0000254
1.000024
1.0000216
1.0000185
1.0000243
1.0000243
1.0000243
1.0000243
1.0000243
1.0000243
1.0000243
1.0000243
1.0000243
1.0000243
1.0000243
1.0000244
1.0000244
1.0000244
1.0000244
1.0000244
1.0000244
1.0000244
1.0000244
1.0000244
1.0000244
1.0000244
1.0000244
1.0000244
1.0000244
1.0000244
1.0000244
1.0000244
1.0000244
1.0000244
1.0000244
1.0000244
1.0000244
1.0000244
1.0000244
1.0000244
1.0000244
1.0000244
1.0000244
1.0000244
1.0000244
1.0000244
1.0000244
1.0000245
1.0000245
1.0000244
1.0000244
1.0000245
1.0000245
1.0000245
1.0000245
1.0000244
1.0000244
1.0000242
1.0000239
1.0000232
1.0000219
1.0000197
1.0000169
1.0000221
1.0000221
1.0000221
1.0000221
1.0000221
1.0000221
1.0000221
1.0000221
1.0000222
1.0000222
1.0000222
1.0000222
1.0000222
1.0000222
1.0000222
1.0000222
1.0000222
1.0000222
1.0000222
1.0000222
1.0000222
1.0000222
1.0000222
1.0000222
1.0000222
1.0000222
1.0000222
1.0000222
1.0000222
1.0000222
1.0000222
1.0000222
1.0000222
1.0000222
1.0000222
1.0000222
1.0000222
1.0000222
1.0000222
1.0000222
1.0000222
1.0000222
1.0000222
1.0000222
1.0000222
1.0000222
1.0000222
1.0000222
1.0000222
1.0000223
1.0000223
1.0000223
1.0000222
1.0000221
1.0000218
1.0000212
1.00002
1.000018
1.0000154
1.0000201
1.0000201
1.0000201
1.0000201
1.0000201
1.0000201
1.0000201
1.0000201
1.0000201
1.0000201
1.0000201
1.0000201
1.0000201
1.0000202
1.0000202
1.0000202
1.0000202
1.0000202
1.0000202
1.0000202
1.0000202
1.0000202
1.0000202
1.0000202
1.0000201
1.0000202
1.0000202
1.0000202
1.0000201
1.0000201
1.0000201
1.0000202
1.0000202
1.0000202
1.0000202
1.0000202
1.0000202
1.0000202
1.0000202
1.0000202
1.0000202
1.0000202
1.0000202
1.0000202
1.0000202
1.0000202
1.0000202
1.0000202
1.0000202
1.0000202
1.0000202
1.0000202
1.0000202
1.0000201
1.0000198
1.0000193
1.0000183
1.0000164
1.000014
1.0000182
1.0000182
1.0000183
1.0000183
1.0000183
1.0000183
1.0000183
1.0000183
1.0000183
1.0000183
1.0000183
1.0000183
1.0000183
1.0000183
1.0000183
1.0000183
1.0000183
1.0000183
1.0000183
1.0000183
1.0000183
1.0000183
1.0000183
1.0000183
1.0000183
1.0000183
1.0000183
1.0000183
1.0000183
1.0000183
1.0000183
1.0000183
1.0000183
1.0000183
1.0000183
1.0000183
1.0000183
1.0000183
1.0000183
1.0000183
1.0000183
1.0000183
1.0000183
1.0000183
1.0000183
1.0000183
1.0000183
1.0000183
1.0000183
1.0000183
1.0000183
1.0000183
1.0000183
1.0000182
1.000018
1.0000176
1.0000166
1.0000149
1.0000127
1.0000165
1.0000165
1.0000165
1.0000165
1.0000165
1.0000166
1.0000166
1.0000166
1.0000166
1.0000166
1.0000166
1.0000166
1.0000166
1.0000166
1.0000166
1.0000166
1.0000166
1.0000166
1.0000166
1.0000166
1.0000166
1.0000166
1.0000166
1.0000166
1.0000166
1.0000166
1.0000166
1.0000166
1.0000166
1.0000165
1.0000165
1.0000166
1.0000166
1.0000166
1.0000166
1.0000166
1.0000166
1.0000166
1.0000166
1.0000166
1.0000166
1.0000166
1.0000166
1.0000166
1.0000166
1.0000166
1.0000166
1.0000166
1.0000166
1.0000166
1.0000166
1.0000166
1.0000166
1.0000165
1.0000164
1.000016
1.0000151
1.0000136
1.0000116
1.000015
1.000015
1.000015
1.000015
1.000015
1.000015
1.000015
1.000015
1.000015
1.000015
1.000015
1.000015
1.000015
1.000015
1.000015
1.000015
1.000015
1.000015
1.000015
1.000015
1.000015
1.000015
1.000015
1.000015
1.000015
1.000015
1.000015
1.000015
1.000015
1.000015
1.000015
1.000015
1.000015
1.000015
1.000015
1.000015
1.000015
1.000015
1.000015
1.000015
1.000015
1.000015
1.000015
1.000015
1.000015
1.000015
1.000015
1.000015
1.000015
1.000015
1.000015
1.000015
1.000015
1.000015
1.0000149
1.0000145
1.0000138
1.0000123
1.0000105
1.0000135
1.0000136
1.0000136
1.0000136
1.0000136
1.0000136
1.0000136
1.0000136
1.0000136
1.0000136
1.0000136
1.0000136
1.0000136
1.0000136
1.0000136
1.0000136
1.0000136
1.0000136
1.0000136
1.0000136
1.0000136
1.0000136
1.0000135
1.0000135
1.0000135
1.0000135
1.0000135
1.0000135
1.0000135
1.0000135
1.0000135
1.0000135
1.0000135
1.0000135
1.0000135
1.0000135
1.0000136
1.0000136
1.0000136
1.0000136
1.0000136
1.0000136
1.0000136
1.0000136
1.0000136
1.0000136
1.0000136
1.0000136
1.0000136
1.0000136
1.0000136
1.0000136
1.0000136
1.0000136
1.0000135
1.0000132
1.0000125
1.0000113
1.0000095
1.0000123
1.0000123
1.0000123
1.0000123
1.0000123
1.0000123
1.0000123
1.0000123
1.0000122
1.0000122
1.0000123
1.0000123
1.0000123
1.0000123
1.0000123
1.0000122
1.0000122
1.0000122
1.0000123
1.0000123
1.0000123
1.0000122
1.0000122
1.0000122
1.0000122
1.0000122
1.0000122
1.0000122
1.0000122
1.0000122
1.0000122
1.0000122
1.0000122
1.0000122
1.0000122
1.0000122
1.0000122
1.0000122
1.0000122
1.0000123
1.0000123
1.0000123
1.0000123
1.0000123
1.0000123
1.0000123
1.0000123
1.0000123
1.0000123
1.0000123
1.0000123
1.0000123
1.0000123
1.0000123
1.0000122
1.000012
1.0000114
1.0000103
1.0000087
1.0000111
1.0000111
1.0000111
1.0000111
1.0000111
1.0000111
1.0000111
1.0000111
1.0000111
1.0000111
1.0000111
1.0000111
1.0000111
1.0000111
1.0000111
1.0000111
1.0000111
1.0000111
1.0000111
1.0000111
1.0000111
1.0000111
1.0000111
1.000011
1.0000111
1.0000111
1.000011
1.000011
1.000011
1.000011
1.000011
1.000011
1.000011
1.000011
1.000011
1.0000111
1.0000111
1.0000111
1.0000111
1.0000111
1.0000111
1.0000111
1.0000111
1.0000111
1.0000111
1.0000111
1.0000111
1.0000111
1.0000111
1.0000111
1.0000111
1.0000111
1.0000111
1.0000111
1.0000111
1.0000109
1.0000104
1.0000094
1.0000079
1.00001
1.00001
1.00001
1.00001
1.00001
1.00001
1.00001
1.00001
1.00001
1.00001
1.00001
1.00001
1.00001
1.00001
1.00001
1.00001
1.00001
1.00001
1.00001
1.00001
1.00001
1.00001
1.00001
1.00001
1.00001
1.00001
1.00001
1.00001
1.00001
1.00001
1.00001
1.00001
1.00001
1.00001
1.00001
1.00001
1.00001
1.00001
1.00001
1.00001
1.00001
1.00001
1.00001
1.00001
1.00001
1.00001
1.00001
1.00001
1.00001
1.00001
1.00001
1.00001
1.0000101
1.0000101
1.00001
1.0000099
1.0000095
1.0000086
1.0000072
1.0000265
1.0000292
1.0000323
1.0000357
1.0000393
1.0000433
1.0000475
1.000052
1.0000569
1.000062
1.0000675
1.0000733
1.0000793
1.0000857
1.0000924
1.0000992
1.0001062
1.0001133
1.0001204
1.0001274
1.0001341
1.0001404
1.0001461
1.000151
1.000155
1.0001577
1.0001591
1.0001589
1.000157
1.0001533
1.0001478
1.000141
1.0001317
1.0001208
1.0001088
1.0000952
1.0000806
1.0000654
1.0000495
1.000033
1.0000162
0.99999916
0.99998215
0.99996529
0.99994871
0.99993258
0.99991704
0.99990214
0.9998879
0.99987432
0.99986125
0.99984874
0.9998369
0.99982575
0.99981529
0.99980546
0.99979625
0.99978762
0.99977954
0.99977199
0.99976494
0.99975838
0.99975227
0.99974659
0.99974131
0.99973641
0.99973186
0.99972764
0.99972372
0.99972009
0.99971673
0.99971361
0.99971072
0.99970806
1.0000309
1.000034
1.0000375
1.0000412
1.0000452
1.0000495
1.0000542
1.0000592
1.0000645
1.0000703
1.0000763
1.0000827
1.0000895
1.0000965
1.0001038
1.0001112
1.0001188
1.0001265
1.000134
1.0001414
1.0001483
1.0001547
1.0001603
1.0001649
1.0001683
1.0001702
1.0001705
1.0001688
1.0001652
1.0001594
1.0001514
1.0001414
1.0001294
1.0001153
1.0000996
1.0000823
1.0000637
1.0000442
1.0000241
1.0000037
0.99998312
0.99996258
0.99994224
0.99992231
0.99990284
0.99988458
0.99986699
0.99984983
0.9998333
0.99981749
0.99980249
0.99978828
0.99977486
0.99976219
0.99975027
0.99973909
0.99972862
0.99971883
0.99970969
0.99970117
0.99969325
0.9996859
0.99967908
0.99967275
0.99966689
0.99966145
0.99965641
0.99965174
0.99964742
0.99964341
0.9996397
0.99963628
0.9996331
0.9996302
1.0000343
1.0000377
1.0000416
1.0000457
1.0000501
1.0000549
1.0000601
1.0000656
1.0000716
1.000078
1.0000847
1.0000918
1.0000993
1.0001072
1.0001153
1.0001236
1.0001321
1.0001406
1.000149
1.0001571
1.0001648
1.0001718
1.0001779
1.0001828
1.0001864
1.0001881
1.000188
1.0001857
1.000181
1.0001739
1.0001642
1.0001519
1.0001373
1.0001204
1.0001014
1.0000807
1.0000585
1.0000351
1.0000109
0.99998618
0.99996124
0.99993634
0.9999117
0.99988753
0.99986394
0.99984107
0.99981904
0.99979795
0.99977785
0.99975873
0.99974062
0.99972349
0.9997073
0.9996917
0.99967712
0.99966375
0.99965136
0.99963983
0.99962916
0.99961929
0.9996101
0.99960153
0.99959355
0.99958611
0.99957918
0.99957274
0.99956673
0.99956115
0.99955596
0.99955116
0.99954672
0.99954262
0.99953882
0.99953532
1.0000363
1.00004
1.0000441
1.0000486
1.0000534
1.0000586
1.0000642
1.0000702
1.0000767
1.0000836
1.000091
1.0000987
1.0001069
1.0001155
1.0001244
1.0001336
1.0001429
1.0001523
1.0001616
1.0001707
1.0001792
1.0001871
1.0001941
1.0001998
1.0002039
1.0002062
1.0002064
1.0002043
1.0001996
1.0001921
1.0001819
1.0001688
1.000153
1.0001347
1.000114
1.0000913
1.0000669
1.0000411
1.0000143
0.99998671
0.99995879
0.9999308
0.999903
0.99987565
0.99984893
0.99982292
0.99979776
0.99977356
0.99975041
0.99972835
0.99970739
0.99968754
0.9996688
0.99965116
0.99963456
0.99961897
0.99960436
0.99959069
0.99957793
0.99956601
0.99955491
0.99954459
0.999535
0.99952611
0.99951786
0.99951021
0.99950312
0.99949656
0.99949047
0.99948484
0.99947961
0.99947474
0.99947021
0.99946607
1.0000374
1.0000413
1.0000456
1.0000503
1.0000554
1.0000609
1.0000669
1.0000733
1.0000801
1.0000875
1.0000953
1.0001036
1.0001123
1.0001215
1.000131
1.0001409
1.000151
1.0001612
1.0001713
1.0001812
1.0001907
1.0001994
1.0002073
1.0002138
1.0002188
1.0002219
1.0002229
1.0002214
1.0002172
1.0002101
1.0002001
1.0001871
1.0001713
1.0001527
1.0001316
1.0001083
1.0000832
1.0000564
1.0000285
0.99999968
0.99997041
0.99994096
0.99991162
0.99988265
0.99985426
0.99982657
0.9997997
0.99977379
0.99974893
0.99972518
0.99970257
0.9996811
0.99966078
0.99964162
0.9996236
0.99960665
0.99959075
0.99957585
0.9995619
0.99954887
0.9995367
0.99952536
0.99951481
0.99950499
0.99949589
0.99948738
0.99947941
0.99947201
0.99946515
0.99945883
0.99945299
0.99944762
0.99944265
0.99943811
1.000038
1.0000421
1.0000465
1.0000514
1.0000567
1.0000624
1.0000685
1.0000752
1.0000823
1.00009
1.0000982
1.0001068
1.000116
1.0001257
1.0001357
1.0001461
1.0001568
1.0001676
1.0001784
1.000189
1.0001992
1.0002088
1.0002174
1.0002248
1.0002306
1.0002346
1.0002363
1.0002356
1.0002321
1.0002257
1.0002163
1.0002039
1.0001885
1.0001703
1.0001495
1.0001263
1.0001012
1.0000745
1.0000464
1.0000175
0.99998792
0.99995814
0.99992841
0.99989898
0.99987009
0.99984186
0.99981443
0.99978793
0.99976247
0.99973811
0.99971488
0.99969279
0.99967187
0.99965211
0.99963349
0.99961598
0.99959952
0.99958408
0.99956963
0.99955611
0.99954348
0.9995317
0.99952073
0.99951053
0.99950104
0.99949222
0.99948404
0.99947645
0.99946942
0.9994629
0.99945687
0.99945129
0.99944613
0.99944137
1.0000383
1.0000425
1.000047
1.000052
1.0000574
1.0000633
1.0000696
1.0000764
1.0000838
1.0000917
1.0001001
1.0001091
1.0001186
1.0001285
1.000139
1.0001498
1.0001609
1.0001722
1.0001835
1.0001947
1.0002055
1.0002157
1.000225
1.0002331
1.0002396
1.0002443
1.0002467
1.0002467
1.0002439
1.0002382
1.0002295
1.0002177
1.0002029
1.0001852
1.0001649
1.0001423
1.0001176
1.0000912
1.0000634
1.0000347
1.0000054
0.99997582
0.99994623
0.99991691
0.99988808
0.9998599
0.99983249
0.99980599
0.99978051
0.9997561
0.99973282
0.99971067
0.99968968
0.99966984
0.99965113
0.99963352
0.99961697
0.99960144
0.99958689
0.99957328
0.99956056
0.9995487
0.99953765
0.99952736
0.99951779
0.9995089
0.99950065
0.99949299
0.99948589
0.99947931
0.99947322
0.99946759
0.99946238
0.99945756
1.0000385
1.0000427
1.0000473
1.0000524
1.0000579
1.0000638
1.0000703
1.0000772
1.0000847
1.0000928
1.0001014
1.0001106
1.0001203
1.0001305
1.0001412
1.0001524
1.0001638
1.0001755
1.0001872
1.0001988
1.0002101
1.0002208
1.0002306
1.0002392
1.0002463
1.0002515
1.0002545
1.0002551
1.000253
1.0002479
1.0002397
1.0002285
1.0002142
1.0001971
1.0001773
1.0001551
1.0001308
1.0001048
1.0000775
1.0000491
1.0000201
0.99999082
0.9999615
0.99993243
0.99990382
0.99987584
0.99984861
0.99982229
0.99979696
0.99977269
0.99974953
0.9997275
0.99970661
0.99968685
0.99966822
0.99965068
0.99963419
0.99961872
0.99960423
0.99959066
0.99957799
0.99956617
0.99955515
0.99954489
0.99953535
0.99952649
0.99951826
0.99951062
0.99950354
0.99949698
0.9994909
0.99948528
0.99948008
0.99947528
1.0000386
1.0000428
1.0000475
1.0000526
1.0000581
1.0000642
1.0000707
1.0000777
1.0000853
1.0000935
1.0001023
1.0001116
1.0001215
1.0001319
1.0001428
1.0001542
1.0001659
1.0001778
1.0001899
1.0002018
1.0002134
1.0002244
1.0002346
1.0002437
1.0002512
1.0002568
1.0002603
1.0002614
1.0002597
1.000255
1.0002473
1.0002366
1.0002227
1.000206
1.0001866
1.0001648
1.0001409
1.0001152
1.0000882
1.0000601
1.0000314
1.0000023
0.99997325
0.99994439
0.99991597
0.99988816
0.99986111
0.99983493
0.99980975
0.99978561
0.99976257
0.99974065
0.99971986
0.9997002
0.99968165
0.99966419
0.99964777
0.99963236
0.99961793
0.99960442
0.9995918
0.99958003
0.99956906
0.99955885
0.99954935
0.99954053
0.99953233
0.99952473
0.99951768
0.99951115
0.9995051
0.9994995
0.99949432
0.99948954
1.0000386
1.0000429
1.0000476
1.0000527
1.0000583
1.0000644
1.0000709
1.0000781
1.0000858
1.000094
1.0001028
1.0001123
1.0001223
1.0001328
1.0001439
1.0001554
1.0001673
1.0001795
1.0001917
1.0002039
1.0002158
1.0002271
1.0002376
1.0002469
1.0002547
1.0002607
1.0002645
1.000266
1.0002646
1.0002603
1.000253
1.0002425
1.000229
1.0002126
1.0001935
1.0001719
1.0001483
1.0001229
1.000096
1.0000682
1.0000396
1.0000108
0.99998182
0.99995309
0.99992479
0.99989709
0.99987014
0.99984406
0.99981896
0.9997949
0.99977193
0.99975008
0.99972935
0.99970974
0.99969124
0.99967382
0.99965744
0.99964207
0.99962767
0.9996142
0.99960162
0.99958988
0.99957894
0.99956875
0.99955928
0.99955047
0.9995423
0.99953472
0.99952769
0.99952117
0.99951514
0.99950956
0.99950439
0.99949962
1.0000386
1.0000429
1.0000476
1.0000528
1.0000584
1.0000645
1.0000711
1.0000783
1.000086
1.0000943
1.0001032
1.0001127
1.0001228
1.0001335
1.0001447
1.0001563
1.0001684
1.0001806
1.0001931
1.0002054
1.0002174
1.000229
1.0002397
1.0002492
1.0002573
1.0002635
1.0002676
1.0002693
1.0002682
1.0002642
1.0002571
1.0002469
1.0002336
1.0002174
1.0001985
1.0001772
1.0001537
1.0001284
1.0001017
1.000074
1.0000456
1.0000168
0.99998794
0.99995928
0.99993105
0.9999034
0.9998765
0.99985047
0.99982541
0.99980139
0.99977845
0.99975663
0.99973592
0.99971634
0.99969785
0.99968045
0.99966409
0.99964873
0.99963435
0.9996209
0.99960833
0.9995966
0.99958567
0.9995755
0.99956604
0.99955725
0.99954909
0.99954151
0.99953449
0.99952799
0.99952196
0.99951639
0.99951123
0.99950647
1.0000386
1.0000429
1.0000476
1.0000528
1.0000584
1.0000645
1.0000712
1.0000784
1.0000862
1.0000945
1.0001035
1.0001131
1.0001232
1.0001339
1.0001452
1.0001569
1.0001691
1.0001815
1.000194
1.0002065
1.0002187
1.0002303
1.0002412
1.0002509
1.0002591
1.0002656
1.0002699
1.0002717
1.0002708
1.000267
1.0002601
1.0002501
1.000237
1.000221
1.0002022
1.000181
1.0001577
1.0001325
1.0001059
1.0000783
1.0000499
1.0000212
0.99999236
0.99996374
0.99993553
0.99990791
0.99988102
0.99985501
0.99982996
0.99980595
0.99978303
0.99976121
0.99974051
0.99972092
0.99970244
0.99968503
0.99966867
0.99965332
0.99963894
0.99962549
0.99961292
0.9996012
0.99959027
0.9995801
0.99957064
0.99956185
0.99955369
0.99954612
0.9995391
0.9995326
0.99952658
0.99952101
0.99951585
0.99951109
1.0000386
1.0000429
1.0000476
1.0000528
1.0000584
1.0000646
1.0000713
1.0000785
1.0000863
1.0000947
1.0001037
1.0001133
1.0001235
1.0001342
1.0001456
1.0001574
1.0001696
1.000182
1.0001946
1.0002072
1.0002195
1.0002313
1.0002422
1.0002521
1.0002605
1.000267
1.0002715
1.0002735
1.0002727
1.0002691
1.0002623
1.0002525
1.0002395
1.0002237
1.000205
1.0001839
1.0001607
1.0001356
1.0001091
1.0000815
1.0000532
1.0000245
0.99999567
0.99996707
0.99993886
0.99991125
0.99988437
0.99985835
0.9998333
0.99980929
0.99978636
0.99976453
0.99974382
0.99972423
0.99970574
0.99968832
0.99967195
0.99965659
0.9996422
0.99962875
0.99961618
0.99960445
0.99959352
0.99958335
0.99957389
0.9995651
0.99955694
0.99954936
0.99954234
0.99953584
0.99952982
0.99952425
0.99951909
0.99951433
1.0000386
1.0000429
1.0000476
1.0000528
1.0000584
1.0000646
1.0000713
1.0000785
1.0000863
1.0000948
1.0001038
1.0001134
1.0001236
1.0001344
1.0001458
1.0001577
1.0001699
1.0001824
1.0001951
1.0002077
1.0002201
1.0002319
1.000243
1.0002529
1.0002614
1.0002682
1.0002727
1.0002748
1.0002742
1.0002706
1.0002641
1.0002543
1.0002415
1.0002258
1.0002073
1.0001863
1.0001631
1.0001381
1.0001116
1.0000841
1.0000558
1.0000271
0.99999834
0.99996974
0.99994154
0.99991391
0.99988703
0.999861
0.99983594
0.99981191
0.99978897
0.99976712
0.9997464
0.99972679
0.99970829
0.99969086
0.99967447
0.9996591
0.9996447
0.99963123
0.99961865
0.99960692
0.99959598
0.9995858
0.99957634
0.99956754
0.99955938
0.9995518
0.99954478
0.99953827
0.99953225
0.99952667
0.99952151
0.99951675
1.0000386
1.0000429
1.0000476
1.0000528
1.0000584
1.0000646
1.0000713
1.0000785
1.0000864
1.0000948
1.0001038
1.0001135
1.0001237
1.0001346
1.000146
1.0001578
1.0001701
1.0001827
1.0001954
1.0002081
1.0002205
1.0002324
1.0002435
1.0002536
1.0002621
1.0002689
1.0002736
1.0002758
1.0002753
1.0002719
1.0002655
1.0002559
1.0002432
1.0002276
1.0002092
1.0001883
1.0001652
1.0001403
1.0001139
1.0000864
1.0000581
1.0000295
1.0000007
0.99997212
0.99994391
0.99991627
0.99988937
0.99986334
0.99983826
0.99981421
0.99979124
0.99976938
0.99974864
0.99972901
0.99971048
0.99969303
0.99967663
0.99966124
0.99964683
0.99963334
0.99962075
0.999609
0.99959806
0.99958787
0.99957839
0.99956959
0.99956142
0.99955383
0.9995468
0.99954029
0.99953426
0.99952868
0.99952352
0.99951875
1.0000386
1.0000429
1.0000476
1.0000528
1.0000584
1.0000646
1.0000713
1.0000785
1.0000864
1.0000948
1.0001039
1.0001135
1.0001238
1.0001346
1.000146
1.0001579
1.0001702
1.0001828
1.0001956
1.0002083
1.0002208
1.0002327
1.0002439
1.000254
1.0002626
1.0002695
1.0002743
1.0002766
1.0002763
1.000273
1.0002667
1.0002573
1.0002447
1.0002293
1.000211
1.0001902
1.0001672
1.0001424
1.0001161
1.0000886
1.0000604
1.0000318
1.0000031
0.99997447
0.99994626
0.99991861
0.9998917
0.99986564
0.99984054
0.99981647
0.99979348
0.99977159
0.99975082
0.99973117
0.99971261
0.99969514
0.99967872
0.99966331
0.99964887
0.99963537
0.99962277
0.999611
0.99960004
0.99958984
0.99958035
0.99957154
0.99956336
0.99955576
0.99954873
0.99954221
0.99953617
0.99953058
0.99952541
0.99952064
1.0000386
1.0000429
1.0000476
1.0000528
1.0000584
1.0000646
1.0000713
1.0000785
1.0000864
1.0000948
1.0001039
1.0001135
1.0001238
1.0001347
1.0001461
1.000158
1.0001703
1.0001829
1.0001957
1.0002084
1.0002209
1.0002329
1.0002441
1.0002543
1.000263
1.00027
1.0002749
1.0002773
1.0002771
1.000274
1.0002679
1.0002586
1.0002463
1.000231
1.0002129
1.0001922
1.0001694
1.0001447
1.0001185
1.0000911
1.0000629
1.0000344
1.0000056
0.99997705
0.99994883
0.99992118
0.99989424
0.99986816
0.99984304
0.99981894
0.99979592
0.999774
0.9997532
0.99973351
0.99971493
0.99969743
0.99968097
0.99966554
0.99965108
0.99963756
0.99962493
0.99961314