/*--------------------------------*- C++ -*----------------------------------*\
| =========                 |                                                 |
| \\      /  F ield         | OpenFOAM: The Open Source CFD Toolbox           |
|  \\    /   O peration     | Version:  v2006                                 |
|   \\  /    A nd           | Website:  www.openfoam.com                      |
|    \\/     M anipulation  |                                                 |
\*---------------------------------------------------------------------------*/
FoamFile
{
    version     2.0;
    format      ascii;
    class       volVectorField;
    location    "10000";
    object      U;
}
// * * * * * * * * * * * * * * * * * * * * * * * * * * * * * * * * * * * * * //

dimensions      [0 1 -1 0 0 0 0];


internalField   nonuniform List<vector> 
55713
(
(0.10323379 6.0487785e-07 0)
(0.10313992 -3.0933098e-07 0)
(0.10312276 8.1066497e-07 2.5656218e-18)
(0.10312047 6.2625662e-07 -2.5522634e-18)
(0.10312164 1.2356738e-06 2.5704142e-18)
(0.10312289 1.1970966e-06 1.7484895e-27)
(0.10312352 1.6039171e-06 -2.6460084e-18)
(0.10312367 1.7518306e-06 0)
(0.10312368 2.0658295e-06 1.071051e-20)
(0.10312386 2.3269636e-06 0)
(0.10312429 2.5958657e-06 -1.110757e-20)
(0.10312474 2.8189567e-06 -1.1312069e-20)
(0.10312494 3.0368635e-06 0)
(0.10312484 3.26133e-06 3.0031393e-18)
(0.10312461 3.4783647e-06 -3.0578176e-18)
(0.10312443 3.6863904e-06 -6.0802126e-21)
(0.10312444 3.898701e-06 3.175032e-18)
(0.10312463 4.0946898e-06 -3.2250807e-18)
(0.1031249 4.2780709e-06 6.4096624e-21)
(0.10312514 4.4585712e-06 -3.3388154e-18)
(0.10312531 4.6373262e-06 3.3896119e-18)
(0.10312542 4.8090745e-06 0)
(0.1031255 4.9769012e-06 0)
(0.10312561 5.1286163e-06 -1.7921512e-18)
(0.10312575 5.2768636e-06 1.8144226e-18)
(0.10312592 5.4206168e-06 0)
(0.10312608 5.5708691e-06 0)
(0.10312621 5.7398456e-06 0)
(0.10312629 5.9321633e-06 2.4143253e-19)
(0.10312632 6.1095301e-06 -4.5803324e-29)
(0.10312628 6.2788275e-06 -2.4386392e-19)
(0.10312617 6.450421e-06 0)
(0.10312594 6.6185263e-06 0)
(0.1031256 6.786062e-06 0)
(0.10312518 6.9454538e-06 0)
(0.1031248 7.1111375e-06 1.8035272e-18)
(0.10312459 7.2718212e-06 -1.7671741e-18)
(0.10312464 7.4360983e-06 -3.4895741e-18)
(0.10312489 7.6083821e-06 1.8127015e-27)
(0.10312514 7.7852825e-06 3.3665513e-18)
(0.10312518 7.9686426e-06 0)
(0.10312495 8.1552994e-06 6.3634375e-21)
(0.10312459 8.3473383e-06 -3.2011575e-18)
(0.10312434 8.5409535e-06 3.1446777e-18)
(0.10312437 8.7466389e-06 3.0886953e-18)
(0.10312457 8.9503328e-06 -3.0391978e-18)
(0.10312471 9.1703803e-06 0)
(0.10312464 9.377997e-06 0)
(0.1031244 9.6115777e-06 -2.8601741e-18)
(0.10312407 9.824296e-06 2.8193684e-18)
(0.10312377 1.0080876e-05 0)
(0.10312352 1.0311787e-05 0)
(0.10312334 1.0591836e-05 0)
(0.1031231 1.0831628e-05 0)
(0.10312278 1.115215e-05 2.5865624e-18)
(0.10312257 1.1406044e-05 -3.2695978e-27)
(0.10312274 1.1760413e-05 -3.7763589e-18)
(0.10312296 1.2126465e-05 1.2270221e-18)
(0.10312279 1.2231051e-05 -1.9264346e-20)
(0.10323908 9.9109329e-07 0)
(0.10315368 -2.4502685e-07 2.4224226e-18)
(0.10314048 9.3640356e-07 -2.5049628e-18)
(0.10313925 5.7885573e-07 3.9160525e-20)
(0.10314064 1.1603559e-06 -2.5374407e-18)
(0.10314177 1.1098292e-06 5.1417992e-18)
(0.10314224 1.5165083e-06 6.0337061e-27)
(0.10314226 1.5664377e-06 -2.6837176e-18)
(0.10314224 1.8182688e-06 -1.0692909e-20)
(0.10314254 1.9832099e-06 2.1809556e-20)
(0.10314316 2.1759066e-06 -2.8352798e-18)
(0.10314375 2.3774479e-06 2.9130492e-18)
(0.10314397 2.6035248e-06 2.9575246e-18)
(0.10314383 2.8543567e-06 -9.1512134e-29)
(0.1031435 3.1276197e-06 -1.1874529e-27)
(0.10314324 3.3479335e-06 -3.1212668e-18)
(0.10314317 3.529611e-06 -6.2200558e-21)
(0.10314331 3.7155544e-06 0)
(0.10314356 3.8788006e-06 3.2937127e-18)
(0.10314379 4.0342396e-06 -6.7166898e-18)
(0.10314396 4.1735639e-06 3.423487e-18)
(0.10314407 4.2914596e-06 1.3576366e-20)
(0.10314415 4.3931674e-06 0)
(0.10314425 4.459514e-06 7.019065e-21)
(0.10314436 4.5474485e-06 0)
(0.1031445 4.6639589e-06 9.1366461e-19)
(0.10314463 4.8431955e-06 -1.886112e-18)
(0.10314473 5.0789594e-06 9.4295994e-19)
(0.10314479 5.2898412e-06 2.4318669e-19)
(0.1031448 5.4432511e-06 -2.6150277e-19)
(0.10314476 5.6109885e-06 0)
(0.10314464 5.785174e-06 9.5131203e-19)
(0.10314441 5.9516065e-06 -1.9028915e-18)
(0.10314406 6.1055654e-06 9.3645449e-19)
(0.10314361 6.2202815e-06 0)
(0.10314316 6.337206e-06 1.8129983e-18)
(0.10314289 6.4493614e-06 -1.7901058e-18)
(0.1031429 6.5520052e-06 1.369826e-20)
(0.10314318 6.6643543e-06 0)
(0.1031435 6.7914199e-06 6.6179875e-21)
(0.10314363 6.9362984e-06 3.3296216e-18)
(0.10314345 7.094605e-06 -6.5486175e-18)
(0.10314308 7.2699214e-06 -1.5468767e-27)
(0.1031428 7.4512487e-06 3.1549502e-18)
(0.1031428 7.6602955e-06 -3.0973091e-18)
(0.10314302 7.8608048e-06 6.0859183e-18)
(0.10314319 8.0930779e-06 -5.9660786e-18)
(0.10314311 8.2596301e-06 2.9265072e-18)
(0.1031428 8.4747374e-06 -1.1212756e-20)
(0.10314241 8.6367827e-06 0)
(0.10314206 8.8902548e-06 0)
(0.10314179 9.0844898e-06 0)
(0.10314161 9.3519614e-06 -2.6743544e-18)
(0.10314141 9.5405672e-06 2.6225671e-18)
(0.10314107 9.8703574e-06 0)
(0.10314078 1.0058512e-05 3.9143858e-20)
(0.10314093 1.0441036e-05 0)
(0.1031412 1.0648713e-05 1.8905006e-20)
(0.103141 1.0996487e-05 1.8546743e-20)
(0.10324362 1.1349204e-06 0)
(0.10316727 -2.6261281e-07 3.7321534e-20)
(0.10315603 8.8776085e-07 -3.793484e-20)
(0.10315574 5.5490413e-07 -3.8471732e-20)
(0.10315728 1.1073783e-06 -2.5449021e-18)
(0.10315827 1.1251134e-06 2.5789497e-18)
(0.10315858 1.5396065e-06 0)
(0.10315849 1.6536631e-06 2.0894453e-20)
(0.10315845 1.8726179e-06 -5.4655608e-18)
(0.10315886 1.9605626e-06 5.5383326e-18)
(0.10315964 2.0597211e-06 0)
(0.1031603 2.1539778e-06 -2.2714202e-20)
(0.10316051 2.2700344e-06 0)
(0.10316031 2.3967938e-06 3.0006045e-18)
(0.10315992 2.5396796e-06 -6.1655446e-18)
(0.10315958 2.7052511e-06 3.1414086e-18)
(0.10315949 2.8923511e-06 -3.1876583e-18)
(0.10315962 3.1022978e-06 -5.4268037e-28)
(0.10315987 3.3316439e-06 3.3180921e-18)
(0.10316011 3.5559873e-06 -3.3773186e-18)
(0.10316028 3.7410388e-06 -1.0637247e-28)
(0.1031604 3.8993141e-06 3.4963739e-18)
(0.10316048 4.0276279e-06 0)
(0.10316057 4.103495e-06 1.7940036e-18)
(0.10316067 4.1360083e-06 2.7609729e-27)
(0.10316078 4.1409577e-06 -1.8392181e-18)
(0.10316088 4.1789874e-06 -1.4832924e-20)
(0.10316096 4.2564752e-06 4.9726871e-19)
(0.103161 4.3970531e-06 -4.8972457e-19)
(0.103161 4.5805154e-06 2.4769563e-19)
(0.10316096 4.8023132e-06 -2.4674283e-19)
(0.10316084 5.0308214e-06 3.0369877e-20)
(0.10316062 5.1981371e-06 0)
(0.10316027 5.3433348e-06 1.4710164e-20)
(0.10315979 5.4890976e-06 -1.4472806e-20)
(0.10315929 5.6011747e-06 -1.4235856e-20)
(0.10315894 5.7111847e-06 -1.3999486e-20)
(0.10315891 5.8009376e-06 -1.3763815e-20)
(0.1031592 5.8709396e-06 3.4498524e-18)
(0.10315962 5.9641373e-06 -3.4034176e-18)
(0.10315986 6.0619328e-06 0)
(0.10315975 6.1729712e-06 3.2840309e-18)
(0.10315938 6.3410899e-06 -3.2119757e-18)
(0.10315904 6.5292632e-06 3.1899596e-18)
(0.10315898 6.7295006e-06 -3.1059848e-18)
(0.10315919 6.9076222e-06 -3.0230109e-18)
(0.10315938 7.1391218e-06 -2.1206795e-27)
(0.1031593 7.1720443e-06 2.9058122e-18)
(0.10315897 7.3285023e-06 2.2419846e-20)
(0.10315854 7.4102994e-06 0)
(0.10315815 7.6310173e-06 0)
(0.10315786 7.7705186e-06 0)
(0.10315768 8.047822e-06 2.0587734e-20)
(0.10315752 8.1904162e-06 -2.0134324e-20)
(0.10315719 8.5461421e-06 0)
(0.10315681 8.6789793e-06 2.4624858e-18)
(0.10315694 9.073558e-06 -2.406057e-18)
(0.10315728 9.1971277e-06 0)
(0.10315706 9.6416303e-06 0)
(0.10324717 1.1606686e-06 6.8433465e-20)
(0.10317828 -2.4021021e-07 -7.2490803e-20)
(0.10316971 8.0940035e-07 -2.335287e-18)
(0.10317017 5.1627883e-07 2.4197346e-18)
(0.10317175 9.85996e-07 3.8673011e-20)
(0.10317258 1.0234925e-06 0)
(0.10317275 1.3546173e-06 -2.6014752e-18)
(0.10317255 1.4640268e-06 7.9748327e-18)
(0.1031725 1.7035769e-06 -1.0912349e-17)
(0.10317303 1.8774602e-06 5.6022272e-18)
(0.10317393 2.0464272e-06 -2.8517992e-18)
(0.10317458 2.1726967e-06 2.2757779e-20)
(0.10317471 2.2593593e-06 5.9477429e-18)
(0.10317444 2.3053351e-06 -3.0107763e-18)
(0.10317398 2.3465098e-06 0)
(0.10317363 2.3950249e-06 0)
(0.10317356 2.4675054e-06 -1.2559614e-20)
(0.10317374 2.5747211e-06 0)
(0.10317401 2.6918116e-06 0)
(0.10317426 2.8282627e-06 2.6528414e-20)
(0.10317444 2.9907988e-06 -1.3499684e-20)
(0.10317457 3.182891e-06 -2.7471464e-20)
(0.10317466 3.3932939e-06 -1.7884709e-18)
(0.10317475 3.5856037e-06 1.8330674e-18)
(0.10317484 3.7366246e-06 1.4447881e-20)
(0.10317493 3.8228629e-06 -1.4686521e-20)
(0.10317501 3.8325582e-06 9.7015568e-19)
(0.10317506 3.810885e-06 -9.7052382e-19)
(0.10317509 3.8215775e-06 1.5402906e-20)
(0.10317508 3.8867396e-06 -2.3361529e-19)
(0.10317504 3.9758865e-06 -2.4808842e-19)
(0.10317493 4.0908431e-06 4.732345e-19)
(0.10317472 4.2449016e-06 0)
(0.10317437 4.4282517e-06 -1.9072232e-18)
(0.10317388 4.6246638e-06 1.4544463e-20)
(0.10317332 4.81149e-06 3.6906172e-18)
(0.10317289 4.9853723e-06 -1.7863284e-18)
(0.1031728 5.1272165e-06 0)
(0.10317311 5.2552869e-06 1.358911e-20)
(0.10317363 5.3396254e-06 0)
(0.10317401 5.4322725e-06 0)
(0.10317401 5.5292978e-06 2.5755505e-20)
(0.10317365 5.67492e-06 -1.264098e-20)
(0.10317323 5.8078417e-06 -3.2002243e-18)
(0.10317308 5.9530445e-06 3.1146267e-18)
(0.10317324 5.997231e-06 -3.2311062e-26)
(0.10317342 6.1161387e-06 2.337859e-20)
(0.10317336 6.1483777e-06 3.100696e-26)
(0.10317304 6.3230365e-06 -2.2415309e-20)
(0.10317261 6.4198815e-06 -5.5919459e-18)
(0.10317221 6.6299361e-06 5.4884965e-18)
(0.1031719 6.7410397e-06 4.1891073e-20)
(0.1031717 6.9705737e-06 -2.6581022e-18)
(0.10317159 7.0943798e-06 5.1053888e-18)
(0.1031713 7.3839492e-06 -5.0136198e-18)
(0.10317082 7.5044584e-06 2.4210934e-18)
(0.10317091 7.8883155e-06 -7.3549591e-20)
(0.10317133 7.9308586e-06 0)
(0.10317109 8.5063809e-06 0)
(0.10324986 1.069344e-06 -6.6138495e-20)
(0.10318839 -1.7460721e-07 7.0440074e-20)
(0.1031817 6.9911263e-07 -2.3190953e-18)
(0.10318277 4.7397058e-07 2.3045541e-18)
(0.10318434 8.201474e-07 -2.4453281e-18)
(0.103185 8.4279509e-07 2.5554303e-18)
(0.10318505 1.0620745e-06 2.5463644e-18)
(0.10318474 1.1243065e-06 -2.6558688e-18)
(0.10318469 1.3064232e-06 5.404021e-18)
(0.10318536 1.457282e-06 -1.1113775e-17)
(0.10318633 1.6458411e-06 5.7086229e-18)
(0.10318685 1.8318067e-06 -2.2800078e-20)
(0.10318685 2.011681e-06 -2.9817692e-18)
(0.10318649 2.1641139e-06 6.0889839e-18)
(0.10318599 2.2772727e-06 -3.1066883e-18)
(0.10318569 2.3497118e-06 -3.1684553e-18)
(0.10318573 2.3911102e-06 2.523355e-20)
(0.103186 2.3949603e-06 3.2653955e-18)
(0.10318632 2.4230812e-06 -2.6188885e-20)
(0.10318658 2.4691474e-06 -5.3331144e-20)
(0.10318677 2.5366175e-06 1.357119e-20)
(0.10318689 2.6261249e-06 1.3809886e-20)
(0.10318699 2.73974e-06 0)
(0.10318708 2.8988482e-06 -1.828976e-18)
(0.10318716 3.0863455e-06 -1.4529361e-20)
(0.10318724 3.2766733e-06 1.9053881e-18)
(0.1031873 3.4456969e-06 0)
(0.10318734 3.5537302e-06 0)
(0.10318736 3.5830633e-06 -3.0990591e-20)
(0.10318736 3.5669009e-06 2.3492695e-19)
(0.10318731 3.5510534e-06 -2.4935485e-19)
(0.10318721 3.5646914e-06 0)
(0.10318701 3.6193352e-06 0)
(0.10318668 3.6971623e-06 -1.9014458e-18)
(0.10318618 3.7991806e-06 3.7407483e-18)
(0.10318558 3.9257038e-06 -1.8537485e-18)
(0.10318507 4.0762714e-06 -1.7802057e-18)
(0.1031849 4.2257338e-06 1.7776194e-18)
(0.1031852 4.3786499e-06 0)
(0.10318582 4.4923633e-06 0)
(0.10318636 4.6314739e-06 -3.3969817e-18)
(0.10318647 4.7261733e-06 3.2832406e-18)
(0.10318615 4.8339635e-06 2.5370296e-20)
(0.10318567 4.8778423e-06 -3.1854725e-18)
(0.10318538 4.9559933e-06 6.2220155e-18)
(0.10318545 5.0032773e-06 -3.0844102e-18)
(0.10318561 5.1554523e-06 -3.020668e-18)
(0.10318556 5.2638591e-06 5.8667125e-18)
(0.10318529 5.4593911e-06 -2.8686933e-18)
(0.1031849 5.5768492e-06 -6.5698582e-20)
(0.10318451 5.7704995e-06 0)
(0.10318419 5.8733193e-06 -4.1699088e-20)
(0.10318395 6.0695958e-06 2.599543e-18)
(0.10318388 6.1708204e-06 -5.0574398e-18)
(0.10318366 6.4021801e-06 2.532736e-18)
(0.10318306 6.50055e-06 3.7202615e-20)
(0.1031831 6.8393779e-06 1.4394692e-19)
(0.1031836 6.8586638e-06 6.9432613e-20)
(0.10318336 7.4707248e-06 6.6601669e-20)
(0.10325172 8.822266e-07 -1.0235409e-18)
(0.1031968 -1.0442505e-07 -1.0957576e-18)
(0.10319216 5.55639e-07 2.3389454e-18)
(0.10319369 4.4323409e-07 -2.2666224e-18)
(0.10319518 6.9067357e-07 -6.1218806e-27)
(0.10319567 7.3069296e-07 2.4561817e-18)
(0.10319562 9.062576e-07 4.0189425e-20)
(0.1031952 9.598406e-07 5.2929067e-18)
(0.10319519 1.0988223e-06 4.2474874e-20)
(0.10319604 1.1811525e-06 -5.6202791e-18)
(0.10319701 1.2947234e-06 5.6687498e-18)
(0.10319731 1.4121859e-06 -5.8244965e-18)
(0.10319714 1.5437522e-06 -2.9894623e-18)
(0.10319667 1.6931452e-06 3.0542425e-18)
(0.10319616 1.8475364e-06 2.4360663e-20)
(0.10319597 2.0009573e-06 0)
(0.10319618 2.1371247e-06 -2.534401e-20)
(0.10319657 2.2417932e-06 3.3320834e-18)
(0.10319694 2.3150996e-06 -6.7100318e-18)
(0.1031972 2.3503056e-06 2.2258436e-26)
(0.10319739 2.3494991e-06 2.7277773e-20)
(0.10319752 2.3533933e-06 3.5532166e-18)
(0.10319762 2.3768063e-06 -1.8074787e-18)
(0.1031977 2.425785e-06 1.8384199e-18)
(0.10319778 2.5116532e-06 1.8694476e-18)
(0.10319784 2.6400846e-06 -1.9154163e-18)
(0.10319789 2.8025781e-06 9.658848e-19)
(0.10319793 2.9802027e-06 -9.8151257e-19)
(0.10319795 3.1274784e-06 -2.3370505e-19)
(0.10319794 3.2266292e-06 1.5742331e-20)
(0.1031979 3.2889218e-06 2.5052178e-19)
(0.10319781 3.3019354e-06 0)
(0.10319764 3.292618e-06 -1.516569e-20)
(0.10319733 3.2819272e-06 0)
(0.10319685 3.3038114e-06 -1.4675306e-20)
(0.10319623 3.3488847e-06 -1.8471905e-18)
(0.10319563 3.4240989e-06 -2.8375438e-20)
(0.10319535 3.5079696e-06 5.3547922e-18)
(0.10319561 3.6381332e-06 -7.0154811e-18)
(0.1031963 3.7502092e-06 -2.6918903e-20)
(0.10319699 3.887797e-06 6.8197034e-18)
(0.10319725 3.9688312e-06 -3.3210406e-18)
(0.10319698 4.0545287e-06 3.2074582e-18)
(0.10319644 4.0955105e-06 -3.2202403e-18)
(0.10319601 4.1936134e-06 2.4465771e-20)
(0.10319595 4.2779194e-06 0)
(0.10319608 4.4336131e-06 0)
(0.10319604 4.5332131e-06 4.5870878e-20)
(0.10319582 4.6874848e-06 5.736548e-18)
(0.1031955 4.7747804e-06 -5.5551078e-18)
(0.10319515 4.9256403e-06 -4.2639966e-20)
(0.10319483 5.0188011e-06 2.6566358e-18)
(0.10319454 5.1838395e-06 -5.1239808e-18)
(0.10319446 5.2864811e-06 -3.5936477e-27)
(0.10319437 5.4878828e-06 2.3874256e-18)
(0.10319363 5.5961352e-06 -7.479533e-26)
(0.10319359 5.8854026e-06 -2.2546018e-18)
(0.10319419 5.9189329e-06 2.0946237e-18)
(0.10319395 6.4608879e-06 -6.4371996e-20)
(0.10325304 6.5400031e-07 0)
(0.10320448 -4.102747e-08 6.6619923e-20)
(0.10320148 4.0696133e-07 -6.3531981e-26)
(0.10320331 3.8134247e-07 0)
(0.10320469 5.6021942e-07 -2.4630718e-18)
(0.103205 6.6028451e-07 2.5131512e-18)
(0.10320488 8.10455e-07 0)
(0.10320433 9.1052465e-07 4.1202675e-20)
(0.10320443 1.0281939e-06 0)
(0.10320552 1.0953246e-06 5.6180662e-18)
(0.10320642 1.1661456e-06 -5.6731993e-18)
(0.10320641 1.2198083e-06 2.9287492e-18)
(0.10320611 1.2791117e-06 5.7688121e-27)
(0.10320554 1.3575433e-06 -3.0637023e-18)
(0.10320505 1.440191e-06 -3.1537244e-18)
(0.10320502 1.5401115e-06 3.193847e-18)
(0.10320541 1.6558979e-06 0)
(0.1032059 1.7825256e-06 2.5943088e-20)
(0.10320629 1.9081571e-06 -2.6432481e-20)
(0.10320655 2.0249439e-06 2.4758757e-26)
(0.10320673 2.1049452e-06 -2.7404781e-20)
(0.10320685 2.1559088e-06 0)
(0.10320696 2.1763663e-06 0)
(0.10320704 2.1690408e-06 0)
(0.10320711 2.1694917e-06 0)
(0.10320717 2.2024282e-06 0)
(0.10320721 2.2604838e-06 -9.5535754e-19)
(0.10320725 2.3513019e-06 5.0854899e-19)
(0.10320726 2.4786417e-06 5.0102739e-19)
(0.10320726 2.6153273e-06 2.3722259e-19)
(0.10320722 2.7459673e-06 -7.5471086e-19)
(0.10320715 2.8565139e-06 5.1066146e-19)
(0.103207 2.9236906e-06 1.5226447e-20)
(0.10320673 2.9501125e-06 0)
(0.10320629 2.9673853e-06 1.4732531e-20)
(0.10320567 2.9679602e-06 0)
(0.10320499 3.0025523e-06 0)
(0.10320459 3.0379622e-06 3.6113951e-18)
(0.10320476 3.120426e-06 -7.0142434e-18)
(0.1032055 3.1849637e-06 6.9435848e-18)
(0.10320632 3.2806567e-06 -6.8440781e-18)
(0.10320671 3.3388946e-06 6.6648685e-18)
(0.1032065 3.42742e-06 -3.243363e-18)
(0.10320594 3.4967132e-06 2.5037085e-20)
(0.10320536 3.6001468e-06 3.1643115e-18)
(0.10320513 3.6829814e-06 -3.0738151e-18)
(0.10320527 3.787388e-06 2.3489411e-20)
(0.10320524 3.8563629e-06 -2.2953696e-20)
(0.10320509 3.9623783e-06 5.7357122e-18)
(0.10320486 4.033376e-06 -1.1139321e-17)
(0.10320453 4.1559341e-06 5.4854527e-18)
(0.10320423 4.2385009e-06 4.1323135e-20)
(0.10320388 4.3796958e-06 0)
(0.10320374 4.4875928e-06 -2.5208716e-18)
(0.10320383 4.6553569e-06 2.395337e-18)
(0.10320295 4.773513e-06 -7.2005788e-20)
(0.10320279 5.0070688e-06 2.1388406e-18)
(0.10320351 5.0733622e-06 -2.0395591e-18)
(0.10320327 5.521337e-06 1.2454467e-19)
(0.10325388 3.6392553e-07 0)
(0.10321096 2.8846072e-08 -2.2044951e-18)
(0.10320965 2.8003385e-07 -6.7875938e-20)
(0.10321158 3.7616874e-07 4.6016383e-18)
(0.10321285 4.9206581e-07 7.3777558e-20)
(0.10321301 6.0216723e-07 -4.9846809e-18)
(0.10321282 7.1463778e-07 2.5428269e-18)
(0.10321212 8.2311361e-07 5.1727168e-18)
(0.10321246 9.2754944e-07 -5.3742831e-18)
(0.10321383 1.0337084e-06 -2.8453062e-26)
(0.10321456 1.1218522e-06 4.4703194e-20)
(0.10321418 1.1920132e-06 -2.291887e-20)
(0.10321387 1.2282202e-06 0)
(0.10321326 1.2604763e-06 2.4006396e-20)
(0.1032128 1.2759722e-06 3.1644876e-18)
(0.10321296 1.3143368e-06 -3.205778e-18)
(0.10321349 1.354753e-06 3.2449671e-18)
(0.10321403 1.4186783e-06 -3.3343983e-18)
(0.10321441 1.4961579e-06 1.7457802e-26)
(0.10321466 1.5906734e-06 -3.4333421e-18)
(0.10321482 1.6914505e-06 7.0181431e-18)
(0.10321495 1.7940883e-06 -3.5851468e-18)
(0.10321505 1.8820553e-06 0)
(0.10321514 1.9465748e-06 1.4491667e-20)
(0.10321521 1.9738339e-06 -1.9009745e-18)
(0.10321526 1.9670798e-06 1.9026884e-18)
(0.10321531 1.9499335e-06 -1.5228453e-20)
(0.10321534 1.9614678e-06 4.7975969e-19)
(0.10321535 2.0020027e-06 -5.0318578e-19)
(0.10321534 2.075081e-06 1.5878164e-20)
(0.10321532 2.1749173e-06 5.0495887e-19)
(0.10321526 2.2774587e-06 -5.1246326e-19)
(0.10321514 2.3822973e-06 -1.527926e-20)
(0.10321491 2.4609671e-06 0)
(0.10321452 2.5212355e-06 0)
(0.10321393 2.5443162e-06 -1.8751822e-18)
(0.10321322 2.574367e-06 1.8291976e-18)
(0.10321267 2.6075846e-06 -2.8090815e-20)
(0.10321269 2.6613704e-06 -2.7600412e-20)
(0.10321345 2.7143944e-06 0)
(0.10321439 2.7775819e-06 2.661524e-20)
(0.10321489 2.8327824e-06 -3.3169954e-18)
(0.10321473 2.9111857e-06 3.2532324e-18)
(0.10321418 2.9691007e-06 -3.2137469e-18)
(0.10321347 3.0559057e-06 3.1229937e-18)
(0.10321301 3.1113518e-06 2.4063422e-20)
(0.10321325 3.1897991e-06 -2.3524191e-20)
(0.10321326 3.2534321e-06 0)
(0.10321315 3.3435633e-06 0)
(0.10321301 3.4149863e-06 -4.3625646e-20)
(0.10321273 3.516642e-06 0)
(0.10321247 3.6005391e-06 -4.1137641e-20)
(0.10321207 3.7179611e-06 0)
(0.10321178 3.8233191e-06 2.5361852e-18)
(0.10321212 3.9421881e-06 -2.292031e-18)
(0.10321111 4.0611233e-06 7.0855467e-20)
(0.10321078 4.2157533e-06 -2.1627365e-18)
(0.10321165 4.3065778e-06 3.0766857e-18)
(0.10321143 4.6152982e-06 -1.0852675e-18)
(0.10325275 1.2711641e-07 1.162936e-19)
(0.10321494 8.2384026e-08 -2.0203657e-18)
(0.10321558 1.4742167e-07 -2.4108377e-27)
(0.10321736 3.1023487e-07 2.1604728e-18)
(0.10321855 3.3922559e-07 0)
(0.10321862 4.9581132e-07 3.8026218e-20)
(0.10321826 5.3213788e-07 -3.950305e-20)
(0.10321744 6.4427525e-07 5.276541e-18)
(0.10321824 6.8083922e-07 -1.0812516e-17)
(0.1032198 7.9483455e-07 -4.3510651e-20)
(0.10322014 8.5264764e-07 5.6811596e-18)
(0.10321944 9.4457231e-07 2.9612659e-18)
(0.10321931 1.0002732e-06 -3.0110878e-18)
(0.10321874 1.0726595e-06 -2.4075208e-20)
(0.10321829 1.1113569e-06 -2.4611198e-20)
(0.10321862 1.1483588e-06 0)
(0.10321926 1.1661513e-06 2.5646804e-20)
(0.10321981 1.1956018e-06 -2.61507e-20)
(0.10322016 1.2171361e-06 2.6647926e-20)
(0.10322038 1.2592454e-06 0)
(0.10322054 1.3076876e-06 3.5641873e-18)
(0.10322066 1.3789265e-06 -5.3984079e-18)
(0.10322076 1.4519987e-06 1.8163308e-18)
(0.10322084 1.5371992e-06 1.8472973e-18)
(0.10322091 1.6129664e-06 -1.8635792e-18)
(0.10322097 1.6657435e-06 -9.4727781e-19)
(0.10322101 1.6774071e-06 9.7813624e-19)
(0.10322104 1.6787972e-06 0)
(0.10322106 1.6861041e-06 -2.5251019e-19)
(0.10322105 1.6962465e-06 2.5489526e-19)
(0.10322103 1.7233428e-06 4.9061499e-19)
(0.10322099 1.779308e-06 -1.5106529e-18)
(0.10322089 1.8556115e-06 9.9596626e-19)
(0.10322071 1.9394176e-06 1.5072924e-20)
(0.10322038 1.9947714e-06 -1.912401e-18)
(0.10321984 2.0419292e-06 1.8805659e-18)
(0.10321911 2.0792253e-06 0)
(0.10321841 2.1166214e-06 -3.6062423e-18)
(0.10321823 2.16485e-06 3.5434051e-18)
(0.10321899 2.2037792e-06 0)
(0.10322001 2.256481e-06 0)
(0.10322062 2.3031917e-06 -2.6194432e-20)
(0.10322051 2.3548203e-06 2.5687827e-20)
(0.10321999 2.407658e-06 0)
(0.1032192 2.4514999e-06 0)
(0.10321833 2.5152774e-06 -2.4109652e-20)
(0.1032188 2.5564381e-06 0)
(0.10321891 2.6273056e-06 0)
(0.10321884 2.6900936e-06 5.7333602e-18)
(0.10321878 2.7584939e-06 -5.5764237e-18)
(0.10321853 2.8358508e-06 0)
(0.10321833 2.9188802e-06 4.0952212e-20)
(0.10321795 3.0119946e-06 -3.9550815e-20)
(0.10321739 3.1055948e-06 -2.4749287e-18)
(0.10321795 3.2000401e-06 2.2641019e-18)
(0.10321695 3.2878803e-06 -6.9734452e-20)
(0.1032163 3.4292158e-06 2.0529486e-18)
(0.10321742 3.5107105e-06 -2.1242519e-18)
(0.10321724 3.7369177e-06 0)
(0.10325067 -1.1043372e-07 -1.1280863e-19)
(0.1032184 2.1029937e-07 2.0297857e-18)
(0.10322121 -2.0955491e-08 -2.0835716e-18)
(0.1032223 4.800491e-07 -6.862681e-20)
(0.10322351 2.7253819e-07 3.6054501e-20)
(0.10322382 4.4063056e-07 0)
(0.10322283 4.4557693e-07 3.927524e-20)
(0.10322205 5.179563e-07 0)
(0.10322376 5.6032029e-07 5.353611e-18)
(0.10322503 6.3896027e-07 7.5471923e-27)
(0.10322465 6.5680575e-07 -5.7518659e-18)
(0.10322405 7.3089656e-07 2.2990505e-20)
(0.10322424 7.6989184e-07 0)
(0.1032238 8.4569681e-07 0)
(0.10322322 8.8267764e-07 3.1599767e-18)
(0.10322375 9.4587615e-07 -3.2531479e-18)
(0.10322448 9.736574e-07 0)
(0.10322503 1.0135335e-06 -1.312163e-20)
(0.10322534 1.0410882e-06 0)
(0.10322554 1.0874486e-06 0)
(0.10322568 1.1056457e-06 0)
(0.10322579 1.1384028e-06 -1.8053975e-18)
(0.10322588 1.1647478e-06 1.8507978e-18)
(0.10322596 1.2045845e-06 0)
(0.10322602 1.2525996e-06 -1.4834049e-20)
(0.10322608 1.3218092e-06 0)
(0.10322612 1.3857252e-06 -1.5326256e-20)
(0.10322614 1.435348e-06 -5.1397845e-19)
(0.10322616 1.4643759e-06 5.0642303e-19)
(0.10322615 1.470377e-06 -1.5971721e-20)
(0.10322612 1.481798e-06 5.3933103e-19)
(0.10322608 1.5013694e-06 -1.4984551e-18)
(0.103226 1.5335834e-06 9.6749688e-19)
(0.10322585 1.5778866e-06 -3.0214656e-20)
(0.10322557 1.6271965e-06 1.603158e-26)
(0.10322509 1.6736967e-06 0)
(0.10322435 1.7127655e-06 0)
(0.1032235 1.7612925e-06 0)
(0.10322306 1.7966703e-06 1.3878516e-20)
(0.1032238 1.8467071e-06 -3.4899216e-18)
(0.10322485 1.8883122e-06 6.8662418e-18)
(0.10322564 1.935367e-06 4.8119077e-27)
(0.10322559 1.9856092e-06 -6.5938619e-18)
(0.10322509 2.0322605e-06 3.2556054e-18)
(0.10322422 2.0815221e-06 0)
(0.10322277 2.1309808e-06 0)
(0.10322353 2.1669939e-06 0)
(0.10322388 2.235751e-06 5.8889041e-18)
(0.10322382 2.287024e-06 -5.7550047e-18)
(0.10322378 2.3429575e-06 2.1755651e-20)
(0.10322356 2.4154166e-06 -4.2176155e-20)
(0.10322346 2.4627912e-06 -4.4042582e-26)
(0.10322314 2.554164e-06 4.2456155e-26)
(0.10322227 2.6175849e-06 -3.7734665e-20)
(0.10322267 2.6857995e-06 3.6080926e-20)
(0.10322216 2.7668731e-06 0)
(0.10322073 2.7859007e-06 7.0225046e-26)
(0.10322245 3.0196486e-06 6.0935801e-20)
(0.1032223 2.9979966e-06 0)
(0.10325492 -7.1221885e-07 9.3073027e-19)
(0.10322767 8.0542547e-07 -9.5921351e-19)
(0.10323241 -3.6365406e-07 0)
(0.10323105 2.0992448e-07 6.7595094e-20)
(0.10323261 -2.5659324e-08 -3.5648362e-20)
(0.1032345 1.6703838e-07 2.4308912e-18)
(0.10323113 1.6519971e-07 -2.5381223e-18)
(0.1032312 1.545062e-07 5.1971662e-18)
(0.103235 2.3121138e-07 1.4171145e-26)
(0.10323428 2.855768e-07 -5.5633388e-18)
(0.10323289 3.0831039e-07 -5.6879705e-18)
(0.10323418 3.5176444e-07 5.8709959e-18)
(0.10323464 4.1000947e-07 0)
(0.10323415 4.6354925e-07 0)
(0.1032333 5.1780016e-07 3.1691614e-18)
(0.10323404 5.5135081e-07 -3.2000195e-18)
(0.10323502 6.0206995e-07 -1.2909233e-20)
(0.10323561 6.743283e-07 1.3198749e-26)
(0.10323591 7.2952973e-07 0)
(0.1032361 7.826331e-07 1.3658905e-20)
(0.10323624 8.470175e-07 -3.5588871e-18)
(0.10323635 9.1028035e-07 3.606546e-18)
(0.10323645 9.6269368e-07 1.8411684e-18)
(0.10323653 1.043287e-06 -1.8720289e-18)
(0.1032366 1.0937708e-06 0)
(0.10323665 1.1339783e-06 0)
(0.10323669 1.1994825e-06 -9.5213883e-19)
(0.10323672 1.2962058e-06 1.0143493e-18)
(0.10323675 1.4056784e-06 0)
(0.10323674 1.4743126e-06 1.5998728e-20)
(0.10323673 1.5164108e-06 -1.5885565e-20)
(0.1032367 1.5261539e-06 1.56312e-20)
(0.10323662 1.5474057e-06 9.842857e-19)
(0.10323649 1.5875298e-06 9.8347362e-19)
(0.10323624 1.6408252e-06 1.4883627e-20)
(0.10323579 1.7100834e-06 -1.8884018e-18)
(0.103235 1.7570406e-06 -1.828192e-18)
(0.10323392 1.7721308e-06 -1.8114781e-18)
(0.10323343 1.8329112e-06 3.5467211e-18)
(0.10323405 1.8260955e-06 1.3663875e-20)
(0.10323507 1.8972377e-06 -2.683309e-20)
(0.10323609 1.910929e-06 1.3165599e-20)
(0.10323634 1.9533224e-06 -1.2909846e-20)
(0.10323584 2.007108e-06 -2.5296038e-20)
(0.1032342 2.0086715e-06 -1.237863e-20)
(0.10323277 2.1161371e-06 -2.4200203e-20)
(0.10323356 2.077981e-06 0)
(0.10323437 2.162414e-06 0)
(0.10323449 2.2021298e-06 -5.7092288e-18)
(0.10323419 2.2398756e-06 -4.3456211e-20)
(0.10323412 2.3239564e-06 5.4263384e-18)
(0.10323424 2.3474726e-06 -4.0596563e-20)
(0.1032339 2.4698014e-06 3.9044309e-20)
(0.103233 2.4931859e-06 2.4309845e-18)
(0.10323153 2.5631832e-06 -2.3175584e-18)
(0.10323328 2.6984198e-06 -2.1631634e-18)
(0.10322955 2.4179826e-06 4.137808e-18)
(0.10323328 3.2471605e-06 -8.9195681e-19)
(0.1032332 2.3021139e-06 -8.247692e-19)
(0.1032517 -1.7677963e-06 -1.0634696e-19)
(0.10322444 8.6426677e-07 5.8456071e-20)
(0.10323823 1.2396974e-07 3.1277735e-20)
(0.10322893 7.6288268e-07 0)
(0.10323345 5.7506584e-07 0)
(0.10324018 8.8400639e-07 2.3358622e-18)
(0.10322802 8.0172536e-07 -2.4644359e-18)
(0.10323155 7.8227877e-07 5.1961977e-18)
(0.10324137 8.732629e-07 -5.3512562e-18)
(0.1032363 8.4042603e-07 5.5580035e-18)
(0.10323452 8.473797e-07 -5.778377e-18)
(0.10323988 8.4106995e-07 -5.8999473e-18)
(0.1032402 8.1515048e-07 3.0290989e-18)
(0.10323843 8.4266323e-07 6.2214487e-18)
(0.10323821 7.470772e-07 -3.1770331e-18)
(0.10323823 7.5261409e-07 5.6635232e-26)
(0.10324022 6.8005961e-07 1.2944845e-20)
(0.10324106 6.8054344e-07 -3.3528233e-18)
(0.10324149 5.9591003e-07 6.8860735e-18)
(0.10324173 6.1111382e-07 -3.5330776e-18)
(0.10324192 5.3089388e-07 0)
(0.10324206 5.1713472e-07 1.4175267e-20)
(0.10324219 4.6452712e-07 0)
(0.10324229 4.0337211e-07 7.3266889e-21)
(0.10324239 3.3927765e-07 -7.4468945e-21)
(0.10324247 3.2035698e-07 0)
(0.10324254 2.9499971e-07 -2.307183e-20)
(0.10324259 2.6250275e-07 0)
(0.10324263 2.3286122e-07 0)
(0.10324267 2.0368972e-07 0)
(0.10324268 1.7390166e-07 0)
(0.10324263 1.4417976e-07 0)
(0.10324255 1.0936109e-07 2.3064892e-20)
(0.10324239 7.7284989e-08 7.5642833e-21)
(0.10324208 3.8844396e-08 0)
(0.10324149 1.6187319e-08 2.1960739e-20)
(0.10324036 -2.9240613e-08 -1.4399157e-20)
(0.10323866 -5.868186e-08 7.0792762e-21)
(0.1032393 -9.0782123e-08 -6.9586642e-21)
(0.10323913 -1.3677022e-07 -1.3674367e-20)
(0.10324024 -1.4836233e-07 3.4511308e-18)
(0.10324104 -1.8588231e-07 -6.7605141e-18)
(0.10324256 -1.9791123e-07 1.2922501e-20)
(0.10324192 -2.0261763e-07 3.2535027e-18)
(0.10323714 -2.1138865e-07 1.238802e-20)
(0.10323857 -1.8846476e-07 2.4211648e-20)
(0.10323817 -2.5641714e-07 0)
(0.10323975 -2.377547e-07 -5.8778542e-18)
(0.10324074 -2.3180391e-07 2.235703e-20)
(0.1032391 -2.3500795e-07 5.5917521e-18)
(0.10323962 -1.9507705e-07 2.0951281e-20)
(0.1032405 -1.7861841e-07 0)
(0.10323937 -1.0662665e-07 -2.4799961e-18)
(0.10323957 -6.1410701e-08 2.3882528e-18)
(0.10323037 2.1493507e-08 0)
(0.10324004 1.1072705e-07 3.3254206e-20)
(0.10322841 2.5658939e-07 -2.0275811e-18)
(0.10323961 5.2703571e-07 1.79827e-18)
(0.10323965 1.2129652e-07 -1.0679449e-19)
(0.10320729 -1.8894122e-06 5.1689589e-20)
(0.10318986 -1.1383254e-06 1.76823e-18)
(0.10320291 -8.9310306e-07 -1.9947078e-18)
(0.10319295 -1.0282746e-06 2.1002108e-18)
(0.10320411 -5.0320776e-07 -4.4615133e-18)
(0.1032018 -8.8786567e-07 4.7082954e-18)
(0.10319077 -7.4427884e-07 -2.460475e-18)
(0.10320445 -5.0434129e-07 5.1377779e-18)
(0.10320385 -5.6291278e-07 -1.04748e-20)
(0.10319607 -5.9486584e-07 -5.5454857e-18)
(0.1032006 -5.6217985e-07 -5.7156656e-18)
(0.10319831 -5.7209964e-07 5.9154221e-18)
(0.10320119 -5.7865811e-07 0)
(0.1031957 -5.9404935e-07 -1.2159571e-20)
(0.10319527 -4.824135e-07 6.2224997e-21)
(0.10319853 -3.831469e-07 -1.2717736e-20)
(0.10319851 -2.47696e-07 -3.3163751e-18)
(0.10319861 -1.8402925e-07 3.3744891e-18)
(0.10319873 -6.351276e-08 -6.7397368e-21)
(0.10319888 2.1953658e-10 3.5261285e-18)
(0.10319899 1.0336733e-07 -7.1461219e-18)
(0.1031991 1.7252563e-07 5.4496577e-18)
(0.10319919 2.5261953e-07 -1.8464447e-18)
(0.10319927 3.3641261e-07 -3.6647685e-21)
(0.10319934 3.8554681e-07 -1.8990201e-18)
(0.1031994 4.7534669e-07 1.9406457e-18)
(0.10319945 5.3240702e-07 7.6861094e-21)
(0.10319948 6.0474904e-07 0)
(0.1031995 6.5956248e-07 0)
(0.10319952 7.3046201e-07 0)
(0.10319952 7.9019869e-07 0)
(0.10319952 8.6826322e-07 -1.0007599e-18)
(0.10319952 9.3515577e-07 9.7713033e-19)
(0.10319951 1.0234115e-06 -1.9420779e-18)
(0.1031995 1.08229e-06 1.9036513e-18)
(0.10319943 1.1583165e-06 -3.6656231e-21)
(0.10319928 1.2337068e-06 0)
(0.10319881 1.3161285e-06 3.6323921e-18)
(0.10319654 1.3934479e-06 -3.5647192e-18)
(0.10319815 1.4414277e-06 0)
(0.10319832 1.4445797e-06 -3.4548556e-18)
(0.10319867 1.4210504e-06 3.3910505e-18)
(0.10320154 1.3727763e-06 -3.3124604e-18)
(0.10320331 1.3133659e-06 3.2322148e-18)
(0.10320255 1.2827247e-06 -3.1810397e-18)