/*--------------------------------*- C++ -*----------------------------------*\
| =========                 |                                                 |
| \\      /  F ield         | OpenFOAM: The Open Source CFD Toolbox           |
|  \\    /   O peration     | Version:  v2006                                 |
|   \\  /    A nd           | Website:  www.openfoam.com                      |
|    \\/     M anipulation  |                                                 |
\*---------------------------------------------------------------------------*/
FoamFile
{
    version     2.0;
    format      ascii;
    class       volVectorField;
    location    "10000";
    object      UMean;
}
// * * * * * * * * * * * * * * * * * * * * * * * * * * * * * * * * * * * * * //

dimensions      [0 1 -1 0 0 0 0];


internalField   nonuniform List<vector> 
55713
(
(0.10322162 6.4698185e-07 0)
(0.10312158 -3.2514536e-07 0)
(0.10310303 8.7181e-07 2.5659906e-18)
(0.10310053 6.8288418e-07 -2.5526117e-18)
(0.10310174 1.4167122e-06 2.5707342e-18)
(0.10310301 1.4241568e-06 1.5213489e-27)
(0.10310362 1.8900102e-06 -2.6462567e-18)
(0.10310365 2.0339645e-06 0)
(0.10310341 2.3463547e-06 1.0711214e-20)
(0.10310325 2.5715135e-06 0)
(0.1031033 2.8211762e-06 -1.1108053e-20)
(0.10310345 3.0583798e-06 -1.1312437e-20)
(0.10310353 3.2931501e-06 0)
(0.10310357 3.5206217e-06 3.00316e-18)
(0.1031037 3.7413212e-06 -3.0577937e-18)
(0.10310394 3.9562648e-06 -6.080075e-21)
(0.10310419 4.1667569e-06 3.1749129e-18)
(0.10310434 4.3722311e-06 -3.2249138e-18)
(0.10310436 4.573238e-06 6.4092381e-21)
(0.10310436 4.7694572e-06 -3.338547e-18)
(0.10310445 4.9599725e-06 3.3892877e-18)
(0.10310465 5.1454733e-06 0)
(0.10310493 5.3281777e-06 0)
(0.10310522 5.5090779e-06 -1.7918928e-18)
(0.10310548 5.6885799e-06 1.814131e-18)
(0.10310568 5.8670583e-06 0)
(0.10310584 6.0450971e-06 0)
(0.10310594 6.2232147e-06 0)
(0.103106 6.4012897e-06 2.4137789e-19)
(0.10310602 6.5796614e-06 -8.4353858e-29)
(0.10310596 6.7577579e-06 -2.439943e-19)
(0.10310582 6.9359771e-06 0)
(0.10310558 7.115635e-06 0)
(0.10310522 7.2965478e-06 0)
(0.10310478 7.4789681e-06 0)
(0.10310437 7.6626061e-06 1.8045494e-18)
(0.10310415 7.8480375e-06 -1.7681846e-18)
(0.10310422 8.0364188e-06 -3.4915875e-18)
(0.1031045 8.2283128e-06 1.9464871e-27)
(0.10310479 8.4235633e-06 3.3685231e-18)
(0.10310488 8.6220255e-06 0)
(0.10310468 8.823614e-06 6.3672136e-21)
(0.10310434 9.0294756e-06 -3.2030684e-18)
(0.10310407 9.2383234e-06 3.1465669e-18)
(0.10310401 9.4533381e-06 3.0905619e-18)
(0.1031041 9.671548e-06 -3.0410459e-18)
(0.10310421 9.8994999e-06 0)
(0.10310423 1.0128467e-05 0)
(0.10310413 1.0373426e-05 -2.8619353e-18)
(0.10310395 1.0612367e-05 2.8211125e-18)
(0.10310373 1.0882746e-05 0)
(0.10310354 1.1128689e-05 0)
(0.10310338 1.1436735e-05 0)
(0.10310318 1.1686577e-05 0)
(0.10310291 1.2046886e-05 2.588217e-18)
(0.10310277 1.2303531e-05 -3.710725e-27)
(0.10310302 1.2705001e-05 -3.7788193e-18)
(0.10310331 1.3085473e-05 1.2278314e-18)
(0.10310316 1.3208258e-05 -1.9267605e-20)
(0.10322744 1.0601922e-06 0)
(0.10313661 -2.5621582e-07 2.4227453e-18)
(0.10312219 1.0101242e-06 -2.5053007e-18)
(0.10312082 6.6323041e-07 3.9165595e-20)
(0.10312226 1.3014279e-06 -2.5377457e-18)
(0.10312343 1.2796038e-06 5.1423499e-18)
(0.10312388 1.7418016e-06 3.7115836e-27)
(0.10312378 1.8363337e-06 -2.6839327e-18)
(0.10312348 2.1464529e-06 -1.0693651e-20)
(0.10312335 2.3299595e-06 2.1810861e-20)
(0.10312347 2.5471468e-06 -2.8354258e-18)
(0.10312363 2.7467569e-06 2.9131726e-18)
(0.10312367 2.9453083e-06 2.9576192e-18)
(0.10312368 3.1364711e-06 2.6307891e-27)
(0.10312383 3.3227871e-06 2.4856591e-27)
(0.10312411 3.5051827e-06 -3.1212422e-18)
(0.10312436 3.6841558e-06 -6.2199233e-21)
(0.10312446 3.8597084e-06 0)
(0.10312443 4.0322929e-06 3.2935597e-18)
(0.10312442 4.2014602e-06 -6.7162943e-18)
(0.10312452 4.3680842e-06 3.4232404e-18)
(0.10312474 4.5327895e-06 1.3575199e-20)
(0.10312502 4.6957317e-06 0)
(0.1031253 4.8569954e-06 7.0182599e-21)
(0.10312554 5.0173329e-06 0)
(0.10312573 5.1767469e-06 9.1353372e-19)
(0.10312587 5.3351234e-06 -1.885815e-18)
(0.10312596 5.4929945e-06 9.4279799e-19)
(0.10312601 5.650203e-06 2.4314137e-19)
(0.10312602 5.8075843e-06 -2.6153793e-19)
(0.10312596 5.9639869e-06 0)
(0.10312583 6.1195489e-06 9.5176298e-19)
(0.10312559 6.2768133e-06 -1.9038031e-18)
(0.10312523 6.434788e-06 9.3690763e-19)
(0.10312478 6.5925837e-06 0)
(0.10312433 6.7499301e-06 1.8138933e-18)
(0.10312406 6.9101729e-06 -1.790998e-18)
(0.10312408 7.0761044e-06 1.3705149e-20)
(0.10312437 7.2461463e-06 0)
(0.10312471 7.4167503e-06 6.621371e-21)
(0.10312486 7.5879025e-06 3.331336e-18)
(0.10312468 7.7599214e-06 -6.5520122e-18)
(0.1031243 7.9385908e-06 -4.8209097e-28)
(0.10312396 8.1198699e-06 3.156607e-18)
(0.10312385 8.3113899e-06 -3.098947e-18)
(0.10312394 8.5008812e-06 6.0891583e-18)
(0.10312406 8.7057034e-06 -5.969272e-18)
(0.10312409 8.8995705e-06 2.9280797e-18)
(0.103124 9.1220719e-06 -1.1218799e-20)
(0.10312382 9.3188302e-06 0)
(0.10312358 9.579053e-06 0)
(0.10312335 9.7733964e-06 0)
(0.10312318 1.0090002e-05 -2.675826e-18)
(0.10312299 1.0274906e-05 2.6240195e-18)
(0.10312268 1.0655816e-05 0)
(0.10312244 1.083561e-05 3.9165815e-20)
(0.10312265 1.1267532e-05 0)
(0.10312298 1.1472497e-05 1.8915774e-20)
(0.10312279 1.186745e-05 1.8549688e-20)
(0.10323245 1.21616e-06 0)
(0.10315113 -2.5991084e-07 3.7326198e-20)
(0.10313898 9.6780674e-07 -3.7939617e-20)
(0.10313861 6.004113e-07 -3.8476447e-20)
(0.10314021 1.1598895e-06 -2.5451938e-18)
(0.10314124 1.1547491e-06 2.5792139e-18)
(0.10314154 1.542935e-06 0)
(0.10314132 1.6449669e-06 2.0896095e-20)
(0.10314099 1.9122064e-06 -5.4659404e-18)
(0.10314093 2.0778577e-06 5.5386757e-18)
(0.10314113 2.2775451e-06 0)
(0.10314127 2.4513483e-06 -2.2715272e-20)
(0.10314125 2.6270276e-06 0)
(0.10314127 2.7921096e-06 3.0006789e-18)
(0.10314147 2.9521786e-06 -6.1656122e-18)
(0.10314178 3.1071435e-06 3.1413982e-18)
(0.10314202 3.2601403e-06 -3.187606e-18)
(0.10314207 3.4107017e-06 -3.6018797e-27)
(0.103142 3.5586847e-06 3.317963e-18)
(0.10314198 3.7029493e-06 -3.3771506e-18)
(0.1031421 3.8447014e-06 -3.3686343e-27)
(0.10314235 3.9849144e-06 3.4961159e-18)
(0.10314264 4.1234833e-06 0)
(0.10314291 4.2607482e-06 1.7938253e-18)
(0.10314314 4.3976678e-06 1.5835086e-27)
(0.10314331 4.5331447e-06 -1.8389887e-18)
(0.10314343 4.6673114e-06 -1.4830884e-20)
(0.10314352 4.8020136e-06 4.9719403e-19)
(0.10314356 4.9358406e-06 -4.8964464e-19)
(0.10314356 5.0693784e-06 2.477261e-19)
(0.10314351 5.2023206e-06 -2.4684664e-19)
(0.10314338 5.3334176e-06 3.038278e-20)
(0.10314315 5.4652689e-06 0)
(0.1031428 5.5979958e-06 1.4716527e-20)
(0.10314234 5.7322162e-06 -1.4479119e-20)
(0.10314186 5.8663044e-06 -1.424212e-20)
(0.10314152 6.0025984e-06 -1.4005699e-20)
(0.10314149 6.1427459e-06 -1.3769977e-20)
(0.10314178 6.2863135e-06 3.4514089e-18)
(0.10314218 6.4299416e-06 -3.4049649e-18)
(0.1031424 6.5779241e-06 0)
(0.10314227 6.7247173e-06 3.2855443e-18)
(0.10314187 6.879718e-06 -3.2134647e-18)
(0.10314145 7.0317403e-06 3.1914479e-18)
(0.10314126 7.200646e-06 -3.1074438e-18)
(0.10314133 7.3570751e-06 -3.0244408e-18)
(0.10314148 7.544379e-06 -2.1580247e-27)
(0.10314154 7.7015198e-06 2.9071988e-18)
(0.10314146 7.912659e-06 2.2430562e-20)
(0.10314128 8.0641178e-06 0)
(0.10314102 8.3240877e-06 0)
(0.10314076 8.4532107e-06 0)
(0.10314057 8.7825799e-06 2.0597739e-20)
(0.1031404 8.8802286e-06 -2.014416e-20)
(0.10314008 9.2767112e-06 0)
(0.10313972 9.3673694e-06 2.4636997e-18)
(0.1031399 9.8114449e-06 -2.4072479e-18)
(0.10314029 9.9220214e-06 0)
(0.10314008 1.0415162e-05 0)
(0.10323637 1.2454118e-06 6.8439461e-20)
(0.10316299 -2.4953169e-07 -7.2499349e-20)
(0.10315371 8.6528916e-07 -2.3355648e-18)
(0.10315414 5.4808591e-07 2.420017e-18)
(0.10315579 1.0141023e-06 3.8677241e-20)
(0.10315667 1.030259e-06 0)
(0.10315682 1.3552158e-06 -2.6017004e-18)
(0.1031565 1.452444e-06 7.9754467e-18)
(0.10315615 1.6814135e-06 -1.0913105e-17)
(0.10315619 1.8266265e-06 5.602581e-18)
(0.10315647 2.0011359e-06 -2.8519625e-18)
(0.10315657 2.1525004e-06 2.2758922e-20)
(0.10315649 2.3051836e-06 5.9479829e-18)
(0.10315652 2.4479925e-06 -3.0108594e-18)
(0.1031568 2.5870871e-06 0)
(0.10315714 2.7222931e-06 0)
(0.10315735 2.8548868e-06 -1.2559432e-20)
(0.10315733 2.9841697e-06 0)
(0.10315723 3.1108684e-06 0)
(0.10315722 3.2350178e-06 2.6527223e-20)
(0.10315738 3.3576579e-06 -1.3498932e-20)
(0.10315765 3.4791616e-06 -2.7469621e-20)
(0.10315795 3.599232e-06 -1.7883299e-18)
(0.10315821 3.717892e-06 1.8329017e-18)
(0.10315843 3.8354558e-06 1.4446408e-20)
(0.10315858 3.9524379e-06 -1.4684859e-20)
(0.10315869 4.069918e-06 9.7003466e-19)
(0.10315877 4.1876335e-06 -9.7039146e-19)
(0.10315881 4.3047536e-06 1.5400621e-20)
(0.1031588 4.420041e-06 -2.3364172e-19)
(0.10315875 4.5330797e-06 -2.481839e-19)
(0.10315864 4.6442275e-06 4.7341854e-19)
(0.10315843 4.7562377e-06 0)
(0.10315809 4.8686228e-06 -1.9079785e-18)
(0.10315763 4.9824165e-06 1.4550266e-20)
(0.10315711 5.0953536e-06 3.6921014e-18)
(0.1031567 5.2110034e-06 -1.7870521e-18)
(0.10315661 5.3272014e-06 0)
(0.10315689 5.4484434e-06 1.3594698e-20)
(0.10315735 5.5680715e-06 0)
(0.10315767 5.6972359e-06 0)
(0.1031576 5.8211756e-06 2.5766299e-20)
(0.10315718 5.9599972e-06 -1.2646306e-20)
(0.10315668 6.0842877e-06 -3.2015798e-18)
(0.10315641 6.2359941e-06 3.1159538e-18)
(0.10315646 6.357769e-06 -3.4511257e-26)
(0.10315664 6.531032e-06 2.3388659e-20)
(0.10315672 6.6512109e-06 3.3116328e-26)
(0.10315666 6.8525031e-06 -2.2425e-20)
(0.10315649 6.9634683e-06 -5.5943653e-18)
(0.10315623 7.2056389e-06 5.490876e-18)
(0.10315594 7.3031137e-06 4.1909302e-20)
(0.10315572 7.5906044e-06 -2.6592636e-18)
(0.10315557 7.6846568e-06 5.1076281e-18)
(0.10315526 8.0182688e-06 -5.0158252e-18)
(0.10315479 8.1169343e-06 2.4221605e-18)
(0.10315491 8.5322257e-06 -7.3582037e-20)
(0.10315539 8.5754438e-06 0)
(0.10315515 9.1895687e-06 0)
(0.10323936 1.1362675e-06 -6.6144174e-20)
(0.10317383 -1.9372609e-07 7.0448062e-20)
(0.10316659 7.3438762e-07 -2.3193621e-18)
(0.10316767 5.0271537e-07 2.3048159e-18)
(0.10316932 8.7210017e-07 -2.445588e-18)
(0.10317002 9.212083e-07 2.5556754e-18)
(0.10317005 1.1863734e-06 2.5465832e-18)
(0.10316963 1.2789829e-06 -2.6560752e-18)
(0.10316929 1.4757149e-06 5.4044047e-18)
(0.10316948 1.6011063e-06 -1.1114507e-17)
(0.10316982 1.7541255e-06 5.7089689e-18)
(0.10316983 1.8844488e-06 -2.2801308e-20)
(0.10316969 2.0162012e-06 -2.9819003e-18)
(0.10316978 2.1383709e-06 6.0891711e-18)
(0.10317014 2.2574593e-06 -3.1067359e-18)
(0.10317051 2.3731074e-06 -3.1684597e-18)
(0.10317067 2.486395e-06 2.5233298e-20)
(0.10317058 2.5966553e-06 3.2653353e-18)
(0.10317044 2.7045826e-06 -2.6188193e-20)
(0.10317046 2.8104293e-06 -5.3329283e-20)
(0.10317066 2.9150692e-06 1.3570584e-20)
(0.10317096 3.0186637e-06 1.3809127e-20)
(0.10317126 3.1208063e-06 0)
(0.10317152 3.2217148e-06 -1.8288372e-18)
(0.10317172 3.3214726e-06 -1.4528113e-20)
(0.10317186 3.4209537e-06 1.9052054e-18)
(0.10317196 3.5214071e-06 0)
(0.10317203 3.6220188e-06 0)
(0.10317206 3.7224533e-06 -3.0986691e-20)
(0.10317206 3.8211209e-06 2.3495138e-19)
(0.10317202 3.9176279e-06 -2.4944013e-19)
(0.10317191 4.0121299e-06 0)
(0.10317172 4.1081495e-06 0)
(0.10317141 4.2040939e-06 -1.9021144e-18)
(0.10317095 4.3035048e-06 3.7420734e-18)
(0.1031704 4.3999584e-06 -1.8544101e-18)
(0.10316992 4.4994725e-06 -1.7808455e-18)
(0.10316975 4.5931593e-06 1.7782629e-18)
(0.10317 4.6948018e-06 0)
(0.10317052 4.7905296e-06 0)
(0.10317095 4.9050863e-06 -3.3982368e-18)
(0.10317097 5.0076455e-06 3.2844607e-18)
(0.10317057 5.1337872e-06 2.5379773e-20)
(0.10316999 5.2322581e-06 -3.186669e-18)
(0.1031696 5.3692608e-06 6.2243665e-18)
(0.10316961 5.4646951e-06 -3.0855824e-18)
(0.10316982 5.6214922e-06 -3.0218215e-18)
(0.10316995 5.7180806e-06 5.8689598e-18)
(0.10316991 5.8972358e-06 -2.8697938e-18)
(0.10316975 5.9924071e-06 -6.5723791e-20)
(0.10316949 6.1989261e-06 0)
(0.10316918 6.2943056e-06 -4.1715152e-20)
(0.10316891 6.5313051e-06 2.6005476e-18)
(0.10316879 6.6323393e-06 -5.0593991e-18)
(0.10316854 6.9060923e-06 2.533719e-18)
(0.10316793 7.0146829e-06 3.7217052e-20)
(0.10316799 7.3839528e-06 1.4400274e-19)
(0.10316855 7.4076723e-06 6.9459447e-20)
(0.10316831 8.0571162e-06 6.6610631e-20)
(0.1032414 9.3572951e-07 -1.0236274e-18)
(0.10318284 -1.1807074e-07 -1.0958778e-18)
(0.10317781 5.8355506e-07 2.3392089e-18)
(0.10317938 4.7119631e-07 -2.266876e-18)
(0.10318094 7.5062133e-07 -6.5669903e-27)
(0.10318146 8.1790138e-07 2.4564178e-18)
(0.10318139 1.0286528e-06 4.0192959e-20)
(0.10318086 1.1172403e-06 5.293335e-18)
(0.10318058 1.2824756e-06 4.247809e-20)
(0.10318095 1.3894905e-06 -5.62068e-18)
(0.10318132 1.522167e-06 5.6691302e-18)
(0.10318118 1.6342741e-06 -5.8248485e-18)
(0.10318101 1.7461114e-06 -2.9896136e-18)
(0.10318121 1.851058e-06 3.0543538e-18)
(0.10318166 1.9519279e-06 2.4361182e-20)
(0.10318203 2.0510352e-06 0)
(0.10318211 2.147095e-06 -2.5343999e-20)
(0.10318194 2.2406958e-06 3.3320616e-18)
(0.10318179 2.3316853e-06 -6.7099498e-18)
(0.10318186 2.4212244e-06 2.482411e-26)
(0.10318211 2.5094817e-06 2.7277016e-20)
(0.10318243 2.5968432e-06 3.553085e-18)
(0.10318273 2.6829384e-06 -1.8073954e-18)
(0.10318298 2.7679586e-06 1.838318e-18)
(0.10318316 2.8524728e-06 1.8693279e-18)
(0.1031833 2.9374377e-06 -1.9152767e-18)
(0.10318339 3.0225214e-06 9.6580639e-19)
(0.10318345 3.1078643e-06 -9.8142438e-19)
(0.10318348 3.1927835e-06 -2.3368212e-19)
(0.10318348 3.2753603e-06 1.574384e-20)
(0.10318343 3.3563017e-06 2.5059618e-19)
(0.10318334 3.4353677e-06 0)
(0.10318317 3.5166902e-06 -1.5170264e-20)
(0.10318288 3.595959e-06 0)
(0.10318244 3.6807391e-06 -1.46798e-20)
(0.10318188 3.7596696e-06 -1.8477599e-18)
(0.10318132 3.8463211e-06 -2.8384253e-20)
(0.10318105 3.9204093e-06 5.3564671e-18)
(0.10318125 4.0103356e-06 -7.0176938e-18)
(0.10318182 4.0871319e-06 -2.692746e-20)
(0.10318237 4.1902635e-06 6.8218894e-18)
(0.10318252 4.2712353e-06 -3.3221125e-18)
(0.10318215 4.3850636e-06 3.2085011e-18)
(0.1031815 4.4645047e-06 -3.2212944e-18)
(0.10318098 4.5881392e-06 2.4473841e-20)
(0.10318091 4.6669462e-06 0)
(0.10318117 4.8034438e-06 0)
(0.10318134 4.887858e-06 4.5886203e-20)
(0.10318133 5.0398391e-06 5.7384697e-18)
(0.10318119 5.1286295e-06 -5.5569697e-18)
(0.10318094 5.2990605e-06 -4.2654274e-20)
(0.10318062 5.3949725e-06 2.6575292e-18)
(0.10318029 5.5875224e-06 -5.1257089e-18)
(0.10318016 5.6923948e-06 -4.0648192e-27)
(0.10318003 5.9168727e-06 2.3882336e-18)
(0.10317928 6.0321757e-06 -7.9620228e-26)
(0.10317924 6.3353675e-06 -2.2553628e-18)
(0.10317992 6.3731377e-06 2.0953268e-18)
(0.10317967 6.9578394e-06 -6.4380265e-20)
(0.10324287 6.9434336e-07 0)
(0.10319106 -4.3715437e-08 6.6626987e-20)
(0.10318778 4.3509694e-07 -6.7410063e-26)
(0.10318968 4.1274537e-07 0)
(0.10319113 6.1090956e-07 -2.4633233e-18)
(0.10319146 7.1677043e-07 2.5133866e-18)
(0.10319131 8.6635307e-07 0)
(0.10319065 9.6414217e-07 4.1205987e-20)
(0.10319049 1.0911492e-06 0)
(0.1031911 1.1913982e-06 5.6184735e-18)
(0.10319142 1.3021329e-06 -5.6735898e-18)
(0.10319106 1.4014406e-06 2.9289325e-18)
(0.10319093 1.4931647e-06 4.7602047e-27)
(0.10319128 1.5850009e-06 -3.0638187e-18)
(0.10319181 1.6689341e-06 -3.1537983e-18)
(0.10319217 1.7543387e-06 3.1938864e-18)
(0.10319213 1.8346227e-06 0)
(0.10319187 1.914704e-06 2.5943146e-20)
(0.10319174 1.9910705e-06 -2.6432421e-20)
(0.10319188 2.0678572e-06 2.6323505e-26)
(0.10319218 2.1424665e-06 -2.7404337e-20)
(0.10319252 2.2170751e-06 0)
(0.10319281 2.289523e-06 0)
(0.10319305 2.3620709e-06 0)
(0.10319322 2.4334946e-06 0)
(0.10319334 2.5054852e-06 0)
(0.10319342 2.5772032e-06 -9.5529737e-19)
(0.10319348 2.6489477e-06 5.085131e-19)
(0.10319351 2.719561e-06 5.0098837e-19)
(0.10319351 2.7886031e-06 2.3724382e-19)
(0.10319347 2.856312e-06 -7.5490909e-19)
(0.10319339 2.9224281e-06 5.1079643e-19)
(0.10319324 2.9916085e-06 1.52305e-20)
(0.10319298 3.0571312e-06 0)
(0.10319257 3.1286559e-06 1.47365e-20)
(0.10319199 3.1915644e-06 0)
(0.10319137 3.2663073e-06 0)
(0.10319097 3.324431e-06 3.6123853e-18)
(0.10319108 3.4082193e-06 -7.0161813e-18)
(0.10319169 3.4690441e-06 6.9455192e-18)
(0.10319239 3.5598776e-06 -6.8460019e-18)
(0.10319269 3.6259705e-06 6.6667567e-18)
(0.10319238 3.7225289e-06 -3.2442904e-18)
(0.1031917 3.791694e-06 2.5044309e-20)
(0.10319101 3.8934317e-06 3.165233e-18)
(0.1031908 3.9652575e-06 -3.0747158e-18)
(0.10319113 4.0744241e-06 2.3496318e-20)
(0.10319137 4.1533867e-06 -2.2960453e-20)
(0.10319136 4.2745478e-06 5.7374066e-18)
(0.10319125 4.3601651e-06 -1.1142616e-17)
(0.10319102 4.4945581e-06 5.4870775e-18)
(0.10319071 4.5885445e-06 4.1335396e-20)
(0.10319032 4.7422839e-06 0)
(0.10319013 4.8464074e-06 -2.5216227e-18)
(0.10319017 5.0232335e-06 2.3960514e-18)
(0.10318928 5.1423017e-06 -7.2027228e-20)
(0.10318911 5.3891211e-06 2.1394755e-18)
(0.10318992 5.4571264e-06 -2.0401596e-18)
(0.10318968 5.9439035e-06 1.2456e-19)
(0.10324381 3.8644334e-07 0)
(0.103198 3.0795708e-08 -2.2047233e-18)
(0.10319654 3.0385334e-07 -6.7883228e-20)
(0.10319856 4.09066e-07 4.6021267e-18)
(0.10319988 5.2878878e-07 7.3784862e-20)
(0.10320004 6.4052087e-07 -4.9851356e-18)
(0.10319983 7.4897724e-07 2.5430424e-18)
(0.10319902 8.506482e-07 5.1731286e-18)
(0.10319908 9.4136109e-07 -5.3746911e-18)
(0.10319996 1.0365127e-06 -3.0262799e-26)
(0.10320012 1.1188432e-06 4.4706316e-20)
(0.10319949 1.2080992e-06 -2.2920336e-20)
(0.10319953 1.2770548e-06 0)
(0.10320006 1.3597204e-06 2.4007348e-20)
(0.10320063 1.425486e-06 3.164572e-18)
(0.10320095 1.501152e-06 -3.2058362e-18)
(0.10320077 1.5651126e-06 3.2450153e-18)
(0.10320043 1.6335575e-06 -3.3344415e-18)
(0.10320036 1.6936263e-06 1.8548134e-26)
(0.10320058 1.7595104e-06 -3.4333523e-18)
(0.10320094 1.8186814e-06 7.0181132e-18)
(0.10320128 1.8816009e-06 -3.5851048e-18)
(0.10320157 1.9394977e-06 0)
(0.10320178 2.0009488e-06 1.4491294e-20)
(0.10320194 2.0595647e-06 -1.9009132e-18)
(0.10320206 2.1208782e-06 1.9026145e-18)
(0.10320214 2.1802212e-06 -1.5227765e-20)
(0.10320219 2.240223e-06 4.7973484e-19)
(0.10320222 2.2985123e-06 -5.0315646e-19)
(0.10320222 2.3547338e-06 1.5879495e-20)
(0.10320219 2.40934e-06 5.0507549e-19)
(0.10320212 2.4627295e-06 -5.1258251e-19)
(0.10320199 2.5179544e-06 -1.5282843e-20)
(0.10320177 2.5700007e-06 0)
(0.10320139 2.6311986e-06 0)
(0.10320083 2.6829737e-06 -1.8756298e-18)
(0.10320014 2.7487696e-06 1.8296368e-18)
(0.1031996 2.802489e-06 -2.8097595e-20)
(0.10319958 2.8691708e-06 -2.7607117e-20)
(0.10320021 2.9251774e-06 0)
(0.10320105 2.9973911e-06 2.662182e-20)
(0.10320155 3.0570078e-06 -3.3178218e-18)
(0.10320133 3.1372281e-06 3.2540523e-18)
(0.10320065 3.1980952e-06 -3.2145667e-18)
(0.10319981 3.2843367e-06 3.1238009e-18)
(0.10319935 3.3468492e-06 2.4069695e-20)
(0.10319977 3.4369589e-06 -2.3530354e-20)
(0.1032001 3.5113182e-06 0)
(0.10320011 3.6097114e-06 0)
(0.10320004 3.6905282e-06 -4.3637153e-20)
(0.1031998 3.8002897e-06 0)
(0.10319953 3.8911949e-06 -4.1148533e-20)
(0.1031991 4.0126156e-06 0)
(0.10319876 4.1179568e-06 2.536859e-18)
(0.10319905 4.2544453e-06 -2.2926405e-18)
(0.10319804 4.3822023e-06 7.0874263e-20)
(0.10319769 4.5477658e-06 -2.1633085e-18)
(0.10319866 4.6413302e-06 3.0774911e-18)
(0.10319844 4.9759171e-06 -1.085396e-18)
(0.10324268 1.3130003e-07 1.1630326e-19)
(0.10320233 9.4073496e-08 -2.0205708e-18)
(0.10320294 1.6341596e-07 -2.4822942e-27)
(0.1032048 3.3590648e-07 2.1606966e-18)
(0.10320603 3.6979598e-07 0)
(0.10320611 5.3441034e-07 3.802964e-20)
(0.10320573 5.7620366e-07 -3.9506377e-20)
(0.10320478 6.9463549e-07 5.2769623e-18)
(0.10320527 7.3520535e-07 -1.0813347e-17)
(0.10320636 8.4317463e-07 -4.3513861e-20)
(0.10320618 8.9305414e-07 5.6815555e-18)
(0.10320528 9.7785183e-07 2.961455e-18)
(0.10320569 1.0227782e-06 -3.0112489e-18)
(0.10320637 1.1000008e-06 -2.4076167e-20)
(0.10320693 1.1456483e-06 -2.4611894e-20)
(0.1032072 1.2152815e-06 0)
(0.10320681 1.2603033e-06 2.5647356e-20)
(0.10320642 1.3244644e-06 -2.6151251e-20)
(0.10320646 1.3689276e-06 2.6648394e-20)
(0.10320679 1.4294938e-06 0)
(0.10320718 1.4739461e-06 3.5642031e-18)
(0.10320752 1.5313485e-06 -5.3983945e-18)
(0.10320779 1.5751255e-06 1.8163146e-18)
(0.103208 1.6299759e-06 1.8472696e-18)
(0.10320815 1.6730114e-06 -1.8635406e-18)
(0.10320825 1.7224248e-06 -9.4725281e-19)
(0.10320833 1.7657423e-06 9.7810501e-19)
(0.10320838 1.8120933e-06 0)
(0.10320841 1.8588324e-06 -2.5249927e-19)
(0.1032084 1.9057639e-06 2.5491524e-19)
(0.10320838 1.9549377e-06 4.9071539e-19)
(0.10320833 2.0028558e-06 -1.5109647e-18)
(0.10320822 2.0521206e-06 9.9617376e-19)
(0.10320803 2.1021167e-06 1.5076087e-20)
(0.1032077 2.1459397e-06 -1.9128057e-18)
(0.10320716 2.1940537e-06 1.8809663e-18)
(0.10320643 2.2405232e-06 0)
(0.10320573 2.2855887e-06 -3.6070196e-18)
(0.10320553 2.3354226e-06 3.5441736e-18)
(0.10320615 2.3793077e-06 0)
(0.10320712 2.4324141e-06 0)
(0.10320789 2.4840151e-06 -2.6200243e-20)
(0.10320776 2.5387943e-06 2.5693603e-20)
(0.10320714 2.5972897e-06 0)
(0.10320618 2.6512881e-06 0)
(0.10320531 2.7177511e-06 -2.411531e-20)
(0.10320584 2.7694447e-06 0)
(0.10320632 2.8429706e-06 0)
(0.10320633 2.9094898e-06 5.7347234e-18)
(0.10320629 2.9899234e-06 -5.5777544e-18)
(0.10320605 3.0659588e-06 0)
(0.10320584 3.1529816e-06 4.0962032e-20)
(0.10320543 3.2541987e-06 -3.9560325e-20)
(0.10320483 3.3489261e-06 -2.4755238e-18)
(0.10320535 3.4610673e-06 2.2646469e-18)
(0.10320435 3.5659687e-06 -6.9751176e-20)
(0.10320364 3.7116763e-06 2.0534399e-18)
(0.10320491 3.797755e-06 -2.1247534e-18)
(0.10320471 4.0488349e-06 0)
(0.1032405 -1.2407612e-07 -1.1281821e-19)
(0.10320607 2.2327821e-07 2.0299942e-18)
(0.10320898 -2.2743519e-08 -2.0837933e-18)
(0.10321009 5.0078067e-07 -6.8634069e-20)
(0.10321137 2.9307031e-07 3.6058119e-20)
(0.10321168 4.6708802e-07 0)
(0.10321066 4.7817615e-07 3.9278803e-20)
(0.10320975 5.7129932e-07 0)
(0.10321107 6.2259756e-07 5.3540712e-18)
(0.10321211 7.1123669e-07 7.7376573e-27)
(0.10321141 7.4284926e-07 -5.7522749e-18)
(0.10321036 8.179941e-07 2.299203e-20)
(0.1032113 8.4559219e-07 0)
(0.10321211 9.1933917e-07 0)
(0.10321261 9.4905376e-07 3.1600794e-18)
(0.10321276 1.0183736e-06 -3.2532401e-18)
(0.10321214 1.0475134e-06 0)
(0.10321178 1.1050525e-06 -1.3122023e-20)
(0.10321195 1.1270614e-06 0)
(0.10321238 1.1825475e-06 0)
(0.10321279 1.2053006e-06 0)
(0.10321312 1.2550994e-06 -1.8054106e-18)
(0.10321337 1.2785642e-06 1.8508009e-18)
(0.10321356 1.3281063e-06 0)
(0.10321369 1.3602276e-06 -1.4833916e-20)
(0.10321379 1.4100377e-06 0)
(0.10321385 1.4490365e-06 -1.532596e-20)
(0.10321389 1.4930238e-06 -5.1396583e-19)
(0.10321392 1.5333019e-06 5.0640815e-19)
(0.10321391 1.5731485e-06 -1.5972891e-20)
(0.10321389 1.6115212e-06 5.3942848e-19)
(0.10321384 1.6489413e-06 -1.4987282e-18)
(0.10321374 1.6876375e-06 9.6767537e-19)
(0.10321358 1.7257417e-06 -3.0220278e-20)
(0.1032133 1.769138e-06 1.689589e-26)
(0.10321279 1.8131541e-06 0)
(0.10321202 1.856557e-06 0)
(0.10321113 1.9064957e-06 0)
(0.10321071 1.9463797e-06 1.3881218e-20)
(0.1032113 1.9982229e-06 -3.4906075e-18)
(0.10321231 2.0431586e-06 6.8676076e-18)
(0.10321342 2.0940414e-06 5.0407356e-27)
(0.10321342 2.1490334e-06 -6.595191e-18)
(0.10321288 2.2003863e-06 3.2562702e-18)
(0.10321183 2.2551924e-06 0)
(0.10321042 2.3105677e-06 0)
(0.10321104 2.3560809e-06 0)
(0.10321173 2.4266947e-06 5.8901723e-18)
(0.10321175 2.481774e-06 -5.7562513e-18)
(0.10321171 2.5515145e-06 2.1760383e-20)
(0.10321145 2.6160931e-06 -4.2185382e-20)
(0.10321133 2.6817508e-06 -4.6421988e-26)
(0.10321097 2.76585e-06 4.4750218e-26)
(0.10321007 2.842457e-06 -3.7742934e-20)
(0.10321043 2.9137462e-06 3.608884e-20)
(0.10320995 3.0078161e-06 0)
(0.10320838 3.0332577e-06 7.4025897e-26)
(0.10321032 3.2658788e-06 6.0948772e-20)
(0.10321012 3.2552629e-06 0)
(0.10324503 -7.6976984e-07 9.3081191e-19)
(0.10321585 8.5398773e-07 -9.5931476e-19)
(0.10322093 -3.8225377e-07 0)
(0.10321937 2.1169687e-07 6.7602424e-20)
(0.10322108 -2.3347466e-08 -3.565207e-20)
(0.10322311 1.7369676e-07 2.4311303e-18)
(0.10321956 1.7351572e-07 -2.5383682e-18)
(0.10321957 1.6592423e-07 5.1976532e-18)
(0.10322284 2.4072383e-07 1.4889915e-26)
(0.10322294 3.0154867e-07 -5.5637773e-18)
(0.10322172 3.5634265e-07 -5.6883337e-18)
(0.10322117 4.0932784e-07 5.8713891e-18)
(0.10322225 4.587227e-07 0)
(0.1032235 5.0767905e-07 0)
(0.10322392 5.6625462e-07 3.1692816e-18)
(0.10322368 6.1840546e-07 -3.2001354e-18)
(0.10322305 6.6982434e-07 -1.2909741e-20)
(0.10322288 7.3648789e-07 1.3946482e-26)
(0.10322312 7.8966397e-07 0)
(0.10322364 8.4972147e-07 1.3659332e-20)
(0.10322413 9.0595182e-07 -3.5589764e-18)
(0.10322446 9.839948e-07 3.6066159e-18)
(0.10322471 1.0461296e-06 1.8411953e-18)
(0.1032249 1.1247683e-06 -1.8720472e-18)
(0.10322504 1.1876211e-06 0)
(0.10322513 1.261244e-06 0)
(0.1032252 1.3188073e-06 -9.5213449e-19)
(0.10322524 1.3831708e-06 1.0143395e-18)
(0.10322527 1.4381374e-06 0)
(0.10322528 1.501367e-06 1.599983e-20)
(0.10322526 1.5503659e-06 -1.5888045e-20)
(0.10322522 1.6120322e-06 1.5633669e-20)
(0.10322513 1.6621653e-06 9.8444347e-19)
(0.10322499 1.7279368e-06 9.8363325e-19)
(0.10322473 1.7800117e-06 1.488608e-20)
(0.10322425 1.8451868e-06 -1.8887171e-18)
(0.10322339 1.8849835e-06 -1.8285022e-18)
(0.10322228 1.9142385e-06 -1.8117887e-18)
(0.1032218 1.972037e-06 3.5473378e-18)
(0.10322226 1.969418e-06 1.3666281e-20)
(0.10322321 2.0425964e-06 -2.6837899e-20)
(0.1032246 2.0537836e-06 1.3167962e-20)
(0.103225 2.1068383e-06 -1.2912171e-20)
(0.10322453 2.1569228e-06 -2.530065e-20)
(0.10322296 2.1730831e-06 -1.2380921e-20)
(0.10322148 2.2716776e-06 -2.4204787e-20)
(0.10322204 2.2497519e-06 0)
(0.10322298 2.3365694e-06 0)
(0.10322323 2.3652489e-06 -5.7103505e-18)
(0.10322289 2.4439117e-06 -4.3464813e-20)
(0.10322274 2.4902243e-06 5.4274206e-18)
(0.10322284 2.5275886e-06 -4.0604682e-20)
(0.1032225 2.6692756e-06 3.9052144e-20)
(0.10322161 2.6914446e-06 2.4314721e-18)
(0.10321998 2.7482223e-06 -2.3180259e-18)
(0.10322186 2.9177916e-06 -2.1635953e-18)
(0.10321784 2.6114285e-06 4.1386392e-18)
(0.10322189 3.4939703e-06 -8.9213023e-19)
(0.10322178 2.4905475e-06 -8.2485879e-19)
(0.10324159 -1.8916312e-06 -1.0635632e-19)
(0.10321244 9.2252584e-07 5.8461998e-20)
(0.10322715 1.386292e-07 3.1280744e-20)
(0.10321704 7.9685279e-07 0)
(0.103222 6.3003868e-07 0)
(0.10322919 9.4573627e-07 2.3360535e-18)
(0.10321632 8.3257736e-07 -2.4646391e-18)
(0.10322026 8.6291496e-07 5.1965906e-18)
(0.10322905 8.9852209e-07 -5.3517085e-18)
(0.10322715 8.8979661e-07 5.5583217e-18)
(0.10322537 9.0402714e-07 -5.7787437e-18)
(0.10322656 8.5452238e-07 -5.900417e-18)
(0.10322595 8.5074624e-07 3.0293298e-18)
(0.10322914 8.2872365e-07 6.2217225e-18)
(0.10322952 8.1993818e-07 -3.1771298e-18)
(0.10322828 7.9447177e-07 6.0493365e-26)
(0.10322835 7.6590883e-07 1.2945339e-20)
(0.10322863 7.3797369e-07 -3.352951e-18)
(0.10322858 6.8902498e-07 6.8863173e-18)
(0.10322918 6.7050482e-07 -3.5331798e-18)
(0.10323004 6.1288413e-07 0)
(0.1032305 5.7889488e-07 1.4175552e-20)
(0.1032308 5.264416e-07 0)
(0.10323106 4.8691116e-07 7.3268096e-21)
(0.10323125 4.307276e-07 -7.4470073e-21)
(0.10323139 3.9283456e-07 0)
(0.10323149 3.4705448e-07 -2.3072117e-20)
(0.10323156 3.2178775e-07 0)
(0.10323161 2.8581896e-07 0)
(0.10323166 2.6052982e-07 0)
(0.10323166 2.2716798e-07 0)
(0.1032316 1.9765541e-07 0)
(0.10323152 1.5963665e-07 2.3067607e-20)
(0.10323135 1.2826947e-07 7.5651679e-21)
(0.10323103 8.5780546e-08 0)
(0.10323039 6.0091311e-08 2.1963288e-20)
(0.10322911 1.2974044e-08 -1.440084e-20)
(0.10322766 -1.5498783e-08 7.0801013e-21)
(0.10322808 -5.0344532e-08 -6.959478e-21)
(0.1032279 -1.0008368e-07 -1.367595e-20)
(0.10322878 -1.1624253e-07 3.4515316e-18)
(0.10322955 -1.4890448e-07 -6.7613062e-18)
(0.10323161 -1.5713968e-07 1.2924046e-20)
(0.10323093 -1.6656181e-07 3.2538888e-18)
(0.10322679 -1.740032e-07 1.2389473e-20)
(0.10322773 -1.5365277e-07 2.421454e-20)
(0.10322746 -2.1892042e-07 0)
(0.10322857 -2.0374901e-07 -5.8785811e-18)
(0.10322986 -2.0952328e-07 2.2359741e-20)
(0.10322807 -1.8111996e-07 5.592455e-18)
(0.10322859 -1.6069832e-07 2.0953962e-20)
(0.10322946 -1.426852e-07 0)
(0.10322833 -6.1899471e-08 -2.4803201e-18)
(0.1032286 -1.2830467e-08 2.3885665e-18)
(0.10321912 7.6057297e-08 0)
(0.10322908 1.7312929e-07 3.3258736e-20)
(0.10321664 3.1988523e-07 -2.0278738e-18)
(0.10322854 6.1381602e-07 1.798525e-18)
(0.10322855 1.8245196e-07 -1.0680552e-19)
(0.10319423 -2.0246164e-06 5.1695428e-20)
(0.10317557 -1.2250905e-06 1.7684485e-18)
(0.10318939 -9.6063132e-07 -1.9949574e-18)
(0.10317881 -1.1303072e-06 2.100475e-18)
(0.10319066 -5.2820341e-07 -4.4620636e-18)
(0.10318814 -9.9112334e-07 4.7088957e-18)
(0.10317664 -8.16857e-07 -2.4607916e-18)
(0.10319121 -5.6955392e-07 5.1384015e-18)
(0.10318725 -6.0947838e-07 -1.0475903e-20)
(0.10318582 -6.0243538e-07 -5.545887e-18)
(0.10318379 -5.6247085e-07 -5.7160051e-18)
(0.1031831 -4.854187e-07 5.9154165e-18)
(0.10318757 -3.9960157e-07 0)
(0.10318753 -3.5585349e-07 -1.2158597e-20)
(0.10318626 -3.1114509e-07 6.222275e-21)
(0.10318527 -2.8603448e-07 -1.271792e-20)
(0.10318488 -2.0605556e-07 -3.3165139e-18)
(0.10318388 -1.5291835e-07 3.3746653e-18)
(0.10318461 -4.4601747e-08 -6.7400658e-21)
(0.10318521 2.6424057e-08 3.5262766e-18)
(0.1031851 1.2998737e-07 -7.1463788e-18)
(0.10318519 2.0695263e-07 5.4498153e-18)
(0.10318534 2.9081795e-07 -1.8464854e-18)
(0.10318545 3.7875006e-07 -3.664821e-21)
(0.10318554 4.4051739e-07 -1.8990354e-18)
(0.1031856 5.3138772e-07 1.9406477e-18)
(0.10318565 5.850359e-07 7.6860674e-21)
(0.10318569 6.7136401e-07 0)
(0.10318572 7.2308652e-07 0)
(0.10318574 8.0425371e-07 0)
(0.10318574 8.6288414e-07 0)
(0.10318574 9.5017932e-07 -1.0009147e-18)
(0.10318573 1.0167148e-06 9.7728547e-19)
(0.10318571 1.1096575e-06 -1.9423928e-18)
(0.10318568 1.1766209e-06 1.9039681e-18)
(0.10318564 1.2569116e-06 -3.666245e-21)
(0.10318563 1.3364173e-06 0)
(0.10318491 1.4240517e-06 3.6330408e-18)
(0.10318254 1.5055586e-06 -3.5653717e-18)
(0.1031838 1.5625204e-06 0)
(0.10318495 1.5771958e-06 -3.4555239e-18)
(0.10318623 1.5583748e-06 3.3917187e-18)
(0.10318759 1.5099938e-06 -3.3131289e-18)
(0.10318964 1.4521534e-06 3.2328667e-18)
(0.10318921 1.4215751e-06 -3.1816751e-18)