/*--------------------------------*- C++ -*----------------------------------*\
| =========                 |                                                 |
| \\      /  F ield         | OpenFOAM: The Open Source CFD Toolbox           |
|  \\    /   O peration     | Version:  v2006                                 |
|   \\  /    A nd           | Website:  www.openfoam.com                      |
|    \\/     M anipulation  |                                                 |
\*---------------------------------------------------------------------------*/
FoamFile
{
    version     2.0;
    format      ascii;
    class       volVectorField;
    location    "10000";
    object      wallShearStress;
}
// * * * * * * * * * * * * * * * * * * * * * * * * * * * * * * * * * * * * * //

dimensions      [1 -1 -2 0 0 0 0];


internalField   uniform (0 0 0);

boundaryField
{
    Side
    {
        type            empty;
    }
    Ground
    {
        type            calculated;
        value           uniform (0 0 0);
    }
    Inlet
    {
        type            calculated;
        value           uniform (0 0 0);
    }
    Airfoil
    {
        type            calculated;
        value           nonuniform List<vector> 
527
(
(4.4669576e-06 1.9191201e-06 -2.4974662e-20)
(5.0398526e-06 1.7586571e-06 3.4676442e-20)
(5.1366724e-06 1.2724579e-06 1.8291769e-20)
(4.1364957e-06 1.1380291e-06 -1.9221018e-20)
(4.1679971e-06 1.1720046e-06 -1.9735999e-20)
(3.8063256e-06 1.0523468e-06 2.0277484e-20)
(3.5919642e-06 9.6133291e-07 1.0099809e-23)
(3.4605333e-06 9.1188471e-07 -1.0311736e-23)
(3.4529531e-06 9.0033466e-07 -8.6073601e-28)
(3.4774592e-06 8.9895624e-07 2.786289e-37)
(3.5059184e-06 8.8469816e-07 1.7632415e-38)
(3.5177455e-06 8.7228413e-07 1.1145508e-20)
(3.5395023e-06 8.6223934e-07 -1.1277738e-20)
(3.5476586e-06 8.4962927e-07 -1.1434888e-20)
(3.5595223e-06 8.444248e-07 1.1565033e-20)
(3.5714269e-06 8.3255013e-07 5.8774718e-39)
(3.5771611e-06 8.2519716e-07 5.8774718e-39)
(3.5901802e-06 8.1153646e-07 -1.1901272e-20)
(3.5973042e-06 8.0283901e-07 -2.3527074e-23)
(3.6083612e-06 7.8551167e-07 1.2166336e-20)
(3.6176043e-06 7.7788681e-07 1.2260163e-20)
(3.6205767e-06 7.5347038e-07 -1.2374242e-20)
(3.6277733e-06 7.4789053e-07 -1.2495698e-20)
(3.6273075e-06 7.2226624e-07 -2.4711854e-23)
(3.6313618e-06 7.1305283e-07 2.4045732e-27)
(3.6277577e-06 6.9427385e-07 -2.5142349e-23)
(3.6262488e-06 6.7669447e-07 2.5352023e-23)
(3.6226243e-06 6.6478588e-07 1.3074977e-20)
(3.6119433e-06 6.3931799e-07 5.1684801e-23)
(3.6077972e-06 6.2629037e-07 1.3308613e-20)
(3.5914267e-06 6.0273091e-07 -1.3438422e-20)
(3.5761135e-06 5.7577544e-07 -1.3552032e-20)
(3.5653875e-06 5.5727572e-07 -1.3685711e-20)
(3.5289622e-06 5.2218816e-07 -1.3785613e-20)
(3.5134581e-06 4.9434566e-07 -1.388244e-20)
(3.486799e-06 4.708505e-07 5.4734565e-23)
(3.4221479e-06 4.2571544e-07 -2.1872032e-27)
(3.4138724e-06 3.932443e-07 1.4167041e-20)
(3.3611907e-06 3.621279e-07 -5.8774718e-39)
(3.2713572e-06 3.0833562e-07 -7.1789448e-21)
(3.2513861e-06 2.7032162e-07 -5.6880799e-23)
(3.1774377e-06 2.3412239e-07 7.3263841e-21)
(3.056644e-06 1.7894339e-07 7.3467437e-21)
(2.9978326e-06 1.3043151e-07 1.1641198e-22)
(2.9052736e-06 8.3925586e-08 7.4368394e-21)
(2.7637195e-06 2.462408e-08 5.5395171e-37)
(2.6157209e-06 -3.9241767e-08 5.9536504e-23)
(2.560834e-06 -9.1638465e-08 -7.6653649e-21)
(2.3503957e-06 -1.4915531e-07 -7.8621982e-21)
(2.0839108e-06 -2.4815793e-07 -7.7337165e-21)
(2.0371306e-06 -2.966887e-07 7.3468397e-39)
(1.7807147e-06 -3.7975077e-07 -1.3983389e-39)
(1.4282304e-06 -4.7670079e-07 4.7410075e-39)
(1.1399956e-06 -5.5280875e-07 -6.2611814e-23)
(1.0877342e-06 -6.4209093e-07 8.2261926e-21)
(5.948322e-07 -7.4369331e-07 -8.1405392e-21)
(1.5090904e-08 -8.86841e-07 -6.4108337e-23)
(-8.2287035e-08 -9.8518147e-07 -3.5873241e-43)
(-3.8060653e-07 -1.1051223e-06 -6.5022611e-23)
(-9.6568278e-07 -1.2163337e-06 8.435166e-21)
(-1.5277857e-06 -1.3356245e-06 -6.5809631e-23)
(-1.7061545e-06 -1.442205e-06 6.6028743e-23)
(-2.1126851e-06 -1.5648876e-06 -4.9281223e-38)
(-2.7734476e-06 -1.6777941e-06 7.0024566e-40)
(-3.3378743e-06 -1.7942908e-06 6.6886214e-23)
(-3.6133225e-06 -1.920077e-06 -6.7481245e-23)
(-4.0870873e-06 -2.0603497e-06 -6.7643712e-23)
(-4.9210913e-06 -2.1769349e-06 8.7526447e-21)
(-5.610403e-06 -2.2975006e-06 -9.8447652e-38)
(-5.9277442e-06 -2.4365853e-06 -1.102026e-38)
(-6.3887412e-06 -2.6109562e-06 -4.3436692e-21)
(-7.5293942e-06 -2.7151718e-06 -9.1855875e-27)
(-8.5615446e-06 -2.817831e-06 -8.9887564e-27)
(-8.8319136e-06 -2.9559344e-06 -9.0168319e-21)
(-9.104828e-06 -3.1815186e-06 -7.0153613e-23)
(-1.0477795e-05 -3.2632938e-06 1.4035489e-22)
(-1.2035445e-05 -3.312039e-06 -4.660222e-21)
(-1.2193245e-05 -3.4601841e-06 -4.3926612e-21)
(-1.2571849e-05 -3.6542452e-06 -1.0921434e-26)
(-1.3482099e-05 -3.7969416e-06 -1.4314752e-22)
(-1.5067498e-05 -3.8273155e-06 7.160806e-23)
(-1.5887282e-05 -3.9116119e-06 7.221545e-23)
(-1.6186337e-05 -4.0639563e-06 4.5669561e-21)
(-1.6503289e-05 -4.3057193e-06 9.3305268e-21)
(-1.8005809e-05 -4.3329934e-06 -4.6781102e-21)
(-1.9592032e-05 -4.3272942e-06 9.6825072e-27)
(-1.9723223e-05 -4.4959211e-06 3.6914557e-23)
(-2.0161456e-05 -4.6829741e-06 -3.7118825e-23)
(-2.0917005e-05 -4.8603952e-06 4.7621634e-21)
(-2.259831e-05 -4.8489193e-06 -4.7872873e-21)
(-2.3780322e-05 -4.8836027e-06 -3.7495579e-23)
(-2.4020824e-05 -5.0622458e-06 -4.7925763e-21)
(-2.4371094e-05 -5.315955e-06 4.8652129e-21)
(-2.5606495e-05 -5.4224567e-06 -3.5264831e-38)
(-2.768753e-05 -5.3277385e-06 -4.8511456e-21)
(-2.8624867e-05 -5.3807377e-06 9.7414352e-21)
(-2.8859825e-05 -5.5664336e-06 -4.8935752e-21)
(-2.9117036e-05 -5.8692384e-06 3.8883529e-23)
(-3.0700482e-05 -5.901377e-06 -5.0130349e-21)
(-3.3164474e-05 -5.7025931e-06 -1.0873323e-37)
(-3.3942813e-05 -5.7600874e-06 2.50825e-21)
(-3.412311e-05 -5.9534923e-06 2.5577087e-21)
(-3.4329543e-05 -6.2665495e-06 2.5415767e-21)
(-3.5870098e-05 -6.298124e-06 2.5039074e-21)
(-3.8469868e-05 -6.0435232e-06 -2.5043971e-21)
(-3.9401552e-05 -6.0645648e-06 -1.2107229e-26)
(-3.9529881e-05 -6.257791e-06 2.534188e-21)
(-3.9746195e-05 -6.5385251e-06 -7.3468397e-40)
(-4.0894134e-05 -6.6563481e-06 -6.1396334e-38)
(-4.3519531e-05 -6.365967e-06 -1.0359044e-37)
(-4.5013734e-05 -6.2669092e-06 -2.6175358e-21)
(-4.5048664e-05 -6.45749e-06 2.6321025e-21)
(-4.5299684e-05 -6.6761154e-06 -2.6444581e-21)
(-4.5715962e-05 -6.9845616e-06 4.1699204e-23)
(-4.8228866e-05 -6.6986789e-06 -6.7677317e-27)
(-5.0642733e-05 -6.4117279e-06 -2.7126083e-21)
(-5.0480711e-05 -6.6426636e-06 5.3853173e-21)
(-5.0831937e-05 -6.807014e-06 2.663257e-21)
(-5.1070061e-05 -7.1078484e-06 4.2574517e-23)
(-5.2709228e-05 -7.0489365e-06 4.2706217e-23)
(-5.5199532e-05 -6.7497292e-06 -8.5465014e-23)
(-5.5973722e-05 -6.7988433e-06 -2.7096251e-21)
(-5.6271256e-05 -6.9528813e-06 -6.9427635e-38)
(-5.6608678e-05 -7.1575496e-06 -5.5658969e-21)
(-5.7087269e-05 -7.4355511e-06 2.7614695e-21)
(-5.9349162e-05 -7.1880645e-06 8.7685045e-23)
(-6.1616586e-05 -6.9429235e-06 -4.3942227e-23)
(-6.1629499e-05 -7.1650774e-06 2.8359464e-21)
(-6.2076668e-05 -7.3193826e-06 -4.4543629e-23)
(-6.2297406e-05 -7.63205e-06 8.9536228e-23)
(-6.3557042e-05 -7.7370001e-06 -2.9286162e-21)
(-6.6746202e-05 -7.275651e-06 1.4393121e-21)
(-6.8735961e-05 -7.0768304e-06 1.3980203e-21)
(-6.8637577e-05 -7.3061428e-06 1.5014559e-21)
(-6.8826035e-05 -7.5131413e-06 1.5092861e-21)
(-6.8705199e-05 -7.9718488e-06 1.4262201e-21)
(-7.0888298e-05 -7.8373354e-06 1.4772224e-21)
(-7.5504929e-05 -7.0179844e-06 -4.5991884e-23)
(-7.7212973e-05 -6.8258771e-06 4.6110531e-23)
(-7.6758321e-05 -7.0765938e-06 -4.6528677e-23)
(-7.6643382e-05 -7.3050527e-06 1.4980669e-21)
(-7.6210179e-05 -7.8085111e-06 9.4245986e-23)
(-7.8617445e-05 -7.5675946e-06 1.5109715e-21)
(-8.3901419e-05 -6.5352702e-06 -1.5517575e-21)
(-8.5593848e-05 -6.2901253e-06 1.5082791e-21)
(-8.4820475e-05 -6.5645927e-06 -2.8698593e-42)
(-8.4711899e-05 -6.7211619e-06 1.5322164e-21)
(-8.4444711e-05 -7.0430412e-06 -3.5632173e-38)
(-8.5659989e-05 -7.0285242e-06 -1.4996928e-21)
(-8.9211898e-05 -6.3734321e-06 -4.8385423e-23)
(-9.107574e-05 -6.1096451e-06 4.8517509e-23)
(-9.0551588e-05 -6.3508516e-06 -5.1568671e-27)
(-9.0741854e-05 -6.4438702e-06 -4.9240542e-23)
(-9.0916597e-05 -6.5933198e-06 1.7006786e-38)
(-9.1332001e-05 -6.7386694e-06 2.4870738e-23)
(-9.2817737e-05 -6.5970926e-06 -2.4995285e-23)
(-9.4232893e-05 -6.5063479e-06 -7.7829957e-22)
(-9.4338778e-05 -6.6835286e-06 -2.5232091e-23)
(-9.4777984e-05 -6.7832169e-06 8.1220085e-22)
(-9.482318e-05 -7.015194e-06 9.1835496e-40)
(-9.4623775e-05 -7.4354191e-06 -8.49483e-22)
(-9.746074e-05 -7.055632e-06 8.4737416e-22)
(-0.00010183794 -6.3730646e-06 -1.6193374e-21)
(-0.00010201609 -6.5430816e-06 -5.1647309e-23)
(-0.00010151987 -6.7980116e-06 -8.0549109e-22)
(-0.00010084136 -7.1097227e-06 -8.1106276e-22)
(-9.858432e-05 -7.9883059e-06 8.4713794e-22)
(-9.903198e-05 -8.727276e-06 8.2277955e-22)
(-0.00011422209 -6.0435916e-06 -2.5724221e-23)
(-0.00012612844 -2.8075312e-06 -3.8252668e-22)
(-0.00011879892 -4.3023502e-06 2.5723627e-23)
(-0.00011651334 -4.5597145e-06 -2.60638e-23)
(-0.00011270125 -5.3725512e-06 2.6368916e-23)
(-0.00010755511 -6.9213441e-06 -2.6807821e-23)
(-0.00011533186 -5.9157049e-06 4.2063218e-22)
(-0.00014211247 4.5921541e-07 -9.1835496e-41)
(-0.00015160111 3.4309619e-06 -2.224105e-22)
(-0.00013900271 1.3114898e-06 -7.5198383e-23)
(-0.00013443704 9.2321158e-07 -2.4824283e-40)
(-0.00012735993 -3.0630568e-07 0)
(-0.00011885233 -2.5992143e-06 -4.9264399e-46)
(-0.00013283378 -2.389322e-07 3.588714e-28)
(-0.00016456456 9.0414515e-06 1.4628015e-40)
(-0.00016684759 1.1095525e-05 1.019374e-38)
(-0.00015466885 8.8099477e-06 -7.8488942e-22)
(-0.00014837127 8.0932987e-06 -1.8367099e-39)
(-0.00014046673 6.7241611e-06 8.1810455e-22)
(-0.00013201356 4.6953065e-06 -3.0305714e-39)
(-0.00014205198 6.4574496e-06 2.5401703e-23)
(-0.00016817105 1.5011727e-05 -2.4236959e-23)
(-0.00017056163 1.7172678e-05 -7.935642e-22)
(-0.00015795304 1.4588339e-05 4.8972651e-23)
(-0.00015114174 1.3649367e-05 -2.5073156e-23)
(-0.00014286956 1.2124246e-05 8.4644906e-22)
(-0.00013240575 9.9664994e-06 8.4534257e-22)
(-0.0001361575 1.0846945e-05 -2.5863782e-23)
(-0.00017235014 2.1228061e-05 -7.3563415e-22)
(-0.00018876199 2.8699157e-05 1.8261357e-26)
(-0.0001675988 2.3540132e-05 -2.3740486e-23)
(-0.00015973603 2.2425044e-05 -2.2040519e-39)
(-0.0001513528 2.0810155e-05 1.6347524e-21)
(-0.00014153868 1.8724837e-05 -2.5825422e-23)
(-0.00013474438 1.7339181e-05 -1.6800414e-21)
(-0.00015843664 2.4118286e-05 -1.2161841e-23)
(-0.00018278721 3.3653549e-05 1.1828489e-23)
(-0.00016955297 3.1087759e-05 1.9388769e-38)
(-0.00015943574 2.8975459e-05 0)
(-0.00015163098 2.7377455e-05 -7.3468397e-40)
(-0.00014464962 2.5832446e-05 -1.6434499e-21)
(-0.00013668306 2.399976e-05 -8.7243721e-39)
(-0.00013461365 2.3779981e-05 -1.6704928e-21)
(-0.0001555575 3.0559504e-05 1.5746485e-21)
(-0.00016809462 3.6563565e-05 1.545716e-21)
(-0.00015155466 3.1976818e-05 2.2040519e-39)
(-0.00014542836 3.0808173e-05 5.5090255e-27)
(-0.00013845119 2.9127522e-05 1.6866931e-21)
(-0.00013222268 2.7554627e-05 1.7136563e-21)
(-0.000124926 2.5819439e-05 -1.3729152e-23)
(-0.00012502485 2.6452984e-05 -1.7466509e-21)
(-0.00014933066 3.4423431e-05 1.6075364e-21)
(-0.00016259416 4.0955258e-05 -2.2958874e-41)
(-0.00014504574 3.5764067e-05 1.6040357e-21)
(-0.00013918457 3.4541515e-05 1.3043947e-23)
(-0.00013233717 3.2748948e-05 4.7950486e-27)
(-0.00012678358 3.1229843e-05 1.3666799e-23)
(-0.00012073051 2.9698342e-05 1.7762042e-21)
(-0.0001190527 2.9939905e-05 -1.4693679e-39)
(-0.00013429629 3.51852e-05 -1.3071131e-23)
(-0.00014784265 4.1089772e-05 1.2936579e-23)
(-0.00013862344 3.883847e-05 -1.6509763e-21)
(-0.00013114992 3.682799e-05 -1.3388517e-23)
(-0.00012531039 3.5234747e-05 1.3726498e-23)
(-0.00012025263 3.3757973e-05 1.7817686e-21)
(-0.00011555355 3.2309669e-05 -2.2040519e-38)
(-0.00011138846 3.1420565e-05 1.2535053e-44)
(-0.00011326567 3.285646e-05 6.4522508e-40)
(-0.00012726855 3.7891014e-05 1.4693679e-39)
(-0.00013316518 4.1177302e-05 -1.7389079e-21)
(-0.00012173238 3.7444088e-05 -3.2296172e-27)
(-0.00011736889 3.6282369e-05 -3.0419652e-27)
(-0.00011217663 3.4695334e-05 2.9075087e-23)
(-0.00010797478 3.3377913e-05 -2.9716752e-23)
(-0.00010404162 3.2090698e-05 1.5169963e-23)
(-0.00010085896 3.1420852e-05 -3.9418236e-21)
(-0.00010401853 3.3593586e-05 1.9102822e-21)
(-0.00012001268 3.931442e-05 8.2651947e-39)
(-0.00012727627 4.3395147e-05 1.7680157e-21)
(-0.00011537618 3.9281137e-05 0)
(-0.00011157544 3.8231508e-05 3.7474344e-21)
(-0.00010687039 3.6702825e-05 -5.8774718e-39)
(-0.00010332802 3.553826e-05 -1.4693679e-39)
(-0.00010009959 3.4461768e-05 -9.942496e-22)
(-9.7597602e-05 3.3752665e-05 1.009465e-21)
(-9.7493582e-05 3.4265551e-05 0)
(-0.00010344263 3.6737667e-05 7.5270749e-24)
(-0.00010990293 3.9748698e-05 9.4707611e-22)
(-0.0001070662 3.9162553e-05 9.5870223e-22)
(-0.000101923 3.7398429e-05 0)
(-9.866859e-05 3.6310022e-05 -1.0032246e-21)
(-9.5519413e-05 3.5221343e-05 -1.1754944e-38)
(-9.2840957e-05 3.4292516e-05 -2.9387359e-39)
(-9.0591729e-05 3.3516137e-05 1.0547644e-21)
(-8.9041836e-05 3.3113782e-05 -8.3228526e-24)
(-8.9459273e-05 3.3775199e-05 1.0694248e-21)
(-9.4070852e-05 3.5911687e-05 -1.5912879e-23)
(-9.8989782e-05 3.8096933e-05 7.8991096e-24)
(-9.6852522e-05 3.7569835e-05 -3.9695284e-24)
(-9.2530165e-05 3.6015965e-05 1.0488419e-21)
(-8.974003e-05 3.502337e-05 2.0243819e-28)
(-8.6949229e-05 3.400403e-05 -4.2255376e-24)
(-8.4548029e-05 3.3132888e-05 -1.1002159e-21)
(-8.2637023e-05 3.2427805e-05 2.2351423e-21)
(-8.1448007e-05 3.2043838e-05 -5.8774718e-39)
(-8.1273784e-05 3.2387459e-05 0)
(-8.4458199e-05 3.4623454e-05 2.1594192e-21)
(-9.3245567e-05 3.8244679e-05 3.9713407e-24)
(-9.8135583e-05 4.073408e-05 1.0149565e-21)
(-9.1952759e-05 3.8403222e-05 4.0809666e-24)
(-8.9385095e-05 3.7502157e-05 0)
(-8.6505636e-05 3.6420335e-05 -1.089673e-21)
(-8.4314377e-05 3.5586434e-05 2.0873189e-28)
(-8.2298399e-05 3.482754e-05 -2.2001509e-24)
(-8.0649816e-05 3.4226639e-05 -1.549724e-40)
(-7.9405726e-05 3.3809245e-05 1.6805896e-38)
(-7.8715074e-05 3.368943e-05 -5.6051939e-45)
(-7.9083267e-05 3.4194204e-05 1.8185942e-27)
(-8.1330289e-05 3.5442727e-05 6.4796041e-42)
(-8.3867947e-05 3.6609522e-05 2.9387359e-39)
(-8.2907352e-05 3.624254e-05 -5.6185798e-22)
(-8.0077879e-05 3.5127585e-05 5.7180813e-22)
(-7.8346883e-05 3.4447854e-05 1.1367789e-24)
(-7.6551123e-05 3.3730076e-05 5.9180553e-22)
(-7.5020662e-05 3.3121084e-05 -1.1689259e-24)
(-7.3642921e-05 3.2589925e-05 -6.0627065e-22)
(-7.2557474e-05 3.2199009e-05 -2.9093772e-29)
(-7.1899825e-05 3.1982941e-05 -1.2324492e-21)
(-7.1717252e-05 3.2057914e-05 6.149843e-22)
(-7.219166e-05 3.2643002e-05 0)
(-7.4245992e-05 3.4026706e-05 -1.4092189e-25)
(-7.7925268e-05 3.5657302e-05 1.4079453e-25)
(-7.9371054e-05 3.622301e-05 -2.9387359e-39)
(-7.5634282e-05 3.4743523e-05 5.9426673e-22)
(-7.4234282e-05 3.4184236e-05 -6.0525385e-22)
(-7.2330002e-05 3.3401184e-05 3.0020133e-25)
(-7.0877211e-05 3.2797253e-05 1.4349296e-42)
(-6.9487132e-05 3.2225256e-05 6.1728722e-25)
(-6.8315493e-05 3.1754629e-05 2.4758641e-29)
(-6.7367076e-05 3.1387424e-05 -6.3090508e-25)
(-6.6733549e-05 3.1179121e-05 6.5087622e-22)
(-6.6478802e-05 3.1190249e-05 -6.5118325e-22)
(-6.6638498e-05 3.1493517e-05 1.2951517e-21)
(-6.7450635e-05 3.2262326e-05 -1.245506e-24)
(-6.9433136e-05 3.3506889e-05 1.2189542e-24)
(-7.1877265e-05 3.4564621e-05 -3.0909594e-22)
(-7.197133e-05 3.4458328e-05 0)
(-6.8979236e-05 3.3242171e-05 6.3429503e-22)
(-6.7450276e-05 3.2589522e-05 1.2657383e-24)
(-6.5619861e-05 3.1793657e-05 -3.3136088e-22)
(-6.4119604e-05 3.1125468e-05 1.3112452e-24)
(-6.2662521e-05 3.0474998e-05 3.4105064e-22)
(-6.1350835e-05 2.9886203e-05 -3.4764539e-22)
(-6.0162978e-05 2.9338961e-05 1.3718034e-24)
(-5.9111555e-05 2.8864243e-05 1.3891963e-24)
(-5.8225205e-05 2.8489098e-05 -1.4047354e-24)
(-5.754478e-05 2.824046e-05 -3.8054334e-39)
(-5.7092443e-05 2.8133035e-05 5.6051939e-45)
(-5.6882755e-05 2.8211421e-05 -6.6193529e-29)
(-5.7057871e-05 2.8549662e-05 -3.6446151e-22)
(-5.7816009e-05 2.9054414e-05 1.4031615e-24)
(-5.8671457e-05 2.930597e-05 3.5952154e-22)
(-5.821094e-05 2.893913e-05 0)
(-5.6597273e-05 2.8285888e-05 -1.4380873e-24)
(-5.5745097e-05 2.7960261e-05 -3.717146e-22)
(-5.4946082e-05 2.7694051e-05 1.8708446e-22)
(-5.453134e-05 2.7628486e-05 2.9658336e-24)
(-5.4405872e-05 2.7723525e-05 -2.9617878e-24)
(-5.4619564e-05 2.800598e-05 1.4708114e-24)
(-5.5190602e-05 2.850439e-05 0)
(-5.6156832e-05 2.9246711e-05 3.6611467e-22)
(-5.7547961e-05 3.0262733e-05 -3.5752961e-22)
(-5.9398085e-05 3.1590735e-05 1.7319491e-22)
(-6.1768804e-05 3.3266024e-05 -1.6776055e-22)
(-6.4702883e-05 3.5276588e-05 6.2636444e-25)
(-6.8079306e-05 3.7587451e-05 1.5313982e-22)
(-7.1870483e-05 4.0322984e-05 2.9098233e-22)
(-7.6884888e-05 4.3416006e-05 2.6993691e-25)
(-8.2979649e-05 4.5449377e-05 -1.0350137e-26)
(-8.4592937e-05 4.6643639e-05 -1.25253e-22)
(-8.5221999e-05 5.2781571e-05 5.7752875e-26)
(-3.8650918e-05 -3.9874889e-06 -1.102026e-39)
(-3.5637926e-05 -3.3251906e-06 -3.0704947e-24)
(-3.6574971e-05 -3.1840133e-06 3.0743213e-24)
(-3.5055036e-05 -2.4960262e-06 -6.3043503e-21)
(-3.3377133e-05 -2.0484775e-06 4.4411646e-37)
(-3.2405204e-05 -1.6861883e-06 -3.0887158e-24)
(-3.0655652e-05 -1.2772407e-06 -6.3318617e-21)
(-2.9543122e-05 -1.1310587e-06 3.1688932e-21)
(-2.9411311e-05 -1.0987766e-06 3.1773499e-21)
(-2.9059839e-05 -1.0448932e-06 -3.1758908e-21)
(-2.8733863e-05 -1.0062038e-06 -3.103028e-24)
(-2.852383e-05 -9.8928227e-07 -3.1786615e-21)
(-2.8528516e-05 -1.0028649e-06 1.5523913e-24)
(-2.8646092e-05 -1.003538e-06 3.1813214e-21)
(-2.8633759e-05 -9.7210855e-07 3.1800869e-21)
(-2.8675453e-05 -9.2789355e-07 -6.3609034e-21)
(-2.8392413e-05 -8.0739339e-07 -6.9779694e-30)
(-2.79039e-05 -6.9812145e-07 -3.1821724e-21)
(-2.7696351e-05 -6.2293438e-07 3.1831008e-21)
(-2.7486423e-05 -5.3999763e-07 -3.183817e-21)
(-2.706455e-05 -4.3984055e-07 -1.5923659e-21)
(-2.6772355e-05 -3.8720023e-07 -1.5928572e-21)
(-2.6736102e-05 -3.3866736e-07 3.1870198e-21)
(-2.6459368e-05 -2.6180872e-07 -1.5560529e-24)
(-2.6212177e-05 -2.1764009e-07 -7.9571371e-22)
(-2.6304445e-05 -1.7894115e-07 -7.973463e-22)
(-2.5990574e-05 -8.0202472e-08 3.9852319e-22)
(-2.5549287e-05 -1.6117583e-08 -9.9660551e-23)
(-2.550059e-05 3.8542743e-08 -2.5111268e-42)
(-2.5082276e-05 1.2659895e-07 7.9756287e-22)
(-2.4711406e-05 1.6480965e-07 -1.5956032e-21)
(-2.4754321e-05 2.012267e-07 -7.9789289e-22)
(-2.4521337e-05 2.6517616e-07 -1.5959374e-21)
(-2.4183277e-05 3.1203938e-07 -5.5388284e-39)
(-2.4148305e-05 3.6001861e-07 5.7397185e-41)
(-2.3697507e-05 4.4754052e-07 1.5959408e-21)
(-2.3169524e-05 4.8640008e-07 -3.1945387e-21)
(-2.3050338e-05 5.2900267e-07 3.1959282e-21)
(-2.2706183e-05 5.7751651e-07 -3.1956801e-21)
(-2.2360255e-05 6.0653893e-07 -3.1964441e-21)
(-2.2228626e-05 6.4153093e-07 -3.0372402e-37)
(-2.190371e-05 6.9592113e-07 -3.1958713e-21)
(-2.1344463e-05 7.4296489e-07 -3.1983524e-21)
(-2.0859088e-05 7.8098947e-07 -3.200963e-21)
(-2.038015e-05 8.3147549e-07 1.5627795e-24)
(-1.9438769e-05 8.7563428e-07 -3.1267928e-24)
(-1.845505e-05 8.7558618e-07 -1.2813881e-20)
(-1.7626601e-05 8.7164292e-07 -6.4114754e-21)
(-1.662768e-05 8.2343391e-07 7.1746481e-43)
(-1.5935699e-05 7.4691919e-07 -6.422769e-21)
(-1.5446655e-05 6.6055354e-07 -2.705756e-28)
(-1.5028433e-05 5.5461377e-07 3.2158938e-21)
(-1.4586269e-05 4.2010037e-07 -3.2140063e-21)
(-1.4763255e-05 2.4567494e-07 -3.2144488e-21)
(-1.5287448e-05 8.2092213e-08 3.1391727e-24)
(-1.5585914e-05 -1.2667762e-07 -6.278065e-24)
(-1.6202565e-05 -3.6598021e-07 3.1384384e-24)
(-1.7131829e-05 -6.3820561e-07 3.2096797e-21)
(-1.8230458e-05 -9.6335938e-07 3.136376e-24)
(-1.9510042e-05 -1.3291798e-06 -6.4234717e-21)
(-2.0906859e-05 -1.7359786e-06 3.1334015e-24)
(-2.2638514e-05 -2.1961283e-06 -1.2829276e-20)
(-2.4336754e-05 -2.7131403e-06 3.1291295e-24)
(-2.7284332e-05 -3.3726093e-06 1.2796764e-20)
(-2.9620842e-05 -4.1493319e-06 -1.2780758e-20)
(-3.7225677e-05 -5.1337567e-06 6.2344526e-24)
(-3.1382074e-05 -5.3226768e-06 1.271853e-20)
(-6.8655363e-05 -1.1110577e-05 -1.1619027e-36)
(-5.6137656e-05 6.4264318e-06 6.056531e-21)
(-0.0001181503 -8.6174176e-05 -9.373097e-22)
(-8.8446486e-05 -5.6323811e-05 3.4258828e-23)
(-8.9630363e-05 -5.4198164e-05 -7.1789553e-27)
(-0.00010318466 -6.0574134e-05 -3.6754538e-21)
(-0.0001584158 -9.9609434e-05 1.5510905e-21)
(-0.0001339788 -6.3423759e-05 -1.5122433e-21)
(-1.9114597e-05 1.768641e-06 -5.8774718e-39)
(-1.7679407e-05 -2.4631837e-07 4.4978807e-21)
(-2.2779818e-05 -4.2491389e-06 3.893825e-38)
(5.6475726e-06 4.9823771e-06 3.7700136e-21)
(-3.6570672e-07 3.4447485e-06 1.7566386e-26)
(-1.3558707e-05 -8.0051521e-08 1.1150665e-26)
(-2.1327258e-05 -1.7676664e-06 -2.0237389e-23)
(-3.0987145e-05 -4.2063792e-06 -4.6368606e-21)
(-3.6783084e-05 -5.4159582e-06 -4.2236834e-21)
(-3.7020908e-05 -5.1126398e-06 -3.8759419e-21)
(-3.7248625e-05 -5.1724643e-06 -1.4013744e-23)
(-4.2059622e-05 -6.2314336e-06 -6.4661571e-24)
(-3.9788878e-05 -4.9057882e-06 -6.0206944e-21)
(-3.6388803e-05 -4.3397605e-06 5.5395973e-24)
(-4.035119e-05 -5.1323137e-06 5.3812432e-21)
(-1.8788005e-06 -1.1737074e-05 5.5643778e-22)
(-2.7490769e-06 -1.7909696e-05 -1.8367099e-40)
(-3.9910326e-06 -2.5891555e-05 1.033979e-21)
(-6.2072213e-06 -3.6155485e-05 -9.7880717e-22)
(-9.0399578e-06 -4.0075693e-05 -9.3197907e-22)
(-1.0036752e-05 -4.3037565e-05 8.9453823e-22)
(-1.2606571e-05 -5.2291648e-05 -1.4693679e-39)
(-1.5432802e-05 -6.1509581e-05 2.4403745e-23)
(-2.1766296e-05 -8.6451994e-05 -7.1988604e-22)
(-3.2074667e-05 -9.0200098e-05 -4.3285446e-23)
(-3.158119e-05 -7.077252e-05 4.7797193e-27)
(-3.2255413e-05 -6.7431896e-05 -1.4474083e-21)
(-3.8093063e-05 -7.8288281e-05 1.3848227e-21)
(-4.7130437e-05 -9.4423441e-05 1.2669795e-21)
(-4.9975079e-05 -9.0383114e-05 0)
(-4.9388417e-05 -8.5118652e-05 2.4643015e-21)
(-5.7988757e-05 -9.7665096e-05 -9.5704009e-27)
(-6.7174625e-05 -0.00010915411 3.1542648e-23)
(-9.6782123e-05 -0.00016142866 -3.5262999e-21)
(-9.8221502e-05 -0.00012604906 -2.779415e-23)
(-6.4151008e-05 -6.6662403e-05 4.6607163e-21)
(-6.8496198e-05 -6.8353612e-05 1.1754944e-38)
(-8.4185667e-05 -8.4283915e-05 0)
(-0.00011050005 -0.0001129853 0)
(-9.9429872e-05 -8.9627309e-05 -2.9666927e-23)
(-7.1918757e-05 -5.5768201e-05 3.6374849e-23)
(-7.8762994e-05 -5.9521733e-05 2.2260908e-21)
(-9.1825365e-05 -6.863448e-05 -1.9346368e-21)
(-0.00012456412 -9.7844725e-05 2.9387359e-39)
(-6.0183463e-07 -2.7088768e-06 3.5830301e-23)
(-6.4166839e-07 7.0786145e-06 -6.130516e-22)
(-1.3987801e-06 1.3857361e-05 1.102026e-39)
(-2.45911e-06 2.1834824e-05 7.3468397e-40)
(-4.4195052e-06 2.6776715e-05 -9.6551613e-22)
(-5.7153153e-06 3.1088147e-05 -8.8538476e-22)
(-6.9604268e-06 3.6815387e-05 -7.9700896e-22)
(-8.4755683e-06 4.4189728e-05 -1.6530389e-39)
(-1.1324262e-05 5.1325381e-05 -5.7573763e-22)
(-1.2812899e-05 7.0589822e-05 4.7605516e-27)
(-1.9830684e-05 7.2908238e-05 1.0477476e-21)
(-2.2811767e-05 6.1898668e-05 2.0571151e-38)
(-2.4759117e-05 6.0586435e-05 1.7308461e-23)
(-2.7546984e-05 6.5840853e-05 -1.5716418e-23)
(-3.1148998e-05 7.1841854e-05 4.5585776e-22)
(-3.491171e-05 8.4887559e-05 -4.1909963e-22)
(-3.8934225e-05 8.8957558e-05 -8.0157692e-22)
(-4.0612014e-05 8.1956985e-05 -4.2322288e-22)
(-4.2183724e-05 7.9717051e-05 -4.0667846e-22)
(-4.5146937e-05 8.2986232e-05 -3.6545141e-22)
(-4.9271405e-05 8.879518e-05 3.3239127e-22)
(-5.4536571e-05 9.7608019e-05 -9.6396058e-24)
(-6.159784e-05 0.00010608707 -5.2591488e-22)
(-7.0275103e-05 0.00013458384 2.4770097e-22)
(-7.6162095e-05 0.00013776667 -8.9417255e-24)
(-6.7673076e-05 8.8964757e-05 1.2100187e-23)
(-6.0216951e-05 6.8870084e-05 -4.6362719e-22)
(-5.9249728e-05 6.522005e-05 -7.8645685e-24)
(-6.322074e-05 6.6299655e-05 4.8691314e-22)
(-6.9297992e-05 7.137675e-05 0)
(-7.6374368e-05 7.8861098e-05 0)
(-8.4904601e-05 9.1849706e-05 2.9387359e-39)
(-9.075921e-05 0.00010665299 3.6661298e-22)
(-8.2750119e-05 9.1927491e-05 6.8292219e-24)
(-6.8199502e-05 6.0287562e-05 -5.7259031e-22)
(-6.0419188e-05 4.8209057e-05 6.7960042e-22)
(-5.7903783e-05 4.4123984e-05 7.3904717e-22)
(-5.975323e-05 4.3234573e-05 7.2468705e-22)
(-6.3983315e-05 4.6125326e-05 2.157566e-23)
(-6.882957e-05 5.0876535e-05 3.0920882e-22)
(-7.394193e-05 5.6575892e-05 5.879445e-22)
(-7.9711321e-05 6.2444084e-05 -5.8774718e-39)
(-8.6980255e-05 7.054812e-05 -7.7311875e-24)
(-9.2722628e-05 8.4415221e-05 -2.5105421e-22)
(-8.379078e-05 7.6464871e-05 6.1470869e-22)
(-6.4161329e-05 4.6244476e-05 -1.2752068e-23)
(-5.3036768e-05 3.2434868e-05 -5.0724652e-22)
(-4.7727297e-05 2.5862689e-05 6.2366221e-22)
(-4.5740429e-05 2.1893763e-05 -6.6242497e-22)
(-4.521868e-05 2.0529772e-05 2.0866321e-23)
(-4.572217e-05 2.0949116e-05 1.2917738e-21)
(-4.6459156e-05 2.2186411e-05 6.3677474e-22)
(-4.7791641e-05 2.380636e-05 1.2259026e-21)
(-4.9829637e-05 2.5803365e-05 -1.8340507e-23)
(-5.2547426e-05 2.7997226e-05 1.7507636e-23)
(-5.5848438e-05 3.0399964e-05 2.6612008e-22)
(-6.0237921e-05 3.3607121e-05 1.5580413e-23)
(-6.2333546e-05 3.8885687e-05 -1.5117631e-23)
(-6.9971168e-05 2.3634986e-05 2.1230084e-22)
)
;
    }
    Outlet
    {
        type            calculated;
        value           uniform (0 0 0);
    }
}


// ************************************************************************* //
