/*--------------------------------*- C++ -*----------------------------------*\
| =========                 |                                                 |
| \\      /  F ield         | OpenFOAM: The Open Source CFD Toolbox           |
|  \\    /   O peration     | Version:  v2006                                 |
|   \\  /    A nd           | Website:  www.openfoam.com                      |
|    \\/     M anipulation  |                                                 |
\*---------------------------------------------------------------------------*/
FoamFile
{
    version     2.0;
    format      ascii;
    class       volScalarField;
    location    "10000";
    object      yPlus;
}
// * * * * * * * * * * * * * * * * * * * * * * * * * * * * * * * * * * * * * //

dimensions      [0 0 0 0 0 0 0];


internalField   uniform 0;

boundaryField
{
    Side
    {
        type            empty;
    }
    Ground
    {
        type            calculated;
        value           nonuniform List<scalar> 
519
(
1.1946687
1.2042525
1.2148692
1.2277457
1.2427145
1.2600648
1.2787898
1.2989243
1.3267324
1.3583088
1.3628042
1.3989769
1.6047488
1.5873855
1.6415664
1.592082
1.5470538
1.5031382
1.4611575
1.4210903
1.3830382
1.3472141
1.3138032
1.2831168
1.2555375
1.2314558
1.2116373
1.1977206
1.6680359
1.6708093
1.6732036
1.6751005
1.676452
1.6773104
1.6775138
1.6768951
1.6753258
1.6726863
1.6688442
1.6636424
1.6568867
1.6483373
1.6376979
1.6246071
1.6086372
1.5892805
1.56595
1.5379413
1.504577
1.4649538
1.4177665
1.3623266
1.2966077
1.2185597
1.1278389
1.0204962
0.88978653
0.72253821
0.4714913
0.13940512
0.55077028
0.76997421
0.93945714
1.0952025
1.2195355
1.3065956
1.3872394
1.4612352
1.5284135
1.5882494
1.6427721
1.6912793
1.734907
1.7736208
1.807442
1.8365734
1.86193
1.8842225
1.9039349
1.9214393
1.9367588
1.9500669
1.9619298
1.9727102
1.9823922
1.9910602
1.9990248
2.0062907
2.0127304
2.0184382
2.023543
2.0281218
2.0322359
2.0359393
2.0392822
2.0423013
2.0450341
2.0474941
2.0496878
2.0516102
2.0534065
2.0549635
1.780706
1.7427834
1.7151969
1.7010505
1.684739
1.6713589
1.6595615
1.6499709
1.6417172
1.6347109
1.6287019
1.6237726
1.6196916
1.6162583
1.6133771
1.6108201
1.6085671
1.6064759
1.6045416
1.6026965
1.6009385
1.599089
1.597246
1.5951746
1.5929824
1.5905693
1.5878968
1.584896
1.5813971
1.5776318
1.5733414
1.5684793
1.5631233
1.5571455
1.550688
1.5435987
1.5356173
1.5269392
1.5171876
1.5063232
1.4948824
1.4827516
1.4696029
1.4555207
1.4402156
1.4233965
1.4052488
1.3860496
1.366223
1.3462645
1.3253271
1.3038704
1.2809841
1.2564622
1.229888
1.2012804
1.1716464
1.1427921
1.1157753
1.0895454
1.0622888
1.0332747
1.0016698
0.96656854
0.9272625
0.88378595
0.83290958
0.77636561
0.72299521
0.67522633
0.63239031
0.58948688
0.54870636
0.50749725
0.46588365
0.428128
0.40968049
0.42967133
0.48030106
0.53726347
0.58819203
0.63080628
0.66588445
0.69658586
0.72646677
0.75883549
0.79466086
0.8321388
0.8698781
0.90610168
0.93940254
0.96820126
0.99218858
1.0123388
1.0301139
1.0472988
1.0645061
1.0822533
1.1006897
1.1198032
1.1392139
1.1577102
1.1750642
1.1911349
1.2060131
1.2198204
1.232004
1.2425909
1.252043
1.2611478
1.2709905
1.2820779
1.2942909
1.3069946
1.3189367
1.3291727
1.3371967
1.3432111
1.3488511
1.3555804
1.364446
1.3752351
1.3864497
1.3966789
1.4053679
1.4132152
1.4217855
1.4321933
1.4442286
1.4572236
1.4702457
1.4830539
1.4960928
1.5097685
1.5241563
1.539202
1.5545569
1.5701938
1.5861862
1.6022851
1.6184301
1.6345967
1.6505589
1.6664602
1.6824757
1.6981794
1.7132043
1.7273716
1.740852
1.7544288
1.7684208
1.7822329
1.7955057
1.8082596
1.8202645
1.8315075
1.8421256
1.8521407
1.8614728
1.8701917
1.8782205
1.8854359
1.8920649
1.898353
1.9040511
1.9091766
1.9136268
1.9172385
1.920185
1.9235071
1.9272593
1.930282
1.9329646
1.9349319
1.9361155
1.9373534
1.939915
1.9429354
1.9453789
1.9474956
1.9489274
1.9496042
1.9507784
1.9537656
1.9570378
1.9596664
1.9620129
1.9639394
1.9652244
1.9668314
1.9698078
1.973024
1.9757221
1.9781352
1.9801533
1.9817635
1.9835026
1.9868305
1.9911693
1.9947552
1.9982013
2.0013275
2.0042014
2.0067466
2.0100675
2.0146235
2.0188269
2.0227984
2.0265306
2.0300987
2.0333386
2.0361646
2.039578
2.0439932
2.0481735
2.0519585
2.0551128
2.0584781
2.0618565
2.0646238
2.0680688
2.0725268
2.0763832
2.0801097
2.0835953
2.0869034
2.0899855
2.0928162
2.0960251
2.0999074
2.1035761
2.1070428
2.1103026
2.1133718
2.1162588
2.1189363
2.1214481
2.1243475
2.1276304
2.1305558
2.1333613
2.1359538
2.1383788
2.1406357
2.1427
2.1445834
2.146848
2.1495604
2.1519865
2.1543519
2.1565112
2.1585186
2.1603655
2.1620534
2.1635748
2.1651257
2.1669037
2.1686476
2.1702237
2.1716747
2.1729869
2.1741509
2.1751755
2.1760791
2.1768462
2.1775943
2.1784685
2.1792969
2.1799806
2.180552
2.1810026
2.1813332
2.1815479
2.1816635
2.1816684
2.181557
2.1815842
2.1818345
2.1819331
2.1819437
2.1818344
2.1816307
2.1813266
2.1809222
2.1804252
2.1798418
2.1791596
2.1784414
2.1777693
2.1770616
2.1762525
2.1753625
2.1743849
2.1733297
2.1721908
2.1709758
2.1696873
2.1683273
2.1668992
2.1654096
2.1639729
2.1626116
2.1611597
2.1596579
2.1580893
2.1564649
2.1547792
2.1530386
2.1512434
2.1493983
2.1475035
2.1455642
2.1435744
2.1415562
2.1395799
2.1376293
2.1356188
2.133567
2.1314675
2.1293302
2.1271507
2.1249319
2.1226788
2.1203917
2.1180694
2.1157174
2.1133389
2.1109303
2.1084946
2.1060508
2.1036256
2.1012002
2.0987404
2.0962573
2.0937503
2.0912215
2.0886706
2.0861001
2.0835111
2.0809053
2.0782829
2.0756468
2.0729993
2.0703417
2.0676748
2.0650069
2.0623524
2.0596886
2.0570066
0.91209088
0.93022361
0.94556951
0.95724145
0.96398001
0.96374798
0.95315362
0.9270637
0.88162918
0.82309911
0.77591469
0.76678244
0.7906384
0.82485318
0.86165066
0.90087003
0.94214844
0.98562137
1.0316631
1.0804638
1.1321256
1.186531
1.2433419
1.302768
1.3656706
1.4320885
1.501604
1.5731003
1.6447332
1.7136542
1.7769001
1.8321045
1.8766381
1.9082136
1.9252938
1.9282599
1.9193485
1.9019772
1.8802129
1.8572848
1.8358161
1.8218869
1.8108957
1.7910663
0.89207303
0.87231682
0.85437952
0.83822202
0.82371149
0.81066255
0.79887029
0.78814053
0.77831218
0.76926722
0.76091231
0.75316524
0.74597134
0.73926707
0.73304176
0.72719076
0.72182601
0.71660992
0.71216069
0.70717304
0.70408518
0.69806573
0.69801367
0.69061636
)
;
    }
    Inlet
    {
        type            calculated;
        value           uniform 0;
    }
    Airfoil
    {
        type            calculated;
        value           nonuniform List<scalar> 
527
(
1.5390074
1.8225264
1.8553774
1.6352349
1.6095591
1.5166602
1.4531534
1.4047224
1.3813274
1.3644975
1.3506832
1.3333416
1.3182325
1.3008497
1.283559
1.2673008
1.2495451
1.2341887
1.2173892
1.2027032
1.1866496
1.1719953
1.1558745
1.1413121
1.1255876
1.1099539
1.0947821
1.0784828
1.063338
1.0473896
1.0309807
1.0153194
0.99917338
0.9822244
0.96708015
0.94966279
0.93132219
0.91777357
0.8978838
0.87736441
0.86324542
0.84163169
0.81703756
0.79911707
0.77596406
0.74814137
0.71961922
0.70253117
0.66459467
0.62055965
0.60599594
0.56008818
0.50015288
0.44794051
0.43730454
0.35676784
0.33105682
0.34788646
0.38529588
0.4615993
0.53597386
0.55715616
0.60175047
0.66754562
0.71902214
0.73937121
0.77477732
0.83534511
0.88189666
0.8972422
0.92161049
0.98585272
1.0433965
1.0498633
1.0573732
1.1182309
1.1936693
1.1919133
1.1999552
1.2300219
1.2915596
1.3191083
1.3203897
1.3229679
1.3674705
1.4230165
1.4167798
1.4211896
1.4357368
1.4821775
1.5149264
1.5113247
1.5114687
1.5365517
1.5917625
1.6124387
1.6078743
1.6045305
1.6346106
1.6962753
1.7103774
1.7040544
1.6989438
1.7244128
1.7832732
1.8004434
1.7929066
1.7877227
1.8023332
1.8540444
1.8844343
1.8751548
1.8704884
1.8695
1.9101157
1.9604539
1.9478988
1.9451138
1.940562
1.9611146
2.0052713
2.0142475
2.0104791
2.007546
2.0072971
2.0375645
2.0770377
2.0687065
2.0675711
2.0630177
2.0750433
2.1227107
2.1554091
2.1459314
2.140982
2.1317921
2.1568293
2.2288519
2.2571769
2.2434516
2.2347655
2.221991
2.2491082
2.3288712
2.3572545
2.3404639
2.3328245
2.3232652
2.3336641
2.3810414
2.4088141
2.3963822
2.39337
2.3902168
2.3902667
2.4045815
2.4212656
2.4174278
2.4178336
2.4133437
2.4060636
2.4362286
2.4953938
2.4969257
2.4863863
2.4736613
2.4420706
2.4440442
2.6263537
2.8037966
2.7184659
2.6897671
2.6430398
2.5805066
2.6692782
3.0016376
3.1547542
3.0211335
2.9719687
2.8931184
2.7958322
2.9563359
3.3527462
3.4240649
3.3002625
3.2369143
3.1532401
3.0603337
3.1799809
3.508259
3.5770511
3.4482403
3.3802835
3.2926293
3.1752212
3.2278023
3.6681904
3.9159062
3.6972209
3.6208537
3.534317
3.4266682
3.3527563
3.6519624
3.9862935
3.8616215
3.7575706
3.6770515
3.6032218
3.513658
3.4994269
3.7826037
3.977764
3.7878353
3.7250277
3.6473826
3.5765907
3.4883905
3.5042182
3.8519213
4.0572763
3.8438073
3.7811933
3.7009493
3.6358067
3.5612444
3.552008
3.7913856
4.0011268
3.8893596
3.7983669
3.7276643
3.6655752
3.6064784
3.5555392
3.6025813
3.8362293
3.9355538
3.7758909
3.7229208
3.6536018
3.5978894
3.5445273
3.504456
3.5776348
3.8584652
3.973863
3.7967427
3.7492772
3.683588
3.6357083
3.591709
3.560268
3.5741346
3.6968958
3.8159475
3.7716382
3.6935129
3.6476537
3.6020062
3.5637921
3.5327298
3.5154026
3.5386821
3.6433797
3.7388881
3.7006375
3.6296516
3.5869352
3.5427075
3.5051143
3.4765318
3.4629319
3.4732915
3.5583112
3.7508924
3.8258276
3.7118225
3.672158
3.624688
3.5900873
3.5583274
3.5337475
3.5175795
3.5139009
3.5350579
3.5974196
3.6532916
3.6300538
3.578322
3.5499411
3.5193245
3.4940078
3.4717519
3.455965
3.4499621
3.4560829
3.4799009
3.54182
3.6362068
3.6481281
3.5715756
3.5478097
3.5116546
3.4853332
3.4600401
3.4396373
3.4244518
3.4171474
3.4198884
3.4342874
3.4668205
3.5280401
3.5885167
3.5713306
3.5056022
3.4748286
3.4358436
3.4042588
3.3731621
3.345206
3.3198897
3.2979726
3.2805105
3.2688662
3.2638937
3.2665407
3.2807321
3.3100691
3.3305729
3.3075425
3.2688769
3.2513442
3.2356917
3.2311173
3.2352291
3.2495652
3.2749143
3.3123469
3.3626513
3.4265981
3.5052828
3.5987572
3.7033072
3.8178126
3.9549665
4.1026087
4.1597241
4.2157079
1.8207834
1.7402241
1.7545678
1.7070259
1.6581916
1.6271243
1.5764292
1.5447046
1.5391237
1.5279647
1.5177158
1.5107598
1.5097463
1.511537
1.5096903
1.5092016
1.4997209
1.485126
1.4782405
1.4713556
1.4588445
1.4501482
1.448465
1.4402521
1.4330545
1.4352048
1.4262232
1.4139109
1.4125299
1.4009758
1.3907981
1.3922913
1.3861569
1.3770893
1.3767082
1.3647319
1.3503317
1.3477986
1.3388355
1.3297054
1.3269599
1.3187498
1.3035058
1.2903108
1.2774124
1.2500026
1.2200452
1.194353
1.161614
1.1378672
1.1203676
1.1044802
1.0865746
1.0893553
1.1042238
1.1094932
1.1243569
1.1476537
1.1738586
1.2031289
1.2331394
1.2696971
1.301601
1.3611802
1.3982399
1.5529238
1.4096345
2.0098137
2.1727069
4.1459685
3.486015
3.4552174
3.6645499
4.5586711
3.8288979
1.3093554
1.2688263
1.4233867
0.77342006
0.46524524
1.0636844
1.3437881
1.6302748
1.7794209
1.7819214
1.792401
1.9111674
1.8489828
1.7728414
1.8737581
1.0289729
1.2674835
1.5214986
1.8095201
1.9438764
2.0130369
2.2190983
2.4074424
2.857476
3.0414246
2.7563128
2.7104811
2.9337391
3.2461427
3.2332526
3.1679474
3.4183537
3.6466395
4.4495444
4.1058503
3.1449975
3.2382409
3.6263054
4.2148913
3.8485361
3.2099179
3.3798537
3.685695
4.3930279
0.47739965
0.82052459
1.2199706
1.6008756
1.8150941
2.047607
2.3225615
2.6441928
2.9564952
3.5794506
3.4822004
3.2941591
3.3669459
3.6061135
3.8666545
4.2878177
4.25993
4.1720477
4.2177968
4.3921731
4.6303855
4.9377284
5.2457864
5.9012413
4.9902456
4.2974631
3.9209137
3.8893597
4.0104635
4.220786
4.4743268
4.8222872
4.7909593
4.069833
3.5314156
3.2694225
3.1953193
3.2380341
3.3684574
3.5304158
3.7050734
3.8865634
4.108582
4.1038956
3.3784962
2.8505655
2.5311009
2.374737
2.3029949
2.2853734
2.307474
2.3434081
2.3956016
2.4650295
2.5482965
2.6419234
2.756017
2.8725253
2.8813557
)
;
    }
    Outlet
    {
        type            calculated;
        value           uniform 0;
    }
}


// ************************************************************************* //
