# Force coefficients
# dragDir       : (1.00000000e+00 0.00000000e+00 0.00000000e+00)
# sideDir       : (0.00000000e+00 0.00000000e+00 -1.00000000e+00)
# liftDir       : (0.00000000e+00 1.00000000e+00 0.00000000e+00)
# rollAxis      : (1.00000000e+00 0.00000000e+00 0.00000000e+00)
# pitchAxis     : (0.00000000e+00 0.00000000e+00 -1.00000000e+00)
# yawAxis       : (0.00000000e+00 1.00000000e+00 0.00000000e+00)
# magUInf       : 1.03413075e-01
# lRef          : 1.00000000e+00
# Aref          : 1.00000000e+00
# CofR          : (0.00000000e+00 0.00000000e+00 0.00000000e+00)
#
# Time          	Cd              	Cs              	Cl              	CmRoll          	CmPitch         	CmYaw           	Cd(f)           	Cd(r)           	Cs(f)           	Cs(r)           	Cl(f)           	Cl(r)           
1               	2.43385339e+01	1.11974825e-18	-1.72205683e+01	8.61028413e+00	1.66419554e+01	1.21692670e+01	2.07795511e+01	3.55898284e+00	1.21692670e+01	-1.21692670e+01	8.03167128e+00	-2.52522395e+01
2               	5.06114019e+00	7.72744971e-19	-5.22160633e+00	2.61080316e+00	3.54951930e+00	2.53057010e+00	5.14137326e+00	-8.02330690e-02	2.53057010e+00	-2.53057010e+00	9.38716133e-01	-6.16032246e+00
3               	-4.74199264e+00	7.23213637e-19	3.75193243e+00	-1.87596621e+00	-3.64362888e+00	-2.37099632e+00	-4.24696253e+00	-4.95030105e-01	-2.37099632e+00	2.37099632e+00	-1.76766266e+00	5.51959509e+00
4               	-3.32423039e+00	7.46104924e-19	2.39972348e+00	-1.19986174e+00	-1.97737586e+00	-1.66211520e+00	-2.86197693e+00	-4.62253457e-01	-1.66211520e+00	1.66211520e+00	-7.77514122e-01	3.17723760e+00
5               	-8.50727454e-02	7.62329628e-19	-3.98779929e-01	1.99389964e-01	3.92629473e-01	-4.25363727e-02	1.56853592e-01	-2.41926337e-01	-4.25363727e-02	4.25363727e-02	1.93239509e-01	-5.92019438e-01
6               	1.09572002e+00	7.65634329e-19	-9.58426011e-01	4.79213005e-01	7.03283337e-01	5.47860009e-01	1.02707301e+00	6.86470034e-02	5.47860009e-01	-5.47860009e-01	2.24070332e-01	-1.18249634e+00
7               	7.69836670e-01	7.61824906e-19	-4.20134549e-01	2.10067275e-01	2.18346057e-01	3.84918335e-01	5.94985610e-01	1.74851061e-01	3.84918335e-01	-3.84918335e-01	8.27878286e-03	-4.28413332e-01
8               	1.56780160e-01	7.59749925e-19	-6.33223097e-02	3.16611548e-02	-3.78381834e-02	7.83900798e-02	1.10051235e-01	4.67289250e-02	7.83900798e-02	-7.83900798e-02	-6.94993383e-02	6.17702859e-03
9               	-1.09845832e-01	7.61605896e-19	-1.05524215e-01	5.27621074e-02	5.23989990e-03	-5.49229160e-02	-2.16080857e-03	-1.07685023e-01	-5.49229160e-02	5.49229160e-02	-4.75222075e-02	-5.80020073e-02
10              	-5.88643925e-02	7.62613940e-19	-2.39388582e-01	1.19694291e-01	9.83872150e-02	-2.94321962e-02	9.02620946e-02	-1.49126487e-01	-2.94321962e-02	2.94321962e-02	-2.13070758e-02	-2.18081506e-01
11              	6.48222918e-02	7.63485089e-19	-3.13481073e-01	1.56740536e-01	1.45314718e-01	3.24111459e-02	1.89151682e-01	-1.24329391e-01	3.24111459e-02	-3.24111459e-02	-1.14258186e-02	-3.02055254e-01
12              	1.23459060e-01	7.64247036e-19	-3.30040495e-01	1.65020247e-01	1.58006720e-01	6.17295301e-02	2.26749777e-01	-1.03290717e-01	6.17295301e-02	-6.17295301e-02	-7.01352708e-03	-3.23026968e-01
13              	1.09722617e-01	7.64519476e-19	-2.79370240e-01	1.39685120e-01	1.27854234e-01	5.48613083e-02	1.94546428e-01	-8.48238118e-02	5.48613083e-02	-5.48613083e-02	-1.18308860e-02	-2.67539354e-01
14              	7.73668154e-02	7.64518374e-19	-2.45845662e-01	1.22922831e-01	1.05642476e-01	3.86834077e-02	1.61606239e-01	-8.42394235e-02	3.86834077e-02	-3.86834077e-02	-1.72803556e-02	-2.28565307e-01
15              	6.07063956e-02	7.64883128e-19	-2.52687401e-01	1.26343700e-01	1.08234632e-01	3.03531978e-02	1.56696898e-01	-9.59905026e-02	3.03531978e-02	-3.03531978e-02	-1.81090684e-02	-2.34578332e-01
16              	6.02594965e-02	7.65318411e-19	-2.70826607e-01	1.35413303e-01	1.19430450e-01	3.01297483e-02	1.65543052e-01	-1.05283555e-01	3.01297483e-02	-3.01297483e-02	-1.59828529e-02	-2.54843754e-01
17              	6.49745655e-02	7.65713101e-19	-2.83997406e-01	1.41998703e-01	1.28511194e-01	3.24872828e-02	1.74485986e-01	-1.09511420e-01	3.24872828e-02	-3.24872828e-02	-1.34875088e-02	-2.70509897e-01
18              	6.78180336e-02	7.66000153e-19	-2.92837107e-01	1.46418553e-01	1.34712214e-01	3.39090168e-02	1.80327570e-01	-1.12509537e-01	3.39090168e-02	-3.39090168e-02	-1.17063396e-02	-2.81130767e-01
19              	6.81321421e-02	7.66283004e-19	-3.03710547e-01	1.51855274e-01	1.41759688e-01	3.40660711e-02	1.85921345e-01	-1.17789202e-01	3.40660711e-02	-3.40660711e-02	-1.00955852e-02	-2.93614962e-01
20              	6.74985869e-02	7.66556072e-19	-3.16225165e-01	1.58112583e-01	1.49785158e-01	3.37492934e-02	1.91861876e-01	-1.24363289e-01	3.37492934e-02	-3.37492934e-02	-8.32742433e-03	-3.07897741e-01
21              	6.65795532e-02	7.66757374e-19	-3.23373122e-01	1.61686561e-01	1.54437442e-01	3.32897766e-02	1.94976337e-01	-1.28396784e-01	3.32897766e-02	-3.32897766e-02	-7.24911915e-03	-3.16124003e-01
22              	6.50304025e-02	7.66884988e-19	-3.18264716e-01	1.59132358e-01	1.51439479e-01	3.25152013e-02	1.91647559e-01	-1.26617157e-01	3.25152013e-02	-3.25152013e-02	-7.69287934e-03	-3.10571837e-01
23              	6.37966641e-02	7.66934473e-19	-3.14007898e-01	1.57003949e-01	1.48662915e-01	3.18983320e-02	1.88902281e-01	-1.25105617e-01	3.18983320e-02	-3.18983320e-02	-8.34103358e-03	-3.05666865e-01
24              	6.35425888e-02	7.67056746e-19	-3.18272922e-01	1.59136461e-01	1.51095406e-01	3.17712944e-02	1.90907756e-01	-1.27365167e-01	3.17712944e-02	-3.17712944e-02	-8.04105503e-03	-3.10231867e-01
25              	6.38966967e-02	7.67226982e-19	-3.27319083e-01	1.63659542e-01	1.56832156e-01	3.19483484e-02	1.95607890e-01	-1.31711193e-01	3.19483484e-02	-3.19483484e-02	-6.82738606e-03	-3.20491697e-01
26              	6.41195198e-02	7.67387320e-19	-3.35008379e-01	1.67504190e-01	1.61870700e-01	3.20597599e-02	1.99563950e-01	-1.35444430e-01	3.20597599e-02	-3.20597599e-02	-5.63348963e-03	-3.29374890e-01
27              	6.40286127e-02	7.67528849e-19	-3.40185568e-01	1.70092784e-01	1.65242528e-01	3.20143063e-02	2.02107090e-01	-1.38078477e-01	3.20143063e-02	-3.20143063e-02	-4.85025619e-03	-3.35335311e-01
28              	6.34848126e-02	7.67638017e-19	-3.41399743e-01	1.70699872e-01	1.66039995e-01	3.17424063e-02	2.02442278e-01	-1.38957465e-01	3.17424063e-02	-3.17424063e-02	-4.65987627e-03	-3.36739867e-01
29              	6.27639314e-02	7.67725720e-19	-3.40588097e-01	1.70294049e-01	1.65517455e-01	3.13819657e-02	2.01676014e-01	-1.38912083e-01	3.13819657e-02	-3.13819657e-02	-4.77659358e-03	-3.35811504e-01
30              	6.22383694e-02	7.67801189e-19	-3.41696203e-01	1.70848102e-01	1.66096194e-01	3.11191847e-02	2.01967286e-01	-1.39728917e-01	3.11191847e-02	-3.11191847e-02	-4.75190735e-03	-3.36944296e-01
31              	6.20832493e-02	7.67901777e-19	-3.45623121e-01	1.72811560e-01	1.68463912e-01	3.10416246e-02	2.03853185e-01	-1.41769936e-01	3.10416246e-02	-3.10416246e-02	-4.34764883e-03	-3.41275472e-01
32              	6.20240562e-02	7.68005165e-19	-3.49691159e-01	1.74845579e-01	1.71060663e-01	3.10120281e-02	2.05857608e-01	-1.43833551e-01	3.10120281e-02	-3.10120281e-02	-3.78491649e-03	-3.45906242e-01
33              	6.17891295e-02	7.68092133e-19	-3.52158329e-01	1.76079165e-01	1.72674189e-01	3.08945648e-02	2.06973729e-01	-1.45184600e-01	3.08945648e-02	-3.08945648e-02	-3.40497531e-03	-3.48753354e-01
34              	6.13534713e-02	7.68166438e-19	-3.52841865e-01	1.76420933e-01	1.73136353e-01	3.06767356e-02	2.07097668e-01	-1.45744197e-01	3.06767356e-02	-3.06767356e-02	-3.28457950e-03	-3.49557286e-01
35              	6.09063083e-02	7.68231187e-19	-3.53387215e-01	1.76693608e-01	1.73449733e-01	3.04531542e-02	2.07146762e-01	-1.46240454e-01	3.04531542e-02	-3.04531542e-02	-3.24387443e-03	-3.50143341e-01
36              	6.06128303e-02	7.68299252e-19	-3.55190974e-01	1.77595487e-01	1.74498124e-01	3.03064151e-02	2.07901902e-01	-1.47289072e-01	3.03064151e-02	-3.03064151e-02	-3.09736260e-03	-3.52093611e-01
37              	6.04246934e-02	7.68371906e-19	-3.57538603e-01	1.78769301e-01	1.75924665e-01	3.02123467e-02	2.08981648e-01	-1.48556955e-01	3.02123467e-02	-3.02123467e-02	-2.84463590e-03	-3.54693967e-01
38              	6.02486515e-02	7.68441928e-19	-3.59537786e-01	1.79768893e-01	1.77166606e-01	3.01243257e-02	2.09893219e-01	-1.49644567e-01	3.01243257e-02	-3.01243257e-02	-2.60228669e-03	-3.56935500e-01
39              	6.00328902e-02	7.68508727e-19	-3.60804626e-01	1.80402313e-01	1.77957060e-01	3.00164451e-02	2.10418758e-01	-1.50385868e-01	3.00164451e-02	-3.00164451e-02	-2.44525279e-03	-3.58359373e-01
40              	5.98087831e-02	7.68566244e-19	-3.61816176e-01	1.80908088e-01	1.78551369e-01	2.99043915e-02	2.10812480e-01	-1.51003697e-01	2.99043915e-02	-2.99043915e-02	-2.35671915e-03	-3.59459457e-01
41              	5.96346060e-02	7.68620778e-19	-3.63142920e-01	1.81571460e-01	1.79308548e-01	2.98173030e-02	2.11388763e-01	-1.51754157e-01	2.98173030e-02	-2.98173030e-02	-2.26291213e-03	-3.60880008e-01
42              	5.95158595e-02	7.68678219e-19	-3.64725638e-01	1.82362819e-01	1.80230786e-01	2.97579298e-02	2.12120749e-01	-1.52604889e-01	2.97579298e-02	-2.97579298e-02	-2.13203319e-03	-3.62593605e-01
43              	5.94386851e-02	7.68736408e-19	-3.66321664e-01	1.83160832e-01	1.81174776e-01	2.97193425e-02	2.12880175e-01	-1.53441490e-01	2.97193425e-02	-2.97193425e-02	-1.98605656e-03	-3.64335608e-01
44              	5.93496863e-02	7.68791217e-19	-3.67526692e-01	1.83763346e-01	1.81881826e-01	2.96748432e-02	2.13438189e-01	-1.54088503e-01	2.96748432e-02	-2.96748432e-02	-1.88152055e-03	-3.65645172e-01
45              	5.92493401e-02	7.68844044e-19	-3.68585537e-01	1.84292768e-01	1.82483318e-01	2.96246700e-02	2.13917438e-01	-1.54668098e-01	2.96246700e-02	-2.96246700e-02	-1.80944982e-03	-3.66776087e-01
46              	5.91649005e-02	7.68896091e-19	-3.69804120e-01	1.84902060e-01	1.83168291e-01	2.95824503e-02	2.14484510e-01	-1.55319610e-01	2.95824503e-02	-2.95824503e-02	-1.73376964e-03	-3.68070351e-01
47              	5.90976419e-02	7.68946679e-19	-3.71145761e-01	1.85572880e-01	1.83929819e-01	2.95488209e-02	2.15121701e-01	-1.56024060e-01	2.95488209e-02	-2.95488209e-02	-1.64306126e-03	-3.69502700e-01
48              	5.90273335e-02	7.68995643e-19	-3.72425055e-01	1.86212527e-01	1.84659506e-01	2.95136667e-02	2.15726194e-01	-1.56698861e-01	2.95136667e-02	-2.95136667e-02	-1.55302108e-03	-3.70872034e-01
49              	5.89321403e-02	7.69042269e-19	-3.73444510e-01	1.86722255e-01	1.85233314e-01	2.94660701e-02	2.16188325e-01	-1.57256185e-01	2.94660701e-02	-2.94660701e-02	-1.48894097e-03	-3.71955570e-01
50              	5.88263557e-02	7.69087639e-19	-3.74404866e-01	1.87202433e-01	1.85762737e-01	2.94131779e-02	2.16615611e-01	-1.57789255e-01	2.94131779e-02	-2.94131779e-02	-1.43969650e-03	-3.72965170e-01
51              	5.87359793e-02	7.69134355e-19	-3.75525494e-01	1.87762747e-01	1.86378567e-01	2.93679897e-02	2.17130737e-01	-1.58394758e-01	2.93679897e-02	-2.93679897e-02	-1.38418054e-03	-3.74141314e-01
52              	5.86399145e-02	7.69179503e-19	-3.76634424e-01	1.88317212e-01	1.86995450e-01	2.93199572e-02	2.17637169e-01	-1.58997255e-01	2.93199572e-02	-2.93199572e-02	-1.32176238e-03	-3.75312662e-01
53              	5.85316381e-02	7.69223275e-19	-3.77629314e-01	1.88814657e-01	1.87547470e-01	2.92658191e-02	2.18080476e-01	-1.59548838e-01	2.92658191e-02	-2.92658191e-02	-1.26718749e-03	-3.76362127e-01
54              	5.84136998e-02	7.69264892e-19	-3.78538489e-01	1.89269244e-01	1.88046662e-01	2.92068499e-02	2.18476094e-01	-1.60062394e-01	2.92068499e-02	-2.92068499e-02	-1.22258274e-03	-3.77315906e-01
55              	5.83099304e-02	7.69306979e-19	-3.79512987e-01	1.89756493e-01	1.88579782e-01	2.91549652e-02	2.18911459e-01	-1.60601528e-01	2.91549652e-02	-2.91549652e-02	-1.17671102e-03	-3.78336276e-01
56              	5.82170270e-02	7.69348851e-19	-3.80525688e-01	1.90262844e-01	1.89138221e-01	2.91085135e-02	2.19371357e-01	-1.61154330e-01	2.91085135e-02	-2.91085135e-02	-1.12462323e-03	-3.79401064e-01
57              	5.81159664e-02	7.69389796e-19	-3.81462642e-01	1.90731321e-01	1.89658410e-01	2.90579832e-02	2.19789304e-01	-1.61673338e-01	2.90579832e-02	-2.90579832e-02	-1.07291081e-03	-3.80389731e-01
58              	5.80112685e-02	7.69429934e-19	-3.82372994e-01	1.91186497e-01	1.90165210e-01	2.90056342e-02	2.20192131e-01	-1.62180863e-01	2.90056342e-02	-2.90056342e-02	-1.02128695e-03	-3.81351707e-01
59              	5.79126619e-02	7.69469396e-19	-3.83309802e-01	1.91654901e-01	1.90691001e-01	2.89563309e-02	2.20611232e-01	-1.62698570e-01	2.89563309e-02	-2.89563309e-02	-9.63899778e-04	-3.82345903e-01
60              	5.78203533e-02	7.69507985e-19	-3.84250802e-01	1.92125401e-01	1.91226247e-01	2.89101767e-02	2.21035578e-01	-1.63215224e-01	2.89101767e-02	-2.89101767e-02	-8.99153882e-04	-3.83351648e-01
61              	5.77308024e-02	7.69545530e-19	-3.85147876e-01	1.92573938e-01	1.91742807e-01	2.88654012e-02	2.21439339e-01	-1.63708537e-01	2.88654012e-02	-2.88654012e-02	-8.31130955e-04	-3.84316745e-01
62              	5.76425668e-02	7.69581595e-19	-3.86000081e-01	1.93000040e-01	1.92238134e-01	2.88212834e-02	2.21821324e-01	-1.64178757e-01	2.88212834e-02	-2.88212834e-02	-7.61905839e-04	-3.85238175e-01
63              	5.75633473e-02	7.69617517e-19	-3.86892195e-01	1.93446097e-01	1.92758906e-01	2.87816737e-02	2.22227771e-01	-1.64664424e-01	2.87816737e-02	-2.87816737e-02	-6.87191332e-04	-3.86205004e-01
64              	5.74860183e-02	7.69652935e-19	-3.87774879e-01	1.93887440e-01	1.93279517e-01	2.87430091e-02	2.22630449e-01	-1.65144430e-01	2.87430091e-02	-2.87430091e-02	-6.07922274e-04	-3.87166957e-01
65              	5.74106440e-02	7.69688186e-19	-3.88638870e-01	1.94319435e-01	1.93793031e-01	2.87053220e-02	2.23024757e-01	-1.65614113e-01	2.87053220e-02	-2.87053220e-02	-5.26404031e-04	-3.88112466e-01
66              	5.73320630e-02	7.69722600e-19	-3.89460061e-01	1.94730031e-01	1.94285940e-01	2.86660315e-02	2.23396062e-01	-1.66063999e-01	2.86660315e-02	-2.86660315e-02	-4.44090703e-04	-3.89015971e-01
67              	5.72599155e-02	7.69756701e-19	-3.90340603e-01	1.95170301e-01	1.94815194e-01	2.86299577e-02	2.23800259e-01	-1.66540344e-01	2.86299577e-02	-2.86299577e-02	-3.55106986e-04	-3.89985496e-01
68              	5.71870150e-02	7.69788889e-19	-3.91209207e-01	1.95604604e-01	1.95341383e-01	2.85935075e-02	2.24198111e-01	-1.67011096e-01	2.85935075e-02	-2.85935075e-02	-2.63220194e-04	-3.90945987e-01
69              	5.71100631e-02	7.69820236e-19	-3.92030922e-01	1.96015461e-01	1.95842754e-01	2.85550315e-02	2.24570493e-01	-1.67460430e-01	2.85550315e-02	-2.85550315e-02	-1.72707556e-04	-3.91858215e-01
70              	5.70356026e-02	7.69851024e-19	-3.92872312e-01	1.96436156e-01	1.96355991e-01	2.85178013e-02	2.24953957e-01	-1.67918355e-01	2.85178013e-02	-2.85178013e-02	-8.01650259e-05	-3.92792147e-01
71              	5.69587911e-02	7.69880607e-19	-3.93691347e-01	1.96845673e-01	1.96857997e-01	2.84793956e-02	2.25325069e-01	-1.68366278e-01	2.84793956e-02	-2.84793956e-02	1.23238127e-05	-3.93703671e-01
72              	5.68817160e-02	7.69909962e-19	-3.94510698e-01	1.97255349e-01	1.97361957e-01	2.84408580e-02	2.25696207e-01	-1.68814491e-01	2.84408580e-02	-2.84408580e-02	1.06608471e-04	-3.94617306e-01
73              	5.68058261e-02	7.69938782e-19	-3.95337826e-01	1.97668913e-01	1.97873010e-01	2.84029130e-02	2.26071826e-01	-1.69266000e-01	2.84029130e-02	-2.84029130e-02	2.04096710e-04	-3.95541922e-01
74              	5.67308067e-02	7.69966489e-19	-3.96171455e-01	1.98085728e-01	1.98390568e-01	2.83654034e-02	2.26451131e-01	-1.69720324e-01	2.83654034e-02	-2.83654034e-02	3.04840057e-04	-3.96476295e-01
75              	5.66524617e-02	7.69992607e-19	-3.96969487e-01	1.98484743e-01	1.98888739e-01	2.83262309e-02	2.26810974e-01	-1.70158512e-01	2.83262309e-02	-2.83262309e-02	4.03995824e-04	-3.97373482e-01
76              	5.65764157e-02	7.70018703e-19	-3.97778903e-01	1.98889452e-01	1.99395509e-01	2.82882078e-02	2.27177659e-01	-1.70601244e-01	2.82882078e-02	-2.82882078e-02	5.06057403e-04	-3.98284961e-01
77              	5.64997163e-02	7.70043843e-19	-3.98574357e-01	1.99287179e-01	1.99896505e-01	2.82498581e-02	2.27537037e-01	-1.71037320e-01	2.82498581e-02	-2.82498581e-02	6.09326331e-04	-3.99183683e-01
78              	5.64231545e-02	7.70068221e-19	-3.99363350e-01	1.99681675e-01	2.00396118e-01	2.82115772e-02	2.27893252e-01	-1.71470098e-01	2.82115772e-02	-2.82115772e-02	7.14442393e-04	-4.00077793e-01
79              	5.63467984e-02	7.70091878e-19	-4.00150244e-01	2.00075122e-01	2.00896245e-01	2.81733992e-02	2.28248521e-01	-1.71901723e-01	2.81733992e-02	-2.81733992e-02	8.21122941e-04	-4.00971367e-01
80              	5.62708757e-02	7.70114821e-19	-4.00932855e-01	2.00466427e-01	2.01396533e-01	2.81354379e-02	2.28601865e-01	-1.72330989e-01	2.81354379e-02	-2.81354379e-02	9.30105659e-04	-4.01862960e-01
81              	5.61922515e-02	7.70136363e-19	-4.01684527e-01	2.00842264e-01	2.01879519e-01	2.80961258e-02	2.28938389e-01	-1.72746138e-01	2.80961258e-02	-2.80961258e-02	1.03725568e-03	-4.02721783e-01
82              	5.61172560e-02	7.70157551e-19	-4.02456346e-01	2.01228173e-01	2.02376059e-01	2.80586280e-02	2.29286801e-01	-1.73169545e-01	2.80586280e-02	-2.80586280e-02	1.14788588e-03	-4.03604232e-01
83              	5.60423543e-02	7.70177800e-19	-4.03217440e-01	2.01608720e-01	2.02868123e-01	2.80211771e-02	2.29629897e-01	-1.73587543e-01	2.80211771e-02	-2.80211771e-02	1.25940318e-03	-4.04476844e-01
84              	5.59651991e-02	7.70197319e-19	-4.03950282e-01	2.01975141e-01	2.03344757e-01	2.79825996e-02	2.29957741e-01	-1.73992542e-01	2.79825996e-02	-2.79825996e-02	1.36961585e-03	-4.05319898e-01
85              	5.58885541e-02	7.70216530e-19	-4.04688829e-01	2.02344414e-01	2.03826123e-01	2.79442770e-02	2.30288691e-01	-1.74400137e-01	2.79442770e-02	-2.79442770e-02	1.48170905e-03	-4.06170538e-01
86              	5.58129547e-02	7.70234974e-19	-4.05420259e-01	2.02710130e-01	2.04303861e-01	2.79064774e-02	2.30616607e-01	-1.74803652e-01	2.79064774e-02	-2.79064774e-02	1.59373175e-03	-4.07013991e-01
87              	5.57364832e-02	7.70252895e-19	-4.06130768e-01	2.03065384e-01	2.04770545e-01	2.78682416e-02	2.30933626e-01	-1.75197143e-01	2.78682416e-02	-2.78682416e-02	1.70516072e-03	-4.07835929e-01
88              	5.56614683e-02	7.70270512e-19	-4.06849629e-01	2.03424815e-01	2.05243798e-01	2.78307341e-02	2.31255549e-01	-1.75594081e-01	2.78307341e-02	-2.78307341e-02	1.81898308e-03	-4.08668612e-01
89              	5.55870703e-02	7.70287378e-19	-4.07570693e-01	2.03785346e-01	2.05719192e-01	2.77935352e-02	2.31578881e-01	-1.75991811e-01	2.77935352e-02	-2.77935352e-02	1.93384554e-03	-4.09504538e-01
90              	5.55134734e-02	7.70303558e-19	-4.08288373e-01	2.04144187e-01	2.06194285e-01	2.77567367e-02	2.31900923e-01	-1.76387450e-01	2.77567367e-02	-2.77567367e-02	2.05009818e-03	-4.10338472e-01
91              	5.54379860e-02	7.70318630e-19	-4.08972468e-01	2.04486234e-01	2.06649783e-01	2.77189930e-02	2.32205227e-01	-1.76767241e-01	2.77189930e-02	-2.77189930e-02	2.16354848e-03	-4.11136017e-01
92              	5.53635151e-02	7.70333552e-19	-4.09667326e-01	2.04833663e-01	2.07111089e-01	2.76817575e-02	2.32515421e-01	-1.77151906e-01	2.76817575e-02	-2.76817575e-02	2.27742633e-03	-4.11944752e-01
93              	5.52894928e-02	7.70348032e-19	-4.10361653e-01	2.05180827e-01	2.07573152e-01	2.76447464e-02	2.32825573e-01	-1.77536080e-01	2.76447464e-02	-2.76447464e-02	2.39232550e-03	-4.12753979e-01
94              	5.52156234e-02	7.70362191e-19	-4.11054229e-01	2.05527115e-01	2.08033446e-01	2.76078117e-02	2.33134926e-01	-1.77919303e-01	2.76078117e-02	-2.76078117e-02	2.50633178e-03	-4.13560561e-01
95              	5.51412427e-02	7.70376560e-19	-4.11784976e-01	2.05892488e-01	2.08512663e-01	2.75706214e-02	2.33463110e-01	-1.78321867e-01	2.75706214e-02	-2.75706214e-02	2.62017454e-03	-4.14405151e-01
96              	5.50667061e-02	7.70390753e-19	-4.12520630e-01	2.06260315e-01	2.08997083e-01	2.75333531e-02	2.33793668e-01	-1.78726962e-01	2.75333531e-02	-2.75333531e-02	2.73676773e-03	-4.15257398e-01
97              	5.49904239e-02	7.70403432e-19	-4.13172579e-01	2.06586290e-01	2.09435289e-01	2.74952119e-02	2.34081502e-01	-1.79091078e-01	2.74952119e-02	-2.74952119e-02	2.84899929e-03	-4.16021579e-01
98              	5.49194546e-02	7.70415944e-19	-4.13828812e-01	2.06914406e-01	2.09875890e-01	2.74597273e-02	2.34374133e-01	-1.79454679e-01	2.74597273e-02	-2.74597273e-02	2.96148407e-03	-4.16790296e-01
99              	5.48548713e-02	7.70427981e-19	-4.14506595e-01	2.07253297e-01	2.10332465e-01	2.74274356e-02	2.34680733e-01	-1.79825862e-01	2.74274356e-02	-2.74274356e-02	3.07916724e-03	-4.17585762e-01
100             	5.47885293e-02	7.70438730e-19	-4.15145456e-01	2.07572728e-01	2.10765203e-01	2.73942647e-02	2.34966993e-01	-1.80178464e-01	2.73942647e-02	-2.73942647e-02	3.19247450e-03	-4.18337931e-01
101             	5.47204723e-02	7.70449496e-19	-4.15767029e-01	2.07883514e-01	2.11186390e-01	2.73602362e-02	2.35243750e-01	-1.80523278e-01	2.73602362e-02	-2.73602362e-02	3.30287540e-03	-4.19069904e-01
102             	5.46549479e-02	7.70460514e-19	-4.16407868e-01	2.08203934e-01	2.11619727e-01	2.73274739e-02	2.35531408e-01	-1.80876460e-01	2.73274739e-02	-2.73274739e-02	3.41579324e-03	-4.19823662e-01
103             	5.45922155e-02	7.70471239e-19	-4.17054267e-01	2.08527133e-01	2.12056934e-01	2.72961077e-02	2.35823241e-01	-1.81231026e-01	2.72961077e-02	-2.72961077e-02	3.52980057e-03	-4.20584067e-01
104             	5.45295737e-02	7.70481389e-19	-4.17672150e-01	2.08836075e-01	2.12475944e-01	2.72647868e-02	2.36100862e-01	-1.81571288e-01	2.72647868e-02	-2.72647868e-02	3.63986918e-03	-4.21312019e-01
105             	5.44702060e-02	7.70491960e-19	-4.18310869e-01	2.09155435e-01	2.12909006e-01	2.72351030e-02	2.36390538e-01	-1.81920332e-01	2.72351030e-02	-2.72351030e-02	3.75357118e-03	-4.22064441e-01
106             	5.44127383e-02	7.70501800e-19	-4.18938594e-01	2.09469297e-01	2.13335677e-01	2.72063691e-02	2.36675666e-01	-1.82262928e-01	2.72063691e-02	-2.72063691e-02	3.86637985e-03	-4.22804974e-01
107             	5.43580386e-02	7.70511276e-19	-4.19574281e-01	2.09787140e-01	2.13767373e-01	2.71790193e-02	2.36966160e-01	-1.82608121e-01	2.71790193e-02	-2.71790193e-02	3.98023305e-03	-4.23554514e-01
108             	5.43040719e-02	7.70519891e-19	-4.20190826e-01	2.10095413e-01	2.14186611e-01	2.71520360e-02	2.37247449e-01	-1.82943377e-01	2.71520360e-02	-2.71520360e-02	4.09119812e-03	-4.24282024e-01
109             	5.42517102e-02	7.70528415e-19	-4.20804155e-01	2.10402077e-01	2.14603595e-01	2.71258551e-02	2.37527932e-01	-1.83276222e-01	2.71258551e-02	-2.71258551e-02	4.20151736e-03	-4.25005672e-01
110             	5.42015294e-02	7.70536892e-19	-4.21418190e-01	2.10709095e-01	2.15021100e-01	2.71007647e-02	2.37809860e-01	-1.83608330e-01	2.71007647e-02	-2.71007647e-02	4.31200486e-03	-4.25730195e-01
111             	5.41537495e-02	7.70545277e-19	-4.22031150e-01	2.11015575e-01	2.15438195e-01	2.70768748e-02	2.38092450e-01	-1.83938700e-01	2.70768748e-02	-2.70768748e-02	4.42261985e-03	-4.26453770e-01
112             	5.41080704e-02	7.70553410e-19	-4.22640636e-01	2.11320318e-01	2.15853312e-01	2.70540352e-02	2.38374353e-01	-1.84266283e-01	2.70540352e-02	-2.70540352e-02	4.53299396e-03	-4.27173630e-01
113             	5.40645448e-02	7.70561190e-19	-4.23246845e-01	2.11623422e-01	2.16266342e-01	2.70322724e-02	2.38655695e-01	-1.84591150e-01	2.70322724e-02	-2.70322724e-02	4.64292000e-03	-4.27889765e-01
114             	5.40232638e-02	7.70568667e-19	-4.23851462e-01	2.11925731e-01	2.16678400e-01	2.70116319e-02	2.38937363e-01	-1.84914099e-01	2.70116319e-02	-2.70116319e-02	4.75266964e-03	-4.28604131e-01
115             	5.39838835e-02	7.70575863e-19	-4.24452380e-01	2.12226190e-01	2.17088191e-01	2.69919418e-02	2.39218132e-01	-1.85234248e-01	2.69919418e-02	-2.69919418e-02	4.86200106e-03	-4.29314381e-01
116             	5.39463930e-02	7.70582691e-19	-4.25050215e-01	2.12525108e-01	2.17495827e-01	2.69731965e-02	2.39498304e-01	-1.85551911e-01	2.69731965e-02	-2.69731965e-02	4.97071956e-03	-4.30020935e-01
117             	5.39114906e-02	7.70589257e-19	-4.25655141e-01	2.12827571e-01	2.17907818e-01	2.69557453e-02	2.39783316e-01	-1.85871825e-01	2.69557453e-02	-2.69557453e-02	5.08024715e-03	-4.30735389e-01
118             	5.38773000e-02	7.70595078e-19	-4.26238324e-01	2.13119162e-01	2.18304798e-01	2.69386500e-02	2.40057812e-01	-1.86180512e-01	2.69386500e-02	-2.69386500e-02	5.18563607e-03	-4.31423960e-01
119             	5.38450271e-02	7.70601124e-19	-4.26826373e-01	2.13413186e-01	2.18704892e-01	2.69225136e-02	2.40335700e-01	-1.86490673e-01	2.69225136e-02	-2.69225136e-02	5.29170583e-03	-4.32118079e-01
120             	5.38148060e-02	7.70606859e-19	-4.27412867e-01	2.13706434e-01	2.19103986e-01	2.69074030e-02	2.40613837e-01	-1.86799031e-01	2.69074030e-02	-2.69074030e-02	5.39755228e-03	-4.32810419e-01
121             	5.37863691e-02	7.70612218e-19	-4.27996021e-01	2.13998010e-01	2.19500620e-01	2.68931846e-02	2.40891195e-01	-1.87104826e-01	2.68931846e-02	-2.68931846e-02	5.50260934e-03	-4.33498630e-01
122             	5.37597165e-02	7.70617300e-19	-4.28583075e-01	2.14291538e-01	2.19899484e-01	2.68798582e-02	2.41171396e-01	-1.87411679e-01	2.68798582e-02	-2.68798582e-02	5.60794620e-03	-4.34191021e-01
123             	5.37337588e-02	7.70621698e-19	-4.29156650e-01	2.14578325e-01	2.20288596e-01	2.68668794e-02	2.41445204e-01	-1.87711446e-01	2.68668794e-02	-2.68668794e-02	5.71027098e-03	-4.34866921e-01
124             	5.37089169e-02	7.70625893e-19	-4.29727730e-01	2.14863865e-01	2.20675054e-01	2.68544584e-02	2.41718323e-01	-1.88009406e-01	2.68544584e-02	-2.68544584e-02	5.81118886e-03	-4.35538919e-01
125             	5.36854547e-02	7.70629899e-19	-4.30294439e-01	2.15147219e-01	2.21057885e-01	2.68427273e-02	2.41989947e-01	-1.88304492e-01	2.68427273e-02	-2.68427273e-02	5.91066582e-03	-4.36205105e-01
126             	5.36631072e-02	7.70633914e-19	-4.30859226e-01	2.15429613e-01	2.21439700e-01	2.68315536e-02	2.42261167e-01	-1.88598060e-01	2.68315536e-02	-2.68315536e-02	6.01008704e-03	-4.36869313e-01
127             	5.36419367e-02	7.70637673e-19	-4.31418416e-01	2.15709208e-01	2.21816956e-01	2.68209683e-02	2.42530176e-01	-1.88888240e-01	2.68209683e-02	-2.68209683e-02	6.10774794e-03	-4.37526164e-01
128             	5.36220707e-02	7.70641337e-19	-4.31979327e-01	2.15989664e-01	2.22194421e-01	2.68110354e-02	2.42800699e-01	-1.89178628e-01	2.68110354e-02	-2.68110354e-02	6.20475789e-03	-4.38184085e-01
129             	5.36028093e-02	7.70644701e-19	-4.32536404e-01	2.16268202e-01	2.22568607e-01	2.68014047e-02	2.43069607e-01	-1.89466797e-01	2.68014047e-02	-2.68014047e-02	6.30040471e-03	-4.38836809e-01
130             	5.35838531e-02	7.70647579e-19	-4.33083586e-01	2.16541793e-01	2.22934322e-01	2.67919266e-02	2.43333719e-01	-1.89749866e-01	2.67919266e-02	-2.67919266e-02	6.39252896e-03	-4.39476115e-01
131             	5.35649541e-02	7.70650433e-19	-4.33626236e-01	2.16813118e-01	2.23296007e-01	2.67824771e-02	2.43595595e-01	-1.90030641e-01	2.67824771e-02	-2.67824771e-02	6.48288877e-03	-4.40109125e-01
132             	5.35473370e-02	7.70653365e-19	-4.34172549e-01	2.17086274e-01	2.23658653e-01	2.67736685e-02	2.43859943e-01	-1.90312606e-01	2.67736685e-02	-2.67736685e-02	6.57237853e-03	-4.40744927e-01
133             	5.35295488e-02	7.70656149e-19	-4.34705425e-01	2.17352713e-01	2.24010870e-01	2.67647744e-02	2.44117487e-01	-1.90587938e-01	2.67647744e-02	-2.67647744e-02	6.65815779e-03	-4.41363583e-01
134             	5.35127334e-02	7.70659192e-19	-4.35244394e-01	2.17622197e-01	2.24365990e-01	2.67563667e-02	2.44378564e-01	-1.90865831e-01	2.67563667e-02	-2.67563667e-02	6.74379250e-03	-4.41988187e-01
135             	5.34958975e-02	7.70661906e-19	-4.35774007e-01	2.17887004e-01	2.24713076e-01	2.67479487e-02	2.44634952e-01	-1.91139055e-01	2.67479487e-02	-2.67479487e-02	6.82607203e-03	-4.42600079e-01
136             	5.34790270e-02	7.70664582e-19	-4.36297933e-01	2.18148966e-01	2.25053882e-01	2.67395135e-02	2.44888480e-01	-1.91409453e-01	2.67395135e-02	-2.67395135e-02	6.90491555e-03	-4.43202848e-01
137             	5.34619118e-02	7.70667391e-19	-4.36819994e-01	2.18409997e-01	2.25391715e-01	2.67309559e-02	2.45140953e-01	-1.91679041e-01	2.67309559e-02	-2.67309559e-02	6.98171862e-03	-4.43801712e-01
138             	5.34452682e-02	7.70670164e-19	-4.37337551e-01	2.18668776e-01	2.25724361e-01	2.67226341e-02	2.45391410e-01	-1.91946141e-01	2.67226341e-02	-2.67226341e-02	7.05558541e-03	-4.44393136e-01
139             	5.34291272e-02	7.70672899e-19	-4.37855191e-01	2.18927595e-01	2.26055083e-01	2.67145636e-02	2.45642159e-01	-1.92213032e-01	2.67145636e-02	-2.67145636e-02	7.12748733e-03	-4.44982678e-01
140             	5.34124692e-02	7.70675511e-19	-4.38362323e-01	2.19181161e-01	2.26376737e-01	2.67062346e-02	2.45887396e-01	-1.92474927e-01	2.67062346e-02	-2.67062346e-02	7.19557561e-03	-4.45557898e-01
141             	5.33951519e-02	7.70678234e-19	-4.38865053e-01	2.19432527e-01	2.26693145e-01	2.66975759e-02	2.46130103e-01	-1.92734951e-01	2.66975759e-02	-2.66975759e-02	7.26061834e-03	-4.46125672e-01
142             	5.33774285e-02	7.70680893e-19	-4.39364753e-01	2.19682376e-01	2.27005290e-01	2.66887143e-02	2.46371091e-01	-1.92993662e-01	2.66887143e-02	-2.66887143e-02	7.32291367e-03	-4.46687667e-01
143             	5.33592195e-02	7.70683419e-19	-4.39856687e-01	2.19928343e-01	2.27310065e-01	2.66796097e-02	2.46607953e-01	-1.93248734e-01	2.66796097e-02	-2.66796097e-02	7.38172199e-03	-4.47238409e-01
144             	5.33411635e-02	7.70686103e-19	-4.40348610e-01	2.20174305e-01	2.27612328e-01	2.66705818e-02	2.46844887e-01	-1.93503723e-01	2.66705818e-02	-2.66705818e-02	7.43802341e-03	-4.47786633e-01