/*--------------------------------*- C++ -*----------------------------------*\
| =========                 |                                                 |
| \\      /  F ield         | OpenFOAM: The Open Source CFD Toolbox           |
|  \\    /   O peration     | Version:  v2006                                 |
|   \\  /    A nd           | Website:  www.openfoam.com                      |
|    \\/     M anipulation  |                                                 |
\*---------------------------------------------------------------------------*/
FoamFile
{
    version     2.0;
    format      ascii;
    class       volScalarField;
    location    "1000";
    object      alphat;
}
// * * * * * * * * * * * * * * * * * * * * * * * * * * * * * * * * * * * * * //

dimensions      [1 -1 -1 0 0 0 0];


internalField   nonuniform List<scalar> 
19765
(
9.8520257e-06
9.8422224e-06
9.5449286e-06
9.5909386e-06
9.5778478e-06
9.7291765e-06
9.6393419e-06
9.808019e-06
9.7700758e-06
9.5750944e-06
9.6722427e-06
1.0044997e-05
1.026044e-05
1.0447032e-05
1.0846085e-05
1.1013953e-05
1.095925e-05
1.1112294e-05
1.1524492e-05
1.1882732e-05
1.2121269e-05
1.2237653e-05
1.2448774e-05
1.2577629e-05
1.2661296e-05
1.2710477e-05
1.2732697e-05
1.2667069e-05
1.2682105e-05
1.2562339e-05
1.2331555e-05
1.2037573e-05
1.206504e-05
1.2204943e-05
1.2060996e-05
1.1724059e-05
1.1705038e-05
1.1638083e-05
1.1361172e-05
1.1445021e-05
1.1807163e-05
1.1953203e-05
1.1911959e-05
1.2213764e-05
1.2109067e-05
1.2338251e-05
1.2347919e-05
1.232397e-05
1.2201333e-05
5.5023466e-05
5.7608456e-05
5.9871285e-05
6.1583646e-05
6.3688897e-05
6.5842944e-05
6.8016265e-05
7.0177844e-05
7.2420316e-05
7.4358572e-05
7.6637028e-05
7.9127453e-05
8.1285427e-05
8.3204875e-05
8.5178917e-05
8.6401579e-05
8.6735443e-05
8.7366444e-05
8.8578867e-05
9.0007345e-05
9.1341573e-05
9.2201995e-05
9.2933551e-05
9.390672e-05
9.4855111e-05
9.5278412e-05
9.5431243e-05
9.5678123e-05
9.5849547e-05
9.5825836e-05
9.5690638e-05
9.5488531e-05
9.5436837e-05
9.5233125e-05
9.453733e-05
9.3557701e-05
9.2691846e-05
9.1535859e-05
9.0098086e-05
8.9033806e-05
8.8095524e-05
8.6059159e-05
8.3902397e-05
8.0422654e-05
7.7842325e-05
7.1887363e-05
6.5211176e-05
5.8521075e-05
5.352772e-05
1.6480565e-05
1.5790308e-05
1.5280221e-05
1.5497849e-05
1.5588457e-05
1.5673476e-05
1.5574247e-05
1.5706951e-05
1.5571623e-05
1.5686764e-05
1.5897737e-05
1.5902273e-05
1.5704395e-05
1.5512974e-05
1.520238e-05
1.4739681e-05
1.4384056e-05
1.4157422e-05
1.3968539e-05
1.3792517e-05
1.3698638e-05
1.3723419e-05
1.3720866e-05
1.3753441e-05
1.4019999e-05
1.4532956e-05
1.5004326e-05
1.5486973e-05
1.6190404e-05
1.6945099e-05
1.7676524e-05
1.8354081e-05
1.8959814e-05
1.9915597e-05
2.1111e-05
2.2105115e-05
2.2876609e-05
2.3895071e-05
2.4672755e-05
2.5064982e-05
2.5741186e-05
2.6930612e-05
2.7537126e-05
2.8665303e-05
2.9415683e-05
3.1467174e-05
3.4176326e-05
3.7413095e-05
3.9660159e-05
6.5200334e-07
5.8065846e-07
5.3861832e-07
5.3108006e-07
5.215734e-07
5.1296333e-07
4.9953489e-07
4.9405308e-07
4.8133698e-07
4.7507072e-07
4.7125062e-07
4.6207336e-07
4.4804715e-07
4.3539857e-07
4.2161003e-07
4.058112e-07
3.9412636e-07
3.8660383e-07
3.7997841e-07
3.7334113e-07
3.6966557e-07
3.7116357e-07
3.7149905e-07
3.7295399e-07
3.8043247e-07
3.9488427e-07
4.0999906e-07
4.2699927e-07
4.5096024e-07
4.7850279e-07
5.0818562e-07
5.3910165e-07
5.709253e-07
6.1613279e-07
6.7366776e-07
7.310208e-07
7.8750769e-07
8.5892781e-07
9.2673048e-07
9.8534505e-07
1.0647255e-06
1.1779431e-06
1.2783114e-06
1.4346388e-06
1.5875632e-06
1.8079518e-06
2.0749435e-06
2.4137505e-06
2.8137416e-06
1.6312374e-07
1.6252691e-07
1.6273029e-07
1.6459026e-07
1.6622647e-07
1.677798e-07
1.6879238e-07
1.7031456e-07
1.7107497e-07
1.7232869e-07
1.7388391e-07
1.7494262e-07
1.75495e-07
1.7616045e-07
1.7659082e-07
1.7661344e-07
1.7697534e-07
1.7777701e-07
1.7847034e-07
1.7905607e-07
1.7994308e-07
1.8117956e-07
1.8234145e-07
1.8373198e-07
1.8577195e-07
1.88654e-07
1.916453e-07
1.947761e-07
1.9858976e-07
2.0263741e-07
2.0669479e-07
2.1064129e-07
2.1432792e-07
2.1892425e-07
2.2416316e-07
2.2879477e-07
2.3275131e-07
2.3729224e-07
2.4101287e-07
2.4365335e-07
2.4719009e-07
2.5184298e-07
2.5515447e-07
2.6034577e-07
2.6463411e-07
2.7045786e-07
2.762525e-07
2.806095e-07
2.8458346e-07
1.4085012e-07
1.4096828e-07
1.4142956e-07
1.4256566e-07
1.4344083e-07
1.4432108e-07
1.4499513e-07
1.4587358e-07
1.4641271e-07
1.4725443e-07
1.4806196e-07
1.4859286e-07
1.4896013e-07
1.4937292e-07
1.4965873e-07
1.4987148e-07
1.5032129e-07
1.509511e-07
1.5153022e-07
1.5211282e-07
1.5282119e-07
1.536076e-07
1.5459294e-07
1.5579602e-07
1.5731374e-07
1.5929482e-07
1.6143244e-07
1.6365565e-07
1.6622678e-07
1.6901123e-07
1.7187931e-07
1.7478786e-07
1.7754673e-07
1.8059599e-07
1.8402785e-07
1.8742336e-07
1.904334e-07
1.9358895e-07
1.9658407e-07
1.9900992e-07
2.0137086e-07
2.0448528e-07
2.0697128e-07
2.1026944e-07
2.1329003e-07
2.1692741e-07
2.2086846e-07
2.2511381e-07
2.2896432e-07
1.2382687e-07
1.2375458e-07
1.2387927e-07
1.2440258e-07
1.2479829e-07
1.2520909e-07
1.2552233e-07
1.2596651e-07
1.2623913e-07
1.2669387e-07
1.2715303e-07
1.2746893e-07
1.2770198e-07
1.27971e-07
1.2817748e-07
1.2834747e-07
1.2866636e-07
1.2911338e-07
1.2955495e-07
1.3001779e-07
1.3056104e-07
1.311606e-07
1.3186116e-07
1.3271621e-07
1.3378535e-07
1.3513776e-07
1.3658974e-07
1.381204e-07
1.3988337e-07
1.41791e-07
1.437708e-07
1.4579118e-07
1.4774982e-07
1.4990529e-07
1.5229908e-07
1.5467558e-07
1.5684701e-07
1.5911614e-07
1.6129709e-07
1.6315619e-07
1.6500442e-07
1.6726499e-07
1.6917319e-07
1.7151396e-07
1.736803e-07
1.7614906e-07
1.7872108e-07
1.8141192e-07
1.8384705e-07
1.1487587e-07
1.1482335e-07
1.1488941e-07
1.1519642e-07
1.1542628e-07
1.1566473e-07
1.1584528e-07
1.1610157e-07
1.1625962e-07
1.165246e-07
1.167936e-07
1.1698556e-07
1.1713701e-07
1.1731572e-07
1.1746792e-07
1.1761149e-07
1.1785094e-07
1.1817399e-07
1.1850834e-07
1.1887335e-07
1.1930216e-07
1.1977878e-07
1.20346e-07
1.2102889e-07
1.2185525e-07
1.228669e-07
1.2395975e-07
1.2512309e-07
1.2644895e-07
1.278862e-07
1.2939091e-07
1.3094322e-07
1.3247937e-07
1.3415342e-07
1.3599457e-07
1.3784914e-07
1.3959583e-07
1.4141548e-07
1.4319828e-07
1.4479439e-07
1.4638609e-07
1.4825307e-07
1.4991754e-07
1.5187667e-07
1.5375775e-07
1.5586958e-07
1.5810108e-07
1.6047645e-07
1.6273527e-07
1.0853561e-07
1.0847007e-07
1.0847962e-07
1.0864395e-07
1.0876388e-07
1.0889263e-07
1.089894e-07
1.0913609e-07
1.0922657e-07
1.0938605e-07
1.0955205e-07
1.0967618e-07
1.0978126e-07
1.0990833e-07
1.1002545e-07
1.1014462e-07
1.1032961e-07
1.1057334e-07
1.108329e-07
1.1112071e-07
1.1145563e-07
1.1182637e-07
1.1225795e-07
1.1277363e-07
1.1339313e-07
1.1413974e-07
1.1494915e-07
1.1581675e-07
1.1680011e-07
1.1786706e-07
1.1899097e-07
1.2015889e-07
1.2133111e-07
1.2260301e-07
1.2399158e-07
1.2539866e-07
1.2674816e-07
1.2815197e-07
1.2953917e-07
1.3081274e-07
1.3208896e-07
1.3353876e-07
1.3486055e-07
1.3636459e-07
1.3781342e-07
1.3939903e-07
1.4104643e-07
1.4276589e-07
1.4438719e-07
1.0438186e-07
1.043335e-07
1.0433186e-07
1.0443062e-07
1.0450044e-07
1.045763e-07
1.0463242e-07
1.0472117e-07
1.0477593e-07
1.0487622e-07
1.0498261e-07
1.0506574e-07
1.0514067e-07
1.0523317e-07
1.0532391e-07
1.0542147e-07
1.0556586e-07
1.0575281e-07
1.0595642e-07
1.0618522e-07
1.064516e-07
1.0674904e-07
1.0709285e-07
1.0749883e-07
1.0798182e-07
1.0855604e-07
1.0918049e-07
1.0985331e-07
1.1061275e-07
1.1143857e-07
1.1231374e-07
1.1322968e-07
1.1416006e-07
1.1516704e-07
1.1626278e-07
1.1738272e-07
1.1847483e-07
1.1961199e-07
1.2074747e-07
1.2181416e-07
1.2288685e-07
1.2408421e-07
1.2520179e-07
1.2645077e-07
1.2767192e-07
1.2899839e-07
1.3038271e-07
1.318398e-07
1.3324073e-07
1.0143445e-07
1.0139663e-07
1.0138946e-07
1.0145018e-07
1.0149227e-07
1.0153913e-07
1.0157396e-07
1.0163124e-07
1.0166773e-07
1.0173559e-07
1.0180918e-07
1.0186999e-07
1.019282e-07
1.0200056e-07
1.0207488e-07
1.021573e-07
1.0227384e-07
1.0242185e-07
1.0258509e-07
1.0276933e-07
1.0298274e-07
1.0322142e-07
1.0349445e-07
1.0381318e-07
1.0419001e-07
1.0463386e-07
1.0511745e-07
1.056404e-07
1.0622876e-07
1.0686936e-07
1.0755104e-07
1.0826795e-07
1.0900251e-07
1.0979618e-07
1.1065724e-07
1.1154186e-07
1.124145e-07
1.1332333e-07
1.1423614e-07
1.151058e-07
1.1598256e-07
1.1694524e-07
1.1785468e-07
1.188525e-07
1.1982999e-07
1.2087626e-07
1.2195786e-07
1.2308372e-07
1.2416152e-07
9.9327314e-08
9.9302985e-08
9.9298337e-08
9.9340019e-08
9.9368981e-08
9.9401479e-08
9.9426358e-08
9.9466897e-08
9.9494474e-08
9.9544163e-08
9.95989e-08
9.9646833e-08
9.9695038e-08
9.975467e-08
9.981789e-08
9.9889171e-08
9.9985813e-08
1.0010611e-07
1.0023967e-07
1.003905e-07
1.0056419e-07
1.0075865e-07
1.0097938e-07
1.0123409e-07
1.0153313e-07
1.0188233e-07
1.0226313e-07
1.0267603e-07
1.0313945e-07
1.0364458e-07
1.0418381e-07
1.0475332e-07
1.0534136e-07
1.0597676e-07
1.0666573e-07
1.0737787e-07
1.0808778e-07
1.0882832e-07
1.0957684e-07
1.1029914e-07
1.1102921e-07
1.1182341e-07
1.1258277e-07
1.1340758e-07
1.1422107e-07
1.1508718e-07
1.1598291e-07
1.169177e-07
1.1781896e-07
9.778152e-08
9.7767569e-08
9.7766619e-08
9.7798118e-08
9.782095e-08
9.7846575e-08
9.7867447e-08
9.7899613e-08
9.7923723e-08
9.7963868e-08
9.8008472e-08
9.8049771e-08
9.8092758e-08
9.8145007e-08
9.8201343e-08
9.8265031e-08
9.8347787e-08
9.8448478e-08
9.8560277e-08
9.868597e-08
9.8829407e-08
9.8989488e-08
9.9169522e-08
9.9374831e-08
9.9613996e-08
9.9890893e-08
1.0019269e-07
1.0052048e-07
1.0088736e-07
1.0128699e-07
1.0171421e-07
1.0216703e-07
1.0263789e-07
1.0314717e-07
1.0369926e-07
1.0427241e-07
1.0484817e-07
1.0544912e-07
1.0605891e-07
1.0665242e-07
1.0725322e-07
1.079008e-07
1.0852434e-07
1.0919438e-07
1.0985594e-07
1.1055389e-07
1.1127138e-07
1.1201507e-07
1.127297e-07
9.6628862e-08
9.6624417e-08
9.6628415e-08
9.665537e-08
9.6676299e-08
9.6699471e-08
9.6719721e-08
9.6748305e-08
9.6771965e-08
9.6807512e-08
9.6846983e-08
9.6885235e-08
9.6925829e-08
9.6973969e-08
9.7026173e-08
9.7084814e-08
9.7157908e-08
9.7244659e-08
9.7340487e-08
9.7447321e-08
9.7567828e-08
9.7701435e-08
9.7850149e-08
9.801765e-08
9.8210934e-08
9.8432632e-08
9.8673813e-08
9.8936016e-08
9.9228272e-08
9.9545774e-08
9.988572e-08
1.0024797e-07
1.0062769e-07
1.0103909e-07
1.0148497e-07
1.0194944e-07
1.0241886e-07
1.029092e-07
1.0340868e-07
1.0389861e-07
1.0439551e-07
1.0492822e-07
1.0544477e-07
1.0599639e-07
1.0654286e-07
1.0711701e-07
1.0770649e-07
1.0831746e-07
1.0890531e-07
9.5758073e-08
9.5761262e-08
9.5770004e-08
9.57953e-08
9.581646e-08
9.5839531e-08
9.5860946e-08
9.5888711e-08
9.591363e-08
9.5947585e-08
9.598504e-08
9.6022542e-08
9.6062636e-08
9.6108919e-08
9.6158993e-08
9.6214552e-08
9.62811e-08
9.6358035e-08
9.6442205e-08
9.6534907e-08
9.6637965e-08
9.6751057e-08
9.687537e-08
9.7013453e-08
9.7170939e-08
9.734964e-08
9.7543353e-08
9.7753909e-08
9.7986725e-08
9.8238599e-08
9.8509543e-08
9.880059e-08
9.9107727e-08
9.9440187e-08
9.9799635e-08
1.001746e-07
1.0055525e-07
1.0095322e-07
1.0135996e-07
1.0176143e-07
1.0216937e-07
1.0260462e-07
1.0302873e-07
1.034788e-07
1.0392504e-07
1.0439117e-07
1.0486778e-07
1.0535957e-07
1.0583113e-07
9.5091763e-08
9.510154e-08
9.5114932e-08
9.5140406e-08
9.5163088e-08
9.5187475e-08
9.5211094e-08
9.5239704e-08
9.5266881e-08
9.5301094e-08
9.5338472e-08
9.5376679e-08
9.5417522e-08
9.5463482e-08
9.5512865e-08
9.5566841e-08
9.562916e-08
9.5699324e-08
9.5775096e-08
9.5857292e-08
9.5947121e-08
9.6044359e-08
9.6149661e-08
9.6264783e-08
9.6394193e-08
9.6539169e-08
9.669547e-08
9.6864975e-08
9.7049669e-08
9.7249314e-08
9.7466714e-08
9.7701962e-08
9.795027e-08
9.8217654e-08
9.8505883e-08
9.8807248e-08
9.9114856e-08
9.9437291e-08
9.9768219e-08
1.0009694e-07
1.0043175e-07
1.0078801e-07
1.0113682e-07
1.0150554e-07
1.0187184e-07
1.0225323e-07
1.0264251e-07
1.0304378e-07
1.03428e-07
9.4577735e-08
9.4592996e-08
9.461064e-08
9.4637271e-08
9.4662126e-08
9.4688591e-08
9.4714949e-08
9.4745385e-08
9.4775384e-08
9.4811017e-08
9.4849571e-08
9.4889448e-08
9.4931912e-08
9.4978647e-08
9.502842e-08
9.5081983e-08
9.5141835e-08
9.5207525e-08
9.5277402e-08
9.5351902e-08
9.5431762e-08
9.5516773e-08
9.5607222e-08
9.5704308e-08
9.5811506e-08
9.5929746e-08
9.6056227e-08
9.6192517e-08
9.6337492e-08
9.6496347e-08
9.6672493e-08
9.6862011e-08
9.7059996e-08
9.7272069e-08
9.7501016e-08
9.7741732e-08
9.7989078e-08
9.8249163e-08
9.8517135e-08
9.878475e-08
9.9057887e-08
9.934782e-08
9.9632767e-08
9.9932859e-08
1.0023123e-07
1.005407e-07
1.0085567e-07
1.0117939e-07
1.014882e-07
9.417787e-08
9.4197898e-08
9.4219521e-08
9.4247949e-08
9.4275383e-08
9.4304403e-08
9.4333826e-08
9.4366717e-08
9.4399898e-08
9.4437725e-08
9.4478301e-08
9.4520526e-08
9.456525e-08
9.461358e-08
9.4664582e-08
9.4718667e-08
9.4777427e-08
9.4840416e-08
9.490635e-08
9.497536e-08
9.5047814e-08
9.5123459e-08
9.520232e-08
9.5285207e-08
9.5374747e-08
9.5471643e-08
9.5574153e-08
9.568312e-08
9.5795357e-08
9.5923759e-08
9.606695e-08
9.621601e-08
9.6370127e-08
9.6536399e-08
9.6717435e-08
9.6908981e-08
9.7106839e-08
9.7315389e-08
9.7531013e-08
9.7747437e-08
9.796888e-08
9.8203729e-08
9.8435437e-08
9.8678977e-08
9.8921502e-08
9.9172537e-08
9.9427652e-08
9.9689612e-08
9.9938821e-08
9.3865402e-08
9.3889573e-08
9.3914879e-08
9.3945464e-08
9.3975688e-08
9.4007536e-08
9.4040205e-08
9.407595e-08
9.4112544e-08
9.4153096e-08
9.419629e-08
9.4241361e-08
9.4288839e-08
9.4339403e-08
9.4392307e-08
9.4447686e-08
9.4506449e-08
9.4568128e-08
9.4631668e-08
9.4696945e-08
9.4764027e-08
9.4832579e-08
9.4902432e-08
9.4974119e-08
9.5049555e-08
9.5129296e-08
9.5212332e-08
9.5298473e-08
9.5385042e-08
9.5490706e-08
9.5603639e-08
9.571585e-08
9.5833954e-08
9.5964282e-08
9.6106468e-08
9.6256988e-08
9.6412997e-08
9.6577966e-08
9.6749298e-08
9.6922219e-08
9.7099746e-08
9.7288086e-08
9.7474616e-08
9.767046e-08
9.7865768e-08
9.806757e-08
9.8272318e-08
9.8482264e-08
9.8681194e-08
9.362032e-08
9.3648217e-08
9.3677002e-08
9.3710002e-08
9.3743164e-08
9.3778035e-08
9.3814083e-08
9.3852976e-08
9.3893161e-08
9.3936837e-08
9.3983103e-08
9.4031417e-08
9.4082059e-08
9.4135382e-08
9.4190753e-08
9.4248074e-08
9.4307736e-08
9.4369228e-08
9.4431623e-08
9.4494581e-08
9.4557926e-08
9.4621213e-08
9.4684124e-08
9.4746978e-08
9.4811122e-08
9.4876994e-08
9.4944038e-08
9.5011124e-08
9.5082273e-08
9.5164717e-08
9.5244473e-08
9.5329622e-08
9.5420902e-08
9.5522276e-08
9.5630638e-08
9.5745895e-08
9.5866376e-08
9.5994612e-08
9.6128613e-08
9.6264709e-08
9.6405047e-08
9.6554242e-08
9.6702648e-08
9.6858565e-08
9.701441e-08
9.71754e-08
9.7338671e-08
9.7506118e-08
9.7664197e-08
9.3428067e-08
9.3459365e-08
9.3491465e-08
9.3527051e-08
9.3563253e-08
9.3601287e-08
9.364082e-08
9.3683084e-08
9.3727014e-08
9.3774131e-08
9.3823835e-08
9.3875729e-08
9.3929892e-08
9.3986422e-08
9.4044751e-08
9.4104578e-08
9.4165887e-08
9.4228114e-08
9.429039e-08
9.4352187e-08
9.4413119e-08
9.4472625e-08
9.4530261e-08
9.4586173e-08
9.4641263e-08
9.4695857e-08
9.4749639e-08
9.480151e-08
9.4880321e-08
9.4944268e-08
9.498052e-08
9.5039041e-08
9.5107182e-08
9.5180291e-08
9.5259906e-08
9.5346082e-08
9.5436781e-08
9.5533891e-08
9.5636068e-08
9.5740608e-08
9.5849082e-08
9.5964926e-08
9.6080769e-08
9.6202795e-08
9.6325139e-08
9.6451647e-08
9.6579983e-08
9.6711704e-08
9.6835497e-08
9.3277599e-08
9.3312092e-08
9.3347409e-08
9.3385728e-08
9.3425068e-08
9.3466394e-08
9.3509519e-08
9.3555353e-08
9.3603181e-08
9.3654018e-08
9.3707477e-08
9.3763257e-08
9.3821269e-08
9.388141e-08
9.3943137e-08
9.4005971e-08
9.4069572e-08
9.4133307e-08
9.4196322e-08
9.4257918e-08
9.4317527e-08
9.4374469e-08
9.4428184e-08
9.4478677e-08
9.4526503e-08
9.4571873e-08
9.4614632e-08
9.4656009e-08
9.4694642e-08
9.4731318e-08
9.4782047e-08
9.4826028e-08
9.487115e-08
9.4920922e-08
9.4976497e-08
9.5036988e-08
9.5101501e-08
9.5171588e-08
9.5246319e-08
9.5323674e-08
9.5404766e-08
9.5492135e-08
9.5580148e-08
9.5673405e-08
9.5767361e-08
9.5864847e-08
9.5963941e-08
9.6065941e-08
9.6161355e-08
9.3160673e-08
9.3198222e-08
9.3236702e-08
9.3277884e-08
9.332046e-08
9.3365204e-08
9.3412038e-08
9.3461627e-08
9.3513515e-08
9.3568328e-08
9.3625836e-08
9.3685791e-08
9.3747966e-08
9.3812091e-08
9.3877621e-08
9.3943919e-08
9.4010377e-08
9.4076285e-08
9.414077e-08
9.4202975e-08
9.4262168e-08
9.4317551e-08
9.4368455e-08
9.4414766e-08
9.4456769e-08
9.4494557e-08
9.4528234e-08
9.4558331e-08
9.4588692e-08
9.4594172e-08
9.463344e-08
9.4665385e-08
9.4694759e-08
9.472588e-08
9.4760789e-08
9.4799532e-08
9.4841746e-08
9.4888705e-08
9.4939842e-08
9.4993714e-08
9.5051139e-08
9.5113997e-08
9.517802e-08
9.5246614e-08
9.5316255e-08
9.538901e-08
9.5463283e-08
9.5540142e-08
9.5611622e-08
9.3070975e-08
9.3111514e-08
9.3153152e-08
9.3197328e-08
9.3243252e-08
9.3291551e-08
9.3342227e-08
9.3395762e-08
9.3451887e-08
9.3510928e-08
9.3572767e-08
9.3637183e-08
9.3703829e-08
9.3772294e-08
9.3842011e-08
9.3912199e-08
9.3982021e-08
9.4050686e-08
9.4117272e-08
9.4180778e-08
9.4240322e-08
9.4294984e-08
9.4343995e-08
9.4387139e-08
9.4424482e-08
9.4456015e-08
9.4481965e-08
9.4503203e-08
9.4519937e-08
9.4538107e-08
9.455032e-08
9.4561001e-08
9.4572383e-08
9.4585939e-08
9.4602525e-08
9.4622173e-08
9.4644789e-08
9.4671458e-08
9.4701922e-08
9.4735215e-08
9.4771948e-08
9.4813512e-08
9.4856695e-08
9.4904006e-08
9.4952714e-08
9.5004309e-08
9.505746e-08
9.5113042e-08
9.5164362e-08
9.300372e-08
9.3047231e-08
9.3092059e-08
9.3139366e-08
9.3188765e-08
9.324077e-08
9.3295441e-08
9.335312e-08
9.3413675e-08
9.3477199e-08
9.3543649e-08
9.3612815e-08
9.3684242e-08
9.3757393e-08
9.3831667e-08
9.3906149e-08
9.3979801e-08
9.4051742e-08
9.4120989e-08
9.4186396e-08
9.4246945e-08
9.4301595e-08
9.434948e-08
9.4390291e-08
9.4423922e-08
9.4450263e-08
9.4469669e-08
9.4482876e-08
9.4491096e-08
9.4494363e-08
9.4494962e-08
9.4494018e-08
9.4492297e-08
9.4491097e-08
9.4491585e-08
9.4494296e-08
9.4499522e-08
9.4508252e-08
9.4520479e-08
9.4535619e-08
9.4554135e-08
9.4577052e-08
9.4601988e-08
9.4630772e-08
9.4661293e-08
9.4694603e-08
9.4729585e-08
9.4766942e-08
9.480106e-08
9.2955235e-08
9.3001747e-08
9.3049831e-08
9.3100419e-08
9.315344e-08
9.3209317e-08
9.3268157e-08
9.3330194e-08
9.3395392e-08
9.3463662e-08
9.353501e-08
9.360922e-08
9.368574e-08
9.3763924e-08
9.3843118e-08
9.392228e-08
9.4000197e-08
9.4075891e-08
9.4148297e-08
9.4216138e-08
9.4278257e-08
9.4333501e-08
9.4380905e-08
9.4420076e-08
9.4450768e-08
9.4472778e-08
9.4486546e-08
9.4492863e-08
9.4492595e-08
9.4486975e-08
9.4477103e-08
9.4464223e-08
9.4449585e-08
9.4434587e-08
9.4420459e-08
9.4407971e-08
9.4397641e-08
9.4390367e-08
9.4386348e-08
9.438531e-08
9.4387625e-08
9.4394048e-08
9.4402856e-08
9.4415362e-08
9.4429944e-08
9.4447325e-08
9.446656e-08
9.4488209e-08
9.4507565e-08
9.292273e-08
9.2972307e-08
9.3023745e-08
9.3077776e-08
9.3134584e-08
9.3194519e-08
9.3257724e-08
9.3324345e-08
9.3394419e-08
9.346771e-08
9.3544252e-08
9.362381e-08
9.3705746e-08
9.3789307e-08
9.3873782e-08
9.3958004e-08
9.4040598e-08
9.4120483e-08
9.4196507e-08
9.4267256e-08
9.4331445e-08
9.4387804e-08
9.4435275e-08
9.4473385e-08
9.4501771e-08
9.4520146e-08
9.4529023e-08
9.4529195e-08
9.4521562e-08
9.4507249e-08
9.4487614e-08
9.4464054e-08
9.4437925e-08
9.4410577e-08
9.4383293e-08
9.4357072e-08
9.4332659e-08
9.431092e-08
9.4292241e-08
9.4276609e-08
9.4264346e-08
9.4256012e-08
9.4250405e-08
9.4248449e-08
9.4248909e-08
9.4252257e-08
9.4257689e-08
9.4265638e-08
9.4272171e-08
9.2904087e-08
9.2956825e-08
9.3011742e-08
9.3069397e-08
9.3130175e-08
9.3194373e-08
9.3262158e-08
9.333361e-08
9.3408814e-08
9.3487413e-08
9.3569456e-08
9.3654681e-08
9.3742362e-08
9.3831651e-08
9.3921768e-08
9.4011424e-08
9.4099092e-08
9.4183585e-08
9.4263649e-08
9.4337739e-08
9.4404441e-08
9.4462372e-08
9.451038e-08
9.4547915e-08
9.4574517e-08
9.4589821e-08
9.4594399e-08
9.4589069e-08
9.4574704e-08
9.4552548e-08
9.4524039e-08
9.4490655e-08
9.4453885e-08
9.4415105e-08
9.4375681e-08
9.4336821e-08
9.4299464e-08
9.4264473e-08
9.4232395e-08
9.4203441e-08
9.4177908e-08
9.4156213e-08
9.4137578e-08
9.4122627e-08
9.4110437e-08
9.4101289e-08
9.4094495e-08
9.4090375e-08
9.4085662e-08
9.289773e-08
9.2953752e-08
9.3012298e-08
9.3073771e-08
9.3138725e-08
9.3207409e-08
9.3280012e-08
9.3356558e-08
9.3437166e-08
9.3521378e-08
9.3609242e-08
9.3700464e-08
9.3794235e-08
9.3889609e-08
9.3985732e-08
9.4081196e-08
9.4174325e-08
9.4263822e-08
9.4348323e-08
9.4426152e-08
9.4495769e-08
9.4555675e-08
9.4604626e-08
9.4641998e-08
9.4667247e-08
9.4679939e-08
9.4680692e-08
9.4670354e-08
9.4649805e-08
9.4620367e-08
9.4583575e-08
9.4541008e-08
9.4494286e-08
9.4444827e-08
9.4394088e-08
9.434346e-08
9.429406e-08
9.4246773e-08
9.4202293e-08
9.4161022e-08
9.4123253e-08
9.4089311e-08
9.4058751e-08
9.4031979e-08
9.4008316e-08
9.39879e-08
9.3970139e-08
9.3955252e-08
9.3940547e-08
9.2902513e-08
9.2961966e-08
9.3024314e-08
9.3089818e-08
9.3159171e-08
9.3232584e-08
9.3310264e-08
9.3392187e-08
9.3478494e-08
9.3568639e-08
9.3662662e-08
9.3760227e-08
9.3860443e-08
9.396227e-08
9.4064771e-08
9.4166415e-08
9.4265388e-08
9.4360272e-08
9.4449589e-08
9.453153e-08
9.4604429e-08
9.466667e-08
9.471692e-08
9.475448e-08
9.4778733e-08
9.4789182e-08
9.4786489e-08
9.4771532e-08
9.474521e-08
9.4708929e-08
9.466432e-08
9.4613061e-08
9.4556903e-08
9.4497323e-08
9.4435881e-08
9.4374138e-08
9.4313377e-08
9.4254524e-08
9.4198408e-08
9.4145599e-08
9.4096405e-08
9.4051085e-08
9.4009473e-08
9.3971804e-08
9.3937603e-08
9.3906894e-08
9.387917e-08
9.3854556e-08
9.3830859e-08
9.2917645e-08
9.2980699e-08
9.3047045e-08
9.3116808e-08
9.3190804e-08
9.326921e-08
9.3352246e-08
9.3439848e-08
9.353217e-08
9.3628588e-08
9.3729123e-08
9.3833394e-08
9.3940425e-08
9.4049083e-08
9.415834e-08
9.4266544e-08
9.437174e-08
9.4472386e-08
9.4566883e-08
9.4653289e-08
9.4729808e-08
9.4794712e-08
9.4846574e-08
9.4884624e-08
9.4908176e-08
9.4916682e-08
9.491084e-08
9.4891562e-08
9.485978e-08
9.481698e-08
9.476489e-08
9.4705292e-08
9.4640066e-08
9.457077e-08
9.449907e-08
9.4426691e-08
9.4355074e-08
9.4285199e-08
9.4218024e-08
9.4154267e-08
9.4094262e-08
9.4038233e-08
9.398624e-08
9.3938393e-08
9.3894381e-08
9.3854144e-08
9.3817243e-08
9.3783718e-08
9.3751818e-08
9.2942634e-08
9.3009477e-08
9.3080037e-08
9.3154308e-08
9.3233209e-08
9.3316892e-08
9.3405586e-08
9.349919e-08
9.3597864e-08
9.3700913e-08
9.3808333e-08
9.3919689e-08
9.4033922e-08
9.4149802e-08
9.4266204e-08
9.4381353e-08
9.449315e-08
9.4599929e-08
9.469996e-08
9.4791166e-08
9.4871624e-08
9.493949e-08
9.4993243e-08
9.5032042e-08
9.5055142e-08
9.5061946e-08
9.5053185e-08
9.5029812e-08
9.4992796e-08
9.4943706e-08
9.4884368e-08
9.4816671e-08
9.4742626e-08
9.4663886e-08
9.4582233e-08
9.4499552e-08
9.4417431e-08
9.433692e-08
9.4259099e-08
9.418482e-08
9.4114456e-08
9.4048215e-08
9.3986343e-08
9.392886e-08
9.387559e-08
9.3826408e-08
9.3780933e-08
9.3739129e-08
9.3699636e-08
9.2977241e-08
9.3048083e-08
9.3123094e-08
9.3202139e-08
9.3286229e-08
9.3375494e-08
9.3470167e-08
9.3570119e-08
9.3675504e-08
9.3785563e-08
9.390026e-08
9.40191e-08
9.4140939e-08
9.4264446e-08
9.4388394e-08
9.4510878e-08
9.4629661e-08
9.4742939e-08
9.484885e-08
9.4945181e-08
9.5029877e-08
9.510098e-08
9.5156875e-08
9.519665e-08
9.5219503e-08
9.5224799e-08
9.5213297e-08
9.5185993e-08
9.51439e-08
9.508867e-08
9.5022229e-08
9.4946577e-08
9.4863861e-08
9.477584e-08
9.4684422e-08
9.4591646e-08
9.4499245e-08
9.440835e-08
9.4320159e-08
9.4235648e-08
9.4155236e-08
9.407913e-08
9.4007737e-08
9.3941009e-08
9.3878883e-08
9.3821187e-08
9.3767591e-08
9.3717986e-08
9.3671361e-08
9.3021458e-08
9.3096528e-08
9.3176248e-08
9.3260351e-08
9.3349935e-08
9.3445108e-08
9.3546107e-08
9.3652773e-08
9.3765252e-08
9.3882723e-08
9.4005109e-08
9.4131852e-08
9.4261719e-08
9.4393274e-08
9.452518e-08
9.4655401e-08
9.4781554e-08
9.4901698e-08
9.501383e-08
9.5115598e-08
9.5204818e-08
9.5279414e-08
9.5337679e-08
9.5378628e-08
9.5401408e-08
9.5405348e-08
9.5391238e-08
9.5360116e-08
9.5313045e-08
9.525176e-08
9.5178288e-08
9.5094747e-08
9.5003422e-08
9.4906192e-08
9.4805097e-08
9.4702329e-08
9.4599765e-08
9.4498625e-08
9.4400221e-08
9.4305648e-08
9.4215376e-08
9.4129626e-08
9.4048941e-08
9.3973229e-08
9.3902522e-08
9.383661e-08
9.377521e-08
9.3718142e-08
9.366472e-08
9.3075487e-08
9.3155032e-08
9.323974e-08
9.3329207e-08
9.3424612e-08
9.3526042e-08
9.3633737e-08
9.3747507e-08
9.3867487e-08
9.3992793e-08
9.4123304e-08
9.425839e-08
9.4396726e-08
9.4536767e-08
9.4677058e-08
9.4815426e-08
9.4949341e-08
9.5076716e-08
9.5195406e-08
9.5302917e-08
9.5396932e-08
9.5475261e-08
9.5536103e-08
9.55784e-08
9.560125e-08
9.5603956e-08
9.5587333e-08
9.5552465e-08
9.5500467e-08
9.5433158e-08
9.5352667e-08
9.5261237e-08
9.5161296e-08
9.5054852e-08
9.4944086e-08
9.4831342e-08
9.4718639e-08
9.4607295e-08
9.4498735e-08
9.4394166e-08
9.4294116e-08
9.4198832e-08
9.4108976e-08
9.4024426e-08
9.3945299e-08
9.3871357e-08
9.3802358e-08
9.3738056e-08
9.3678063e-08
9.3139732e-08
9.3224021e-08
9.3314017e-08
9.3409176e-08
9.3510752e-08
9.3618811e-08
9.3733596e-08
9.3854887e-08
9.3982799e-08
9.411639e-08
9.4255483e-08
9.4399375e-08
9.4546641e-08
9.4695622e-08
9.4844738e-08
9.4991675e-08
9.5133748e-08
9.5268721e-08
9.5394302e-08
9.5507852e-08
9.5606924e-08
9.568921e-08
9.5752816e-08
9.5796615e-08
9.5819656e-08
9.5821223e-08
9.5802153e-08
9.5763576e-08
9.5706664e-08
9.5633317e-08
9.5545772e-08
9.5446399e-08
9.5337775e-08
9.5222051e-08
9.5101552e-08
9.4978774e-08
9.485588e-08
9.4734288e-08
9.4615539e-08
9.450095e-08
9.439111e-08
9.4286303e-08
9.4187297e-08
9.4093956e-08
9.4006468e-08
9.3924578e-08
9.3848081e-08
9.3776668e-08
9.3710231e-08
9.3214802e-08
9.3304121e-08
9.3399731e-08
9.3500932e-08
9.3609054e-08
9.3724143e-08
9.3846438e-08
9.3975691e-08
9.4111995e-08
9.4254344e-08
9.4402502e-08
9.4555684e-08
9.4712362e-08
9.4870755e-08
9.5029151e-08
9.5185087e-08
9.5335721e-08
9.547866e-08
9.561146e-08
9.5731337e-08
9.5835713e-08
9.5922166e-08
9.5988709e-08
9.6034145e-08
9.6057478e-08
9.6057977e-08
9.6036503e-08
9.5994229e-08
9.5932384e-08
9.5852951e-08
9.5758275e-08
9.5650863e-08
9.5533446e-08
9.5408324e-08
9.5277974e-08
9.5145044e-08
9.5011837e-08
9.4879883e-08
9.4750836e-08
9.462612e-08
9.4506395e-08
9.439199e-08
9.4283769e-08
9.4181593e-08
9.4085718e-08
9.3995876e-08
9.3911899e-08
9.3833413e-08
9.3760586e-08
9.3301511e-08
9.3396172e-08
9.3497747e-08
9.3605367e-08
9.3720437e-08
9.3842981e-08
9.3973237e-08
9.4110923e-08
9.4256104e-08
9.4407711e-08
9.4565442e-08
9.4728422e-08
9.4895014e-08
9.5063309e-08
9.5231454e-08
9.5396828e-08
9.5556428e-08
9.57077e-08
9.5848041e-08
9.5974524e-08
9.608444e-08
9.6175255e-08
9.624489e-08
9.6292081e-08
9.631579e-08
9.6315276e-08
9.6291419e-08
9.6245439e-08
9.617862e-08
9.6093025e-08
9.5991114e-08
9.5875536e-08
9.5749182e-08
9.5614507e-08
9.5474143e-08
9.5330891e-08
9.5187194e-08
9.5044698e-08
9.4905174e-08
9.4770153e-08
9.4640372e-08
9.4516212e-08
9.4398629e-08
9.4287492e-08
9.418312e-08
9.4085237e-08
9.399371e-08
9.3908104e-08
9.3828855e-08
9.34009e-08
9.3501239e-08
9.3609158e-08
9.3723603e-08
9.3846054e-08
9.3976513e-08
9.4115209e-08
9.4261829e-08
9.4416403e-08
9.4577797e-08
9.4745634e-08
9.4918943e-08
9.509597e-08
9.5274672e-08
9.5453043e-08
9.5628304e-08
9.5797279e-08
9.5957246e-08
9.6105444e-08
9.62388e-08
9.6354476e-08
9.644983e-08
9.6522697e-08
9.6571745e-08
9.6595898e-08
9.6594409e-08
9.6568179e-08
9.651847e-08
9.6446618e-08
9.6354769e-08
9.6245499e-08
9.6121606e-08
9.5986146e-08
9.5841733e-08
9.5691158e-08
9.5537372e-08
9.538296e-08
9.5229686e-08
9.5079443e-08
9.4933872e-08
9.4793792e-08
9.4659648e-08
9.4532486e-08
9.441219e-08
9.429914e-08
9.4193059e-08
9.409385e-08
9.4001015e-08
9.3915261e-08
9.351425e-08
9.3620633e-08
9.3735309e-08
9.3857018e-08
9.3987318e-08
9.4126183e-08
9.4273837e-08
9.4429925e-08
9.4594442e-08
9.476618e-08
9.4944682e-08
9.5128873e-08
9.5316874e-08
9.5506501e-08
9.5695587e-08
9.5881183e-08
9.605994e-08
9.6228959e-08
9.6385317e-08
9.6525796e-08
9.6647435e-08
9.6747488e-08
9.6823707e-08
9.6874698e-08
9.689935e-08
9.6896913e-08
9.6868309e-08
9.6814838e-08
9.6737887e-08
9.6639681e-08
9.6522919e-08
9.6390553e-08
9.6245805e-08
9.6091454e-08
9.5930444e-08
9.5765878e-08
9.560048e-08
9.5436142e-08
9.527488e-08
9.511845e-08
9.4967763e-08
9.4823336e-08
9.4686304e-08
9.4556577e-08
9.4434593e-08
9.432008e-08
9.4212979e-08
9.4112722e-08
9.4020301e-08
9.3643109e-08
9.3755936e-08
9.3877821e-08
9.4007274e-08
9.4145931e-08
9.4293737e-08
9.4450903e-08
9.4617034e-08
9.4792078e-08
9.4974751e-08
9.5164504e-08
9.5360152e-08
9.5559683e-08
9.5760761e-08
9.5961054e-08
9.6157433e-08
9.6346369e-08
9.6524785e-08
9.6689589e-08
9.6837421e-08
9.6965202e-08
9.7070089e-08
9.714976e-08
9.7202763e-08
9.7227955e-08
9.7224589e-08
9.7193604e-08
9.7136337e-08
9.7054219e-08
9.6949554e-08
9.6825168e-08
9.6684171e-08
9.6529953e-08
9.6365455e-08
9.6193771e-08
9.601815e-08
9.5841459e-08
9.566572e-08
9.5493083e-08
9.5325425e-08
9.5163758e-08
9.5008683e-08
9.4861424e-08
9.4721927e-08
9.4590693e-08
9.4467457e-08
9.4352199e-08
9.4244284e-08
9.4144998e-08
9.3789328e-08
9.3909038e-08
9.403863e-08
9.4176353e-08
9.4323922e-08
9.4481252e-08
9.4648535e-08
9.4825326e-08
9.5011524e-08
9.5205759e-08
9.540738e-08
9.5615081e-08
9.5826711e-08
9.6039771e-08
9.6251758e-08
9.6459357e-08
9.6658855e-08
9.6846989e-08
9.70205e-08
9.7175888e-08
9.7309959e-08
9.7419789e-08
9.7502988e-08
9.755805e-08
9.7583811e-08
9.7579528e-08
9.7546156e-08
9.7485064e-08
9.7397718e-08
9.7286502e-08
9.7154373e-08
9.7004604e-08
9.6840746e-08
9.6665893e-08
9.6483286e-08
9.6296313e-08
9.6107984e-08
9.5920463e-08
9.5736041e-08
9.5556726e-08
9.5383643e-08
9.5217486e-08
9.5059576e-08
9.4909901e-08
9.4769025e-08
9.4636696e-08
9.4512936e-08
9.4397038e-08
9.4290603e-08
9.3955098e-08
9.4082179e-08
9.4220031e-08
9.4366604e-08
9.45237e-08
9.4691193e-08
9.4869252e-08
9.5057377e-08
9.5255405e-08
9.546187e-08
9.5676009e-08
9.5896384e-08
9.6120691e-08
9.6346265e-08
9.657042e-08
9.6789656e-08
9.7000069e-08
9.7198211e-08
9.7380653e-08
9.7543759e-08
9.7684233e-08
9.7799077e-08
9.7885847e-08
9.7942997e-08
9.7969342e-08
9.796415e-08
9.7928389e-08
9.7863453e-08
9.7770837e-08
9.7653001e-08
9.7513039e-08
9.7354384e-08
9.718074e-08
9.6995341e-08
9.6801558e-08
9.6602917e-08
9.6402574e-08
9.6202846e-08
9.6006178e-08
9.581472e-08
9.5629725e-08