/*--------------------------------*- C++ -*----------------------------------*\
| =========                 |                                                 |
| \\      /  F ield         | OpenFOAM: The Open Source CFD Toolbox           |
|  \\    /   O peration     | Version:  v2006                                 |
|   \\  /    A nd           | Website:  www.openfoam.com                      |
|    \\/     M anipulation  |                                                 |
\*---------------------------------------------------------------------------*/
FoamFile
{
    version     2.0;
    format      ascii;
    class       volScalarField;
    location    "1000";
    object      Cp;
}
// * * * * * * * * * * * * * * * * * * * * * * * * * * * * * * * * * * * * * //

dimensions      [0 0 0 0 0 0 0];


internalField   nonuniform List<scalar> 
19765
(
0.11450816
0.16929272
0.32247899
0.42905392
0.53521162
0.61490641
0.71050025
0.7658009
0.83809361
0.89782411
0.93824537
0.96972634
0.99631305
1.0109939
1.0167578
1.0161865
1.0095371
0.9964161
0.97636038
0.9496885
0.91561397
0.87444472
0.82964056
0.77679328
0.71261584
0.64554137
0.58721821
0.52075655
0.43772609
0.36232658
0.28334634
0.18809521
0.080592286
-0.060685246
-0.17533678
-0.2573787
-0.36209514
-0.51928446
-0.62940279
-0.75194297
-0.95147484
-1.1236758
-1.1540894
-1.307477
-1.304521
-1.3555675
-1.3161444
-1.2534819
-1.1723274
0.31651518
0.34470121
0.38136134
0.42546671
0.47247442
0.51807094
0.56592314
0.6063904
0.64882735
0.69135692
0.7276324
0.7576052
0.78577639
0.80612271
0.81839916
0.82750454
0.83221827
0.82951779
0.820602
0.80489595
0.78263547
0.75526224
0.72113334
0.68051928
0.63492016
0.58486746
0.52837031
0.46632278
0.39974743
0.32817215
0.25208979
0.17230855
0.089457068
0.0059423266
-0.076764884
-0.16025306
-0.24589093
-0.3307002
-0.40922237
-0.48309687
-0.5486711
-0.60288343
-0.65463279
-0.69945574
-0.73180444
-0.75943477
-0.78094032
-0.80042851
-0.82036215
0.30967413
0.34564128
0.3867868
0.42777492
0.46857095
0.50703425
0.54486355
0.57753647
0.60983657
0.64003742
0.66704702
0.6908227
0.71222409
0.72884136
0.7401237
0.74787735
0.75177985
0.7502799
0.74308921
0.72990213
0.71073087
0.68604841
0.6554144
0.61872407
0.57696472
0.5306633
0.47884676
0.4218071
0.36054897
0.2948431
0.2254308
0.15351059
0.080295803
0.006822978
-0.068058952
-0.1438349
-0.21834889
-0.29117508
-0.36243021
-0.42976284
-0.49260516
-0.55405911
-0.61242422
-0.66639772
-0.71546448
-0.75541352
-0.79083736
-0.82112076
-0.84927657
0.34734299
0.37106493
0.395609
0.42183574
0.44879165
0.47577919
0.50293199
0.52794966
0.55309934
0.57764073
0.59982049
0.61959108
0.63762993
0.65195901
0.66184345
0.66899595
0.67324297
0.67285347
0.66741202
0.65663825
0.64065684
0.62045617
0.59539721
0.56484855
0.52977844
0.4909084
0.44737183
0.39912548
0.347278
0.29186794
0.23351097
0.17334994
0.11222771
0.051203317
-0.010723871
-0.073002909
-0.13358281
-0.191719
-0.24838435
-0.30119879
-0.34939378
-0.39637312
-0.4427865
-0.48465038
-0.52598114
-0.56411824
-0.60306662
-0.64130721
-0.67868775
0.33288113
0.35446417
0.37641233
0.39819921
0.41964468
0.440453
0.46110771
0.47998392
0.49886949
0.51738545
0.53425595
0.54932521
0.56311297
0.57418076
0.58174383
0.5870422
0.59006954
0.58935146
0.58434429
0.57473664
0.5602984
0.5416777
0.51841726
0.48996672
0.45725258
0.42108633
0.38085582
0.33633702
0.28857963
0.23790542
0.18474059
0.12999674
0.074349775
0.018768657
-0.037064417
-0.09280119
-0.14727826
-0.19993404
-0.25125008
-0.29997986
-0.3460197
-0.39130489
-0.43620909
-0.47864599
-0.52119654
-0.56216676
-0.60276693
-0.6421349
-0.68047411
0.33013518
0.34571161
0.36184013
0.37796718
0.39406999
0.40981693
0.42570943
0.44030912
0.45509109
0.46966802
0.4829638
0.49482674
0.50565208
0.51427988
0.52003269
0.5238322
0.52562219
0.52418533
0.51904292
0.50989646
0.49655188
0.47961477
0.45874068
0.4333637
0.40418396
0.37188679
0.33601883
0.29645519
0.25410383
0.20928056
0.16239583
0.11425005
0.065445335
0.01680905
-0.031857996
-0.08024962
-0.12744476
-0.17299121
-0.21720079
-0.25919566
-0.29890024
-0.33779066
-0.37605167
-0.41268543
-0.44931385
-0.48516271
-0.52139931
-0.55798582
-0.59435428
0.31439528
0.32767184
0.34131964
0.35458576
0.36758629
0.38010088
0.39267017
0.40413085
0.41572987
0.4271593
0.43755297
0.44676985
0.45512355
0.46167502
0.4658371
0.46831105
0.46901841
0.46692542
0.46159516
0.4527283
0.44013899
0.42422458
0.4046851
0.38107355
0.35392894
0.32387844
0.29058625
0.25395972
0.21479606
0.17341493
0.1301823
0.085785266
0.040723248
-0.0042633533
-0.049232936
-0.093925077
-0.13767492
-0.18009909
-0.22141979
-0.2610404
-0.29898339
-0.33623472
-0.37308248
-0.40884519
-0.4447271
-0.48021806
-0.51616521
-0.55238551
-0.58881429
0.30251026
0.31283074
0.32361168
0.33408534
0.34438824
0.35428894
0.36428367
0.37335526
0.38256478
0.39161957
0.39979334
0.40695515
0.41335418
0.41820875
0.42101604
0.42231642
0.42201124
0.41922807
0.4135854
0.40480376
0.39272579
0.37763819
0.35930904
0.33738996
0.31227335
0.28449987
0.25381491
0.22018203
0.18430284
0.14647324
0.10704138
0.066620082
0.025657337
-0.01518992
-0.055939763
-0.096358935
-0.1358911
-0.17420566
-0.21147226
-0.24720804
-0.28140612
-0.31488813
-0.34786548
-0.37988609
-0.41189807
-0.44358124
-0.47567802
-0.50811921
-0.54087432
0.28716559
0.29577846
0.30479343
0.31344502
0.32188711
0.32992425
0.33801606
0.34529377
0.35266649
0.35987589
0.36630969
0.37184864
0.37669479
0.38018949
0.38189814
0.38224458
0.38111854
0.3777705
0.37186288
0.36313561
0.35144693
0.33699113
0.31956322
0.29889289
0.27527717
0.24918888
0.22043503
0.18900679
0.15551971
0.12024583
0.08350439
0.045835146
0.0076240254
-0.030544462
-0.068648208
-0.1064754
-0.14357402
-0.17964668
-0.21482384
-0.24872534
-0.28135908
-0.31332747
-0.34487547
-0.37562699
-0.40637336
-0.43687581
-0.46774306
-0.49894648
-0.53053603
0.27363392
0.28055707
0.28789136
0.29490957
0.30175985
0.30825164
0.31479208
0.32062031
0.32651514
0.33223686
0.3372615
0.34147737
0.34504722
0.34740774
0.34818157
0.34770393
0.34585858
0.34199924
0.33582882
0.32710975
0.31571128
0.30177313
0.2851174
0.26553828
0.24326265
0.21869547
0.19169592
0.16228202
0.13099957
0.0980996
0.063884905
0.028843321
-0.0066752991
-0.042141629
-0.077514481
-0.11259305
-0.14697815
-0.18039758
-0.21295661
-0.24432227
-0.27447869
-0.30393999
-0.3329182
-0.36109318
-0.38915876
-0.41691665
-0.44491989
-0.47315994
-0.50166923
0.25946715
0.26521181
0.27133366
0.27715038
0.28280162
0.28811499
0.29345201
0.29814927
0.30287656
0.30741583
0.3113145
0.31446843
0.31700922
0.3184501
0.3184606
0.31730805
0.31487367
0.31059472
0.3042083
0.29549766
0.284338
0.27083652
0.25482669
0.23614948
0.2149889
0.19168568
0.16614153
0.13839058
0.10891635
0.077948538
0.045769646
0.012817652
-0.020596338
-0.05399584
-0.087328503
-0.12040563
-0.15287885
-0.18449795
-0.21535027
-0.24514671
-0.27386833
-0.30192136
-0.32952204
-0.35636255
-0.38306519
-0.40944873
-0.43599889
-0.46271709
-0.48969092
0.24645781
0.251138
0.25617726
0.26094536
0.26557033
0.26988904
0.2742176
0.27797181
0.28172768
0.28528365
0.28824546
0.29051436
0.29219558
0.29286422
0.2922288
0.29050303
0.2875681
0.28293137
0.27635943
0.26765455
0.25669853
0.24357708
0.22813359
0.21024579
0.19006886
0.16788921
0.14364192
0.11737533
0.089521774
0.060293803
0.0299596
-0.0010809651
-0.032542516
-0.063988556
-0.095357846
-0.12646642
-0.15699495
-0.18670816
-0.21567805
-0.2436386
-0.27055557
-0.29677919
-0.32250661
-0.34744249
-0.37216105
-0.39648472
-0.42086297
-0.44529398
-0.46985094
0.23370728
0.23757261
0.24176682
0.24571046
0.24951896
0.25304196
0.25655602
0.25954636
0.26250955
0.26526027
0.26745251
0.26899278
0.2699646
0.26999421
0.26882277
0.26662132
0.26327263
0.25834275
0.25162347
0.24293423
0.23216381
0.21938149
0.20444036
0.18724525
0.16793001
0.14673706
0.12362687
0.09865756
0.072216772
0.044500914
0.015763235
-0.013631613
-0.043423401
-0.073213855
-0.10293865
-0.13242133
-0.16137152
-0.18957053
-0.21708071
-0.24365908
-0.26926649
-0.29419429
-0.31863311
-0.34228748
-0.3656898
-0.38866135
-0.41161027
-0.43453009
-0.45752177
0.22183701
0.22498927
0.22844489
0.23167428
0.23478108
0.23762453
0.24044512
0.24278686
0.245078
0.24714704
0.24868842
0.24961288
0.24998555
0.24947518
0.24785039
0.24524761
0.2415522
0.23638002
0.2295444
0.22088028
0.2102836
0.1978106
0.18332503
0.16675309
0.14821192
0.12790847
0.10582339
0.082022684
0.05685635
0.030507557
0.0032173911
-0.02467826
-0.052937873
-0.081193828
-0.10937795
-0.1373171
-0.16473981
-0.19143885
-0.21746591
-0.24259206
-0.26676909
-0.29025005
-0.31321061
-0.33535956
-0.35719659
-0.37854033
-0.3997709
-0.4208737
-0.44194234
0.21048651
0.21306401
0.21591645
0.21856049
0.22108818
0.22336901
0.22561206
0.22741258
0.2291405
0.23063728
0.23163157
0.23203822
0.23190702
0.23094271
0.22893732
0.22599913
0.22201678
0.21664865
0.2097267
0.20109981
0.19067102
0.17848607
0.1644195
0.14841424
0.13057397
0.11107686
0.089919488
0.06717363
0.04315658
0.018039721
-0.0079475703
-0.034495331
-0.061379245
-0.088260255
-0.11506923
-0.14163837
-0.16771528
-0.19310597
-0.21785551
-0.24175003
-0.2647383
-0.28703762
-0.30881354
-0.32977689
-0.35039615
-0.37048745
-0.39040133
-0.41011533
-0.42973674
0.19985978
0.20193897
0.20426709
0.20640384
0.20843101
0.21022684
0.21197261
0.21330775
0.21455196
0.21555816
0.2160842
0.21604855
0.215488
0.21413788
0.21181024
0.20859016
0.20436998
0.19884464
0.19186217
0.18328403
0.17302009
0.16110764
0.14743172
0.13194911
0.11475254
0.095996481
0.075690485
0.053910823
0.030946705
0.0069596172
-0.017831347
-0.043138388
-0.068751087
-0.094354606
-0.11987823
-0.14515761
-0.16995467
-0.1940856
-0.21758757
-0.24025756
-0.2620398
-0.28312436
-0.30366351
-0.32337416
-0.34269692
-0.3614476
-0.37995312
-0.39818389
-0.41624446
0.18979338
0.19145808
0.19334578
0.19505532
0.19665898
0.19804346
0.19936586
0.20030423
0.20113513
0.20172207
0.201848
0.20143492
0.20050874
0.19883118
0.1962316
0.19277598
0.18836061
0.18271207
0.17569247
0.16717458
0.15707487
0.14542366
0.13211587
0.11712014
0.10052034
0.082450748
0.06293169
0.042042927
0.020049106
-0.0028968881
-0.026585601
-0.050749084
-0.07518937
-0.09961385
-0.12395145
-0.14804237
-0.17166285
-0.1946402
-0.21700618
-0.23856971
-0.25927409
-0.27928569
-0.29874594
-0.31737881
-0.33559773
-0.35321962
-0.3705479
-0.38754652
-0.40432718
0.18033939
0.18164486
0.18314932
0.18448727
0.18572258
0.18674961
0.18770423
0.18829814
0.18877063
0.18899479
0.18877526
0.18803732
0.18679767
0.18484086
0.18201135
0.1783592
0.1737848
0.16804228
0.16100606
0.15255914
0.14262445
0.13122648
0.11826941
0.1037315
0.087689616
0.070261426
0.051475988
0.031416022
0.010324551
-0.011652893
-0.034315659
-0.057413238
-0.080758316
-0.10407782
-0.1273001
-0.15026923
-0.17277348
-0.19464958
-0.21592322
-0.23641316
-0.25606135
-0.27501435
-0.29340169
-0.31095708
-0.32806818
-0.34455546
-0.36070187
-0.37646665
-0.39196106
0.17141022
0.17241072
0.1735873
0.17460659
0.1755249
0.1762437
0.17688045
0.17717638
0.17733861
0.17724904
0.17673122
0.17571362
0.17420525
0.17201062
0.16898743
0.16517255
0.16047051
0.15465957
0.14762499
0.13925907
0.12949091
0.11833955
0.10571901
0.091614882
0.076098574
0.05927466
0.041177763
0.021893702
0.0016464077
-0.019425002
-0.041128087
-0.063228022
-0.085547014
-0.10782989
-0.13000487
-0.15192055
-0.17337698
-0.19422064
-0.21447263
-0.23396227
-0.25263232
-0.27061255
-0.28802223
-0.30460632
-0.32072743
-0.3362111
-0.35132053
-0.36601104
-0.38039787
0.16300312
0.16373856
0.16462888
0.16536973
0.16601076
0.16645997
0.16681871
0.16685415
0.16674555
0.16638283
0.16560608
0.16434679
0.16260753
0.16021032
0.15702453
0.15307606
0.14827356
0.1424165
0.13539976
0.12712412
0.11752442
0.10661505
0.094319924
0.080629787
0.06561145
0.049359835
0.031913169
0.013359853
-0.0060929447
-0.026311721
-0.047111693
-0.068272059
-0.089623481
-0.11092688
-0.13211036
-0.15302681
-0.17348698
-0.19334607
-0.2126205
-0.23114904
-0.24887522
-0.26591415
-0.28237471
-0.29801457
-0.31317222
-0.32768
-0.34178316
-0.35543473
-0.36875035
0.15506188
0.15556928
0.15621176
0.15671099
0.15711073
0.15732501
0.15744117
0.15724925
0.15690441
0.15630393
0.15530249
0.15383449
0.15189716
0.14932799
0.14600675
0.14195018
0.13707103
0.13118752
0.12420309
0.11602628
0.10659723
0.095926539
0.083947392
0.070654572
0.056110986
0.040403997
0.023574483
0.0057127305
-0.012988852
-0.032401724
-0.052348322
-0.072620543
-0.093056709
-0.11343251
-0.13367615
-0.15364518
-0.17316069
-0.1920866
-0.21043554
-0.22805609
-0.24489381
-0.2610514
-0.27662866
-0.291397
-0.30567176
-0.31929318
-0.33248952
-0.34521217
-0.35757902
0.14756511
0.14787368
0.1482991
0.14858645
0.14877431
0.14878224
0.14868539
0.14829399
0.14774228
0.14693429
0.14573756
0.14408933
0.14198236
0.13926789
0.13583496
0.1316927
0.12675787
0.1208653
0.11392613
0.105856
0.096599921
0.0861655
0.074494343
0.061584641
0.047495948
0.032309467
0.01606822
-0.0011362759
-0.01912464
-0.037772765
-0.0569099
-0.076339457
-0.095906719
-0.11540087
-0.13475029
-0.15381715
-0.17243224
-0.19046758
-0.20793212
-0.22468367
-0.24066982
-0.2559823
-0.27071207
-0.28464486
-0.29807379
-0.31084792
-0.32317982
-0.33502044
-0.34648805
0.14047112
0.14060731
0.14084352
0.14094579
0.14094817
0.14077531
0.14049176
0.13992565
0.13919303
0.1382042
0.13683812
0.13503475
0.13278319
0.12994695
0.12642338
0.1222153
0.11724339
0.11135728
0.10447503
0.096518772
0.087438035
0.077238078
0.065868093
0.053329246
0.039678204
0.024991019
0.0093125092
-0.0072651425
-0.024574112
-0.042494286
-0.060861388
-0.079489337
-0.098229834
-0.11688448
-0.135382
-0.15358934
-0.17134666
-0.18853384
-0.2051568
-0.22108261
-0.23626159
-0.25077614
-0.26470942
-0.27786195
-0.29050574
-0.30249926
-0.31404038
-0.32508009
-0.33573776
0.13375344
0.13373919
0.13380953
0.13374933
0.13358868
0.13325693
0.13280938
0.13209009
0.13119928
0.130053
0.12854038
0.12660404
0.12423005
0.12129291
0.11769749
0.11344133
0.10844896
0.10258321
0.09576841
0.087932644
0.0790296
0.069062739
0.057988052
0.045809344
0.032580778
0.018374038
0.0032354511
-0.012742601
-0.02940259
-0.046628043
-0.064260842
-0.082124531
-0.10007675
-0.11793056
-0.13561507
-0.15300207
-0.16994058
-0.18631786
-0.20213705
-0.21727404
-0.2316819
-0.24543471
-0.25860828
-0.27101787
-0.28291537
-0.29416904
-0.30496302
-0.31524918
-0.32514686
0.12737832
0.12723339
0.1271589
0.12695662
0.12665317
0.12618223
0.1255911
0.12473799
0.12370933
0.12242653
0.12078782
0.11873835
0.11626177
0.11324247
0.10959207
0.10530384
0.10030594
0.09447311
0.087735312
0.080026125
0.07130307
0.06156824
0.050783732
0.038955681
0.026136074
0.012392845
-0.002226424
-0.017629546
-0.033668207
-0.050229295
-0.067160567
-0.084294422
-0.10149405
-0.11858308
-0.13549119
-0.15209498
-0.16825203
-0.18385666
-0.19890969
-0.21329567
-0.22697077
-0.24000191
-0.25245844
-0.26417029
-0.27537046
-0.28593709
-0.29604161
-0.30563704
-0.3148429
0.1213194
0.12106081
0.12085976
0.12053318
0.1201047
0.119512
0.11879539
0.11782573
0.11667746
0.11527691
0.11353048
0.11138577
0.10882449
0.10573991
0.10204987
0.097744034
0.092754162
0.086965621
0.080313545
0.07273655
0.064195692
0.054692053
0.0441932
0.032707326
0.020284503
0.0069894182
-0.0071293275
-0.021980076
-0.037422798
-0.053347516
-0.069607605
-0.086043637
-0.102524
-0.11888213
-0.1350483
-0.15090396
-0.16631477
-0.18118174
-0.1955036
-0.20917317
-0.22214967
-0.23449365
-0.24626844
-0.25731828
-0.26785825
-0.2777764
-0.28723225
-0.29618049
-0.30474007
0.11554826
0.11519145
0.11488041
0.11444571
0.11390838
0.11320979
0.11238421
0.11131379
0.1100625
0.10856126
0.10672384
0.10450019
0.10187046
0.09873602
0.095020306
0.090710101
0.085740581
0.080006719
0.073448348
0.066008733
0.057652182
0.048379049
0.038161802
0.027010436
0.014973325
0.0021123087
-0.011523216
-0.025842401
-0.040712707
-0.056027115
-0.071644376
-0.087412634
-0.10320518
-0.11886452
-0.13432165
-0.14946278
-0.16416131
-0.17832457
-0.19194957
-0.20493708
-0.21724953
-0.22894194
-0.24007233
-0.25049885
-0.26041988
-0.26973321
-0.27858732
-0.28693879
-0.29490595
0.11004069
0.10959937
0.10919314
0.10866484
0.10803325
0.10724317
0.10632359
0.10516683
0.10382769
0.10224137
0.10032827
0.09804059
0.095357305
0.092187121
0.08845859
0.084156157
0.079218286
0.073548627
0.067091309
0.059793876
0.051623636
0.042580434
0.032641124
0.02181727
0.010155707
-0.0022842443
-0.015452605
-0.029259581
-0.043579442
-0.058307985
-0.073309123
-0.088438029
-0.10357262
-0.11856383
-0.13334342
-0.14780229
-0.16182113
-0.17531327
-0.18827413
-0.2006121
-0.21229268
-0.22336594
-0.23388508
-0.24372149
-0.25305789
-0.26180153
-0.27009062
-0.27788388
-0.28529853
0.10477261
0.1042594
0.10377155
0.10316303
0.10245063
0.10158239
0.10058266
0.099352926
0.097939961
0.096282948
0.094308287
0.091970375
0.089247271
0.086054362
0.082324896
0.078041444
0.073145626
0.067548943
0.061199462
0.054048672
0.046066636
0.037252869
0.027588136
0.017085354
0.005789939
-0.0062410487
-0.018957251
-0.032270147
-0.046060225
-0.060226
-0.074636339
-0.089152962
-0.10365817
-0.11801071
-0.13214317
-0.14595099
-0.15932183
-0.17217455
-0.18450333
-0.19622374
-0.20730437
-0.21779097
-0.22773247
-0.23701294
-0.24580058
-0.25401178
-0.26177524
-0.26905193
-0.27595786
0.099722905
0.099149256
0.098592181
0.097915689
0.097134892
0.096200781
0.095133713
0.093843425
0.09236965
0.090655288
0.088632192
0.086256843
0.083506647
0.080303087
0.076583722
0.072329648
0.067485502
0.061969912
0.055734553
0.048734555
0.040942508
0.032357732
0.022964473
0.012776794
0.0018387784
-0.0097945739
-0.022072725
-0.034908615
-0.048188461
-0.061813414
-0.07565711
-0.08958738
-0.10349068
-0.117233
-0.1307478
-0.14393491
-0.1566885
-0.16893264
-0.18066036
-0.19179403
-0.20230516
-0.21223562
-0.22163047
-0.23038573
-0.23865604
-0.24636652
-0.25363703
-0.26043094
-0.26686268
0.094871586
0.094248147
0.093633327
0.092900283
0.092062644
0.09107418
0.089951747
0.088612542
0.087090126
0.085330866
0.083271574
0.080870728
0.078105293
0.074902325
0.071203352
0.06698833
0.062204784
0.056777816
0.05066242
0.04381708
0.036216703
0.027860515
0.018735845
0.0088577072
-0.0017310953
-0.012977467
-0.024830885
-0.037205934
-0.049994127
-0.063099211
-0.076399415
-0.08976829
-0.10309623
-0.11625597
-0.12918181
-0.14177782
-0.15394426
-0.16561002
-0.17676715
-0.18734442
-0.19731613
-0.20672075
-0.21559991
-0.22386093
-0.23164595
-0.23888839
-0.24569998
-0.25204653
-0.25804075
0.090201103
0.089537706
0.088875758
0.088096765
0.087213061
0.08618101
0.085014407
0.083637214
0.082077555
0.080285041
0.078201008
0.075785838
0.07301623
0.069824352
0.066155389
0.061988448
0.057273808
0.051942467
0.045952471
0.039265399
0.031858276
0.023730304
0.014871527
0.0052977305
-0.0049495424
-0.015818986
-0.027260288
-0.039189842
-0.051504105
-0.064109395
-0.076888377
-0.08971997
-0.10249832
-0.11510239
-0.12746734
-0.13950125
-0.15111005
-0.16222705
-0.17284343
-0.18289388
-0.19235531
-0.2012631
-0.20965577
-0.21745116
-0.22477979
-0.23158295
-0.23796476
-0.24389359
-0.24948014
0.085695511
0.08500133
0.084302151
0.083487135
0.082567473
0.08150196
0.080301703
0.078896813
0.077310623
0.075495777
0.073397742
0.070978721
0.068215294
0.065044324
0.061414378
0.057303953
0.052665959
0.047436772
0.04157725
0.03505182
0.027839442
0.019939342
0.011343936
0.0020696106
-0.0078433587
-0.018345375
-0.029386531
-0.040885193
-0.052742464
-0.064867239
-0.077146477
-0.089464153
-0.10171799
-0.11379269
-0.12562428
-0.13712462
-0.14820487
-0.15880236
-0.16890747
-0.17846036
-0.18744039
-0.19588019
-0.20381554
-0.21117412
-0.21807579
-0.22446926
-0.2304517
-0.235994
-0.24120477
0.081341089
0.08062463
0.079897406
0.079055622
0.078109452
0.077019971
0.075795923
0.074373016
0.07277035
0.07094341
0.068841444
0.066428389
0.063680832
0.060539958
0.056957461
0.05291144
0.048357313
0.043236367
0.037512053
0.031151426
0.024135199
0.016462655
0.008128264
-0.00085115941
-0.010436621
-0.020580182
-0.031232547
-0.042314216
-0.053730701
-0.065393492
-0.077193731
-0.089020167
-0.10077393
-0.11234507
-0.1236704
-0.1346653
-0.14524573
-0.15535265
-0.16497559
-0.17405976
-0.18258671
-0.19058649
-0.19809238
-0.20504111
-0.21154266
-0.21755268
-0.22316182
-0.22834361
-0.23320422
0.077125877
0.076395046
0.075648321
0.074788407
0.073824572
0.072720023
0.071481428
0.070049596
0.068439883
0.066610436
0.064513969
0.062116072
0.059393444
0.056291253
0.052764096
0.048789849
0.044326322
0.039319293
0.033734611
0.027541748
0.020723006
0.013277741
0.0052021693
-0.0034866323
-0.012750964
-0.022544521
-0.032818854
-0.043496753
-0.054487938
-0.06570656
-0.077047837
-0.088405063
-0.099682639
-0.11077552
-0.12162131
-0.13213864
-0.14224777
-0.15189287
-0.16106266
-0.16970687
-0.17780902
-0.18539688
-0.19250147
-0.19906798
-0.20519737
-0.21085184
-0.21611608
-0.22096624
-0.22550601
0.073039995
0.072302063
0.071543719
0.070673675
0.069700387
0.068589065
0.06734454
0.065912278
0.064304323
0.062481314
0.060399148
0.058024992
0.05533574
0.052280242
0.048815795
0.044920199
0.040553543
0.035665725
0.030224807
0.024202486
0.017582496
0.010364279
0.0025455124
-0.0058566268
-0.014805798
-0.024257309
-0.034163777
-0.04445045
-0.05503111
-0.065822648
-0.076724298
-0.087633699
-0.098458404
-0.10909793
-0.11949059
-0.12955797
-0.13922419
-0.14843615
-0.1571817
-0.16541456
-0.17311991
-0.1803233
-0.18705358
-0.1932636
-0.19904588
-0.20436866
-0.20931103
-0.21385184
-0.21809193
0.069075236
0.068336867
0.06757416
0.066701366
0.065726229
0.064615822
0.06337336
0.061948565
0.060350548
0.058542282
0.056482596
0.054140157
0.051492133
0.048490777
0.0450959
0.041285356
0.037021406
0.032257723
0.026964425
0.021115253
0.014695229
0.0077038818
0.0001400499
-0.0079790655
-0.016618627
-0.025735548
-0.035283657
-0.045190944
-0.055375106
-0.065755895
-0.076236515
-0.086718816
-0.097113412
-0.10732406
-0.11728973
-0.12693464
-0.1361863
-0.1449939
-0.15334427
-0.16119463
-0.16853157
-0.17537859
-0.18176262
-0.18764368
-0.1931067
-0.19812568
-0.20277465
-0.20703513
-0.21100507
0.065225318
0.064492505
0.063732014
0.062863183
0.061893143
0.060790698
0.059557643
0.058147583
0.056567045
0.054781179
0.052751523
0.050448175
0.047848638
0.04490832
0.041589376
0.037869824
0.033713989
0.029079021
0.02393694
0.018263365
0.012044478
0.0052798769
-0.0020307081
-0.0098700943
-0.018205143
-0.026994402
-0.036193016
-0.045732003
-0.05553291
-0.065518467
-0.07559587
-0.08567108
-0.095657735
-0.10546355
-0.11502811
-0.12427794
-0.13314343
-0.14157559
-0.14956002
-0.15705685
-0.16405365
-0.17057178
-0.17663609
-0.18221289
-0.18737981
-0.19211599
-0.19649057
-0.20048789
-0.20420255
0.06148527
0.060763389
0.060011061
0.05915227
0.058193636
0.05710556
0.055888601
0.054499908
0.052943738
0.051187273
0.049194563
0.046937071
0.044392692
0.041519761
0.038282627
0.034659555
0.030616842
0.026114832
0.021127314
0.015631639
0.0096150276
0.003077121
-0.0039816894
-0.011544309
-0.019579464
-0.028047403
-0.036904712
-0.046085684
-0.055515714
-0.06512067
-0.074811783
-0.084499117
-0.094099342
-0.10352391
-0.11271296
-0.12159503
-0.13010289
-0.13818886
-0.14583711
-0.1530101
-0.15969611
-0.1659145
-0.17168835
-0.17698997
-0.18189067
-0.18637467
-0.19050687
-0.19427428
-0.19776838
0.057851924
0.057145619
0.056406666
0.055563269
0.054621638
0.053553647
0.052358778
0.050997414
0.049471823
0.047751092
0.045801598
0.043596116
0.041112982
0.038313249
0.035163318
0.031641781
0.027716804
0.023351676
0.018521834
0.013206224
0.0073930034
0.0010818217
-0.0057264628
-0.013014942
-0.020754327
-0.028906638
-0.037430088
-0.046262451
-0.055333033
-0.06457101
-0.073891768
-0.083209527
-0.092444065
-0.10151043
-0.11034927
-0.11889084
-0.12706977
-0.13483917
-0.14218143
-0.14906066
-0.15546519
-0.16141197
-0.1669218
-0.17197174
-0.17662658
-0.18087466
-0.18477654
-0.18832216
-0.19159925
0.054322687
0.053636045
0.052915065
0.052091797
0.051172121
0.050129276
0.04896181
0.04763307
0.046143595
0.044464254
0.042563599
0.040415667
0.037999282
0.035278026
0.032220225
0.028804854
0.025001854
0.020777226
0.016107947
0.010974439
0.0053657095
-0.00071862046
-0.0072773987
-0.014293994
-0.021741212
-0.029582901
-0.037779117
-0.046271318
-0.054992806
-0.063876285
-0.072841462
-0.081806876
-0.090695562
-0.099426078
-0.10793962
-0.11616785
-0.12404678
-0.13152983
-0.13859729
-0.1452143
-0.15136897
-0.15707599
-0.16235447
-0.16718627
-0.1716312
-0.17568204
-0.17939608
-0.18276559
-0.18587562
0.050896892
0.050233199
0.049533953
0.048734756
0.047841208
0.046827823
0.045692335
0.04440081
0.042952286
0.041319309
0.039472463
0.037387009
0.0350423
0.03240428
0.029443081
0.026138104
0.022460965
0.018380165
0.01387412
0.0089246282
0.0035214778
-0.0023357741
-0.0086458261
-0.015392406
-0.022550509
-0.03008586
-0.037960573
-0.046119991
-0.054501536
-0.06304167
-0.071664685
-0.080293697
-0.088855239
-0.097271397
-0.10548396
-0.11342579
-0.12103387
-0.12826132
-0.1350859
-0.1414728
-0.14740892
-0.15290571
-0.1579793
-0.16261425
-0.16686413
-0.17072445
-0.17424845
-0.1774314
-0.18035454
0.04757312
0.046935307
0.046261036
0.045489337
0.044625498
0.043645268
0.04254567
0.041295292
0.039891875
0.038309567
0.036520859
0.034502206
0.032233538
0.029683007
0.026822441
0.023631704
0.020083976
0.016150056
0.011809708
0.0070460272
0.0018495402
-0.0037802919
-0.0098421386
-0.01632015
-0.023191607
-0.030424135
-0.037982125
-0.045814996
-0.053864401
-0.062070842
-0.070363523
-0.078670529
-0.086922218
-0.095044318
-0.10297938
-0.11066138
-0.11802791
-0.12503135
-0.13164657
-0.1378382
-0.14359165
-0.14891556
-0.15382423
-0.15830595
-0.16241078
-0.16613819
-0.16953946
-0.17261131
-0.17543374
0.044352781
0.043742826
0.043095744
0.042354046
0.041522606
0.040578412
0.039517832
0.038311814
0.03695696
0.035428959
0.033702087
0.031753972
0.029565164
0.027105886
0.024349567
0.02127655
0.017861474
0.014077235
0.0099048566
0.0053286729
0.00033994172
-0.005062004
-0.010875888
-0.017086335
-0.023672996
-0.030605381
-0.03785039
-0.045361678
-0.053085256
-0.06096595
-0.068938311
-0.076935882
-0.084893247
-0.092740016
-0.10041981
-0.10786778
-0.11502196
-0.12183352
-0.12827376
-0.13430545
-0.13991074
-0.14509335
-0.14986289
-0.15420729
-0.15816961
-0.16174988
-0.16499499
-0.16790503
-0.17055585
0.041234159
0.04065406
0.040036131
0.039326643
0.03852986
0.037624071
0.036605044
0.035445993
0.034142531
0.032671857
0.031009936
0.029135548
0.027029902
0.024665179
0.022016322
0.019064172
0.015784709
0.012152725
0.0081504015
0.0037632757
-0.0010166332
-0.0061901495
-0.011756102
-0.01769962
-0.024002751
-0.030636791
-0.037571391
-0.044764591
-0.052166865
-0.059727716
-0.067387561
-0.075086023
-0.082762355
-0.090350436
-0.097795475
-0.10503416
-0.112005
-0.11865769
-0.12495972
-0.13087145
-0.13637182
-0.14146074
-0.14614568
-0.15041751
-0.15431753
-0.15784987
-0.16106111
-0.16395139
-0.16659732
0.038221177
0.037671442
0.037083216
0.036406866
0.035645858
0.034779851
0.033804044
0.032693817
0.031443901
0.030032969
0.028438563
0.026640585
0.02462093
0.022353638
0.019815088
0.016986634
0.013845472
0.010368075
0.0065376605
0.0023409651
-0.0022291432
-0.007173675
-0.012491562
-0.018168449
-0.024188787
-0.030525489
-0.03715118
-0.044028308
-0.051111871
-0.058356409
-0.065708849
-0.073115578
-0.08052103
-0.087864019
-0.095092206
-0.10214454
-0.10896023
-0.11548723
-0.12168836
-0.12751965
-0.13295383
-0.13798271
-0.14260536
-0.14680736
-0.15061965
-0.15404329
-0.15711847
-0.15985011
-0.16230855
0.035309977
0.034791719
0.034234101
0.033591937
0.032867712
0.032042555
0.031111191
0.030051132
0.028856383
0.027507092
0.025982303
0.024263004
0.022331788
0.020164438
0.017738691
0.015036425
0.012035956
0.0087152352
0.0050583917
0.00105339
-0.0033058881
-0.0080206543
-0.013089863
-0.018499726
-0.024237221
-0.030276793
-0.036594235
-0.043156164
-0.049922045
-0.056851795
-0.063899357
-0.071018561
-0.078159504
-0.085266918
-0.092292288
-0.099178098
-0.10586508
-0.11229974
-0.11844042
-0.12423877
-0.12966226
-0.13469754
-0.13934113
-0.14358153
-0.14745052
-0.15095454
-0.15413573
-0.15699651
-0.15961027
0.032508886
0.032020388
0.031491995
0.03088294
0.030194791
0.029410136
0.028523322
0.027513896
0.026375273
0.025089031
0.023635606
0.021996979
0.020156378
0.018091183
0.015780417
0.013206544
0.010348978
0.0071869793
0.003705379
-0.00010659137
-0.0042537905
-0.0087376646
-0.013557042
-0.018698814
-0.024152499
-0.029893788
-0.03590205
-0.042147755
-0.048594841
-0.055208989
-0.06195163
-0.06878443
-0.075663607
-0.082541135
-0.089373889
-0.096109474
-0.10269111
-0.10906435
-0.1151826
-0.12099084
-0.12644636
-0.13152204
-0.13619837
-0.1404492
-0.14428725
-0.14770858
-0.15074346
-0.1534028
-0.15574821
0.029808257
0.029349708
0.02885075
0.028274751
0.027622524
0.026878159
0.026035894
0.025077323
0.023995519
0.022773463
0.021392904
0.019836729
0.018088744
0.016127787
0.013934078
0.011490715
0.0087781703
0.0057767567
0.0024716472
-0.0011465628
-0.0050811327
-0.0093338953
-0.013903405
-0.018777265
-0.023946754
-0.029387699
-0.035083666
-0.041008754
-0.047131398
-0.053423829
-0.059855778
-0.066396928
-0.073010381
-0.079657562
-0.086302785
-0.092900657
-0.0993982
-0.10574131
-0.11187983
-0.11775409
-0.12331529
-0.12853079
-0.1333792
-0.13783894
-0.14192807
-0.1456509
-0.14904366
-0.15210846
-0.15491566
0.027224402
0.026790593
0.026316947
0.025770168
0.02515088
0.024444502
0.023645304
0.022736694
0.021711553
0.020554198
0.019247678
0.017775737
0.016122621
0.014268261
0.012193715
0.0098825277
0.0073161542
0.0044758659
0.0013470059
-0.002078159
-0.0058009158
-0.0098237199
-0.014144494
-0.018751553
-0.023637548
-0.028777934
-0.034160564
-0.03976155
-0.04555345
-0.051515707
-0.057625458
-0.063861077
-0.070193414
-0.076596647
-0.083045404
-0.089504531
-0.095927395
-0.10226265
-0.10845705
-0.11444301
-0.12015621
-0.12554054
-0.13054404
-0.13511199
-0.13922392
-0.14285691
-0.14602139
-0.14873307
-0.15103871
0.02473325
0.024324358
0.023876211
0.023358132
0.022770795
0.022100992
0.021343543
0.020483967
0.01951552
0.018423947
0.01719348
0.015808395
0.014252913
0.012507479
0.010553562
0.0083751325
0.005955113
0.0032764382
0.00032465037
-0.0029060791
-0.0064145563
-0.01020395
-0.014270572
-0.018604095