/*--------------------------------*- C++ -*----------------------------------*\
| =========                 |                                                 |
| \\      /  F ield         | OpenFOAM: The Open Source CFD Toolbox           |
|  \\    /   O peration     | Version:  v2006                                 |
|   \\  /    A nd           | Website:  www.openfoam.com                      |
|    \\/     M anipulation  |                                                 |
\*---------------------------------------------------------------------------*/
FoamFile
{
    version     2.0;
    format      ascii;
    class       volScalarField;
    location    "1000";
    object      k;
}
// * * * * * * * * * * * * * * * * * * * * * * * * * * * * * * * * * * * * * //

dimensions      [0 2 -2 0 0 0 0];


internalField   nonuniform List<scalar> 
19765
(
0.00015727918
0.00016004541
0.00016277313
0.00016543646
0.00016830407
0.00017129856
0.00017483527
0.00017769633
0.00018155926
0.00018387461
0.00018584743
0.00018829577
0.0001907575
0.00019242267
0.000194494
0.00019704346
0.00019906156
0.00020098361
0.0002033601
0.00020596731
0.00020859391
0.00021088968
0.00021337281
0.00021622365
0.00021892925
0.00022103653
0.00022341938
0.00022619503
0.00022854438
0.00023094554
0.0002336769
0.00023679378
0.00024066759
0.00024333234
0.00024490738
0.00024731914
0.00025090522
0.00025336689
0.00025666375
0.00026149499
0.00026513737
0.00026632314
0.00026911362
0.00026920852
0.00026967219
0.00026942306
0.00026867922
0.00026720642
0.00026497638
0.00016050722
0.00016264559
0.00016631752
0.00017410691
0.00018148926
0.00018906271
0.00019554667
0.00020428653
0.00021131817
0.00022075779
0.00023112699
0.00023940488
0.00024540967
0.00025063932
0.00025404957
0.00025507348
0.00025608786
0.00025802416
0.00026004039
0.00026206229
0.00026452909
0.00026761327
0.0002705191
0.00027381525
0.00027922542
0.00028666665
0.00029355177
0.00030049864
0.00030958539
0.00031898046
0.00032779098
0.00033563417
0.00034210316
0.00035133976
0.00036212917
0.00037012391
0.00037513661
0.00038140482
0.00038426307
0.0003836926
0.00038597898
0.00038854621
0.00038363222
0.00038227219
0.00037834004
0.00037419001
0.00036709414
0.00035797352
0.00034755746
1.7140895e-05
1.6466836e-05
1.6068776e-05
1.6794872e-05
1.7190599e-05
1.755792e-05
1.7589117e-05
1.8028511e-05
1.7970098e-05
1.8414581e-05
1.8961591e-05
1.9078405e-05
1.8842583e-05
1.8631479e-05
1.8184684e-05
1.751644e-05
1.7089079e-05
1.6856034e-05
1.6609897e-05
1.6354478e-05
1.6267587e-05
1.641439e-05
1.6513026e-05
1.6622865e-05
1.7114527e-05
1.8117505e-05
1.9151268e-05
2.0232057e-05
2.1777828e-05
2.3527239e-05
2.5317675e-05
2.7069177e-05
2.8636953e-05
3.0973166e-05
3.4031957e-05
3.682913e-05
3.9070101e-05
4.1975361e-05
4.4397908e-05
4.5679029e-05
4.7529791e-05
5.0970235e-05
5.2738703e-05
5.5897957e-05
5.7998713e-05
6.3311002e-05
7.0531531e-05
7.9613627e-05
8.6909493e-05
3.8848968e-07
3.458924e-07
3.232797e-07
3.2575724e-07
3.2516504e-07
3.251217e-07
3.2050314e-07
3.2223244e-07
3.1683509e-07
3.1757593e-07
3.1977242e-07
3.1639028e-07
3.0841934e-07
3.0151964e-07
2.9278471e-07
2.8178208e-07
2.7461085e-07
2.7109387e-07
2.6758312e-07
2.6361906e-07
2.6263803e-07
2.6602025e-07
2.6815971e-07
2.7119723e-07
2.8006846e-07
2.9654591e-07
3.1452733e-07
3.3444294e-07
3.6193678e-07
3.941685e-07
4.2950637e-07
4.6703756e-07
5.0528264e-07
5.5896062e-07
6.2936251e-07
7.02274e-07
7.7360064e-07
8.6443253e-07
9.532241e-07
1.0280686e-06
1.1266881e-06
1.276149e-06
1.407265e-06
1.6195354e-06
1.8305381e-06
2.1347525e-06
2.4999328e-06
2.956552e-06
3.4921872e-06
7.4083824e-08
7.3996516e-08
7.45142e-08
7.636521e-08
7.7854849e-08
7.9301538e-08
8.0307016e-08
8.1776143e-08
8.2570245e-08
8.3925258e-08
8.5431433e-08
8.6418786e-08
8.6980341e-08
8.7642405e-08
8.8040329e-08
8.8119754e-08
8.8593156e-08
8.9479577e-08
9.0250426e-08
9.0936739e-08
9.1889641e-08
9.3100038e-08
9.4331463e-08
9.5861667e-08
9.8087984e-08
1.0125255e-07
1.0463737e-07
1.0819986e-07
1.1254643e-07
1.1730508e-07
1.222172e-07
1.2715073e-07
1.3180864e-07
1.3745281e-07
1.4406759e-07
1.5034006e-07
1.5578508e-07
1.6190105e-07
1.6731186e-07
1.7125202e-07
1.7581768e-07
1.8218297e-07
1.8676677e-07
1.9379655e-07
1.9975712e-07
2.0761151e-07
2.1587833e-07
2.2254526e-07
2.2776342e-07
5.2477529e-08
5.2590746e-08
5.2975442e-08
5.3896414e-08
5.4617263e-08
5.5343829e-08
5.5906602e-08
5.6640333e-08
5.7100149e-08
5.7813212e-08
5.8510653e-08
5.8979979e-08
5.9311022e-08
5.9681627e-08
5.9944051e-08
6.0136799e-08
6.0527925e-08
6.1078397e-08
6.1588652e-08
6.2102749e-08
6.273775e-08
6.3461829e-08
6.4336732e-08
6.5399307e-08
6.6751709e-08
6.8532312e-08
7.0473776e-08
7.252394e-08
7.4933716e-08
7.758703e-08
8.0367252e-08
8.3229569e-08
8.5991181e-08
8.9101893e-08
9.2672484e-08
9.6270275e-08
9.9519472e-08
1.0297941e-07
1.0631197e-07
1.0904261e-07
1.1174346e-07
1.153382e-07
1.1826582e-07
1.2217965e-07
1.2583024e-07
1.3027771e-07
1.351761e-07
1.4053022e-07
1.4546417e-07
4.0835963e-08
4.0818756e-08
4.0932738e-08
4.1317417e-08
4.1614163e-08
4.1921325e-08
4.2160751e-08
4.2491197e-08
4.2702602e-08
4.3040916e-08
4.3383455e-08
4.3627062e-08
4.3813244e-08
4.4025903e-08
4.419632e-08
4.4342036e-08
4.4593668e-08
4.4937776e-08
4.527977e-08
4.5638604e-08
4.6056664e-08
4.6514926e-08
4.7054312e-08
4.7713483e-08
4.8536261e-08
4.9578251e-08
5.0708844e-08
5.1914445e-08
5.3314673e-08
5.4848717e-08
5.6463565e-08
5.8134945e-08
5.9780862e-08
6.1613353e-08
6.3676238e-08
6.5759186e-08
6.7696133e-08
6.9744555e-08
7.1742254e-08
7.3470776e-08
7.520646e-08
7.7343839e-08
7.9180151e-08
8.1446718e-08
8.3577704e-08
8.6029938e-08
8.8620209e-08
9.1363074e-08
9.3880673e-08
3.4776917e-08
3.4768404e-08
3.4832223e-08
3.5046225e-08
3.5211535e-08
3.5382384e-08
3.5516475e-08
3.5699165e-08
3.5819473e-08
3.6008044e-08
3.6200209e-08
3.6344e-08
3.6462221e-08
3.6598607e-08
3.6718802e-08
3.6833601e-08
3.7010421e-08
3.7242297e-08
3.7482415e-08
3.7743259e-08
3.8046965e-08
3.838273e-08
3.8777926e-08
3.9251884e-08
3.9824564e-08
4.0525649e-08
4.128732e-08
4.2104183e-08
4.3041517e-08
4.4067138e-08
4.5152519e-08
4.6284463e-08
4.7418052e-08
4.8666939e-08
5.0057348e-08
5.1477006e-08
5.283258e-08
5.4261541e-08
5.5679006e-08
5.6962734e-08
5.8256917e-08
5.979055e-08
6.1175991e-08
6.2824132e-08
6.4427711e-08
6.6250661e-08
6.8204556e-08
7.0313089e-08
7.2345369e-08
3.0985913e-08
3.0970001e-08
3.0996672e-08
3.1113622e-08
3.1204002e-08
3.129947e-08
3.1375797e-08
3.1482024e-08
3.1554952e-08
3.1668941e-08
3.1787561e-08
3.1882015e-08
3.1965529e-08
3.2062791e-08
3.215491e-08
3.2248472e-08
3.2381572e-08
3.255058e-08
3.2729712e-08
3.2926322e-08
3.315199e-08
3.3399433e-08
3.3684425e-08
3.4022263e-08
3.442536e-08
3.4908913e-08
3.543429e-08
3.5999816e-08
3.6642964e-08
3.7345013e-08
3.8090201e-08
3.887082e-08
3.9661604e-08
4.0526777e-08
4.1480419e-08
4.2457613e-08
4.3405765e-08
4.4401819e-08
4.5396686e-08
4.6319723e-08
4.7253458e-08
4.8323135e-08
4.9310192e-08
5.0442855e-08
5.1546804e-08
5.2766975e-08
5.4049416e-08
5.5402449e-08
5.6693097e-08
2.8582928e-08
2.8577233e-08
2.8596555e-08
2.8671804e-08
2.8730449e-08
2.8792474e-08
2.8843243e-08
2.8912821e-08
2.8963282e-08
2.9039682e-08
2.9120251e-08
2.918837e-08
2.9252274e-08
2.9326743e-08
2.9400908e-08
2.9479131e-08
2.9584046e-08
2.9713609e-08
2.9852978e-08
3.0006854e-08
3.0182374e-08
3.0375314e-08
3.059458e-08
3.085023e-08
3.1151e-08
3.15055e-08
3.1890374e-08
3.2305359e-08
3.2773913e-08
3.3284895e-08
3.382895e-08
3.4401497e-08
3.4987058e-08
3.5625026e-08
3.6324659e-08
3.7046165e-08
3.7756321e-08
3.8502097e-08
3.9253537e-08
3.9965606e-08
4.0687798e-08
4.1500732e-08
4.2267008e-08
4.3130895e-08
4.3984034e-08
4.4919817e-08
4.5906892e-08
4.6956563e-08
4.7976038e-08
2.6956043e-08
2.6956565e-08
2.6972694e-08
2.7025318e-08
2.706761e-08
2.7112564e-08
2.7150982e-08
2.7202058e-08
2.7242023e-08
2.7299358e-08
2.7360553e-08
2.7415534e-08
2.7469599e-08
2.7531989e-08
2.7596118e-08
2.7664863e-08
2.7752263e-08
2.7857121e-08
2.7970429e-08
2.8095131e-08
2.8235654e-08
2.8389372e-08
2.856129e-08
2.8758318e-08
2.8987295e-08
2.9253247e-08
2.9541306e-08
2.9851833e-08
3.0200032e-08
3.0579009e-08
3.0983094e-08
3.1409479e-08
3.1848473e-08
3.2325054e-08
3.2845147e-08
3.3383188e-08
3.3917844e-08
3.4478563e-08
3.5045951e-08
3.5590444e-08
3.6143394e-08
3.6755072e-08
3.7337726e-08
3.7981944e-08
3.8618401e-08
3.9305318e-08
4.0021772e-08
4.0773869e-08
4.1499799e-08
2.5824017e-08
2.5832275e-08
2.5850065e-08
2.5892081e-08
2.5927288e-08
2.5964534e-08
2.5997883e-08
2.6040034e-08
2.6075661e-08
2.6123365e-08
2.6174526e-08
2.6222902e-08
2.6271993e-08
2.632775e-08
2.638606e-08
2.6448839e-08
2.6524995e-08
2.661378e-08
2.6709533e-08
2.681411e-08
2.6930334e-08
2.7056603e-08
2.7195727e-08
2.7352297e-08
2.7531736e-08
2.7737099e-08
2.7958625e-08
2.8196968e-08
2.8462469e-08
2.875084e-08
2.9058598e-08
2.9384111e-08
2.9721147e-08
3.0086317e-08
3.0483812e-08
3.0896704e-08
3.1310534e-08
3.174469e-08
3.2186259e-08
3.2614892e-08
3.3050925e-08
3.3528674e-08
3.3988608e-08
3.449193e-08
3.4991957e-08
3.5528468e-08
3.6087759e-08
3.6675924e-08
3.7246823e-08
2.5014336e-08
2.5028576e-08
2.5048815e-08
2.5085665e-08
2.5118077e-08
2.5152212e-08
2.518416e-08
2.5222542e-08
2.5257235e-08
2.530068e-08
2.5347282e-08
2.5393072e-08
2.5440382e-08
2.5493113e-08
2.5548608e-08
2.5608097e-08
2.5677305e-08
2.5755721e-08
2.5839646e-08
2.5930197e-08
2.6029143e-08
2.6135405e-08
2.6250498e-08
2.6377519e-08
2.6520766e-08
2.6682091e-08
2.6854981e-08
2.7040219e-08
2.724501e-08
2.7466668e-08
2.7703108e-08
2.7953474e-08
2.8213756e-08
2.8495244e-08
2.8800912e-08
2.9119256e-08
2.944033e-08
2.9777134e-08
3.0120789e-08
3.045698e-08
3.0799316e-08
3.1170893e-08
3.1530772e-08
3.1920232e-08
3.2307156e-08
3.2718226e-08
3.3143695e-08
3.3587593e-08
3.4016314e-08
2.4422863e-08
2.4442651e-08
2.4466135e-08
2.4501188e-08
2.4533356e-08
2.4567054e-08
2.4599678e-08
2.463721e-08
2.4672863e-08
2.4715096e-08
2.4760247e-08
2.4805765e-08
2.4853194e-08
2.4905103e-08
2.4959724e-08
2.5017788e-08
2.5082949e-08
2.5154811e-08
2.5230863e-08
2.53117e-08
2.539838e-08
2.5490083e-08
2.5587552e-08
2.5692886e-08
2.5809426e-08
2.5938291e-08
2.6075099e-08
2.6220702e-08
2.6380237e-08
2.6552087e-08
2.6735145e-08
2.6929117e-08
2.7131413e-08
2.734989e-08
2.7586776e-08
2.7834179e-08
2.8085138e-08
2.8348653e-08
2.8618559e-08
2.8884564e-08
2.9155903e-08
2.9448895e-08
2.973444e-08
3.0041535e-08
3.0347438e-08
3.067098e-08
3.1005234e-08
3.1353755e-08
3.1690351e-08
2.3984781e-08
2.4009183e-08
2.4035903e-08
2.4070894e-08
2.4104128e-08
2.4138827e-08
2.4173251e-08
2.4211621e-08
2.4249337e-08
2.4292206e-08
2.4337837e-08
2.4384571e-08
2.44334e-08
2.4485994e-08
2.4541135e-08
2.4599171e-08
2.4662364e-08
2.473036e-08
2.480137e-08
2.4875599e-08
2.4953598e-08
2.5034646e-08
2.5118998e-08
2.5208067e-08
2.5304407e-08
2.5408662e-08
2.5517895e-08
2.5632981e-08
2.5757618e-08
2.5890967e-08
2.6032649e-08
2.6182681e-08
2.6339343e-08
2.6508194e-08
2.6691011e-08
2.6882411e-08
2.7077546e-08
2.7282754e-08
2.7493687e-08
2.7702845e-08
2.7916582e-08
2.8146353e-08
2.8371257e-08
2.8611658e-08
2.88512e-08
2.9103035e-08
2.9361998e-08
2.9630681e-08
2.9888904e-08
2.3656136e-08
2.3684691e-08
2.3714702e-08
2.3750751e-08
2.3785877e-08
2.3822479e-08
2.3859399e-08
2.389966e-08
2.3940131e-08
2.3984812e-08
2.4032161e-08
2.4081096e-08
2.4132208e-08
2.4186547e-08
2.424323e-08
2.4302306e-08
2.4365069e-08
2.4431157e-08
2.449922e-08
2.4569159e-08
2.4641143e-08
2.471447e-08
2.4789065e-08
2.486586e-08
2.4946752e-08
2.503208e-08
2.5119908e-08
2.5211102e-08
2.530835e-08
2.5411487e-08
2.5520616e-08
2.5635789e-08
2.5755887e-08
2.5885058e-08
2.6024908e-08
2.617186e-08
2.6322544e-08
2.6481483e-08
2.6645592e-08
2.6809349e-08
2.6977145e-08
2.7157219e-08
2.7334308e-08
2.752302e-08
2.7711412e-08
2.790892e-08
2.8111669e-08
2.8321836e-08
2.852327e-08
2.3408126e-08
2.3440348e-08
2.3473542e-08
2.351129e-08
2.3548774e-08
2.358781e-08
2.3627644e-08
2.3670462e-08
2.3714139e-08
2.3761412e-08
2.3811323e-08
2.3863158e-08
2.3917214e-08
2.397409e-08
2.403311e-08
2.4094078e-08
2.415759e-08
2.4223249e-08
2.4289964e-08
2.4357383e-08
2.4425377e-08
2.4493211e-08
2.4560573e-08
2.4628047e-08
2.4696986e-08
2.4767523e-08
2.4838429e-08
2.4910537e-08
2.4985841e-08
2.5064828e-08
2.5147671e-08
2.5234312e-08
2.5324306e-08
2.5421054e-08
2.5526067e-08
2.5636977e-08
2.5751411e-08
2.5872598e-08
2.599835e-08
2.6124598e-08
2.6254406e-08
2.6393692e-08
2.653125e-08
2.6677563e-08
2.6823816e-08
2.6976734e-08
2.7133324e-08
2.7295254e-08
2.7449642e-08
2.3220134e-08
2.325575e-08
2.3292089e-08
2.3331987e-08
2.3372161e-08
2.3414011e-08
2.3457063e-08
2.3502913e-08
2.3550136e-08
2.3600571e-08
2.3653661e-08
2.3708935e-08
2.376646e-08
2.3826505e-08
2.3888511e-08
2.3952077e-08
2.4017281e-08
2.408367e-08
2.4150292e-08
2.4216583e-08
2.4282165e-08
2.434624e-08
2.4408316e-08
2.4468721e-08
2.452835e-08
2.4587192e-08
2.4644533e-08
2.4701153e-08
2.4758619e-08
2.4818035e-08
2.4879027e-08
2.4941771e-08
2.50068e-08
2.5076981e-08
2.5153552e-08
2.5234893e-08
2.5319355e-08
2.540931e-08
2.5503284e-08
2.5598323e-08
2.5696593e-08
2.5802404e-08
2.5907472e-08
2.6019397e-08
2.6131614e-08
2.6248975e-08
2.6369142e-08
2.6493487e-08
2.6611512e-08
2.3077963e-08
2.3116749e-08
2.3156184e-08
2.3198533e-08
2.3241626e-08
2.3286558e-08
2.3333057e-08
2.3382293e-08
2.3433334e-08
2.348737e-08
2.3544123e-08
2.3603278e-08
2.366472e-08
2.3728465e-08
2.3794013e-08
2.3860786e-08
2.3928463e-08
2.3996521e-08
2.4064066e-08
2.413035e-08
2.419478e-08
2.4256471e-08
2.4314783e-08
2.4369856e-08
2.4422197e-08
2.4471693e-08
2.4518004e-08
2.4561856e-08
2.4604622e-08
2.4647851e-08
2.4689959e-08
2.4732559e-08
2.4776962e-08
2.4825126e-08
2.4877875e-08
2.4934217e-08
2.4993185e-08
2.5056648e-08
2.5123703e-08
2.5192248e-08
2.5263817e-08
2.5341531e-08
2.541926e-08
2.5502489e-08
2.5586298e-08
2.5674152e-08
2.5764192e-08
2.5857485e-08
2.5945488e-08
2.2971161e-08
2.3013003e-08
2.3055534e-08
2.3100581e-08
2.3146793e-08
2.3195038e-08
2.3245192e-08
2.3298115e-08
2.3353224e-08
2.3411235e-08
2.3472064e-08
2.3535492e-08
2.3601258e-08
2.3669174e-08
2.3738763e-08
2.3809287e-08
2.3880109e-08
2.3950622e-08
2.401994e-08
2.408714e-08
2.4151446e-08
2.4211865e-08
2.4267634e-08
2.4318734e-08
2.4365365e-08
2.4407325e-08
2.4444546e-08
2.4477721e-08
2.4508212e-08
2.453763e-08
2.4563018e-08
2.4589067e-08
2.4616295e-08
2.4645519e-08
2.467758e-08
2.4712267e-08
2.4749248e-08
2.4790042e-08
2.4834146e-08
2.488009e-08
2.4928945e-08
2.4982967e-08
2.5037628e-08
2.5096884e-08
2.5157036e-08
2.5220561e-08
2.5285961e-08
2.5354098e-08
2.5417941e-08
2.289225e-08
2.2937083e-08
2.2982735e-08
2.3030685e-08
2.3080192e-08
2.3131957e-08
2.3185963e-08
2.3242842e-08
2.3302262e-08
2.3364586e-08
2.3429864e-08
2.3497932e-08
2.3568406e-08
2.3640933e-08
2.3715027e-08
2.3789806e-08
2.386437e-08
2.393802e-08
2.4009836e-08
2.4078736e-08
2.4143772e-08
2.4203838e-08
2.4258054e-08
2.4306268e-08
2.4348432e-08
2.4384261e-08
2.4413888e-08
2.4438009e-08
2.4458051e-08
2.4475083e-08
2.44864e-08
2.4498909e-08
2.4510769e-08
2.4522848e-08
2.4536615e-08
2.4552457e-08
2.4570403e-08
2.4591638e-08
2.4615944e-08
2.4642333e-08
2.467156e-08
2.4705248e-08
2.4740088e-08
2.4778905e-08
2.4818924e-08
2.4861879e-08
2.4906556e-08
2.4953619e-08
2.4997289e-08
2.2835642e-08
2.2883465e-08
2.2932301e-08
2.2983349e-08
2.3036331e-08
2.3091822e-08
2.3149887e-08
2.3210985e-08
2.3274968e-08
2.334193e-08
2.3412012e-08
2.3485079e-08
2.356064e-08
2.3638201e-08
2.3717247e-08
2.3796758e-08
2.3875613e-08
2.395301e-08
2.4027968e-08
2.4099249e-08
2.4165744e-08
2.4226228e-08
2.427971e-08
2.4325916e-08
2.43646e-08
2.4395401e-08
2.4418599e-08
2.4434927e-08
2.4445803e-08
2.4450689e-08
2.4454094e-08
2.4452485e-08
2.4449178e-08
2.4445886e-08
2.444373e-08
2.4443159e-08
2.4444415e-08
2.4448475e-08
2.4455386e-08
2.4464568e-08
2.4476571e-08
2.4492561e-08
2.4510163e-08
2.4531371e-08
2.4554106e-08
2.4579565e-08
2.4606748e-08
2.463617e-08
2.4663055e-08
2.2797246e-08
2.2848096e-08
2.2900205e-08
2.2954543e-08
2.3011187e-08
2.3070616e-08
2.3132956e-08
2.3198539e-08
2.3267348e-08
2.3339272e-08
2.3414511e-08
2.349294e-08
2.357397e-08
2.3656985e-08
2.3741422e-08
2.3826132e-08
2.3909795e-08
2.3991499e-08
2.4070181e-08
2.414445e-08
2.4213042e-08
2.4274605e-08
2.4328037e-08
2.4372957e-08
2.4408958e-08
2.4435598e-08
2.4453277e-08
2.4462778e-08
2.4465369e-08
2.4455614e-08
2.4449874e-08
2.4438463e-08
2.4423599e-08
2.4407265e-08
2.439098e-08
2.4375651e-08
2.4361856e-08
2.4350489e-08
2.4341822e-08
2.433561e-08
2.4332261e-08
2.4332605e-08
2.4334984e-08
2.4340773e-08
2.4348424e-08
2.4358729e-08
2.4370854e-08
2.438518e-08
2.4397768e-08
2.2773996e-08
2.2827951e-08
2.2883453e-08
2.2941279e-08
2.3001786e-08
2.3065378e-08
2.313223e-08
2.3202575e-08
2.3276494e-08
2.3353712e-08
2.343447e-08
2.3518633e-08
2.3605525e-08
2.3694417e-08
2.3784686e-08
2.3875058e-08
2.3964029e-08
2.405057e-08
2.4133518e-08
2.4211328e-08
2.4282584e-08
2.4345805e-08
2.4399776e-08
2.4444011e-08
2.4477972e-08
2.4501139e-08
2.4514008e-08
2.4517415e-08
2.4511969e-08
2.4500146e-08
2.4481125e-08
2.4457188e-08
2.443013e-08
2.4401265e-08
2.437187e-08
2.4343e-08
2.4315441e-08
2.4290027e-08
2.4267218e-08
2.4247043e-08
2.4229822e-08
2.4216138e-08
2.4204895e-08
2.4197001e-08
2.4191322e-08
2.4188347e-08
2.4187373e-08
2.4188669e-08
2.4188989e-08
2.2763636e-08
2.2820806e-08
2.2879846e-08
2.294137e-08
2.3005957e-08
2.3073953e-08
2.3145573e-08
2.3220973e-08
2.3300306e-08
2.3383166e-08
2.3469816e-08
2.3560103e-08
2.3653265e-08
2.3748469e-08
2.3845021e-08
2.3941521e-08
2.4036292e-08
2.4128182e-08
2.4215911e-08
2.4297781e-08
2.4372219e-08
2.4437614e-08
2.4492633e-08
2.4536692e-08
2.4569138e-08
2.4589381e-08
2.4597991e-08
2.4595816e-08
2.4583697e-08
2.456269e-08
2.4534627e-08
2.4501036e-08
2.446344e-08
2.4423152e-08
2.4381608e-08
2.4340147e-08
2.429979e-08
2.4261365e-08
2.4225502e-08
2.4192456e-08
2.4162497e-08
2.4136031e-08
2.4112399e-08
2.4092164e-08
2.407451e-08
2.4059695e-08
2.4047124e-08
2.4036962e-08
2.4026547e-08
2.2764507e-08
2.282503e-08
2.2887779e-08
2.2953227e-08
2.3022129e-08
2.3094792e-08
2.3171458e-08
2.3252227e-08
2.3337301e-08
2.3426172e-08
2.3519107e-08
2.3615926e-08
2.3715786e-08
2.3817753e-08
2.3921053e-08
2.4024156e-08
2.4125223e-08
2.4222964e-08
2.4315975e-08
2.4402397e-08
2.4480503e-08
2.4548539e-08
2.4605059e-08
2.4649379e-08
2.4680744e-08
2.4698497e-08
2.4703271e-08
2.4695958e-08
2.4677354e-08
2.4648915e-08
2.4612263e-08
2.4569066e-08
2.45211e-08
2.4469779e-08
2.4416653e-08
2.4363259e-08
2.4310811e-08
2.4260144e-08
2.4212037e-08
2.4166941e-08
2.4125103e-08
2.4086802e-08
2.4051729e-08
2.4020186e-08
2.3991607e-08
2.3966078e-08
2.3943085e-08
2.3922704e-08
2.3902769e-08
2.2775423e-08
2.2839463e-08
2.2906118e-08
2.297573e-08
2.3049206e-08
2.3126818e-08
2.3208835e-08
2.3295307e-08
2.3386478e-08
2.3481749e-08
2.3581384e-08
2.3685169e-08
2.379218e-08
2.3901382e-08
2.4011913e-08
2.4122111e-08
2.4229975e-08
2.4334072e-08
2.4432859e-08
2.4524312e-08
2.4606545e-08
2.4677661e-08
2.4736089e-08
2.4781049e-08
2.4811694e-08
2.4827303e-08
2.4828565e-08
2.4816409e-08
2.4791684e-08
2.4755916e-08
2.4710902e-08
2.4658466e-08
2.4600544e-08
2.4538623e-08
2.447437e-08
2.4409521e-08
2.4345472e-08
2.42831e-08
2.4223321e-08
2.4166763e-08
2.4113666e-08
2.4064228e-08
2.4018418e-08
2.3976342e-08
2.3937631e-08
2.3902238e-08
2.3869715e-08
2.3840056e-08
2.3811521e-08
2.279557e-08
2.2863317e-08
2.2934098e-08
2.3008136e-08
2.3086466e-08
2.3169333e-08
2.325703e-08
2.3349569e-08
2.3447219e-08
2.3549307e-08
2.3656084e-08
2.3767296e-08
2.3881937e-08
2.3998871e-08
2.4117138e-08
2.4234944e-08
2.435012e-08
2.4461084e-08
2.4566143e-08
2.4663101e-08
2.4749907e-08
2.4824514e-08
2.4885227e-08
2.4931163e-08
2.4961391e-08
2.497513e-08
2.4973117e-08
2.4956331e-08
2.4925668e-08
2.4882783e-08
2.4829611e-08
2.4768119e-08
2.470041e-08
2.4628083e-08
2.4552939e-08
2.4476903e-08
2.4401546e-08
2.4327805e-08
2.425673e-08
2.41891e-08
2.4125171e-08
2.4065086e-08
2.4009041e-08
2.3956994e-08
2.3908733e-08
2.386411e-08
2.3822729e-08
2.3784508e-08
2.3748074e-08
2.2824439e-08
2.2896107e-08
2.2971259e-08
2.3050006e-08
2.3133494e-08
2.3221949e-08
2.3315684e-08
2.3414679e-08
2.3519222e-08
2.3628573e-08
2.3742965e-08
2.3862095e-08
2.3984877e-08
2.4110068e-08
2.4236606e-08
2.4362554e-08
2.4485577e-08
2.4603934e-08
2.4715767e-08
2.4818704e-08
2.4910523e-08
2.498902e-08
2.5052368e-08
2.5099582e-08
2.512965e-08
2.5141735e-08
2.5136618e-08
2.511533e-08
2.5078835e-08
2.502891e-08
2.4967637e-08
2.489714e-08
2.4819696e-08
2.4737031e-08
2.4651089e-08
2.4563984e-08
2.4477457e-08
2.439252e-08
2.4310354e-08
2.4231877e-08
2.4157374e-08
2.4086956e-08
2.4021005e-08
2.3959371e-08
2.3901966e-08
2.3848562e-08
2.3798806e-08
2.3752544e-08
2.3708728e-08
2.2861777e-08
2.2937602e-08
2.3017396e-08
2.3101158e-08
2.3190135e-08
2.3284539e-08
2.33847e-08
2.3490571e-08
2.3602455e-08
2.3719549e-08
2.3842061e-08
2.3969636e-08
2.4101102e-08
2.4235111e-08
2.4370483e-08
2.4505138e-08
2.4636567e-08
2.4762859e-08
2.4881983e-08
2.4991381e-08
2.5088652e-08
2.5171429e-08
2.5237747e-08
2.5286515e-08
2.5316643e-08
2.5327242e-08
2.5319134e-08
2.5293407e-08
2.5251103e-08
2.519413e-08
2.5124722e-08
2.5045166e-08
2.4957923e-08
2.486486e-08
2.476808e-08
2.4669881e-08
2.4572178e-08
2.4476073e-08
2.4382873e-08
2.4293628e-08
2.4208663e-08
2.4128074e-08
2.4052399e-08
2.3981408e-08
2.3915113e-08
2.3853222e-08
2.379542e-08
2.3741481e-08
2.3690645e-08
2.2907549e-08
2.2987794e-08
2.3072526e-08
2.3161635e-08
2.3256462e-08
2.3357205e-08
2.3464213e-08
2.3577416e-08
2.3697123e-08
2.3822477e-08
2.3953653e-08
2.4090238e-08
2.4230972e-08
2.4374393e-08
2.45192e-08
2.4663159e-08
2.4803582e-08
2.4938376e-08
2.5065325e-08
2.5181677e-08
2.5284843e-08
2.5372287e-08
2.5441899e-08
2.5492478e-08
2.5522857e-08
2.5532099e-08
2.5521064e-08
2.5490903e-08
2.5442746e-08
2.5378637e-08
2.5300971e-08
2.5212208e-08
2.5114998e-08
2.5011368e-08
2.4903591e-08
2.4794154e-08
2.4685145e-08
2.457777e-08
2.4473463e-08
2.4373401e-08
2.4277955e-08
2.4187225e-08
2.4101879e-08
2.4021628e-08
2.3946567e-08
2.3876354e-08
2.38107e-08
2.3749314e-08
2.3691696e-08
2.2961922e-08
2.3046873e-08
2.3136869e-08
2.3231685e-08
2.3332752e-08
2.3440259e-08
2.3554572e-08
2.3675599e-08
2.3803653e-08
2.3937824e-08
2.4078248e-08
2.4224451e-08
2.4375078e-08
2.452855e-08
2.4683434e-08
2.4837331e-08
2.4987367e-08
2.5131258e-08
2.5266589e-08
2.5390405e-08
2.549992e-08
2.5592419e-08
2.5665644e-08
2.5718277e-08
2.5749075e-08
2.5757055e-08
2.5743115e-08
2.5708475e-08
2.565436e-08
2.558296e-08
2.5496836e-08
2.539863e-08
2.5291192e-08
2.5176726e-08
2.5057687e-08
2.4936757e-08
2.4816199e-08
2.4697337e-08
2.4581734e-08
2.4470689e-08
2.4364629e-08
2.4263668e-08
2.4168589e-08
2.4079058e-08
2.399524e-08
2.3916751e-08
2.3843325e-08
2.3774604e-08
2.3710329e-08
2.3025248e-08
2.311522e-08
2.3210835e-08
2.331175e-08
2.3419482e-08
2.3534214e-08
2.3656327e-08
2.3785713e-08
2.3922682e-08
2.4066271e-08
2.4216576e-08
2.4373053e-08
2.4534247e-08
2.4698454e-08
2.4864099e-08
2.5028612e-08
2.5188919e-08
2.5342534e-08
2.5486832e-08
2.5618642e-08
2.5734972e-08
2.5832922e-08
2.5910075e-08
2.5964995e-08
2.599636e-08
2.6003147e-08
2.5986288e-08
2.594708e-08
2.588685e-08
2.5807939e-08
2.5713084e-08
2.5605121e-08
2.548711e-08
2.5361448e-08
2.5230784e-08
2.5098004e-08
2.4965551e-08
2.4834879e-08
2.4707683e-08
2.4585384e-08
2.446847e-08
2.4357083e-08
2.4252102e-08
2.4153167e-08
2.4060497e-08
2.3973677e-08
2.3892458e-08
2.3816414e-08
2.3745516e-08
2.3098061e-08
2.3193398e-08
2.3295022e-08
2.3402461e-08
2.3517322e-08
2.3639781e-08
2.3770235e-08
2.3908559e-08
2.4055059e-08
2.420872e-08
2.4369589e-08
2.4537048e-08
2.4709536e-08
2.4885214e-08
2.5062357e-08
2.5238208e-08
2.5409487e-08
2.557349e-08
2.5727369e-08
2.5867728e-08
2.5991358e-08
2.6095163e-08
2.6176563e-08
2.6233997e-08
2.6266063e-08
2.6271701e-08
2.6251879e-08
2.6207971e-08
2.6141419e-08
2.6054721e-08
2.5950797e-08
2.583269e-08
2.5703681e-08
2.5566377e-08
2.5423635e-08
2.5278554e-08
2.5133764e-08
2.499086e-08
2.4851674e-08
2.471775e-08
2.4589645e-08
2.4467534e-08
2.4352387e-08
2.4243822e-08
2.4142111e-08
2.4046809e-08
2.3957681e-08
2.3874235e-08
2.3796657e-08
2.3181084e-08
2.3282162e-08
2.3390221e-08
2.3504648e-08
2.3627143e-08
2.3757876e-08
2.3897261e-08
2.4045154e-08
2.4201857e-08
2.4366298e-08
2.4538473e-08
2.4717681e-08
2.4902248e-08
2.5090193e-08
2.5279624e-08
2.5467591e-08
2.5650589e-08
2.5825686e-08
2.5989796e-08
2.6139286e-08
2.6270719e-08
2.6380796e-08
2.6466765e-08
2.6526937e-08
2.6559825e-08
2.6564339e-08
2.6541481e-08
2.6492707e-08
2.6419582e-08
2.6324765e-08
2.6211373e-08
2.6082665e-08
2.5942158e-08
2.5792684e-08
2.5637326e-08
2.5479403e-08
2.5321742e-08
2.5166091e-08
2.5014424e-08
2.486841e-08
2.4728681e-08
2.4595453e-08
2.4469782e-08
2.4351273e-08
2.4240243e-08
2.413622e-08
2.4038985e-08
2.3947972e-08
2.3863586e-08
2.3275237e-08
2.3382469e-08
2.3497429e-08
2.3619354e-08
2.3750036e-08
2.3889641e-08
2.40386e-08
2.4196751e-08
2.4364388e-08
2.4540381e-08
2.4724668e-08
2.4916458e-08
2.5113956e-08
2.5315026e-08
2.5517599e-08
2.5718515e-08
2.5914033e-08
2.6100974e-08
2.6276005e-08
2.6435238e-08
2.6575001e-08
2.6691781e-08
2.6782649e-08
2.684578e-08
2.6879604e-08
2.6883002e-08
2.6857009e-08
2.680317e-08
2.6723178e-08
2.6619861e-08
2.6496541e-08
2.6356709e-08
2.6204131e-08
2.6041883e-08
2.5873288e-08
2.5701896e-08
2.5530743e-08
2.5361738e-08
2.5197007e-08
2.5038345e-08
2.4886466e-08
2.4741636e-08
2.4604992e-08
2.4476133e-08
2.4355417e-08
2.4242349e-08
2.4136721e-08
2.4037894e-08
2.3946493e-08
2.338166e-08
2.3495498e-08
2.3617874e-08
2.3747854e-08
2.388733e-08
2.4036463e-08
2.4195701e-08
2.4364864e-08
2.4544233e-08
2.4732621e-08
2.4929898e-08
2.5135176e-08
2.5346529e-08
2.5561654e-08
2.577829e-08
2.5993052e-08
2.6201948e-08
2.6401537e-08
2.6588218e-08
2.675784e-08
2.6906486e-08
2.7030417e-08
2.712652e-08
2.7192835e-08
2.72277e-08
2.7229974e-08
2.7200723e-08
2.714159e-08
2.7054397e-08
2.6942151e-08
2.6808388e-08
2.6656845e-08
2.6491554e-08
2.6315852e-08
2.613332e-08
2.594775e-08
2.5762396e-08
2.5579341e-08
2.5400869e-08
2.5228907e-08
2.506426e-08
2.4907251e-08
2.4759093e-08
2.461939e-08
2.4488536e-08
2.4366016e-08
2.4251635e-08
2.4144674e-08
2.4045983e-08
2.3501739e-08
2.3622683e-08
2.3753042e-08
2.3891691e-08
2.4040629e-08
2.4200012e-08
2.4370304e-08
2.4551305e-08
2.4743283e-08
2.4944986e-08
2.5156212e-08
2.5375965e-08
2.5602177e-08
2.5832365e-08
2.6064062e-08
2.6293638e-08
2.6516833e-08
2.6729925e-08
2.6929033e-08
2.7109727e-08
2.7267832e-08
2.739938e-08
2.7501067e-08
2.7570788e-08
2.7606795e-08
2.7607924e-08
2.7575274e-08
2.7510587e-08
2.7415823e-08
2.7294172e-08
2.7149397e-08
2.6985494e-08
2.6806781e-08
2.6616874e-08
2.6419626e-08
2.6219085e-08
2.6018734e-08
2.582084e-08
2.5627856e-08
2.5441848e-08
2.5263716e-08
2.5093851e-08
2.4933545e-08
2.4782408e-08
2.4640873e-08
2.4508404e-08
2.438482e-08
2.4269317e-08
2.4162986e-08
2.3637144e-08
2.3765746e-08
2.3904718e-08
2.4052717e-08
2.4211856e-08
2.4382285e-08
2.4564486e-08
2.4758236e-08
2.4963787e-08
2.5179816e-08
2.5406038e-08
2.5641345e-08
2.5883509e-08
2.6129856e-08
2.637769e-08
2.6623124e-08
2.6861607e-08
2.7089118e-08
2.7301476e-08
2.7493963e-08
2.7662133e-08
2.7801782e-08
2.7909409e-08
2.7982764e-08
2.8020008e-08
2.8019957e-08
2.7983748e-08
2.7913222e-08
2.7810483e-08
2.7678907e-08
2.7522496e-08
2.7345526e-08
2.7152618e-08
2.6947684e-08
2.6734865e-08
2.6518477e-08
2.6302241e-08
2.6088624e-08
2.5880255e-08
2.5679349e-08
2.5486913e-08
2.5303413e-08
2.5130222e-08
2.4966966e-08
2.4814114e-08
2.4671115e-08
2.45378e-08
2.4413275e-08
2.4298889e-08
2.3789872e-08
2.3926751e-08
2.4075037e-08
2.4233144e-08
2.4403307e-08
2.4585668e-08
2.4780725e-08
2.4988233e-08
2.5208419e-08
2.5439885e-08
2.5682257e-08
2.5934295e-08
2.6193605e-08
2.6457299e-08
2.6722439e-08
2.6984854e-08
2.7239686e-08
2.7482594e-08
2.7709078e-08
2.7914116e-08
2.8092983e-08
2.8241234e-08
2.8355168e-08
2.8432384e-08
2.8470957e-08
2.8469684e-08
2.8429736e-08
2.8353064e-08
2.8241912e-08
2.809985e-08
2.7931132e-08
2.7740333e-08
2.7532394e-08
2.7311543e-08
2.7082219e-08
2.684902e-08
2.6615916e-08
2.6385585e-08
2.6160848e-08
2.5944078e-08
2.5736402e-08
2.5538371e-08
2.5351446e-08
2.5175273e-08
2.501036e-08
2.4856142e-08
2.4712463e-08
2.4578332e-08
2.4455383e-08
2.396231e-08
2.4108156e-08
2.4266547e-08
2.4435612e-08
2.4617719e-08
2.4813002e-08
2.5021973e-08
2.5244361e-08
2.5480363e-08
2.5728496e-08
2.5988285e-08
2.625835e-08
2.6536107e-08
2.6818441e-08
2.7102149e-08
2.7382758e-08
2.7655076e-08
2.7914421e-08
2.8155957e-08
2.8374343e-08
2.8564566e-08
2.8721936e-08
2.8842551e-08
2.892386e-08
2.8963848e-08
2.8961298e-08
2.891742e-08
2.8834272e-08
2.871424e-08
2.8561093e-08
2.8379351e-08
2.817391e-08
2.7950048e-08
2.7712321e-08
2.746548e-08
2.7214411e-08
2.6963348e-08
2.6715195e-08
2.6472979e-08
2.623925e-08
2.6015268e-08
2.5801683e-08
2.560005e-08
2.5410044e-08
2.5232217e-08
2.5065992e-08
2.491123e-08
2.4766832e-08
2.4634747e-08
2.4157298e-08
2.4312895e-08
2.4482284e-08
2.4663267e-08
2.4858358e-08
2.5067678e-08
2.5291754e-08
2.5530279e-08
2.5783415e-08
2.6049585e-08
2.6328197e-08
2.6617711e-08
2.6915342e-08
2.7217723e-08
2.7521364e-08
2.7821467e-08
2.8112486e-08
2.8389374e-08
2.8646939e-08
2.8879504e-08
2.9081766e-08
2.9248785e-08
2.9376459e-08
2.9462088e-08
2.9503575e-08
2.9499687e-08
2.9451675e-08
2.9361704e-08
2.92323e-08
2.9067436e-08
2.8871918e-08
2.8650977e-08
2.8410246e-08
2.8154618e-08
2.7889161e-08
2.7619058e-08
2.7348821e-08
2.7081601e-08
2.6820654e-08
2.6568722e-08
2.6327219e-08
2.6096908e-08
2.587945e-08
2.5674554e-08
2.5482822e-08
2.5303665e-08
2.5136965e-08
2.4981501e-08
2.483958e-08
2.4378227e-08
2.4544467e-08
2.4725874e-08
2.4919869e-08
2.5129128e-08
2.5353753e-08
2.5594281e-08
2.5850364e-08
2.6122119e-08
2.640786e-08
2.6706859e-08
2.7017401e-08
2.7336472e-08
2.7660432e-08
2.7985481e-08
2.8306474e-08
2.8617485e-08
2.8913083e-08
2.9187698e-08
2.9435306e-08
2.9650303e-08
2.9827505e-08
2.9962617e-08
3.0052793e-08
3.0095853e-08
3.0090559e-08
3.0038199e-08
2.9941049e-08
2.9801764e-08
2.9624527e-08
2.9414448e-08
2.9177117e-08
2.8918525e-08
2.8643902e-08
2.8358633e-08
2.8068213e-08
2.7777448e-08
2.7489762e-08
2.7208666e-08
2.6937124e-08
2.667672e-08