/*--------------------------------*- C++ -*----------------------------------*\
| =========                 |                                                 |
| \\      /  F ield         | OpenFOAM: The Open Source CFD Toolbox           |
|  \\    /   O peration     | Version:  v2006                                 |
|   \\  /    A nd           | Website:  www.openfoam.com                      |
|    \\/     M anipulation  |                                                 |
\*---------------------------------------------------------------------------*/
FoamFile
{
    version     2.0;
    format      ascii;
    class       volScalarField;
    location    "1000";
    object      nut;
}
// * * * * * * * * * * * * * * * * * * * * * * * * * * * * * * * * * * * * * //

dimensions      [0 2 -1 0 0 0 0];


internalField   nonuniform List<scalar> 
19765
(
9.8490775e-06
9.8370338e-06
9.5333938e-06
9.5753173e-06
9.5580223e-06
9.7059988e-06
9.6124891e-06
9.7787166e-06
9.7379031e-06
9.5411995e-06
9.6364885e-06
1.0006645e-05
1.0220127e-05
1.0405367e-05
1.0802594e-05
1.0969806e-05
1.0915585e-05
1.1068554e-05
1.1480009e-05
1.1838076e-05
1.2077307e-05
1.2195249e-05
1.2407807e-05
1.2538805e-05
1.2625418e-05
1.2677871e-05
1.2702874e-05
1.2640602e-05
1.2659817e-05
1.254395e-05
1.2317244e-05
1.2028104e-05
1.2060534e-05
1.2207487e-05
1.2069224e-05
1.1735789e-05
1.1721445e-05
1.1662159e-05
1.1389697e-05
1.1479131e-05
1.1852259e-05
1.2008209e-05
1.1967625e-05
1.2279803e-05
1.217456e-05
1.2408876e-05
1.2417268e-05
1.2390891e-05
1.2264047e-05
5.4961215e-05
5.753801e-05
5.9790306e-05
6.1490461e-05
6.3581479e-05
6.5720757e-05
6.7877499e-05
7.0024044e-05
7.2249494e-05
7.4170373e-05
7.643196e-05
7.8906312e-05
8.1048803e-05
8.2955727e-05
8.4919605e-05
8.6134959e-05
8.646552e-05
8.7094908e-05
8.8306022e-05
8.9734956e-05
9.107236e-05
9.1939198e-05
9.2680155e-05
9.366465e-05
9.4626484e-05
9.5066274e-05
9.5238816e-05
9.5507404e-05
9.5702387e-05
9.5704468e-05
9.5596893e-05
9.5423817e-05
9.5402361e-05
9.5229238e-05
9.4563245e-05
9.3613036e-05
9.2777286e-05
9.1650442e-05
9.023797e-05
8.9197394e-05
8.8280295e-05
8.6257523e-05
8.4112418e-05
8.0637861e-05
7.805938e-05
7.2094927e-05
6.5404416e-05
5.8698623e-05
5.3694213e-05
1.6461795e-05
1.5770112e-05
1.5258236e-05
1.547316e-05
1.5561222e-05
1.5643843e-05
1.5542575e-05
1.5673137e-05
1.5536209e-05
1.5649333e-05
1.5858217e-05
1.5861327e-05
1.566267e-05
1.5470774e-05
1.5160361e-05
1.4698469e-05
1.4343588e-05
1.4117637e-05
1.3929622e-05
1.3754732e-05
1.366206e-05
1.3688014e-05
1.3687013e-05
1.3721373e-05
1.3989491e-05
1.4503851e-05
1.4977191e-05
1.546228e-05
1.6168311e-05
1.6926155e-05
1.766137e-05
1.8343297e-05
1.8953876e-05
1.9914832e-05
2.1116104e-05
2.211674e-05
2.2895033e-05
2.3920832e-05
2.4705951e-05
2.510506e-05
2.5788427e-05
2.6986302e-05
2.760025e-05
2.8737127e-05
2.949513e-05
3.1557063e-05
3.427874e-05
3.7529698e-05
3.9788353e-05
6.5114848e-07
5.7984611e-07
5.378159e-07
5.3023663e-07
5.2069196e-07
5.1204381e-07
4.9858728e-07
4.9306883e-07
4.8033116e-07
4.740327e-07
4.701806e-07
4.6098873e-07
4.4696353e-07
4.3432097e-07
4.2055004e-07
4.0477877e-07
3.931161e-07
3.856125e-07
3.7901097e-07
3.7240498e-07
3.687603e-07
3.7028203e-07
3.7065082e-07
3.7214469e-07
3.7965674e-07
3.9413631e-07
4.0928909e-07
4.2633714e-07
4.5034872e-07
4.7795358e-07
5.0771404e-07
5.3872355e-07
5.7065661e-07
6.1598456e-07
6.7366302e-07
7.3118758e-07
7.8786764e-07
8.5950822e-07
9.2755445e-07
9.8641695e-07
1.0660753e-06
1.1796418e-06
1.2803774e-06
1.4371786e-06
1.5906177e-06
1.8116845e-06
2.0795284e-06
2.4194269e-06
2.8207454e-06
1.629204e-07
1.6231085e-07
1.6250026e-07
1.6434388e-07
1.6596404e-07
1.6750162e-07
1.6849915e-07
1.7000653e-07
1.7075316e-07
1.7199222e-07
1.7353316e-07
1.745796e-07
1.7512138e-07
1.7577782e-07
1.7620205e-07
1.762208e-07
1.7657951e-07
1.7737957e-07
1.7807442e-07
1.7866506e-07
1.7955972e-07
1.8080606e-07
1.8198138e-07
1.8338886e-07
1.8544799e-07
1.8835075e-07
1.9136634e-07
1.9452549e-07
1.9837023e-07
2.0245241e-07
2.0654791e-07
2.1053553e-07
2.1426588e-07
2.1890736e-07
2.2419366e-07
2.2887469e-07
2.3288127e-07
2.3747263e-07
2.4124361e-07
2.4393239e-07
2.4751703e-07
2.5221989e-07
2.5558083e-07
2.6082328e-07
2.6516317e-07
2.7104134e-07
2.7689186e-07
2.8130179e-07
2.8532834e-07
1.4067481e-07
1.4078456e-07
1.4123657e-07
1.423624e-07
1.4322753e-07
1.4409782e-07
1.4476195e-07
1.4563091e-07
1.4616079e-07
1.4699275e-07
1.4779126e-07
1.4831439e-07
1.4867463e-07
1.4908158e-07
1.4936344e-07
1.4957341e-07
1.5002105e-07
1.5065022e-07
1.5123093e-07
1.5181743e-07
1.5253194e-07
1.5332646e-07
1.5432196e-07
1.5553769e-07
1.570701e-07
1.5906738e-07
1.6122365e-07
1.6346838e-07
1.660631e-07
1.6887338e-07
1.7176958e-07
1.747081e-07
1.7749856e-07
1.8058028e-07
1.8404579e-07
1.8747604e-07
1.905211e-07
1.9371158e-07
1.9674164e-07
1.9920124e-07
2.0159483e-07
2.0474293e-07
2.0726227e-07
2.1059434e-07
2.1364941e-07
2.1732256e-07
2.2130136e-07
2.2558659e-07
2.2947709e-07
1.2368036e-07
1.2360189e-07
1.2371993e-07
1.2423628e-07
1.2462526e-07
1.2502951e-07
1.2533622e-07
1.2577427e-07
1.2604083e-07
1.2648925e-07
1.2694258e-07
1.2725342e-07
1.2748188e-07
1.2774714e-07
1.2795115e-07
1.2811948e-07
1.2843727e-07
1.2888437e-07
1.293276e-07
1.2979384e-07
1.3034222e-07
1.3094852e-07
1.3165755e-07
1.3252304e-07
1.3360431e-07
1.3497019e-07
1.3643752e-07
1.3798562e-07
1.3976763e-07
1.4169592e-07
1.4369801e-07
1.4574199e-07
1.4772534e-07
1.4990616e-07
1.5232608e-07
1.547294e-07
1.5692784e-07
1.5922397e-07
1.6143192e-07
1.633174e-07
1.651915e-07
1.6747852e-07
1.694132e-07
1.7178084e-07
1.7397458e-07
1.7647159e-07
1.7907307e-07
1.8179454e-07
1.8426066e-07
1.1474473e-07
1.146878e-07
1.1474904e-07
1.1505108e-07
1.1527611e-07
1.1550989e-07
1.1568574e-07
1.1593768e-07
1.1609137e-07
1.1635188e-07
1.166168e-07
1.1680522e-07
1.1695348e-07
1.1712966e-07
1.1728029e-07
1.1742294e-07
1.17662e-07
1.1798566e-07
1.1832189e-07
1.1869015e-07
1.1912364e-07
1.1960625e-07
1.2018088e-07
1.2087277e-07
1.2170957e-07
1.2273283e-07
1.238388e-07
1.250169e-07
1.2635879e-07
1.2781331e-07
1.2933649e-07
1.3090821e-07
1.3246456e-07
1.3415924e-07
1.3602151e-07
1.3789763e-07
1.3966595e-07
1.4150714e-07
1.4331142e-07
1.4492852e-07
1.4654079e-07
1.4842865e-07
1.5011399e-07
1.5209424e-07
1.5399683e-07
1.5613082e-07
1.5838548e-07
1.6078507e-07
1.6306866e-07
1.0841806e-07
1.0834905e-07
1.0835481e-07
1.0851537e-07
1.0863163e-07
1.087569e-07
1.0885013e-07
1.0899362e-07
1.0908086e-07
1.0923707e-07
1.0940012e-07
1.0952172e-07
1.0962454e-07
1.0974989e-07
1.0986607e-07
1.0998482e-07
1.101699e-07
1.1041457e-07
1.1067613e-07
1.1096711e-07
1.1130641e-07
1.1168266e-07
1.1212099e-07
1.1264479e-07
1.1327367e-07
1.1403071e-07
1.148518e-07
1.1573245e-07
1.1672991e-07
1.1781197e-07
1.1895196e-07
1.201367e-07
1.2132635e-07
1.2261602e-07
1.2402273e-07
1.2544825e-07
1.2681627e-07
1.2823848e-07
1.2964405e-07
1.3093564e-07
1.3222959e-07
1.3369728e-07
1.35037e-07
1.3655908e-07
1.3802628e-07
1.3963067e-07
1.4129756e-07
1.4303721e-07
1.4467918e-07
1.0427401e-07
1.0422296e-07
1.0421838e-07
1.0431425e-07
1.0438124e-07
1.0445443e-07
1.0450784e-07
1.0459416e-07
1.0464646e-07
1.047443e-07
1.048485e-07
1.049298e-07
1.0500314e-07
1.0509451e-07
1.0518476e-07
1.052823e-07
1.0542715e-07
1.0561531e-07
1.0582105e-07
1.0605297e-07
1.0632354e-07
1.0662616e-07
1.0697625e-07
1.0738968e-07
1.0788124e-07
1.0846497e-07
1.091e-07
1.0978456e-07
1.1055662e-07
1.1139591e-07
1.1228532e-07
1.1321609e-07
1.1416178e-07
1.151843e-07
1.1629584e-07
1.1743178e-07
1.1853988e-07
1.1969289e-07
1.2084414e-07
1.2192628e-07
1.2301411e-07
1.2422665e-07
1.2535941e-07
1.2662357e-07
1.2786011e-07
1.2920223e-07
1.3060273e-07
1.3207655e-07
1.3349457e-07
1.0133508e-07
1.0129509e-07
1.0128552e-07
1.0134393e-07
1.0138377e-07
1.0142852e-07
1.0146121e-07
1.0151661e-07
1.0155119e-07
1.0161717e-07
1.0168913e-07
1.017486e-07
1.018057e-07
1.0187736e-07
1.0195154e-07
1.0203423e-07
1.0215149e-07
1.0230091e-07
1.0246637e-07
1.026537e-07
1.0287115e-07
1.0311477e-07
1.0339373e-07
1.0371943e-07
1.0410423e-07
1.045569e-07
1.0505027e-07
1.0558399e-07
1.061839e-07
1.0683678e-07
1.0753139e-07
1.0826173e-07
1.0901011e-07
1.0981779e-07
1.1069306e-07
1.1159203e-07
1.12479e-07
1.1340204e-07
1.1432895e-07
1.1521244e-07
1.1610278e-07
1.17079e-07
1.1800198e-07
1.1901326e-07
1.2000437e-07
1.210644e-07
1.2216012e-07
1.2330049e-07
1.2439308e-07
9.9234833e-08
9.9208768e-08
9.9202186e-08
9.9242024e-08
9.926919e-08
9.9300017e-08
9.9323198e-08
9.9362276e-08
9.9388363e-08
9.9436615e-08
9.949014e-08
9.9537126e-08
9.9584584e-08
9.9643848e-08
9.9707195e-08
9.9778988e-08
9.9876564e-08
9.9998429e-08
1.0013427e-07
1.0028819e-07
1.0046581e-07
1.0066501e-07
1.0089138e-07
1.0115268e-07
1.014592e-07
1.0181667e-07
1.0220659e-07
1.0262947e-07
1.0310356e-07
1.0362e-07
1.041711e-07
1.047529e-07
1.0535355e-07
1.060017e-07
1.0670357e-07
1.0742869e-07
1.0815152e-07
1.0890483e-07
1.0966599e-07
1.1040066e-07
1.1114284e-07
1.1194905e-07
1.1272036e-07
1.1355699e-07
1.1438237e-07
1.1526042e-07
1.1616834e-07
1.1711557e-07
1.1802947e-07
9.7695185e-08
9.7679814e-08
9.7677271e-08
9.770727e-08
9.7728646e-08
9.7752928e-08
9.7772439e-08
9.7803459e-08
9.7826406e-08
9.7865452e-08
9.7909165e-08
9.7949815e-08
9.7992345e-08
9.8044484e-08
9.810116e-08
9.8165546e-08
9.8249403e-08
9.8351776e-08
9.8465913e-08
9.8594677e-08
9.8741958e-08
9.8906628e-08
9.909207e-08
9.9303645e-08
9.9549895e-08
9.9834603e-08
1.0014498e-07
1.0048212e-07
1.0085897e-07
1.0126914e-07
1.0170738e-07
1.0217158e-07
1.0265411e-07
1.0317517e-07
1.0373914e-07
1.0432423e-07
1.0491187e-07
1.0552453e-07
1.0614591e-07
1.0675074e-07
1.0736262e-07
1.0802114e-07
1.0865556e-07
1.0933629e-07
1.1000858e-07
1.1071724e-07
1.114456e-07
1.1220031e-07
1.129261e-07
9.6547851e-08
9.6542258e-08
9.6544953e-08
9.6570695e-08
9.6590447e-08
9.6612546e-08
9.6631711e-08
9.6659405e-08
9.6682169e-08
9.671689e-08
9.6755729e-08
9.6793575e-08
9.6833948e-08
9.6882189e-08
9.6934905e-08
9.6994399e-08
9.7068729e-08
9.7157255e-08
9.7255464e-08
9.7365352e-08
9.7489626e-08
9.7627686e-08
9.7781609e-08
9.7955105e-08
9.8155135e-08
9.8384253e-08
9.8633551e-08
9.8904571e-08
9.9206201e-08
9.9533583e-08
9.9883844e-08
1.0025672e-07
1.006473e-07
1.0106965e-07
1.0152655e-07
1.0200207e-07
1.0248245e-07
1.0298358e-07
1.034937e-07
1.03994e-07
1.0450101e-07
1.0504368e-07
1.0557008e-07
1.0613134e-07
1.0668742e-07
1.072711e-07
1.0787021e-07
1.0849088e-07
1.0908848e-07
9.5681895e-08
9.5684147e-08
9.5691815e-08
9.5716124e-08
9.5736329e-08
9.5758542e-08
9.5779094e-08
9.5806176e-08
9.5830414e-08
9.5863765e-08
9.5900798e-08
9.5938092e-08
9.5978156e-08
9.6024713e-08
9.6075441e-08
9.6131978e-08
9.6199871e-08
9.6278656e-08
9.6365237e-08
9.6460973e-08
9.6567726e-08
9.6685153e-08
9.6814501e-08
9.6958344e-08
9.7122282e-08
9.7308063e-08
9.7509496e-08
9.7728407e-08
9.7970087e-08
9.8231283e-08
9.8511935e-08
9.881296e-08
9.9130281e-08
9.9472994e-08
9.9842753e-08
1.0022803e-07
1.0061889e-07
1.010269e-07
1.0144352e-07
1.0185462e-07
1.0227192e-07
1.0271636e-07
1.0314953e-07
1.0360843e-07
1.0406346e-07
1.0453824e-07
1.0502354e-07
1.0552404e-07
1.0600433e-07
9.5019921e-08
9.5028944e-08
9.5041457e-08
9.5066136e-08
9.5088052e-08
9.5111763e-08
9.5134707e-08
9.5162807e-08
9.5189484e-08
9.5223278e-08
9.5260411e-08
9.5298574e-08
9.5339549e-08
9.5385926e-08
9.5436082e-08
9.5491139e-08
9.5554892e-08
9.5626963e-08
9.5705169e-08
9.5790378e-08
9.5883835e-08
9.59853e-08
9.609548e-08
9.6216151e-08
9.6351754e-08
9.6503508e-08
9.6667178e-08
9.6844633e-08
9.7037741e-08
9.7246217e-08
9.7472793e-08
9.7717458e-08
9.7975358e-08
9.8252386e-08
9.8550295e-08
9.8861319e-08
9.9178478e-08
9.9510278e-08
9.9850406e-08
1.0018808e-07
1.0053156e-07
1.0089629e-07
1.0125345e-07
1.0163025e-07
1.0200455e-07
1.0239377e-07
1.0279088e-07
1.0319994e-07
1.0359193e-07
9.4509875e-08
9.452453e-08
9.4541459e-08
9.4567452e-08
9.4591698e-08
9.4617638e-08
9.4643477e-08
9.4673547e-08
9.4703199e-08
9.4738569e-08
9.4777025e-08
9.4816997e-08
9.4859727e-08
9.4907e-08
9.4957644e-08
9.5012374e-08
9.5073733e-08
9.5141376e-08
9.5213699e-08
9.5291188e-08
9.5374612e-08
9.5463749e-08
9.5558933e-08
9.5661378e-08
9.5774535e-08
9.5899281e-08
9.6032817e-08
9.6176694e-08
9.6329684e-08
9.6496934e-08
9.6681786e-08
9.6880223e-08
9.708728e-08
9.7308461e-08
9.7546535e-08
9.7796343e-08
9.8052665e-08
9.8321535e-08
9.8598123e-08
9.8874105e-08
9.9155338e-08
9.9453156e-08
9.9745843e-08
1.000534e-07
1.0035914e-07
1.006758e-07
1.009979e-07
1.0132867e-07
1.016445e-07
9.4113656e-08
9.4133207e-08
9.4154255e-08
9.418218e-08
9.4209139e-08
9.4237764e-08
9.4266803e-08
9.4299452e-08
9.4332417e-08
9.4370114e-08
9.4410719e-08
9.4453156e-08
9.4498261e-08
9.454723e-08
9.4599185e-08
9.465451e-08
9.4714835e-08
9.4779811e-08
9.4848197e-08
9.492017e-08
9.4996126e-08
9.5075801e-08
9.5159266e-08
9.5247337e-08
9.5342621e-08
9.5445776e-08
9.5555055e-08
9.567128e-08
9.5791171e-08
9.5927574e-08
9.6079048e-08
9.623658e-08
9.6399299e-08
9.6574195e-08
9.6763861e-08
9.6963988e-08
9.7170303e-08
9.7387114e-08
9.7610825e-08
9.7835086e-08
9.8064093e-08
9.8306284e-08
9.8545176e-08
9.8795615e-08
9.9044922e-08
9.9302535e-08
9.9564148e-08
9.9832497e-08
1.0008802e-07
9.3804566e-08
9.3828369e-08
9.3853217e-08
9.3883416e-08
9.3913278e-08
9.3944842e-08
9.3977242e-08
9.4012853e-08
9.4049341e-08
9.4089877e-08
9.4133208e-08
9.4178592e-08
9.4226548e-08
9.4277838e-08
9.4331764e-08
9.4388441e-08
9.4448817e-08
9.4512509e-08
9.4578501e-08
9.4646711e-08
9.4717235e-08
9.4789727e-08
9.4864058e-08
9.4940767e-08
9.5021749e-08
9.510752e-08
9.5197062e-08
9.5290162e-08
9.5384053e-08
9.5497359e-08
9.561819e-08
9.5738466e-08
9.5864745e-08
9.6003261e-08
9.6153627e-08
9.6312266e-08
9.6476265e-08
9.6649026e-08
9.6827972e-08
9.7008258e-08
9.719288e-08
9.7388087e-08
9.758132e-08
9.7783576e-08
9.7985166e-08
9.8193034e-08
9.8403747e-08
9.8619526e-08
9.8824202e-08
9.3562615e-08
9.3590237e-08
9.3618668e-08
9.3651381e-08
9.3684282e-08
9.3718964e-08
9.3754844e-08
9.3793695e-08
9.3833872e-08
9.387763e-08
9.3924127e-08
9.397284e-08
9.4024044e-08
9.4078164e-08
9.4134617e-08
9.4193285e-08
9.4254596e-08
9.4318118e-08
9.438296e-08
9.4448819e-08
9.4515545e-08
9.4582686e-08
9.4649957e-08
9.4717681e-08
9.4787186e-08
9.4858875e-08
9.4932181e-08
9.5005947e-08
9.5084114e-08
9.517387e-08
9.5261167e-08
9.5354006e-08
9.5453071e-08
9.5562232e-08
9.5678361e-08
9.5801314e-08
9.5929355e-08
9.6064953e-08
9.6206132e-08
9.634916e-08
9.649616e-08
9.6651786e-08
9.6806448e-08
9.6968328e-08
9.7129994e-08
9.7296578e-08
9.7465325e-08
9.7638097e-08
9.7801401e-08
9.3373284e-08
9.3404387e-08
9.3436222e-08
9.3471607e-08
9.3507635e-08
9.3545563e-08
9.3585014e-08
9.3627316e-08
9.3671323e-08
9.3718608e-08
9.3768622e-08
9.3820989e-08
9.3875786e-08
9.3933176e-08
9.3992635e-08
9.4053848e-08
9.4116836e-08
9.4181104e-08
9.4245816e-08
9.431048e-08
9.4374733e-08
9.4438008e-08
9.449989e-08
9.4560529e-08
9.4620807e-08
9.4681017e-08
9.4740833e-08
9.4799125e-08
9.4884671e-08
9.4955625e-08
9.4999087e-08
9.5064951e-08
9.5140515e-08
9.5221039e-08
9.5308039e-08
9.5401522e-08
9.5499386e-08
9.5603463e-08
9.5712421e-08
9.5823497e-08
9.593824e-08
9.6060121e-08
9.6181821e-08
9.6309411e-08
9.6437169e-08
9.656886e-08
9.6702248e-08
9.6838857e-08
9.696743e-08
9.3225546e-08
9.3259914e-08
9.3295044e-08
9.3333237e-08
9.3372478e-08
9.3413772e-08
9.3456891e-08
9.3502832e-08
9.3550812e-08
9.3601891e-08
9.365573e-08
9.3712047e-08
9.3770754e-08
9.3831808e-08
9.3894704e-08
9.3958956e-08
9.4024258e-08
9.4090039e-08
9.4155476e-08
9.4219903e-08
9.4282772e-08
9.43434e-08
9.4401251e-08
9.4456334e-08
9.4509183e-08
9.4559981e-08
9.4608558e-08
9.4656113e-08
9.4701215e-08
9.4744607e-08
9.4802244e-08
9.4853246e-08
9.4905453e-08
9.4962294e-08
9.5024899e-08
9.5092335e-08
9.5163645e-08
9.5240332e-08
9.5321474e-08
9.5404998e-08
9.5491996e-08
9.5585035e-08
9.5678535e-08
9.5776988e-08
9.5875983e-08
9.5978273e-08
9.6082031e-08
9.6188521e-08
9.6288309e-08
9.3111183e-08
9.3148668e-08
9.3187029e-08
9.322815e-08
9.3270692e-08
9.3315468e-08
9.3362362e-08
9.341212e-08
9.3464225e-08
9.3519344e-08
9.3577292e-08
9.363784e-08
9.3700762e-08
9.3765844e-08
9.3832576e-08
9.3900317e-08
9.3968491e-08
9.4036445e-08
9.4103333e-08
9.416833e-08
9.4230723e-08
9.428971e-08
9.4344645e-08
9.4395414e-08
9.4442283e-08
9.448532e-08
9.4524612e-08
9.4560658e-08
9.4597238e-08
9.4609161e-08
9.4655048e-08
9.4693712e-08
9.4729857e-08
9.4767723e-08
9.4809331e-08
9.4854679e-08
9.4903349e-08
9.4956566e-08
9.5013771e-08
9.5073472e-08
9.5136466e-08
9.520466e-08
9.5273831e-08
9.5347288e-08
9.5421631e-08
9.5498851e-08
9.5577444e-08
9.5658441e-08
9.5733941e-08
9.3023896e-08
9.3064423e-08
9.3106001e-08
9.3150173e-08
9.3196122e-08
9.3244509e-08
9.3295304e-08
9.3349061e-08
9.3405458e-08
9.3464863e-08
9.3527193e-08
9.359225e-08
9.3659688e-08
9.3729146e-08
9.3800092e-08
9.3871742e-08
9.3943289e-08
9.4013994e-08
9.4082962e-08
9.4149219e-08
9.4211902e-08
9.4270088e-08
9.4323027e-08
9.4370502e-08
9.4412563e-08
9.4449173e-08
9.4480544e-08
9.4507514e-08
9.453023e-08
9.4554593e-08
9.4573151e-08
9.4590264e-08
9.4608118e-08
9.4628115e-08
9.4651088e-08
9.4677023e-08
9.4705775e-08
9.4738381e-08
9.4774593e-08
9.4813397e-08
9.4855386e-08
9.4901972e-08
9.494999e-08
9.5001854e-08
9.505495e-08
9.5110699e-08
9.5167853e-08
9.5227253e-08
9.5282271e-08
9.2958917e-08
9.3002462e-08
9.3047281e-08
9.3094634e-08
9.3144109e-08
9.3196249e-08
9.3251091e-08
9.330904e-08
9.3369916e-08
9.3433852e-08
9.3500839e-08
9.3570686e-08
9.3642942e-08
9.3717117e-08
9.379264e-08
9.3868596e-08
9.3943977e-08
9.401795e-08
9.4089554e-08
9.4157671e-08
9.4221297e-08
9.4279391e-08
9.4331104e-08
9.4376124e-08
9.4414328e-08
9.4445582e-08
9.4470224e-08
9.4488957e-08
9.4502934e-08
9.4512151e-08
9.4518838e-08
9.4524057e-08
9.4528528e-08
9.4533482e-08
9.4540062e-08
9.4548761e-08
9.4559822e-08
9.4574188e-08
9.4591863e-08
9.4612216e-08
9.4635695e-08
9.4663345e-08
9.4692826e-08
9.4725879e-08
9.4760502e-08
9.4797683e-08
9.4836382e-08
9.487727e-08
9.4914798e-08
9.2912585e-08
9.2959171e-08
9.3007292e-08
9.3057969e-08
9.3111109e-08
9.3167165e-08
9.3226221e-08
9.3288567e-08
9.335413e-08
9.3422854e-08
9.3494777e-08
9.3569703e-08
9.3647083e-08
9.3726314e-08
9.3806774e-08
9.3887419e-08
9.3967064e-08
9.4044775e-08
9.4119511e-08
9.4190018e-08
9.4255153e-08
9.4313762e-08
9.4364896e-08
9.4408157e-08
9.4443283e-08
9.4470048e-08
9.4488875e-08
9.450052e-08
9.4505796e-08
9.4505897e-08
9.4501868e-08
9.4494896e-08
9.4486184e-08
9.4477067e-08
9.4468754e-08
9.4461971e-08
9.4457191e-08
9.4455271e-08
9.4456418e-08
9.4460314e-08
9.4467318e-08
9.4478203e-08
9.4491284e-08
9.4507794e-08
9.4526212e-08
9.4547203e-08
9.4569892e-08
9.4594809e-08
9.4617313e-08
9.2882123e-08
9.2931808e-08
9.2983322e-08
9.3037481e-08
9.3094447e-08
9.3154598e-08
9.3218056e-08
9.3285023e-08
9.3355499e-08
9.3429279e-08
9.3506429e-08
9.3586732e-08
9.3669553e-08
9.375418e-08
9.3839931e-08
9.3925639e-08
9.4009957e-08
9.4091844e-08
9.4170167e-08
9.4243536e-08
9.4310679e-08
9.4370325e-08
9.4421429e-08
9.4463514e-08
9.44962e-08
9.4519178e-08
9.4532944e-08
9.4538256e-08
9.4535962e-08
9.452715e-08
9.4513126e-08
9.449523e-08
9.4474776e-08
9.4453052e-08
9.4431319e-08
9.4410537e-08
9.4391405e-08
9.4374754e-08
9.4360973e-08
9.4350014e-08
9.4342183e-08
9.4338058e-08
9.4336471e-08
9.4338274e-08
9.4342326e-08
9.4349043e-08
9.435769e-08
9.4368668e-08
9.4378112e-08
9.2865424e-08
9.2918299e-08
9.2973326e-08
9.3031141e-08
9.3092111e-08
9.3156557e-08
9.322463e-08
9.3296457e-08
9.3372095e-08
9.3451214e-08
9.3533892e-08
9.3619884e-08
9.3708472e-08
9.3798841e-08
9.389024e-08
9.3981382e-08
9.4070765e-08
9.4157239e-08
9.4239569e-08
9.4316232e-08
9.4385827e-08
9.4446967e-08
9.4498513e-08
9.453991e-08
9.4570682e-08
9.4590443e-08
9.4599746e-08
9.4599375e-08
9.4590154e-08
9.457329e-08
9.4550171e-08
9.452222e-08
9.4490885e-08
9.4457484e-08
9.4423362e-08
9.4389688e-08
9.4357358e-08
9.4327202e-08
9.4299773e-08
9.4275244e-08
9.4253901e-08
9.4236177e-08
9.4221325e-08
9.4209906e-08
9.4201079e-08
9.4195077e-08
9.4191276e-08
9.4189965e-08
9.4187946e-08
9.2860922e-08
9.2917106e-08
9.2975791e-08
9.3037453e-08
9.3102626e-08
9.3171586e-08
9.3244505e-08
9.3321452e-08
9.340252e-08
9.3487278e-08
9.35758e-08
9.3667808e-08
9.37625e-08
9.3858965e-08
9.3956372e-08
9.4053316e-08
9.4148149e-08
9.4239604e-08
9.4326337e-08
9.4406691e-08
9.4479137e-08
9.4542175e-08
9.4594571e-08
9.4635695e-08
9.4664987e-08
9.4681994e-08
9.4687315e-08
9.4681762e-08
9.466617e-08
9.4641824e-08
9.461021e-08
9.4572855e-08
9.4531342e-08
9.4487029e-08
9.4441355e-08
9.4395672e-08
9.435106e-08
9.4308371e-08
9.4268302e-08
9.4231223e-08
9.4197418e-08
9.4167223e-08
9.4140226e-08
9.4116772e-08
9.4096261e-08
9.4078786e-08
9.4063814e-08
9.4051536e-08
9.4039326e-08
9.2867479e-08
9.2927115e-08
9.2989627e-08
9.3055343e-08
9.312494e-08
9.3198652e-08
9.3276673e-08
9.3359018e-08
9.3445807e-08
9.3536518e-08
9.3631217e-08
9.3729583e-08
9.3830731e-08
9.3933653e-08
9.4037436e-08
9.4140554e-08
9.4241214e-08
9.4338031e-08
9.4429543e-08
9.451396e-08
9.4589623e-08
9.465492e-08
9.4708523e-08
9.4749727e-08
9.4777901e-08
9.4792528e-08
9.4794249e-08
9.4783911e-08
9.4762366e-08
9.4730986e-08
9.4691353e-08
9.4645097e-08
9.459393e-08
9.4539276e-08
9.4482674e-08
9.4425649e-08
9.4369449e-08
9.4314968e-08
9.426304e-08
9.4214204e-08
9.4168759e-08
9.4126978e-08
9.4088721e-08
9.405417e-08
9.4022923e-08
9.3994965e-08
9.3969841e-08
9.3947649e-08
9.3926266e-08
9.2884312e-08
9.2947566e-08
9.3014096e-08
9.3084092e-08
9.3158351e-08
9.3237076e-08
9.3320473e-08
9.3408514e-08
9.3501336e-08
9.3598336e-08
9.3699562e-08
9.3804642e-08
9.3912613e-08
9.4022368e-08
9.4132902e-08
9.4242568e-08
9.4349433e-08
9.4451984e-08
9.4548638e-08
9.4637467e-08
9.4716688e-08
9.4784571e-08
9.4839695e-08
9.4881284e-08
9.4908637e-08
9.4921188e-08
9.4919613e-08
9.4904793e-08
9.4877615e-08
9.4839532e-08
9.4792226e-08
9.4737431e-08
9.4676989e-08
9.4612409e-08
9.4545336e-08
9.4477461e-08
9.4410189e-08
9.4344474e-08
9.4281275e-08
9.4221284e-08
9.4164828e-08
9.4112141e-08
9.4063309e-08
9.4018395e-08
9.3977153e-08
9.3939488e-08
9.3905013e-08
9.387374e-08
9.3843987e-08
9.2910935e-08
9.2977993e-08
9.3048754e-08
9.3123274e-08
9.3202455e-08
9.3286472e-08
9.3375542e-08
9.3469599e-08
9.3568786e-08
9.3672431e-08
9.3780551e-08
9.3892723e-08
9.4007899e-08
9.4124874e-08
9.4242544e-08
9.4359141e-08
9.4472586e-08
9.4581239e-08
9.4683386e-08
9.4776964e-08
9.486006e-08
9.4930828e-08
9.4987753e-08
9.5029988e-08
9.5056772e-08
9.5067491e-08
9.5062856e-08
9.5043785e-08
9.5011208e-08
9.496666e-08
9.4911921e-08
9.4848836e-08
9.4779379e-08
9.4705155e-08
9.4627927e-08
9.4549545e-08
9.4471566e-08
9.4395014e-08
9.432097e-08
9.4250264e-08
9.4183259e-08
9.4120175e-08
9.4061282e-08
9.4006558e-08
9.3955886e-08
9.3909111e-08
9.38659e-08
9.3826192e-08
9.378869e-08
9.2947117e-08
9.3018185e-08
9.3093411e-08
9.3172716e-08
9.32571e-08
9.334671e-08
9.3441773e-08
9.3542187e-08
9.3648096e-08
9.375876e-08
9.3874162e-08
9.3993821e-08
9.4116602e-08
9.4241199e-08
9.4366403e-08
9.4490318e-08
9.4610724e-08
9.4725844e-08
9.4833829e-08
9.4932478e-08
9.5019748e-08
9.5093677e-08
9.5152656e-08
9.5195765e-08
9.5222189e-08
9.5231274e-08
9.5223759e-08
9.5200608e-08
9.5162794e-08
9.5111938e-08
9.5049919e-08
9.4978697e-08
9.4900382e-08
9.4816688e-08
9.4729503e-08
9.4640833e-08
9.4552383e-08
9.4465258e-08
9.4380657e-08
9.4299536e-08
9.4222305e-08
9.4149183e-08
9.4080599e-08
9.4016467e-08
9.3956781e-08
9.3901339e-08
9.3849857e-08
9.3802201e-08
9.3757427e-08
9.2992855e-08
9.3068158e-08
9.3148103e-08
9.3232477e-08
9.3322364e-08
9.3417891e-08
9.3519288e-08
9.3626423e-08
9.3739432e-08
9.3857513e-08
9.3980607e-08
9.4108168e-08
9.4238973e-08
9.437161e-08
9.4504758e-08
9.463639e-08
9.476414e-08
9.488609e-08
9.5000253e-08
9.5104286e-08
9.5196014e-08
9.5273361e-08
9.5334622e-08
9.5378805e-08
9.5405044e-08
9.5412651e-08
9.5402394e-08
9.537528e-08
9.5332335e-08
9.5275262e-08
9.5206045e-08
9.512676e-08
9.5039658e-08
9.4946576e-08
9.4849532e-08
9.4750689e-08
9.4651895e-08
9.4554346e-08
9.4459357e-08
9.4368002e-08
9.4280744e-08
9.4197817e-08
9.4119781e-08
9.4046513e-08
9.3978097e-08
9.3914296e-08
9.385487e-08
9.3799618e-08
9.3747915e-08
9.3048355e-08
9.3128139e-08
9.3213079e-08
9.3302823e-08
9.3398537e-08
9.3500326e-08
9.3608425e-08
9.3722668e-08
9.3843181e-08
9.39691e-08
9.4100317e-08
9.4236218e-08
9.4375485e-08
9.4516595e-08
9.4658111e-08
9.4797868e-08
9.4933351e-08
9.5062496e-08
9.5183171e-08
9.5292892e-08
9.538935e-08
9.5470355e-08
9.5534105e-08
9.5579539e-08
9.5605739e-08
9.5611992e-08
9.5599093e-08
9.5568093e-08
9.5520075e-08
9.5456822e-08
9.5380425e-08
9.5293086e-08
9.5197199e-08
9.5094732e-08
9.4987847e-08
9.4878856e-08
9.4769753e-08
9.4661833e-08
9.4556522e-08
9.4455011e-08
9.435782e-08
9.4265207e-08
9.4177852e-08
9.4095606e-08
9.4018631e-08
9.3946668e-08
9.3879515e-08
9.3816906e-08
9.3758513e-08
9.3114025e-08
9.3198554e-08
9.3288787e-08
9.3384227e-08
9.3486116e-08
9.3594538e-08
9.3709729e-08
9.3831493e-08
9.3959939e-08
9.4094141e-08
9.4233937e-08
9.4378636e-08
9.4526823e-08
9.4676859e-08
9.4827181e-08
9.4975481e-08
9.5119092e-08
9.5255797e-08
9.5383316e-08
9.549902e-08
9.5600469e-08
9.5685355e-08
9.5751785e-08
9.5798623e-08
9.5824908e-08
9.5829905e-08
9.5814433e-08
9.577959e-08
9.5726515e-08
9.5657076e-08
9.557347e-08
9.5478031e-08
9.5373302e-08
9.5261394e-08
9.5144614e-08
9.5025429e-08
9.4905974e-08
9.478765e-08
9.4671997e-08
9.4560315e-08
9.4453189e-08
9.4350913e-08
9.425427e-08
9.4163101e-08
9.4077637e-08
9.3997604e-08
9.3922833e-08
9.3852998e-08
9.378805e-08
9.3190475e-08
9.3280036e-08
9.3375885e-08
9.3477368e-08
9.3585804e-08
9.3701255e-08
9.3823957e-08
9.3953682e-08
9.4090516e-08
9.4233471e-08
9.4382326e-08
9.4536306e-08
9.4693893e-08
9.4853324e-08
9.5012904e-08
9.5170176e-08
9.5322315e-08
9.5466946e-08
9.5601635e-08
9.572361e-08
9.5830297e-08
9.5919275e-08
9.5988556e-08
9.6036936e-08
9.6063408e-08
9.6067224e-08
9.6049224e-08
9.6010554e-08
9.595241e-08
9.5876741e-08
9.5785858e-08
9.5682231e-08
9.5568557e-08
9.5447101e-08
9.5320318e-08
9.5190829e-08
9.5060914e-08
9.4932081e-08
9.4805987e-08
9.4684039e-08
9.4566893e-08
9.4454888e-08
9.4348903e-08
9.4248777e-08
9.4154808e-08
9.4066711e-08
9.3984352e-08
9.3907341e-08
9.3835902e-08
9.3278524e-08
9.3373425e-08
9.3475238e-08
9.3583139e-08
9.3698522e-08
9.3821427e-08
9.3952087e-08
9.409024e-08
9.4235947e-08
9.4388154e-08
9.4546572e-08
9.4710338e-08
9.4877824e-08
9.5047138e-08
9.5216441e-08
9.5383123e-08
9.5544194e-08
9.5697116e-08
9.5839297e-08
9.596782e-08
9.6079981e-08
9.6173245e-08
9.6245534e-08
9.6295576e-08
9.632232e-08
9.6325011e-08
9.630451e-08
9.6262008e-08
9.6198757e-08
9.611679e-08
9.6018532e-08
9.5906596e-08
9.5783842e-08
9.5652689e-08
9.551575e-08
9.5375799e-08
9.5235256e-08
9.5095746e-08
9.4959042e-08
9.4826661e-08
9.4699334e-08
9.4577454e-08
9.446199e-08
9.4352792e-08
9.4250216e-08
9.4153974e-08
9.4063964e-08
9.3979734e-08
9.3901779e-08
9.3379212e-08
9.3479787e-08
9.3587943e-08
9.3702666e-08
9.3825427e-08
9.3956241e-08
9.4095337e-08
9.4242418e-08
9.4397511e-08
9.4559496e-08
9.4728008e-08
9.4902089e-08
9.5079993e-08
9.5259692e-08
9.5439197e-08
9.5615733e-08
9.5786143e-08
9.5947717e-08
9.6097705e-08
9.6233042e-08
9.6350897e-08
9.6448625e-08
9.6524062e-08
9.6575868e-08
9.6602955e-08
9.6604562e-08
9.6581571e-08
9.6535217e-08
9.6466806e-08
9.6378453e-08
9.6272703e-08
9.6152317e-08
9.6020321e-08
9.5879298e-08
9.5732015e-08
9.5581399e-08
9.5430012e-08
9.52796e-08
9.5132056e-08
9.4989006e-08
9.4851268e-08
9.4719294e-08
9.4594143e-08
9.4475686e-08
9.4364334e-08
9.42598e-08
9.416202e-08
9.4070476e-08
9.3985935e-08
9.3493822e-08
9.3600436e-08
9.3715344e-08
9.3837328e-08
9.3967932e-08
9.4107147e-08
9.4255193e-08
9.4411734e-08
9.4576761e-08
9.4749079e-08
9.4928243e-08
9.511319e-08
9.5302049e-08
9.549265e-08
9.5682842e-08
9.5869681e-08
9.6049834e-08
9.6220416e-08
9.6378512e-08
9.6520914e-08
9.6644664e-08
9.6747016e-08
9.6825721e-08
9.6879378e-08
9.6906865e-08
9.6907417e-08
9.6881938e-08
9.6831704e-08
9.675807e-08
9.6663234e-08
9.6549863e-08
9.6420876e-08
9.6279466e-08
9.6128379e-08
9.5970538e-08
9.5809021e-08
9.564653e-08
9.548494e-08
9.5326265e-08
9.517225e-08
9.5023802e-08
9.4881446e-08
9.4746329e-08
9.4618347e-08
9.4497971e-08
9.4384919e-08
9.427916e-08
9.4180114e-08
9.4088825e-08
9.3623902e-08
9.3736953e-08
9.3859066e-08
9.3988786e-08
9.412774e-08
9.4275889e-08
9.443344e-08
9.4600013e-08
9.4775557e-08
9.4958797e-08
9.5149198e-08
9.5345584e-08
9.5545952e-08
9.5747979e-08
9.5949348e-08
9.6146937e-08
9.6337229e-08
9.6517161e-08
9.6683652e-08
9.6833347e-08
9.6963171e-08
9.7070283e-08
9.7152356e-08
9.7207934e-08
9.7235862e-08
9.7235381e-08
9.720741e-08
9.7153264e-08
9.7074343e-08
9.6972926e-08
9.6851809e-08
9.6714071e-08
9.6563071e-08
9.6401719e-08
9.6233089e-08
9.6060406e-08
9.5886514e-08
9.5713421e-08
9.5543271e-08
9.5377933e-08
9.5218414e-08
9.5065322e-08
9.4919894e-08
9.4782063e-08
9.465236e-08
9.4530513e-08
9.4416528e-08
9.430976e-08
9.4211544e-08
9.3771302e-08
9.389123e-08
9.4021042e-08
9.4159024e-08
9.4306884e-08
9.4464547e-08
9.4632204e-08
9.4809427e-08
9.4996113e-08
9.5190901e-08
9.5393154e-08
9.5601574e-08
9.5814019e-08
9.6028003e-08
9.6241034e-08
9.6449808e-08
9.6650621e-08
9.6840225e-08
9.7015369e-08
9.7172559e-08
9.7308607e-08
9.7420585e-08
9.7506103e-08
9.756365e-08
9.759205e-08
9.7590548e-08
9.7560082e-08
9.7501997e-08
9.7417732e-08
9.7309647e-08
9.7180671e-08
9.7034043e-08
9.6873291e-08
9.6701475e-08
9.6521816e-08
9.6337678e-08
9.6152052e-08
9.5967085e-08
9.5785063e-08
9.5607984e-08
9.543697e-08
9.527272e-08
9.5116565e-08
9.4968485e-08
9.4829068e-08
9.4698058e-08
9.4575501e-08
9.446068e-08
9.4355246e-08
9.3938215e-08
9.4065505e-08
9.4203569e-08
9.4350393e-08
9.450777e-08
9.4675585e-08
9.4854009e-08
9.5042553e-08
9.5241055e-08
9.5448058e-08
9.5662812e-08
9.5883886e-08
9.6108985e-08
9.6335457e-08
9.6560625e-08
9.6780998e-08
9.6992685e-08
9.7192249e-08
9.737627e-08
9.7541117e-08
9.7683499e-08
9.7800415e-08
9.7889423e-08
9.7948967e-08
9.7977854e-08
9.7975341e-08
9.7942379e-08
9.7880339e-08
9.7790691e-08
9.7675872e-08
9.7538951e-08
9.7383328e-08
9.7212683e-08
9.7030217e-08
9.6839285e-08
9.6643387e-08
9.6445661e-08
9.6248408e-08
9.6054065e-08