/*--------------------------------*- C++ -*----------------------------------*\
| =========                 |                                                 |
| \\      /  F ield         | OpenFOAM: The Open Source CFD Toolbox           |
|  \\    /   O peration     | Version:  v2006                                 |
|   \\  /    A nd           | Website:  www.openfoam.com                      |
|    \\/     M anipulation  |                                                 |
\*---------------------------------------------------------------------------*/
FoamFile
{
    version     2.0;
    format      ascii;
    class       volScalarField;
    location    "1000";
    object      nutMean;
}
// * * * * * * * * * * * * * * * * * * * * * * * * * * * * * * * * * * * * * //

dimensions      [0 2 -1 0 0 0 0];


internalField   nonuniform List<scalar> 
19765
(
1.026469e-05
1.0224711e-05
9.8729004e-06
9.8631815e-06
9.8037662e-06
9.9117674e-06
9.773241e-06
9.8997263e-06
9.8137826e-06
9.5777111e-06
9.6318766e-06
9.961537e-06
1.013982e-05
1.0294643e-05
1.0661605e-05
1.0800474e-05
1.0716799e-05
1.083785e-05
1.1213326e-05
1.1532093e-05
1.1731668e-05
1.1811589e-05
1.197943e-05
1.2066439e-05
1.2114485e-05
1.2136151e-05
1.2134846e-05
1.2052475e-05
1.2051872e-05
1.1923929e-05
1.1690258e-05
1.1396782e-05
1.1407487e-05
1.1531116e-05
1.1388748e-05
1.1059916e-05
1.1029128e-05
1.0959456e-05
1.068777e-05
1.0751433e-05
1.1083331e-05
1.1220385e-05
1.1168369e-05
1.1452029e-05
1.1348467e-05
1.155976e-05
1.1562262e-05
1.1534945e-05
1.1417095e-05
5.9063372e-05
6.2268454e-05
6.4260526e-05
6.5608686e-05
6.737847e-05
6.918997e-05
7.0995871e-05
7.2758292e-05
7.4623616e-05
7.6112345e-05
7.7911782e-05
7.9919821e-05
8.1588353e-05
8.3026585e-05
8.4554334e-05
8.5509402e-05
8.5762743e-05
8.6298654e-05
8.7308937e-05
8.838483e-05
8.927221e-05
8.967049e-05
8.9977478e-05
9.0579763e-05
9.1151955e-05
9.1185407e-05
9.101031e-05
9.1006572e-05
9.0964354e-05
9.0743692e-05
9.0424619e-05
9.0043671e-05
8.9826305e-05
8.9481509e-05
8.8661883e-05
8.7582164e-05
8.6627322e-05
8.539432e-05
8.3886645e-05
8.2716311e-05
8.1658114e-05
7.9634285e-05
7.7538419e-05
7.4612101e-05
7.2107946e-05
6.7145235e-05
6.1389077e-05
5.5432524e-05
5.1006558e-05
1.9654682e-05
1.8576932e-05
1.7772549e-05
1.7818533e-05
1.7705557e-05
1.7584319e-05
1.7260038e-05
1.7197974e-05
1.6836903e-05
1.67694e-05
1.6814094e-05
1.663549e-05
1.6256939e-05
1.5918948e-05
1.5470928e-05
1.4885532e-05
1.4467591e-05
1.4223858e-05
1.3995886e-05
1.3743085e-05
1.3504561e-05
1.3351512e-05
1.3210514e-05
1.3123792e-05
1.3250797e-05
1.3596134e-05
1.3913866e-05
1.4262396e-05
1.4817404e-05
1.5419135e-05
1.6001309e-05
1.6534999e-05
1.700812e-05
1.779161e-05
1.8779037e-05
1.9586558e-05
2.0201778e-05
2.1027431e-05
2.1633586e-05
2.1904296e-05
2.2426278e-05
2.3387398e-05
2.3851859e-05
2.4787544e-05
2.5398669e-05
2.6824607e-05
2.879071e-05
3.1267943e-05
3.2962445e-05
8.6590886e-07
7.432035e-07
6.6579353e-07
6.3932692e-07
6.1225213e-07
5.8843794e-07
5.6049613e-07
5.4398827e-07
5.2008251e-07
5.0552908e-07
4.9472491e-07
4.7852253e-07
4.5811113e-07
4.4050889e-07
4.2239125e-07
4.0302482e-07
3.8931759e-07
3.806487e-07
3.7254238e-07
3.6421488e-07
3.5745305e-07
3.5403783e-07
3.5101747e-07
3.5006233e-07
3.5471812e-07
3.652704e-07
3.762967e-07
3.8921104e-07
4.0805812e-07
4.2969037e-07
4.5292176e-07
4.7691074e-07
5.0142371e-07
5.366834e-07
5.8143804e-07
6.2545568e-07
6.6836322e-07
7.2264306e-07
7.7326775e-07
8.1612121e-07
8.7473402e-07
9.5874623e-07
1.0320554e-06
1.1481155e-06
1.2613003e-06
1.4257144e-06
1.6245386e-06
1.8731226e-06
2.1596062e-06
1.6461682e-07
1.6326086e-07
1.6281567e-07
1.6418919e-07
1.6537146e-07
1.6647253e-07
1.6701973e-07
1.6810108e-07
1.6838829e-07
1.6921615e-07
1.7036198e-07
1.7098755e-07
1.7111245e-07
1.7136867e-07
1.7136976e-07
1.7097756e-07
1.7098602e-07
1.7145598e-07
1.7183724e-07
1.7216131e-07
1.7266379e-07
1.7327928e-07
1.7401768e-07
1.7513461e-07
1.7686521e-07
1.7926435e-07
1.8170745e-07
1.8431892e-07
1.8754508e-07
1.9095452e-07
1.9437397e-07
1.9769173e-07
2.007729e-07
2.0465064e-07
2.0907493e-07
2.1295403e-07
2.1622685e-07
2.1999538e-07
2.2302753e-07
2.2509325e-07
2.2791207e-07
2.3169243e-07
2.3426993e-07
2.3846295e-07
2.41837e-07
2.465123e-07
2.5122224e-07
2.551773e-07
2.5825314e-07
1.4021447e-07
1.3998131e-07
1.4014957e-07
1.4102637e-07
1.4163069e-07
1.4224919e-07
1.4266715e-07
1.4328921e-07
1.4357673e-07
1.441777e-07
1.4473329e-07
1.4501214e-07
1.4513795e-07
1.4530804e-07
1.4534448e-07
1.4531789e-07
1.4553649e-07
1.4592824e-07
1.4627753e-07
1.4665558e-07
1.4714183e-07
1.4766544e-07
1.4837225e-07
1.4933403e-07
1.5061455e-07
1.5227926e-07
1.5405394e-07
1.5593429e-07
1.58139e-07
1.6052249e-07
1.6298156e-07
1.6547273e-07
1.6783056e-07
1.7044936e-07
1.7339367e-07
1.7628864e-07
1.7884365e-07
1.8152457e-07
1.8404753e-07
1.8606549e-07
1.8803402e-07
1.9064216e-07
1.9269537e-07
1.9544832e-07
1.9795128e-07
2.0097944e-07
2.0425553e-07
2.077985e-07
2.1106714e-07
1.2261662e-07
1.224182e-07
1.2241547e-07
1.228135e-07
1.230734e-07
1.2334447e-07
1.2351617e-07
1.2381222e-07
1.2393726e-07
1.2424532e-07
1.2455037e-07
1.2471198e-07
1.247968e-07
1.2491699e-07
1.2497328e-07
1.2500046e-07
1.2517984e-07
1.2548147e-07
1.257794e-07
1.261085e-07
1.2651246e-07
1.2695293e-07
1.2749108e-07
1.2819036e-07
1.2910395e-07
1.3025658e-07
1.3148381e-07
1.3279829e-07
1.3432617e-07
1.359755e-07
1.3768905e-07
1.3943616e-07
1.4112772e-07
1.4299702e-07
1.4507284e-07
1.471266e-07
1.4900004e-07
1.5096125e-07
1.528371e-07
1.544262e-07
1.5601103e-07
1.5795515e-07
1.5958574e-07
1.6160219e-07
1.6346303e-07
1.6559348e-07
1.6781629e-07
1.7014011e-07
1.7224742e-07
1.1355766e-07
1.1340664e-07
1.1338016e-07
1.1359527e-07
1.1373288e-07
1.1387984e-07
1.1397108e-07
1.1413457e-07
1.1420282e-07
1.143767e-07
1.1455122e-07
1.1464996e-07
1.1471143e-07
1.1479895e-07
1.1485897e-07
1.1491263e-07
1.1506104e-07
1.1528832e-07
1.1552645e-07
1.1579729e-07
1.1612702e-07
1.1649533e-07
1.1694202e-07
1.1750026e-07
1.1820306e-07
1.1906594e-07
1.1999379e-07
1.2099477e-07
1.2214279e-07
1.2338451e-07
1.2468604e-07
1.2602805e-07
1.2735578e-07
1.2880654e-07
1.3040022e-07
1.3200027e-07
1.3350603e-07
1.3507581e-07
1.3660733e-07
1.3797297e-07
1.3933799e-07
1.40938e-07
1.4235769e-07
1.4403455e-07
1.4563906e-07
1.4744332e-07
1.493481e-07
1.5137435e-07
1.5330104e-07
1.0728273e-07
1.071643e-07
1.0711962e-07
1.0722624e-07
1.0728808e-07
1.0735816e-07
1.0739741e-07
1.0748353e-07
1.075157e-07
1.0761469e-07
1.0771832e-07
1.0778151e-07
1.0782772e-07
1.0789504e-07
1.0795237e-07
1.080128e-07
1.0813702e-07
1.0831636e-07
1.085108e-07
1.0873365e-07
1.0900068e-07
1.092996e-07
1.0965146e-07
1.1007907e-07
1.1060942e-07
1.1125159e-07
1.1194562e-07
1.1269785e-07
1.1355432e-07
1.1448196e-07
1.1546035e-07
1.1647691e-07
1.1749751e-07
1.1860719e-07
1.1981767e-07
1.2104211e-07
1.2221703e-07
1.2344038e-07
1.2464625e-07
1.257515e-07
1.2686142e-07
1.2812137e-07
1.292678e-07
1.305761e-07
1.31835e-07
1.3321572e-07
1.3465144e-07
1.3615145e-07
1.375679e-07
1.0323063e-07
1.0314619e-07
1.0310794e-07
1.0316697e-07
1.0319799e-07
1.0323507e-07
1.0325371e-07
1.0330292e-07
1.0332014e-07
1.0338076e-07
1.0344651e-07
1.0349028e-07
1.0352701e-07
1.0358047e-07
1.0363214e-07
1.036907e-07
1.0379372e-07
1.0393631e-07
1.0409445e-07
1.0427675e-07
1.0449359e-07
1.0473824e-07
1.0502285e-07
1.0536146e-07
1.0577491e-07
1.0626938e-07
1.0680608e-07
1.0738979e-07
1.080508e-07
1.087683e-07
1.0952942e-07
1.1032587e-07
1.111353e-07
1.1201267e-07
1.1296632e-07
1.1393936e-07
1.1488864e-07
1.1587738e-07
1.1686223e-07
1.1778598e-07
1.1871625e-07
1.1975268e-07
1.2071803e-07
1.2179808e-07
1.2285196e-07
1.2399727e-07
1.2519162e-07
1.2644766e-07
1.2765525e-07
1.0041101e-07
1.003502e-07
1.0031881e-07
1.0035218e-07
1.0036787e-07
1.0038829e-07
1.0039772e-07
1.0042813e-07
1.0043936e-07
1.0048012e-07
1.0052615e-07
1.0056049e-07
1.0059297e-07
1.0063895e-07
1.0068696e-07
1.0074281e-07
1.0083057e-07
1.0094742e-07
1.0107842e-07
1.012292e-07
1.0140658e-07
1.0160669e-07
1.0183639e-07
1.0210477e-07
1.0242838e-07
1.0281171e-07
1.0322894e-07
1.036838e-07
1.0419673e-07
1.0475427e-07
1.0534819e-07
1.0597302e-07
1.0661391e-07
1.0730725e-07
1.0805868e-07
1.0882968e-07
1.095907e-07
1.1038342e-07
1.1117809e-07
1.1193454e-07
1.126981e-07
1.1353526e-07
1.1432522e-07
1.1519307e-07
1.1604248e-07
1.1695268e-07
1.1789392e-07
1.1887411e-07
1.1981351e-07
9.842198e-08
9.8382186e-08
9.8361124e-08
9.8383776e-08
9.8394715e-08
9.8409229e-08
9.8416983e-08
9.8439378e-08
9.8450076e-08
9.8481363e-08
9.8517472e-08
9.8547657e-08
9.857854e-08
9.8620291e-08
9.8665665e-08
9.8718666e-08
9.8795049e-08
9.8893147e-08
9.9003455e-08
9.9129739e-08
9.9276631e-08
9.9441944e-08
9.9629688e-08
9.984571e-08
1.0010285e-07
1.004046e-07
1.0073359e-07
1.0109277e-07
1.014964e-07
1.0193569e-07
1.0240536e-07
1.0290184e-07
1.0341501e-07
1.0396972e-07
1.045701e-07
1.0518955e-07
1.0580706e-07
1.0645097e-07
1.0710052e-07
1.0772668e-07
1.083601e-07
1.0904794e-07
1.0970475e-07
1.1041855e-07
1.1112157e-07
1.1187022e-07
1.1264401e-07
1.1345092e-07
1.1422887e-07
9.6986056e-08
9.6961719e-08
9.694955e-08
9.6967636e-08
9.6977963e-08
9.699114e-08
9.7000257e-08
9.7019965e-08
9.7032616e-08
9.706008e-08
9.7091925e-08
9.7121176e-08
9.715237e-08
9.7192371e-08
9.7236484e-08
9.7287472e-08
9.7355832e-08
9.7440547e-08
9.7535419e-08
9.7642975e-08
9.776636e-08
9.7904276e-08
9.8059066e-08
9.8234542e-08
9.8440587e-08
9.8680073e-08
9.8941239e-08
9.9226474e-08
9.9545817e-08
9.9893567e-08
1.0026635e-07
1.0066185e-07
1.0107308e-07
1.0151729e-07
1.0199752e-07
1.0249501e-07
1.029947e-07
1.0351614e-07
1.0404449e-07
1.0455845e-07
1.0507924e-07
1.0563991e-07
1.0617937e-07
1.0675951e-07
1.0733187e-07
1.0793611e-07
1.0855727e-07
1.092011e-07
1.0982014e-07
9.5929184e-08
9.5917755e-08
9.5914136e-08
9.5931695e-08
9.5944018e-08
9.5958659e-08
9.5970932e-08
9.5991049e-08
9.6007017e-08
9.6033894e-08
9.6064685e-08
9.6094816e-08
9.6127426e-08
9.6167202e-08
9.6211044e-08
9.6260848e-08
9.632367e-08
9.6398855e-08
9.648227e-08
9.657559e-08
9.6680943e-08
9.6797514e-08
9.6926666e-08
9.7070882e-08
9.7237667e-08
9.7429486e-08
9.7638404e-08
9.7866347e-08
9.8120492e-08
9.8397299e-08
9.8694624e-08
9.9010971e-08
9.934151e-08
9.9698426e-08
1.0008405e-07
1.0048505e-07
1.0089048e-07
1.0131411e-07
1.0174524e-07
1.0216803e-07
1.0259724e-07
1.0305683e-07
1.0350216e-07
1.0397787e-07
1.0444866e-07
1.0494334e-07
1.0545097e-07
1.0597672e-07
1.0648257e-07
9.5142263e-08
9.514076e-08
9.5144334e-08
9.5163029e-08
9.5178262e-08
9.519549e-08
9.5211508e-08
9.5233543e-08
9.525334e-08
9.5281398e-08
9.5312985e-08
9.5345064e-08
9.5379801e-08
9.5420416e-08
9.546481e-08
9.5514246e-08
9.5573471e-08
9.5642023e-08
9.571707e-08
9.5799678e-08
9.5891247e-08
9.5991201e-08
9.6100284e-08
9.6220096e-08
9.6356276e-08
9.6510996e-08
9.6678965e-08
9.6861701e-08
9.7064408e-08
9.7285133e-08
9.7522415e-08
9.7775332e-08
9.8040498e-08
9.8326639e-08
9.8635629e-08
9.8957994e-08
9.9285769e-08
9.9628774e-08
9.9979205e-08
1.0032513e-07
1.0067692e-07
1.0105183e-07
1.0141698e-07
1.0180455e-07
1.0218856e-07
1.0258974e-07
1.0299984e-07
1.0342285e-07
1.0382859e-07
9.4548047e-08
9.4554752e-08
9.4564727e-08
9.4585638e-08
9.4604323e-08
9.46248e-08
9.4644862e-08
9.466969e-08
9.4693558e-08
9.4723847e-08
9.4757348e-08
9.4792026e-08
9.4829363e-08
9.4871558e-08
9.4917154e-08
9.4966943e-08
9.5024075e-08
9.5088184e-08
9.5157264e-08
9.5231924e-08
9.5313035e-08
9.5400119e-08
9.5493513e-08
9.559422e-08
9.5706417e-08
9.583205e-08
9.5967669e-08
9.6114405e-08
9.6276221e-08
9.6452252e-08
9.6641407e-08
9.684312e-08
9.7054976e-08
9.7283443e-08
9.7530252e-08
9.7788745e-08
9.8053098e-08
9.8330356e-08
9.8614738e-08
9.8897163e-08
9.918493e-08
9.9490679e-08
9.9789881e-08
1.0010609e-07
1.0041996e-07
1.0074669e-07
1.0108002e-07
1.0142335e-07
1.017521e-07
9.4096229e-08
9.4109531e-08
9.4124981e-08
9.4148501e-08
9.4170722e-08
9.4194638e-08
9.4218734e-08
9.4246759e-08
9.427472e-08
9.4307829e-08
9.4343912e-08
9.4381594e-08
9.4421861e-08
9.4466186e-08
9.4513522e-08
9.4564293e-08
9.4620526e-08
9.4681885e-08
9.4746885e-08
9.4815788e-08
9.4889057e-08
9.4966231e-08
9.5047364e-08
9.5133042e-08
9.5226312e-08
9.5328917e-08
9.5438698e-08
9.5556343e-08
9.5685384e-08
9.5825137e-08
9.5975299e-08
9.6134984e-08
9.630269e-08
9.6483664e-08
9.6679637e-08
9.6885853e-08
9.7097909e-08
9.73208e-08
9.7550197e-08
9.7779172e-08
9.8012898e-08
9.8260651e-08
9.8504036e-08
9.8760317e-08
9.901497e-08
9.9279094e-08
9.954783e-08
9.9823893e-08
1.0008729e-07
9.3749787e-08
9.3768655e-08
9.3788966e-08
9.381535e-08
9.3841138e-08
9.3868595e-08
9.3896686e-08
9.3928149e-08
9.3960195e-08
9.3996503e-08
9.4035614e-08
9.4076592e-08
9.4120052e-08
9.4166943e-08
9.4216476e-08
9.4268786e-08
9.4325086e-08
9.438503e-08
9.4447457e-08
9.4512351e-08
9.4579859e-08
9.4649483e-08
9.4721067e-08
9.4794909e-08
9.4873176e-08
9.4957426e-08
9.5046378e-08
9.5141133e-08
9.5242889e-08
9.5352047e-08
9.5470735e-08
9.5595584e-08
9.572672e-08
9.586887e-08
9.6023447e-08
9.6186752e-08
9.6355358e-08
9.6532883e-08
9.6716184e-08
9.690004e-08
9.7088171e-08
9.7287468e-08
9.7484042e-08
9.7690651e-08
9.7896304e-08
9.8109178e-08
9.8325464e-08
9.8547439e-08
9.8758588e-08
9.3483365e-08
9.3506934e-08
9.3531549e-08
9.3560862e-08
9.3590145e-08
9.3621133e-08
9.3653129e-08
9.3688148e-08
9.3724243e-08
9.3763995e-08
9.3806441e-08
9.3850938e-08
9.3897818e-08
9.3947642e-08
9.3999776e-08
9.4054121e-08
9.4111286e-08
9.417089e-08
9.4231964e-08
9.4294263e-08
9.4357678e-08
9.4421646e-08
9.4485844e-08
9.4550361e-08
9.4616692e-08
9.4686205e-08
9.4758218e-08
9.4834788e-08
9.4916938e-08
9.4998575e-08
9.5089763e-08
9.5185159e-08
9.5286376e-08
9.539704e-08
9.551735e-08
9.5644478e-08
9.5776073e-08
9.5915009e-08
9.6059125e-08
9.620452e-08
9.6353871e-08
9.6512272e-08
9.6669184e-08
9.683402e-08
9.6998405e-08
9.7168328e-08
9.7340758e-08
9.7517538e-08
9.7685034e-08
9.327797e-08
9.3305664e-08
9.3334206e-08
9.3366499e-08
9.3399232e-08
9.343375e-08
9.3469597e-08
9.3508262e-08
9.35484e-08
9.3591791e-08
9.3637821e-08
9.3686039e-08
9.3736558e-08
9.3789642e-08
9.3844748e-08
9.390158e-08
9.3960288e-08
9.4020436e-08
9.4081161e-08
9.4142021e-08
9.4202697e-08
9.426254e-08
9.4321092e-08
9.4378283e-08
9.4435097e-08
9.4492704e-08
9.4550443e-08
9.460943e-08
9.4674315e-08
9.4739926e-08
9.4803744e-08
9.48756e-08
9.4953038e-08
9.503727e-08
9.512783e-08
9.5223642e-08
9.5323465e-08
9.5429614e-08
9.554057e-08
9.5653372e-08
9.57699e-08
9.5893901e-08
9.6017361e-08
9.6147224e-08
9.627709e-08
9.6411352e-08
9.654758e-08
9.6687304e-08
9.6819184e-08
9.3120045e-08
9.3151419e-08
9.318359e-08
9.3218878e-08
9.3255015e-08
9.3293055e-08
9.3332719e-08
9.3375108e-08
9.3419306e-08
9.3466503e-08
9.3516334e-08
9.3568468e-08
9.3622844e-08
9.3679495e-08
9.3737922e-08
9.3797658e-08
9.3858496e-08
9.3919933e-08
9.398115e-08
9.4041532e-08
9.4100579e-08
9.4157547e-08
9.4211863e-08
9.4263331e-08
9.4312545e-08
9.4360458e-08
9.4407347e-08
9.4452548e-08
9.4500014e-08
9.4555627e-08
9.45994e-08
9.4649841e-08
9.4705148e-08
9.4764485e-08
9.4828836e-08
9.4897954e-08
9.4970921e-08
9.5049409e-08
9.5132307e-08
9.5217371e-08
9.5305919e-08
9.5400706e-08
9.5495659e-08
9.5595889e-08
9.5696501e-08
9.5800694e-08
9.5906503e-08
9.6015177e-08
9.611728e-08
9.2999327e-08
9.303409e-08
9.3069699e-08
9.3108017e-08
9.3147551e-08
9.3189138e-08
9.3232627e-08
9.3278831e-08
9.3327145e-08
9.3378319e-08
9.3432159e-08
9.3488412e-08
9.3546874e-08
9.3607389e-08
9.3669473e-08
9.3732507e-08
9.3795997e-08
9.3859364e-08
9.3921789e-08
9.3982502e-08
9.4040841e-08
9.4095966e-08
9.4147196e-08
9.4194237e-08
9.423738e-08
9.4277401e-08
9.4314595e-08
9.4349516e-08
9.4379058e-08
9.4411336e-08
9.4450063e-08
9.4486334e-08
9.4521874e-08
9.4560055e-08
9.4602631e-08
9.4649295e-08
9.4699435e-08
9.4754279e-08
9.481308e-08
9.4874211e-08
9.4938623e-08
9.5008354e-08
9.5078826e-08
9.5153795e-08
9.5229511e-08
9.5308295e-08
9.5388544e-08
9.5471282e-08
9.5548629e-08
9.290827e-08
9.2946223e-08
9.2985146e-08
9.3026536e-08
9.3069486e-08
9.3114667e-08
9.3162022e-08
9.3212149e-08
9.3264668e-08
9.3319997e-08
9.3378059e-08
9.3438646e-08
9.3501433e-08
9.356611e-08
9.363218e-08
9.3698889e-08
9.3765504e-08
9.3831363e-08
9.3895617e-08
9.3957352e-08
9.401576e-08
9.4069899e-08
9.4118992e-08
9.4162659e-08
9.420096e-08
9.4234481e-08
9.4263718e-08
9.4289214e-08
9.4312969e-08
9.4330833e-08
9.4351482e-08
9.4370659e-08
9.4390103e-08
9.4411557e-08
9.4436034e-08
9.4463506e-08
9.4493798e-08
9.4528009e-08
9.4565782e-08
9.4606011e-08
9.4649397e-08
9.4697444e-08
9.4746723e-08
9.479997e-08
9.4854314e-08
9.491141e-08
9.4969942e-08
9.5030735e-08
9.5087205e-08
9.2841129e-08
9.2882159e-08
9.2924339e-08
9.2968871e-08
9.3015292e-08
9.3064146e-08
9.3115448e-08
9.3169631e-08
9.322648e-08
9.3286155e-08
9.3348664e-08
9.3413816e-08
9.3481181e-08
9.355032e-08
9.3620703e-08
9.3691452e-08
9.376163e-08
9.3830486e-08
9.3897118e-08
9.3960475e-08
9.4019613e-08
9.4073489e-08
9.4121232e-08
9.416239e-08
9.4196839e-08
9.4224991e-08
9.4247448e-08
9.4264844e-08
9.4277696e-08
9.4287659e-08
9.4294683e-08
9.4300216e-08
9.4305298e-08
9.4311244e-08
9.4319116e-08
9.4329274e-08
9.4341873e-08
9.4357865e-08
9.4377152e-08
9.4399017e-08
9.4423979e-08
9.4453135e-08
9.448395e-08
9.4518396e-08
9.4554279e-08
9.4592761e-08
9.4632749e-08
9.4674906e-08
9.4713729e-08
9.2793608e-08
9.2837664e-08
9.2883095e-08
9.2930858e-08
9.2980833e-08
9.3033467e-08
9.3088828e-08
9.3147224e-08
9.3208557e-08
9.3272791e-08
9.3339985e-08
9.340995e-08
9.3482163e-08
9.3556069e-08
9.3631093e-08
9.370624e-08
9.3780394e-08
9.3852707e-08
9.3922209e-08
9.3987717e-08
9.4048157e-08
9.4102384e-08
9.4149438e-08
9.4188801e-08
9.42202e-08
9.4243886e-08
9.4260549e-08
9.4270794e-08
9.4275417e-08
9.4275166e-08
9.4271295e-08
9.4264955e-08
9.4257225e-08
9.424938e-08
9.4242558e-08
9.4237401e-08
9.4234322e-08
9.4234178e-08
9.4237092e-08
9.4242678e-08
9.4251331e-08
9.4263858e-08
9.4278423e-08
9.4296423e-08
9.4316194e-08
9.4338525e-08
9.4362503e-08
9.4388647e-08
9.4412366e-08
9.276244e-08
9.2809525e-08
9.2858246e-08
9.2909354e-08
9.2962999e-08
9.3019548e-08
9.3079114e-08
9.3141904e-08
9.3207907e-08
9.327693e-08
9.3349063e-08
9.3424107e-08
9.3501453e-08
9.3580439e-08
9.3660438e-08
9.3740337e-08
9.381886e-08
9.3895059e-08
9.396788e-08
9.4036013e-08
9.4098256e-08
9.4153365e-08
9.4200288e-08
9.4238448e-08
9.4267451e-08
9.4287398e-08
9.429904e-08
9.4303014e-08
9.4300021e-08
9.4291086e-08
9.4277418e-08
9.4260269e-08
9.4240891e-08
9.4220547e-08
9.4200441e-08
9.4181452e-08
9.4164216e-08
9.4149541e-08
9.4137743e-08
9.4128704e-08
9.4122748e-08
9.4120465e-08
9.4120572e-08
9.4124033e-08
9.41296e-08
9.413778e-08
9.4147807e-08
9.4160075e-08
9.4170765e-08
9.2745181e-08
9.2795341e-08
9.2847428e-08
9.2902018e-08
9.2959472e-08
9.3020099e-08
9.3084041e-08
9.3151431e-08
9.3222317e-08
9.329638e-08
9.3373726e-08
9.3454132e-08
9.3536911e-08
9.3621302e-08
9.3706612e-08
9.3791618e-08
9.3874893e-08
9.3955382e-08
9.403194e-08
9.4103127e-08
9.416762e-08
9.4224069e-08
9.4271339e-08
9.4308793e-08
9.4335934e-08
9.4352729e-08
9.4359972e-08
9.4358329e-08
9.4348511e-08
9.4331613e-08
9.4308957e-08
9.4281904e-08
9.425184e-08
9.4220035e-08
9.418777e-08
9.4156135e-08
9.4125962e-08
9.4098046e-08
9.4072866e-08
9.4050537e-08
9.4031341e-08
9.4015711e-08
9.4002805e-08
9.3993264e-08
9.3986163e-08
9.39818e-08
9.3979525e-08
9.3979624e-08
9.3978933e-08
9.2740003e-08
9.279332e-08
9.2848884e-08
9.2907114e-08
9.2968545e-08
9.3033437e-08
9.3101957e-08
9.3174174e-08
9.3250182e-08
9.3329557e-08
9.3412406e-08
9.3498477e-08
9.3587006e-08
9.3677135e-08
9.3768102e-08
9.385857e-08
9.394697e-08
9.4032138e-08
9.4112824e-08
9.4187463e-08
9.4254608e-08
9.4312805e-08
9.4360834e-08
9.4397998e-08
9.4423716e-08
9.4437832e-08
9.4441173e-08
9.4434439e-08
9.4418356e-08
9.4394113e-08
9.4363131e-08
9.4326872e-08
9.4286851e-08
9.4244379e-08
9.4200822e-08
9.4157457e-08
9.4115296e-08
9.4075144e-08
9.4037631e-08
9.4003064e-08
9.3971711e-08
9.3943898e-08
9.3919134e-08
9.3897816e-08
9.3879278e-08
9.3863658e-08
9.3850404e-08
9.3839704e-08
9.3828958e-08
9.2745578e-08
9.2802165e-08
9.2861344e-08
9.2923395e-08
9.2988993e-08
9.3058361e-08
9.3131683e-08
9.3208981e-08
9.3290374e-08
9.3375352e-08
9.3464014e-08
9.3556071e-08
9.3650681e-08
9.3746895e-08
9.3843873e-08
9.3940163e-08
9.403406e-08
9.4124282e-08
9.420947e-08
9.4287931e-08
9.4358095e-08
9.4418404e-08
9.4467551e-08
9.4504781e-08
9.4529436e-08
9.4541254e-08
9.4541085e-08
9.4529671e-08
9.4507763e-08
9.4476641e-08
9.4437826e-08
9.4392883e-08
9.4343458e-08
9.4290919e-08
9.4236728e-08
9.4182333e-08
9.412891e-08
9.4077298e-08
9.4028259e-08
9.3982273e-08
9.3939612e-08
9.3900527e-08
9.3864814e-08
9.3832687e-08
9.3803687e-08
9.3777832e-08
9.3754648e-08
9.3734237e-08
9.3714485e-08
9.2760968e-08
9.2820966e-08
9.2883925e-08
9.2949997e-08
9.3019976e-08
9.3094054e-08
9.317243e-08
9.3255082e-08
9.3342148e-08
9.3433042e-08
9.3527845e-08
9.3626227e-08
9.3727268e-08
9.3829927e-08
9.3933278e-08
9.4035756e-08
9.4135518e-08
9.4231162e-08
9.4321213e-08
9.4403846e-08
9.447737e-08
9.454012e-08
9.45907e-08
9.46283e-08
9.4652192e-08
9.4662019e-08
9.465865e-08
9.464287e-08
9.4615468e-08
9.4577814e-08
9.453153e-08
9.4478285e-08
9.4419859e-08
9.435769e-08
9.4293347e-08
9.4228438e-08
9.4164293e-08
9.4101799e-08
9.4041846e-08
9.3985062e-08
9.3931739e-08
9.3882085e-08
9.3836125e-08
9.379394e-08
9.3755238e-08
9.3719945e-08
9.3687655e-08
9.3658389e-08
9.3630458e-08
9.2785564e-08
9.2849135e-08
9.2916063e-08
9.2986377e-08
9.3060975e-08
9.314002e-08
9.3223723e-08
9.3312025e-08
9.3405075e-08
9.3502219e-08
9.3603511e-08
9.3708576e-08
9.3816414e-08
9.3925891e-08
9.4035989e-08
9.4145027e-08
9.4251025e-08
9.4352456e-08
9.444772e-08
9.4534861e-08
9.4612063e-08
9.4677553e-08
9.472985e-08
9.476808e-08
9.4791456e-08
9.4799539e-08
9.479321e-08
9.4773302e-08
9.474065e-08
9.4696712e-08
9.4643212e-08
9.4581932e-08
9.451478e-08
9.4443285e-08
9.4369125e-08
9.4294065e-08
9.4219578e-08
9.4146618e-08
9.407619e-08
9.4009062e-08
9.3945553e-08
9.3885851e-08
9.3830172e-08
9.3778499e-08
9.3730675e-08
9.3686557e-08
9.3645797e-08
9.3608339e-08
9.3572872e-08
9.2819023e-08
9.2886355e-08
9.2957464e-08
9.3032262e-08
9.3111736e-08
9.3196026e-08
9.3285354e-08
9.3379626e-08
9.3478994e-08
9.3582742e-08
9.3690893e-08
9.3803016e-08
9.3918035e-08
9.4034719e-08
9.4151951e-08
9.4267929e-08
9.4380537e-08
9.4488117e-08
9.4588938e-08
9.468091e-08
9.4762092e-08
9.48306e-08
9.4884865e-08
9.4923954e-08
9.4947021e-08
9.4953555e-08
9.4944452e-08
9.4920589e-08
9.4882855e-08
9.4832799e-08
9.4772248e-08
9.4703099e-08
9.4627392e-08
9.4546759e-08
9.4462996e-08
9.4378016e-08
9.4293435e-08
9.4210283e-08
9.4129678e-08
9.4052514e-08
9.3979151e-08
9.3909771e-08
9.384475e-08
9.3784002e-08
9.3727481e-08
9.3674994e-08
9.3626238e-08
9.3581091e-08
9.3538575e-08
9.286124e-08
9.2932539e-08
9.3008065e-08
9.3087608e-08
9.3172238e-08
9.3262076e-08
9.3357349e-08
9.3457933e-08
9.3563977e-08
9.3674705e-08
9.3790104e-08
9.3909685e-08
9.4032286e-08
9.415658e-08
9.4281345e-08
9.4404653e-08
9.452425e-08
9.463834e-08
9.4745057e-08
9.4842175e-08
9.4927624e-08
9.4999409e-08
9.5055873e-08
9.5096018e-08
9.5118948e-08
9.5124091e-08
9.5112351e-08
9.5084654e-08
9.5041947e-08
9.498587e-08
9.4918357e-08
9.4841424e-08
9.4757246e-08
9.4667567e-08
9.4574308e-08
9.447953e-08
9.4384989e-08
9.4291798e-08
9.4201191e-08
9.4114175e-08
9.4031162e-08
9.3952343e-08
9.3878229e-08
9.3808687e-08
9.3743763e-08
9.3683228e-08
9.3626819e-08
9.357435e-08
9.3525144e-08
9.2912318e-08
9.2987812e-08
9.306801e-08
9.3152582e-08
9.3242673e-08
9.3338383e-08
9.3439946e-08
9.3547208e-08
9.366031e-08
9.3778418e-08
9.3901476e-08
9.4028932e-08
9.4159538e-08
9.4291862e-08
9.4424571e-08
9.455561e-08
9.4682579e-08
9.4803542e-08
9.4916492e-08
9.5019062e-08
9.5109053e-08
9.5184358e-08
9.524323e-08
9.5284609e-08
9.5307546e-08
9.531142e-08
9.5297142e-08
9.5265688e-08
9.5218066e-08
9.5156009e-08
9.5081561e-08
9.4996861e-08
9.4904221e-08
9.4805508e-08
9.4702773e-08
9.4598225e-08
9.4493758e-08
9.439058e-08
9.4290036e-08
9.4193246e-08
9.4100678e-08
9.4012543e-08
9.3929471e-08
9.38513e-08
9.3778154e-08
9.3709775e-08
9.3645937e-08
9.3586393e-08
9.3530744e-08
9.2972554e-08
9.305249e-08
9.3137641e-08
9.3227546e-08
9.3323424e-08
9.3425356e-08
9.3533578e-08
9.3647909e-08
9.3768476e-08
9.3894389e-08
9.4025541e-08
9.4161311e-08
9.4300362e-08
9.4441153e-08
9.4582234e-08
9.4721413e-08
9.4856146e-08
9.4984347e-08
9.5103863e-08
9.5212186e-08
9.5306984e-08
9.5386038e-08
9.5447511e-08
9.5490277e-08
9.5513342e-08
9.5516043e-08
9.5499295e-08
9.5464126e-08
9.5411608e-08
9.5343566e-08
9.5262158e-08
9.516965e-08
9.5068495e-08
9.496069e-08
9.4848424e-08
9.4734054e-08
9.4619612e-08
9.4506407e-08
9.4395899e-08
9.4289317e-08
9.4187191e-08
9.4089765e-08
9.3997773e-08
9.3911036e-08
9.3829748e-08
9.375363e-08
9.3682491e-08
9.3616022e-08
9.3554084e-08
9.3042429e-08
9.3127078e-08
9.3217484e-08
9.3313052e-08
9.3415068e-08
9.3523597e-08
9.3638876e-08
9.3760693e-08
9.3889159e-08
9.4023325e-08
9.4163031e-08
9.4307578e-08
9.4455536e-08
9.4605248e-08
9.475514e-08
9.490288e-08
9.5045773e-08
9.5181578e-08
9.5307992e-08
9.5422361e-08
9.5522222e-08
9.5605242e-08
9.5669493e-08
9.5713785e-08
9.5737079e-08
9.5738679e-08
9.5719505e-08
9.5680632e-08
9.5623202e-08
9.5549134e-08
9.5460701e-08
9.5360298e-08
9.5250524e-08
9.5133514e-08
9.5011598e-08
9.4887282e-08
9.476274e-08
9.4639391e-08
9.4518809e-08
9.4402334e-08
9.4290562e-08
9.4183779e-08
9.4082815e-08
9.3987484e-08
9.3898044e-08
9.3814202e-08
9.3735796e-08
9.3662459e-08
9.35943e-08
9.3122614e-08
9.3212267e-08
9.3308257e-08
9.3409841e-08
9.3518374e-08
9.3633904e-08
9.3756663e-08
9.3886413e-08
9.402324e-08
9.4166136e-08
9.431488e-08
9.4468691e-08
9.4626037e-08
9.4785144e-08
9.4944301e-08
9.5101033e-08
9.5252487e-08
9.5396263e-08
9.5529904e-08
9.5650607e-08
9.5755776e-08
9.5842965e-08
9.5910157e-08
9.5956098e-08
9.5979705e-08
9.5980258e-08
9.5958679e-08
9.5916094e-08
9.5853711e-08
9.5773547e-08
9.5677988e-08
9.5569568e-08
9.5451028e-08
9.532465e-08
9.5192912e-08
9.5058468e-08
9.4923638e-08
9.4789957e-08
9.4659118e-08
9.4532571e-08
9.4410987e-08
9.4294703e-08
9.4184634e-08
9.4080604e-08
9.3982924e-08
9.3891294e-08
9.3805582e-08
9.3725361e-08
9.3650982e-08
9.3213969e-08
9.3308942e-08
9.3410872e-08
9.3518855e-08
9.3634314e-08
9.3757277e-08
9.3887974e-08
9.4026133e-08
9.4171813e-08
9.4323945e-08
9.4482239e-08
9.4645826e-08
9.4813065e-08
9.4982055e-08
9.5150946e-08
9.5317109e-08
9.5477529e-08
9.5629643e-08
9.5770833e-08
9.5898149e-08
9.600886e-08
9.6100409e-08
9.617069e-08
9.6218388e-08
9.6242379e-08
9.6241924e-08
9.6217947e-08
9.6171622e-08
9.6104227e-08
9.6017873e-08
9.5915068e-08
9.5798477e-08
9.5670994e-08
9.5535048e-08
9.5393267e-08
9.5248463e-08
9.5103099e-08
9.4958837e-08
9.4817492e-08
9.4680626e-08
9.4548993e-08
9.4422988e-08
9.4303611e-08
9.4190698e-08
9.4084614e-08
9.3985056e-08
9.3891919e-08
9.3804717e-08
9.3724044e-08
9.3317563e-08
9.3418199e-08
9.3526457e-08
9.3641251e-08
9.3764078e-08
9.3894941e-08
9.4034066e-08
9.4181144e-08
9.4336204e-08
9.4498109e-08
9.4666493e-08
9.4840392e-08
9.501805e-08
9.5197431e-08
9.5376536e-08
9.5552576e-08
9.572237e-08
9.5883184e-08
9.6032239e-08
9.6166434e-08
9.6282908e-08
9.6378992e-08
9.6452497e-08
9.6502045e-08
9.6526477e-08
9.6525041e-08
9.6498662e-08
9.6448559e-08
9.637608e-08
9.6283432e-08
9.6173239e-08
9.6048307e-08
9.5911677e-08
9.5765932e-08
9.5613854e-08
9.5458411e-08
9.5302217e-08
9.5147069e-08
9.4994909e-08
9.4847417e-08
9.4705434e-08
9.4569423e-08
9.4440465e-08
9.4318421e-08
9.4203705e-08
9.4096016e-08
9.3995278e-08
9.3900945e-08
9.3813855e-08
9.3434692e-08
9.3541365e-08
9.3656373e-08
9.3778428e-08
9.39091e-08
9.4048367e-08
9.4196447e-08
9.4352994e-08
9.4517996e-08
9.4690244e-08
9.486929e-08
9.5054065e-08
9.5242689e-08
9.5432984e-08
9.5622792e-08
9.580916e-08
9.5988732e-08
9.6158602e-08
9.6315825e-08
9.6457153e-08
9.6579592e-08
9.6680369e-08
9.6757214e-08
9.6808692e-08
9.6833611e-08
9.683121e-08
9.6802416e-08
9.6748491e-08
9.6670852e-08
9.6571798e-08
9.6454073e-08
9.6320617e-08
9.6174622e-08
9.6018823e-08
9.5856162e-08
9.5689766e-08
9.5522405e-08
9.5356017e-08
9.5192681e-08
9.5034197e-08
9.4881504e-08
9.4735137e-08
9.4596264e-08
9.4464771e-08
9.4341126e-08
9.4225031e-08
9.4116441e-08
9.4014747e-08
9.3921042e-08
9.3566913e-08
9.3680031e-08
9.3802248e-08
9.3932053e-08
9.407109e-08
9.4219309e-08
9.4376915e-08
9.4543518e-08
9.4719064e-08
9.4902264e-08
9.5092576e-08
9.5288818e-08
9.5488977e-08
9.5690722e-08
9.589173e-08
9.6088874e-08
9.6278622e-08
9.6457891e-08
9.6623568e-08
9.6772258e-08
9.6900843e-08
9.700645e-08
9.7086733e-08
9.7140203e-08
9.7165643e-08
9.7162288e-08
9.7131064e-08
9.7073274e-08
9.6990399e-08
9.6884832e-08
9.6759429e-08
9.6617267e-08
9.6461681e-08
9.6295562e-08
9.6122011e-08
9.5944319e-08
9.5765418e-08
9.5587396e-08
9.5412475e-08
9.5242584e-08
9.5078765e-08
9.4921639e-08
9.4772456e-08
9.4631142e-08
9.4498216e-08
9.4373389e-08
9.4256651e-08
9.4147325e-08
9.4046778e-08
9.3716084e-08
9.3836093e-08
9.3966026e-08
9.4104115e-08
9.4252083e-08
9.4409847e-08
9.4577597e-08
9.4754894e-08
9.4941628e-08
9.5136427e-08
9.5338644e-08
9.5546972e-08
9.5759254e-08
9.5972997e-08
9.6185705e-08
9.6394067e-08
9.6594374e-08
9.6783361e-08
9.6957752e-08
9.7114007e-08
9.7248889e-08
9.7359434e-08
9.7443229e-08
9.7498738e-08
9.7524721e-08
9.7520416e-08
9.748675e-08
9.7425056e-08
9.7336882e-08
9.7224705e-08
9.7091494e-08
9.6940452e-08
9.6775054e-08
9.6598345e-08
9.6413587e-08
9.6224236e-08
9.6033394e-08
9.5843311e-08
9.5656357e-08
9.5474598e-08
9.5299189e-08
9.5130844e-08
9.4970899e-08
9.4819326e-08
9.4676698e-08
9.4542739e-08
9.4417474e-08
9.4300158e-08
9.4192452e-08
9.388442e-08
9.4011812e-08
9.4150017e-08
9.4296976e-08
9.4454496e-08
9.4622455e-08
9.480102e-08
9.4989697e-08
9.5188314e-08
9.5395402e-08
9.5610199e-08
9.5831258e-08
9.6056269e-08
9.6282565e-08
9.6507465e-08
9.6727474e-08
9.6938696e-08
9.7137691e-08
9.7321017e-08
9.7485e-08
9.7626293e-08
9.7741849e-08
9.7829201e-08
9.7886773e-08
9.791331e-08
9.7908058e-08
9.7871941e-08
9.7806322e-08
9.7712804e-08
9.7593946e-08
9.745282e-08
9.7292748e-08
9.7117334e-08
9.6929773e-08
9.6733489e-08
9.6532111e-08
9.6328912e-08
9.6126314e-08
9.5926849e-08
9.5732724e-08
9.5545219e-08