/*--------------------------------*- C++ -*----------------------------------*\
| =========                 |                                                 |
| \\      /  F ield         | OpenFOAM: The Open Source CFD Toolbox           |
|  \\    /   O peration     | Version:  v2006                                 |
|   \\  /    A nd           | Website:  www.openfoam.com                      |
|    \\/     M anipulation  |                                                 |
\*---------------------------------------------------------------------------*/
FoamFile
{
    version     2.0;
    format      ascii;
    class       volScalarField;
    location    "1000";
    object      omega;
}
// * * * * * * * * * * * * * * * * * * * * * * * * * * * * * * * * * * * * * //

dimensions      [0 0 -1 0 0 0 0];


internalField   nonuniform List<scalar> 
19765
(
15.968925
16.269682
17.073997
17.277387
17.608671
17.64873
18.188345
18.171743
18.644595
19.271645
19.285805
18.817073
18.664885
18.492636
18.00438
17.962347
18.236454
18.158072
17.71428
17.398715
17.271559
17.292773
17.196658
17.244358
17.340357
17.43483
17.588097
17.894324
18.05274
18.41091
18.971525
19.686709
19.954969
19.933041
20.29189
21.073925
21.405655
21.725557
22.53473
22.780034
22.370197
22.178423
22.486802
21.922869
22.150467
21.712124
21.637547
21.564746
21.60595
2.9203724
2.8267504
2.7816803
2.8314458
2.8544359
2.8767579
2.8808762
2.9173769
2.9248394
2.9763608
3.0239574
3.0340397
3.0279247
3.0213625
2.991648
2.9613235
2.9617339
2.962563
2.944764
2.9204036
2.9046035
2.9107635
2.918846
2.9233575
2.9508168
3.01544
3.0822702
3.1463387
3.2348764
3.3329736
3.4288874
3.5172998
3.5858982
3.6894106
3.8294918
3.9537646
4.04341
4.1615164
4.2583302
4.3016122
4.3721986
4.5044907
4.5609463
4.7406043
4.8468236
5.1902405
5.6126812
6.0984994
6.4729034
1.0412531
1.04418
1.0531215
1.0854197
1.1047076
1.1223534
1.1316732
1.150281
1.1566591
1.1767007
1.195695
1.2028252
1.203025
1.2043017
1.1994889
1.1917187
1.1914089
1.1939699
1.1924155
1.1890073
1.1907126
1.1991798
1.2064741
1.2114579
1.2233846
1.2491514
1.2786956
1.3084782
1.3469452
1.3899931
1.4335058
1.4756985
1.5108759
1.5552814
1.6116589
1.6652151
1.7064881
1.7547617
1.7970532
1.8195148
1.8430667
1.8887447
1.9108052
1.9451477
1.9663827
2.0062387
2.0575882
2.12135
2.1842948
0.59662227
0.59652449
0.60109732
0.61436201
0.62448639
0.63494899
0.64282255
0.65352425
0.65961803
0.6699452
0.68010552
0.68632976
0.69003246
0.6942323
0.6961947
0.69613849
0.69854898
0.70302148
0.70600362
0.70788275
0.71221883
0.71842604
0.72348338
0.72874137
0.73768863
0.75239429
0.76847231
0.7844565
0.80368116
0.82470039
0.84596117
0.86693364
0.88544079
0.90742635
0.93423937
0.96045668
0.98189163
1.0057292
1.0276746
1.0422252
1.056856
1.0818106
1.0991017
1.1268853
1.1508347
1.1783247
1.2021633
1.2220051
1.238037
0.45472404
0.45589382
0.45854819
0.46466718
0.46910673
0.47343744
0.4766019
0.48101766
0.48356496
0.48795961
0.4923061
0.4950108
0.49668601
0.49859764
0.49965553
0.50005308
0.50171822
0.50445254
0.50681296
0.50897885
0.51174974
0.51491657
0.51835777
0.52272351
0.5289245
0.53757443
0.54679085
0.5562246
0.56735543
0.57942051
0.59171359
0.60393954
0.61516391
0.627904
0.64260332
0.65686625
0.66894637
0.68176719
0.69353904
0.70204707
0.71032562
0.72231801
0.73075424
0.74301861
0.75333659
0.7659773
0.77964855
0.79112636
0.79825026
0.3730414
0.3735548
0.37508305
0.37858602
0.38133217
0.38407125
0.38619679
0.3889307
0.39066667
0.39330655
0.39590062
0.39766863
0.39893169
0.40032865
0.40133013
0.40205541
0.40346287
0.40543185
0.40724906
0.40906205
0.41130893
0.41390004
0.41689941
0.42047241
0.42498037
0.43083826
0.43711809
0.4436573
0.45123641
0.45943907
0.46787825
0.47639215
0.48446128
0.49341984
0.50352951
0.5135071
0.52235408
0.53161206
0.54036335
0.54739924
0.55429723
0.56333179
0.57060949
0.58016589
0.58895667
0.59946703
0.61082363
0.62295468
0.63389409
0.33017338
0.33024377
0.33084999
0.33257128
0.33391436
0.33529143
0.33638121
0.33783697
0.33879976
0.34027331
0.34175651
0.34283607
0.34368212
0.34463318
0.34541558
0.34609908
0.34720192
0.34866738
0.35011684
0.3516238
0.35335184
0.35521537
0.35739926
0.36003914
0.36328363
0.36732742
0.37166349
0.37623082
0.38145222
0.38708747
0.39293212
0.39888948
0.40467574
0.41101281
0.41802583
0.42499478
0.43138384
0.43802799
0.44441181
0.44986497
0.45526833
0.46181348
0.46737888
0.47413155
0.48040182
0.48750022
0.49488296
0.50256225
0.50949928
0.30308073
0.30315695
0.30355133
0.30461447
0.30545389
0.30631477
0.30700824
0.30791686
0.30854554
0.3094754
0.3104202
0.31115048
0.31176687
0.31246233
0.31308586
0.31368319
0.31454862
0.31565105
0.31678344
0.31799824
0.31939055
0.32090907
0.32266302
0.3247372
0.3272098
0.33019403
0.33339566
0.33678792
0.34062939
0.34477737
0.34910888
0.35356425
0.35796783
0.36275503
0.36801052
0.3732987
0.37827817
0.38345444
0.38851758
0.39304019
0.39754745
0.40282351
0.40753024
0.41306057
0.41837037
0.42432789
0.43062378
0.43731106
0.44364973
0.28580028
0.28583547
0.28606641
0.28672088
0.28724599
0.28779296
0.28824768
0.28884281
0.28928037
0.28991018
0.29056239
0.29110222
0.291591
0.29214418
0.29267372
0.29320838
0.29392396
0.2948033
0.29572511
0.29672146
0.29784441
0.29905657
0.30042924
0.3020314
0.30391317
0.30613606
0.30852184
0.31106069
0.31391238
0.31698827
0.32021499
0.32355492
0.32690015
0.3305178
0.33445819
0.33844722
0.34227285
0.34624411
0.35016405
0.35375946
0.35735917
0.36143693
0.36516061
0.36938485
0.37345646
0.3779039
0.38252194
0.38732893
0.39185387
0.27411365
0.27419325
0.27439071
0.27485991
0.27524534
0.27564628
0.27599119
0.27642863
0.27677268
0.27724356
0.27773645
0.27817045
0.27858476
0.27905115
0.2795168
0.28000083
0.28061128
0.28133808
0.28210813
0.28294213
0.28387292
0.28487674
0.28599414
0.28727368
0.28875271
0.29046706
0.29230406
0.29426142
0.2964446
0.29879819
0.3012767
0.30385697
0.3064691
0.30928716
0.31234701
0.31546968
0.31851155
0.32167405
0.32482779
0.32778501
0.33075716
0.33407268
0.33716662
0.34062296
0.34400123
0.3476706
0.35150024
0.35552537
0.35938569
0.26600898
0.26611917
0.26630355
0.26666932
0.2669817
0.26730711
0.26759961
0.26795672
0.26825901
0.26864906
0.26906075
0.26944384
0.26982379
0.2702464
0.27067877
0.27113315
0.27167751
0.27230569
0.2729718
0.27368842
0.27447591
0.27531818
0.27623814
0.2772703
0.27844492
0.27978303
0.28121114
0.28273069
0.28441253
0.28622174
0.28813069
0.29012543
0.29216074
0.2943517
0.29672272
0.29915386
0.30154823
0.30403829
0.3065361
0.30891147
0.31130516
0.31393394
0.31641611
0.31914044
0.3218083
0.32466456
0.32761733
0.33068701
0.33361822
0.26023137
0.26038298
0.26057959
0.26089836
0.26118162
0.26147562
0.26175036
0.26207163
0.26236131
0.26271374
0.26308663
0.26344845
0.26381586
0.26421852
0.26463547
0.26507423
0.26557777
0.26614199
0.26673717
0.26737058
0.26805473
0.26877862
0.26955451
0.27040605
0.27135771
0.27242198
0.27355012
0.27474534
0.27605708
0.27746419
0.27895066
0.28050881
0.28210865
0.28382862
0.2856869
0.28760199
0.28950619
0.29149018
0.29349352
0.29542297
0.29737341
0.29949941
0.30153035
0.30374115
0.3059209
0.30824518
0.31065056
0.31316009
0.31557223
0.25604472
0.25623079
0.25644466
0.25674307
0.25701857
0.25730393
0.25757933
0.25789009
0.25818422
0.25852515
0.25888569
0.25924573
0.25961601
0.26001578
0.26043125
0.26086644
0.2613482
0.26187347
0.26242224
0.26299794
0.26360773
0.26424322
0.26491018
0.26562489
0.26640677
0.26726296
0.26816103
0.26910478
0.27012975
0.27122447
0.2723805
0.27359344
0.27484293
0.27618316
0.27762821
0.27912264
0.28061964
0.2821821
0.28376779
0.2853093
0.28687188
0.28856291
0.29019015
0.29194544
0.29367851
0.29551157
0.29739798
0.29935383
0.30122633
0.25296123
0.25318085
0.25341703
0.25371245
0.25399361
0.25428431
0.25457148
0.25488684
0.25519559
0.25554065
0.25590471
0.25627491
0.25665787
0.25706586
0.25748954
0.25793023
0.25840401
0.25890821
0.25942874
0.25996619
0.26052393
0.26109482
0.26168062
0.26229246
0.26294525
0.26364271
0.26436338
0.26511113
0.26591319
0.2667651
0.26766235
0.26860163
0.26956921
0.27060439
0.27171982
0.27287858
0.27404828
0.27527353
0.27652465
0.27775221
0.27900115
0.28034903
0.28165594
0.28305999
0.28445188
0.28592024
0.28743092
0.288999
0.29050134
0.25067209
0.25092122
0.25118035
0.25148212
0.25177618
0.25208015
0.25238546
0.25271462
0.25304426
0.25340343
0.25378139
0.25416986
0.25457251
0.2549968
0.25543609
0.25588957
0.25636588
0.25686233
0.25736843
0.25788252
0.25840515
0.25892958
0.25945491
0.25998863
0.26054172
0.26111569
0.26169651
0.26228793
0.26291309
0.2635715
0.26425884
0.26497214
0.26570431
0.26648634
0.26733048
0.26821251
0.26910996
0.27005435
0.27102458
0.27198417
0.27296429
0.27402016
0.27504979
0.27615183
0.27724622
0.27839606
0.27957539
0.28079554
0.28195926
0.24895975
0.2492366
0.24951955
0.24983398
0.2501458
0.25046827
0.25079595
0.25114496
0.25149975
0.25187971
0.25227858
0.25269104
0.25311855
0.25356515
0.25402583
0.25449803
0.25498505
0.25548398
0.25598638
0.2564888
0.25698954
0.25748183
0.25796287
0.25843748
0.25891332
0.25939037
0.25985974
0.26032523
0.26080935
0.26131081
0.26182296
0.26234605
0.26288128
0.26345475
0.26407742
0.26473307
0.26540581
0.26611807
0.26685512
0.26759021
0.26834504
0.26915974
0.26995928
0.27081524
0.27166839
0.27256462
0.27348406
0.27443655
0.27534259
0.24767915
0.24798164
0.24828834
0.24861926
0.2489518
0.24929612
0.24964894
0.25002192
0.25040484
0.25081034
0.25123517
0.25167595
0.25213243
0.25260613
0.25309295
0.25358884
0.25409321
0.25460268
0.25510997
0.25561003
0.25609936
0.2565708
0.25702016
0.25745026
0.2578659
0.25826599
0.25864522
0.25900804
0.25937841
0.2597474
0.26010764
0.26046917
0.26084062
0.26124197
0.26168092
0.26214658
0.26262837
0.26314274
0.26367997
0.26422083
0.26478056
0.26538818
0.26598853
0.26663325
0.26727826
0.26795649
0.26865235
0.26937345
0.27005535
0.24672438
0.2470515
0.24738223
0.2477325
0.24808804
0.24845677
0.24883695
0.24923701
0.24965051
0.25008522
0.25053999
0.25101263
0.25150156
0.25200637
0.25252343
0.25304739
0.25357465
0.25410127
0.25462047
0.25512579
0.25561217
0.25607189
0.25649962
0.25689665
0.25726532
0.25760377
0.25790925
0.25818775
0.25846452
0.25871638
0.25894332
0.25917142
0.25940853
0.25966544
0.25994779
0.26025016
0.2605668
0.26091039
0.26127516
0.26164768
0.26203876
0.26246953
0.26289945
0.26336591
0.26383598
0.26433338
0.26484576
0.26537938
0.26588108
0.24602175
0.24637271
0.24672765
0.24709937
0.24747966
0.24787479
0.24828412
0.24871379
0.24916
0.24962696
0.25011495
0.25062254
0.25114706
0.25168656
0.25223754
0.25279351
0.25334847
0.25389783
0.25443485
0.25495181
0.25544222
0.25589768
0.25631186
0.25668484
0.25701692
0.25730555
0.25755001
0.25775857
0.25795321
0.25809982
0.25821403
0.25833461
0.2584575
0.25858628
0.25873049
0.25888931
0.25906046
0.25925402
0.25946741
0.25969179
0.25993485
0.26021182
0.2604931
0.26080545
0.26112419
0.26146612
0.26182125
0.26219438
0.26254184
0.24551645
0.24589106
0.24627069
0.24666568
0.24707232
0.24749567
0.24793591
0.24839745
0.2488784
0.24938034
0.24990453
0.25044994
0.25101301
0.25159052
0.25217889
0.25277054
0.25335751
0.25393448
0.25449445
0.25502849
0.25552882
0.25598623
0.25639351
0.25674968
0.25705337
0.25730144
0.25749483
0.25764409
0.25775296
0.25781898
0.25784922
0.25787135
0.25788898
0.25790021
0.25792227
0.25795332
0.25799453
0.258055
0.25813475
0.2582284
0.25834132
0.25848428
0.25863596
0.25881527
0.25900379
0.25921323
0.25943546
0.25967423
0.25989342
0.24516917
0.24556751
0.24597244
0.24639231
0.24682682
0.24728011
0.24775295
0.24824851
0.24876624
0.24930573
0.24986892
0.25045496
0.25105948
0.2516782
0.25230729
0.25293814
0.25356112
0.25417009
0.25475758
0.25531347
0.25582877
0.2562934
0.25669929
0.25704455
0.2573264
0.25754118
0.2576913
0.25778729
0.25776609
0.25775285
0.25775406
0.25770706
0.25762703
0.25753603
0.25744539
0.25735917
0.25728336
0.25722539
0.25718652
0.25716378
0.25716086
0.25718527
0.25722208
0.25728436
0.25735848
0.25745234
0.25755923
0.25768189
0.25779057
0.24495048
0.245373
0.24580406
0.24625042
0.24671436
0.24719934
0.24770658
0.24823831
0.24879493
0.24937455
0.24997949
0.25060896
0.25125786
0.25192098
0.25259408
0.25326759
0.25393036
0.2545754
0.25519458
0.25577663
0.25631135
0.25678774
0.2571969
0.2575361
0.25780141
0.25798864
0.25810138
0.2581442
0.25813611
0.25806945
0.25794847
0.25779282
0.25761616
0.2574273
0.257235
0.25704658
0.25686715
0.25670297
0.25655694
0.25642858
0.25632065
0.25623845
0.25617201
0.25613011
0.25610278
0.2560951
0.25610146
0.25612381
0.25613759
0.24483897
0.24528634
0.24574455
0.24621901
0.24671401
0.24723249
0.24777604
0.24834613
0.2489439
0.24956625
0.25021574
0.25089153
0.25158781
0.25229854
0.25301897
0.25373857
0.25444481
0.25512979
0.25578457
0.25639671
0.25695485
0.25744702
0.25786347
0.25820065
0.25845371
0.25861793
0.25869746
0.25869932
0.25862668
0.25849097
0.25830502
0.25807905
0.25782366
0.25754829
0.25726349
0.25697889
0.25670175
0.25643818
0.25619257
0.25596635
0.25576166
0.25558208
0.25542149
0.25528542
0.25516671
0.25506829
0.25498541
0.25491927
0.25484972
0.24481877
0.24529192
0.24577849
0.24628273
0.24681055
0.24736447
0.24794635
0.24855713
0.24919843
0.24986622
0.25056317
0.25128826
0.25203506
0.25279668
0.25356784
0.25433701
0.25509038
0.25581904
0.25651316
0.2571591
0.25774434
0.25825589
0.25868313
0.25902174
0.25926604
0.25941084
0.25946091
0.25942292
0.25930296
0.25911112
0.25885914
0.25855925
0.25822446
0.25786486
0.25749171
0.25711624
0.25674718
0.25639056
0.25605194
0.25573436
0.2554396
0.25517002
0.25492256
0.2547003
0.25449829
0.25431783
0.25415487
0.25400994
0.25386663
0.24487846
0.24537852
0.24589483
0.24643064
0.24699315
0.24758457
0.248207
0.24886091
0.24954832
0.25026439
0.25101183
0.25178936
0.25258994
0.25340589
0.25423126
0.25505357
0.25585773
0.25663378
0.25737088
0.25805418
0.25866996
0.25920419
0.25964535
0.25998835
0.26022679
0.26035501
0.26037825
0.2603036
0.26013686
0.25988923
0.25957394
0.25920424
0.25879426
0.25835451
0.25789711
0.25743485
0.25697796
0.25653263
0.25610556
0.25570119
0.25532118
0.25496702
0.25463808
0.25433561
0.25405638
0.25380046
0.25356433
0.25334795
0.25313805
0.24500994
0.24553822
0.24608585
0.24665514
0.24725437
0.24788553
0.24855087
0.24925055
0.24998681
0.25075419
0.2515553
0.25238859
0.2532464
0.25412024
0.25500347
0.25588259
0.25674126
0.25756842
0.25835212
0.25907625
0.25972588
0.26028587
0.26074377
0.26109374
0.26132874
0.26144262
0.26144106
0.26133145
0.26112
0.26081881
0.26044208
0.26000416
0.25952048
0.25900231
0.25846274
0.25791606
0.25737385
0.25684267
0.25633025
0.25584227
0.25538041
0.2549456
0.25453913
0.2541609
0.25380904
0.25348268
0.25317873
0.25289658
0.25262574
0.24520782
0.24576583
0.24634652
0.24695134
0.24758949
0.24826276
0.2489736
0.24972184
0.25050992
0.2513318
0.25218998
0.25308255
0.25400122
0.25493671
0.25588161
0.25682137
0.25773839
0.25862042
0.25945435
0.26022275
0.26090942
0.2614981
0.26197537
0.26233461
0.26256817
0.26266948
0.26264457
0.26250123
0.26224607
0.26189212
0.26145471
0.26094932
0.26039272
0.25979703
0.25917641
0.25854658
0.25792043
0.25730504
0.25670911
0.25613947
0.25559792
0.25508505
0.25460373
0.25415286
0.25373161
0.25333842
0.25297053
0.25262682
0.25229919
0.24546886
0.24605828
0.24667395
0.2473165
0.24799594
0.24871393
0.24947302
0.25027284
0.25111592
0.25199573
0.25291457
0.25387017
0.25485356
0.25585466
0.25686523
0.25786963
0.25884896
0.25978974
0.26067758
0.2614937
0.26222059
0.26284078
0.26333988
0.26371046
0.26394428
0.26403439
0.26398715
0.26381073
0.26351229
0.26310582
0.26260779
0.26203488
0.26140522
0.26073194
0.26003034
0.25931755
0.25860777
0.25790869
0.25722999
0.25657955
0.2559594
0.25536993
0.25481536
0.25429379
0.2538053
0.25334774
0.25291863
0.25251637
0.25213497
0.24579165
0.24641434
0.2470671
0.24774976
0.24847306
0.24923853
0.25004888
0.2509035
0.251805
0.2527464
0.25372976
0.25475236
0.25580458
0.2568755
0.25795596
0.25902918
0.26007497
0.26107849
0.26202403
0.26289137
0.26366162
0.26431612
0.26483939
0.2652232
0.26545876
0.26553872
0.26546976
0.26526049
0.26491866
0.2644593
0.26390003
0.26325883
0.26255521
0.26180346
0.26102007
0.26022362
0.25942959
0.2586464
0.25788471
0.25715337
0.25645474
0.25578918
0.25516197
0.25457069
0.25401611
0.25349564
0.25300703
0.25254818
0.25211503
0.24617635
0.24683433
0.24752649
0.24825181
0.24902175
0.24983772
0.25070255
0.25161545
0.25257907
0.25358597
0.25463795
0.25573181
0.25685724
0.25800243
0.25915725
0.26030374
0.26142031
0.26249074
0.26349786
0.26442
0.26523683
0.26592837
0.26647809
0.26687691
0.26711547
0.26718606
0.26709567
0.26685338
0.26646763
0.26595448
0.2653328
0.26462191
0.26384276
0.2630109
0.26214415
0.2612625
0.26038277
0.2595142
0.25866843
0.25785526
0.25707743
0.25633537
0.25563531
0.25497442
0.25435406
0.25377128
0.25322401
0.25270968
0.25222599
0.24662452
0.24732002
0.24805408
0.24882485
0.24964441
0.25051413
0.25143693
0.25241185
0.25344155
0.25451817
0.25564317
0.25681285
0.25801616
0.25924036
0.26047429
0.26169872
0.26289063
0.26403231
0.26510509
0.2660857
0.26695236
0.26768372
0.26826213
0.26867762
0.26892028
0.26898209
0.26887029
0.26859448
0.26816384
0.26759556
0.26690977
0.26612721
0.26527035
0.2643561
0.26340369
0.2624346
0.26146696
0.26051097
0.25957925
0.25868254
0.25782402
0.2570043
0.2562304
0.25549924
0.25481265
0.25416738
0.25356155
0.25299209
0.25245833
0.24713907
0.2478745
0.24865319
0.24947238
0.25034482
0.2512718
0.25225633
0.25329732
0.25439737
0.25554823
0.25675098
0.25800137
0.25928756
0.26059583
0.26191391
0.26322125
0.26449331
0.26571081
0.26685346
0.26789638
0.26881619
0.26959018
0.2701995
0.27063327
0.27088101
0.27093441
0.27080098
0.27049086
0.27001404
0.26938886
0.26863681
0.26778009
0.26684277
0.26584325
0.26480224
0.26374275
0.26268432
0.26163815
0.2606179
0.25963522
0.25869384
0.25779455
0.25694514
0.25614232
0.25538836
0.25467977
0.25401477
0.25338984
0.25280585
0.24772417
0.24850216
0.24932844
0.25019931
0.25112814
0.25211616
0.25316651
0.25427792
0.25545295
0.25668291
0.2579685
0.25930484
0.26067927
0.26207703
0.26348465
0.26488017
0.26623746
0.26753558
0.26875253
0.26986172
0.27083815
0.27165762
0.27230007
0.27275368
0.27300738
0.2730526
0.27289711
0.27255162
0.272027
0.27134279
0.27052189
0.26958804
0.26856699
0.26747874
0.26634558
0.26519213
0.26403937
0.26289961
0.26178757
0.26071585
0.25968873
0.25870732
0.25778006
0.25690358
0.25608047
0.25530708
0.25458172
0.25390038
0.25326544
0.24838533
0.24920874
0.25008584
0.25101189
0.25200092
0.25305411
0.25417468
0.25536123
0.25661622
0.25793055
0.25930445
0.26073239
0.26220082
0.26369386
0.26519677
0.26668609
0.26813399
0.26951779
0.27081369
0.27199329
0.2730299
0.27389779
0.27457562
0.27505059
0.27531105
0.27534819
0.27517002
0.27478788
0.27421356
0.27346784
0.2725751
0.27156071
0.27045217
0.26927118
0.26804176
0.26679018
0.26553894
0.26430154
0.26309383
0.26192936
0.26081302
0.25974629
0.25873824
0.25778544
0.25689083
0.25605057
0.25526306
0.25452379
0.25383666
0.24912943
0.25000137
0.25093282
0.25191787
0.25297124
0.25409405
0.25528964
0.25655644
0.25789681
0.25930118
0.2607693
0.26229492
0.26386353
0.26545807
0.26706242
0.26865152
0.27019576
0.2716706
0.27305033
0.27430468
0.27540516
0.27632448
0.27703996
0.27753782
0.27780576
0.27783481
0.27763319
0.27721289
0.2765867
0.27577668
0.27480873
0.27370995
0.27250968
0.27123147
0.26990112
0.26854669
0.26719223
0.26585256
0.26454467
0.26328312
0.26207347
0.26091762
0.25982523
0.25879289
0.25782383
0.25691406
0.25606209
0.25526286
0.25452181
0.24996489
0.25088875
0.25187838
0.25292659
0.25404881
0.25524611
0.25652193
0.25787452
0.25930612
0.26080669
0.26237541
0.26400528
0.26568074
0.26738346
0.26909583
0.2707911
0.27243777
0.2740093
0.275478
0.27681161
0.27797982
0.27895367
0.27970913
0.28023138
0.28050749
0.28052832
0.28030233
0.27984219
0.27916171
0.27828429
0.27723741
0.27604999
0.27475332
0.27337289
0.27193645
0.27047388
0.26901092
0.26756374
0.26615058
0.26478703
0.26347936
0.26222996
0.26104909
0.25993338
0.25888636
0.2579039
0.25698459
0.25612282
0.25532563
0.25090182
0.25188132
0.25293333
0.25404923
0.25524523
0.25652232
0.25788404
0.25932846
0.26085767
0.26246111
0.26413735
0.26587855
0.26766804
0.26948611
0.27131357
0.27312183
0.27487738
0.2765516
0.27811468
0.2795323
0.28077222
0.28180381
0.28260161
0.28314975
0.28343467
0.28344708
0.28319566
0.28269381
0.28195641
0.28100821
0.27987835
0.27859766
0.27719948
0.27571139
0.27416317
0.27258666
0.27100934
0.26944885
0.26792473
0.26645365
0.26504265
0.26369467
0.26242057
0.26121707
0.260088
0.2590291
0.25803907
0.25711167
0.25625568
0.25195231
0.2529915
0.25411052
0.2552991
0.25657426
0.25793694
0.25939077
0.2609336
0.26256735
0.2642809
0.26607217
0.26793237
0.26984364
0.27178478
0.27373488
0.27566342
0.27753474
0.27931798
0.28098111
0.28248768
0.28380347
0.28489607
0.28573863
0.28631417
0.28660849
0.2866122
0.28633419
0.28578862
0.28499145
0.28396883
0.28275163
0.28137266
0.27986746
0.27826582
0.27659968
0.27490292
0.27320485
0.27152466
0.26988326
0.26829847
0.26677818
0.26532593
0.2639532
0.26265686
0.26144102
0.26030133
0.25923658
0.2582399
0.25732192
0.25313068
0.25423407
0.25542519
0.25669192
0.25805218
0.25950682
0.26105954
0.26270799
0.26445387
0.26628542
0.26819986
0.27018736
0.27222877
0.27430129
0.27638215
0.27843874
0.28043312
0.28233207
0.28410123
0.2857019
0.28709782
0.28825483
0.28914458
0.28974903
0.29005332
0.29004797
0.2897421
0.28915066
0.2882907
0.28718979
0.28588058
0.284398
0.28277991
0.28105842
0.27926776
0.27744391
0.27561813
0.27381123
0.27204558
0.27034022
0.26870398
0.26714107
0.26566362
0.2642687
0.26296073
0.26173528
0.26059127
0.25952111
0.25853751
0.25445395
0.25562649
0.25689536
0.25824632
0.25969824
0.26125187
0.26291098
0.26467296
0.26653925
0.26849744
0.27054389
0.27266771
0.27484829
0.27706111
0.27928141
0.28147433
0.28359951
0.28562123
0.28750265
0.28920277
0.29068323
0.29190806
0.29284747
0.29348232
0.29379712
0.2937823
0.29344723
0.29280765
0.29188172
0.29069842
0.28929229
0.28770048
0.2859633
0.2841153
0.28219305
0.28023478
0.27827372
0.27633243
0.27443483
0.27260129
0.27084164
0.26916086
0.26757181
0.26607179
0.26466557
0.26334865
0.2621201
0.26097157
0.25991804
0.25594223
0.25718946
0.25854239
0.25998433
0.26153522
0.26319563
0.26496942
0.26685367
0.26884952
0.27094379
0.27313194
0.27540185
0.27773136
0.28009407
0.28246309
0.28480115
0.2870653
0.28921717
0.29121736
0.29302243
0.29459192
0.29588805
0.29687958
0.29754629
0.29787208
0.29784733
0.29748165
0.29679159
0.29579638
0.29452646
0.29301829
0.29131139
0.28944863
0.28746709
0.28540578
0.28330519
0.28120062
0.2791165
0.27707842
0.27510819
0.27321677
0.27141004
0.26970163
0.26808916
0.26657779
0.26516297
0.26384396
0.26261155
0.26148331
0.25761931
0.25894746
0.26039154
0.26193205
0.26359007
0.26536599
0.26726371
0.26927996
0.27141547
0.27365625
0.27599671
0.27842336
0.28091236
0.28343527
0.28596289
0.28845539
0.2908671
0.29315684
0.29528248
0.29719815
0.29886119
0.30023208
0.30127815
0.30197813
0.30231535
0.30228017
0.30188243
0.30113951
0.30007166
0.29871074
0.29709527
0.29526727
0.29327223
0.29114984
0.28894152
0.28669009
0.28443304
0.28219677
0.28000873
0.2778923
0.27585975
0.27391795
0.27208141
0.27034815
0.26872374
0.26720363
0.26578728
0.26446455
0.26325595
0.25951342
0.26092952
0.2624728
0.26412046
0.26589484
0.2677961
0.26982814
0.27198726
0.27427373
0.27667257
0.27917702
0.28177207
0.28443201
0.28712618
0.28982291
0.29247967
0.29504787
0.29748342
0.29974138
0.30177331
0.30353441
0.30498342
0.30608636
0.30682092
0.30716995
0.3071238
0.30669256
0.30589441
0.30475052
0.30329422
0.30156618
0.299611
0.29747688
0.295206
0.29284224
0.29043077
0.28801138
0.28561264
0.28326408
0.28099084
0.27880668
0.2767196
0.27474512
0.27288171
0.27113546
0.26950181
0.2679805
0.26656036
0.26526526
0.2616582
0.26317028
0.26482192
0.2665865
0.26848774
0.2705255
0.27270362
0.2750179
0.277468
0.28003781
0.28271923
0.28549549
0.28833882
0.29121615
0.29409312
0.29692437
0.29965829
0.30224774
0.30464489
0.30679869
0.3086622
0.31019252
0.31135446
0.3121248
0.31248593
0.31242826
0.31196211
0.31110643
0.30988321
0.30832723
0.30648145
0.30439313
0.30211303
0.29968577
0.29715759
0.29457608
0.29198353
0.28941095
0.28689015
0.28444833
0.28210089
0.27985715
0.27773374
0.27572966
0.27385157
0.27209494
0.27045983
0.2689339
0.26754494
0.26409419
0.26571144
0.26748197
0.26937467
0.27141479
0.27360178
0.27593939
0.27842276
0.28105081
0.28380612
0.28667897
0.28965062
0.29269094
0.2957642
0.2988332
0.30184954
0.30475853
0.30750995
0.310053
0.31233403
0.31430398
0.31591848
0.31714128
0.31794836
0.31832177
0.31825202
0.31774967
0.31683434
0.3155287
0.31386903
0.31190067
0.30967349
0.3072406
0.3046488
0.30194663
0.29918426
0.29640673
0.29364784
0.290942
0.28831868
0.28579515
0.28338224
0.28109776
0.27894141
0.27692046
0.27503048
0.27327194
0.27163117
0.27014058
0.26687093
0.26860396
0.27050554
0.27253927
0.27473207
0.27708292
0.27959533
0.28226368
0.28508593
0.28804312
0.29112362
0.29430637
0.29755858
0.30084154
0.30411493
0.30732722
0.31042059
0.31334173
0.31603697
0.31845007
0.32052998
0.32223099
0.32351604
0.32436051
0.32474623
0.32466387
0.32412421
0.32314744
0.32175671
0.31998985
0.31789466
0.31552339
0.31293106
0.31016634
0.30728008
0.30432526
0.3013501
0.2983915
0.29548684
0.29266808
0.28995458
0.28735878
0.28489986
0.28257826
0.28040197
0.27836669
0.27647339
0.27470688
0.27310512
0.2700502
0.27191129
0.27395804
0.27614772
0.27850915
0.28104065
0.28374542
0.28661686
0.28965178
0.29282933
0.29613563
0.29954692
0.3030273
0.30653471
0.31002542
0.31344458
0.31673126
0.31982924
0.3226821
0.32523124
0.32742371
0.32921274
0.33056077
0.33144282
0.33184067
0.33174522
0.33116745
0.33012795
0.32865015
0.32677347
0.32454818
0.32202838
0.31927032
0.31632424
0.31324346
0.31008417
0.30689818
0.30372592
0.30060795
0.29757899
0.29466063
0.29186713
0.28921919
0.28671814
0.28437286
0.28217925
0.280139
0.27823515
0.27651233
0.2737105
0.27571397
0.27792244
0.28028543
0.28283396
0.28556548
0.28848274
0.29157793
0.29484638
0.29826504
0.30181734
0.30547633
0.30920252
0.31295003
0.31667131
0.32030802
0.32379616
0.32707685
0.33009136
0.33277901
0.33508527
0.3369626
0.33837336
0.33929252
0.33970202
0.33959311
0.3389769
0.3378742
0.33630839
0.33432068
0.33196349
0.32929187
0.32636249
0.32322698
0.31994146
0.31656585
0.31315595
0.30975597
0.30640986
0.30315524
0.30001614
0.29700881
0.29415566
0.29145908
0.28892898
0.2865616
0.28435947
0.28230366
0.28044698
0.27795347
0.28011622
0.28250593
0.28506263
0.28781982
0.29077382
0.2939267
0.29726914
0.30079463
0.30447747
0.30829792
0.3122253
0.316216
0.32021974
0.32418471
0.32804883
0.33174508
0.33521235
0.3383902
0.34121654
0.3436357
0.34559978
0.34707157
0.34802642
0.3484467
0.34832412
0.34766987
0.34650465
0.34485156
0.3427537
0.34026498
0.33744004
0.33433509
0.33100327
0.32750404
0.32390148
0.32025554
0.31661432
0.31302524
0.30952896
0.30615221
0.30291356
0.29983743
0.29692759
0.29419529
0.2916373
0.28925739
0.28703425
0.28503079
0.28291283
0.28525508
0.28784944
0.29062412
0.29361545
0.2968182
0.30023346
0.30384995
0.30765885
0.31163124
0.31574365
0.31996107
0.32423519
0.32851084
0.33273146
0.33683094
0.34073932
0.34439375
0.34773306
0.35069473
0.3532227
0.35526928
0.35679834
0.35778611
0.35821573
0.35807955
0.3573887
0.35616345
0.35442627
0.35222222
0.3496055
0.34662846
0.34334626
0.33981401
0.33609501
0.33225753
0.32836551
0.32447079
0.32062428
0.31686993
0.31323751
0.30974833
0.30642918
0.30328555
0.30033031
0.29756095
0.29498276
0.29257171
0.29040346
0.28876749
0.29131386
0.29414153
0.29716355
0.30041959
0.30390226
0.30761119
0.3115325
0.31565432
0.31994384
0.32437306
0.32890203
0.33347722
0.33803813
0.34252319
0.34686206
0.35098198
0.35481897
0.3583123
0.36140057
0.36402849
0.36614936
0.36772891
0.36874489
0.36918166
0.36903234
0.36830787
0.36702766
0.36521324
0.36291156
0.36017494
0.35705143
0.35359504
0.34986354
0.34592405
0.34184841
0.33770389
0.33354573
0.32942847
0.32539975
0.32149299
0.31773283
0.31414909
0.31074953
0.30754916
0.30454658
0.30174923
0.2991297
0.29677968
0.29576217
0.29854334
0.30164003
0.3049457
0.30850384
0.31230401
0.31634364
0.3206053
0.32507304
0.32970907
0.33447991
0.33933989
0.34422979
0.34908372
0.35383518
0.35840991
0.36273273
0.36673927
0.37037067
0.37356866
0.37628049
0.37846161
0.3800805
0.38111721
0.38155783
0.38139643
0.3806436
0.37931735
0.37743798
0.37505388
0.37221231
0.36895519
0.36533612
0.36141575
0.35726396
0.35295461
0.3485572
0.34413011
0.33973171
0.33541393
0.33121454
0.3271623
0.32329062
0.31961
0.31613805
0.31287469
0.30983008
0.30697272
0.30441559
0.3042428
0.30729787
0.31070927
0.31434441
0.31825126
0.32241491
0.32682948
0.33147246
0.33632233
0.34133478
0.34646954
0.35167424
0.35688369
0.36202696
0.36703357
0.37182657
0.37632954
0.38047879
0.38421898
0.38749741
0.39026633
0.39248495
0.39412563
0.39517156
0.39561114
0.39543967
0.39466705
0.39330941
0.39138543
0.38894392
0.38602282
0.38265714
0.37890124
0.37481753
0.37047594
0.36595001
0.36131015
0.35661761
0.35193491
0.34731891
0.34281265
0.33844997
0.3342688
0.33028347
0.3265151
0.32296546
0.31964895
0.31652786
0.31374323
0.31472214
0.31810267
0.32188913
0.3259132
0.33022805
0.33481204
0.339654
0.34472416
0.34999307
0.35540793
0.36092
0.36646934
0.37198484
0.37739167
0.38261757
0.38758576
0.39222133
0.39646335
0.40026182
0.40357229
0.4063551
0.40857546
0.41021088
0.41124863
0.41168003
0.41150183
0.41072294
0.40935704
0.40742079
0.4049615
0.40200286
0.39857408
0.39473084
0.39053356
0.38604817
0.38134488
0.3764936
0.37155784
0.36660414
0.36169466
0.35687838
0.35219515
0.34768823
0.34337685
0.33928558
0.33541917
0.33179598
0.32837019
0.32532491
0.32801701
0.33179475
0.33603943
0.34053218
0.34533139
0.35040491
0.35573283
0.36127466
0.36698995
0.37281516
0.37869181
0.38455241
0.39032133
0.39592264
0.40128632
0.40634085
0.41101805
0.41526363
0.41903534
0.42229952
0.42502793
0.42719457
0.42878354
0.429787
0.4301998
0.43002029
0.42925597
0.42791777
0.42601954
0.4236044
0.42067698
0.41726439
0.41342131
0.4091997
0.40465686
0.39985624
0.39486523
0.38974763
0.38457289
0.37940777
0.37430772
0.36931944