/*--------------------------------*- C++ -*----------------------------------*\
| =========                 |                                                 |
| \\      /  F ield         | OpenFOAM: The Open Source CFD Toolbox           |
|  \\    /   O peration     | Version:  v2006                                 |
|   \\  /    A nd           | Website:  www.openfoam.com                      |
|    \\/     M anipulation  |                                                 |
\*---------------------------------------------------------------------------*/
FoamFile
{
    version     2.0;
    format      ascii;
    class       volScalarField;
    location    "1000";
    object      p;
}
// * * * * * * * * * * * * * * * * * * * * * * * * * * * * * * * * * * * * * //

dimensions      [1 -1 -2 0 0 0 0];


internalField   nonuniform List<scalar> 
19765
(
1.0006123
1.0009052
1.0017243
1.0022942
1.0028618
1.003288
1.0037991
1.0040948
1.0044814
1.0048008
1.0050169
1.0051853
1.0053274
1.0054059
1.0054367
1.0054337
1.0053981
1.005328
1.0052207
1.0050781
1.0048959
1.0046758
1.0044362
1.0041536
1.0038105
1.0034518
1.0031399
1.0027846
1.0023406
1.0019374
1.0015151
1.0010058
1.0004309
0.99967551
0.99906245
0.99862376
0.99806383
0.99722332
0.9966345
0.99597926
0.99491234
0.99399156
0.99382893
0.99300875
0.99302455
0.9927516
0.9929624
0.99329747
0.99373141
1.0016924
1.0018432
1.0020392
1.002275
1.0025264
1.0027702
1.0030261
1.0032424
1.0034694
1.0036968
1.0038907
1.004051
1.0042017
1.0043104
1.0043761
1.0044248
1.00445
1.0044355
1.0043879
1.0043039
1.0041849
1.0040385
1.003856
1.0036388
1.003395
1.0031274
1.0028253
1.0024935
1.0021375
1.0017548
1.001348
1.0009214
1.0004783
1.0000318
0.99958953
0.99914311
0.99868519
0.9982317
0.99781183
0.99741682
0.99706618
0.9967763
0.99649959
0.99625992
0.99608695
0.9959392
0.99582421
0.99572
0.99561342
1.0016559
1.0018482
1.0020682
1.0022874
1.0025055
1.0027112
1.0029135
1.0030882
1.0032609
1.0034224
1.0035668
1.0036939
1.0038084
1.0038972
1.0039575
1.003999
1.0040199
1.0040118
1.0039734
1.0039029
1.0038004
1.0036684
1.0035046
1.0033084
1.0030851
1.0028375
1.0025605
1.0022555
1.0019279
1.0015766
1.0012054
1.0008208
1.0004294
1.0000365
0.99963608
0.9992309
0.99883246
0.99844305
0.99806204
0.997702
0.99736598
0.99703737
0.99672529
0.99643668
0.99617432
0.9959607
0.99577129
0.99560936
0.99545881
1.0018573
1.0019841
1.0021154
1.0022556
1.0023997
1.0025441
1.0026892
1.002823
1.0029575
1.0030887
1.0032073
1.003313
1.0034095
1.0034861
1.003539
1.0035772
1.0035999
1.0035978
1.0035687
1.0035111
1.0034257
1.0033177
1.0031837
1.0030203
1.0028328
1.002625
1.0023922
1.0021342
1.0018569
1.0015607
1.0012486
1.0009269
1.0006001
1.0002738
0.99994266
0.99960964
0.99928572
0.99897485
0.99867186
0.99838945
0.99813175
0.99788054
0.99763236
0.99740851
0.99718751
0.99698359
0.99677532
0.99657085
0.99637097
1.00178
1.0018954
1.0020127
1.0021292
1.0022439
1.0023552
1.0024656
1.0025665
1.0026675
1.0027665
1.0028567
1.0029373
1.003011
1.0030702
1.0031107
1.003139
1.0031552
1.0031513
1.0031246
1.0030732
1.002996
1.0028964
1.002772
1.0026199
1.002445
1.0022516
1.0020365
1.0017984
1.0015431
1.0012721
1.0009878
1.0006951
1.0003976
1.0001004
0.99980181
0.99950378
0.99921248
0.99893093
0.99865653
0.99839597
0.99814979
0.99790764
0.99766753
0.99744062
0.99721309
0.99699402
0.99677693
0.99656642
0.99636142
1.0017653
1.0018486
1.0019348
1.002021
1.0021071
1.0021913
1.0022763
1.0023544
1.0024334
1.0025114
1.0025825
1.0026459
1.0027038
1.0027499
1.0027807
1.002801
1.0028106
1.0028029
1.0027754
1.0027265
1.0026551
1.0025646
1.0024529
1.0023173
1.0021612
1.0019885
1.0017967
1.0015852
1.0013587
1.0011191
1.0008684
1.0006109
1.0003499
1.0000899
0.99982965
0.99957089
0.99931854
0.99907499
0.9988386
0.99861405
0.99840174
0.99819379
0.9979892
0.99779332
0.99759746
0.99740577
0.99721201
0.99701638
0.99682191
1.0016811
1.0017521
1.0018251
1.001896
1.0019655
1.0020324
1.0020997
1.0021609
1.002223
1.0022841
1.0023397
1.0023889
1.0024336
1.0024686
1.0024909
1.0025041
1.0025079
1.0024967
1.0024682
1.0024208
1.0023535
1.0022684
1.0021639
1.0020377
1.0018925
1.0017318
1.0015538
1.001358
1.0011485
1.0009273
1.0006961
1.0004587
1.0002178
0.9999772
0.99973674
0.99949777
0.99926383
0.99903699
0.99881604
0.99860418
0.9984013
0.99820211
0.99800508
0.99781385
0.99762199
0.99743221
0.99724
0.99704632
0.99685153
1.0016176
1.0016727
1.0017304
1.0017864
1.0018415
1.0018944
1.0019479
1.0019964
1.0020456
1.002094
1.0021377
1.002176
1.0022103
1.0022362
1.0022512
1.0022582
1.0022565
1.0022417
1.0022115
1.0021645
1.0021
1.0020193
1.0019213
1.0018041
1.0016698
1.0015213
1.0013572
1.0011773
1.0009855
1.0007832
1.0005724
1.0003562
1.0001372
0.99991878
0.99970088
0.99948476
0.99927337
0.9990685
0.99886923
0.99867815
0.99849528
0.99831625
0.99813992
0.9979687
0.99779753
0.99762811
0.99745649
0.99728302
0.99710787
1.0015355
1.0015816
1.0016298
1.001676
1.0017212
1.0017641
1.0018074
1.0018463
1.0018858
1.0019243
1.0019587
1.0019883
1.0020142
1.0020329
1.0020421
1.0020439
1.0020379
1.00202
1.0019884
1.0019417
1.0018792
1.0018019
1.0017087
1.0015982
1.0014719
1.0013324
1.0011787
1.0010106
1.0008316
1.000643
1.0004465
1.0002451
1.0000408
0.99983667
0.99963293
0.99943066
0.99923229
0.99903941
0.99885131
0.99867003
0.99849554
0.9983246
0.99815591
0.99799147
0.99782707
0.99766397
0.99749892
0.99733207
0.99716315
1.0014632
1.0015002
1.0015394
1.0015769
1.0016135
1.0016483
1.0016832
1.0017144
1.0017459
1.0017765
1.0018034
1.0018259
1.001845
1.0018576
1.0018618
1.0018592
1.0018494
1.0018287
1.0017957
1.0017491
1.0016881
1.0016136
1.0015246
1.0014199
1.0013008
1.0011694
1.001025
1.0008677
1.0007005
1.0005246
1.0003416
1.0001542
0.99996431
0.99977466
0.99958552
0.99939795
0.99921409
0.99903539
0.99886129
0.99869358
0.99853233
0.99837479
0.99821984
0.99806919
0.99791912
0.99777069
0.99762095
0.99746995
0.99731751
1.0013874
1.0014181
1.0014509
1.001482
1.0015122
1.0015406
1.0015691
1.0015942
1.0016195
1.0016438
1.0016646
1.0016815
1.0016951
1.0017028
1.0017029
1.0016967
1.0016837
1.0016608
1.0016266
1.0015801
1.0015204
1.0014482
1.0013626
1.0012627
1.0011496
1.001025
1.0008884
1.00074
1.0005824
1.0004168
1.0002447
1.0000685
0.99988987
0.99971128
0.99953304
0.99935618
0.99918254
0.99901347
0.99884849
0.99868917
0.99853559
0.99838559
0.998238
0.99809448
0.9979517
0.99781062
0.99766866
0.99752579
0.99738156
1.0013178
1.0013429
1.0013698
1.0013953
1.00142
1.0014431
1.0014663
1.0014864
1.0015064
1.0015254
1.0015413
1.0015534
1.0015624
1.001566
1.0015626
1.0015534
1.0015377
1.0015129
1.0014777
1.0014312
1.0013726
1.0013024
1.0012199
1.0011242
1.0010163
1.0008977
1.0007681
1.0006276
1.0004787
1.0003224
1.0001602
0.99999422
0.99982599
0.99965784
0.99949011
0.99932377
0.99916053
0.99900165
0.99884674
0.99869723
0.9985533
0.99841308
0.99827551
0.99814218
0.99801001
0.99787994
0.99774959
0.99761895
0.99748764
1.0012497
1.0012703
1.0012928
1.0013138
1.0013342
1.001353
1.0013718
1.0013878
1.0014037
1.0014184
1.0014301
1.0014383
1.0014435
1.0014437
1.0014374
1.0014257
1.0014078
1.0013814
1.0013455
1.001299
1.0012414
1.0011731
1.0010932
1.0010012
1.0008979
1.0007846
1.000661
1.0005275
1.0003862
1.000238
1.0000843
0.99992711
0.99976781
0.99960852
0.99944957
0.99929193
0.99913713
0.99898634
0.99883924
0.99869712
0.9985602
0.9984269
0.99829623
0.99816974
0.99804461
0.99792178
0.99779907
0.99767651
0.99755357
1.0011862
1.001203
1.0012215
1.0012388
1.0012554
1.0012706
1.0012857
1.0012982
1.0013105
1.0013215
1.0013298
1.0013347
1.0013367
1.001334
1.0013253
1.0013114
1.0012916
1.001264
1.0012274
1.0011811
1.0011244
1.0010577
1.0009803
1.0008917
1.0007925
1.0006839
1.0005659
1.0004386
1.000304
1.0001631
1.0000172
0.99986804
0.99971693
0.99956585
0.99941514
0.99926575
0.99911911
0.99897635
0.99883718
0.99870283
0.99857355
0.99844799
0.99832522
0.99820679
0.99809002
0.99797589
0.99786237
0.99774953
0.99763688
1.0011255
1.0011393
1.0011545
1.0011687
1.0011822
1.0011944
1.0012064
1.001216
1.0012252
1.0012332
1.0012386
1.0012407
1.00124
1.0012349
1.0012242
1.0012084
1.0011872
1.0011584
1.0011214
1.0010753
1.0010195
1.0009544
1.0008792
1.0007936
1.0006982
1.0005939
1.0004808
1.0003592
1.0002308
1.0000965
0.9999575
0.99981555
0.9996718
0.99952806
0.99938471
0.99924264
0.9991032
0.99896744
0.9988351
0.99870733
0.99858441
0.99846517
0.99834873
0.99823664
0.99812639
0.99801895
0.99791247
0.99780706
0.99770214
1.0010687
1.0010798
1.0010922
1.0011037
1.0011145
1.0011241
1.0011334
1.0011406
1.0011472
1.0011526
1.0011554
1.0011552
1.0011522
1.001145
1.0011326
1.0011154
1.0010928
1.0010632
1.0010259
1.00098
1.0009252
1.0008615
1.0007883
1.0007055
1.0006136
1.0005133
1.0004047
1.0002883
1.0001655
1.0000372
0.99990465
0.99976933
0.99963238
0.99949547
0.999359
0.99922382
0.99909123
0.9989622
0.99883653
0.99871531
0.99859884
0.9984861
0.99837627
0.99827088
0.99816755
0.99806729
0.99796834
0.99787086
0.99777429
1.0010149
1.0010238
1.0010338
1.001043
1.0010516
1.001059
1.001066
1.0010711
1.0010755
1.0010786
1.0010793
1.0010771
1.0010721
1.0010632
1.0010493
1.0010308
1.0010072
1.000977
1.0009395
1.0008939
1.0008399
1.0007776
1.0007064
1.0006263
1.0005375
1.0004409
1.0003365
1.0002248
1.0001072
0.99998451
0.99985784
0.99972864
0.99959795
0.99946735
0.99933722
0.9992084
0.9990821
0.99895923
0.99883964
0.99872434
0.99861363
0.99850662
0.99840257
0.99830293
0.99820551
0.99811129
0.99801863
0.99792774
0.99783801
1.0009643
1.0009713
1.0009793
1.0009865
1.0009931
1.0009986
1.0010037
1.0010069
1.0010094
1.0010106
1.0010094
1.0010055
1.0009988
1.0009884
1.0009732
1.0009537
1.0009293
1.0008985
1.0008609
1.0008158
1.0007626
1.0007017
1.0006324
1.0005547
1.0004689
1.0003757
1.0002752
1.000168
1.0000552
0.99993769
0.99981651
0.999693
0.99956817
0.99944348
0.99931931
0.99919649
0.99907616
0.99895918
0.99884543
0.99873587
0.99863081
0.99852946
0.99843114
0.99833727
0.99824578
0.99815762
0.99807128
0.99798698
0.99790413
1.0009166
1.0009219
1.0009282
1.0009336
1.0009386
1.0009424
1.0009458
1.0009474
1.0009483
1.0009478
1.000945
1.0009396
1.0009315
1.0009198
1.0009036
1.0008832
1.0008581
1.000827
1.0007894
1.0007446
1.0006924
1.0006328
1.0005653
1.0004899
1.0004069
1.0003169
1.0002202
1.0001171
1.0000088
0.99989613
0.99978008
0.99966191
0.99954257
0.99942342
0.99930485
0.99918766
0.99907293
0.99896148
0.99885319
0.99874897
0.99864914
0.998553
0.99845991
0.99837123
0.99828503
0.99820223
0.99812144
0.99804289
0.99796596
1.0008716
1.0008755
1.0008803
1.0008843
1.0008877
1.0008901
1.000892
1.0008922
1.0008916
1.0008897
1.0008855
1.0008788
1.0008695
1.0008567
1.0008396
1.0008185
1.0007928
1.0007615
1.000724
1.0006797
1.0006284
1.0005701
1.0005043
1.0004311
1.0003508
1.0002639
1.0001706
1.0000714
0.99996742
0.99985931
0.99974809
0.99963494
0.99952077
0.99940686
0.99929359
0.99918175
0.99907234
0.99896615
0.99886309
0.99876402
0.99866923
0.99857812
0.99849011
0.99840648
0.99832543
0.99824785
0.99817244
0.99809944
0.99802824
1.0008291
1.0008318
1.0008353
1.000838
1.0008401
1.0008412
1.0008419
1.0008408
1.000839
1.0008358
1.0008304
1.0008226
1.0008122
1.0007985
1.0007807
1.000759
1.0007329
1.0007015
1.0006641
1.0006204
1.00057
1.0005129
1.0004489
1.0003778
1.0003
1.000216
1.0001261
1.0000305
0.99993055
0.99982674
0.99972009
0.99961169
0.99950241
0.99939346
0.99928522
0.99917844
0.99907409
0.99897289
0.99887477
0.99878055
0.99869052
0.99860412
0.99852083
0.99844186
0.99836553
0.9982927
0.99822213
0.9981541
0.99808798
1.0007891
1.0007907
1.000793
1.0007945
1.0007955
1.0007956
1.000795
1.0007929
1.00079
1.0007857
1.0007793
1.0007705
1.0007592
1.0007447
1.0007263
1.0007042
1.0006778
1.0006463
1.0006092
1.000566
1.0005165
1.0004607
1.0003983
1.0003293
1.000254
1.0001728
1.0000859
0.99999392
0.99989774
0.99979802
0.9996957
0.9995918
0.99948717
0.99938294
0.99927947
0.99917752
0.99907798
0.99898154
0.99888816
0.99879859
0.99871311
0.99863123
0.99855247
0.99847797
0.99840616
0.99833786
0.99827191
0.9982086
0.99814728
1.0007511
1.0007518
1.0007531
1.0007537
1.0007537
1.0007527
1.0007512
1.0007482
1.0007443
1.000739
1.0007317
1.000722
1.00071
1.0006948
1.000676
1.0006535
1.0006269
1.0005954
1.0005586
1.0005161
1.0004675
1.000413
1.0003522
1.0002852
1.0002122
1.0001336
1.0000498
0.99996115
0.9998686
0.99977278
0.99967457
0.99957496
0.99947475
0.999375
0.99927609
0.99917874
0.99908379
0.99899188
0.998903
0.99881784
0.99873668
0.99865907
0.99858456
0.99851424
0.99844663
0.9983825
0.99832078
0.99826175
0.99820477
1.0007152
1.0007151
1.0007155
1.0007152
1.0007143
1.0007125
1.0007101
1.0007063
1.0007015
1.0006954
1.0006873
1.000677
1.0006643
1.0006486
1.0006293
1.0006066
1.0005799
1.0005485
1.0005121
1.0004702
1.0004226
1.0003693
1.0003101
1.0002449
1.0001742
1.0000982
1.0000173
0.99993186
0.99984278
0.99975067
0.99965639
0.99956087
0.99946488
0.99936941
0.99927485
0.99918188
0.99909131
0.99900373
0.99891915
0.99883821
0.99876117
0.99868763
0.99861719
0.99855083
0.99848721
0.99842704
0.99836932
0.99831432
0.9982614
1.0006811
1.0006803
1.0006799
1.0006789
1.0006772
1.0006747
1.0006716
1.000667
1.0006615
1.0006546
1.0006459
1.0006349
1.0006217
1.0006055
1.000586
1.0005631
1.0005363
1.0005052
1.0004691
1.0004279
1.0003813
1.0003292
1.0002715
1.0002083
1.0001398
1.0000663
0.9999881
0.99990573
0.99981997
0.99973142
0.99964088
0.99954927
0.9994573
0.99936592
0.99927551
0.99918673
0.99910033
0.99901689
0.9989364
0.99885948
0.99878636
0.99871668
0.99865007
0.99858745
0.99852756
0.99847106
0.99841703
0.99836572
0.99831649
1.0006487
1.0006473
1.0006463
1.0006445
1.0006422
1.000639
1.0006352
1.00063
1.0006239
1.0006164
1.0006071
1.0005956
1.0005819
1.0005654
1.0005457
1.0005227
1.000496
1.000465
1.0004294
1.0003889
1.0003433
1.0002924
1.0002363
1.0001749
1.0001085
1.0000374
0.99996188
0.99988247
0.9997999
0.99971474
0.9996278
0.99953991
0.99945179
0.99936432
0.99927788
0.9991931
0.99911069
0.9990312
0.99895462
0.99888152
0.99881214
0.99874613
0.99868317
0.99862409
0.99856773
0.99851469
0.99846413
0.99841628
0.99837051
1.0006179
1.0006159
1.0006143
1.000612
1.0006091
1.0006053
1.0006009
1.0005952
1.0005885
1.0005805
1.0005707
1.0005588
1.0005447
1.000528
1.0005081
1.000485
1.0004585
1.0004278
1.0003927
1.000353
1.0003083
1.0002587
1.0002041
1.0001444
1.0000801
1.0000113
0.99993838
0.99986182
0.9997823
0.99970042
0.99961691
0.99953259
0.99944815
0.99936442
0.99928176
0.9992008
0.99912221
0.99904647
0.99897362
0.99890417
0.99883834
0.99877582
0.9987163
0.99866055
0.9986075
0.9985577
0.99851036
0.9984657
0.9984231
1.0005884
1.000586
1.0005839
1.000581
1.0005777
1.0005734
1.0005685
1.0005623
1.0005552
1.0005467
1.0005365
1.0005242
1.0005099
1.0004929
1.000473
1.00045
1.0004236
1.0003933
1.0003587
1.0003197
1.000276
1.0002277
1.0001745
1.0001167
1.0000543
0.99998779
0.99991737
0.99984355
0.99976697
0.99968822
0.99960801
0.99952711
0.99944618
0.99936602
0.999287
0.99920968
0.99913472
0.99906258
0.99899327
0.9989273
0.99886484
0.99880563
0.99874939
0.99869679
0.99864687
0.99860011
0.99855579
0.99851412
0.99847447
1.0005602
1.0005575
1.0005549
1.0005516
1.0005478
1.0005432
1.0005378
1.0005313
1.0005237
1.0005148
1.0005043
1.0004918
1.0004772
1.0004601
1.0004402
1.0004173
1.0003911
1.0003612
1.0003272
1.000289
1.0002463
1.0001992
1.0001475
1.0000914
1.000031
0.99996663
0.99989863
0.99982745
0.99975371
0.99967796
0.99960091
0.99952329
0.99944573
0.99936898
0.99929341
0.99921958
0.99914809
0.99907936
0.99901344
0.99895077
0.99889152
0.99883544
0.99878228
0.99873266
0.99868567
0.99864177
0.99860025
0.99856134
0.99852442
1.0005332
1.0005302
1.0005272
1.0005236
1.0005194
1.0005144
1.0005087
1.0005018
1.0004939
1.0004847
1.0004739
1.0004612
1.0004465
1.0004294
1.0004095
1.0003868
1.0003609
1.0003314
1.000298
1.0002606
1.0002189
1.000173
1.0001228
1.0000683
1.0000098
0.99994763
0.99988197
0.99981334
0.99974233
0.99966948
0.99959545
0.99952096
0.99944662
0.99937314
0.99930087
0.99923036
0.99916217
0.99909669
0.99903399
0.99897445
0.99891825
0.99886515
0.99881491
0.9987681
0.99872387
0.99868265
0.99864377
0.99860744
0.99857305
1.0005073
1.000504
1.0005007
1.0004968
1.0004923
1.000487
1.000481
1.0004738
1.0004657
1.0004563
1.0004453
1.0004324
1.0004176
1.0004005
1.0003807
1.0003582
1.0003326
1.0003036
1.0002709
1.0002343
1.0001937
1.000149
1.0001002
1.0000474
0.99999074
0.99993061
0.99986723
0.99980105
0.99973267
0.9996626
0.99959148
0.99952
0.99944873
0.99937836
0.99930925
0.9992419
0.99917684
0.99911446
0.9990548
0.99899824
0.99894492
0.99889464
0.99884716
0.99880299
0.99876136
0.99872263
0.99868621
0.99865227
0.99862022
1.0004823
1.0004788
1.0004752
1.0004711
1.0004663
1.0004608
1.0004546
1.0004472
1.0004389
1.0004293
1.0004182
1.0004052
1.0003904
1.0003734
1.0003537
1.0003315
1.0003063
1.0002777
1.0002457
1.00021
1.0001704
1.0001269
1.0000795
1.0000283
0.99997353
0.99991541
0.99985424
0.99979045
0.9997246
0.9996572
0.99958887
0.99952026
0.99945193
0.99938453
0.99931842
0.99925407
0.99919199
0.99913255
0.99907578
0.99902204
0.99897145
0.99892382
0.99887894
0.99883726
0.99879807
0.9987617
0.99872757
0.99869587
0.998666
1.0004582
1.0004545
1.0004508
1.0004464
1.0004415
1.0004358
1.0004294
1.0004219
1.0004134
1.0004037
1.0003925
1.0003795
1.0003648
1.0003478
1.0003284
1.0003064
1.0002816
1.0002537
1.0002223
1.0001874
1.0001489
1.0001066
1.0000607
1.0000111
0.99995806
0.9999019
0.99984287
0.99978138
0.99971798
0.99965315
0.99958749
0.99952162
0.9994561
0.99939154
0.99932827
0.99926678
0.99920753
0.99915086
0.99909683
0.99904575
0.99899773
0.9989526
0.99891017
0.99887082
0.99883392
0.99879973
0.99876774
0.99873811
0.99871025
1.0004349
1.0004311
1.0004272
1.0004227
1.0004177
1.0004118
1.0004053
1.0003977
1.0003891
1.0003793
1.0003681
1.0003552
1.0003405
1.0003237
1.0003046
1.0002829
1.0002586
1.0002312
1.0002006
1.0001666
1.0001291
1.000088
1.0000435
0.99999545
0.99994419
0.99988996
0.999833
0.99977374
0.99971269
0.99965033
0.99958723
0.999524
0.99946115
0.99939928
0.99933872
0.99927993
0.99922335
0.99916931
0.99911785
0.99906928
0.99902368
0.99898091
0.99894077
0.99890362
0.99886885
0.99883672
0.99880672
0.99877902
0.99875303
1.0004124
1.0004085
1.0004045
1.0003999
1.0003947
1.0003888
1.0003822
1.0003746
1.000366
1.0003562
1.000345
1.0003321
1.0003176
1.000301
1.0002821
1.0002609
1.000237
1.0002102
1.0001804
1.0001473
1.0001108
1.000071
1.0000278
0.99998136
0.99993182
0.99987945
0.99982451
0.99976742
0.99970865
0.99964866
0.99958802
0.99952729
0.99946698
0.99940767
0.99934967
0.99929344
0.99923938
0.99918781
0.99913878
0.99909255
0.99904923
0.99900866
0.99897067
0.99893556
0.99890278
0.99887255
0.9988444
0.99881846
0.99879419
1.0003906
1.0003866
1.0003826
1.0003779
1.0003727
1.0003668
1.0003601
1.0003524
1.0003438
1.0003341
1.000323
1.0003103
1.0002959
1.0002795
1.000261
1.0002402
1.0002168
1.0001907
1.0001616
1.0001294
1.000094
1.0000554
1.0000136
0.99996868
0.99992083
0.99987029
0.99981732
0.99976232
0.99970574
0.99964804
0.99958975
0.99953141
0.99947353
0.99941664
0.99936107
0.99930724
0.99925555
0.99920629
0.99915953
0.99911551
0.99907431
0.99903579
0.9989998
0.99896659
0.99893568
0.99890721
0.99888079
0.99885651
0.99883383
1.0003694
1.0003654
1.0003613
1.0003567
1.0003514
1.0003455
1.0003389
1.0003312
1.0003227
1.000313
1.000302
1.0002895
1.0002753
1.0002593
1.0002411
1.0002208
1.000198
1.0001725
1.0001442
1.0001129
1.0000786
1.0000412
1.0000007
0.99995733
0.99991114
0.99986239
0.99981133
0.99975836
0.9997039
0.99964839
0.99959235
0.9995363
0.99948072
0.99942612
0.99937284
0.99932126
0.99927179
0.9992247
0.99918005
0.99913807
0.99909884
0.99906223
0.99902809
0.99899664
0.99896743
0.9989406
0.99891574
0.99889296
0.99887173
1.0003488
1.0003448
1.0003408
1.0003361
1.000331
1.0003251
1.0003185
1.0003109
1.0003025
1.0002929
1.0002821
1.0002698
1.0002559
1.0002401
1.0002224
1.0002025
1.0001803
1.0001555
1.000128
1.0000977
1.0000644
1.0000282
0.99998914
0.99994722
0.99990265
0.99985566
0.99980647
0.99975546
0.99970306
0.99964966
0.99959578
0.99954191
0.99948851
0.99943607
0.99938493
0.99933547
0.99928806
0.99924298
0.99920028
0.9991602
0.99912278
0.99908793
0.9990555
0.99902568
0.99899806
0.99897273
0.99894934
0.99892796
0.9989081
1.0003288
1.0003249
1.0003209
1.0003163
1.0003112
1.0003054
1.0002988
1.0002914
1.0002831
1.0002737
1.000263
1.000251
1.0002374
1.000222
1.0002047
1.0001853
1.0001637
1.0001396
1.000113
1.0000836
1.0000514
1.0000165
0.99997871
0.99993827
0.99989531
0.99985003
0.99980267
0.99975357
0.99970315
0.99965179
0.99959997
0.99954817
0.99949684
0.99944644
0.99939731
0.99934982
0.99930432
0.99926109
0.99922019
0.99918183
0.99914608
0.99911283
0.99908196
0.99905361
0.99902741
0.99900343
0.99898133
0.99896119
0.99894251
1.0003093
1.0003056
1.0003016
1.0002971
1.0002921
1.0002864
1.00028
1.0002727
1.0002645
1.0002553
1.0002449
1.0002331
1.0002198
1.0002049
1.000188
1.0001692
1.0001482
1.0001249
1.000099
1.0000706
1.0000395
1.0000058
0.99996938
0.99993041
0.99988902
0.99984543
0.99979986
0.99975263
0.99970413
0.99965473
0.99960489
0.99955507
0.99950569
0.99945721
0.99940995
0.99936427
0.99932054
0.999279
0.99923974
0.99920295
0.99916871
0.99913691
0.99910745
0.99908044
0.99905555
0.99903284
0.99901198
0.99899302
0.99897549
1.0002905
1.0002868
1.0002829
1.0002785
1.0002736
1.000268
1.0002618
1.0002547
1.0002467
1.0002378
1.0002276
1.0002161
1.0002032
1.0001886
1.0001723
1.000154
1.0001337
1.0001111
1.0000861
1.0000587
1.0000287
0.99999616
0.99996109
0.99992357
0.99988375
0.99984182
0.99979799
0.99975258
0.99970595
0.99965845
0.99961051
0.99956257
0.99951504
0.99946836
0.99942283
0.99937884
0.99933671
0.99929669
0.9992589
0.99922352
0.99919061
0.99916009
0.99913187
0.99910603
0.99908227
0.9990606
0.99904075
0.99902273
0.9990061
1.0002722
1.0002686
1.0002649
1.0002606
1.0002558
1.0002504
1.0002443
1.0002374
1.0002297
1.0002209
1.0002111
1.0001999
1.0001874
1.0001733
1.0001574
1.0001398
1.0001201
1.0000983
1.0000742
1.0000477
1.0000188
0.99998751
0.99995377
0.99991769
0.99987942
0.99983913
0.99979702
0.99975339
0.99970857
0.99966291
0.9996168
0.99957066
0.99952488
0.99947988
0.99943596
0.9993935
0.99935282
0.99931417
0.99927768
0.99924353
0.99921179
0.99918239
0.99915526
0.99913048
0.99910776
0.99908711
0.99906827
0.99905125
0.99903562
1.0002544
1.000251
1.0002474
1.0002432
1.0002386
1.0002334
1.0002275
1.0002208
1.0002133
1.0002048
1.0001953
1.0001845
1.0001724
1.0001587
1.0001434
1.0001264
1.0001074
1.0000864
1.0000631
1.0000377
1.0000099
0.99997979
0.99994737
0.99991273
0.99987599
0.99983732
0.9997969
0.99975502
0.99971198
0.9996681
0.99962376
0.99957934
0.99953522
0.99949179
0.99944936
0.99940828
0.99936889
0.99933144
0.99929607
0.99926296
0.9992322
0.99920373
0.99917748
0.99915352
0.99913157
0.99911164
0.99909345
0.99907702
0.99906193
1.0002372
1.0002339
1.0002304
1.0002265
1.000222
1.000217
1.0002113
1.0002049
1.0001976
1.0001894
1.0001802
1.0001698
1.0001581
1.0001449
1.0001302
1.0001138
1.0000955
1.0000753
1.000053
1.0000285
1.0000018
0.99997293
0.99994185
0.99990864
0.99987342
0.99983635
0.99979761
0.99975745
0.99971615
0.99967401
0.99963138
0.99958861
0.99954606
0.99950411
0.99946304
0.99942322
0.99938496
0.99934854
0.9993141
0.99928185
0.99925188
0.99922417
0.99919866
0.99917543
0.99915425
0.9991351
0.99911775
0.99910219
0.99908802
1.0002205
1.0002174
1.0002141
1.0002103
1.000206
1.0002012
1.0001957
1.0001895
1.0001826
1.0001747
1.0001658
1.0001558
1.0001445
1.0001319
1.0001177
1.0001019
1.0000844
1.000065
1.0000436
1.0000201
0.99999456
0.9999669
0.99993714
0.99990536
0.99987165
0.99983618
0.9997991
0.99976064
0.99972106
0.99968063
0.99963967
0.99959851
0.99955746
0.99951688
0.99947707
0.99943837
0.99940109
0.99936552
0.99933182
0.99930021
0.9992708
0.99924359
0.99921854
0.9991957
0.99917484
0.99915596
0.99913878
0.99912333
0.99910918
1.0002044
1.0002014
1.0001983
1.0001947
1.0001906
1.000186
1.0001808
1.0001748
1.0001681
1.0001606
1.0001521
1.0001425
1.0001317
1.0001195
1.000106
1.0000908
1.000074
1.0000554
1.000035
1.0000125
0.99998808
0.99996164
0.99993321
0.99990285
0.99987066
0.99983678
0.99980135
0.99976457
0.9997267
0.99968796
0.99964865
0.99960904
0.99956944
0.99953018
0.99949153
0.99945382
0.99941738
0.99938247
0.99934932
0.99931814
0.99928908
0.99926219
0.99923747
0.999215
0.99919462
0.99917631
0.99915987
0.99914526
0.99913211
1.0001888
1.000186
1.0001831
1.0001796
1.0001757
1.0001713
1.0001664
1.0001607
1.0001543
1.0001471
1.0001389
1.0001297
1.0001194
1.0001078
1.0000949
1.0000804
1.0000644
1.0000466
1.000027
1.0000056
0.99998232
0.99995711
0.99993001
0.99990108
0.9998704
0.99983811
0.99980433
0.99976924
0.99973306
0.99969601
0.99965832
0.99962025
0.99958207
0.99954407
0.9995065
0.99946968
0.99943393
0.99939952
0.99936668
0.99933568
0.99930668
0.99927975
0.99925492
0.99923225
0.99921156
0.99919283
0.99917582
0.99916052
0.99914654
1.0001738
1.0001712
1.0001684
1.0001651
1.0001615
1.0001573
1.0001525
1.0001471
1.000141
1.0001342
1.0001264
1.0001176
1.0001078
1.0000967
1.0000844
1.0000706
1.0000553
1.0000384
1.0000198
0.99999943
0.99997725
0.99995328
0.99992751
0.99990001
0.99987085
0.99984015
0.99980803
0.99977463
0.99974016
0.99970479
0.99966874
0.9996322
0.99959542
0.99955864
0.99952211
0.99948609
0.9994509
0.99941682
0.9993841
0.99935305
0.99932387
0.99929673
0.99927173
0.999249
0.99922848
0.99921018
0.99919395
0.99917974
0.99916719
1.0001594
1.0001569
1.0001543
1.0001512
1.0001477
1.0001437
1.0001392
1.0001341
1.0001283
1.0001218
1.0001144
1.0001061
1.0000967
1.0000862
1.0000745
1.0000614
1.0000469
1.0000309
1.0000132
0.99999387
0.99997283
0.99995009
0.99992566
0.9998996
0.99987195
0.99984286
0.9998124
0.99978072
0.99974798
0.99971434
0.99967994
0.99964497
0.9996096
0.99957406
0.99953853
0.99950325
0.9994685
0.99943459
0.99940176
0.99937035
0.99934062
0.99931273
0.9992868
0.99926296
0.99924109
0.99922119
0.99920304
0.99918666
0.99917165
1.0001456
1.0001433
1.0001407
1.0001378
1.0001345
1.0001307
1.0001264
1.0001216
1.0001161
1.0001099
1.0001029
1.000095
1.0000862
1.0000763
1.0000652
1.0000528
1.0000391
1.0000239
1.0000072
0.99998889
0.99996898
0.99994747
0.99992437
0.99989973
0.99987361
0.99984612
0.99981734
0.99978739
0.99975642
0.99972454
0.99969187
0.99965853
0.99962467
0.99959043
0.99955595
0.99952141
0.99948706
0.99945319
0.99942007
0.99938806
0.99935751
0.99932872
0.99930196
0.99927754
0.99925555
0.99923613
0.9992192
0.9992047
0.99919238
1.0001323
1.0001301
1.0001277
1.0001249
1.0001218
1.0001182
1.0001141
1.0001095
1.0001044
1.0000985
1.0000919
1.0000845
1.0000762
1.0000669
1.0000564
1.0000448
1.0000318
1.0000175
1.0000017
0.99998446
0.9999657
0.99994544
0.99992369
0.99990052
0.99987594
0.99985007
0.99982296
0.99979473
0.99976552
0.9997354
0.99970448
0.99967282
0.99964054
0.99960769
0.99957434
0.99954063
0.99950673
0.99947287
0.99943933
0.99940644
0.99937457
0.99934402
0.99931506
0.99928794
0.99926272
0.99923944
0.99921799
0.99919842
0.99918037
1.0001196
1.0001175
1.0001152
1.0001125
1.0001095
1.0001061
1.0001023
1.0000979
1.0000931
1.0000876
1.0000814
1.0000745
1.0000667
1.000058
1.0000482
1.0000373
1.0000251
1.0000117
0.99999688
0.99998067
0.9999631
0.99994413
0.9999238
0.99990214
0.99987917
0.999855
0.99982962
0.99980322
0.99977584
0.99974755
0.99971844
0.99968854
0.99965788
0.99962643
0.99959424
0.99956133
0.99952785
0.99949396
0.99945989
0.99942601
0.99939274
0.99936057
0.99933002
0.99930169
0.99927605
0.99925353
0.99923436
0.99921849
0.99920585
1.0001073
1.0001053
1.0001031
1.0001005
1.0000977
1.0000944
1.0000908
1.0000867
1.0000822
1.000077
1.0000713
1.0000648
1.0000576
1.0000495
1.0000404
1.0000303
1.000019
1.0000064
0.99999252
0.99997733
0.99996088
0.99994312
0.99992408
0.99990381
0.99988235
0.99985987
0.99983634
0.99981192
0.99978664
0.99976054
0.99973356
0.99970581
0.99967717
0.99964753
0.99961683
0.99958503
0.99955215
0.99951823
0.99948343
0.999448
0.99941232
0.99937682
0.99934195
0.99930816
0.99927573
0.99924489
0.99921572
0.99918853
0.99916301
1.0000959
1.0000938
1.0000916
1.000089
1.0000862
1.000083
1.0000796
1.0000757
1.0000714
1.0000667
1.0000614
1.0000555
1.0000489
1.0000415
1.0000331
1.0000236
1.000013
1.0000012
0.99998812
0.99997379
0.99995831
0.99994156
0.99992361
0.99990451
0.99988431
0.99986325
0.99984124
0.99981852
0.9997951
0.99977091
0.99974623
0.9997208
0.9996946
0.99966738
0.99963902
0.99960929
0.9995781
0.99954527
0.99951083
0.99947485
0.9994377
0.99939987
0.9993622
0.99932586
0.99929216
0.99926235
0.99923755
0.99921813
0.99920438
1.0000843
1.0000821
1.0000799
1.0000773
1.0000747
1.0000718
1.0000687
1.0000652
1.0000614
1.0000572
1.0000524
1.000047
1.0000409
1.000034
1.0000262
1.0000174
1.0000075
0.99999656
0.99998443
0.99997125
0.99995708
0.99994181
0.99992556
0.99990834
0.99989005
0.99987064
0.99985007
0.99982886
0.99980666
0.99978319
0.99976051
0.99973658
0.99971196
0.99968618
0.99965944
0.99963118
0.99960137
0.99956949
0.99953549
0.99949908
0.99946044
0.99941954
0.99937662
0.99933174
0.99928534
0.9992377
0.99918966
0.99914175
0.9990961
1.0000741
1.0000719
1.0000696
1.0000671
1.0000645
1.0000615
1.0000584
1.000055
1.0000513
1.0000473
1.0000428
1.0000379
1.0000325
1.0000265
1.0000198
1.0000123
1.0000039
0.99999455
0.99998383
0.99997214
0.99996008
0.9999472
0.99993362
0.9999193
0.99990404
0.99988775
0.99987035
0.99985259
0.99983354
0.99981414
0.99979379
0.99977322
0.99975079
0.99972708
0.99970191
0.99967492
0.9996459
0.99961407
0.99957923
0.99954045
0.99949802
0.99945153
0.99940236
0.99935204
0.99930333
0.99925896
0.9992236
0.99919703
0.9991855
1.0000628
1.0000593
1.000056
1.0000528
1.0000497
1.0000469
1.0000442
1.0000415
1.0000387
1.0000356
1.0000322
1.0000283
1.0000241
1.0000194
1.0000139
1.0000074
0.99999987
0.9999908
0.99997975
0.99996796
0.99995614
0.99994329
0.99992938
0.99991454
0.99989911
0.9998837
0.99986816
0.99985296
0.99983729
0.99982714
0.99980703
0.99979384
0.99977654
0.99976097
0.9997422
0.99972331
0.99970113
0.99967735
0.9996494
0.9996181
0.99958093
0.99953766
0.9994833
0.99941962
0.9993429
0.99925053
0.99914291
0.99901898
0.99889362
1.000051
1.0000485
1.0000463
1.0000451
1.000044
1.000043
1.0000416
1.0000399
1.0000379
1.0000352
1.000032
1.000028
1.0000226
1.0000162
1.0000084
0.99999922
0.9999886
0.99997613
0.99996299