/*--------------------------------*- C++ -*----------------------------------*\
| =========                 |                                                 |
| \\      /  F ield         | OpenFOAM: The Open Source CFD Toolbox           |
|  \\    /   O peration     | Version:  v2006                                 |
|   \\  /    A nd           | Website:  www.openfoam.com                      |
|    \\/     M anipulation  |                                                 |
\*---------------------------------------------------------------------------*/
FoamFile
{
    version     2.0;
    format      ascii;
    class       surfaceScalarField;
    location    "1000";
    object      phi;
}
// * * * * * * * * * * * * * * * * * * * * * * * * * * * * * * * * * * * * * //

dimensions      [1 0 -1 0 0 0 0];
oriented        oriented;


internalField   nonuniform List<scalar> 
39234
(
-0.00064246943
-5.0132464e-06
0.00064748268
-0.00062156612
-2.0903317e-05
-0.00057181934
-4.974678e-05
-0.00052845286
-4.3366475e-05
-0.00048501706
-4.3435801e-05
-0.00044651092
-3.8506146e-05
-0.00040078388
-4.5727043e-05
-0.00036178242
-3.9001462e-05
-0.00031577361
-4.6008801e-05
-0.00026903222
-4.6741399e-05
-0.0002265545
-4.2477717e-05
-0.00018562453
-4.0929969e-05
-0.00014377349
-4.1851038e-05
-0.000102643
-4.1130497e-05
-6.0910357e-05
-4.1732638e-05
-1.7488482e-05
-4.3421875e-05
2.6642233e-05
-4.4130713e-05
7.1887812e-05
-4.5245579e-05
0.00011878555
-4.6897735e-05
0.00016752725
-4.8741699e-05
0.00021729209
-4.9764841e-05
0.00026609476
-4.8802668e-05
0.00031587503
-4.9780274e-05
0.00036672332
-5.0848285e-05
0.00041399425
-4.7270935e-05
0.0004550913
-4.1097052e-05
0.00049577557
-4.0684264e-05
0.00053635396
-4.057839e-05
0.00057120155
-3.484759e-05
0.00060390799
-3.2706438e-05
0.00063679636
-3.2888377e-05
0.00067084017
-3.4043807e-05
0.00070765973
-3.681956e-05
0.00073431544
-2.6655709e-05
0.00075264211
-1.8326669e-05
0.00077483408
-2.2191969e-05
0.00080322815
-2.8394073e-05
0.00082369252
-2.0464365e-05
0.00084979974
-2.6107217e-05
0.00088714364
-3.7343898e-05
0.00091463457
-2.7490935e-05
0.00092322052
-8.5859451e-06
0.00094532277
-2.2102254e-05
0.00094170897
3.613799e-06
0.00094553095
-3.821975e-06
0.00092962276
1.5908192e-05
0.0009090364
2.0586354e-05
0.00088415717
2.4879234e-05
1.8857097e-05
0.00086530007
-0.00060193531
-2.1687636e-05
0.0006186097
-0.00058266246
-4.0176159e-05
-0.00055989506
-7.2514188e-05
-0.00053419636
-6.9065168e-05
-0.00050732198
-7.0310188e-05
-0.0004800333
-6.5794824e-05
-0.00045210466
-7.3655685e-05
-0.00042360103
-6.7505087e-05
-0.00039391399
-7.5695849e-05
-0.00036206756
-7.8587827e-05
-0.00032860456
-7.5940715e-05
-0.00029366169
-7.587284e-05
-0.00025643485
-7.9077874e-05
-0.00021717816
-8.0387195e-05
-0.000175725
-8.3185791e-05
-0.00013106035
-8.8086525e-05
-8.2945343e-05
-9.2245723e-05
-3.2280597e-05
-9.5910325e-05
2.0684028e-05
-9.986236e-05
7.5720848e-05
-0.00010377852
0.00013264486
-0.00010668886
0.00019117573
-0.00010733354
0.00025021723
-0.00010882177
0.00030908342
-0.00010971447
0.00036758392
-0.00010577144
0.0004252353
-9.8748436e-05
0.000480604
-9.6052958e-05
0.00053313496
-9.3109349e-05
0.00058279191
-8.4504538e-05
0.00062891314
-7.8827672e-05
0.0006711811
-7.5156334e-05
0.00070947108
-7.2333794e-05
0.00074341108
-7.0759551e-05
0.00077389285
-5.7137488e-05
0.00080172762
-4.6161431e-05
0.00082684338
-4.7307727e-05
0.00084910131
-5.0652007e-05
0.00086943517
-4.0798221e-05
0.00088781168
-4.4483729e-05
0.00090347468
-5.3006898e-05
0.00091689769
-4.091395e-05
0.00093018473
-2.1872976e-05
0.00094204994
-3.3967469e-05
0.00095351351
-7.8497731e-06
0.00096394886
-1.4257323e-05
0.00097285775
6.9993005e-06
0.00098041476
1.3029346e-05
0.00098667488
1.8619118e-05
1.3033782e-05
0.00099249819
-0.00066573021
-3.6542437e-05
0.00068058501
-0.00064745911
-5.8447257e-05
-0.00062627798
-9.3695315e-05
-0.00060351086
-9.183229e-05
-0.00057959621
-9.4224844e-05
-0.00055480317
-9.058786e-05
-0.0005288716
-9.9587251e-05
-0.00050186653
-9.4510158e-05
-0.00047327956
-0.00010428282
-0.00044247166
-0.00010939572
-0.00040938202
-0.00010903036
-0.00037387262
-0.00011138224
-0.00033555708
-0.00011739342
-0.00029441837
-0.00012152591
-0.00025029521
-0.00012730895
-0.00020251971
-0.00013586203
-0.00015081487
-0.00014395056
-9.5652856e-05
-0.00015107234
-3.7286757e-05
-0.00015822846
2.3908341e-05
-0.00016497362
8.7552202e-05
-0.00017033272
0.00015322784
-0.00017300918
0.00021985898
-0.0001754529
0.0002865932
-0.0001764487
0.00035301624
-0.00017219447
0.00041855843
-0.00016429063
0.00048190488
-0.0001593994
0.00054237405
-0.00015357852
0.00059977214
-0.00014190263
0.0006533162
-0.00013237173
0.00070251718
-0.00012435731
0.00074707634
-0.00011689295
0.00078683062
-0.00011051384
0.00082275579
-9.3062655e-05
0.00085513515
-7.8540787e-05
0.00088356621
-7.5738786e-05
0.00090837316
-7.5458961e-05
0.00093072053
-6.3145591e-05
0.00095015878
-6.3921979e-05
0.00096672926
-6.9577377e-05
0.00098163713
-5.5821823e-05
0.00099526479
-3.5500637e-05
0.0010062971
-4.499981e-05
0.001015963
-1.7515609e-05
0.001023498
-2.1792376e-05
0.001029887
6.1033092e-07
0.0010349341
7.9822759e-06
0.0010394142
1.4138951e-05
9.1031588e-06
0.0010433449
-0.00069110451
-4.979615e-05
0.00070435823
-0.00067690665
-7.2645125e-05
-0.00066167204
-0.00010892992
-0.00064484261
-0.00010866172
-0.00062659271
-0.00011247474
-0.00060682449
-0.00011035608
-0.00058543198
-0.00012097976
-0.00056211785
-0.00011782429
-0.00053664527
-0.0001297554
-0.00050842675
-0.00013761425
-0.00047724622
-0.00014021088
-0.00044286843
-0.00014576003
-0.00040494501
-0.00015531684
-0.00036336223
-0.00016310869
-0.00031792334
-0.00017274785
-0.00026814935
-0.00018563602
-0.00021387687
-0.00019822304
-0.00015547663
-0.00020947258
-9.3207743e-05
-0.00022049735
-2.7504169e-05
-0.0002306772
4.1176222e-05
-0.00023901311
0.00011239485
-0.00024422781
0.00018504256
-0.00024810061
0.00025815275
-0.00024955889
0.00033116996
-0.00024521168
0.00040338451
-0.00023650519
0.0004733618
-0.00022937669
0.00054021798
-0.00022043471
0.00060361405
-0.00020529869
0.00066269067
-0.00019144835
0.0007168708
-0.00017853744
0.00076584814
-0.00016587029
0.00080945366
-0.00015411935
0.00084861204
-0.00013222104
0.00088356597
-0.00011349472
0.00091391283
-0.00010608565
0.0009399135
-0.00010145962
0.00096277081
-8.6002907e-05
0.00098212234
-8.3273503e-05
0.00099808945
-8.554449e-05
0.0010121586
-6.9890925e-05
0.0010252913
-4.8633362e-05
0.0010363675
-5.6076042e-05
0.0010471701
-2.8318226e-05
0.0010567239
-3.134615e-05
0.0010664488
-9.1145743e-06
0.0010761068
-1.6757628e-06
0.0010860085
4.2373216e-06
-8.8319111e-07
0.0010959948
-0.00073695448
-6.2414029e-05
0.00074957236
-0.0007235776
-8.6022e-05
-0.00070926654
-0.00012324099
-0.00069375491
-0.00012417336
-0.000676939
-0.00012929065
-0.0006586064
-0.00012868868
-0.00063851244
-0.00014107372
-0.00061632052
-0.00014001621
-0.00059171636
-0.00015435956
-0.00056412237
-0.00016520825
-0.00053320227
-0.00017113098
-0.00049863943
-0.00018032287
-0.00046006777
-0.0001938885
-0.00041724902
-0.00020592743
-0.00036996777
-0.0002200291
-0.00031788272
-0.00023772107
-0.00026081175
-0.00025529401
-0.00019898497
-0.00027129937
-0.00013266605
-0.00028681627
-6.2262994e-05
-0.00030108026
1.1724743e-05
-0.00031300085
8.8522767e-05
-0.00032102584
0.00016695425
-0.0003265321
0.00024608603
-0.00032869067
0.00032516912
-0.00032429477
0.00040332235
-0.00031465842
0.00047915372
-0.00030520805
0.00055170137
-0.00029298236
0.00062043991
-0.00027403723
0.0006844947
-0.00025550314
0.00074326134
-0.00023730408
0.00079641121
-0.00021902017
0.00084378929
-0.00020149743
0.00088609249
-0.00017452424
0.00092351806
-0.00015092029
0.0009558319
-0.00013839949
0.00098338206
-0.00012900978
0.0010072188
-0.00010983964
0.0010272492
-0.00010330388
0.0010438022
-0.00010209754
0.0010581495
-8.4238237e-05
0.0010710952
-6.1579068e-05
0.0010819769
-6.6957697e-05
0.001092319
-3.8660377e-05
0.0011015095
-4.0536564e-05
0.0011104405
-1.8045626e-05
0.001118924
-1.015923e-05
0.0011271773
-4.0160254e-06
-9.022928e-06
0.0011353171
-0.00078414408
-7.3266027e-05
0.00079499608
-0.0007726167
-9.7549377e-05
-0.00076003812
-0.00013581957
-0.00074616595
-0.00013804553
-0.00073080381
-0.00014465279
-0.00071370138
-0.0001457911
-0.00069452204
-0.00016025307
-0.00067295273
-0.00016158552
-0.00064859253
-0.00017871977
-0.00062091456
-0.00019288622
-0.00058956841
-0.00020247712
-0.00055418495
-0.00021570633
-0.00051436064
-0.00023371282
-0.00046982412
-0.00025046396
-0.00042032826
-0.00026952495
-0.00036553968
-0.00029250966
-0.0003053039
-0.00031552979
-0.00023984025
-0.00033676302
-0.00016944495
-0.00035721156
-9.4593972e-05
-0.00037593124
-1.5877024e-05
-0.0003917178
6.6019894e-05
-0.00040292276
0.00014997633
-0.00041048854
0.00023491292
-0.00041362726
0.00031991501
-0.00040929686
0.00040397725
-0.00039872067
0.000485688
-0.0003869188
0.00056399674
-0.0003712911
0.00063824804
-0.00034828854
0.00070754328
-0.00032479837
0.00077124359
-0.0003010044
0.00082898411
-0.00027676069
0.00088058495
-0.00025309827
0.00092660452
-0.00022054381
0.00096724324
-0.00019155901
0.0010023909
-0.00017354717
0.0010324081
-0.00015902695
0.001058241
-0.00013567254
0.001079972
-0.00012503485
0.0010979945
-0.00012012013
0.0011134242
-9.9667924e-05
0.001127073
-7.5227792e-05
0.0011386143
-7.8499058e-05
0.0011493529
-4.9398946e-05
0.001159017
-5.0200724e-05
0.0011684813
-2.750991e-05
0.0011778752
-1.9553086e-05
0.0011873576
-1.34984e-05
-1.8532898e-05
0.0011968675
-0.00083821256
-8.3598712e-05
0.00084854524
-0.00082721884
-0.00010854309
-0.00081516112
-0.0001478773
-0.00080183894
-0.00015136771
-0.00078697855
-0.00015951317
-0.00077028299
-0.00016248667
-0.00075135048
-0.00017918557
-0.00072983914
-0.00018309686
-0.00070528615
-0.00020327276
-0.00067716245
-0.00022100992
-0.00064507353
-0.00023456604
-0.00060860057
-0.0002521793
-0.00056730294
-0.00027501044
-0.00052086648
-0.00029690042
-0.00046901054
-0.00032138089
-0.00041140719
-0.00035011301
-0.00034791085
-0.00037902613
-0.00027871495
-0.00040595892
-0.00020411581
-0.00043181071
-0.00012460023
-0.00045544681
-4.0804639e-05
-0.00047551339
4.649917e-05
-0.00049022657
0.00013614382
-0.0005001332
0.00022696683
-0.00050445027
0.00031794507
-0.00050027509
0.00040796486
-0.00048874047
0.00049557773
-0.00047453167
0.00057966117
-0.00045537454
0.00065945043
-0.0004280778
0.00073400634
-0.00039935429
0.00080265619
-0.00036965424
0.00086500352
-0.00033910802
0.00092085427
-0.00030894902
0.00097067852
-0.00027036806
0.0010146576
-0.00023553811
0.001052743
-0.00021163258
0.0010853342
-0.00019161809
0.0011133427
-0.00016368111
0.0011369346
-0.0001486267
0.0011565704
-0.0001397559
0.0011733364
-0.000116434
0.0011880225
-8.991384e-05
0.0012004384
-9.0914948e-05
0.0012118143
-6.0774843e-05
0.0012219784
-6.0364858e-05
0.0012317641
-3.7295637e-05
0.0012412774
-2.9066388e-05
0.0012507861
-2.3007107e-05
-2.8163694e-05
0.0012604169
-0.0008953022
-9.3048136e-05
0.00090475163
-0.00088507861
-0.00011876668
-0.00087365526
-0.00015930065
-0.00086084468
-0.00016417829
-0.00084634302
-0.00017401483
-0.00082983477
-0.00017899492
-0.00081088085
-0.00019813949
-0.00078912851
-0.00020484921
-0.00076406749
-0.00022833378
-0.00073516904
-0.00024990837
-0.00070200918
-0.0002677259
-0.00066412813
-0.00029006035
-0.00062104935
-0.00031808922
-0.00057242532
-0.00034552445
-0.00051794626
-0.00037585996
-0.0004572786
-0.00041078066
-0.00039028421
-0.00044602052
-0.00031714532
-0.0004790978
-0.00023816659
-0.00051078945
-0.00015385866
-0.00053975474
-6.4903228e-05
-0.00056446882
2.7869717e-05
-0.00058299952
0.00012327293
-0.00059553641
0.00022007109
-0.00060124844
0.00031713064
-0.00059733465
0.00041323422
-0.00058484405
0.00050688087
-0.00056817832
0.00059686836
-0.00054536204
0.00068233398
-0.00051354342
0.00076229801
-0.00047931831
0.00083604863
-0.00044340486
0.00090315373
-0.00040621312
0.00096339526
-0.00036919055
0.0010171698
-0.00032414256
0.00106466
-0.00028302836
0.0011058807
-0.0002528533
0.0011412455
-0.00022698289
0.0011716293
-0.00019406485
0.0011972806
-0.00017427802
0.0012186939
-0.00016116922
0.0012369031
-0.00013464314
0.0012527046
-0.00010571542
0.0012660371
-0.00010424746
0.0012780635
-7.2801216e-05
0.0012887312
-7.1032554e-05
0.0012988518
-4.7416228e-05
0.0013086142
-3.8828769e-05
0.0013183348
-3.2727745e-05
-3.7950109e-05
0.0013281212
-0.00095699109
-0.00010210346
0.00096604641
-0.00094708746
-0.00012867031
-0.00093590778
-0.00017048033
-0.00092325732
-0.00017682876
-0.00090879876
-0.00018847339
-0.00089218847
-0.00019560521
-0.00087295631
-0.00021737166
-0.00085072142
-0.0002270841
-0.00082493626
-0.00025411894
-0.00079505694
-0.0002797877
-0.00076062237
-0.00030216047
-0.00072113253
-0.00032955019
-0.00067607591
-0.00036314583
-0.00062506908
-0.00039653129
-0.00056777177
-0.00043315726
-0.00050384166
-0.00047471078
-0.00043314218
-0.00051672
-0.00035584483
-0.00055639515
-0.00027226078
-0.0005943735
-0.0001829209
-0.00062909462
-8.8544953e-05
-0.00065884477
9.9767945e-06
-0.00068152126
0.00011140194
-0.00069696156
0.00021441784
-0.00070426434
0.0003177952
-0.00070071201
0.00042021727
-0.00068726611
0.00052012419
-0.00066808524
0.00061623704
-0.00064147489
0.00070760107
-0.00060490745
0.00079318883
-0.00056490607
0.00087224779
-0.00052246382
0.00094431179
-0.00047827713
0.0010091432
-0.00043402194
0.0010670841
-0.00038208353
0.0011183099
-0.00033425406
0.0011628729
-0.00029741635
0.0012012085
-0.00026531846
0.0012341783
-0.00022703472
0.0012620832
-0.00020218291
0.0012854571
-0.00018454308
0.0013053281
-0.00015451419
0.0013224928
-0.00012288012
0.0013369651
-0.00011871977
0.0013498859
-8.5721936e-05
0.0013612573
-8.2404034e-05
0.0013718889
-5.8047751e-05
0.0013819889
-4.8928837e-05
0.0013918846
-4.2623429e-05
-4.7796653e-05
0.0014017312
-0.0010223076
-0.00011072785
0.001030932
-0.0010127183
-0.00013825965
-0.0010017394
-0.00018145926
-0.00098916149
-0.00018940664
-0.00097462799
-0.00020300688
-0.00095777406
-0.00021245914
-0.0009381069
-0.00023703882
-0.00091521951
-0.00024997149
-0.0008885329
-0.00028080555
-0.00085748475
-0.00031083584
-0.00082157886
-0.00033806636
-0.00078027763
-0.00037085142
-0.00073303516
-0.0004103883
-0.00067943336
-0.00045013309
-0.00061910294
-0.00049348768
-0.00055168954
-0.00054212418
-0.00047705465
-0.0005913549
-0.00039536167
-0.00063808812
-0.00030693047
-0.0006828047
-0.00021231493
-0.00072371016
-0.00011227545
-0.00075888425
-7.7656254e-06
-0.00078603109
9.9921464e-05
-0.00080464865
0.00020940171
-0.00081374459
0.00031934455
-0.00081065485
0.00042833479
-0.00079625635
0.00053474495
-0.0007744954
0.00063721458
-0.00074394452
0.00073469904
-0.0007023919
0.00082611946
-0.00065632649
0.00091067862
-0.00060702298
0.00098787348
-0.00055547199
0.0010574423
-0.00050359073
0.0011196796
-0.00044432088
0.0011747593
-0.00038933369
0.0012227707
-0.00034542784
0.001264164
-0.00030671175
0.0012997908
-0.0002626615
0.0013300052
-0.0002323973
0.0013553709
-0.00020990874
0.0013769034
-0.00017604674
0.001395413
-0.00014138973
0.0014109855
-0.00013429223
0.0014247425
-9.9478944e-05
0.0014367472
-9.4408782e-05
0.0014478088
-6.9109259e-05
0.0014581739
-5.9293991e-05
0.0014681961
-5.2645574e-05
-5.7640553e-05
0.00147804
-0.0010918923
-0.00011912903
0.0011002935
-0.0010824285
-0.0001477234
-0.001071482
-0.00019240581
-0.0010588185
-0.00020207011
-0.0010440594
-0.00021776596
-0.0010268142
-0.00022970434
-0.0010065685
-0.00025728453
-0.00098288251
-0.00027365751
-0.00095514859
-0.00030853947
-0.00092277955
-0.00034320489
-0.00088524052
-0.00037560539
-0.00084195587
-0.00041413608
-0.00079234505
-0.00045999913
-0.00073595386
-0.00050652428
-0.00067238332
-0.00055705822
-0.0006012655
-0.000613242
-0.0005224574
-0.00067016299
-0.00043611541
-0.00072443012
-0.00034256902
-0.00077635109
-0.00024239616
-0.00082388303
-0.00013639826
-0.00086488215
-2.5594176e-05
-0.00089683517
8.8664913e-05
-0.00091890774
0.00020492048
-0.00093000015
0.0003217383
-0.00092747267
0.00043760484
-0.00091212289
0.00055081894
-0.00088770951
0.00065993665
-0.00085306223
0.00076382444
-0.00080627969
0.00086134769
-0.00075384975
0.00095166261
-0.0006973379
0.0010342293
-0.0006380387
0.0011087635
-0.00057812491
0.0011755216
-0.00051107895
0.0012346742
-0.0004484863
0.0012863393
-0.00039709292
0.0013309852
-0.0003513577
0.0013694644
-0.00030114066
0.0014021732
-0.00026510613
0.0014297083
-0.00023744385
0.0014530928
-0.00019943123
0.0014731482
-0.00016144508
0.0014900131
-0.0001511572
0.0015048092
-0.00011427503
0.0015176376
-0.00010723722
0.0015293171
-8.0788731e-05
0.0015401136
-7.0090436e-05
0.0015503955
-6.2927519e-05
-6.7605234e-05
0.0015603602
-0.0011655461
-0.000127343
0.0011737601
-0.0011561601
-0.00015710943
-0.0011451866
-0.00020337928
-0.0011323628
-0.00021489391
-0.0011172916
-0.00023283713
-0.0010995578
-0.0002474382
-0.0010786269
-0.00027821542
-0.001054025
-0.00029825936
-0.0010251174
-0.00033744711
-0.00099128838
-0.00037703391
-0.00095196344
-0.00041493033
-0.00090652876
-0.00045957076
-0.00085436844
-0.00051215945
-0.00079499144
-0.00056590128
-0.00072796877
-0.00062408089
-0.00065291731
-0.00068829347
-0.00056968748
-0.00075339282
-0.00047842968
-0.00081568792
-0.00037948453
-0.00087529624
-0.00027345616
-0.00092991139
-0.00016119035
-0.00097714797
-4.3769061e-05
-0.0010142565
7.7390651e-05
-0.0010400675
0.00020075003
-0.0010533595
0.00032477324
-0.0010514959
0.00044784484
-0.0010351945
0.00056818278
-0.0010080475
0.00068425503
-0.00096913448
0.00079483789
-0.00091686256
0.00089873657
-0.00085774842
0.00099505705
-0.00079365839
0.0010832201
-0.00072620179
0.0011629164
-0.00065782117
0.0012343674
-0.00058252998
0.0012977423
-0.00051186113
0.0013531853
-0.00045253594
0.0014011817
-0.00039935413
0.0014425878
-0.00034254678
0.0014778432
-0.00030036152
0.0015075755
-0.00026717614
0.0015328149
-0.00022467059
0.0015544021
-0.00018303227
0.001572528
-0.00016928317
0.0015883175
-0.00013006447
0.0016019125
-0.00012083221
0.001614143
-9.3019269e-05
0.0016252998
-8.1247197e-05
0.0016357699
-7.3397646e-05
-7.7595335e-05
0.00164576
-0.0012436821
-0.00013547706
0.0012518162
-0.0012342735
-0.00016651805
-0.0012231782
-0.00021447457
-0.0012100999
-0.00022797217
-0.0011946215
-0.00024831555
-0.0011763001
-0.00026575957
-0.0011545809
-0.0002999347
-0.001128952
-0.00032388821
-0.0010987514
-0.0003676477
-0.0010633311
-0.00041245421
-0.0010220743
-0.00045618714
-0.00097432758
-0.00050731748
-0.00091943854
-0.00056704849
-0.00085687771
-0.00062846211
-0.00078618512
-0.00069477348
-0.00070696116
-0.00076751743
-0.00061904811
-0.00084130587
-0.00052259111
-0.00091214492
-0.00041794315
-0.00097994421
-0.00030573656
-0.001042118
-0.00018686389
-0.0010960206
-6.2471728e-05
-0.0011386486
6.5951648e-05
-0.0011684908
0.0001967812
-0.0011841891
0.00032837741
-0.0011830921
0.00045901958
-0.0011658367
0.00058683825
-0.0011358661
0.00071020934
-0.0010925056
0.0008278173
-0.0010344705
0.00093840306
-0.00096833419
0.0010410199
-0.00089627527
0.0011350485
-0.00082023037
0.0012201545
-0.00074292711
0.0012965296
-0.0006589051
0.001364342
-0.00057967358
0.0014237605
-0.00051195438
0.0014752898
-0.00045088349
0.0015197969
-0.00038705386
0.0015577616
-0.0003383262
0.0015898449
-0.00029925949
0.0016170942
-0.00025191981
0.0016403696
-0.00020630773
0.0016599073
-0.00018882087
0.0016768437
-0.00014700085
0.001691353
-0.00013534154
0.0017042812
-0.00010594741
0.001715937
-9.2903074e-05
0.0017267237
-8.4184285e-05
-8.7742902e-05
0.0017368713
-0.0013263791
-0.00014357574
0.0013344778
-0.0013168996
-0.00017599753
-0.0013056292
-0.00022574506
-0.0012922351
-0.00024136622
-0.0012762804
-0.00026427026
-0.0012572938
-0.00028474612
-0.0012346992
-0.00032252932
-0.0012079451
-0.00035064228
-0.0011763414
-0.00039925145
-0.0011392045
-0.00044959112
-0.0010958734
-0.00049951828
-0.0010456537
-0.00055753713
-0.00098785506
-0.00062484714
-0.000921908
-0.00069440917
-0.00084732055
-0.00076936093
-0.00076367522
-0.00085116275
-0.00067080485
-0.00093417624
-0.00056884993
-0.0010140998
-0.00045817715
-0.001090617
-0.00033944924
-0.0011608459
-0.00021360825
-0.0012218616
-8.1868484e-05
-0.0012703884
5.4205757e-05
-0.0013045651
0.000192898
-0.0013228813
0.00033246134
-0.0013226554
0.00047106546
-0.0013044408
0.00060674666
-0.0012715473
0.0007377838
-0.0012235427
0.00086276653
-0.0011594532
0.00098036697
-0.0010859346
0.0010895822
-0.0010054905
0.0011897504
-0.00092039848
0.0012805103
-0.00083368706
0.001362026
-0.00074042082
0.0014344651
-0.00065211268
0.0014980192
-0.00057550845
0.001553213
-0.00050607726
0.0016009268
-0.00043476765
0.0016416812
-0.00037908065
0.0016761715
-0.00033374983
0.0017054639
-0.00028121221
0.0017304433
-0.00023128707
0.0017513913
-0.00020976889
0.0017694597
-0.00016506921
0.0017848571
-0.00015073896
0.0017984474
-0.00011953773
0.0018105607
-0.0001050164
0.0018216175
-9.5241045e-05
-9.7984752e-05
0.0018318593
-0.0014139899
-0.00015170538
0.0014221196
-0.0014043749
-0.00018561254
-0.0013928642
-0.00023725575
-0.0013790864
-0.00025514408
-0.0013625827
-0.00028077391
-0.0013428517
-0.00030447716
-0.0013192942
-0.00034608677
-0.0012913166
-0.00037861996
-0.001258199
-0.00043236899
-0.0012192193
-0.0004885708
-0.0011736697
-0.00054506796
-0.0011208128
-0.000610394
-0.0010599184
-0.00068574158
-0.00099037514
-0.00076395238
-0.00091165775
-0.00084807831
-0.00082332955
-0.00093949096
-0.00072521263
-0.0010322932
-0.00061744345
-0.001121869
-0.0005004037
-0.0012076567
-0.0003747887
-0.0012864609
-0.00024159286
-0.0013550575
-0.00010210172
-0.0014098795
4.2039473e-05
-0.0014487063
0.00018901725
-0.0014698591
0.00033697263
-0.0014706108
0.00048396081
-0.001451429
0.00062791705
-0.0014155036
0.00076701807
-0.0013626437
0.00089975529
-0.0012921905
0.0010247276
-0.001210907
0.001140873
-0.0011216359
0.0012474851
-0.0010270106
0.0013441758
-0.00093037773
0.0014310838
-0.00082732882
0.0015083773
-0.00072940622
0.0015762709
-0.00064340201
0.0016353118
-0.00056511813
0.0016863985
-0.00048585443
0.0017300933
-0.00042277546
0.0017671282
-0.00037078467
0.0017985943
-0.00031267837
0.0018254032
-0.00025809596
0.0018478803
-0.00023224596
0.0018671972
-0.00018438615
0.0018835944
-0.0001671361
0.0018979563
-0.00013389966
0.0019106326
-0.00011769268
0.001922061
-0.00010666943
-0.0001084267
0.0019325029
-0.0015067266
-0.00015990634
0.0015149276
-0.0014969333
-0.00019540585
-0.0014851355
-0.00024905358
-0.0014709203
-0.00026935926
-0.0014538067
-0.00029788747
-0.0014332611
-0.00032502277
-0.0014086602
-0.00037068773
-0.0013793653
-0.00040791485
-0.0013446258
-0.00046710843
-0.0013036776
-0.00052951899
-0.0012557637
-0.00059298193
-0.0012001018
-0.0006660559
-0.0011359196
-0.00074992377
-0.0010625622
-0.0008373098
-0.00097946918
-0.0009311713
-0.00088618344
-0.0010327767
-0.00078251528
-0.0011359613
-0.0006685976
-0.0012357867
-0.00054482842
-0.0013314259
-0.00041193797
-0.0014193513
-0.00027097621
-0.0014960192
-0.00012330383
-0.0015575519
2.9347779e-05
-0.0016013579
0.0001850624
-0.0016255737
0.00034186361
-0.001627412
0.00049768655
-0.0016072519
0.0006503584
-0.0015681754
0.00079794804
-0.0015102334
0.00093884455
-0.001433087
0.0010715688
-0.0013436313
0.0011949959
-0.001245063
0.0013083728
-0.0011403875
0.0014112827
-0.0010332876
0.0015038404
-0.00091988645
0.0015862149
-0.00081178073
0.0016586432
-0.00071583031
0.0017216961
-0.00062817102
0.0017762933
-0.00054045165
0.0018230393
-0.0004695215
0.0018627047
-0.00041045005
0.0018964085
-0.00034638216
0.0019250924
-0.00028677987
0.0019491269
-0.00025628042
0.001969707
-0.00020496623
0.0019871069
-0.00018453606
0.0020022344
-0.00014902709
0.0020154607
-0.00013091902
0.0020272425
-0.00011845124
-0.00011904014
0.002037856
-0.0016049367
-0.00016822583
0.0016132562
-0.0015949169
-0.00020542565
-0.0015827806
-0.00026118981
-0.0015680718
-0.00028406815
-0.0015502851
-0.00031567414
-0.0015288529
-0.00034645496
-0.0015031257
-0.00039641495
-0.0014724176
-0.00043862294
-0.0014359449
-0.00050358108
-0.0013928985
-0.00057256546
-0.0013424693
-0.00064341109
-0.0012838278
-0.00072469736
-0.0012161575
-0.00081759412
-0.0011387573
-0.00091470999
-0.0010510304
-0.0010188982
-0.00095249741
-0.0011313097
-0.00084295609
-0.0012455026
-0.00072253606
-0.0013562067
-0.00059165317
-0.0014623088
-0.00045107494
-0.0015599296
-0.00030191017
-0.001645184
-0.00014559897
-0.0017138631
1.6035742e-05
-0.0017629926
0.00018096882
-0.0017905068
0.00034710035
-0.0017935436
0.00051223938
-0.0017723909
0.0006740978
-0.0017300338
0.00083063067
-0.0016667662
0.00098012009
-0.0015825764
0.0011210041
-0.0014845153
0.0012520912
-0.0013761501
0.0013725797
-0.001260876
0.0014820227
-0.0011427307
0.0015805127
-0.0010183765
0.0016682208
-0.00089948873
0.0017454068
-0.00079301631
0.0018126676
-0.00069543189
0.0018709484
-0.00059873244
0.0019208979
-0.00051947098
0.0019633281
-0.00045288029
0.0019993908
-0.00038244486
0.0020300608
-0.00031744986
0.002055754
-0.00028197365
0.0020776927
-0.00022690491
0.0020961848
-0.00020302814
0.0021121633
-0.00016500557
0.0021260218
-0.00014477752
0.0021382367
-0.00013066614
-0.00012990711
0.0021491036
-0.0017089141
-0.00017669924
0.0017173875
-0.0016986296
-0.00021571019
-0.001686112
-0.00027370745
-0.0016708595
-0.00029932064
-0.0016523414
-0.00033419222
-0.001629954
-0.00036884238
-0.0016030196
-0.00042334936
-0.0015708024
-0.00047084006
-0.0015324837
-0.00054189979
-0.001487206
-0.00061784319
-0.0014341057
-0.00069651143
-0.0013723032
-0.00078649981
-0.0013009352
-0.00088896209
-0.0012192526
-0.00099639268
-0.0011266197
-0.0011115311
-0.001022534
-0.0012353954
-0.00090677932
-0.0013612573
-0.00077948257
-0.0014835035
-0.00064107878
-0.0016007126
-0.00049237532
-0.001708633
-0.00033454351
-0.0018030158
-0.00016910746
-0.0018792992
2.0131104e-06
-0.0019341132
0.0001766773
-0.001965171
0.00035265481
-0.0019695211
0.00052762237
-0.0019473585
0.00069916911
-0.0019015806
0.00086512972
-0.0018327269
0.0010236741
-0.0017411208
0.0011731523
-0.0016339934
0.0013123023
-0.0015153001
0.0014402709
-0.0013888447
0.0015565802
-0.00125904
0.0016613006
-0.0011230969
0.0017546056
-0.00099279369
0.0018367785
-0.00087518924
0.0019084439
-0.00076709728
0.001970575
-0.00066086351
0.0020238665
-0.00057276247
0.0020691742
-0.00049818802
0.0021076857
-0.00042095636
0.0021404123
-0.00035017643
0.0021678171
-0.00030937852
0.002191153
-0.00025024072
0.0022107637
-0.00022263887
0.0022276102
-0.00018185212
0.0022421107
-0.00015927798
0.002254763
-0.00014331845
-0.00014102485
0.0022658807
-0.0018190271
-0.00018536397
0.0018276918
-0.0018084376
-0.00022629967
-0.0017954937
-0.00028665138
-0.0017796459
-0.00031516843
-0.0017603362
-0.00035350196
-0.0017369225
-0.00039225603
-0.001708697
-0.00045157485
-0.0016748714
-0.00050466569
-0.0016345891
-0.0005821821
-0.0015869412
-0.00066549103
-0.0015310066
-0.00075244607
-0.0014658528
-0.00085165361
-0.001390567
-0.00096424784
-0.0013043493
-0.0010826104
-0.0012065237
-0.0012093567
-0.0010965623
-0.0013453568
-0.00097423433
-0.0014835853
-0.00083966445
-0.0016180734
-0.00069330824
-0.0017470688
-0.00053601562
-0.0018659257
-0.00036902412
-0.0019700073
-0.00019394624
-0.002054377
-1.2806913e-05
-0.0021152525
0.0001721323
-0.0021501102
0.00035850515
-0.0021558939
0.00054384665
-0.0021327
0.00072561589
-0.0020833498
0.00090152034
-0.0020086313
0.0010696122
-0.0019092126
0.0012281479
-0.0017925291
0.0013757911
-0.0016629433
0.0015116345
-0.0015246881
0.0016351673
-0.0013825728
0.001746439
-0.0012343686
0.0018456263
-0.0010919809
0.0019330368
-0.00096259979
0.0020093253
-0.00084338579
0.0020754969
-0.00072703511
0.0021322949
-0.0006295604
0.002180622
-0.0005465152
0.0022217062
-0.00046204051
0.0022565986
-0.00038506883
0.0022858114
-0.00033859133
0.0023106313
-0.00027506061
0.0023314396
-0.00024344713
0.0023492274
-0.00019963994
0.0023644386
-0.00017448924
0.0023775943
-0.00015647415
-0.00015245965
0.0023890291
-0.0019356313
-0.00019425187
0.0019445192
-0.0019247013
-0.00023722973
-0.0019112897
-0.00030006293
-0.0018947974
-0.00033166073
-0.001874637
-0.00037366232
-0.0018501263
-0.00041676676
-0.0018205247
-0.00048117649
-0.0017849884
-0.00054020193
-0.0017426209
-0.00062454968
-0.0016924583
-0.00071565358
-0.0016335186
-0.00081138574
-0.0015648138
-0.00092035845
-0.0014853786
-0.0010436831
-0.0013943595
-0.0011736295
-0.001291038
-0.0013126782
-0.0011748595
-0.0014615353
-0.0010455776
-0.0016128672
-0.00090331484
-0.0017603361
-0.00074854907
-0.0019018346
-0.00058217553
-0.0020322992
-0.00040550196
-0.0021466809
-0.00022023455
-0.0022396444
-2.8509235e-05
-0.0023069778
0.0001672838
-0.0023459033
0.0003646345
-0.0023532446
0.00056092929
-0.0023289948
0.00075348879
-0.0022759093
0.00093988596
-0.0021950285
0.0011180491
-0.0020873757
0.0012861355
-0.0019606155
0.00144273
-0.0018195379
0.0015868683
-0.0016688263
0.001718005
-0.0015137096
0.0018361692
-0.0013525327
0.001941541
-0.0011973528
0.0020344536
-0.0010555124
0.0021155936
-0.00092452577
0.0021860012
-0.00079744274
0.0022464705
-0.00069002966
0.0022979541
-0.00059799881
0.0023417235
-0.00050580996
0.0023788734
-0.00042221875
0.0024099672
-0.00036968505
0.0024363288
-0.00030142229
0.0024583794
-0.00026549765
0.002477143
-0.00021840357
0.0024930916
-0.00019043786
0.0025067713
-0.00017015382
-0.00016422625
0.0025185379
-0.0020591312
-0.00020339546
0.0020682748
-0.0020478238
-0.00024853706
-0.002033902
-0.00031398477
-0.0020167143
-0.00034884847
-0.0019956421
-0.00039473446
-0.0019699605
-0.00044244837
-0.0019388939
-0.00051224308
-0.0019015402
-0.00057755565
-0.0018569597
-0.00066913021
-0.0018041305
-0.00076848281
-0.0017420061
-0.00087351007
-0.0016695396
-0.00099282495
-0.0015857104
-0.0011275123
-0.0014896087
-0.0012697313
-0.0013804708
-0.0014218161
-0.0012577139
-0.0015842922
-0.0011210749
-0.0017495062
-0.00097067473
-0.0019107362
-0.00080701502
-0.0020654943
-0.00063103926
-0.002208275
-0.00044412967
-0.0023335905
-0.00024809175
-0.0024356824
-4.5178829e-05
-0.0025098907
0.00016208224
-0.0025531643
0.00037102937
-0.0025621917
0.00057889277
-0.0025368582
0.00078284578
-0.0024798623
0.00098031907
-0.0023925018