/*--------------------------------*- C++ -*----------------------------------*\
| =========                 |                                                 |
| \\      /  F ield         | OpenFOAM: The Open Source CFD Toolbox           |
|  \\    /   O peration     | Version:  v2006                                 |
|   \\  /    A nd           | Website:  www.openfoam.com                      |
|    \\/     M anipulation  |                                                 |
\*---------------------------------------------------------------------------*/
FoamFile
{
    version     2.0;
    format      ascii;
    class       volScalarField;
    location    "1000";
    object      pMean;
}
// * * * * * * * * * * * * * * * * * * * * * * * * * * * * * * * * * * * * * //

dimensions      [1 -1 -2 0 0 0 0];


internalField   nonuniform List<scalar> 
19765
(
0.99957642
0.99981169
1.0006973
1.0012909
1.0019028
1.0023545
1.0029517
1.0032835
1.0037748
1.0042014
1.0044978
1.0047316
1.0049524
1.0050996
1.0051942
1.0052735
1.0053223
1.0053307
1.0053021
1.005236
1.0051344
1.0050008
1.0048433
1.0046471
1.0044026
1.0041396
1.0038972
1.003615
1.0032629
1.0029315
1.0025766
1.0021483
1.0016617
1.001027
1.0004951
1.0000922
0.99958588
0.99884769
0.9983064
0.99770109
0.99674763
0.99590792
0.99569167
0.99492048
0.99485571
0.99454341
0.99464727
0.99486242
0.99516653
1.0011103
1.0012438
1.0014227
1.0016575
1.001913
1.0021689
1.0024391
1.0026772
1.0029246
1.0031817
1.0034143
1.003619
1.003812
1.003967
1.0040813
1.0041798
1.0042596
1.0043059
1.00432
1.0042975
1.0042402
1.0041558
1.0040374
1.0038842
1.0037033
1.0035
1.0032658
1.0030004
1.0027088
1.0023921
1.0020492
1.001683
1.0012978
1.0009026
1.0005096
1.0001109
0.99969711
0.99928089
0.99889283
0.9985222
0.99818405
0.99789927
0.99763238
0.99738634
0.99720035
0.99703862
0.99690505
0.99677948
0.99665063
1.0010877
1.0012759
1.0014962
1.0017251
1.0019572
1.002183
1.0024062
1.0026084
1.0028072
1.002996
1.0031721
1.0033346
1.0034858
1.0036143
1.0037172
1.0038019
1.0038675
1.0039077
1.0039208
1.0039042
1.0038574
1.0037837
1.0036802
1.0035448
1.0033819
1.0031949
1.0029799
1.0027359
1.0024676
1.0021759
1.0018628
1.0015331
1.0011933
1.0008474
1.0004938
1.0001342
0.99977567
0.99941975
0.99907116
0.99873746
0.99841929
0.99810707
0.99781214
0.99752914
0.9972725
0.99705056
0.99685418
0.99668044
0.99652086
1.0014214
1.0015516
1.0016801
1.0018219
1.0019704
1.0021234
1.0022778
1.0024267
1.0025759
1.0027236
1.0028632
1.0029938
1.0031172
1.0032241
1.0033106
1.003384
1.0034439
1.0034823
1.0034964
1.0034842
1.0034454
1.0033848
1.0032993
1.003185
1.0030461
1.0028871
1.0027042
1.002495
1.0022652
1.0020164
1.0017502
1.0014714
1.0011844
1.0008942
1.0005992
1.0003011
1.0000071
0.99972105
0.99944187
0.99917831
0.99893307
0.99869423
0.99846007
0.99824352
0.9980306
0.99783186
0.99763118
0.99743211
0.99723524
1.0013764
1.0014971
1.001618
1.001741
1.0018636
1.0019855
1.002107
1.0022225
1.0023379
1.0024524
1.002561
1.0026629
1.0027597
1.0028446
1.0029136
1.002972
1.0030199
1.0030505
1.0030608
1.0030488
1.0030133
1.0029572
1.002878
1.0027721
1.0026433
1.0024961
1.0023276
1.0021354
1.0019248
1.0016982
1.0014568
1.0012046
1.0009451
1.0006831
1.000419
1.0001538
0.99989143
0.99963496
0.99938437
0.99914393
0.99891368
0.99868707
0.99846313
0.99824741
0.99803206
0.99782224
0.99761285
0.99740719
0.99720492
1.0014261
1.0015137
1.0016017
1.0016915
1.0017826
1.0018739
1.0019666
1.0020554
1.0021454
1.0022356
1.0023216
1.0024026
1.0024799
1.0025479
1.0026033
1.0026498
1.0026873
1.00271
1.0027152
1.002701
1.0026665
1.002614
1.0025416
1.0024464
1.0023307
1.0021983
1.002047
1.0018751
1.0016873
1.0014857
1.0012716
1.0010485
1.0008197
1.0005891
1.0003576
1.0001259
0.99989741
0.99967456
0.99945758
0.99924945
0.99905024
0.99885502
0.99866336
0.99847714
0.9982917
0.99810871
0.99792382
0.9977369
0.9975491
1.0013709
1.0014474
1.0015243
1.0016004
1.0016759
1.0017503
1.0018252
1.0018966
1.0019689
1.0020412
1.0021101
1.002175
1.0022367
1.002291
1.0023348
1.0023712
1.0023997
1.0024154
1.002416
1.0023997
1.0023654
1.0023148
1.0022462
1.002157
1.0020491
1.0019257
1.0017851
1.0016261
1.0014526
1.0012668
1.0010698
1.0008648
1.0006544
1.0004422
1.0002293
1.0000165
0.99980597
0.99959999
0.99939877
0.99920423
0.99901607
0.99883115
0.99864853
0.99846906
0.99828956
0.99811064
0.99792936
0.99774583
0.99756016
1.001345
1.0014047
1.0014654
1.0015254
1.0015854
1.0016445
1.0017044
1.0017615
1.0018196
1.0018779
1.0019333
1.0019853
1.0020347
1.0020778
1.0021121
1.0021398
1.0021605
1.0021699
1.002166
1.0021472
1.0021124
1.002063
1.0019974
1.0019137
1.0018131
1.0016984
1.0015681
1.0014215
1.001262
1.0010915
1.0009112
1.000724
1.0005321
1.0003389
1.0001453
0.99995203
0.99976115
0.99957449
0.99939232
0.99921619
0.99904598
0.99887912
0.99871489
0.99855359
0.99839276
0.99823248
0.99807015
0.99790548
0.99773847
1.0012868
1.0013378
1.0013896
1.0014403
1.0014904
1.0015394
1.001589
1.0016358
1.0016835
1.0017312
1.0017763
1.0018184
1.001858
1.0018922
1.0019187
1.0019394
1.0019536
1.0019577
1.00195
1.001929
1.0018937
1.0018449
1.0017815
1.0017017
1.0016067
1.0014983
1.0013758
1.0012385
1.0010895
1.0009304
1.0007624
1.000588
1.0004093
1.0002291
1.0000484
0.99986803
0.99968952
0.99951457
0.99934341
0.99917728
0.99901604
0.99885784
0.99870181
0.9985482
0.99839493
0.99824192
0.99808703
0.99792988
0.99777011
1.0012398
1.0012811
1.0013235
1.0013649
1.001406
1.0014461
1.0014868
1.0015251
1.0015641
1.001603
1.0016397
1.0016736
1.0017052
1.001732
1.001752
1.0017667
1.0017753
1.0017749
1.0017638
1.0017407
1.0017047
1.0016564
1.0015947
1.0015183
1.001428
1.0013253
1.0012097
1.0010807
1.0009411
1.0007923
1.0006355
1.000473
1.0003065
1.0001388
0.9999707
0.999803
0.99963718
0.99947474
0.99931592
0.99916181
0.99901242
0.99886618
0.99872231
0.99858107
0.99844059
0.99830079
0.99815971
0.99801694
0.99787222
1.0011833
1.0012182
1.0012543
1.0012893
1.0013238
1.0013574
1.0013913
1.0014231
1.0014555
1.0014875
1.0015175
1.0015448
1.0015699
1.0015907
1.0016054
1.001615
1.0016191
1.0016149
1.0016009
1.001576
1.0015394
1.0014914
1.0014311
1.0013575
1.001271
1.0011731
1.0010632
1.0009412
1.0008093
1.000669
1.0005213
1.0003683
1.0002117
1.0000538
0.99989544
0.99973739
0.99958098
0.9994276
0.99927743
0.99913146
0.99898973
0.99885102
0.99871451
0.99858062
0.99844756
0.99831535
0.99818224
0.99804783
0.99791165
1.0011324
1.0011612
1.0011912
1.0012203
1.0012491
1.0012769
1.0013051
1.0013314
1.001358
1.0013843
1.0014086
1.0014305
1.0014502
1.0014658
1.001476
1.0014814
1.0014816
1.0014741
1.0014577
1.0014312
1.001394
1.0013464
1.0012873
1.001216
1.001133
1.0010392
1.0009344
1.0008184
1.0006935
1.0005607
1.0004212
1.0002768
1.0001291
0.99998024
0.99983097
0.99968208
0.99953483
0.9993905
0.99924925
0.99911205
0.998979
0.99884907
0.99872149
0.99859679
0.99847324
0.99835098
0.99822834
0.99810503
0.99798063
1.0010797
1.001104
1.0011295
1.0011541
1.0011783
1.0012017
1.0012253
1.0012471
1.0012691
1.0012907
1.0013104
1.0013277
1.0013429
1.0013543
1.0013607
1.0013626
1.0013594
1.0013492
1.0013307
1.001303
1.0012653
1.0012179
1.0011599
1.0010907
1.0010106
1.0009205
1.0008201
1.0007095
1.0005906
1.0004644
1.0003319
1.000195
1.000055
0.99991392
0.99977238
0.99963121
0.99949157
0.99935466
0.99922062
0.99909035
0.998964
0.99884072
0.99871974
0.99860175
0.99848504
0.99836988
0.99825473
0.99813935
0.99802324
1.0010308
1.001051
1.0010724
1.0010929
1.0011132
1.0011326
1.0011523
1.0011702
1.0011883
1.0012059
1.0012216
1.001235
1.0012464
1.0012543
1.0012574
1.0012562
1.0012503
1.0012378
1.0012175
1.0011887
1.0011506
1.0011035
1.0010465
1.0009792
1.0009018
1.000815
1.0007186
1.0006128
1.0004993
1.000379
1.000253
1.0001228
0.99998984
0.99985581
0.99972143
0.99958747
0.99945505
0.99932529
0.99919833
0.99907503
0.99895562
0.99883933
0.99872546
0.99861478
0.99850565
0.99839841
0.99829162
0.99818511
0.99807841
1.0009829
1.0009998
1.0010178
1.0010351
1.0010521
1.0010684
1.0010847
1.0010995
1.0011143
1.0011284
1.0011408
1.001151
1.0011592
1.0011639
1.0011643
1.0011606
1.0011523
1.0011378
1.001116
1.0010863
1.001048
1.0010012
1.0009452
1.0008796
1.0008046
1.0007208
1.000628
1.0005266
1.0004179
1.000303
1.0001827
1.0000587
0.99993202
0.99980438
0.99967642
0.99954891
0.99942292
0.9992995
0.99917875
0.99906151
0.99894804
0.99883767
0.99872974
0.9986251
0.99852214
0.99842131
0.99832124
0.99822184
0.99812261
1.0009378
1.0009519
1.000967
1.0009814
1.0009956
1.001009
1.0010224
1.0010345
1.0010464
1.0010576
1.0010671
1.0010745
1.0010799
1.0010821
1.00108
1.0010741
1.0010638
1.0010476
1.0010247
1.0009942
1.0009557
1.0009093
1.0008542
1.0007902
1.0007175
1.0006364
1.000547
1.0004496
1.0003454
1.0002353
1.0001204
1.000002
0.99988111
0.99975938
0.99963741
0.99951594
0.99939602
0.99927861
0.99916384
0.99905251
0.99894491
0.99884045
0.99873851
0.99864
0.99854336
0.9984491
0.99835593
0.99826382
0.99817228
1.0008946
1.0009063
1.0009189
1.0009309
1.0009427
1.0009537
1.0009647
1.0009744
1.0009839
1.0009926
1.0009996
1.0010046
1.0010076
1.0010075
1.0010034
1.0009956
1.0009836
1.000966
1.000942
1.000911
1.0008725
1.0008264
1.0007723
1.0007098
1.0006391
1.0005607
1.0004744
1.0003806
1.0002806
1.0001751
1.000065
0.99995177
0.99983628
0.99972003
0.99960359
0.99948772
0.99937339
0.99926154
0.99915226
0.99904633
0.99894405
0.9988449
0.9987483
0.9986552
0.99856409
0.99847552
0.99838829
0.99830241
0.99821739
1.0008538
1.0008634
1.0008739
1.0008838
1.0008934
1.0009024
1.0009112
1.0009188
1.0009262
1.0009327
1.0009376
1.0009405
1.0009414
1.0009393
1.0009335
1.0009241
1.0009106
1.0008918
1.000867
1.0008356
1.0007971
1.0007515
1.0006983
1.0006372
1.0005685
1.0004925
1.0004092
1.0003189
1.0002227
1.0001214
1.0000159
0.99990747
0.999797
0.99968588
0.99957465
0.99946405
0.99935502
0.99924844
0.99914441
0.99904368
0.99894655
0.99885257
0.99876119
0.99867339
0.99858771
0.99850473
0.99842332
0.99834353
0.99826488
1.000815
1.0008228
1.0008314
1.0008395
1.0008473
1.0008545
1.0008615
1.0008673
1.0008728
1.0008774
1.0008804
1.0008814
1.0008806
1.0008768
1.0008695
1.0008587
1.000844
1.0008242
1.0007987
1.000767
1.0007286
1.0006835
1.0006312
1.0005716
1.0005048
1.0004311
1.0003505
1.0002634
1.0001708
1.0000735
0.99997235
0.99986843
0.99976269
0.99965638
0.99955005
0.99944441
0.99934038
0.99923876
0.99913965
0.99904379
0.99895147
0.99886228
0.99877572
0.99869276
0.998612
0.99853405
0.99845783
0.99838345
0.99831038
1.0007782
1.0007845
1.0007915
1.000798
1.0008042
1.0008098
1.0008152
1.0008194
1.0008232
1.0008262
1.0008275
1.000827
1.0008245
1.0008193
1.0008107
1.0007987
1.0007829
1.0007623
1.0007363
1.0007044
1.0006662
1.0006216
1.0005703
1.0005121
1.0004471
1.0003756
1.0002977
1.0002136
1.0001245
1.0000309
0.99993379
0.99983414
0.99973286
0.99963111
0.99952943
0.9994285
0.99932921
0.99923232
0.99913792
0.99904672
0.99895901
0.99887443
0.99879252
0.99871421
0.99863819
0.99856507
0.99849383
0.99842459
0.99835685
1.0007434
1.0007483
1.0007539
1.000759
1.0007638
1.000768
1.0007719
1.0007748
1.0007771
1.0007786
1.0007785
1.0007766
1.0007728
1.0007663
1.0007566
1.0007436
1.0007269
1.0007056
1.0006792
1.0006472
1.0006093
1.0005653
1.0005149
1.000458
1.0003948
1.0003254
1.00025
1.0001689
1.000083
0.99999302
0.99989972
0.99980412
0.99970706
0.99960965
0.99951238
0.99941594
0.99932115
0.99922875
0.99913882
0.99905204
0.99896869
0.99888844
0.99881087
0.99873689
0.99866526
0.99859656
0.99852985
0.99846527
0.9984023
1.0007103
1.0007141
1.0007184
1.0007223
1.0007259
1.0007288
1.0007315
1.0007331
1.0007342
1.0007344
1.000733
1.0007299
1.0007249
1.0007173
1.0007066
1.0006927
1.0006753
1.0006535
1.0006268
1.0005948
1.0005572
1.0005138
1.0004644
1.0004089
1.0003473
1.00028
1.000207
1.0001287
1.0000459
0.99995934
0.99986969
0.99977795
0.99968492
0.99959163
0.99949857
0.9994064
0.99931592
0.99922781
0.99914215
0.99905959
0.99898041
0.9989043
0.99883089
0.99876105
0.99869358
0.99862909
0.99856667
0.99850647
0.99844799
1.0006789
1.0006817
1.0006849
1.0006877
1.0006902
1.0006921
1.0006936
1.0006941
1.0006941
1.0006931
1.0006907
1.0006865
1.0006804
1.0006719
1.0006603
1.0006457
1.0006277
1.0006055
1.0005787
1.0005467
1.0005094
1.0004667
1.0004183
1.0003641
1.0003042
1.0002389
1.0001682
1.0000926
1.0000128
0.99992947
0.99984331
0.99975525
0.99966605
0.99957671
0.99948766
0.99939958
0.99931321
0.99922918
0.9991476
0.99906907
0.99899385
0.99892166
0.99885218
0.9987862
0.99872264
0.99866204
0.99860356
0.99854738
0.99849297
1.0006491
1.0006509
1.0006532
1.000655
1.0006565
1.0006575
1.000658
1.0006576
1.0006566
1.0006546
1.0006512
1.000646
1.0006391
1.0006297
1.0006174
1.0006022
1.0005837
1.0005612
1.0005343
1.0005025
1.0004656
1.0004236
1.0003762
1.0003232
1.000265
1.0002017
1.0001333
1.0000602
0.99998328
0.99990304
0.99982021
0.99973568
0.99965016
0.99956458
0.99947938
0.9993952
0.99931276
0.99923265
0.99915496
0.99908028
0.99900884
0.9989404
0.99887465
0.99881235
0.99875248
0.99869556
0.9986408
0.99858838
0.99853777
1.0006206
1.0006217
1.0006231
1.0006241
1.0006248
1.0006249
1.0006246
1.0006233
1.0006214
1.0006185
1.0006142
1.0006082
1.0006005
1.0005904
1.0005776
1.0005619
1.000543
1.0005203
1.0004933
1.0004618
1.0004253
1.000384
1.0003376
1.000286
1.0002294
1.0001679
1.0001017
1.0000312
0.99995697
0.99987971
0.9998001
0.99971894
0.99963693
0.99955496
0.99947345
0.99939301
0.99931432
0.99923795
0.99916399
0.99909297
0.99902513
0.99896025
0.99889804
0.99883921
0.9987828
0.9987293
0.99867799
0.99862903
0.9985819
1.0005935
1.0005939
1.0005946
1.0005948
1.0005947
1.0005941
1.000593
1.000591
1.0005883
1.0005846
1.0005796
1.0005729
1.0005645
1.0005538
1.0005405
1.0005244
1.0005052
1.0004823
1.0004554
1.0004242
1.0003883
1.0003477
1.0003023
1.000252
1.000197
1.0001373
1.0000732
1.0000051
0.99993359
0.99985921
0.99978267
0.99970476
0.99962612
0.99954761
0.99946963
0.99939277
0.99931768
0.99924489
0.99917448
0.99910697
0.99904256
0.99898107
0.99892221
0.99886667
0.99881354
0.99876328
0.9987152
0.99866947
0.99862558
1.0005676
1.0005673
1.0005674
1.000567
1.0005662
1.0005649
1.0005632
1.0005605
1.0005571
1.0005528
1.0005471
1.0005398
1.0005308
1.0005196
1.0005059
1.0004895
1.0004701
1.0004472
1.0004204
1.0003895
1.0003541
1.0003143
1.0002699
1.0002209
1.0001675
1.0001096
1.0000476
0.99998182
0.99991286
0.99984126
0.99976768
0.99969288
0.99961748
0.99954228
0.99946769
0.99939426
0.99932261
0.99925324
0.99918623
0.99912206
0.99906093
0.99900265
0.99894698
0.99889454
0.99884449
0.99879725
0.99875218
0.99870945
0.99866854
1.0005428
1.000542
1.0005415
1.0005405
1.0005392
1.0005373
1.0005349
1.0005316
1.0005277
1.0005228
1.0005165
1.0005087
1.0004992
1.0004876
1.0004735
1.0004569
1.0004374
1.0004145
1.0003879
1.0003574
1.0003226
1.0002836
1.0002403
1.0001926
1.0001406
1.0000846
1.0000246
0.99996104
0.99989455
0.99982563
0.9997549
0.99968309
0.9996108
0.99953879
0.99946743
0.99939729
0.99932893
0.99926283
0.99919907
0.99913808
0.99908007
0.99902485
0.99897221
0.99892271
0.99887556
0.99883117
0.99878893
0.998749
0.99871087
1.0005189
1.0005177
1.0005167
1.0005152
1.0005134
1.000511
1.0005081
1.0005043
1.0004998
1.0004944
1.0004877
1.0004794
1.0004695
1.0004576
1.0004433
1.0004265
1.0004069
1.0003841
1.0003578
1.0003277
1.0002935
1.0002554
1.0002131
1.0001666
1.0001162
1.0000619
1.0000039
0.99994253
0.99987845
0.99981211
0.99974413
0.99967519
0.99960589
0.99953692
0.99946867
0.99940167
0.99933647
0.99927348
0.99921282
0.99915487
0.99909982
0.99904752
0.99899774
0.99895101
0.9989066
0.99886488
0.99882527
0.99878794
0.99875238
1.0004959
1.0004943
1.0004929
1.000491
1.0004887
1.0004859
1.0004826
1.0004784
1.0004735
1.0004676
1.0004605
1.0004518
1.0004416
1.0004294
1.000415
1.0003981
1.0003785
1.0003559
1.0003298
1.0003002
1.0002667
1.0002294
1.0001881
1.000143
1.000094
1.0000414
0.9999853
0.99992611
0.99986435
0.9998005
0.99973517
0.999669
0.99960256
0.99953652
0.99947125
0.99940725
0.99934505
0.99928505
0.99922734
0.99917229
0.99912006
0.99907051
0.99902345
0.99897934
0.99893752
0.9988983
0.99886117
0.99882627
0.99879309
1.0004738
1.0004719
1.00047
1.0004678
1.0004651
1.0004619
1.0004582
1.0004537
1.0004484
1.0004422
1.0004347
1.0004258
1.0004153
1.000403
1.0003884
1.0003715
1.000352
1.0003295
1.0003038
1.0002747
1.0002419
1.0002055
1.0001653
1.0001213
1.0000739
1.0000229
0.99996871
0.99991159
0.99985208
0.99979065
0.99972786
0.99966435
0.99960066
0.99953742
0.999475
0.99941388
0.99935455
0.99929738
0.99924248
0.99919018
0.99914063
0.9990937
0.99904921
0.99900757
0.99896818
0.99893132
0.9988965
0.99886385
0.99883289
1.0004524
1.0004502
1.000448
1.0004455
1.0004425
1.000439
1.000435
1.0004301
1.0004246
1.000418
1.0004103
1.0004012
1.0003905
1.000378
1.0003634
1.0003465
1.0003272
1.0003049
1.0002796
1.000251
1.000219
1.0001834
1.0001443
1.0001016
1.0000556
1.0000063
0.99995392
0.99989883
0.9998415
0.99978239
0.99972206
0.9996611
0.99960004
0.99953949
0.99947979
0.99942141
0.99936482
0.99931036
0.99925812
0.99920844
0.99916143
0.99911697
0.99907491
0.99903561
0.99899851
0.99896386
0.9989312
0.99890067
0.99887176
1.0004316
1.0004292
1.0004268
1.000424
1.0004208
1.000417
1.0004127
1.0004076
1.0004018
1.0003951
1.0003871
1.0003778
1.000367
1.0003545
1.0003399
1.0003231
1.0003039
1.000282
1.0002571
1.0002291
1.0001978
1.0001631
1.0001251
1.0000837
1.0000391
0.99999139
0.9999408
0.99988766
0.99983244
0.99977559
0.99971762
0.99965912
0.99960059
0.9995426
0.9994855
0.99942973
0.99937574
0.99932385
0.99927415
0.99922694
0.99918234
0.99914022
0.99910045
0.99906335
0.9990284
0.99899582
0.99896518
0.9989366
0.99890961
1.0004115
1.0004089
1.0004063
1.0004033
1.0003999
1.0003959
1.0003914
1.0003861
1.0003801
1.0003732
1.0003651
1.0003557
1.0003448
1.0003323
1.0003177
1.0003011
1.0002821
1.0002606
1.0002362
1.0002087
1.0001782
1.0001444
1.0001075
1.0000673
1.0000241
0.99997804
0.99992919
0.99987797
0.9998248
0.99977012
0.99971443
0.99965828
0.99960217
0.99954663
0.99949201
0.99943873
0.99938721
0.99933776
0.99929046
0.99924559
0.99920326
0.99916335
0.99912574
0.99909071
0.99905777
0.99902713
0.99899838
0.99897163
0.99894641
1.0003919
1.0003891
1.0003864
1.0003832
1.0003797
1.0003756
1.0003709
1.0003655
1.0003593
1.0003523
1.0003441
1.0003347
1.0003238
1.0003113
1.0002968
1.0002804
1.0002617
1.0002405
1.0002166
1.0001898
1.0001601
1.0001272
1.0000914
1.0000524
1.0000107
0.99996613
0.999919
0.99986964
0.99981846
0.99976587
0.99971238
0.99965849
0.99960469
0.99955149
0.99949923
0.99944832
0.99939913
0.99935198
0.99930695
0.99926429
0.9992241
0.99918627
0.99915068
0.99911758
0.99908653
0.9990577
0.9990307
0.99900564
0.99898207
1.0003728
1.0003699
1.0003671
1.0003638
1.0003602
1.0003559
1.0003512
1.0003457
1.0003394
1.0003323
1.0003241
1.0003147
1.0003038
1.0002914
1.0002771
1.0002609
1.0002426
1.0002218
1.0001984
1.0001723
1.0001433
1.0001114
1.0000766
1.000039
0.99999857
0.99995557
0.99991012
0.99986257
0.99981331
0.99976275
0.99971136
0.99965965
0.99960806
0.99955709
0.99950707
0.99945839
0.99941142
0.99936644
0.99932355
0.99928296
0.99924478
0.9992089
0.9991752
0.99914392
0.99911463
0.99908749
0.99906213
0.99903865
0.9990166
1.0003541
1.0003513
1.0003484
1.000345
1.0003413
1.000337
1.0003322
1.0003266
1.0003204
1.0003132
1.000305
1.0002956
1.0002849
1.0002726
1.0002585
1.0002426
1.0002246
1.0002042
1.0001814
1.000156
1.0001278
1.0000969
1.0000632
1.0000268
0.99998774
0.99994625
0.99990244
0.99985666
0.99980927
0.99976067
0.99971131
0.99966167
0.99961219
0.99956335
0.99951545
0.99946888
0.999424
0.99938106
0.99934017
0.99930152
0.99926522
0.99923115
0.99919923
0.99916962
0.99914197
0.99911638
0.99909253
0.9990705
0.99904984
1.000336
1.0003331
1.0003301
1.0003268
1.000323
1.0003187
1.0003139
1.0003083
1.000302
1.0002949
1.0002868
1.0002774
1.0002668
1.0002547
1.0002409
1.0002253
1.0002076
1.0001878
1.0001656
1.0001409
1.0001136
1.0000836
1.000051
1.0000158
0.9999781
0.99993809
0.9998959
0.99985183
0.99980626
0.99975955
0.99971214
0.9996645
0.99961703
0.9995702
0.99952431
0.99947973
0.99943681
0.99939578
0.99935675
0.99931992
0.99928535
0.99925298
0.9992227
0.99919466
0.99916852
0.99914439
0.99912195
0.99910126
0.99908191
1.0003182
1.0003153
1.0003124
1.000309
1.0003053
1.000301
1.0002962
1.0002906
1.0002844
1.0002774
1.0002693
1.0002601
1.0002496
1.0002377
1.0002242
1.0002089
1.0001917
1.0001724
1.0001508
1.0001268
1.0001004
1.0000714
1.0000399
1.0000059
0.99996956
0.99993101
0.9998904
0.99984801
0.9998042
0.99975933
0.9997138
0.99966806
0.99962251
0.99957759
0.9995336
0.99949088
0.99944978
0.99941054
0.99937324
0.99933808
0.99930513
0.99927431
0.99924553
0.99921893
0.99919418
0.99917136
0.99915018
0.99913069
0.9991125
1.0003009
1.000298
1.0002951
1.0002918
1.0002881
1.0002838
1.0002791
1.0002736
1.0002675
1.0002605
1.0002526
1.0002435
1.0002333
1.0002216
1.0002084
1.0001935
1.0001768
1.000158
1.0001371
1.0001138
1.0000882
1.0000602
1.0000298
0.99999704
0.99996205
0.99992495
0.99988588
0.99984514
0.99980304
0.99975994
0.99971622
0.99967231
0.99962859
0.99958547
0.99954326
0.9995023
0.9994629
0.9994253
0.9993896
0.99935598
0.9993245
0.99929511
0.99926771
0.99924242
0.99921895
0.99919736
0.99917737
0.99915903
0.99914195
1.000284
1.0002812
1.0002783
1.0002751
1.0002714
1.0002672
1.0002625
1.0002572
1.0002512
1.0002443
1.0002366
1.0002277
1.0002177
1.0002063
1.0001935
1.000179
1.0001627
1.0001445
1.0001242
1.0001018
1.000077
1.00005
1.0000207
0.99998917
0.9999555
0.99991982
0.99988229
0.99984315
0.99980273
0.99976134
0.99971937
0.99967721
0.99963522
0.99959382
0.99955328
0.99951394
0.99947611
0.99944002
0.99940578
0.99937355
0.99934341
0.9993153
0.99928914
0.99926502
0.99924268
0.99922215
0.99920318
0.99918579
0.99916962
1.0002674
1.0002648
1.000262
1.0002588
1.0002552
1.0002511
1.0002466
1.0002413
1.0002354
1.0002288
1.0002212
1.0002126
1.0002028
1.0001918
1.0001793
1.0001652
1.0001495
1.0001319
1.0001123
1.0000906
1.0000668
1.0000407
1.0000125
0.99998221
0.99994986
0.99991559
0.99987956
0.999842
0.99980321
0.9997635
0.99972321
0.99968273
0.9996424
0.9996026
0.99956363
0.9995258
0.99948941
0.9994547
0.99942177
0.9993908
0.99936185
0.99933489
0.99930984
0.99928679
0.99926549
0.99924597
0.99922799
0.99921157
0.99919635
1.0002513
1.0002488
1.0002461
1.000243
1.0002395
1.0002356
1.0002311
1.000226
1.0002203
1.0002138
1.0002064
1.0001981
1.0001886
1.0001779
1.0001658
1.0001522
1.000137
1.00012
1.0001012
1.0000803
1.0000573
1.0000323
1.0000052
0.99997611
0.99994506
0.9999122
0.99987765
0.99984164
0.99980446
0.99976637
0.99972771
0.99968884
0.99965009
0.99961182
0.99957431
0.99953787
0.9995028
0.99946932
0.99943756
0.99940769
0.99937978
0.9993538
0.9993297
0.99930753
0.99928707
0.99926832
0.99925107
0.99923532
0.99922072
1.0002357
1.0002332
1.0002306
1.0002276
1.0002243
1.0002205
1.0002162
1.0002112
1.0002057
1.0001994
1.0001923
1.0001842
1.0001751
1.0001647
1.0001531
1.00014
1.0001253
1.0001089
1.0000908
1.0000707
1.0000487
1.0000247
0.99999872
0.99997082
0.99994107
0.9999096
0.99987652
0.99984205
0.99980643
0.99976993
0.99973286
0.99969555
0.99965831
0.99962148
0.99958533
0.99955017
0.99951628
0.99948389
0.99945316
0.99942423
0.99939721
0.99937208
0.9993488
0.99932742
0.99930776
0.99928982
0.99927339
0.99925847
0.99924472
1.0002204
1.0002181
1.0002156
1.0002127
1.0002095
1.0002059
1.0002017
1.000197
1.0001916
1.0001856
1.0001787
1.0001709
1.0001621
1.0001522
1.0001409
1.0001283
1.0001143
1.0000986
1.0000811
1.0000619
1.0000408
1.0000178
0.99999297
0.99996628
0.99993784
0.99990775
0.99987613
0.99984317
0.9998091
0.99977416
0.99973865
0.99970285
0.99966705
0.99963159
0.99959671
0.99956272
0.99952989
0.99949846
0.99946858
0.99944043
0.99941412
0.99938963
0.99936695
0.99934611
0.99932693
0.99930941
0.99929334
0.99927871
0.99926519
1.0002056
1.0002034
1.000201
1.0001983
1.0001952
1.0001917
1.0001877
1.0001832
1.0001781
1.0001723
1.0001657
1.0001582
1.0001497
1.0001402
1.0001294
1.0001174
1.0001039
1.0000888
1.0000722
1.0000538
1.0000336
1.0000117
0.99998793
0.99996246
0.99993532
0.99990661
0.99987644
0.99984498
0.99981245
0.99977906
0.99974506
0.99971074
0.99967635
0.99964219
0.99960851
0.99957558
0.99954369
0.99951307
0.99948389
0.99945635
0.99943057
0.99940658
0.99938439
0.99936405
0.99934543
0.99932852
0.99931316
0.9992993
0.99928666
1.0001912
1.0001891
1.0001869
1.0001843
1.0001814
1.000178
1.0001742
1.0001699
1.000165
1.0001594
1.0001531
1.000146
1.0001379
1.0001288
1.0001185
1.000107
1.0000941
1.0000797
1.0000638
1.0000463
1.0000271
1.0000062
0.99998356
0.99995931
0.99993347
0.99990614
0.99987742
0.99984746
0.99981646
0.9997846
0.99975211
0.99971924
0.99968623
0.99965333
0.99962077
0.99958882
0.99955775
0.9995278
0.99949916
0.99947203
0.99944655
0.99942279
0.99940075
0.99938049
0.99936187
0.99934485
0.99932927
0.99931511
0.99930206
1.0001773
1.0001753
1.0001732
1.0001708
1.000168
1.0001648
1.0001612
1.0001571
1.0001524
1.0001471
1.0001411
1.0001342
1.0001266
1.0001179
1.0001081
1.0000971
1.0000849
1.0000712
1.0000561
1.0000394
1.0000212
1.0000013
0.99997983
0.9999568
0.99993227
0.99990632
0.99987905
0.99985059
0.99982112
0.99979079
0.99975981
0.99972839
0.99969673
0.99966505
0.99963358
0.99960253
0.99957219
0.99954278
0.9995145
0.9994876
0.99946226
0.99943857
0.99941662
0.99939651
0.99937818
0.99936165
0.99934678
0.99933353
0.99932163
1.0001638
1.0001619
1.00016
1.0001576
1.000155
1.000152
1.0001485
1.0001446
1.0001402
1.0001352
1.0001295
1.000123
1.0001157
1.0001075
1.0000982
1.0000878
1.0000762
1.0000633
1.0000489
1.0000331
1.0000158
0.99999702
0.99997668
0.99995487
0.99993165
0.9999071
0.99988128
0.99985434
0.99982641
0.99979764
0.99976819
0.99973822
0.99970793
0.99967748
0.99964705
0.99961686
0.99958715
0.99955815
0.99953007
0.99950317
0.99947765
0.99945364
0.99943123
0.9994105
0.99939138
0.99937384
0.99935775
0.99934308
0.99932954
1.0001508
1.0001491
1.0001472
1.0001449
1.0001424
1.0001396
1.0001363
1.0001326
1.0001284
1.0001237
1.0001183
1.0001122
1.0001053
1.0000975
1.0000888
1.000079
1.000068
1.0000558
1.0000423
1.0000274
1.000011
0.99999327
0.99997406
0.99995348
0.99993156
0.9999084
0.99988404
0.99985862
0.99983226
0.99980506
0.99977718
0.99974872
0.99971984
0.99969066
0.99966132
0.99963198
0.99960286
0.99957418
0.99954616
0.99951907
0.99949318
0.99946872
0.99944588
0.99942489
0.99940583
0.99938878
0.99937369
0.9993605
0.999349
1.0001382
1.0001365
1.0001347
1.0001326
1.0001303
1.0001275
1.0001244
1.0001209
1.000117
1.0001125
1.0001075
1.0001018
1.0000953
1.000088
1.0000799
1.0000707
1.0000604
1.0000489
1.0000362
1.0000221
1.0000068
0.99999004
0.99997198
0.99995264
0.99993204
0.99991028
0.99988738
0.99986348
0.99983868
0.99981307
0.99978676
0.99975985
0.99973243
0.99970457
0.99967637
0.99964794
0.99961945
0.99959107
0.999563
0.99953551
0.99950887
0.99948331
0.99945904
0.99943624
0.99941494
0.9993952
0.9993769
0.9993601
0.99934451
1.0001261
1.0001245
1.0001228
1.0001207
1.0001184
1.0001158
1.0001129
1.0001096
1.0001059
1.0001018
1.0000971
1.0000917
1.0000857
1.000079
1.0000713
1.0000628
1.0000531
1.0000424
1.0000305
1.0000174
1.000003
0.99998735
0.99997048
0.99995242
0.9999332
0.99991289
0.99989151
0.9998692
0.99984602
0.99982206
0.99979738
0.99977205
0.99974612
0.99971961
0.99969257
0.99966505
0.99963717
0.99960904
0.99958086
0.99955288
0.99952544
0.99949889
0.99947362
0.99945008
0.99942862
0.99940957
0.99939308
0.99937913
0.99936764
1.0001143
1.0001127
1.000111
1.0001091
1.0001069
1.0001044
1.0001017
1.0000986
1.0000951
1.0000913
1.0000869
1.000082
1.0000764
1.0000702
1.0000631
1.0000552
1.0000463
1.0000363
1.0000253
1.000013
0.99999961
0.99998502
0.99996928
0.99995242
0.9999345
0.99991563
0.99989581
0.99987518
0.99985377
0.99983165
0.99980885
0.9997854
0.99976125
0.99973638
0.99971078
0.9996844
0.99965727
0.99962941
0.99960095
0.99957208
0.99954309
0.99951427
0.99948598
0.99945853
0.99943213
0.99940697
0.99938308
0.99936072
0.99933968
1.0001032
1.0001016
1.0000998
1.0000978
1.0000956
1.0000932
1.0000905
1.0000876
1.0000844
1.0000808
1.0000769
1.0000725
1.0000675
1.0000619
1.0000555
1.0000482
1.00004
1.0000308
1.0000205
1.000009
0.99999644
0.99998275
0.99996796
0.99995212
0.9999353
0.99991764
0.99989915
0.99987997
0.99986011
0.99983967
0.99981875
0.99979725
0.99977517
0.99975237
0.99972878
0.99970423
0.99967865
0.9996519
0.99962399
0.99959498
0.99956513
0.9995348
0.99950463
0.9994755
0.99944838
0.99942423
0.99940389
0.99938757
0.99937557
1.0000917
1.0000899
1.0000881
1.0000861
1.000084
1.0000819
1.0000796
1.0000771
1.0000744
1.0000714
1.000068
1.0000641
1.0000596
1.0000545
1.0000486
1.0000419
1.0000343
1.0000257
1.0000161
1.0000055
0.99999395
0.99998141
0.99996793
0.99995357
0.99993831
0.9999221
0.99990497
0.99988718
0.99986867
0.99984955
0.99983006
0.99980973
0.9997891
0.9997677
0.99974562
0.99972245
0.99969817
0.99967241
0.99964512
0.99961609
0.99958542
0.99955306
0.99951913
0.99948367
0.99944698
0.99940926
0.99937117
0.99933317
0.99929691
1.0000818
1.00008
1.0000782
1.0000762
1.000074
1.0000718
1.0000694
1.0000668
1.0000642
1.0000613
1.000058
1.0000543
1.0000501
1.0000454
1.0000402
1.0000343
1.0000276
1.0000203
1.0000119
1.0000027
0.99999274
0.99998207
0.99997072
0.99995869
0.99994592
0.99993231
0.99991784
0.99990287
0.99988719
0.99987112
0.99985428
0.99983671
0.99981817
0.9997988
0.99977835
0.99975656
0.99973324
0.99970786
0.99968026
0.99964977
0.99961658
0.99958042
0.99954231
0.99950339
0.99946576
0.99943143
0.99940381
0.99938269
0.99937252
1.0000702
1.0000668
1.0000637
1.0000607
1.0000581
1.0000558
1.0000537
1.0000519
1.00005
1.0000479
1.0000454
1.0000426
1.0000395
1.000036
1.0000321
1.0000275
1.000022
1.0000157
1.000008
0.99999931
0.99998971
0.99997928
0.99996808
0.99995598
0.99994324
0.99993028
0.99991712
0.99990389
0.99989029
0.9998778
0.99986382
0.99985235
0.99983794
0.99982467
0.9998092
0.99979376
0.99977605
0.9997571
0.9997352
0.99971067
0.9996818
0.99964813
0.99960594
0.99955644
0.99949692
0.99942507
0.9993415
0.99924569
0.99914943
1.0000583
1.0000562
1.0000545
1.0000538
1.0000536
1.0000536
1.0000534
1.000053
1.0000523
1.0000513
1.00005
1.0000481
1.0000456
1.0000421
1.0000374
1.0000316
1.0000244
1.0000158
1.0000058
0.99999492
0.99998272
0.99996905
0.9999539
0.9999375
0.99992015
0.99990238
0.99988437
0.99986609
0.99984719
0.99982936