/*--------------------------------*- C++ -*----------------------------------*\
| =========                 |                                                 |
| \\      /  F ield         | OpenFOAM: The Open Source CFD Toolbox           |
|  \\    /   O peration     | Version:  v2006                                 |
|   \\  /    A nd           | Website:  www.openfoam.com                      |
|    \\/     M anipulation  |                                                 |
\*---------------------------------------------------------------------------*/
FoamFile
{
    version     2.0;
    format      ascii;
    class       volScalarField;
    location    "1000";
    object      rho;
}
// * * * * * * * * * * * * * * * * * * * * * * * * * * * * * * * * * * * * * //

dimensions      [1 -3 0 0 0 0 0];


internalField   nonuniform List<scalar> 
19765
(
1.0002993
1.0005275
1.0012099
1.0016314
1.0020742
1.002388
1.0027935
1.0029965
1.0033039
1.0035525
1.0037103
1.0038327
1.0039444
1.0040042
1.0040261
1.0040245
1.0040003
1.0039517
1.0038748
1.0037723
1.0036401
1.003477
1.0033017
1.0030962
1.0028417
1.0025719
1.0023478
1.0020938
1.0017605
1.0014659
1.0011619
1.0007873
1.0003736
0.99979157
0.99931824
0.99900055
0.99860023
0.99793558
0.99749554
0.99702853
0.99619515
0.99541937
0.9953486
0.99462209
0.99462046
0.99430854
0.99441509
0.99459919
0.99488641
1.0011326
1.0012243
1.0013544
1.0015154
1.0016894
1.0018592
1.0020444
1.0021964
1.0023643
1.0025374
1.002683
1.0028026
1.0029195
1.0030034
1.0030536
1.0030954
1.0031217
1.0031177
1.0030898
1.0030355
1.002956
1.0028584
1.0027341
1.0025844
1.0024161
1.0022315
1.0020205
1.0017875
1.0015377
1.0012682
1.0009806
1.0006782
1.0003614
1.0000408
0.99972595
0.9994089
0.99907909
0.99874978
0.99844984
0.998166
0.997907
0.99770032
0.99750309
0.99733119
0.99721937
0.99712097
0.99704546
0.99697527
0.99689924
1.0011403
1.0012806
1.0014409
1.0015956
1.0017502
1.0018942
1.0020377
1.0021575
1.0022794
1.0023919
1.0024921
1.0025815
1.002664
1.0027277
1.0027716
1.0028039
1.0028213
1.0028181
1.0027939
1.002747
1.0026773
1.0025865
1.0024734
1.0023371
1.0021808
1.0020067
1.0018117
1.001597
1.0013665
1.0011192
1.000858
1.0005879
1.0003133
1.0000384
0.99975829
0.99947438
0.99919529
0.99892308
0.99865638
0.99840356
0.99816815
0.99793637
0.99771291
0.99750066
0.99730643
0.99715157
0.99701233
0.99689304
0.99677811
1.0013129
1.001401
1.001492
1.0015907
1.0016928
1.0017958
1.0019006
1.0019962
1.002094
1.0021898
1.0022758
1.0023528
1.0024244
1.0024811
1.0025205
1.0025506
1.0025699
1.0025708
1.0025525
1.0025138
1.0024549
1.0023807
1.0022885
1.0021747
1.0020432
1.0018977
1.0017346
1.0015531
1.0013579
1.0011491
1.0009288
1.0007018
1.0004709
1.0002406
1.000007
0.9997719
0.99954314
0.99932471
0.99911168
0.99891334
0.99873393
0.99855995
0.99838643
0.9982328
0.99807969
0.99793969
0.99779523
0.99765383
0.99751702
1.0012481
1.0013311
1.0014156
1.0014991
1.0015812
1.0016607
1.0017402
1.0018118
1.0018847
1.0019563
1.0020212
1.0020794
1.0021335
1.0021768
1.0022064
1.0022281
1.0022417
1.0022406
1.0022233
1.0021885
1.002135
1.0020657
1.0019786
1.001871
1.0017469
1.00161
1.0014577
1.0012884
1.0011066
1.0009138
1.0007111
1.0005023
1.0002896
1.0000772
0.99986397
0.99965084
0.99944194
0.99924037
0.99904354
0.99885608
0.99867911
0.99850561
0.99833182
0.99816923
0.99800478
0.99784728
0.99769097
0.99753897
0.9973894
1.0012462
1.001305
1.0013665
1.0014277
1.0014893
1.0015494
1.0016108
1.0016663
1.0017236
1.0017802
1.0018316
1.0018776
1.0019203
1.0019543
1.001977
1.0019928
1.0020013
1.0019972
1.0019791
1.0019457
1.0018963
1.0018336
1.0017559
1.0016609
1.0015511
1.0014299
1.001295
1.0011456
1.0009856
1.0008163
1.0006388
1.0004565
1.0002714
1.000087
0.99990256
0.999719
0.9995397
0.99936693
0.99919909
0.99903956
0.99888901
0.99874159
0.99859604
0.99845722
0.9983179
0.99818173
0.99804384
0.99790423
0.99776548
1.0011846
1.0012353
1.0012879
1.0013386
1.0013885
1.0014363
1.0014849
1.0015284
1.0015733
1.0016177
1.0016578
1.0016936
1.0017265
1.0017524
1.0017689
1.0017795
1.0017836
1.0017769
1.0017579
1.0017255
1.0016788
1.0016196
1.0015465
1.0014576
1.001355
1.0012415
1.0011157
1.0009768
1.0008281
1.000671
1.0005065
1.0003375
1.0001657
0.99999416
0.99982274
0.99965221
0.99948491
0.99932281
0.99916476
0.99901292
0.99886749
0.99872499
0.99858332
0.9984464
0.99830847
0.99817238
0.99803438
0.99789532
0.99775528
1.0011428
1.0011819
1.0012234
1.0012632
1.0013027
1.0013405
1.0013791
1.0014136
1.0014493
1.0014845
1.0015161
1.0015439
1.0015693
1.0015885
1.0015998
1.0016057
1.0016058
1.0015962
1.0015758
1.0015435
1.0014986
1.0014425
1.001374
1.0012916
1.0011969
1.0010923
1.0009766
1.0008494
1.0007135
1.0005703
1.0004207
1.0002674
1.0001118
0.99995664
0.99980193
0.99964836
0.99949793
0.99935228
0.99921053
0.99907447
0.99894434
0.99881705
0.99869132
0.99856953
0.99844748
0.99832681
0.99820438
0.99808056
0.9979555
1.0010842
1.001117
1.0011518
1.0011849
1.0012173
1.0012481
1.0012794
1.0013071
1.0013358
1.0013638
1.0013888
1.0014103
1.0014296
1.0014436
1.0014507
1.0014529
1.0014497
1.0014379
1.0014164
1.0013842
1.0013407
1.0012868
1.0012215
1.0011438
1.0010546
1.0009562
1.0008475
1.0007284
1.0006014
1.0004676
1.0003279
1.0001847
1.0000392
0.99989388
0.99974879
0.99960464
0.99946299
0.99932535
0.999191
0.99906134
0.99893647
0.99881434
0.99869337
0.99857577
0.99845786
0.99834106
0.99822274
0.99810313
0.99798184
1.0010343
1.0010606
1.0010889
1.0011156
1.001142
1.0011668
1.0011921
1.0012143
1.0012372
1.0012595
1.001279
1.0012955
1.0013098
1.0013194
1.0013229
1.0013218
1.0013157
1.0013019
1.0012793
1.001247
1.0012045
1.0011524
1.00109
1.0010164
1.0009323
1.0008396
1.0007377
1.0006263
1.0005077
1.000383
1.0002531
1.00012
0.99998495
0.99985012
0.99971565
0.99958223
0.99945125
0.99932404
0.99920004
0.99908047
0.99896551
0.99885333
0.99874269
0.99863534
0.99852818
0.9984223
0.99831537
0.9982075
0.99809853
1.0009806
1.0010024
1.0010262
1.0010484
1.0010702
1.0010905
1.0011113
1.0011291
1.0011476
1.0011653
1.0011805
1.0011929
1.0012033
1.0012093
1.0012098
1.0012061
1.0011977
1.0011822
1.0011587
1.0011264
1.0010847
1.0010342
1.0009742
1.0009039
1.000824
1.000736
1.0006395
1.0005343
1.0004225
1.000305
1.0001827
1.0000575
0.99993034
0.99980322
0.99967636
0.99955037
0.99942649
0.99930593
0.99918819
0.99907435
0.99896456
0.99885748
0.99875178
0.99864922
0.99854694
0.998446
0.99834431
0.99824199
0.9981385
1.0009319
1.0009497
1.0009692
1.0009874
1.0010052
1.0010218
1.0010386
1.0010529
1.0010676
1.0010816
1.0010932
1.0011022
1.0011091
1.0011122
1.0011102
1.0011043
1.0010938
1.0010769
1.0010526
1.0010202
1.0009792
1.0009302
1.0008722
1.0008048
1.0007287
1.0006449
1.0005532
1.0004537
1.0003481
1.0002372
1.000122
1.000004
0.99988433
0.99976472
0.99964539
0.99952699
0.99941063
0.99929746
0.99918704
0.99908038
0.99897767
0.99887774
0.99877941
0.99868432
0.99858985
0.99849699
0.99840382
0.99831044
0.99821647
1.0008837
1.0008984
1.0009147
1.0009298
1.0009445
1.000958
1.0009717
1.0009831
1.0009948
1.0010056
1.0010143
1.0010205
1.0010247
1.0010253
1.0010212
1.0010134
1.0010014
1.0009832
1.0009583
1.0009259
1.0008856
1.0008378
1.0007816
1.0007169
1.0006439
1.0005638
1.0004764
1.0003818
1.0002815
1.0001763
1.0000671
0.99995541
0.99984202
0.99972865
0.99961552
0.99950324
0.99939283
0.99928534
0.9991804
0.9990789
0.99898107
0.99888596
0.9987924
0.99870207
0.99861247
0.99852463
0.99843676
0.99834903
0.99826085
1.0008391
1.000851
1.0008645
1.0008768
1.0008888
1.0008997
1.0009108
1.0009197
1.0009288
1.000937
1.0009431
1.000947
1.0009489
1.0009473
1.0009415
1.0009322
1.0009187
1.0008996
1.0008742
1.0008419
1.0008022
1.0007554
1.0007009
1.0006385
1.0005685
1.0004917
1.0004082
1.0003179
1.0002225
1.0001225
1.0000188
0.99991277
0.99980523
0.99969771
0.99959046
0.99948408
0.99937953
0.9992778
0.99917855
0.99908266
0.99899037
0.99890085
0.99881304
0.99872854
0.99864502
0.99856349
0.99848229
0.99840161
0.9983209
1.0007962
1.0008059
1.0008171
1.0008272
1.000837
1.0008458
1.0008546
1.0008615
1.0008684
1.0008744
1.0008784
1.0008803
1.0008802
1.0008769
1.0008696
1.000859
1.0008444
1.0008245
1.0007987
1.0007665
1.0007273
1.0006816
1.0006287
1.0005684
1.000501
1.0004273
1.0003472
1.0002609
1.0001698
1.0000745
0.99997572
0.99987481
0.99977249
0.99967019
0.99956814
0.99946695
0.9993675
0.99927072
0.99917631
0.99908508
0.99899727
0.9989122
0.99882886
0.99874882
0.99866989
0.99859307
0.99851683
0.99844138
0.99836611
1.0007561
1.0007639
1.0007731
1.0007812
1.0007891
1.000796
1.0008029
1.0008081
1.0008131
1.0008172
1.0008194
1.0008196
1.0008179
1.0008131
1.0008046
1.0007928
1.0007772
1.0007567
1.0007307
1.0006985
1.00066
1.0006153
1.0005638
1.0005054
1.0004405
1.0003695
1.0002927
1.0002101
1.0001229
1.0000319
0.99993763
0.99984143
0.99974394
0.9996465
0.99954934
0.99945306
0.9993585
0.99926654
0.9991769
0.99909036
0.99900719
0.99892678
0.99884819
0.99877298
0.99869904
0.99862739
0.99855657
0.99848685
0.99841759
1.000718
1.0007243
1.0007318
1.0007383
1.0007446
1.0007499
1.0007552
1.0007588
1.0007622
1.0007647
1.0007654
1.0007641
1.000761
1.0007549
1.0007453
1.0007326
1.0007163
1.0006953
1.0006691
1.0006371
1.0005992
1.0005554
1.0005053
1.0004488
1.000386
1.0003177
1.0002438
1.0001645
1.0000811
0.99999392
0.99990388
0.99981201
0.99971898
0.99962602
0.99953336
0.99944159
0.99935151
0.99926393
0.9991786
0.99909627
0.99901719
0.99894085
0.99886636
0.99879523
0.99872547
0.9986581
0.99859175
0.9985267
0.99846229
1.0006823
1.0006872
1.0006932
1.0006983
1.0007032
1.0007071
1.000711
1.0007133
1.0007154
1.0007164
1.0007158
1.0007133
1.0007089
1.0007018
1.0006913
1.0006778
1.0006609
1.0006394
1.0006131
1.0005814
1.0005441
1.0005013
1.0004524
1.0003976
1.000337
1.000271
1.0001999
1.0001238
1.0000437
0.99996023
0.99987408
0.99978626
0.99969739
0.99960863
0.99952021
0.99943271
0.99934689
0.9992635
0.99918234
0.99910412
0.99902908
0.99895678
0.99888641
0.9988194
0.9987539
0.99869088
0.99862906
0.99856875
0.99850928
1.0006485
1.0006523
1.000657
1.0006609
1.0006645
1.0006673
1.00067
1.0006712
1.000672
1.0006719
1.0006701
1.0006665
1.0006611
1.000653
1.0006418
1.0006277
1.0006102
1.0005885
1.0005621
1.0005308
1.000494
1.0004521
1.0004045
1.0003513
1.0002926
1.000229
1.0001604
1.0000872
1.0000104
0.99993033
0.99984782
0.99976378
0.99967881
0.99959399
0.99950955
0.99942605
0.99934422
0.99926476
0.99918749
0.99911307
0.99904176
0.99897316
0.99890651
0.9988432
0.99878147
0.99872227
0.99866439
0.99860818
0.99855291
1.0006168
1.0006195
1.0006231
1.0006259
1.0006285
1.0006303
1.0006318
1.000632
1.0006318
1.0006307
1.0006279
1.0006233
1.000617
1.0006082
1.0005963
1.0005817
1.0005638
1.0005419
1.0005156
1.0004845
1.0004484
1.0004073
1.000361
1.0003093
1.0002525
1.000191
1.0001249
1.0000545
0.99998064
0.99990383
0.99982475
0.99974427
0.99966299
0.99958189
0.99950122
0.99942152
0.99934348
0.99926778
0.99919423
0.99912349
0.99905578
0.99899077
0.99892776
0.99886805
0.99881001
0.99875454
0.99870052
0.99864829
0.99859712
1.0005867
1.0005886
1.0005912
1.0005932
1.0005948
1.0005957
1.0005963
1.0005956
1.0005945
1.0005924
1.0005888
1.0005834
1.0005764
1.0005668
1.0005545
1.0005394
1.0005212
1.0004991
1.000473
1.0004422
1.0004067
1.0003666
1.0003214
1.0002712
1.0002162
1.0001567
1.000093
1.0000252
0.99995415
0.9998804
0.99980455
0.99972745
0.99964964
0.99957207
0.99949497
0.99941888
0.99934444
0.99927229
0.99920227
0.99913498
0.99907067
0.99900901
0.99894937
0.99889298
0.99883831
0.99878622
0.99873565
0.99868696
0.99863941
1.0005584
1.0005595
1.0005613
1.0005624
1.0005632
1.0005633
1.0005631
1.0005617
1.0005598
1.0005569
1.0005525
1.0005465
1.0005387
1.0005286
1.0005158
1.0005004
1.0004819
1.0004599
1.0004338
1.0004035
1.0003686
1.0003293
1.0002853
1.0002365
1.0001833
1.0001258
1.0000642
0.99999889
0.99993059
0.99985973
0.99978696
0.99971305
0.99963855
0.99956433
0.99949064
0.99941797
0.99934697
0.99927821
0.99921156
0.99914759
0.99908652
0.99902809
0.99897169
0.99891849
0.99886705
0.9988182
0.99877094
0.99872563
0.99868152
1.0005315
1.000532
1.0005331
1.0005335
1.0005336
1.000533
1.0005321
1.00053
1.0005274
1.0005238
1.0005188
1.0005121
1.0005038
1.0004932
1.0004801
1.0004643
1.0004457
1.0004237
1.0003978
1.0003679
1.0003337
1.0002953
1.0002524
1.000205
1.0001534
1.0000978
1.0000383
0.99997539
0.99990966
0.99984156
0.99977171
0.99970085
0.9996295
0.99955847
0.99948801
0.99941862
0.99935089
0.99928535
0.99922191
0.99916109
0.99910311
0.99904771
0.99899436
0.99894413
0.99889569
0.99884981
0.99880557
0.99876332
0.9987223
1.0005061
1.000506
1.0005064
1.0005062
1.0005057
1.0005045
1.000503
1.0005003
1.0004971
1.0004929
1.0004873
1.0004801
1.0004713
1.0004603
1.0004469
1.000431
1.0004123
1.0003903
1.0003647
1.0003352
1.0003017
1.0002641
1.0002223
1.0001763
1.0001262
1.0000724
1.000015
0.99995439
0.99989112
0.99982565
0.99975859
0.99969064
0.99962228
0.9995543
0.99948693
0.99942066
0.99935605
0.9992936
0.99923322
0.99917541
0.99912037
0.99906788
0.99901743
0.99897004
0.99892445
0.9988814
0.99884002
0.99880065
0.99876254
1.000482
1.0004814
1.0004812
1.0004805
1.0004794
1.0004777
1.0004756
1.0004724
1.0004687
1.0004639
1.0004579
1.0004502
1.000441
1.0004298
1.0004161
1.0004001
1.0003813
1.0003594
1.0003341
1.0003051
1.0002722
1.0002355
1.0001948
1.0001501
1.0001016
1.0000496
0.99999412
0.99993565
0.99987473
0.99981179
0.9997474
0.99968221
0.99961672
0.99955165
0.99948723
0.99942395
0.99936232
0.99930281
0.99924535
0.99919041
0.99913816
0.99908842
0.99904071
0.99899598
0.99895306
0.99891263
0.99887388
0.99883715
0.99880168
1.000459
1.000458
1.0004574
1.0004562
1.0004546
1.0004524
1.0004498
1.0004462
1.000442
1.0004368
1.0004303
1.0004223
1.0004128
1.0004013
1.0003874
1.0003713
1.0003526
1.0003309
1.0003058
1.0002773
1.0002451
1.0002093
1.0001697
1.0001263
1.0000793
1.0000289
0.99997535
0.99991897
0.99986031
0.99979979
0.99973794
0.99967541
0.99961265
0.99955036
0.99948877
0.99942834
0.99936955
0.99931285
0.99925818
0.99920597
0.9991564
0.99910927
0.99906417
0.99902196
0.99898157
0.99894362
0.99890734
0.99887309
0.99884009
1.0004372
1.0004358
1.0004347
1.0004331
1.0004311
1.0004286
1.0004255
1.0004215
1.0004169
1.0004113
1.0004045
1.0003962
1.0003864
1.0003747
1.0003607
1.0003446
1.0003259
1.0003044
1.0002797
1.0002517
1.0002202
1.0001852
1.0001466
1.0001045
1.000059
1.0000102
0.99995852
0.99990416
0.99984768
0.99978947
0.99973007
0.99967007
0.99960994
0.99955031
0.99949142
0.9994337
0.99937763
0.99932361
0.9992716
0.99922199
0.99917495
0.9991303
0.99908767
0.99904784
0.99900981
0.99897417
0.99894019
0.99890822
0.99887749
1.0004163
1.0004146
1.0004132
1.0004112
1.0004089
1.0004059
1.0004026
1.0003982
1.0003933
1.0003874
1.0003802
1.0003717
1.0003617
1.0003498
1.0003358
1.0003197
1.0003011
1.0002798
1.0002555
1.000228
1.0001972
1.0001631
1.0001256
1.0000847
1.0000406
0.99999342
0.99994348
0.99989106
0.99983666
0.99978068
0.99972362
0.99966606
0.99960843
0.99955134
0.99949503
0.99943991
0.99938644
0.99933498
0.9992855
0.99923837
0.99919374
0.99915145
0.99911116
0.99907357
0.99903778
0.99900432
0.9989725
0.99894266
0.99891405
1.0003964
1.0003944
1.0003926
1.0003904
1.0003877
1.0003845
1.0003808
1.0003762
1.0003709
1.0003648
1.0003574
1.0003486
1.0003385
1.0003265
1.0003125
1.0002964
1.000278
1.000257
1.0002331
1.0002061
1.000176
1.0001428
1.0001063
1.0000666
1.0000239
0.99997829
0.99993006
0.99987951
0.99982713
0.99977329
0.99971848
0.99966325
0.99960801
0.99955336
0.99949951
0.99944687
0.99939587
0.99934684
0.99929978
0.99925501
0.99921267
0.99917262
0.99913454
0.99909907
0.99906538
0.99903394
0.99900414
0.99897627
0.9989496
1.0003773
1.000375
1.000373
1.0003705
1.0003676
1.0003641
1.0003601
1.0003553
1.0003498
1.0003434
1.0003358
1.0003269
1.0003167
1.0003046
1.0002907
1.0002747
1.0002565
1.0002358
1.0002123
1.0001859
1.0001565
1.0001241
1.0000887
1.0000502
1.0000088
0.9999647
0.99991813
0.9998694
0.99981896
0.99976717
0.99971451
0.99966151
0.99960857
0.99955624
0.99950475
0.99945448
0.99940582
0.99935912
0.99931435
0.99927182
0.99923165
0.99919372
0.99915773
0.99912427
0.99909255
0.99906303
0.99903511
0.99900909
0.99898424
1.0003589
1.0003565
1.0003542
1.0003515
1.0003484
1.0003447
1.0003405
1.0003355
1.0003298
1.0003232
1.0003155
1.0003065
1.0002961
1.0002841
1.0002702
1.0002544
1.0002364
1.000216
1.000193
1.0001672
1.0001385
1.000107
1.0000725
1.0000352
0.99999514
0.99995253
0.99990757
0.99986059
0.99981202
0.9997622
0.99971162
0.99966076
0.99961001
0.9995599
0.99951065
0.99946263
0.99941622
0.99937172
0.99932913
0.99928872
0.99925061
0.99921468
0.99918067
0.99914909
0.99911923
0.9990915
0.99906533
0.99904103
0.99901785
1.0003412
1.0003386
1.0003362
1.0003333
1.00033
1.0003261
1.0003218
1.0003166
1.0003108
1.0003041
1.0002962
1.0002872
1.0002768
1.0002648
1.0002511
1.0002354
1.0002177
1.0001976
1.0001751
1.0001498
1.0001219
1.0000912
1.0000578
1.0000216
0.99998285
0.99994167
0.99989827
0.99985298
0.99980621
0.9997583
0.9997097
0.99966088
0.99961223
0.99956424
0.99951713
0.99947125
0.99942697
0.99938456
0.99934403
0.99930564
0.99926948
0.99923545
0.9992033
0.99917349
0.99914538
0.99911932
0.9990948
0.99907209
0.99905048
1.0003241
1.0003214
1.0003189
1.0003158
1.0003124
1.0003084
1.0003039
1.0002986
1.0002927
1.0002859
1.000278
1.0002689
1.0002586
1.0002467
1.000233
1.0002176
1.0002001
1.0001805
1.0001584
1.0001338
1.0001066
1.0000768
1.0000443
1.0000093
0.99997179
0.99993201
0.99989013
0.99984648
0.99980145
0.99975537
0.99970867
0.99966181
0.99961516
0.99956918
0.99952411
0.99948027
0.999438
0.99939758
0.999359
0.9993225
0.99928818
0.99925593
0.99922554
0.99919739
0.99917092
0.99914643
0.99912344
0.9991022
0.99908203
1.0003076
1.0003048
1.0003021
1.000299
1.0002954
1.0002913
1.0002868
1.0002814
1.0002754
1.0002686
1.0002607
1.0002517
1.0002414
1.0002296
1.0002161
1.0002009
1.0001838
1.0001645
1.0001429
1.0001189
1.0000925
1.0000635
1.0000321
0.99999814
0.99996189
0.99992346
0.99988307
0.999841
0.99979765
0.99975332
0.99970845
0.99966347
0.99961872
0.99957467
0.99953152
0.99948961
0.99944925
0.9994107
0.99937396
0.99933925
0.99930666
0.9992761
0.99924734
0.99922076
0.99919583
0.9991728
0.99915124
0.99913139
0.99911256
1.0002916
1.0002888
1.000286
1.0002828
1.0002792
1.000275
1.0002704
1.000265
1.000259
1.0002521
1.0002443
1.0002353
1.0002251
1.0002134
1.0002002
1.0001852
1.0001684
1.0001496
1.0001285
1.0001052
1.0000795
1.0000514
1.0000209
0.99998808
0.99995305
0.99991595
0.99987699
0.99983647
0.99979473
0.9997521
0.99970898
0.99966578
0.99962286
0.99958062
0.9995393
0.99949921
0.99946065
0.99942386
0.99938885
0.99935583
0.99932487
0.99929587
0.99926866
0.99924354
0.99922003
0.99919836
0.99917812
0.99915954
0.99914195
1.0002761
1.0002733
1.0002704
1.0002672
1.0002635
1.0002594
1.0002547
1.0002493
1.0002433
1.0002365
1.0002287
1.0002197
1.0002097
1.0001982
1.0001851
1.0001705
1.0001541
1.0001357
1.0001152
1.0000925
1.0000675
1.0000403
1.0000108
0.99997903
0.99994519
0.9999094
0.99987184
0.9998328
0.99979263
0.99975163
0.99971019
0.9996687
0.9996275
0.99958699
0.9995474
0.99950903
0.99947216
0.99943703
0.99940364
0.99937219
0.99934275
0.99931522
0.99928944
0.99926569
0.99924351
0.99922311
0.99920411
0.99918671
0.99917027
1.000261
1.0002582
1.0002554
1.0002521
1.0002484
1.0002443
1.0002396
1.0002343
1.0002283
1.0002215
1.0002138
1.000205
1.000195
1.0001838
1.000171
1.0001567
1.0001406
1.0001227
1.0001028
1.0000807
1.0000565
1.0000301
1.0000016
0.99997093
0.99993827
0.99990375
0.99986755
0.99982996
0.9997913
0.99975186
0.99971203
0.99967217
0.99963261
0.99959374
0.99955578
0.99951902
0.99948374
0.99945015
0.99941827
0.99938829
0.99936026
0.9993341
0.99930965
0.99928715
0.9992662
0.99924697
0.99922909
0.99921276
0.99919736
1.0002464
1.0002436
1.0002408
1.0002375
1.0002339
1.0002297
1.0002251
1.0002198
1.0002139
1.0002072
1.0001996
1.0001909
1.0001812
1.0001701
1.0001577
1.0001437
1.0001281
1.0001106
1.0000912
1.0000699
1.0000464
1.0000209
0.99999331
0.99996371
0.9999322
0.99989893
0.99986406
0.99982788
0.99979068
0.99975275
0.99971446
0.99967615
0.99963815
0.99960082
0.99956439
0.99952914
0.99949534
0.99946319
0.99943272
0.9994041
0.99937737
0.99935247
0.99932925
0.99930792
0.99928811
0.99926996
0.99925313
0.99923781
0.9992234
1.0002323
1.0002295
1.0002267
1.0002234
1.0002198
1.0002158
1.0002112
1.000206
1.0002001
1.0001935
1.0001861
1.0001776
1.000168
1.0001572
1.0001451
1.0001315
1.0001163
1.0000993
1.0000805
1.0000598
1.0000371
1.0000125
0.99998586
0.99995731
0.99992695
0.9998949
0.99986133
0.99982651
0.99979073
0.99975426
0.99971743
0.9996806
0.99964408
0.99960821
0.99957321
0.99953937
0.99950695
0.99947613
0.99944695
0.99941957
0.99939404
0.99937029
0.99934819
0.99932792
0.99930912
0.99929194
0.99927604
0.9992616
0.99924804
1.0002185
1.0002158
1.000213
1.0002098
1.0002063
1.0002023
1.0001978
1.0001927
1.0001869
1.0001805
1.0001732
1.0001649
1.0001556
1.000145
1.0001332
1.00012
1.0001052
1.0000888
1.0000706
1.0000506
1.0000287
1.0000049
0.9999792
0.9999517
0.99992246
0.99989161
0.99985931
0.99982582
0.99979141
0.99975634
0.99972093
0.99968551
0.99965038
0.99961588
0.99958223
0.9995497
0.99951854
0.99948894
0.99946095
0.99943471
0.99941026
0.99938756
0.99936647
0.99934716
0.99932931
0.99931304
0.99929803
0.99928444
0.99927171
1.0002052
1.0002025
1.0001998
1.0001967
1.0001933
1.0001893
1.0001849
1.0001799
1.0001743
1.000168
1.0001609
1.0001528
1.0001437
1.0001335
1.000122
1.0001092
1.0000949
1.000079
1.0000614
1.0000421
1.0000209
0.99999801
0.99997328
0.99994681
0.99991868
0.99988902
0.99985797
0.99982577
0.99979269
0.99975898
0.99972492
0.99969085
0.99965704
0.99962382
0.99959143
0.99956011
0.99953012
0.99950163
0.9994747
0.99944947
0.99942599
0.99940421
0.99938401
0.99936554
0.99934849
0.99933296
0.99931867
0.99930574
0.99929365
1.0001922
1.0001897
1.0001871
1.000184
1.0001807
1.0001768
1.0001726
1.0001677
1.0001622
1.0001561
1.0001491
1.0001413
1.0001325
1.0001226
1.0001114
1.000099
1.0000852
1.0000698
1.0000529
1.0000343
1.0000139
0.99999183
0.99996805
0.9999426
0.99991558
0.99988708
0.99985726
0.99982633
0.99979456
0.99976215
0.9997294
0.9996966
0.99966405
0.99963205
0.99960082
0.99957062
0.99954168
0.99951419
0.9994882
0.99946387
0.99944123
0.99942025
0.99940084
0.99938312
0.99936683
0.99935203
0.99933847
0.99932626
0.9993149
1.0001797
1.0001773
1.0001747
1.0001718
1.0001686
1.0001649
1.0001607
1.000156
1.0001507
1.0001447
1.000138
1.0001303
1.0001218
1.0001122
1.0001014
1.0000895
1.0000761
1.0000613
1.000045
1.0000271
1.0000075
0.99998631
0.99996347
0.99993905
0.99991312
0.99988578
0.99985716
0.99982748
0.99979697
0.99976584
0.99973435
0.99970278
0.99967142
0.99964056
0.99961042
0.99958124
0.99955325
0.99952663
0.99950146
0.99947787
0.99945593
0.99943561
0.99941684
0.99939969
0.99938395
0.99936965
0.99935654
0.99934474
0.99933375
1.0001676
1.0001653
1.0001629
1.00016
1.0001569
1.0001533
1.0001493
1.0001447
1.0001396
1.0001338
1.0001273
1.0001199
1.0001117
1.0001024
1.000092
1.0000805
1.0000676
1.0000534
1.0000377
1.0000205
1.0000017
0.99998141
0.99995951
0.99993611
0.99991126
0.99988507
0.99985764
0.9998292
0.99979993
0.99977004
0.99973976
0.99970938
0.99967917
0.99964939
0.99962026
0.999592
0.99956484
0.99953896
0.99951446
0.99949149
0.99947012
0.99945034
0.9994321
0.99941549
0.9994003
0.99938657
0.99937408
0.99936292
0.99935262
1.0001559
1.0001537
1.0001514
1.0001487
1.0001457
1.0001422
1.0001384
1.000134
1.0001291
1.0001235
1.0001172
1.0001101
1.0001021
1.0000932
1.0000832
1.000072
1.0000597
1.0000461
1.000031
1.0000145
0.99999656
0.99997709
0.99995614
0.99993375
0.99990998
0.99988493
0.99985869
0.99983146
0.99980342
0.99977474
0.99974566
0.99971643
0.99968732
0.99965857
0.99963036
0.99960293
0.99957648
0.99955122
0.99952725
0.99950473
0.99948376
0.99946433
0.99944641
0.99943006
0.9994151
0.99940153
0.99938915
0.99937803
0.99936771
1.0001445
1.0001424
1.0001402
1.0001377
1.0001348
1.0001315
1.0001279
1.0001237
1.0001189
1.0001136
1.0001075
1.0001007
1.000093
1.0000844
1.0000748
1.0000641
1.0000523
1.0000393
1.0000249
1.0000091
0.99999192
0.99997331
0.99995331
0.99993194
0.99990925
0.99988533
0.99986027
0.99983425
0.99980743
0.99977994
0.99975203
0.99972395
0.99969591
0.99966814
0.99964079
0.99961408
0.99958823
0.99956344
0.99953985
0.99951764
0.99949691
0.99947772
0.99946005
0.99944398
0.99942938
0.99941626
0.99940445
0.99939399
0.99938448
1.0001335
1.0001315
1.0001295
1.000127
1.0001243
1.0001212
1.0001177
1.0001137
1.0001092
1.0001041
1.0000983
1.0000918
1.0000844
1.0000762
1.000067
1.0000567
1.0000454
1.0000329
1.0000192
1.0000042
0.99998779
0.99997006
0.999951
0.99993065
0.99990905
0.99988626
0.99986237
0.99983756
0.99981194
0.99978565
0.99975891
0.99973196
0.99970498
0.99967815
0.99965159
0.99962552
0.99960015
0.9995757
0.99955233
0.99953024
0.99950956
0.99949034
0.99947258
0.99945636
0.99944151
0.99942806
0.99941578
0.99940476
0.99939455
1.0001228
1.0001209
1.000119
1.0001167
1.0001142
1.0001112
1.0001079
1.0001041
1.0000998
1.000095
1.0000895
1.0000833
1.0000763
1.0000684
1.0000596
1.0000498
1.000039
1.0000271
1.000014
0.99999972
0.99998415
0.9999673
0.99994919
0.99992987
0.99990935
0.99988769
0.99986499
0.99984139
0.99981698
0.99979188
0.99976633
0.99974052
0.99971459
0.99968865
0.99966283
0.99963731
0.99961233
0.9995881
0.99956481
0.99954269
0.99952189
0.99950254
0.99948468
0.99946846
0.99945379
0.99944073
0.99942912
0.99941898
0.99940999
1.0001124
1.0001107
1.0001088
1.0001067
1.0001043
1.0001015
1.0000984
1.0000948
1.0000908
1.0000862
1.000081
1.0000752
1.0000685
1.0000611
1.0000527
1.0000434
1.000033
1.0000217
1.0000093
0.99999573
0.99998097
0.999965
0.99994784
0.99992954
0.9999101
0.9998896
0.99986808
0.99984571
0.99982253
0.99979865
0.99977432
0.99974969
0.99972481
0.99969975
0.99967462
0.99964959
0.99962491
0.99960079
0.99957742
0.99955506
0.99953387
0.99951398
0.99949546
0.99947841
0.99946273
0.99944842
0.99943531
0.99942346
0.99941246
1.0001024
1.0001008
1.000099
1.000097
1.0000947
1.0000921
1.0000891
1.0000858
1.000082
1.0000777
1.0000729
1.0000674
1.0000611
1.0000541
1.0000462
1.0000373
1.0000275
1.0000167
1.000005
0.99999213
0.99997819
0.99996309
0.99994688
0.9999296
0.99991124
0.99989188
0.99987156
0.99985043
0.99982849
0.99980588
0.99978285
0.99975945
0.99973565
0.99971149
0.99968706
0.99966254
0.99963812
0.99961403
0.99959047
0.99956769
0.99954595
0.99952545
0.99950639
0.999489
0.99947335
0.99945955
0.99944754
0.99943729
0.9994286
1.0000927
1.0000912
1.0000895
1.0000876
1.0000855
1.000083
1.0000802
1.000077
1.0000735
1.0000695
1.0000649
1.0000598
1.000054
1.0000475
1.0000401
1.0000317
1.0000224
1.0000122
1.000001
0.99998893
0.99997582
0.9999616
0.99994636
0.99993012
0.99991287
0.99989467
0.99987553
0.99985563
0.99983491
0.99981357
0.99979187
0.99976971
0.99974701
0.99972378
0.99970011
0.99967615
0.99965206
0.99962801
0.99960417
0.99958079
0.99955811
0.99953635
0.99951569
0.99949631
0.99947821
0.99946145
0.99944589
0.99943167
0.99941834
1.0000836
1.0000821
1.0000805
1.0000786
1.0000766
1.0000742
1.0000716
1.0000686
1.0000652
1.0000615
1.0000573
1.0000525
1.0000472
1.0000411
1.0000343
1.0000265
1.0000178
1.0000081
0.99999757
0.99998619
0.99997394
0.99996065
0.99994643
0.99993128
0.9999152
0.9998982
0.99988032
0.99986172
0.99984228
0.99982228
0.99980196
0.99978104
0.99975941
0.99973708
0.99971418
0.99969077
0.99966697
0.9996429
0.99961871
0.99959466
0.99957105
0.99954822
0.99952655
0.99950648
0.99948835
0.99947248
0.99945906
0.99944801
0.99943943
1.0000747
1.0000733
1.0000718
1.00007
1.000068
1.0000658
1.0000633
1.0000604
1.0000573
1.0000538
1.0000498
1.0000454
1.0000405
1.000035
1.0000287
1.0000216
1.0000135
1.0000045
0.99999449
0.99998377
0.99997232
0.9999599
0.99994659
0.99993242
0.99991741
0.99990164
0.99988508
0.99986792
0.99984997
0.99983165
0.99981296
0.99979354
0.99977326
0.99975216
0.99973031
0.99970767
0.99968429
0.99966018
0.99963545
0.99961028
0.99958494
0.9995597
0.99953488
0.99951077
0.99948753
0.99946531
0.99944409
0.99942424
0.99940521
1.0000666
1.0000651
1.0000636
1.0000618
1.0000598
1.0000576
1.0000552
1.0000525
1.0000495
1.0000463
1.0000426
1.0000386
1.0000341
1.0000291
1.0000234
1.0000169
1.0000094
1.0000009
0.99999134
0.99998114
0.99997034
0.9999586
0.99994603
0.99993264
0.99991849
0.99990368
0.99988819
0.9998722
0.99985553
0.99983869
0.99982171
0.99980381
0.99978524
0.99976588
0.99974577
0.99972469
0.9997026
0.99967937
0.99965502
0.99962959
0.99960334
0.99957664
0.99955006
0.99952448
0.99950089
0.9994802
0.99946327
0.99945024
0.9994416
1.0000583
1.0000568
1.0000552
1.0000534
1.0000516
1.0000496
1.0000474
1.000045
1.0000424
1.0000394
1.0000361
1.0000324
1.0000283
1.0000236
1.0000183
1.0000123
1.0000055
0.99999763
0.99998877
0.99997928
0.99996942
0.99995876
0.99994742
0.99993543
0.99992267
0.99990903
0.99989451
0.99987951
0.99986362
0.99984737
0.99983164
0.99981438
0.99979677
0.99977827
0.99975924
0.99973909
0.99971797
0.99969537
0.99967142
0.99964578
0.9996187
0.99959005
0.99955998
0.9995284
0.99949557
0.99946139
0.99942652
0.99939103
0.99935674
1.0000513
1.0000498
1.0000482
1.0000465
1.0000446
1.0000425
1.0000403
1.0000378
1.0000352
1.0000323
1.0000292
1.0000258
1.000022
1.0000179
1.0000134
1.0000085
1.0000029
0.99999654
0.99998883
0.99998034
0.99997207
0.9999633
0.99995407
0.99994437
0.99993402
0.99992283
0.99991081
0.99989848
0.99988508
0.99987213
0.99985801
0.99984303
0.99982697
0.99980976
0.99979172
0.99977219
0.99975142
0.9997285
0.99970371
0.99967599
0.99964597
0.99961307
0.9995786
0.99954359
0.99950995
0.99947955
0.99945662
0.99943942
0.99943605
1.0000433
1.0000407
1.0000382
1.0000358
1.0000337
1.0000316
1.0000297
1.0000278
1.0000258
1.0000237
1.0000213
1.0000186
1.0000157
1.0000126
1.0000089
1.0000047
0.9999999
0.99999394
0.99998602
0.99997718
0.99996889
0.99996
0.99995036
0.99994007
0.99992939
0.99991877
0.99990814
0.99989768
0.9998869
0.99988114
0.99986688
0.99985829
0.9998463
0.99983571
0.99982263
0.99980964
0.99979427
0.99977789
0.9997587
0.99973724
0.99971189
0.9996824
0.99964433
0.99959971
0.99954387
0.99947689
0.99939758
0.99930454
0.99921225
1.0000359
1.0000344
1.0000329
1.0000322
1.0000316
1.0000311
1.0000302
1.0000291
1.0000276
1.0000257
1.0000233
1.0000203
1.0000163
1.0000114
1.0000056