/*--------------------------------*- C++ -*----------------------------------*\
| =========                 |                                                 |
| \\      /  F ield         | OpenFOAM: The Open Source CFD Toolbox           |
|  \\    /   O peration     | Version:  v2006                                 |
|   \\  /    A nd           | Website:  www.openfoam.com                      |
|    \\/     M anipulation  |                                                 |
\*---------------------------------------------------------------------------*/
FoamFile
{
    version     2.0;
    format      ascii;
    class       volScalarField;
    location    "1000";
    object      T;
}
// * * * * * * * * * * * * * * * * * * * * * * * * * * * * * * * * * * * * * //

dimensions      [0 0 0 1 0 0 0];


internalField   nonuniform List<scalar> 
19765
(
1.000252
1.0003185
1.0004559
1.0006063
1.0007339
1.0008477
1.0009589
1.0010535
1.0011385
1.0012158
1.0012785
1.0013263
1.0013609
1.0013846
1.0013981
1.0014021
1.0013957
1.0013797
1.0013544
1.0013192
1.0012753
1.0012249
1.0011664
1.0010945
1.0010129
1.000931
1.0008475
1.0007506
1.0006464
1.0005424
1.0004282
1.0002985
1.0001427
0.99997758
0.99984302
0.99972338
0.99956608
0.99939671
0.99924986
0.99906289
0.99883532
0.99869346
0.99859547
0.99850703
0.99851863
0.99855531
0.99865323
0.99879767
0.99893693
1.0005275
1.0005849
1.0006506
1.0007248
1.0008018
1.0008762
1.0009473
1.0010124
1.0010722
1.0011282
1.0011788
1.0012217
1.0012568
1.001284
1.001302
1.0013117
1.0013142
1.0013081
1.0012918
1.0012653
1.0012292
1.0011839
1.0011294
1.0010657
1.0009938
1.0009146
1.0008277
1.0007329
1.0006306
1.0005213
1.0004058
1.0002851
1.0001622
1.0000389
0.99991394
0.99978688
0.99966084
0.99953818
0.99941934
0.9993088
0.99921711
0.99913315
0.9990537
0.99898461
0.99892162
0.99887068
0.99882983
0.99879403
0.99876051
1.0004831
1.0005346
1.0005948
1.0006598
1.0007241
1.0007869
1.0008468
1.0009032
1.0009553
1.0010058
1.0010517
1.0010914
1.0011254
1.0011527
1.0011714
1.0011832
1.0011891
1.0011872
1.0011762
1.0011558
1.0011267
1.0010894
1.0010426
1.0009866
1.0009235
1.0008538
1.0007756
1.0006892
1.0005958
1.0004954
1.0003888
1.0002776
1.0001636
1.0000481
0.99993015
0.99981112
0.99969358
0.9995776
0.99946445
0.99935802
0.9992575
0.99916059
0.99907228
0.99899524
0.99892669
0.998866
0.99881423
0.99877032
0.99873324
1.0005183
1.0005572
1.000597
1.0006385
1.0006806
1.0007223
1.0007631
1.000802
1.0008394
1.0008758
1.0009095
1.0009395
1.0009659
1.0009876
1.001003
1.0010133
1.001019
1.0010185
1.0010103
1.0009943
1.0009706
1.0009396
1.0009009
1.0008543
1.0008011
1.0007418
1.0006751
1.0006017
1.0005225
1.0004379
1.0003488
1.0002566
1.000163
1.0000689
0.99997324
0.99987718
0.99978345
0.99969202
0.99960302
0.99951958
0.99944146
0.99936433
0.99929
0.9992195
0.99915154
0.99908734
0.99902321
0.99895959
0.99889568
1.0005073
1.00054
1.0005731
1.0006064
1.0006393
1.0006717
1.0007032
1.0007334
1.0007623
1.0007905
1.0008168
1.0008405
1.0008614
1.0008787
1.0008912
1.0008996
1.0009042
1.0009035
1.0008963
1.0008822
1.0008612
1.0008337
1.0007993
1.0007577
1.0007098
1.0006562
1.0005963
1.0005305
1.0004597
1.0003843
1.0003053
1.0002238
1.0001413
1.0000585
0.99997509
0.999892
0.99981113
0.99973235
0.99965592
0.99958369
0.99951503
0.99944687
0.99938114
0.99931696
0.99925416
0.99919252
0.99913159
0.99907282
0.99901697
1.0004979
1.0005226
1.0005474
1.0005725
1.0005973
1.0006217
1.0006457
1.0006688
1.0006912
1.0007132
1.0007337
1.0007522
1.0007685
1.000782
1.0007915
1.0007975
1.0008003
1.0007986
1.0007913
1.0007779
1.0007582
1.0007328
1.0007012
1.0006631
1.0006192
1.0005703
1.0005158
1.000456
1.0003919
1.0003238
1.0002527
1.0001796
1.0001056
1.0000315
0.9999572
0.99988343
0.99981156
0.99974173
0.99967404
0.99960968
0.99954835
0.9994882
0.99942959
0.9993727
0.9993164
0.99926098
0.99920524
0.99914929
0.99909351
1.000477
1.0004976
1.0005181
1.0005386
1.0005586
1.0005781
1.0005971
1.0006154
1.0006331
1.0006505
1.0006667
1.0006811
1.0006938
1.0007041
1.0007111
1.0007151
1.0007163
1.0007135
1.0007057
1.0006927
1.0006742
1.0006505
1.0006213
1.0005863
1.000546
1.0005011
1.0004512
1.0003965
1.000338
1.000276
1.0002113
1.0001448
1.0000775
1.00001
0.99994253
0.99987552
0.99981012
0.9997464
0.99968447
0.99962524
0.99956839
0.99951224
0.99945746
0.9994035
0.99934997
0.99929654
0.99924259
0.99918814
0.99913354
1.0004572
1.0004735
1.0004898
1.0005062
1.000522
1.0005375
1.0005527
1.0005672
1.0005812
1.000595
1.0006078
1.0006191
1.0006289
1.0006366
1.0006415
1.0006437
1.0006434
1.0006396
1.0006314
1.0006185
1.0006007
1.0005781
1.0005507
1.0005178
1.0004803
1.0004384
1.0003921
1.0003415
1.0002874
1.0002303
1.0001707
1.0001096
1.0000477
0.99998581
0.99992393
0.99986257
0.99980265
0.99974429
0.99968756
0.99963317
0.99958092
0.99952961
0.99947944
0.99943028
0.99938146
0.99933292
0.99928393
0.99923444
0.99918446
1.0004351
1.0004486
1.0004622
1.0004756
1.0004886
1.0005011
1.0005134
1.0005251
1.0005363
1.0005473
1.0005574
1.0005662
1.0005736
1.0005792
1.0005823
1.0005831
1.0005815
1.0005768
1.0005681
1.0005553
1.000538
1.0005164
1.0004903
1.0004594
1.0004242
1.0003851
1.0003418
1.0002948
1.0002445
1.0001915
1.0001363
1.0000796
1.0000223
0.99996486
0.99990747
0.99985053
0.99979484
0.99974049
0.99968756
0.99963665
0.99958758
0.99953929
0.99949209
0.99944563
0.99939953
0.99935353
0.99930709
0.9992601
0.99921268
1.000414
1.000425
1.000436
1.000447
1.0004576
1.0004678
1.0004777
1.0004871
1.0004961
1.0005049
1.0005128
1.0005196
1.0005251
1.000529
1.0005306
1.0005302
1.0005275
1.000522
1.000513
1.0005001
1.0004832
1.0004623
1.0004374
1.0004081
1.0003748
1.0003378
1.0002971
1.000253
1.0002059
1.0001563
1.0001047
1.0000518
0.99999827
0.99994466
0.99989111
0.99983801
0.99978604
0.99973533
0.99968595
0.9996384
0.99959259
0.99954767
0.99950378
0.99946077
0.99941817
0.99937585
0.99933328
0.99929032
0.999247
1.0003931
1.0004022
1.0004113
1.0004204
1.0004291
1.0004375
1.0004455
1.0004532
1.0004604
1.0004674
1.0004735
1.0004786
1.0004826
1.000485
1.0004855
1.0004839
1.0004804
1.0004742
1.0004648
1.0004519
1.0004353
1.0004151
1.0003911
1.0003632
1.0003315
1.0002965
1.000258
1.0002164
1.0001721
1.0001255
1.0000771
1.0000274
0.99997716
0.99992682
0.99987653
0.99982664
0.99977777
0.99973004
0.99968351
0.99963865
0.99959537
0.99955291
0.99951149
0.99947087
0.99943072
0.99939086
0.99935085
0.99931054
0.99927
1.0003732
1.0003807
1.0003882
1.0003957
1.0004028
1.0004097
1.0004163
1.0004224
1.0004282
1.0004337
1.0004384
1.0004421
1.0004448
1.000446
1.0004455
1.000443
1.0004387
1.000432
1.0004223
1.0004094
1.0003931
1.0003734
1.0003503
1.0003235
1.0002932
1.0002599
1.0002234
1.0001839
1.000142
1.000098
1.0000523
1.0000054
0.99995805
0.99991057
0.99986314
0.99981612
0.99977004
0.99972504
0.9996812
0.99963891
0.99959814
0.99955826
0.99951941
0.99948145
0.99944404
0.99940707
0.9993701
0.99933302
0.99929583
1.0003541
1.0003603
1.0003665
1.0003728
1.0003786
1.0003842
1.0003896
1.0003945
1.000399
1.0004033
1.0004069
1.0004094
1.000411
1.0004113
1.0004098
1.0004067
1.0004018
1.0003945
1.0003846
1.0003716
1.0003556
1.0003364
1.000314
1.0002883
1.0002593
1.0002274
1.0001926
1.0001551
1.0001154
1.0000736
1.0000303
0.99998601
0.99994117
0.99989623
0.99985135
0.99980684
0.99976322
0.99972061
0.99967908
0.999639
0.99960037
0.9995626
0.99952587
0.99949002
0.99945479
0.99942005
0.99938543
0.99935081
0.99931623
1.0003361
1.0003412
1.0003464
1.0003515
1.0003563
1.0003608
1.0003651
1.000369
1.0003726
1.0003758
1.0003783
1.00038
1.0003806
1.0003801
1.0003779
1.0003741
1.0003687
1.000361
1.0003509
1.000338
1.0003222
1.0003035
1.0002817
1.0002569
1.0002291
1.0001985
1.0001653
1.0001295
1.0000916
1.0000519
1.0000108
0.99996872
0.99992616
0.99988351
0.99984092
0.99979871
0.99975735
0.99971695
0.9996776
0.99963964
0.99960307
0.99956741
0.9995328
0.99949913
0.99946615
0.99943376
0.99940163
0.99936963
0.99933782
1.000319
1.0003232
1.0003275
1.0003317
1.0003356
1.0003393
1.0003427
1.0003457
1.0003484
1.0003508
1.0003525
1.0003533
1.0003532
1.0003519
1.0003491
1.0003448
1.0003389
1.000331
1.0003207
1.0003078
1.0002922
1.0002739
1.0002528
1.0002288
1.000202
1.0001727
1.0001408
1.0001066
1.0000705
1.0000326
0.99999349
0.99995345
0.99991296
0.99987239
0.9998319
0.99979178
0.99975247
0.99971408
0.9996767
0.99964065
0.99960594
0.99957214
0.99953939
0.9995076
0.99947654
0.99944613
0.99941609
0.99938628
0.99935678
1.000303
1.0003064
1.0003099
1.0003133
1.0003164
1.0003193
1.000322
1.0003243
1.0003263
1.0003279
1.0003288
1.000329
1.0003282
1.0003263
1.0003231
1.0003183
1.000312
1.0003039
1.0002934
1.0002806
1.0002653
1.0002474
1.0002268
1.0002036
1.0001778
1.0001495
1.000119
1.0000862
1.0000516
1.0000155
0.99997813
0.99993995
0.99990136
0.99986271
0.99982415
0.99978597
0.99974857
0.99971207
0.99967655
0.99964232
0.9996094
0.9995774
0.99954648
0.99951654
0.99948738
0.99945895
0.99943098
0.99940336
0.99937616
1.0002878
1.0002906
1.0002934
1.0002961
1.0002986
1.0003009
1.0003029
1.0003046
1.0003059
1.0003069
1.0003072
1.0003068
1.0003055
1.0003031
1.0002994
1.0002943
1.0002877
1.0002793
1.0002688
1.0002561
1.0002409
1.0002234
1.0002034
1.0001809
1.0001559
1.0001287
1.0000993
1.0000679
1.0000348
1.0000002
0.99996452
0.99992807
0.99989124
0.99985437
0.99981761
0.99978123
0.99974561
0.99971086
0.99967708
0.99964454
0.99961327
0.99958293
0.99955366
0.99952539
0.99949795
0.99947126
0.99944512
0.9994194
0.9993942
1.0002735
1.0002757
1.000278
1.0002802
1.0002821
1.0002838
1.0002853
1.0002864
1.0002872
1.0002876
1.0002874
1.0002864
1.0002846
1.0002818
1.0002777
1.0002723
1.0002655
1.0002569
1.0002464
1.0002338
1.0002189
1.0002017
1.0001823
1.0001604
1.0001363
1.00011
1.0000817
1.0000516
1.0000198
0.99998664
0.99995249
0.99991764
0.99988246
0.99984725
0.99981218
0.99977749
0.99974354
0.99971046
0.99967832
0.99964738
0.9996177
0.99958895
0.99956128
0.99953462
0.99950883
0.99948384
0.99945946
0.99943558
0.9994123
1.0002601
1.0002618
1.0002635
1.0002652
1.0002667
1.0002679
1.0002689
1.0002695
1.0002698
1.0002698
1.0002691
1.0002677
1.0002655
1.0002623
1.0002579
1.0002522
1.0002452
1.0002366
1.000226
1.0002135
1.0001988
1.000182
1.0001631
1.0001418
1.0001185
1.0000932
1.0000659
1.0000369
1.0000064
0.99997459
0.99994188
0.99990854
0.9998749
0.99984125
0.99980776
0.99977466
0.9997423
0.99971078
0.99968019
0.99965077
0.99962257
0.99959531
0.99956913
0.99954396
0.99951968
0.99949623
0.99947345
0.99945121
0.99942963
1.0002474
1.0002487
1.00025
1.0002513
1.0002523
1.0002531
1.0002537
1.0002539
1.0002538
1.0002533
1.0002523
1.0002505
1.0002479
1.0002444
1.0002397
1.0002338
1.0002267
1.0002179
1.0002074
1.000195
1.0001806
1.0001641
1.0001456
1.000125
1.0001024
1.0000779
1.0000516
1.0000237
0.99999439
0.9999639
0.99993255
0.99990062
0.99986843
0.99983626
0.99980427
0.99977268
0.99974182
0.99971178
0.99968267
0.99965469
0.99962792
0.99960208
0.99957732
0.99955358
0.99953074
0.99950876
0.99948749
0.99946681
0.99944684
1.0002354
1.0002364
1.0002373
1.0002382
1.0002388
1.0002393
1.0002395
1.0002393
1.0002389
1.000238
1.0002366
1.0002345
1.0002316
1.0002279
1.000223
1.0002169
1.0002096
1.0002008
1.0001903
1.000178
1.0001639
1.0001478
1.0001298
1.0001097
1.0000878
1.0000642
1.0000388
1.0000119
0.99998372
0.99995444
0.99992437
0.99989378
0.99986297
0.9998322
0.99980162
0.99977147
0.99974202
0.9997134
0.99968569
0.99965909
0.99963366
0.99960917
0.99958574
0.99956333
0.99954183
0.99952121
0.99950132
0.99948205
0.99946353
1.0002241
1.0002247
1.0002253
1.0002259
1.0002262
1.0002263
1.0002262
1.0002258
1.000225
1.0002238
1.0002221
1.0002197
1.0002166
1.0002126
1.0002075
1.0002013
1.0001939
1.0001851
1.0001747
1.0001625
1.0001486
1.0001329
1.0001153
1.0000958
1.0000746
1.0000517
1.0000272
1.0000013
0.99997421
0.99994609
0.99991723
0.99988791
0.9998584
0.99982896
0.99979974
0.99977094
0.99974286
0.99971558
0.99968921
0.99966392
0.99963977
0.99961656
0.9995944
0.99957326
0.99955304
0.99953369
0.9995151
0.99949716
0.99948
1.0002134
1.0002138
1.0002141
1.0002143
1.0002144
1.0002142
1.0002138
1.0002131
1.000212
1.0002106
1.0002086
1.000206
1.0002026
1.0001984
1.0001932
1.0001869
1.0001794
1.0001706
1.0001602
1.0001483
1.0001346
1.0001192
1.0001021
1.0000832
1.0000626
1.0000405
1.0000168
0.99999186
0.99996576
0.99993873
0.99991103
0.99988292
0.99985466
0.99982648
0.99979854
0.99977105
0.99974425
0.99971826
0.99969316
0.99966912
0.99964619
0.99962419
0.99960324
0.99958329
0.99956425
0.99954609
0.99952871
0.99951198
0.99949605
1.0002032
1.0002034
1.0002034
1.0002035
1.0002033
1.0002028
1.0002022
1.0002012
1.0001999
1.0001982
1.000196
1.0001932
1.0001896
1.0001853
1.0001799
1.0001735
1.000166
1.0001572
1.000147
1.0001352
1.0001218
1.0001067
1.00009
1.0000717
1.0000517
1.0000303
1.0000075
0.99998339
0.99995826
0.99993228
0.99990568
0.99987872
0.99985164
0.99982468
0.99979797
0.99977171
0.99974615
0.99972139
0.99969749
0.99967464
0.99965288
0.99963204
0.99961223
0.9995934
0.99957549
0.99955845
0.99954219
0.99952661
0.99951182
1.0001936
1.0001935
1.0001934
1.0001932
1.0001928
1.0001921
1.0001913
1.0001901
1.0001886
1.0001867
1.0001843
1.0001812
1.0001775
1.000173
1.0001676
1.0001612
1.0001536
1.0001449
1.0001347
1.0001231
1.00011
1.0000953
1.000079
1.0000612
1.0000418
1.0000211
0.99999903
0.99997582
0.99995163
0.99992664
0.99990111
0.99987524
0.9998493
0.99982348
0.99979795
0.99977287
0.99974849
0.99972489
0.99970216
0.99968044
0.99965979
0.99964005
0.99962131
0.99960355
0.99958669
0.9995707
0.99955548
0.99954094
0.99952721
1.0001845
1.0001842
1.0001839
1.0001835
1.0001829
1.000182
1.000181
1.0001796
1.0001779
1.0001758
1.0001732
1.0001701
1.0001662
1.0001616
1.0001561
1.0001496
1.0001421
1.0001334
1.0001234
1.000112
1.0000991
1.0000848
1.0000689
1.0000516
1.0000328
1.0000128
0.99999146
0.99996908
0.99994578
0.99992175
0.99989722
0.99987241
0.99984755
0.99982284
0.99979842
0.99977448
0.99975122
0.99972874
0.99970711
0.99968647
0.99966687
0.99964818
0.99963046
0.99961371
0.99959785
0.99958283
0.9995686
0.99955504
0.99954228
1.0001758
1.0001753
1.0001748
1.0001743
1.0001735
1.0001725
1.0001713
1.0001697
1.0001679
1.0001656
1.0001629
1.0001596
1.0001557
1.000151
1.0001454
1.0001389
1.0001315
1.0001228
1.0001129
1.0001017
1.0000891
1.0000751
1.0000597
1.0000428
1.0000247
1.0000052
0.99998467
0.99996308
0.99994064
0.99991753
0.99989397
0.99987016
0.99984634
0.99982268
0.99979934
0.99977647
0.99975429
0.99973287
0.99971229
0.99969269
0.99967409
0.99965638
0.99963964
0.99962384
0.99960891
0.99959481
0.99958149
0.99956883
0.99955698
1.0001674
1.0001669
1.0001663
1.0001655
1.0001646
1.0001635
1.0001621
1.0001604
1.0001584
1.0001561
1.0001532
1.0001498
1.0001458
1.000141
1.0001354
1.000129
1.0001215
1.000113
1.0001032
1.0000922
1.0000799
1.0000662
1.0000512
1.0000349
1.0000172
0.99999846
0.99997859
0.99995777
0.99993616
0.99991393
0.99989129
0.99986845
0.99984561
0.99982297
0.99980064
0.9997788
0.99975764
0.99973724
0.99971767
0.99969905
0.99968141
0.99966464
0.99964882
0.99963391
0.99961986
0.99960663
0.99959416
0.99958235
0.99957132
1.0001595
1.0001588
1.0001581
1.0001572
1.0001561
1.0001549
1.0001534
1.0001516
1.0001495
1.000147
1.0001441
1.0001406
1.0001365
1.0001317
1.0001261
1.0001197
1.0001123
1.0001038
1.0000943
1.0000835
1.0000714
1.0000581
1.0000435
1.0000276
1.0000105
0.99999235
0.99997316
0.99995308
0.99993226
0.99991088
0.99988913
0.99986721
0.99984532
0.99982364
0.99980229
0.99978144
0.99976125
0.99974182
0.9997232
0.99970551
0.99968878
0.9996729
0.99965795
0.99964389
0.99963067
0.99961825
0.99960657
0.99959554
0.99958529
1.0001519
1.0001511
1.0001502
1.0001493
1.0001481
1.0001467
1.0001451
1.0001433
1.000141
1.0001385
1.0001355
1.0001319
1.0001278
1.000123
1.0001174
1.000111
1.0001037
1.0000953
1.0000859
1.0000754
1.0000636
1.0000506
1.0000364
1.000021
1.0000044
0.99998686
0.99996832
0.99994896
0.99992891
0.99990834
0.99988745
0.99986641
0.99984542
0.99982466
0.99980424
0.99978433
0.99976507
0.99974656
0.99972886
0.99971205
0.99969618
0.99968115
0.99966702
0.99965376
0.99964131
0.99962965
0.99961873
0.99960843
0.99959889
1.0001445
1.0001437
1.0001427
1.0001417
1.0001404
1.000139
1.0001373
1.0001353
1.000133
1.0001304
1.0001273
1.0001237
1.0001196
1.0001148
1.0001092
1.0001028
1.0000956
1.0000874
1.0000782
1.0000678
1.0000564
1.0000437
1.0000299
1.0000149
0.99999893
0.99998193
0.99996404
0.99994536
0.99992605
0.99990626
0.99988619
0.99986599
0.99984587
0.99982599
0.99980646
0.99978744
0.99976907
0.99975144
0.99973459
0.99971863
0.99970357
0.99968934
0.99967599
0.99966348
0.99965177
0.99964082
0.99963059
0.99962097
0.99961209
1.0001375
1.0001366
1.0001355
1.0001344
1.0001331
1.0001316
1.0001298
1.0001278
1.0001254
1.0001228
1.0001196
1.000116
1.0001118
1.000107
1.0001015
1.0000952
1.0000881
1.0000801
1.000071
1.0000609
1.0000497
1.0000374
1.000024
1.0000095
0.99999396
0.99997753
0.99996025
0.99994224
0.99992364
0.99990461
0.99988532
0.99986593
0.99984664
0.99982759
0.99980891
0.99979074
0.99977321
0.99975641
0.99974039
0.99972522
0.99971094
0.99969746
0.99968484
0.99967304
0.99966202
0.99965174
0.99964216
0.99963317
0.9996249
1.0001307
1.0001297
1.0001286
1.0001274
1.0001261
1.0001245
1.0001227
1.0001206
1.0001182
1.0001155
1.0001124
1.0001087
1.0001046
1.0000998
1.0000943
1.0000881
1.0000811
1.0000732
1.0000643
1.0000545
1.0000435
1.0000316
1.0000185
1.0000045
0.99998949
0.99997361
0.99995693
0.99993957
0.99992166
0.99990334
0.9998848
0.99986619
0.99984768
0.99982944
0.99981156
0.9997942
0.99977747
0.99976146
0.99974621
0.9997318
0.99971824
0.99970549
0.99969355
0.99968242
0.99967205
0.99966239
0.99965341
0.99964501
0.99963731
1.0001241
1.0001231
1.000122
1.0001207
1.0001193
1.0001177
1.0001159
1.0001138
1.0001113
1.0001086
1.0001054
1.0001018
1.0000977
1.0000929
1.0000875
1.0000814
1.0000745
1.0000668
1.0000581
1.0000485
1.0000379
1.0000262
1.0000136
1
0.99998548
0.99997013
0.99995404
0.9999373
0.99992005
0.99990243
0.99988461
0.99986673
0.99984898
0.9998315
0.99981439
0.99979779
0.99978182
0.99976656
0.99975204
0.99973834
0.99972548
0.99971339
0.9997021
0.9996916
0.99968182
0.99967275
0.99966433
0.99965648
0.9996493
1.0001177
1.0001167
1.0001156
1.0001143
1.0001129
1.0001112
1.0001093
1.0001072
1.0001048
1.000102
1.0000989
1.0000953
1.0000912
1.0000865
1.0000812
1.0000752
1.0000684
1.0000608
1.0000524
1.000043
1.0000326
1.0000214
1.0000091
0.99999593
0.99998189
0.99996707
0.99995154
0.99993541
0.9999188
0.99990185
0.99988471
0.99986754
0.99985051
0.99983375
0.99981737
0.9998015
0.99978625
0.99977169
0.99975786
0.99974483
0.99973261
0.99972115
0.99971047
0.99970054
0.99969133
0.99968279
0.9996749
0.99966755
0.99966086
1.0001116
1.0001105
1.0001094
1.0001081
1.0001066
1.000105
1.0001031
1.000101
1.0000985
1.0000958
1.0000926
1.0000891
1.000085
1.0000804
1.0000752
1.0000693
1.0000627
1.0000553
1.000047
1.0000379
1.0000278
1.0000169
1.000005
0.99999227
0.99997871
0.9999644
0.99994942
0.99993387
0.99991788
0.99990156
0.99988509
0.9998686
0.99985225
0.99983617
0.99982049
0.9998053
0.99979072
0.99977682
0.99976364
0.99975123
0.99973961
0.99972874
0.99971862
0.99970924
0.99970055
0.99969251
0.9996851
0.99967822
0.99967197
1.0001056
1.0001046
1.0001034
1.0001021
1.0001006
1.000099
1.0000971
1.000095
1.0000925
1.0000898
1.0000867
1.0000832
1.0000792
1.0000746
1.0000695
1.0000637
1.0000573
1.0000501
1.000042
1.0000332
1.0000234
1.0000128
1.0000013
0.99998899
0.99997589
0.99996208
0.99994764
0.99993266
0.99991726
0.99990156
0.99988572
0.99986987
0.99985417
0.99983875
0.99982372
0.99980918
0.99979523
0.99978195
0.99976936
0.99975753
0.99974647
0.99973613
0.99972654
0.99971765
0.99970944
0.99970186
0.9996949
0.99968844
0.99968259
1.0000998
1.0000988
1.0000976
1.0000963
1.0000948
1.0000932
1.0000913
1.0000892
1.0000868
1.0000841
1.0000811
1.0000776
1.0000736
1.0000692
1.0000642
1.0000585
1.0000522
1.0000452
1.0000374
1.0000288
1.0000194
1.0000091
0.99999797
0.99998606
0.99997341
0.99996009
0.99994618
0.99993175
0.99991692
0.99990182
0.99988658
0.99987135
0.99985628
0.99984148
0.99982705
0.99981311
0.99979976
0.99978704
0.99977501
0.9997637
0.99975315
0.99974331
0.99973418
0.99972575
0.99971798
0.99971083
0.99970427
0.99969821
0.99969274
1.0000941
1.0000931
1.000092
1.0000907
1.0000892
1.0000876
1.0000858
1.0000837
1.0000813
1.0000787
1.0000757
1.0000723
1.0000684
1.0000641
1.0000592
1.0000537
1.0000475
1.0000407
1.0000331
1.0000248
1.0000156
1.0000057
0.99999496
0.99998347
0.99997127
0.99995843
0.99994502
0.99993113
0.99991686
0.99990232
0.99988767
0.99987303
0.99985854
0.99984433
0.99983048
0.9998171
0.99980428
0.99979208
0.99978054
0.99976972
0.99975962
0.99975022
0.99974153
0.99973351
0.99972613
0.99971936
0.99971316
0.99970745
0.9997023
1.0000886
1.0000876
1.0000865
1.0000852
1.0000838
1.0000822
1.0000804
1.0000784
1.0000761
1.0000735
1.0000705
1.0000672
1.0000634
1.0000592
1.0000544
1.0000491
1.0000431
1.0000365
1.0000291
1.0000211
1.0000122
1.0000026
0.99999227
0.99998118
0.99996942
0.99995705
0.99994415
0.99993078
0.99991704
0.99990306
0.99988896
0.99987489
0.99986097
0.9998473
0.99983399
0.99982111
0.99980878
0.99979704
0.99978595
0.99977555
0.99976586
0.99975686
0.99974855
0.9997409
0.99973388
0.99972746
0.9997216
0.99971621
0.99971138
1.0000832
1.0000823
1.0000812
1.00008
1.0000786
1.000077
1.0000753
1.0000733
1.000071
1.0000685
1.0000656
1.0000624
1.0000587
1.0000546
1.00005
1.0000448
1.000039
1.0000326
1.0000255
1.0000177
1.0000091
0.99999986
0.99998987
0.99997919
0.99996786
0.99995596
0.99994354
0.99993068
0.99991747
0.99990402
0.99989047
0.99987694
0.99986355
0.99985039
0.99983756
0.99982514
0.99981323
0.9998019
0.9997912
0.99978118
0.99977185
0.99976319
0.99975521
0.99974789
0.99974119
0.99973506
0.99972948
0.99972437
0.9997198
1.000078
1.000077
1.000076
1.0000748
1.0000735
1.000072
1.0000703
1.0000683
1.0000662
1.0000637
1.0000609
1.0000578
1.0000542
1.0000502
1.0000457
1.0000407
1.0000351
1.0000289
1.0000221
1.0000145
1.0000063
0.99999737
0.99998775
0.99997747
0.99996658
0.99995513
0.9999432
0.99993083
0.99991813
0.99990519
0.99989217
0.99987916
0.99986627
0.99985358
0.99984118
0.99982917
0.99981763
0.99980666
0.99979629
0.99978659
0.99977757
0.99976922
0.99976154
0.99975451
0.99974809
0.99974224
0.99973694
0.9997321
0.99972779
1.0000728
1.0000719
1.0000709
1.0000698
1.0000685
1.000067
1.0000654
1.0000636
1.0000615
1.0000591
1.0000564
1.0000534
1.00005
1.0000461
1.0000418
1.0000369
1.0000315
1.0000255
1.0000189
1.0000116
1.0000037
0.99999515
0.9999859
0.99997601
0.99996555
0.99995455
0.9999431
0.99993122
0.99991901
0.99990658
0.99989407
0.99988156
0.99986913
0.99985687
0.99984485
0.99983318
0.99982197
0.9998113
0.99980122
0.99979179
0.99978304
0.99977495
0.99976753
0.99976073
0.99975455
0.99974892
0.99974383
0.99973918
0.99973505
1.0000678
1.0000669
1.000066
1.0000649
1.0000637
1.0000623
1.0000607
1.0000589
1.0000569
1.0000547
1.0000521
1.0000492
1.0000459
1.0000422
1.000038
1.0000334
1.0000281
1.0000224
1.000016
1.000009
1.0000014
0.99999317
0.99998429
0.9999748
0.99996476
0.99995422
0.99994323
0.99993183
0.9999201
0.99990818
0.99989617
0.99988413
0.99987213
0.99986024
0.99984856
0.99983719
0.99982626
0.99981584
0.99980602
0.99979683
0.99978831
0.99978045
0.99977324
0.99976667
0.9997607
0.99975529
0.99975042
0.99974601
0.9997421
1.0000629
1.0000621
1.0000612
1.0000601
1.000059
1.0000576
1.0000561
1.0000544
1.0000525
1.0000504
1.0000479
1.0000451
1.000042
1.0000385
1.0000345
1.00003
1.000025
1.0000194
1.0000133
1.0000066
0.99999933
0.99999143
0.99998292
0.99997383
0.99996421
0.99995411
0.99994358
0.99993265
0.99992142
0.99990999
0.99989846
0.99988687
0.99987526
0.9998637
0.99985231
0.99984121
0.99983052
0.99982034
0.99981074
0.99980175
0.99979342
0.99978573
0.99977869
0.99977226
0.99976642
0.99976113
0.99975636
0.99975203
0.99974819
1.0000582
1.0000574
1.0000565
1.0000556
1.0000544
1.0000532
1.0000517
1.0000501
1.0000483
1.0000462
1.0000439
1.0000412
1.0000383
1.0000349
1.0000311
1.0000268
1.0000221
1.0000167
1.0000109
1.0000045
0.99999747
0.99998991
0.99998177
0.99997307
0.99996387
0.99995422
0.99994415
0.99993369
0.99992294
0.99991201
0.99990096
0.99988978
0.99987851
0.99986725
0.99985613
0.99984528
0.99983483
0.99982487
0.99981545
0.99980664
0.99979845
0.99979088
0.99978396
0.99977765
0.99977194
0.9997668
0.9997622
0.99975807
0.99975443
1.0000537
1.000053
1.0000521
1.0000512
1.0000501
1.0000489
1.0000475
1.0000459
1.0000442
1.0000422
1.00004
1.0000375
1.0000347
1.0000315
1.0000279
1.0000238
1.0000193
1.0000142
1.0000086
1.0000025
0.99999581
0.9999886
0.99998082
0.99997253
0.99996375
0.99995453
0.99994493
0.99993494
0.99992467
0.99991424
0.99990365
0.99989286
0.99988191
0.99987093
0.99986007
0.99984948
0.99983926
0.9998295
0.99982024
0.99981153
0.99980341
0.99979588
0.99978897
0.99978265
0.99977691
0.99977171
0.99976704
0.9997628
0.99975906
1.0000495
1.0000488
1.000048
1.0000471
1.000046
1.0000448
1.0000435
1.000042
1.0000403
1.0000384
1.0000363
1.0000339
1.0000312
1.0000282
1.0000248
1.000021
1.0000167
1.0000119
1.0000066
1.0000007
0.99999435
0.99998748
0.99998008
0.99997218
0.99996382
0.99995505
0.99994592
0.99993639
0.99992662
0.99991669
0.99990654
0.9998961
0.99988545
0.99987476
0.9998642
0.99985389
0.99984391
0.99983432
0.99982516
0.99981649
0.99980835
0.99980078
0.99979382
0.99978747
0.99978173
0.99977658
0.99977202
0.99976797
0.99976443
1.0000455
1.0000449
1.0000441
1.0000432
1.0000422
1.0000411
1.0000398
1.0000383
1.0000367
1.0000348
1.0000327
1.0000304
1.0000279
1.000025
1.0000219
1.0000183
1.0000143
1.0000098
1.0000047
0.99999913
0.99999308
0.99998655
0.99997952
0.99997202
0.99996408
0.99995576
0.99994709
0.99993804
0.99992878
0.99991936
0.99990962
0.99989951
0.99988918
0.99987884
0.99986862
0.99985862
0.99984886
0.99983939
0.99983026
0.99982152
0.99981324
0.99980548
0.99979828
0.99979165
0.99978561
0.99978013
0.99977518
0.9997707
0.99976674
1.0000418
1.0000412
1.0000404
1.0000396
1.0000386
1.0000375
1.0000363
1.0000349
1.0000333
1.0000315
1.0000295
1.0000272
1.0000248
1.0000221
1.0000191
1.0000157
1.000012
1.0000078
1.000003
0.99999771
0.99999197
0.99998579
0.99997914
0.99997203
0.99996452
0.99995664
0.99994844
0.99993987
0.99993113
0.99992222
0.99991287
0.9999031
0.99989315
0.99988323
0.99987343
0.99986375
0.99985419
0.99984478
0.99983557
0.99982666
0.99981814
0.99981009
0.99980261
0.99979574
0.99978954
0.99978402
0.99977917
0.99977496
0.99977132
1.0000382
1.0000376
1.0000369
1.0000361
1.0000352
1.0000342
1.000033
1.0000316
1.0000301
1.0000284
1.0000264
1.0000243
1.0000219
1.0000193
1.0000164
1.0000133
1.0000098
1.0000059
1.0000015
0.99999646
0.99999103
0.9999852
0.99997892
0.99997222
0.99996513
0.99995771
0.99994997
0.99994189
0.9999337
0.99992527
0.99991629
0.9999069
0.99989742
0.99988802
0.99987867
0.99986932
0.99985992
0.99985051
0.99984116
0.99983197
0.99982305
0.99981451
0.99980645
0.99979892
0.99979197
0.99978561
0.99977984
0.9997746
0.99976997
1.0000348
1.0000343
1.0000336
1.0000328
1.0000319
1.000031
1.0000298
1.0000285
1.0000271
1.0000255
1.0000236
1.0000215
1.0000192
1.0000167
1.0000139
1.000011
1.0000078
1.0000042
1.0000001
0.99999538
0.99999026
0.99998477
0.99997888
0.99997259
0.99996593
0.99995897
0.99995172
0.99994415
0.99993652
0.99992857
0.99991994
0.999911
0.99990212
0.99989332
0.99988444
0.99987537
0.9998661
0.99985665
0.9998471
0.99983758
0.99982822
0.99981914
0.99981052
0.99980248
0.99979516
0.99978866
0.99978301
0.99977825
0.99977421
1.0000315
1.0000309
1.0000303
1.0000296
1.0000287
1.0000278
1.0000267
1.0000256
1.0000242
1.0000227
1.000021
1.000019
1.0000168
1.0000144
1.0000117
1.0000088
1.0000058
1.0000025
0.99999877
0.99999442
0.99998961
0.99998446
0.99997894
0.99997303
0.9999668
0.99996031
0.99995355
0.99994651
0.99993948
0.99993199
0.99992376
0.99991548
0.99990735
0.99989921
0.99989082
0.99988206
0.99987293
0.99986345
0.99985371
0.99984377
0.99983377
0.99982384
0.99981412
0.99980475
0.99979586
0.99978751
0.9997798
0.99977268
0.9997664
1.0000282
1.0000277
1.000027
1.0000263
1.0000255
1.0000247
1.0000237
1.0000226
1.0000213
1.0000199
1.0000184
1.0000166
1.0000146
1.0000123
1.0000097
1.0000069
1.000004
1.000001
0.99999754
0.99999353
0.99998901
0.99998418
0.99997901
0.99997348
0.99996765
0.99996159
0.99995529
0.99994876
0.99994231
0.9999352
0.99992744
0.99992001
0.99991273
0.9999053
0.99989745
0.99988913
0.99988032
0.99987103
0.99986127
0.99985107
0.99984053
0.9998298
0.99981909
0.99980871
0.99979893
0.9997901
0.99978245
0.99977618
0.99977113
1.000025
1.0000244
1.0000237
1.000023
1.0000223
1.0000215
1.0000206
1.0000196
1.0000185
1.0000173
1.0000159
1.0000143
1.0000124
1.0000103
1.0000079
1.0000052
1.0000024
0.99999949
0.99999642
0.99999281
0.99998866
0.9999842
0.99997946
0.9999744
0.99996906
0.99996347
0.99995763
0.99995163
0.9999457
0.99993885
0.99993163
0.9999251
0.99991851
0.99991166
0.99990427
0.99989644
0.99988802
0.99987904
0.99986934
0.99985896
0.99984783
0.99983604
0.99982366
0.99981084
0.99979776
0.99978481
0.99977214
0.99976021
0.99974935
1.0000218
1.0000212
1.0000205
1.0000199
1.0000191
1.0000183
1.0000175
1.0000166
1.0000156
1.0000145
1.0000133
1.0000119
1.0000103
1.0000084
1.0000063
1.0000038
1.0000011
0.99999835
0.99999563
0.99999245
0.99998875
0.99998476
0.99998054
0.99997605
0.9999713
0.99996633
0.99996113
0.99995587
0.99995062
0.99994426
0.99993793
0.99993262
0.99992667
0.99992047
0.99991361
0.99990642
0.99989847
0.99988992
0.99988027
0.9998697
0.9998578
0.99984479
0.99983071
0.99981603
0.99980156
0.99978815
0.99977612
0.99976703
0.99975882
1.0000186
1.0000178
1.0000169
1.0000161
1.0000153
1.0000146
1.0000138
1.0000131
1.0000123
1.0000115
1.0000105
1.0000094
1.0000081
1.0000066
1.0000048
1.0000026
1
0.9999972
0.99999448
0.99999151
0.99998805
0.99998424
0.99998014
0.99997576
0.99997117
0.99996652
0.99996178
0.99995711
0.99995237
0.99994644
0.9999418
0.99993788
0.99993297
0.99992802
0.9999224
0.99991666
0.99991007
0.99990295
0.99989453
0.99988506
0.99987369
0.99986044
0.99984477
0.99982644
0.99980651
0.9997822
0.99975519
0.99972585
0.99969433
1.0000143
1.0000133
1.0000127
1.0000122
1.0000118
1.0000113
1.0000109
1.0000105
1.00001
1.0000094
1.0000087
1.0000078
1.0000067
1.0000053
1.0000035
1.0000014
0.99999867