/*--------------------------------*- C++ -*----------------------------------*\
| =========                 |                                                 |
| \\      /  F ield         | OpenFOAM: The Open Source CFD Toolbox           |
|  \\    /   O peration     | Version:  v2006                                 |
|   \\  /    A nd           | Website:  www.openfoam.com                      |
|    \\/     M anipulation  |                                                 |
\*---------------------------------------------------------------------------*/
FoamFile
{
    version     2.0;
    format      ascii;
    class       volScalarField;
    location    "1000";
    object      TMean;
}
// * * * * * * * * * * * * * * * * * * * * * * * * * * * * * * * * * * * * * //

dimensions      [0 0 0 1 0 0 0];


internalField   nonuniform List<scalar> 
19765
(
0.9999558
0.9999687
1.0001291
1.0002827
1.0004151
1.0005364
1.0006615
1.0007711
1.0008794
1.0009894
1.001077
1.0011467
1.0012073
1.0012551
1.0012902
1.0013188
1.0013403
1.0013516
1.0013529
1.0013445
1.0013271
1.0013026
1.0012711
1.0012303
1.0011811
1.0011288
1.0010724
1.001005
1.0009311
1.0008535
1.0007669
1.0006681
1.0005483
1.0004223
1.0003157
1.0002153
1.0000843
0.99994656
0.99982132
0.99966114
0.99947148
0.99935436
0.99925723
0.99916875
0.99915181
0.99916588
0.99922734
0.99932535
0.9994187
1.0002797
1.0003351
1.0004001
1.0004753
1.0005571
1.0006386
1.0007188
1.0007943
1.0008658
1.0009344
1.0009995
1.0010586
1.0011112
1.0011567
1.0011941
1.0012238
1.0012472
1.0012631
1.0012701
1.0012676
1.0012557
1.0012351
1.0012062
1.0011691
1.0011246
1.0010734
1.0010136
1.0009472
1.0008731
1.0007923
1.0007049
1.0006117
1.0005151
1.0004167
1.0003163
1.0002131
1.0001092
1.0000068
0.99990653
0.99981114
0.9997279
0.99965285
0.9995813
0.99951733
0.99945649
0.99940585
0.999362
0.99932379
0.99928798
1.0002659
1.0003179
1.000379
1.0004462
1.0005154
1.0005846
1.0006525
1.0007179
1.0007802
1.000841
1.0008986
1.0009514
1.0009993
1.0010414
1.0010761
1.0011043
1.0011275
1.001144
1.0011522
1.0011518
1.0011429
1.0011262
1.0011009
1.0010668
1.0010258
1.0009776
1.0009212
1.000858
1.0007886
1.0007129
1.0006311
1.0005441
1.0004534
1.0003605
1.0002655
1.0001687
1.0000714
0.99997445
0.99987933
0.99978818
0.9997008
0.99961709
0.99953954
0.99947045
0.99940871
0.99935325
0.99930524
0.99926342
0.99922682
1.0003544
1.0003954
1.000437
1.0004804
1.0005254
1.0005709
1.000616
1.0006604
1.0007036
1.0007462
1.0007875
1.0008264
1.0008626
1.0008952
1.0009228
1.0009458
1.0009651
1.0009792
1.0009867
1.0009872
1.0009806
1.0009671
1.0009465
1.0009182
1.0008828
1.0008416
1.0007939
1.0007398
1.0006803
1.0006155
1.000546
1.0004728
1.0003973
1.0003204
1.000242
1.0001627
1.0000843
1.0000069
0.99993124
0.99985941
0.99979116
0.99972407
0.99965945
0.99959734
0.9995375
0.99948032
0.99942395
0.999368
0.99931198
1.0003668
1.0004011
1.0004358
1.0004711
1.0005068
1.0005426
1.0005781
1.000613
1.0006472
1.0006809
1.0007136
1.0007448
1.0007739
1.0008004
1.0008231
1.0008422
1.000858
1.0008695
1.0008753
1.000875
1.0008684
1.0008559
1.0008373
1.0008119
1.0007806
1.000744
1.0007015
1.0006532
1.0006
1.0005423
1.0004807
1.0004161
1.0003497
1.0002823
1.0002141
1.0001457
1.0000782
1.0000118
0.99994708
0.99988526
0.99982586
0.999767
0.99971012
0.99965396
0.99959899
0.99954454
0.99949035
0.99943701
0.99938545
1.0003759
1.0004025
1.0004289
1.0004558
1.000483
1.0005104
1.0005376
1.0005646
1.0005913
1.0006179
1.0006439
1.0006688
1.0006922
1.0007136
1.0007319
1.0007474
1.0007603
1.0007694
1.0007737
1.0007727
1.0007662
1.0007544
1.000737
1.0007135
1.0006847
1.0006512
1.0006124
1.0005684
1.0005201
1.0004678
1.0004122
1.0003539
1.0002942
1.0002337
1.0001728
1.0001118
1.0000517
0.99999279
0.99993541
0.99988033
0.99982731
0.99977533
0.99972462
0.9996749
0.99962572
0.99957697
0.99952788
0.99947839
0.99942839
1.0003682
1.0003909
1.0004133
1.0004357
1.0004581
1.0004803
1.0005024
1.0005243
1.0005459
1.0005674
1.0005885
1.0006085
1.0006274
1.0006447
1.0006594
1.0006718
1.0006818
1.0006886
1.0006913
1.0006894
1.0006826
1.0006711
1.0006548
1.000633
1.0006065
1.0005756
1.0005401
1.0004999
1.0004557
1.0004081
1.0003575
1.0003046
1.0002504
1.0001955
1.0001403
1.0000851
1.0000306
0.99997714
0.99992495
0.99987462
0.99982593
0.99977788
0.99973092
0.99968432
0.99963808
0.99959168
0.99954473
0.99949708
0.99944887
1.0003606
1.0003788
1.0003969
1.000415
1.000433
1.000451
1.0004688
1.0004866
1.0005041
1.0005216
1.0005388
1.0005551
1.0005704
1.0005844
1.0005963
1.0006061
1.0006138
1.0006187
1.00062
1.0006173
1.0006102
1.0005988
1.0005831
1.0005625
1.0005376
1.0005087
1.0004755
1.0004382
1.0003973
1.0003533
1.0003066
1.0002579
1.000208
1.0001576
1.0001068
1.0000562
1.0000062
0.99995712
0.99990923
0.99986295
0.99981814
0.99977413
0.99973102
0.99968846
0.99964619
0.99960392
0.99956119
0.99951782
0.99947368
1.0003482
1.0003637
1.0003789
1.0003941
1.0004092
1.0004241
1.0004388
1.0004535
1.0004679
1.0004824
1.0004964
1.0005097
1.0005222
1.0005335
1.0005429
1.0005505
1.0005563
1.0005595
1.0005595
1.0005559
1.0005484
1.0005371
1.0005218
1.0005022
1.0004787
1.0004515
1.0004204
1.0003856
1.0003475
1.0003066
1.0002633
1.0002182
1.0001719
1.0001252
1.0000781
1.0000312
0.99998479
0.99993922
0.99989468
0.99985152
0.99980967
0.99976846
0.99972812
0.99968817
0.99964852
0.99960877
0.99956858
0.99952772
0.9994862
1.0003358
1.0003485
1.0003612
1.0003738
1.0003863
1.0003987
1.0004109
1.0004231
1.000435
1.000447
1.0004586
1.0004695
1.0004797
1.0004888
1.0004962
1.000502
1.0005061
1.000508
1.0005069
1.0005025
1.0004947
1.0004834
1.0004684
1.0004495
1.000427
1.0004012
1.0003719
1.0003391
1.0003033
1.0002649
1.0002244
1.0001821
1.0001389
1.0000952
1.0000512
1.0000073
0.99996402
0.99992144
0.99987981
0.99983945
0.99980031
0.99976189
0.99972429
0.99968721
0.99965045
0.99961377
0.9995768
0.99953935
0.99950131
1.0003222
1.000333
1.0003437
1.0003544
1.0003649
1.0003753
1.0003856
1.0003957
1.0004057
1.0004156
1.0004252
1.0004342
1.0004424
1.0004497
1.0004555
1.0004597
1.0004624
1.0004631
1.000461
1.000456
1.0004478
1.0004365
1.0004217
1.0004035
1.0003819
1.0003573
1.0003294
1.0002983
1.0002646
1.0002284
1.0001903
1.0001506
1.00011
1.0000689
1.0000275
0.9999863
0.99994557
0.99990551
0.99986633
0.9998283
0.9997914
0.99975518
0.99971978
0.99968487
0.99965035
0.99961595
0.99958135
0.99954637
0.99951095
1.0003089
1.000318
1.0003269
1.000336
1.0003448
1.0003536
1.0003622
1.0003707
1.000379
1.0003873
1.0003952
1.0004026
1.0004092
1.0004149
1.0004193
1.0004223
1.0004238
1.0004234
1.0004206
1.000415
1.0004065
1.0003951
1.0003806
1.0003628
1.0003421
1.0003184
1.0002918
1.0002622
1.0002302
1.0001959
1.0001598
1.0001223
1.000084
1.0000451
1.0000061
0.99996718
0.99992872
0.99989091
0.99985392
0.99981802
0.99978322
0.99974913
0.99971586
0.99968317
0.99965093
0.99961893
0.99958688
0.99955462
0.99952207
1.0002956
1.0003033
1.0003109
1.0003186
1.0003261
1.0003335
1.0003407
1.0003479
1.0003548
1.0003617
1.0003683
1.0003742
1.0003795
1.000384
1.0003872
1.0003891
1.0003896
1.0003883
1.0003847
1.0003787
1.00037
1.0003585
1.0003442
1.0003268
1.0003067
1.000284
1.0002585
1.0002303
1.0001997
1.0001672
1.0001329
1.0000973
1.0000609
1.0000242
0.99998718
0.99995028
0.99991383
0.99987801
0.99984296
0.99980895
0.99977599
0.99974372
0.99971229
0.99968146
0.99965114
0.99962113
0.99959118
0.99956113
0.99953094
1.0002828
1.0002893
1.0002958
1.0003023
1.0003086
1.0003148
1.0003209
1.0003269
1.0003327
1.0003385
1.0003438
1.0003486
1.0003528
1.0003562
1.0003583
1.0003593
1.000359
1.0003569
1.0003528
1.0003463
1.0003374
1.0003259
1.0003117
1.0002948
1.0002753
1.0002533
1.0002288
1.0002018
1.0001726
1.0001415
1.0001089
1.000075
1.0000404
1.0000055
0.99997031
0.99993525
0.99990064
0.99986663
0.99983338
0.99980112
0.99976989
0.99973937
0.99970971
0.9996807
0.99965226
0.99962422
0.99959637
0.99956854
0.99954073
1.0002704
1.0002759
1.0002814
1.0002869
1.0002923
1.0002975
1.0003027
1.0003077
1.0003125
1.0003172
1.0003216
1.0003254
1.0003286
1.000331
1.0003324
1.0003325
1.0003314
1.0003287
1.0003241
1.0003173
1.0003081
1.0002966
1.0002826
1.0002661
1.0002471
1.0002259
1.0002022
1.0001763
1.0001484
1.0001186
1.0000875
1.0000552
1.0000222
0.99998891
0.99995544
0.99992207
0.99988913
0.99985679
0.99982517
0.99979452
0.99976486
0.99973593
0.99970786
0.99968047
0.9996537
0.9996274
0.99960137
0.99957547
0.99954971
1.0002586
1.0002632
1.0002679
1.0002725
1.000277
1.0002815
1.0002858
1.0002899
1.0002939
1.0002978
1.0003013
1.0003042
1.0003066
1.0003082
1.0003088
1.0003083
1.0003065
1.0003033
1.0002982
1.0002911
1.0002819
1.0002704
1.0002565
1.0002403
1.0002219
1.0002013
1.0001785
1.0001535
1.0001267
1.0000982
1.0000684
1.0000376
1.0000061
0.99997428
0.99994235
0.99991053
0.99987915
0.99984836
0.99981828
0.99978913
0.99976097
0.99973355
0.999707
0.99968118
0.99965601
0.99963138
0.99960712
0.99958308
0.9995593
1.0002473
1.0002512
1.0002551
1.000259
1.0002628
1.0002665
1.0002701
1.0002736
1.0002768
1.0002799
1.0002826
1.0002849
1.0002865
1.0002875
1.0002874
1.0002863
1.000284
1.0002803
1.0002748
1.0002675
1.0002581
1.0002466
1.000233
1.0002171
1.0001991
1.0001791
1.0001571
1.0001331
1.0001073
1.00008
1.0000514
1.0000219
0.99999178
0.99996138
0.99993089
0.99990053
0.9998706
0.99984125
0.99981261
0.99978488
0.99975812
0.9997321
0.99970696
0.99968257
0.99965887
0.99963575
0.99961307
0.9995907
0.99956867
1.0002365
1.0002398
1.000243
1.0002463
1.0002495
1.0002526
1.0002556
1.0002584
1.000261
1.0002634
1.0002655
1.0002671
1.0002681
1.0002684
1.0002678
1.0002662
1.0002634
1.0002593
1.0002536
1.000246
1.0002366
1.0002251
1.0002117
1.0001961
1.0001786
1.0001592
1.0001379
1.0001147
1.0000899
1.0000636
1.0000362
1.0000079
0.99997913
0.99995005
0.99992091
0.99989191
0.99986336
0.99983537
0.99980809
0.9997817
0.99975627
0.99973159
0.99970779
0.99968477
0.99966246
0.99964079
0.99961961
0.99959882
0.99957845
1.0002262
1.000229
1.0002317
1.0002344
1.0002371
1.0002396
1.000242
1.0002443
1.0002463
1.0002482
1.0002497
1.0002507
1.0002512
1.000251
1.0002499
1.0002478
1.0002446
1.0002402
1.0002342
1.0002265
1.000217
1.0002056
1.0001923
1.0001771
1.00016
1.0001412
1.0001205
1.0000981
1.0000742
1.000049
1.0000227
0.99999557
0.99996797
0.99994014
0.99991227
0.99988456
0.9998573
0.99983061
0.99980462
0.9997795
0.99975532
0.9997319
0.99970936
0.99968762
0.99966661
0.99964627
0.99962646
0.99960709
0.99958822
1.0002165
1.0002187
1.000221
1.0002233
1.0002254
1.0002274
1.0002294
1.0002311
1.0002327
1.0002341
1.0002351
1.0002356
1.0002356
1.0002349
1.0002334
1.0002309
1.0002274
1.0002227
1.0002165
1.0002087
1.0001991
1.0001879
1.0001748
1.0001598
1.0001431
1.0001248
1.0001048
1.0000832
1.0000602
1.0000359
1.0000106
0.99998461
0.99995815
0.9999315
0.99990484
0.99987836
0.99985233
0.99982687
0.9998021
0.9997782
0.99975522
0.999733
0.99971166
0.99969113
0.99967135
0.99965226
0.99963376
0.99961573
0.99959825
1.0002072
1.0002091
1.0002109
1.0002127
1.0002144
1.0002161
1.0002176
1.0002189
1.00022
1.0002209
1.0002215
1.0002216
1.0002212
1.0002201
1.0002182
1.0002154
1.0002116
1.0002066
1.0002002
1.0001923
1.0001828
1.0001716
1.0001587
1.0001441
1.0001278
1.00011
1.0000907
1.0000698
1.0000475
1.0000242
0.99999988
0.99997492
0.99994955
0.99992402
0.9998985
0.99987319
0.99984834
0.99982405
0.99980045
0.9997777
0.99975586
0.99973478
0.99971458
0.99969519
0.99967656
0.99965864
0.99964133
0.99962452
0.99960831
1.0001984
1.0001999
1.0002013
1.0002028
1.0002041
1.0002054
1.0002065
1.0002074
1.0002082
1.0002087
1.0002089
1.0002086
1.0002078
1.0002064
1.0002042
1.0002011
1.000197
1.0001918
1.0001853
1.0001773
1.0001679
1.0001568
1.0001441
1.0001298
1.0001139
1.0000966
1.0000778
1.0000576
1.0000362
1.0000137
0.99999034
0.99996637
0.99994204
0.99991758
0.99989316
0.99986897
0.99984523
0.99982207
0.99979958
0.99977794
0.99975719
0.9997372
0.99971808
0.99969977
0.99968223
0.9996654
0.99964921
0.99963355
0.99961852
1.00019
1.0001912
1.0001923
1.0001934
1.0001944
1.0001953
1.0001961
1.0001967
1.0001971
1.0001973
1.0001971
1.0001965
1.0001954
1.0001937
1.0001911
1.0001878
1.0001835
1.0001782
1.0001716
1.0001636
1.0001541
1.0001432
1.0001307
1.0001167
1.0001012
1.0000844
1.0000662
1.0000467
1.000026
1.0000043
0.99998187
0.99995885
0.99993552
0.99991208
0.99988871
0.99986558
0.99984292
0.99982083
0.99979941
0.99977882
0.99975911
0.99974015
0.99972206
0.99970477
0.99968825
0.99967245
0.9996573
0.9996427
0.99962874
1.000182
1.0001829
1.0001837
1.0001845
1.0001853
1.0001859
1.0001863
1.0001867
1.0001867
1.0001866
1.0001861
1.0001852
1.0001838
1.0001818
1.0001791
1.0001755
1.0001711
1.0001656
1.0001589
1.0001509
1.0001415
1.0001307
1.0001185
1.0001047
1.0000897
1.0000733
1.0000557
1.0000368
1.0000169
0.99999597
0.99997437
0.99995226
0.99992988
0.99990743
0.99988507
0.99986296
0.99984132
0.99982026
0.99979987
0.99978028
0.99976156
0.99974359
0.99972647
0.99971015
0.9996946
0.99967977
0.99966559
0.99965197
0.99963901
1.0001744
1.000175
1.0001756
1.0001761
1.0001766
1.0001769
1.0001771
1.0001772
1.000177
1.0001766
1.0001759
1.0001747
1.000173
1.0001708
1.0001678
1.0001641
1.0001595
1.0001539
1.0001472
1.0001392
1.0001299
1.0001192
1.0001072
1.0000938
1.0000791
1.0000633
1.0000462
1.0000279
1.0000086
0.99998853
0.99996776
0.99994652
0.99992506
0.99990355
0.99988214
0.99986102
0.99984037
0.99982029
0.99980087
0.99978225
0.99976447
0.99974744
0.99973125
0.99971585
0.9997012
0.99968727
0.999674
0.9996613
0.99964925
1.000167
1.0001674
1.0001678
1.0001681
1.0001684
1.0001685
1.0001685
1.0001682
1.0001678
1.0001672
1.0001662
1.0001648
1.0001629
1.0001605
1.0001573
1.0001535
1.0001488
1.0001431
1.0001363
1.0001284
1.0001192
1.0001087
1.0000969
1.0000838
1.0000695
1.0000541
1.0000375
1.0000199
1.0000013
0.99998192
0.99996194
0.99994154
0.99992095
0.99990035
0.99987987
0.99985969
0.99983998
0.99982084
0.99980236
0.99978466
0.99976779
0.99975166
0.99973634
0.99972181
0.99970802
0.99969494
0.99968252
0.99967066
0.99965947
1.00016
1.0001602
1.0001604
1.0001605
1.0001606
1.0001605
1.0001602
1.0001598
1.0001592
1.0001583
1.0001571
1.0001555
1.0001535
1.0001508
1.0001476
1.0001436
1.0001388
1.000133
1.0001263
1.0001184
1.0001093
1.000099
1.0000874
1.0000746
1.0000607
1.0000457
1.0000297
1.0000126
0.99999472
0.99997605
0.99995684
0.99993726
0.99991751
0.99989777
0.99987818
0.9998589
0.99984009
0.99982186
0.99980428
0.99978746
0.99977145
0.99975616
0.99974169
0.99972797
0.999715
0.99970272
0.99969109
0.99968002
0.99966961
1.0001533
1.0001533
1.0001533
1.0001533
1.0001531
1.0001528
1.0001524
1.0001518
1.000151
1.0001499
1.0001486
1.0001468
1.0001446
1.0001418
1.0001384
1.0001343
1.0001294
1.0001237
1.0001169
1.0001091
1.0001001
1.00009
1.0000787
1.0000662
1.0000527
1.0000382
1.0000226
1.0000061
0.99998885
0.99997087
0.9999524
0.99993359
0.99991466
0.99989575
0.99987702
0.9998586
0.99984066
0.99982329
0.99980656
0.99979058
0.99977539
0.99976092
0.99974724
0.9997343
0.99972209
0.99971056
0.99969968
0.99968934
0.99967967
1.0001468
1.0001467
1.0001465
1.0001463
1.000146
1.0001456
1.000145
1.0001442
1.0001432
1.000142
1.0001405
1.0001386
1.0001362
1.0001333
1.0001298
1.0001257
1.0001207
1.000115
1.0001083
1.0001005
1.0000917
1.0000817
1.0000707
1.0000585
1.0000453
1.0000313
1.0000162
1.0000003
0.99998362
0.99996631
0.99994855
0.9999305
0.99991234
0.99989424
0.99987632
0.99985872
0.99984162
0.99982507
0.99980916
0.99979399
0.99977958
0.99976588
0.99975295
0.99974075
0.99972926
0.99971844
0.99970825
0.9996986
0.9996896
1.0001405
1.0001403
1.00014
1.0001397
1.0001392
1.0001386
1.0001379
1.000137
1.0001359
1.0001345
1.0001329
1.0001308
1.0001283
1.0001254
1.0001218
1.0001176
1.0001126
1.0001069
1.0001002
1.0000925
1.0000839
1.0000741
1.0000633
1.0000515
1.0000386
1.000025
1.0000104
0.99999507
0.99997898
0.99996232
0.99994524
0.99992791
0.9999105
0.99989317
0.99987603
0.99985923
0.99984292
0.99982716
0.99981203
0.99979762
0.99978397
0.999771
0.99975879
0.99974728
0.99973647
0.99972631
0.99971678
0.99970777
0.9996994
1.0001345
1.0001341
1.0001337
1.0001333
1.0001327
1.000132
1.0001311
1.0001301
1.0001289
1.0001274
1.0001256
1.0001235
1.0001209
1.0001178
1.0001142
1.00011
1.000105
1.0000993
1.0000927
1.0000851
1.0000766
1.0000671
1.0000565
1.000045
1.0000325
1.0000193
1.0000052
0.99999038
0.99997488
0.99995884
0.99994242
0.99992579
0.9999091
0.99989251
0.99987612
0.99986008
0.99984452
0.99982952
0.99981514
0.99980145
0.99978851
0.99977624
0.9997647
0.99975386
0.99974369
0.99973415
0.99972522
0.99971681
0.99970902
1.0001286
1.0001282
1.0001277
1.0001271
1.0001264
1.0001256
1.0001247
1.0001235
1.0001222
1.0001206
1.0001188
1.0001165
1.0001139
1.0001108
1.0001071
1.0001028
1.0000979
1.0000922
1.0000857
1.0000782
1.0000699
1.0000606
1.0000503
1.0000391
1.000027
1.0000142
1.0000005
0.99998621
0.99997127
0.99995583
0.99994006
0.99992409
0.99990809
0.9998922
0.99987654
0.99986122
0.99984639
0.9998321
0.99981843
0.99980544
0.99979317
0.99978156
0.99977066
0.99976044
0.99975087
0.99974192
0.99973357
0.99972571
0.99971846
1.0001229
1.0001224
1.0001218
1.0001212
1.0001204
1.0001195
1.0001185
1.0001173
1.0001158
1.0001142
1.0001122
1.0001099
1.0001072
1.0001041
1.0001004
1.0000961
1.0000912
1.0000856
1.0000791
1.0000718
1.0000636
1.0000546
1.0000445
1.0000336
1.0000219
1.0000095
0.99999633
0.9999825
0.9999681
0.99995325
0.99993809
0.99992277
0.99990744
0.99989222
0.99987724
0.99986262
0.99984847
0.99983487
0.99982187
0.99980954
0.99979791
0.99978692
0.99977663
0.99976699
0.99975799
0.9997496
0.99974177
0.99973444
0.99972769
1.0001173
1.0001168
1.0001161
1.0001154
1.0001146
1.0001136
1.0001125
1.0001112
1.0001097
1.000108
1.000106
1.0001037
1.0001009
1.0000977
1.0000941
1.0000898
1.0000849
1.0000793
1.000073
1.0000659
1.0000579
1.000049
1.0000393
1.0000287
1.0000173
1.0000053
0.99999257
0.99997923
0.99996536
0.99995107
0.9999365
0.9999218
0.9999071
0.99989253
0.99987821
0.99986425
0.99985075
0.9998378
0.99982544
0.99981373
0.9998027
0.9997923
0.99978258
0.99977349
0.99976503
0.99975715
0.99974982
0.99974297
0.99973669
1.0001119
1.0001113
1.0001106
1.0001098
1.0001089
1.0001079
1.0001068
1.0001054
1.0001039
1.0001021
1.0001001
1.0000977
1.0000949
1.0000918
1.0000881
1.0000838
1.000079
1.0000735
1.0000673
1.0000603
1.0000525
1.0000439
1.0000344
1.0000241
1.0000131
1.0000015
0.99998921
0.99997635
0.99996299
0.99994925
0.99993525
0.99992114
0.99990705
0.9998931
0.9998794
0.99986606
0.99985319
0.99984085
0.99982909
0.99981797
0.99980751
0.99979767
0.99978848
0.99977991
0.99977195
0.99976455
0.99975769
0.99975129
0.99974544
1.0001066
1.000106
1.0001052
1.0001044
1.0001035
1.0001024
1.0001012
1.0000998
1.0000983
1.0000965
1.0000944
1.000092
1.0000892
1.0000861
1.0000824
1.0000782
1.0000735
1.0000681
1.000062
1.0000551
1.0000475
1.0000391
1.0000299
1.00002
1.0000093
0.99999808
0.99998623
0.99997383
0.99996097
0.99994776
0.99993431
0.99992077
0.99990726
0.9998939
0.9998808
0.99986805
0.99985577
0.999844
0.99983281
0.99982224
0.99981231
0.99980299
0.99979431
0.99978623
0.99977873
0.99977177
0.99976535
0.99975937
0.99975392
1.0001014
1.0001007
1.0001
1.0000991
1.0000982
1.0000971
1.0000959
1.0000945
1.0000929
1.0000911
1.000089
1.0000866
1.0000838
1.0000807
1.0000771
1.0000729
1.0000683
1.000063
1.000057
1.0000503
1.0000429
1.0000348
1.0000258
1.0000162
1.0000059
0.99999503
0.9999836
0.99997166
0.99995928
0.99994658
0.99993366
0.99992066
0.99990771
0.99989491
0.99988237
0.99987018
0.99985845
0.99984723
0.99983657
0.99982651
0.99981709
0.99980825
0.99980003
0.9997924
0.99978534
0.9997788
0.99977278
0.99976718
0.9997621
1.0000963
1.0000956
1.0000948
1.000094
1.000093
1.0000919
1.0000907
1.0000893
1.0000877
1.0000859
1.0000838
1.0000814
1.0000787
1.0000755
1.000072
1.0000679
1.0000633
1.0000582
1.0000523
1.0000458
1.0000386
1.0000307
1.0000221
1.0000127
1.0000028
0.99999231
0.9999813
0.9999698
0.99995789
0.99994568
0.99993327
0.9999208
0.99990837
0.9998961
0.99988409
0.99987243
0.99986122
0.9998505
0.99984034
0.99983077
0.99982181
0.99981343
0.99980564
0.99979843
0.99979177
0.99978562
0.99977997
0.99977473
0.99976999
1.0000913
1.0000906
1.0000898
1.000089
1.000088
1.0000869
1.0000857
1.0000843
1.0000827
1.0000809
1.0000788
1.0000764
1.0000737
1.0000707
1.0000672
1.0000632
1.0000587
1.0000537
1.000048
1.0000417
1.0000347
1.000027
1.0000186
1.0000096
1
0.99998991
0.9999793
0.99996823
0.99995678
0.99994504
0.99993313
0.99992115
0.99990923
0.99989747
0.99988595
0.99987479
0.99986406
0.99985382
0.99984411
0.99983499
0.99982646
0.99981849
0.99981111
0.99980429
0.999798
0.9997922
0.99978689
0.99978198
0.99977755
1.0000865
1.0000858
1.000085
1.0000841
1.0000831
1.000082
1.0000808
1.0000794
1.0000778
1.000076
1.000074
1.0000717
1.000069
1.000066
1.0000626
1.0000587
1.0000543
1.0000494
1.0000439
1.0000378
1.000031
1.0000236
1.0000155
1.0000068
0.99999753
0.9999878
0.99997759
0.99996694
0.99995594
0.99994466
0.99993321
0.99992171
0.99991027
0.99989898
0.99988794
0.99987723
0.99986695
0.99985715
0.99984787
0.99983915
0.99983102
0.99982344
0.99981643
0.99980996
0.99980401
0.99979855
0.99979355
0.99978894
0.9997848
1.0000817
1.000081
1.0000802
1.0000794
1.0000784
1.0000773
1.0000761
1.0000747
1.0000731
1.0000714
1.0000694
1.0000671
1.0000645
1.0000616
1.0000582
1.0000545
1.0000502
1.0000454
1.0000401
1.0000342
1.0000276
1.0000205
1.0000127
1.0000043
0.99999533
0.99998596
0.99997614
0.99996591
0.99995533
0.9999445
0.99993351
0.99992247
0.99991148
0.99990064
0.99989003
0.99987976
0.99986989
0.99986049
0.9998516
0.99984326
0.99983549
0.99982826
0.99982158
0.99981543
0.99980979
0.99980462
0.9997999
0.99979556
0.99979167
1.000077
1.0000763
1.0000756
1.0000747
1.0000738
1.0000727
1.0000715
1.0000702
1.0000686
1.0000669
1.000065
1.0000627
1.0000602
1.0000573
1.0000541
1.0000504
1.0000463
1.0000417
1.0000365
1.0000308
1.0000245
1.0000176
1.0000101
1.000002
0.99999339
0.99998438
0.99997495
0.99996512
0.99995497
0.99994457
0.99993402
0.99992341
0.99991285
0.99990243
0.99989223
0.99988235
0.99987287
0.99986384
0.9998553
0.99984731
0.99983986
0.99983294
0.99982657
0.99982071
0.99981534
0.99981044
0.99980598
0.99980189
0.99979824
1.0000724
1.0000718
1.000071
1.0000702
1.0000693
1.0000682
1.0000671
1.0000658
1.0000643
1.0000626
1.0000607
1.0000585
1.0000561
1.0000533
1.0000502
1.0000466
1.0000427
1.0000382
1.0000332
1.0000277
1.0000216
1.0000149
1.0000077
0.99999994
0.99999169
0.99998304
0.99997399
0.99996456
0.99995482
0.99994484
0.99993472
0.99992453
0.99991438
0.99990435
0.99989454
0.99988502
0.99987589
0.99986719
0.99985898
0.99985128
0.99984412
0.99983747
0.99983136
0.99982574
0.99982062
0.99981593
0.99981168
0.99980779
0.99980433
1.000068
1.0000673
1.0000666
1.0000658
1.0000649
1.0000639
1.0000628
1.0000615
1.0000601
1.0000584
1.0000566
1.0000545
1.0000521
1.0000494
1.0000464
1.000043
1.0000392
1.0000349
1.0000301
1.0000248
1.0000189
1.0000125
1.0000056
0.99999814
0.99999022
0.99998193
0.99997325
0.99996422
0.99995488
0.99994532
0.9999356
0.99992582
0.99991605
0.9999064
0.99989694
0.99988777
0.99987895
0.99987056
0.99986262
0.99985519
0.99984826
0.99984185
0.99983596
0.99983056
0.99982564
0.99982116
0.99981711
0.99981343
0.99981016
1.0000637
1.000063
1.0000623
1.0000616
1.0000607
1.0000597
1.0000586
1.0000574
1.000056
1.0000544
1.0000526
1.0000506
1.0000483
1.0000458
1.0000428
1.0000396
1.0000359
1.0000318
1.0000272
1.0000221
1.0000165
1.0000103
1.0000037
0.99999655
0.99998897
0.99998103
0.99997273
0.99996408
0.99995515
0.99994599
0.99993667
0.99992727
0.99991788
0.99990858
0.99989946
0.9998906
0.99988207
0.99987394
0.99986624
0.99985901
0.99985228
0.99984605
0.99984032
0.99983507
0.9998303
0.99982595
0.99982203
0.99981846
0.99981529
1.0000595
1.0000589
1.0000582
1.0000575
1.0000566
1.0000557
1.0000546
1.0000534
1.0000521
1.0000506
1.0000488
1.0000469
1.0000447
1.0000422
1.0000394
1.0000363
1.0000328
1.0000289
1.0000245
1.0000196
1.0000142
1.0000083
1.000002
0.99999517
0.99998793
0.99998034
0.99997241
0.99996415
0.99995561
0.99994685
0.99993792
0.9999289
0.99991986
0.9999109
0.9999021
0.99989353
0.99988526
0.99987734
0.99986983
0.99986276
0.99985617
0.99985007
0.99984446
0.99983934
0.99983469
0.99983049
0.99982672
0.99982332
0.99982031
1.0000554
1.0000549
1.0000542
1.0000535
1.0000527
1.0000518
1.0000508
1.0000496
1.0000483
1.0000468
1.0000452
1.0000433
1.0000412
1.0000388
1.0000362
1.0000332
1.0000299
1.0000261
1.0000219
1.0000173
1.0000121
1.0000066
1.0000005
0.99999398
0.99998708
0.99997984
0.99997229
0.99996441
0.99995626
0.99994789
0.99993935
0.99993069
0.99992201
0.99991338
0.99990488
0.99989657
0.99988852
0.99988078
0.9998734
0.99986643
0.99985993
0.99985389
0.99984833
0.99984325
0.99983864
0.99983446
0.99983069
0.99982728
0.99982427
1.0000515
1.000051
1.0000504
1.0000497
1.0000489
1.000048
1.0000471
1.000046
1.0000447
1.0000433
1.0000417
1.0000399
1.0000379
1.0000356
1.0000331
1.0000302
1.0000271
1.0000235
1.0000195
1.0000151
1.0000103
1.0000049
0.99999916
0.99999297
0.99998641
0.99997953
0.99997234
0.99996485
0.99995709
0.99994912
0.99994095
0.99993266
0.99992433
0.99991603
0.99990782
0.99989975
0.99989188
0.99988426
0.99987697
0.99987006
0.99986358
0.99985756
0.99985202
0.99984697
0.99984241
0.99983831
0.99983466
0.99983141
0.99982855
1.0000477
1.0000472
1.0000466
1.000046
1.0000452
1.0000444
1.0000435
1.0000424
1.0000412
1.0000399
1.0000383
1.0000366
1.0000347
1.0000325
1.0000301
1.0000274
1.0000244
1.0000211
1.0000173
1.0000131
1.0000085
1.0000035
0.99999801
0.99999214
0.99998591
0.99997938
0.99997257
0.99996546
0.99995811
0.99995053
0.99994274
0.99993482
0.99992685
0.99991889
0.99991095
0.99990308
0.99989535
0.99988783
0.99988058
0.99987367
0.99986716
0.99986109
0.99985547
0.99985031
0.99984562
0.99984137
0.99983755
0.99983409
0.99983104
1.000044
1.0000435
1.000043
1.0000424
1.0000417
1.0000409
1.00004
1.000039
1.0000379
1.0000366
1.0000351
1.0000335
1.0000317
1.0000296
1.0000273
1.0000248
1.0000219
1.0000188
1.0000153
1.0000113
1.000007
1.0000022
0.99999702
0.99999146
0.99998557
0.9999794
0.99997297
0.99996624
0.99995929
0.99995211
0.9999447
0.99993717
0.99992958
0.99992195
0.99991427
0.9999066
0.999899
0.99989155
0.99988433
0.99987739
0.99987081
0.99986462
0.99985889
0.99985364
0.9998489
0.99984467
0.99984094
0.99983768
0.99983484
1.0000404
1.00004
1.0000394
1.0000389
1.0000382
1.0000375
1.0000366
1.0000357
1.0000346
1.0000334
1.000032
1.0000305
1.0000288
1.0000268
1.0000247
1.0000223
1.0000196
1.0000166
1.0000133
1.0000096
1.0000055
1.0000011
0.99999617
0.99999094
0.99998539
0.99997958
0.99997352
0.99996719
0.99996065
0.99995386
0.99994685
0.99993973
0.99993253
0.99992522
0.9999178
0.99991034
0.9999029
0.99989554
0.99988833
0.99988131
0.99987457
0.99986815
0.99986211
0.9998565
0.99985133
0.99984661
0.99984235
0.99983848
0.99983509
1.0000369
1.0000365
1.000036
1.0000354
1.0000348
1.0000341
1.0000333
1.0000324
1.0000314
1.0000303
1.0000291
1.0000276
1.000026
1.0000242
1.0000222
1.0000199
1.0000174
1.0000146
1.0000115
1.0000081
1.0000043
1
0.99999547
0.99999056
0.99998536
0.99997991
0.99997424
0.99996831
0.99996219
0.9999558
0.9999492
0.99994253
0.99993573
0.99992874
0.99992161
0.9999144
0.99990716
0.99989991
0.9998927
0.99988558
0.99987862
0.99987192
0.99986556
0.99985964
0.99985424
0.99984944
0.99984524
0.99984168
0.99983862
1.0000335
1.0000331
1.0000326
1.0000321
1.0000314
1.0000308
1.00003
1.0000292
1.0000283
1.0000273
1.0000261
1.0000248
1.0000233
1.0000217
1.0000198
1.0000176
1.0000153
1.0000127
1.0000098
1.0000066
1.0000031
0.99999916
0.99999489
0.99999029
0.99998543
0.99998035
0.99997505
0.99996953
0.99996385
0.99995788
0.99995175
0.99994557
0.99993918
0.99993257
0.99992581
0.99991894
0.99991197
0.99990486
0.99989764
0.99989033
0.99988302
0.99987579
0.99986874
0.99986198
0.99985557
0.99984958
0.99984408
0.99983901
0.99983458
1.0000304
1.0000299
1.0000294
1.0000288
1.0000282
1.0000275
1.0000268
1.000026
1.0000252
1.0000243
1.0000232
1.0000221
1.0000208
1.0000193
1.0000175
1.0000156
1.0000134
1.0000109
1.0000083
1.0000053
1.0000021
0.99999841
0.99999442
0.99999013
0.99998559
0.99998085
0.99997592
0.9999708
0.99996553
0.99995996
0.99995433
0.99994866
0.99994269
0.99993655
0.9999303
0.99992391
0.99991731
0.99991045
0.99990329
0.99989586
0.99988822
0.99988048
0.99987277
0.99986532
0.99985831
0.99985197
0.99984644
0.9998419
0.99983815
1.0000272
1.0000267
1.0000262
1.0000256
1.000025
1.0000244
1.0000237
1.000023
1.0000222
1.0000214
1.0000205
1.0000195
1.0000183
1.000017
1.0000155
1.0000136
1.0000116
1.0000093
1.0000069
1.0000042
1.0000011
0.99999779
0.99999411
0.99999017
0.999986
0.99998164
0.9999771
0.99997239
0.99996753
0.99996238
0.99995727
0.99995203
0.99994643
0.99994085
0.99993514
0.99992928
0.99992306
0.99991648
0.99990941
0.99990189
0.99989388
0.99988544
0.99987661
0.99986751
0.99985826
0.99984916
0.9998403
0.99983204
0.99982457
1.0000242
1.0000237
1.0000231
1.0000226
1.000022
1.0000213
1.0000207
1.00002
1.0000193
1.0000185
1.0000177
1.0000168
1.0000157
1.0000145
1.0000132
1.0000116
1.0000097
1.0000076
1.0000053
1.0000029
1.0000002
0.9999972
0.99999391
0.99999038
0.99998665
0.99998276
0.9999787
0.99997451
0.99997018
0.99996558
0.99996116
0.99995644
0.99995138
0.99994657
0.99994146
0.99993619
0.99993039
0.99992417
0.99991721
0.99990965
0.99990119
0.999892
0.99988208
0.99987178
0.99986165
0.99985224
0.99984371
0.99983723
0.99983107
1.0000207
1.00002
1.0000192
1.0000186
1.0000179
1.0000174
1.0000169
1.0000164
1.0000159
1.0000154
1.0000147
1.000014
1.0000131
1.0000122
1.0000111
1.0000097
1.0000081
1.0000062
1.0000042
1.0000019
0.9999994
0.99999659
0.99999352
0.99999015
0.99998661
0.99998295
0.99997919
0.99997537
0.99997142
0.99996728
0.99996365
0.99995949
0.99995542
0.99995164
0.99994745
0.99994315
0.99993827
0.99993301
0.99992691
0.99992008
0.99991197
0.99990252
0.99989154
0.99987871
0.99986481
0.99984793
0.99982925
0.99980926
0.99978778
1.0000157
1.0000148
1.0000143
1.000014
1.0000138
1.0000137
1.0000137
1.0000137
1.0000136
1.0000136
1.0000134
1.0000131
1.0000126
1.0000119
1.0000109
1.0000097
1.0000082
1.0000063
1.0000042
1.0000018
0.99999926
0.99999647
0.9999933
0.99998985
0.99998621
0.99998243
0.9999786
0.99997471
0.99997074
0.9999666
0.99996338
0.99995836
0.9999558
0.99995176