/*--------------------------------*- C++ -*----------------------------------*\
| =========                 |                                                 |
| \\      /  F ield         | OpenFOAM: The Open Source CFD Toolbox           |
|  \\    /   O peration     | Version:  v2006                                 |
|   \\  /    A nd           | Website:  www.openfoam.com                      |
|    \\/     M anipulation  |                                                 |
\*---------------------------------------------------------------------------*/
FoamFile
{
    version     2.0;
    format      ascii;
    class       volVectorField;
    location    "1000";
    object      U;
}
// * * * * * * * * * * * * * * * * * * * * * * * * * * * * * * * * * * * * * //

dimensions      [0 1 -1 0 0 0 0];


internalField   nonuniform List<vector> 
19765
(
(0.089095709 0.029477978 -9.0337988e-20)
(0.086406573 0.032551164 9.0726225e-20)
(0.079568601 0.034484785 -9.2898905e-20)
(0.071818814 0.034822916 0)
(0.065166805 0.03415589 0)
(0.059129207 0.03264777 2.2700102e-19)
(0.052893331 0.030335918 -1.8080949e-19)
(0.047312733 0.027676442 0)
(0.041810212 0.024458397 4.5440348e-19)
(0.035828152 0.020488608 3.8553546e-20)
(0.030986235 0.016352497 -7.7256988e-19)
(0.027161823 0.011729524 7.6489683e-19)
(0.023722538 0.0071064652 -8.5671204e-19)
(0.02081945 0.0022752927 -9.8186918e-19)
(0.018710158 -0.0026563628 1.141628e-18)
(0.01702155 -0.0078414503 0)
(0.015515825 -0.012933204 -2.3050211e-20)
(0.014461553 -0.017904792 1.977094e-20)
(0.013901808 -0.023135765 -1.0178465e-18)
(0.013749938 -0.028441426 8.443827e-19)
(0.013997367 -0.033870293 -3.5975243e-19)
(0.014600703 -0.039187831 6.1906293e-19)
(0.015582631 -0.044364554 -2.7880069e-19)
(0.017025522 -0.04977037 1.171076e-20)
(0.018890255 -0.055165539 -5.7007925e-20)
(0.020936589 -0.059803937 4.4786492e-20)
(0.023174896 -0.063964407 -1.9726664e-19)
(0.025860269 -0.068468917 1.8713457e-19)
(0.028826754 -0.072826379 0)
(0.031910631 -0.076671369 3.4365594e-19)
(0.035370029 -0.080582218 -3.2715012e-19)
(0.039402895 -0.084633989 6.2664563e-19)
(0.044609094 -0.088901096 -6.0388559e-19)
(0.050312689 -0.092668941 2.907696e-19)
(0.055126509 -0.095019299 -2.862152e-19)
(0.059668138 -0.096853295 -2.7124946e-19)
(0.065680019 -0.099122065 1.8781614e-22)
(0.072147896 -0.10095188 5.2646509e-19)
(0.078092166 -0.10185046 -2.7751705e-19)
(0.08568069 -0.10280982 -2.5168988e-19)
(0.094505524 -0.10330506 2.4610514e-19)
(0.10054044 -0.10191012 -1.5328981e-20)
(0.10589082 -0.099649657 -3.0209933e-20)
(0.11111009 -0.096671093 1.2133309e-19)
(0.11422965 -0.092761028 -2.7441492e-19)
(0.11670144 -0.088110289 1.226861e-19)
(0.11677621 -0.082872407 0)
(0.11571176 -0.077581288 -1.2880034e-19)
(0.11448572 -0.072826051 0)
(0.080438121 0.017126831 1.4755263e-19)
(0.077406758 0.019844761 1.4198646e-19)
(0.073846464 0.022163801 -6.7453113e-20)
(0.069998286 0.023094089 6.6962968e-20)
(0.066088209 0.023111191 -3.3086756e-19)
(0.062349758 0.022415875 2.6235882e-19)
(0.0587203 0.021198212 -3.2083276e-20)
(0.055372056 0.019578922 2.5466792e-19)
(0.052181083 0.017570462 3.1083224e-20)
(0.048978983 0.015316045 -2.9152461e-19)
(0.04599941 0.012683334 1.554337e-20)
(0.043429146 0.0096321059 4.7192223e-19)
(0.041140977 0.0062165792 -7.6320441e-19)
(0.039164149 0.002560645 2.2777201e-19)
(0.037668645 -0.0012962785 -2.6695309e-19)
(0.036462802 -0.0053411774 3.0772024e-19)
(0.035368003 -0.0095441718 -1.7817489e-20)
(0.034595407 -0.01387392 0)
(0.034276139 -0.018312165 1.9659581e-20)
(0.034369038 -0.022805273 -3.0482092e-19)
(0.034829452 -0.027302013 2.6583765e-19)
(0.035556013 -0.031833338 2.0705691e-20)
(0.036619186 -0.036340268 7.7599687e-21)
(0.038094174 -0.040739092 -1.0929e-20)
(0.039828041 -0.045045933 -2.7569921e-20)
(0.041666696 -0.049349467 2.3033322e-20)
(0.043723627 -0.053572442 9.421678e-20)
(0.046105243 -0.057612435 -3.0078489e-19)
(0.048737564 -0.061525262 3.7163584e-19)
(0.051603138 -0.065286182 -1.7934141e-19)
(0.054762467 -0.068800664 1.0809475e-20)
(0.058282434 -0.071977594 0)
(0.062146304 -0.074687277 1.7213363e-19)
(0.066161509 -0.077007175 -7.1161272e-23)
(0.070218495 -0.07908045 -1.5935976e-19)
(0.074416544 -0.080866319 -1.7640885e-19)
(0.078821052 -0.082184397 6.9957251e-23)
(0.083331861 -0.083004959 -1.3569005e-19)
(0.087903882 -0.083322656 1.448149e-19)
(0.09255369 -0.082965294 1.5345745e-19)
(0.097131698 -0.081786562 1.7631211e-19)
(0.10159349 -0.079842358 -3.2471262e-19)
(0.1059612 -0.077521045 1.8547683e-19)
(0.11018353 -0.074525589 -2.1523614e-20)
(0.11405788 -0.07153154 -8.8517245e-20)
(0.11753073 -0.068395847 1.8325955e-19)
(0.12054115 -0.065329555 -1.4228376e-19)
(0.1230888 -0.062741253 -4.8925145e-20)
(0.12527213 -0.06028467 1.0074582e-19)
(0.084005243 0.016532874 8.0322241e-20)
(0.081722041 0.016775364 5.4363094e-24)
(0.079067504 0.016818685 1.5638375e-19)
(0.076167462 0.016740186 -7.037618e-25)
(0.073281732 0.016275071 -2.4535461e-19)
(0.070430045 0.015515719 3.3731446e-19)
(0.067666187 0.014443699 -8.5727505e-20)
(0.065010135 0.013181715 0)
(0.062503946 0.011618697 0)
(0.059987655 0.0098886659 4.6986815e-20)
(0.057640478 0.0078723789 0)
(0.05553707 0.0055143243 5.2115421e-20)
(0.053625075 0.0028663938 4.9628255e-19)
(0.051960202 -2.4304302e-06 5.9218157e-19)
(0.050644771 -0.0030813192 -1.0265209e-18)
(0.049561752 -0.0063529274 -2.9700717e-23)
(0.048622605 -0.009780346 3.9061087e-20)
(0.047951958 -0.013355282 -7.1492606e-19)
(0.047615337 -0.017079968 7.9023895e-19)
(0.047623256 -0.020890489 0)
(0.047957632 -0.02472987 5.3531165e-20)
(0.048520677 -0.028656408 -1.584075e-23)
(0.049434639 -0.032580773 -1.8466243e-20)
(0.050711099 -0.036436854 -3.1878733e-20)
(0.052206519 -0.040217573 1.1209828e-19)
(0.053830396 -0.043992711 -1.2739397e-20)
(0.055741859 -0.04769143 -1.732095e-19)
(0.057977321 -0.051231289 5.3007657e-19)
(0.060418503 -0.054665101 -3.1658652e-19)
(0.063100695 -0.057944827 3.7079685e-20)
(0.066039134 -0.060990297 2.6206692e-19)
(0.069208768 -0.063750094 -5.6383878e-19)
(0.072599138 -0.066130731 -2.6897749e-19)
(0.076044134 -0.068273106 4.920439e-19)
(0.079540738 -0.070243033 4.7799239e-19)
(0.083158984 -0.07189993 -4.3250331e-19)
(0.086893774 -0.073121614 0)
(0.090625695 -0.074065288 1.9196571e-19)
(0.094388553 -0.074651145 -2.1398524e-19)
(0.098136888 -0.074760051 2.3474502e-19)
(0.10176263 -0.074586383 -2.3412489e-19)
(0.10522178 -0.074335486 0)
(0.1085863 -0.073701645 0)
(0.11166715 -0.072803722 2.6074262e-20)
(0.11454354 -0.071698719 0)
(0.11708801 -0.070572646 -5.201905e-20)
(0.11938079 -0.069339528 2.0552854e-19)
(0.12146938 -0.068021056 -1.0167338e-19)
(0.12340491 -0.066567584 0)
(0.082841629 0.011783299 -8.4898333e-20)
(0.081174849 0.011969879 -2.5208748e-19)
(0.079449532 0.011975109 8.1779731e-20)
(0.077634692 0.011854216 -4.1823031e-19)
(0.075793072 0.011442356 3.4106818e-19)
(0.073954098 0.010806772 3.5149011e-19)
(0.072140516 0.009923556 -2.6758793e-19)
(0.070383497 0.0088973932 3.7066605e-19)
(0.068670862 0.0076125226 4.9658722e-23)
(0.066958266 0.0062229223 -8.774399e-19)
(0.065329698 0.0046271543 5.0986507e-19)
(0.063835883 0.0027624534 0)
(0.062456032 0.00065965793 -5.6181598e-20)
(0.061242544 -0.0016125369 -1.0158231e-18)
(0.06026637 -0.004087454 1.1533567e-18)
(0.059457985 -0.0067607796 1.0386216e-18)
(0.058768927 -0.0095619359 -2.4372063e-18)
(0.058288767 -0.012490401 1.3737831e-18)
(0.058078938 -0.015578786 -7.9710513e-19)
(0.058153106 -0.018752005 9.6482212e-19)
(0.058509081 -0.021952492 0)
(0.059076518 -0.025249123 -6.0148021e-19)
(0.059917293 -0.028538624 6.9557339e-19)
(0.061039377 -0.031790499 -3.7963784e-19)
(0.062368114 -0.034992692 6.3507066e-20)
(0.06385279 -0.038194185 -7.9854722e-24)
(0.065585642 -0.041318657 -1.9921757e-19)
(0.067578955 -0.044291473 5.4530778e-19)
(0.069753542 -0.047149936 -3.383876e-19)
(0.0721253 -0.049848142 -3.5682588e-19)
(0.074687138 -0.052319698 2.9979815e-19)
(0.077405526 -0.05453422 6.7812974e-19)
(0.080250918 -0.056429139 -1.780236e-22)
(0.083124164 -0.058110997 -6.0183275e-19)
(0.086042865 -0.059625707 4.5766783e-19)
(0.08903328 -0.060876993 -5.0832391e-19)
(0.092047492 -0.061781006 4.9495672e-19)
(0.095016711 -0.062454177 -9.7905133e-19)
(0.097974905 -0.062856467 5.0979418e-19)
(0.10085996 -0.06291754 2.0548716e-19)
(0.10361524 -0.062751731 -2.3464012e-19)
(0.10631557 -0.062488239 -5.8988741e-20)
(0.10901432 -0.061952237 2.3126491e-19)
(0.11157822 -0.061296617 -2.3464673e-19)
(0.11411539 -0.060428815 0)
(0.11655427 -0.059393699 1.1677377e-19)
(0.11898124 -0.058245302 -5.7741885e-20)
(0.12135715 -0.057037408 0)
(0.12368956 -0.055809965 0)
(0.083696009 0.0096355708 -7.9408779e-20)
(0.082360145 0.009303724 -2.3525541e-19)
(0.080987455 0.0089261507 3.0501512e-19)
(0.079581255 0.0085563264 7.7609581e-20)
(0.078179934 0.0080329921 2.3623653e-19)
(0.076790998 0.0073926492 -2.4187203e-19)
(0.075424717 0.0065962295 2.4430057e-19)
(0.074099898 0.0057088975 -4.1959643e-19)
(0.072809202 0.0046325552 -8.5069337e-20)
(0.071518973 0.0034710143 1.7406899e-19)
(0.070290407 0.0021422028 -8.1114613e-19)
(0.069155152 0.00059689995 8.4137061e-19)
(0.068102101 -0.0011469078 9.7050294e-20)
(0.067171181 -0.0030447226 8.148404e-19)
(0.066413965 -0.0051240649 -1.0756403e-19)
(0.065787153 -0.00737657 -9.1365966e-19)
(0.065263191 -0.0097506113 0)
(0.064910003 -0.012254438 0)
(0.064777069 -0.014913652 0)
(0.064879131 -0.017678674 -5.2291798e-19)
(0.06521929 -0.020511068 8.0868625e-19)
(0.06575396 -0.023420789 -8.5603867e-19)
(0.066523148 -0.026321086 5.3450539e-19)
(0.0675476 -0.029201448 -6.3973953e-20)
(0.068771581 -0.032043327 1.0218616e-23)
(0.07014896 -0.034873317 2.4794465e-20)
(0.071737144 -0.037623533 4.4779124e-20)
(0.073543726 -0.040241442 -8.2179645e-20)
(0.075508627 -0.042755144 2.3049528e-19)
(0.077633624 -0.045119011 -2.8974579e-19)
(0.079906733 -0.047283479 0)
(0.08229683 -0.04922972 -5.9299965e-19)
(0.084775646 -0.050909803 1.0164196e-18)
(0.087267347 -0.052413471 -4.3570372e-19)
(0.08977524 -0.053771203 -4.2756264e-19)
(0.09231447 -0.054907132 1.4062504e-22)
(0.094852458 -0.055764063 9.3377249e-19)
(0.097337022 -0.056451432 -4.6321605e-19)
(0.099788577 -0.056935641 0)
(0.10217496 -0.057167 0)
(0.1044609 -0.057257881 -1.6814129e-19)
(0.10668618 -0.057338119 2.2585499e-19)
(0.10889667 -0.057215233 5.5547186e-20)
(0.11100991 -0.057091142 3.3831472e-19)
(0.11311139 -0.056830201 -5.5828178e-20)
(0.1151444 -0.056549277 -2.8211049e-19)
(0.1171462 -0.056212495 5.6363898e-20)
(0.11911221 -0.055735961 0)
(0.12104242 -0.055077487 -3.5370088e-23)
(0.084353627 0.0072940715 3.5621018e-24)
(0.083356516 0.0069651343 -5.150638e-24)
(0.082342198 0.0065775177 0)
(0.081303897 0.006172877 -3.5912484e-19)
(0.080272624 0.0056478556 7.252008e-20)
(0.079247785 0.0050299923 2.2163812e-19)
(0.078232077 0.0042926655 7.4302842e-20)
(0.077242253 0.0034802772 1.5219441e-19)
(0.07626952 0.0025219769 7.6773238e-20)
(0.075291324 0.0014874966 -1.5608478e-19)
(0.074357541 0.00031699263 0)
(0.073493334 -0.001026786 -2.4749083e-19)
(0.072691254 -0.0025340995 -8.492168e-20)
(0.071983779 -0.0041758437 1.7634261e-19)
(0.071413126 -0.005971848 0)
(0.070949687 -0.0079170406 -1.9299672e-19)
(0.070575616 -0.0099763371 1.0228089e-18)
(0.070346231 -0.012154401 -8.8087302e-19)
(0.070304125 -0.014465431 0)
(0.070464902 -0.016869077 9.4377852e-19)
(0.070838049 -0.019332814 -1.2444438e-18)
(0.07139346 -0.02185725 7.867404e-19)
(0.072149908 -0.024384394 -4.6601477e-19)
(0.073131312 -0.026906519 1.1260862e-19)
(0.074294362 -0.029397183 -9.8556977e-20)
(0.075602626 -0.031869613 -1.3251638e-19)
(0.077093719 -0.034269104 1.2043216e-19)
(0.078771027 -0.036551142 3.7040674e-19)
(0.080588413 -0.038731978 -6.2624784e-19)
(0.082540115 -0.040775916 1.2931889e-22)
(0.084610602 -0.042644472 5.0343215e-19)
(0.086771834 -0.044322451 4.8424126e-19)
(0.088997029 -0.045774716 -4.6899607e-19)
(0.091229668 -0.047064766 -1.1516847e-19)
(0.093468708 -0.048217031 0)
(0.095718637 -0.049182436 4.4437616e-19)
(0.097951965 -0.049923612 -1.0779864e-22)
(0.10013191 -0.050514735 -4.3385812e-19)
(0.10227231 -0.05093789 0)
(0.10435038 -0.051163898 0)
(0.10634613 -0.051265119 -1.056859e-19)
(0.10828807 -0.05132022 5.3226839e-20)
(0.11022159 -0.051216242 -5.2469713e-20)
(0.1120856 -0.051069068 -5.3236923e-19)
(0.11395648 -0.050798298 4.7453914e-19)
(0.11579729 -0.050462406 0)
(0.1176572 -0.050035303 -5.3205545e-20)
(0.11953078 -0.049515122 0)
(0.12141421 -0.048879198 2.0962722e-19)
(0.085356304 0.0057605455 6.8903912e-20)
(0.084541183 0.0053296398 -1.3575117e-19)
(0.083717205 0.0048760009 -2.6383051e-19)
(0.082886693 0.0044267778 5.3307792e-19)
(0.082071589 0.003895744 -4.0263263e-19)
(0.081268765 0.0032997595 0)
(0.080476012 0.0026148036 5.4611562e-19)
(0.079706221 0.001869867 -6.9552029e-20)
(0.078950551 0.0010094071 3.4149842e-23)
(0.078191338 8.1420192e-05 -9.1950049e-19)
(0.07746865 -0.00096086918 -3.0256455e-23)
(0.076802012 -0.0021470804 5.9050925e-19)
(0.076186264 -0.0034720441 6.0347076e-19)
(0.075647821 -0.0049158081 -1.3985846e-18)
(0.075221167 -0.0064938466 6.4309948e-19)
(0.074886012 -0.0082033425 8.3435672e-19)
(0.074631491 -0.010018888 -1.573148e-18)
(0.074502555 -0.011943255 1.4617665e-23)
(0.074534466 -0.013985452 5.9927526e-19)
(0.074741478 -0.016113692 -8.7568816e-19)
(0.075131186 -0.018303665 7.3758228e-19)
(0.075682898 -0.020549556 5.1781102e-19)
(0.076410399 -0.022799651 2.3223885e-19)
(0.077336893 -0.025047701 -1.9825966e-19)
(0.078428176 -0.027271096 1.3643297e-21)
(0.079655366 -0.029476438 -7.8731363e-20)
(0.081044717 -0.031616744 0)
(0.082595718 -0.033654723 1.3354748e-19)
(0.084270311 -0.03560274 -1.2602999e-19)
(0.086060144 -0.037430088 1.199102e-19)
(0.087949205 -0.039105356 0)
(0.089912699 -0.04061747 0)
(0.091925731 -0.041938099 4.3229039e-19)
(0.093942662 -0.043121096 -4.2600835e-19)
(0.095959554 -0.044186597 -4.2051164e-19)
(0.097977444 -0.045094593 8.2714266e-19)
(0.099973878 -0.045815194 -9.3583237e-23)
(0.10192202 -0.046414906 -1.0155134e-19)
(0.10383101 -0.046878415 -4.0161103e-19)
(0.10568502 -0.047179509 -3.9680183e-19)
(0.10747033 -0.04738333 4.4767612e-19)
(0.10921149 -0.047567495 0)
(0.11093867 -0.047620734 -1.9792631e-19)
(0.11261597 -0.047664583 2.0070376e-19)
(0.11429594 -0.047613115 -1.9890381e-19)
(0.11595798 -0.047535408 1.0047233e-19)
(0.11763526 -0.047400629 0)
(0.11932737 -0.047203594 2.0004804e-19)
(0.12104525 -0.046889743 -1.9776445e-19)
(0.086270197 0.0043437569 -1.9280209e-19)
(0.085629538 0.0039290609 1.2655555e-19)
(0.084981017 0.0034895985 2.4599444e-19)
(0.084326691 0.0030462435 -1.23925e-19)
(0.083686805 0.0025362444 -3.7353544e-19)
(0.083057286 0.0019718452 7.55644e-19)
(0.082435331 0.0013347181 -8.8146162e-19)
(0.081831981 0.00064497396 5.1131249e-19)
(0.081239746 -0.00013972791 -1.2803193e-19)
(0.080644757 -0.00098623274 -1.2901403e-19)
(0.080081024 -0.001930323 -5.2420933e-19)
(0.079564484 -0.0029952999 7.3890404e-24)
(0.079091502 -0.0041789439 -1.6246579e-23)
(0.078684053 -0.0054674885 8.307266e-19)
(0.07837105 -0.0068724315 0)
(0.078138154 -0.0083926014 -2.9280139e-19)
(0.077978991 -0.010009915 0)
(0.077931293 -0.011725323 3.1916857e-19)
(0.078024902 -0.013543701 -1.6959729e-19)
(0.078272983 -0.015439163 0)
(0.078682974 -0.017391622 -4.7964629e-23)
(0.079242055 -0.019393291 -2.1778046e-19)
(0.079959626 -0.021400724 0)
(0.080854288 -0.023407537 -1.7530641e-19)
(0.081899388 -0.025393803 7.6497609e-20)
(0.083071233 -0.02736111 3.5214909e-20)
(0.08438798 -0.029269321 0)
(0.085847023 -0.031085604 -1.2072655e-19)
(0.087416737 -0.032817847 -1.1436805e-19)
(0.089087172 -0.034440617 -1.0932209e-19)
(0.090842082 -0.035927863 0)
(0.092658927 -0.037270348 -2.04351e-19)
(0.094514769 -0.038445428 0)
(0.096372437 -0.039495148 -9.8504788e-20)
(0.09822703 -0.040436221 8.492214e-23)
(0.1000765 -0.041239171 8.234782e-23)
(0.10190125 -0.041881829 3.8054095e-19)
(0.10368037 -0.042415374 4.7460059e-19)
(0.1054206 -0.042829724 -7.3587138e-23)
(0.10710888 -0.043106062 -6.9446669e-23)
(0.10873577 -0.043292848 -7.4881163e-19)
(0.11032092 -0.043447058 6.7468025e-23)
(0.11189159 -0.043488908 3.7329714e-19)
(0.11341838 -0.043503598 1.8910385e-19)
(0.11494837 -0.043430027 -1.8766931e-19)
(0.11646505 -0.043313276 9.4710179e-20)
(0.11800024 -0.043129193 9.4599426e-20)
(0.11955638 -0.04287164 -1.8863557e-19)
(0.12114392 -0.042504522 2.7984136e-19)
(0.087222453 0.0032981134 1.199638e-19)
(0.086697305 0.0028769393 -4.133505e-19)
(0.086166313 0.0024402613 0)
(0.085633924 0.0020027927 -4.6198031e-19)
(0.085116838 0.0015127842 9.2635792e-19)
(0.084611032 0.00097822659 -4.6721644e-19)
(0.084113028 0.00038346176 -1.1654984e-19)
(0.083632223 -0.00025760375 1.1789191e-19)
(0.083162029 -0.00097877961 2.3554147e-19)
(0.082691335 -0.0017564621 0)
(0.082249027 -0.0026191186 0)
(0.081848321 -0.0035856375 -1.2093967e-19)
(0.081486635 -0.0046554223 0)
(0.081182539 -0.0058186313 -2.4887217e-19)
(0.080960533 -0.0070841818 0)
(0.080810315 -0.0084518817 -7.7934531e-19)
(0.080728446 -0.0099082734 5.3527034e-19)
(0.08074692 -0.011453062 -5.5729682e-19)
(0.080891103 -0.013088619 8.7990427e-19)
(0.081172766 -0.014793611 6.259178e-19)
(0.08159858 -0.016551255 -5.1001144e-19)
(0.082160234 -0.018353499 1.8639043e-19)
(0.082864777 -0.020162743 -1.7965945e-19)
(0.083727305 -0.021971013 1.5000819e-23)
(0.084727132 -0.023761768 6.9409685e-20)
(0.085844437 -0.025534259 -6.3207395e-20)
(0.087092216 -0.02725369 0)
(0.088466449 -0.028891389 1.0934798e-19)
(0.089940174 -0.030453078 1.0401789e-19)
(0.091503017 -0.03191715 0)
(0.093139273 -0.03326162 -1.9300294e-19)
(0.0948287 -0.034479173 3.7598808e-19)
(0.096550285 -0.035551179 0)
(0.098272927 -0.036513177 -9.1201312e-19)
(0.099991147 -0.037379432 7.2431235e-19)
(0.10170152 -0.038125738 0)
(0.10338674 -0.038733791 3.5511994e-19)
(0.10503052 -0.039248144 -3.5509523e-19)
(0.10663739 -0.039660246 0)
(0.10819656 -0.0399535 2.6276805e-19)
(0.10970077 -0.040170342 -3.519768e-19)
(0.11116808 -0.040363373 0)
(0.11261732 -0.040458569 8.788036e-20)
(0.11402989 -0.040537773 -3.5599011e-19)
(0.11544093 -0.040542225 3.5360636e-19)
(0.11684085 -0.04051832 3.5674665e-19)
(0.11825479 -0.040443163 -4.4539789e-19)
(0.11968631 -0.040313597 4.4415582e-19)
(0.12114529 -0.040085729 -4.3943834e-19)
(0.088110474 0.0023806944 -5.6061344e-20)
(0.087685915 0.0019832331 1.1039298e-19)
(0.087255628 0.0015702257 2.1476354e-19)
(0.086823741 0.0011526268 5.3906061e-19)
(0.086405813 0.00069028091 -5.3947762e-19)
(0.085998051 0.00018853645 -4.3434241e-19)
(0.085597532 -0.00036530078 9.7321327e-19)
(0.085212458 -0.00096157798 -5.4531772e-19)
(0.084837599 -0.0016270199 -5.434289e-19)
(0.084463931 -0.0023450179 8.7026886e-19)
(0.084116593 -0.0031380935 -4.3840764e-19)
(0.083806862 -0.0040215365 2.2085787e-19)
(0.083533012 -0.0049957727 2.223208e-19)
(0.083310982 -0.0060537059 9.0028171e-19)
(0.083161868 -0.0072020934 -9.140229e-19)
(0.083078227 -0.0084413574 0)
(0.083058603 -0.0097614961 0)
(0.083130537 -0.011161307 4.4262674e-23)
(0.083315836 -0.012641359 0)
(0.083625063 -0.014183792 5.4305547e-19)
(0.084064528 -0.015773827 -5.8348198e-19)
(0.084629066 -0.017403635 6.4008561e-19)
(0.085324362 -0.019041103 -3.157344e-19)
(0.08616227 -0.020676623 4.8669506e-19)
(0.08712648 -0.022296367 -6.2280524e-20)
(0.088200024 -0.023898102 -1.1387616e-19)
(0.08939213 -0.025451138 -1.0561184e-19)
(0.090697978 -0.026929946 -2.9802506e-19)
(0.092094323 -0.028338195 -5.6883782e-19)
(0.093570649 -0.029657412 1.8263198e-19)
(0.095111818 -0.03086864 1.7720522e-19)
(0.096699348 -0.031965583 -1.7318318e-19)
(0.098313871 -0.032932642 -6.8074807e-19)
(0.099928907 -0.0337989 1.3520151e-18)
(0.1015387 -0.034576436 -6.726851e-19)
(0.10313854 -0.03524599 0)
(0.10471266 -0.035792839 -4.974541e-19)
(0.10624753 -0.036253515 4.9833338e-19)
(0.10774627 -0.036621798 1.6544894e-19)
(0.10919908 -0.036884592 -2.4694907e-19)
(0.11060024 -0.037075984 -1.6549547e-19)
(0.11196524 -0.037238428 0)
(0.11331013 -0.037313367 -8.2808057e-20)
(0.11461922 -0.037364993 -2.515255e-19)
(0.1159237 -0.037347111 5.8351007e-19)
(0.11721541 -0.037294849 -2.5228662e-19)
(0.11851753 -0.037189425 -1.6803828e-19)
(0.11983367 -0.037027056 -2.5135358e-19)
(0.12117383 -0.036772531 -1.6588153e-19)
(0.08896786 0.001664275 5.2458342e-19)
(0.08861833 0.0012834831 2.0658225e-19)
(0.088263739 0.00088967426 -5.0267195e-19)
(0.087908668 0.00049082122 4.0310101e-19)
(0.087566807 5.3843439e-05 -8.0560763e-19)
(0.087234845 -0.00041797757 3.0339109e-19)
(0.086910181 -0.00093546144 3.0164635e-19)
(0.086600085 -0.001491957 -4.0454742e-19)
(0.086300306 -0.0021091748 0)
(0.086003559 -0.0027752686 -8.0316492e-19)
(0.085731808 -0.0035084507 8.0646117e-19)
(0.085494832 -0.0043213173 -8.0956289e-19)
(0.085291578 -0.0052148578 6.0898676e-19)
(0.085135912 -0.0061838348 -4.0926577e-19)
(0.085046173 -0.0072334281 1.2407193e-18)
(0.085016994 -0.0083643747 8.3732803e-19)
(0.085048276 -0.0095690263 -1.2790014e-18)
(0.085163932 -0.010845534 2.1907259e-19)
(0.08538284 -0.012193256 1.3630703e-18)
(0.085714458 -0.01359703 -9.5354097e-19)
(0.086164765 -0.01504358 -5.0764297e-19)
(0.086730295 -0.016525637 5.508637e-19)
(0.087415872 -0.018015726 -9.6779303e-19)
(0.088230917 -0.019502697 2.49451e-19)
(0.089162197 -0.020974993 -5.6102746e-20)
(0.090195292 -0.022429867 1.0297686e-19)
(0.091336689 -0.023839949 9.5864224e-20)
(0.092581035 -0.025182539 5.4288753e-19)
(0.093908014 -0.026460058 -1.7326928e-19)
(0.095307285 -0.027656608 5.0205889e-19)
(0.096764429 -0.028755764 0)
(0.098262582 -0.029752279 0)
(0.099783897 -0.030633046 0)
(0.10130553 -0.031422788 3.1337155e-19)
(0.10282169 -0.032132048 -3.1250894e-19)
(0.104327 -0.032744902 3.1096447e-19)
(0.10580694 -0.03324906 -3.097844e-19)
(0.10725037 -0.033676222 1.5539152e-19)
(0.1086592 -0.034021383 -6.2045886e-19)
(0.11002451 -0.0342733 4.6391214e-19)
(0.11134149 -0.034461565 -1.5556383e-19)
(0.11262463 -0.034624259 3.1395472e-19)
(0.11388506 -0.034709016 0)
(0.11511221 -0.034774446 -7.8956842e-20)
(0.11633069 -0.034778492 1.5713359e-19)
(0.11753552 -0.034754479 -1.5842389e-19)
(0.11874585 -0.03468539 3.1667945e-19)
(0.11996595 -0.034569388 1.5793746e-19)
(0.12120407 -0.034370113 -2.2665548e-23)
(0.089767118 0.001050946 -2.9483313e-19)
(0.089480959 0.00069472661 0)
(0.089190099 0.00032555504 -7.4453376e-24)
(0.088898613 -5.0787664e-05 0)
(0.088619188 -0.00046083302 -3.7646819e-19)
(0.088348916 -0.00090275998 9.4336123e-20)
(0.088085817 -0.0013856394 5.6196916e-19)
(0.087836376 -0.0019050146 1.8797906e-19)
(0.087597356 -0.0024784937 -5.5965347e-19)
(0.087362852 -0.0030978014 -7.4310524e-19)
(0.087152283 -0.0037776775 7.4390352e-19)
(0.086974282 -0.0045285335 0)
(0.086828371 -0.005351686 3.7206058e-19)
(0.086726755 -0.0062432314 -3.7365686e-19)
(0.086685552 -0.0072070767 7.5210036e-19)
(0.08670096 -0.0082441069 -7.5823371e-19)
(0.086773829 -0.0093484088 5.310141e-23)
(0.086925112 -0.01051767 7.8576571e-19)
(0.087171281 -0.011750371 -1.2155938e-18)
(0.087520863 -0.013033441 8.4489043e-19)
(0.087979524 -0.014354808 -1.1163265e-18)
(0.088544863 -0.0157077 -2.4019748e-19)
(0.089221234 -0.017068424 0)
(0.090016217 -0.018424873 0)
(0.090918623 -0.019767174 0)
(0.09191622 -0.02109229 0)
(0.093013401 -0.022375634 0)
(0.09420451 -0.023596801 1.6525068e-19)
(0.095471623 -0.024757134 -6.3456759e-19)
(0.096804667 -0.025842789 3.0741681e-19)
(0.09818992 -0.026839298 6.0016722e-19)
(0.099611845 -0.027742068 -5.901053e-19)
(0.10105389 -0.028539868 5.8320367e-19)
(0.10249604 -0.029253479 -5.8174077e-19)
(0.10393247 -0.029892004 2.9066224e-19)
(0.10535719 -0.030442288 -2.8993549e-19)
(0.10675658 -0.030894077 4.3425429e-19)
(0.10812102 -0.031274296 5.817796e-19)
(0.10945148 -0.031579215 -2.9103508e-19)
(0.11073949 -0.031799625 -6.0514779e-25)
(0.11198085 -0.031960351 0)
(0.11318854 -0.032093662 -1.4771755e-19)
(0.1143714 -0.032156019 1.4702383e-19)
(0.11552063 -0.032196195 2.9761907e-19)
(0.1166578 -0.032179376 -3.7058666e-19)
(0.11777868 -0.03213288 -3.7360155e-19)
(0.11890057 -0.032042285 2.9879887e-19)
(0.12002731 -0.031905878 0)
(0.12116651 -0.031692068 1.4777685e-19)
(0.090522186 0.0005585186 -2.763881e-19)
(0.090286292 0.00022339946 -2.7212813e-19)
(0.090046217 -0.00012394602 2.6514641e-19)
(0.089805873 -0.00047937331 0)
(0.089576732 -0.00086479187 -2.641968e-19)
(0.089356344 -0.0012794696 -6.6292918e-24)
(0.089143185 -0.0017311977 5.2423714e-19)
(0.088943115 -0.0022171085 -5.2485221e-19)
(0.088753674 -0.0027517138 5.2001345e-19)
(0.088570127 -0.0033292899 0)
(0.088409713 -0.0039619177 0)
(0.088280149 -0.0046582962 0)
(0.088181419 -0.0054199015 -3.4207367e-19)
(0.088124378 -0.0062437782 -6.8464351e-19)
(0.088123301 -0.0071328537 1.3733081e-18)
(0.088175577 -0.0080880427 -1.3793797e-18)
(0.088282727 -0.00910467 3.4821386e-19)
(0.088463226 -0.010180097 2.2010596e-23)
(0.088731546 -0.011312187 7.2741649e-19)
(0.089095388 -0.01248952 3.7717303e-19)
(0.08956007 -0.013701058 -1.798879e-23)
(0.090123907 -0.014940469 0)
(0.090790845 -0.016187125 2.1745426e-19)
(0.091566997 -0.017428508 -2.0327175e-19)
(0.092442723 -0.018655994 0)
(0.093407575 -0.019866419 -8.5021641e-20)
(0.094464354 -0.021037628 0)
(0.095607232 -0.022151234 1.5125033e-19)
(0.096820238 -0.023207824 -2.9121565e-19)
(0.098093641 -0.024195298 -5.6558278e-19)
(0.099414407 -0.025100876 8.6155945e-23)
(0.10076817 -0.025920604 8.1855557e-19)
(0.10213955 -0.026644887 -5.4068979e-19)
(0.10351084 -0.027291548 2.7020052e-19)
(0.10487627 -0.027868661 0)
(0.10622953 -0.028365287 -8.1136362e-19)
(0.10755784 -0.02877285 3.9989827e-23)
(0.10885288 -0.029114883 -5.4476241e-19)
(0.11011493 -0.029388614 4.0949961e-19)
(0.11133594 -0.029586323 -4.0959773e-19)
(0.11251221 -0.029729637 7.4301822e-23)
(0.11365583 -0.029847249 6.951211e-19)
(0.11477277 -0.029900932 1.3854054e-19)
(0.11585678 -0.029934219 -2.8050462e-19)
(0.11692552 -0.029916259 -2.79615e-19)
(0.11797627 -0.029871951 3.5240498e-19)
(0.11902369 -0.029788465 7.0474994e-20)
(0.12007178 -0.029665251 1.4067665e-19)
(0.12112648 -0.029471519 -2.0937008e-19)
(0.091225848 0.00014403789 0)
(0.091032308 -0.00016855851 -8.511458e-20)
(0.090835113 -0.00049333137 0)
(0.090637661 -0.00082743578 0)
(0.090450561 -0.001188752 0)
(0.090271737 -0.0015773442 0)
(0.090100153 -0.0019998788 -6.5288165e-19)
(0.089941127 -0.0024546732 6.523274e-19)
(0.089792908 -0.0029537108 6.4532391e-19)
(0.089651713 -0.0034931951 -1.2799685e-18)
(0.08953296 -0.0040830546 6.3735945e-19)
(0.089443618 -0.0047305887 0)
(0.089384068 -0.0054373343 6.3055614e-19)
(0.089364048 -0.0062010284 -3.1459387e-19)
(0.089396301 -0.0070238113 -3.1452701e-19)
(0.089479145 -0.0079065569 1.259428e-18)
(0.089614576 -0.0088455004 -6.3359575e-19)
(0.089818989 -0.0098377729 -6.4235436e-19)
(0.090105174 -0.010880792 1.8216151e-23)
(0.090480117 -0.011964451 3.3881867e-19)
(0.090948782 -0.013078598 -3.5413842e-19)
(0.091510014 -0.014217258 -3.7584346e-19)
(0.092167384 -0.01536228 3.8954927e-19)
(0.09292583 -0.016501117 0)
(0.093776941 -0.017626078 8.3826494e-20)
(0.094711698 -0.018733916 -1.2458616e-25)
(0.095731661 -0.019804574 0)
(0.09683094 -0.020821385 0)
(0.097995189 -0.021784321 0)
(0.099215039 -0.022682713 1.0426311e-18)
(0.1004781 -0.023505158 -5.1403263e-23)
(0.10177102 -0.024248164 -7.5792593e-19)
(0.10307941 -0.024903436 5.0190442e-19)
(0.10438743 -0.025486222 0)
(0.10568937 -0.026003642 -2.5200695e-19)
(0.10697863 -0.026446545 2.5249517e-19)
(0.10824309 -0.026807723 -2.5315159e-19)
(0.10947534 -0.027107613 7.6563837e-19)
(0.11067503 -0.02734427 0)
(0.11183442 -0.027511352 0)
(0.1129501 -0.027627483 5.1810165e-19)
(0.11403309 -0.027717604 -5.2360607e-19)
(0.11508768 -0.02774921 5.2253491e-19)
(0.11610876 -0.027759632 -3.9675263e-19)
(0.1171117 -0.027722719 0)
(0.11809425 -0.027659724 -6.652018e-20)
(0.11906947 -0.027559604 -6.6544422e-20)
(0.120041 -0.027422153 -1.9936418e-19)
(0.12101385 -0.027219668 -1.3191445e-19)
(0.091886043 -0.00019166959 -3.2461432e-19)
(0.091727283 -0.00048408137 7.9912659e-20)
(0.091565431 -0.00078839972 1.5589596e-19)
(0.091403546 -0.0011027587 0)
(0.091251345 -0.0014419605 0)
(0.091107115 -0.0018066521 1.5428082e-19)
(0.09097021 -0.0022026114 1.5261499e-19)
(0.09084549 -0.0026290285 0)
(0.090731765 -0.0030958962 0)
(0.090626062 -0.0036008355 2.9768326e-19)
(0.090542217 -0.0041520682 0)
(0.090486579 -0.0047557621 0)
(0.090459848 -0.0054134503 -5.8252015e-19)
(0.090470826 -0.0061233769 2.8981193e-19)
(0.090530953 -0.0068870612 0)
(0.090639281 -0.0077052928 -5.7688724e-19)
(0.090798135 -0.0085749721 -5.7856478e-19)
(0.091022139 -0.0094930751 5.8464082e-19)
(0.091322659 -0.010456703 1.1906309e-18)
(0.091706048 -0.011456815 -6.1206146e-19)
(0.092176923 -0.012484027 -6.3670624e-19)
(0.092734515 -0.013532671 3.3617664e-19)
(0.09338204 -0.014586623 -3.5082723e-19)
(0.094123453 -0.015633557 -8.4030141e-20)
(0.094951356 -0.016666498 7.7751995e-20)
(0.095857882 -0.017682162 0)
(0.096843605 -0.018662328 2.6750262e-19)
(0.097902639 -0.019591847 0)
(0.099021998 -0.020470238 4.9340488e-19)
(0.10019267 -0.02128805 -3.0387883e-23)
(0.10140289 -0.022035089 -4.7330129e-19)
(0.10264015 -0.022708296 -6.702026e-23)
(0.10389099 -0.023300516 -4.663186e-19)
(0.10514112 -0.023824961 -4.675725e-19)
(0.10638492 -0.024288031 -1.1746493e-18)
(0.10761565 -0.024682116 9.4350556e-19)
(0.10882181 -0.025001229 0)
(0.1099968 -0.025263416 -2.3919062e-19)
(0.11113984 -0.025467466 0)
(0.1122435 -0.025608211 4.8282234e-19)
(0.11330465 -0.025702022 2.4377873e-19)
(0.11433355 -0.025771083 -5.8323452e-23)
(0.11533274 -0.025787135 -4.9281277e-19)
(0.11629851 -0.025783226 3.9926932e-24)
(0.11724372 -0.025736522 -2.4913669e-19)
(0.1181669 -0.025666075 2.5121132e-19)
(0.11907927 -0.025562164 -2.5138555e-19)
(0.11998446 -0.025425314 5.651203e-19)
(0.12088607 -0.025229199 6.2348877e-20)
(0.092502053 -0.00046922548 -3.0496009e-19)
(0.092372795 -0.00074199802 7.5072265e-20)
(0.092241034 -0.0010265771 2.9308073e-19)
(0.092109376 -0.0013218974 7.3018077e-19)
(0.091986817 -0.0016401453 -5.8035534e-19)
(0.091871941 -0.0019823917 -1.4455579e-19)
(0.091764459 -0.0023536482 -1.4285064e-19)
(0.091668833 -0.0027537559 -5.6886506e-19)