/*--------------------------------*- C++ -*----------------------------------*\
| =========                 |                                                 |
| \\      /  F ield         | OpenFOAM: The Open Source CFD Toolbox           |
|  \\    /   O peration     | Version:  v2006                                 |
|   \\  /    A nd           | Website:  www.openfoam.com                      |
|    \\/     M anipulation  |                                                 |
\*---------------------------------------------------------------------------*/
FoamFile
{
    version     2.0;
    format      ascii;
    class       volVectorField;
    location    "1000";
    object      UMean;
}
// * * * * * * * * * * * * * * * * * * * * * * * * * * * * * * * * * * * * * //

dimensions      [0 1 -1 0 0 0 0];


internalField   nonuniform List<vector> 
19765
(
(0.097023076 0.034508709 -8.3408116e-20)
(0.094988805 0.038453573 8.3364649e-20)
(0.088299419 0.041155627 -8.4765155e-20)
(0.080487191 0.042207669 0)
(0.073817297 0.042264483 0)
(0.067757297 0.04148945 2.021682e-19)
(0.061329985 0.039861681 -1.5947569e-19)
(0.055652391 0.037784514 0)
(0.049868546 0.035088536 3.922558e-19)
(0.043328714 0.031518524 3.2915081e-20)
(0.037969305 0.027768028 -6.493376e-19)
(0.033768836 0.023722925 6.3215111e-19)
(0.029946372 0.019252257 -6.9352261e-19)
(0.026675679 0.014698398 -7.7526256e-19)
(0.024247125 0.010134655 8.7348117e-19)
(0.022103956 0.0052601635 0)
(0.020018717 0.00027163064 -1.8154955e-20)
(0.018371022 -0.0046025604 1.914568e-20)
(0.017307411 -0.0095874514 -1.1610285e-18)
(0.016728923 -0.014673117 1.0595621e-18)
(0.01658462 -0.019857636 -4.7763772e-19)
(0.016765524 -0.025011081 8.4915836e-19)
(0.017286734 -0.030043436 -3.89237e-19)
(0.018251171 -0.035225517 1.6337638e-20)
(0.019592131 -0.040421993 -7.7559242e-20)
(0.021078694 -0.04506464 5.8752765e-20)
(0.022763928 -0.049319293 -2.5133726e-19)
(0.024880513 -0.053848587 2.3301818e-19)
(0.027269032 -0.058266353 0)
(0.029810521 -0.06224817 4.1359262e-19)
(0.03273859 -0.066277303 -3.8870621e-19)
(0.036218779 -0.070404897 7.3661564e-19)
(0.04076477 -0.074699161 -7.0325299e-19)
(0.045797752 -0.078569293 3.3591537e-19)
(0.050118751 -0.081200981 -3.282241e-19)
(0.054263567 -0.083355762 -3.0903892e-19)
(0.059752507 -0.08587411 1.8583277e-22)
(0.065692974 -0.088000158 5.9300909e-19)
(0.071214661 -0.089276066 -3.1102113e-19)
(0.078253093 -0.090588904 -2.8082448e-19)
(0.086458361 -0.091460328 2.7338373e-19)
(0.092214671 -0.09060754 -1.6954861e-20)
(0.097364917 -0.088958275 -3.3260897e-20)
(0.10246648 -0.086669128 1.3334814e-19)
(0.10564537 -0.083466284 -2.9963719e-19)
(0.10829341 -0.079621687 1.3394861e-19)
(0.10873213 -0.075222189 0)
(0.10815493 -0.07076712 -1.3927187e-19)
(0.10742044 -0.066774049 0)
(0.087810273 0.020313007 1.3684475e-19)
(0.084778696 0.023696522 1.3161724e-19)
(0.081171114 0.026799765 -6.2450331e-20)
(0.077236823 0.028435048 6.1985011e-20)
(0.073182653 0.029100016 -3.062874e-19)
(0.069248264 0.029000406 2.4306937e-19)
(0.065392362 0.028357485 -2.9735423e-20)
(0.061785544 0.027250744 2.3648122e-19)
(0.058330128 0.025738086 2.8887052e-20)
(0.054880207 0.023935275 -2.7118535e-19)
(0.051615182 0.021678234 1.448341e-20)
(0.048717072 0.018935747 4.4057389e-19)
(0.046088677 0.015821502 -7.1320942e-19)
(0.043763612 0.012454339 2.1308274e-19)
(0.041888827 0.0088519375 -2.4989014e-19)
(0.040289207 0.0050650076 2.8743866e-19)
(0.038781128 0.0011487377 -1.6575828e-20)
(0.037536263 -0.002917636 0)
(0.036703672 -0.0071549604 1.8531605e-20)
(0.036280988 -0.011501181 -3.0382079e-19)
(0.03623399 -0.015888418 2.8037742e-19)
(0.036465301 -0.020317965 2.2594765e-20)
(0.03702339 -0.024728872 8.6478947e-21)
(0.037974729 -0.02906194 -1.2306229e-20)
(0.039174465 -0.033318722 -3.1063424e-20)
(0.04047935 -0.03755914 2.5865566e-20)
(0.042009652 -0.04172434 1.0555326e-19)
(0.043869461 -0.045748758 -3.360619e-19)
(0.045975934 -0.049671332 4.1395763e-19)
(0.048319974 -0.053453119 -1.9928256e-19)
(0.050971791 -0.05701684 1.1986912e-20)
(0.053988508 -0.060277783 0)
(0.057354476 -0.063122011 1.9022778e-19)
(0.060873216 -0.065625865 -6.8721458e-23)
(0.064433635 -0.067899345 -1.7562989e-19)
(0.068153242 -0.06989553 -1.9431613e-19)
(0.072109231 -0.071459526 6.9426125e-23)
(0.076184925 -0.072574668 -1.4931001e-19)
(0.080334766 -0.07321535 1.5931738e-19)
(0.084598175 -0.073225346 1.6882307e-19)
(0.088820083 -0.072492737 1.9392287e-19)
(0.092917951 -0.071095496 -3.5702424e-19)
(0.096948398 -0.06933645 2.0380995e-19)
(0.1008722 -0.066878957 -2.3649612e-20)
(0.10450667 -0.064438694 -9.6960841e-20)
(0.1077931 -0.061770702 2.0143214e-19)
(0.11067476 -0.059178083 -1.5612194e-19)
(0.1131724 -0.056919199 -5.3582544e-20)
(0.11533355 -0.054940015 1.1009243e-19)
(0.090050489 0.020795787 7.4916903e-20)
(0.087775374 0.021398136 1.0718331e-23)
(0.085124553 0.021799001 1.4548179e-19)
(0.082197476 0.022069396 5.5693257e-24)
(0.079228053 0.021925563 -2.2719755e-19)
(0.076255821 0.021474414 3.117734e-19)
(0.07334676 0.02069318 -7.9052667e-20)
(0.070508742 0.019718088 0)
(0.067805025 0.018425863 0)
(0.065093592 0.016986275 4.3011149e-20)
(0.062518531 0.015246855 0)
(0.060159547 0.013137196 4.7428667e-20)
(0.057986841 0.010723223 4.4949092e-19)
(0.056034228 0.0080839068 5.3348331e-19)
(0.054399178 0.0052109367 -9.1848105e-19)
(0.052988091 0.0021450676 -2.4820928e-23)
(0.051702632 -0.001054059 3.4076798e-20)
(0.050646722 -0.0044107045 -6.1290683e-19)
(0.049906357 -0.0079552044 6.6184432e-19)
(0.049498865 -0.011622079 0)
(0.049414483 -0.0153491 5.4280677e-20)
(0.049573534 -0.019157225 -1.9587458e-23)
(0.05005277 -0.022962049 -2.2656845e-20)
(0.050872911 -0.026731142 -3.9690962e-20)
(0.051912383 -0.030447893 1.3708733e-19)
(0.053087649 -0.034159495 -1.5183807e-20)
(0.05454317 -0.037803366 -2.0282268e-19)
(0.05631707 -0.041324049 6.1219151e-19)
(0.058300588 -0.044756833 -3.6153867e-19)
(0.060524116 -0.048045783 4.1988631e-20)
(0.063010311 -0.051126254 2.9484672e-19)
(0.065739621 -0.053948277 -6.3097626e-19)
(0.068703388 -0.056425934 -2.9972433e-19)
(0.071742867 -0.058675238 5.4607881e-19)
(0.074840645 -0.060744425 5.2895449e-19)
(0.078070765 -0.062517796 -4.7762515e-19)
(0.08144557 -0.063897496 0)
(0.084841941 -0.065011494 2.1124016e-19)
(0.088279161 -0.065783539 -2.3516716e-19)
(0.091735449 -0.066117962 2.5767159e-19)
(0.09510705 -0.066183406 -2.5659641e-19)
(0.098316802 -0.066151334 0)
(0.10146325 -0.065770259 0)
(0.10435815 -0.065181054 2.8456799e-20)
(0.10707383 -0.064344536 0)
(0.1094958 -0.063488561 -5.6913675e-20)
(0.11167369 -0.062542527 2.2602999e-19)
(0.11363802 -0.061523414 -1.1207049e-19)
(0.11546972 -0.060394684 0)
(0.087789189 0.015051131 -8.0930142e-20)
(0.08604925 0.015599868 -2.4010339e-19)
(0.084265418 0.015932452 7.7709209e-20)
(0.082389065 0.01613408 -3.9665814e-19)
(0.080462308 0.016028995 3.2280254e-19)
(0.078517537 0.015688129 3.3204111e-19)
(0.07659142 0.015085025 -2.520672e-19)
(0.074693469 0.014327086 3.4844506e-19)
(0.072837683 0.01329504 5.1719228e-23)
(0.070978737 0.012159756 -8.1881098e-19)
(0.069172299 0.010806692 4.7424661e-19)
(0.067471743 0.0091689653 0)
(0.065872167 0.0072854104 -5.1788997e-20)
(0.064415218 0.0052213831 -9.313855e-19)
(0.063167587 0.0029340185 1.0506508e-18)
(0.06207897 0.00044340322 9.369465e-19)
(0.061097146 -0.0021711738 -2.1720097e-18)
(0.060294292 -0.0049270893 1.2069495e-18)
(0.059735705 -0.0078635978 -6.8703603e-19)
(0.059439244 -0.010914432 8.0923261e-19)
(0.059407706 -0.014037637 0)
(0.059590105 -0.017253123 -6.5199988e-19)
(0.060023349 -0.020454153 8.3429145e-19)
(0.06073254 -0.023650477 -4.6556009e-19)
(0.061650112 -0.026824485 7.625269e-20)
(0.062726523 -0.030005745 -1.1463277e-23)
(0.064048125 -0.033113181 -2.282048e-19)
(0.065630574 -0.036095954 6.1606442e-19)
(0.067400429 -0.038986451 -3.7813635e-19)
(0.069370407 -0.041727546 -3.9555011e-19)
(0.071539759 -0.044263465 3.3023332e-19)
(0.073880782 -0.046566442 7.4322977e-19)
(0.076366232 -0.048573791 -1.6967423e-22)
(0.078898588 -0.05038285 -6.5427369e-19)
(0.081481371 -0.052027593 4.9602935e-19)
(0.084145028 -0.053420355 -5.4971927e-19)
(0.086858165 -0.054488708 5.3428692e-19)
(0.089549856 -0.055339438 -1.0547815e-18)
(0.092240456 -0.055928069 5.4850347e-19)
(0.09488514 -0.05619207 2.2083614e-19)
(0.097428949 -0.05624086 -2.5181129e-19)
(0.09991523 -0.056192721 -6.3224406e-20)
(0.10240051 -0.055883756 2.4773188e-19)
(0.10477332 -0.055466003 -2.5110924e-19)
(0.10712427 -0.054845321 0)
(0.10938304 -0.054095349 1.249312e-19)
(0.11162586 -0.053222022 -6.2006726e-20)
(0.11383455 -0.052273265 0)
(0.11601714 -0.051257283 0)
(0.087989814 0.01310513 -7.6384941e-20)
(0.086613107 0.01298207 -2.2588511e-19)
(0.085202967 0.012808494 2.9217613e-19)
(0.08375152 0.012648382 7.4227467e-20)
(0.082283573 0.01232794 2.2554515e-19)
(0.08081022 0.011887827 -2.3058176e-19)
(0.079348736 0.011286891 2.3239104e-19)
(0.077906757 0.010593545 -3.9855719e-19)
(0.076491714 0.0097062702 -8.0584447e-20)
(0.075071906 0.008739158 1.6446046e-19)
(0.073689261 0.0076023685 -7.6470802e-19)
(0.072375622 0.0062432968 7.9116873e-19)
(0.071129105 0.0046830149 9.0937692e-20)
(0.069982724 0.0029629603 7.6080314e-19)
(0.068985376 0.0010495674 -9.9978838e-20)
(0.068107397 -0.0010403489 -8.4383423e-19)
(0.067321064 -0.0032506267 0)
(0.066683511 -0.0055996369 0)
(0.066245693 -0.0081163168 0)
(0.066025123 -0.010751908 -4.6149922e-19)
(0.066027015 -0.013478761 7.1940304e-19)
(0.066218945 -0.01629317 -8.5898655e-19)
(0.066626524 -0.019106646 6.095434e-19)
(0.067282921 -0.021926111 -7.5173297e-20)
(0.06813706 -0.024730268 8.4271782e-24)
(0.069143984 -0.02753175 2.8146877e-20)
(0.070358773 -0.03026192 5.0120703e-20)
(0.071794149 -0.032883401 -9.1012849e-20)
(0.073395202 -0.035418249 2.5312794e-19)
(0.07516171 -0.037814716 -3.1616512e-19)
(0.077086455 -0.040030511 0)
(0.079142878 -0.042046808 -6.4134737e-19)
(0.08130487 -0.043815125 1.0956749e-18)
(0.083498716 -0.045415544 -4.6818392e-19)
(0.085719091 -0.046870984 -4.5829155e-19)
(0.08798326 -0.048114294 1.3358557e-22)
(0.090268646 -0.049096383 9.9756689e-19)
(0.092522566 -0.049914675 -4.9402569e-19)
(0.094756279 -0.050534832 0)
(0.096946908 -0.050914486 0)
(0.099060897 -0.051156691 -1.7870734e-19)
(0.10111955 -0.051376746 2.3973105e-19)
(0.10316891 -0.051404831 5.8915734e-20)
(0.10514108 -0.051425975 3.5842124e-19)
(0.1071047 -0.051316611 -5.9102628e-20)
(0.10901563 -0.051185764 -2.9840869e-19)
(0.11090847 -0.050999021 5.957143e-20)
(0.11277677 -0.050721998 0)
(0.1146259 -0.050285509 -3.0363957e-23)
(0.088104612 0.010411646 1.6900744e-25)
(0.087049259 0.01028583 -1.7516054e-24)
(0.085988974 0.010091215 0)
(0.084900154 0.0098764385 -3.4601898e-19)
(0.083805521 0.0095343303 6.9777277e-20)
(0.082704306 0.0090948668 2.1303371e-19)
(0.081605006 0.0085313223 7.1293469e-20)
(0.080514182 0.0078897242 1.4588142e-19)
(0.079433852 0.0070983092 7.3430832e-20)
(0.078342603 0.0062338003 -1.4900269e-19)
(0.077275071 0.0052312202 0)
(0.076255521 0.0040511234 -2.3547815e-19)
(0.075283233 0.00270551 -8.0591611e-20)
(0.07438568 0.0012209802 1.6694123e-19)
(0.073602055 -0.00042745906 0)
(0.072913043 -0.0022289501 -1.8131875e-19)
(0.072301799 -0.0041447293 9.5558746e-19)
(0.071815363 -0.0061870895 -8.179349e-19)
(0.071496443 -0.0083739072 0)
(0.071362421 -0.010666252 8.6038307e-19)
(0.071422022 -0.013039418 -1.117593e-18)
(0.071655301 -0.015485464 7.6334358e-19)
(0.07207655 -0.017940996 -5.1092375e-19)
(0.072713501 -0.02040929 1.2809124e-19)
(0.073528518 -0.022867795 -1.112115e-19)
(0.074487512 -0.025320443 -1.4721778e-19)
(0.075628387 -0.027711109 1.3235742e-19)
(0.07695907 -0.0300063 4.0382332e-19)
(0.078436763 -0.03221763 -6.7826243e-19)
(0.080055029 -0.034303946 1.1657897e-22)
(0.081802802 -0.03623164 5.4052054e-19)
(0.083655723 -0.037985213 5.1835691e-19)
(0.085588862 -0.039528188 -5.0078365e-19)
(0.087546189 -0.040918498 -1.2267604e-19)
(0.089519876 -0.04217457 0)
(0.091517025 -0.043251274 4.7185519e-19)
(0.093517919 -0.044115404 -1.0343401e-22)
(0.095484463 -0.044835691 -4.5963207e-19)
(0.09742358 -0.045391567 0)
(0.099319475 -0.045756519 0)
(0.10115191 -0.046000129 -1.1171222e-19)
(0.10293546 -0.046196877 5.6212516e-20)
(0.10471431 -0.046239577 -5.539269e-20)
(0.10643784 -0.046242973 -5.6153892e-19)
(0.10816903 -0.046128124 5.0036302e-19)
(0.10987815 -0.045954701 0)
(0.11160652 -0.045696504 -5.6051027e-20)
(0.11335386 -0.045351319 0)
(0.11512792 -0.044895404 2.2070982e-19)
(0.088718237 0.0088156013 6.6967046e-20)
(0.087845989 0.0085278403 -1.3177466e-19)
(0.086972079 0.0082143147 -2.5569507e-19)
(0.086089694 0.0079074998 5.1618183e-19)
(0.085211978 0.0075156896 -3.894868e-19)
(0.084336646 0.0070583076 0)
(0.083464708 0.0065107791 5.2720106e-19)
(0.082601982 0.0059037053 -6.7090937e-20)
(0.081746533 0.0051801939 3.8463313e-23)
(0.080882264 0.004393702 -8.8440048e-19)
(0.080036999 0.0034933145 -3.6796544e-23)
(0.079229189 0.0024476504 5.6669184e-19)
(0.078458544 0.0012632663 5.780834e-19)
(0.077747598 -4.212065e-05 -1.3374342e-18)
(0.077128113 -0.0014882433 6.1370376e-19)
(0.076587639 -0.0030683667 7.9351814e-19)
(0.076116418 -0.0047546771 -1.490123e-18)
(0.075753107 -0.0065559606 -4.7808002e-24)
(0.075532916 -0.0084844208 5.6203911e-19)
(0.075471761 -0.010509494 -8.1531504e-19)
(0.075577675 -0.012611456 6.797216e-19)
(0.075837414 -0.014781065 5.0056482e-19)
(0.07626198 -0.016965245 2.4728029e-19)
(0.076874745 -0.019161951 -2.2039016e-19)
(0.077647797 -0.021352044 1.5102005e-21)
(0.078554893 -0.023536337 -8.6098758e-20)
(0.079623319 -0.025666937 0)
(0.080856973 -0.027714518 1.4390096e-19)
(0.082220914 -0.029686737 -1.3509657e-19)
(0.083706612 -0.031548962 1.2803558e-19)
(0.085301806 -0.033273412 0)
(0.086984586 -0.034848031 0)
(0.088731725 -0.036243425 4.5825208e-19)
(0.090498136 -0.037507612 -4.5071401e-19)
(0.092274861 -0.038655774 -4.4425397e-19)
(0.094064897 -0.039651931 8.7302177e-19)
(0.095851614 -0.040470014 -8.8680688e-23)
(0.097606765 -0.041169993 -1.0699177e-19)
(0.099334269 -0.041735384 -4.2294738e-19)
(0.10102333 -0.042143546 -4.1771485e-19)
(0.10265985 -0.042455173 4.7093746e-19)
(0.10425712 -0.042740574 0)
(0.10584539 -0.04289977 -2.0801556e-19)
(0.10739548 -0.0430458 2.1079255e-19)
(0.1089503 -0.043100234 -2.088555e-19)
(0.1104943 -0.043127406 1.0544977e-19)
(0.11205584 -0.043099922 0)
(0.11363705 -0.043014602 2.0983212e-19)
(0.11525067 -0.042823795 -2.0739712e-19)
(0.089256149 0.0071897245 -1.8812894e-19)
(0.088559676 0.0069058897 1.2335801e-19)
(0.087863011 0.0065924654 2.3945429e-19)
(0.087158741 0.0062747753 -1.2054652e-19)
(0.08646056 0.0058869954 -3.6307053e-19)
(0.08576435 0.0054437085 7.3405464e-19)
(0.085069917 0.004926607 -8.5540501e-19)
(0.084382307 0.0043572182 4.9596921e-19)
(0.0836992 0.0036924063 -1.2403711e-19)
(0.083007902 0.0029697198 -1.2485533e-19)
(0.082332461 0.0021501605 -5.0697122e-19)
(0.081687658 0.0012090369 -2.7930145e-24)
(0.081073554 0.00014963644 -2.3810637e-23)
(0.080509038 -0.0010160369 8.0065041e-19)
(0.080020573 -0.0023031119 0)
(0.07959993 -0.0037075784 -2.8105995e-19)
(0.079241773 -0.0052094663 0)
(0.0789788 -0.0068146364 3.0448092e-19)
(0.078840625 -0.0085309735 -1.6113527e-19)
(0.07884172 -0.010333938 0)
(0.078990222 -0.012206525 -4.4814553e-23)
(0.079278317 -0.014139376 -2.0947069e-19)
(0.079714774 -0.01608936 0)
(0.080317704 -0.018050981 -1.9149802e-19)
(0.081065692 -0.020007744 8.3435513e-20)
(0.081938029 -0.021958273 3.8041145e-20)
(0.082954681 -0.023861397 0)
(0.084117114 -0.025690466 -1.288815e-19)
(0.085396373 -0.027449442 -1.2157678e-19)
(0.086782781 -0.029109583 -1.1585421e-19)
(0.088263461 -0.030647444 0)
(0.089818371 -0.032052722 -2.1563417e-19)
(0.091426098 -0.033301631 0)
(0.09304978 -0.034431837 -1.0364005e-19)
(0.094680452 -0.035455899 7.9062297e-23)
(0.096317842 -0.036346744 7.7264237e-23)
(0.097947007 -0.03708459 3.99416e-19)
(0.099545708 -0.037716331 4.9782123e-19)
(0.10111636 -0.038230314 -7.05073e-23)
(0.10264998 -0.038609702 -6.7151814e-23)
(0.10413642 -0.038900698 -7.8462228e-19)
(0.10558631 -0.03915669 6.5581946e-23)
(0.10702615 -0.039303151 3.9091183e-19)
(0.10843238 -0.039423065 1.9793477e-19)
(0.10984321 -0.039458079 -1.964117e-19)
(0.11124647 -0.039452886 9.9094068e-20)
(0.11266924 -0.039385427 9.8956952e-20)
(0.11411554 -0.039251117 -1.9730122e-19)
(0.11559892 -0.039015368 2.9268052e-19)
(0.089919003 0.0060230976 1.1739436e-19)
(0.089338433 0.005704779 -4.0414717e-19)
(0.088757944 0.0053687663 0)
(0.088175303 0.0050337359 -4.5096691e-19)
(0.087601002 0.0046443813 9.0374717e-19)
(0.087031184 0.004210825 -4.5563783e-19)
(0.086463969 0.0037172458 -1.1357301e-19)
(0.085904064 0.0031788291 1.1485268e-19)
(0.085348476 0.0025609004 2.2924919e-19)
(0.08478716 0.0018906527 0)
(0.084240717 0.0011369169 0)
(0.083721244 0.00027962897 -1.1750444e-19)
(0.083228957 -0.00067989085 0)
(0.082779886 -0.0017333411 -2.4134664e-19)
(0.082396348 -0.0028927435 0)
(0.082072856 -0.0041558755 -7.5350096e-19)
(0.081806868 -0.0055079671 5.1631309e-19)
(0.081626324 -0.0069528622 -5.3630126e-19)
(0.08155633 -0.0084956676 8.4412371e-19)
(0.081609823 -0.010116386 5.9807557e-19)
(0.081794557 -0.01180027 -4.8464096e-19)
(0.082105719 -0.013538626 1.780013e-19)
(0.082550564 -0.015295687 -1.8267299e-19)
(0.083143396 -0.017062866 1.6651728e-23)
(0.083867593 -0.018826047 7.4854683e-20)
(0.084706726 -0.020583234 -6.7631326e-20)
(0.085675856 -0.022298621 0)
(0.086774739 -0.023948288 1.1587586e-19)
(0.087978863 -0.025534335 1.0984883e-19)
(0.089278345 -0.027032445 0)
(0.090660437 -0.028422531 -2.0291017e-19)
(0.092106994 -0.02969602 3.9470142e-19)
(0.093598386 -0.030833213 0)
(0.09510378 -0.031865503 -9.5517232e-19)
(0.096614443 -0.032803565 7.5790031e-19)
(0.098128383 -0.03362531 0)
(0.099632041 -0.034314477 3.7129901e-19)
(0.10110779 -0.034911344 -3.7109225e-19)
(0.10255671 -0.035406371 0)
(0.10397123 -0.035785046 2.7454053e-19)
(0.10534339 -0.03608715 -3.6761941e-19)
(0.10668353 -0.036360865 0)
(0.10801054 -0.036539045 9.1753606e-20)
(0.10930959 -0.036698617 -3.7156457e-19)
(0.11060928 -0.036785533 3.6906968e-19)
(0.11190301 -0.036843574 3.7226354e-19)
(0.11321227 -0.036852471 -4.6473854e-19)
(0.11454199 -0.036810059 4.6340659e-19)
(0.11590414 -0.036677276 -4.5848934e-19)
(0.090534734 0.0049482233 -5.5009735e-20)
(0.090058158 0.0046421108 1.0823796e-19)
(0.08958099 0.004318071 2.1037703e-19)
(0.089101229 0.0039904085 5.2784123e-19)
(0.088629393 0.0036163974 -5.2801873e-19)
(0.088161623 0.0032033215 -4.2500874e-19)
(0.087696232 0.002738501 9.5173443e-19)
(0.08723749 0.0022327438 -5.3320454e-19)
(0.086782886 0.0016586601 -5.3097344e-19)
(0.086324242 0.0010358592 8.4985719e-19)
(0.085879791 0.00033959464 -4.2800987e-19)
(0.085459753 -0.00044640674 2.1553772e-19)
(0.085064576 -0.0013220202 2.1681175e-19)
(0.084708094 -0.002281437 8.7743616e-19)
(0.084409475 -0.0033340923 -8.9011027e-19)
(0.084165128 -0.0044789062 0)
(0.083974361 -0.0057048945 0)
(0.083861382 -0.0070143854 4.100814e-23)
(0.083847739 -0.0084104382 0)
(0.083945029 -0.0098764822 5.2326742e-19)
(0.084160708 -0.011399373 -5.5982609e-19)
(0.08449198 -0.01297104 6.1051028e-19)
(0.084945235 -0.014561648 -3.1690479e-19)
(0.085531732 -0.016160726 5.1885681e-19)
(0.086238045 -0.017756012 -6.65623e-20)
(0.087050991 -0.019345149 -1.2091911e-19)
(0.087982006 -0.020896604 -1.1163434e-19)
(0.089029749 -0.022388595 -3.1392342e-19)
(0.09017322 -0.02382165 -5.9746649e-19)
(0.091402585 -0.025175006 1.9141572e-19)
(0.092705372 -0.026431115 1.8544219e-19)
(0.094064958 -0.027582452 -1.8101483e-19)
(0.095463264 -0.028612407 -7.1087939e-19)
(0.096874044 -0.029546611 1.4105162e-18)
(0.098288889 -0.030394058 -7.0130728e-19)
(0.099704369 -0.031136964 0)
(0.1011078 -0.031762056 -5.1836891e-19)
(0.1024845 -0.032302544 5.191075e-19)
(0.1038347 -0.032751167 1.7234167e-19)
(0.10515128 -0.033096261 -2.5722911e-19)
(0.10642777 -0.033370109 -1.7235113e-19)
(0.10767329 -0.033612246 0)
(0.10890352 -0.033768492 -8.6229285e-20)
(0.1101062 -0.033900652 -2.6185366e-19)
(0.11130646 -0.033965222 6.0750204e-19)
(0.11249884 -0.033996546 -2.6262417e-19)
(0.11370303 -0.033977699 -1.7491892e-19)
(0.11492368 -0.033906095 -2.6164966e-19)
(0.11617251 -0.033749003 -1.7268624e-19)
(0.091166643 0.0041068278 5.1582782e-19)
(0.090766757 0.0038020893 2.0301356e-19)
(0.090365926 0.0034831406 -4.9360037e-19)
(0.089963959 0.0031609237 3.957232e-19)
(0.089569944 0.0027997828 -7.9061719e-19)
(0.089180543 0.0024047188 2.9769979e-19)
(0.088793936 0.0019648569 2.9586227e-19)
(0.088414155 0.0014878725 -3.9677276e-19)
(0.088038915 0.0009514052 0)
(0.087661645 0.00036981863 -7.8700691e-19)
(0.087298447 -0.00027701439 7.9012846e-19)
(0.086958116 -0.0010025524 -7.9299666e-19)
(0.086641288 -0.0018074041 5.9620678e-19)
(0.086360038 -0.0026874647 -4.0051292e-19)
(0.086130998 -0.0036502532 1.2134714e-18)
(0.085951911 -0.0046954136 8.1797605e-19)
(0.085823314 -0.0058146094 -1.2476838e-18)
(0.085766354 -0.0070090568 2.134004e-19)
(0.08579968 -0.0082803656 1.325295e-18)
(0.085933692 -0.0096145805 -9.2481745e-19)
(0.08617544 -0.010999905 -4.9070317e-19)
(0.086523319 -0.01242894 5.3000583e-19)
(0.086982996 -0.013876475 -9.7064897e-19)
(0.087563405 -0.015330909 2.6357032e-19)
(0.088253407 -0.016781439 -5.9527237e-20)
(0.089042419 -0.018225659 1.0866982e-19)
(0.089939218 -0.019635659 1.0077672e-19)
(0.090941703 -0.020991641 5.6903533e-19)
(0.09203166 -0.0222932 -1.8116771e-19)
(0.093199539 -0.02352246 5.2404264e-19)
(0.094433317 -0.024664 0)
(0.095717763 -0.025711303 0)
(0.097036212 -0.026650281 0)
(0.098366028 -0.027502493 3.2587336e-19)
(0.099699217 -0.028275738 -3.2481052e-19)
(0.10103148 -0.028955274 3.2314581e-19)
(0.10235088 -0.029529964 -3.2189556e-19)
(0.10364517 -0.030028425 1.6143804e-19)
(0.10491386 -0.030444827 -6.4461836e-19)
(0.10615022 -0.030769234 4.8202292e-19)
(0.10734875 -0.031029439 -1.6162333e-19)
(0.10851837 -0.03126053 3.2614145e-19)
(0.10967028 -0.031414731 0)
(0.11079621 -0.031547477 -8.2026919e-20)
(0.11191607 -0.03161989 1.6326201e-19)
(0.11302679 -0.03166372 -1.6459631e-19)
(0.11414474 -0.031663862 3.2902983e-19)
(0.11527482 -0.031619258 1.6410722e-19)
(0.11642691 -0.031497147 -2.224759e-23)
(0.091758347 0.0033621113 -2.9047102e-19)
(0.091424955 0.0030730074 0)
(0.091090211 0.0027699404 -5.8038962e-24)
(0.09075398 0.0024612563 0)
(0.090425043 0.0021183238 -3.7033077e-19)
(0.090100388 0.0017445035 9.2788916e-20)
(0.089778596 0.0013307204 5.5259024e-19)
(0.089463412 0.00088234716 1.8485248e-19)
(0.089153091 0.00038121861 -5.5011182e-19)
(0.088842293 -0.00016225096 -7.3026012e-19)
(0.088545459 -0.00076443577 7.3101722e-19)
(0.088270316 -0.0014364996 0)
(0.088017715 -0.0021794839 3.6544225e-19)
(0.087798334 -0.0029904707 -3.6690197e-19)
(0.087626784 -0.0038754193 7.3821095e-19)
(0.087501801 -0.0048344132 -7.4351992e-19)
(0.087424764 -0.0058610536 4.902297e-23)
(0.087414308 -0.0069557112 7.6879632e-19)
(0.087486715 -0.0081189083 -1.1875266e-18)
(0.087651348 -0.0093387054 8.2375829e-19)
(0.087914833 -0.010604418 -1.0854322e-18)
(0.088276382 -0.011909189 -2.3267561e-19)
(0.08874111 -0.013231417 0)
(0.089316148 -0.014559066 0)
(0.089992003 -0.015882438 0)
(0.090760065 -0.01719907 0)
(0.091627101 -0.018484108 0)
(0.092590527 -0.019719424 1.7249184e-19)
(0.093634392 -0.020903873 -6.6102535e-19)
(0.094749497 -0.022021899 3.1974744e-19)
(0.095924295 -0.023059755 6.2359539e-19)
(0.097144717 -0.024011634 -6.1264021e-19)
(0.098395316 -0.024865391 6.0514451e-19)
(0.099656282 -0.025639046 -6.032706e-19)
(0.10091997 -0.026339299 3.0130899e-19)
(0.10218137 -0.026953875 -3.0052871e-19)
(0.10342905 -0.027473386 4.5011256e-19)
(0.10465242 -0.027922165 6.0297414e-19)
(0.10585044 -0.028295695 -3.0166301e-19)
(0.10701649 -0.028585765 3.2123246e-24)
(0.10814576 -0.028815777 0)
(0.10924644 -0.029015689 -1.531292e-19)
(0.11032729 -0.029145405 1.5244251e-19)
(0.11138154 -0.029251584 3.0857618e-19)
(0.11242649 -0.029301678 -3.8429331e-19)
(0.11345961 -0.029322183 -3.8742442e-19)
(0.11449559 -0.029300196 3.0987955e-19)
(0.11553878 -0.029234831 0)
(0.11659811 -0.029097077 1.5329281e-19)
(0.092333535 0.002753685 -2.727442e-19)
(0.092052562 0.0024762795 -2.6843401e-19)
(0.091770047 0.0021862266 2.6141014e-19)
(0.091486458 0.0018899442 0)
(0.091209754 0.0015635522 -2.6041124e-19)
(0.090937386 0.0012091457 -8.1356218e-24)
(0.090668167 0.00081889975 5.1660966e-19)
(0.090405631 0.00039649081 -5.1727605e-19)
(0.09014842 -7.3119835e-05 5.1235564e-19)
(0.089892249 -0.00058238789 0)
(0.08965008 -0.0011448255 0)
(0.089428792 -0.0017698087 0)
(0.089229414 -0.0024586354 -3.3690645e-19)
(0.089061477 -0.0032092314 -6.7419041e-19)
(0.08893792 -0.004026345 1.3519387e-18)
(0.088858218 -0.0049103187 -1.3569062e-18)
(0.088824329 -0.0058561593 3.4222496e-19)
(0.088852774 -0.0068636007 1.0134349e-23)
(0.088957871 -0.0079323604 7.1339052e-19)
(0.089148074 -0.0090520801 3.6930863e-19)
(0.089429564 -0.010213025 -1.0019803e-23)
(0.089802109 -0.011408806 0)
(0.090270305 -0.012620679 2.1763011e-19)
(0.090839835 -0.013836614 -2.117358e-19)
(0.091502476 -0.015047767 0)
(0.092251115 -0.016251649 -8.8879292e-20)
(0.093090995 -0.017426053 0)
(0.094019217 -0.018554354 1.573307e-19)
(0.095021684 -0.019634927 -3.0238118e-19)
(0.096089581 -0.020654147 -5.8654525e-19)
(0.097211853 -0.02159972 7.6934355e-23)
(0.098375458 -0.022466495 8.4756578e-19)
(0.099566033 -0.023243991 -5.5961495e-19)
(0.10076607 -0.023947519 2.7952239e-19)
(0.10196829 -0.024582984 0)
(0.10316721 -0.025140103 -8.3914573e-19)
(0.10435192 -0.025610949 3.6626271e-23)
(0.10551322 -0.026016696 -5.6345122e-19)
(0.10664966 -0.02635387 4.2361114e-19)
(0.10775476 -0.026615594 -4.2381202e-19)
(0.10882421 -0.026822163 7.0811354e-23)
(0.10986593 -0.027000089 7.1931086e-19)
(0.11088596 -0.027114396 1.4339853e-19)
(0.11187951 -0.027206373 -2.9034605e-19)
(0.11286076 -0.027247445 -2.8948953e-19)
(0.11382823 -0.027261461 3.6487059e-19)
(0.11479446 -0.027237035 7.2977537e-20)
(0.11576367 -0.027174194 1.4569648e-19)
(0.11674311 -0.02704509 -2.168732e-19)
(0.092872877 0.002225264 0)
(0.092636925 0.0019637579 -8.4088158e-20)
(0.092399365 0.0016898669 0)
(0.092160597 0.0014084276 0)
(0.091928174 0.0010998642 0)
(0.091699885 0.00076532489 0)
(0.091474909 0.00039812203 -6.4460704e-19)
(0.091256559 6.5547445e-07 6.441544e-19)
(0.091043914 -0.00043953151 6.371192e-19)
(0.090833543 -0.00091708202 -1.2636044e-18)
(0.090637175 -0.001443176 6.2927394e-19)
(0.090461014 -0.002025722 0)
(0.090306264 -0.0026661472 6.2248623e-19)
(0.090181512 -0.0033629775 -3.1053165e-19)
(0.090098315 -0.0041199756 -3.1040659e-19)
(0.090056722 -0.0049376164 1.2422099e-18)
(0.090059086 -0.0058119429 -6.2447968e-19)
(0.09012015 -0.0067421978 -6.3264787e-19)
(0.090252585 -0.0077274863 2.2047357e-23)
(0.090464056 -0.0087587009 3.3291791e-19)
(0.090760304 -0.0098269133 -3.4731889e-19)
(0.091141497 -0.010926118 -3.6766565e-19)
(0.091611763 -0.012039852 3.8928503e-19)
(0.092175625 -0.013156368 0)
(0.092825843 -0.014267488 8.7617417e-20)
(0.093556427 -0.015370683 9.9193461e-25)
(0.09437145 -0.016446034 0)
(0.095267827 -0.017478227 0)
(0.096232998 -0.018465278 0)
(0.097258531 -0.019395153 1.0784964e-18)
(0.098333847 -0.020256763 -5.0504236e-23)
(0.099446787 -0.021045476 -7.829977e-19)
(0.10058393 -0.021752157 5.1832029e-19)
(0.10172964 -0.022389812 0)
(0.10287694 -0.022963626 -2.6011404e-19)
(0.10401998 -0.023464931 2.6063466e-19)
(0.10514826 -0.023887002 -2.6134245e-19)
(0.1062536 -0.024248217 7.9044484e-19)
(0.10733419 -0.024545979 0)
(0.10838363 -0.024774614 0)
(0.10939796 -0.024951616 5.3520829e-19)
(0.11038457 -0.025100107 -5.4093563e-19)
(0.11134778 -0.025190228 5.3998739e-19)
(0.11228372 -0.025257561 -4.100301e-19)
(0.11320464 -0.025277767 0)
(0.11410936 -0.025271375 -6.8770952e-20)
(0.11500901 -0.025228562 -6.8807461e-20)
(0.11590734 -0.025149672 -2.0617193e-19)
(0.11681054 -0.025009424 -1.3644746e-19)
(0.093386857 0.001784894 -3.2121347e-19)
(0.093187858 0.0015372975 7.9056223e-20)
(0.092987297 0.0012779018 1.5417285e-19)
(0.092785716 0.0010103446 0)
(0.092590098 0.00071827386 0)
(0.092398594 0.00040211635 1.5258827e-19)
(0.092210647 5.6058287e-05 1.5093012e-19)
(0.092029391 -0.0003184586 0)
(0.091854241 -0.00073187093 0)
(0.091682492 -0.0011804613 2.9441702e-19)
(0.091524777 -0.0016735627 0)
(0.091386737 -0.0022179016 0)
(0.091269722 -0.0028149624 -5.7621343e-19)
(0.09118152 -0.0034637065 2.8666151e-19)
(0.091132518 -0.0041671109 0)
(0.091123206 -0.004925704 -5.7027769e-19)
(0.091156205 -0.0057362959 -5.7160938e-19)
(0.091244733 -0.0065977543 5.7725646e-19)
(0.09140007 -0.007508722 1.1746115e-18)
(0.091629187 -0.0084610966 -6.0314685e-19)
(0.091937405 -0.009446643 -6.264564e-19)
(0.092325168 -0.010459681 3.3005463e-19)
(0.092796179 -0.011485601 -3.4995847e-19)
(0.093354007 -0.012513102 -8.6512837e-20)
(0.093992183 -0.013534528 8.0978568e-20)
(0.094705559 -0.014547318 0)
(0.095497305 -0.015533559 2.7715751e-19)
(0.096364238 -0.016479109 0)
(0.097295075 -0.017381746 5.0970729e-19)
(0.098281748 -0.01823078 -3.5887684e-23)
(0.099314135 -0.019016183 -4.88178e-19)
(0.10038085 -0.019733799 -6.0387734e-23)
(0.10146933 -0.020375663 -4.8064475e-19)
(0.10256546 -0.020952937 -4.8181645e-19)
(0.10366258 -0.021470266 -1.2103139e-18)
(0.10475461 -0.021920364 9.7223754e-19)
(0.10583146 -0.022297583 0)
(0.10688583 -0.022618095 -2.4654617e-19)
(0.10791566 -0.022880078 0)
(0.10891468 -0.0230789 4.9793529e-19)
(0.10987924 -0.023229897 2.5145316e-19)
(0.11081635 -0.023353588 -5.5583601e-23)
(0.11172872 -0.023424093 -5.0854819e-19)
(0.11261348 -0.023472785 1.5414219e-24)
(0.11348093 -0.023478516 -2.5719298e-19)
(0.11433037 -0.02345958 2.5937063e-19)
(0.1151714 -0.023407376 -2.5960328e-19)
(0.11600761 -0.023322827 5.8370162e-19)
(0.11684379 -0.023182093 6.4414398e-20)
(0.093869299 0.0014069451 -3.0211201e-19)
(0.093702089 0.0011740984 7.4357227e-20)
(0.093533468 0.00092971518 2.9021178e-19)
(0.09336386 0.00067642839 7.2305983e-19)
(0.093199846 0.00040068532 -5.7471028e-19)
(0.09303986 0.00010236803 -1.4316834e-19)
(0.092883631 -0.00022357021 -1.4147742e-19)
(0.09273411 -0.00057641319 -5.6352292e-19)
(0.092591034 -0.00096492706 8.3384695e-19)