/*--------------------------------*- C++ -*----------------------------------*\
| =========                 |                                                 |
| \\      /  F ield         | OpenFOAM: The Open Source CFD Toolbox           |
|  \\    /   O peration     | Version:  v2006                                 |
|   \\  /    A nd           | Website:  www.openfoam.com                      |
|    \\/     M anipulation  |                                                 |
\*---------------------------------------------------------------------------*/
FoamFile
{
    version     2.0;
    format      ascii;
    class       volVectorField;
    location    "1000";
    object      wallShearStress;
}
// * * * * * * * * * * * * * * * * * * * * * * * * * * * * * * * * * * * * * //

dimensions      [1 -1 -2 0 0 0 0];


internalField   uniform (0 0 0);

boundaryField
{
    Side
    {
        type            empty;
    }
    Inlet
    {
        type            calculated;
        value           uniform (0 0 0);
    }
    Wing
    {
        type            calculated;
        value           nonuniform List<vector> 
139
(
(-3.099622e-05 -1.0788702e-05 3.1808684e-23)
(-3.0140038e-05 -1.1065182e-05 -3.1664776e-23)
(-2.7616662e-05 -1.0045477e-05 3.1634771e-23)
(-2.3597288e-05 -9.5736909e-06 2.9387359e-39)
(-2.0543973e-05 -8.8363839e-06 -5.8774718e-39)
(-1.7646179e-05 -7.9367299e-06 -6.4781738e-23)
(-1.5361657e-05 -6.5871647e-06 4.8426246e-23)
(-1.2788987e-05 -5.3782073e-06 -1.1754944e-38)
(-1.1073092e-05 -3.8524911e-06 -1.0478444e-22)
(-9.0994325e-06 -2.4431768e-06 -8.0002388e-24)
(-7.402465e-06 -1.3978415e-06 1.460416e-22)
(-6.3496354e-06 -5.4692506e-07 -1.286687e-22)
(-5.2605656e-06 8.94437e-08 1.2886946e-22)
(-4.461601e-06 5.937922e-07 1.33308e-22)
(-4.027465e-06 1.0414146e-06 -1.4428276e-22)
(-3.8281856e-06 1.5870507e-06 1.1754944e-38)
(-3.7727781e-06 2.2144022e-06 3.0080213e-24)
(-3.9193244e-06 2.9321931e-06 -2.7690494e-24)
(-4.0197886e-06 3.8318638e-06 1.5574019e-22)
(-4.2964739e-06 4.9009537e-06 -1.4126511e-22)
(-4.62185e-06 6.1480684e-06 6.595548e-23)
(-4.9251465e-06 7.4845802e-06 -1.2364253e-22)
(-5.587362e-06 8.8781227e-06 6.0074908e-23)
(-6.4380963e-06 1.0486826e-05 -2.7309712e-24)
(-6.9013776e-06 1.2243257e-05 1.427105e-23)
(-7.17687e-06 1.3949266e-05 -1.1859808e-23)
(-8.3004773e-06 1.5515436e-05 5.526264e-23)
(-9.6859251e-06 1.7375006e-05 -5.5414655e-23)
(-1.0547381e-05 1.9371452e-05 0)
(-1.1991426e-05 2.1293862e-05 -1.1274758e-22)
(-1.398572e-05 2.3267885e-05 1.1270069e-22)
(-1.6453395e-05 2.5346535e-05 -2.2870332e-22)
(-1.9595864e-05 2.8280351e-05 2.2981025e-22)
(-2.1378363e-05 3.1655915e-05 -1.1520412e-22)
(-2.3121277e-05 3.4598811e-05 1.1656771e-22)
(-2.6238519e-05 3.650975e-05 1.1451238e-22)
(-3.0311248e-05 3.8761328e-05 1.9685588e-25)
(-3.3249065e-05 4.1624551e-05 -2.3561397e-22)
(-3.745244e-05 4.3481612e-05 1.2780005e-22)
(-4.3001757e-05 4.4944343e-05 1.1950861e-22)
(-4.7277834e-05 4.729699e-05 -1.191182e-22)
(-4.9098614e-05 4.868178e-05 7.4607042e-24)
(-5.303515e-05 4.772755e-05 1.4932144e-23)
(-5.4097609e-05 4.81968e-05 -5.9813681e-23)
(-5.5906802e-05 4.614755e-05 1.3530324e-22)
(-5.5786871e-05 4.4636444e-05 -5.9735605e-23)
(-5.4835061e-05 4.1698034e-05 5.8774718e-39)
(-5.3271294e-05 3.8564302e-05 6.0872828e-23)
(-5.2036682e-05 3.5417034e-05 0)
(-1.6691765e-05 -1.5054423e-06 -4.0261062e-21)
(-1.3850861e-05 -8.3897271e-07 -1.2048817e-37)
(-1.3241583e-05 -5.4752903e-08 -2.2535876e-22)
(-1.5070057e-05 3.4150519e-07 -6.320394e-23)
(-1.8123902e-05 5.2215675e-07 1.0150734e-21)
(-2.0534834e-05 4.5592058e-07 -4.7848466e-22)
(-2.2098879e-05 3.4050725e-07 2.7550649e-40)
(-2.3346087e-05 1.8797378e-07 3.2184757e-23)
(-2.4336745e-05 2.1539827e-08 9.6675617e-23)
(-2.5184228e-05 -1.4611216e-07 1.0992557e-27)
(-2.5913285e-05 -3.3137045e-07 3.2461867e-23)
(-2.6474633e-05 -4.9618205e-07 3.2483061e-23)
(-2.7017576e-05 -6.5810037e-07 -5.5804597e-28)
(-2.7515646e-05 -8.3185871e-07 -3.2689287e-23)
(-2.7860368e-05 -9.969402e-07 2.6199074e-22)
(-2.801902e-05 -1.138631e-06 1.3144433e-22)
(-2.8122489e-05 -1.2508749e-06 -1.3166955e-22)
(-2.8368406e-05 -1.3814816e-06 0)
(-2.8746003e-05 -1.5630645e-06 -1.3136228e-22)
(-2.9246059e-05 -1.82552e-06 -5.0509523e-40)
(-2.9812985e-05 -2.1764777e-06 -1.6418209e-23)
(-3.0241239e-05 -2.5758136e-06 1.6455168e-23)
(-3.0411293e-05 -2.9863511e-06 1.3203252e-22)
(-3.0222859e-05 -3.359063e-06 -1.3199869e-22)
(-2.9973427e-05 -3.7329955e-06 1.3462706e-22)
(-2.9746425e-05 -4.1209771e-06 -1.3478719e-22)
(-2.9322998e-05 -4.4920412e-06 0)
(-2.8899538e-05 -4.8861717e-06 -6.6609743e-23)
(-2.8457748e-05 -5.2835015e-06 -1.6638002e-23)
(-2.8172178e-05 -5.7963561e-06 1.6600929e-23)
(-2.8075524e-05 -6.3979219e-06 -3.3025339e-23)
(-2.8240854e-05 -7.3085013e-06 0)
(-2.8944056e-05 -8.5179111e-06 0)
(-3.0225527e-05 -1.0117391e-05 -3.3060779e-39)
(-5.1647903e-05 -9.320739e-07 2.8861698e-23)
(-4.9801395e-05 -1.3407495e-06 3.0946639e-23)
(-4.8373344e-05 -1.651472e-06 -5.2164425e-27)
(-4.7117216e-05 -1.9266962e-06 -6.6342209e-23)
(-4.5938274e-05 -2.187628e-06 3.913697e-24)
(-4.473234e-05 -2.4463381e-06 5.8817812e-23)
(-4.3297784e-05 -2.7105812e-06 1.2565697e-22)
(-4.1812333e-05 -2.9419783e-06 1.2599963e-22)
(-4.0524171e-05 -3.1352893e-06 5.0920848e-22)
(-3.9434306e-05 -3.3141444e-06 -2.5309815e-22)
(-3.8440712e-05 -3.4984893e-06 -2.5324532e-22)
(-3.7471745e-05 -3.6937453e-06 2.6110949e-22)
(-3.6343221e-05 -3.9086015e-06 -5.129256e-22)
(-3.5064486e-05 -4.11213e-06 -7.8833669e-24)
(-3.383491e-05 -4.2898926e-06 -9.9997845e-22)
(-3.267026e-05 -4.478323e-06 1.0058921e-21)
(-3.1291098e-05 -4.6514413e-06 8.8162076e-39)
(-2.9787019e-05 -4.7906964e-06 -4.6310913e-27)
(-2.8373532e-05 -4.9119974e-06 1.9837246e-21)
(-2.6765295e-05 -5.0157046e-06 -1.967344e-21)
(-2.4886181e-05 -5.0417443e-06 1.9062705e-24)
(-2.2837487e-05 -5.0216114e-06 3.8664509e-21)
(-2.020481e-05 -4.8140934e-06 -3.6995349e-24)
(-1.87236e-05 -4.7468154e-06 1.4767286e-23)
(-1.1108155e-05 -3.7638634e-06 -6.5684582e-21)
(-5.1252168e-05 3.2833091e-05 4.4081038e-39)
(-5.1124935e-05 3.0722862e-05 -6.3405902e-23)
(-5.1391699e-05 2.9165183e-05 -2.9387359e-39)
(-5.1822141e-05 2.7875739e-05 3.2118905e-23)
(-5.265968e-05 2.6822054e-05 3.2088096e-23)
(-5.3614023e-05 2.5980152e-05 -1.6023619e-23)
(-5.5202486e-05 2.5248982e-05 1.5954804e-23)
(-5.6392989e-05 2.4754649e-05 0)
(-5.7448839e-05 2.3995461e-05 6.3529707e-23)
(-5.8768028e-05 2.3426545e-05 -6.3300295e-23)
(-6.0117795e-05 2.281386e-05 0)
(-6.1889444e-05 2.2235628e-05 6.258145e-23)
(-6.3148128e-05 2.1641458e-05 6.2389109e-23)
(-6.4569943e-05 2.0824411e-05 -7.3468397e-40)
(-6.5610395e-05 2.0096269e-05 -1.9288329e-24)
(-6.6765886e-05 1.9095099e-05 1.9120554e-24)
(-6.7918456e-05 1.8235586e-05 -1.1479437e-41)
(-6.8618987e-05 1.7110822e-05 1.4693679e-39)
(-6.9414547e-05 1.5988757e-05 6.0923394e-23)
(-6.9647946e-05 1.4756788e-05 -1.2090778e-22)
(-7.0702278e-05 1.3420522e-05 5.9725437e-23)
(-7.0994079e-05 1.2206444e-05 1.8367099e-40)
(-7.0506755e-05 1.054633e-05 9.3183072e-25)
(-6.9842129e-05 9.0988584e-06 -6.0294184e-23)
(-6.8166268e-05 7.4360638e-06 0)
(-6.7310817e-05 5.9130545e-06 2.9809907e-23)
(-6.5347039e-05 4.6471363e-06 -1.4917e-23)
(-6.2574e-05 3.0090263e-06 -1.9825139e-24)
(-5.9870677e-05 1.7157609e-06 2.3326472e-25)
(-5.66995e-05 5.3251837e-07 9.4162961e-25)
(-5.3845706e-05 -3.3235566e-07 9.5013375e-25)
)
;
    }
    Outlet
    {
        type            calculated;
        value           uniform (0 0 0);
    }
    Ground
    {
        type            calculated;
        value           uniform (0 0 0);
    }
}


// ************************************************************************* //
