/*--------------------------------*- C++ -*----------------------------------*\
| =========                 |                                                 |
| \\      /  F ield         | OpenFOAM: The Open Source CFD Toolbox           |
|  \\    /   O peration     | Version:  v2006                                 |
|   \\  /    A nd           | Website:  www.openfoam.com                      |
|    \\/     M anipulation  |                                                 |
\*---------------------------------------------------------------------------*/
FoamFile
{
    version     2.0;
    format      ascii;
    class       volScalarField;
    location    "1000";
    object      yPlus;
}
// * * * * * * * * * * * * * * * * * * * * * * * * * * * * * * * * * * * * * //

dimensions      [0 0 0 0 0 0 0];


internalField   uniform 0;

boundaryField
{
    Side
    {
        type            empty;
    }
    Inlet
    {
        type            calculated;
        value           uniform 0;
    }
    Wing
    {
        type            calculated;
        value           nonuniform List<scalar> 
139
(
90.320849
88.329894
80.967394
75.213772
69.588121
65.089462
58.734651
54.119733
48.223801
41.336477
36.293899
32.45892
28.49048
25.240812
23.887853
23.895323
25.130437
28.039556
32.619421
37.783852
43.151028
48.294818
53.755208
59.241057
64.642912
69.30468
73.398023
77.365273
81.701577
84.831813
87.317805
89.480056
94.020294
99.382133
101.63451
101.80564
104.97771
107.93146
108.25526
112.0632
118.9964
122.37681
123.12318
127.20207
126.06976
127.47811
125.4061
122.52746
119.15062
61.222509
56.409525
56.029582
60.203142
66.048255
70.168705
72.677349
74.614857
76.093325
77.344295
78.392548
79.185787
79.96311
80.659308
81.13263
81.349422
81.534392
81.941837
82.531961
83.298622
84.137421
84.747466
85.003169
84.754968
84.541312
84.332382
83.890435
83.523404
83.148604
83.157828
83.488436
84.481007
86.411403
89.338621
109.63245
107.63478
106.07407
104.67804
103.35644
101.96553
100.28618
98.548824
97.030784
95.732493
94.528869
93.335592
91.908609
90.293381
88.732121
87.238932
85.411597
83.445275
81.574823
79.373421
76.755522
73.78563
69.775461
67.576258
52.306572
116.49609
114.44728
113.42265
112.73592
112.49414
112.75973
113.37483
114.68089
115.06055
116.11731
117.1578
118.56263
120.08575
121.10454
122.52969
123.33991
124.78819
125.52575
126.40767
126.87086
127.70546
128.55902
128.11894
127.79949
126.3363
125.55185
123.91971
121.17863
118.3828
115.05027
112.01601
)
;
    }
    Outlet
    {
        type            calculated;
        value           uniform 0;
    }
    Ground
    {
        type            calculated;
        value           nonuniform List<scalar> 
154
(
71.260305
74.118774
77.017373
79.811678
82.498749
85.097361
87.606077
90.023355
92.350922
94.590312
96.74403
98.811397
100.79917
102.69553
104.5332
106.24306
107.97088
109.45645
111.10446
112.64322
114.1693
115.59001
117.19381
118.56611
119.92991
121.24988
122.51079
123.72722
124.90462
126.04537
127.15257
128.22907
129.27729
130.29941
131.29738
132.27296
133.22779
134.16337
135.08109
135.98225
136.86807
137.73968
138.59815
139.44448
140.27961
141.10445
141.91983
142.72655
143.52535
144.31695
145.10203
145.88122
146.65515
147.42439
148.18949
148.951
149.70943
150.46527
151.21898
151.97102
152.7218
153.47173
154.22116
154.97041
155.71969
156.46918
157.2187
157.96827
158.71611
159.46421
160.19958
160.95673
161.60035
162.62289
58.399161
54.989415
51.955785
49.235834
46.877376
44.940294
43.475052
42.521399
42.102879
42.204557
42.786406
43.792301
45.155056
46.805441
48.678629
50.717468
52.873755
55.107929
57.388657
59.68987
61.995574
64.278269
66.56717
68.719546
128.28082
127.52378
126.66722
125.69099
124.60304
123.3877
122.02991
120.51275
118.81923
116.93302
114.84119
112.52775
110.00785
107.23941
104.22786
100.97095
97.47419
93.745572
89.790149
85.6361
81.276762
76.726936
71.999081
67.057255
62.046553
459.2264
387.47327
330.95268
296.10327
269.00535
246.02682
227.35569
212.41551
200.16464
189.79917
181.08458
173.68966
167.35338
161.89302
157.17876
153.08133
149.51359
146.39893
143.67158
141.2854
139.18561
137.35721
135.75492
134.37196
133.17612
132.13745
131.25994
130.52552
129.93972
129.42796
129.10474
)
;
    }
}


// ************************************************************************* //
