/*--------------------------------*- C++ -*----------------------------------*\
| =========                 |                                                 |
| \\      /  F ield         | OpenFOAM: The Open Source CFD Toolbox           |
|  \\    /   O peration     | Version:  v2006                                 |
|   \\  /    A nd           | Website:  www.openfoam.com                      |
|    \\/     M anipulation  |                                                 |
\*---------------------------------------------------------------------------*/
FoamFile
{
    version     2.0;
    format      ascii;
    class       volScalarField;
    location    "500";
    object      alphat;
}
// * * * * * * * * * * * * * * * * * * * * * * * * * * * * * * * * * * * * * //

dimensions      [1 -1 -1 0 0 0 0];


internalField   nonuniform List<scalar> 
19765
(
1.015449e-05
1.0122659e-05
9.7837984e-06
9.7882836e-06
9.7460515e-06
9.8672318e-06
9.7433479e-06
9.8817856e-06
9.8074752e-06
9.5825288e-06
9.6447834e-06
9.9819305e-06
1.0168755e-05
1.0332903e-05
1.0710886e-05
1.0862202e-05
1.0792869e-05
1.0922327e-05
1.1315112e-05
1.1638833e-05
1.1839572e-05
1.1920815e-05
1.2095387e-05
1.2190879e-05
1.2245842e-05
1.2272151e-05
1.2273932e-05
1.2192197e-05
1.2191982e-05
1.2063222e-05
1.1827607e-05
1.1531015e-05
1.1541745e-05
1.1664925e-05
1.1519788e-05
1.1187519e-05
1.1156133e-05
1.1082715e-05
1.0806859e-05
1.0869864e-05
1.1200785e-05
1.1334718e-05
1.1284551e-05
1.1563796e-05
1.1461657e-05
1.167318e-05
1.1677724e-05
1.1652612e-05
1.1536403e-05
5.8826626e-05
6.1237368e-05
6.3234132e-05
6.4585331e-05
6.6433075e-05
6.8344983e-05
7.0273028e-05
7.2160517e-05
7.4172144e-05
7.5817575e-05
7.7751927e-05
7.9864478e-05
8.1611421e-05
8.3142485e-05
8.4814441e-05
8.5902494e-05
8.6255313e-05
8.6954285e-05
8.8155648e-05
8.9357953e-05
9.029312e-05
9.0693934e-05
9.1014594e-05
9.1626372e-05
9.2213011e-05
9.2273772e-05
9.2122307e-05
9.2130212e-05
9.2094177e-05
9.188405e-05
9.1578219e-05
9.1210983e-05
9.1003241e-05
9.0659015e-05
8.9837437e-05
8.8757941e-05
8.7803568e-05
8.6570379e-05
8.5062229e-05
8.3913592e-05
8.2886667e-05
8.0856154e-05
7.8751143e-05
7.6001335e-05
7.3485992e-05
6.8300122e-05
6.2283452e-05
5.6116222e-05
5.153835e-05
1.8813969e-05
1.7920051e-05
1.7195443e-05
1.7299861e-05
1.7261981e-05
1.7216301e-05
1.6969287e-05
1.6973572e-05
1.6678931e-05
1.6664677e-05
1.6753355e-05
1.6614592e-05
1.6271242e-05
1.5967303e-05
1.5558685e-05
1.501328e-05
1.463401e-05
1.4437354e-05
1.425702e-05
1.4026057e-05
1.3769157e-05
1.3624866e-05
1.3493702e-05
1.3407609e-05
1.354192e-05
1.3904278e-05
1.4234437e-05
1.4591156e-05
1.5160519e-05
1.5779602e-05
1.6379504e-05
1.6930472e-05
1.7418942e-05
1.8226469e-05
1.924489e-05
2.0079514e-05
2.0716539e-05
2.1570191e-05
2.2200023e-05
2.2485567e-05
2.3029391e-05
2.4025558e-05
2.4516767e-05
2.5480317e-05
2.6125022e-05
2.751732e-05
2.9578928e-05
3.2206363e-05
3.401069e-05
7.924818e-07
6.8889934e-07
6.2499917e-07
6.0672401e-07
5.8699154e-07
5.692125e-07
5.4632591e-07
5.3352254e-07
5.1288378e-07
5.0062234e-07
4.9159813e-07
4.769731e-07
4.579038e-07
4.4146324e-07
4.2448701e-07
4.061406e-07
3.9335028e-07
3.8564922e-07
3.7834813e-07
3.7033478e-07
3.6324362e-07
3.5943515e-07
3.5679845e-07
3.5590568e-07
3.6057808e-07
3.7148702e-07
3.8290694e-07
3.9617529e-07
4.1558221e-07
4.3790979e-07
4.6190113e-07
4.8669682e-07
5.1203789e-07
5.4848912e-07
5.9479879e-07
6.4038334e-07
6.8482535e-07
7.4105463e-07
7.9354729e-07
8.3800569e-07
8.9877735e-07
9.8587963e-07
1.0620115e-06
1.1823311e-06
1.2998736e-06
1.4707594e-06
1.6772538e-06
1.9337418e-06
2.2295228e-06
1.6263768e-07
1.615478e-07
1.6134884e-07
1.6289116e-07
1.6422702e-07
1.654736e-07
1.6616684e-07
1.6737903e-07
1.6780806e-07
1.6875632e-07
1.7002024e-07
1.7077432e-07
1.7102567e-07
1.7140137e-07
1.7152641e-07
1.7125074e-07
1.7135699e-07
1.7191946e-07
1.7239201e-07
1.7281021e-07
1.733899e-07
1.7398654e-07
1.7478186e-07
1.7598294e-07
1.7776773e-07
1.8023437e-07
1.8275381e-07
1.8542528e-07
1.8871677e-07
1.9219612e-07
1.9568059e-07
1.9905957e-07
2.0219823e-07
2.0614837e-07
2.1065612e-07
2.1460739e-07
2.1794261e-07
2.2178473e-07
2.2487721e-07
2.2698924e-07
2.2987424e-07
2.3373373e-07
2.3636921e-07
2.4064293e-07
2.4408014e-07
2.4884898e-07
2.5364847e-07
2.5774875e-07
2.6062497e-07
1.3913902e-07
1.3906403e-07
1.3934965e-07
1.403215e-07
1.4102485e-07
1.4173643e-07
1.4224516e-07
1.4295109e-07
1.4332199e-07
1.439965e-07
1.446277e-07
1.4498426e-07
1.4518598e-07
1.4543084e-07
1.4554258e-07
1.4558588e-07
1.4586777e-07
1.4632016e-07
1.4672705e-07
1.4716192e-07
1.4769778e-07
1.482442e-07
1.489723e-07
1.5000327e-07
1.5133162e-07
1.5302965e-07
1.5483944e-07
1.5674718e-07
1.5898285e-07
1.6140429e-07
1.6390233e-07
1.6643376e-07
1.6882985e-07
1.7148903e-07
1.7448014e-07
1.7742378e-07
1.8002194e-07
1.8274758e-07
1.8531631e-07
1.8737401e-07
1.893797e-07
1.9203766e-07
1.9413349e-07
1.969401e-07
1.994942e-07
2.0258333e-07
2.0592253e-07
2.0954982e-07
2.1288008e-07
1.2211964e-07
1.2198153e-07
1.2203616e-07
1.2248078e-07
1.2279107e-07
1.2311194e-07
1.2333442e-07
1.236799e-07
1.2385552e-07
1.2421e-07
1.2456255e-07
1.2477269e-07
1.249046e-07
1.2507083e-07
1.2517333e-07
1.2524394e-07
1.2546334e-07
1.2580405e-07
1.2613993e-07
1.2650701e-07
1.2694744e-07
1.2740621e-07
1.2796033e-07
1.286921e-07
1.296297e-07
1.308004e-07
1.3204855e-07
1.3338139e-07
1.3493075e-07
1.3660504e-07
1.3834333e-07
1.4011509e-07
1.4182951e-07
1.4372307e-07
1.4582703e-07
1.4790951e-07
1.4980821e-07
1.5179568e-07
1.5369803e-07
1.5530957e-07
1.5691578e-07
1.5888767e-07
1.6054134e-07
1.6258542e-07
1.6447106e-07
1.6662879e-07
1.6887893e-07
1.7122732e-07
1.733572e-07
1.1324723e-07
1.1314775e-07
1.1316666e-07
1.1341974e-07
1.1359604e-07
1.1378014e-07
1.1390803e-07
1.1410668e-07
1.142101e-07
1.144166e-07
1.1462427e-07
1.1475653e-07
1.1485056e-07
1.1496982e-07
1.1506123e-07
1.1514424e-07
1.1531958e-07
1.1557256e-07
1.1583479e-07
1.1612811e-07
1.1647892e-07
1.1686151e-07
1.1731891e-07
1.1789574e-07
1.1861387e-07
1.1948879e-07
1.2042997e-07
1.2144284e-07
1.2260443e-07
1.2386148e-07
1.2517811e-07
1.2653535e-07
1.2787754e-07
1.2934395e-07
1.3095605e-07
1.3257542e-07
1.340989e-07
1.3568746e-07
1.3723855e-07
1.3862199e-07
1.4000449e-07
1.4162668e-07
1.4306666e-07
1.447676e-07
1.4639597e-07
1.4822732e-07
1.5016116e-07
1.5221915e-07
1.5417663e-07
1.0713592e-07
1.0704745e-07
1.0703108e-07
1.0716213e-07
1.072491e-07
1.073437e-07
1.0740742e-07
1.0751733e-07
1.075734e-07
1.0769491e-07
1.0782132e-07
1.0790744e-07
1.0797596e-07
1.0806502e-07
1.0814373e-07
1.0822431e-07
1.083672e-07
1.0856437e-07
1.0877554e-07
1.0901394e-07
1.0929555e-07
1.0960502e-07
1.099634e-07
1.1039958e-07
1.109386e-07
1.115888e-07
1.1229141e-07
1.1305102e-07
1.1391563e-07
1.1485229e-07
1.1583952e-07
1.1686511e-07
1.1789443e-07
1.1901389e-07
1.2023621e-07
1.2147327e-07
1.2266e-07
1.2389604e-07
1.2511526e-07
1.2623277e-07
1.2735489e-07
1.2863003e-07
1.2979035e-07
1.3111473e-07
1.3238928e-07
1.3378714e-07
1.3524063e-07
1.3675895e-07
1.3819162e-07
1.0316288e-07
1.0310125e-07
1.0308438e-07
1.0316204e-07
1.0321184e-07
1.0326706e-07
1.0330364e-07
1.033702e-07
1.0340471e-07
1.0348173e-07
1.0356392e-07
1.0362405e-07
1.0367666e-07
1.0374549e-07
1.038121e-07
1.0388467e-07
1.0400064e-07
1.0415542e-07
1.0432482e-07
1.0451728e-07
1.0474337e-07
1.0499508e-07
1.0528357e-07
1.0562611e-07
1.0604477e-07
1.0654435e-07
1.0708602e-07
1.0767363e-07
1.0833884e-07
1.0906106e-07
1.0982685e-07
1.106283e-07
1.1144282e-07
1.1232632e-07
1.132878e-07
1.1426949e-07
1.1522715e-07
1.1622511e-07
1.1721986e-07
1.1815303e-07
1.1909285e-07
1.2014108e-07
1.2111764e-07
1.2221067e-07
1.2327766e-07
1.2443757e-07
1.2564759e-07
1.2692061e-07
1.281446e-07
1.0039902e-07
1.0035393e-07
1.003377e-07
1.0038457e-07
1.0041386e-07
1.0044749e-07
1.0046999e-07
1.0051308e-07
1.0053693e-07
1.0058976e-07
1.0064779e-07
1.0069401e-07
1.0073799e-07
1.0079503e-07
1.0085368e-07
1.0091948e-07
1.0101643e-07
1.0114182e-07
1.0128057e-07
1.0143821e-07
1.0162168e-07
1.0182636e-07
1.0205797e-07
1.0232753e-07
1.02654e-07
1.0304024e-07
1.0345984e-07
1.0391611e-07
1.0443053e-07
1.0498989e-07
1.0558576e-07
1.0621306e-07
1.0685683e-07
1.0755408e-07
1.0831082e-07
1.0908782e-07
1.0985473e-07
1.10654e-07
1.1145575e-07
1.12219e-07
1.1298951e-07
1.1383525e-07
1.1463339e-07
1.155107e-07
1.163696e-07
1.1729028e-07
1.1824263e-07
1.1923463e-07
1.2018509e-07
9.8442337e-08
9.8414382e-08
9.8404801e-08
9.8437766e-08
9.8459003e-08
9.8483489e-08
9.8501077e-08
9.8532985e-08
9.8553106e-08
9.8593433e-08
9.863847e-08
9.8677401e-08
9.8716707e-08
9.8766496e-08
9.8819504e-08
9.8879593e-08
9.8962465e-08
9.9066483e-08
9.918204e-08
9.931281e-08
9.9463497e-08
9.9631485e-08
9.9819783e-08
1.0003545e-07
1.0029386e-07
1.0059683e-07
1.0092624e-07
1.01285e-07
1.0168817e-07
1.0212732e-07
1.0259728e-07
1.0309485e-07
1.0360971e-07
1.0416694e-07
1.047708e-07
1.0539413e-07
1.0601542e-07
1.0666359e-07
1.0731784e-07
1.079486e-07
1.0858686e-07
1.0928086e-07
1.0994368e-07
1.1066457e-07
1.1137487e-07
1.1213171e-07
1.1291435e-07
1.137309e-07
1.1451815e-07
9.702748e-08
9.7011898e-08
9.7008351e-08
9.7034283e-08
9.7052421e-08
9.7073166e-08
9.7089744e-08
9.7116655e-08
9.7136423e-08
9.7170733e-08
9.7209283e-08
9.7245045e-08
9.7282472e-08
9.7328365e-08
9.737799e-08
9.7434044e-08
9.7506986e-08
9.759578e-08
9.7694144e-08
9.7804528e-08
9.7930115e-08
9.8069351e-08
9.8223778e-08
9.8398004e-08
9.8604126e-08
9.884351e-08
9.9103713e-08
9.9387195e-08
9.9704731e-08
1.0005121e-07
1.0042363e-07
1.0081969e-07
1.0123184e-07
1.0167726e-07
1.0215906e-07
1.0265827e-07
1.0315957e-07
1.0368307e-07
1.0421394e-07
1.0473049e-07
1.0525422e-07
1.0581896e-07
1.0636247e-07
1.069476e-07
1.0752512e-07
1.0813526e-07
1.0876282e-07
1.0941366e-07
1.1003933e-07
9.5983354e-08
9.59786e-08
9.5981608e-08
9.6005238e-08
9.6023579e-08
9.6044039e-08
9.6062036e-08
9.6087657e-08
9.6109046e-08
9.6141139e-08
9.6176994e-08
9.6211992e-08
9.6249227e-08
9.6293321e-08
9.634113e-08
9.6394525e-08
9.6460535e-08
9.6538459e-08
9.6624091e-08
9.671904e-08
9.6825445e-08
9.6942342e-08
9.7070499e-08
9.721293e-08
9.7378866e-08
9.7569557e-08
9.7776525e-08
9.8001707e-08
9.8253191e-08
9.8528462e-08
9.8825512e-08
9.9142004e-08
9.9472211e-08
9.9828449e-08
1.0021347e-07
1.0061403e-07
1.0101915e-07
1.0144306e-07
1.0187505e-07
1.0229897e-07
1.0272975e-07
1.0319191e-07
1.0363989e-07
1.0411908e-07
1.0459357e-07
1.0509259e-07
1.0560501e-07
1.061361e-07
1.0664707e-07
9.5204111e-08
9.5207703e-08
9.521639e-08
9.5239801e-08
9.5259695e-08
9.5281422e-08
9.5301859e-08
9.5328123e-08
9.5352071e-08
9.5384119e-08
9.5419544e-08
9.5455266e-08
9.5493435e-08
9.5537205e-08
9.5584431e-08
9.5636375e-08
9.5697762e-08
9.5768072e-08
9.5844411e-08
9.5927782e-08
9.6019575e-08
9.6119129e-08
9.6226773e-08
9.6344471e-08
9.6479071e-08
9.6631881e-08
9.6797214e-08
9.6976407e-08
9.717622e-08
9.7396019e-08
9.7633129e-08
9.7884885e-08
9.8147628e-08
9.8430972e-08
9.8737521e-08
9.9057947e-08
9.9384211e-08
9.9726421e-08
1.0007667e-07
1.0042276e-07
1.0077518e-07
1.0115157e-07
1.0151832e-07
1.019082e-07
1.0229471e-07
1.0269892e-07
1.0311242e-07
1.0353925e-07
1.039486e-07
9.4614152e-08
9.4624786e-08
9.4638737e-08
9.466333e-08
9.4685642e-08
9.4709608e-08
9.473309e-08
9.4761172e-08
9.4788221e-08
9.482156e-08
9.4857961e-08
9.4895357e-08
9.4935223e-08
9.4979697e-08
9.5027277e-08
9.5078765e-08
9.5137294e-08
9.5202432e-08
9.5272119e-08
9.5346911e-08
9.5427652e-08
9.5513808e-08
9.5605428e-08
9.5703784e-08
9.5813838e-08
9.5936991e-08
9.6069484e-08
9.6212127e-08
9.6371621e-08
9.6547804e-08
9.6735621e-08
9.6933662e-08
9.7140999e-08
9.7365373e-08
9.7608911e-08
9.7864827e-08
9.8127118e-08
9.8402986e-08
9.8686547e-08
9.8968512e-08
9.9256252e-08
9.9562686e-08
9.9862724e-08
1.0018036e-07
1.0049585e-07
1.0082464e-07
1.0116033e-07
1.0150639e-07
1.0183771e-07
9.4164306e-08
9.4180647e-08
9.4199198e-08
9.4225599e-08
9.4250647e-08
9.4277273e-08
9.4304018e-08
9.4334545e-08
9.4364941e-08
9.4400374e-08
9.4438638e-08
9.4478332e-08
9.452044e-08
9.4566379e-08
9.461506e-08
9.4666922e-08
9.4723975e-08
9.4785817e-08
9.4850915e-08
9.4919483e-08
9.4991954e-08
9.5067824e-08
9.5146935e-08
9.5230062e-08
9.5320774e-08
9.5420507e-08
9.5526793e-08
9.5640177e-08
9.5768322e-08
9.5908774e-08
9.6054151e-08
9.6207829e-08
9.6370384e-08
9.6547176e-08
9.6739719e-08
9.6943097e-08
9.7152809e-08
9.7373977e-08
9.7602171e-08
9.7830287e-08
9.8063537e-08
9.8311386e-08
9.855501e-08
9.8812016e-08
9.9067558e-08
9.9332937e-08
9.9603166e-08
9.9881029e-08
1.0014608e-07
9.3818332e-08
9.3839554e-08
9.3862285e-08
9.3890919e-08
9.3918907e-08
9.3948463e-08
9.3978599e-08
9.4011977e-08
9.4045875e-08
9.408394e-08
9.4124674e-08
9.4167117e-08
9.4211889e-08
9.4259886e-08
9.4310277e-08
9.4363216e-08
9.4419898e-08
9.4479912e-08
9.4542055e-08
9.4606266e-08
9.4672659e-08
9.4740704e-08
9.4810088e-08
9.4881225e-08
9.4956645e-08
9.5037752e-08
9.5122938e-08
9.5212905e-08
9.5316715e-08
9.5425253e-08
9.5534234e-08
9.5653276e-08
9.5779925e-08
9.5917883e-08
9.6068861e-08
9.6229272e-08
9.6395555e-08
9.6571304e-08
9.6753225e-08
9.6935947e-08
9.7123224e-08
9.73221e-08
9.7518365e-08
9.772507e-08
9.7930964e-08
9.8144396e-08
9.8361444e-08
9.8584455e-08
9.8796528e-08
9.355135e-08
9.3576741e-08
9.3603243e-08
9.3634309e-08
9.3665299e-08
9.3697905e-08
9.3731473e-08
9.3767943e-08
9.3805436e-08
9.38465e-08
9.3890134e-08
9.3935673e-08
9.3983456e-08
9.4033992e-08
9.4086612e-08
9.4141233e-08
9.4198445e-08
9.4257804e-08
9.4318303e-08
9.4379657e-08
9.4441724e-08
9.4503911e-08
9.4565779e-08
9.4627478e-08
9.4690767e-08
9.4756955e-08
9.4825033e-08
9.4896336e-08
9.4980643e-08
9.5056551e-08
9.5138997e-08
9.5231567e-08
9.5328093e-08
9.5434173e-08
9.5551267e-08
9.5675975e-08
9.5805463e-08
9.594252e-08
9.6084918e-08
9.622872e-08
9.6376685e-08
9.6534062e-08
9.6690066e-08
9.685437e-08
9.7018371e-08
9.7188211e-08
9.7360749e-08
9.7537894e-08
9.7705659e-08
9.3344734e-08
9.3373831e-08
9.3403837e-08
9.3437487e-08
9.3471535e-08
9.3507289e-08
9.3544331e-08
9.3584084e-08
9.362526e-08
9.3669611e-08
9.3716488e-08
9.3765417e-08
9.3816519e-08
9.3870011e-08
9.3925315e-08
9.3982149e-08
9.4040645e-08
9.4100307e-08
9.4160237e-08
9.4219953e-08
9.4279106e-08
9.4337023e-08
9.4393149e-08
9.4447445e-08
9.4501092e-08
9.4555257e-08
9.46094e-08
9.4665853e-08
9.4732506e-08
9.4786809e-08
9.4844387e-08
9.4910283e-08
9.4983609e-08
9.5065267e-08
9.5153825e-08
9.5247349e-08
9.5344648e-08
9.5448303e-08
9.5556896e-08
9.5667503e-08
9.5782093e-08
9.5904529e-08
9.6026578e-08
9.6155408e-08
9.6284404e-08
9.6418089e-08
9.6553927e-08
9.6693503e-08
9.6825166e-08
9.318515e-08
9.3217596e-08
9.3250895e-08
9.3287224e-08
9.3324365e-08
9.3363338e-08
9.3403898e-08
9.3447086e-08
9.3492037e-08
9.3539918e-08
9.3590325e-08
9.3642911e-08
9.369762e-08
9.375444e-08
9.3812841e-08
9.3872367e-08
9.3932792e-08
9.3993557e-08
9.4053808e-08
9.4112897e-08
9.417029e-08
9.4225226e-08
9.4277049e-08
9.4325574e-08
9.4371549e-08
9.4415972e-08
9.4458729e-08
9.4503047e-08
9.4545898e-08
9.4588893e-08
9.4630963e-08
9.4679346e-08
9.4731937e-08
9.4788012e-08
9.4849096e-08
9.4914816e-08
9.4984475e-08
9.5059916e-08
9.5140034e-08
9.522257e-08
9.5308881e-08
9.5401793e-08
9.5495039e-08
9.5593914e-08
9.5693332e-08
9.5796603e-08
9.5901663e-08
9.6009811e-08
9.611134e-08
9.3062509e-08
9.3098082e-08
9.3134551e-08
9.3173656e-08
9.3213944e-08
9.3256221e-08
9.3300368e-08
9.3347141e-08
9.3395982e-08
9.3447619e-08
9.3501821e-08
9.355832e-08
9.3616917e-08
9.3677414e-08
9.3739296e-08
9.3801954e-08
9.3864874e-08
9.3927423e-08
9.3988752e-08
9.4048057e-08
9.4104647e-08
9.4157664e-08
9.4206359e-08
9.4250435e-08
9.4290306e-08
9.4326799e-08
9.4360197e-08
9.4393303e-08
9.439102e-08
9.4425471e-08
9.447253e-08
9.4509513e-08
9.454241e-08
9.4577145e-08
9.461618e-08
9.465934e-08
9.4706107e-08
9.4757823e-08
9.481374e-08
9.4872221e-08
9.4934247e-08
9.5001911e-08
9.5070478e-08
9.5143861e-08
9.5218146e-08
9.5295748e-08
9.5374975e-08
9.5456901e-08
9.5533405e-08
9.2969377e-08
9.3007929e-08
9.3047497e-08
9.3089472e-08
9.3132976e-08
9.3178653e-08
9.3226476e-08
9.3276989e-08
9.3329854e-08
9.3385469e-08
9.3443722e-08
9.3504392e-08
9.3567155e-08
9.3631665e-08
9.3697394e-08
9.3763595e-08
9.3829516e-08
9.3894445e-08
9.3957503e-08
9.4017744e-08
9.4074333e-08
9.4126314e-08
9.4172849e-08
9.4213551e-08
9.4248576e-08
9.4278584e-08
9.4304142e-08
9.4325043e-08
9.4349474e-08
9.4367265e-08
9.4379766e-08
9.4392351e-08
9.4406728e-08
9.4423922e-08
9.4444516e-08
9.4468328e-08
9.4495154e-08
9.4526143e-08
9.4560922e-08
9.4598381e-08
9.4639249e-08
9.4685067e-08
9.4732279e-08
9.4783757e-08
9.4836481e-08
9.4892194e-08
9.4949493e-08
9.500925e-08
9.506467e-08
9.2900091e-08
9.2941553e-08
9.2984207e-08
9.3029159e-08
9.3075973e-08
9.3125168e-08
9.3176784e-08
9.3231206e-08
9.3288256e-08
9.3348074e-08
9.3410637e-08
9.3475739e-08
9.3542954e-08
9.3611805e-08
9.3681736e-08
9.3751874e-08
9.3821261e-08
9.3889099e-08
9.3954459e-08
9.4016259e-08
9.407353e-08
9.4125216e-08
9.4170395e-08
9.4208605e-08
9.4239798e-08
9.4264474e-08
9.428324e-08
9.4297016e-08
9.4305218e-08
9.4310204e-08
9.4313461e-08
9.4315501e-08
9.4316925e-08
9.4319104e-08
9.4323227e-08
9.4329738e-08
9.4338843e-08
9.4351563e-08
9.4367792e-08
9.4386817e-08
9.4409179e-08
9.4436003e-08
9.4464647e-08
9.4497199e-08
9.4531335e-08
9.4568291e-08
9.4606897e-08
9.4647859e-08
9.4685485e-08
9.285041e-08
9.2894764e-08
9.2940531e-08
9.2988582e-08
9.3038822e-08
9.3091671e-08
9.3147222e-08
9.3205738e-08
9.3267154e-08
9.3331414e-08
9.3398549e-08
9.3468357e-08
9.3540317e-08
9.3613838e-08
9.3688322e-08
9.3762775e-08
9.3836061e-08
9.390729e-08
9.3975464e-08
9.4039372e-08
9.4097913e-08
9.4149935e-08
9.4194433e-08
9.4230876e-08
9.425906e-08
9.427932e-08
9.4292383e-08
9.4298839e-08
9.4299718e-08
9.4295727e-08
9.4287872e-08
9.4277419e-08
9.4265588e-08
9.4253765e-08
9.4243118e-08
9.4234295e-08
9.4227722e-08
9.42243e-08
9.422414e-08
9.422686e-08
9.4232876e-08
9.4243014e-08
9.4255346e-08
9.4271373e-08
9.4289314e-08
9.4310023e-08
9.4332517e-08
9.4357355e-08
9.4379777e-08
9.2817106e-08
9.2864383e-08
9.2913328e-08
9.2964619e-08
9.3018422e-08
9.3075085e-08
9.3134738e-08
9.3197551e-08
9.326354e-08
9.3332493e-08
9.3404476e-08
9.3479274e-08
9.3556281e-08
9.3634804e-08
9.3714191e-08
9.3793331e-08
9.3870929e-08
9.3945994e-08
9.4017448e-08
9.4083952e-08
9.4144281e-08
9.4197181e-08
9.4241567e-08
9.4276848e-08
9.430269e-08
9.4319277e-08
9.4327385e-08
9.4327698e-08
9.4320906e-08
9.4308053e-08
9.4290424e-08
9.426933e-08
9.4246037e-08
9.4221861e-08
9.4198028e-08
9.4175439e-08
9.4154756e-08
9.4136831e-08
9.4121972e-08
9.4110072e-08
9.4101472e-08
9.4096775e-08
9.4094623e-08
9.4096069e-08
9.4099759e-08
9.4106261e-08
9.4114741e-08
9.4125633e-08
9.4134963e-08
9.2797761e-08
9.2848027e-08
9.2900248e-08
9.2954934e-08
9.3012461e-08
9.3073118e-08
9.3137065e-08
9.3204396e-08
9.3275186e-08
9.33491e-08
9.3426218e-08
9.3506306e-08
9.3588675e-08
9.3672537e-08
9.3757179e-08
9.3841376e-08
9.3923681e-08
9.4003002e-08
9.4078167e-08
9.414771e-08
9.4210286e-08
9.4264535e-08
9.4309295e-08
9.434392e-08
9.4367965e-08
9.4381472e-08
9.4385266e-08
9.4380032e-08
9.4366514e-08
9.4345827e-08
9.4319321e-08
9.4288401e-08
9.4254487e-08
9.4218909e-08
9.4182976e-08
9.4147798e-08
9.4114232e-08
9.4083111e-08
9.4054908e-08
9.4029748e-08
9.4007928e-08
9.398989e-08
9.3974727e-08
9.3963158e-08
9.3954165e-08
9.3948096e-08
9.3944243e-08
9.3942926e-08
9.3940843e-08
9.2790563e-08
9.2843918e-08
9.2899542e-08
9.2957797e-08
9.301923e-08
9.3084083e-08
9.3152537e-08
9.3224628e-08
9.3300472e-08
9.337963e-08
9.3462185e-08
9.3547877e-08
9.3635937e-08
9.3725485e-08
9.3815739e-08
9.3905359e-08
9.3992758e-08
9.4076735e-08
9.4156014e-08
9.4229005e-08
9.4294239e-08
9.4350255e-08
9.4395809e-08
9.44302e-08
9.4452895e-08
9.4463802e-08
9.4463779e-08
9.4453546e-08
9.4433848e-08
9.4405899e-08
9.4371157e-08
9.4331126e-08
9.4287358e-08
9.4241211e-08
9.4194079e-08
9.4147257e-08
9.4101782e-08
9.4058495e-08
9.4018018e-08
9.3980672e-08
9.3946738e-08
9.3916545e-08
9.388955e-08
9.3866216e-08
9.3845794e-08
9.3828468e-08
9.381363e-08
9.3801502e-08
9.3789357e-08
9.2794195e-08
9.2850764e-08
9.2909943e-08
9.297196e-08
9.3037501e-08
9.3106771e-08
9.3179969e-08
9.3257083e-08
9.3338255e-08
9.3422958e-08
9.351127e-08
9.3602895e-08
9.3696988e-08
9.3792579e-08
9.3888807e-08
9.398422e-08
9.4077093e-08
9.4166111e-08
9.424989e-08
9.4326708e-08
9.4394977e-08
9.445313e-08
9.4499842e-08
9.453436e-08
9.4556073e-08
9.4564765e-08
9.4561322e-08
9.4546499e-08
9.4521072e-08
9.4486346e-08
9.4443876e-08
9.439527e-08
9.4342205e-08
9.4286097e-08
9.422843e-08
9.4170675e-08
9.411403e-08
9.4059366e-08
9.4007439e-08
9.3958742e-08
9.3913559e-08
9.3872143e-08
9.3834242e-08
9.380013e-08
9.3769274e-08
9.3741731e-08
9.3716977e-08
9.3695145e-08
9.3674005e-08
9.2807725e-08
9.2867659e-08
9.2930569e-08
9.2996557e-08
9.3066431e-08
9.3140362e-08
9.3218563e-08
9.3300982e-08
9.3387777e-08
9.3478346e-08
9.3572752e-08
9.3670657e-08
9.377114e-08
9.3873139e-08
9.3975712e-08
9.4077291e-08
9.4176015e-08
9.4270451e-08
9.4359097e-08
9.4440102e-08
9.4511754e-08
9.4572378e-08
9.462057e-08
9.4655522e-08
9.4676554e-08
9.4683341e-08
9.467679e-08
9.4657697e-08
9.4626876e-08
9.4585724e-08
9.4535895e-08
9.4479101e-08
9.4417151e-08
9.4351528e-08
9.428382e-08
9.4215659e-08
9.4148395e-08
9.4082945e-08
9.4020192e-08
9.396078e-08
9.3905008e-08
9.3853084e-08
9.3804995e-08
9.3760872e-08
9.3720357e-08
9.3683411e-08
9.3649581e-08
9.3618917e-08
9.3589626e-08
9.2830545e-08
9.2894016e-08
9.2960855e-08
9.3031045e-08
9.3105495e-08
9.3184352e-08
9.3267837e-08
9.3355865e-08
9.3448601e-08
9.3545376e-08
9.3646231e-08
9.375078e-08
9.3858025e-08
9.3966812e-08
9.4076109e-08
9.4184231e-08
9.4289183e-08
9.4389406e-08
9.4483276e-08
9.456881e-08
9.4644169e-08
9.4707571e-08
9.4757528e-08
9.4793177e-08
9.4813778e-08
9.481891e-08
9.4809493e-08
9.478637e-08
9.4750402e-08
9.4703075e-08
9.4646146e-08
9.4581437e-08
9.4510882e-08
9.4436054e-08
9.4358648e-08
9.4280451e-08
9.4202958e-08
9.4127146e-08
9.4054018e-08
9.3984352e-08
9.3918479e-08
9.3856582e-08
9.3798842e-08
9.374529e-08
9.3695707e-08
9.3649983e-08
9.3607724e-08
9.3568904e-08
9.3532115e-08
9.2862315e-08
9.2929518e-08
9.3000505e-08
9.3075146e-08
9.3154438e-08
9.3238507e-08
9.3327581e-08
9.3421543e-08
9.3520561e-08
9.3623903e-08
9.3731581e-08
9.3843156e-08
9.395755e-08
9.4073516e-08
9.4189925e-08
9.4304974e-08
9.4416531e-08
9.4522908e-08
9.4622351e-08
9.4712742e-08
9.4792114e-08
9.4858576e-08
9.4910553e-08
9.4947129e-08
9.4967507e-08
9.497118e-08
9.4959083e-08
9.4932105e-08
9.4891162e-08
9.483783e-08
9.4773969e-08
9.4701514e-08
9.4622531e-08
9.453869e-08
9.4451805e-08
9.4363811e-08
9.4276342e-08
9.419045e-08
9.4107251e-08
9.4027649e-08
9.3952012e-08
9.3880519e-08
9.3813516e-08
9.3750956e-08
9.369274e-08
9.3638702e-08
9.3588498e-08
9.3542035e-08
9.3498243e-08
9.2902931e-08
9.2974078e-08
9.3049456e-08
9.3128816e-08
9.3213238e-08
9.3302826e-08
9.3397817e-08
9.3498062e-08
9.3603725e-08
9.3714017e-08
9.3828912e-08
9.3947913e-08
9.406986e-08
9.4193411e-08
9.4317333e-08
9.4439699e-08
9.4558239e-08
9.4671134e-08
9.4776492e-08
9.4872058e-08
9.4955736e-08
9.502552e-08
9.5079749e-08
9.5117451e-08
9.5137778e-08
9.5140149e-08
9.512551e-08
9.5094799e-08
9.5048992e-08
9.4989754e-08
9.4919053e-08
9.483894e-08
9.4751614e-08
9.4658858e-08
9.4562606e-08
9.446494e-08
9.4367634e-08
9.4271821e-08
9.417873e-08
9.4089381e-08
9.4004191e-08
9.3923347e-08
9.3847334e-08
9.3776054e-08
9.3709505e-08
9.364748e-08
9.3589682e-08
9.3535946e-08
9.3485517e-08
9.2952492e-08
9.3027818e-08
9.310785e-08
9.319222e-08
9.3282081e-08
9.3377521e-08
9.3478779e-08
9.358568e-08
9.3698377e-08
9.3816022e-08
9.3938549e-08
9.4065397e-08
9.4195321e-08
9.4326876e-08
9.4458721e-08
9.4588803e-08
9.471471e-08
9.4834485e-08
9.4946096e-08
9.5047146e-08
9.5135408e-08
9.520876e-08
9.5265453e-08
9.5304456e-08
9.5324874e-08
9.5326068e-08
9.5308986e-08
9.5274621e-08
9.5224008e-08
9.5158908e-08
9.5081395e-08
9.4993641e-08
9.4897985e-08
9.4796326e-08
9.469073e-08
9.4583424e-08
9.4476319e-08
9.4370639e-08
9.4267725e-08
9.416871e-08
9.4074065e-08
9.3983998e-08
9.3899115e-08
9.3819284e-08
9.3744585e-08
9.3674784e-08
9.3609618e-08
9.3548865e-08
9.3492048e-08
9.3011291e-08
9.3091049e-08
9.3176021e-08
9.3265712e-08
9.3361348e-08
9.3462996e-08
9.3570898e-08
9.3684852e-08
9.3804995e-08
9.3930423e-08
9.4061021e-08
9.4196159e-08
9.4334501e-08
9.4474496e-08
9.4614689e-08
9.4752892e-08
9.4886554e-08
9.501357e-08
9.5131766e-08
9.5238603e-08
9.5331717e-08
9.5408868e-08
9.5468219e-08
9.5508679e-08
9.5529308e-08
9.5529418e-08
9.5509962e-08
9.5471984e-08
9.5416585e-08
9.5345618e-08
9.5261269e-08
9.5165837e-08
9.5061798e-08
9.4951182e-08
9.4836188e-08
9.471919e-08
9.4602237e-08
9.4486652e-08
9.4373891e-08
9.4265193e-08
9.4161093e-08
9.4061828e-08
9.3968114e-08
9.3879797e-08
9.3797033e-08
9.3719562e-08
9.364716e-08
9.3579539e-08
9.3516492e-08
9.3079799e-08
9.3164265e-08
9.3254488e-08
9.3349835e-08
9.3451603e-08
9.3559841e-08
9.3674791e-08
9.3796222e-08
9.3924252e-08
9.4057919e-08
9.4197051e-08
9.4340945e-08
9.4488168e-08
9.4637057e-08
9.4786035e-08
9.4932777e-08
9.5074583e-08
9.5209203e-08
9.5334313e-08
9.544723e-08
9.5545453e-08
9.5626623e-08
9.5688809e-08
9.5730863e-08
9.5751803e-08
9.5750902e-08
9.5729114e-08
9.5687536e-08
9.5627335e-08
9.5550459e-08
9.5459209e-08
9.5356012e-08
9.5243488e-08
9.5123801e-08
9.4999292e-08
9.487248e-08
9.4745555e-08
9.4619947e-08
9.4497227e-08
9.4378744e-08
9.4265099e-08
9.4156573e-08
9.4053976e-08
9.3957148e-08
9.3866309e-08
9.3781184e-08
9.3701582e-08
9.3627155e-08
9.3557947e-08
9.315867e-08
9.3248141e-08
9.3343949e-08
9.3445313e-08
9.3553599e-08
9.3668838e-08
9.3791268e-08
9.3920629e-08
9.4057015e-08
9.4199404e-08
9.4347562e-08
9.4500703e-08
9.4657293e-08
9.481555e-08
9.4973765e-08
9.5129471e-08
9.5279818e-08
9.5422402e-08
9.555475e-08
9.5674031e-08
9.5777609e-08
9.5863004e-08
9.592819e-08
9.5971959e-08
9.5993294e-08
9.5991435e-08
9.5967337e-08
9.5922148e-08
9.5857105e-08
9.5774249e-08
9.5676e-08
9.5564915e-08
9.544376e-08
9.531484e-08
9.5180641e-08
9.5043832e-08
9.4906743e-08
9.4770922e-08
9.4638059e-08
9.4509611e-08
9.4386254e-08
9.4268319e-08
9.4156707e-08
9.4051261e-08
9.3952259e-08
9.3859417e-08
9.3772575e-08
9.3691325e-08
9.3615958e-08
9.3248743e-08
9.334354e-08
9.3445294e-08
9.3553063e-08
9.3668281e-08
9.3790961e-08
9.3921334e-08
9.4059111e-08
9.4204355e-08
9.435598e-08
9.4513684e-08
9.4676592e-08
9.4843059e-08
9.5011177e-08
9.5179099e-08
9.5344206e-08
9.5503493e-08
9.56544e-08
9.5794301e-08
9.5920222e-08
9.6029388e-08
9.61192e-08
9.6187537e-08
9.6233129e-08
9.6254926e-08
9.6252146e-08
9.6225745e-08
9.6176918e-08
9.6106972e-08
9.6018046e-08
9.5912673e-08
9.5793549e-08
9.5663584e-08
9.5525229e-08
9.5381119e-08
9.5234076e-08
9.5086574e-08
9.4940287e-08
9.4797026e-08
9.4658364e-08
9.4525055e-08
9.4397491e-08
9.4276657e-08
9.4162409e-08
9.405508e-08
9.3954381e-08
9.3860183e-08
9.3772016e-08
9.3690415e-08
9.3351061e-08
9.3451531e-08
9.3559621e-08
9.3674213e-08
9.379681e-08
9.3927403e-08
9.4066217e-08
9.4212928e-08
9.4367565e-08
9.4528974e-08
9.4696777e-08
9.487e-08
9.504688e-08
9.5225375e-08
9.5403487e-08
9.5578441e-08
9.5747071e-08
9.5906656e-08
9.6054418e-08
9.6187239e-08
9.6302212e-08
9.6396618e-08
9.6468241e-08
9.6515749e-08
9.6538066e-08
9.6534391e-08
9.650568e-08
9.6453177e-08
9.6378256e-08
9.6283152e-08
9.6170518e-08
9.6043182e-08
9.5904203e-08
9.5756179e-08
9.5601899e-08
9.5444338e-08
9.5286123e-08
9.5129059e-08
9.4975088e-08
9.4825897e-08
9.4682331e-08
9.4544849e-08
9.441452e-08
9.4291218e-08
9.4175333e-08
9.4066573e-08
9.396484e-08
9.3869602e-08
9.3781644e-08
9.3466895e-08
9.3573412e-08
9.3688263e-08
9.381013e-08
9.3940587e-08
9.4079602e-08
9.4227391e-08
9.4383592e-08
9.4548192e-08
9.4719968e-08
9.4898454e-08
9.508257e-08
9.5270426e-08
9.5459834e-08
9.5648636e-08
9.5833893e-08
9.6012269e-08
9.618088e-08
9.6336798e-08
9.6476763e-08
9.6597742e-08
9.6696902e-08
9.6771929e-08
9.6821432e-08
9.6844311e-08
9.6839758e-08
9.6808726e-08
9.6752501e-08
9.6672528e-08
9.6571135e-08
9.6451093e-08
9.6315364e-08
9.6167149e-08
9.6009199e-08
9.5844457e-08
9.5676058e-08
9.5506784e-08
9.5338582e-08
9.5173532e-08
9.5013443e-08
9.4859256e-08
9.4711505e-08
9.4571342e-08
9.443867e-08
9.4313931e-08
9.4196836e-08
9.4087318e-08
9.3984782e-08
9.3890272e-08
9.3597784e-08
9.3710756e-08
9.3832827e-08
9.3962458e-08
9.4101296e-08
9.4249282e-08
9.4406619e-08
9.4572904e-08
9.4748078e-08
9.4930838e-08
9.5120625e-08
9.5316241e-08
9.551566e-08
9.5716536e-08
9.5916543e-08
9.6112562e-08
9.6301086e-08
9.6479063e-08
9.6643411e-08
9.6790742e-08
9.6917903e-08
9.7021951e-08
9.7100483e-08
9.7152044e-08
9.7175519e-08
9.7170096e-08
9.7136726e-08
9.7076735e-08
9.6991636e-08
9.6883846e-08
9.6756251e-08
9.6611944e-08
9.6454265e-08
9.6286116e-08
9.6110597e-08
9.5931008e-08
9.5750294e-08
9.5570554e-08
9.5394012e-08
9.5222604e-08
9.5057379e-08
9.489895e-08
9.4748559e-08
9.4606142e-08
9.4472194e-08
9.4346434e-08
9.4228831e-08
9.4118721e-08
9.4017424e-08
9.3745585e-08
9.3865457e-08
9.3995251e-08
9.4133176e-08
9.4280959e-08
9.4438508e-08
9.4606012e-08
9.4783018e-08
9.4969414e-08
9.5163813e-08
9.536555e-08
9.55733e-08
9.5784889e-08
9.5997804e-08
9.6209535e-08
9.6416778e-08
9.6615843e-08
9.6803507e-08
9.6976539e-08
9.7131427e-08
9.7264913e-08
9.7373957e-08
9.745607e-08
9.7509734e-08
9.7533826e-08
9.7527538e-08
9.7491816e-08
9.7428022e-08
9.733773e-08
9.7223449e-08
9.708817e-08
9.6935109e-08
9.6767741e-08
9.6589113e-08
9.6402491e-08
9.6211341e-08
9.6018778e-08
9.5827066e-08
9.563858e-08
9.5455393e-08
9.5278664e-08
9.5109101e-08
9.4948031e-08
9.4795432e-08
9.4651857e-08
9.4517037e-08
9.4390976e-08
9.427294e-08
9.4164548e-08
9.3912535e-08
9.4039793e-08
9.4177862e-08
9.4324662e-08
9.4482005e-08
9.464976e-08
9.4828095e-08
9.5016504e-08
9.5214813e-08
9.5421541e-08
9.5635907e-08
9.5856447e-08
9.6080829e-08
9.6306359e-08
9.6530333e-08
9.6749253e-08
9.6959237e-08
9.7156885e-08
9.7338819e-08
9.7501416e-08
9.7641329e-08
9.7755439e-08
9.7841179e-08
9.7896972e-08
9.7921691e-08
9.7914539e-08
9.7876457e-08
9.7808836e-08
9.7713309e-08
9.7592465e-08
9.7449396e-08
9.7287426e-08
9.7110156e-08
9.692078e-08
9.6722726e-08
9.6519637e-08
9.6314805e-08
9.6110667e-08
9.590976e-08