/*--------------------------------*- C++ -*----------------------------------*\
| =========                 |                                                 |
| \\      /  F ield         | OpenFOAM: The Open Source CFD Toolbox           |
|  \\    /   O peration     | Version:  v2006                                 |
|   \\  /    A nd           | Website:  www.openfoam.com                      |
|    \\/     M anipulation  |                                                 |
\*---------------------------------------------------------------------------*/
FoamFile
{
    version     2.0;
    format      ascii;
    class       volScalarField;
    location    "500";
    object      Cp;
}
// * * * * * * * * * * * * * * * * * * * * * * * * * * * * * * * * * * * * * //

dimensions      [0 0 0 0 0 0 0];


internalField   nonuniform List<scalar> 
19765
(
-0.03201325
0.015630937
0.17860714
0.28969193
0.403063
0.48744763
0.59642819
0.65834321
0.74574409
0.82128368
0.87456366
0.91542439
0.95188972
0.97710401
0.99389655
1.0062025
1.012212
1.0112079
1.0038125
0.98905144
0.96705516
0.93972742
0.90787875
0.86850052
0.81993056
0.76775799
0.71966278
0.66404061
0.59501535
0.53026693
0.4612252
0.37815609
0.28400285
0.16135005
0.05889977
-0.018263138
-0.11525502
-0.25692881
-0.36025543
-0.47579305
-0.65833553
-0.81852667
-0.85827391
-1.0045618
-1.0148282
-1.0728288
-1.0510881
-1.0076506
-0.94757641
0.23055204
0.25669441
0.29137749
0.33516307
0.38302423
0.43076458
0.48134304
0.52530854
0.57140277
0.61895346
0.66171041
0.69911873
0.73358623
0.76034546
0.78004227
0.79694924
0.81031981
0.81768106
0.81886502
0.81232365
0.79888133
0.78047641
0.75578262
0.72462325
0.68837312
0.64802022
0.60187252
0.54990432
0.49310694
0.4316042
0.36529411
0.29472488
0.22068125
0.1449588
0.069738301
-0.0064908668
-0.085412437
-0.16458643
-0.23833031
-0.30856154
-0.37237027
-0.42593536
-0.4761836
-0.52243426
-0.55736381
-0.58739371
-0.61200325
-0.63512182
-0.6591014
0.22580434
0.26151934
0.3033948
0.34622693
0.3895016
0.43125955
0.47257706
0.50955833
0.54606331
0.58064275
0.61265158
0.6420092
0.66923276
0.69199841
0.70981136
0.72425449
0.73508212
0.74104978
0.74189912
0.73707219
0.72646796
0.71086561
0.68955634
0.66207626
0.62946013
0.59236742
0.54999872
0.50224195
0.44997693
0.39335199
0.33276855
0.26918081
0.20380147
0.13740275
0.069581228
0.00068192846
-0.067872108
-0.13577932
-0.20227164
-0.26580936
-0.3262436
-0.38550157
-0.44151757
-0.4950704
-0.54341184
-0.58498673
-0.62143661
-0.65384632
-0.68309464
0.28182721
0.30623157
0.33052167
0.35721952
0.3850725
0.41363044
0.44246392
0.47000093
0.49767653
0.52502159
0.55064582
0.57441352
0.59674751
0.61585261
0.63100348
0.64369745
0.6538235
0.65979485
0.66111285
0.65739871
0.64851152
0.63544767
0.61776001
0.59448532
0.56660548
0.53504537
0.49901885
0.45812287
0.41340033
0.36516652
0.31375079
0.26007376
0.20495904
0.14937639
0.09291362
0.035940467
-0.020115821
-0.074532366
-0.12760872
-0.17759242
-0.22394659
-0.26908951
-0.31337634
-0.35415446
-0.39430933
-0.43157163
-0.46927075
-0.5068053
-0.54385893
0.2722427
0.2948307
0.31757113
0.34053339
0.363389
0.38598551
0.40849073
0.42972475
0.45098054
0.47203241
0.49186786
0.51032755
0.5277738
0.54288641
0.55490094
0.56489061
0.5728782
0.57753165
0.57828828
0.57476752
0.56678236
0.55487207
0.538573
0.51714606
0.49136267
0.46219236
0.42905096
0.39150158
0.3505431
0.30663165
0.26000026
0.2114205
0.1615619
0.11132323
0.06072035
0.0099724155
-0.040127019
-0.089013985
-0.13675656
-0.18248931
-0.22619984
-0.26921627
-0.31173988
-0.35259563
-0.39341106
-0.43308243
-0.47278703
-0.51169753
-0.54983026
0.27848074
0.29479052
0.31133718
0.32817079
0.34519523
0.36219597
0.37942857
0.39582394
0.41246054
0.42908259
0.44481875
0.45951373
0.47344384
0.48555352
0.49517844
0.50310057
0.50927912
0.51259571
0.51254701
0.5087757
0.50112187
0.49001455
0.47514979
0.45590658
0.43276171
0.40653483
0.37679053
0.34322263
0.30670014
0.26763948
0.22629221
0.18335032
0.13940195
0.095228637
0.05089798
0.0066168388
-0.036974161
-0.079404465
-0.12068527
-0.16020868
-0.19795406
-0.23493504
-0.2712486
-0.30643528
-0.34150231
-0.376046
-0.41096805
-0.44620919
-0.48167518
0.26694601
0.28119232
0.29557936
0.30976951
0.32381104
0.33759157
0.35147459
0.36458807
0.37788404
0.39116146
0.40371968
0.41542561
0.42650295
0.43610564
0.44366507
0.44976847
0.454353
0.45647216
0.45567358
0.45162092
0.44415342
0.43355116
0.41952247
0.40157406
0.38004301
0.35563754
0.32803493
0.29700256
0.26330133
0.2273174
0.18929086
0.14982697
0.10941827
0.06876034
0.027988078
-0.012717799
-0.052895697
-0.092150599
-0.13047432
-0.16747172
-0.20319568
-0.23829924
-0.27297342
-0.30697999
-0.34101381
-0.37489642
-0.40922992
-0.44396255
-0.4790801
0.26038949
0.27148529
0.28283898
0.29405173
0.3052118
0.31617389
0.32728979
0.33778261
0.34847393
0.35916184
0.36925338
0.37862525
0.38745508
0.39504032
0.40089428
0.40546295
0.40865995
0.40968192
0.4081342
0.40371269
0.39625732
0.38597762
0.37262559
0.35582555
0.33580911
0.31313817
0.28758388
0.2589879
0.2280167
0.1950155
0.1602262
0.12419422
0.087357336
0.050334594
0.013266703
-0.023675673
-0.060098244
-0.095656047
-0.13033377
-0.16380924
-0.19610036
-0.22774752
-0.25889699
-0.28942505
-0.31988054
-0.35019207
-0.38089504
-0.41202078
-0.44356121
0.24851653
0.25795894
0.26763293
0.27706459
0.28636697
0.29542329
0.30458076
0.31316983
0.32190943
0.33061904
0.33879737
0.34633551
0.35337945
0.35934015
0.36379969
0.36710454
0.36915624
0.36926402
0.36708089
0.36233011
0.35485196
0.34480682
0.33195354
0.31599463
0.2971098
0.27574767
0.25174631
0.22499491
0.19607676
0.16529993
0.13289597
0.099350514
0.065042492
0.030522575
-0.0040618363
-0.038550618
-0.072618143
-0.1059573
-0.13855021
-0.17014425
-0.20076255
-0.23079309
-0.26041442
-0.28952599
-0.31858543
-0.34756473
-0.37690056
-0.40664907
-0.4368782
0.23860745
0.24625226
0.25416794
0.26187916
0.26950154
0.27691012
0.28441908
0.29143428
0.29857772
0.30567624
0.31229788
0.31834083
0.32392226
0.32853879
0.33182813
0.33406107
0.33513174
0.33444302
0.33169012
0.32662246
0.31908673
0.30920774
0.29676292
0.2815172
0.26361123
0.24340324
0.22078053
0.19567282
0.16859558
0.13982566
0.1095901
0.078330106
0.046386827
0.014258423
-0.017910736
-0.049962984
-0.081603572
-0.11255171
-0.14278959
-0.1720902
-0.20045136
-0.2282022
-0.25550277
-0.28225477
-0.30887297
-0.33533134
-0.36203259
-0.38903741
-0.41639517
0.22724315
0.23369852
0.24041182
0.24691113
0.25330885
0.25949144
0.2657451
0.27154773
0.27744042
0.28326311
0.2886412
0.29348091
0.29787721
0.30139583
0.30372067
0.30506544
0.305321
0.30396681
0.30073349
0.29539383
0.28780244
0.2780557
0.26594848
0.25129062
0.23419324
0.21494623
0.1934732
0.16973231
0.14417977
0.11706397
0.088602921
0.05919554
0.029145732
-0.0010974931
-0.031396492
-0.061598656
-0.091440462
-0.1206652
-0.14925784
-0.17701676
-0.20393244
-0.23026287
-0.25617469
-0.28154988
-0.30677312
-0.33181022
-0.3570189
-0.38245867
-0.4082197
0.21693219
0.22225725
0.22784397
0.23324365
0.23856198
0.24368642
0.24887024
0.25364943
0.25849238
0.26324783
0.26758759
0.27142275
0.2748284
0.27742534
0.2789352
0.27952656
0.27908936
0.27716713
0.27352071
0.26794384
0.26030019
0.25066397
0.23884913
0.22470188
0.20830999
0.18990966
0.16945276
0.1469206
0.12272018
0.097076863
0.07020226
0.042461761
0.014132797
-0.014373891
-0.042926282
-0.071371898
-0.099463377
-0.12696082
-0.15384995
-0.17993928
-0.20520318
-0.22986368
-0.2540759
-0.27770381
-0.30111667
-0.32426182
-0.34747497
-0.37080348
-0.39432484
0.20645657
0.21093851
0.21566765
0.22021997
0.22469212
0.22897885
0.23330463
0.23725796
0.24124542
0.24512589
0.24861016
0.25161437
0.25419743
0.25602575
0.25685261
0.25681104
0.25579184
0.25339231
0.24939905
0.24362449
0.2359415
0.22640679
0.21485228
0.20115301
0.18537821
0.16772151
0.1481567
0.12668259
0.10366352
0.07930463
0.053809826
0.027513791
0.00066949687
-0.026347849
-0.053414122
-0.080379667
-0.10701418
-0.13309524
-0.15861156
-0.18338312
-0.20737716
-0.23077847
-0.25373873
-0.27610079
-0.29821972
-0.32002504
-0.34182619
-0.36365909
-0.38561982
0.19671243
0.20043581
0.20439613
0.20819873
0.21193164
0.21549363
0.21908145
0.22232803
0.22558564
0.22872156
0.23147915
0.23377826
0.23566364
0.23683932
0.23708497
0.23650477
0.23499139
0.23218771
0.22790238
0.22196436
0.21425559
0.20481901
0.19350296
0.18020709
0.16498649
0.14799957
0.1292378
0.10871455
0.086757736
0.063555944
0.039306496
0.014318397
-0.011174304
-0.036825543
-0.06251696
-0.088099312
-0.11335293
-0.13806835
-0.16223454
-0.18567705
-0.20835364
-0.23042509
-0.25203289
-0.27300471
-0.29368497
-0.31398606
-0.33419983
-0.35434845
-0.37452129
0.18723539
0.19035427
0.19369351
0.1968868
0.20001309
0.20297709
0.20595119
0.20860783
0.21125268
0.21376149
0.21590549
0.21760823
0.21890269
0.21952483
0.21927678
0.21823937
0.21630794
0.21316437
0.20863627
0.20256738
0.19484851
0.18551178
0.17441988
0.16149248
0.14677494
0.13039676
0.11236297
0.092699262
0.071701552
0.049544218
0.026417828
0.0026083246
-0.021667123
-0.046089074
-0.070545607
-0.094889687
-0.11891301
-0.14241985
-0.16540085
-0.18768887
-0.20923723
-0.23018467
-0.25066541
-0.27049443
-0.29000418
-0.30909303
-0.32803379
-0.34683643
-0.36559874
0.17834426
0.18093056
0.18372204
0.18638064
0.18897727
0.19142134
0.19386321
0.1960094
0.19812501
0.2000933
0.20170927
0.20289958
0.20368708
0.20383473
0.20316378
0.20173587
0.19944942
0.19601981
0.19129107
0.18512012
0.17740631
0.16817257
0.15729524
0.14470955
0.13045565
0.11464031
0.097276212
0.07840074
0.058282088
0.037082724
0.014987023
-0.0077390257
-0.030892158
-0.05417577
-0.077482903
-0.10066786
-0.12353101
-0.14588772
-0.16772834
-0.18889069
-0.20932322
-0.22914781
-0.2484888
-0.26715387
-0.28546354
-0.30330562
-0.32093732
-0.3383576
-0.35566142
0.16984465
0.17198967
0.17432273
0.17653215
0.17868104
0.18068402
0.1826721
0.18438199
0.18604375
0.18754792
0.18871009
0.18946001
0.18981209
0.18955256
0.18851925
0.18675804
0.18417074
0.18050179
0.17560952
0.16936269
0.16166861
0.15254268
0.14187456
0.12961098
0.11578862
0.10049772
0.083755249
0.065608515
0.046301614
0.025986821
0.0048424565
-0.016883401
-0.038999695
-0.06123064
-0.083474069
-0.10558677
-0.12737812
-0.14867494
-0.16946801
-0.18960158
-0.20902225
-0.2278374
-0.24616292
-0.26380269
-0.28106403
-0.29782743
-0.31433428
-0.33057412
-0.34664605
0.16184136
0.16359997
0.16553041
0.16734579
0.16910243
0.17071954
0.172311
0.17363989
0.17490581
0.17600593
0.17677367
0.1771416
0.17711692
0.176506
0.17516099
0.17311474
0.17027264
0.16640437
0.16138084
0.15508143
0.1474208
0.1384084
0.12794612
0.11598989
0.10257406
0.087776186
0.071616228
0.054149501
0.03559923
0.016109029
-0.0041486104
-0.024941365
-0.0460888
-0.06733341
-0.088577095
-0.10967884
-0.13045606
-0.15074545
-0.17053716
-0.18968093
-0.20812174
-0.22595466
-0.24328634
-0.25992063
-0.27615108
-0.29185409
-0.30725687
-0.32234142
-0.33720609
0.15424063
0.15567118
0.15725713
0.15873433
0.16015283
0.16143642
0.16268396
0.16368189
0.16460345
0.16535207
0.1657768
0.165813
0.16546187
0.16454739
0.1629343
0.16064468
0.15758758
0.15355486
0.14842845
0.14209738
0.13448305
0.12559026
0.11533191
0.10367177
0.090642498
0.076311586
0.060701448
0.043873735
0.02603344
0.0073167485
-0.012109494
-0.032027228
-0.052265332
-0.072583113
-0.092886051
-0.11303618
-0.13285891
-0.15220094
-0.17105205
-0.18926859
-0.20679559
-0.22371788
-0.24013379
-0.25585015
-0.27114594
-0.28589623
-0.3003142
-0.31437583
-0.32818172
0.14706652
0.14820973
0.14949281
0.15067253
0.15179343
0.15278352
0.15372849
0.15443532
0.15505434
0.15549475
0.1556193
0.15536598
0.15473097
0.15355367
0.15170991
0.14921285
0.14597524
0.14180841
0.13660412
0.13026009
0.12270393
0.11393689
0.10388163
0.092508838
0.079849978
0.06596436
0.050876592
0.034653239
0.017483406
-0.00050318064
-0.019145129
-0.038237146
-0.057616482
-0.077057484
-0.09646886
-0.11571564
-0.13463098
-0.15307048
-0.1710232
-0.18835166
-0.20500137
-0.221048
-0.23658158
-0.25141425
-0.26581007
-0.27964509
-0.29311951
-0.30620485
-0.31900179
0.14026464
0.14116006
0.14218031
0.14310118
0.14396223
0.14469554
0.14537526
0.14582663
0.14618005
0.1463502
0.14621192
0.14570578
0.14482381
0.14341907
0.14137727
0.13870415
0.1353162
0.13104195
0.12578192
0.11944174
0.11195472
0.1033194
0.09346719
0.082374873
0.070073114
0.056614515
0.042025659
0.026376924
0.0098434043
-0.0074507565
-0.025349498
-0.043659125
-0.062224408
-0.080833533
-0.099398093
-0.11778661
-0.13583988
-0.15342232
-0.17052237
-0.18700939
-0.20283036
-0.21805331
-0.23276074
-0.24677215
-0.26033647
-0.27333263
-0.28594827
-0.29815164
-0.31004472
0.13382865
0.13450658
0.13529524
0.1359877
0.1366192
0.13712556
0.13757085
0.13779651
0.13791559
0.13784781
0.13747876
0.13675147
0.13565454
0.13405318
0.13184186
0.12902025
0.12550847
0.12115037
0.11585429
0.10953308
0.10212526
0.093627417
0.083978729
0.073161398
0.061205602
0.048158416
0.034048224
0.018948252
0.0030212951
-0.013613478
-0.030805138
-0.048370566
-0.06616136
-0.083978374
-0.10173576
-0.11930575
-0.13653649
-0.15330065
-0.16958584
-0.18526815
-0.20029628
-0.21473141
-0.22864877
-0.24187655
-0.25464852
-0.26684796
-0.27865069
-0.29002289
-0.30106669
0.12772085
0.12820946
0.12879546
0.12928756
0.12971714
0.13002359
0.13026216
0.1302887
0.1302012
0.12992411
0.12935257
0.12843205
0.12714835
0.12537752
0.12302193
0.12007624
0.11646415
0.11204315
0.10672863
0.10044003
0.093120681
0.084765731
0.075321364
0.064774566
0.053155256
0.040505962
0.026856676
0.012282724
-0.0030640279
-0.019068798
-0.035585689
-0.052441235
-0.069493341
-0.0865545
-0.10354129
-0.12032981
-0.1367756
-0.15275914
-0.16826748
-0.18318365
-0.1974587
-0.21114793
-0.22432014
-0.23681321
-0.24884609
-0.26030747
-0.27136196
-0.28197446
-0.2922477
0.12192408
0.12224634
0.12265358
0.12296865
0.12321959
0.12334908
0.12340471
0.12325515
0.12298526
0.1225239
0.12177476
0.12068565
0.11924009
0.11732388
0.11484649
0.11179846
0.10810703
0.10364186
0.098324728
0.092081082
0.084858708
0.07665175
0.067412681
0.057132725
0.045841711
0.03357842
0.020374282
0.0063060572
-0.0084840745
-0.023885318
-0.039756642
-0.055933469
-0.072279528
-0.088618068
-0.10486789
-0.12090913
-0.13660444
-0.15184176
-0.16660747
-0.18079147
-0.19434727
-0.20732494
-0.21978718
-0.23158215
-0.24291427
-0.25367843
-0.26402864
-0.27392936
-0.2834832
0.11640869
0.11658563
0.11683597
0.11699533
0.1170888
0.11706216
0.11695633
0.11665143
0.11622089
0.11559772
0.11469326
0.1134576
0.11187247
0.10983245
0.10725343
0.10412262
0.10037066
0.095878179
0.090572708
0.084385237
0.077267641
0.069213417
0.0601807
0.050164462
0.039194544
0.027306653
0.014533475
0.00095267039
-0.013302248
-0.0281241
-0.043376606
-0.058903383
-0.074573605
-0.090220464
-0.10576489
-0.12109114
-0.1360689
-0.15059311
-0.16464974
-0.1781355
-0.19100674
-0.20330897
-0.21509949
-0.22623714
-0.23691235
-0.24702676
-0.25672437
-0.26596974
-0.27486548
0.11115454
0.11120412
0.11131639
0.1113385
0.11129299
0.11112853
0.11088022
0.11043846
0.10986669
0.1091018
0.10806203
0.10669966
0.10499503
0.10285064
0.10018821
0.096992287
0.093196798
0.088692232
0.083411377
0.0772903
0.070284651
0.062387556
0.053562254
0.043807016
0.033151766
0.021629683
0.0092745411
-0.0038355698
-0.0175749
-0.031839621
-0.046498064
-0.06140144
-0.076424026
-0.091408252
-0.10627704
-0.12091885
-0.13521014
-0.14905253
-0.16243151
-0.17525055
-0.18746879
-0.19912768
-0.21027953
-0.22079393
-0.2308478
-0.24034985
-0.24943463
-0.25806735
-0.26635006
0.10613688
0.10607553
0.10606698
0.10596875
0.10580119
0.10551567
0.10514224
0.1045805
0.1038852
0.10299687
0.10183997
0.10036893
0.098563003
0.096331903
0.093602675
0.090357702
0.086534126
0.082031328
0.076786886
0.070741545
0.063854435
0.056118524
0.047501656
0.038004998
0.027658584
0.016493522
0.0045444995
-0.0081103546
-0.021352295
-0.035080617
-0.049168142
-0.063473139
-0.077874695
-0.092223817
-0.10644535
-0.12043198
-0.13406673
-0.1472575
-0.15998949
-0.17217274
-0.18376932
-0.19481717
-0.20536414
-0.21529055
-0.22476051
-0.23368992
-0.24220449
-0.25027041
-0.25798914
0.10133593
0.10117819
0.10106413
0.10086068
0.10058627
0.10019483
0.099711984
0.099045646
0.098242955
0.097247847
0.095990444
0.094427214
0.092536641
0.09023498
0.087454147
0.084174834
0.080337268
0.075848892
0.070651653
0.064690612
0.057928105
0.050357109
0.041949618
0.032709332
0.022666388
0.011850202
0.00029620269
-0.011917785
-0.024679359
-0.037890769
-0.051429206
-0.065159509
-0.078965323
-0.092705638
-0.10630713
-0.1196667
-0.13267365
-0.14524184
-0.15735619
-0.1689331
-0.17993751
-0.19040421
-0.200377
-0.20974665
-0.21866506
-0.22705535
-0.2350349
-0.24257123
-0.24976479
0.096730744
0.096490008
0.096284564
0.095989868
0.095622676
0.095139321
0.094561597
0.093804903
0.092909722
0.091823211
0.090480622
0.088840405
0.086880497
0.084523134
0.081704693
0.078404566
0.074565952
0.0701036
0.064963472
0.059094603
0.052462286
0.045059627
0.036862362
0.027876388
0.018131914
0.0076569785
-0.0035124236
-0.015299069
-0.027596334
-0.040309292
-0.053319377
-0.066497581
-0.07973187
-0.09288865
-0.10589639
-0.11865612
-0.13106319
-0.14303702
-0.15456236
-0.16556173
-0.17600297
-0.18591805
-0.19534721
-0.20419137
-0.21259098
-0.22047625
-0.22795683
-0.2350017
-0.24171026
0.092303545
0.091991956
0.091707957
0.091334759
0.090887685
0.090325321
0.089666121
0.088832269
0.087858406
0.086694716
0.085281132
0.083578006
0.081562924
0.079163598
0.076320503
0.073012057
0.069184313
0.064758675
0.059684779
0.053915336
0.047418361
0.04018717
0.032200879
0.023467258
0.014016549
0.0038756656
-0.0069190065
-0.018291109
-0.030139314
-0.042371412
-0.054872983
-0.067520765
-0.080206843
-0.092804534
-0.10524401
-0.11743036
-0.12926469
-0.14067158
-0.15163569
-0.16208535
-0.17199117
-0.18138261
-0.19029667
-0.19864397
-0.20655419
-0.21396442
-0.22097706
-0.22756277
-0.2338196
0.088036942
0.087665772
0.087315123
0.086875302
0.086360381
0.085731074
0.085002919
0.084104266
0.083064614
0.081837007
0.080365652
0.078612724
0.076555626
0.074127092
0.071271375
0.067966191
0.064160342
0.059781283
0.054782045
0.049118725
0.042761844
0.035704985
0.027930306
0.019447158
0.010285742
0.00047207521
-0.0099572569
-0.020927
-0.032340693
-0.044108799
-0.056120908
-0.06825918
-0.080419615
-0.092481958
-0.10437803
-0.11601685
-0.12730496
-0.13817177
-0.14860185
-0.15852909
-0.16792676
-0.17682208
-0.18524921
-0.19312803
-0.20057813
-0.20754332
-0.21411922
-0.22027832
-0.22611713
0.083916014
0.083495612
0.083089266
0.082593807
0.082022214
0.081337218
0.080551793
0.079599914
0.078506536
0.077227403
0.075710632
0.073920143
0.07183329
0.069387427
0.066530293
0.063239139
0.059465393
0.055142052
0.050225262
0.044674257
0.038461858
0.031581942
0.024019413
0.015784899
0.0069085074
-0.0025844539
-0.012657414
-0.023236432
-0.034229563
-0.045549891
-0.057090932
-0.068739938
-0.080396653
-0.091946808
-0.10332379
-0.1144404
-0.1252083
-0.13556135
-0.14548405
-0.1549155
-0.16383145
-0.17225714
-0.18022408
-0.18766093
-0.19467784
-0.20122499
-0.2073917
-0.21315241
-0.21860183
0.079926966
0.079466962
0.07901511
0.078474289
0.0778565
0.077126388
0.076294667
0.075300458
0.074164683
0.072845639
0.071295027
0.069478434
0.067373274
0.064921163
0.062073065
0.058805957
0.055073795
0.050814637
0.045987515
0.040554556
0.03449069
0.027790106
0.020440164
0.012452465
0.0038569974
-0.0053214461
-0.015046616
-0.025246063
-0.035832023
-0.04672022
-0.057807976
-0.068987378
-0.080161743
-0.09122236
-0.10210413
-0.11272344
-0.12299675
-0.13286197
-0.14230356
-0.15126546
-0.15972581
-0.16770798
-0.17524122
-0.18226241
-0.18887298
-0.19502921
-0.20081455
-0.20620544
-0.21129471
0.076058164
0.075567435
0.0750795
0.074502866
0.073848655
0.073083331
0.072215598
0.071189297
0.070021757
0.068673687
0.067100077
0.065268102
0.063155331
0.060707314
0.057878002
0.054644272
0.050962495
0.046775377
0.04204461
0.036735005
0.030823418
0.024304354
0.017167377
0.0094247263
0.0011062169
-0.0077636448
-0.017149227
-0.026979798
-0.037171474
-0.047642633
-0.058294348
-0.069023269
-0.079736148
-0.090329456
-0.1007395
-0.11088608
-0.12069007
-0.1300931
-0.1390795
-0.14759772
-0.15562802
-0.1631921
-0.17031708
-0.17694751
-0.18317665
-0.18896656
-0.19439517
-0.19944105
-0.20419487
0.072299384
0.071786172
0.071270911
0.070667387
0.069985905
0.069194662
0.068300565
0.067251789
0.066062457
0.064695556
0.063109095
0.061271764
0.059161365
0.056727085
0.053925653
0.050733984
0.047110768
0.04300297
0.038374761
0.033193422
0.027437573
0.021102042
0.01417831
0.006679053
-0.0013663201
-0.0099333555
-0.018987126
-0.028459064
-0.038268836
-0.048337539
-0.05856991
-0.068866973
-0.079138777
-0.089286598
-0.099248099
-0.10894624
-0.11830598
-0.12727224
-0.13582921
-0.14392944
-0.15155514
-0.15872645
-0.16546862
-0.17173336
-0.17760645
-0.18305539
-0.18815307
-0.19288014
-0.19732508
0.068642406
0.068114281
0.067579764
0.066957613
0.066257366
0.065448863
0.064537403
0.063475143
0.062273334
0.060897115
0.059307272
0.057473937
0.055375208
0.052963641
0.050198553
0.047057019
0.043499942
0.039478218
0.034958306
0.02990978
0.024312869
0.018162704
0.011452426
0.0041950665
-0.0035807111
-0.011850489
-0.020579933
-0.02970301
-0.039142771
-0.048823057
-0.058652262
-0.068535585
-0.078386267
-0.088110078
-0.097645921
-0.10691971
-0.11586008
-0.12441489
-0.13256805
-0.1402758
-0.14752205
-0.15432541
-0.16070934
-0.16663211
-0.17217245
-0.17730293
-0.18209169
-0.18652153
-0.19067853
0.065080381
0.06454432
0.063998007
0.063364887
0.062653771
0.061836059
0.060915605
0.059848223
0.058642603
0.057265907
0.055681481
0.05386083
0.051782404
0.049401885
0.046681001
0.043597089
0.040113176
0.036183771
0.03177747
0.02686596
0.021430942
0.015467824
0.0089711635
0.0019542467
-0.0055552315
-0.013532974
-0.02194523
-0.03072874
-0.039809843
-0.049115209
-0.058556851
-0.068044038
-0.077493108
-0.08681401
-0.095946837
-0.10482019
-0.11336599
-0.12153463
-0.12930965
-0.13665055
-0.14354269
-0.15000326
-0.15605413
-0.16165966
-0.16689223
-0.17172921
-0.17623441
-0.18039275
-0.18428792
0.06160835
0.061070662
0.060519329
0.059882227
0.059167474
0.058347947
0.0574262
0.056361409
0.055159975
0.053790965
0.052220088
0.050420155
0.048370016
0.046028253
0.04335885
0.040339493
0.036935234
0.033103926
0.028816146
0.024045536
0.018775143
0.013000608
0.006717713
-6.0150853e-05
-0.0073063858
-0.014996945
-0.02309875
-0.031551459
-0.040284697
-0.049228018
-0.05829711
-0.067405196
-0.076471663
-0.085410401
-0.094162585
-0.10265927
-0.11083527
-0.11864308
-0.12606571
-0.13306541
-0.13962866
-0.14577115
-0.15151308
-0.15682415
-0.16177073
-0.16633442
-0.17057497
-0.17447943
-0.17812891
0.058222351
0.057688778
0.057138606
0.056503897
0.055792111
0.054977523
0.054061523
0.05300638
0.051816458
0.050462621
0.048912758
0.047140933
0.045126429
0.042830528
0.040219321
0.037270917
0.033952306
0.030224422
0.026059697
0.021433577
0.016330337
0.010745809
0.0046768209
-0.0018632735
-0.0088490684
-0.016256918
-0.024054547
-0.032184657
-0.040580172
-0.049173662
-0.05788452
-0.06662991
-0.075332248
-0.08390913
-0.092302784
-0.10044644
-0.10827743
-0.11574994
-0.12284621
-0.12953083
-0.13579112
-0.14164131
-0.14710017
-0.15214245
-0.15682922
-0.16114623
-0.16514966
-0.16882853
-0.17226166
0.054920342
0.054395867
0.053852279
0.053225588
0.052522638
0.051719024
0.050815095
0.049775965
0.048604192
0.047272326
0.045750282
0.044013315
0.042041178
0.03979766
0.037250827
0.034379267
0.03115182
0.027532275
0.023494787
0.019016474
0.014082735
0.0086895368
0.0028346213
-0.0034688497
-0.01019673
-0.017325938
-0.024825149
-0.032640221
-0.040707456
-0.048962544
-0.05732872
-0.065727082
-0.074083107
-0.082317958
-0.090374854
-0.098188994
-0.10569981
-0.11286272
-0.11965897
-0.12605487
-0.13203808
-0.13762103
-0.14282077
-0.14761605
-0.15206262
-0.15614965
-0.15992968
-0.16339392
-0.16661844
0.051700417
0.051189502
0.050657349
0.050043703
0.049354828
0.048567569
0.047681359
0.046663934
0.045516262
0.044212489
0.042724413
0.04102843
0.03910479
0.036919615
0.034442818
0.031653514
0.028522304
0.025015618
0.021109225
0.016781785
0.012019733
0.0068191118
0.001178471
-0.0048893607
-0.011361548
-0.018215733
-0.025421709
-0.032928601
-0.040676172
-0.048603419
-0.056637541
-0.064703674
-0.072730437
-0.080642449
-0.088383956
-0.095891897
-0.10310746
-0.10998685
-0.11651005
-0.12264457
-0.12837814
-0.13372147
-0.13869023
-0.14326719
-0.14750386
-0.15139299
-0.15498432
-0.1582708
-0.16132642
0.048563082
0.048069242
0.047552459
0.046956002
0.046285598
0.045519281
0.044655665
0.043664914
0.042546588
0.041276341
0.03982773
0.038178245
0.036308649
0.034187238
0.03178565
0.029083559
0.026053238
0.022663567
0.018891821
0.014718093
0.010129771
0.0051229049
-0.00030319919
-0.0061361951
-0.012354581
-0.018936879
-0.025854165
-0.033058933
-0.040494545
-0.048103468
-0.055817104
-0.063564754
-0.071278326
-0.078885909
-0.086332816
-0.093557622
-0.10050289
-0.10712518
-0.11340277
-0.11930365
-0.12481477
-0.12994444
-0.13470598
-0.13908464
-0.14312679
-0.14682757
-0.15023326
-0.15333922
-0.15621623
0.045507281
0.045033711
0.044535811
0.043960213
0.043312133
0.042570742
0.041733949
0.040774178
0.03968977
0.038457816
0.037053529
0.035455451
0.033644882
0.031592138
0.02927047
0.02666012
0.023734949
0.020466102
0.016832272
0.012814879
0.0084022031
0.0035902284
-0.0016210039
-0.0072197613
-0.013185872
-0.019498895
-0.02613135
-0.033039186
-0.040169494
-0.047468453
-0.054871895
-0.062313532
-0.069728772
-0.077049261
-0.084221598
-0.091185905
-0.097885881
-0.104278
-0.11033854
-0.11603536
-0.12135442
-0.12630186
-0.13088943
-0.13510557
-0.13899341
-0.14255143
-0.14582386
-0.14880755
-0.15157144
0.042536091
0.042084699
0.041608007
0.04105583
0.040432918
0.03971953
0.038912951
0.037987704
0.036941058
0.035751476
0.03439573
0.032853378
0.031106268
0.029126602
0.026889123
0.024374643
0.021558509
0.01841397
0.01492105
0.011062421
0.0068272032
0.0022112173
-0.0027847085
-0.0081496006
-0.013864568
-0.019910345
-0.026261068
-0.032876184
-0.039706696
-0.046702694
-0.053804793
-0.060951359
-0.068081602
-0.075130991
-0.082047685
-0.088773488
-0.095252994
-0.10144217
-0.10731475
-0.11283741
-0.11799378
-0.12278629
-0.12722291
-0.13129237
-0.13503191
-0.13844089
-0.14155967
-0.14438813
-0.14699087
0.039647578
0.039220498
0.038767358
0.038241051
0.037645867
0.036963132
0.036189616
0.035301832
0.034296156
0.033152386
0.031848783
0.030365902
0.028686154
0.026783497
0.024634059
0.022219197
0.019515647
0.01649859
0.013149315
0.0094516832
0.0053956197
0.00097666942
-0.0038034593
-0.0089346813
-0.014399263
-0.020179208
-0.026250442
-0.032575934
-0.039110764
-0.045809222
-0.052617035
-0.059477594
-0.066334285
-0.073126802
-0.079805401
-0.086313763
-0.092597361
-0.098611364
-0.10432667
-0.10970836
-0.1147377
-0.11941414
-0.12374378
-0.12771791
-0.13137177
-0.13470817
-0.13776651
-0.14054736
-0.14311424
0.036848308
0.036445673
0.03601667
0.035517094
0.034950844
0.034300267
0.033561691
0.032713475
0.031751239
0.030656046
0.029407573
0.027987339
0.026378337
0.024556162
0.022498227
0.020186399
0.017598671
0.014711987
0.011508814
0.007974179
0.0040988092
-0.00012216467
-0.004685976
-0.0095835807
-0.014798199
-0.020313179
-0.026106376
-0.032144197
-0.038385995
-0.044790482
-0.051308914
-0.057890077
-0.06448206
-0.071029522
-0.077485491
-0.083796025
-0.089907494
-0.095774003
-0.10136298
-0.10663645
-0.11157112
-0.11616024
-0.12040327
-0.12428791
-0.12784091
-0.13106311
-0.13398851
-0.13662176
-0.13902046
0.03413249
0.033755827
0.033352522
0.032881198
0.032345369
0.031728417
0.031026371
0.030219384
0.029302517
0.028258103
0.027067197
0.025712289
0.024176975
0.022438381
0.020475092
0.018269425
0.015800475
0.013046754
0.0099918393
0.0066219624
0.002928716
-0.0010933232
-0.0054400775
-0.010103747
-0.015068308
-0.020318595
-0.025834535
-0.031585696
-0.037535824
-0.043648275
-0.049880107
-0.056185882
-0.062518992
-0.068830048
-0.075075876
-0.081205639
-0.08716713
-0.092913636
-0.09840931
-0.10361315
-0.10849798
-0.11305298
-0.11727538
-0.12115526
-0.12471937
-0.12797274
-0.1309503
-0.13365494
-0.13614568
0.031512841
0.031159983
0.030780829
0.030336555
0.029830463
0.0292469
0.028581678
0.027816601
0.026946298
0.025954306
0.024822979
0.02353572
0.022076698
0.020424435
0.018558586
0.016461878
0.014114384
0.011495996
0.0085913178
0.0053878668
0.00187818
-0.0019438916
-0.00607255
-0.010501561
-0.015215314
-0.020200187
-0.025438441
-0.030902436
-0.036560519
-0.04238086
-0.048326637
-0.054358482
-0.060435736
-0.066516136
-0.072561221
-0.078524235
-0.084355087
-0.090006793
-0.095440082
-0.1006093
-0.1054796
-0.1100295
-0.11424367
-0.11810094
-0.12161302
-0.12477685
-0.12761825
-0.13014628
-0.13241178
0.028974108
0.028646618
0.028292956
0.027876741
0.027401104
0.026851458
0.026223647
0.02550119
0.024678518
0.023740363
0.022670311
0.021452614
0.020072005
0.018508354
0.016742394
0.014757268
0.01253388
0.010053207
0.0073006405
0.0042649664
0.00093969713
-0.0026821453
-0.006592453
-0.010786968
-0.015249619
-0.019967829
-0.024926505
-0.030100475
-0.035463026
-0.04098734
-0.046642922
-0.052397117
-0.058216431
-0.06406719
-0.069916658
-0.07572337
-0.081440641
-0.087022507
-0.09242757
-0.097607089
-0.1025217
-0.10714549
-0.11146147
-0.11545188
-0.11913219
-0.12250548
-0.12560197
-0.12842304
-0.13102732
0.026541681
0.026233605
0.025900519
0.025508114
0.025059741
0.024541774
0.02395008
0.023269626
0.022494645
0.021610966
0.02060332
0.019456769
0.018156637
0.016684082
0.015020767
0.013150057
0.011053376
0.0087123881
0.0061129226
0.0032451034
0.00010373238
-0.003318857
-0.0070115307
-0.010972699
-0.015184993
-0.019636749
-0.024315441
-0.029197238
-0.034260602
-0.039483203
-0.0448404
-0.050306805
-0.055857507
-0.061469557
-0.067117184
-0.072766824
-0.078377771
-0.083907435
-0.089312809
-0.094539473
-0.09953603
-0.10425804
-0.10866446
-0.1127113
-0.11638357
-0.11966281
-0.12255899
-0.12508417
-0.12727902
0.024178628
0.023893125
0.023582908
0.023215903
0.022795385
0.022308936
0.021752917
0.021114238
0.020387519
0.019559869
0.018617054
0.017544673
0.016328255
0.014949776
0.013391545
0.011637107
0.0096685308
0.0074681828