/*--------------------------------*- C++ -*----------------------------------*\
| =========                 |                                                 |
| \\      /  F ield         | OpenFOAM: The Open Source CFD Toolbox           |
|  \\    /   O peration     | Version:  v2006                                 |
|   \\  /    A nd           | Website:  www.openfoam.com                      |
|    \\/     M anipulation  |                                                 |
\*---------------------------------------------------------------------------*/
FoamFile
{
    version     2.0;
    format      ascii;
    class       volScalarField;
    location    "500";
    object      k;
}
// * * * * * * * * * * * * * * * * * * * * * * * * * * * * * * * * * * * * * //

dimensions      [0 2 -2 0 0 0 0];


internalField   nonuniform List<scalar> 
19765
(
0.00016729083
0.00016950541
0.00017122896
0.00017252537
0.00017447297
0.0001764022
0.00017881906
0.00018056952
0.00018312243
0.00018431026
0.00018492932
0.00018606181
0.00018747277
0.00018833779
0.00018975431
0.00019170511
0.00019309614
0.00019418388
0.00019602103
0.00019756117
0.00019895022
0.00020002411
0.00020131735
0.0002029906
0.0002046254
0.00020585021
0.00020738448
0.00020930687
0.00021094241
0.0002126583
0.00021464905
0.00021694151
0.00021986962
0.00022185271
0.00022296983
0.00022474331
0.00022744783
0.00022924417
0.00023169801
0.00023531914
0.00023799001
0.00023882127
0.00024088391
0.00024065248
0.00024097111
0.00024052947
0.00023971632
0.00023834311
0.00023639344
0.00018313178
0.00018290113
0.00018426721
0.00019018648
0.00019591905
0.000201843
0.00020641234
0.00021329247
0.00021833157
0.00022586393
0.00023417043
0.0002398916
0.00024287384
0.0002455188
0.00024698168
0.00024661571
0.00024703306
0.00024910696
0.00025103896
0.00025183692
0.0002518452
0.00025195428
0.00025217808
0.00025306286
0.00025595994
0.00026075773
0.00026537476
0.00027034049
0.00027727785
0.00028453439
0.00029128489
0.00029712016
0.00030173599
0.00030871807
0.00031696446
0.00032278738
0.00032605234
0.00033031716
0.00033152782
0.00032975892
0.00033039004
0.00033144153
0.00032633167
0.00032423633
0.00032000539
0.00031692417
0.0003116025
0.00030436949
0.00029627689
2.0326839e-05
1.9256553e-05
1.8529699e-05
1.9123914e-05
1.9333881e-05
1.9508037e-05
1.9300341e-05
1.9534621e-05
1.9205912e-05
1.9436575e-05
1.9765839e-05
1.9620535e-05
1.9122738e-05
1.8699503e-05
1.8064671e-05
1.7247175e-05
1.6768375e-05
1.6569891e-05
1.6339054e-05
1.6013731e-05
1.5680023e-05
1.5524515e-05
1.5383169e-05
1.5297924e-05
1.55696e-05
1.6286484e-05
1.7024029e-05
1.7813122e-05
1.9004489e-05
2.0358714e-05
2.1736308e-05
2.3065982e-05
2.4232882e-05
2.6032521e-05
2.8404455e-05
3.0532459e-05
3.2193673e-05
3.437809e-05
3.6134018e-05
3.695967e-05
3.8246326e-05
4.0770339e-05
4.1999573e-05
4.4332427e-05
4.579959e-05
4.9110178e-05
5.3980744e-05
6.0389675e-05
6.5457426e-05
4.8082956e-07
4.1492369e-07
3.7730862e-07
3.7272845e-07
3.648664e-07
3.5818201e-07
3.4672808e-07
3.4303197e-07
3.3168342e-07
3.2782711e-07
3.2574064e-07
3.1785586e-07
3.0583069e-07
2.9579817e-07
2.8440903e-07
2.7142475e-07
2.6332937e-07
2.5943173e-07
2.5529858e-07
2.5045247e-07
2.4653143e-07
2.4466566e-07
2.4373127e-07
2.4478389e-07
2.5096441e-07
2.6332378e-07
2.7656527e-07
2.914319e-07
3.1249273e-07
3.3708992e-07
3.6388063e-07
3.9203387e-07
4.2037767e-07
4.6050759e-07
5.1290418e-07
5.6628016e-07
6.1766993e-07
6.8295066e-07
7.4540527e-07
7.9649801e-07
8.6426416e-07
9.6757422e-07
1.0560362e-06
1.2016733e-06
1.3450085e-06
1.5566908e-06
1.8119193e-06
2.1239399e-06
2.4769031e-06
7.3260468e-08
7.2851564e-08
7.3088255e-08
7.4687678e-08
7.5909765e-08
7.7072365e-08
7.7781183e-08
7.8938378e-08
7.9413315e-08
8.0453612e-08
8.1628102e-08
8.227473e-08
8.2507199e-08
8.2835146e-08
8.2888908e-08
8.2651375e-08
8.2833134e-08
8.3418532e-08
8.3908388e-08
8.4379032e-08
8.5012991e-08
8.5631543e-08
8.6452372e-08
8.7722049e-08
8.9577594e-08
9.2148384e-08
9.4843218e-08
9.7712541e-08
1.0126592e-07
1.0514437e-07
1.0913959e-07
1.1313416e-07
1.1687631e-07
1.2144482e-07
1.2680143e-07
1.3183305e-07
1.3614471e-07
1.4099417e-07
1.4521533e-07
1.4818298e-07
1.5164899e-07
1.565661e-07
1.5996745e-07
1.6533895e-07
1.6977046e-07
1.7572475e-07
1.8197798e-07
1.8765342e-07
1.9137006e-07
5.1158381e-08
5.1116445e-08
5.1355836e-08
5.2129162e-08
5.269945e-08
5.3276152e-08
5.3694343e-08
5.4272728e-08
5.4586119e-08
5.5146863e-08
5.5683535e-08
5.5997884e-08
5.6184189e-08
5.6406376e-08
5.6517742e-08
5.6565851e-08
5.6808258e-08
5.7196247e-08
5.7547545e-08
5.7919383e-08
5.837775e-08
5.8849478e-08
5.9468511e-08
6.0337626e-08
6.1468109e-08
6.2926115e-08
6.4494457e-08
6.6170307e-08
6.8162482e-08
7.0351141e-08
7.2642737e-08
7.4995545e-08
7.7256154e-08
7.9810524e-08
8.2737422e-08
8.5665396e-08
8.8292218e-08
9.1088347e-08
9.3757485e-08
9.5914699e-08
9.8049374e-08
1.0090507e-07
1.0319531e-07
1.0628802e-07
1.0914798e-07
1.1264625e-07
1.1648576e-07
1.2071279e-07
1.2465192e-07
3.9645555e-08
3.9581887e-08
3.964486e-08
3.9967777e-08
4.0199401e-08
4.0437708e-08
4.0608689e-08
4.0862838e-08
4.1001248e-08
4.1261063e-08
4.1519953e-08
4.1682132e-08
4.1790937e-08
4.1923805e-08
4.2014035e-08
4.2082858e-08
4.225407e-08
4.2509759e-08
4.2763272e-08
4.3039772e-08
4.336884e-08
4.3711026e-08
4.4122894e-08
4.4666257e-08
4.5360171e-08
4.6227028e-08
4.7159666e-08
4.8165391e-08
4.9343082e-08
5.0630229e-08
5.1984032e-08
5.3381888e-08
5.4754069e-08
5.6285742e-08
5.8008772e-08
5.9740755e-08
6.1345359e-08
6.3043299e-08
6.4690084e-08
6.6103961e-08
6.7525873e-08
6.9282501e-08
7.0779027e-08
7.2639887e-08
7.4381006e-08
7.6391773e-08
7.851549e-08
8.0757213e-08
8.281586e-08
3.373814e-08
3.3699372e-08
3.3731848e-08
3.3907599e-08
3.4035502e-08
3.4168076e-08
3.4265466e-08
3.4407119e-08
3.4489321e-08
3.4635786e-08
3.4783636e-08
3.4884827e-08
3.4962233e-08
3.5055876e-08
3.5132602e-08
3.520404e-08
3.5333574e-08
3.5512663e-08
3.5698062e-08
3.5903528e-08
3.6146078e-08
3.6408621e-08
3.6718782e-08
3.7106968e-08
3.7588532e-08
3.8174737e-08
3.8808154e-08
3.9494044e-08
4.0285238e-08
4.1148532e-08
4.2061426e-08
4.3011643e-08
4.3961358e-08
4.500925e-08
4.6174076e-08
4.7358568e-08
4.8486793e-08
4.9675875e-08
5.0849882e-08
5.1907738e-08
5.2975275e-08
5.4239748e-08
5.5375325e-08
5.673003e-08
5.8042357e-08
5.9535244e-08
6.1132117e-08
6.2852699e-08
6.4509069e-08
3.0135085e-08
3.0104761e-08
3.0114842e-08
3.0209475e-08
3.0278081e-08
3.0350882e-08
3.0405444e-08
3.0487056e-08
3.0537246e-08
3.0625569e-08
3.0717285e-08
3.0785994e-08
3.0844662e-08
3.0915768e-08
3.0981374e-08
3.1048119e-08
3.115136e-08
3.1286857e-08
3.1430898e-08
3.1591154e-08
3.1777203e-08
3.1979429e-08
3.2210571e-08
3.2488988e-08
3.2829844e-08
3.3238673e-08
3.3680927e-08
3.4160511e-08
3.4707792e-08
3.5303707e-08
3.5936003e-08
3.6597553e-08
3.7266984e-08
3.8000495e-08
3.8808355e-08
3.9634125e-08
4.0434509e-08
4.1275653e-08
4.2113302e-08
4.2888213e-08
4.367303e-08
4.4572012e-08
4.5398696e-08
4.6350038e-08
4.7275171e-08
4.8299337e-08
4.9375611e-08
5.0511145e-08
5.1593674e-08
2.786888e-08
2.7854777e-08
2.7864381e-08
2.7925822e-08
2.7971455e-08
2.8019998e-08
2.8058018e-08
2.8112981e-08
2.8150144e-08
2.8211077e-08
2.8275452e-08
2.8328108e-08
2.8376885e-08
2.843516e-08
2.8492723e-08
2.8553674e-08
2.8638785e-08
2.8745808e-08
2.88611e-08
2.898924e-08
2.9136146e-08
2.9296777e-08
2.9477449e-08
2.9688697e-08
2.9943185e-08
3.0243834e-08
3.056887e-08
3.0921303e-08
3.1320089e-08
3.1753973e-08
3.2215849e-08
3.2701493e-08
3.3197894e-08
3.3739406e-08
3.4332743e-08
3.4943302e-08
3.5543801e-08
3.6174453e-08
3.6808153e-08
3.7407174e-08
3.8015177e-08
3.8698735e-08
3.9341025e-08
4.0065976e-08
4.0779949e-08
4.1563164e-08
4.2388144e-08
4.3264208e-08
4.4114039e-08
2.6362088e-08
2.6357721e-08
2.6367911e-08
2.6411518e-08
2.6445472e-08
2.6481761e-08
2.6512058e-08
2.6553757e-08
2.6585286e-08
2.663259e-08
2.6683307e-08
2.6728312e-08
2.6772513e-08
2.6824214e-08
2.687731e-08
2.6934343e-08
2.7008009e-08
2.7097066e-08
2.7193268e-08
2.7299368e-08
2.7419027e-08
2.7549242e-08
2.7693007e-08
2.785685e-08
2.8051113e-08
2.827734e-08
2.852128e-08
2.8785356e-08
2.9081909e-08
2.9404074e-08
2.974768e-08
3.0110186e-08
3.0483456e-08
3.088927e-08
3.1331956e-08
3.1789269e-08
3.2243598e-08
3.2720242e-08
3.3201632e-08
3.3662851e-08
3.4131658e-08
3.4649985e-08
3.5142649e-08
3.5688305e-08
3.6226507e-08
3.6807984e-08
3.7414347e-08
3.8050861e-08
3.8665053e-08
2.5322875e-08
2.5328291e-08
2.5342529e-08
2.5378694e-08
2.5408631e-08
2.5440385e-08
2.5468646e-08
2.5504822e-08
2.5535139e-08
2.5576319e-08
2.5620645e-08
2.5662499e-08
2.5705035e-08
2.5753554e-08
2.5804291e-08
2.5858828e-08
2.5925095e-08
2.600236e-08
2.6085451e-08
2.6176018e-08
2.6276354e-08
2.6384576e-08
2.6502069e-08
2.6632935e-08
2.6785229e-08
2.6959793e-08
2.7147137e-08
2.7349314e-08
2.7574732e-08
2.7819208e-08
2.8080325e-08
2.8356598e-08
2.8642754e-08
2.8953145e-08
2.9290815e-08
2.9641065e-08
2.9992006e-08
3.0360274e-08
3.0734195e-08
3.1096633e-08
3.1465629e-08
3.186966e-08
3.2257815e-08
3.2683076e-08
3.3104747e-08
3.355734e-08
3.4028728e-08
3.4523982e-08
3.5004175e-08
2.4589646e-08
2.4602152e-08
2.4620168e-08
2.4653057e-08
2.468199e-08
2.4712492e-08
2.4741111e-08
2.4775534e-08
2.4806748e-08
2.484579e-08
2.4887763e-08
2.4929122e-08
2.4971903e-08
2.501954e-08
2.5069631e-08
2.5123106e-08
2.5184958e-08
2.5254707e-08
2.5328982e-08
2.5408705e-08
2.5495262e-08
2.5587338e-08
2.5685456e-08
2.5792242e-08
2.5913812e-08
2.6050674e-08
2.6196489e-08
2.6353008e-08
2.6526131e-08
2.671339e-08
2.6913451e-08
2.7125419e-08
2.734578e-08
2.7584212e-08
2.7842942e-08
2.8112087e-08
2.8383542e-08
2.8668516e-08
2.8959022e-08
2.9242998e-08
2.9532526e-08
2.9846845e-08
3.0150836e-08
3.0480401e-08
3.0807434e-08
3.1155247e-08
3.1515212e-08
3.1890766e-08
3.2253279e-08
2.4059347e-08
2.4078133e-08
2.4100294e-08
2.4132692e-08
2.4162594e-08
2.4193911e-08
2.4224377e-08
2.4259283e-08
2.4292652e-08
2.4331879e-08
2.4373843e-08
2.4416284e-08
2.4460498e-08
2.4508714e-08
2.4559349e-08
2.4612877e-08
2.4672394e-08
2.473754e-08
2.4806023e-08
2.4878261e-08
2.4955019e-08
2.5035275e-08
2.5119089e-08
2.5208142e-08
2.530692e-08
2.5415814e-08
2.5530638e-08
2.565286e-08
2.5786817e-08
2.5931207e-08
2.6085289e-08
2.6248449e-08
2.6418324e-08
2.66017e-08
2.6800412e-08
2.700783e-08
2.7218369e-08
2.7439786e-08
2.7666543e-08
2.788997e-08
2.811824e-08
2.8364869e-08
2.8604948e-08
2.8863601e-08
2.9120947e-08
2.9393369e-08
2.9674712e-08
2.9967944e-08
3.0250844e-08
2.3671445e-08
2.3695251e-08
2.3721174e-08
2.3754341e-08
2.3786067e-08
2.3819172e-08
2.3852166e-08
2.3888755e-08
2.3924934e-08
2.3965697e-08
2.4009071e-08
2.40536e-08
2.410007e-08
2.4149897e-08
2.4201997e-08
2.4256502e-08
2.4315245e-08
2.4377901e-08
2.444283e-08
2.4510082e-08
2.4579972e-08
2.4651606e-08
2.4724772e-08
2.4800527e-08
2.488204e-08
2.4969687e-08
2.5060782e-08
2.5156517e-08
2.5260324e-08
2.537162e-08
2.5489824e-08
2.5614461e-08
2.5744113e-08
2.5883825e-08
2.6035253e-08
2.6193974e-08
2.6356116e-08
2.6527091e-08
2.670299e-08
2.6877489e-08
2.7056188e-08
2.7248562e-08
2.743674e-08
2.7638367e-08
2.783915e-08
2.8050552e-08
2.8267993e-08
2.8493661e-08
2.8710361e-08
2.3383792e-08
2.341202e-08
2.3441586e-08
2.3476391e-08
2.3510521e-08
2.3546058e-08
2.3582033e-08
2.3621074e-08
2.3660496e-08
2.3703671e-08
2.3749382e-08
2.3796688e-08
2.3846012e-08
2.3898208e-08
2.3952493e-08
2.4008735e-08
2.4067893e-08
2.4129631e-08
2.4192698e-08
2.4256862e-08
2.4322097e-08
2.4387546e-08
2.4452807e-08
2.4518517e-08
2.4586828e-08
2.4658119e-08
2.4730747e-08
2.4805677e-08
2.4885938e-08
2.497114e-08
2.5060574e-08
2.5154077e-08
2.5251213e-08
2.5355986e-08
2.546989e-08
2.5589953e-08
2.5713441e-08
2.5844159e-08
2.5979345e-08
2.6114368e-08
2.6253092e-08
2.6402301e-08
2.6548998e-08
2.6705793e-08
2.6862271e-08
2.7026623e-08
2.7195406e-08
2.7370435e-08
2.7537981e-08
2.3169695e-08
2.3201737e-08
2.3234695e-08
2.3271577e-08
2.3308393e-08
2.3346705e-08
2.3385899e-08
2.3427861e-08
2.34708e-08
2.3516963e-08
2.3565644e-08
2.3616232e-08
2.366888e-08
2.3724039e-08
2.3781105e-08
2.3839731e-08
2.3900249e-08
2.3962283e-08
2.4024807e-08
2.4087358e-08
2.4149645e-08
2.4210789e-08
2.427024e-08
2.4328327e-08
2.4386453e-08
2.444498e-08
2.4502978e-08
2.4561284e-08
2.4622866e-08
2.4686816e-08
2.4752399e-08
2.4820244e-08
2.4890847e-08
2.4967362e-08
2.5050974e-08
2.5139642e-08
2.5231451e-08
2.5329127e-08
2.5430766e-08
2.5533004e-08
2.5638539e-08
2.5752235e-08
2.5864586e-08
2.598462e-08
2.6104665e-08
2.6230548e-08
2.6359613e-08
2.6493254e-08
2.6620501e-08
2.3009823e-08
2.3045348e-08
2.3081583e-08
2.3120875e-08
2.3160599e-08
2.3201949e-08
2.324456e-08
2.3289792e-08
2.3336474e-08
2.3386063e-08
2.3438196e-08
2.3492474e-08
2.3548848e-08
2.3607468e-08
2.366783e-08
2.3729405e-08
2.3792063e-08
2.3855364e-08
2.3918401e-08
2.3980514e-08
2.4041196e-08
2.409951e-08
2.4154785e-08
2.4207117e-08
2.4257354e-08
2.4305808e-08
2.4352041e-08
2.4396899e-08
2.4443424e-08
2.4489373e-08
2.4534797e-08
2.4581544e-08
2.4630527e-08
2.4683923e-08
2.4742573e-08
2.4805157e-08
2.4870458e-08
2.4940533e-08
2.501415e-08
2.5088904e-08
2.5166695e-08
2.525104e-08
2.533495e-08
2.542493e-08
2.5515285e-08
2.5610194e-08
2.5707581e-08
2.5808575e-08
2.5904257e-08
2.289116e-08
2.2929897e-08
2.2969297e-08
2.301121e-08
2.305399e-08
2.3098563e-08
2.3144741e-08
2.3193512e-08
2.3244133e-08
2.3297495e-08
2.3353471e-08
2.3411795e-08
2.3472257e-08
2.3534779e-08
2.3598898e-08
2.3663933e-08
2.3729395e-08
2.3794768e-08
2.3859189e-08
2.3921826e-08
2.3981985e-08
2.4038649e-08
2.409104e-08
2.4139073e-08
2.4183182e-08
2.4223602e-08
2.4260246e-08
2.4294097e-08
2.4328121e-08
2.4358255e-08
2.4386714e-08
2.4416308e-08
2.4447381e-08
2.4481228e-08
2.4518599e-08
2.4558892e-08
2.4601516e-08
2.4648096e-08
2.4697904e-08
2.4749257e-08
2.4803488e-08
2.4863128e-08
2.492304e-08
2.4987893e-08
2.5053435e-08
2.5122634e-08
2.5193839e-08
2.5267926e-08
2.5337634e-08
2.2804087e-08
2.2845896e-08
2.288843e-08
2.2933152e-08
2.2979135e-08
2.3027109e-08
2.3077014e-08
2.3129565e-08
2.3184326e-08
2.3241774e-08
2.3301942e-08
2.3364646e-08
2.3429544e-08
2.3496375e-08
2.3564687e-08
2.3633655e-08
2.3702508e-08
2.3770641e-08
2.3837186e-08
2.3901153e-08
2.3961679e-08
2.4017657e-08
2.4068203e-08
2.4113093e-08
2.4152445e-08
2.4186397e-08
2.4215128e-08
2.4239846e-08
2.4262811e-08
2.4279246e-08
2.429384e-08
2.4309241e-08
2.4324742e-08
2.434139e-08
2.4360174e-08
2.438113e-08
2.4404149e-08
2.4430533e-08
2.4459922e-08
2.4491176e-08
2.4525231e-08
2.4563898e-08
2.4603424e-08
2.4647143e-08
2.4691878e-08
2.4739726e-08
2.4789358e-08
2.4841467e-08
2.4890093e-08
2.2741834e-08
2.2786634e-08
2.2832298e-08
2.2879993e-08
2.2929318e-08
2.2980862e-08
2.3034656e-08
2.3091217e-08
2.3150326e-08
2.3212155e-08
2.3276843e-08
2.3344253e-08
2.3413932e-08
2.3485467e-08
2.3558388e-08
2.3631742e-08
2.370452e-08
2.3776021e-08
2.3845337e-08
2.3911327e-08
2.3972971e-08
2.4029065e-08
2.4078619e-08
2.4121294e-08
2.4156966e-08
2.4185664e-08
2.4207784e-08
2.422473e-08
2.4236264e-08
2.4243374e-08
2.4246646e-08
2.4248706e-08
2.4249984e-08
2.4251227e-08
2.425364e-08
2.4257683e-08
2.4263577e-08
2.4272384e-08
2.428402e-08
2.4297769e-08
2.431429e-08
2.4334867e-08
2.4356795e-08
2.4382426e-08
2.440939e-08
2.4439136e-08
2.4470584e-08
2.450426e-08
2.4535271e-08
2.2699353e-08
2.2747131e-08
2.2795973e-08
2.2846808e-08
2.2899632e-08
2.2954927e-08
2.3012794e-08
2.3073602e-08
2.3137288e-08
2.3203792e-08
2.3273327e-08
2.3345773e-08
2.3420582e-08
2.3497212e-08
2.3575156e-08
2.3653336e-08
2.373054e-08
2.3805964e-08
2.3878632e-08
2.3947256e-08
2.4010668e-08
2.4067555e-08
2.4116829e-08
2.4158046e-08
2.4190893e-08
2.4215287e-08
2.4231806e-08
2.4241769e-08
2.4236587e-08
2.4235571e-08
2.4233473e-08
2.4225426e-08
2.4213946e-08
2.4201384e-08
2.4189272e-08
2.4178354e-08
2.4169085e-08
2.4162355e-08
2.4158304e-08
2.4156567e-08
2.4157616e-08
2.4162358e-08
2.4168891e-08
2.4178845e-08
2.4190459e-08
2.4204712e-08
2.4220712e-08
2.4238855e-08
2.425511e-08
2.2672999e-08
2.2723785e-08
2.2775886e-08
2.2830031e-08
2.2886523e-08
2.2945763e-08
2.3007905e-08
2.3073206e-08
2.3141717e-08
2.3213201e-08
2.3287913e-08
2.3365738e-08
2.3446039e-08
2.3528158e-08
2.361154e-08
2.3694985e-08
2.3777097e-08
2.3856962e-08
2.3933517e-08
2.4005328e-08
2.4071082e-08
2.4129351e-08
2.4178946e-08
2.4219332e-08
2.4250039e-08
2.4270876e-08
2.4282556e-08
2.4285636e-08
2.4282673e-08
2.4271906e-08
2.4254729e-08
2.4233567e-08
2.420997e-08
2.4185065e-08
2.4159974e-08
2.4135602e-08
2.4112628e-08
2.4091869e-08
2.4073681e-08
2.4057989e-08
2.404515e-08
2.4035796e-08
2.4028642e-08
2.4024781e-08
2.4022918e-08
2.4023677e-08
2.4026313e-08
2.4031105e-08
2.4034739e-08
2.2660057e-08
2.2713927e-08
2.2769399e-08
2.282704e-08
2.288739e-08
2.2950789e-08
2.3017431e-08
2.3087491e-08
2.3161099e-08
2.323788e-08
2.3318115e-08
2.3401677e-08
2.3487847e-08
2.3575864e-08
2.3665106e-08
2.3754257e-08
2.3841751e-08
2.3926554e-08
2.4007503e-08
2.4083013e-08
2.4151627e-08
2.4211799e-08
2.4262235e-08
2.4302312e-08
2.4331436e-08
2.4349303e-08
2.4356691e-08
2.435447e-08
2.4342951e-08
2.4323697e-08
2.4298237e-08
2.4267847e-08
2.4233912e-08
2.419769e-08
2.4160538e-08
2.412367e-08
2.4088007e-08
2.4054338e-08
2.4023193e-08
2.3994736e-08
2.3969247e-08
2.3947157e-08
2.392766e-08
2.391145e-08
2.3897589e-08
2.3886437e-08
2.3877363e-08
2.3870549e-08
2.3863275e-08
2.2658565e-08
2.2715625e-08
2.277461e-08
2.2835948e-08
2.2900364e-08
2.2968154e-08
2.3039547e-08
2.3114648e-08
2.319365e-08
2.3276065e-08
2.3362186e-08
2.3451863e-08
2.3544301e-08
2.3638636e-08
2.3734177e-08
2.3829484e-08
2.3922833e-08
2.4013063e-08
2.4098891e-08
2.4178587e-08
2.4250541e-08
2.4313085e-08
2.4364818e-08
2.4405033e-08
2.4433026e-08
2.4448386e-08
2.4451965e-08
2.4444576e-08
2.4426982e-08
2.4400409e-08
2.4366364e-08
2.4326425e-08
2.4282258e-08
2.423519e-08
2.4186658e-08
2.413807e-08
2.4090532e-08
2.4044825e-08
2.4001632e-08
2.3961319e-08
2.3924124e-08
2.3890335e-08
2.3859526e-08
2.3832092e-08
2.380737e-08
2.3785521e-08
2.3766007e-08
2.3748916e-08
2.3732034e-08
2.2667096e-08
2.2727485e-08
2.2790152e-08
2.2855403e-08
2.2924118e-08
2.2996556e-08
2.3072972e-08
2.3153422e-08
2.323814e-08
2.3326549e-08
2.3418941e-08
2.3515135e-08
2.3614261e-08
2.3715357e-08
2.3817651e-08
2.391958e-08
2.4019263e-08
2.4115404e-08
2.4206593e-08
2.429094e-08
2.4366689e-08
2.4432037e-08
2.4485476e-08
2.4526212e-08
2.4553447e-08
2.4566667e-08
2.4566775e-08
2.455464e-08
2.4530983e-08
2.449721e-08
2.4455008e-08
2.4406076e-08
2.435222e-08
2.4294825e-08
2.4235442e-08
2.4175679e-08
2.4116824e-08
2.4059685e-08
2.4005088e-08
2.3953573e-08
2.3905363e-08
2.3860648e-08
2.38193e-08
2.3781492e-08
2.3746777e-08
2.3715165e-08
2.3686188e-08
2.3659857e-08
2.3634382e-08
2.2684661e-08
2.2748542e-08
2.2815087e-08
2.2884489e-08
2.2957755e-08
2.3035119e-08
2.3116858e-08
2.3202988e-08
2.3293774e-08
2.3388561e-08
2.3487633e-08
2.3590772e-08
2.3697032e-08
2.3805356e-08
2.3914878e-08
2.4023914e-08
2.4130422e-08
2.4232965e-08
2.4329991e-08
2.4419451e-08
2.4499431e-08
2.456799e-08
2.4623507e-08
2.4665102e-08
2.4691888e-08
2.4703257e-08
2.4700154e-08
2.468349e-08
2.4654051e-08
2.4613362e-08
2.4563235e-08
2.4505513e-08
2.4442169e-08
2.4374687e-08
2.4304745e-08
2.4234137e-08
2.4164321e-08
2.4096154e-08
2.4030592e-08
2.3968328e-08
2.3909591e-08
2.3854503e-08
2.3803179e-08
2.3755622e-08
2.3711558e-08
2.367088e-08
2.3633177e-08
2.3598384e-08
2.3565081e-08
2.2710605e-08
2.2778168e-08
2.2848811e-08
2.292262e-08
2.3000715e-08
2.3083309e-08
2.3170698e-08
2.3262867e-08
2.33601e-08
2.3461679e-08
2.3567869e-08
2.367841e-08
2.3792281e-08
2.3908323e-08
2.4025577e-08
2.4142224e-08
2.4256066e-08
2.4365513e-08
2.446886e-08
2.4563891e-08
2.4648528e-08
2.4720689e-08
2.4778628e-08
2.4821382e-08
2.484798e-08
2.4857723e-08
2.4851595e-08
2.4830558e-08
2.4795461e-08
2.4747957e-08
2.4690003e-08
2.462359e-08
2.4550862e-08
2.4473416e-08
2.4393066e-08
2.4311789e-08
2.4231206e-08
2.4152242e-08
2.4075976e-08
2.4003244e-08
2.393429e-08
2.38692e-08
2.3808282e-08
2.3751414e-08
2.3698459e-08
2.3649219e-08
2.3603328e-08
2.3560654e-08
2.3520094e-08
2.2744553e-08
2.2816012e-08
2.2890996e-08
2.2969494e-08
2.3052721e-08
2.3140875e-08
2.3234271e-08
2.3332865e-08
2.3436958e-08
2.3545771e-08
2.3659548e-08
2.3777981e-08
2.3899969e-08
2.4024254e-08
2.4149769e-08
2.427456e-08
2.4396264e-08
2.4513132e-08
2.4623295e-08
2.472436e-08
2.481408e-08
2.489022e-08
2.495091e-08
2.4995093e-08
2.5021724e-08
2.5030016e-08
2.5020989e-08
2.499566e-08
2.4954957e-08
2.4900663e-08
2.4834882e-08
2.4759766e-08
2.4677632e-08
2.4590209e-08
2.4499461e-08
2.4407542e-08
2.4316241e-08
2.4226558e-08
2.4139699e-08
2.4056628e-08
2.397762e-08
2.3902739e-08
2.3832456e-08
2.3766557e-08
2.3705011e-08
2.3647551e-08
2.3593849e-08
2.3543704e-08
2.3496296e-08
2.2786361e-08
2.2861954e-08
2.2941551e-08
2.3025041e-08
2.311373e-08
2.3207803e-08
2.3307592e-08
2.3413031e-08
2.352443e-08
2.3640956e-08
2.3762823e-08
2.3889673e-08
2.4020321e-08
2.4153405e-08
2.4287744e-08
2.442124e-08
2.4551361e-08
2.4676188e-08
2.4793676e-08
2.4901248e-08
2.4996478e-08
2.5076972e-08
2.5140727e-08
2.5186592e-08
2.5213443e-08
2.5220418e-08
2.5208567e-08
2.5178968e-08
2.5132638e-08
2.5071495e-08
2.4997799e-08
2.4913868e-08
2.4822202e-08
2.472468e-08
2.4623423e-08
2.4520769e-08
2.4418668e-08
2.4318218e-08
2.4220743e-08
2.4127331e-08
2.4038297e-08
2.3953701e-08
2.387415e-08
2.3799361e-08
2.372939e-08
2.3663917e-08
2.3602639e-08
2.3545293e-08
2.3491314e-08
2.2836091e-08
2.2916079e-08
2.3000587e-08
2.30894e-08
2.318391e-08
2.3284292e-08
2.3390896e-08
2.3503634e-08
2.3622822e-08
2.3747575e-08
2.3878075e-08
2.4013906e-08
2.4153796e-08
2.4296273e-08
2.4440033e-08
2.4582829e-08
2.4721951e-08
2.4855299e-08
2.4980643e-08
2.5095209e-08
2.5196385e-08
2.5281607e-08
2.5348735e-08
2.5396515e-08
2.5423752e-08
2.5429509e-08
2.5414865e-08
2.5380968e-08
2.5328928e-08
2.5260806e-08
2.5179027e-08
2.5086083e-08
2.4984666e-08
2.4876821e-08
2.476484e-08
2.4651244e-08
2.4538151e-08
2.4426764e-08
2.4318532e-08
2.421466e-08
2.4115511e-08
2.4021157e-08
2.3932316e-08
2.3848659e-08
2.3770314e-08
2.3696912e-08
2.3628178e-08
2.3563784e-08
2.3503394e-08
2.2893987e-08
2.2978659e-08
2.3068403e-08
2.3162899e-08
2.3263621e-08
2.3370738e-08
2.3484614e-08
2.3605144e-08
2.3732644e-08
2.3866182e-08
2.4005899e-08
2.4151317e-08
2.4301073e-08
2.4453578e-08
2.4607399e-08
2.4760126e-08
2.4908866e-08
2.5051327e-08
2.5185079e-08
2.5307144e-08
2.5414713e-08
2.5505043e-08
2.5575848e-08
2.5625769e-08
2.5653534e-08
2.5658145e-08
2.5640705e-08
2.5602433e-08
2.5544547e-08
2.5469253e-08
2.537915e-08
2.5276917e-08
2.5165447e-08
2.5046965e-08
2.4923944e-08
2.4799099e-08
2.4674715e-08
2.4552117e-08
2.4432878e-08
2.4318321e-08
2.4208863e-08
2.4104595e-08
2.400634e-08
2.391373e-08
2.3826953e-08
2.3745606e-08
2.366943e-08
2.3598035e-08
2.3531299e-08
2.2960466e-08
2.3050137e-08
2.3145476e-08
2.3246048e-08
2.3353409e-08
2.3467722e-08
2.3589368e-08
2.3718224e-08
2.3854606e-08
2.3997531e-08
2.4147096e-08
2.4302756e-08
2.446305e-08
2.4626266e-08
2.479083e-08
2.4954162e-08
2.5113175e-08
2.5265372e-08
2.5408114e-08
2.5538205e-08
2.5652628e-08
2.5748454e-08
2.5823241e-08
2.5875521e-08
2.5903943e-08
2.5907455e-08
2.5887181e-08
2.584442e-08
2.57805e-08
2.5697784e-08
2.5599051e-08
2.5487181e-08
2.5365276e-08
2.5235756e-08
2.5101293e-08
2.4964795e-08
2.4828728e-08
2.4694545e-08
2.4563949e-08
2.443838e-08
2.4318318e-08
2.4203885e-08
2.409599e-08
2.3994245e-08
2.3898887e-08
2.3809482e-08
2.3725787e-08
2.3647346e-08
2.3574243e-08
2.3036116e-08
2.3131134e-08
2.3232458e-08
2.3339534e-08
2.3453999e-08
2.3576013e-08
2.3705973e-08
2.3843738e-08
2.398962e-08
2.4142585e-08
2.4302683e-08
2.4469293e-08
2.464085e-08
2.4815511e-08
2.499155e-08
2.5166207e-08
2.5336188e-08
2.5498782e-08
2.5651126e-08
2.5789795e-08
2.5911554e-08
2.6013275e-08
2.6092353e-08
2.6147204e-08
2.61764e-08
2.617884e-08
2.6155667e-08
2.6108264e-08
2.6038078e-08
2.5947636e-08
2.5839908e-08
2.5717983e-08
2.5585188e-08
2.5444152e-08
2.5297754e-08
2.5149113e-08
2.5000876e-08
2.4854639e-08
2.4712241e-08
2.4575239e-08
2.4444185e-08
2.4319236e-08
2.4201386e-08
2.4090232e-08
2.3986054e-08
2.3888391e-08
2.3797013e-08
2.3711398e-08
2.3631829e-08
2.3121698e-08
2.3222442e-08
2.3330183e-08
2.344423e-08
2.356631e-08
2.3696577e-08
2.3835443e-08
2.3982753e-08
2.4138809e-08
2.4302527e-08
2.44739e-08
2.4652228e-08
2.4835832e-08
2.502273e-08
2.5211031e-08
2.5397784e-08
2.5579477e-08
2.5753169e-08
2.5915761e-08
2.6063589e-08
2.6193185e-08
2.6301213e-08
2.6384899e-08
2.6442533e-08
2.647261e-08
2.6473987e-08
2.6447825e-08
2.6395594e-08
2.6318867e-08
2.6220345e-08
2.6103198e-08
2.5970738e-08
2.5826525e-08
2.5673417e-08
2.5514513e-08
2.5353148e-08
2.5192166e-08
2.5033313e-08
2.4878574e-08
2.4729625e-08
2.4587097e-08
2.4451192e-08
2.4322983e-08
2.4202057e-08
2.4088736e-08
2.3982533e-08
2.388323e-08
2.3790237e-08
2.3704032e-08
2.321816e-08
2.3325047e-08
2.3439676e-08
2.3561208e-08
2.3691461e-08
2.3830584e-08
2.3979007e-08
2.4136556e-08
2.4303524e-08
2.4478771e-08
2.466223e-08
2.4853111e-08
2.5049614e-08
2.5249605e-08
2.5451018e-08
2.5650696e-08
2.5844895e-08
2.6030431e-08
2.6203956e-08
2.6361552e-08
2.6499511e-08
2.6614277e-08
2.6702894e-08
2.6763525e-08
2.6794584e-08
2.6794891e-08
2.6765626e-08
2.6708349e-08
2.6624769e-08
2.6517765e-08
2.639072e-08
2.624718e-08
2.6090955e-08
2.5925142e-08
2.5753077e-08
2.5578324e-08
2.5403931e-08
2.523181e-08
2.5064095e-08
2.4902593e-08
2.4748017e-08
2.4600624e-08
2.4461561e-08
2.4330415e-08
2.4207542e-08
2.4092436e-08
2.3984887e-08
2.3884231e-08
2.3791151e-08
2.3326649e-08
2.3440137e-08
2.3562174e-08
2.3691756e-08
2.3830796e-08
2.397944e-08
2.4138133e-08
2.4306684e-08
2.4485372e-08
2.4672998e-08
2.4869428e-08
2.5073773e-08
2.5284104e-08
2.5498118e-08
2.5713563e-08
2.5927058e-08
2.6134613e-08
2.6332789e-08
2.6517972e-08
2.6685981e-08
2.6832854e-08
2.6954805e-08
2.7048686e-08
2.7112529e-08
2.7144665e-08
2.7143882e-08
2.7111379e-08
2.704881e-08
2.6958027e-08
2.6842095e-08
2.670462e-08
2.6549396e-08
2.6380495e-08
2.620127e-08
2.6015308e-08
2.5826414e-08
2.5637853e-08
2.5451715e-08
2.5270297e-08
2.5095539e-08
2.4928247e-08
2.476874e-08
2.4618238e-08
2.4476335e-08
2.434342e-08
2.4218968e-08
2.4102776e-08
2.3994105e-08
2.3893846e-08
2.3448541e-08
2.3569137e-08
2.3699157e-08
2.3837412e-08
2.3985916e-08
2.4144813e-08
2.4314562e-08
2.4494954e-08
2.4686251e-08
2.488719e-08
2.5097562e-08
2.5316369e-08
2.5541539e-08
2.5770591e-08
2.6001064e-08
2.622934e-08
2.6451167e-08
2.666283e-08
2.686044e-08
2.7039541e-08
2.7195905e-08
2.7325507e-08
2.7425e-08
2.7492271e-08
2.7525576e-08
2.7523672e-08
2.7487776e-08
2.7419643e-08
2.7321271e-08
2.719592e-08
2.7047431e-08
2.687986e-08
2.6697552e-08
2.6504132e-08
2.6303454e-08
2.6099576e-08
2.5895996e-08
2.5694995e-08
2.5499045e-08
2.5310227e-08
2.5129452e-08
2.4957106e-08
2.4794488e-08
2.4641198e-08
2.4497662e-08
2.4363334e-08
2.423802e-08
2.4120899e-08
2.4013084e-08
2.3585481e-08
2.3713745e-08
2.3852386e-08
2.4000003e-08
2.4158721e-08
2.432868e-08
2.4510354e-08
2.4703513e-08
2.49084e-08
2.512368e-08
2.5349061e-08
2.5583427e-08
2.5824545e-08
2.606974e-08
2.6316326e-08
2.6560426e-08
2.6797508e-08
2.7023566e-08
2.723442e-08
2.7425327e-08
2.7591787e-08
2.7729525e-08
2.7834985e-08
2.7905907e-08
2.7940469e-08
2.7937401e-08
2.7897941e-08
2.7823947e-08
2.7717567e-08
2.7582266e-08
2.7422131e-08
2.7241489e-08
2.7044975e-08
2.68365e-08
2.66202e-08
2.6400402e-08
2.6180851e-08
2.5964039e-08
2.575262e-08
2.5548835e-08
2.5353704e-08
2.5167693e-08
2.4992179e-08
2.4826779e-08
2.4671952e-08
2.4527134e-08
2.4392141e-08
2.4266062e-08
2.4150252e-08
2.373943e-08
2.3875985e-08
2.4023957e-08
2.4181703e-08
2.4351469e-08
2.4533388e-08
2.4727952e-08
2.4934905e-08
2.5154466e-08
2.5385223e-08
2.562679e-08
2.5877919e-08
2.6136202e-08
2.639875e-08
2.6662629e-08
2.6923686e-08
2.7177082e-08
2.7418505e-08
2.7643469e-08
2.7846933e-08
2.8024119e-08
2.8170497e-08
2.8282292e-08
2.8357091e-08
2.8392995e-08
2.8388711e-08
2.83455e-08
2.8265323e-08
2.8150486e-08
2.8004667e-08
2.7832204e-08
2.7637711e-08
2.7426125e-08
2.7201655e-08
2.6968736e-08
2.6731984e-08
2.6495405e-08
2.6261719e-08
2.6033785e-08
2.581401e-08
2.5603537e-08
2.5402924e-08
2.5213628e-08
2.5035288e-08
2.4868398e-08
2.4712377e-08
2.4567052e-08
2.4431412e-08
2.4307081e-08
2.3912734e-08
2.4058278e-08
2.4216375e-08
2.4385108e-08
2.4566853e-08
2.4761735e-08
2.4970262e-08
2.519215e-08
2.5427589e-08
2.5675081e-08
2.5934134e-08
2.6203353e-08
2.6480138e-08
2.6761364e-08
2.7043826e-08
2.7323066e-08
2.7593919e-08
2.7851743e-08
2.8091733e-08
2.8308543e-08
2.8497111e-08
2.8652647e-08
2.8771154e-08
2.8850058e-08
2.8887384e-08
2.8881825e-08
2.8834662e-08
2.8747962e-08
2.8624194e-08
2.846725e-08
2.8281734e-08
2.8072555e-08
2.784496e-08
2.7603474e-08
2.7352846e-08
2.7097998e-08
2.6843222e-08
2.6591485e-08
2.6345867e-08
2.6108958e-08
2.5882038e-08
2.5665765e-08
2.5461687e-08
2.5269468e-08
2.508964e-08
2.4921607e-08
2.4765209e-08
2.4619326e-08
2.4485882e-08
2.4108215e-08
2.4263532e-08
2.4432651e-08
2.4613334e-08
2.4808104e-08
2.5017072e-08
2.5240763e-08
2.5478861e-08
2.5731518e-08
2.5997141e-08
2.627512e-08
2.6563893e-08
2.6860649e-08
2.7162002e-08
2.7464452e-08
2.7763206e-08
2.8052748e-08
2.8328081e-08
2.8584065e-08
2.8815042e-08
2.9015667e-08
2.9180892e-08
2.9306494e-08
2.9389731e-08
2.9428559e-08
2.9421658e-08
2.9370331e-08
2.9276752e-08
2.9143553e-08
2.897485e-08
2.8775516e-08
2.8550761e-08
2.8306153e-08
2.8046545e-08
2.777702e-08
2.7502826e-08
2.7228564e-08
2.6957472e-08
2.6692872e-08
2.6437555e-08
2.6192953e-08
2.5959834e-08
2.5739845e-08
2.553268e-08
2.5338915e-08
2.5157938e-08
2.4989604e-08
2.4832673e-08
2.4689413e-08
2.4329281e-08
2.449526e-08
2.4676417e-08
2.4870142e-08
2.5079118e-08
2.5303441e-08
2.5543648e-08
2.5799384e-08
2.6070758e-08
2.6356067e-08
2.6654566e-08
2.696451e-08
2.7282852e-08
2.760592e-08
2.7929885e-08
2.8249595e-08
2.8559148e-08
2.8853169e-08
2.9126165e-08
2.9372161e-08
2.9585531e-08
2.9760981e-08
2.989406e-08
2.9981857e-08
3.0022261e-08
3.0013943e-08
2.9958233e-08
2.9857409e-08
2.9714267e-08
2.9533146e-08
2.9319194e-08
2.9077926e-08
2.8815236e-08
2.8536316e-08
2.8246602e-08
2.7951698e-08
2.7656537e-08
2.7364656e-08
2.7079643e-08
2.6804506e-08