/*--------------------------------*- C++ -*----------------------------------*\
| =========                 |                                                 |
| \\      /  F ield         | OpenFOAM: The Open Source CFD Toolbox           |
|  \\    /   O peration     | Version:  v2006                                 |
|   \\  /    A nd           | Website:  www.openfoam.com                      |
|    \\/     M anipulation  |                                                 |
\*---------------------------------------------------------------------------*/
FoamFile
{
    version     2.0;
    format      ascii;
    class       volScalarField;
    location    "500";
    object      nut;
}
// * * * * * * * * * * * * * * * * * * * * * * * * * * * * * * * * * * * * * //

dimensions      [0 2 -1 0 0 0 0];


internalField   nonuniform List<scalar> 
19765
(
1.0159324e-05
1.0125117e-05
9.7792431e-06
9.7793962e-06
9.7325333e-06
9.8502775e-06
9.7219577e-06
9.8578492e-06
9.7799225e-06
9.5525243e-06
9.6124796e-06
9.9467663e-06
1.0131299e-05
1.0293793e-05
1.0669598e-05
1.0819632e-05
1.0750144e-05
1.0878996e-05
1.127041e-05
1.1593358e-05
1.1794162e-05
1.1876208e-05
1.2051439e-05
1.2148258e-05
1.2205168e-05
1.2233731e-05
1.2237628e-05
1.2158586e-05
1.216153e-05
1.2035992e-05
1.1803926e-05
1.1511533e-05
1.1526274e-05
1.1654908e-05
1.1514586e-05
1.1185766e-05
1.1158455e-05
1.1091429e-05
1.0819748e-05
1.0887581e-05
1.1227362e-05
1.1369623e-05
1.1320812e-05
1.160866e-05
1.1506815e-05
1.1723067e-05
1.1727342e-05
1.1700957e-05
1.1582069e-05
5.8782524e-05
6.1186739e-05
6.317472e-05
6.4514619e-05
6.6348917e-05
6.8246499e-05
7.0158306e-05
7.2030948e-05
7.402575e-05
7.5653411e-05
7.7570208e-05
7.9665698e-05
8.1396461e-05
8.2914249e-05
8.4574775e-05
8.5653333e-05
8.5999625e-05
8.6693022e-05
8.788913e-05
8.9088741e-05
9.0024556e-05
9.0429379e-05
9.0756496e-05
9.1376267e-05
9.1972903e-05
9.2046346e-05
9.1910319e-05
9.193534e-05
9.1918269e-05
9.1729027e-05
9.1445928e-05
9.1103001e-05
9.0920666e-05
9.0602684e-05
8.9806983e-05
8.8753218e-05
8.7825295e-05
8.6618282e-05
8.5133214e-05
8.4006269e-05
8.2998959e-05
8.0982485e-05
7.8889427e-05
7.6148877e-05
7.363809e-05
6.84492e-05
6.2425164e-05
5.6249056e-05
5.1665384e-05
1.8799977e-05
1.7904271e-05
1.7177541e-05
1.7279043e-05
1.7238373e-05
1.7190033e-05
1.6940721e-05
1.6942639e-05
1.6646209e-05
1.6629801e-05
1.6716251e-05
1.6575902e-05
1.6231589e-05
1.5926929e-05
1.5518197e-05
1.4973272e-05
1.4594301e-05
1.439774e-05
1.4217722e-05
1.3987503e-05
1.3731706e-05
1.3588445e-05
1.3458542e-05
1.33739e-05
1.3509391e-05
1.3872687e-05
1.4204227e-05
1.4562675e-05
1.5133777e-05
1.5754995e-05
1.6357562e-05
1.6911712e-05
1.7403794e-05
1.8215055e-05
1.9237635e-05
2.0077038e-05
2.0719232e-05
2.1578441e-05
2.2214003e-05
2.2505066e-05
2.3054603e-05
2.4057284e-05
2.4554396e-05
2.5524854e-05
2.6175738e-05
2.7575379e-05
2.9645731e-05
3.2283446e-05
3.4096257e-05
7.916888e-07
6.8814834e-07
6.24264e-07
6.0595072e-07
5.8618267e-07
5.683667e-07
5.4545409e-07
5.326148e-07
5.1195612e-07
4.996634e-07
4.9060704e-07
4.7596641e-07
4.5689594e-07
4.4045701e-07
4.2349249e-07
4.0516648e-07
3.9238858e-07
3.8469451e-07
3.7740635e-07
3.6941488e-07
3.6235024e-07
3.5856546e-07
3.5595556e-07
3.5509292e-07
3.5978967e-07
3.707159e-07
3.8216081e-07
3.9546136e-07
4.1490045e-07
4.3726798e-07
4.613108e-07
4.8617059e-07
5.1158832e-07
5.4812038e-07
5.9452327e-07
6.4022206e-07
6.8479608e-07
7.4117364e-07
7.9383218e-07
8.3846369e-07
8.9942504e-07
9.8675673e-07
1.0631331e-06
1.1837603e-06
1.3016418e-06
1.4729657e-06
1.6800089e-06
1.9371941e-06
2.233819e-06
1.6248288e-07
1.6138003e-07
1.6116729e-07
1.6269351e-07
1.6401336e-07
1.6524393e-07
1.6592175e-07
1.6711843e-07
1.6753289e-07
1.6846569e-07
1.6971418e-07
1.7045437e-07
1.706932e-07
1.7105758e-07
1.7117378e-07
1.7089125e-07
1.7099102e-07
1.7154816e-07
1.7201799e-07
1.7243632e-07
1.7301866e-07
1.7362041e-07
1.7442339e-07
1.7563487e-07
1.7743218e-07
1.7991271e-07
1.824492e-07
1.8514135e-07
1.8845591e-07
1.9196124e-07
1.9547496e-07
1.9888608e-07
2.0205944e-07
2.0604545e-07
2.1059068e-07
2.1458144e-07
2.1795736e-07
2.2184067e-07
2.2497456e-07
2.2712703e-07
2.3005222e-07
2.339531e-07
2.3662969e-07
2.4094593e-07
2.4442599e-07
2.4923971e-07
2.5408582e-07
2.5823221e-07
2.6115293e-07
1.3900063e-07
1.3891719e-07
1.3919391e-07
1.4015579e-07
1.4084922e-07
1.4155072e-07
1.4204935e-07
1.4274529e-07
1.4310637e-07
1.4377048e-07
1.4439173e-07
1.4473922e-07
1.4493239e-07
1.4516957e-07
1.452752e-07
1.4531334e-07
1.455905e-07
1.4603936e-07
1.4644459e-07
1.4687978e-07
1.4741789e-07
1.4796843e-07
1.4870246e-07
1.4974138e-07
1.5107963e-07
1.5278896e-07
1.5461227e-07
1.5653616e-07
1.5878988e-07
1.6123133e-07
1.6375151e-07
1.6630692e-07
1.6872864e-07
1.7141434e-07
1.7443289e-07
1.7740501e-07
1.8003229e-07
1.8278723e-07
1.853853e-07
1.8747176e-07
1.895056e-07
1.9219227e-07
1.9431657e-07
1.9715226e-07
1.9973581e-07
2.0285546e-07
2.0622672e-07
2.0988772e-07
2.1325243e-07
1.2200344e-07
1.2185881e-07
1.2190667e-07
1.2234416e-07
1.2264749e-07
1.2296146e-07
1.2317703e-07
1.2351579e-07
1.2368474e-07
1.2403223e-07
1.2437809e-07
1.2458207e-07
1.2470814e-07
1.2486913e-07
1.2496743e-07
1.2503449e-07
1.2525074e-07
1.2558925e-07
1.2592424e-07
1.2629191e-07
1.2673442e-07
1.271967e-07
1.2775586e-07
1.2849437e-07
1.2944031e-07
1.306206e-07
1.3188004e-07
1.3322615e-07
1.3479026e-07
1.3648076e-07
1.382368e-07
1.4002762e-07
1.4176223e-07
1.4367666e-07
1.458021e-07
1.4790673e-07
1.4982802e-07
1.5183822e-07
1.5376335e-07
1.5539738e-07
1.5702587e-07
1.5902039e-07
1.606967e-07
1.6276395e-07
1.6467313e-07
1.668552e-07
1.6913071e-07
1.7150551e-07
1.7366239e-07
1.1314125e-07
1.1303711e-07
1.1305113e-07
1.1329914e-07
1.1347041e-07
1.1364951e-07
1.1377235e-07
1.1396614e-07
1.1406465e-07
1.1426606e-07
1.1446886e-07
1.1459661e-07
1.1468635e-07
1.1480178e-07
1.1489014e-07
1.1497059e-07
1.1514378e-07
1.1539541e-07
1.1565735e-07
1.1595157e-07
1.163045e-07
1.1669039e-07
1.1715234e-07
1.1773516e-07
1.1846064e-07
1.1934403e-07
1.2029506e-07
1.2131936e-07
1.2249358e-07
1.2376442e-07
1.2509602e-07
1.2646919e-07
1.2782814e-07
1.293118e-07
1.3094157e-07
1.3257904e-07
1.3412089e-07
1.3572786e-07
1.3729734e-07
1.3869893e-07
1.4009935e-07
1.4173967e-07
1.4319774e-07
1.4491711e-07
1.4656419e-07
1.4841484e-07
1.5036878e-07
1.524478e-07
1.5442691e-07
1.0704024e-07
1.0694797e-07
1.0692764e-07
1.0705469e-07
1.0713773e-07
1.0722848e-07
1.0728829e-07
1.0739449e-07
1.0744679e-07
1.0756444e-07
1.0768717e-07
1.0776988e-07
1.0783516e-07
1.0792136e-07
1.0799783e-07
1.0807657e-07
1.0821801e-07
1.0841441e-07
1.0862572e-07
1.0886523e-07
1.0914902e-07
1.0946166e-07
1.0982433e-07
1.1026603e-07
1.1081177e-07
1.114697e-07
1.1218122e-07
1.1295105e-07
1.1382691e-07
1.1477577e-07
1.1577617e-07
1.1681568e-07
1.1785959e-07
1.1899402e-07
1.2023165e-07
1.2148433e-07
1.2268687e-07
1.2393875e-07
1.2517377e-07
1.2630693e-07
1.2744455e-07
1.2873528e-07
1.2991121e-07
1.3125142e-07
1.3254202e-07
1.3395636e-07
1.3542692e-07
1.3696297e-07
1.3841387e-07
1.0307409e-07
1.030095e-07
1.0298952e-07
1.0306408e-07
1.031108e-07
1.0316302e-07
1.0319652e-07
1.0326019e-07
1.0329174e-07
1.0336575e-07
1.0344508e-07
1.0350258e-07
1.035527e-07
1.0361937e-07
1.0368433e-07
1.0375561e-07
1.0387065e-07
1.0402512e-07
1.0419497e-07
1.0438875e-07
1.0461709e-07
1.048719e-07
1.051645e-07
1.0551223e-07
1.0593713e-07
1.0644388e-07
1.0699373e-07
1.0759065e-07
1.0826605e-07
1.0899927e-07
1.0977686e-07
1.1059074e-07
1.114182e-07
1.1231495e-07
1.1328992e-07
1.1428532e-07
1.1525681e-07
1.1626857e-07
1.1727705e-07
1.1822379e-07
1.19177e-07
1.2023863e-07
1.2122858e-07
1.2233509e-07
1.2341571e-07
1.2458953e-07
1.2581388e-07
1.2710174e-07
1.2834096e-07
1.0031667e-07
1.0026913e-07
1.0025031e-07
1.0029464e-07
1.0032141e-07
1.003526e-07
1.0037261e-07
1.0041338e-07
1.0043484e-07
1.0048526e-07
1.0054103e-07
1.0058518e-07
1.0062722e-07
1.0068262e-07
1.0074006e-07
1.0080499e-07
1.009014e-07
1.0102682e-07
1.0116628e-07
1.0132539e-07
1.0151116e-07
1.0171892e-07
1.019545e-07
1.02229e-07
1.0256137e-07
1.0295434e-07
1.0338159e-07
1.0384647e-07
1.043703e-07
1.0493979e-07
1.0554646e-07
1.0618509e-07
1.0684062e-07
1.0754989e-07
1.0831886e-07
1.0910824e-07
1.0988762e-07
1.1069933e-07
1.1151344e-07
1.1228888e-07
1.1307144e-07
1.1392919e-07
1.1473931e-07
1.1562863e-07
1.1649964e-07
1.1743261e-07
1.1839756e-07
1.1940251e-07
1.2036623e-07
9.8365102e-08
9.8335162e-08
9.8323464e-08
9.835436e-08
9.8373548e-08
9.8396049e-08
9.8411607e-08
9.8441631e-08
9.8459817e-08
9.8498208e-08
9.8541444e-08
9.8578744e-08
9.8616542e-08
9.8665098e-08
9.8717258e-08
9.8776799e-08
9.8859454e-08
9.8963773e-08
9.9080239e-08
9.921261e-08
9.9365642e-08
9.953669e-08
9.9728854e-08
9.9949265e-08
1.0021328e-07
1.0052263e-07
1.0085924e-07
1.0122607e-07
1.0163802e-07
1.0208657e-07
1.0256651e-07
1.0307453e-07
1.036002e-07
1.0416846e-07
1.047835e-07
1.0541814e-07
1.0605076e-07
1.067102e-07
1.0737563e-07
1.080174e-07
1.0866649e-07
1.0937125e-07
1.1004475e-07
1.107763e-07
1.1149729e-07
1.1226491e-07
1.1305853e-07
1.1388632e-07
1.1468501e-07
9.6954984e-08
9.693774e-08
9.6932412e-08
9.6956618e-08
9.6973047e-08
9.6992147e-08
9.7007042e-08
9.7032407e-08
9.7050588e-08
9.7083324e-08
9.7120429e-08
9.7154903e-08
9.7191165e-08
9.7236145e-08
9.7285207e-08
9.7340979e-08
9.7413959e-08
9.7503268e-08
9.7602705e-08
9.7714792e-08
9.7842764e-08
9.7985042e-08
9.8143249e-08
9.8322051e-08
9.8533541e-08
9.8779016e-08
9.9046056e-08
9.9337155e-08
9.9662941e-08
1.0001824e-07
1.0039999e-07
1.0080579e-07
1.01228e-07
1.0168365e-07
1.0217583e-07
1.0268549e-07
1.0319726e-07
1.0373114e-07
1.042723e-07
1.0479898e-07
1.0533266e-07
1.0590724e-07
1.0646052e-07
1.0705532e-07
1.0764253e-07
1.0826238e-07
1.0889979e-07
1.0956063e-07
1.1019645e-07
9.591494e-08
9.5908813e-08
9.5910337e-08
9.5932537e-08
9.594946e-08
9.5968558e-08
9.5985164e-08
9.6009517e-08
9.6029606e-08
9.6060423e-08
9.6095124e-08
9.6129115e-08
9.6165464e-08
9.6208911e-08
9.6256392e-08
9.6309726e-08
9.6375982e-08
9.6454597e-08
9.6541435e-08
9.6638172e-08
9.6746992e-08
9.6866913e-08
9.6998776e-08
9.7145641e-08
9.7316741e-08
9.7513269e-08
9.7726761e-08
9.7959171e-08
9.821846e-08
9.8502051e-08
9.8807885e-08
9.9133512e-08
9.9473136e-08
9.983894e-08
1.0023363e-07
1.0064393e-07
1.0105877e-07
1.014923e-07
1.019338e-07
1.0236705e-07
1.0280698e-07
1.0327814e-07
1.0373504e-07
1.0422302e-07
1.0470627e-07
1.0521401e-07
1.0573523e-07
1.062752e-07
1.0679513e-07
9.5139482e-08
9.5141923e-08
9.5149356e-08
9.5171568e-08
9.5190273e-08
9.5210865e-08
9.5230144e-08
9.5255364e-08
9.5278247e-08
9.5309261e-08
9.5343769e-08
9.5378717e-08
9.5416231e-08
9.5459571e-08
9.5506664e-08
9.5558731e-08
9.5620537e-08
9.5691683e-08
9.5769337e-08
9.5854562e-08
9.5948793e-08
9.6051352e-08
9.6162633e-08
9.6284641e-08
9.6424225e-08
9.6582649e-08
9.6754231e-08
9.6940316e-08
9.7147549e-08
9.7375238e-08
9.7620656e-08
9.7881034e-08
9.8152647e-08
9.8444988e-08
9.8760619e-08
9.9090168e-08
9.9425529e-08
9.9776724e-08
1.0013585e-07
1.0049063e-07
1.0085155e-07
1.0123628e-07
1.0161128e-07
1.0200924e-07
1.0240379e-07
1.0281596e-07
1.0323743e-07
1.0367227e-07
1.0408968e-07
9.4552923e-08
9.4562601e-08
9.4575502e-08
9.4599094e-08
9.4620415e-08
9.464344e-08
9.4665963e-08
9.4693192e-08
9.4719375e-08
9.4751886e-08
9.4787571e-08
9.4824387e-08
9.4863793e-08
9.4908021e-08
9.4955633e-08
9.5007399e-08
9.5066491e-08
9.5132586e-08
9.5203678e-08
9.5280379e-08
9.5363572e-08
9.5452712e-08
9.5547905e-08
9.5650457e-08
9.5765334e-08
9.5893899e-08
9.6032394e-08
9.6181631e-08
9.6348203e-08
9.6531896e-08
9.6727601e-08
9.6933812e-08
9.7149538e-08
9.7382407e-08
9.7634508e-08
9.7899009e-08
9.8169843e-08
9.8454134e-08
9.8745994e-08
9.9036073e-08
9.9331727e-08
9.9645906e-08
9.9953574e-08
1.0027865e-07
1.006015e-07
1.0093755e-07
1.0128048e-07
1.0163376e-07
1.019723e-07
9.4106239e-08
9.4121782e-08
9.4139448e-08
9.4165013e-08
9.4189233e-08
9.421508e-08
9.4241033e-08
9.4270867e-08
9.4300564e-08
9.4335343e-08
9.4373061e-08
9.4412341e-08
9.4454154e-08
9.4500004e-08
9.4548856e-08
9.4601127e-08
9.4658865e-08
9.4721764e-08
9.4788341e-08
9.485886e-08
9.493379e-08
9.501262e-08
9.5095243e-08
9.5182461e-08
9.5277847e-08
9.5382809e-08
9.5494875e-08
9.5614582e-08
9.5749499e-08
9.5897119e-08
9.605001e-08
9.6211455e-08
9.638197e-08
9.6566812e-08
9.6767458e-08
9.6978946e-08
9.7196715e-08
9.7425812e-08
9.7661807e-08
9.7897537e-08
9.8138196e-08
9.8393278e-08
9.8644009e-08
9.8907915e-08
9.9170268e-08
9.944232e-08
9.9719179e-08
1.0000362e-07
1.0027523e-07
9.3763168e-08
9.3783731e-08
9.3805723e-08
9.3833663e-08
9.3860967e-08
9.3889883e-08
9.3919372e-08
9.3952195e-08
9.398554e-08
9.40231e-08
9.4063434e-08
9.4105606e-08
9.4150226e-08
9.4198266e-08
9.4248948e-08
9.4302408e-08
9.4359877e-08
9.4421033e-08
9.4484714e-08
9.4550908e-08
9.4619762e-08
9.469074e-08
9.4763575e-08
9.4838705e-08
9.4918661e-08
9.5004827e-08
9.5095588e-08
9.5191631e-08
9.5301933e-08
9.541733e-08
9.5533483e-08
9.5659926e-08
9.5794147e-08
9.5939752e-08
9.6098417e-08
9.6266508e-08
9.6440407e-08
9.6623639e-08
9.6812907e-08
9.7002788e-08
9.7197013e-08
9.7402651e-08
9.7605542e-08
9.7818654e-08
9.8030848e-08
9.8250424e-08
9.8473547e-08
9.8702551e-08
9.8920567e-08
9.3498898e-08
9.3523745e-08
9.3549632e-08
9.3580125e-08
9.3610552e-08
9.3642638e-08
9.3675682e-08
9.3711718e-08
9.3748783e-08
9.378947e-08
9.3832832e-08
9.3878222e-08
9.3925975e-08
9.3976669e-08
9.4029684e-08
9.408492e-08
9.4143006e-08
9.4203576e-08
9.4265663e-08
9.4329023e-08
9.4393547e-08
9.4458639e-08
9.4523897e-08
9.4589493e-08
9.4657191e-08
9.4728278e-08
9.4801739e-08
9.4878891e-08
9.496943e-08
9.5051913e-08
9.5141219e-08
9.5240854e-08
9.5344597e-08
9.5457956e-08
9.5582357e-08
9.5714355e-08
9.5851059e-08
9.5995193e-08
9.614453e-08
9.6295078e-08
9.6449579e-08
9.6613301e-08
9.6775507e-08
9.6945786e-08
9.7115643e-08
9.729117e-08
9.7469307e-08
9.7651946e-08
9.7825141e-08
9.3294803e-08
9.3323458e-08
9.3352957e-08
9.338614e-08
9.3419731e-08
9.3455069e-08
9.3491698e-08
9.3531121e-08
9.3571978e-08
9.3616066e-08
9.3662779e-08
9.3711667e-08
9.3762845e-08
9.3816594e-08
9.3872381e-08
9.3929914e-08
9.3989357e-08
9.4050287e-08
9.4111842e-08
9.4173582e-08
9.4235183e-08
9.4295971e-08
9.4355428e-08
9.441353e-08
9.4471462e-08
9.4530377e-08
9.4589724e-08
9.4651812e-08
9.4724458e-08
9.478507e-08
9.4849216e-08
9.4921868e-08
9.5002084e-08
9.5090681e-08
9.5186196e-08
9.5286648e-08
9.5390793e-08
9.5501151e-08
9.5616305e-08
9.573328e-08
9.5854024e-08
9.598242e-08
9.611028e-08
9.6244686e-08
9.6379132e-08
9.6518086e-08
9.6659088e-08
9.6803708e-08
9.6940335e-08
9.3137584e-08
9.3169676e-08
9.3202561e-08
9.3238515e-08
9.327529e-08
9.3313939e-08
9.3354181e-08
9.3397129e-08
9.3441859e-08
9.3489574e-08
9.3539914e-08
9.3592551e-08
9.3647428e-08
9.3704592e-08
9.3763552e-08
9.3823846e-08
9.388528e-08
9.3947361e-08
9.4009268e-08
9.4070388e-08
9.4130216e-08
9.4187989e-08
9.4243082e-08
9.4295325e-08
9.4345467e-08
9.4394498e-08
9.4442288e-08
9.4492041e-08
9.454066e-08
9.4589715e-08
9.4638084e-08
9.4692932e-08
9.4752109e-08
9.4814807e-08
9.4882521e-08
9.4954833e-08
9.5030995e-08
9.5112794e-08
9.5199124e-08
9.5287678e-08
9.5379796e-08
9.5478316e-08
9.5577018e-08
9.5681113e-08
9.5785617e-08
9.5893785e-08
9.6003628e-08
9.6116426e-08
9.6222515e-08
9.301716e-08
9.3052455e-08
9.3088591e-08
9.3127402e-08
9.3167406e-08
9.320944e-08
9.3253352e-08
9.3299967e-08
9.334867e-08
9.3400228e-08
9.3454448e-08
9.351108e-08
9.3569925e-08
9.3630841e-08
9.3693347e-08
9.3756832e-08
9.3820813e-08
9.3884716e-08
9.3947722e-08
9.4009063e-08
9.406807e-08
9.4123887e-08
9.4175791e-08
9.4223498e-08
9.4267423e-08
9.4308387e-08
9.4346656e-08
9.4385007e-08
9.4388281e-08
9.4428556e-08
9.4481658e-08
9.4524838e-08
9.4564033e-08
9.4605094e-08
9.4650453e-08
9.4699892e-08
9.4752841e-08
9.4810593e-08
9.4872397e-08
9.4936571e-08
9.500408e-08
9.5077027e-08
9.515072e-08
9.5228993e-08
9.5308028e-08
9.5390187e-08
9.5473848e-08
9.5560065e-08
9.5640762e-08
9.2926116e-08
9.2964457e-08
9.3003765e-08
9.3045515e-08
9.3088807e-08
9.3134312e-08
9.3181974e-08
9.3232399e-08
9.3285202e-08
9.3340812e-08
9.3399158e-08
9.3460031e-08
9.3523113e-08
9.3588106e-08
9.3654515e-08
9.3721594e-08
9.3788619e-08
9.3854932e-08
9.3919683e-08
9.3981959e-08
9.4040943e-08
9.4095684e-08
9.4145367e-08
9.4189615e-08
9.4228585e-08
9.4262931e-08
9.4293206e-08
9.431917e-08
9.4348956e-08
9.437235e-08
9.4390655e-08
9.4409179e-08
9.4429583e-08
9.4452825e-08
9.4479455e-08
9.4509251e-08
9.454196e-08
9.4578683e-08
9.4619045e-08
9.4661894e-08
9.4707943e-08
9.4758744e-08
9.4810779e-08
9.4866845e-08
9.4924013e-08
9.4983975e-08
9.5045395e-08
9.5109123e-08
9.5168411e-08
9.28588e-08
9.290011e-08
9.2942566e-08
9.2987356e-08
9.3034022e-08
9.3083107e-08
9.3134627e-08
9.3189024e-08
9.3246076e-08
9.3305958e-08
9.3368677e-08
9.3434046e-08
9.3501641e-08
9.3571031e-08
9.364169e-08
9.3712747e-08
9.3783274e-08
9.3852519e-08
9.3919582e-08
9.398341e-08
9.4043052e-08
9.4097456e-08
9.4145722e-08
9.4187392e-08
9.4222424e-08
9.4251312e-08
9.4274644e-08
9.4293312e-08
9.4306674e-08
9.4317052e-08
9.4325884e-08
9.4333621e-08
9.4340818e-08
9.4348781e-08
9.4358669e-08
9.4370884e-08
9.4385589e-08
9.4403759e-08
9.4425285e-08
9.4449417e-08
9.4476678e-08
9.4508204e-08
9.4541388e-08
9.4578247e-08
9.4616544e-08
9.4657465e-08
9.4699904e-08
9.4744545e-08
9.4785745e-08
9.2810985e-08
9.2855237e-08
9.2900861e-08
9.2948806e-08
9.2998952e-08
9.3051747e-08
9.310726e-08
9.3165805e-08
9.3227282e-08
9.3291665e-08
9.3359014e-08
9.3429143e-08
9.3501535e-08
9.3575643e-08
9.3650896e-08
9.3726303e-08
9.3800757e-08
9.3873411e-08
9.3943292e-08
9.4009215e-08
9.4070102e-08
9.4124797e-08
9.4172319e-08
9.4212141e-08
9.4244059e-08
9.4268407e-08
9.4285892e-08
9.4297073e-08
9.430293e-08
9.4304129e-08
9.4301631e-08
9.4296644e-08
9.4290344e-08
9.4284054e-08
9.4278913e-08
9.4275532e-08
9.4274292e-08
9.4276052e-08
9.4280921e-08
9.428848e-08
9.4299132e-08
9.4313708e-08
9.4330317e-08
9.4350392e-08
9.4372233e-08
9.4396649e-08
9.4422714e-08
9.4450967e-08
9.4476697e-08
9.2779451e-08
9.2826671e-08
9.2875522e-08
9.2926754e-08
9.2980512e-08
9.303717e-08
9.3096836e-08
9.3159727e-08
9.3225828e-08
9.3294956e-08
9.3367202e-08
9.3442369e-08
9.3519855e-08
9.3599004e-08
9.3679195e-08
9.3759318e-08
9.3838105e-08
9.3914607e-08
9.3987767e-08
9.4056272e-08
9.4118915e-08
9.4174444e-08
9.422179e-08
9.4260368e-08
9.4289842e-08
9.4310396e-08
9.4322787e-08
9.4327666e-08
9.4325674e-08
9.4317818e-08
9.4305339e-08
9.4289491e-08
9.4271498e-08
9.4252617e-08
9.4234046e-08
9.4216649e-08
9.4201045e-08
9.4188049e-08
9.4177965e-08
9.4170653e-08
9.4166439e-08
9.4165935e-08
9.4167813e-08
9.4173065e-08
9.4180413e-08
9.4190381e-08
9.4202191e-08
9.4216255e-08
9.4228651e-08
9.276179e-08
9.2812038e-08
9.2864208e-08
9.2918877e-08
9.2976402e-08
9.3037097e-08
9.3101101e-08
9.3168554e-08
9.3239502e-08
9.3313635e-08
9.3391059e-08
9.3471556e-08
9.3554444e-08
9.3638968e-08
9.3724441e-08
9.3809644e-08
9.3893154e-08
9.3973918e-08
9.4050784e-08
9.412231e-08
9.4187167e-08
9.4243998e-08
9.4291655e-08
9.4329494e-08
9.4357071e-08
9.4374429e-08
9.438237e-08
9.4381548e-08
9.437266e-08
9.4356786e-08
9.433523e-08
9.4309346e-08
9.4280512e-08
9.4250002e-08
9.4219098e-08
9.4188874e-08
9.4160148e-08
9.4133715e-08
9.4110048e-08
9.4089238e-08
9.4071569e-08
9.4057493e-08
9.404613e-08
9.4038142e-08
9.4032581e-08
9.4029757e-08
9.4029013e-08
9.4030647e-08
9.403141e-08
9.27562e-08
9.280957e-08
9.286518e-08
9.2923455e-08
9.2984925e-08
9.3049852e-08
9.3118403e-08
9.3190654e-08
9.3266695e-08
9.3346111e-08
9.342901e-08
9.3515146e-08
9.3603757e-08
9.3693996e-08
9.3785104e-08
9.3875747e-08
9.3964363e-08
9.4049783e-08
9.4130756e-08
9.4205708e-08
9.4273188e-08
9.4331736e-08
9.4380123e-08
9.4417648e-08
9.4443777e-08
9.445842e-08
9.4462412e-08
9.4456442e-08
9.4441211e-08
9.4417897e-08
9.4387914e-08
9.4352718e-08
9.4313819e-08
9.4272524e-08
9.4230199e-08
9.4188106e-08
9.4147242e-08
9.4108416e-08
9.4072247e-08
9.4039027e-08
9.4009023e-08
9.3982575e-08
9.3959162e-08
9.3939198e-08
9.3921999e-08
9.3907712e-08
9.3895777e-08
9.3886396e-08
9.3876894e-08
9.276137e-08
9.2817983e-08
9.2877181e-08
9.2939249e-08
9.300486e-08
9.3074238e-08
9.3147567e-08
9.3224872e-08
9.3306275e-08
9.339127e-08
9.3479959e-08
9.3572057e-08
9.366673e-08
9.3763034e-08
9.3860134e-08
9.3956583e-08
9.4050679e-08
9.4141139e-08
9.4226597e-08
9.4305353e-08
9.437583e-08
9.4436465e-08
9.4485945e-08
9.4523517e-08
9.4548567e-08
9.4560883e-08
9.4561328e-08
9.4550623e-08
9.4529505e-08
9.4499243e-08
9.446135e-08
9.4417385e-08
9.4368989e-08
9.4317526e-08
9.4264455e-08
9.4211213e-08
9.4158963e-08
9.4108543e-08
9.406071e-08
9.4015926e-08
9.3974465e-08
9.3936588e-08
9.3902066e-08
9.3871127e-08
9.3843298e-08
9.3818602e-08
9.3796562e-08
9.3777289e-08
9.3758608e-08
9.2776376e-08
9.2836379e-08
9.2899335e-08
9.2965403e-08
9.3035375e-08
9.3109441e-08
9.3187803e-08
9.3270441e-08
9.3357496e-08
9.3448386e-08
9.3543196e-08
9.3641599e-08
9.3742684e-08
9.3845416e-08
9.3948874e-08
9.4051497e-08
9.4151446e-08
9.4247317e-08
9.4337626e-08
9.4420542e-08
9.4494362e-08
9.4557418e-08
9.4608312e-08
9.4646237e-08
9.4670512e-08
9.4680814e-08
9.4678026e-08
9.4662912e-08
9.4636247e-08
9.4599393e-08
9.4553965e-08
9.450163e-08
9.4444155e-08
9.438298e-08
9.4319666e-08
9.4255813e-08
9.4192738e-08
9.4131328e-08
9.4072464e-08
9.4016763e-08
9.3964517e-08
9.3915939e-08
9.3871037e-08
9.3829903e-08
9.3792231e-08
9.3757954e-08
9.3726662e-08
9.3698384e-08
9.367138e-08
9.2800616e-08
9.2864177e-08
9.2931086e-08
9.300138e-08
9.3075951e-08
9.3154967e-08
9.3238639e-08
9.3326909e-08
9.341993e-08
9.351705e-08
9.3618331e-08
9.3723399e-08
9.3831263e-08
9.3940797e-08
9.4050988e-08
9.4160158e-08
9.4266333e-08
9.4367982e-08
9.4463496e-08
9.455091e-08
9.4628397e-08
9.4694177e-08
9.4746771e-08
9.4785314e-08
9.4809065e-08
9.4817603e-08
9.4811828e-08
9.4792548e-08
9.4760588e-08
9.4717402e-08
9.4664706e-08
9.4604277e-08
9.4538014e-08
9.4467445e-08
9.4394241e-08
9.4320157e-08
9.4246657e-08
9.4174691e-08
9.4105258e-08
9.4039114e-08
9.397658e-08
9.3917846e-08
9.3863115e-08
9.3812377e-08
9.3765466e-08
9.3722245e-08
9.3682361e-08
9.3645767e-08
9.3611108e-08
9.2833757e-08
9.2901066e-08
9.2972143e-08
9.3046907e-08
9.3126342e-08
9.3210589e-08
9.329987e-08
9.3394095e-08
9.3493417e-08
9.3597125e-08
9.3705247e-08
9.3817356e-08
9.3932384e-08
9.4049107e-08
9.4166415e-08
9.4282512e-08
9.4395286e-08
9.4503076e-08
9.4604141e-08
9.469638e-08
9.4777838e-08
9.4846623e-08
9.4901171e-08
9.4940563e-08
9.4963998e-08
9.4970972e-08
9.4962398e-08
9.4939132e-08
9.4902055e-08
9.485271e-08
9.479292e-08
9.4724575e-08
9.4649708e-08
9.4569947e-08
9.448708e-08
9.4403013e-08
9.4319352e-08
9.423712e-08
9.4157434e-08
9.4081173e-08
9.40087e-08
9.3940199e-08
9.3876035e-08
9.3816127e-08
9.3760422e-08
9.3708732e-08
9.3660751e-08
9.3616365e-08
9.3574558e-08
9.2875697e-08
9.2946965e-08
9.3022449e-08
9.3101949e-08
9.3186529e-08
9.3276313e-08
9.3371527e-08
9.3472051e-08
9.3578035e-08
9.3688708e-08
9.3804061e-08
9.3923608e-08
9.4046199e-08
9.4170513e-08
9.4295334e-08
9.4418746e-08
9.4538495e-08
9.4652785e-08
9.4759741e-08
9.4857122e-08
9.494284e-08
9.5014893e-08
9.5071627e-08
9.5112066e-08
9.5135359e-08
9.5140929e-08
9.5129696e-08
9.510257e-08
9.506049e-08
9.5005093e-08
9.4938305e-08
9.486214e-08
9.4778762e-08
9.4689913e-08
9.4597505e-08
9.450359e-08
9.4409915e-08
9.4317588e-08
9.4227835e-08
9.4141659e-08
9.4059467e-08
9.3981453e-08
9.390812e-08
9.3839339e-08
9.3775153e-08
9.3715332e-08
9.3659614e-08
9.3607819e-08
9.355924e-08
9.2926543e-08
9.3002e-08
9.3082151e-08
9.3166673e-08
9.3256706e-08
9.3352355e-08
9.345385e-08
9.3561042e-08
9.3674072e-08
9.3792111e-08
9.3915106e-08
9.4042509e-08
9.4173082e-08
9.4305402e-08
9.4438145e-08
9.4569265e-08
9.4696369e-08
9.481752e-08
9.4930702e-08
9.5033531e-08
9.5123788e-08
9.5199353e-08
9.5258483e-08
9.5300146e-08
9.5323441e-08
9.5327731e-08
9.5313943e-08
9.5283039e-08
9.523602e-08
9.5174617e-08
9.5100868e-08
9.5016907e-08
9.4925037e-08
9.4827122e-08
9.4725203e-08
9.4621481e-08
9.4517839e-08
9.4415479e-08
9.4315741e-08
9.4219738e-08
9.4127935e-08
9.4040546e-08
9.3958194e-08
9.3880719e-08
9.3808243e-08
9.374051e-08
9.3677294e-08
9.3618353e-08
9.3563263e-08
9.2986589e-08
9.3066486e-08
9.3151588e-08
9.324144e-08
9.3337258e-08
9.3439124e-08
9.3547274e-08
9.3661527e-08
9.3782013e-08
9.3907843e-08
9.4038915e-08
9.4174613e-08
9.4313607e-08
9.4454366e-08
9.4595451e-08
9.4734683e-08
9.4869527e-08
9.4997898e-08
9.5117636e-08
9.5226213e-08
9.5321274e-08
9.5400583e-08
9.5462304e-08
9.5505345e-08
9.5528763e-08
9.553187e-08
9.5515598e-08
9.548096e-08
9.5429026e-08
9.5361619e-08
9.5280889e-08
9.51891e-08
9.5088694e-08
9.4981665e-08
9.4870191e-08
9.4756619e-08
9.4642971e-08
9.453055e-08
9.4420809e-08
9.4314973e-08
9.4213568e-08
9.4116839e-08
9.4025516e-08
9.3939422e-08
9.3858749e-08
9.3783222e-08
9.3712647e-08
9.3646722e-08
9.3585288e-08
9.305631e-08
9.3140921e-08
9.323128e-08
9.3326796e-08
9.3428752e-08
9.3537216e-08
9.3652421e-08
9.3774157e-08
9.3902535e-08
9.4036609e-08
9.4176219e-08
9.4320674e-08
9.4468548e-08
9.4618197e-08
9.4768059e-08
9.4915817e-08
9.5058788e-08
9.5194738e-08
9.5321359e-08
9.5435976e-08
9.5536098e-08
9.5619368e-08
9.5683858e-08
9.5728416e-08
9.5752058e-08
9.5754056e-08
9.5735343e-08
9.5696988e-08
9.5640127e-08
9.5566679e-08
9.547891e-08
9.5379212e-08
9.5270175e-08
9.5153926e-08
9.5032787e-08
9.490925e-08
9.478548e-08
9.466289e-08
9.4543046e-08
9.4427283e-08
9.4316196e-08
9.4210072e-08
9.4109735e-08
9.4015005e-08
9.3926136e-08
9.3842838e-08
9.3764949e-08
9.3692108e-08
9.3624407e-08
9.3136363e-08
9.3225982e-08
9.332193e-08
9.3423467e-08
9.3531946e-08
9.3647414e-08
9.3770103e-08
9.3899773e-08
9.4036511e-08
9.4179308e-08
9.4327945e-08
9.4481645e-08
9.4638882e-08
9.4797891e-08
9.4956979e-08
9.5113687e-08
9.5265178e-08
9.5409066e-08
9.5542891e-08
9.5663832e-08
9.5769259e-08
9.5856696e-08
9.5924119e-08
9.5970316e-08
9.5994266e-08
9.5995209e-08
9.5974081e-08
9.5932001e-08
9.5870176e-08
9.579062e-08
9.5695718e-08
9.5587996e-08
9.5470188e-08
9.5344565e-08
9.5213594e-08
9.5079918e-08
9.4945844e-08
9.4812903e-08
9.468278e-08
9.4556919e-08
9.4435992e-08
9.4320335e-08
9.4210862e-08
9.4107398e-08
9.4010254e-08
9.3919131e-08
9.3833899e-08
9.3754135e-08
9.3680178e-08
9.3227588e-08
9.3322534e-08
9.342443e-08
9.3532374e-08
9.3647788e-08
9.3770697e-08
9.3901332e-08
9.4039418e-08
9.4185013e-08
9.4337046e-08
9.4495227e-08
9.4658689e-08
9.4825796e-08
9.4994657e-08
9.5163437e-08
9.5329528e-08
9.5489937e-08
9.5642119e-08
9.5783463e-08
9.5911001e-08
9.6021966e-08
9.6113761e-08
9.6184267e-08
9.623221e-08
9.6256538e-08
9.6256465e-08
9.6232931e-08
9.6187102e-08
9.6120257e-08
9.6034506e-08
9.5932353e-08
9.581646e-08
9.5689708e-08
9.5554517e-08
9.5413501e-08
9.5269457e-08
9.5124839e-08
9.4981302e-08
9.4840655e-08
9.4704457e-08
9.4573459e-08
9.4448057e-08
9.432925e-08
9.4216876e-08
9.41113e-08
9.4012221e-08
9.3919535e-08
9.3832761e-08
9.375248e-08
9.333103e-08
9.3431648e-08
9.3539881e-08
9.3654647e-08
9.377744e-08
9.3908261e-08
9.4047336e-08
9.4194354e-08
9.4349339e-08
9.4511153e-08
9.4679427e-08
9.4853197e-08
9.5030709e-08
9.5209934e-08
9.5388888e-08
9.5564806e-08
9.5734533e-08
9.5895363e-08
9.6044531e-08
9.6178925e-08
9.6295646e-08
9.6391976e-08
9.64657e-08
9.6515483e-08
9.6540245e-08
9.6539185e-08
9.651324e-08
9.6463626e-08
9.6391691e-08
9.6299644e-08
9.6190107e-08
9.6065877e-08
9.5929985e-08
9.5784998e-08
9.5633685e-08
9.5478998e-08
9.5323543e-08
9.5169109e-08
9.5017634e-08
9.4870793e-08
9.4729429e-08
9.4594003e-08
9.4465597e-08
9.4344072e-08
9.4229844e-08
9.4122613e-08
9.4022305e-08
9.3928377e-08
9.3841659e-08
9.3447961e-08
9.3554623e-08
9.3669615e-08
9.3791654e-08
9.3922304e-08
9.4061545e-08
9.4209592e-08
9.4366095e-08
9.453104e-08
9.4703214e-08
9.4882165e-08
9.5066818e-08
9.5255293e-08
9.5445417e-08
9.5635043e-08
9.5821241e-08
9.6000687e-08
9.6170513e-08
9.6327797e-08
9.646929e-08
9.6591965e-08
9.6692988e-08
9.6770049e-08
9.6821751e-08
9.6846992e-08
9.6844961e-08
9.6816595e-08
9.6763154e-08
9.6686057e-08
9.6587606e-08
9.6470542e-08
9.6337798e-08
9.619255e-08
9.6037517e-08
9.5875623e-08
9.5709981e-08
9.5543353e-08
9.537767e-08
9.5215008e-08
9.5057165e-08
9.4905079e-08
9.4759286e-08
9.4620952e-08
9.4489967e-08
9.4366797e-08
9.4251146e-08
9.4142971e-08
9.4041667e-08
9.3948319e-08
9.357992e-08
9.3693033e-08
9.3815242e-08
9.394504e-08
9.4084068e-08
9.4232275e-08
9.4389865e-08
9.4556446e-08
9.4731958e-08
9.491511e-08
9.5105351e-08
9.5301493e-08
9.5501517e-08
9.5703092e-08
9.5903902e-08
9.6100838e-08
9.6290404e-08
9.646956e-08
9.6635236e-08
9.6784049e-08
9.6912852e-08
9.7018703e-08
9.7099201e-08
9.7152886e-08
9.7178639e-08
9.7175648e-08
9.7144846e-08
9.7087536e-08
9.7005203e-08
9.6900244e-08
9.6775514e-08
9.6634077e-08
9.647925e-08
9.6313904e-08
9.6141123e-08
9.5964182e-08
9.5786008e-08
9.5608685e-08
9.5434433e-08
9.5265177e-08
9.5101961e-08
9.4945404e-08
9.4796757e-08
9.4655946e-08
9.452349e-08
9.4399102e-08
9.4282772e-08
9.4173828e-08
9.407363e-08
9.3728764e-08
9.3848771e-08
9.3978699e-08
9.4116787e-08
9.4264754e-08
9.4422518e-08
9.4590268e-08
9.4767562e-08
9.4954288e-08
9.5149069e-08
9.5351248e-08
9.5559511e-08
9.5771689e-08
9.5985284e-08
9.6197796e-08
9.640593e-08
9.6606007e-08
9.6794815e-08
9.6969133e-08
9.7125457e-08
9.726053e-08
9.7371317e-08
9.7455327e-08
9.751104e-08
9.7537327e-08
9.7533381e-08
9.7500131e-08
9.7438916e-08
9.7351286e-08
9.7239726e-08
9.7107203e-08
9.6956903e-08
9.6792276e-08
9.6616345e-08
9.6432356e-08
9.6243754e-08
9.6053635e-08
9.5864248e-08
9.5677964e-08
9.5496843e-08
9.5322042e-08
9.5154273e-08
9.4994871e-08
9.4843805e-08
9.4701651e-08
9.4568132e-08
9.4443276e-08
9.4326339e-08
9.421898e-08
9.3896731e-08
9.4024118e-08
9.4162315e-08
9.4309271e-08
9.4466791e-08
9.4634754e-08
9.4813326e-08
9.5002015e-08
9.5200644e-08
9.5407742e-08
9.5622538e-08
9.5843575e-08
9.6068528e-08
9.6294718e-08
9.6519449e-08
9.6739231e-08
9.6950195e-08
9.7148952e-08
9.733213e-08
9.7496114e-08
9.763756e-08
9.7753351e-08
9.784092e-08
9.7898686e-08
9.7925518e-08
9.7920619e-08
9.7884915e-08
9.7819773e-08
9.7726804e-08
9.7608576e-08
9.7468156e-08
9.7308842e-08
9.713421e-08
9.694743e-08
9.6751912e-08
9.6551279e-08
9.6348804e-08
9.6146909e-08
9.5948125e-08