/*--------------------------------*- C++ -*----------------------------------*\
| =========                 |                                                 |
| \\      /  F ield         | OpenFOAM: The Open Source CFD Toolbox           |
|  \\    /   O peration     | Version:  v2006                                 |
|   \\  /    A nd           | Website:  www.openfoam.com                      |
|    \\/     M anipulation  |                                                 |
\*---------------------------------------------------------------------------*/
FoamFile
{
    version     2.0;
    format      ascii;
    class       volScalarField;
    location    "500";
    object      nutMean;
}
// * * * * * * * * * * * * * * * * * * * * * * * * * * * * * * * * * * * * * //

dimensions      [0 2 -1 0 0 0 0];


internalField   nonuniform List<scalar> 
19765
(
1.0639541e-05
1.0576159e-05
1.0186097e-05
1.0136163e-05
1.0037095e-05
1.0109085e-05
9.9309616e-06
1.0022104e-05
9.8980125e-06
9.6272837e-06
9.6473607e-06
9.9438239e-06
1.0091689e-05
1.0219894e-05
1.0559669e-05
1.067051e-05
1.0558823e-05
1.0648302e-05
1.0989311e-05
1.1274769e-05
1.1441989e-05
1.1490472e-05
1.1619485e-05
1.1667244e-05
1.1680794e-05
1.1674982e-05
1.1650583e-05
1.1550862e-05
1.1533063e-05
1.1394451e-05
1.1154445e-05
1.0856934e-05
1.0848881e-05
1.0952008e-05
1.0805289e-05
1.0479821e-05
1.0434601e-05
1.0355497e-05
1.0084301e-05
1.0126405e-05
1.0422657e-05
1.0542417e-05
1.04799e-05
1.0739403e-05
1.0636032e-05
1.0827064e-05
1.0824027e-05
1.0795383e-05
1.0684814e-05
6.2526087e-05
6.6606079e-05
6.8310257e-05
6.9382838e-05
7.0875079e-05
7.2394561e-05
7.3880035e-05
7.5294826e-05
7.6821355e-05
7.7914452e-05
7.9313461e-05
8.0938409e-05
8.2219857e-05
8.3240901e-05
8.4363463e-05
8.5058657e-05
8.5194581e-05
8.5569553e-05
8.6347866e-05
8.7109451e-05
8.7628192e-05
8.7650005e-05
8.7601419e-05
8.789039e-05
8.8140752e-05
8.7833034e-05
8.7364688e-05
8.7133443e-05
8.6894138e-05
8.6484926e-05
8.5984097e-05
8.5423629e-05
8.5038067e-05
8.4548072e-05
8.3598402e-05
8.2406775e-05
8.1347605e-05
8.0019726e-05
7.8427703e-05
7.7130244e-05
7.5936362e-05
7.3909479e-05
7.1850872e-05
6.9271158e-05
6.6823168e-05
6.2749912e-05
5.7848137e-05
5.2576272e-05
4.8674537e-05
2.261992e-05
2.1134492e-05
2.0051442e-05
1.9939296e-05
1.9636046e-05
1.9322014e-05
1.8788703e-05
1.8547183e-05
1.7981352e-05
1.7750463e-05
1.7649732e-05
1.7313252e-05
1.6778395e-05
1.6308469e-05
1.5732084e-05
1.5028515e-05
1.4537965e-05
1.4252186e-05
1.3972425e-05
1.3657022e-05
1.3318885e-05
1.3008011e-05
1.2747971e-05
1.2563867e-05
1.2575033e-05
1.2779192e-05
1.296928e-05
1.3207754e-05
1.3639179e-05
1.4112079e-05
1.456754e-05
1.4978278e-05
1.5337565e-05
1.5972386e-05
1.6780091e-05
1.742386e-05
1.7900245e-05
1.855705e-05
1.9012438e-05
1.9176044e-05
1.9561887e-05
2.0322393e-05
2.0654311e-05
2.1420304e-05
2.1900791e-05
2.2837727e-05
2.4161887e-05
2.5955145e-05
2.7141556e-05
1.0741743e-06
9.0070545e-07
7.8845534e-07
7.4311293e-07
6.9864892e-07
6.5994898e-07
6.1811657e-07
5.9116381e-07
5.5685132e-07
5.3470146e-07
5.1759127e-07
4.950961e-07
4.6893939e-07
4.4676866e-07
4.2456737e-07
4.017538e-07
3.8586323e-07
3.7571853e-07
3.660823e-07
3.5636572e-07
3.4753792e-07
3.3992243e-07
3.3395106e-07
3.3103341e-07
3.3345243e-07
3.4078948e-07
3.4844416e-07
3.5801945e-07
3.7265569e-07
3.8940122e-07
4.0729535e-07
4.2555295e-07
4.4402328e-07
4.7106689e-07
5.0527479e-07
5.3829864e-07
5.7002801e-07
6.1022226e-07
6.4675955e-07
6.7672762e-07
7.1839478e-07
7.7859286e-07
8.2980522e-07
9.1297788e-07
9.9315145e-07
1.1111693e-06
1.253924e-06
1.4292325e-06
1.6230602e-06
1.6715329e-07
1.6508248e-07
1.6402381e-07
1.6495612e-07
1.6572915e-07
1.664261e-07
1.665569e-07
1.6724899e-07
1.6711364e-07
1.6756763e-07
1.6835388e-07
1.6859382e-07
1.6833609e-07
1.6822589e-07
1.6783968e-07
1.6707205e-07
1.6676144e-07
1.6692965e-07
1.670199e-07
1.6708798e-07
1.6726087e-07
1.6737419e-07
1.6773907e-07
1.685836e-07
1.7002881e-07
1.7199524e-07
1.7394603e-07
1.7609228e-07
1.7879565e-07
1.8163727e-07
1.8448779e-07
1.872422e-07
1.8977712e-07
1.9301326e-07
1.9671417e-07
1.9992062e-07
2.0257819e-07
2.0565788e-07
2.0807236e-07
2.0961768e-07
2.1179822e-07
2.1481386e-07
2.167451e-07
2.2007789e-07
2.2266349e-07
2.263518e-07
2.3009436e-07
2.336216e-07
2.3607452e-07
1.4056889e-07
1.3999186e-07
1.3988333e-07
1.4052381e-07
1.4088038e-07
1.4126138e-07
1.4144717e-07
1.418402e-07
1.4190189e-07
1.4229148e-07
1.426247e-07
1.4267802e-07
1.4258632e-07
1.425371e-07
1.4234643e-07
1.4210215e-07
1.4211244e-07
1.4229019e-07
1.4243058e-07
1.4261636e-07
1.4290053e-07
1.4320971e-07
1.4367037e-07
1.4439144e-07
1.4544664e-07
1.4682933e-07
1.4828278e-07
1.4985917e-07
1.5173828e-07
1.5376362e-07
1.5585517e-07
1.579694e-07
1.5996172e-07
1.6219027e-07
1.6469592e-07
1.6714e-07
1.6928142e-07
1.7153302e-07
1.7362815e-07
1.7527191e-07
1.7688083e-07
1.7903486e-07
1.8069442e-07
1.8296176e-07
1.8500091e-07
1.8749001e-07
1.9017672e-07
1.9310491e-07
1.9579175e-07
1.2216645e-07
1.2184659e-07
1.2172395e-07
1.220102e-07
1.2214776e-07
1.2229359e-07
1.2233799e-07
1.2250211e-07
1.2249478e-07
1.2267398e-07
1.2284324e-07
1.2286729e-07
1.2281925e-07
1.2280562e-07
1.2272516e-07
1.2262166e-07
1.226741e-07
1.2284325e-07
1.2300834e-07
1.2320935e-07
1.234799e-07
1.2378131e-07
1.2417768e-07
1.2472627e-07
1.2549205e-07
1.2646418e-07
1.2748868e-07
1.2860655e-07
1.2991999e-07
1.3133315e-07
1.3280245e-07
1.342983e-07
1.3574283e-07
1.37349e-07
1.3913444e-07
1.4089306e-07
1.4249191e-07
1.4417041e-07
1.4576569e-07
1.4710401e-07
1.4844435e-07
1.5009953e-07
1.5147352e-07
1.5319491e-07
1.5477615e-07
1.5659979e-07
1.5850625e-07
1.605014e-07
1.6230761e-07
1.1289826e-07
1.1264963e-07
1.1253393e-07
1.1266481e-07
1.1271723e-07
1.1278024e-07
1.1278942e-07
1.128686e-07
1.1285472e-07
1.1294713e-07
1.1303679e-07
1.130507e-07
1.1302992e-07
1.1303392e-07
1.1300865e-07
1.1297909e-07
1.1304419e-07
1.1318401e-07
1.1333358e-07
1.1351624e-07
1.1375297e-07
1.1402451e-07
1.1436396e-07
1.1480342e-07
1.1538934e-07
1.1611748e-07
1.1689584e-07
1.1774823e-07
1.1873327e-07
1.1979587e-07
1.2091102e-07
1.2206e-07
1.2319559e-07
1.2444172e-07
1.258103e-07
1.2717888e-07
1.2846427e-07
1.2980641e-07
1.311089e-07
1.322629e-07
1.334199e-07
1.3477837e-07
1.3597461e-07
1.3739716e-07
1.3875151e-07
1.4027963e-07
1.4189155e-07
1.4360534e-07
1.4523225e-07
1.0656139e-07
1.0639093e-07
1.0629447e-07
1.0634886e-07
1.0635759e-07
1.0637421e-07
1.063609e-07
1.0639215e-07
1.0637109e-07
1.0641602e-07
1.0646363e-07
1.0647125e-07
1.0646345e-07
1.0647574e-07
1.0647717e-07
1.0648253e-07
1.0655034e-07
1.0666989e-07
1.0680319e-07
1.069641e-07
1.0716579e-07
1.0739762e-07
1.076767e-07
1.0802087e-07
1.0846612e-07
1.0901134e-07
1.0959814e-07
1.1024198e-07
1.1097945e-07
1.1177681e-07
1.1261912e-07
1.1349415e-07
1.1437245e-07
1.1533072e-07
1.1637612e-07
1.1743118e-07
1.1844318e-07
1.1949872e-07
1.2053583e-07
1.2148326e-07
1.2243728e-07
1.2352162e-07
1.2450422e-07
1.2563184e-07
1.2671446e-07
1.2790623e-07
1.2914673e-07
1.3044456e-07
1.3167056e-07
1.0252905e-07
1.0240825e-07
1.023343e-07
1.0235681e-07
1.0235177e-07
1.0235296e-07
1.0233685e-07
1.0234974e-07
1.0233221e-07
1.0235699e-07
1.0238579e-07
1.0239316e-07
1.0239437e-07
1.0241139e-07
1.0242599e-07
1.0244744e-07
1.0251155e-07
1.026124e-07
1.0272729e-07
1.0286482e-07
1.0303362e-07
1.0322792e-07
1.0345731e-07
1.0373215e-07
1.0407874e-07
1.044978e-07
1.0495152e-07
1.0545028e-07
1.060179e-07
1.0663323e-07
1.0728688e-07
1.0797078e-07
1.0866585e-07
1.0942132e-07
1.102423e-07
1.1107829e-07
1.1189376e-07
1.1274413e-07
1.1358867e-07
1.1437863e-07
1.1517583e-07
1.1606383e-07
1.1688779e-07
1.1781277e-07
1.1871261e-07
1.1969222e-07
1.2071303e-07
1.2178579e-07
1.2281591e-07
9.9763895e-08
9.9679941e-08
9.962504e-08
9.9633347e-08
9.9624561e-08
9.9620498e-08
9.9606339e-08
9.9611955e-08
9.959967e-08
9.961581e-08
9.9636579e-08
9.96462e-08
9.9654471e-08
9.9675463e-08
9.9698044e-08
9.9728125e-08
9.9788297e-08
9.987522e-08
9.997485e-08
1.0009264e-07
1.0023427e-07
1.0039642e-07
1.0058451e-07
1.0080462e-07
1.0107601e-07
1.0140055e-07
1.0175344e-07
1.0214188e-07
1.0258184e-07
1.0305957e-07
1.0356912e-07
1.0410527e-07
1.0465545e-07
1.0525217e-07
1.0589892e-07
1.0656168e-07
1.0721606e-07
1.0789856e-07
1.0858132e-07
1.0923012e-07
1.0988627e-07
1.1060577e-07
1.1128298e-07
1.1202946e-07
1.1275876e-07
1.1354206e-07
1.1435239e-07
1.151968e-07
1.1600608e-07
9.7837532e-08
9.7781869e-08
9.774464e-08
9.7749699e-08
9.7743739e-08
9.774142e-08
9.7733095e-08
9.7738541e-08
9.7733325e-08
9.7747708e-08
9.7766531e-08
9.7779866e-08
9.7794153e-08
9.7818626e-08
9.7846335e-08
9.7881149e-08
9.7937635e-08
9.8013861e-08
9.8100932e-08
9.8202367e-08
9.8321961e-08
9.8457739e-08
9.8612916e-08
9.8791121e-08
9.9006205e-08
9.9260709e-08
9.9538284e-08
9.9844076e-08
1.0018892e-07
1.0056376e-07
1.0096499e-07
1.013893e-07
1.018282e-07
1.0230362e-07
1.0281812e-07
1.0334828e-07
1.0387691e-07
1.0442866e-07
1.0498421e-07
1.0551892e-07
1.060607e-07
1.0664887e-07
1.0720914e-07
1.0781945e-07
1.0841924e-07
1.0905877e-07
1.097194e-07
1.1040788e-07
1.1107091e-07
9.6465392e-08
9.6430334e-08
9.6407081e-08
9.641275e-08
9.6411307e-08
9.6412757e-08
9.6410755e-08
9.6418701e-08
9.642041e-08
9.6436091e-08
9.6455918e-08
9.6473496e-08
9.6493127e-08
9.6520975e-08
9.6552591e-08
9.6590505e-08
9.6644258e-08
9.6712696e-08
9.679004e-08
9.6878557e-08
9.6980767e-08
9.7095415e-08
9.7224405e-08
9.7369872e-08
9.7541713e-08
9.7742846e-08
9.7962569e-08
9.8204553e-08
9.8476086e-08
9.8771374e-08
9.9088459e-08
9.9425181e-08
9.9775546e-08
1.0015456e-07
1.0056416e-07
1.0098805e-07
1.0141401e-07
1.0185903e-07
1.0230942e-07
1.0274714e-07
1.0319144e-07
1.0366984e-07
1.0412932e-07
1.0462469e-07
1.0511267e-07
1.0562867e-07
1.0615914e-07
1.0670907e-07
1.0723752e-07
9.5467426e-08
9.5448644e-08
9.5437394e-08
9.5446186e-08
9.5450321e-08
9.5456823e-08
9.5461443e-08
9.5473428e-08
9.5481906e-08
9.5500587e-08
9.552302e-08
9.554505e-08
9.5569565e-08
9.5600726e-08
9.5635628e-08
9.5675904e-08
9.5727843e-08
9.5790721e-08
9.5860692e-08
9.5939181e-08
9.6027833e-08
9.6125771e-08
9.6234101e-08
9.6354035e-08
9.6492585e-08
9.6652816e-08
9.6827847e-08
9.702022e-08
9.7234756e-08
9.7468299e-08
9.7719844e-08
9.7987644e-08
9.8267292e-08
9.8569403e-08
9.8895718e-08
9.9234897e-08
9.9578153e-08
9.9937386e-08
1.0030274e-07
1.0066081e-07
1.0102492e-07
1.0141484e-07
1.0179202e-07
1.0219574e-07
1.0259463e-07
1.0301422e-07
1.034446e-07
1.0389012e-07
1.0431828e-07
9.473386e-08
9.4727334e-08
9.4725673e-08
9.4738169e-08
9.4747704e-08
9.4759277e-08
9.4770027e-08
9.4786436e-08
9.4801107e-08
9.4823455e-08
9.4849217e-08
9.487565e-08
9.4904689e-08
9.4939145e-08
9.4977072e-08
9.5019474e-08
9.5070478e-08
9.512959e-08
9.519417e-08
9.5265058e-08
9.5343277e-08
9.5428127e-08
9.5520188e-08
9.5620081e-08
9.5732739e-08
9.5861212e-08
9.6001227e-08
9.6154377e-08
9.6323892e-08
9.6508976e-08
9.6708516e-08
9.6920735e-08
9.7142679e-08
9.7382397e-08
9.76416e-08
9.7912299e-08
9.8188033e-08
9.8477136e-08
9.8772397e-08
9.9063747e-08
9.9360502e-08
9.9676872e-08
9.9984573e-08
1.0031188e-07
1.0063575e-07
1.0097458e-07
1.0132092e-07
1.0167816e-07
1.0202048e-07
9.4186635e-08
9.4189942e-08
9.4196379e-08
9.4212951e-08
9.4227721e-08
9.424432e-08
9.4260813e-08
9.4281797e-08
9.4302206e-08
9.4328552e-08
9.4358014e-08
9.4388773e-08
9.4422097e-08
9.4459869e-08
9.4500745e-08
9.4545277e-08
9.459612e-08
9.4652886e-08
9.4713699e-08
9.4778972e-08
9.4849271e-08
9.4923965e-08
9.5003267e-08
9.5087408e-08
9.5179836e-08
9.5283464e-08
9.5395793e-08
9.5517545e-08
9.5651332e-08
9.5798172e-08
9.595561e-08
9.6122245e-08
9.6297004e-08
9.6486337e-08
9.6691636e-08
9.6907011e-08
9.7127576e-08
9.7359223e-08
9.7596693e-08
9.7832415e-08
9.8072965e-08
9.8328722e-08
9.8578704e-08
9.8843502e-08
9.910604e-08
9.9379713e-08
9.9658876e-08
9.994638e-08
1.0022128e-07
9.3776036e-08
9.3787075e-08
9.3800179e-08
9.3820692e-08
9.3840261e-08
9.3861559e-08
9.3883279e-08
9.3908718e-08
9.3934388e-08
9.3964803e-08
9.3998111e-08
9.4033089e-08
9.4070532e-08
9.4111666e-08
9.4155526e-08
9.4202325e-08
9.4253683e-08
9.4309253e-08
9.4367636e-08
9.442892e-08
9.4493327e-08
9.4560229e-08
9.4629569e-08
9.4701316e-08
9.4777852e-08
9.4861873e-08
9.4952066e-08
9.5048201e-08
9.5153719e-08
9.5269555e-08
9.5391998e-08
9.5521097e-08
9.5657705e-08
9.5806433e-08
9.5967916e-08
9.6137739e-08
9.6312339e-08
9.649606e-08
9.6685142e-08
9.6873908e-08
9.7067039e-08
9.7272122e-08
9.7473478e-08
9.7686139e-08
9.7897322e-08
9.8116777e-08
9.8340132e-08
9.8569669e-08
9.8788368e-08
9.3465414e-08
9.3482826e-08
9.3501647e-08
9.3525995e-08
9.3550043e-08
9.3575788e-08
9.3602357e-08
9.3632134e-08
9.3662717e-08
9.3697224e-08
9.3734458e-08
9.3773592e-08
9.3815074e-08
9.3859656e-08
9.3906608e-08
9.3955878e-08
9.4008349e-08
9.4063666e-08
9.4120724e-08
9.4179355e-08
9.4239512e-08
9.4300531e-08
9.4362149e-08
9.4424158e-08
9.4488163e-08
9.45566e-08
9.4628897e-08
9.4705816e-08
9.4787103e-08
9.487535e-08
9.4969145e-08
9.5068636e-08
9.5174962e-08
9.5290332e-08
9.5415205e-08
9.554675e-08
9.5682644e-08
9.5826206e-08
9.5974756e-08
9.6124019e-08
9.6277304e-08
9.644017e-08
9.6600829e-08
9.6770301e-08
9.6938957e-08
9.7113927e-08
9.7291794e-08
9.7474446e-08
9.7647899e-08
9.3230119e-08
9.32528e-08
9.3276528e-08
9.3304506e-08
9.33327e-08
9.3362621e-08
9.3393699e-08
9.3427667e-08
9.3462881e-08
9.3501467e-08
9.3542675e-08
9.3585935e-08
9.3631439e-08
9.3679584e-08
9.3729782e-08
9.3781768e-08
9.3835884e-08
9.3891738e-08
9.3948395e-08
9.4005481e-08
9.4062727e-08
9.4119413e-08
9.4175112e-08
9.422949e-08
9.4283585e-08
9.4339546e-08
9.4397237e-08
9.4459688e-08
9.4527364e-08
9.4587411e-08
9.4655401e-08
9.4731403e-08
9.4812262e-08
9.4898863e-08
9.4992489e-08
9.5091731e-08
9.5195083e-08
9.5305002e-08
9.5419543e-08
9.5535467e-08
9.5655104e-08
9.5782522e-08
9.5908839e-08
9.6042134e-08
9.6175118e-08
9.6312987e-08
9.6453039e-08
9.6596802e-08
9.6732763e-08
9.3051701e-08
9.307891e-08
9.3106997e-08
9.3138463e-08
9.3170574e-08
9.3204486e-08
9.3239843e-08
9.327791e-08
9.3317575e-08
9.336025e-08
9.3405493e-08
9.3452903e-08
9.350247e-08
9.3554328e-08
9.3607962e-08
9.3662935e-08
9.3719177e-08
9.3776241e-08
9.3833282e-08
9.3889748e-08
9.3945187e-08
9.3998807e-08
9.4050045e-08
9.4098478e-08
9.4144724e-08
9.4190631e-08
9.4235438e-08
9.428024e-08
9.4333427e-08
9.4383795e-08
9.4431546e-08
9.4485184e-08
9.4541788e-08
9.4603192e-08
9.4670553e-08
9.4742805e-08
9.4818817e-08
9.4900401e-08
9.498619e-08
9.5073775e-08
9.5164809e-08
9.5262279e-08
9.5359495e-08
9.5462385e-08
9.5565414e-08
9.5672368e-08
9.5781088e-08
9.5892831e-08
9.5998056e-08
9.2917188e-08
9.2948358e-08
9.2980374e-08
9.3015201e-08
9.3051044e-08
9.3088803e-08
9.3128275e-08
9.3170381e-08
9.3214387e-08
9.3261185e-08
9.3310543e-08
9.3362167e-08
9.3415891e-08
9.3471637e-08
9.3528926e-08
9.358717e-08
9.364598e-08
9.3704842e-08
9.3762943e-08
9.3819575e-08
9.3874124e-08
9.3925721e-08
9.3973689e-08
9.4017535e-08
9.4057559e-08
9.4095271e-08
9.4131532e-08
9.4163762e-08
9.4193787e-08
9.4231718e-08
9.4269994e-08
9.4306026e-08
9.4343115e-08
9.4383541e-08
9.4428779e-08
9.4478056e-08
9.4530671e-08
9.4588013e-08
9.4649181e-08
9.4712424e-08
9.4778923e-08
9.4850864e-08
9.4923223e-08
9.5000329e-08
9.5077972e-08
9.5158888e-08
9.5241333e-08
9.5326326e-08
9.5405948e-08
9.2816788e-08
9.2851543e-08
9.2887205e-08
9.2925322e-08
9.2964793e-08
9.3006325e-08
9.3049826e-08
9.3095965e-08
9.3144276e-08
9.3195269e-08
9.3248854e-08
9.3304802e-08
9.3362817e-08
9.3422655e-08
9.348384e-08
9.3545651e-08
9.3607443e-08
9.3668624e-08
9.3728376e-08
9.3785846e-08
9.384028e-08
9.3890723e-08
9.3936397e-08
9.3976754e-08
9.4011852e-08
9.4042949e-08
9.4070614e-08
9.4096093e-08
9.411685e-08
9.4137359e-08
9.4158965e-08
9.4179674e-08
9.420082e-08
9.4224224e-08
9.4250827e-08
9.4280397e-08
9.4312798e-08
9.4349212e-08
9.4389127e-08
9.4431319e-08
9.4476634e-08
9.452667e-08
9.4577672e-08
9.4632789e-08
9.4688814e-08
9.4747708e-08
9.4808051e-08
9.4870667e-08
9.4928968e-08
9.2743399e-08
9.2781473e-08
9.2820588e-08
9.2861959e-08
9.2905003e-08
9.2950281e-08
9.2997784e-08
9.3047991e-08
9.3100631e-08
9.3155923e-08
9.3213875e-08
9.3274293e-08
9.3336773e-08
9.340093e-08
9.3466271e-08
9.3531953e-08
9.3597118e-08
9.3661091e-08
9.3723018e-08
9.3781915e-08
9.3836893e-08
9.3886912e-08
9.3931101e-08
9.3968865e-08
9.4000075e-08
9.4025716e-08
9.4046632e-08
9.4063091e-08
9.4076327e-08
9.4086482e-08
9.4094215e-08
9.4100858e-08
9.4107354e-08
9.4115015e-08
9.4124829e-08
9.4137044e-08
9.4151744e-08
9.4169899e-08
9.4191287e-08
9.4215103e-08
9.4241961e-08
9.4273021e-08
9.4305512e-08
9.4341697e-08
9.4379141e-08
9.4419223e-08
9.4460778e-08
9.4504461e-08
9.454479e-08
9.2691636e-08
9.2732872e-08
9.2775335e-08
9.2819971e-08
9.2866589e-08
9.291564e-08
9.2967174e-08
9.302153e-08
9.3078573e-08
9.3138306e-08
9.3200798e-08
9.3265868e-08
9.3333017e-08
9.3401742e-08
9.3471514e-08
9.3541378e-08
9.3610294e-08
9.3677495e-08
9.3742072e-08
9.3802913e-08
9.3859006e-08
9.3909221e-08
9.39526e-08
9.3988507e-08
9.4016663e-08
9.4037816e-08
9.4052852e-08
9.4062283e-08
9.4066624e-08
9.4066696e-08
9.4063623e-08
9.4058454e-08
9.4052191e-08
9.4046098e-08
9.4041245e-08
9.403817e-08
9.4037224e-08
9.4039265e-08
9.4044318e-08
9.4051921e-08
9.4062531e-08
9.4076988e-08
9.4093281e-08
9.4113016e-08
9.4134349e-08
9.4158229e-08
9.4183689e-08
9.4211244e-08
9.4236331e-08
9.2657529e-08
9.2701842e-08
9.2747608e-08
9.2795555e-08
9.2845791e-08
9.2898681e-08
9.2954323e-08
9.3012944e-08
9.3074513e-08
9.3138858e-08
9.3206091e-08
9.3276024e-08
9.3348077e-08
9.3421638e-08
9.3496133e-08
9.3570498e-08
9.364353e-08
9.3714367e-08
9.378203e-08
9.3845281e-08
9.3902989e-08
9.3953933e-08
9.3997071e-08
9.4031728e-08
9.4057505e-08
9.4074926e-08
9.4084945e-08
9.4088056e-08
9.4084875e-08
9.4076285e-08
9.4063429e-08
9.4047492e-08
9.4029654e-08
9.4011144e-08
9.3993095e-08
9.3976294e-08
9.3961313e-08
9.3948946e-08
9.3939419e-08
9.393255e-08
9.3928695e-08
9.3928458e-08
9.3930426e-08
9.3935708e-08
9.3942923e-08
9.3952692e-08
9.3964211e-08
9.3977869e-08
9.3989877e-08
9.263808e-08
9.2685448e-08
9.273453e-08
9.2785872e-08
9.2839809e-08
9.2896647e-08
9.2956514e-08
9.3019555e-08
9.3085809e-08
9.3154971e-08
9.3227171e-08
9.3302208e-08
9.3379424e-08
9.3458109e-08
9.3537632e-08
9.3616822e-08
9.369433e-08
9.3769193e-08
9.3840345e-08
9.3906431e-08
9.3966198e-08
9.4018334e-08
9.4061717e-08
9.409563e-08
9.4119575e-08
9.4133874e-08
9.4139519e-08
9.4137052e-08
9.4127077e-08
9.4110588e-08
9.4088843e-08
9.4063126e-08
9.4034748e-08
9.4004934e-08
9.3974891e-08
9.3945622e-08
9.3917895e-08
9.3892476e-08
9.3869767e-08
9.3849819e-08
9.3832927e-08
9.3819527e-08
9.3808674e-08
9.3801109e-08
9.3795808e-08
9.3793151e-08
9.379246e-08
9.3794016e-08
9.3794685e-08
9.2631079e-08
9.268153e-08
9.2733985e-08
9.2788833e-08
9.2846593e-08
9.2907518e-08
9.2971765e-08
9.3039411e-08
9.3110545e-08
9.3184755e-08
9.3262176e-08
9.3342583e-08
9.3425244e-08
9.3509358e-08
9.3594226e-08
9.3678575e-08
9.3760914e-08
9.3840177e-08
9.3915204e-08
9.3984514e-08
9.4046742e-08
9.4100479e-08
9.4144522e-08
9.4178116e-08
9.4200674e-08
9.4212342e-08
9.4214132e-08
9.4206635e-08
9.4190478e-08
9.4166756e-08
9.4136823e-08
9.4102061e-08
9.4063915e-08
9.4023635e-08
9.3982514e-08
9.3941743e-08
9.3902268e-08
9.3864856e-08
9.383006e-08
9.3798132e-08
9.3769335e-08
9.3743985e-08
9.372151e-08
9.3702375e-08
9.3685838e-08
9.3672096e-08
9.3660572e-08
9.3651454e-08
9.3642164e-08
9.2634896e-08
9.26885e-08
9.2744424e-08
9.280292e-08
9.2864654e-08
9.292984e-08
9.2998653e-08
9.3071119e-08
9.314736e-08
9.3226876e-08
9.3309796e-08
9.3395864e-08
9.3484274e-08
9.3574138e-08
9.3664683e-08
9.375453e-08
9.3842057e-08
9.3926085e-08
9.4005351e-08
9.4078253e-08
9.4143308e-08
9.4199009e-08
9.4244075e-08
9.4277707e-08
9.4299245e-08
9.4308672e-08
9.4307018e-08
9.4294924e-08
9.427305e-08
9.4242589e-08
9.420499e-08
9.4161741e-08
9.4114413e-08
9.4064306e-08
9.4012802e-08
9.3961269e-08
9.3910812e-08
9.386222e-08
9.3816187e-08
9.3773132e-08
9.3733313e-08
9.3696964e-08
9.366381e-08
9.3634113e-08
9.3607351e-08
9.3583585e-08
9.3562322e-08
9.3543664e-08
9.3525511e-08
9.2648373e-08
9.2705233e-08
9.2764755e-08
9.2827067e-08
9.2892956e-08
9.2962602e-08
9.3036199e-08
9.3113727e-08
9.3195331e-08
9.3280436e-08
9.3369155e-08
9.3461196e-08
9.3555681e-08
9.3651633e-08
9.37482e-08
9.3843894e-08
9.3936965e-08
9.4026117e-08
9.4109976e-08
9.4186817e-08
9.4255037e-08
9.4313032e-08
9.4359439e-08
9.4393416e-08
9.4414232e-08
9.4421733e-08
9.4416956e-08
9.4400597e-08
9.4373358e-08
9.4336526e-08
9.429165e-08
9.4240321e-08
9.4184239e-08
9.4124769e-08
9.4063396e-08
9.4001645e-08
9.3940774e-08
9.3881613e-08
9.382498e-08
9.3771448e-08
9.3721281e-08
9.3674663e-08
9.3631561e-08
9.3592083e-08
9.3555886e-08
9.3522925e-08
9.3492778e-08
9.346547e-08
9.3439312e-08
9.2670715e-08
9.2730966e-08
9.2794244e-08
9.2860565e-08
9.2930815e-08
9.300515e-08
9.3083775e-08
9.3166634e-08
9.3253884e-08
9.3344884e-08
9.3439727e-08
9.3538075e-08
9.363898e-08
9.3741374e-08
9.384432e-08
9.3946222e-08
9.4045196e-08
9.4139827e-08
9.4228625e-08
9.4309736e-08
9.4381441e-08
9.444203e-08
9.4490061e-08
9.4524644e-08
9.4544986e-08
9.4550812e-08
9.4543162e-08
9.4522787e-08
9.4490442e-08
9.4447502e-08
9.439562e-08
9.4336495e-08
9.4271954e-08
9.4203446e-08
9.4132561e-08
9.4060978e-08
9.3990096e-08
9.3920803e-08
9.3854035e-08
9.3790499e-08
9.3730483e-08
9.3674142e-08
9.362164e-08
9.3572973e-08
9.3527942e-08
9.3486424e-08
9.3448053e-08
9.3412783e-08
9.3379289e-08
9.2701435e-08
9.2765236e-08
9.2832457e-08
9.2903002e-08
9.2977846e-08
9.3057122e-08
9.3141046e-08
9.322953e-08
9.3322735e-08
9.3419961e-08
9.3521273e-08
9.3626285e-08
9.3733974e-08
9.3843181e-08
9.3952878e-08
9.4061354e-08
9.4166596e-08
9.4267062e-08
9.4361137e-08
9.4446841e-08
9.452233e-08
9.4585792e-08
9.4635702e-08
9.4671118e-08
9.4691191e-08
9.4695541e-08
9.4685208e-08
9.4661001e-08
9.4623728e-08
9.4574859e-08
9.4516148e-08
9.4449408e-08
9.4376595e-08
9.4299252e-08
9.4219085e-08
9.4137919e-08
9.4057291e-08
9.3978158e-08
9.3901569e-08
9.3828355e-08
9.3758837e-08
9.3693161e-08
9.3631653e-08
9.3574232e-08
9.3520811e-08
9.347121e-08
9.3425111e-08
9.3382402e-08
9.3342079e-08
9.2740296e-08
9.2807833e-08
9.2879206e-08
9.2954213e-08
9.3033907e-08
9.3118403e-08
9.3207922e-08
9.3302349e-08
9.3401843e-08
9.350565e-08
9.36138e-08
9.3725853e-08
9.3840709e-08
9.3957117e-08
9.407395e-08
9.418938e-08
9.4301259e-08
9.4407916e-08
9.4507606e-08
9.4598215e-08
9.4677775e-08
9.474437e-08
9.4796389e-08
9.4832837e-08
9.4852811e-08
9.4855843e-08
9.484297e-08
9.4815056e-08
9.4772971e-08
9.4718279e-08
9.4652838e-08
9.4578578e-08
9.4497586e-08
9.4411513e-08
9.4322183e-08
9.4231568e-08
9.414134e-08
9.4052535e-08
9.3966313e-08
9.388362e-08
9.3804819e-08
9.3730062e-08
9.3659812e-08
9.3593931e-08
9.353243e-08
9.3475084e-08
9.3421615e-08
9.337185e-08
9.3325071e-08
9.2787281e-08
9.2858761e-08
9.2934521e-08
9.3014251e-08
9.3099076e-08
9.3189092e-08
9.3284528e-08
9.3385241e-08
9.3491384e-08
9.360215e-08
9.3717528e-08
9.3837022e-08
9.3959449e-08
9.4083464e-08
9.4207833e-08
9.4330606e-08
9.44495e-08
9.4562706e-08
9.4668343e-08
9.4764163e-08
9.4848072e-08
9.4918044e-08
9.4972383e-08
9.5010039e-08
9.5030055e-08
9.5031893e-08
9.5016581e-08
9.4985042e-08
9.4938209e-08
9.487774e-08
9.4805601e-08
9.4723845e-08
9.463469e-08
9.4539906e-08
9.4441442e-08
9.4341414e-08
9.424163e-08
9.4143214e-08
9.4047437e-08
9.3955353e-08
9.3867377e-08
9.3783676e-08
9.3704833e-08
9.3630673e-08
9.3561285e-08
9.3496414e-08
9.3435816e-08
9.3379259e-08
9.3326286e-08
9.284257e-08
9.291822e-08
9.2998626e-08
9.3083363e-08
9.3173622e-08
9.3269486e-08
9.3371186e-08
9.3478553e-08
9.3591731e-08
9.3709858e-08
9.3832879e-08
9.3960234e-08
9.4090658e-08
9.4222701e-08
9.435502e-08
9.4485537e-08
9.461183e-08
9.4731946e-08
9.4843865e-08
9.4945197e-08
9.5033722e-08
9.5107303e-08
9.5164157e-08
9.5203175e-08
9.5223353e-08
9.5224092e-08
9.5206411e-08
9.5171289e-08
9.5119728e-08
9.505348e-08
9.4974623e-08
9.4885333e-08
9.4787966e-08
9.4684417e-08
9.4576769e-08
9.4467281e-08
9.4357898e-08
9.424984e-08
9.4144489e-08
9.4043007e-08
9.3945864e-08
9.3853257e-08
9.3765871e-08
9.3683508e-08
9.3606327e-08
9.3534049e-08
9.3466461e-08
9.3403272e-08
9.3344271e-08
9.2906522e-08
9.2986594e-08
9.3071926e-08
9.3161976e-08
9.3258e-08
9.3360064e-08
9.3468402e-08
9.3582818e-08
9.3703441e-08
9.3829357e-08
9.3960461e-08
9.4096122e-08
9.4234987e-08
9.43755e-08
9.4516198e-08
9.4654873e-08
9.4788955e-08
9.4916346e-08
9.5034877e-08
9.5142018e-08
9.5235418e-08
9.5312828e-08
9.5372378e-08
9.5412897e-08
9.5433338e-08
9.5433048e-08
9.5413041e-08
9.5374349e-08
9.5318044e-08
9.5245976e-08
9.5160334e-08
9.5063425e-08
9.4957742e-08
9.4845314e-08
9.4728364e-08
9.4609297e-08
9.4490194e-08
9.4372383e-08
9.4257357e-08
9.4146384e-08
9.4039998e-08
9.3938431e-08
9.3842462e-08
9.3751883e-08
9.3666915e-08
9.3587259e-08
9.3512732e-08
9.3442987e-08
9.3378041e-08
9.2979675e-08
9.3064439e-08
9.3155006e-08
9.32507e-08
9.3352844e-08
9.3461487e-08
9.3576864e-08
9.3698751e-08
9.3827259e-08
9.3961419e-08
9.410107e-08
9.4245506e-08
9.4393278e-08
9.454272e-08
9.4692242e-08
9.4839498e-08
9.4981769e-08
9.5116801e-08
9.5242276e-08
9.5355518e-08
9.5454044e-08
9.5535492e-08
9.5597905e-08
9.5640051e-08
9.5660837e-08
9.5659572e-08
9.563726e-08
9.5594985e-08
9.5533893e-08
9.5455931e-08
9.5363404e-08
9.5258747e-08
9.5144599e-08
9.5023128e-08
9.48967e-08
9.4767871e-08
9.4638862e-08
9.4511115e-08
9.4386238e-08
9.4265605e-08
9.414982e-08
9.4039161e-08
9.3934491e-08
9.3835603e-08
9.3742772e-08
9.3655688e-08
9.3574193e-08
9.3497885e-08
9.3427003e-08
9.3062742e-08
9.3152495e-08
9.3248627e-08
9.3350324e-08
9.3458972e-08
9.3574602e-08
9.3697448e-08
9.3827258e-08
9.396412e-08
9.4107007e-08
9.4255696e-08
9.4409399e-08
9.4566569e-08
9.4725417e-08
9.4884224e-08
9.5040495e-08
9.5191358e-08
9.5334401e-08
9.5467148e-08
9.5586778e-08
9.5690672e-08
9.5776358e-08
9.5841789e-08
9.5885672e-08
9.5906874e-08
9.5904671e-08
9.5880057e-08
9.5834169e-08
9.5768226e-08
9.5684271e-08
9.5584729e-08
9.5472165e-08
9.5349364e-08
9.5218641e-08
9.5082512e-08
9.4943685e-08
9.4804524e-08
9.4666596e-08
9.4531625e-08
9.4401094e-08
9.4275685e-08
9.4155729e-08
9.4042167e-08
9.3934805e-08
9.3833964e-08
9.373933e-08
9.3650769e-08
9.3567825e-08
9.3490952e-08
9.3156622e-08
9.3251684e-08
9.3353743e-08
9.346183e-08
9.3577394e-08
9.370045e-08
9.3831228e-08
9.3969446e-08
9.4115161e-08
9.4267289e-08
9.4425536e-08
9.4589026e-08
9.4756104e-08
9.4924855e-08
9.509342e-08
9.5259152e-08
9.5419017e-08
9.5570439e-08
9.5710783e-08
9.5837078e-08
9.5946573e-08
9.6036684e-08
9.6105275e-08
9.6150994e-08
9.617267e-08
9.6169554e-08
9.6142629e-08
9.6093083e-08
9.6022209e-08
9.5932147e-08
9.5825438e-08
9.5704783e-08
9.5573113e-08
9.5432895e-08
9.52868e-08
9.5137691e-08
9.4988082e-08
9.4839669e-08
9.4694301e-08
9.4553574e-08
9.4418251e-08
9.4288724e-08
9.4166014e-08
9.4049942e-08
9.3940878e-08
9.3838504e-08
9.3742712e-08
9.3652988e-08
9.3570008e-08
9.3262417e-08
9.3363135e-08
9.3471514e-08
9.3586408e-08
9.3709336e-08
9.3840291e-08
9.3979498e-08
9.412664e-08
9.4281744e-08
9.4443658e-08
9.4612012e-08
9.4785835e-08
9.4963356e-08
9.5142526e-08
9.5321336e-08
9.5496981e-08
9.566626e-08
9.5826426e-08
9.5974685e-08
9.6107914e-08
9.6223229e-08
9.6317938e-08
9.6389819e-08
9.6437461e-08
9.6459658e-08
9.6455643e-08
9.6426389e-08
9.6373133e-08
9.6297239e-08
9.6200944e-08
9.6086904e-08
9.5957956e-08
9.581718e-08
9.5667196e-08
9.5510836e-08
9.5351121e-08
9.5190722e-08
9.5031471e-08
9.487535e-08
9.472407e-08
9.4578483e-08
9.4439052e-08
9.4306874e-08
9.4181795e-08
9.4064232e-08
9.3953868e-08
9.3850622e-08
9.3753921e-08
9.3664665e-08
9.3381454e-08
9.3488207e-08
9.360333e-08
9.3725486e-08
9.3856261e-08
9.3995625e-08
9.4143796e-08
9.4300419e-08
9.446548e-08
9.463776e-08
9.4816803e-08
9.5001532e-08
9.5190054e-08
9.5380176e-08
9.556973e-08
9.5755744e-08
9.5934847e-08
9.6104119e-08
9.6260597e-08
9.6401014e-08
9.6522353e-08
9.6621816e-08
9.6697101e-08
9.6746739e-08
9.6769494e-08
9.6764587e-08
9.6732983e-08
9.6675958e-08
9.6594953e-08
9.6492296e-08
9.6370757e-08
9.6233307e-08
9.6083172e-08
9.5923133e-08
9.5756181e-08
9.5585505e-08
9.5413934e-08
9.524345e-08
9.5076169e-08
9.4913926e-08
9.4757671e-08
9.4607942e-08
9.4465917e-08
9.4331473e-08
9.4205073e-08
9.4086406e-08
9.3975418e-08
9.3871474e-08
9.3775715e-08
9.3515321e-08
9.3628519e-08
9.3750852e-08
9.3880761e-08
9.4019907e-08
9.4168234e-08
9.4325945e-08
9.4492644e-08
9.4668274e-08
9.4851535e-08
9.5041881e-08
9.5238118e-08
9.543822e-08
9.5639842e-08
9.5840647e-08
9.603749e-08
9.6226822e-08
9.6405545e-08
9.6570532e-08
9.6718369e-08
9.6845914e-08
9.6950266e-08
9.702905e-08
9.7080744e-08
9.7104085e-08
9.7098288e-08
9.7064307e-08
9.7003461e-08
9.6917258e-08
9.6808114e-08
9.6678912e-08
9.653275e-08
9.6373001e-08
9.6202604e-08
9.6024717e-08
9.5842698e-08
9.5659544e-08
9.5477391e-08
9.5298501e-08
9.5124837e-08
9.4957457e-08
9.4796985e-08
9.4644678e-08
9.4500452e-08
9.4364822e-08
9.4237484e-08
9.4118416e-08
9.4006918e-08
9.3904386e-08
9.3665909e-08
9.3786001e-08
9.3916053e-08
9.4054254e-08
9.4202342e-08
9.4360229e-08
9.4528102e-08
9.4705519e-08
9.4892369e-08
9.5087267e-08
9.5289562e-08
9.5497937e-08
9.5710219e-08
9.5923901e-08
9.6136467e-08
9.6344591e-08
9.6544543e-08
9.6733045e-08
9.6906805e-08
9.7062267e-08
9.719617e-08
9.7305522e-08
9.7387877e-08
9.7441668e-08
9.7465612e-08
9.7458924e-08
9.7422546e-08
9.7357833e-08
9.7266357e-08
9.7150618e-08
9.7013601e-08
9.6858529e-08
9.6688915e-08
9.6507857e-08
9.6318684e-08
9.6124926e-08
9.5929751e-08
9.5735463e-08
9.5544478e-08
9.5358893e-08
9.5179883e-08
9.5008165e-08
9.4845083e-08
9.4690601e-08
9.4545284e-08
9.4408842e-08
9.4281286e-08
9.4161849e-08
9.4052207e-08
9.3835475e-08
9.3962955e-08
9.4101284e-08
9.4248365e-08
9.4406017e-08
9.4574115e-08
9.4752825e-08
9.4941651e-08
9.5140417e-08
9.5347648e-08
9.5562574e-08
9.578374e-08
9.6008819e-08
9.6235127e-08
9.6459961e-08
9.6679806e-08
9.6890746e-08
9.7089323e-08
9.7272084e-08
9.7435337e-08
9.7575714e-08
9.7690138e-08
9.777611e-08
9.7832021e-08
9.7856574e-08
9.7848993e-08
9.7810204e-08
9.7741594e-08
9.7644793e-08
9.7522374e-08
9.7377418e-08
9.7213261e-08
9.7033551e-08
9.6841541e-08
9.6640733e-08
9.6434832e-08
9.6227188e-08
9.6020277e-08