/*--------------------------------*- C++ -*----------------------------------*\
| =========                 |                                                 |
| \\      /  F ield         | OpenFOAM: The Open Source CFD Toolbox           |
|  \\    /   O peration     | Version:  v2006                                 |
|   \\  /    A nd           | Website:  www.openfoam.com                      |
|    \\/     M anipulation  |                                                 |
\*---------------------------------------------------------------------------*/
FoamFile
{
    version     2.0;
    format      ascii;
    class       volScalarField;
    location    "500";
    object      omega;
}
// * * * * * * * * * * * * * * * * * * * * * * * * * * * * * * * * * * * * * //

dimensions      [0 0 -1 0 0 0 0];


internalField   nonuniform List<scalar> 
19765
(
16.466729
16.741082
17.509429
17.64172
17.926779
17.908348
18.393318
18.317335
18.724323
19.294404
19.238462
18.705759
18.504318
18.296248
17.78458
17.718266
17.962192
17.84943
17.392537
17.040893
16.868533
16.842422
16.704839
16.709441
16.765472
16.826446
16.946461
17.214738
17.345056
17.668531
18.184548
18.84558
19.075517
19.035131
19.364121
20.091902
20.383452
20.668588
21.414362
21.613538
21.197323
21.005205
21.277971
20.730426
20.941599
20.517623
20.440806
20.36954
20.410295
3.115412
2.9892283
2.9167871
2.9479595
2.9528598
2.9575583
2.9420942
2.9611226
2.9494003
2.9855089
3.0188191
3.0112282
2.9838379
2.9611171
2.9202759
2.8792307
2.8724899
2.8734373
2.8563141
2.8268097
2.7975168
2.7861994
2.7786229
2.7694594
2.782993
2.832896
2.8873228
2.9405503
3.0165696
3.1019013
3.1853237
3.2613653
3.3186733
3.4073833
3.5293966
3.6369091
3.7125106
3.8134808
3.8942242
3.9254085
3.9806529
4.0927558
4.1365704
4.2579265
4.3456504
4.630064
4.9916169
5.4111039
5.7345338
1.0812162
1.0755285
1.0787167
1.1067693
1.1215607
1.1348458
1.1392869
1.1529857
1.1537709
1.1687798
1.1824325
1.1836783
1.1781187
1.1740809
1.164096
1.1518641
1.1489673
1.1508675
1.1492034
1.1448599
1.1418846
1.1424792
1.1430041
1.1438641
1.152502
1.1739964
1.1985185
1.223204
1.2557664
1.2922069
1.3288232
1.3639058
1.3923907
1.4291761
1.4765045
1.5207651
1.5538063
1.5931684
1.6266324
1.6422822
1.6589453
1.6947191
1.7104706
1.7368337
1.7496962
1.780943
1.8208606
1.8706081
1.9197834
0.60734668
0.60295675
0.60440554
0.61511347
0.62244487
0.63019528
0.63566867
0.64405263
0.6478747
0.6560959
0.66395427
0.66781153
0.66936619
0.67157103
0.67157986
0.6699092
0.67109337
0.67438377
0.67645544
0.67797072
0.68036778
0.68234587
0.68472387
0.68935166
0.6975309
0.71031152
0.72368821
0.73694153
0.7531752
0.77090008
0.78879711
0.80637101
0.82171084
0.84015776
0.86271506
0.88450584
0.90197644
0.92144489
0.93899603
0.94994932
0.96090738
0.98056005
0.99332449
1.0151323
1.0333169
1.0568412
1.0785177
1.0964002
1.10882
0.45088115
0.45142863
0.45349311
0.4590698
0.46282671
0.46641572
0.46878232
0.47234992
0.47401625
0.47756675
0.48097398
0.48267891
0.48336546
0.48425298
0.48423835
0.48364895
0.48442973
0.48626888
0.48778844
0.48933446
0.49135157
0.49321126
0.49564666
0.49945692
0.50485541
0.51218384
0.51983357
0.52777264
0.5373454
0.54773751
0.55833026
0.56883902
0.57842537
0.5894079
0.60212269
0.61437303
0.6246392
0.63556499
0.64547446
0.65242338
0.65919377
0.66922004
0.67602444
0.68620769
0.69456798
0.70504315
0.71620674
0.72668479
0.73278925
0.36804425
0.36796343
0.36895175
0.37193726
0.37415507
0.376375
0.3779978
0.38020679
0.38143738
0.38357569
0.38564214
0.38688813
0.38765793
0.38855508
0.38903915
0.38926812
0.39019207
0.39164953
0.39296464
0.3943319
0.39600179
0.39771644
0.39991612
0.40294557
0.40685903
0.41184987
0.41713674
0.4227158
0.42926214
0.43633667
0.44361568
0.45094664
0.45787221
0.46560004
0.47432238
0.48288038
0.49042435
0.49832993
0.50574389
0.51162213
0.51739566
0.52502146
0.53106799
0.53911643
0.54646173
0.555303
0.56484319
0.57513029
0.58452755
0.32495441
0.32481762
0.32520666
0.32668315
0.32776374
0.32886489
0.32967746
0.33083087
0.33149804
0.33266404
0.33382047
0.33457568
0.33510994
0.33574195
0.33619987
0.33656999
0.33735584
0.33848248
0.33959523
0.34079595
0.34220255
0.34364906
0.34536884
0.34761255
0.35043312
0.35390304
0.35759517
0.36153105
0.36607306
0.37096971
0.3760506
0.381224
0.38623876
0.39175287
0.39785964
0.40390829
0.4094385
0.41520045
0.42071198
0.42538659
0.43003025
0.43568314
0.44045103
0.44628979
0.45168879
0.45783273
0.46422966
0.47087241
0.47687851
0.29819486
0.29812661
0.29837691
0.299275
0.29995048
0.30064429
0.30117569
0.30190651
0.30236644
0.30311527
0.30386985
0.30441414
0.30485087
0.30536003
0.30579302
0.3062004
0.30686481
0.30774762
0.30865363
0.30964246
0.31078829
0.31201046
0.31342763
0.31517322
0.31730821
0.31987136
0.32260805
0.32553786
0.32887632
0.33247464
0.33623312
0.34009581
0.34390985
0.34806762
0.35263113
0.35721007
0.36151559
0.36599616
0.37036321
0.37424758
0.37812647
0.38267162
0.38670529
0.39146537
0.39602004
0.40114077
0.40654792
0.41228997
0.41773205
0.28153043
0.28148979
0.28163757
0.28218732
0.28260895
0.2830487
0.28339946
0.28387913
0.28420808
0.28471834
0.28524554
0.28566418
0.2860353
0.28646569
0.28687034
0.28727892
0.28785745
0.28858577
0.28935043
0.29018589
0.29113595
0.29215187
0.29329176
0.29464186
0.29626675
0.29818571
0.30023676
0.30243642
0.30491728
0.3075885
0.31039206
0.31329316
0.31619815
0.31934795
0.32277986
0.32624887
0.32957487
0.33303267
0.3364387
0.3395555
0.34268261
0.34622997
0.34945942
0.35313933
0.35668062
0.36056024
0.3645923
0.36879416
0.37274931
0.27037718
0.27040977
0.2705555
0.27095593
0.27127572
0.27160894
0.27188919
0.27225382
0.27253046
0.27292481
0.27333781
0.27369469
0.27403328
0.27441934
0.2748026
0.27520127
0.27571586
0.27633524
0.2769913
0.27770463
0.27850275
0.27935773
0.28029847
0.28137684
0.28265052
0.28412939
0.28570711
0.28739769
0.28928819
0.2913228
0.29346666
0.2956983
0.29795755
0.30039996
0.30305205
0.30575495
0.30838787
0.31112839
0.3138564
0.31640989
0.31898081
0.32184943
0.3245194
0.32751008
0.33042753
0.33360078
0.3369115
0.34039036
0.34372533
0.26278871
0.26286976
0.26302073
0.26333929
0.26360746
0.26388715
0.26413638
0.26444442
0.26470184
0.26503977
0.26539719
0.26572813
0.26605638
0.26642349
0.26679862
0.26719256
0.26766734
0.26821656
0.26879773
0.26942276
0.27010851
0.27083695
0.27162123
0.2724946
0.27350565
0.27465905
0.27588356
0.27719146
0.27864161
0.28019948
0.28184442
0.28356323
0.28531711
0.28720874
0.28925671
0.29135533
0.29342339
0.29557761
0.29773661
0.29978794
0.30185923
0.30413616
0.30628254
0.30864593
0.3109581
0.3134392
0.31600607
0.31867724
0.32122841
0.25743759
0.25757105
0.25774651
0.25803324
0.25828723
0.25855088
0.25879718
0.25908573
0.25934579
0.25966278
0.25999868
0.26032488
0.26065643
0.2610199
0.26139594
0.2617905
0.26224194
0.26274625
0.26327602
0.26383761
0.26444104
0.26507387
0.26574124
0.26646454
0.26728224
0.26819627
0.26915864
0.27018053
0.27130332
0.27250606
0.27377674
0.27510772
0.27647391
0.27794539
0.27953651
0.28117614
0.28280802
0.28451145
0.28623063
0.28788542
0.28956147
0.29138975
0.2931336
0.29503672
0.29691078
0.2989121
0.30098328
0.30314423
0.30522013
0.25361921
0.25379333
0.25399315
0.25426895
0.25452423
0.25478859
0.25504449
0.25533257
0.25560636
0.25592233
0.25625672
0.2565915
0.25693593
0.25730699
0.25769212
0.25809383
0.25853541
0.25901395
0.25951107
0.26002925
0.26057382
0.26113515
0.26171393
0.26232409
0.26299483
0.2637268
0.26448796
0.26528854
0.26615842
0.2670852
0.26806228
0.26908593
0.27014048
0.2712748
0.27250029
0.27376885
0.27504163
0.27637328
0.27772497
0.27903895
0.28037387
0.28182063
0.28321144
0.28471636
0.28620131
0.28777537
0.28939644
0.29107871
0.29268891
0.25084045
0.25105235
0.25127942
0.25155899
0.25182626
0.25210247
0.25237627
0.25267582
0.25297045
0.25329765
0.25364287
0.25399468
0.25435845
0.25474474
0.25514513
0.25555962
0.25600148
0.25646824
0.25694691
0.25743721
0.25794104
0.25845022
0.25896295
0.25948814
0.26004694
0.26063955
0.26124511
0.26187298
0.26254552
0.26325551
0.26400007
0.26477876
0.2655825
0.26644614
0.26737944
0.26835032
0.26933209
0.27036324
0.27141677
0.27245066
0.27350517
0.27464542
0.27575009
0.27694075
0.27812038
0.27936744
0.28065114
0.28198436
0.28326053
0.24880779
0.24905163
0.24930462
0.24959494
0.24987917
0.25017283
0.25046866
0.25078645
0.25110594
0.25145192
0.25181584
0.25219044
0.25257831
0.2529856
0.25340638
0.25383868
0.25428894
0.25475465
0.25522606
0.25570074
0.25617802
0.25665028
0.25711414
0.25757511
0.25804761
0.25853181
0.25901484
0.25950521
0.26002019
0.26055515
0.26111097
0.26168973
0.26228648
0.26292679
0.26361978
0.26434483
0.26508399
0.26586452
0.26666763
0.26746264
0.26827737
0.26915806
0.27001667
0.27093983
0.27185665
0.27282295
0.27381534
0.27484359
0.27582332
0.24730904
0.24758223
0.24786108
0.24816719
0.24847197
0.24878701
0.24910783
0.24944849
0.24979574
0.25016569
0.25055375
0.25095536
0.25137106
0.25180388
0.25224931
0.25270385
0.25316905
0.25364212
0.25411516
0.25458402
0.255046
0.25549349
0.25592196
0.25633455
0.25674038
0.2571396
0.25752505
0.25790452
0.25829167
0.25868279
0.259084
0.25949745
0.25992108
0.26037543
0.26086976
0.26139134
0.2619281
0.26249948
0.26309265
0.26368542
0.26429714
0.26496122
0.26561329
0.26631584
0.2670166
0.26775588
0.26851578
0.26930455
0.27005354
0.24620785
0.24650762
0.24681146
0.24713613
0.24746346
0.24780221
0.24814986
0.24851645
0.24889352
0.24929112
0.24970732
0.25013924
0.25058591
0.25104802
0.25152187
0.25200261
0.25248823
0.25297547
0.2534574
0.25392839
0.25438408
0.25481656
0.25522034
0.25559674
0.25595092
0.25628287
0.25658945
0.25687801
0.25715922
0.25743021
0.25770324
0.25797598
0.25825211
0.25855013
0.25887808
0.25922784
0.2595916
0.25998374
0.26039623
0.26081355
0.26124934
0.26172758
0.26220129
0.26271527
0.26323076
0.26377651
0.26433845
0.26492295
0.26547435
0.24540364
0.24572864
0.2460573
0.24640277
0.24675432
0.24711873
0.24749484
0.24788982
0.24829856
0.24872678
0.24917436
0.24963948
0.25011993
0.25061468
0.25112036
0.25163095
0.25214173
0.25264884
0.25314572
0.25362543
0.25408219
0.25450757
0.25489525
0.25524512
0.25555937
0.25583761
0.25607961
0.25629247
0.25648403
0.2566554
0.25681882
0.25696805
0.25711933
0.25728566
0.25747118
0.25767172
0.25788421
0.25812041
0.25837619
0.25864107
0.25892457
0.25924387
0.25956466
0.25991903
0.26027812
0.26066243
0.26106078
0.2614783
0.26186927
0.24482813
0.24517728
0.2455306
0.24589848
0.24627554
0.24666715
0.2470731
0.24749852
0.24794063
0.24840203
0.24888379
0.24938473
0.24990167
0.25043214
0.25097286
0.25151674
0.2520569
0.2525888
0.25310583
0.25359985
0.25406381
0.25448863
0.25486718
0.25519824
0.25548172
0.2557167
0.25590507
0.25605376
0.25616791
0.25626265
0.25632123
0.2563638
0.25641077
0.25646085
0.25651804
0.25658525
0.256664
0.25676386
0.25688309
0.25701476
0.25716533
0.25734684
0.25753459
0.2577512
0.25797527
0.25822111
0.25847972
0.25875497
0.25900943
0.24443041
0.24480336
0.24518162
0.2455734
0.24597732
0.24639764
0.2468349
0.24729272
0.24776996
0.24826693
0.2487855
0.24932483
0.2498809
0.2504501
0.25102897
0.25160947
0.25218289
0.25274394
0.25328572
0.25379892
0.25427529
0.25470502
0.25508022
0.2553987
0.25565864
0.25585847
0.25600168
0.2560949
0.25614093
0.25615053
0.25613117
0.25609737
0.2560443
0.25598081
0.25592129
0.25587142
0.25583337
0.25581402
0.25581329
0.25582719
0.25586021
0.25592081
0.2559916
0.25608835
0.25619527
0.25632218
0.25646174
0.2566169
0.25675683
0.24417462
0.24457135
0.24497501
0.24539208
0.24582414
0.24627469
0.24674477
0.2472369
0.24775113
0.24828603
0.24884397
0.24942426
0.25002215
0.25063304
0.25125316
0.25187352
0.25248388
0.25307811
0.25364879
0.25418549
0.25467881
0.25511814
0.25549482
0.25580583
0.25604798
0.25621901
0.25632357
0.25636794
0.2563581
0.25630032
0.2562039
0.25607725
0.25593081
0.25577468
0.25561758
0.25546549
0.25532277
0.25519579
0.25508659
0.25499382
0.25492075
0.25487323
0.25483945
0.25483009
0.25483356
0.25485631
0.25489228
0.25494352
0.25498472
0.24403404
0.24445492
0.24488472
0.24532852
0.24579016
0.24627255
0.24677713
0.24730558
0.24785878
0.248434
0.24903392
0.24965783
0.25030032
0.2509559
0.25162039
0.25228387
0.25293471
0.25356591
0.25416935
0.25473348
0.2552478
0.25570082
0.2560831
0.25639089
0.25661986
0.25676706
0.25683799
0.25683919
0.25677538
0.2566551
0.25648865
0.25628635
0.25605873
0.25581481
0.25556425
0.25531554
0.25507504
0.25484868
0.25463997
0.25444954
0.25427977
0.25413456
0.25400639
0.25390214
0.25381345
0.25374426
0.25368949
0.25365046
0.2536064
0.24398953
0.24443519
0.24489208
0.24536412
0.24585687
0.24637282
0.24691369
0.24748056
0.2480749
0.24869293
0.24933751
0.25000781
0.2506978
0.25140116
0.25211321
0.25282311
0.25351793
0.25418975
0.25482962
0.25542486
0.25596385
0.2564342
0.25682566
0.25713378
0.25735332
0.2574806
0.2575218
0.25748356
0.25737087
0.25719298
0.25696113
0.25668656
0.2563812
0.25605444
0.2557167
0.2553782
0.25504684
0.25472833
0.25442743
0.2541465
0.25388736
0.25365254
0.25343787
0.2532474
0.25307525
0.25292348
0.25278777
0.25266877
0.25254955
0.24402703
0.24449839
0.24498354
0.24548542
0.24601097
0.24656234
0.2471415
0.24774903
0.24838685
0.24905033
0.24974238
0.25046199
0.25120252
0.25195687
0.25271977
0.25347946
0.25422178
0.2549378
0.25561765
0.2562475
0.25681458
0.25730556
0.25770937
0.25802086
0.25823403
0.25834445
0.25835888
0.25828417
0.25812544
0.25789289
0.25759883
0.25725554
0.25687621
0.25647062
0.25605001
0.25562619
0.25520852
0.25480275
0.25441483
0.25404854
0.25370544
0.25338707
0.2530919
0.25282188
0.25257305
0.25234605
0.25213714
0.25194642
0.25176016
0.24413667
0.24463483
0.24514961
0.24568306
0.24624325
0.24683206
0.24745167
0.24810227
0.24878607
0.2494978
0.25024029
0.25101229
0.25180657
0.25261527
0.25343246
0.25424543
0.25503881
0.2558026
0.25652594
0.25719379
0.25779223
0.2583069
0.2587259
0.2590434
0.25925269
0.25934867
0.25933854
0.25922942
0.25902676
0.25874168
0.25838752
0.25797763
0.25752646
0.25704442
0.25654366
0.25603749
0.2555366
0.25504701
0.25457571
0.25412775
0.2537046
0.25330714
0.25293593
0.25259134
0.25227092
0.25197421
0.25169798
0.25144175
0.25119458
0.2443116
0.24483787
0.24538384
0.24595074
0.24654755
0.247176
0.24783841
0.24853467
0.24926719
0.25003012
0.25082621
0.25165388
0.25250532
0.2533719
0.25424696
0.25511683
0.25596492
0.25678012
0.25755046
0.25825965
0.25889258
0.25943384
0.25987063
0.26019644
0.26040395
0.26048737
0.2604543
0.26031218
0.26006687
0.25973046
0.25931732
0.25884195
0.25832007
0.25776287
0.2571835
0.25659668
0.2560144
0.25544308
0.25489071
0.25436346
0.25386288
0.25338938
0.25294524
0.25252965
0.25214135
0.25177905
0.25143989
0.25112288
0.25081949
0.24454747
0.24510336
0.24568225
0.2462846
0.24692023
0.24759068
0.24829843
0.24904313
0.24982731
0.25064463
0.25149766
0.2523845
0.2532967
0.25422488
0.2551616
0.25609215
0.25699874
0.25786906
0.25868994
0.25944381
0.26011432
0.26068493
0.26114195
0.26147815
0.26168562
0.26175795
0.26170305
0.26152877
0.26124146
0.26085418
0.26038241
0.25984182
0.25924943
0.25861736
0.25795985
0.25729299
0.25663003
0.25597794
0.25534565
0.25474038
0.25416383
0.25361619
0.2531011
0.25261688
0.25216321
0.25173818
0.2513392
0.25096482
0.25060861
0.2448419
0.24542909
0.24604282
0.24668282
0.24735962
0.24807464
0.2488305
0.24962661
0.25046562
0.25134073
0.25225429
0.25320401
0.25418083
0.25517455
0.2561769
0.25717211
0.25814112
0.25907038
0.25994543
0.26074737
0.26145852
0.26206121
0.26254075
0.26288922
0.26309812
0.26316048
0.26308448
0.26287839
0.26254917
0.26211087
0.26158013
0.26097383
0.26031034
0.25960285
0.25886676
0.25811952
0.25737564
0.25664274
0.2559307
0.25524769
0.25459567
0.25397474
0.25338968
0.25283816
0.25232064
0.25183468
0.25137795
0.25094854
0.25054189
0.24519423
0.24581456
0.24646524
0.24714525
0.24786577
0.24862814
0.24943508
0.25028583
0.25118308
0.25211962
0.25309754
0.25411412
0.25515964
0.25622309
0.25729528
0.25835933
0.25939487
0.26038703
0.26132001
0.26217345
0.26292833
0.26356577
0.26407007
0.26443254
0.26464414
0.26469736
0.26460065
0.26436272
0.2639912
0.26350119
0.26291052
0.26223736
0.26150149
0.26071729
0.25990137
0.25907258
0.25824669
0.25743208
0.25663956
0.25587822
0.25515037
0.25445611
0.25380119
0.25318282
0.25260206
0.2520561
0.25154279
0.25105976
0.25060415
0.24560521
0.24626072
0.24695065
0.24767322
0.24844023
0.24925295
0.25011419
0.25102306
0.25198223
0.2529841
0.25403048
0.25511817
0.25623676
0.25737437
0.25852086
0.25965817
0.26076457
0.26182377
0.26281853
0.26372702
0.26452878
0.26520365
0.26573487
0.26611298
0.26632837
0.26637306
0.26625573
0.26598557
0.26557096
0.26502808
0.264376
0.26363427
0.26282412
0.26196121
0.26106351
0.26015127
0.25924152
0.25834351
0.257469
0.25662797
0.25582313
0.2550547
0.25432924
0.25364367
0.25299953
0.2523937
0.25182417
0.25128815
0.25078432
0.24607694
0.24676985
0.24750155
0.24826944
0.24908593
0.24995224
0.25087128
0.25184199
0.25286705
0.25393846
0.25505769
0.25622103
0.25741736
0.25863388
0.2598594
0.26107463
0.26225642
0.26338699
0.26444758
0.26541477
0.26626663
0.26698164
0.26754194
0.26793724
0.26815739
0.26819397
0.26805585
0.26775278
0.26729391
0.26669657
0.26598114
0.2651686
0.26428169
0.26333751
0.26235541
0.26135711
0.26036097
0.25937716
0.25841841
0.25749562
0.25661193
0.25576775
0.2549704
0.25421656
0.25350819
0.25284192
0.25221587
0.25162679
0.25107484
0.24661274
0.24734548
0.24812167
0.24893788
0.2498071
0.2507305
0.25171111
0.25274771
0.25384294
0.2549884
0.25618521
0.25742909
0.25870814
0.26000862
0.26131821
0.26261632
0.26387829
0.26508478
0.2662154
0.26724511
0.26815037
0.26890829
0.26949981
0.26991381
0.27013958
0.27016829
0.27000903
0.26967208
0.26916748
0.26851371
0.26773254
0.26684646
0.26587982
0.26485121
0.2637815
0.26269393
0.2616082
0.26053552
0.25948964
0.25848233
0.25751726
0.25659511
0.25572384
0.25489999
0.25412592
0.25339801
0.2527145
0.25207168
0.25147112
0.24721716
0.24799236
0.24881603
0.24968379
0.25060928
0.25159358
0.25263984
0.2537467
0.25491672
0.25614112
0.25742058
0.25875024
0.26011737
0.26150719
0.26290622
0.26429246
0.26563967
0.26692687
0.26813194
0.26922813
0.27019023
0.27099388
0.2716188
0.27205298
0.27228513
0.2723061
0.27212513
0.27175312
0.27120099
0.27048849
0.2696388
0.26867601
0.26762616
0.26650945
0.26534836
0.26416769
0.26298857
0.26182333
0.26068676
0.25959156
0.25854195
0.25753895
0.25659112
0.25569495
0.25485309
0.25406176
0.25331929
0.25262148
0.2519713
0.24789597
0.24871652
0.24959091
0.25051376
0.25149933
0.25254867
0.25366502
0.25484687
0.2560967
0.25740529
0.25877289
0.26019397
0.26165492
0.26313987
0.26463406
0.26611401
0.26755185
0.2689248
0.27020896
0.27137575
0.27239826
0.27325054
0.27391107
0.27436689
0.27460612
0.27461935
0.27441596
0.27400747
0.27340577
0.27263189
0.27171053
0.27066744
0.26953044
0.26832146
0.26706466
0.2657865
0.26450961
0.2632475
0.26201608
0.26082899
0.25969107
0.25860373
0.25757611
0.25660468
0.25569239
0.2548353
0.25403181
0.25327724
0.25257594
0.24865627
0.24952529
0.25045395
0.25143574
0.25248556
0.25360444
0.2547957
0.25605767
0.25739274
0.25879124
0.2602529
0.26177148
0.26333244
0.26491872
0.2665142
0.26809383
0.26962796
0.27109199
0.2724601
0.27370183
0.27478844
0.27569238
0.27639076
0.27686967
0.27711665
0.27712204
0.27689535
0.27644877
0.2757952
0.27495701
0.27396048
0.27283311
0.27160458
0.27029866
0.2689413
0.26756071
0.26618106
0.26481718
0.26348613
0.26220254
0.26097193
0.25979615
0.25868492
0.25763472
0.2566488
0.25572307
0.254856
0.25404239
0.25328802
0.24950656
0.25042749
0.25141429
0.2524592
0.25357783
0.25477115
0.25604258
0.25739027
0.25881649
0.26031108
0.26187322
0.2634959
0.26516354
0.26685781
0.26856114
0.2702468
0.27188328
0.27344401
0.2749012
0.27622238
0.27737694
0.27833563
0.27907418
0.27957764
0.27983298
0.27983035
0.27957936
0.27909289
0.27838492
0.27747919
0.27640366
0.27518764
0.27386278
0.27245478
0.2709915
0.26950296
0.268015
0.26654383
0.26510776
0.26372243
0.26239414
0.2611252
0.25992593
0.25879289
0.25772956
0.25673175
0.255798
0.25492255
0.25411271
0.25045694
0.25143352
0.25248271
0.25359535
0.25478777
0.25606089
0.25741822
0.25885775
0.26038155
0.26197897
0.26364857
0.26538248
0.26716401
0.26897348
0.27079171
0.27259019
0.27433543
0.27599881
0.27755044
0.2789558
0.28018232
0.28119897
0.28198004
0.28250953
0.28277382
0.28276289
0.28248647
0.28195816
0.28119305
0.28021632
0.27905762
0.27774822
0.27632181
0.27480612
0.27323103
0.27162848
0.27002607
0.26844147
0.26689433
0.2654014
0.26396977
0.26260233
0.26130998
0.26008938
0.25894431
0.25787044
0.2568664
0.25592583
0.25505765
0.25151934
0.25255569
0.25367195
0.25485734
0.25612902
0.25748783
0.25893735
0.26047539
0.26210382
0.26381142
0.26559608
0.26744898
0.26935223
0.27128464
0.27322535
0.27514392
0.27700476
0.27877707
0.28042879
0.28192325
0.28322587
0.28430379
0.28512979
0.28568679
0.28596059
0.28594102
0.28563794
0.2850657
0.28424051
0.28318905
0.28194275
0.28053489
0.27900129
0.27737184
0.27567853
0.27395534
0.27223169
0.27052688
0.26886196
0.26725487
0.26571357
0.26424161
0.26285047
0.26153699
0.26030521
0.25915071
0.25807219
0.25706266
0.25613279
0.25270782
0.25380848
0.25499697
0.25626067
0.25761762
0.25906858
0.26061721
0.26226108
0.26400185
0.26582767
0.26773568
0.26971602
0.27174948
0.27381324
0.2758846
0.27793104
0.27991475
0.28180263
0.28356034
0.28514903
0.28653203
0.28767462
0.288548
0.289134
0.28941784
0.28938924
0.28905818
0.28843978
0.28755141
0.28642127
0.28508266
0.28357092
0.28192411
0.28017436
0.27835589
0.27650481
0.27465252
0.27282002
0.2710299
0.26930138
0.26764337
0.26606013
0.26456382
0.26315145
0.26182737
0.26058705
0.25942931
0.25834644
0.25735108
0.25403904
0.25520903
0.25647545
0.25782361
0.25927248
0.26082272
0.26247807
0.26423584
0.26609742
0.26805028
0.2700907
0.27220769
0.27438057
0.27658479
0.2787956
0.28097826
0.28309258
0.28510303
0.28697292
0.28866112
0.29012889
0.2913396
0.29226287
0.29287934
0.29317374
0.29313565
0.29277522
0.29210832
0.29115353
0.28994058
0.28850469
0.28688336
0.28511693
0.28323988
0.28128877
0.27930194
0.27731291
0.27534453
0.27342103
0.27156301
0.26978048
0.26807846
0.26646982
0.26495181
0.26352911
0.2621971
0.26095471
0.25979349
0.25872822
0.25553275
0.25677766
0.25812837
0.25956781
0.26111597
0.26277339
0.26454388
0.26642446
0.26841616
0.27050573
0.27268849
0.27495218
0.27727453
0.27962904
0.2819888
0.28431662
0.28656977
0.28871017
0.29069865
0.29249182
0.29404883
0.29533116
0.29630681
0.29695523
0.29726064
0.29721258
0.29682133
0.29610353
0.29507895
0.29377893
0.2922406
0.29050368
0.28861086
0.28659905
0.28450724
0.28237617
0.28024158
0.27812834
0.27606249
0.27406612
0.27215042
0.2703213
0.26859238
0.26696123
0.26543286
0.26400259
0.26266951
0.26142429
0.26028423
0.25721256
0.25853862
0.25998073
0.26151907
0.26317476
0.26494816
0.26684313
0.26885635
0.27098848
0.27322539
0.27556136
0.27798272
0.28046544
0.2829809
0.2854998
0.28798235
0.29038306
0.29266114
0.29477489
0.29667858
0.29832931
0.29968673
0.30071721
0.30139901
0.30171587
0.30165731
0.30123375
0.30046262
0.29936485
0.29797338
0.29632731
0.29446857
0.29244227
0.29028779
0.28804668
0.28576219
0.28347249
0.28120464
0.27898662
0.27684219
0.2747838
0.27281838
0.27096036
0.26920768
0.26756571
0.26602976
0.26459908
0.26326341
0.26204288
0.25910679
0.26052102
0.26206256
0.26370835
0.26548078
0.26738001
0.26940989
0.2715667
0.27385065
0.27624663
0.27874774
0.28133874
0.28399365
0.28668156
0.28937053
0.29201798
0.29457546
0.29699929
0.29924512
0.30126494
0.30301383
0.30444972
0.3055374
0.30625393
0.30658261
0.306513
0.30605567
0.30522877
0.30405442
0.30256712
0.30080793
0.29882101
0.29665384
0.29434835
0.29194877
0.28950106
0.28704598
0.28461296
0.28223213
0.27992901
0.27771752
0.27560565
0.27360878
0.27172525
0.26996091
0.26831102
0.26677508
0.26534179
0.26403458
0.26124968
0.26276004
0.26441009
0.26617303
0.26807263
0.27010874
0.27228523
0.27459787
0.27704629
0.27961432
0.28229367
0.28506736
0.28790727
0.29077995
0.29365065
0.29647373
0.29919759
0.30177551
0.30416037
0.30630184
0.30815318
0.30967072
0.31081779
0.31157026
0.31191106
0.31182985
0.31133731
0.31045232
0.3091981
0.30761069
0.30573307
0.30361152
0.30129589
0.29883071
0.29626303
0.29364169
0.29101026
0.28840075
0.28584559
0.28337226
0.28099623
0.27872672
0.27658015
0.27455534
0.27265868
0.27088543
0.2692354
0.26769611
0.2662949
0.26368287
0.26529843
0.26706742
0.26895856
0.27099717
0.27318274
0.27551904
0.27800126
0.28062832
0.28338277
0.28625479
0.2892254
0.29226413
0.29533475
0.29839947
0.30140937
0.30430953
0.30704997
0.30958074
0.31184923
0.31380697
0.31540898
0.31661735
0.31740678
0.3177599
0.31766653
0.31713748
0.31619226
0.31485513
0.3131636
0.31116241
0.30889989
0.30642814
0.30379436
0.30104858
0.29824274
0.2954234
0.29262535
0.28988348
0.28722739
0.28467427
0.28223474
0.27992637
0.27774863
0.2757085
0.27380137
0.27202743
0.27037287
0.26886963
0.26645742
0.26818866
0.27008861
0.27212069
0.27431191
0.27666129
0.27917244
0.28183979
0.28466139
0.28761832
0.29069891
0.29388198
0.29713438
0.30041689
0.30368841
0.3068966
0.30998302
0.31289433
0.31557762
0.31797802
0.32004559
0.32173437
0.32300548
0.32383257
0.32419807
0.32409203
0.32352535
0.3225181
0.32109546
0.31929627
0.31716686
0.31475731
0.31212193
0.30931066
0.30637667
0.30337518
0.30035591
0.29735656
0.29441466
0.29156211
0.28881802
0.2861946
0.28371077
0.28136677
0.27917036
0.27711704
0.27520755
0.2734266
0.27181157
0.26963666
0.27149575
0.27354068
0.27572845
0.27808803
0.28061777
0.283321
0.28619121
0.28922536
0.29240272
0.29570951
0.29912196
0.30260396
0.30611296
0.30960438
0.31302227
0.31630459
0.31939459
0.32223636
0.32477282
0.32695278
0.32872978
0.33006441
0.33092941
0.33130715
0.33118798
0.33058288
0.32951235
0.3280023
0.32609272
0.32383118
0.32126923
0.31846324
0.31546598
0.31233393
0.30912565
0.3058941
0.30267999
0.29952369
0.29645961
0.29350909
0.29068621
0.2880115
0.28548618
0.28311896
0.28090563
0.27884764
0.27692798
0.27519059
0.27330017
0.27530142
0.27750781
0.27986858
0.28241488
0.2851442
0.2880594
0.29115281
0.29441994
0.29783792
0.30139044
0.3050507
0.30877922
0.31252981
0.31625415
0.3198926
0.32337958
0.32665495
0.3296599
0.33233528
0.3346289
0.33649433
0.33789224
0.33879476
0.33918432
0.33905169
0.33840788
0.33727363
0.33567537
0.33365393
0.33125764
0.32853908
0.3255566
0.32236589
0.31902671
0.31560087
0.31214451
0.30870148
0.30531522
0.30202302
0.2988488
0.29580886
0.29292565
0.29020163
0.28764665
0.2852569
0.28303471
0.28096112
0.27908807
0.27754972
0.27971009
0.28209754
0.28465177
0.28740641
0.2903578
0.2935081
0.2968481
0.30037149
0.30405281
0.30787263
0.31180061
0.31579341
0.31980079
0.32377045
0.32763905
0.33133761
0.33480296
0.33797366
0.3407887
0.34319524
0.34514751
0.34660703
0.34754571
0.3479463
0.34780005
0.34711798
0.34592079
0.34423518
0.34210234
0.33957066
0.33669332
0.33353055
0.33014085
0.32658697
0.32293364
0.31924005
0.31555336
0.31192047
0.30838203
0.30496504
0.30168849
0.29857711
0.29563495
0.29287329
0.29028893
0.28788539
0.28564143
0.28361873
0.28251802
0.28485789
0.28745002
0.29022219
0.29321087
0.29641084
0.29982324
0.30343687
0.30724304
0.31121307
0.31532379
0.31954065
0.32381583
0.32809457
0.33232036
0.3364262
0.34034015
0.34399656
0.347332
0.35028412
0.35279983
0.35483469
0.35635205
0.35732421
0.35773448
0.35757477
0.35685595
0.35559843
0.35382876
0.35158787
0.34892331
0.34588834
0.34254493
0.33895396
0.33518036
0.33129122
0.32734869
0.3234036
0.31950682
0.31570294
0.31202261
0.30848798
0.30512647
0.301944
0.29895358
0.29615276
0.29354656
0.29111102
0.28892022
0.28838185
0.29092614
0.29375184
0.29677168
0.30002539
0.30350556
0.30721186
0.31113041
0.31524944
0.31953625
0.32396309
0.32849041
0.33306527
0.33762788
0.3421173
0.34646309
0.35059095
0.35443377
0.35792727
0.36100866
0.36362523
0.36573456
0.36730298
0.368304
0.36872187
0.36854925
0.3677968
0.36648422
0.36463741
0.36229615
0.35950602
0.35631993
0.35280116
0.34901177
0.34501762
0.34088747
0.33668652
0.33246974
0.32829258
0.32420418
0.3202394
0.3164241
0.31278892
0.30934218
0.30609908
0.30305829
0.30022692
0.29757774
0.2952004
0.295383
0.29816271
0.3012581
0.30456235
0.30811902
0.31191761
0.31595558
0.32021541
0.32468119
0.32931511
0.3340838
0.33894184
0.34383046
0.34868456
0.35343867
0.35801937
0.36235101
0.36636648
0.37000238
0.37319711
0.37589927
0.37806925
0.37967759
0.38070009
0.38112239
0.38093808
0.38015744
0.37879897
0.3768873
0.37445985
0.37155894
0.36823675
0.36455668
0.36057986
0.35637142
0.35200127
0.34753782
0.34304055
0.33856992
0.33418001
0.32991042
0.32579134
0.32185713
0.31811907
0.31459501
0.31128507
0.30819911
0.30530585
0.30271567
0.30386429
0.30691887
0.31033003
0.31396502
0.31787187
0.32203564
0.32645039
0.33109354
0.33594345
0.34095569
0.3460899
0.35129374
0.35650223
0.36164497
0.36665253
0.37144946
0.37596035
0.38012012
0.38386875
0.38714823
0.38991012
0.39211844
0.39374917
0.39478171
0.39520375
0.39500993
0.39420994
0.39282055
0.39086424
0.38837462
0.38538941
0.38195945
0.37814592
0.37400583
0.36960201
0.36500509
0.36028646
0.35550994
0.35074082
0.34603833
0.34144738
0.33700336
0.33274536
0.32868865
0.32485487
0.32124623
0.31787683
0.3147097
0.31188255
0.3143366
0.31771783
0.32150541
0.32553102
0.32984787
0.33443434
0.33927923
0.34435264
0.34962494
0.35504302
0.36055782
0.36610915
0.37162579
0.37703308
0.38225941
0.3872295
0.39187065
0.39612272
0.39993225
0.40324822
0.40602761
0.40823918
0.40986532
0.41089058
0.41130544
0.41110573
0.41030028
0.4089035
0.40693471
0.40442201
0.40139719
0.39790875
0.39401137
0.38975439
0.38519725
0.38041018
0.37546609
0.37043162
0.36537593
0.36036319
0.35544419
0.35066049
0.34605693
0.34165421
0.3374781
0.33353423
0.32984137
0.32635489
0.32325322
0.32761791
0.33139756
0.33564487
0.340141
0.34494449
0.35002324
0.3553574
0.36090638
0.36662951
0.37246283
0.37834725
0.38421461
0.38998876
0.39559354
0.4009591
0.40601483
0.41069497
0.41494812
0.41873134
0.42200464
0.42473395
0.42689412
0.42847463
0.42946661
0.42986412
0.42966432
0.42887486
0.42750713
0.4255761
0.4231027
0.42011167
0.41664708
0.41275099
0.4084625
0.40383644
0.39893946
0.39384235
0.38861119
0.38331701
0.37802792
0.372801
0.36768504