/*--------------------------------*- C++ -*----------------------------------*\
| =========                 |                                                 |
| \\      /  F ield         | OpenFOAM: The Open Source CFD Toolbox           |
|  \\    /   O peration     | Version:  v2006                                 |
|   \\  /    A nd           | Website:  www.openfoam.com                      |
|    \\/     M anipulation  |                                                 |
\*---------------------------------------------------------------------------*/
FoamFile
{
    version     2.0;
    format      ascii;
    class       volScalarField;
    location    "500";
    object      p;
}
// * * * * * * * * * * * * * * * * * * * * * * * * * * * * * * * * * * * * * //

dimensions      [1 -1 -2 0 0 0 0];


internalField   nonuniform List<scalar> 
19765
(
0.99982882
1.0000836
1.000955
1.001549
1.0021552
1.0026064
1.0031892
1.0035202
1.0039876
1.0043915
1.0046764
1.0048949
1.0050899
1.0052247
1.0053145
1.0053803
1.0054124
1.0054071
1.0053675
1.0052886
1.005171
1.0050248
1.0048545
1.004644
1.0043843
1.0041053
1.0038481
1.0035507
1.0031816
1.0028354
1.0024662
1.0020221
1.0015186
1.0008628
1.0003149
0.99990234
0.99938372
0.99862617
0.99807367
0.99745587
0.99647979
0.99562323
0.9954107
0.99462848
0.99457358
0.99426344
0.99437969
0.99461196
0.99493318
1.0012328
1.0013726
1.001558
1.0017922
1.0020481
1.0023034
1.0025738
1.0028089
1.0030554
1.0033096
1.0035383
1.0037383
1.0039226
1.0040657
1.004171
1.0042614
1.0043329
1.0043722
1.0043786
1.0043436
1.0042717
1.0041733
1.0040413
1.0038747
1.0036808
1.003465
1.0032183
1.0029404
1.0026367
1.0023078
1.0019533
1.0015759
1.00118
1.0007751
1.0003729
0.99996529
0.99954329
0.99911993
0.99872562
0.99835008
0.99800889
0.99772247
0.99745378
0.99720648
0.9970197
0.99685913
0.99672754
0.99660392
0.9964757
1.0012074
1.0013984
1.0016223
1.0018513
1.0020827
1.002306
1.0025269
1.0027247
1.0029199
1.0031048
1.0032759
1.0034329
1.0035785
1.0037002
1.0037955
1.0038727
1.0039306
1.0039625
1.003967
1.0039412
1.0038845
1.0038011
1.0036871
1.0035402
1.0033658
1.0031675
1.0029409
1.0026856
1.0024061
1.0021033
1.0017794
1.0014393
1.0010898
1.0007347
1.0003721
1.0000036
0.99963708
0.99927397
0.99891843
0.99857868
0.99825553
0.99793867
0.99763915
0.99735279
0.99709431
0.996872
0.9966771
0.9965038
0.9963474
1.001507
1.0016375
1.0017673
1.0019101
1.002059
1.0022117
1.0023659
1.0025132
1.0026611
1.0028074
1.0029444
1.0030715
1.0031909
1.003293
1.0033741
1.0034419
1.0034961
1.003528
1.0035351
1.0035152
1.0034677
1.0033978
1.0033032
1.0031788
1.0030297
1.002861
1.0026683
1.0024496
1.0022105
1.0019526
1.0016777
1.0013906
1.0010959
1.0007987
1.0004968
1.0001922
0.99989244
0.99960147
0.99931766
0.99905039
0.99880253
0.99856114
0.99832434
0.99810629
0.99789158
0.99769233
0.99749075
0.99729005
0.99709191
1.0014557
1.0015765
1.0016981
1.0018209
1.0019431
1.0020639
1.0021843
1.0022978
1.0024115
1.002524
1.0026301
1.0027288
1.0028221
1.0029029
1.0029671
1.0030205
1.0030633
1.0030881
1.0030922
1.0030734
1.0030307
1.002967
1.0028798
1.0027652
1.0026274
1.0024714
1.0022942
1.0020934
1.0018744
1.0016396
1.0013903
1.0011305
1.0008639
1.0005953
1.0003247
1.0000533
0.99978544
0.99952403
0.99926874
0.99902421
0.99879048
0.99856047
0.99833309
0.99811462
0.99789638
0.99768425
0.99747195
0.99726389
0.99705999
1.0014891
1.0015763
1.0016648
1.0017548
1.0018458
1.0019367
1.0020289
1.0021165
1.0022055
1.0022944
1.0023785
1.0024571
1.0025316
1.0025963
1.0026478
1.0026901
1.0027232
1.0027409
1.0027407
1.0027205
1.0026796
1.0026202
1.0025407
1.0024378
1.002314
1.0021738
1.0020147
1.0018353
1.00164
1.0014311
1.00121
1.0009804
1.0007454
1.0005092
1.0002722
1.0000354
0.99980229
0.99957541
0.99935468
0.99914334
0.99894151
0.99874377
0.9985496
0.99836145
0.99817394
0.99798923
0.9978025
0.99761406
0.99742442
1.0014274
1.0015036
1.0015805
1.0016564
1.0017315
1.0018051
1.0018794
1.0019495
1.0020206
1.0020916
1.0021587
1.0022213
1.0022806
1.0023319
1.0023723
1.002405
1.0024295
1.0024408
1.0024365
1.0024149
1.0023749
1.0023183
1.0022432
1.0021473
1.0020321
1.0019016
1.001754
1.0015881
1.0014079
1.0012155
1.0010122
1.0008011
1.0005851
1.0003677
1.0001497
0.999932
0.99971716
0.99950726
0.99930234
0.99910451
0.99891349
0.99872578
0.99854038
0.99835854
0.99817655
0.99799538
0.99781179
0.99762607
0.9974383
1.0013923
1.0014517
1.0015124
1.0015723
1.001632
1.0016906
1.0017501
1.0018062
1.0018633
1.0019205
1.0019744
1.0020246
1.0020718
1.0021123
1.0021436
1.0021681
1.0021852
1.0021906
1.0021823
1.0021587
1.0021188
1.0020639
1.0019925
1.0019026
1.0017956
1.0016744
1.0015377
1.0013848
1.0012192
1.0010428
1.0008568
1.0006641
1.0004671
1.0002691
1.0000709
0.9998734
0.99967865
0.99948851
0.99930309
0.99912409
0.99895143
0.9987822
0.99861564
0.99845241
0.99828956
0.99812748
0.9979633
0.99779687
0.99762822
1.0013289
1.0013793
1.0014311
1.0014815
1.0015312
1.0015797
1.0016286
1.0016746
1.0017213
1.0017679
1.0018116
1.0018519
1.0018896
1.0019214
1.0019453
1.001963
1.0019739
1.0019745
1.0019628
1.0019374
1.0018974
1.0018437
1.001775
1.0016897
1.0015887
1.0014745
1.0013461
1.0012031
1.0010484
1.0008839
1.0007106
1.0005312
1.0003478
1.0001632
0.99997828
0.99979386
0.9996117
0.99943343
0.99925915
0.99909022
0.9989265
0.99876592
0.99860753
0.99845187
0.99829648
0.99814153
0.99798466
0.99782559
0.99766395
1.0012759
1.0013167
1.0013591
1.0014003
1.0014411
1.0014807
1.0015208
1.0015583
1.0015965
1.0016345
1.0016699
1.0017022
1.0017321
1.0017567
1.0017743
1.0017863
1.001792
1.0017883
1.0017736
1.0017465
1.0017062
1.0016534
1.0015868
1.0015053
1.0014096
1.0013015
1.0011805
1.0010463
1.0009015
1.0007477
1.000586
1.0004188
1.000248
1.0000762
0.99990423
0.99973284
0.99956365
0.99939817
0.99923649
0.99907981
0.99892816
0.99877977
0.99863379
0.99849075
0.99834842
0.99820694
0.99806416
0.99791977
0.99777348
1.0012151
1.0012496
1.0012855
1.0013203
1.0013545
1.0013875
1.001421
1.001452
1.0014835
1.0015146
1.0015434
1.0015693
1.0015928
1.0016116
1.001624
1.0016312
1.0016326
1.0016254
1.0016081
1.0015795
1.0015389
1.0014868
1.0014221
1.0013437
1.0012523
1.0011493
1.0010345
1.0009076
1.0007709
1.000626
1.0004738
1.0003165
1.0001558
0.99999413
0.99983212
0.99967062
0.99951106
0.99935479
0.9992019
0.99905347
0.99890955
0.99876875
0.9986302
0.99849452
0.99835964
0.99822577
0.99809097
0.99795494
0.9978172
1.00116
1.0011884
1.0012183
1.0012472
1.0012756
1.001303
1.0013307
1.0013563
1.0013822
1.0014076
1.0014308
1.0014513
1.0014695
1.0014834
1.0014915
1.0014947
1.0014923
1.001482
1.0014626
1.0014327
1.0013919
1.0013403
1.0012772
1.0012015
1.0011139
1.0010155
1.0009061
1.0007856
1.0006562
1.0005191
1.0003754
1.000227
1.0000756
0.99992314
0.99977047
0.99961837
0.99946816
0.99932112
0.99917734
0.99903784
0.99890275
0.99877089
0.99864142
0.99851508
0.99838989
0.99826613
0.99814201
0.99801726
0.99789149
1.001104
1.0011279
1.0011532
1.0011775
1.0012015
1.0012244
1.0012475
1.0012686
1.00129
1.0013107
1.0013294
1.0013454
1.0013592
1.001369
1.0013734
1.0013732
1.0013678
1.0013549
1.0013336
1.0013027
1.0012616
1.0012106
1.0011488
1.0010756
1.0009912
1.0008968
1.0007922
1.0006774
1.0005543
1.0004241
1.0002877
1.0001471
1.0000036
0.99985911
0.99971439
0.9995702
0.99942778
0.99928832
0.99915188
0.99901943
0.99889113
0.998766
0.99864323
0.99852365
0.99840538
0.99828878
0.99817221
0.99805547
0.99793804
1.0010518
1.0010718
1.0010929
1.0011133
1.0011332
1.0011523
1.0011715
1.0011888
1.0012062
1.001223
1.0012377
1.00125
1.0012601
1.0012664
1.0012677
1.0012646
1.0012565
1.0012415
1.0012186
1.0011869
1.0011457
1.0010952
1.0010347
1.0009636
1.0008822
1.0007914
1.0006911
1.0005813
1.0004639
1.0003398
1.0002102
1.0000766
0.99994025
0.99980309
0.99966571
0.99952892
0.99939389
0.99926173
0.99913251
0.99900716
0.99888591
0.99876789
0.99865235
0.99854021
0.99842963
0.99832108
0.99821299
0.99810525
0.99799739
1.0010012
1.0010178
1.0010357
1.0010528
1.0010695
1.0010853
1.0011012
1.0011155
1.0011296
1.001143
1.0011545
1.0011636
1.0011705
1.0011738
1.0011725
1.001167
1.0011566
1.0011398
1.0011156
1.0010832
1.0010419
1.000992
1.0009326
1.0008635
1.0007848
1.0006972
1.0006008
1.0004957
1.0003834
1.0002649
1.0001413
1.0000139
0.99988414
0.99975356
0.99962278
0.99949261
0.99936416
0.99923846
0.99911558
0.9989964
0.99888118
0.99876917
0.99865966
0.99855363
0.99844931
0.99834724
0.99824596
0.99814542
0.9980451
1.0009536
1.0009675
1.0009824
1.0009966
1.0010105
1.0010236
1.0010366
1.0010481
1.0010594
1.0010699
1.0010786
1.0010849
1.0010891
1.0010899
1.0010863
1.0010787
1.0010665
1.0010481
1.0010229
1.0009899
1.0009486
1.0008992
1.0008411
1.0007738
1.0006976
1.000613
1.0005201
1.0004192
1.0003116
1.0001983
1.0000801
0.99995862
0.99983482
0.99971032
0.99958569
0.99946172
0.99933946
0.99921992
0.99910313
0.99898998
0.99888072
0.99877472
0.9986713
0.99857149
0.99847359
0.99837818
0.99828391
0.99819076
0.99809823
1.0009082
1.0009197
1.0009321
1.0009439
1.0009554
1.0009661
1.0009768
1.0009859
1.0009948
1.0010028
1.0010091
1.0010131
1.001015
1.0010136
1.001008
1.0009986
1.0009848
1.0009652
1.000939
1.0009056
1.0008645
1.0008157
1.0007586
1.000693
1.0006191
1.0005374
1.0004479
1.0003508
1.0002476
1.000139
1.0000259
0.99990972
0.99979146
0.99967259
0.99955365
0.99943541
0.99931889
0.99920502
0.99909383
0.99898618
0.99888233
0.99878172
0.99868373
0.99858941
0.99849711
0.99840748
0.99831921
0.99823238
0.99814644
1.0008654
1.0008748
1.0008851
1.0008948
1.0009042
1.0009129
1.0009214
1.0009285
1.0009352
1.0009411
1.0009452
1.0009472
1.0009471
1.0009438
1.0009366
1.0009257
1.0009105
1.0008898
1.0008629
1.0008292
1.0007883
1.0007401
1.0006841
1.0006202
1.0005485
1.0004694
1.0003829
1.0002895
1.0001904
1.0000861
0.99997782
0.99986664
0.99975356
0.99963996
0.99952637
0.99941353
0.99930243
0.99919394
0.99908812
0.99898575
0.99888715
0.99879179
0.99869912
0.99861017
0.99852338
0.99843942
0.99835706
0.9982764
0.99819691
1.0008247
1.0008324
1.0008409
1.0008488
1.0008564
1.0008632
1.0008699
1.0008752
1.0008802
1.0008842
1.0008864
1.0008866
1.0008847
1.0008799
1.0008712
1.000859
1.0008426
1.0008211
1.0007937
1.0007598
1.0007191
1.0006715
1.0006167
1.0005543
1.0004847
1.000408
1.0003246
1.0002346
1.0001392
1.0000391
0.99993525
0.99982875
0.99972053
0.99961189
0.99950333
0.99939558
0.99928959
0.99918616
0.99908536
0.99898796
0.99889424
0.99880375
0.99871597
0.99863194
0.99855015
0.99847128
0.99839418
0.99831899
0.99824517
1.0007864
1.0007925
1.0007994
1.0008057
1.0008117
1.000817
1.000822
1.0008258
1.0008291
1.0008315
1.0008321
1.0008308
1.0008274
1.0008211
1.0008112
1.0007979
1.0007805
1.0007583
1.0007304
1.0006965
1.0006561
1.0006092
1.0005555
1.0004947
1.000427
1.0003527
1.000272
1.0001853
1.0000935
0.99999731
0.99989763
0.99979554
0.99969192
0.99958796
0.99948417
0.99938125
0.99928011
0.99918151
0.99908552
0.99899286
0.99890383
0.99881803
0.99873497
0.99865565
0.99857868
0.9985047
0.99843265
0.99836268
0.99829426
1.00075
1.0007548
1.0007603
1.0007652
1.0007698
1.0007737
1.0007773
1.0007798
1.0007816
1.0007826
1.0007818
1.0007791
1.0007744
1.0007669
1.000756
1.0007417
1.0007236
1.0007007
1.0006726
1.0006387
1.0005986
1.0005525
1.0004998
1.0004405
1.0003747
1.0003027
1.0002247
1.000141
1.0000526
0.99996016
0.99986445
0.99976655
0.99966728
0.99956777
0.99946851
0.99937018
0.99927365
0.99917963
0.99908819
0.99900004
0.99891544
0.99883404
0.9987554
0.99868048
0.99860795
0.99853845
0.998471
0.99840574
0.99834215
1.0007156
1.0007192
1.0007234
1.0007271
1.0007305
1.0007332
1.0007356
1.0007368
1.0007375
1.0007371
1.0007351
1.0007312
1.0007254
1.0007168
1.000705
1.0006899
1.0006711
1.0006478
1.0006195
1.0005857
1.0005461
1.0005006
1.000449
1.0003912
1.0003273
1.0002575
1.0001821
1.0001013
1.0000162
0.99992721
0.99983528
0.99974136
0.99964623
0.99955096
0.99945601
0.99936206
0.99926992
0.99918028
0.9990932
0.99900935
0.99892899
0.9988518
0.99877738
0.99870665
0.99863836
0.99857313
0.99851002
0.99844921
0.99839016
1.0006829
1.0006856
1.0006887
1.0006913
1.0006936
1.0006953
1.0006965
1.0006967
1.0006962
1.0006947
1.0006917
1.0006867
1.0006799
1.0006704
1.0006578
1.0006421
1.0006227
1.0005991
1.0005707
1.0005371
1.0004979
1.0004533
1.0004028
1.0003464
1.0002842
1.0002166
1.0001436
1.0000657
0.99998362
0.99989804
0.99980972
0.99971959
0.99962841
0.99953718
0.99944635
0.99935658
0.99926864
0.99918318
0.99910025
0.99902049
0.99894416
0.99887096
0.99880053
0.99873373
0.99866939
0.9986081
0.99854899
0.99849225
0.99843731
1.0006519
1.0006537
1.0006558
1.0006575
1.0006589
1.0006596
1.0006599
1.0006591
1.0006576
1.0006552
1.0006511
1.0006453
1.0006376
1.0006273
1.0006141
1.0005978
1.0005781
1.0005542
1.0005258
1.0004924
1.0004538
1.0004099
1.0003605
1.0003055
1.0002451
1.0001795
1.0001089
1.0000337
0.99995463
0.99987228
0.99978742
0.99970092
0.99961351
0.99952615
0.99943926
0.99935348
0.99926956
0.99918808
0.99910913
0.99903328
0.9989608
0.99889141
0.99882477
0.9987617
0.99870111
0.99864355
0.9985882
0.99853526
0.99848418
1.0006225
1.0006234
1.0006247
1.0006256
1.0006261
1.0006259
1.0006254
1.0006238
1.0006214
1.0006181
1.0006133
1.0006067
1.0005982
1.0005873
1.0005735
1.0005568
1.0005367
1.0005127
1.0004843
1.0004512
1.0004132
1.0003701
1.0003218
1.0002682
1.0002096
1.000146
1.0000777
1.0000051
0.99992887
0.99984962
0.99976806
0.99968504
0.99960125
0.99951758
0.99943446
0.99935251
0.99927242
0.99919476
0.9991196
0.99904749
0.99897866
0.99891288
0.99884983
0.99879028
0.9987332
0.99867912
0.99862726
0.99857782
0.99853026
1.0005944
1.0005946
1.0005952
1.0005953
1.0005951
1.0005942
1.0005929
1.0005905
1.0005875
1.0005834
1.0005778
1.0005705
1.0005614
1.00055
1.0005357
1.0005186
1.0004983
1.0004742
1.000446
1.0004133
1.0003758
1.0003336
1.0002864
1.0002342
1.0001773
1.0001157
1.0000496
0.99997949
0.99990602
0.99982975
0.99975137
0.99967168
0.99959135
0.99951123
0.99943172
0.99935343
0.99927701
0.999203
0.99913146
0.99906291
0.99899758
0.99893524
0.99887561
0.99881939
0.99876563
0.99871482
0.99866624
0.99862008
0.99857579
1.0005675
1.0005672
1.0005672
1.0005666
1.0005657
1.0005642
1.0005622
1.0005592
1.0005555
1.0005507
1.0005446
1.0005367
1.000527
1.0005151
1.0005005
1.0004832
1.0004627
1.0004386
1.0004106
1.0003783
1.0003414
1.0003001
1.000254
1.0002032
1.0001479
1.0000882
1.0000243
0.99995663
0.99988583
0.99981242
0.99973709
0.9996606
0.99958359
0.99950687
0.99943082
0.99935603
0.99928313
0.99921259
0.99914452
0.99907937
0.99901736
0.99895829
0.99890189
0.99884881
0.99879818
0.99875043
0.9987049
0.99866177
0.9986205
1.0005419
1.000541
1.0005404
1.0005393
1.0005378
1.0005358
1.0005332
1.0005296
1.0005253
1.00052
1.0005133
1.0005049
1.0004948
1.0004825
1.0004676
1.0004501
1.0004296
1.0004056
1.0003778
1.0003459
1.0003097
1.0002693
1.0002243
1.0001749
1.0001212
1.0000634
1.0000016
0.99993627
0.99986804
0.99979739
0.999725
0.99965158
0.99957776
0.99950429
0.99943156
0.99936013
0.99929058
0.99922337
0.9991586
0.99909669
0.99903785
0.99898188
0.99892856
0.99887846
0.99883077
0.99878591
0.99874324
0.99870294
0.99866447
1.0005172
1.0005159
1.0005148
1.0005133
1.0005113
1.0005087
1.0005056
1.0005016
1.0004968
1.000491
1.0004838
1.000475
1.0004646
1.000452
1.0004369
1.0004192
1.0003987
1.0003749
1.0003474
1.000316
1.0002805
1.0002409
1.0001971
1.0001491
1.000097
1.0000409
0.99998122
0.99991819
0.99985244
0.99978446
0.99971489
0.99964443
0.99957366
0.99950331
0.99943376
0.99936553
0.99929919
0.99923516
0.99917353
0.99911472
0.99905889
0.99900587
0.99895545
0.99890816
0.99886325
0.99882108
0.99878108
0.99874341
0.99870754
1.0004936
1.0004919
1.0004904
1.0004884
1.000486
1.000483
1.0004795
1.000475
1.0004698
1.0004636
1.000456
1.0004469
1.0004361
1.0004233
1.0004081
1.0003904
1.0003699
1.0003463
1.0003191
1.0002883
1.0002536
1.0002149
1.0001722
1.0001255
1.0000749
1.0000207
0.999963
0.9999022
0.99983884
0.99977343
0.99970659
0.99963896
0.99957112
0.99950376
0.99943725
0.99937208
0.9993088
0.99924781
0.99918918
0.99913331
0.99908034
0.99903012
0.99898246
0.99893782
0.99889553
0.9988559
0.99881841
0.99878319
0.99874974
1.0004707
1.0004688
1.0004669
1.0004645
1.0004618
1.0004584
1.0004545
1.0004497
1.0004442
1.0004376
1.0004297
1.0004204
1.0004094
1.0003964
1.0003811
1.0003634
1.0003431
1.0003197
1.0002929
1.0002626
1.0002287
1.0001909
1.0001493
1.000104
1.000055
1.0000025
0.99994676
0.9998881
0.99982707
0.99976414
0.99969991
0.99963501
0.99956999
0.99950549
0.99944188
0.99937964
0.99931928
0.99926118
0.99920541
0.99915232
0.99910207
0.99905451
0.99900945
0.99896732
0.99892748
0.99889024
0.99885508
0.99882214
0.99879092
1.0004487
1.0004465
1.0004443
1.0004416
1.0004386
1.0004349
1.0004307
1.0004256
1.0004198
1.0004129
1.0004048
1.0003953
1.0003841
1.000371
1.0003557
1.0003381
1.000318
1.0002949
1.0002686
1.0002389
1.0002057
1.0001689
1.0001284
1.0000844
1.0000369
0.99998618
0.99993232
0.99987575
0.99981697
0.99975644
0.99969473
0.99963244
0.99957011
0.99950835
0.99944751
0.99938807
0.99933049
0.99927514
0.99922208
0.99917165
0.99912397
0.99907892
0.99903632
0.99899655
0.99895903
0.99892402
0.99889105
0.99886025
0.99883111
1.0004274
1.0004249
1.0004225
1.0004196
1.0004163
1.0004124
1.000408
1.0004026
1.0003966
1.0003895
1.0003812
1.0003715
1.0003603
1.0003471
1.0003319
1.0003144
1.0002945
1.0002717
1.0002459
1.0002169
1.0001844
1.0001486
1.0001093
1.0000666
1.0000206
0.99997155
0.99991954
0.99986501
0.9998084
0.99975018
0.99969089
0.99963112
0.99957136
0.99951222
0.99945404
0.99939725
0.99934232
0.99928957
0.99923908
0.99919116
0.99914593
0.99910324
0.99906296
0.99902542
0.99899007
0.99895715
0.99892622
0.99889739
0.99887018
1.0004067
1.0004041
1.0004015
1.0003984
1.0003949
1.0003908
1.0003861
1.0003807
1.0003744
1.0003672
1.0003588
1.000349
1.0003377
1.0003246
1.0003095
1.0002922
1.0002725
1.0002501
1.0002248
1.0001964
1.0001648
1.00013
1.0000918
1.0000504
1.0000059
0.99995849
0.9999083
0.99985574
0.99980124
0.99974525
0.99968829
0.99963092
0.99957364
0.999517
0.99946133
0.99940708
0.99935465
0.99930438
0.99925632
0.99921078
0.99916784
0.99912739
0.99908929
0.99905384
0.99902053
0.99898957
0.99896054
0.99893356
0.99890814
1.0003866
1.0003839
1.0003811
1.0003779
1.0003742
1.00037
1.0003652
1.0003596
1.0003532
1.0003459
1.0003375
1.0003276
1.0003163
1.0003033
1.0002883
1.0002713
1.0002519
1.0002299
1.0002052
1.0001775
1.0001467
1.0001128
1.0000758
1.0000357
0.99999269
0.99994689
0.99989847
0.99984783
0.99979537
0.99974153
0.99968682
0.99963176
0.99957683
0.99952257
0.99946931
0.99941745
0.9993674
0.99931946
0.9992737
0.99923039
0.99918961
0.99915127
0.99911522
0.99908172
0.99905031
0.99902118
0.99899392
0.99896864
0.99894488
1.000367
1.0003642
1.0003614
1.000358
1.0003543
1.00035
1.0003451
1.0003394
1.000333
1.0003256
1.0003171
1.0003073
1.0002961
1.0002832
1.0002684
1.0002516
1.0002326
1.0002111
1.0001869
1.0001599
1.00013
1.0000971
1.0000612
1.0000224
0.99998085
0.99993663
0.99988996
0.99984117
0.9997907
0.99973894
0.99968638
0.99963353
0.99958086
0.99952886
0.99947787
0.99942829
0.99938048
0.99933474
0.99929114
0.99924993
0.99921118
0.9991748
0.99914067
0.999109
0.99907937
0.99905194
0.99902633
0.99900264
0.99898042
1.000348
1.0003451
1.0003422
1.0003388
1.000335
1.0003306
1.0003257
1.00032
1.0003136
1.0003062
1.0002977
1.000288
1.0002769
1.0002642
1.0002496
1.0002331
1.0002145
1.0001935
1.0001699
1.0001437
1.0001146
1.0000827
1.000048
1.0000104
0.9999703
0.99992764
0.99988266
0.99983569
0.99978713
0.99973737
0.99968689
0.99963616
0.99958563
0.99953579
0.99948696
0.99943951
0.99939382
0.99935014
0.99930856
0.99926931
0.99923246
0.99919791
0.99916556
0.99913558
0.99910761
0.99908174
0.99905765
0.99903542
0.99901459
1.0003294
1.0003266
1.0003236
1.0003202
1.0003164
1.000312
1.0003071
1.0003014
1.0002949
1.0002876
1.0002792
1.0002696
1.0002586
1.0002461
1.0002318
1.0002157
1.0001975
1.000177
1.0001541
1.0001286
1.0001004
1.0000695
1.0000359
0.99999968
0.99996093
0.99991981
0.99987649
0.99983129
0.99978459
0.99973677
0.99968828
0.99963958
0.9995911
0.9995433
0.9994965
0.99945107
0.99940735
0.9993656
0.99932591
0.99928848
0.99925339
0.99922054
0.99918984
0.99916144
0.99913499
0.99911059
0.99908791
0.99906704
0.99904752
1.0003113
1.0003085
1.0003055
1.0003021
1.0002983
1.000294
1.0002891
1.0002834
1.0002771
1.0002698
1.0002615
1.0002521
1.0002413
1.000229
1.0002151
1.0001993
1.0001815
1.0001616
1.0001393
1.0001146
1.0000873
1.0000575
1.000025
0.99999004
0.99995268
0.99991307
0.99987138
0.9998279
0.99978301
0.99973706
0.99969048
0.99964372
0.99959719
0.99955133
0.99950644
0.9994629
0.99942103
0.99938107
0.99934313
0.99930738
0.99927391
0.99924263
0.99921344
0.99918647
0.99916141
0.99913833
0.99911692
0.99909725
0.99907889
1.0002937
1.0002909
1.000288
1.0002846
1.0002808
1.0002765
1.0002717
1.0002662
1.0002599
1.0002528
1.0002446
1.0002353
1.0002248
1.0002128
1.0001992
1.0001838
1.0001666
1.0001472
1.0001256
1.0001017
1.0000753
1.0000465
1.0000152
0.99998145
0.99994548
0.99990736
0.99986726
0.99982547
0.99978233
0.99973819
0.99969346
0.99964855
0.99960387
0.99955984
0.99951675
0.99947497
0.99943481
0.99939651
0.99936017
0.99932597
0.99929397
0.99926412
0.99923632
0.99921068
0.9991869
0.99916505
0.99914483
0.99912631
0.99910907
1.0002764
1.0002737
1.0002709
1.0002676
1.0002639
1.0002597
1.000255
1.0002495
1.0002434
1.0002364
1.0002285
1.0002194
1.0002091
1.0001974
1.0001842
1.0001693
1.0001525
1.0001338
1.0001129
1.0000897
1.0000643
1.0000365
1.0000063
0.99997386
0.99993925
0.9999026
0.99986407
0.99982393
0.9997825
0.99974011
0.99969715
0.99965402
0.9996111
0.99956879
0.9995274
0.99948725
0.99944867
0.99941189
0.99937701
0.9993442
0.99931355
0.99928497
0.99925841
0.99923393
0.99921128
0.99919048
0.99917128
0.99915371
0.99913737
1.0002597
1.000257
1.0002543
1.0002511
1.0002475
1.0002434
1.0002388
1.0002335
1.0002275
1.0002207
1.000213
1.0002041
1.0001941
1.0001828
1.00017
1.0001555
1.0001393
1.0001212
1.000101
1.0000787
1.0000542
1.0000274
0.99999838
0.99996719
0.99993394
0.99989874
0.99986175
0.99982323
0.99978347
0.99974278
0.99970154
0.99966011
0.99961887
0.99957819
0.99953837
0.99949974
0.9994626
0.99942719
0.99939362
0.99936207
0.9993326
0.99930517
0.99927971
0.9992563
0.99923468
0.99921489
0.99919668
0.99918007
0.99916469
1.0002433
1.0002408
1.0002381
1.0002351
1.0002316
1.0002276
1.0002232
1.000218
1.0002122
1.0002056
1.0001981
1.0001896
1.0001799
1.0001689
1.0001565
1.0001426
1.0001269
1.0001094
1.00009
1.0000685
1.0000449
1.0000192
0.99999133
0.99996139
0.99992949
0.99989574
0.99986027
0.99982334
0.99978521
0.99974618
0.99970659
0.9996668
0.99962715
0.99958801
0.99954966
0.99951242
0.99947659
0.99944241
0.99941001
0.99937954
0.9993511
0.99932465
0.99930012
0.99927757
0.99925678
0.99923776
0.99922026
0.99920431
0.99918953
1.0002274
1.000225
1.0002225
1.0002195
1.0002162
1.0002124
1.0002081
1.0002031
1.0001975
1.0001912
1.0001839
1.0001757
1.0001663
1.0001557
1.0001438
1.0001303
1.0001153
1.0000985
1.0000798
1.0000592
1.0000365
1.0000118
0.99998511
0.99995642
0.99992586
0.99989354
0.99985958
0.99982421
0.99978768
0.99975027
0.9997123
0.99967409
0.99963596
0.99959826
0.99956128
0.99952532
0.99949067
0.99945758
0.99942617
0.99939664
0.99936907
0.99934345
0.99931972
0.99929796
0.99927797
0.99925974
0.99924306
0.99922794
0.99921402
1.000212
1.0002097
1.0002073
1.0002045
1.0002013
1.0001976
1.0001935
1.0001888
1.0001834
1.0001773
1.0001703
1.0001624
1.0001534
1.0001432
1.0001317
1.0001188
1.0001044
1.0000882
1.0000703
1.0000505
1.0000289
1.0000052
0.99997966
0.99995223
0.99992301
0.9998921
0.99985964
0.99982581
0.99979087
0.99975505
0.99971865
0.99968197
0.9996453
0.99960898
0.99957327
0.99953847
0.99950487
0.99947271
0.99944215
0.99941337
0.99938648
0.99936148
0.99933833
0.99931708
0.99929754
0.9992797
0.99926334
0.99924847
0.99923475
1.000197
1.0001949
1.0001926
1.0001899
1.0001869
1.0001834
1.0001795
1.0001749
1.0001698
1.0001639
1.0001572
1.0001497
1.000141
1.0001313
1.0001203
1.0001079
1.0000941
1.0000787
1.0000615
1.0000426
1.0000219
0.99999935
0.99997494
0.99994876
0.99992087
0.99989138
0.99986041
0.99982812
0.99979475
0.9997605
0.99972564
0.99969045
0.99965521
0.9996202
0.99958567
0.99955193
0.99951925
0.99948788
0.999458
0.9994298
0.99940341
0.99937888
0.99935619
0.99933542
0.99931642
0.99929919
0.99928355
0.99926947
0.99925664
1.0001825
1.0001805
1.0001783
1.0001758
1.000173
1.0001697
1.0001659
1.0001616
1.0001567
1.0001511
1.0001447
1.0001375
1.0001293
1.00012
1.0001095
1.0000977
1.0000845
1.0000698
1.0000534
1.0000354
1.0000157
0.99999415
0.99997091
0.99994597
0.99991943
0.99989135
0.99986186
0.99983111
0.99979929
0.99976661
0.99973328
0.99969957
0.9996657
0.99963196
0.99959856
0.99956578
0.99953391
0.99950318
0.99947379
0.99944597
0.99941985
0.99939549
0.99937291
0.99935217
0.99933311
0.99931571
0.99929979
0.99928533
0.99927201
1.0001685
1.0001666
1.0001646
1.0001622
1.0001595
1.0001564
1.0001528
1.0001487
1.0001441
1.0001388
1.0001327
1.0001258
1.000118
1.0001092
1.0000992
1.000088
1.0000755
1.0000615
1.0000459
1.0000288
1.00001
0.99998961
0.99996753
0.99994385
0.99991864
0.99989199
0.99986398
0.99983476
0.99980451
0.99977338
0.99974159
0.99970934
0.99967684
0.99964433
0.99961201
0.99958012
0.99954894
0.99951872
0.99948967
0.99946203
0.99943599
0.99941166
0.99938912
0.9993685
0.99934972
0.9993328
0.99931761
0.99930409
0.99929198
1.0001549
1.0001532
1.0001513
1.0001491
1.0001465
1.0001436
1.0001402
1.0001364
1.000132
1.0001269
1.0001212
1.0001147
1.0001073
1.000099
1.0000895
1.0000789
1.000067
1.0000538
1.000039
1.0000228
1.000005
0.99998566
0.99996475
0.99994232
0.99991846
0.99989323
0.99986671
0.99983905
0.99981037
0.99978084
0.99975059
0.99971983
0.99968871
0.99965742
0.99962615
0.9995951
0.99956453
0.99953468
0.99950578
0.99947808
0.9994518
0.99942708
0.999404
0.99938266
0.99936298
0.99934495
0.99932839
0.99931331
0.99929938
1.0001419
1.0001403
1.0001385
1.0001364
1.000134
1.0001312
1.0001281
1.0001244
1.0001203
1.0001156
1.0001102
1.000104
1.0000971
1.0000892
1.0000803
1.0000703
1.0000591
1.0000466
1.0000327
1.0000174
1.0000006
0.99998225
0.99996251
0.99994133
0.9999188
0.999895
0.99986998
0.99984388
0.9998168
0.99978888
0.99976023
0.999731
0.99970132
0.99967131
0.99964112
0.99961091
0.9995809
0.99955134
0.99952243
0.99949448
0.99946777
0.99944252
0.99941896
0.99939732
0.99937768
0.99936015
0.99934466
0.99933116
0.99931942
1.0001293
1.0001278
1.0001261
1.0001241
1.0001219
1.0001193
1.0001163
1.0001129
1.000109
1.0001046
1.0000995
1.0000938
1.0000873
1.0000799
1.0000716
1.0000622
1.0000517
1.0000399
1.0000269
1.0000124
0.99999661
0.99997938
0.99996082
0.99994091
0.99991974
0.99989737
0.99987385
0.9998493
0.99982383
0.99979752
0.99977049
0.99974282
0.99971463
0.99968595
0.9996569
0.9996276
0.9995982
0.9995689
0.99953989
0.99951147
0.9994839
0.99945745
0.99943231
0.99940869
0.99938663
0.99936617
0.9993472
0.99932978
0.99931361
1.0001173
1.0001158
1.0001142
1.0001124
1.0001102
1.0001078
1.000105
1.0001018
1.0000982
1.000094
1.0000894
1.000084
1.000078
1.0000711
1.0000633
1.0000546
1.0000448
1.0000338
1.0000215
1.000008
0.99999323
0.9999771
0.99995976
0.99994116
0.9999214
0.99990052
0.99987855
0.99985563
0.99983182
0.9998072
0.99978184
0.99975578
0.99972909
0.99970178
0.9996739
0.9996455
0.9996167
0.99958761
0.99955843
0.99952944
0.99950098
0.99947343
0.99944722
0.99942281
0.99940058
0.99938087
0.99936387
0.99934953
0.99933779
1.0001055
1.0001041
1.0001026
1.0001009
1.0000989
1.0000966
1.000094
1.000091
1.0000876
1.0000838
1.0000795
1.0000745
1.0000689
1.0000626
1.0000554
1.0000473
1.0000382
1.0000281
1.0000167
1.0000041
0.99999028
0.99997516
0.99995896
0.99994158
0.99992315
0.99990376
0.9998834
0.99986222
0.99984022
0.99981749
0.99979407
0.99976996
0.99974509
0.99971945
0.99969303
0.99966578
0.99963772
0.99960886
0.99957933
0.99954934
0.99951919
0.9994892
0.99945973
0.99943112
0.99940357
0.99937729
0.99935232
0.99932894
0.9993069
1.0000946
1.0000932
1.0000917
1.0000899
1.0000879
1.0000856
1.0000831
1.0000803
1.0000772
1.0000738
1.0000699
1.0000654
1.0000604
1.0000546
1.0000481
1.0000407
1.0000323
1.0000228
1.0000122
1.0000004
0.99998735
0.99997312
0.9999579
0.99994156
0.99992427
0.99990612
0.99988712
0.99986744
0.99984704
0.99982607
0.99980457
0.99978247
0.99975975
0.99973626
0.99971194
0.99968658
0.99966009
0.99963236
0.99960336
0.99957318
0.99954208
0.99951046
0.99947898
0.99944859
0.99942033
0.9993952
0.9993741
0.99935725
0.99934498
1.0000834
1.0000818
1.0000803
1.0000785
1.0000767
1.0000747
1.0000726
1.0000703
1.0000676
1.0000646
1.0000612
1.0000573
1.0000527
1.0000475
1.0000414
1.0000345
1.0000267
1.000018
1.0000081
0.99999721
0.99998524
0.99997218
0.99995837
0.99994357
0.99992788
0.99991123
0.99989359
0.99987532
0.99985631
0.99983677
0.99981664
0.9997956
0.99977439
0.99975232
0.99972956
0.9997056
0.99968047
0.99965373
0.99962536
0.99959512
0.99956312
0.9995293
0.99949378
0.9994566
0.99941806
0.99937839
0.99933828
0.9992982
0.99925998
1.0000738
1.0000723
1.0000707
1.000069
1.0000671
1.0000651
1.0000628
1.0000604
1.0000578
1.0000549
1.0000517
1.000048
1.0000437
1.0000388
1.0000335
1.0000275
1.0000209
1.0000134
1.0000051
0.99999591
0.99998559
0.99997399
0.99996233
0.99994996
0.99993684
0.99992287
0.99990798
0.99989257
0.9998765
0.99986001
0.9998427
0.99982443
0.99980527
0.99978528
0.99976412
0.99974154
0.99971732
0.99969092
0.99966216
0.99963032
0.99959562
0.99955775
0.99951782
0.99947707
0.9994377
0.99940183
0.99937309
0.99935118
0.99934096
1.0000625
1.0000597
1.000057
1.0000545
1.0000523
1.0000502
1.0000484
1.0000466
1.0000448
1.0000429
1.0000406
1.0000376
1.0000341
1.0000305
1.0000263
1.0000216
1.000016
1.0000095
1.0000018
0.99999316
0.99998275
0.99997094
0.99995924
0.99994686
0.99993374
0.99992051
0.99990706
0.99989354
0.99987958
0.99986611
0.9998525
0.99984126
0.99982625
0.99981288
0.99979679
0.99978099
0.99976251
0.99974294
0.99972003
0.99969452
0.99966425
0.99962902
0.99958449
0.99953227
0.9994695
0.99939354
0.99930516
0.99920372
0.99910184
1.0000519
1.00005
1.0000487
1.0000482
1.000048
1.000048
1.0000477
1.0000473
1.0000465
1.0000454
1.0000437
1.0000415
1.000039
1.0000354
1.0000302
1.0000235
1.0000156
1.0000064
0.99999575
0.99998367
0.99997003
0.99995693
0.9999414
0.99992467