/*--------------------------------*- C++ -*----------------------------------*\
| =========                 |                                                 |
| \\      /  F ield         | OpenFOAM: The Open Source CFD Toolbox           |
|  \\    /   O peration     | Version:  v2006                                 |
|   \\  /    A nd           | Website:  www.openfoam.com                      |
|    \\/     M anipulation  |                                                 |
\*---------------------------------------------------------------------------*/
FoamFile
{
    version     2.0;
    format      ascii;
    class       surfaceScalarField;
    location    "500";
    object      phi;
}
// * * * * * * * * * * * * * * * * * * * * * * * * * * * * * * * * * * * * * //

dimensions      [1 0 -1 0 0 0 0];
oriented        oriented;


internalField   nonuniform List<scalar> 
39234
(
-0.00069128081
1.4924497e-10
0.00069128066
-0.00067424505
-1.7035766e-05
-0.00062592956
-4.8315499e-05
-0.00058444549
-4.1484072e-05
-0.00054282282
-4.1622671e-05
-0.0005067442
-3.6078632e-05
-0.00046242472
-4.4319478e-05
-0.00042569403
-3.67307e-05
-0.00038041926
-4.5274776e-05
-0.00033395515
-4.6464114e-05
-0.00029268718
-4.1267969e-05
-0.00025360232
-3.9084876e-05
-0.00021294846
-4.0653852e-05
-0.0001733581
-3.9590371e-05
-0.00013364177
-3.9716332e-05
-9.1186458e-05
-4.2455315e-05
-4.7414515e-05
-4.3771943e-05
-3.3656636e-06
-4.4048858e-05
4.1696193e-05
-4.5061857e-05
8.8449977e-05
-4.6753793e-05
0.00013660544
-4.8155462e-05
0.0001845801
-4.7974672e-05
0.00023347769
-4.8897583e-05
0.00028336285
-4.9885172e-05
0.0003305238
-4.7160947e-05
0.0003726252
-4.2101401e-05
0.00041418952
-4.1564318e-05
0.00045549025
-4.1300737e-05
0.00049171456
-3.6224309e-05
0.00052583712
-3.4122556e-05
0.00055988064
-3.4043521e-05
0.00059474617
-3.4865533e-05
0.00063191937
-3.7173198e-05
0.00065992393
-2.8004554e-05
0.00068032895
-2.0405016e-05
0.00070406963
-2.3740678e-05
0.00073333964
-2.9270007e-05
0.00075535476
-2.201512e-05
0.0007824532
-2.7098435e-05
0.00081983055
-3.7377353e-05
0.00084819551
-2.8364956e-05
0.00085913407
-1.0938553e-05
0.00088253653
-2.3402462e-05
0.00088209066
4.4587629e-07
0.00088850665
-6.4159853e-06
0.00087652455
1.1982101e-05
0.00086003174
1.6492804e-05
0.00083957686
2.0454885e-05
1.5213655e-05
0.00082436321
-0.0006472179
-1.5634721e-05
0.00066285276
-0.00062906574
-3.5187933e-05
-0.00060747845
-6.9902786e-05
-0.00058274367
-6.6218857e-05
-0.00055674835
-6.7617993e-05
-0.00053022771
-6.2599275e-05
-0.00050317803
-7.1369161e-05
-0.00047557163
-6.4337109e-05
-0.00044710134
-7.3745069e-05
-0.00041649056
-7.7074897e-05
-0.00038405731
-7.3701217e-05
-0.00035000011
-7.3142078e-05
-0.00031402375
-7.6630213e-05
-0.00027618353
-7.7430599e-05
-0.00023611409
-7.9785776e-05
-0.00019300538
-8.5564026e-05
-0.00014644552
-9.0331798e-05
-9.689885e-05
-9.3595534e-05
-4.4737944e-05
-9.7222765e-05
9.4803312e-06
-0.00010097207
6.5435674e-05
-0.00010411081
0.00012289193
-0.00010543094
0.00018097555
-0.0001069812
0.00023903191
-0.00010794154
0.00029672984
-0.00010485888
0.00035357036
-9.894192e-05
0.00040834523
-9.633919e-05
0.00046050687
-9.3462384e-05
0.00050989062
-8.5608057e-05
0.00055590546
-8.0137392e-05
0.00059825475
-7.6392812e-05
0.00063680668
-7.3417458e-05
0.00067122386
-7.1590382e-05
0.0007021819
-5.8962591e-05
0.00073044427
-4.8667385e-05
0.00075604391
-4.9340315e-05
0.00077888537
-5.2111468e-05
0.00079974679
-4.2876536e-05
0.00081868971
-4.6041348e-05
0.00083505721
-5.3744855e-05
0.00084917255
-4.2480297e-05
0.00086295834
-2.4724344e-05
0.00087536406
-3.5808175e-05
0.00088726023
-1.1450294e-05
0.00089821233
-1.7368088e-05
0.00090770167
2.4927629e-06
0.00091597567
8.2188094e-06
0.00092312411
1.3306438e-05
8.4172039e-06
0.00092992057
-0.00070784413
-2.9260615e-05
0.00072147002
-0.00069065424
-5.2377824e-05
-0.00067054086
-9.001617e-05
-0.00064866994
-8.8089784e-05
-0.0006255753
-9.0712638e-05
-0.00060145469
-8.6719894e-05
-0.00057628387
-9.6539976e-05
-0.00054989733
-9.0723658e-05
-0.00052213305
-0.00010150935
-0.00049226552
-0.00010694244
-0.00046006012
-0.00010590662
-0.00042541123
-0.00010779098
-0.00038804633
-0.00011399511
-0.00034782705
-0.00011764989
-0.00030459534
-0.00012301748
-0.00025787469
-0.00013228468
-0.00020732303
-0.00014088346
-0.00015320122
-0.00014771736
-9.5750899e-05
-0.00015467309
-3.5396134e-05
-0.00016132685
2.7426381e-05
-0.00016693333
9.227217e-05
-0.00017027674
0.00015817718
-0.00017288622
0.00022431902
-0.00017408339
0.00029018013
-0.00017071999
0.00035516884
-0.00016393064
0.00041813656
-0.00015930691
0.00047838928
-0.00015371512
0.00053561162
-0.00014283039
0.00058910089
-0.00013362667
0.00063839325
-0.00012568517
0.00068318872
-0.00011821294
0.00072332886
-0.00011173052
0.00075957099
-9.5204721e-05
0.00079223976
-8.1336158e-05
0.0008211045
-7.820505e-05
0.00084647769
-7.7484663e-05
0.00086931929
-6.5718131e-05
0.00088936152
-6.6083576e-05
0.00090668196
-7.1065292e-05
0.00092223929
-5.8037632e-05
0.00093641967
-3.8904722e-05
0.00094827992
-4.766842e-05
0.00095854348
-2.1713859e-05
0.00096685382
-2.5678425e-05
0.00097379351
-4.4469253e-06
0.00097938837
2.6239531e-06
0.00098412985
8.5649568e-06
3.8931579e-06
0.00098865389
-0.00072741363
-4.2067049e-05
0.00074022006
-0.0007136547
-6.6136759e-05
-0.00069916404
-0.00010450684
-0.00068302078
-0.00010423304
-0.00066547132
-0.0001082621
-0.00064634963
-0.00010584159
-0.0006257444
-0.00011714521
-0.00060313236
-0.0001133357
-0.00057854567
-0.00012609605
-0.0005512985
-0.00013418961
-0.00052103643
-0.0001361687
-0.00048757079
-0.00014125662
-0.00045065722
-0.00015090868
-0.0004100601
-0.00015824702
-0.00036556841
-0.00016750918
-0.00031684623
-0.00018100687
-0.00026366123
-0.00019406847
-0.00020622924
-0.00020514935
-0.00014481048
-0.00021609186
-7.9845026e-05
-0.00022629232
-1.1825443e-05
-0.00023495293
5.866438e-05
-0.00024076658
0.00013057745
-0.0002447993
0.00020305295
-0.0002465589
0.00027546094
-0.00024312799
0.00034705935
-0.00023552906
0.00041653136
-0.00022877892
0.00048300577
-0.00022018954
0.00054606587
-0.00020589049
0.00060490878
-0.00019246958
0.00065898396
-0.00017976035
0.00070798701
-0.00016721599
0.00075175373
-0.00015549723
0.00079105155
-0.00013450254
0.00082613189
-0.0001164165
0.00085670184
-0.000108775
0.00088302494
-0.00010380776
0.00090615838
-8.8851576e-05
0.00092585645
-8.5781641e-05
0.00094227012
-8.7478963e-05
0.00095669485
-7.2462359e-05
0.00097002113
-5.2231003e-05
0.00098136167
-5.9008953e-05
0.00099228016
-3.2632351e-05
0.0010019541
-3.5352385e-05
0.0010116043
-1.4097114e-05
0.0010211426
-6.9143814e-06
0.0010308343
-1.1266708e-06
-5.9769819e-06
0.0010407044
-0.00077143133
-5.4233333e-05
0.00078359761
-0.00075852401
-7.9044089e-05
-0.00074484915
-0.0001181817
-0.00072994364
-0.00011913856
-0.00071374487
-0.00012446087
-0.0006959992
-0.00012358728
-0.00067658918
-0.00013655523
-0.00065503691
-0.00013488797
-0.0006312059
-0.00014992707
-0.00060445741
-0.00016093811
-0.00057435747
-0.00016626864
-0.00054060747
-0.00017500663
-0.00050290537
-0.00018861079
-0.00046094632
-0.00020020607
-0.00041451697
-0.00021393853
-0.00036337732
-0.00023214653
-0.000307313
-0.00025013279
-0.00024646055
-0.00026600181
-0.00018108063
-0.00028147178
-0.00011159235
-0.00029578061
-3.8523158e-05
-0.00030802213
3.7445213e-05
-0.00031673496
0.0001151759
-0.00032252999
0.00019367491
-0.00032505792
0.00027214819
-0.00032160127
0.00034970489
-0.00031308576
0.00042504118
-0.00030411522
0.00049720382
-0.00029235219
0.00056561763
-0.00027430431
0.00062945304
-0.00025630499
0.00068812532
-0.00023843263
0.000741305
-0.00022039567
0.0007888346
-0.00020302683
0.00083130142
-0.00017696936
0.00086891729
-0.00015403236
0.00090152968
-0.0001413874
0.00092947895
-0.00013175703
0.00095370831
-0.00011308094
0.00097420475
-0.00010627809
0.00099130645
-0.00010458066
0.0010061456
-8.7301479e-05
0.0010194843
-6.5569747e-05
0.001030833
-7.0357679e-05
0.0010415105
-4.3309846e-05
0.0010510678
-4.4909631e-05
0.001060358
-2.3387324e-05
0.0010692475
-1.5803868e-05
0.0010779177
-9.796916e-06
-1.4448731e-05
0.0010863895
-0.0008160267
-6.4772054e-05
0.00082656542
-0.00080488999
-9.0180805e-05
-0.00079288612
-0.00013018558
-0.00077958561
-0.00013243907
-0.0007648266
-0.00013921988
-0.00074831934
-0.00014009455
-0.00072982926
-0.00015504531
-0.00070892203
-0.00015579521
-0.00068534278
-0.00017350633
-0.00065851268
-0.00018776821
-0.00062799968
-0.00019678164
-0.00059344757
-0.00020955874
-0.0005545019
-0.00022755646
-0.00051083219
-0.00024387578
-0.00046219023
-0.0002625805
-0.00040832597
-0.00028601079
-0.00034906037
-0.00030939839
-0.00028453714
-0.00033052505
-0.00021504332
-0.0003509656
-0.00014104452
-0.00036977942
-6.315342e-05
-0.00038591323
1.7911805e-05
-0.0003978002
0.00010110873
-0.00040572693
0.00018534808
-0.00040929727
0.00026967297
-0.00040592617
0.00035307017
-0.00039648297
0.00043420231
-0.00038524736
0.00051202956
-0.00037017944
0.00058585714
-0.00034813189
0.0006548215
-0.00032526935
0.00071830079
-0.00030191191
0.00077593089
-0.00027802578
0.00082753147
-0.00025462742
0.00087357523
-0.00022301313
0.00091426816
-0.00019472528
0.00094955677
-0.00017667601
0.00097979792
-0.00016199818
0.0010058571
-0.00013914012
0.0010278687
-0.00012828968
0.0010462332
-0.00012294514
0.0010619663
-0.00010303456
0.0010758401
-7.9443612e-05
0.0010876414
-8.2158929e-05
0.0010985295
-5.4197949e-05
0.00110834
-5.4720142e-05
0.0011178589
-3.2906273e-05
0.0011272349
-2.5179868e-05
0.0011367375
-1.9299461e-05
-2.4059159e-05
0.0011463479
-0.00086892073
-7.489351e-05
0.00087904218
-0.00085821695
-0.00010088459
-0.00084661469
-0.00014178784
-0.00083376537
-0.00014528839
-0.00081941901
-0.00015356625
-0.00080324549
-0.00015626807
-0.00078492438
-0.00017336642
-0.00076401516
-0.00017670444
-0.00074017217
-0.00019734932
-0.00071282413
-0.00021511626
-0.00068151003
-0.00022809574
-0.0006458211
-0.00024524768
-0.00060535654
-0.00026802102
-0.00055975451
-0.00028947782
-0.00050873388
-0.00031360113
-0.00045203495
-0.00034270972
-0.0003894923
-0.00037194105
-0.00032123789
-0.00039877946
-0.00024756167
-0.00042464184
-0.00016894458
-0.00044839651
-8.6032294e-05
-0.00046882553
3.9907981e-07
-0.00048423158
8.923947e-05
-0.00049456732
0.00017930852
-0.00049936633
0.00026955587
-0.00049617353
0.00035886174
-0.00048578884
0.00044584078
-0.00047222641
0.00052937894
-0.0004537176
0.00060868017
-0.00042743313
0.00068283745
-0.00039942664
0.00075119313
-0.00037026759
0.00081335155
-0.0003401842
0.00086911714
-0.00031039301
0.00091888744
-0.00027278343
0.00096285261
-0.00023869045
0.0010010159
-0.00021483929
0.00103377
-0.00019475232
0.0010619548
-0.00016732493
0.0010857834
-0.00015211826
0.0011057184
-0.00014288008
0.0011227526
-0.00012006882
0.0011376429
-9.4333898e-05
0.0011503016
-9.4817664e-05
0.0011618249
-6.5721215e-05
0.0011721429
-6.5038144e-05
0.001182005
-4.276838e-05
0.0011915642
-3.4739045e-05
0.0012010918
-2.8827065e-05
-3.3682081e-05
0.0012107147
-0.00092439031
-8.4141655e-05
0.00093363845
-0.00091445203
-0.00011082288
-0.0009034679
-0.00015277197
-0.00089111752
-0.00015763877
-0.00087711857
-0.00016756521
-0.00086112652
-0.00017226012
-0.00084277172
-0.00019172122
-0.00082161631
-0.00019785986
-0.00079724994
-0.00022171569
-0.00076910748
-0.00024325872
-0.00073670823
-0.00026049499
-0.00069960076
-0.00028235516
-0.0006573421
-0.00031027969
-0.00060954411
-0.00033727581
-0.0005558963
-0.00036724895
-0.0004961231
-0.00040248293
-0.00043006991
-0.00043799423
-0.00035786677
-0.00047098261
-0.00027981191
-0.0005026967
-0.00019640878
-0.00053179965
-0.00010834146
-0.00055689285
-1.6461891e-05
-0.00057611116
7.8094647e-05
-0.00058912387
0.00017410023
-0.00059537192
0.00027038369
-0.000592457
0.00036572577
-0.00058113093
0.00045868182
-0.00056518246
0.00054805931
-0.00054309509
0.00063297028
-0.00051234411
0.00071246287
-0.00047891923
0.00078583906
-0.00044364379
0.0008526685
-0.00040701364
0.00091273325
-0.00037045776
0.00096636913
-0.00032641932
0.001013764
-0.00028608527
0.0010549729
-0.00025604827
0.0010904047
-0.00023018407
0.0011208736
-0.00019779381
0.0011466642
-0.0001779089
0.0011682732
-0.00016448906
0.0011866582
-0.00013845384
0.0012025839
-0.00011025962
0.0012160707
-0.00010830444
0.0012281687
-7.781925e-05
0.0012389056
-7.5774957e-05
0.0012490207
-5.2883549e-05
0.0012587358
-4.4454101e-05
0.0012683688
-3.8460057e-05
-4.3373115e-05
0.0012780598
-0.00098508982
-9.3055409e-05
0.00099400357
-0.00097541501
-0.00012049769
-0.00096461015
-0.00016357683
-0.00095236581
-0.00016988312
-0.00093836135
-0.00018156967
-0.00092222727
-0.00018839421
-0.00090355217
-0.00021039633
-0.00088188193
-0.0002195301
-0.00085675413
-0.0002468435
-0.00082759339
-0.00027241947
-0.00079389017
-0.00029419822
-0.00075515159
-0.00032109373
-0.00071089478
-0.00035453651
-0.00066070145
-0.00038746914
-0.00060423069
-0.00042371971
-0.00054118957
-0.00046552406
-0.00047142708
-0.00050775672
-0.00039506961
-0.00054734008
-0.00031242252
-0.00058534379
-0.00022400967
-0.00062021251
-0.00013055189
-0.00065035063
-3.2957482e-05
-0.00067370557
6.7577461e-05
-0.00068965882
0.00016975351
-0.00069754797
0.00027230362
-0.00069500711
0.0003739122
-0.00068273951
0.00047306993
-0.0006643402
0.00056850698
-0.00063853215
0.00065924786
-0.00060308499
0.00074429081
-0.00056396218
0.00082289634
-0.00052224932
0.00089460058
-0.00047871788
0.00095916613
-0.00043502331
0.0010168824
-0.00038413556
0.0010679304
-0.00033713326
0.0011123996
-0.00030051755
0.0011507199
-0.00026850434
0.0011836987
-0.00023077258
0.0012116696
-0.00020587982
0.0012351669
-0.00018798637
0.0012551479
-0.00015843479
0.001272381
-0.00012749272
0.0012869543
-0.00012287784
0.0012999048
-9.076974e-05
0.001311309
-8.7179155e-05
0.0013219086
-6.3483095e-05
0.0013319447
-5.4490206e-05
0.001341747
-4.8262365e-05
-5.3118204e-05
0.0013514921
-0.0010493004
-0.00010153719
0.0010577822
-0.0010399384
-0.00012985968
-0.0010293214
-0.00017419381
-0.0010171374
-0.00018206712
-0.0010030449
-0.00019566217
-0.00098665645
-0.0002047827
-0.00096753077
-0.00022952201
-0.00094519679
-0.0002418641
-0.00091915012
-0.00027289016
-0.00088880101
-0.00030276859
-0.0008536112
-0.00032938803
-0.00081304962
-0.00036165531
-0.00076659554
-0.00040099059
-0.00071380075
-0.00044026393
-0.00065429547
-0.00048322499
-0.00058776846
-0.00053205107
-0.00051406871
-0.00058145648
-0.00043332021
-0.00062808858
-0.00034583729
-0.00067282671
-0.00025216685
-0.00071388296
-0.00015306978
-0.00074944771
-4.9511411e-05
-0.00077726394
5.7251332e-05
-0.00079642156
0.00016584747
-0.00080614411
0.00027491641
-0.00080407606
0.0003830451
-0.00079086821
0.00048865162
-0.00076994672
0.00059038486
-0.00074026539
0.00068718332
-0.00069988345
0.00077799192
-0.00065477079
0.00086202627
-0.00060628366
0.00093878655
-0.00055547817
0.0010080124
-0.00050424918
0.0010699529
-0.00044607605
0.0011247864
-0.0003919667
0.0011726338
-0.000348365
0.0012139407
-0.00030981121
0.0012495107
-0.00026634265
0.0012797253
-0.00023609438
0.0013051483
-0.00021340938
0.0013267336
-0.00018002012
0.0013452644
-0.00014602349
0.00136089
-0.00013850345
0.0013746398
-0.0001045195
0.00138664
-9.9179345e-05
0.0013976389
-7.4482055e-05
0.0014079096
-6.4760841e-05
0.0014178048
-5.8157615e-05
-6.2825102e-05
0.0014275117
-0.0011180613
-0.00010982325
0.0011263473
-0.0011087978
-0.0001391231
-0.0010981796
-0.00018481204
-0.0010858811
-0.00019436561
-0.0010715363
-0.00021000696
-0.0010547343
-0.00022158473
-0.0010350059
-0.0002492504
-0.0010118547
-0.00026501531
-0.00098473886
-0.00030000602
-0.00095304684
-0.00033446061
-0.00091620698
-0.0003662279
-0.00087364958
-0.00040421272
-0.00082481633
-0.00044982384
-0.00076922666
-0.0004958536
-0.00070648123
-0.00054597043
-0.00063625
-0.00060228229
-0.00055837889
-0.0006593276
-0.00047298937
-0.0007134781
-0.00038040576
-0.00076541032
-0.00028119944
-0.00081308927
-0.00017617259
-0.00085447456
-6.6348366e-05
-0.00088708817
4.6950769e-05
-0.0009097207
0.00016227543
-0.00092146878
0.00027817063
-0.00091997127
0.00039312523
-0.00090582281
0.00050547913
-0.00088230062
0.00061379768
-0.00084858394
0.00071693368
-0.00080301946
0.00081377511
-0.00075161222
0.00090349077
-0.00069599932
0.00098554465
-0.00063753205
0.0010596543
-0.00057835884
0.0011260358
-0.00051245757
0.0011848646
-0.0004507955
0.0012362873
-0.0003997877
0.0012807679
-0.00035429179
0.0013191152
-0.00030468996
0.0013517506
-0.00026872971
0.0013792701
-0.00024092893
0.0014026395
-0.00020338955
0.0014226559
-0.00016603986
0.001439516
-0.00015536351
0.0014542556
-0.00011925917
0.0014670343
-0.00011195797
0.0014786137
-8.6061451e-05
0.001489284
-7.5431152e-05
0.0014994132
-6.8286836e-05
-7.2627034e-05
0.0015092151
-0.0011908861
-0.00011792133
0.0011989841
-0.0011816981
-0.00014831111
-0.001171042
-0.00019546813
-0.0011585726
-0.00020683501
-0.0011439043
-0.00022467522
-0.0011266037
-0.00023888532
-0.001106177
-0.00026967712
-0.0010820999
-0.0002890924
-0.0010537965
-0.00032830948
-0.0010206296
-0.00036762747
-0.00098199242
-0.00040486512
-0.00093727669
-0.00044892845
-0.00088588664
-0.00050121389
-0.0008273081
-0.00055443215
-0.00076111196
-0.00061216657
-0.00068694897
-0.00067644529
-0.00060465972
-0.00074161685
-0.00051436352
-0.0008037743
-0.00041639607
-0.00086337777
-0.00031135533
-0.00091813001
-0.00020008724
-0.00096574266
-8.3675654e-05
-0.0010034998
3.648807e-05
-0.0010298844
0.00015887276
-0.0010438535
0.00028192666
-0.0010430252
0.00040403745
-0.0010279336
0.00052346038
-0.0010017236
0.0006386731
-0.00096379667
0.0007484413
-0.00091278765
0.00085159192
-0.00085476284
0.00094724371
-0.00079165112
0.0010348222
-0.00072511058
0.0011140209
-0.00065755747
0.0011850258
-0.0005834625
0.0012480106
-0.00051378032
0.0013031455
-0.0004549226
0.001350912
-0.00040205826
0.0013921271
-0.00034590507
0.0014272521
-0.00030385466
0.0014569139
-0.00027059079
0.001482091
-0.00022856665
0.0015036006
-0.00018754947
0.0015216851
-0.00017344799
0.0015373908
-0.00013496489
0.0015509113
-0.00012547839
0.0015630237
-9.8173934e-05
0.0015740394
-8.6446805e-05
0.0015843435
-7.8590966e-05
-8.2442877e-05
0.0015941594
-0.0012683317
-0.00012595079
0.0012763611
-0.0012591085
-0.0001575343
-0.0012483121
-0.00020626452
-0.0012355719
-0.00021957524
-0.0012204806
-0.00023976644
-0.0012025792
-0.00025678674
-0.001181349
-0.0002909073
-0.0011562334
-0.00031420809
-0.001126623
-0.00035791988
-0.0010918507
-0.00040239969
-0.0010512711
-0.00044544476
-0.0010042361
-0.00049596352
-0.00095011144
-0.0005553385
-0.00088834732
-0.00061619626
-0.00081848385
-0.00068203004
-0.00074015191
-0.00075477723
-0.00065318502
-0.00082858373
-0.00055770043
-0.0008992589
-0.0004540465
-0.00096703169
-0.00034284973
-0.0010293268
-0.00022500227
-0.0010835901
-0.0001016516
-0.0011268504
2.5738038e-05
-0.0011572741
0.00015554888
-0.0011736643
0.00028612856
-0.0011736049
0.00041575994
-0.001157565
0.0005426077
-0.0011285713
0.0006650579
-0.0010862469
0.000781787
-0.0010295168
0.00089155712
-0.00096453297
0.00099343442
-0.00089352842
0.0010868049
-0.00081848104
0.0011713375
-0.00074209012
0.0012471927
-0.00065931763
0.001314543
-0.00058113067
0.001373581
-0.00051396058
0.0014248081
-0.00045328535
0.0014690551
-0.0003901521
0.0015068217
-0.00034162122
0.001538768
-0.0003025371
0.0015658929
-0.00025569153
0.0015890349
-0.00021069154
0.0016084774
-0.00019289048
0.0016252838
-0.00015177122
0.0016396757
-0.00013987028
0.0016524495
-0.00011094781
0.0016639331
-9.793039e-05
0.0016745273
-8.9185159e-05
-9.2390925e-05
0.0016844754
-0.0013503618
-0.00013394391
0.0013583549
-0.0013410658
-0.00016683022
-0.0013300858
-0.00021724451
-0.0013170216
-0.00023263945
-0.0013014453
-0.00025534278
-0.0012828709
-0.0002753611
-0.0012607554
-0.00031302285
-0.0012345068
-0.00034045672
-0.001203483
-0.00038894366
-0.0011669835
-0.00043889916
-0.0011243217
-0.0004881066
-0.0010748084
-0.00054547676
-0.0010177702
-0.00061237672
-0.0009526195
-0.000681347
-0.00087886469
-0.00075578485
-0.00079611612
-0.0008375258
-0.00070419884
-0.00092050101
-0.00060322821
-0.0010002295
-0.00049356667
-0.0010766932
-0.00037587137
-0.0011470221
-0.00025108353
-0.001208378
-0.00012041767
-0.0012575163
1.4584721e-05
-0.0012922765
0.00015221463
-0.0013112942
0.00029071449
-0.0013121047
0.00042825764
-0.0012951081
0.00056291208
-0.0012632258
0.0006929675
-0.0012163023
0.00081700799
-0.0011535572
0.00093372649
-0.0010812515
0.0010421333
-0.0010019352
0.0011415725
-0.00091792029
0.0012316874
-0.00083220504
0.0013126141
-0.00074024427
0.0013845248
-0.00065304143
0.0014476334
-0.0005770691
0.0015024616
-0.00050811357
0.0015498569
-0.00043754745
0.0015903579
-0.00038212219
0.0016246588
-0.00033683796
0.0016537811
-0.00028481387
0.001678589
-0.00023549943
0.001699407
-0.00021370844
0.0017173186
-0.00016968287
0.0017325756
-0.00015512728
0.0017459953
-0.0001243675
0.0017579242
-0.00010985931
0.00176878
-0.00010004093
-0.00010242806
0.0017788171
-0.0014373812
-0.00014197178
0.0014454091
-0.001427944
-0.00017626742
-0.001416713
-0.00022847557
-0.001403255
-0.00024609746
-0.0013871197
-0.00027147803
-0.0013677923
-0.00029468857
-0.0013447038
-0.00033611134
-0.0013172238
-0.00036793673
-0.0012846767
-0.00042149076
-0.0012463249
-0.00047725094
-0.0012014377
-0.00053299384
-0.0011492829
-0.00059763148
-0.0010891461
-0.00067251358
-0.0010203998
-0.0007500933
-0.00094251938
-0.00083366526
-0.00085509374
-0.00092495145
-0.00075793812
-0.0010176566
-0.00065116622
-0.0011070014
-0.00053515586
-0.0011927036
-0.00041059706
-0.0012715809
-0.0002784832
-0.0013404918
-0.00014009962
-0.0013958999
2.9309956e-06
-0.0014353071
0.00014880278
-0.001457166
0.0002956471
-0.001458949
0.00044152305
-0.0014409841
0.00058439582
-0.0014060985
0.00072245361
-0.0013543601
0.00085418443
-0.0012852881
0.00097820778
-0.0012052748
0.0010934749
-0.0011172024
0.0011992866
-0.0010237319
0.0012952593
-0.00092817778
0.0013815071
-0.00082649206
0.0014582031
-0.00072973742
0.0015255824
-0.00064444843
0.0015841899
-0.00056672104
0.0016348937
-0.00048825129
0.0016782724
-0.00042550085
0.0017150567
-0.00037362232
0.0017462963
-0.00031605343
0.0017728829
-0.00026208601
0.0017951814
-0.00023600695
0.0018142997
-0.00018880117
0.0018305179
-0.00017134552
0.0018446768
-0.00013852633
0.0018571408
-0.00012232338
0.0018683448
-0.00011124492
-0.000112644
0.0018785608
-0.0015295525
-0.00015006946
0.0015376502
-0.001519936
-0.00018588396
-0.0015084116
-0.00024
-0.0014945101
-0.00025999892
-0.0014777582
-0.00028822989
-0.0014576103
-0.00031483655
-0.0014334706
-0.00036025097
-0.0014046676
-0.00039673981
-0.001370491
-0.00045566735
-0.001330163
-0.00051757893
-0.001282906
-0.00058025079
-0.0012279432
-0.00065259436
-0.0011645168
-0.00073593996
-0.0010919577
-0.00082265236
-0.0010097067
-0.00091591628
-0.0009173302
-0.001017328
-0.00081463254
-0.0011203543
-0.000701726
-0.001219908
-0.00057900509
-0.0013154245
-0.00044719508
-0.0014033909
-0.00030734465
-0.0014803423
-0.00016081362
-0.0015424309
-9.3131153e-06
-0.0015868076
0.00014525076
-0.0016117299
0.00030089373
-0.001614592
0.00045555249
-0.0015956428
0.00060708361
-0.0015576297
0.00075356818
-0.0015008447
0.0008933938
-0.0014251137
0.0010251019
-0.0013369829
0.0011475813
-0.0012396817
0.0012600867
-0.0011362374
0.0013622069
-0.001030298
0.0014540348
-0.00091831993
0.0015357448
-0.00081144737
0.0016075932
-0.00071629691
0.0016701492
-0.00062927698
0.0017243044
-0.00054240651
0.0017706785
-0.00047187493
0.0018100408
-0.00041298463
0.0018434714
-0.00034948407
0.0018718934
-0.000290508
0.0018957134
-0.00025982692
0.0019160664
-0.00020915414
0.0019332631
-0.00018854224
0.0019481695
-0.00015343271
0.0019611704
-0.00013532427
0.0019727189
-0.00012279339
-0.0001230263
0.0019831011
-0.0016272418
-0.00015828606
0.0016354584
-0.0016173962
-0.00019572954
-0.0016055265
-0.00025186974
-0.0015911246
-0.00027440074
-0.0015736928
-0.00030566178
-0.0015526521
-0.00033587721
-0.0015273788
-0.00038552423
-0.0014971569
-0.00042696175
-0.0014612401
-0.00049158412
-0.001418807
-0.00056001206
-0.0013690302
-0.0006300276
-0.0013110853
-0.00071053926
-0.0012441698
-0.00080285548
-0.00116757
-0.00089925209
-0.0010806906
-0.0010027957
-0.00098307433
-0.0011149443
-0.0008745136
-0.001228915
-0.0007551194
-0.0013393022
-0.00062530442
-0.0014452395
-0.00048583151
-0.0015428638
-0.00033780803
-0.0016283657
-0.00018267255
-0.0016975664
-2.222953e-05
-0.0017472506
0.00014150744
-0.0017754669
0.00030643217
-0.0017795168
0.00047035385
-0.0017595645
0.00063101326
-0.0017182891
0.00078637832
-0.0016562097
0.00093473138
-0.0015734668
0.001074531
-0.0014767826
0.0012046
-0.0013697507
0.001324145
-0.0012557824
0.0014327258
-0.0011388788
0.0015304152
-0.0010160093
0.0016173898
-0.00089842202
0.0016939284
-0.00079283547
0.0017606262
-0.00069597482
0.0018184025
-0.00060018278
0.0018679199
-0.00052139234
0.0019099893
-0.00045505401
0.0019457256
-0.00038522038
0.0019760859
-0.0003208683
0.0020015197
-0.00028526071
0.0020231925
-0.0002308269
0.0020414461
-0.00020679588
0.002057174
-0.0001691606
0.0020707821
-0.00014893231
0.0020827429
-0.00013475424
-0.00013364418
0.0020933608
-0.0017307195
-0.00016665472
0.0017390882
-0.0017206087
-0.00020584034
-0.0017083528
-0.00026412563
-0.0016934026
-0.00028935096
-0.001675234
-0.00032383044
-0.0016532332
-0.00035787792
-0.0016267467
-0.00041201081
-0.001595011
-0.00045869745
-0.0015572422
-0.0005293529
-0.0015125719
-0.00060468234
-0.0014601201
-0.00068247946
-0.0013990124
-0.00077164694
-0.0013283989
-0.00087346894
-0.0012475194
-0.00098013166
-0.0011557401
-0.001094575
-0.0010525791
-0.0012181052
-0.0009378159
-0.0013436782
-0.00081156041
-0.0014655576
-0.00067424482
-0.0015825551
-0.00052667218
-0.0016904365
-0.00037001212
-0.0017850258
-0.00020578665
-0.0018617919
-3.5898804e-05
-0.0019171385
0.00013752312
-0.0019488888
0.00031224412
-0.0019542378
0.00048594016
-0.0019332606
0.0006562286
-0.0018885775
0.00082095767
-0.0018209388
0.00097829922
-0.0017308083
0.0011266239
-0.0016251072
0.0012646845
-0.0015078114
0.0013916372
-0.0013827351
0.0015070111
-0.0012542527
0.0016108598
-0.001119858
0.0017033627
-0.00099092495
0.0017848213
-0.00087429398
0.0018558589
-0.00076701248
0.001917425
-0.00066174888
0.0019702274
-0.0005741947
0.0020151206
-0.00049994721
0.0020532577
-0.00042335744
0.0020856329
-0.00035324357
0.0021127406
-0.00031236841
0.0021357797
-0.00025386597
0.0021551255
-0.00022614166
0.0021717011
-0.00018573619
0.0021859356
-0.00016316682
0.002198323
-0.00014714158
-0.00014450584
0.0022091846
-0.0018403598
-0.0001752138
0.0018489189
-0.0018299429
-0.00021625729
-0.0018172557
-0.00027681278
-0.0018017052
-0.00030490147
-0.0017827395
-0.00034279614
-0.0017597077
-0.00038090974
-0.0017319241
-0.00043979441
-0.0016985753
-0.00049204628
-0.0016588373
-0.00056909085
-0.0016117916
-0.00065172807
-0.001556502
-0.00073776903
-0.0014920416
-0.00083610732
-0.0014175106
-0.00094799997
-0.0013320991
-0.0010655431
-0.0012351335
-0.0011915407
-0.0011261055
-0.0013271332
-0.0010047807
-0.0014650031
-0.00087126813
-0.0015990702
-0.00072602108
-0.0017278021
-0.00056988539
-0.0018465721
-0.00040409678
-0.0019508144
-0.00023026564
-0.002035623
-5.0399514e-05
-0.0020970046
0.00013325144
-0.0021325398
0.00031831627
-0.0021393026
0.00050233077
-0.0021172751
0.00068278118
-0.0020690279
0.00085738917
-0.0019955468
0.0010242103
-0.0018976295
0.001181522
-0.0017824189
0.0013280033
-0.0016542926
0.0014627568
-0.0015174887
0.0015852799
-0.0013767758
0.0016956073
-0.0012301854
0.0017939222
-0.0010892398
0.0018805496
-0.00096092146
0.0019561439
-0.0008426067
0.0020216878
-0.00072729279
0.0020779368
-0.00063044372
0.0021257926
-0.00054780298
0.0021664502
-0.00046401502
0.0022009446
-0.00038773797
0.0022298168
-0.00034124061
0.0022543025
-0.00027835165
0.0022748121
-0.0002466513
0.0022923008
-0.00020322488
0.0023072224
-0.00017808845
0.0023200938
-0.00016001293
-0.00015566838
0.0023312563
-0.0019565061
-0.00018399429
0.0019652866
-0.0019457481
-0.00022701521
-0.0019325894
-0.00028997153
-0.0019163902
-0.00032110066
-0.0018965692
-0.00036261715
-0.001872436
-0.00040504297
-0.0018432709
-0.0004689595
-0.0018082072
-0.00052710992
-0.0017663789
-0.00061091913
-0.0017168137
-0.00070129328
-0.0016585162
-0.00079606657
-0.0015905038
-0.0009041197
-0.001511824
-0.0010266798
-0.0014216147
-0.0011557524
-0.00131916
-0.0012939953
-0.0012039241
-0.0014423691
-0.0010756575
-0.0015932697
-0.00093446876
-0.0017402589
-0.00078083362
-0.0018814373
-0.00061564356
-0.0020117622
-0.00044020448
-0.0021262535
-0.00025622037
-0.0022196071
-6.580972e-05
-0.0022874153
0.00012864809
-0.0023269976
0.00032463858
-0.0023352931
0.00051954981
-0.0023121863
0.00071072878
-0.0022602069
0.00089576324
-0.0021805813
0.0010725864
-0.0020744527
0.0012393768
-0.0019492093
0.0013947352
-0.001809651
0.0015377081
-0.0016604616
0.0016677594
-0.0015068271
0.0017849053
-0.0013473313
0.0018893333
-0.0011936678
0.0019813933
-0.0010529814
0.002061772
-0.00092298544
0.0021314892
-0.00079701003
0.0021913505
-0.00069030497
0.0022423072
-0.00059875971
0.0022856001
-0.00050730786
0.0023223081
-0.00042444597
0.0023530213
-0.00037195385
0.0023790154
-0.00030434577
0.0024007384
-0.00026837429
0.0024191799
-0.00022166637
0.0024348208
-0.00019372934
0.0024482027
-0.00017339478
-0.00016715322
0.0024596875
-0.0020795636
-0.00019302936
0.0020885987
-0.0020684275
-0.0002381513
-0.0020547543
-0.00030364471
-0.0020378554
-0.00033799962
-0.0020171178
-0.00038335471
-0.0019918093
-0.0004303515
-0.001961174
-0.00049959482
-0.0019242887
-0.0005639952
-0.0018802427
-0.00065496515
-0.0018280064
-0.00075352961
-0.0017665216
-0.00085755139
-0.0016947469
-0.00097589437
-0.0016116741
-0.0011097526
-0.0015163861
-0.0012510404
-0.0014081222
-0.0014022592
-0.0012863175
-0.0015641738
-0.0011507065
-0.0017288807
-0.0010013974
-0.001889568
-0.00083889017
-0.0020439445
-0.00066412481
-0.0021865276
-0.0004784817
-0.0023118966
-0.00028376398
-0.0024143248
-8.2207938e-05
-0.0024889713
0.00012367008
-0.0025328756
0.00033120407
-0.0025428271
0.00053762617
-0.0025186084
0.00074013561
-0.0024627163
0.00093617852