/*--------------------------------*- C++ -*----------------------------------*\
| =========                 |                                                 |
| \\      /  F ield         | OpenFOAM: The Open Source CFD Toolbox           |
|  \\    /   O peration     | Version:  v2006                                 |
|   \\  /    A nd           | Website:  www.openfoam.com                      |
|    \\/     M anipulation  |                                                 |
\*---------------------------------------------------------------------------*/
FoamFile
{
    version     2.0;
    format      ascii;
    class       volScalarField;
    location    "500";
    object      pMean;
}
// * * * * * * * * * * * * * * * * * * * * * * * * * * * * * * * * * * * * * //

dimensions      [1 -1 -2 0 0 0 0];


internalField   nonuniform List<scalar> 
19765
(
0.99864263
0.99882189
0.99976609
1.0003774
1.001026
1.0014971
1.002168
1.0025279
1.0031122
1.0036322
1.0039974
1.0042933
1.004586
1.0047899
1.0049366
1.0050865
1.0052089
1.0052842
1.0053224
1.0053232
1.0052905
1.0052298
1.0051427
1.0050204
1.00486
1.004679
1.0044982
1.0042804
1.0040078
1.0037398
1.0034444
1.0030869
1.002677
1.0021461
1.0016851
1.0013153
1.0008568
1.0002074
0.99970883
0.99914876
0.99829442
0.99752594
0.99726716
0.99653965
0.99640835
0.99606497
0.99608068
0.99619545
0.99639131
1.0005952
1.0007125
1.0008731
1.0011071
1.0013655
1.0016308
1.0019119
1.002168
1.0024316
1.0027127
1.0029767
1.0032185
1.0034507
1.0036464
1.0038028
1.0039441
1.0040694
1.0041655
1.0042326
1.0042648
1.0042624
1.0042328
1.0041709
1.0040741
1.0039485
1.0038013
1.0036261
1.0034184
1.0031831
1.0029236
1.0026362
1.0023226
1.0019876
1.0016372
1.0012872
1.00093
1.0005547
1.0001711
0.99981098
0.99946187
0.99913519
0.9988556
0.99859746
0.99834708
0.99815153
0.99797869
0.99783017
0.99768657
0.99754136
1.0005838
1.0007678
1.0009858
1.0012221
1.0014652
1.0017076
1.0019481
1.0021737
1.0023946
1.0026065
1.0028093
1.0030019
1.0031845
1.0033472
1.0034868
1.0036089
1.003713
1.0037945
1.0038518
1.0038815
1.0038828
1.003859
1.0038075
1.003725
1.0036146
1.0034804
1.0033193
1.0031284
1.0029116
1.0026718
1.0024092
1.0021274
1.0018327
1.0015279
1.0012153
1.0008956
1.000572
1.0002459
0.99992607
0.999616
0.99931443
0.99901747
0.99873812
0.9984614
0.99821038
0.99798218
0.99777993
0.99759694
0.9974293
1.001038
1.0011707
1.0012962
1.0014387
1.0015901
1.00175
1.0019115
1.0020728
1.002234
1.0023953
1.0025524
1.002704
1.0028502
1.002983
1.0030983
1.0032017
1.0032933
1.0033661
1.0034173
1.0034442
1.0034462
1.0034268
1.0033836
1.0033124
1.0032163
1.0031002
1.0029609
1.0027945
1.002606
1.0023987
1.0021726
1.0019313
1.0016791
1.0014206
1.0011572
1.0008896
1.0006218
1.0003576
1.0000993
0.99985235
0.99961823
0.9993904
0.9991685
0.99895854
0.99875275
0.99855833
0.9983642
0.99817025
0.9979764
1.0010212
1.0011459
1.0012692
1.0013971
1.0015262
1.0016568
1.0017873
1.001915
1.0020425
1.00217
1.0022942
1.0024141
1.0025305
1.0026374
1.0027309
1.0028151
1.0028902
1.0029504
1.0029926
1.0030143
1.0030147
1.0029961
1.0029559
1.0028904
1.0028018
1.0026948
1.0025668
1.0024146
1.0022429
1.002055
1.0018509
1.001634
1.0014077
1.0011764
1.0009422
1.0007057
1.0004686
1.0002342
1.0000045
0.99978185
0.99956583
0.99935309
0.99914351
0.99893798
0.99873361
0.99853237
0.99833054
0.99812992
0.99793076
1.0011293
1.0012203
1.0013094
1.0014019
1.0014969
1.001594
1.0016927
1.0017905
1.0018896
1.0019899
1.0020884
1.0021843
1.0022778
1.0023645
1.0024409
1.0025098
1.0025711
1.0026199
1.0026532
1.002669
1.0026662
1.0026466
1.0026083
1.0025483
1.0024679
1.0023707
1.0022548
1.0021177
1.0019636
1.0017952
1.001613
1.00142
1.0012192
1.0010146
1.000808
1.0006001
1.0003925
1.0001878
0.99998787
0.99979419
0.99960656
0.99942257
0.99924227
0.99906462
0.99888836
0.99871307
0.998536
0.9983567
0.99817505
1.0010999
1.0011808
1.0012607
1.0013409
1.0014212
1.0015017
1.001583
1.0016628
1.0017437
1.0018254
1.0019056
1.0019836
1.0020598
1.0021305
1.0021928
1.002249
1.0022986
1.0023375
1.0023631
1.0023735
1.0023677
1.0023469
1.0023092
1.0022521
1.0021768
1.0020859
1.0019779
1.0018509
1.0017088
1.0015538
1.0013865
1.0012097
1.0010259
1.0008385
1.0006495
1.0004594
1.0002694
1.0000816
0.99989763
0.99971824
0.99954302
0.99937062
0.99920063
0.99903156
0.99886295
0.99869365
0.99852206
0.99834758
0.99817002
1.001108
1.0011714
1.0012343
1.0012976
1.0013614
1.0014255
1.0014908
1.001555
1.0016205
1.001687
1.0017523
1.0018159
1.0018781
1.0019358
1.0019866
1.002032
1.0020717
1.002102
1.0021207
1.002126
1.002117
1.0020945
1.0020569
1.0020023
1.0019313
1.0018459
1.0017451
1.0016274
1.0014962
1.0013534
1.0011998
1.0010377
1.0008696
1.0006984
1.0005259
1.0003527
1.0001797
1.000009
0.99984177
0.99967875
0.99951968
0.99936351
0.9992099
0.99905735
0.99890561
0.99875339
0.99859923
0.99844232
0.99828249
1.001071
1.001126
1.0011807
1.001235
1.0012892
1.0013431
1.0013979
1.0014514
1.001506
1.0015613
1.0016154
1.001668
1.0017193
1.0017667
1.0018081
1.0018448
1.0018763
1.0018994
1.0019122
1.0019132
1.0019013
1.0018772
1.0018395
1.0017864
1.0017185
1.0016373
1.001542
1.0014315
1.0013086
1.0011752
1.001032
1.0008811
1.0007247
1.0005654
1.0004047
1.0002433
1.0000821
0.99992278
0.99976639
0.99961346
0.99946379
0.99931673
0.99917174
0.9990276
0.99888406
0.99873989
0.99859392
0.9984453
0.99829358
1.0010468
1.0010915
1.0011365
1.0011811
1.0012258
1.0012703
1.0013157
1.00136
1.0014053
1.0014512
1.0014961
1.0015396
1.0015818
1.0016206
1.0016543
1.0016836
1.0017081
1.0017251
1.0017328
1.0017299
1.0017154
1.0016897
1.0016516
1.0015998
1.0015345
1.0014569
1.0013663
1.0012619
1.0011464
1.0010212
1.0008871
1.0007462
1.0006002
1.0004516
1.0003019
1.0001515
1.0000014
0.99985315
0.99970766
0.99956545
0.99942645
0.9992901
0.99915592
0.99902296
0.99889087
0.99875866
0.99862518
0.99848966
0.99835174
1.0010074
1.0010457
1.0010845
1.0011227
1.0011608
1.0011986
1.0012371
1.0012745
1.0013127
1.0013513
1.0013889
1.0014251
1.0014601
1.0014919
1.0015191
1.0015423
1.001561
1.0015727
1.0015761
1.0015699
1.0015531
1.001526
1.0014876
1.0014367
1.0013735
1.0012988
1.0012121
1.0011129
1.0010035
1.0008851
1.0007586
1.0006259
1.0004885
1.0003485
1.0002075
1.0000658
0.99992437
0.99978464
0.99964736
0.99951302
0.99938162
0.99925276
0.9991259
0.99900041
0.99887583
0.99875137
0.99862598
0.99849897
0.99836986
1.0009731
1.0010051
1.0010376
1.0010697
1.0011017
1.0011335
1.0011659
1.0011973
1.0012294
1.0012618
1.0012933
1.0013233
1.0013522
1.0013781
1.0013998
1.0014178
1.0014316
1.0014389
1.0014386
1.0014294
1.0014106
1.0013823
1.0013436
1.0012934
1.001232
1.0011598
1.0010766
1.000982
1.0008778
1.0007655
1.0006457
1.0005202
1.0003903
1.0002582
1.000125
0.99999134
0.99985801
0.99972635
0.99959702
0.99947055
0.99934701
0.99922608
0.99910721
0.99899007
0.99887407
0.99875864
0.99864278
0.99852589
0.99840758
1.0009343
1.0009616
1.0009896
1.001017
1.0010444
1.0010715
1.0010991
1.0011258
1.001153
1.0011804
1.0012068
1.0012318
1.0012555
1.0012765
1.0012936
1.0013072
1.0013167
1.0013203
1.0013168
1.0013052
1.0012846
1.0012553
1.0012162
1.0011667
1.0011068
1.0010369
1.0009567
1.000866
1.0007665
1.0006594
1.0005455
1.0004262
1.000303
1.0001777
1.0000513
0.99992445
0.999798
0.99967317
0.9995505
0.99943053
0.99931341
0.99919885
0.99908631
0.99897571
0.99886636
0.9987579
0.99864935
0.99854024
0.9984301
1.0008984
1.0009213
1.000945
1.0009683
1.0009915
1.0010145
1.0010379
1.0010605
1.0010834
1.0011065
1.0011285
1.0011491
1.0011685
1.0011854
1.0011985
1.0012083
1.0012143
1.0012146
1.0012084
1.0011946
1.0011725
1.0011423
1.0011031
1.0010541
1.0009956
1.0009277
1.0008502
1.0007631
1.0006678
1.0005654
1.0004567
1.0003431
1.0002259
1.0001067
0.9999865
0.99986596
0.99974591
0.99962748
0.99951115
0.99939748
0.99928667
0.99917848
0.99907237
0.99896848
0.99886601
0.9987648
0.9986639
0.99856293
0.99846147
1.0008617
1.0008813
1.0009016
1.0009215
1.0009413
1.0009609
1.0009809
1.001
1.0010194
1.0010388
1.0010571
1.0010741
1.0010898
1.001103
1.0011128
1.0011194
1.0011222
1.0011198
1.0011113
1.0010956
1.0010723
1.0010414
1.001002
1.0009536
1.0008963
1.0008303
1.0007553
1.0006713
1.0005798
1.0004817
1.0003777
1.0002693
1.0001574
1.0000438
0.99992923
0.99981438
0.99970009
0.9995874
0.99947673
0.99936867
0.99926342
0.99916079
0.99906026
0.99896212
0.99886552
0.99877045
0.99867598
0.99858184
0.99848759
1.0008271
1.0008436
1.0008609
1.0008778
1.0008947
1.0009113
1.0009282
1.0009443
1.0009606
1.0009768
1.000992
1.0010058
1.0010183
1.0010284
1.0010353
1.0010391
1.0010392
1.0010344
1.0010239
1.0010067
1.0009823
1.0009507
1.0009113
1.0008635
1.0008074
1.0007431
1.0006704
1.0005894
1.0005014
1.0004072
1.0003076
1.0002038
1.0000969
0.99998839
0.99987903
0.99976948
0.99966057
0.99955329
0.999448
0.99934529
0.99924541
0.99914818
0.99905311
0.99896061
0.99886981
0.9987808
0.99869268
0.99860527
0.99851815
1.0007932
1.0008072
1.0008219
1.0008363
1.0008507
1.0008648
1.0008791
1.0008927
1.0009063
1.0009198
1.0009322
1.0009433
1.000953
1.0009604
1.0009648
1.0009661
1.000964
1.0009572
1.0009449
1.0009264
1.0009011
1.0008691
1.0008297
1.0007825
1.0007275
1.0006648
1.0005943
1.000516
1.0004312
1.0003407
1.0002451
1.0001457
1.0000434
0.99993959
0.99983507
0.99973044
0.99962653
0.99952426
0.99942394
0.99932618
0.99923124
0.99913894
0.99904883
0.99896143
0.99887582
0.99879219
0.99870969
0.9986282
0.99854728
1.0007611
1.0007729
1.0007853
1.0007975
1.0008096
1.0008215
1.0008335
1.0008448
1.0008562
1.0008672
1.0008772
1.0008859
1.0008932
1.0008983
1.0009004
1.0008997
1.0008956
1.000887
1.0008732
1.0008536
1.0008276
1.0007953
1.000756
1.0007094
1.0006555
1.0005944
1.0005259
1.0004502
1.0003685
1.0002813
1.0001895
1.0000941
0.99999611
0.99989678
0.9997968
0.99969681
0.99959762
0.99950009
0.99940451
0.99931147
0.99922125
0.99913369
0.99904837
0.99896587
0.99888525
0.99880681
0.9987297
0.99865386
0.99857888
1.0007301
1.00074
1.0007505
1.0007608
1.000771
1.000781
1.000791
1.0008003
1.0008097
1.0008186
1.0008265
1.000833
1.0008382
1.0008413
1.0008415
1.000839
1.0008331
1.000823
1.000808
1.0007874
1.0007609
1.0007283
1.0006892
1.0006432
1.0005904
1.0005308
1.0004643
1.0003911
1.0003122
1.0002282
1.0001399
1.0000484
0.99995446
0.99985932
0.99976362
0.99966802
0.99957329
0.99948023
0.99938911
0.99930051
0.99921473
0.9991316
0.99905074
0.99897276
0.99889675
0.99882303
0.9987508
0.99868006
0.99861038
1.0007007
1.0007089
1.0007177
1.0007263
1.0007348
1.000743
1.0007513
1.0007589
1.0007664
1.0007735
1.0007795
1.0007843
1.0007876
1.0007889
1.0007874
1.0007833
1.0007759
1.0007645
1.0007484
1.0007271
1.0007002
1.0006675
1.0006286
1.0005833
1.0005316
1.0004734
1.0004088
1.0003379
1.0002617
1.0001808
1.0000959
1.0000079
0.99991785
0.99982668
0.99973506
0.99964363
0.99955313
0.99946433
0.99937747
0.99929312
0.99921157
0.99913267
0.99905608
0.99898242
0.99891079
0.99884156
0.99877396
0.99870802
0.99864332
1.0006725
1.0006793
1.0006866
1.0006937
1.0007007
1.0007075
1.0007142
1.0007203
1.0007262
1.0007316
1.000736
1.0007391
1.0007408
1.0007405
1.0007376
1.000732
1.0007234
1.0007109
1.0006939
1.000672
1.0006447
1.000612
1.0005734
1.0005288
1.0004782
1.0004215
1.0003587
1.0002901
1.0002164
1.0001384
1.0000567
0.99997223
0.99988577
0.99979838
0.99971065
0.99962318
0.99953672
0.99945197
0.99936917
0.99928886
0.99921132
0.99913642
0.99906385
0.99899422
0.99892668
0.9988616
0.99879825
0.99873669
0.9986765
1.0006457
1.0006512
1.0006572
1.000663
1.0006687
1.0006741
1.0006794
1.0006841
1.0006886
1.0006926
1.0006955
1.0006972
1.0006975
1.0006958
1.0006916
1.0006848
1.0006751
1.0006616
1.0006439
1.0006215
1.000594
1.0005613
1.0005231
1.0004792
1.0004297
1.0003744
1.0003134
1.0002469
1.0001758
1.0001006
1.0000219
0.99994074
0.99985777
0.999774
0.99968997
0.9996063
0.9995237
0.99944282
0.99936389
0.99928744
0.99921374
0.99914266
0.99907392
0.99900813
0.99894446
0.9988833
0.99882395
0.99876649
0.9987105
1.00062
1.0006244
1.0006292
1.0006339
1.0006384
1.0006426
1.0006468
1.0006503
1.0006535
1.0006562
1.0006578
1.0006582
1.0006572
1.0006543
1.000649
1.0006412
1.0006305
1.0006162
1.0005979
1.0005751
1.0005475
1.0005149
1.0004772
1.000434
1.0003856
1.0003317
1.0002724
1.0002081
1.0001394
1.0000668
0.99999111
0.99991308
0.99983344
0.99975313
0.99967265
0.99959263
0.99951371
0.99943654
0.99936131
0.99928855
0.99921849
0.99915104
0.99908592
0.99902375
0.99896371
0.99890619
0.99885055
0.99879686
0.99874471
1.0005955
1.0005989
1.0006027
1.0006063
1.0006098
1.000613
1.0006161
1.0006185
1.0006206
1.0006221
1.0006226
1.0006219
1.0006198
1.0006158
1.0006095
1.0006008
1.0005892
1.0005743
1.0005555
1.0005324
1.0005048
1.0004724
1.0004351
1.0003928
1.0003454
1.000293
1.0002354
1.0001731
1.0001067
1.0000367
0.99996386
0.99988886
0.99981243
0.99973543
0.99965837
0.99958183
0.99950645
0.99943283
0.99936114
0.9992919
0.99922533
0.99916134
0.99909968
0.99904093
0.99898432
0.99893024
0.99887807
0.99882791
0.99877933
1.000572
1.0005746
1.0005775
1.0005802
1.0005828
1.000585
1.0005871
1.0005885
1.0005897
1.0005901
1.0005896
1.0005879
1.0005848
1.0005799
1.0005727
1.0005632
1.000551
1.0005355
1.0005164
1.0004931
1.0004655
1.0004334
1.0003967
1.0003551
1.0003088
1.0002578
1.0002019
1.0001416
1.0000774
1.00001
0.99993983
0.99986775
0.99979439
0.99972058
0.9996468
0.99957361
0.99950162
0.9994314
0.99936311
0.99929723
0.99923399
0.99917329
0.9991149
0.99905938
0.99900601
0.99895515
0.99890621
0.99885931
0.99881401
1.0005495
1.0005513
1.0005534
1.0005553
1.0005571
1.0005585
1.0005597
1.0005603
1.0005605
1.0005601
1.0005587
1.0005561
1.0005521
1.0005464
1.0005385
1.0005283
1.0005156
1.0004996
1.0004802
1.0004568
1.0004293
1.0003976
1.0003614
1.0003207
1.0002755
1.0002258
1.0001716
1.0001132
1.0000513
0.99998623
0.99991872
0.99984945
0.99977905
0.99970831
0.99963767
0.9995677
0.99949896
0.999432
0.99936696
0.9993043
0.99924424
0.99918667
0.9991314
0.99907895
0.99902863
0.9989808
0.99893489
0.99889103
0.99884879
1.0005279
1.000529
1.0005305
1.0005316
1.0005326
1.0005333
1.0005338
1.0005336
1.0005331
1.0005318
1.0005296
1.0005262
1.0005215
1.0005151
1.0005066
1.0004958
1.0004826
1.0004663
1.0004466
1.0004233
1.000396
1.0003646
1.0003291
1.0002892
1.0002451
1.0001968
1.0001442
1.0000877
1.0000279
0.9999652
0.99990024
0.99983368
0.99976614
0.99969835
0.99963074
0.99956385
0.99949824
0.9994344
0.99937247
0.99931289
0.99925585
0.99920127
0.99914896
0.99909941
0.99905197
0.99900698
0.9989639
0.99892287
0.99888344
1.0005071
1.0005076
1.0005084
1.000509
1.0005094
1.0005094
1.0005092
1.0005083
1.0005071
1.0005051
1.0005022
1.0004982
1.0004928
1.0004858
1.0004767
1.0004655
1.0004519
1.0004353
1.0004155
1.0003922
1.0003652
1.0003343
1.0002993
1.0002604
1.0002174
1.0001704
1.0001194
1.0000648
1.0000071
0.99994665
0.99988415
0.99982021
0.99975542
0.99969046
0.99962577
0.99956185
0.99949924
0.99943838
0.99937944
0.99932279
0.99926865
0.99921691
0.99916741
0.99912061
0.99907589
0.99903357
0.99899315
0.99895475
0.99891795
1.000487
1.000487
1.0004873
1.0004873
1.0004871
1.0004866
1.0004857
1.0004843
1.0004824
1.0004799
1.0004764
1.0004717
1.0004658
1.0004582
1.0004487
1.0004371
1.0004232
1.0004065
1.0003867
1.0003635
1.0003367
1.0003063
1.000272
1.0002339
1.0001921
1.0001465
1.0000971
1.0000443
0.99998853
0.99993033
0.99987022
0.99980881
0.99974667
0.99968445
0.99962256
0.99956149
0.99950175
0.99944376
0.99938766
0.99933383
0.99928243
0.9992334
0.99918658
0.99914237
0.99910022
0.99906041
0.99902248
0.99898654
0.99895217
1.0004676
1.0004672
1.000467
1.0004665
1.0004658
1.0004647
1.0004634
1.0004614
1.000459
1.0004559
1.0004519
1.0004467
1.0004403
1.0004323
1.0004225
1.0004106
1.0003964
1.0003796
1.0003598
1.0003368
1.0003104
1.0002805
1.0002469
1.0002098
1.000169
1.0001247
1.0000769
1.0000259
0.9999721
0.99991606
0.99985826
0.9997993
0.99973971
0.99968012
0.99962092
0.99956259
0.99950559
0.99945034
0.99939697
0.99934582
0.99929705
0.9992506
0.99920631
0.99916456
0.99912484
0.99908739
0.99905179
0.99901814
0.99898604
1.0004487
1.0004479
1.0004473
1.0004464
1.0004453
1.0004438
1.000442
1.0004396
1.0004367
1.0004332
1.0004287
1.0004231
1.0004163
1.0004079
1.0003978
1.0003857
1.0003714
1.0003545
1.0003348
1.000312
1.000286
1.0002567
1.0002239
1.0001876
1.000148
1.000105
1.0000587
1.0000094
0.9999576
0.99990364
0.99984808
0.99979148
0.99973435
0.99967729
0.99962068
0.99956497
0.99951061
0.99945798
0.99940721
0.99935862
0.99931235
0.99926834
0.99922645
0.99918703
0.9991496
0.99911437
0.99908096
0.99904945
0.99901945
1.0004304
1.0004293
1.0004283
1.0004271
1.0004256
1.0004237
1.0004215
1.0004188
1.0004155
1.0004115
1.0004067
1.0004007
1.0003936
1.0003849
1.0003746
1.0003623
1.0003479
1.0003311
1.0003115
1.000289
1.0002634
1.0002347
1.0002026
1.0001673
1.0001289
1.0000872
1.0000424
0.99999481
0.99994485
0.99989292
0.99983952
0.9997852
0.99973045
0.99967582
0.99962169
0.99956849
0.99951666
0.99946653
0.99941824
0.99937208
0.99932819
0.9992865
0.99924689
0.99920967
0.9991744
0.99914126
0.99910989
0.99908039
0.99905235
1.0004126
1.0004112
1.0004099
1.0004083
1.0004066
1.0004044
1.0004019
1.0003988
1.0003952
1.0003909
1.0003857
1.0003795
1.0003721
1.0003632
1.0003527
1.0003403
1.0003259
1.0003091
1.0002898
1.0002676
1.0002425
1.0002144
1.0001831
1.0001488
1.0001114
1.0000711
1.0000278
0.99998184
0.9999337
0.99988374
0.99983244
0.99978032
0.99972785
0.99967556
0.99962381
0.99957302
0.99952359
0.99947585
0.99942992
0.99938607
0.99934444
0.99930495
0.9992675
0.99923236
0.99919912
0.99916794
0.99913849
0.99911085
0.99908463
1.0003951
1.0003935
1.000392
1.0003902
1.0003881
1.0003857
1.0003829
1.0003796
1.0003757
1.0003711
1.0003657
1.0003592
1.0003516
1.0003426
1.000332
1.0003196
1.0003052
1.0002886
1.0002695
1.0002477
1.0002231
1.0001956
1.0001652
1.0001318
1.0000956
1.0000565
1.0000147
0.99997038
0.99992402
0.99987598
0.9998267
0.9997767
0.99972643
0.99967638
0.99962692
0.99957842
0.99953129
0.99948582
0.99944213
0.99940049
0.999361
0.99932359
0.99928818
0.999255
0.99922366
0.99919434
0.99916668
0.99914078
0.99911626
1.000378
1.0003763
1.0003746
1.0003726
1.0003703
1.0003677
1.0003647
1.0003611
1.000357
1.0003522
1.0003466
1.00034
1.0003322
1.0003231
1.0003124
1.0003001
1.0002858
1.0002693
1.0002505
1.0002292
1.0002051
1.0001783
1.0001487
1.0001163
1.0000812
1.0000434
1.000003
0.9999603
0.99991568
0.9998695
0.99982219
0.99977423
0.99972607
0.99967818
0.99963089
0.99958459
0.99953964
0.99949633
0.99945478
0.99941522
0.99937775
0.99934232
0.99930882
0.99927748
0.99924794
0.99922034
0.99919436
0.99917009
0.99914713
1.0003613
1.0003594
1.0003576
1.0003554
1.000353
1.0003502
1.000347
1.0003433
1.000339
1.0003341
1.0003283
1.0003216
1.0003137
1.0003046
1.0002939
1.0002816
1.0002675
1.0002513
1.0002328
1.0002119
1.0001884
1.0001623
1.0001335
1.0001021
1.0000681
1.0000316
0.99999263
0.99995151
0.99990858
0.9998642
0.99981879
0.99977281
0.99972667
0.99968084
0.99963564
0.99959143
0.99954856
0.9995073
0.99946776
0.99943017
0.99939461
0.99936103
0.99932934
0.99929974
0.99927188
0.99924589
0.99922148
0.99919872
0.99917723
1.0003449
1.0003429
1.000341
1.0003387
1.0003362
1.0003332
1.0003299
1.0003261
1.0003217
1.0003167
1.0003108
1.000304
1.0002961
1.000287
1.0002764
1.0002642
1.0002503
1.0002343
1.0002162
1.0001958
1.0001729
1.0001475
1.0001196
1.0000891
1.0000563
1.000021
0.99998348
0.9999439
0.99990262
0.99985999
0.99981642
0.99977234
0.99972815
0.99968429
0.99964107
0.99959885
0.99955795
0.99951863
0.99948099
0.99944525
0.99941149
0.99937965
0.99934966
0.99932167
0.99929538
0.9992709
0.99924794
0.99922657
0.99920643
1.0003288
1.0003268
1.0003247
1.0003224
1.0003198
1.0003168
1.0003134
1.0003095
1.000305
1.0002999
1.000294
1.0002872
1.0002793
1.0002702
1.0002597
1.0002477
1.000234
1.0002184
1.0002007
1.0001807
1.0001585
1.0001339
1.0001068
1.0000773
1.0000456
1.0000116
0.99997545
0.99993738
0.99989771
0.99985679
0.99981499
0.99977273
0.99973041
0.99968844
0.99964711
0.99960677
0.99956773
0.99953024
0.9994944
0.9994604
0.99942832
0.99939811
0.9993697
0.99934322
0.9993184
0.99929532
0.99927372
0.99925365
0.99923477
1.000313
1.0003109
1.0003089
1.0003065
1.0003038
1.0003008
1.0002974
1.0002934
1.0002889
1.0002838
1.0002779
1.0002711
1.0002633
1.0002543
1.0002439
1.0002321
1.0002187
1.0002034
1.0001861
1.0001667
1.0001451
1.0001213
1.0000951
1.0000666
1.000036
1.0000033
0.99996846
0.99993187
0.99989377
0.9998545
0.99981442
0.99977393
0.99973339
0.99969322
0.99965369
0.99961513
0.99957785
0.99954208
0.99950791
0.99947554
0.99944503
0.99941633
0.99938939
0.99936431
0.99934084
0.99931905
0.99929869
0.9992798
0.99926206
1.0002975
1.0002954
1.0002933
1.0002909
1.0002883
1.0002852
1.0002818
1.0002778
1.0002734
1.0002683
1.0002624
1.0002556
1.0002479
1.0002391
1.0002289
1.0002173
1.0002042
1.0001893
1.0001725
1.0001537
1.0001327
1.0001096
1.0000843
1.0000569
1.0000274
0.99999589
0.99996244
0.99992729
0.99989074
0.99985307
0.99981465
0.99977586
0.99973704
0.99969858
0.99966075
0.99962388
0.99958825
0.99955408
0.99952148
0.99949062
0.99946156
0.99943427
0.99940869
0.99938491
0.99936269
0.9993421
0.99932289
0.99930512
0.99928845
1.0002822
1.0002802
1.0002781
1.0002758
1.0002731
1.0002701
1.0002667
1.0002627
1.0002583
1.0002533
1.0002475
1.0002408
1.0002332
1.0002245
1.0002146
1.0002033
1.0001905
1.000176
1.0001597
1.0001415
1.0001212
1.0000989
1.0000745
1.0000481
1.0000197
0.99998944
0.99995732
0.9999236
0.99988854
0.99985244
0.99981563
0.99977847
0.9997413
0.99970447
0.99966826
0.99963297
0.99959888
0.99956621
0.99953506
0.99950559
0.99947787
0.99945187
0.99942752
0.99940492
0.99938383
0.99936431
0.99934613
0.99932933
0.99931359
1.0002673
1.0002653
1.0002633
1.0002609
1.0002583
1.0002553
1.000252
1.0002481
1.0002437
1.0002388
1.0002331
1.0002265
1.0002191
1.0002106
1.0002009
1.0001899
1.0001775
1.0001634
1.0001477
1.0001301
1.0001105
1.0000891
1.0000656
1.0000402
1.0000129
0.99998384
0.99995303
0.99992071
0.99988713
0.99985256
0.99981731
0.99978173
0.99974613
0.99971085
0.99967617
0.99964237
0.99960972
0.99957843
0.99954861
0.99952042
0.99949392
0.99946909
0.99944587
0.99942435
0.99940431
0.99938579
0.99936859
0.99935273
0.9993379
1.0002526
1.0002507
1.0002487
1.0002464
1.0002439
1.0002409
1.0002377
1.0002339
1.0002296
1.0002248
1.0002192
1.0002128
1.0002056
1.0001973
1.0001879
1.0001773
1.0001652
1.0001516
1.0001364
1.0001194
1.0001006
1.00008
1.0000574
1.0000331
1.0000069
0.99997904
0.99994954
0.9999186
0.99988646
0.99985338
0.99981965
0.99978559
0.9997515
0.99971771
0.99968447
0.99965206
0.99962074
0.99959072
0.99956212
0.99953508
0.99950967
0.99948589
0.99946367
0.99944308
0.99942395
0.99940627
0.99938986
0.99937474
0.99936061
1.0002382
1.0002364
1.0002345
1.0002323
1.0002298
1.000227
1.0002238
1.0002201
1.0002159
1.0002112
1.0002058
1.0001996
1.0001926
1.0001846
1.0001755
1.0001652
1.0001536
1.0001405
1.0001258
1.0001095
1.0000915
1.0000716
1.00005
1.0000267
1.0000016
0.99997498
0.99994677
0.9999172
0.99988649
0.99985487
0.99982262
0.99979003
0.9997574
0.99972502
0.99969314
0.99966203
0.99963194
0.99960308
0.99957557
0.99954956
0.99952513
0.99950226
0.99948094
0.99946121
0.99944291
0.99942605
0.99941045
0.99939612
0.99938279
1.0002242
1.0002224
1.0002206
1.0002185
1.0002161
1.0002133
1.0002103
1.0002067
1.0002027
1.0001981
1.0001929
1.0001869
1.0001801
1.0001724
1.0001636
1.0001537
1.0001425
1.00013
1.0001159
1.0001003
1.000083
1.000064
1.0000433
1.000021
0.99999708
0.99997163
0.9999447
0.99991648
0.99988717
0.99985699
0.99982619
0.99979503
0.9997638
0.99973277
0.99970218
0.99967229
0.99964333
0.99961552
0.99958898
0.99956386
0.99954026
0.99951817
0.99949757
0.99947851
0.99946083
0.99944453
0.99942945
0.99941558
0.99940265
1.0002105
1.0002088
1.000207
1.000205
1.0002027
1.0002001
1.0001971
1.0001937
1.0001898
1.0001854
1.0001804
1.0001746
1.0001681
1.0001607
1.0001523
1.0001428
1.0001321
1.00012
1.0001066
1.0000916
1.0000751
1.000057
1.0000373
1.000016
0.99999319
0.99996893
0.99994329
0.99991641
0.99988849
0.99985972
0.99983034
0.99980059
0.99977072
0.99974099
0.99971162
0.99968286
0.99965493
0.99962805
0.99960236
0.99957801
0.9995551
0.99953366
0.99951369
0.99949524
0.99947819
0.99946254
0.99944814
0.99943498
0.99942282
1.000197
1.0001955
1.0001938
1.0001919
1.0001897
1.0001872
1.0001843
1.000181
1.0001773
1.0001731
1.0001683
1.0001628
1.0001565
1.0001495
1.0001414
1.0001323
1.0001221
1.0001107
1.0000978
1.0000836
1.0000679
1.0000506
1.0000318
1.0000116
0.99998991
0.99996685
0.99994248
0.99991694
0.9998904
0.99986304
0.99983506
0.9998067
0.99977816
0.99974969
0.99972148
0.99969378
0.9996668
0.99964074
0.99961576
0.99959203
0.99956965
0.99954866
0.99952908
0.99951096
0.99949416
0.99947869
0.9994644
0.99945127
0.99943907
1.000184
1.0001825
1.0001809
1.0001791
1.000177
1.0001746
1.0001719
1.0001687
1.0001652
1.0001612
1.0001566
1.0001513
1.0001454
1.0001387
1.000131
1.0001224
1.0001127
1.0001018
1.0000896
1.0000761
1.0000611
1.0000448
1.000027
1.0000078
0.99998721
0.99996536
0.99994226
0.99991805
0.99989289
0.99986693
0.99984035
0.99981335
0.99978613
0.99975889
0.99973181
0.9997051
0.99967898
0.99965365
0.99962927
0.99960601
0.99958401
0.99956336
0.9995441
0.9995263
0.99950992
0.99949496
0.99948131
0.99946893
0.99945762
1.0001713
1.0001699
1.0001684
1.0001666
1.0001646
1.0001623
1.0001597
1.0001568
1.0001534
1.0001496
1.0001452
1.0001403
1.0001346
1.0001283
1.000121
1.0001129
1.0001037
1.0000934
1.0000819
1.0000691
1.000055
1.0000395
1.0000226
1.0000045
0.99998505
0.9999644
0.99994258
0.99991972
0.99989594
0.99987138
0.99984621
0.99982059
0.99979468
0.99976865
0.99974267
0.99971692
0.9996916
0.99966689
0.99964297
0.99962002
0.9995982
0.99957759
0.99955827
0.99954029
0.9995236
0.99950819
0.99949394
0.99948083
0.99946864
1.0001589
1.0001576
1.0001562
1.0001545
1.0001526
1.0001504
1.0001479
1.0001451
1.0001419
1.0001383
1.0001342
1.0001295
1.0001242
1.0001182
1.0001114
1.0001038
1.0000951
1.0000855
1.0000746
1.0000626
1.0000493
1.0000347
1.0000188
1.0000017
0.99998339
0.99996394
0.99994339
0.99992187
0.99989948
0.99987634
0.99985259
0.99982837
0.9998038
0.99977902
0.99975415
0.99972935
0.99970479
0.99968064
0.99965707
0.99963429
0.99961249
0.99959182
0.99957243
0.99955447
0.99953798
0.99952303
0.99950957
0.99949754
0.99948678
1.0001469
1.0001456
1.0001442
1.0001426
1.0001408
1.0001387
1.0001363
1.0001337
1.0001307
1.0001273
1.0001234
1.0001191
1.0001142
1.0001086
1.0001023
1.0000951
1.000087
1.000078
1.0000678
1.0000565
1.000044
1.0000303
1.0000154
0.99999938
0.9999822
0.99996396
0.9999447
0.99992451
0.99990351
0.9998818
0.99985948
0.99983667
0.99981347
0.99978996
0.99976624
0.99974243
0.99971864
0.99969504
0.99967175
0.99964898
0.99962693
0.99960576
0.9995856
0.99956661
0.99954879
0.99953219
0.99951672
0.99950241
0.99948905
1.0001353
1.000134
1.0001326
1.000131
1.0001292
1.0001272
1.000125
1.0001225
1.0001197
1.0001165
1.000113
1.000109
1.0001044
1.0000993
1.0000934
1.0000868
1.0000793
1.0000708
1.0000613
1.0000508
1.0000392
1.0000264
1.0000125
0.99999751
0.9999815
0.99996451
0.99994656
0.99992776
0.9999082
0.99988795
0.99986711
0.99984575
0.99982394
0.99980173
0.99977918
0.99975636
0.99973334
0.99971023
0.99968718
0.99966436
0.99964202
0.99962039
0.99959975
0.99958042
0.99956264
0.99954663
0.9995325
0.99952023
0.99950974
1.0001237
1.0001224
1.0001211
1.0001195
1.0001178
1.0001159
1.0001138
1.0001115
1.0001089
1.000106
1.0001027
1.000099
1.0000948
1.0000901
1.0000847
1.0000786
1.0000717
1.0000639
1.0000552
1.0000455
1.0000347
1.0000228
1.0000099
0.999996
0.99998111
0.99996533
0.9999487
0.99993132
0.99991325
0.99989458
0.99987536
0.99985564
0.99983541
0.99981471
0.99979352
0.99977185
0.9997497
0.99972713
0.9997042
0.99968106
0.99965791
0.99963496
0.99961244
0.99959059
0.99956953
0.9995494
0.99953024
0.99951222
0.99949521
1.0001128
1.0001115
1.00011
1.0001084
1.0001066
1.0001046
1.0001025
1.0001003
1.0000979
1.0000953
1.0000924
1.0000892
1.0000856
1.0000814
1.0000767
1.0000712
1.000065
1.000058
1.00005
1.000041
1.000031
1.0000199
1.0000078
0.99999479
0.99998085
0.99996611
0.99995061
0.99993447
0.99991772
0.99990048
0.99988281
0.99986472
0.99984622
0.99982726
0.9998078
0.99978774
0.99976701
0.99974555
0.99972333
0.99970041
0.99967694
0.99965318
0.99962958
0.99960675
0.9995854
0.99956618
0.9995497
0.99953606
0.99952555
1.0001013
1.0000997
1.0000981
1.0000964
1.0000948
1.0000931
1.0000914
1.0000896
1.0000878
1.0000858
1.0000835
1.0000809
1.0000777
1.0000741
1.0000698
1.0000648
1.0000591
1.0000525
1.000045
1.0000366
1.0000273
1.0000171
1.000006
0.99999409
0.99998141
0.99996796
0.99995375
0.99993891
0.99992347
0.99990756
0.99989121
0.99987433
0.99985722
0.99983957
0.99982147
0.99980268
0.99978317
0.99976272
0.99974127
0.99971867
0.99969496
0.99967007
0.99964404
0.99961688
0.99958879
0.99955991
0.9995307
0.9995016
0.99947378
1.0000915
1.0000899
1.0000883
1.0000866
1.0000848
1.000083
1.0000811
1.0000792
1.0000773
1.0000753
1.000073
1.0000702
1.0000671
1.0000635
1.0000594
1.0000548
1.0000496
1.0000437
1.0000372
1.0000301
1.0000222
1.0000135
1.0000041
0.99999401
0.99998335
0.99997206
0.9999601
0.99994761
0.99993458
0.99992119
0.99990728
0.99989279
0.99987777
0.99986213
0.99984569
0.99982835
0.99980995
0.99979015
0.99976885
0.99974556
0.99972043
0.99969326
0.99966478
0.99963578
0.99960775
0.99958209
0.9995611
0.99954463
0.99953551
1.0000794
1.0000759
1.0000728
1.0000698
1.0000673
1.0000653
1.0000637
1.0000625
1.0000613
1.0000599
1.0000583
1.0000563
1.0000542
1.0000519
1.0000492
1.0000461
1.0000424
1.000038
1.000033
1.0000271
1.00002
1.0000118
1.0000029
0.9999931
0.99998264
0.99997177
0.9999606
0.99994923
0.9999376
0.99992616
0.99991461
0.99990391
0.99989178
0.99988056
0.99986807
0.99985557
0.99984176
0.99982695
0.99981031
0.99979164
0.99977
0.99974469
0.9997133
0.99967639
0.9996321
0.99957857
0.99951648
0.99944575
0.99937534
1.000067
1.000065
1.0000635
1.0000633
1.0000638
1.0000646
1.0000654
1.000066
1.0000664
1.0000668
1.000067
1.000067
1.0000668
1.0000658
1.0000639
1.000061
1.0000569
1.0000515
1.0000448
1.0000363
1.0000265
1.0000157
1.0000038
0.99999075
0.99997669
0.99996202
0.99994698
0.99993162
0.99991591
0.99990059
0.9998852
0.9998711
0.99985782
0.99984544
0.99983325
0.99982138
0.9998089
0.99979599
0.99978093
0.99976502