/*--------------------------------*- C++ -*----------------------------------*\
| =========                 |                                                 |
| \\      /  F ield         | OpenFOAM: The Open Source CFD Toolbox           |
|  \\    /   O peration     | Version:  v2006                                 |
|   \\  /    A nd           | Website:  www.openfoam.com                      |
|    \\/     M anipulation  |                                                 |
\*---------------------------------------------------------------------------*/
FoamFile
{
    version     2.0;
    format      ascii;
    class       volScalarField;
    location    "500";
    object      rho;
}
// * * * * * * * * * * * * * * * * * * * * * * * * * * * * * * * * * * * * * //

dimensions      [1 -3 0 0 0 0 0];


internalField   nonuniform List<scalar> 
19765
(
0.99952424
0.99975727
1.0004658
1.0009088
1.001389
1.0017212
1.0022002
1.0024282
1.0028173
1.003141
1.0033606
1.0035352
1.0036971
1.0037994
1.0038697
1.0039346
1.0039744
1.003983
1.0039662
1.0039225
1.0038502
1.003756
1.0036467
1.0035084
1.0033325
1.0031406
1.0029666
1.0027644
1.002504
1.0022624
1.0020063
1.0016924
1.0013423
1.0008594
1.0004518
1.0001567
0.99979192
0.99921442
0.99880873
0.99837274
0.99763292
0.9969299
0.99679692
0.9961353
0.99607553
0.99574458
0.99576906
0.99586825
0.99605719
1.0007503
1.0008274
1.0009404
1.0010961
1.0012684
1.0014431
1.0016352
1.0017988
1.0019776
1.00217
1.0023426
1.0024952
1.0026409
1.0027527
1.0028338
1.002909
1.0029731
1.0030137
1.0030324
1.0030218
1.0029832
1.0029255
1.0028438
1.0027371
1.0026106
1.0024708
1.0023065
1.0021197
1.0019137
1.00169
1.0014467
1.0011853
1.0009082
1.0006217
1.0003391
1.0000532
0.99975262
0.99944696
0.99916619
0.99889679
0.99864706
0.99844002
0.99824711
0.99806245
0.99793452
0.99782206
0.99772989
0.99763845
0.9975412
1.0007443
1.0008814
1.0010422
1.0012048
1.0013695
1.0015281
1.0016863
1.0018257
1.0019657
1.0020972
1.0022196
1.0023341
1.0024429
1.0025349
1.0026091
1.0026719
1.0027209
1.0027514
1.002764
1.0027563
1.0027274
1.0026803
1.0026125
1.0025205
1.0024079
1.0022772
1.0021268
1.0019558
1.001767
1.0015618
1.0013414
1.0011093
1.0008704
1.0006266
1.0003772
1.0001233
0.99987003
0.99961766
0.99937064
0.99913357
0.99890642
0.99868125
0.9984675
0.99825516
0.99806247
0.99789454
0.9977466
0.99761233
0.99749044
1.0010017
1.0010913
1.0011777
1.0012762
1.0013799
1.0014881
1.0015983
1.0017043
1.001812
1.0019192
1.0020201
1.002115
1.0022059
1.0022845
1.0023484
1.0024042
1.0024509
1.0024817
1.0024954
1.0024901
1.0024655
1.0024255
1.002368
1.0022889
1.0021913
1.0020801
1.0019524
1.0018053
1.0016432
1.0014678
1.0012797
1.0010824
1.0008788
1.0006727
1.0004634
1.0002519
1.0000427
0.99983944
0.99964111
0.99945376
0.99927989
0.99911114
0.99894501
0.99879266
0.99864154
0.99850216
0.99836009
0.99821789
0.99807679
1.0009527
1.0010396
1.0011264
1.0012148
1.0013027
1.0013899
1.0014771
1.0015594
1.0016424
1.0017252
1.0018034
1.001877
1.0019478
1.0020098
1.0020601
1.0021036
1.0021403
1.0021644
1.0021743
1.0021683
1.0021457
1.0021088
1.0020552
1.0019818
1.0018912
1.0017879
1.0016696
1.0015336
1.0013842
1.0012236
1.0010519
1.0008723
1.0006869
1.0004995
1.0003107
1.0001209
0.99993234
0.99974781
0.99956728
0.99939335
0.99922636
0.99906232
0.99889919
0.99874245
0.99858508
0.99843231
0.99827873
0.99812782
0.99797833
1.0009956
1.001057
1.0011189
1.0011823
1.001247
1.001312
1.0013784
1.0014417
1.0015067
1.0015721
1.0016343
1.001693
1.0017497
1.0017997
1.0018405
1.0018755
1.0019045
1.0019228
1.0019288
1.0019209
1.0018986
1.0018637
1.0018147
1.001749
1.0016679
1.0015753
1.0014693
1.0013481
1.0012153
1.0010728
1.000921
1.0007627
1.0005999
1.0004357
1.0002709
1.0001058
0.99994252
0.99978312
0.99962786
0.99947863
0.99933564
0.99919554
0.99905779
0.99892388
0.99879033
0.9986585
0.99852501
0.9983901
0.99825398
1.0009524
1.0010071
1.0010622
1.0011166
1.0011706
1.0012238
1.0012778
1.0013286
1.0013808
1.0014332
1.001483
1.00153
1.0015754
1.0016153
1.0016476
1.0016751
1.0016973
1.0017104
1.0017128
1.0017032
1.0016809
1.0016471
1.0016004
1.0015388
1.0014631
1.0013765
1.0012777
1.0011653
1.0010423
1.0009106
1.0007706
1.0006247
1.0004746
1.000323
1.000171
1.0000188
0.99986778
0.99971983
0.99957519
0.99943493
0.99929894
0.99916543
0.99903318
0.99890318
0.99877291
0.99864304
0.99851135
0.99837794
0.99824264
1.0009367
1.0009788
1.0010219
1.0010645
1.0011072
1.0011494
1.0011925
1.0012332
1.0012752
1.0013175
1.0013577
1.0013955
1.0014319
1.0014637
1.0014892
1.0015104
1.0015268
1.0015352
1.0015342
1.0015225
1.0014996
1.0014665
1.0014217
1.0013639
1.0012935
1.001213
1.0011215
1.0010179
1.0009049
1.0007842
1.0006562
1.0005231
1.0003864
1.0002486
1.0001106
0.99997268
0.99983607
0.99970236
0.9995718
0.99944531
0.99932285
0.99920286
0.99908458
0.99896829
0.99885225
0.99873652
0.99861922
0.99850012
0.99837929
1.0008939
1.0009302
1.0009674
1.0010036
1.0010395
1.0010745
1.0011103
1.0011438
1.0011783
1.001213
1.0012458
1.0012764
1.0013057
1.0013311
1.001351
1.001367
1.0013787
1.0013831
1.0013793
1.0013659
1.0013425
1.0013097
1.0012663
1.0012111
1.0011445
1.0010684
1.0009822
1.0008851
1.0007795
1.0006666
1.0005472
1.0004231
1.0002956
1.000167
1.0000379
0.99990898
0.99978099
0.99965543
0.9995325
0.99941288
0.99929653
0.99918246
0.99906969
0.99895858
0.99884758
0.99873671
0.99862441
0.9985104
0.99839429
1.0008615
1.0008907
1.0009211
1.0009506
1.0009799
1.0010086
1.001038
1.0010654
1.0010937
1.0011221
1.0011488
1.0011736
1.0011971
1.0012171
1.0012323
1.0012439
1.0012515
1.0012526
1.0012462
1.0012312
1.0012071
1.0011745
1.0011323
1.0010794
1.0010161
1.0009439
1.0008626
1.0007713
1.0006723
1.0005668
1.0004553
1.0003397
1.000221
1.0001013
0.99998129
0.99986148
0.99974268
0.99962623
0.99951229
0.9994015
0.9992939
0.99918863
0.99908486
0.99898292
0.99888141
0.99878033
0.99867826
0.99857489
0.99847002
1.0008209
1.0008457
1.0008717
1.0008967
1.0009215
1.0009456
1.0009702
1.000993
1.0010165
1.00104
1.0010619
1.001082
1.0011008
1.0011165
1.0011278
1.0011358
1.00114
1.0011383
1.0011297
1.0011134
1.0010887
1.0010562
1.0010149
1.0009638
1.0009032
1.0008344
1.000757
1.0006705
1.000577
1.0004774
1.0003724
1.0002635
1.0001517
1.0000389
0.99992579
0.99981277
0.99970063
0.99959057
0.99948273
0.99937767
0.99927545
0.99917548
0.99907685
0.99898007
0.99888374
0.99878799
0.99869149
0.998594
0.99849508
1.0007852
1.0008056
1.0008272
1.000848
1.0008687
1.0008887
1.0009091
1.000928
1.0009475
1.0009668
1.0009846
1.0010008
1.0010157
1.0010277
1.0010357
1.0010407
1.001042
1.0010379
1.0010275
1.00101
1.0009848
1.0009524
1.0009118
1.0008623
1.0008041
1.0007381
1.0006643
1.0005821
1.0004935
1.0003992
1.0002999
1.0001971
1.0000917
0.99998541
0.99987877
0.9997723
0.99966674
0.9995632
0.9994618
0.99936309
0.9992672
0.99917361
0.99908148
0.99899141
0.99890203
0.99881354
0.9987247
0.99863532
0.99854503
1.0007477
1.000765
1.0007834
1.000801
1.0008185
1.0008353
1.0008525
1.0008682
1.0008844
1.0009003
1.0009149
1.0009278
1.0009395
1.0009484
1.0009537
1.0009561
1.000955
1.0009488
1.0009369
1.0009183
1.0008928
1.0008604
1.0008205
1.0007725
1.0007164
1.0006529
1.0005821
1.0005037
1.0004193
1.0003297
1.0002354
1.0001379
1.0000379
0.99993709
0.99983593
0.99973492
0.99963478
0.99953653
0.99944023
0.99934646
0.99925534
0.99916649
0.99907904
0.99899375
0.99890923
0.99882579
0.99874227
0.99865854
0.99857413
1.0007133
1.0007276
1.0007431
1.0007578
1.0007725
1.0007865
1.0008009
1.0008139
1.0008272
1.0008403
1.000852
1.0008621
1.000871
1.0008774
1.0008803
1.0008805
1.0008773
1.0008694
1.0008562
1.0008368
1.0008109
1.0007787
1.0007394
1.0006927
1.0006384
1.0005772
1.0005092
1.0004342
1.0003536
1.0002681
1.0001784
1.0000857
0.9999907
0.99989492
0.99979885
0.99970298
0.99960801
0.99951489
0.99942367
0.99933492
0.99924881
0.999165
0.99908269
0.9990027
0.99892366
0.99884596
0.99876849
0.99869119
0.99861361
1.0006793
1.0006914
1.0007045
1.000717
1.0007293
1.0007411
1.0007531
1.0007638
1.0007748
1.0007854
1.0007947
1.0008026
1.0008091
1.0008133
1.0008143
1.0008125
1.0008076
1.0007983
1.0007839
1.0007639
1.0007377
1.0007056
1.000667
1.0006214
1.0005688
1.0005097
1.0004443
1.0003723
1.0002951
1.0002134
1.0001278
1.0000393
0.99994886
0.99985763
0.99976612
0.99967483
0.99958444
0.99949584
0.99940905
0.99932463
0.99924278
0.9991632
0.99908513
0.99900946
0.99893484
0.99886173
0.99878907
0.99871686
0.99864461
1.0006476
1.0006576
1.0006686
1.000679
1.0006894
1.0006991
1.0007091
1.0007179
1.0007268
1.0007353
1.0007426
1.0007484
1.000753
1.0007552
1.0007545
1.0007512
1.0007448
1.0007342
1.0007189
1.0006983
1.000672
1.0006401
1.000602
1.0005575
1.0005065
1.0004494
1.0003862
1.0003171
1.0002431
1.0001648
1.0000829
0.99999845
0.9999121
0.99982508
0.99973783
0.99965084
0.99956479
0.99948049
0.99939798
0.9993178
0.99924018
0.99916484
0.99909109
0.99901984
0.99894977
0.9988814
0.99881372
0.99874677
0.99868007
1.000617
1.0006254
1.0006347
1.0006434
1.000652
1.0006601
1.0006683
1.0006755
1.0006827
1.0006894
1.0006949
1.000699
1.0007018
1.0007024
1.0007002
1.0006955
1.0006878
1.0006762
1.0006601
1.0006391
1.0006127
1.000581
1.0005436
1.0005001
1.0004505
1.0003952
1.0003342
1.0002677
1.0001966
1.0001215
1.0000431
0.99996232
0.99987979
0.99979666
0.99971335
0.99963034
0.99954828
0.99946795
0.99938936
0.99931305
0.99923924
0.99916771
0.99909778
0.99903042
0.99896431
0.99890003
0.9988366
0.99877414
0.9987121
1.0005883
1.0005952
1.000603
1.0006102
1.0006173
1.0006239
1.0006306
1.0006363
1.000642
1.0006471
1.000651
1.0006536
1.000655
1.0006542
1.0006507
1.0006448
1.0006361
1.0006236
1.0006069
1.0005855
1.000559
1.0005276
1.0004908
1.0004483
1.0004002
1.0003466
1.0002876
1.0002235
1.0001551
1.000083
1.0000079
0.99993049
0.99985154
0.99977206
0.99969244
0.99961319
0.99953492
0.99945836
0.99938353
0.99931094
0.99924083
0.99917301
0.99910684
0.99904329
0.99898109
0.99892084
0.9988616
0.99880352
0.99874608
1.000561
1.0005666
1.0005731
1.000579
1.0005848
1.0005902
1.0005956
1.0006
1.0006043
1.0006081
1.0006107
1.000612
1.000612
1.00061
1.0006054
1.0005985
1.0005889
1.0005756
1.0005584
1.0005368
1.0005104
1.0004793
1.0004431
1.0004016
1.0003547
1.0003027
1.0002457
1.0001839
1.0001181
1.0000488
0.99997665
0.99990249
0.9998269
0.99975085
0.99967473
0.99959901
0.99952431
0.99945129
0.99937998
0.99931088
0.99924422
0.99917984
0.99911712
0.99905705
0.99899838
0.99894174
0.99888624
0.99883205
0.99877862
1.0005352
1.0005398
1.000545
1.0005498
1.0005545
1.0005588
1.000563
1.0005663
1.0005694
1.000572
1.0005734
1.0005736
1.0005724
1.0005694
1.0005639
1.0005561
1.0005457
1.0005318
1.0005142
1.0004924
1.0004661
1.0004354
1.0003998
1.0003592
1.0003136
1.0002632
1.000208
1.0001483
1.000085
1.0000183
0.99994908
0.99987795
0.99980553
0.99973274
0.99965992
0.99958756
0.99951625
0.99944662
0.99937867
0.99931292
0.99924957
0.99918849
0.99912911
0.99907238
0.99901713
0.99896397
0.99891204
0.99886156
0.99881197
1.0005107
1.0005143
1.0005186
1.0005224
1.0005261
1.0005294
1.0005326
1.0005349
1.000537
1.0005385
1.0005389
1.0005381
1.000536
1.000532
1.0005257
1.0005172
1.0005061
1.0004917
1.0004738
1.0004519
1.0004257
1.0003953
1.0003604
1.0003208
1.0002764
1.0002275
1.0001741
1.0001165
1.0000554
0.99999131
0.99992476
0.99985652
0.99978711
0.9997174
0.99964773
0.99957857
0.99951047
0.99944405
0.99937931
0.99931672
0.9992565
0.99919852
0.99914227
0.99908865
0.99903655
0.99898657
0.9989379
0.99889078
0.99884461
1.0004875
1.0004903
1.0004937
1.0004967
1.0004995
1.0005019
1.0005042
1.0005056
1.0005068
1.0005074
1.0005069
1.0005052
1.0005022
1.0004974
1.0004904
1.0004813
1.0004696
1.0004549
1.0004367
1.0004148
1.0003888
1.0003589
1.0003246
1.0002859
1.0002427
1.0001952
1.0001435
1.0000879
1.000029
0.99996733
0.99990338
0.99983788
0.99977134
0.99970457
0.9996379
0.99957179
0.99950677
0.99944342
0.99938173
0.99932217
0.99926495
0.99920994
0.99915668
0.99910603
0.99905693
0.99900997
0.99896439
0.99892043
0.9988775
1.0004655
1.0004676
1.0004702
1.0004724
1.0004745
1.0004761
1.0004776
1.0004783
1.0004787
1.0004784
1.0004771
1.0004746
1.0004709
1.0004654
1.0004578
1.0004481
1.0004361
1.000421
1.0004027
1.0003808
1.0003551
1.0003255
1.0002919
1.0002541
1.0002122
1.0001661
1.000116
1.0000623
1.0000055
0.99994612
0.99988464
0.99982176
0.99975796
0.999694
0.99963019
0.999567
0.99950492
0.99944449
0.99938572
0.99932905
0.99927467
0.99922248
0.99917203
0.99912417
0.99907787
0.99903372
0.99899098
0.99894991
0.99890991
1.0004447
1.0004461
1.000448
1.0004496
1.0004509
1.0004519
1.0004526
1.0004527
1.0004523
1.0004514
1.0004494
1.0004462
1.0004418
1.0004358
1.0004277
1.0004175
1.0004051
1.0003898
1.0003713
1.0003495
1.0003241
1.000295
1.0002621
1.0002252
1.0001844
1.0001397
1.0000912
1.0000393
0.99998455
0.99992739
0.99986829
0.99980792
0.99974673
0.99968546
0.9996244
0.99956399
0.99950473
0.9994471
0.99939112
0.99933721
0.99928555
0.99923604
0.99918829
0.99914306
0.99909943
0.99905793
0.99901787
0.99897951
0.99894225
1.0004248
1.0004257
1.000427
1.0004279
1.0004287
1.0004291
1.0004292
1.0004286
1.0004277
1.0004261
1.0004235
1.0004197
1.0004148
1.0004082
1.0003996
1.0003891
1.0003764
1.0003609
1.0003425
1.0003208
1.0002957
1.0002671
1.0002348
1.0001989
1.0001592
1.0001158
1.0000688
1.0000187
0.99996595
0.9999109
0.99985409
0.99979612
0.99973745
0.99967875
0.99962032
0.99956259
0.99950601
0.99945106
0.99939775
0.99934647
0.99929739
0.99925044
0.99920523
0.9991625
0.99912136
0.99908232
0.99904475
0.99900889
0.99897413
1.0004059
1.0004063
1.0004071
1.0004075
1.0004077
1.0004075
1.0004071
1.000406
1.0004045
1.0004023
1.0003992
1.000395
1.0003895
1.0003825
1.0003736
1.0003628
1.0003498
1.0003342
1.0003158
1.0002943
1.0002695
1.0002414
1.0002099
1.0001748
1.0001363
1.0000942
1.0000487
1.0000003
0.99994945
0.99989646
0.99984184
0.99978618
0.99972992
0.99967369
0.99961778
0.99956261
0.99950861
0.99945622
0.99940546
0.99935669
0.99931009
0.99926556
0.99922277
0.9991824
0.99914363
0.99910692
0.99907168
0.99903815
0.99900573
1.0003878
1.0003878
1.0003881
1.000388
1.0003878
1.0003872
1.0003863
1.0003847
1.0003827
1.0003801
1.0003765
1.0003718
1.0003659
1.0003585
1.0003493
1.0003383
1.0003251
1.0003095
1.0002912
1.0002699
1.0002455
1.0002179
1.0001871
1.0001529
1.0001155
1.0000746
1.0000307
0.99998394
0.99993487
0.99988386
0.99983135
0.99977791
0.99972396
0.99967011
0.99961662
0.99956389
0.99951236
0.99946242
0.99941409
0.99936773
0.99932348
0.99928126
0.99924077
0.99920263
0.99916607
0.99913154
0.99909847
0.99906711
0.99903685
1.0003705
1.0003701
1.00037
1.0003696
1.0003689
1.0003679
1.0003666
1.0003646
1.0003622
1.0003591
1.0003551
1.00035
1.0003438
1.0003361
1.0003267
1.0003154
1.0003022
1.0002866
1.0002683
1.0002473
1.0002233
1.0001963
1.0001662
1.0001329
1.0000965
1.000057
1.0000145
0.99996934
0.99992204
0.99987293
0.99982246
0.99977116
0.99971943
0.99966785
0.99961668
0.9995663
0.99951713
0.99946953
0.99942354
0.99937946
0.99933745
0.99929743
0.99925912
0.99922309
0.99918863
0.99915616
0.99912513
0.99909578
0.99906753
1.0003539
1.0003532
1.0003527
1.000352
1.000351
1.0003495
1.0003479
1.0003455
1.0003427
1.0003393
1.000335
1.0003296
1.000323
1.0003151
1.0003055
1.0002941
1.0002808
1.0002653
1.0002472
1.0002265
1.0002029
1.0001765
1.0001471
1.0001147
1.0000794
1.0000411
0.99999994
0.99995638
0.99991079
0.99986352
0.99981502
0.99976577
0.99971617
0.99966677
0.99961783
0.99956971
0.99952279
0.99947743
0.99943366
0.99939176
0.99935189
0.99931395
0.99927771
0.99924368
0.99921119
0.99918064
0.99915151
0.99912405
0.99909765
1.0003379
1.0003369
1.0003362
1.0003351
1.0003338
1.0003321
1.0003301
1.0003274
1.0003244
1.0003206
1.000316
1.0003103
1.0003036
1.0002954
1.0002857
1.0002743
1.000261
1.0002455
1.0002276
1.0002072
1.000184
1.0001582
1.0001296
1.0000981
1.0000638
1.0000267
0.99998695
0.99994492
0.99990099
0.9998555
0.99980888
0.99976161
0.99971407
0.99966676
0.99961995
0.99957398
0.99952923
0.999486
0.99944435
0.99940453
0.99936669
0.99933074
0.99929645
0.9992643
0.99923369
0.99920494
0.9991776
0.99915189
0.99912722
1.0003225
1.0003213
1.0003203
1.000319
1.0003174
1.0003154
1.0003132
1.0003103
1.0003069
1.0003029
1.000298
1.0002922
1.0002852
1.0002769
1.0002671
1.0002557
1.0002424
1.000227
1.0002094
1.0001893
1.0001667
1.0001414
1.0001135
1.000083
1.0000497
1.0000138
0.99997538
0.99993482
0.9998925
0.99984874
0.99980394
0.99975857
0.999713
0.9996677
0.99962293
0.99957902
0.99953633
0.99949514
0.9994555
0.99941767
0.99938175
0.99934768
0.99931525
0.99928488
0.99925602
0.99922897
0.9992033
0.99917922
0.99915615
1.0003076
1.0003063
1.0003051
1.0003035
1.0003017
1.0002995
1.000297
1.0002939
1.0002903
1.0002861
1.000281
1.000275
1.0002679
1.0002595
1.0002497
1.0002382
1.0002251
1.0002099
1.0001925
1.0001728
1.0001506
1.000126
1.0000989
1.0000692
1.000037
1.0000022
0.99996509
0.99992598
0.99988522
0.99984312
0.99980008
0.99975655
0.99971286
0.99966949
0.99962667
0.99958473
0.999544
0.99950476
0.99946704
0.99943108
0.99939699
0.9993647
0.99933403
0.99930534
0.99927813
0.99925268
0.99922857
0.99920601
0.99918444
1.0002932
1.0002917
1.0002903
1.0002886
1.0002866
1.0002842
1.0002816
1.0002783
1.0002745
1.0002701
1.0002649
1.0002588
1.0002516
1.0002432
1.0002333
1.0002219
1.0002088
1.0001939
1.0001768
1.0001575
1.0001358
1.0001118
1.0000854
1.0000566
1.0000254
0.99999181
0.999956
0.99991829
0.99987904
0.99983855
0.99979721
0.99975543
0.99971356
0.99967203
0.99963108
0.99959102
0.99955216
0.99951476
0.99947886
0.99944469
0.99941233
0.99938173
0.9993527
0.9993256
0.99929994
0.99927599
0.99925334
0.9992322
0.99921201
1.0002792
1.0002776
1.0002761
1.0002742
1.0002721
1.0002696
1.0002668
1.0002633
1.0002595
1.0002549
1.0002496
1.0002434
1.0002362
1.0002277
1.0002179
1.0002066
1.0001937
1.0001789
1.0001622
1.0001433
1.0001222
1.0000988
1.0000732
1.0000452
1.000015
0.99998255
0.99994799
0.99991166
0.99987387
0.99983494
0.99979523
0.99975515
0.99971501
0.99967525
0.99963607
0.9995978
0.99956072
0.99952507
0.9994909
0.99945842
0.99942769
0.99939868
0.99937122
0.9993456
0.99932141
0.99929885
0.99927757
0.99925775
0.99923885
1.0002657
1.0002639
1.0002623
1.0002603
1.0002581
1.0002555
1.0002525
1.000249
1.0002451
1.0002405
1.0002351
1.0002288
1.0002215
1.0002131
1.0002034
1.0001922
1.0001795
1.000165
1.0001486
1.0001301
1.0001096
1.0000869
1.000062
1.0000349
1.0000057
0.99997433
0.999941
0.99990599
0.99986963
0.99983221
0.99979407
0.99975561
0.99971714
0.99967906
0.99964158
0.99960501
0.99956961
0.99953562
0.99950309
0.9994722
0.99944302
0.9994155
0.9993895
0.99936528
0.99934245
0.9993212
0.99930119
0.99928259
0.99926489
1.0002524
1.0002506
1.0002489
1.0002469
1.0002446
1.0002419
1.0002389
1.0002353
1.0002313
1.0002266
1.0002212
1.0002149
1.0002077
1.0001993
1.0001897
1.0001787
1.0001662
1.0001519
1.0001359
1.0001179
1.0000979
1.0000759
1.0000517
1.0000256
0.99999734
0.99996707
0.99993493
0.99990123
0.99986625
0.99983028
0.99979366
0.99975676
0.99971989
0.99968341
0.99964754
0.99961258
0.99957878
0.99954636
0.99951537
0.99948597
0.99945824
0.99943213
0.9994075
0.99938459
0.99936304
0.99934301
0.99932418
0.99930673
0.99929014
1.0002395
1.0002377
1.0002359
1.0002338
1.0002315
1.0002288
1.0002257
1.0002221
1.000218
1.0002134
1.000208
1.0002017
1.0001945
1.0001863
1.0001768
1.000166
1.0001537
1.0001398
1.0001241
1.0001066
1.0000872
1.0000658
1.0000424
1.0000171
0.99998988
0.99996069
0.99992973
0.99989729
0.99986366
0.9998291
0.99979394
0.99975854
0.99972318
0.99968823
0.9996539
0.99962046
0.99958817
0.99955723
0.99952768
0.99949969
0.99947331
0.99944852
0.99942517
0.99940347
0.9993831
0.9993642
0.99934647
0.99933006
0.99931448
1.0002269
1.0002251
1.0002233
1.0002212
1.0002188
1.0002161
1.000213
1.0002094
1.0002054
1.0002007
1.0001953
1.0001891
1.000182
1.0001739
1.0001646
1.000154
1.000142
1.0001284
1.0001132
1.0000961
1.0000773
1.0000566
1.000034
1.0000095
0.99998326
0.99995513
0.99992533
0.99989413
0.9998618
0.9998286
0.99979485
0.99976088
0.99972698
0.99969349
0.99966061
0.99962861
0.99959774
0.99956817
0.99953998
0.9995133
0.99948819
0.99946461
0.99944245
0.99942189
0.99940262
0.99938477
0.99936805
0.99935262
0.999338
1.0002146
1.0002128
1.000211
1.0002089
1.0002066
1.0002038
1.0002008
1.0001972
1.0001932
1.0001886
1.0001832
1.0001771
1.0001702
1.0001622
1.000153
1.0001427
1.000131
1.0001178
1.0001029
1.0000864
1.0000682
1.0000482
1.0000263
1.0000028
0.99997742
0.99995034
0.99992168
0.99989168
0.99986062
0.99982874
0.99979635
0.99976376
0.99973125
0.99969913
0.99966763
0.99963699
0.99960744
0.99957917
0.99955223
0.99952676
0.99950282
0.99948037
0.99945931
0.99943978
0.99942151
0.99940461
0.99938881
0.99937425
0.99936047
1.0002026
1.0002008
1.0001991
1.000197
1.0001947
1.000192
1.0001889
1.0001854
1.0001814
1.0001769
1.0001717
1.0001657
1.0001589
1.0001511
1.0001421
1.000132
1.0001206
1.0001078
1.0000934
1.0000775
1.0000598
1.0000405
1.0000194
0.9999967
0.99997232
0.99994627
0.99991872
0.9998899
0.99986008
0.99982948
0.9997984
0.99976713
0.99973594
0.99970514
0.99967493
0.99964556
0.99961725
0.99959017
0.9995644
0.99954005
0.99951718
0.99949576
0.9994757
0.99945712
0.99943978
0.99942377
0.99940884
0.99939511
0.99938213
1.0001909
1.0001892
1.0001874
1.0001854
1.0001831
1.0001805
1.0001775
1.0001741
1.0001702
1.0001657
1.0001606
1.0001548
1.0001481
1.0001405
1.0001318
1.000122
1.0001109
1.0000985
1.0000846
1.0000692
1.0000521
1.0000335
1.0000132
0.99999133
0.99996789
0.99994287
0.99991641
0.99988875
0.99986013
0.99983078
0.99980096
0.99977096
0.99974103
0.99971148
0.99968249
0.99965431
0.99962714
0.99960117
0.99957645
0.99955312
0.99953122
0.99951073
0.99949157
0.99947384
0.99945732
0.99944207
0.99942788
0.99941484
0.99940253
1.0001795
1.0001778
1.0001761
1.0001741
1.0001719
1.0001693
1.0001664
1.0001631
1.0001593
1.000155
1.00015
1.0001443
1.0001378
1.0001304
1.000122
1.0001125
1.0001018
1.0000898
1.0000764
1.0000615
1.0000451
1.0000271
1.0000076
0.99998661
0.9999641
0.99994009
0.99991471
0.99988819
0.99986075
0.9998326
0.99980401
0.99977523
0.99974651
0.99971814
0.9996903
0.99966322
0.99963711
0.99961214
0.99958838
0.99956596
0.99954493
0.99952527
0.99950692
0.99948997
0.99947421
0.9994597
0.99944623
0.99943389
0.99942228
1.0001683
1.0001667
1.0001651
1.0001632
1.0001611
1.0001586
1.0001558
1.0001525
1.0001488
1.0001446
1.0001398
1.0001343
1.000128
1.0001209
1.0001128
1.0001036
1.0000933
1.0000817
1.0000687
1.0000544
1.0000386
1.0000214
1.0000027
0.9999825
0.99996092
0.99993791
0.99991359
0.99988819
0.99986191
0.99983494
0.99980753
0.99977992
0.99975237
0.99972511
0.99969834
0.99967228
0.99964713
0.99962306
0.99960016
0.99957854
0.99955828
0.99953934
0.99952168
0.99950538
0.99949023
0.99947629
0.99946336
0.9994515
0.99944035
1.0001575
1.0001559
1.0001544
1.0001526
1.0001505
1.0001481
1.0001454
1.0001423
1.0001388
1.0001347
1.0001301
1.0001247
1.0001187
1.0001118
1.000104
1.0000951
1.0000852
1.0000741
1.0000616
1.0000478
1.0000327
1.0000162
0.99999825
0.99997894
0.99995829
0.99993628
0.99991302
0.99988872
0.99986357
0.99983776
0.9998115
0.99978504
0.99975859
0.99973239
0.99970663
0.9996815
0.99965722
0.99963396
0.9996118
0.99959089
0.99957128
0.99955298
0.99953594
0.99952022
0.99950568
0.99949234
0.99948001
0.99946877
0.99945826
1.0001469
1.0001455
1.000144
1.0001423
1.0001403
1.000138
1.0001355
1.0001325
1.000129
1.0001252
1.0001207
1.0001156
1.0001098
1.0001032
1.0000957
1.0000872
1.0000776
1.0000669
1.000055
1.0000418
1.0000273
1.0000115
0.99999437
0.99997593
0.9999562
0.99993517
0.99991297
0.99988976
0.99986573
0.99984104
0.99981592
0.99979057
0.99976519
0.99974
0.99971516
0.99969089
0.99966739
0.99964484
0.99962333
0.99960301
0.99958395
0.99956614
0.99954956
0.99953426
0.99952008
0.99950705
0.99949499
0.99948397
0.99947361
1.0001367
1.0001353
1.000134
1.0001323
1.0001304
1.0001283
1.0001258
1.000123
1.0001197
1.000116
1.0001117
1.0001068
1.0001013
1.0000949
1.0000878
1.0000797
1.0000705
1.0000603
1.0000489
1.0000363
1.0000224
1.0000073
0.999991
0.99997341
0.9999546
0.99993456
0.9999134
0.99989128
0.99986835
0.99984479
0.99982078
0.99979652
0.99977217
0.99974794
0.99972397
0.99970049
0.99967769
0.99965576
0.99963481
0.99961497
0.99959634
0.99957894
0.99956275
0.99954784
0.99953411
0.99952156
0.99951005
0.99949961
0.99948994
1.0001267
1.0001255
1.0001242
1.0001227
1.0001209
1.0001188
1.0001165
1.0001138
1.0001107
1.0001071
1.0001031
1.0000984
1.0000931
1.0000871
1.0000803
1.0000725
1.0000639
1.0000541
1.0000432
1.0000312
1.000018
1.0000036
0.99998809
0.99997136
0.99995347
0.99993442
0.9999143
0.99989325
0.99987144
0.99984899
0.99982609
0.9998029
0.99977955
0.99975623
0.9997331
0.99971035
0.99968819
0.9996668
0.99964629
0.99962681
0.99960846
0.99959127
0.99957523
0.99956041
0.99954668
0.99953406
0.99952239
0.99951172
0.99950171
1.0001171
1.000116
1.0001148
1.0001133
1.0001117
1.0001097
1.0001075
1.0001049
1.000102
1.0000986
1.0000948
1.0000903
1.0000853
1.0000796
1.0000731
1.0000658
1.0000576
1.0000483
1.000038
1.0000266
1.000014
1.0000004
0.99998563
0.99996975
0.99995279
0.99993473
0.99991565
0.99989569
0.99987497
0.99985364
0.99983185
0.99980971
0.99978735
0.99976493
0.99974259
0.99972055
0.99969898
0.99967805
0.99965788
0.99963864
0.99962043
0.99960335
0.99958742
0.99957276
0.99955929
0.99954707
0.99953597
0.99952601
0.99951693
1.0001079
1.0001068
1.0001057
1.0001043
1.0001028
1.0001009
1.0000988
1.0000964
1.0000936
1.0000904
1.0000868
1.0000826
1.0000779
1.0000725
1.0000663
1.0000594
1.0000517
1.0000429
1.0000332
1.0000223
1.0000104
0.99999752
0.99998357
0.99996856
0.99995252
0.99993546
0.99991741
0.99989855
0.99987895
0.99985875
0.99983808
0.999817
0.99979562
0.99977409
0.99975256
0.9997312
0.99971017
0.99968961
0.99966966
0.99965048
0.9996322
0.99961491
0.99959868
0.99958358
0.99956954
0.99955657
0.99954453
0.99953349
0.99952312
1.000099
1.000098
1.0000969
1.0000957
1.0000942
1.0000925
1.0000905
1.0000882
1.0000856
1.0000826
1.0000791
1.0000752
1.0000707
1.0000657
1.0000599
1.0000534
1.0000461
1.0000379
1.0000287
1.0000185
1.0000072
0.99999503
0.99998188
0.99996772
0.99995261
0.99993653
0.99991954
0.99990177
0.9998833
0.99986425
0.99984472
0.99982473
0.99980437
0.99978378
0.9997631
0.99974244
0.99972192
0.99970167
0.9996818
0.99966253
0.99964402
0.99962646
0.99960998
0.99959476
0.99958085
0.99956833
0.99955717
0.99954732
0.99953864
1.0000904
1.0000895
1.0000885
1.0000873
1.0000859
1.0000843
1.0000824
1.0000803
1.0000778
1.000075
1.0000718
1.0000681
1.0000639
1.0000592
1.0000538
1.0000477
1.0000409
1.0000332
1.0000246
1.000015
1.0000044
0.9999929
0.99998056
0.99996727
0.99995309
0.99993801
0.99992206
0.99990538
0.99988803
0.99987015
0.99985176
0.99983285
0.99981354
0.99979396
0.9997742
0.99975428
0.99973427
0.99971427
0.99969441
0.99967487
0.99965587
0.99963756
0.99962007
0.99960356
0.99958801
0.99957349
0.99955988
0.99954728
0.99953537
1.0000823
1.0000813
1.0000804
1.0000792
1.0000779
1.0000764
1.0000746
1.0000726
1.0000703
1.0000677
1.0000647
1.0000613
1.0000574
1.000053
1.000048
1.0000423
1.0000359
1.0000288
1.0000208
1.0000118
1.0000019
0.99999116
0.99997966
0.99996727
0.99995406
0.99994002
0.99992515
0.99990962
0.99989344
0.99987676
0.99985954
0.99984173
0.99982351
0.99980499
0.99978613
0.9997669
0.99974733
0.9997275
0.99970757
0.99968774
0.99966825
0.99964934
0.99963129
0.99961443
0.999599
0.99958524
0.99957329
0.99956309
0.99955469
1.0000741
1.0000733
1.0000724
1.0000714
1.0000702
1.0000687
1.0000671
1.0000652
1.0000631
1.0000607
1.0000579
1.0000547
1.0000511
1.000047
1.0000423
1.0000371
1.0000312
1.0000247
1.0000173
1.000009
0.99999977
0.99998966
0.99997894
0.99996739
0.9999551
0.99994208
0.99992834
0.99991402
0.99989912
0.9998838
0.99986792
0.99985143
0.99983459
0.99981735
0.99979956
0.99978111
0.99976203
0.99974237
0.99972226
0.99970184
0.99968131
0.99966087
0.99964072
0.99962108
0.99960204
0.99958374
0.99956615
0.99954955
0.99953356
1.0000666
1.0000657
1.0000648
1.0000637
1.0000625
1.0000611
1.0000596
1.0000578
1.0000559
1.0000537
1.0000512
1.0000483
1.0000451
1.0000414
1.0000372
1.0000324
1.000027
1.0000209
1.0000141
1.0000064
0.99999773
0.99998817
0.9999781
0.99996723
0.99995568
0.99994349
0.99993067
0.99991737
0.99990357
0.99988947
0.99987486
0.99985977
0.99984459
0.9998289
0.99981253
0.99979535
0.99977739
0.9997586
0.99973902
0.99971867
0.99969773
0.99967645
0.99965525
0.99963477
0.99961574
0.99959881
0.99958465
0.99957326
0.99956515
1.0000585
1.0000576
1.0000566
1.0000556
1.0000545
1.0000534
1.0000522
1.0000508
1.0000493
1.0000475
1.0000454
1.000043
1.0000401
1.0000367
1.0000328
1.0000283
1.0000232
1.0000175
1.0000112
1.0000041
0.99999616
0.99998733
0.99997819
0.99996837
0.99995793
0.99994677
0.99993491
0.99992257
0.99990972
0.9998966
0.99988279
0.99986846
0.99985446
0.99983957
0.99982411
0.99980775
0.99979071
0.99977266
0.99975367
0.99973348
0.99971224
0.99968979
0.99966622
0.99964141
0.99961552
0.9995885
0.99956082
0.99953266
0.99950538
1.0000522
1.0000512
1.0000503
1.0000492
1.000048
1.0000467
1.0000454
1.0000439
1.0000423
1.0000406
1.0000387
1.0000363
1.0000334
1.0000301
1.0000265
1.0000225
1.0000182
1.0000134
1.0000081
1.0000023
0.99999577
0.99998811
0.99998046
0.9999724
0.99996388
0.99995474
0.99994494
0.99993476
0.99992413
0.99991327
0.99990144
0.99988933
0.99987688
0.99986319
0.99984874
0.99983317
0.99981676
0.99979881
0.99977955
0.99975815
0.99973511
0.99970998
0.99968375
0.99965715
0.99963163
0.99960846
0.99959065
0.99957684
0.99957274
1.0000443
1.0000421
1.0000402
1.0000384
1.0000368
1.0000354
1.0000342
1.0000331
1.0000321
1.000031
1.0000296
1.0000278
1.0000255
1.0000233
1.0000207
1.0000179
1.0000144
1.0000104
1.0000057
1.0000004
0.9999941
0.99998631
0.99997852
0.99997031
0.99996171
0.99995298
0.99994412
0.99993522
0.99992606
0.99991728
0.999908
0.99990137
0.99989132
0.99988249
0.99987175
0.99986141
0.99984936
0.99983667
0.99982193
0.99980551
0.99978618
0.99976364
0.99973439
0.99970002
0.99965742
0.99960586
0.99954505
0.99947412
0.99940435
1.0000385
1.0000376
1.0000368
1.0000368
1.000037
1.0000374
1.0000375
1.0000375
1.0000371
1.0000365
1.0000355
1.0000344
1.0000333
1.0000316
1.0000285
1.0000245
1.0000192
1.0000129
1.0000056
0.99999731
0.99998796
0.99997816
0.99996734
0.99995544
0.99994268
0.99992957