/*--------------------------------*- C++ -*----------------------------------*\
| =========                 |                                                 |
| \\      /  F ield         | OpenFOAM: The Open Source CFD Toolbox           |
|  \\    /   O peration     | Version:  v2006                                 |
|   \\  /    A nd           | Website:  www.openfoam.com                      |
|    \\/     M anipulation  |                                                 |
\*---------------------------------------------------------------------------*/
FoamFile
{
    version     2.0;
    format      ascii;
    class       volScalarField;
    location    "500";
    object      T;
}
// * * * * * * * * * * * * * * * * * * * * * * * * * * * * * * * * * * * * * //

dimensions      [0 0 0 1 0 0 0];


internalField   nonuniform List<scalar> 
19765
(
0.99999832
1.0000115
1.0001925
1.0003465
1.0004844
1.0006076
1.0007365
1.0008457
1.000955
1.001063
1.0011445
1.0012096
1.0012713
1.0013169
1.0013473
1.0013717
1.0013889
1.0013969
1.0013939
1.0013811
1.0013601
1.0013304
1.0012928
1.001247
1.0011937
1.0011371
1.0010752
1.0010016
1.0009215
1.000838
1.0007445
1.0006383
1.0005102
1.0003754
1.0002612
1.0001539
1.000015
0.99986872
0.99973601
0.99956747
0.99936751
0.9992436
0.99914476
0.99904198
0.99902899
0.99904545
0.99910857
0.99921087
0.99930866
1.0003347
1.0003912
1.0004553
1.0005324
1.0006145
1.0006959
1.0007754
1.0008503
1.0009206
1.0009881
1.0010519
1.0011093
1.0011605
1.0012044
1.0012391
1.0012657
1.001286
1.0012986
1.0013021
1.001296
1.0012804
1.0012558
1.0012225
1.0011801
1.0011299
1.001073
1.0010083
1.0009357
1.0008555
1.0007685
1.0006748
1.0005753
1.0004722
1.0003675
1.0002608
1.0001514
1.0000416
0.99993327
0.99982733
0.99972677
0.99963777
0.99956028
0.99948724
0.99941956
0.99935568
0.99930318
0.99925549
0.99921539
0.99918001
1.0003093
1.0003605
1.0004218
1.0004901
1.0005594
1.0006286
1.0006959
1.0007609
1.0008221
1.000882
1.0009384
1.0009896
1.0010355
1.0010756
1.0011079
1.0011336
1.0011543
1.0011683
1.0011737
1.0011701
1.0011576
1.0011373
1.0011084
1.0010706
1.0010259
1.000975
1.000916
1.0008489
1.0007747
1.0006939
1.0006066
1.000514
1.0004177
1.0003191
1.0002184
1.000116
1.0000133
0.99991095
0.99981066
0.99971468
0.99962273
0.99953444
0.9994528
0.99937991
0.99931514
0.99925684
0.99920652
0.99916292
0.99912481
1.0003841
1.0004247
1.000466
1.0005095
1.0005546
1.0006004
1.0006456
1.0006902
1.0007334
1.000776
1.0008171
1.0008554
1.0008907
1.0009221
1.0009481
1.0009693
1.0009866
1.0009986
1.0010038
1.0010017
1.0009922
1.0009757
1.000952
1.0009207
1.0008827
1.0008388
1.0007879
1.0007301
1.0006664
1.0005972
1.0005233
1.0004456
1.0003656
1.0002843
1.0002016
1.000118
1.0000354
0.99995397
0.9998745
0.99979913
0.99972762
0.99965731
0.99958961
0.99952465
0.99946205
0.99940225
0.99934366
0.99928537
0.99922726
1.0003872
1.0004219
1.0004569
1.0004926
1.0005286
1.0005647
1.0006002
1.0006351
1.0006691
1.0007027
1.0007351
1.0007657
1.0007942
1.0008198
1.0008413
1.0008592
1.0008737
1.0008837
1.0008879
1.0008858
1.0008773
1.0008626
1.0008418
1.0008139
1.0007798
1.0007402
1.0006946
1.0006429
1.000586
1.0005245
1.0004591
1.0003906
1.0003203
1.000249
1.000177
1.0001047
1.0000335
0.99996357
0.9998954
0.9998303
0.99976777
0.99970578
0.99964587
0.99958674
0.99952888
0.99947158
0.99941448
0.99935817
0.99930407
1.0003953
1.0004219
1.0004483
1.0004753
1.0005025
1.0005299
1.0005571
1.000584
1.0006105
1.0006369
1.0006626
1.0006869
1.0007097
1.0007302
1.0007475
1.0007618
1.0007734
1.0007811
1.0007838
1.0007811
1.0007727
1.0007589
1.0007394
1.0007137
1.0006823
1.000646
1.0006043
1.0005572
1.0005055
1.0004499
1.0003908
1.0003291
1.0002659
1.0002021
1.0001378
1.0000735
1.0000102
0.99994813
0.99988776
0.99982986
0.99977418
0.99971955
0.99966628
0.99961408
0.99956246
0.99951133
0.99945989
0.99940808
0.99935581
1.0003839
1.0004066
1.0004291
1.0004516
1.000474
1.0004963
1.0005183
1.0005401
1.0005615
1.0005828
1.0006036
1.0006232
1.0006416
1.0006581
1.000672
1.0006834
1.0006923
1.000698
1.0006992
1.0006958
1.0006873
1.000674
1.0006557
1.0006319
1.0006031
1.0005697
1.0005314
1.0004884
1.0004413
1.0003906
1.0003369
1.0002809
1.0002236
1.0001657
1.0001074
1.0000492
0.99999187
0.99993558
0.99988065
0.99982771
0.9997765
0.99972594
0.99967654
0.99962752
0.99957888
0.9995301
0.99948076
0.99943073
0.99938021
1.0003749
1.0003931
1.0004111
1.0004293
1.0004472
1.0004651
1.0004829
1.0005004
1.0005177
1.0005351
1.0005519
1.0005678
1.0005826
1.0005959
1.000607
1.0006159
1.0006226
1.0006264
1.0006264
1.0006222
1.0006135
1.0006004
1.0005829
1.0005603
1.0005333
1.000502
1.0004664
1.0004264
1.0003828
1.000336
1.0002865
1.000235
1.0001823
1.000129
1.0000756
1.0000222
0.99996958
0.99991797
0.99986761
0.99981897
0.99977191
0.99972565
0.99968036
0.99963566
0.99959126
0.9995469
0.99950207
0.99945662
0.99941044
1.0003603
1.0003757
1.0003909
1.0004062
1.0004212
1.000436
1.0004507
1.0004652
1.0004795
1.0004937
1.0005075
1.0005204
1.0005324
1.0005431
1.0005518
1.0005586
1.0005635
1.0005657
1.0005645
1.0005595
1.0005506
1.0005377
1.0005207
1.0004993
1.0004737
1.0004444
1.000411
1.0003737
1.0003332
1.0002897
1.0002438
1.0001961
1.0001473
1.000098
1.0000484
0.999999
0.99995023
0.99990233
0.99985551
0.99981018
0.99976622
0.99972292
0.99968054
0.99963858
0.99959692
0.99955519
0.999513
0.99947015
0.99942667
1.0003467
1.0003594
1.0003719
1.0003846
1.000397
1.0004093
1.0004214
1.0004334
1.0004452
1.0004569
1.0004682
1.0004788
1.0004885
1.000497
1.0005038
1.0005088
1.0005121
1.0005129
1.0005107
1.0005051
1.0004959
1.0004831
1.0004666
1.000446
1.0004216
1.0003938
1.0003622
1.0003272
1.0002891
1.0002483
1.0002054
1.0001608
1.0001152
1.0000691
1.0000229
0.99997672
0.99993118
0.99988645
0.99984273
0.99980036
0.99975929
0.99971895
0.99967948
0.99964056
0.99960199
0.99956352
0.99952475
0.9994855
0.99944571
1.0003316
1.0003423
1.000353
1.0003637
1.0003742
1.0003845
1.0003947
1.0004047
1.0004145
1.0004242
1.0004335
1.0004421
1.00045
1.0004567
1.0004618
1.0004654
1.0004673
1.000467
1.0004639
1.0004578
1.0004483
1.0004355
1.0004193
1.0003995
1.0003761
1.0003496
1.0003197
1.0002865
1.0002506
1.0002122
1.0001719
1.00013
1.0000872
1.0000439
1.0000005
0.99995714
0.99991435
0.99987231
0.99983118
0.99979129
0.9997526
0.9997146
0.99967746
0.99964085
0.99960465
0.99956857
0.99953231
0.99949566
0.99945861
1.0003173
1.0003263
1.0003352
1.0003442
1.000353
1.0003617
1.0003702
1.0003786
1.0003867
1.0003948
1.0004024
1.0004094
1.0004157
1.0004209
1.0004247
1.000427
1.0004278
1.0004265
1.0004227
1.0004161
1.0004064
1.0003936
1.0003777
1.0003584
1.000336
1.0003106
1.000282
1.0002505
1.0002165
1.0001802
1.000142
1.0001025
1.0000621
1.0000212
0.99998023
0.99993932
0.99989896
0.9998593
0.99982051
0.99978288
0.99974641
0.99971067
0.9996758
0.99964154
0.99960775
0.99957422
0.99954066
0.99950688
0.99947285
1.0003029
1.0003105
1.0003182
1.0003258
1.0003332
1.0003405
1.0003477
1.0003547
1.0003615
1.0003682
1.0003745
1.0003802
1.0003851
1.0003891
1.0003917
1.000393
1.0003928
1.0003907
1.0003862
1.0003791
1.0003693
1.0003566
1.0003409
1.0003222
1.0003005
1.0002761
1.0002487
1.0002187
1.0001863
1.0001518
1.0001156
1.0000781
1.0000399
1.0000012
0.99996238
0.99992366
0.99988544
0.9998479
0.99981118
0.99977555
0.99974104
0.99970724
0.99967432
0.99964203
0.99961028
0.99957886
0.99954751
0.99951606
0.99948452
1.0002893
1.0002957
1.0003021
1.0003086
1.0003149
1.000321
1.0003271
1.0003329
1.0003386
1.0003441
1.0003492
1.0003537
1.0003576
1.0003605
1.0003622
1.0003625
1.0003615
1.0003587
1.0003537
1.0003462
1.0003362
1.0003235
1.0003081
1.0002899
1.0002689
1.0002453
1.0002191
1.0001904
1.0001594
1.0001266
1.0000921
1.0000565
1.0000201
0.99998341
0.99994654
0.99990978
0.99987351
0.9998379
0.99980308
0.99976932
0.99973664
0.9997047
0.99967365
0.9996433
0.99961353
0.9995842
0.99955506
0.99952597
0.99949691
1.0002761
1.0002815
1.000287
1.0002925
1.0002978
1.000303
1.000308
1.0003129
1.0003176
1.0003222
1.0003263
1.0003298
1.0003327
1.0003347
1.0003355
1.0003351
1.0003334
1.00033
1.0003245
1.0003168
1.0003066
1.000294
1.0002788
1.000261
1.0002407
1.0002179
1.0001927
1.0001651
1.0001355
1.0001041
1.0000713
1.0000373
1.0000027
0.99996774
0.99993265
0.99989768
0.9998632
0.99982935
0.99979628
0.99976422
0.99973321
0.99970295
0.99967359
0.99964496
0.99961696
0.99958946
0.99956225
0.99953519
0.9995083
1.0002635
1.0002681
1.0002727
1.0002774
1.0002818
1.0002862
1.0002904
1.0002945
1.0002984
1.000302
1.0003053
1.000308
1.0003101
1.0003113
1.0003114
1.0003103
1.000308
1.0003041
1.0002982
1.0002902
1.00028
1.0002675
1.0002525
1.0002351
1.0002154
1.0001933
1.000169
1.0001425
1.0001141
1.0000841
1.0000527
1.0000203
0.99998727
0.99995392
0.99992047
0.99988716
0.99985434
0.99982213
0.99979069
0.99976023
0.99973081
0.99970215
0.99967441
0.99964742
0.99962113
0.99959539
0.99957004
0.99954494
0.99952012
1.0002515
1.0002554
1.0002593
1.0002632
1.000267
1.0002706
1.0002742
1.0002775
1.0002806
1.0002836
1.0002861
1.0002881
1.0002894
1.00029
1.0002895
1.0002879
1.000285
1.0002806
1.0002744
1.0002663
1.000256
1.0002436
1.0002288
1.0002118
1.0001926
1.0001713
1.0001478
1.0001223
1.0000951
1.0000663
1.0000362
1.0000052
0.99997365
0.99994181
0.99990989
0.99987813
0.99984685
0.99981618
0.99978626
0.9997573
0.99972936
0.99970219
0.99967593
0.99965046
0.99962572
0.99960158
0.9995779
0.99955455
0.99953158
1.0002402
1.0002434
1.0002467
1.00025
1.0002531
1.0002562
1.0002591
1.0002618
1.0002643
1.0002666
1.0002685
1.0002698
1.0002706
1.0002705
1.0002695
1.0002674
1.0002641
1.0002593
1.0002529
1.0002446
1.0002343
1.0002219
1.0002074
1.0001908
1.0001721
1.0001514
1.0001287
1.0001042
1.000078
1.0000503
1.0000215
0.99999185
0.99996166
0.99993122
0.99990074
0.99987043
0.9998406
0.99981138
0.9997829
0.99975536
0.99972882
0.99970307
0.99967823
0.99965421
0.99963094
0.99960833
0.99958623
0.99956453
0.9995433
1.0002294
1.0002321
1.0002348
1.0002376
1.0002402
1.0002426
1.000245
1.0002472
1.0002491
1.0002508
1.0002522
1.000253
1.0002532
1.0002527
1.0002511
1.0002486
1.0002449
1.0002399
1.0002332
1.0002248
1.0002145
1.0002022
1.000188
1.0001717
1.0001535
1.0001335
1.0001115
1.0000879
1.0000626
1.0000361
1.0000085
0.99998003
0.99995113
0.99992202
0.99989289
0.99986395
0.99983549
0.99980764
0.99978052
0.99975433
0.99972912
0.9997047
0.9996812
0.99965852
0.99963662
0.9996154
0.99959476
0.99957456
0.9995549
1.0002191
1.0002214
1.0002236
1.0002259
1.000228
1.00023
1.0002319
1.0002336
1.000235
1.0002363
1.0002371
1.0002375
1.0002372
1.0002362
1.0002343
1.0002314
1.0002274
1.0002221
1.0002153
1.0002068
1.0001965
1.0001844
1.0001704
1.0001544
1.0001367
1.0001172
1.000096
1.0000732
1.0000489
1.0000234
0.99999686
0.99996961
0.99994193
0.99991407
0.99988621
0.99985857
0.99983142
0.99980487
0.99977905
0.99975413
0.99973019
0.99970704
0.9996848
0.99966341
0.9996428
0.99962291
0.99960362
0.99958483
0.99956663
1.0002094
1.0002112
1.0002131
1.0002149
1.0002166
1.0002182
1.0002197
1.0002209
1.000222
1.0002228
1.0002232
1.0002231
1.0002224
1.0002211
1.0002188
1.0002156
1.0002113
1.0002058
1.0001988
1.0001903
1.00018
1.0001681
1.0001543
1.0001387
1.0001215
1.0001026
1.000082
1.00006
1.0000366
1.000012
0.99998657
0.99996043
0.99993391
0.99990724
0.9998806
0.9998542
0.99982828
0.99980298
0.99977839
0.99975469
0.99973195
0.99971
0.99968896
0.99966877
0.99964937
0.9996307
0.99961267
0.99959517
0.9995783
1.0002002
1.0002017
1.0002031
1.0002046
1.0002059
1.0002072
1.0002082
1.0002091
1.0002098
1.0002102
1.0002102
1.0002098
1.0002087
1.000207
1.0002045
1.000201
1.0001965
1.0001908
1.0001837
1.0001752
1.000165
1.0001532
1.0001396
1.0001244
1.0001076
1.0000893
1.0000694
1.0000481
1.0000256
1.0000019
0.99997746
0.99995238
0.99992696
0.99990143
0.99987595
0.99985072
0.99982599
0.99980187
0.99977846
0.99975592
0.99973433
0.99971352
0.99969362
0.99967457
0.99965631
0.9996388
0.99962195
0.99960565
0.99959001
1.0001914
1.0001926
1.0001937
1.0001949
1.0001959
1.0001968
1.0001975
1.0001981
1.0001984
1.0001985
1.0001982
1.0001974
1.000196
1.000194
1.0001912
1.0001875
1.0001828
1.000177
1.0001699
1.0001613
1.0001512
1.0001395
1.0001263
1.0001114
1.000095
1.0000772
1.000058
1.0000374
1.0000157
0.99999293
0.99996941
0.99994534
0.99992098
0.99989653
0.99987216
0.99984806
0.99982446
0.99980146
0.99977918
0.99975775
0.99973725
0.99971753
0.99969871
0.99968073
0.99966355
0.99964711
0.99963135
0.99961616
0.99960165
1.000183
1.0001839
1.0001848
1.0001857
1.0001864
1.000187
1.0001875
1.0001877
1.0001877
1.0001875
1.0001869
1.0001858
1.0001842
1.000182
1.0001789
1.000175
1.0001702
1.0001642
1.000157
1.0001485
1.0001385
1.000127
1.000114
1.0000995
1.0000835
1.0000662
1.0000476
1.0000278
1.0000068
0.99998493
0.99996233
0.99993922
0.99991586
0.99989245
0.99986914
0.99984612
0.9998236
0.99980169
0.99978047
0.99976011
0.99974065
0.99972197
0.99970417
0.9996872
0.99967104
0.99965562
0.99964088
0.99962672
0.99961325
1.0001751
1.0001757
1.0001764
1.000177
1.0001774
1.0001778
1.000178
1.000178
1.0001777
1.0001772
1.0001764
1.000175
1.0001732
1.0001707
1.0001675
1.0001634
1.0001585
1.0001524
1.0001452
1.0001367
1.0001268
1.0001155
1.0001028
1.0000886
1.0000731
1.0000563
1.0000383
1.0000191
0.9999989
0.99997783
0.99995611
0.99993393
0.99991154
0.99988912
0.99986683
0.99984483
0.99982335
0.99980247
0.99978228
0.99976293
0.99974446
0.99972676
0.99970994
0.99969393
0.99967872
0.99966425
0.99965046
0.99963725
0.99962474
1.0001675
1.0001679
1.0001683
1.0001687
1.000169
1.0001691
1.000169
1.0001688
1.0001683
1.0001676
1.0001665
1.0001649
1.0001629
1.0001602
1.0001568
1.0001526
1.0001476
1.0001415
1.0001343
1.0001258
1.0001161
1.000105
1.0000925
1.0000787
1.0000635
1.0000473
1.0000299
1.0000113
0.99999183
0.99997155
0.99995067
0.99992939
0.99990792
0.99988645
0.99986513
0.99984413
0.99982363
0.99980374
0.99978454
0.99976615
0.99974863
0.99973187
0.99971597
0.99970087
0.99968656
0.99967297
0.99966007
0.99964776
0.99963614
1.0001602
1.0001605
1.0001607
1.0001609
1.0001609
1.0001608
1.0001606
1.0001601
1.0001595
1.0001585
1.0001572
1.0001555
1.0001532
1.0001504
1.0001469
1.0001426
1.0001375
1.0001313
1.0001241
1.0001158
1.0001061
1.0000952
1.000083
1.0000696
1.0000549
1.0000391
1.0000222
1.0000043
0.99998554
0.99996602
0.99994595
0.99992552
0.99990494
0.99988439
0.999864
0.99984394
0.99982439
0.99980545
0.99978718
0.99976972
0.9997531
0.99973723
0.9997222
0.99970797
0.9996945
0.99968175
0.99966968
0.99965819
0.99964739
1.0001533
1.0001534
1.0001534
1.0001534
1.0001533
1.000153
1.0001526
1.0001519
1.0001511
1.00015
1.0001485
1.0001466
1.0001442
1.0001412
1.0001376
1.0001332
1.000128
1.0001219
1.0001147
1.0001064
1.000097
1.0000863
1.0000744
1.0000612
1.0000469
1.0000317
1.0000153
0.99999805
0.99997994
0.99996115
0.99994187
0.99992226
0.99990253
0.99988286
0.99986337
0.99984421
0.99982557
0.99980753
0.99979016
0.99977357
0.99975781
0.9997428
0.9997286
0.99971517
0.9997025
0.99969054
0.99967925
0.99966852
0.99965849
1.0001466
1.0001466
1.0001464
1.0001463
1.000146
1.0001456
1.000145
1.0001442
1.0001432
1.0001419
1.0001402
1.0001382
1.0001357
1.0001326
1.0001289
1.0001244
1.0001192
1.0001131
1.000106
1.0000978
1.0000885
1.0000781
1.0000664
1.0000536
1.0000397
1.0000249
1.0000091
0.99999244
0.99997499
0.9999569
0.99993837
0.99991955
0.99990065
0.99988181
0.99986318
0.99984489
0.99982712
0.99980994
0.99979343
0.99977768
0.99976273
0.99974852
0.99973511
0.99972246
0.99971054
0.99969931
0.99968874
0.99967873
0.9996694
1.0001402
1.00014
1.0001397
1.0001394
1.000139
1.0001384
1.0001377
1.0001368
1.0001356
1.0001342
1.0001325
1.0001303
1.0001277
1.0001245
1.0001207
1.0001162
1.000111
1.0001049
1.0000979
1.0000898
1.0000807
1.0000705
1.0000591
1.0000466
1.0000332
1.0000188
1.0000035
0.99998743
0.99997061
0.99995321
0.9999354
0.99991735
0.99989923
0.9998812
0.99986338
0.99984593
0.99982898
0.99981263
0.99979693
0.99978198
0.99976782
0.99975437
0.9997417
0.99972977
0.99971856
0.99970803
0.99969814
0.9996888
0.99968012
1.0001339
1.0001337
1.0001333
1.0001329
1.0001323
1.0001317
1.0001308
1.0001298
1.0001285
1.000127
1.0001251
1.0001228
1.0001201
1.0001169
1.0001131
1.0001086
1.0001033
1.0000973
1.0000903
1.0000824
1.0000734
1.0000634
1.0000524
1.0000403
1.0000272
1.0000133
0.99999852
0.99998298
0.99996677
0.99995003
0.99993292
0.99991559
0.99989823
0.99988097
0.99986394
0.99984728
0.99983113
0.99981556
0.99980063
0.99978644
0.99977302
0.9997603
0.99974833
0.99973709
0.99972655
0.99971667
0.99970741
0.99969869
0.99969062
1.0001279
1.0001275
1.0001271
1.0001266
1.0001259
1.0001251
1.0001242
1.000123
1.0001217
1.0001201
1.0001181
1.0001158
1.000113
1.0001097
1.0001059
1.0001014
1.0000961
1.0000901
1.0000833
1.0000755
1.0000667
1.000057
1.0000462
1.0000344
1.0000217
1.0000083
0.99999402
0.99997902
0.99996341
0.99994731
0.99993087
0.99991425
0.9998976
0.99988109
0.99986481
0.99984891
0.99983351
0.99981868
0.9998045
0.99979103
0.99977831
0.99976627
0.99975498
0.99974438
0.99973447
0.99972519
0.99971653
0.99970839
0.99970088
1.000122
1.0001216
1.0001211
1.0001205
1.0001197
1.0001189
1.0001178
1.0001166
1.0001152
1.0001135
1.0001115
1.0001091
1.0001063
1.000103
1.0000991
1.0000946
1.0000894
1.0000835
1.0000767
1.0000691
1.0000605
1.000051
1.0000405
1.0000291
1.0000168
1.0000038
0.99998999
0.99997554
0.9999605
0.99994501
0.99992922
0.99991327
0.99989732
0.99988151
0.99986595
0.99985077
0.99983609
0.99982198
0.99980849
0.99979571
0.99978365
0.99977226
0.99976159
0.99975161
0.99974228
0.99973358
0.99972547
0.99971787
0.99971088
1.0001163
1.0001158
1.0001152
1.0001146
1.0001138
1.0001128
1.0001118
1.0001105
1.000109
1.0001072
1.0001052
1.0001027
1.0000999
1.0000966
1.0000927
1.0000882
1.0000831
1.0000773
1.0000706
1.0000631
1.0000547
1.0000455
1.0000353
1.0000242
1.0000123
0.99999971
0.99998641
0.99997247
0.999958
0.9999431
0.99992793
0.99991263
0.99989735
0.99988221
0.99986734
0.99985284
0.99983884
0.9998254
0.99981258
0.99980044
0.99978901
0.99977823
0.99976816
0.99975874
0.99974997
0.9997418
0.99973421
0.99972711
0.99972061
1.0001108
1.0001102
1.0001096
1.0001088
1.000108
1.000107
1.0001059
1.0001046
1.000103
1.0001012
1.0000991
1.0000967
1.0000938
1.0000905
1.0000867
1.0000823
1.0000772
1.0000714
1.0000649
1.0000576
1.0000494
1.0000404
1.0000305
1.0000198
1.0000082
0.99999608
0.99998324
0.99996981
0.99995587
0.99994155
0.99992698
0.9999123
0.99989765
0.99988316
0.99986893
0.99985509
0.99984173
0.99982893
0.99981673
0.9998052
0.99979436
0.99978416
0.99977464
0.99976576
0.99975751
0.99974983
0.99974273
0.99973609
0.99973003
1.0001053
1.0001047
1.000104
1.0001033
1.0001024
1.0001014
1.0001002
1.0000989
1.0000973
1.0000955
1.0000934
1.0000909
1.0000881
1.0000848
1.000081
1.0000766
1.0000717
1.000066
1.0000596
1.0000524
1.0000445
1.0000357
1.0000261
1.0000158
1.0000046
0.99999282
0.99998044
0.9999675
0.99995409
0.99994032
0.99992633
0.99991224
0.9998982
0.99988432
0.99987071
0.99985748
0.99984474
0.99983253
0.99982093
0.99980997
0.99979968
0.99979002
0.99978101
0.99977264
0.99976486
0.99975766
0.999751
0.9997448
0.99973915
1.0001
1.0000994
1.0000987
1.0000979
1.000097
1.000096
1.0000948
1.0000934
1.0000918
1.00009
1.0000879
1.0000855
1.0000826
1.0000794
1.0000756
1.0000713
1.0000665
1.0000609
1.0000546
1.0000476
1.0000399
1.0000314
1.0000221
1.0000121
1.0000013
0.99998993
0.999978
0.99996553
0.99995263
0.9999394
0.99992596
0.99991244
0.99989897
0.99988568
0.99987266
0.99986001
0.99984783
0.99983619
0.99982513
0.99981471
0.99980493
0.99979578
0.99978726
0.99977935
0.99977202
0.99976525
0.999759
0.9997532
0.99974793
1.0000948
1.0000942
1.0000934
1.0000927
1.0000917
1.0000907
1.0000895
1.0000881
1.0000865
1.0000847
1.0000826
1.0000802
1.0000774
1.0000742
1.0000706
1.0000664
1.0000616
1.0000561
1.00005
1.0000432
1.0000357
1.0000274
1.0000185
1.0000088
0.99999833
0.99998738
0.99997588
0.99996388
0.99995147
0.99993875
0.99992584
0.99991287
0.99989996
0.99988721
0.99987474
0.99986263
0.999851
0.99983988
0.99982934
0.99981941
0.99981011
0.99980142
0.99979335
0.99978588
0.99977897
0.99977259
0.99976673
0.9997613
0.99975638
1.0000897
1.0000891
1.0000884
1.0000876
1.0000866
1.0000856
1.0000844
1.000083
1.0000815
1.0000797
1.0000776
1.0000752
1.0000725
1.0000693
1.0000657
1.0000616
1.000057
1.0000517
1.0000457
1.0000391
1.0000318
1.0000238
1.0000151
1.0000058
0.99999569
0.99998513
0.99997406
0.99996252
0.99995059
0.99993837
0.99992597
0.99991352
0.99990113
0.9998889
0.99987695
0.99986535
0.99985421
0.99984359
0.99983352
0.99982405
0.9998152
0.99980694
0.99979929
0.99979221
0.99978568
0.99977967
0.99977416
0.99976906
0.99976446
1.0000847
1.0000841
1.0000834
1.0000826
1.0000817
1.0000807
1.0000795
1.0000781
1.0000765
1.0000748
1.0000727
1.0000704
1.0000677
1.0000647
1.0000612
1.0000572
1.0000526
1.0000475
1.0000417
1.0000353
1.0000282
1.0000204
1.0000121
1.0000031
0.99999335
0.99998318
0.99997252
0.99996143
0.99994996
0.99993822
0.99992632
0.99991436
0.99990247
0.99989074
0.99987927
0.99986815
0.99985747
0.9998473
0.99983767
0.99982863
0.99982019
0.99981233
0.99980505
0.99979834
0.99979217
0.9997865
0.99978131
0.99977652
0.99977222
1.0000799
1.0000793
1.0000786
1.0000778
1.0000769
1.0000759
1.0000747
1.0000733
1.0000718
1.0000701
1.000068
1.0000658
1.0000631
1.0000602
1.0000568
1.0000529
1.0000486
1.0000436
1.000038
1.0000318
1.0000249
1.0000174
1.0000093
1.0000006
0.99999128
0.9999815
0.99997125
0.99996059
0.99994958
0.99993831
0.99992688
0.9999154
0.99990397
0.9998927
0.99988168
0.99987101
0.99986076
0.999851
0.99984178
0.99983313
0.99982506
0.99981757
0.99981064
0.99980426
0.9997984
0.99979303
0.99978813
0.99978362
0.99977957
1.0000752
1.0000746
1.0000739
1.0000731
1.0000722
1.0000712
1.0000701
1.0000687
1.0000672
1.0000655
1.0000636
1.0000613
1.0000588
1.0000559
1.0000526
1.0000489
1.0000447
1.0000399
1.0000345
1.0000285
1.0000218
1.0000146
1.0000068
0.99999847
0.99998948
0.99998007
0.99997024
0.99996
0.99994943
0.99993861
0.99992764
0.99991661
0.99990563
0.99989479
0.99988419
0.99987393
0.99986408
0.99985471
0.99984586
0.99983756
0.99982983
0.99982266
0.99981604
0.99980996
0.99980439
0.99979929
0.99979466
0.99979041
0.9997866
1.0000706
1.00007
1.0000694
1.0000686
1.0000677
1.0000667
1.0000656
1.0000643
1.0000628
1.0000612
1.0000592
1.0000571
1.0000546
1.0000518
1.0000486
1.0000451
1.000041
1.0000365
1.0000313
1.0000255
1.000019
1.000012
1.0000045
0.99999655
0.99998792
0.99997889
0.99996946
0.99995964
0.9999495
0.99993912
0.99992858
0.99991799
0.99990743
0.999897
0.9998868
0.99987692
0.99986744
0.99985842
0.9998499
0.99984192
0.99983449
0.99982759
0.99982124
0.99981541
0.99981008
0.99980521
0.99980078
0.99979673
0.99979312
1.0000661
1.0000656
1.000065
1.0000642
1.0000634
1.0000624
1.0000613
1.0000601
1.0000586
1.000057
1.0000551
1.000053
1.0000506
1.0000479
1.0000448
1.0000414
1.0000375
1.0000332
1.0000283
1.0000227
1.0000165
1.0000097
1.0000025
0.99999487
0.99998659
0.99997794
0.9999689
0.99995949
0.99994978
0.99993982
0.99992972
0.99991953
0.99990937
0.99989934
0.99988951
0.99987999
0.99987085
0.99986214
0.99985391
0.9998462
0.99983901
0.99983235
0.99982622
0.99982061
0.99981548
0.99981082
0.9998066
0.99980275
0.99979933
1.0000618
1.0000613
1.0000607
1.00006
1.0000592
1.0000583
1.0000572
1.000056
1.0000546
1.000053
1.0000512
1.0000491
1.0000468
1.0000441
1.0000412
1.0000379
1.0000342
1.0000301
1.0000254
1.0000201
1.0000142
1.0000076
1.0000007
0.99999341
0.99998549
0.9999772
0.99996856
0.99995956
0.99995025
0.99994072
0.99993103
0.99992124
0.99991147
0.9999018
0.99989233
0.99988315
0.99987431
0.99986588
0.99985789
0.99985038
0.99984339
0.9998369
0.99983093
0.99982547
0.99982048
0.99981595
0.99981185
0.99980811
0.99980479
1.0000577
1.0000572
1.0000566
1.0000559
1.0000552
1.0000543
1.0000533
1.0000521
1.0000508
1.0000492
1.0000475
1.0000454
1.0000432
1.0000406
1.0000378
1.0000346
1.0000311
1.0000271
1.0000227
1.0000177
1.000012
1.0000058
0.9999991
0.99999215
0.99998458
0.99997667
0.99996842
0.99995982
0.99995093
0.99994181
0.99993252
0.99992312
0.99991372
0.99990442
0.99989529
0.99988641
0.99987784
0.99986962
0.99986182
0.99985447
0.9998476
0.99984123
0.99983538
0.99983003
0.99982517
0.99982077
0.99981681
0.99981324
0.99981008
1.0000536
1.0000532
1.0000526
1.000052
1.0000513
1.0000504
1.0000495
1.0000484
1.0000471
1.0000456
1.0000439
1.000042
1.0000398
1.0000373
1.0000345
1.0000315
1.0000281
1.0000244
1.0000202
1.0000155
1.0000101
1.0000041
0.9999977
0.99999109
0.99998388
0.99997633
0.99996847
0.99996027
0.99995179
0.99994308
0.99993418
0.99992516
0.99991614
0.9999072
0.9998984
0.99988979
0.99988144
0.99987338
0.99986569
0.99985843
0.99985163
0.99984532
0.9998395
0.99983419
0.99982935
0.99982497
0.99982102
0.99981743
0.99981426
1.0000497
1.0000493
1.0000488
1.0000482
1.0000475
1.0000467
1.0000458
1.0000448
1.0000435
1.0000421
1.0000405
1.0000387
1.0000366
1.0000342
1.0000315
1.0000285
1.0000253
1.0000217
1.0000178
1.0000134
1.0000084
1.0000026
0.99999648
0.99999022
0.99998335
0.99997618
0.99996871
0.9999609
0.99995284
0.99994453
0.99993602
0.99992739
0.99991875
0.99991017
0.99990167
0.9998933
0.9998851
0.99987716
0.99986954
0.99986231
0.99985553
0.99984922
0.99984342
0.99983813
0.99983334
0.99982904
0.9998252
0.99982178
0.99981877
1.0000459
1.0000455
1.000045
1.0000445
1.0000438
1.0000431
1.0000422
1.0000413
1.0000401
1.0000388
1.0000373
1.0000355
1.0000336
1.0000313
1.0000287
1.0000258
1.0000226
1.0000192
1.0000156
1.0000115
1.0000068
1.0000013
0.99999544
0.99998951
0.999983
0.9999762
0.99996912
0.99996172
0.99995406
0.99994616
0.99993804
0.99992982
0.99992157
0.99991334
0.99990512
0.99989693
0.99988886
0.99988099
0.9998734
0.99986616
0.99985935
0.99985298
0.99984709
0.99984169
0.99983678
0.99983232
0.9998283
0.99982466
0.99982146
1.0000421
1.0000418
1.0000414
1.0000409
1.0000403
1.0000396
1.0000388
1.0000379
1.0000368
1.0000356
1.0000342
1.0000325
1.0000307
1.0000285
1.0000261
1.0000233
1.0000202
1.0000169
1.0000134
1.0000096
1.0000053
1.0000002
0.99999456
0.99998896
0.99998281
0.99997638
0.99996969
0.99996269
0.99995546
0.99994796
0.99994025
0.99993245
0.99992462
0.99991673
0.99990875
0.99990073
0.99989277
0.99988496
0.99987739
0.99987013
0.99986324
0.99985678
0.99985078
0.99984529
0.99984032
0.99983589
0.99983197
0.99982854
0.99982555
1.0000385
1.0000382
1.0000378
1.0000373
1.0000368
1.0000361
1.0000354
1.0000345
1.0000336
1.0000324
1.0000311
1.0000296
1.0000279
1.0000259
1.0000236
1.000021
1.000018
1.0000148
1.0000115
1.0000079
1.000004
0.99999924
0.99999383
0.99998857
0.99998277
0.99997672
0.99997042
0.99996383
0.99995702
0.99994993
0.99994264
0.99993531
0.99992789
0.99992031
0.99991256
0.99990473
0.99989692
0.99988922
0.99988167
0.99987435
0.99986731
0.99986061
0.9998543
0.99984843
0.99984302
0.99983807
0.99983359
0.99982952
0.99982594
1.000035
1.0000347
1.0000343
1.0000339
1.0000334
1.0000328
1.0000321
1.0000313
1.0000304
1.0000293
1.0000282
1.0000268
1.0000252
1.0000234
1.0000212
1.0000188
1.000016
1.0000129
1.0000097
1.0000063
1.0000028
0.99999842
0.99999324
0.99998832
0.99998289
0.99997722
0.99997132
0.99996515
0.99995877
0.99995209
0.99994527
0.99993843
0.99993141
0.99992412
0.99991663
0.99990905
0.99990147
0.9998939
0.99988639
0.99987897
0.99987172
0.99986472
0.99985808
0.99985189
0.99984624
0.9998412
0.99983679
0.99983304
0.99982981
1.0000316
1.0000313
1.000031
1.0000305
1.00003
1.0000295
1.0000288
1.0000281
1.0000273
1.0000263
1.0000253
1.000024
1.0000226
1.0000209
1.000019
1.0000167
1.0000142
1.0000112
1.0000081
1.0000049
1.0000016
0.99999772
0.99999278
0.99998818
0.9999831
0.99997781
0.99997231
0.99996657
0.99996063
0.9999544
0.9999481
0.99994179
0.99993515
0.9999282
0.99992108
0.99991389
0.99990662
0.99989924
0.99989173
0.99988413
0.99987651
0.99986895
0.99986157
0.99985447
0.99984775
0.99984145
0.99983564
0.99983029
0.99982561
1.0000285
1.0000282
1.0000278
1.0000274
1.0000269
1.0000263
1.0000257
1.000025
1.0000242
1.0000234
1.0000224
1.0000213
1.00002
1.0000185
1.0000168
1.0000148
1.0000125
1.0000098
1.0000067
1.0000036
1.0000006
0.99999715
0.99999244
0.99998815
0.99998341
0.99997848
0.99997336
0.99996803
0.99996252
0.99995672
0.99995099
0.99994519
0.9999389
0.99993241
0.99992586
0.99991922
0.99991238
0.99990527
0.99989782
0.99989008
0.9998821
0.99987399
0.99986592
0.9998581
0.99985074
0.99984409
0.99983828
0.9998335
0.99982957
1.0000254
1.000025
1.0000246
1.0000242
1.0000237
1.0000232
1.0000226
1.000022
1.0000213
1.0000206
1.0000197
1.0000188
1.0000177
1.0000163
1.0000148
1.000013
1.0000109
1.0000084
1.0000055
1.0000025
0.99999961
0.99999669
0.99999225
0.99998832
0.99998397
0.99997943
0.99997472
0.99996982
0.99996473
0.99995939
0.99995425
0.99994885
0.99994288
0.999937
0.99993107
0.99992502
0.99991859
0.99991176
0.9999044
0.99989655
0.99988817
0.99987932
0.99987005
0.99986048
0.99985075
0.99984115
0.99983179
0.99982304
0.99981513
1.0000224
1.000022
1.0000216
1.0000212
1.0000207
1.0000202
1.0000197
1.0000191
1.0000185
1.0000178
1.000017
1.0000161
1.000015
1.0000139
1.0000124
1.0000108
1.0000089
1.0000068
1.0000042
1.0000013
0.99999857
0.99999624
0.99999214
0.9999886
0.99998471
0.99998067
0.99997646
0.9999721
0.99996757
0.99996285
0.99995846
0.99995347
0.99994804
0.9999431
0.99993783
0.99993244
0.99992639
0.99991995
0.99991267
0.99990478
0.99989592
0.99988631
0.99987594
0.99986518
0.99985458
0.99984475
0.99983582
0.99982906
0.99982257
1.000019
1.0000184
1.0000178
1.0000172
1.0000167
1.0000162
1.0000158
1.0000155
1.0000151
1.0000146
1.000014
1.0000132
1.0000123
1.0000114
1.0000103
1.000009
1.0000074
1.0000056
1.0000033
1.0000006
0.99999779
0.99999578
0.99999194
0.9999885
0.9999848
0.99998099
0.9999771
0.99997312
0.999969
0.99996493
0.99996122
0.99995653
0.99995219
0.99994847
0.99994418
0.9999398
0.99993472
0.99992929
0.9999229
0.99991582
0.99990731
0.99989744
0.99988588
0.99987236
0.99985768
0.99983984
0.99982003
0.99979895
0.9997763
1.0000146
1.000014
1.0000136
1.0000134
1.0000133
1.0000132
1.0000132
1.0000131
1.000013
1.0000129
1.0000128
1.0000126
1.0000122
1.0000113
1.0000105
1.0000095
1.000008
1.0000062
1.000004
1.0000013
0.99999803
0.99999544
0.99999221
0.99998852
0.99998475
0.99998083
0.99997684
0.99997279
0.9999687
0.99996484
0.99996105
0.99995524
0.99995299