/*--------------------------------*- C++ -*----------------------------------*\
| =========                 |                                                 |
| \\      /  F ield         | OpenFOAM: The Open Source CFD Toolbox           |
|  \\    /   O peration     | Version:  v2006                                 |
|   \\  /    A nd           | Website:  www.openfoam.com                      |
|    \\/     M anipulation  |                                                 |
\*---------------------------------------------------------------------------*/
FoamFile
{
    version     2.0;
    format      ascii;
    class       volScalarField;
    location    "500";
    object      TMean;
}
// * * * * * * * * * * * * * * * * * * * * * * * * * * * * * * * * * * * * * //

dimensions      [0 0 0 1 0 0 0];


internalField   nonuniform List<scalar> 
19765
(
0.99970451
0.99967596
0.99984232
0.99999817
1.0001312
1.0002569
1.0003907
1.0005116
1.0006369
1.0007737
1.0008842
1.0009713
1.0010523
1.0011209
1.0011743
1.0012236
1.0012682
1.0013026
1.0013266
1.0013407
1.0013462
1.0013446
1.0013365
1.0013208
1.0012985
1.0012712
1.0012387
1.0011974
1.0011501
1.001096
1.0010342
1.0009627
1.0008749
1.0007832
1.0007019
1.0006198
1.0005132
1.0004041
1.0002993
1.000164
1.0000089
0.99991228
0.99981702
0.99973804
0.99969645
0.9996923
0.9997255
0.99978585
0.99984177
1.0000596
1.0001121
1.0001776
1.0002528
1.0003379
1.0004249
1.0005122
1.0005961
1.0006772
1.0007557
1.0008324
1.0009047
1.0009714
1.0010322
1.0010859
1.0011325
1.0011734
1.0012079
1.0012344
1.0012522
1.0012609
1.0012614
1.0012546
1.0012407
1.0012202
1.0011934
1.0011569
1.0011156
1.0010662
1.0010104
1.0009477
1.0008789
1.0008056
1.0007295
1.000651
1.0005693
1.0004854
1.0004015
1.0003182
1.0002369
1.0001627
1.0000951
1.0000311
0.9999732
0.99991568
0.99986626
0.99982236
0.999783
0.99974423
1.0000756
1.0001282
1.00019
1.0002581
1.0003308
1.000405
1.0004792
1.0005517
1.0006222
1.0006916
1.0007587
1.0008223
1.0008819
1.0009365
1.0009846
1.0010268
1.0010644
1.0010963
1.0011208
1.0011375
1.001146
1.0011468
1.0011399
1.0011246
1.0011027
1.0010722
1.001034
1.0009908
1.0009422
1.0008882
1.0008283
1.0007628
1.0006928
1.0006202
1.0005456
1.0004687
1.0003898
1.0003102
1.0002316
1.0001546
1.0000797
1.0000084
0.99994116
0.99988006
0.99982512
0.99977454
0.99973001
0.99969092
0.99965508
1.0002126
1.0002553
1.0002984
1.0003431
1.0003903
1.0004385
1.0004867
1.0005351
1.0005828
1.0006301
1.0006773
1.0007234
1.0007676
1.0008092
1.0008469
1.0008807
1.0009112
1.0009376
1.0009584
1.0009729
1.0009809
1.0009825
1.0009775
1.0009648
1.0009445
1.0009188
1.0008873
1.0008501
1.0008078
1.0007606
1.0007085
1.0006522
1.0005929
1.0005316
1.0004687
1.0004046
1.0003399
1.0002754
1.000212
1.0001509
1.0000919
1.0000341
0.9999785
0.99992424
0.99987204
0.99982144
0.99977201
0.99972306
0.99967407
1.0002477
1.0002831
1.0003187
1.0003552
1.0003928
1.0004312
1.0004696
1.0005083
1.0005464
1.0005844
1.0006223
1.0006594
1.0006952
1.0007292
1.0007603
1.0007882
1.0008134
1.000835
1.0008517
1.0008629
1.0008684
1.0008685
1.0008632
1.0008516
1.0008345
1.0008125
1.000785
1.000752
1.0007143
1.0006721
1.000626
1.0005763
1.0005244
1.0004709
1.0004164
1.0003611
1.0003058
1.0002508
1.0001969
1.0001448
1.0000941
1.000044
0.99999551
0.99994703
0.99989958
0.9998521
0.99980463
0.99975699
0.99970998
1.0002717
1.0002998
1.0003274
1.0003557
1.0003846
1.0004141
1.0004438
1.000474
1.000504
1.0005342
1.0005646
1.0005946
1.0006238
1.0006517
1.0006774
1.0007007
1.0007219
1.0007401
1.0007543
1.0007637
1.0007683
1.0007679
1.0007625
1.0007516
1.0007357
1.0007155
1.0006903
1.0006601
1.0006256
1.0005873
1.0005453
1.0005004
1.0004535
1.0004053
1.0003564
1.0003069
1.0002576
1.0002086
1.0001607
1.0001142
1.000069
1.0000246
0.99998128
0.99993833
0.99989585
0.99985342
0.99981063
0.99976723
0.99972289
1.0002763
1.0003005
1.0003242
1.0003481
1.0003722
1.0003966
1.000421
1.0004457
1.0004703
1.0004951
1.0005201
1.0005447
1.0005686
1.0005915
1.0006127
1.0006319
1.0006493
1.0006642
1.0006755
1.0006829
1.000686
1.0006849
1.0006794
1.000669
1.0006543
1.0006356
1.0006125
1.0005849
1.0005534
1.0005184
1.0004803
1.0004395
1.000397
1.0003534
1.0003091
1.0002645
1.00022
1.0001758
1.0001326
1.0000904
1.0000493
1.0000088
0.99996907
0.99992936
0.99988995
0.99985017
0.99980981
0.9997686
0.99972648
1.0002787
1.0002985
1.0003178
1.0003374
1.000357
1.0003769
1.0003969
1.0004171
1.0004374
1.0004579
1.0004786
1.000499
1.0005189
1.000538
1.0005556
1.0005717
1.0005862
1.0005984
1.0006076
1.0006134
1.0006153
1.0006135
1.0006077
1.0005975
1.0005835
1.0005658
1.0005442
1.0005184
1.0004891
1.0004567
1.0004214
1.0003838
1.0003445
1.0003043
1.0002636
1.0002226
1.0001816
1.000141
1.0001012
1.0000624
1.0000245
0.99998725
0.9999507
0.99991431
0.99987815
0.99984178
0.99980492
0.99976731
0.99972869
1.000275
1.000292
1.0003085
1.0003251
1.0003417
1.0003585
1.0003752
1.0003922
1.0004091
1.0004263
1.0004436
1.0004606
1.0004772
1.0004931
1.0005078
1.0005211
1.0005329
1.0005428
1.0005501
1.0005543
1.0005551
1.0005525
1.0005464
1.0005364
1.0005229
1.0005061
1.0004856
1.0004615
1.0004341
1.0004039
1.0003711
1.0003362
1.0002998
1.0002625
1.0002248
1.0001868
1.0001488
1.0001112
1.0000743
1.0000383
1.000003
0.99996836
0.99993435
0.99990045
0.99986677
0.99983284
0.99979846
0.99976335
0.99972734
1.0002699
1.0002841
1.000298
1.0003119
1.0003259
1.00034
1.0003541
1.0003684
1.0003826
1.0003972
1.0004117
1.0004261
1.0004401
1.0004534
1.0004657
1.0004767
1.0004865
1.0004945
1.0005001
1.0005029
1.0005028
1.0004995
1.000493
1.0004831
1.0004699
1.0004537
1.0004343
1.0004114
1.0003856
1.0003571
1.0003263
1.0002935
1.0002595
1.0002246
1.0001892
1.0001536
1.0001181
1.0000829
1.0000483
1.0000146
0.99998155
0.99994912
0.99991733
0.99988575
0.99985443
0.999823
0.99979126
0.99975894
0.99972586
1.0002628
1.000275
1.0002869
1.0002988
1.0003107
1.0003227
1.0003347
1.0003469
1.000359
1.0003714
1.0003837
1.0003958
1.0004076
1.0004188
1.000429
1.0004381
1.0004461
1.0004524
1.0004565
1.0004582
1.0004572
1.0004533
1.0004465
1.0004365
1.0004236
1.000408
1.0003893
1.0003675
1.000343
1.0003161
1.000287
1.0002562
1.0002241
1.0001912
1.000158
1.0001245
1.0000911
1.000058
1.0000254
0.99999364
0.99996259
0.99993209
0.99990222
0.99987259
0.99984327
0.99981391
0.99978433
0.99975429
0.99972366
1.0002552
1.0002655
1.0002756
1.0002858
1.000296
1.0003062
1.0003165
1.0003269
1.0003372
1.0003478
1.0003583
1.0003686
1.0003785
1.0003879
1.0003965
1.000404
1.0004104
1.0004153
1.0004182
1.0004189
1.000417
1.0004126
1.0004055
1.0003954
1.0003828
1.0003676
1.0003495
1.0003287
1.0003053
1.0002797
1.000252
1.0002228
1.0001924
1.0001614
1.0001299
1.0000982
1.0000666
1.0000352
1.0000045
0.99997441
0.99994507
0.99991629
0.99988815
0.99986033
0.99983286
0.99980548
0.99977799
0.99975021
0.99972198
1.0002469
1.0002558
1.0002645
1.0002733
1.000282
1.0002908
1.0002996
1.0003085
1.0003174
1.0003264
1.0003354
1.0003441
1.0003525
1.0003604
1.0003675
1.0003736
1.0003787
1.0003823
1.0003842
1.000384
1.0003815
1.0003765
1.0003691
1.0003591
1.0003466
1.0003317
1.0003143
1.0002942
1.0002718
1.0002473
1.000221
1.0001932
1.0001644
1.0001348
1.0001049
1.0000748
1.0000448
1.0000151
0.99998596
0.99995746
0.99992968
0.99990244
0.99987587
0.99984965
0.99982385
0.9997982
0.99977256
0.99974674
0.99972064
1.0002386
1.0002461
1.0002536
1.0002612
1.0002687
1.0002763
1.0002839
1.0002915
1.0002992
1.0003069
1.0003145
1.000322
1.000329
1.0003356
1.0003415
1.0003464
1.0003503
1.0003529
1.0003539
1.0003529
1.0003498
1.0003444
1.0003367
1.0003266
1.0003143
1.0002998
1.0002828
1.0002635
1.000242
1.0002185
1.0001933
1.0001668
1.0001393
1.0001111
1.0000826
1.000054
1.0000254
0.99999719
0.99996945
0.99994237
0.999916
0.99989019
0.99986505
0.99984034
0.99981608
0.99979207
0.99976816
0.99974421
0.9997201
1.0002302
1.0002367
1.0002432
1.0002497
1.0002562
1.0002627
1.0002692
1.0002758
1.0002824
1.000289
1.0002955
1.0003018
1.0003078
1.0003132
1.000318
1.0003219
1.0003248
1.0003265
1.0003266
1.000325
1.0003213
1.0003156
1.0003078
1.0002976
1.0002854
1.0002712
1.0002547
1.000236
1.0002152
1.0001927
1.0001686
1.0001432
1.0001169
1.00009
1.0000628
1.0000355
1.0000083
0.99998137
0.99995496
0.9999292
0.99990414
0.99987966
0.99985585
0.99983251
0.99980967
0.99978715
0.99976482
0.99974254
0.99972024
1.000222
1.0002276
1.0002331
1.0002388
1.0002443
1.00025
1.0002556
1.0002613
1.0002669
1.0002726
1.0002781
1.0002834
1.0002884
1.0002929
1.0002967
1.0002997
1.0003018
1.0003027
1.0003021
1.0002999
1.0002958
1.0002897
1.0002817
1.0002715
1.0002594
1.0002455
1.0002294
1.0002113
1.0001913
1.0001696
1.0001464
1.0001221
1.0000969
1.0000712
1.0000452
1.0000191
0.99999309
0.99996743
0.99994226
0.99991772
0.9998939
0.99987065
0.99984809
0.99982604
0.99980454
0.99978341
0.99976255
0.99974183
0.99972122
1.000214
1.0002188
1.0002235
1.0002284
1.0002332
1.0002381
1.0002429
1.0002478
1.0002526
1.0002574
1.0002621
1.0002665
1.0002707
1.0002743
1.0002773
1.0002795
1.0002808
1.0002811
1.0002799
1.0002771
1.0002726
1.0002664
1.0002581
1.000248
1.000236
1.0002223
1.0002067
1.0001891
1.0001698
1.0001489
1.0001266
1.0001032
1.0000791
1.0000544
1.0000295
1.0000046
0.99997974
0.99995525
0.99993124
0.99990786
0.9998852
0.99986311
0.99984173
0.99982089
0.99980062
0.99978078
0.99976128
0.99974199
0.99972291
1.0002062
1.0002103
1.0002144
1.0002186
1.0002227
1.0002269
1.000231
1.0002352
1.0002393
1.0002434
1.0002473
1.000251
1.0002544
1.0002573
1.0002596
1.0002611
1.0002618
1.0002614
1.0002597
1.0002565
1.0002517
1.0002451
1.0002368
1.0002267
1.0002148
1.0002014
1.0001862
1.0001691
1.0001504
1.0001302
1.0001088
1.0000863
1.0000631
1.0000395
1.0000157
0.99999176
0.99996804
0.99994464
0.99992173
0.99989946
0.99987789
0.9998569
0.99983663
0.99981693
0.99979783
0.9997792
0.99976096
0.99974301
0.99972534
1.0001987
1.0002022
1.0002057
1.0002093
1.0002128
1.0002164
1.0002199
1.0002235
1.0002269
1.0002304
1.0002337
1.0002367
1.0002394
1.0002417
1.0002433
1.0002442
1.0002443
1.0002434
1.0002412
1.0002377
1.0002326
1.0002259
1.0002175
1.0002073
1.0001956
1.0001825
1.0001676
1.000151
1.0001329
1.0001134
1.0000928
1.0000712
1.0000489
1.0000263
1.0000034
0.99998051
0.99995783
0.99993548
0.99991362
0.99989239
0.99987186
0.99985193
0.99983271
0.99981408
0.99979607
0.99977857
0.99976151
0.99974478
0.9997284
1.0001915
1.0001945
1.0001974
1.0002005
1.0002035
1.0002065
1.0002095
1.0002125
1.0002154
1.0002183
1.000221
1.0002234
1.0002256
1.0002272
1.0002283
1.0002287
1.0002283
1.0002269
1.0002244
1.0002205
1.0002151
1.0002083
1.0001998
1.0001897
1.0001782
1.0001653
1.0001508
1.0001347
1.0001171
1.0000983
1.0000784
1.0000576
1.0000362
1.0000145
0.99999258
0.99997067
0.99994897
0.99992762
0.99990676
0.99988653
0.99986699
0.99984806
0.99982984
0.99981223
0.99979525
0.99977881
0.99976284
0.99974725
0.99973207
1.0001845
1.000187
1.0001896
1.0001921
1.0001947
1.0001972
1.0001998
1.0002023
1.0002047
1.000207
1.0002092
1.0002111
1.0002127
1.0002139
1.0002145
1.0002144
1.0002136
1.0002118
1.0002089
1.0002047
1.0001992
1.0001922
1.0001837
1.0001737
1.0001623
1.0001497
1.0001355
1.0001199
1.0001029
1.0000847
1.0000655
1.0000455
1.000025
1.0000041
0.99998307
0.99996208
0.99994133
0.99992094
0.99990104
0.99988176
0.99986317
0.99984519
0.99982792
0.99981128
0.99979527
0.99977982
0.99976488
0.99975034
0.99973624
1.0001778
1.0001799
1.000182
1.0001842
1.0001864
1.0001885
1.0001906
1.0001926
1.0001946
1.0001965
1.0001982
1.0001997
1.0002008
1.0002016
1.0002017
1.0002012
1.0002
1.0001978
1.0001946
1.0001902
1.0001845
1.0001775
1.000169
1.000159
1.0001478
1.0001354
1.0001216
1.0001064
1.00009
1.0000724
1.0000539
1.0000346
1.0000149
0.99999488
0.99997473
0.99995464
0.9999348
0.99991532
0.99989634
0.99987798
0.9998603
0.99984323
0.99982686
0.99981113
0.99979604
0.99978153
0.99976753
0.99975397
0.99974089
1.0001714
1.0001732
1.0001749
1.0001767
1.0001785
1.0001802
1.0001819
1.0001836
1.0001852
1.0001867
1.000188
1.000189
1.0001898
1.0001901
1.0001898
1.000189
1.0001874
1.000185
1.0001815
1.0001769
1.0001711
1.000164
1.0001555
1.0001456
1.0001346
1.0001225
1.000109
1.0000942
1.0000783
1.0000613
1.0000435
1.000025
1.000006
0.99998677
0.99996746
0.99994822
0.99992926
0.99991066
0.99989256
0.99987508
0.99985827
0.99984206
0.99982657
0.9998117
0.99979748
0.99978384
0.99977073
0.99975808
0.99974593
1.0001652
1.0001666
1.0001681
1.0001695
1.000171
1.0001724
1.0001738
1.0001751
1.0001763
1.0001774
1.0001784
1.0001791
1.0001794
1.0001794
1.0001788
1.0001776
1.0001757
1.000173
1.0001694
1.0001646
1.0001587
1.0001515
1.0001431
1.0001334
1.0001225
1.0001106
1.0000975
1.0000832
1.0000677
1.0000513
1.0000341
1.0000163
0.99999809
0.99997965
0.99996114
0.99994274
0.99992461
0.99990686
0.99988961
0.99987297
0.99985699
0.99984162
0.99982694
0.9998129
0.9997995
0.99978668
0.99977441
0.9997626
0.99975131
1.0001593
1.0001604
1.0001615
1.0001627
1.0001639
1.000165
1.000166
1.000167
1.0001679
1.0001687
1.0001694
1.0001697
1.0001697
1.0001694
1.0001685
1.000167
1.0001649
1.000162
1.0001581
1.0001532
1.0001472
1.0001401
1.0001317
1.0001221
1.0001114
1.0000998
1.000087
1.0000731
1.0000582
1.0000423
1.0000258
1.0000086
0.99999111
0.99997342
0.99995569
0.99993808
0.99992076
0.99990383
0.9998874
0.99987156
0.99985638
0.99984181
0.99982792
0.99981465
0.99980203
0.99978998
0.99977849
0.99976746
0.99975697
1.0001535
1.0001544
1.0001553
1.0001562
1.0001571
1.0001579
1.0001587
1.0001594
1.00016
1.0001606
1.0001609
1.0001609
1.0001607
1.00016
1.0001589
1.0001572
1.0001548
1.0001517
1.0001477
1.0001427
1.0001367
1.0001295
1.0001212
1.0001117
1.0001013
1.0000899
1.0000775
1.000064
1.0000495
1.0000342
1.0000183
1.0000018
0.99998496
0.999968
0.99995102
0.99993418
0.99991764
0.99990149
0.99988584
0.99987078
0.99985637
0.99984255
0.99982941
0.99981689
0.999805
0.99979368
0.99978292
0.99977262
0.99976287
1.0001479
1.0001486
1.0001493
1.0001499
1.0001506
1.0001512
1.0001517
1.0001522
1.0001526
1.0001528
1.0001529
1.0001527
1.0001521
1.0001513
1.0001499
1.000148
1.0001454
1.0001421
1.000138
1.0001329
1.0001269
1.0001197
1.0001115
1.0001022
1.0000919
1.0000809
1.0000688
1.0000557
1.0000417
1.000027
1.0000116
0.99999571
0.99997957
0.9999633
0.99994705
0.99993095
0.99991516
0.99989977
0.99988487
0.99987056
0.99985688
0.99984379
0.99983136
0.99981954
0.99980834
0.99979772
0.99978764
0.99977802
0.99976895
1.0001425
1.000143
1.0001435
1.0001439
1.0001444
1.0001448
1.0001451
1.0001453
1.0001455
1.0001455
1.0001453
1.0001449
1.0001441
1.000143
1.0001414
1.0001393
1.0001366
1.0001332
1.000129
1.0001239
1.0001178
1.0001107
1.0001026
1.0000934
1.0000834
1.0000726
1.0000608
1.0000482
1.0000346
1.0000204
1.0000056
0.99999035
0.99997486
0.99995927
0.99994372
0.99992833
0.99991327
0.9998986
0.99988442
0.99987082
0.99985784
0.99984545
0.9998337
0.99982255
0.99981201
0.99980203
0.99979259
0.99978362
0.99977518
1.0001373
1.0001376
1.0001379
1.0001382
1.0001384
1.0001386
1.0001387
1.0001388
1.0001387
1.0001385
1.0001381
1.0001375
1.0001366
1.0001353
1.0001335
1.0001312
1.0001284
1.0001249
1.0001206
1.0001154
1.0001094
1.0001023
1.0000943
1.0000854
1.0000755
1.000065
1.0000536
1.0000413
1.0000283
1.0000145
1.0000003
0.99998562
0.99997076
0.99995583
0.99994095
0.99992626
0.99991188
0.99989792
0.99988443
0.99987152
0.99985921
0.99984747
0.99983637
0.99982586
0.99981594
0.99980658
0.99979774
0.99978936
0.99978151
1.0001322
1.0001323
1.0001325
1.0001326
1.0001327
1.0001327
1.0001327
1.0001325
1.0001323
1.0001319
1.0001313
1.0001305
1.0001294
1.0001279
1.000126
1.0001236
1.0001207
1.0001171
1.0001127
1.0001076
1.0001015
1.0000946
1.0000867
1.0000779
1.0000683
1.0000581
1.000047
1.0000351
1.0000225
1.0000093
0.99999554
0.99998147
0.99996722
0.99995292
0.99993869
0.99992466
0.99991096
0.99989766
0.99988484
0.99987258
0.99986092
0.99984982
0.99983933
0.99982942
0.99982009
0.9998113
0.99980304
0.99979521
0.99978792
1.0001272
1.0001272
1.0001272
1.0001272
1.0001271
1.000127
1.0001268
1.0001265
1.0001261
1.0001256
1.0001249
1.0001239
1.0001226
1.000121
1.000119
1.0001165
1.0001134
1.0001098
1.0001054
1.0001003
1.0000943
1.0000874
1.0000797
1.0000711
1.0000617
1.0000517
1.000041
1.0000295
1.0000173
1.0000046
0.99999136
0.99997785
0.99996419
0.9999505
0.9999369
0.99992351
0.99991045
0.99989779
0.99988561
0.99987398
0.99986293
0.99985243
0.99984253
0.99983319
0.99982442
0.99981618
0.99980844
0.99980114
0.99979435
1.0001223
1.0001222
1.0001221
1.000122
1.0001218
1.0001215
1.0001212
1.0001208
1.0001202
1.0001196
1.0001187
1.0001176
1.0001162
1.0001145
1.0001123
1.0001098
1.0001066
1.0001029
1.0000985
1.0000934
1.0000875
1.0000807
1.0000732
1.0000647
1.0000556
1.0000459
1.0000355
1.0000244
1.0000126
1.0000004
0.99998767
0.99997471
0.99996161
0.99994851
0.99993552
0.99992274
0.99991029
0.99989825
0.99988668
0.99987565
0.99986518
0.99985526
0.99984591
0.99983712
0.99982888
0.99982115
0.99981391
0.9998071
0.99980079
1.0001176
1.0001174
1.0001171
1.0001169
1.0001166
1.0001162
1.0001158
1.0001152
1.0001146
1.0001138
1.0001128
1.0001116
1.0001101
1.0001083
1.0001061
1.0001034
1.0001002
1.0000965
1.0000921
1.000087
1.0000812
1.0000746
1.0000671
1.0000589
1.00005
1.0000406
1.0000305
1.0000198
1.0000084
0.99999663
0.99998444
0.999972
0.99995945
0.99994692
0.9999345
0.99992231
0.99991046
0.99989901
0.99988802
0.99987756
0.99986765
0.99985827
0.99984946
0.99984118
0.99983344
0.99982619
0.99981942
0.99981306
0.9998072
1.0001129
1.0001126
1.0001123
1.0001119
1.0001115
1.0001111
1.0001105
1.0001099
1.0001091
1.0001082
1.0001072
1.0001058
1.0001043
1.0001024
1.0001001
1.0000974
1.0000942
1.0000905
1.0000861
1.0000811
1.0000753
1.0000688
1.0000615
1.0000535
1.0000449
1.0000358
1.000026
1.0000156
1.0000047
0.99999332
0.99998161
0.99996968
0.99995767
0.99994568
0.99993382
0.99992219
0.9999109
0.99990002
0.99988958
0.99987967
0.99987029
0.99986143
0.99985311
0.99984532
0.99983805
0.99983126
0.99982494
0.99981901
0.99981356
1.0001082
1.0001079
1.0001075
1.0001071
1.0001066
1.0001061
1.0001055
1.0001047
1.0001039
1.0001029
1.0001018
1.0001004
1.0000987
1.0000968
1.0000944
1.0000917
1.0000885
1.0000848
1.0000804
1.0000755
1.0000698
1.0000634
1.0000563
1.0000486
1.0000402
1.0000313
1.0000219
1.0000119
1.0000013
0.99999041
0.99997916
0.99996772
0.99995622
0.99994475
0.99993343
0.99992234
0.99991159
0.99990124
0.99989134
0.99988194
0.99987306
0.99986469
0.99985685
0.99984952
0.99984269
0.99983633
0.99983042
0.99982489
0.99981983
1.0001037
1.0001033
1.0001028
1.0001023
1.0001018
1.0001012
1.0001005
1.0000997
1.0000988
1.0000978
1.0000966
1.0000951
1.0000934
1.0000914
1.0000891
1.0000863
1.0000831
1.0000794
1.0000751
1.0000702
1.0000647
1.0000585
1.0000516
1.000044
1.0000358
1.0000273
1.0000181
1.0000085
0.99999836
0.99998785
0.99997706
0.99996609
0.99995508
0.99994411
0.9999333
0.99992273
0.9999125
0.99990265
0.99989325
0.99988434
0.99987594
0.99986804
0.99986065
0.99985375
0.99984734
0.99984137
0.99983585
0.9998307
0.99982599
1.0000992
1.0000987
1.0000982
1.0000977
1.0000971
1.0000965
1.0000957
1.0000949
1.0000939
1.0000928
1.0000916
1.0000901
1.0000883
1.0000863
1.0000839
1.0000812
1.000078
1.0000743
1.0000701
1.0000653
1.0000599
1.0000538
1.0000471
1.0000397
1.0000319
1.0000236
1.0000148
1.0000055
0.99999572
0.99998562
0.99997526
0.99996476
0.99995421
0.99994373
0.99993341
0.99992333
0.99991358
0.99990422
0.99989529
0.99988685
0.9998789
0.99987143
0.99986446
0.99985797
0.99985195
0.99984636
0.9998412
0.99983639
0.99983202
1.0000947
1.0000942
1.0000937
1.0000932
1.0000925
1.0000918
1.0000911
1.0000902
1.0000892
1.0000881
1.0000868
1.0000852
1.0000835
1.0000814
1.0000791
1.0000763
1.0000732
1.0000696
1.0000654
1.0000607
1.0000554
1.0000495
1.000043
1.0000359
1.0000282
1.0000202
1.0000117
1.0000028
0.9999934
0.9999837
0.99997376
0.9999637
0.9999536
0.99994359
0.99993373
0.99992411
0.99991483
0.99990592
0.99989744
0.99988943
0.9998819
0.99987485
0.99986827
0.99986216
0.99985651
0.99985127
0.99984645
0.99984197
0.9998379
1.0000903
1.0000898
1.0000893
1.0000887
1.0000881
1.0000873
1.0000865
1.0000856
1.0000846
1.0000834
1.0000821
1.0000806
1.0000788
1.0000768
1.0000744
1.0000717
1.0000686
1.000065
1.000061
1.0000564
1.0000512
1.0000455
1.0000392
1.0000323
1.0000249
1.0000172
1.000009
1.0000004
0.99999136
0.99998205
0.99997253
0.99996288
0.99995323
0.99994365
0.99993423
0.99992506
0.99991621
0.99990773
0.99989967
0.99989207
0.99988494
0.99987826
0.99987206
0.99986631
0.99986099
0.99985608
0.99985157
0.99984739
0.99984361
1.000086
1.0000855
1.0000849
1.0000843
1.0000837
1.0000829
1.0000821
1.0000812
1.0000801
1.000079
1.0000776
1.0000761
1.0000743
1.0000723
1.00007
1.0000673
1.0000643
1.0000608
1.0000568
1.0000523
1.0000473
1.0000418
1.0000356
1.000029
1.0000219
1.0000144
1.0000065
0.99999824
0.99998959
0.99998066
0.99997154
0.9999623
0.99995306
0.9999439
0.9999349
0.99992614
0.9999177
0.99990963
0.99990197
0.99989475
0.99988798
0.99988167
0.99987581
0.99987038
0.99986538
0.99986078
0.99985656
0.99985265
0.99984913
1.0000817
1.0000812
1.0000806
1.00008
1.0000794
1.0000786
1.0000778
1.0000769
1.0000758
1.0000746
1.0000733
1.0000718
1.00007
1.000068
1.0000657
1.0000631
1.0000601
1.0000567
1.0000529
1.0000485
1.0000437
1.0000383
1.0000324
1.0000259
1.0000191
1.0000119
1.0000043
0.99999637
0.99998808
0.99997952
0.99997077
0.99996193
0.99995309
0.99994432
0.99993572
0.99992736
0.9999193
0.99991161
0.99990431
0.99989744
0.99989102
0.99988503
0.99987949
0.99987437
0.99986966
0.99986533
0.99986137
0.99985772
0.99985444
1.0000775
1.000077
1.0000765
1.0000759
1.0000752
1.0000744
1.0000736
1.0000727
1.0000716
1.0000705
1.0000691
1.0000676
1.0000659
1.0000639
1.0000617
1.0000591
1.0000562
1.0000529
1.0000492
1.000045
1.0000403
1.0000351
1.0000294
1.0000232
1.0000166
1.0000096
1.0000024
0.99999475
0.9999868
0.9999786
0.99997022
0.99996176
0.99995329
0.99994491
0.99993668
0.99992869
0.99992099
0.99991365
0.99990669
0.99990015
0.99989404
0.99988835
0.9998831
0.99987825
0.99987381
0.99986973
0.99986602
0.9998626
0.99985954
1.0000734
1.0000729
1.0000724
1.0000718
1.0000711
1.0000703
1.0000695
1.0000686
1.0000676
1.0000664
1.0000651
1.0000636
1.0000619
1.00006
1.0000578
1.0000553
1.0000525
1.0000493
1.0000457
1.0000416
1.0000371
1.0000321
1.0000266
1.0000206
1.0000143
1.0000076
1.0000007
0.99999335
0.99998573
0.99997788
0.99996987
0.99996177
0.99995367
0.99994564
0.99993777
0.99993012
0.99992276
0.99991574
0.99990909
0.99990285
0.99989702
0.99989161
0.99988661
0.99988201
0.9998778
0.99987395
0.99987045
0.99986723
0.99986437
1.0000694
1.0000689
1.0000683
1.0000678
1.0000671
1.0000664
1.0000655
1.0000646
1.0000636
1.0000625
1.0000612
1.0000597
1.0000581
1.0000562
1.0000541
1.0000516
1.0000489
1.0000458
1.0000423
1.0000384
1.0000341
1.0000293
1.000024
1.0000183
1.0000122
1.0000058
0.99999916
0.99999216
0.99998488
0.99997737
0.99996971
0.99996196
0.9999542
0.99994652
0.99993898
0.99993166
0.99992461
0.99991789
0.99991152
0.99990554
0.99989997
0.99989479
0.99989002
0.99988564
0.99988164
0.99987799
0.99987469
0.99987166
0.99986897
1.0000655
1.000065
1.0000644
1.0000638
1.0000632
1.0000625
1.0000617
1.0000608
1.0000598
1.0000587
1.0000574
1.000056
1.0000544
1.0000525
1.0000505
1.0000481
1.0000455
1.0000426
1.0000392
1.0000355
1.0000313
1.0000267
1.0000216
1.0000161
1.0000103
1.0000042
0.99999786
0.99999117
0.99998422
0.99997704
0.99996972
0.99996231
0.99995489
0.99994754
0.99994032
0.9999333
0.99992654
0.99992008
0.99991396
0.99990821
0.99990285
0.99989787
0.9998933
0.9998891
0.99988527
0.99988179
0.99987864
0.99987576
0.99987321
1.0000616
1.0000611
1.0000606
1.00006
1.0000594
1.0000587
1.0000579
1.0000571
1.0000561
1.000055
1.0000538
1.0000524
1.0000508
1.000049
1.0000471
1.0000448
1.0000423
1.0000394
1.0000363
1.0000327
1.0000287
1.0000243
1.0000194
1.0000142
1.0000086
1.0000028
0.99999675
0.99999037
0.99998374
0.9999769
0.9999699
0.99996282
0.99995573
0.99994869
0.99994178
0.99993504
0.99992854
0.99992231
0.9999164
0.99991084
0.99990566
0.99990085
0.99989643
0.99989239
0.99988872
0.99988539
0.99988239
0.99987967
0.99987726
1.0000578
1.0000573
1.0000568
1.0000563
1.0000557
1.000055
1.0000543
1.0000534
1.0000525
1.0000514
1.0000503
1.0000489
1.0000474
1.0000457
1.0000438
1.0000416
1.0000392
1.0000365
1.0000334
1.00003
1.0000262
1.000022
1.0000174
1.0000124
1.0000071
1.0000016
0.99999582
0.99998975
0.99998343
0.99997692
0.99997025
0.99996349
0.99995672
0.99994999
0.99994337
0.99993689
0.99993061
0.99992458
0.99991884
0.99991344
0.99990839
0.99990371
0.99989941
0.99989548
0.99989191
0.99988867
0.99988576
0.99988312
0.99988079
1.000054
1.0000536
1.0000531
1.0000526
1.000052
1.0000514
1.0000507
1.0000499
1.000049
1.000048
1.0000468
1.0000456
1.0000441
1.0000425
1.0000406
1.0000386
1.0000362
1.0000337
1.0000308
1.0000276
1.000024
1.00002
1.0000156
1.0000108
1.0000058
1.0000006
0.99999506
0.99998929
0.9999833
0.99997711
0.99997076
0.99996432
0.99995787
0.99995144
0.99994508
0.99993883
0.99993275
0.99992689
0.99992129
0.99991601
0.99991107
0.99990648
0.99990227
0.99989842
0.99989494
0.99989181
0.99988901
0.9998865
0.99988429
1.0000503
1.0000499
1.0000495
1.000049
1.0000484
1.0000478
1.0000471
1.0000464
1.0000455
1.0000446
1.0000435
1.0000423
1.0000409
1.0000394
1.0000376
1.0000357
1.0000334
1.000031
1.0000283
1.0000252
1.0000218
1.000018
1.0000139
1.0000094
1.0000047
0.99999967
0.99999446
0.999989
0.99998332
0.99997745
0.99997142
0.99996531
0.99995917
0.99995304
0.99994693
0.99994089
0.99993498
0.99992926
0.99992378
0.99991858
0.99991371
0.99990917
0.99990498
0.99990116
0.99989768
0.99989454
0.99989173
0.99988918
0.99988696
1.0000467
1.0000463
1.0000459
1.0000454
1.0000448
1.0000443
1.0000436
1.0000429
1.0000421
1.0000412
1.0000402
1.0000391
1.0000378
1.0000364
1.0000347
1.0000329
1.0000308
1.0000285
1.0000259
1.000023
1.0000198
1.0000163
1.0000124
1.0000081
1.0000036
0.99999893
0.99999401
0.99998885
0.99998349
0.99997794
0.99997224
0.99996646
0.99996064
0.99995478
0.9999489
0.99994306
0.99993732
0.99993174
0.99992636
0.99992123
0.99991638
0.99991185
0.99990767
0.99990384
0.99990038
0.99989728
0.99989453
0.99989212
0.99989
1.0000431
1.0000427
1.0000423
1.0000418
1.0000413
1.0000408
1.0000402
1.0000395
1.0000388
1.0000379
1.000037
1.000036
1.0000348
1.0000335
1.000032
1.0000302
1.0000283
1.0000261
1.0000236
1.000021
1.000018
1.0000146
1.000011
1.000007
1.0000028
0.99999833
0.9999937
0.99998885
0.99998381
0.99997858
0.99997321
0.99996778
0.99996227
0.99995667
0.99995103
0.99994539
0.99993983
0.99993439
0.99992911
0.99992402
0.99991916
0.99991456
0.99991026
0.99990629
0.99990266
0.99989936
0.99989639
0.99989372
0.9998914
1.0000396
1.0000392
1.0000388
1.0000383
1.0000378
1.0000373
1.0000367
1.0000361
1.0000354
1.0000347
1.0000339
1.0000329
1.0000319
1.0000307
1.0000293
1.0000277
1.0000259
1.0000238
1.0000215
1.000019
1.0000162
1.0000131
1.0000097
1.0000059
1.000002
0.99999784
0.99999351
0.99998897
0.99998426
0.99997936
0.99997434
0.99996926
0.99996405
0.99995872
0.99995333
0.99994794
0.9999426
0.99993732
0.99993212
0.99992704
0.99992212
0.99991741
0.99991297
0.99990885
0.99990509
0.99990174
0.9998988
0.99989627
0.99989407
1.0000362
1.0000358
1.0000353
1.0000349
1.0000344
1.0000338
1.0000333
1.0000327
1.0000321
1.0000314
1.0000307
1.0000299
1.000029
1.0000279
1.0000267
1.0000252
1.0000235
1.0000216
1.0000195
1.0000171
1.0000146
1.0000117
1.0000085
1.0000051
1.0000014
0.99999749
0.99999344
0.99998921
0.99998483
0.99998026
0.9999756
0.99997088
0.99996598
0.99996094
0.99995587
0.99995079
0.99994571
0.99994061
0.9999355
0.99993039
0.99992533
0.99992038
0.99991559
0.99991103
0.99990675
0.99990279
0.99989918
0.99989589
0.99989307
1.0000331
1.0000326
1.0000322
1.0000316
1.0000311
1.0000305
1.00003
1.0000294
1.0000288
1.0000282
1.0000276
1.0000269
1.0000261
1.0000252
1.0000241
1.0000229
1.0000214
1.0000197
1.0000177
1.0000155
1.0000132
1.0000105
1.0000076
1.0000043
1.0000009
0.99999729
0.99999353
0.9999896
0.99998553
0.99998129
0.999977
0.99997263
0.99996801
0.99996333
0.99995866
0.99995397
0.99994921
0.99994433
0.99993933
0.99993421
0.999929
0.99992378
0.99991864
0.99991368
0.99990902
0.99990481
0.9999011
0.99989804
0.99989541
1.0000301
1.0000296
1.0000291
1.0000285
1.0000279
1.0000274
1.0000268
1.0000262
1.0000257
1.0000251
1.0000246
1.000024
1.0000234
1.0000227
1.0000218
1.0000207
1.0000194
1.0000178
1.000016
1.0000139
1.0000117
1.0000094
1.0000066
1.0000036
1.0000005
0.99999714
0.99999369
0.9999901
0.99998637
0.99998248
0.9999786
0.99997456
0.99997025
0.99996604
0.99996181
0.99995755
0.9999531
0.99994848
0.9999436
0.99993848
0.99993311
0.99992751
0.99992171
0.99991579
0.99990983
0.99990404
0.99989847
0.99989336
0.99988884
1.0000272
1.0000266
1.0000261
1.0000256
1.000025
1.0000245
1.0000239
1.0000234
1.0000228
1.0000222
1.0000216
1.000021
1.0000205
1.0000198
1.000019
1.0000181
1.0000169
1.0000155
1.0000138
1.0000119
1.0000099
1.0000078
1.0000053
1.0000026
0.99999979
0.99999681
0.99999372
0.9999905
0.99998716
0.99998368
0.99998028
0.99997659
0.99997275
0.99996919
0.99996547
0.9999617
0.99995764
0.99995335
0.99994865
0.99994362
0.99993809
0.99993212
0.99992572
0.99991911
0.99991262
0.99990658
0.99990101
0.99989673
0.99989236
1.0000234
1.0000227
1.0000219
1.0000213
1.0000208
1.0000203
1.00002
1.0000197
1.0000193
1.0000189
1.0000185
1.0000181
1.0000176
1.0000171
1.0000165
1.0000157
1.0000149
1.0000138
1.0000125
1.0000107
1.000009
1.0000071
1.0000049
1.0000024
0.99999976
0.99999694
0.99999402
0.99999101
0.99998791
0.99998473
0.9999817
0.99997816
0.99997503
0.99997208
0.99996897
0.99996577
0.99996231
0.99995859
0.99995445
0.99994985
0.99994451
0.99993828
0.9999313
0.99992317
0.99991445
0.99990395
0.99989246
0.99988047
0.99986753
1.0000175
1.0000165
1.0000161
1.0000159
1.0000159
1.000016
1.0000162
1.0000166
1.000017
1.0000173
1.0000177
1.0000178
1.0000177
1.0000174
1.000017
1.0000164
1.0000157
1.000015
1.000014
1.0000122
1.0000105
1.0000086
1.0000064
1.000004
1.0000013
0.99999854
0.99999566
0.99999272
0.99998973
0.99998676
0.99998387
0.99998012
0.99997811
0.99997491
0.9999725
0.99996929
0.99996656
0.99996312
0.99995997
0.99995576
0.99995182
0.999946
0.99994144
0.99993435
0.99992577
0.99991483
0.99990149
0.99988896
0.99986767
1.0000164