/*--------------------------------*- C++ -*----------------------------------*\
| =========                 |                                                 |
| \\      /  F ield         | OpenFOAM: The Open Source CFD Toolbox           |
|  \\    /   O peration     | Version:  v2006                                 |
|   \\  /    A nd           | Website:  www.openfoam.com                      |
|    \\/     M anipulation  |                                                 |
\*---------------------------------------------------------------------------*/
FoamFile
{
    version     2.0;
    format      ascii;
    class       volVectorField;
    location    "500";
    object      U;
}
// * * * * * * * * * * * * * * * * * * * * * * * * * * * * * * * * * * * * * //

dimensions      [0 1 -1 0 0 0 0];


internalField   nonuniform List<vector> 
19765
(
(0.095257802 0.033299785 -8.4700586e-20)
(0.093045519 0.037017703 8.4483768e-20)
(0.086314088 0.039561731 -8.5938163e-20)
(0.078515131 0.040459573 0)
(0.07184952 0.04038788 0)
(0.065801574 0.039490156 2.0517014e-19)
(0.059410312 0.037740035 -1.618414e-19)
(0.053798094 0.035539092 0)
(0.048077912 0.032753116 3.9779531e-19)
(0.041659383 0.029150501 3.3353577e-20)
(0.036380067 0.025366728 -6.5728231e-19)
(0.032279489 0.021333849 6.3869237e-19)
(0.028641844 0.016718926 -6.9861632e-19)
(0.025558152 0.011910084 -7.776559e-19)
(0.023189542 0.0073277241 8.7080894e-19)
(0.021107975 0.0024259949 0)
(0.01912154 -0.0025418044 -1.8255423e-20)
(0.017542126 -0.0073911348 2.2719293e-20)
(0.016507543 -0.012299653 -1.4600347e-18)
(0.016074665 -0.017334649 1.15841e-18)
(0.016138559 -0.022656576 -4.714649e-19)
(0.016469532 -0.027845167 7.8393962e-19)
(0.01709688 -0.03289733 -3.4395087e-19)
(0.018148034 -0.038124192 1.4152991e-20)
(0.019579794 -0.043357991 -6.7752066e-20)
(0.021166983 -0.04799244 5.2473018e-20)
(0.022953755 -0.052226171 -2.2841791e-19)
(0.025176368 -0.05674872 2.1451062e-19)
(0.027675967 -0.061149258 0)
(0.030322916 -0.065101834 3.8754847e-19)
(0.033354027 -0.069105769 -3.6649489e-19)
(0.036942151 -0.073215862 6.9801536e-19)
(0.04161832 -0.077504001 -6.6920852e-19)
(0.046781164 -0.081354206 3.2077699e-19)
(0.051198416 -0.083931156 -3.1440424e-19)
(0.055421712 -0.086024978 -2.9682277e-19)
(0.061013163 -0.088497318 1.8643546e-22)
(0.06705696 -0.090567876 5.7216158e-19)
(0.07266175 -0.09177601 -3.0067367e-19)
(0.079804436 -0.093026066 -2.7194898e-19)
(0.088136788 -0.093821753 2.6517661e-19)
(0.093953809 -0.092859451 -1.6471459e-20)
(0.099144539 -0.091089441 -3.2362855e-20)
(0.10427468 -0.088689932 1.3002505e-19)
(0.10744578 -0.08534842 -2.9234778e-19)
(0.11007102 -0.081350191 1.3069654e-19)
(0.11044563 -0.076794221 0)
(0.10979233 -0.072186726 -1.3629399e-19)
(0.10897658 -0.068054564 0)
(0.086155645 0.019562299 1.3866361e-19)
(0.0831319 0.022841445 1.3317685e-19)
(0.079541214 0.025853427 -6.3230049e-20)
(0.075629701 0.027330614 6.2776943e-20)
(0.071609492 0.027867253 -3.1023562e-19)
(0.067715395 0.027655654 2.4618047e-19)
(0.063901721 0.026905697 -3.0112912e-20)
(0.060346146 0.02570274 2.3938875e-19)
(0.056948032 0.024095108 2.9232201e-20)
(0.053545152 0.022206145 -2.7431782e-19)
(0.050329482 0.019873874 1.4647442e-20)
(0.047486564 0.017056744 4.4552799e-19)
(0.044922912 0.013877247 -7.2123618e-19)
(0.042677865 0.010468181 2.1542126e-19)
(0.040897836 0.0068328632 -2.5250023e-19)
(0.03939201 0.0030058104 2.9030281e-19)
(0.037975037 -0.00095888654 -1.6733033e-20)
(0.036812407 -0.0050790967 0)
(0.036050004 -0.0093795588 1.8767392e-20)
(0.035716089 -0.013786861 -3.1573739e-19)
(0.035790392 -0.018212543 2.9086444e-19)
(0.036145181 -0.022657907 2.2613174e-20)
(0.036829692 -0.027075887 8.4639985e-21)
(0.037904499 -0.031407395 -1.1901248e-20)
(0.039219544 -0.035660922 -2.9960036e-20)
(0.040633974 -0.039903967 2.498713e-20)
(0.042272612 -0.044072308 1.0210148e-19)
(0.044239954 -0.048092676 -3.2550197e-19)
(0.046453442 -0.052008347 4.0149395e-19)
(0.048903022 -0.055782036 -1.9348074e-19)
(0.051657316 -0.059332248 1.1647556e-20)
(0.054775714 -0.062573005 0)
(0.058241814 -0.065386763 1.8509075e-19)
(0.061858963 -0.06785188 -6.9361421e-23)
(0.065517132 -0.070085865 -1.7107025e-19)
(0.069330734 -0.07204127 -1.8930968e-19)
(0.073374643 -0.073556941 6.9543138e-23)
(0.077535555 -0.074614813 -1.4551212e-19)
(0.081768754 -0.075193217 1.5526884e-19)
(0.086109499 -0.075131056 1.6451875e-19)
(0.090402836 -0.074309857 1.8897479e-19)
(0.094571962 -0.072807771 -3.4793645e-19)
(0.098672029 -0.070939137 1.9859272e-19)
(0.10266241 -0.068334525 -2.3050928e-20)
(0.10635526 -0.0657951 -9.4469967e-20)
(0.10968716 -0.063020821 1.9631875e-19)
(0.1126013 -0.060347997 -1.521894e-19)
(0.11512847 -0.05796668 -5.22671e-20)
(0.1172853 -0.055960278 1.0751337e-19)
(0.088834464 0.01980447 7.5775874e-20)
(0.086568134 0.020414058 9.6785981e-24)
(0.083918967 0.020739257 1.470431e-19)
(0.080991328 0.020961714 4.4247068e-24)
(0.078038445 0.02077974 -2.2967282e-19)
(0.075087468 0.020291931 3.151465e-19)
(0.072203678 0.01947377 -7.9901805e-20)
(0.069397686 0.01845674 0)
(0.06672975 0.017123248 0)
(0.064052758 0.015631892 4.3463766e-20)
(0.061520667 0.013838259 0)
(0.059214181 0.011673426 4.7928992e-20)
(0.057100075 0.0092014528 4.5426749e-19)
(0.055208965 0.0065101636 5.3915689e-19)
(0.053635014 0.0035996467 -9.2814041e-19)
(0.052284962 0.00049921909 -2.5580029e-23)
(0.051059181 -0.0027357657 3.4396973e-20)
(0.05006334 -0.0061246732 -6.1774276e-19)
(0.049391655 -0.0097041326 6.6535205e-19)
(0.049071138 -0.013412646 0)
(0.049085989 -0.017170946 5.8871886e-20)
(0.04934194 -0.020998129 -2.0571645e-23)
(0.049925069 -0.024825114 -2.1771132e-20)
(0.050846099 -0.028614558 -3.6810069e-20)
(0.051980161 -0.032342414 1.2735209e-19)
(0.053246538 -0.036062472 -1.4293559e-20)
(0.054795133 -0.039714231 -1.9257172e-19)
(0.056663616 -0.043235867 5.8493127e-19)
(0.058740748 -0.046665749 -3.4713038e-19)
(0.061057758 -0.049950271 4.0456725e-20)
(0.063635389 -0.053021601 2.8483776e-19)
(0.066452955 -0.055829518 -6.1083493e-19)
(0.069501672 -0.058286933 -2.9063536e-19)
(0.07262155 -0.060514064 5.3031991e-19)
(0.075798509 -0.062562639 5.1424555e-19)
(0.079105636 -0.064312651 -4.6469619e-19)
(0.082551786 -0.065661954 0)
(0.086014874 -0.066743534 2.0578634e-19)
(0.089517063 -0.06748079 -2.2919998e-19)
(0.093032035 -0.067774015 2.5123833e-19)
(0.096454979 -0.067795672 -2.5031912e-19)
(0.099717097 -0.067723415 0)
(0.10290833 -0.067298578 0)
(0.10584165 -0.066656017 2.7795062e-20)
(0.10858939 -0.065753319 0)
(0.11103121 -0.064846531 -5.5665007e-20)
(0.11322488 -0.063851059 2.209177e-19)
(0.11519709 -0.062780588 -1.0931572e-19)
(0.11703913 -0.061595094 0)
(0.086797376 0.014437757 -8.1603055e-20)
(0.08508771 0.014909911 -2.4196995e-19)
(0.083319174 0.015196083 7.8325954e-20)
(0.081458845 0.015346237 -3.9987238e-19)
(0.079547932 0.015190585 3.2547872e-19)
(0.07762093 0.014798805 3.3485506e-19)
(0.075711755 0.014145532 -2.5427346e-19)
(0.073835304 0.013338351 3.5157189e-19)
(0.072000545 0.012258809 5.2000583e-23)
(0.070162587 0.011075235 -8.2671185e-19)
(0.068383757 0.0096755528 4.7895493e-19)
(0.066717928 0.0079935905 0)
(0.065158287 0.0060669558 -5.2332817e-20)
(0.063748567 0.0039617565 -9.4137683e-19)
(0.062554282 0.0016364835 1.0621576e-18)
(0.061520208 -0.00089203271 9.4742464e-19)
(0.060594471 -0.0035463695 -2.1965379e-18)
(0.059851188 -0.0063413102 1.2204259e-18)
(0.059355327 -0.009314942 -6.942591e-19)
(0.059125618 -0.012402209 8.1618413e-19)
(0.05916733 -0.015559113 0)
(0.059426746 -0.01879498 -7.1049689e-19)
(0.05993996 -0.022007334 8.2467104e-19)
(0.060733675 -0.025220861 -4.3703136e-19)
(0.061735955 -0.028405064 7.160976e-20)
(0.062897185 -0.031591398 -1.0643701e-23)
(0.064304895 -0.034703877 -2.1893659e-19)
(0.065973288 -0.037686125 5.9435874e-19)
(0.06782698 -0.040571494 -3.6634741e-19)
(0.069879455 -0.043305284 -3.8435618e-19)
(0.072128773 -0.045829313 3.216122e-19)
(0.074546248 -0.048115491 7.2509625e-19)
(0.077104367 -0.050101308 -1.7195633e-22)
(0.079705018 -0.05188618 -6.4006227e-19)
(0.082354633 -0.05350656 4.8574591e-19)
(0.085083075 -0.054872707 -5.3870838e-19)
(0.087855983 -0.055909769 5.2389717e-19)
(0.090602599 -0.056726624 -1.0349241e-18)
(0.09334625 -0.057279516 5.3840689e-19)
(0.096038815 -0.05750406 2.1685089e-19)
(0.098624898 -0.057510782 -2.4737963e-19)
(0.10115329 -0.05742028 -6.2137406e-20)
(0.10368097 -0.057066204 2.4351828e-19)
(0.10609214 -0.056600922 -2.4691761e-19)
(0.10847955 -0.055927532 0)
(0.11076887 -0.055138844 1.2289601e-19)
(0.11304336 -0.054204277 -6.1033472e-20)
(0.11528751 -0.053191388 0)
(0.11749949 -0.052095555 0)
(0.087184269 0.012401696 -7.6852436e-20)
(0.085812919 0.012251903 -2.2731775e-19)
(0.084408184 0.012049668 2.9412702e-19)
(0.082962036 0.01185984 7.4739472e-20)
(0.081503609 0.011510443 2.2715572e-19)
(0.080042612 0.011041103 -2.3227407e-19)
(0.078595561 0.010410756 2.3415762e-19)
(0.077172067 0.0096869078 -4.0165837e-19)
(0.075776872 0.0087686082 -8.1235023e-20)
(0.074377775 0.0077677025 1.6583441e-19)
(0.073020751 0.006595996 -7.7127263e-19)
(0.071737681 0.0052017747 7.9816e-19)
(0.070525007 0.0036059301 9.1769568e-20)
(0.069417219 0.0018510785 7.679875e-19)
(0.06846364 -9.4893307e-05 -1.0095711e-19)
(0.067631836 -0.0022168691 -8.5241474e-19)
(0.066894166 -0.0044597033 0)
(0.066309898 -0.006840263 0)
(0.06593025 -0.0093867379 0)
(0.065773153 -0.012049463 -4.6660273e-19)
(0.06584343 -0.014802798 7.3060559e-19)
(0.066106433 -0.01764071 -8.9914413e-19)
(0.066584638 -0.020468662 6.1622524e-19)
(0.067317635 -0.023305 -7.20343e-20)
(0.068249356 -0.026122677 9.0245706e-24)
(0.069334355 -0.028931497 2.711368e-20)
(0.07062753 -0.031666955 4.854166e-20)
(0.072140245 -0.034288725 -8.8483185e-20)
(0.073816628 -0.036819907 2.4681212e-19)
(0.075657037 -0.03921031 -3.0893053e-19)
(0.077653271 -0.041416207 0)
(0.079777967 -0.043418934 -6.2844519e-19)
(0.082004667 -0.04517029 1.0747129e-18)
(0.084259386 -0.046752027 -4.5966622e-19)
(0.086538687 -0.048188601 -4.5028397e-19)
(0.088859351 -0.049411328 1.352726e-22)
(0.091196824 -0.050369725 9.8105019e-19)
(0.093498665 -0.051163276 -4.8607326e-19)
(0.095777938 -0.05175793 0)
(0.098009875 -0.052110099 0)
(0.10016071 -0.052324448 -1.7598986e-19)
(0.10225547 -0.052518678 2.3616601e-19)
(0.10433985 -0.052519098 5.8049444e-20)
(0.1063437 -0.05251385 3.5325222e-19)
(0.10833786 -0.05237643 -5.8259838e-20)
(0.1102778 -0.052219665 -2.9421247e-19)
(0.11220072 -0.052005159 5.8741716e-20)
(0.1140948 -0.051711935 0)
(0.11596507 -0.051240006 -3.1458964e-23)
(0.08738621 0.0098173479 8.9689898e-25)
(0.086345114 0.0096596673 -2.4866939e-24)
(0.085295328 0.0094365036 0)
(0.084216403 0.0091928846 -3.4807822e-19)
(0.083133112 0.0088224172 7.0205266e-20)
(0.082044916 0.0083545849 2.1436971e-19)
(0.080959364 0.0077625527 7.1756866e-20)
(0.079885236 0.0070923967 1.4684921e-19)
(0.07882238 0.0062720397 7.3937186e-20)
(0.077749497 0.0053774295 -1.5006392e-19)
(0.076704392 0.0043442985 0)
(0.075711647 0.0031335194 -2.3724513e-19)
(0.074769322 0.0017567519 -8.121836e-20)
(0.073906026 0.00024130903 1.6827974e-19)
(0.073161393 -0.0014368904 0)
(0.072513971 -0.0032680868 -1.8289755e-19)
(0.071946758 -0.0052140608 9.6433456e-19)
(0.07150835 -0.0072857721 -8.2578171e-19)
(0.071241702 -0.0095002466 0)
(0.071164246 -0.011817771 8.6944249e-19)
(0.071283409 -0.014214997 -1.1297541e-18)
(0.071579697 -0.016682472 7.9696599e-19)
(0.072065716 -0.019149993 -5.2419889e-19)
(0.072771173 -0.021632182 1.2436823e-19)
(0.073656969 -0.024103669 -1.0740359e-19)
(0.074687697 -0.026563098 -1.4299921e-19)
(0.07590046 -0.02895775 1.2904607e-19)
(0.077302097 -0.031252301 3.9477413e-19)
(0.078849082 -0.033459393 -6.6445865e-19)
(0.080535183 -0.03553902 1.1986498e-22)
(0.082348433 -0.037456532 5.3092698e-19)
(0.084263828 -0.039196635 5.0960715e-19)
(0.086256114 -0.040723111 -4.9268476e-19)
(0.088269143 -0.042095146 -1.2077553e-19)
(0.090296501 -0.043332441 0)
(0.092344784 -0.044388895 4.6494926e-19)
(0.094392766 -0.045230329 -1.0448803e-22)
(0.096402635 -0.045926755 -4.5318322e-19)
(0.098382749 -0.04645805 0)
(0.10031587 -0.046796937 0)
(0.10218183 -0.047013722 -1.1020969e-19)
(0.10399799 -0.04718405 5.5469322e-20)
(0.10580894 -0.047199068 -5.4664899e-20)
(0.10756164 -0.047174179 -5.5428141e-19)
(0.10932216 -0.047029597 4.9393384e-19)
(0.11105913 -0.046825597 0)
(0.11281513 -0.046534224 -5.5342121e-20)
(0.11459025 -0.046153849 0)
(0.11639235 -0.045657966 2.1793369e-19)
(0.088091062 0.008223703 6.7278793e-20)
(0.08722987 0.0079169306 -1.3241308e-19)
(0.086365033 0.0075846166 -2.569945e-19)
(0.085491545 0.0072580457 5.188745e-19)
(0.084624374 0.0068465522 -3.9157458e-19)
(0.083761098 0.0063689774 0)
(0.082902209 0.0058007274 5.3017999e-19)
(0.082054939 0.0051721629 -6.7477366e-20)
(0.081215993 0.0044264331 3.8189596e-23)
(0.080369082 0.003616081 -8.8982594e-19)
(0.079544532 0.0026909224 -3.6189134e-23)
(0.078761069 0.0016199279 5.7033045e-19)
(0.078017525 0.00040944828 5.8191735e-19)
(0.077337339 -0.00092222326 -1.3465685e-18)
(0.076752791 -0.0023940037 6.180345e-19)
(0.076249879 -0.0039999007 7.9939675e-19)
(0.075818725 -0.005712493 -1.5017511e-18)
(0.07549926 -0.0075394812 -2.564491e-24)
(0.075326927 -0.0094922937 5.6691e-19)
(0.075317552 -0.011539671 -8.2280939e-19)
(0.07547809 -0.013662682 6.8637656e-19)
(0.075795729 -0.015851936 5.2425888e-19)
(0.076279512 -0.01804876 2.5651939e-19)
(0.076954182 -0.020257777 -2.1581007e-19)
(0.077792316 -0.022459647 1.4692155e-21)
(0.078765317 -0.024650331 -8.4105776e-20)
(0.079899674 -0.026784435 0)
(0.081198374 -0.028831443 1.4122328e-19)
(0.082625864 -0.030799949 -1.3278779e-19)
(0.084173675 -0.032656171 1.2598804e-19)
(0.085828767 -0.03437161 0)
(0.087568711 -0.035934516 0)
(0.08936997 -0.037315743 4.5182055e-19)
(0.091187396 -0.038564434 -4.4461653e-19)
(0.093013117 -0.0396968 -4.3840825e-19)
(0.094849724 -0.040676092 8.6173106e-19)
(0.096679435 -0.041475534 -8.9780696e-23)
(0.098474343 -0.042156328 -1.0565301e-19)
(0.10023944 -0.042702277 -4.1769392e-19)
(0.10196286 -0.043090079 -4.1255991e-19)
(0.10363065 -0.043381258 4.6520058e-19)
(0.10525841 -0.043647457 0)
(0.10687633 -0.043786656 -2.0552061e-19)
(0.10845393 -0.04391338 2.0829454e-19)
(0.11003608 -0.043947855 -2.0638574e-19)
(0.11160625 -0.043955304 1.0421213e-19)
(0.11319379 -0.043907473 0)
(0.11480039 -0.043801255 2.0738465e-19)
(0.11643734 -0.043587699 -2.0497998e-19)
(0.088698643 0.006654346 -1.8889762e-19)
(0.088014413 0.0063522567 1.2388086e-19)
(0.087327595 0.0060212772 2.4051604e-19)
(0.0866328 0.0056856799 -1.2109303e-19)
(0.085945125 0.0052800639 -3.647577e-19)
(0.085260587 0.0048186243 7.375279e-19)
(0.08457854 0.0042829284 -8.5957437e-19)
(0.083905336 0.0036944096 4.984204e-19)
(0.083237547 0.0030097829 -1.2467062e-19)
(0.08256246 0.0022660275 -1.2551136e-19)
(0.081906119 0.0014246134 -5.0968092e-19)
(0.0812836 0.00046106778 -1.2561146e-24)
(0.080694294 -0.0006214922 -2.297832e-23)
(0.080157831 -0.0018106052 8.0527725e-19)
(0.079701142 -0.0031207553 0)
(0.0793148 -0.0045484683 -2.8281714e-19)
(0.07899335 -0.0060740295 0)
(0.078770528 -0.0077023746 3.0659037e-19)
(0.078676125 -0.0094407349 -1.623175e-19)
(0.078724413 -0.01126407 0)
(0.078922825 -0.013155388 -4.5698387e-23)
(0.079263766 -0.01510534 -2.1423056e-19)
(0.079754891 -0.017067664 0)
(0.080414567 -0.019040003 -1.886353e-19)
(0.0812223 -0.021006892 8.1589815e-20)
(0.08215519 -0.022963409 3.7311717e-20)
(0.083232536 -0.024869462 0)
(0.084454971 -0.026697706 -1.268492e-19)
(0.085792958 -0.028452972 -1.1980066e-19)
(0.087236742 -0.030107166 -1.1425739e-19)
(0.088772747 -0.031636324 0)
(0.090380482 -0.033030455 -2.1289887e-19)
(0.092038242 -0.034265993 0)
(0.093709127 -0.035381545 -1.0240059e-19)
(0.095385033 -0.036390536 8.0394197e-23)
(0.097065334 -0.037265332 7.8415183e-23)
(0.09873416 -0.037985618 3.9485895e-19)
(0.10036958 -0.038599231 4.9221304e-19)
(0.10197488 -0.039094791 -7.1202034e-23)
(0.10354023 -0.03945496 -6.7673376e-23)
(0.10505563 -0.039726489 -7.7594269e-19)
(0.10653357 -0.039963657 6.6001745e-23)
(0.10800069 -0.040090606 3.8663043e-19)
(0.1094322 -0.040191026 1.9578576e-19)
(0.11086822 -0.040205797 -1.942798e-19)
(0.1122956 -0.040179853 9.802334e-20)
(0.11374253 -0.040090602 9.78899e-20)
(0.11521246 -0.03993316 -1.9517397e-19)
(0.11671885 -0.039672202 2.8951995e-19)
(0.089422551 0.005511927 1.1781845e-19)
(0.088853351 0.0051803644 -4.0566011e-19)
(0.088282487 0.0048312576 0)
(0.08770916 0.0044824114 -4.5276447e-19)
(0.087145119 0.004079149 9.0742825e-19)
(0.086586546 0.0036311714 -4.5752003e-19)
(0.086031281 0.0031225983 -1.1405495e-19)
(0.085485024 0.0025684548 1.1534415e-19)
(0.084944009 0.0019340423 2.3026081e-19)
(0.084398121 0.0012460046 0)
(0.083869617 0.00047360487 0)
(0.083370862 -0.00040302007 -1.1805069e-19)
(0.08290157 -0.0013826796 0)
(0.082478386 -0.0024566998 -2.4252853e-19)
(0.082124059 -0.0036365409 0)
(0.081832179 -0.0049203664 -7.5747023e-19)
(0.081600117 -0.0062935816 5.1917834e-19)
(0.08145667 -0.0077592316 -5.3942361e-19)
(0.081427092 -0.0093218426 8.4933442e-19)
(0.081524142 -0.01096099 6.0202242e-19)
(0.081755197 -0.012661601 -4.8810903e-19)
(0.082115123 -0.014415317 1.7974656e-19)
(0.082610583 -0.016184487 -1.841635e-19)
(0.083255921 -0.017961151 1.6540661e-23)
(0.084034924 -0.019732868 7.3469908e-20)
(0.084929883 -0.021495366 -6.6533249e-20)
(0.085955132 -0.023213103 0)
(0.087109559 -0.024861758 1.1429863e-19)
(0.088368084 -0.026444177 1.0845211e-19)
(0.089720679 -0.027936563 0)
(0.091153975 -0.029318474 -2.0055626e-19)
(0.092649449 -0.030581661 3.9026314e-19)
(0.094187206 -0.031706643 0)
(0.095736398 -0.032725658 -9.4495017e-19)
(0.097288991 -0.033650121 7.4994219e-19)
(0.098842699 -0.034457514 0)
(0.10038322 -0.035131169 3.6745331e-19)
(0.10189322 -0.035712214 -3.6728417e-19)
(0.10337449 -0.036191317 0)
(0.10481876 -0.03655355 2.7172597e-19)
(0.10621825 -0.036839219 -3.6387255e-19)
(0.10758488 -0.037097376 0)
(0.10893751 -0.037259553 9.0821497e-20)
(0.11026055 -0.037403601 -3.6780876e-19)
(0.11158396 -0.037474595 3.6533016e-19)
(0.11290053 -0.037516789 3.6850052e-19)
(0.11423251 -0.037509415 -4.6003403e-19)
(0.1155846 -0.037450079 4.5870823e-19)
(0.11696825 -0.037298905 -4.5382363e-19)
(0.090091828 0.0044757604 -5.5184309e-20)
(0.089626189 0.0041577231 1.0859424e-19)
(0.089158347 0.0038219357 2.1109794e-19)
(0.088687679 0.0034820483 5.2968152e-19)
(0.088225703 0.0030957139 -5.2989328e-19)
(0.087768664 0.0026698764 -4.2653381e-19)
(0.08731464 0.0021917668 9.5523049e-19)
(0.086868771 0.0016720714 -5.3517503e-19)
(0.086427922 0.0010833361 -5.3298962e-19)
(0.085983897 0.00044474513 8.5314907e-19)
(0.085556296 -0.00026811613 -4.2968376e-19)
(0.085155589 -0.0010713671 2.163919e-19)
(0.084781841 -0.0019649858 2.1769086e-19)
(0.084449395 -0.0029428554 8.8106376e-19)
(0.084177811 -0.0040139364 -8.938815e-19)
(0.083962766 -0.0051774345 0)
(0.083803501 -0.0064224827 0)
(0.083724938 -0.007750719 4.189315e-23)
(0.083748743 -0.0091646853 0)
(0.083886368 -0.010647431 5.2616073e-19)
(0.084145005 -0.012185421 -5.6319013e-19)
(0.08452131 -0.013770915 6.1455552e-19)
(0.085021513 -0.015372866 -3.1902419e-19)
(0.085656827 -0.01698038 5.1512954e-19)
(0.086413706 -0.018582947 -6.5512836e-20)
(0.087278365 -0.02017671 -1.192261e-19)
(0.088261487 -0.021729954 -1.102042e-19)
(0.089360844 -0.023220689 -3.1017934e-19)
(0.090554889 -0.024650063 -5.9076456e-19)
(0.091833608 -0.025997749 1.8936624e-19)
(0.093183988 -0.027245945 1.8352326e-19)
(0.094589081 -0.028387438 -1.7919099e-19)
(0.096030567 -0.029405824 -7.0385834e-19)
(0.097482187 -0.030327463 1.3968776e-18)
(0.098936103 -0.031161986 -6.9462566e-19)
(0.10038862 -0.03189128 0)
(0.10182644 -0.032501752 -5.1346443e-19)
(0.10323515 -0.033027316 5.142256e-19)
(0.10461554 -0.033460893 1.7071782e-19)
(0.10595992 -0.033790481 -2.5480069e-19)
(0.10726199 -0.034048768 -1.7072804e-19)
(0.1085322 -0.034275966 0)
(0.10978622 -0.03441687 -8.541539e-20)
(0.11101114 -0.03453392 -2.5939021e-19)
(0.11223331 -0.034582963 6.0176323e-19)
(0.11344674 -0.034598599 -2.6014472e-19)
(0.11467183 -0.03456349 -1.7326338e-19)
(0.11591304 -0.034474814 -2.5916457e-19)
(0.11718169 -0.034299167 -1.7103829e-19)
(0.090769697 0.0036616251 5.172831e-19)
(0.090380188 0.0033474697 2.0360427e-19)
(0.089988442 0.0030190663 -4.9509404e-19)
(0.089595351 0.0026867795 3.9693571e-19)
(0.089210905 0.002315386 -7.93075e-19)
(0.088831839 0.001909566 2.9863177e-19)
(0.088456178 0.0014583856 2.9680631e-19)
(0.088088663 0.0009693884 -3.9804085e-19)
(0.08772655 0.00042019253 0)
(0.087363243 -0.00017522249 -7.8962239e-19)
(0.087015999 -0.00083668894 7.9276765e-19)
(0.086693844 -0.0015775283 -7.9566655e-19)
(0.086397119 -0.0023984287 5.982553e-19)
(0.086138335 -0.0032950251 -4.0190984e-19)
(0.085934475 -0.0042744188 1.2177918e-18)
(0.085782703 -0.00533646 8.2101357e-19)
(0.085683508 -0.0064728846 -1.2525439e-18)
(0.085658635 -0.0076843013 2.142709e-19)
(0.085726836 -0.0089718479 1.3310105e-18)
(0.085898385 -0.01032122 -9.2908904e-19)
(0.086180117 -0.011720234 -4.9316701e-19)
(0.086569891 -0.013161745 5.3295069e-19)
(0.087073298 -0.014619709 -9.7764721e-19)
(0.087699143 -0.016081641 2.6244001e-19)
(0.088436006 -0.017538402 -5.8713557e-20)
(0.089273137 -0.018986598 1.0733806e-19)
(0.090218493 -0.020397853 9.963813e-20)
(0.091269081 -0.021752324 5.6301027e-19)
(0.09240617 -0.023050118 -1.7935473e-19)
(0.093620024 -0.024273742 5.1900535e-19)
(0.094898152 -0.025407605 0)
(0.096225044 -0.026445499 0)
(0.097583814 -0.02737353 0)
(0.098951818 -0.028213914 3.2299926e-19)
(0.10032153 -0.02897501 -3.219766e-19)
(0.10168844 -0.029641828 3.2033187e-19)
(0.10304006 -0.030202988 -3.1909009e-19)
(0.10436442 -0.030687732 1.6003379e-19)
(0.10566149 -0.031090388 -6.3899029e-19)
(0.10692406 -0.03140074 4.777918e-19)
(0.10814679 -0.031646945 -1.6020381e-19)
(0.10933975 -0.031864707 3.2327876e-19)
(0.11051407 -0.032005319 0)
(0.11166104 -0.03212486 -8.1301572e-20)
(0.11280153 -0.032183829 1.6180954e-19)
(0.11393207 -0.032214286 -1.6312894e-19)
(0.11506962 -0.032200754 3.2608396e-19)
(0.11621897 -0.032142012 1.6263057e-19)
(0.1173896 -0.032004588 -2.2337635e-23)
(0.091403119 0.0029474564 -2.911947e-19)
(0.091079459 0.0026500588 0)
(0.090753337 0.0023386336 -6.1467694e-24)
(0.09042561 0.0020210721 0)
(0.090105803 0.0016690672 -3.7133477e-19)
(0.089790991 0.0012857026 9.3041586e-20)
(0.089479635 0.00086183998 5.5411768e-19)
(0.089176087 0.00040273566 1.853616e-19)
(0.088878237 -0.00010980134 -5.5165806e-19)
(0.088580739 -0.00066568012 -7.3233571e-19)
(0.088299012 -0.001281029 7.3309568e-19)
(0.088040994 -0.0019668963 0)
(0.087807304 -0.0027243856 3.6650135e-19)
(0.087608997 -0.0035503569 -3.6797826e-19)
(0.087460996 -0.0044504039 7.4040996e-19)
(0.087361571 -0.0054247596 -7.4582799e-19)
(0.087312071 -0.0064670649 5.0091701e-23)
(0.087331635 -0.0075771538 7.7140497e-19)
(0.08743663 -0.0087551185 -1.1917892e-18)
(0.087636311 -0.0099887003 8.2692113e-19)
(0.087937114 -0.011266849 -1.0899726e-18)
(0.088337786 -0.012582881 -2.3375596e-19)
(0.088843352 -0.013914608 0)
(0.089460721 -0.015248876 0)
(0.090180144 -0.016577561 0)
(0.090993142 -0.01789758 0)
(0.091905543 -0.019183374 0)
(0.092913894 -0.020416914 1.7085354e-19)
(0.094001774 -0.021597479 -6.5505335e-19)
(0.095159808 -0.022709851 3.1696506e-19)
(0.096376043 -0.023740179 6.1830524e-19)
(0.097636166 -0.024682943 -6.0754374e-19)
(0.098924522 -0.025526184 6.0017201e-19)
(0.10022129 -0.0262885 -5.9838082e-19)
(0.10151922 -0.026977087 2.9888444e-19)
(0.10281309 -0.027579478 -2.9810863e-19)
(0.10409103 -0.028086098 4.4647754e-19)
(0.10534267 -0.028521818 5.9810092e-19)
(0.10656735 -0.028882261 -2.9921124e-19)
(0.10775805 -0.029158985 2.5368064e-24)
(0.10891008 -0.029375693 0)
(0.11003265 -0.029562854 -1.5186919e-19)
(0.11113445 -0.029679601 1.5117697e-19)
(0.11220833 -0.0297731 3.060093e-19)
(0.11327244 -0.029810295 -3.8107235e-19)
(0.11432392 -0.029817905 -3.8416563e-19)
(0.11537797 -0.029782709 3.0725851e-19)
(0.11643886 -0.029703667 0)
(0.11751518 -0.029551162 1.5197923e-19)
(0.092014813 0.0023646894 -2.7334575e-19)
(0.091743045 0.0020804155 -2.6904107e-19)
(0.091468823 0.0017833287 2.6202088e-19)
(0.09119344 0.0014794505 0)
(0.09092552 0.001145222 -2.6102733e-19)
(0.090662589 0.00078248758 -8.0166308e-24)
(0.090403379 0.0003833741 5.17845e-19)
(0.090151939 -4.8554575e-05 -5.1850177e-19)
(0.08990663 -0.00052834567 5.1358918e-19)
(0.089663168 -0.0010487414 0)
(0.089435353 -0.0016230358 0)
(0.089230254 -0.0022605005 0)
(0.089048727 -0.0029624788 -3.3772778e-19)
(0.088900626 -0.0037267028 -6.7584319e-19)
(0.088799172 -0.0045575929 1.3552957e-18)
(0.088743466 -0.0054555947 -1.3604057e-18)
(0.088735446 -0.0064157275 3.4314887e-19)
(0.088792065 -0.0074372443 1.1875226e-23)
(0.088927712 -0.0085194672 7.1551031e-19)
(0.089150743 -0.0096517425 3.704825e-19)
(0.089467172 -0.010823992 -1.115979e-23)
(0.08987637 -0.012029934 0)
(0.090382808 -0.013250407 2.1958178e-19)
(0.090991849 -0.014472143 -2.11905e-19)
(0.091695119 -0.015687793 0)
(0.092485855 -0.016894515 -8.801413e-20)
(0.093368204 -0.018069204 0)
(0.094338463 -0.019195461 1.5597657e-19)
(0.095382113 -0.02027201 -2.99897e-19)
(0.096490182 -0.021285541 -5.8187859e-19)
(0.097651256 -0.022223694 7.8900164e-23)
(0.098852075 -0.023081594 8.410826e-19)
(0.10007808 -0.023848938 -5.5537442e-19)
(0.10131176 -0.024541557 2.7742764e-19)
(0.10254614 -0.025165797 0)
(0.10377558 -0.025711237 -8.3286147e-19)
(0.10498876 -0.026169814 3.7320041e-23)
(0.10617671 -0.026563181 -5.5919479e-19)
(0.10733828 -0.026887993 4.2038601e-19)
(0.10846665 -0.027137189 -4.2055284e-19)
(0.10955765 -0.027331332 7.1528252e-23)
(0.11062004 -0.027497382 7.1372873e-19)
(0.11165981 -0.027599687 1.4227393e-19)
(0.11267189 -0.027680006 -2.8806049e-19)
(0.11367114 -0.027709302 -2.8718918e-19)
(0.11465585 -0.027711647 3.6195697e-19)
(0.11563896 -0.027675369 7.239064e-20)
(0.11662469 -0.027600387 1.4451549e-19)
(0.11761994 -0.027458259 -2.1510199e-19)
(0.092587565 0.0018619375 0)
(0.092360223 0.0015944084 -8.4255274e-20)
(0.09213051 0.0013143022 0)
(0.091899565 0.0010261286 0)
(0.091675508 0.00071057726 0)
(0.091456204 0.00036857476 0)
(0.091240773 -6.6125429e-06 -6.459335e-19)
(0.091032972 -0.00041268752 6.4546218e-19)
(0.090831659 -0.00086211233 6.3842663e-19)
(0.090633411 -0.0013497788 -1.2662027e-18)
(0.090450679 -0.0018866767 6.3055401e-19)
(0.09028984 -0.0024806211 0)
(0.090151964 -0.0031330716 6.2375168e-19)
(0.090045922 -0.0038423828 -3.1116495e-19)
(0.089983523 -0.0046120231 -3.1104459e-19)
(0.089964513 -0.0054425338 1.2448518e-18)
(0.089991238 -0.0063299499 -6.2586583e-19)
(0.090078807 -0.0072730813 -6.341101e-19)
(0.090239951 -0.0082706679 2.1704748e-23)
(0.090482248 -0.0093133279 3.3378836e-19)
(0.090811291 -0.010391813 -3.4831283e-19)
(0.091226894 -0.011500175 -3.6884025e-19)
(0.091733054 -0.012621648 3.9328488e-19)
(0.09233386 -0.01374322 0)
(0.093022063 -0.014858118 8.6775502e-20)
(0.093792181 -0.015963636 7.8045837e-25)
(0.09464702 -0.017038836 0)
(0.095582789 -0.018068719 0)
(0.096586562 -0.019051602 0)
(0.097649756 -0.019975735 1.0706041e-18)
(0.098761476 -0.020829998 -5.0842559e-23)
(0.099909363 -0.021610017 -7.7745301e-19)
(0.10107982 -0.022306825 5.1467836e-19)
(0.10225718 -0.022933894 0)
(0.10343474 -0.023496805 -2.5830307e-19)
(0.1046065 -0.023986791 2.5880986e-19)
(0.10576161 -0.024397027 -2.594991e-19)
(0.10689207 -0.024746312 7.8484188e-19)
(0.10799634 -0.025032174 0)
(0.10906772 -0.025248788 0)
(0.11010237 -0.025413877 5.3130449e-19)
(0.11110844 -0.02555095 -5.369673e-19)
(0.11209016 -0.025629572 5.3597836e-19)
(0.11304344 -0.025685715 -4.0696979e-19)
(0.11398115 -0.025694649 0)
(0.11490188 -0.02567708 -6.824885e-20)
(0.11581715 -0.025622933 -6.8280788e-20)
(0.11673069 -0.025532459 -2.0458203e-19)
(0.11764839 -0.025379846 -1.3538551e-19)
(0.093131433 0.0014446228 -3.2176284e-19)
(0.092940543 0.0011918819 7.9193842e-20)
(0.092747463 0.00092709966 1.5444833e-19)
(0.092553371 0.00065362936 0)
(0.092365753 0.00035536584 0)
(0.092182829 3.2536966e-05 1.5285653e-19)
(0.092004005 -0.00032070843 1.5119613e-19)
(0.091832797 -0.00070302413 0)
(0.091668451 -0.0011248433 0)
(0.091508275 -0.0015826673 2.9492676e-19)
(0.091363527 -0.0020856583 0)
(0.09124001 -0.0026404557 0)
(0.09113897 -0.003248563 -5.7718242e-19)
(0.091068447 -0.0039087873 2.8714194e-19)
(0.091039055 -0.0046238368 0)
(0.091051039 -0.0053942768 -5.7126913e-19)
(0.091107021 -0.0062168911 -5.7264289e-19)
(0.091220533 -0.0070901546 5.7834402e-19)
(0.091402907 -0.0080123713 1.176949e-18)
(0.091661031 -0.0089751811 -6.0443539e-19)
(0.092000092 -0.0099700529 -6.2792297e-19)
(0.092420208 -0.010991316 3.3092164e-19)
(0.092924968 -0.012024136 -3.5413052e-19)
(0.093517423 -0.013056046 -8.7025825e-20)
(0.094191215 -0.014080628 8.0273665e-20)
(0.094941788 -0.015095228 0)
(0.095770916 -0.016080917 2.7506142e-19)
(0.096674818 -0.017023901 0)
(0.097641894 -0.017922223 5.0616379e-19)
(0.098663936 -0.018765455 -3.5014034e-23)
(0.099730534 -0.019543562 -4.849286e-19)
(0.10083012 -0.020252627 -6.1765088e-23)
(0.10194996 -0.020884849 -4.7749463e-19)
(0.10307592 -0.021451811 -4.7867297e-19)
(0.10420155 -0.021958513 -1.2024131e-18)
(0.10532063 -0.022397606 9.6584774e-19)
(0.10642279 -0.022763374 0)
(0.10750087 -0.02307237 -2.4489802e-19)
(0.10855304 -0.023322891 0)
(0.10957279 -0.023510188 4.9452498e-19)
(0.11055655 -0.023649802 2.4971542e-19)
(0.11151203 -0.023762595 -5.614354e-23)
(0.11244181 -0.023822187 -5.0496187e-19)
(0.11334292 -0.023860301 1.9906596e-24)
(0.11422611 -0.023855439 -2.5534509e-19)
(0.11509054 -0.023826059 2.5749293e-19)
(0.11594614 -0.023763334 -2.5770616e-19)
(0.1167965 -0.023668117 5.7939829e-19)
(0.1176461 -0.023516064 6.3934596e-20)
(0.093641347 0.0010888242 -3.02564e-19)
(0.093481724 0.0008514406 7.4469934e-20)
(0.093320175 0.00060225838 2.9066206e-19)
(0.093157686 0.0003436684 7.2417382e-19)
(0.093001278 6.2331088e-05 -5.7558998e-19)
(0.092849451 -0.00024204886 -1.4338385e-19)
(0.09270191 -0.00057455145 -1.4168977e-19)
(0.09256194 -0.00093454753 -5.6434567e-19)
(0.092429148 -0.0013307955 8.3506466e-19)