/*--------------------------------*- C++ -*----------------------------------*\
| =========                 |                                                 |
| \\      /  F ield         | OpenFOAM: The Open Source CFD Toolbox           |
|  \\    /   O peration     | Version:  v2006                                 |
|   \\  /    A nd           | Website:  www.openfoam.com                      |
|    \\/     M anipulation  |                                                 |
\*---------------------------------------------------------------------------*/
FoamFile
{
    version     2.0;
    format      ascii;
    class       volVectorField;
    location    "500";
    object      UMean;
}
// * * * * * * * * * * * * * * * * * * * * * * * * * * * * * * * * * * * * * //

dimensions      [0 1 -1 0 0 0 0];


internalField   nonuniform List<vector> 
19765
(
(0.10402252 0.039009522 -7.7469367e-20)
(0.10258941 0.043744707 7.7182751e-20)
(0.096042358 0.047121097 -7.7965621e-20)
(0.088173574 0.048803237 0)
(0.081489376 0.049483937 0)
(0.075406517 0.049337697 1.817699e-19)
(0.068814729 0.048300278 -1.4208769e-19)
(0.063028397 0.046735825 0)
(0.056997549 0.044485446 3.4248661e-19)
(0.049977487 0.041235262 2.8443492e-20)
(0.044175582 0.037782153 -5.5277691e-19)
(0.039610161 0.034170788 5.2963041e-19)
(0.035370143 0.030039118 -5.6969398e-19)
(0.031753678 0.025713282 -6.2142043e-19)
(0.029055206 0.021465647 6.7869298e-19)
(0.026527173 0.016841651 0)
(0.023954824 0.011926606 -1.3264211e-20)
(0.021836889 0.0070735043 1.5640367e-20)
(0.020329216 0.0022276505 -1.1521872e-18)
(0.019322574 -0.0026420909 1.19974e-18)
(0.018789433 -0.0075950295 -5.7815634e-19)
(0.018582762 -0.012609027 1.0664665e-18)
(0.018700373 -0.017519119 -4.9912938e-19)
(0.01925305 -0.022506881 2.1055114e-20)
(0.020143226 -0.027532345 -9.8523311e-20)
(0.021145101 -0.032183707 7.2811641e-20)
(0.022350085 -0.036523083 -3.0508776e-19)
(0.023972255 -0.041076483 2.7816374e-19)
(0.025856996 -0.045551237 0)
(0.027925329 -0.049655197 4.8130865e-19)
(0.030390239 -0.053790263 -4.4794035e-19)
(0.033388107 -0.057986981 8.4187426e-19)
(0.037358401 -0.062306732 -7.9792352e-19)
(0.041808002 -0.066267389 3.7875199e-19)
(0.045700002 -0.069145452 -3.6794083e-19)
(0.049499024 -0.071580118 -3.4464954e-19)
(0.054532887 -0.074315706 1.8393053e-22)
(0.060014582 -0.076699715 6.5535205e-19)
(0.065168789 -0.078302073 -3.4232716e-19)
(0.071731136 -0.079920365 -3.079792e-19)
(0.079394764 -0.081121608 2.9875026e-19)
(0.084906087 -0.080743695 -1.8463477e-20)
(0.089882167 -0.079628181 -3.6086581e-20)
(0.094880017 -0.077928568 1.4437904e-19)
(0.098108412 -0.07534484 -3.229145e-19)
(0.10090399 -0.072200969 1.4434154e-19)
(0.10165724 -0.06852485 0)
(0.10149449 -0.064792706 -1.4890588e-19)
(0.10118274 -0.061457957 0)
(0.094343351 0.023150753 1.2764258e-19)
(0.091312345 0.027140873 1.2281707e-19)
(0.087663205 0.030858699 -5.8202109e-20)
(0.083649224 0.033119504 5.7756141e-20)
(0.079466264 0.034351995 -2.8538039e-19)
(0.075359498 0.034771278 2.2664309e-19)
(0.071306834 0.034628877 -2.7735157e-20)
(0.067473629 0.033969221 2.2097831e-19)
(0.063784215 0.03289008 2.7015855e-20)
(0.060120033 0.031482416 -2.5385664e-19)
(0.05661242 0.029558209 1.3577078e-20)
(0.053434633 0.027094167 4.1362393e-19)
(0.050508569 0.024237987 -6.7014514e-19)
(0.047869736 0.021113157 2.0043859e-19)
(0.045654345 0.017723927 -2.3525692e-19)
(0.043702672 0.014155057 2.7017877e-19)
(0.041832657 0.010486073 -1.5529664e-20)
(0.040190428 0.006657192 0)
(0.038924622 0.0026125734 1.7321637e-20)
(0.038049539 -0.0015903474 -2.939628e-19)
(0.037548847 -0.005879409 2.8704422e-19)
(0.037336549 -0.010223973 2.407679e-20)
(0.037441569 -0.014557377 9.4331257e-21)
(0.037926449 -0.01884016 -1.3579354e-20)
(0.038655523 -0.023059399 -3.4328108e-20)
(0.039492862 -0.027249391 2.8505169e-20)
(0.04056155 -0.031368366 1.160904e-19)
(0.041963751 -0.035383053 -3.6876516e-19)
(0.043609802 -0.039317117 4.5308661e-19)
(0.045497576 -0.043119813 -2.1768188e-19)
(0.047705552 -0.046729247 1.3071531e-20)
(0.050282214 -0.0500663 0)
(0.053213096 -0.053030946 2.0684971e-19)
(0.056298818 -0.055697665 -6.6430239e-23)
(0.059426624 -0.058147116 -1.9053961e-19)
(0.062729665 -0.060327799 -2.1071728e-19)
(0.066295303 -0.062107518 6.8888833e-23)
(0.069992486 -0.063480515 -1.6177546e-19)
(0.073774865 -0.0644035 1.7259229e-19)
(0.077701407 -0.064734903 1.8289692e-19)
(0.081612852 -0.064392915 2.1006065e-19)
(0.085394327 -0.063473341 -3.8663451e-19)
(0.089129851 -0.06220509 2.2063466e-19)
(0.092790675 -0.060237512 -2.5597705e-20)
(0.096211946 -0.058276791 -1.0474422e-19)
(0.099333721 -0.056024731 2.1808484e-19)
(0.10210192 -0.053845409 -1.6881497e-19)
(0.10454547 -0.051892969 -5.7850269e-20)
(0.10670456 -0.050304189 1.1862635e-19)
(0.095342697 0.024616559 7.0312211e-20)
(0.093067897 0.025475283 1.5276504e-23)
(0.090415414 0.026189317 1.3630916e-19)
(0.087471363 0.026756327 1.10095e-23)
(0.084429031 0.026882242 -2.1198386e-19)
(0.081353684 0.026689749 2.9042281e-19)
(0.078319728 0.026153452 -7.348934e-20)
(0.075324782 0.025422602 0)
(0.072449777 0.024361552 0)
(0.069569298 0.023173712 3.9724231e-20)
(0.066795057 0.021677834 0)
(0.064209826 0.019791235 4.3571035e-20)
(0.061804331 0.017589015 4.1111442e-19)
(0.05960038 0.015150924 4.8555393e-19)
(0.057687287 0.012455462 -8.3079102e-19)
(0.055992591 0.009564894 -2.06611e-23)
(0.054411375 0.0065583762 3.0120147e-20)
(0.05302759 0.003387672 -5.3315107e-19)
(0.051936334 4.9458877e-06 5.6334312e-19)
(0.051160776 -0.0035289853 0)
(0.050702752 -0.0071592808 5.1087554e-20)
(0.050503594 -0.010867005 -2.2178253e-23)
(0.050595307 -0.014565793 -2.644222e-20)
(0.051012143 -0.018257229 -4.7265572e-20)
(0.051651513 -0.021918901 1.6150043e-19)
(0.052433985 -0.025576853 -1.7540804e-20)
(0.053489932 -0.029174096 -2.3110546e-19)
(0.054858991 -0.032679301 6.9001234e-19)
(0.056441029 -0.036112717 -4.0386588e-19)
(0.058262306 -0.039411145 4.6588291e-20)
(0.060352224 -0.0425235 3.2543822e-19)
(0.062696088 -0.045401049 -6.9342682e-19)
(0.06528669 -0.047964239 -3.2824587e-19)
(0.067971643 -0.050307885 5.9607291e-19)
(0.070720802 -0.052465002 5.7600876e-19)
(0.073611787 -0.054341157 -5.1922679e-19)
(0.076672059 -0.055859267 0)
(0.079775207 -0.057122351 2.289655e-19)
(0.08292791 -0.05805705 -2.546275e-19)
(0.086128833 -0.058587604 2.7871655e-19)
(0.089278065 -0.058861013 -2.7720319e-19)
(0.092268943 -0.05902029 0)
(0.095225043 -0.058856979 0)
(0.097957602 -0.058538024 3.0638003e-20)
(0.10053392 -0.0579427 0)
(0.10285338 -0.057321128 -6.1331957e-20)
(0.10493741 -0.056622875 2.445774e-19)
(0.10680434 -0.055861285 -1.215538e-19)
(0.10855077 -0.055015491 0)
(0.092114811 0.017893669 -7.7541691e-20)
(0.090303041 0.0187599 -2.2995063e-19)
(0.088468065 0.019369596 7.4269967e-20)
(0.086536802 0.019847967 -3.7845819e-19)
(0.084537085 0.020006739 3.0741595e-19)
(0.082501996 0.019920685 3.1567655e-19)
(0.080480699 0.019560624 -2.3903061e-19)
(0.07846319 0.019035972 3.2979869e-19)
(0.076486314 0.018224324 5.3129842e-23)
(0.074503829 0.017310801 -7.6982691e-19)
(0.072545927 0.016169481 4.445463e-19)
(0.07066748 0.014729989 0)
(0.068877 0.013038056 -4.8150375e-20)
(0.067207429 0.011156203 -8.6173574e-19)
(0.065722848 0.0090334042 9.6634512e-19)
(0.064389979 0.006703736 8.5408022e-19)
(0.063154021 0.0042542058 -1.9577243e-18)
(0.06207257 0.001652101 1.0734737e-18)
(0.061213229 -0.0011475955 -6.0015664e-19)
(0.06059639 -0.0040832874 6.8883252e-19)
(0.060228271 -0.0071293074 0)
(0.060074793 -0.010274665 -6.5617304e-19)
(0.060151558 -0.013400386 9.5156437e-19)
(0.060499116 -0.016543413 -5.4761847e-19)
(0.061056072 -0.019690319 8.8572955e-20)
(0.061773867 -0.022852858 -1.4575051e-23)
(0.062733695 -0.025943839 -2.55558e-19)
(0.063954586 -0.028933925 6.823446e-19)
(0.065368604 -0.031851197 -4.1515198e-19)
(0.066985663 -0.034628624 -4.3145221e-19)
(0.06881055 -0.037219887 3.5835235e-19)
(0.070820574 -0.039599415 8.0320325e-19)
(0.072990402 -0.041704329 -1.6193711e-22)
(0.075224123 -0.043623812 -7.0235761e-19)
(0.077512938 -0.045381375 5.3113675e-19)
(0.079890832 -0.046897049 -5.8755066e-19)
(0.082340616 -0.048108426 5.7018651e-19)
(0.084789679 -0.049113824 -1.1238125e-18)
(0.087246364 -0.049864983 5.8375331e-19)
(0.089680836 -0.050306319 2.3480122e-19)
(0.092039585 -0.050542858 -2.6741649e-19)
(0.094339281 -0.050683512 -6.7069477e-20)
(0.096638179 -0.050573362 2.6267061e-19)
(0.098844417 -0.050364992 -2.6602892e-19)
(0.10103416 -0.049959563 0)
(0.10313917 -0.049454025 1.3225876e-19)
(0.10522386 -0.04882567 -6.5821701e-20)
(0.10728571 -0.048112175 0)
(0.10933871 -0.04729955 0)
(0.091713481 0.016151457 -7.3828297e-20)
(0.090302614 0.016203316 -2.1796799e-19)
(0.088861657 0.016202526 2.8133252e-19)
(0.087373101 0.01622017 7.1371627e-20)
(0.08584931 0.016071981 2.1652066e-19)
(0.084304819 0.015802213 -2.2105552e-19)
(0.082762694 0.015368057 2.223519e-19)
(0.08122098 0.014840889 -3.8083201e-19)
(0.07969989 0.014116217 -7.6811762e-20)
(0.078169546 0.013317266 1.5638876e-19)
(0.076654905 0.012347324 -7.2573932e-19)
(0.075187937 0.011150648 7.4910154e-19)
(0.07377475 0.0097506949 8.5826981e-20)
(0.072442281 0.0081859666 7.1572399e-19)
(0.071237151 0.0064175845 -9.3669272e-20)
(0.070141692 0.004469744 -7.8601531e-19)
(0.06912796 0.00240271 0)
(0.068243616 0.00018957591 0)
(0.067540629 -0.0022016632 0)
(0.0670387 -0.0047229845 -4.1226035e-19)
(0.066743985 -0.0073540883 6.3154289e-19)
(0.066635232 -0.01008311 -8.2735038e-19)
(0.066728235 -0.01282136 6.6745092e-19)
(0.067061197 -0.015583953 -8.5584928e-20)
(0.067589764 -0.018352113 6.7248235e-24)
(0.068270374 -0.021127484 3.1292031e-20)
(0.069156315 -0.023838973 5.5095911e-20)
(0.070265003 -0.026462628 -9.91957e-20)
(0.071546038 -0.029015293 2.7400249e-19)
(0.072997367 -0.031439699 -3.4045464e-19)
(0.074615974 -0.033699917 0)
(0.076379247 -0.035777043 -6.8560338e-19)
(0.078262919 -0.037622015 1.1681113e-18)
(0.080195067 -0.03930663 -4.9782557e-19)
(0.082162744 -0.040847192 -4.8630306e-19)
(0.084185107 -0.042184044 1.2720853e-22)
(0.086248299 -0.043275028 1.0556462e-18)
(0.088299124 -0.044207287 -5.2205771e-19)
(0.09034087 -0.044945754 0)
(0.092358792 -0.045454301 0)
(0.094320737 -0.045827992 -1.8831173e-19)
(0.096231933 -0.046169807 2.5233993e-19)
(0.098138668 -0.046329164 6.1976725e-20)
(0.099985527 -0.046476796 3.7668747e-19)
(0.10182669 -0.046499474 -6.2077388e-20)
(0.10362801 -0.0464986 -3.1321481e-19)
(0.10542121 -0.046441615 6.2486688e-20)
(0.10720147 -0.046327842 0)
(0.10897755 -0.046082677 -2.5936036e-23)
(0.091365564 0.013130055 -2.8271025e-24)
(0.090258248 0.013177875 1.2553024e-24)
(0.089157399 0.013147626 0)
(0.088024821 0.013094881 -3.3490644e-19)
(0.086875735 0.01290921 6.7452878e-20)
(0.085709126 0.012622691 2.0574458e-19)
(0.084538429 0.012208559 6.8745895e-20)
(0.083361217 0.011714067 1.4053902e-19)
(0.082188967 0.011066901 7.060537e-20)
(0.081001093 0.010349579 -1.4302202e-19)
(0.079818833 0.009492807 0)
(0.078665614 0.008455298 -2.2535102e-19)
(0.077546554 0.0072509617 -7.6946745e-20)
(0.0764847 0.0059040856 1.5903981e-19)
(0.075516714 0.0043852373 0)
(0.074632342 0.0027103217 -1.7155166e-19)
(0.073815591 0.00092120876 8.9956749e-19)
(0.073106298 -0.0010009543 -7.6569165e-19)
(0.072547184 -0.0030772645 0)
(0.072157017 -0.00527026 7.9199842e-19)
(0.071944247 -0.0075607139 -1.0146603e-18)
(0.07189671 -0.0099358068 7.2946813e-19)
(0.072026451 -0.012329481 -5.4128088e-19)
(0.072362025 -0.014747965 1.4217487e-19)
(0.072871893 -0.017174533 -1.2304042e-19)
(0.073524216 -0.019607854 -1.6084917e-19)
(0.074357474 -0.021989054 1.4335395e-19)
(0.075383731 -0.024294188 4.3450923e-19)
(0.076563178 -0.026530742 -7.258668e-19)
(0.077888756 -0.02865276 1.0495424e-22)
(0.079353324 -0.030630945 5.743186e-19)
(0.0809357 -0.032449455 5.4940062e-19)
(0.082612544 -0.03407065 -5.296754e-19)
(0.084328294 -0.035547505 -1.2949185e-19)
(0.086069168 -0.036893161 0)
(0.087844541 -0.038066043 4.9676713e-19)
(0.089641458 -0.039036659 -9.9460336e-23)
(0.091420683 -0.039868873 -4.8297569e-19)
(0.09318306 -0.040539855 0)
(0.094918932 -0.041025554 0)
(0.096607829 -0.041393024 -1.171651e-19)
(0.098252201 -0.041712912 5.8912925e-20)
(0.099895018 -0.041883349 -5.8036144e-20)
(0.10149506 -0.042017882 -5.8791083e-19)
(0.10310337 -0.042039032 5.2370837e-19)
(0.10469668 -0.042007394 0)
(0.10630945 -0.041897164 -5.862251e-20)
(0.10794522 -0.041706707 0)
(0.10962087 -0.041406979 2.3072817e-19)
(0.091631519 0.011485818 6.5322059e-20)
(0.090709788 0.011319001 -1.2839725e-19)
(0.089792931 0.011123919 -2.4878692e-19)
(0.088866158 0.010937787 5.018352e-19)
(0.087934882 0.010664138 -3.7832639e-19)
(0.08699755 0.010324679 0)
(0.086057912 0.0098944085 5.1115112e-19)
(0.085115621 0.0094053047 -6.5002883e-20)
(0.084174759 0.008799399 4.1928461e-23)
(0.083220555 0.0081348436 -8.5465839e-19)
(0.082270089 0.0073571477 -4.2146445e-23)
(0.081340848 0.006433391 5.4652806e-19)
(0.080436757 0.0053713041 5.5661215e-19)
(0.079576886 0.0041865852 -1.2857653e-18)
(0.078790648 0.0028558028 5.888962e-19)
(0.078072456 0.0013891055 7.5912806e-19)
(0.077413461 -0.00018363215 -1.4203873e-18)
(0.076846816 -0.001876378 -2.0799206e-23)
(0.076407578 -0.0037041855 5.3096176e-19)
(0.076112925 -0.0056378245 -7.6517061e-19)
(0.075971764 -0.0076605297 6.3199406e-19)
(0.075976577 -0.0097609334 4.7610138e-19)
(0.07613726 -0.011887657 2.5526129e-19)
(0.076475901 -0.014037665 -2.4015e-19)
(0.076969804 -0.016195557 1.6450562e-21)
(0.077595655 -0.018359889 -9.2867292e-20)
(0.078382054 -0.020480708 0)
(0.079336861 -0.022535566 1.5334305e-19)
(0.080427877 -0.024528002 -1.4334394e-19)
(0.081646406 -0.026419912 1.3541377e-19)
(0.082983485 -0.028186686 0)
(0.084419706 -0.029815353 0)
(0.085933289 -0.031275565 4.8175446e-19)
(0.087479624 -0.032610264 -4.7306292e-19)
(0.089045323 -0.03383028 -4.6572008e-19)
(0.090635107 -0.034903128 9.144933e-19)
(0.092237428 -0.035806043 -8.4282446e-23)
(0.093822782 -0.036593325 -1.1190801e-19)
(0.095390505 -0.037247444 -4.4222717e-19)
(0.096934237 -0.037748846 -4.3661304e-19)
(0.098439515 -0.038154374 4.9195615e-19)
(0.099909762 -0.038528055 0)
(0.10137533 -0.038779626 -2.1713298e-19)
(0.10281289 -0.039014861 2.1990946e-19)
(0.10425689 -0.039161757 -2.178503e-19)
(0.10569623 -0.039280592 1.0994896e-19)
(0.10715497 -0.039346951 0)
(0.10863776 -0.039359379 2.1868065e-19)
(0.11015881 -0.039275739 -2.1611061e-19)
(0.091843548 0.0096699028 -1.8415181e-19)
(0.091097928 0.0094971137 1.2063737e-19)
(0.090359234 0.0092906264 2.3389171e-19)
(0.089611699 0.0090797163 -1.1767346e-19)
(0.08886325 0.0087959933 -3.5417229e-19)
(0.088109674 0.0084560437 7.1569791e-19)
(0.087353013 0.0080416391 -8.3325704e-19)
(0.086593028 0.007575454 4.8292746e-19)
(0.085831958 0.0070138144 -1.2064329e-19)
(0.085058033 0.0063979553 -1.2132345e-19)
(0.084286579 0.0056861602 -4.9233407e-19)
(0.083531347 0.0048525583 -1.1458038e-23)
(0.082795593 0.0039013457 -3.006851e-23)
(0.082095448 0.0028429266 7.7515167e-19)
(0.081455252 0.0016590429 0)
(0.080872117 0.00035617233 -2.7112836e-19)
(0.080341569 -0.0010441337 0)
(0.079891899 -0.0025519879 2.9210281e-19)
(0.079552449 -0.0041779323 -1.5402189e-19)
(0.079338756 -0.0058987744 0)
(0.079259984 -0.007699586 -4.1886417e-23)
(0.079311944 -0.0095699493 -1.9871739e-19)
(0.079503645 -0.011469246 0)
(0.0798522 -0.013389878 -2.0571413e-19)
(0.080339934 -0.01531801 8.9795991e-20)
(0.080949598 -0.017252149 4.0619491e-20)
(0.081702988 -0.019149384 0)
(0.082605185 -0.02098832 -1.3627893e-19)
(0.083629605 -0.02276945 -1.2810349e-19)
(0.08476681 -0.024461137 -1.2176031e-19)
(0.086006894 -0.026042223 0)
(0.087331976 -0.027501423 -2.2581987e-19)
(0.088721977 -0.028813959 0)
(0.090140312 -0.030013617 -1.0827125e-19)
(0.091574446 -0.031109308 7.3804924e-23)
(0.093025661 -0.032076103 7.2702138e-23)
(0.094483072 -0.032896339 4.1643103e-19)
(0.095923261 -0.033613104 5.187513e-19)
(0.097344867 -0.034213406 -6.7734017e-23)
(0.098742479 -0.034682197 -6.5076203e-23)
(0.10010534 -0.035063654 -8.1690407e-19)
(0.10143616 -0.035407935 6.3877241e-23)
(0.10276077 -0.035645274 4.0679246e-19)
(0.10406076 -0.035856571 2.0589618e-19)
(0.10536653 -0.035985998 -2.0429453e-19)
(0.10666976 -0.036077832 1.0304703e-19)
(0.10799331 -0.036111873 1.0288689e-19)
(0.10934274 -0.036084965 -2.0511784e-19)
(0.11073391 -0.035963836 3.0426423e-19)
(0.092251495 0.0083983946 1.1520751e-19)
(0.091622487 0.0081668604 -3.9631415e-19)
(0.090998993 0.0079158313 0)
(0.090372895 0.0076674895 -4.415941e-19)
(0.089749251 0.0073634657 8.8450481e-19)
(0.089124319 0.0070157486 -4.4578359e-19)
(0.088497596 0.0066084208 -1.1103987e-19)
(0.087869666 0.0061577443 1.122663e-19)
(0.087240705 0.005628386 2.2389609e-19)
(0.086601534 0.0050505973 0)
(0.085965508 0.004390903 0)
(0.085343726 0.0036282321 -1.1458319e-19)
(0.084738821 0.0027645276 0)
(0.084164552 0.0018067081 -2.3495149e-19)
(0.083641333 0.00074006949 0)
(0.083167877 -0.00043140037 -7.3157432e-19)
(0.082742385 -0.0016918318 5.0025034e-19)
(0.08238923 -0.003048665 -5.1853498e-19)
(0.082133241 -0.0045094133 8.1390092e-19)
(0.081988337 -0.006055353 5.7461458e-19)
(0.081963424 -0.0076733172 -4.6333411e-19)
(0.082056293 -0.0093540126 1.6932509e-19)
(0.082274893 -0.011064548 -1.8307844e-19)
(0.082632625 -0.012794637 1.799156e-23)
(0.083115482 -0.014531486 7.9813361e-20)
(0.083710759 -0.016273751 -7.1644598e-20)
(0.0844355 -0.017984386 0)
(0.085292812 -0.019643427 1.2177186e-19)
(0.08626037 -0.021249795 1.1510762e-19)
(0.087328746 -0.022776808 0)
(0.088487801 -0.02420604 -2.1183133e-19)
(0.089721211 -0.025527776 4.1154484e-19)
(0.09101056 -0.02672138 0)
(0.092325248 -0.027814613 -9.9399736e-19)
(0.093653673 -0.028814988 7.8811131e-19)
(0.094995104 -0.029702272 0)
(0.096339242 -0.030461979 3.8585387e-19)
(0.09766729 -0.031130655 -3.8548404e-19)
(0.098977318 -0.031697884 0)
(0.10026455 -0.032150978 2.8513567e-19)
(0.10152043 -0.032527401 -3.8169928e-19)
(0.10274851 -0.032871497 0)
(0.10396776 -0.033122089 9.5241253e-20)
(0.10516664 -0.033351869 -3.8559003e-19)
(0.106368 -0.033510857 3.829988e-19)
(0.10756786 -0.033640601 3.8624396e-19)
(0.10878453 -0.033723104 -4.8216864e-19)
(0.1100241 -0.0337571 4.8076097e-19)
(0.11130041 -0.033707617 -4.756693e-19)
(0.092629465 0.0071824922 -5.4114567e-20)
(0.092107272 0.006953577 1.0640339e-19)
(0.091589244 0.0067047717 2.0664329e-19)
(0.091067948 0.006453301 5.1829078e-19)
(0.090549504 0.0061542727 -5.1826441e-19)
(0.090029952 0.0058166419 -4.1706274e-19)
(0.089508679 0.0054277863 9.3345046e-19)
(0.088986485 0.0049994731 -5.2289171e-19)
(0.088463269 0.0045038309 -5.2037101e-19)
(0.087931526 0.0039630057 8.324838e-19)
(0.087403454 0.0033503652 -4.1915928e-19)
(0.086888329 0.0026488008 2.1100915e-19)
(0.086388483 0.0018589114 2.1212374e-19)
(0.085915858 0.00098535029 8.5799857e-19)
(0.085487941 1.6372403e-05 -8.6977129e-19)
(0.085104498 -0.0010456368 0)
(0.084765466 -0.0021888771 0)
(0.084492117 -0.0034187493 3.8004827e-23)
(0.084305737 -0.0047404904 0)
(0.084218805 -0.0061387168 5.0653057e-19)
(0.084239826 -0.0076017148 -5.3986582e-19)
(0.084367984 -0.0091210505 5.8564531e-19)
(0.084610446 -0.010669522 -3.1686031e-19)
(0.084977845 -0.012235709 5.4614706e-19)
(0.085458709 -0.013807792 -7.0441269e-20)
(0.086043496 -0.015384415 -1.2727997e-19)
(0.086745749 -0.016933308 -1.1706282e-19)
(0.08756725 -0.018435738 -3.2823352e-19)
(0.088489022 -0.019889475 -6.2320764e-19)
(0.089501857 -0.021271773 1.9930819e-19)
(0.090595634 -0.022566305 1.9284033e-19)
(0.091755341 -0.023764436 -1.8804729e-19)
(0.09296403 -0.024848677 -7.379335e-19)
(0.09419565 -0.025841607 1.4630364e-18)
(0.095439461 -0.026749509 -7.2700334e-19)
(0.096693151 -0.027555908 0)
(0.097946732 -0.028248808 -5.3715197e-19)
(0.099184514 -0.028858489 5.3776679e-19)
(0.10040419 -0.029376791 1.7853412e-19)
(0.10160097 -0.029793329 -2.6646722e-19)
(0.10276779 -0.030138785 -1.7851297e-19)
(0.10390813 -0.030450092 0)
(0.10503738 -0.030676983 -8.9305501e-20)
(0.10614627 -0.030879096 -2.7114206e-19)
(0.10725461 -0.031015349 6.2908461e-19)
(0.10835935 -0.031119347 -2.7192543e-19)
(0.10947708 -0.03117582 -1.8111157e-19)
(0.11061338 -0.031183232 -2.7091876e-19)
(0.11178145 -0.03111111 -1.7881416e-19)
(0.093063655 0.0062312422 5.0837706e-19)
(0.092619687 0.005990542 1.9997644e-19)
(0.092178586 0.0057347032 -4.8588001e-19)
(0.091735926 0.0054772585 3.8944382e-19)
(0.091296785 0.0051803492 -7.7785798e-19)
(0.090857771 0.004850471 2.9285507e-19)
(0.090417742 0.0044767364 2.9093863e-19)
(0.089977877 0.0040676839 -3.9015373e-19)
(0.089537642 0.0036004599 0)
(0.08909103 0.0030915695 -7.7325178e-19)
(0.088649029 0.0025192567 7.7622335e-19)
(0.088219557 0.0018693277 -7.7889214e-19)
(0.087804705 0.0011415041 5.853275e-19)
(0.087414947 0.00033887917 -3.9306222e-19)
(0.087065419 -0.00054808597 1.1902824e-18)
(0.086756571 -0.0015180863 8.0151507e-19)
(0.086489459 -0.0025622183 -1.2210616e-18)
(0.086282792 -0.0036843704 2.0858162e-19)
(0.086154989 -0.0048881218 1.2932332e-18)
(0.086117241 -0.0061606235 -9.0046863e-19)
(0.086177537 -0.0074914075 -4.7636873e-19)
(0.086335971 -0.0088727987 5.1240141e-19)
(0.086598925 -0.010281901 -9.6971198e-19)
(0.086974833 -0.011706977 2.753134e-19)
(0.087454133 -0.013137002 -6.2616446e-20)
(0.088029583 -0.014570581 1.1379275e-19)
(0.088712156 -0.015979481 1.0519054e-19)
(0.089502713 -0.017346218 5.9250436e-19)
(0.090384941 -0.018667931 -1.8825163e-19)
(0.091350013 -0.019925032 5.4375043e-19)
(0.092388012 -0.021102964 0)
(0.09348512 -0.022194076 0)
(0.09462571 -0.023183424 0)
(0.095787316 -0.024089783 3.3707761e-19)
(0.096960014 -0.024918541 -3.3583642e-19)
(0.098140455 -0.025655995 3.3406641e-19)
(0.099318941 -0.026292019 -3.3275583e-19)
(0.10048226 -0.026852522 1.6686109e-19)
(0.10162783 -0.027330954 -6.662933e-19)
(0.10275084 -0.02771853 4.9827585e-19)
(0.10384521 -0.02804146 -1.6706251e-19)
(0.10491494 -0.028332215 3.3708295e-19)
(0.10597131 -0.028547035 0)
(0.10700807 -0.028738587 -8.4784751e-20)
(0.108041 -0.028870765 1.6876888e-19)
(0.10906869 -0.028973956 -1.7014413e-19)
(0.11010511 -0.029034727 3.401339e-19)
(0.11115568 -0.029052711 1.6965613e-19)
(0.11223174 -0.028998277 -2.1873521e-23)
(0.093473652 0.0053697683 -2.8676186e-19)
(0.093098901 0.0051371996 0)
(0.092725926 0.0048898959 -4.3532503e-24)
(0.092350841 0.0046384196 0)
(0.09197903 0.00435236 -3.6511043e-19)
(0.091607359 0.0040364108 9.1472785e-20)
(0.091234907 0.0036815255 5.4461155e-19)
(0.090862994 0.0032938465 1.8219223e-19)
(0.090491212 0.002854789 -5.4199375e-19)
(0.090114664 0.0023765836 -7.1933091e-19)
(0.089743447 0.0018414678 7.2005188e-19)
(0.089384483 0.0012376377 0)
(0.089039768 0.00056429116 3.5981054e-19)
(0.088718612 -0.00017653194 -3.61154e-19)
(0.088434306 -0.00099256329 7.2639373e-19)
(0.08818779 -0.0018831907 -7.3100506e-19)
(0.087980875 -0.00284162 4.5283525e-23)
(0.08783015 -0.0038705624 7.5437462e-19)
(0.087751703 -0.0049723246 -1.1636875e-18)
(0.087755604 -0.0061359991 8.0582506e-19)
(0.08784931 -0.007352152 -1.0592474e-18)
(0.08803353 -0.0086137277 -2.2631177e-19)
(0.088313981 -0.0099011261 0)
(0.088697385 -0.011202772 0)
(0.08917559 -0.012508343 0)
(0.089742961 -0.013816336 0)
(0.090408549 -0.015101916 0)
(0.091172596 -0.016348716 1.7897631e-19)
(0.092020944 -0.017553446 -6.847055e-19)
(0.092945175 -0.018699058 3.3078086e-19)
(0.093935645 -0.019772429 6.4455668e-19)
(0.094979557 -0.020766662 -6.3280289e-19)
(0.096062427 -0.021668815 6.2477777e-19)
(0.097164615 -0.022494473 -6.225379e-19)
(0.098276886 -0.023248226 3.108386e-19)
(0.099395068 -0.023918573 -3.1001307e-19)
(0.10050966 -0.024496889 4.6431537e-19)
(0.10160922 -0.025005222 6.2196115e-19)
(0.10269095 -0.025438376 -3.1118712e-19)
(0.10374986 -0.025789022 6.5072486e-24)
(0.10478058 -0.026079304 0)
(0.10578713 -0.026337131 -1.57983e-19)
(0.10677821 -0.026525469 1.5730421e-19)
(0.10774881 -0.026689078 3.1840953e-19)
(0.10871251 -0.026797431 -3.9659807e-19)
(0.10966825 -0.026876276 -3.9983708e-19)
(0.11062847 -0.026914056 3.1983293e-19)
(0.11159792 -0.026910604 0)
(0.11258673 -0.026839219 1.582508e-19)
(0.09389122 0.0046590531 -2.6964923e-19)
(0.093570802 0.0044301508 -2.6529597e-19)
(0.09325132 0.0041883428 2.5823597e-19)
(0.092930171 0.0039420088 0)
(0.092612263 0.0036655884 -2.5719472e-19)
(0.092294932 0.0033623584 -9.3721816e-24)
(0.091977291 0.0030244913 5.1012791e-19)
(0.091660822 0.0026563468 -5.1083744e-19)
(0.091345154 0.00224248 5.0584753e-19)
(0.091026356 0.0017919856 0)
(0.090713658 0.0012901334 0)
(0.090413196 0.00072696966 0)
(0.090126896 0.00010135283 -3.3251416e-19)
(0.089863104 -0.00058542635 -6.6530532e-19)
(0.089633588 -0.0013396896 1.3337761e-18)
(0.089439631 -0.0021612841 -1.337808e-18)
(0.089283543 -0.003044963 3.3713648e-19)
(0.089180121 -0.0039925312 6.0424764e-26)
(0.089143525 -0.0050053281 7.0148057e-19)
(0.089182843 -0.0060739591 3.6263409e-19)
(0.089304997 -0.0071898635 -3.2867713e-24)
(0.0895111 -0.00834651 0)
(0.089806268 -0.0095268824 2.1688067e-19)
(0.090195854 -0.010719846 -2.1838477e-19)
(0.090672744 -0.011915663 0)
(0.091232429 -0.01311271 -9.233211e-20)
(0.091882544 -0.014289076 0)
(0.092622895 -0.015429437 1.6276532e-19)
(0.093441084 -0.016530272 -3.1235738e-19)
(0.094329103 -0.01757663 -6.052725e-19)
(0.095277622 -0.018556627 6.8756511e-23)
(0.09627474 -0.019464049 8.7348622e-19)
(0.09730699 -0.020287642 -5.7652741e-19)
(0.098357023 -0.021040506 2.8785449e-19)
(0.099416231 -0.021726643 0)
(0.10047988 -0.022336347 -8.6399145e-19)
(0.10153867 -0.022862262 3.365382e-23)
(0.10258265 -0.023323488 -5.8017517e-19)
(0.10360885 -0.02371594 4.3624341e-19)
(0.10461217 -0.024033482 -4.3654051e-19)
(0.1055878 -0.024295238 6.7723082e-23)
(0.10653994 -0.024525803 7.4098463e-19)
(0.10747477 -0.024693057 1.4775272e-19)
(0.10838873 -0.024836318 -2.9916929e-19)
(0.10929298 -0.024929008 -2.9834525e-19)
(0.11018711 -0.024994054 3.7605342e-19)
(0.1110818 -0.02502134 7.5223284e-20)
(0.11198145 -0.025011399 1.502025e-19)
(0.11289453 -0.024938957 -2.2361061e-19)
(0.094286549 0.0040298035 0)
(0.094013505 0.0038112328 -8.3217658e-20)
(0.0937408 0.0035801992 0)
(0.093466149 0.003343248 0)
(0.093194456 0.0030793629 0)
(0.092923369 0.0027907423 0)
(0.092652259 0.0024707032 -6.3758715e-19)
(0.092382671 0.0021222518 6.3722076e-19)
(0.092114432 0.0017325647 6.3015824e-19)
(0.091844383 0.0013083274 -1.2497205e-18)
(0.091581037 0.00083729481 6.2241389e-19)
(0.091329916 0.00031103836 0)
(0.091092933 -0.00027177247 6.1563954e-19)
(0.090877645 -0.00091036302 -3.0708523e-19)
(0.090694568 -0.001609899 -3.0691092e-19)
(0.090545246 -0.0023705103 1.2276034e-18)
(0.090432322 -0.0031880927 -6.1674643e-19)
(0.090369076 -0.0040637327 -6.2441445e-19)
(0.090368054 -0.0049980132 2.5159325e-23)
(0.090437492 -0.0059827282 3.2791431e-19)
(0.090583801 -0.0070100502 -3.4153824e-19)
(0.090808358 -0.0080738831 -3.6073843e-19)
(0.091115748 -0.0091592623 3.8725653e-19)
(0.091510243 -0.010255634 0)
(0.091985477 -0.011353751 9.1007714e-20)
(0.092537705 -0.012451857 1.9641631e-24)
(0.093173524 -0.013530568 0)
(0.093892437 -0.014575499 0)
(0.094683488 -0.015583001 0)
(0.095539057 -0.016539845 1.1104954e-18)
(0.096450141 -0.017435206 -4.9606856e-23)
(0.097405617 -0.018263439 -8.05373e-19)
(0.098392908 -0.019014676 5.329742e-19)
(0.099396529 -0.019699948 0)
(0.1004084 -0.020322742 -2.6735482e-19)
(0.10142335 -0.020874815 2.6790673e-19)
(0.10243229 -0.021349868 -2.6866315e-19)
(0.10342637 -0.021764461 8.1262318e-19)
(0.10440248 -0.022115435 0)
(0.10535542 -0.022397703 0)
(0.10628076 -0.022627761 5.505182e-19)
(0.10718268 -0.022827124 -5.5644998e-19)
(0.10806558 -0.022968273 5.5561702e-19)
(0.10892661 -0.023085233 -4.2192444e-19)
(0.10977537 -0.023155272 0)
(0.11061157 -0.023198267 -7.0788513e-20)
(0.11144465 -0.023205472 -7.0836668e-20)
(0.11227847 -0.023177708 -2.122784e-19)
(0.11312027 -0.023091848 -1.4051475e-19)
(0.094672353 0.003497136 -3.1833558e-19)
(0.094438185 0.0032871531 7.8331393e-20)
(0.094203932 0.0030655657 1.5271422e-19)
(0.093967879 0.0028375281 0)
(0.09373464 0.0025853683 0)
(0.093502224 0.0023104431 1.5115565e-19)
(0.093270165 0.0020069271 1.4950396e-19)
(0.093040067 0.0016767976 0)
(0.092811897 0.0013092688 0)
(0.092583155 0.00090919973 2.9165265e-19)
(0.092361678 0.00046630998 0)
(0.092152484 -2.6605182e-05 0)
(0.091957474 -0.00057098587 -5.7087719e-19)
(0.091783532 -0.0011664289 2.8399622e-19)
(0.09164012 -0.0018171723 0)
(0.091528966 -0.0025235205 -5.6468538e-19)
(0.091452932 -0.003282222 -5.6572394e-19)
(0.091423988 -0.0040937975 5.7100723e-19)
(0.091453319 -0.0049582405 1.161053e-18)
(0.091548414 -0.005868293 -5.9560087e-19)
(0.091715204 -0.0068167505 -6.1778023e-19)
(0.091955228 -0.0077978838 3.2487309e-19)
(0.092272598 -0.0087983889 -3.4737423e-19)
(0.092670724 -0.0098083493 -8.8251982e-20)
(0.093143758 -0.010818934 8.3858488e-20)
(0.093688464 -0.011828266 0)
(0.094310693 -0.01281916 2.8576369e-19)
(0.095009722 -0.013778096 0)
(0.095775785 -0.014701375 5.2423512e-19)
(0.096601624 -0.01557722 -4.0563376e-23)
(0.097478556 -0.016395741 -5.0143854e-19)
(0.098396149 -0.017151806 -5.4526264e-23)
(0.099342615 -0.017836745 -4.9342107e-19)
(0.10030402 -0.018459921 -4.945231e-19)
(0.10127275 -0.019024435 -1.2421394e-18)
(0.10224334 -0.019523292 9.9788574e-19)
(0.10320694 -0.019951137 0)
(0.10415561 -0.020322496 -2.5311681e-19)
(0.10508619 -0.020635017 0)
(0.10599343 -0.020884535 5.1144516e-19)
(0.10687323 -0.021085476 2.5831579e-19)
(0.10772978 -0.021256893 -5.3164303e-23)
(0.10856589 -0.021375002 -5.2262816e-19)
(0.10937948 -0.021469697 -5.8422548e-25)
(0.11017859 -0.02152131 -2.6440614e-19)
(0.11096318 -0.021547468 2.6667828e-19)
(0.11174146 -0.021540554 -2.6696551e-19)
(0.11251694 -0.021501837 6.0035368e-19)
(0.11329552 -0.021409662 6.6266005e-20)
(0.095037645 0.0030305922 -2.997082e-19)
(0.094837289 0.0028312555 7.3753714e-20)
(0.094636606 0.0026207133 2.8778952e-19)
(0.094434054 0.0024029353 7.1704801e-19)
(0.094234127 0.0021632068 -5.6994488e-19)
(0.094035108 0.0019022347 -1.4199729e-19)
(0.093836747 0.0016149587 -1.4031842e-19)
(0.093640665 0.0013025679 -5.5901569e-19)
(0.093447004 0.00095597278 8.2713836e-19)
(0.093253806 0.00057861794 -2.7253092e-19)