/*--------------------------------*- C++ -*----------------------------------*\
| =========                 |                                                 |
| \\      /  F ield         | OpenFOAM: The Open Source CFD Toolbox           |
|  \\    /   O peration     | Version:  v2006                                 |
|   \\  /    A nd           | Website:  www.openfoam.com                      |
|    \\/     M anipulation  |                                                 |
\*---------------------------------------------------------------------------*/
FoamFile
{
    version     2.0;
    format      ascii;
    class       volVectorField;
    location    "500";
    object      wallShearStress;
}
// * * * * * * * * * * * * * * * * * * * * * * * * * * * * * * * * * * * * * //

dimensions      [1 -1 -2 0 0 0 0];


internalField   uniform (0 0 0);

boundaryField
{
    Side
    {
        type            empty;
    }
    Inlet
    {
        type            calculated;
        value           uniform (0 0 0);
    }
    Wing
    {
        type            calculated;
        value           nonuniform List<vector> 
139
(
(-3.4769581e-05 -1.3004152e-05 3.1398607e-23)
(-3.4250113e-05 -1.3582412e-05 -3.1204733e-23)
(-3.1807543e-05 -1.2642621e-05 3.118584e-23)
(-2.7583653e-05 -1.2322578e-05 2.9387359e-39)
(-2.4364935e-05 -1.1697943e-05 -2.9387359e-39)
(-2.1242599e-05 -1.0894994e-05 -6.4006111e-23)
(-1.876669e-05 -9.4817142e-06 4.7864791e-23)
(-1.5942943e-05 -8.3776949e-06 0)
(-1.4033325e-05 -6.6509603e-06 -1.0368529e-22)
(-1.1649358e-05 -4.9691247e-06 -7.9150525e-24)
(-9.4118249e-06 -3.6572823e-06 1.4456374e-22)
(-7.8565891e-06 -2.5136639e-06 -1.2721223e-22)
(-6.8774852e-06 -1.4879635e-06 1.2566875e-22)
(-6.0224902e-06 -7.5954005e-07 1.2573705e-22)
(-5.2026446e-06 -1.3623316e-07 -1.2720309e-22)
(-4.6296524e-06 4.705752e-07 5.8774718e-39)
(-4.1592988e-06 9.8892823e-07 2.3209537e-24)
(-3.9567712e-06 1.4619882e-06 -2.8569614e-24)
(-4.0265983e-06 1.9593102e-06 1.902114e-22)
(-4.3776352e-06 2.5956525e-06 -1.6208849e-22)
(-4.5379343e-06 3.5158721e-06 7.250942e-23)
(-4.7520759e-06 4.5673327e-06 -1.3242421e-22)
(-5.25411e-06 5.676907e-06 6.3258119e-23)
(-5.9251373e-06 6.9598888e-06 -2.8395844e-24)
(-6.332469e-06 8.3955187e-06 1.4735363e-23)
(-6.5917428e-06 9.8287591e-06 -1.2184585e-23)
(-7.4889351e-06 1.1188946e-05 5.6479869e-23)
(-8.6092072e-06 1.2793237e-05 -5.647778e-23)
(-9.3361419e-06 1.4521068e-05 0)
(-1.0534159e-05 1.6218763e-05 -1.1426819e-22)
(-1.2202422e-05 1.7980063e-05 1.1410647e-22)
(-1.42892e-05 1.9825115e-05 -2.3114368e-22)
(-1.694657e-05 2.2391314e-05 2.323508e-22)
(-1.8511962e-05 2.5343591e-05 -1.1641967e-22)
(-2.0065604e-05 2.8001717e-05 1.1784693e-22)
(-2.2813631e-05 2.9846519e-05 1.1572244e-22)
(-2.6396767e-05 3.1991127e-05 1.6698413e-25)
(-2.9050089e-05 3.4655014e-05 -2.3832002e-22)
(-3.2825778e-05 3.650296e-05 1.2932416e-22)
(-3.778722e-05 3.7985591e-05 1.2098317e-22)
(-4.168889e-05 4.0227845e-05 -1.2073086e-22)
(-4.3502888e-05 4.1659773e-05 7.5631037e-24)
(-4.7177034e-05 4.1071588e-05 1.5140329e-23)
(-4.8356204e-05 4.1762227e-05 -6.0873356e-23)
(-5.0190784e-05 4.0196911e-05 1.3722038e-22)
(-5.034672e-05 3.9148158e-05 -6.0736987e-23)
(-4.9740253e-05 3.6796924e-05 5.8774718e-39)
(-4.8601921e-05 3.426467e-05 6.1731996e-23)
(-4.7746091e-05 3.1693954e-05 0)
(-1.7164009e-05 -1.6041318e-06 -4.0868193e-21)
(-1.4039895e-05 -8.4244328e-07 -9.8447652e-38)
(-1.3446199e-05 -5.6179443e-08 -2.2411073e-22)
(-1.5287748e-05 3.4801213e-07 -6.2863992e-23)
(-1.8393683e-05 5.3181232e-07 1.009938e-21)
(-2.0843764e-05 4.6595112e-07 -4.7604813e-22)
(-2.2430575e-05 3.5031769e-07 1.102026e-39)
(-2.369591e-05 1.9484086e-07 3.202415e-23)
(-2.4702831e-05 2.6339784e-08 9.6192071e-23)
(-2.5565763e-05 -1.4370503e-07 1.2167181e-27)
(-2.6311867e-05 -3.3189746e-07 3.2301376e-23)
(-2.6889739e-05 -4.9932317e-07 3.2321494e-23)
(-2.7451116e-05 -6.643272e-07 -8.2045989e-28)
(-2.797138e-05 -8.4212258e-07 -3.2530242e-23)
(-2.8338389e-05 -1.0115444e-06 2.6071838e-22)
(-2.8517723e-05 -1.1580446e-06 1.3080595e-22)
(-2.8647924e-05 -1.2762215e-06 -1.3101901e-22)
(-2.8932334e-05 -1.4151943e-06 2.8698593e-42)
(-2.9362843e-05 -1.6089078e-06 -1.3065593e-22)
(-2.9933506e-05 -1.8890655e-06 -4.1325973e-40)
(-3.0584524e-05 -2.2636309e-06 -1.6319828e-23)
(-3.1101879e-05 -2.6922596e-06 1.635145e-23)
(-3.1359487e-05 -3.1375086e-06 1.3115355e-22)
(-3.1253691e-05 -3.5491989e-06 -1.3130271e-22)
(-3.1095152e-05 -3.968074e-06 1.3390214e-22)
(-3.0975048e-05 -4.4092355e-06 -1.3402453e-22)
(-3.0661267e-05 -4.8440496e-06 1.8367099e-40)
(-3.0361749e-05 -5.3148701e-06 -6.6172036e-23)
(-3.0060139e-05 -5.803267e-06 -1.6519286e-23)
(-2.9958557e-05 -6.4547907e-06 1.6396252e-23)
(-3.011358e-05 -7.2457264e-06 -3.2572135e-23)
(-3.0592149e-05 -8.3996522e-06 -1.8367099e-40)
(-3.1702351e-05 -9.9502321e-06 0)
(-3.3500886e-05 -1.1984657e-05 -2.9387359e-39)
(-4.8954261e-05 -8.5100512e-07 2.9139999e-23)
(-4.7229474e-05 -1.239183e-06 3.1243257e-23)
(-4.5887448e-05 -1.5287192e-06 -5.0809506e-27)
(-4.4700985e-05 -1.7894519e-06 -6.6974709e-23)
(-4.3579984e-05 -2.0372126e-06 3.9510743e-24)
(-4.2427976e-05 -2.283349e-06 5.9382761e-23)
(-4.1056348e-05 -2.5349516e-06 1.2687707e-22)
(-3.963083e-05 -2.7545049e-06 1.2723802e-22)
(-3.8383194e-05 -2.9367135e-06 5.1429189e-22)
(-3.73139e-05 -3.1040401e-06 -2.5567643e-22)
(-3.6326092e-05 -3.2750779e-06 -2.5589001e-22)
(-3.5351854e-05 -3.4555265e-06 2.6392148e-22)
(-3.422418e-05 -3.653601e-06 -5.1866692e-22)
(-3.2951363e-05 -3.8386803e-06 -7.9748577e-24)
(-3.17163e-05 -3.9975164e-06 -1.0120831e-21)
(-3.0534258e-05 -4.1642722e-06 1.0185804e-21)
(-2.9150447e-05 -4.3110585e-06 0)
(-2.7645646e-05 -4.4263724e-06 -5.3752622e-27)
(-2.6217273e-05 -4.5229642e-06 2.0126502e-21)
(-2.4603109e-05 -4.5973122e-06 -1.9975512e-21)
(-2.2732357e-05 -4.5944684e-06 1.9369413e-24)
(-2.0709187e-05 -4.5446236e-06 3.9320263e-21)
(-1.8131619e-05 -4.3155596e-06 -3.7619099e-24)
(-1.6682207e-05 -4.221527e-06 1.5047335e-23)
(-9.5184375e-06 -3.2369002e-06 -6.6316151e-21)
(-4.7264934e-05 2.9599725e-05 4.4081038e-39)
(-4.73487e-05 2.7888981e-05 -6.4157005e-23)
(-4.7769563e-05 2.663737e-05 -2.9387359e-39)
(-4.8316984e-05 2.5594906e-05 3.2456659e-23)
(-4.9212619e-05 2.4737759e-05 3.2402332e-23)
(-5.0201414e-05 2.4056785e-05 -1.6181524e-23)
(-5.1750564e-05 2.3454118e-05 1.6113689e-23)
(-5.2926102e-05 2.3055378e-05 -2.9387359e-39)
(-5.3963662e-05 2.2397285e-05 6.416586e-23)
(-5.5241185e-05 2.1908986e-05 -6.3941472e-23)
(-5.65404e-05 2.137248e-05 0)
(-5.8220367e-05 2.0858048e-05 6.3220132e-23)
(-5.9426512e-05 2.0324733e-05 6.3030911e-23)
(-6.0773512e-05 1.9574436e-05 -7.3468397e-40)
(-6.1773955e-05 1.8907384e-05 -1.9489112e-24)
(-6.2872216e-05 1.7979106e-05 1.9320781e-24)
(-6.3972274e-05 1.7182801e-05 2.2958874e-41)
(-6.464748e-05 1.6133884e-05 1.102026e-39)
(-6.5411767e-05 1.5084703e-05 6.1558576e-23)
(-6.5654506e-05 1.3934539e-05 -1.2217156e-22)
(-6.6651418e-05 1.2682662e-05 6.0348592e-23)
(-6.6939703e-05 1.1544946e-05 3.6734198e-40)
(-6.6490801e-05 9.9844277e-06 9.4150183e-25)
(-6.5882673e-05 8.6229443e-06 -6.0925811e-23)
(-6.4330247e-05 7.0591588e-06 0)
(-6.3541475e-05 5.626436e-06 3.0116915e-23)
(-6.1720037e-05 4.431907e-06 -1.5071019e-23)
(-5.9133797e-05 2.8847104e-06 -2.0026459e-24)
(-5.6620626e-05 1.6607355e-06 2.3563561e-25)
(-5.3664009e-05 5.391974e-07 9.5101335e-25)
(-5.1003767e-05 -2.8147259e-07 9.5944007e-25)
)
;
    }
    Outlet
    {
        type            calculated;
        value           uniform (0 0 0);
    }
    Ground
    {
        type            calculated;
        value           uniform (0 0 0);
    }
}


// ************************************************************************* //
