/*--------------------------------*- C++ -*----------------------------------*\
| =========                 |                                                 |
| \\      /  F ield         | OpenFOAM: The Open Source CFD Toolbox           |
|  \\    /   O peration     | Version:  v2006                                 |
|   \\  /    A nd           | Website:  www.openfoam.com                      |
|    \\/     M anipulation  |                                                 |
\*---------------------------------------------------------------------------*/
FoamFile
{
    version     2.0;
    format      ascii;
    class       volScalarField;
    location    "500";
    object      yPlus;
}
// * * * * * * * * * * * * * * * * * * * * * * * * * * * * * * * * * * * * * //

dimensions      [0 0 0 0 0 0 0];


internalField   uniform 0;

boundaryField
{
    Side
    {
        type            empty;
    }
    Inlet
    {
        type            calculated;
        value           uniform 0;
    }
    Wing
    {
        type            calculated;
        value           nonuniform List<scalar> 
139
(
96.083758
94.658067
87.456797
81.967718
76.610519
72.501689
66.27117
62.010966
56.176287
49.106452
44.017651
40.356699
36.011009
31.93679
29.110889
26.34869
24.245932
24.166394
26.303318
29.909259
34.453306
39.086794
44.125931
49.299902
54.485908
59.098775
63.244915
67.293706
71.664082
74.973603
77.706039
80.129318
84.672163
89.967854
92.445238
93.009571
96.305616
99.408731
100.07533
103.95484
110.7495
114.2534
115.2851
119.49887
118.76823
120.48223
118.89643
116.56864
113.74087
62.106229
56.788935
56.462458
60.637557
66.539139
70.695321
73.221156
75.17235
76.663749
77.927937
78.992758
79.803384
80.60107
81.323135
81.823999
82.06823
82.290366
82.750099
83.41088
84.27074
85.219082
85.94646
86.322072
86.195377
86.120146
86.074187
85.809761
85.647841
85.512548
85.838904
86.593761
88.114424
90.702788
94.400412
106.73563
104.81705
103.31265
101.95767
100.66603
99.300612
97.650547
95.936843
94.425046
93.114433
91.88253
90.646747
89.178037
87.518749
85.897005
84.326265
82.424866
80.376251
78.400585
76.086715
73.345911
70.250785
66.087809
63.77351
48.423036
111.55321
109.88735
109.15349
108.69883
108.62584
109.01575
109.70084
111.04822
111.47896
112.55427
113.60372
114.98813
116.49444
117.49578
118.90313
119.70105
121.123
121.85447
122.72468
123.19621
124.00848
124.85086
124.43221
124.13877
122.74317
121.99683
120.44127
117.80753
115.13031
111.93175
109.02163
)
;
    }
    Outlet
    {
        type            calculated;
        value           uniform 0;
    }
    Ground
    {
        type            calculated;
        value           nonuniform List<scalar> 
154
(
34.976671
37.078712
39.289482
41.483307
43.625235
45.71985
47.75684
49.727775
51.629618
53.459492
55.21905
56.899565
58.522436
60.033876
61.554708
62.854901
64.288896
65.679386
66.961589
68.382622
69.662119
70.892177
72.087585
73.231277
74.333256
75.400031
76.43483
77.44109
78.422057
79.380574
80.319206
81.240288
82.145933
83.038051
83.918362
84.788415
85.649601
86.503162
87.350214
88.191754
89.028679
89.861785
90.691784
91.519317
92.344959
93.169242
93.992666
94.815722
95.638901
96.462714
97.287703
98.114446
98.943555
99.775684
100.61151
101.45175
102.29709
103.14825
104.00591
104.87075
105.74333
106.62431
107.51402
108.41313
109.32155
110.24007
111.16753
112.1054
113.04911
114.00412
114.94829
115.92799
116.75402
118.03585
64.634131
61.326366
58.132183
54.971472
51.843916
48.782183
45.804177
42.926768
40.174212
37.576232
35.167688
32.989804
31.087759
29.512163
28.298223
27.492074
27.110152
27.1414
27.544469
28.26507
29.244594
30.417428
31.762013
33.141256
114.89775
114.28516
113.60268
112.84436
112.01641
111.11141
110.11754
109.02554
107.82574
106.50784
105.06435
103.4834
101.78242
99.923407
97.912796
95.746283
93.422277
90.938774
88.287414
85.47354
82.464641
79.245177
75.782311
71.986084
67.947001
386.2867
326.81992
280.02475
251.34286
228.85658
210.06394
194.73353
182.50056
172.47392
164.09198
157.03541
151.03893
145.94646
141.56555
137.78547
134.50804
131.66134
129.18076
127.01317
125.12222
123.4625
122.02145
120.76026
119.67453
118.73771
117.92533
117.24163
116.67212
116.22269
115.82746
115.59081
)
;
    }
}


// ************************************************************************* //
