/*--------------------------------*- C++ -*----------------------------------*\
| =========                 |                                                 |
| \\      /  F ield         | OpenFOAM: The Open Source CFD Toolbox           |
|  \\    /   O peration     | Version:  v2006                                 |
|   \\  /    A nd           | Website:  www.openfoam.com                      |
|    \\/     M anipulation  |                                                 |
\*---------------------------------------------------------------------------*/
FoamFile
{
    version     2.0;
    format      ascii;
    class       volScalarField;
    location    "5000";
    object      alphat;
}
// * * * * * * * * * * * * * * * * * * * * * * * * * * * * * * * * * * * * * //

dimensions      [1 -1 -1 0 0 0 0];


internalField   nonuniform List<scalar> 
55713
(
3.9993133e-10
4.7532981e-09
2.2624026e-08
4.8810827e-08
7.1511462e-08
8.6525864e-08
9.5455856e-08
1.0055701e-07
1.0334097e-07
1.0480781e-07
1.05564e-07
1.0594839e-07
1.0614166e-07
1.0623786e-07
1.0628497e-07
1.0630743e-07
1.0631744e-07
1.0632128e-07
1.0632198e-07
1.0632122e-07
1.0631973e-07
1.0631805e-07
1.0631628e-07
1.0631468e-07
1.063132e-07
1.06312e-07
1.0631099e-07
1.063103e-07
1.0630982e-07
1.0630976e-07
1.0631012e-07
1.0631085e-07
1.063118e-07
1.0631313e-07
1.0631468e-07
1.0631659e-07
1.0631871e-07
1.0632122e-07
1.0632396e-07
1.0632709e-07
1.0633045e-07
1.063342e-07
1.0633819e-07
1.0634256e-07
1.0634719e-07
1.063522e-07
1.0635748e-07
1.0636317e-07
1.0636915e-07
1.0637556e-07
1.0638232e-07
1.0638954e-07
1.0639716e-07
1.0640532e-07
1.0641395e-07
1.064232e-07
1.0643306e-07
1.0644366e-07
1.0645508e-07
4.7666725e-10
6.3853145e-09
2.7764807e-08
5.5665496e-08
7.7439398e-08
9.0774707e-08
9.8326233e-08
1.0243022e-07
1.0456571e-07
1.0564724e-07
1.061869e-07
1.0645359e-07
1.0658427e-07
1.0664761e-07
1.0667763e-07
1.0669116e-07
1.0669652e-07
1.0669784e-07
1.0669719e-07
1.0669563e-07
1.0669369e-07
1.0669166e-07
1.066897e-07
1.0668789e-07
1.0668629e-07
1.0668493e-07
1.0668381e-07
1.0668297e-07
1.0668237e-07
1.0668211e-07
1.0668241e-07
1.0668294e-07
1.0668377e-07
1.0668491e-07
1.066863e-07
1.0668798e-07
1.0668993e-07
1.066922e-07
1.0669474e-07
1.066976e-07
1.0670075e-07
1.0670421e-07
1.0670795e-07
1.0671202e-07
1.0671636e-07
1.0672104e-07
1.06726e-07
1.0673131e-07
1.0673692e-07
1.0674291e-07
1.0674924e-07
1.0675597e-07
1.0676309e-07
1.0677066e-07
1.0677868e-07
1.0678724e-07
1.0679633e-07
1.0680606e-07
1.0681649e-07
5.8763058e-10
8.4911794e-09
3.3615014e-08
6.2642433e-08
8.2990696e-08
9.4575938e-08
1.0081141e-07
1.0401813e-07
1.0560901e-07
1.0638379e-07
1.0675807e-07
1.0693772e-07
1.0702328e-07
1.0706343e-07
1.0708154e-07
1.0708893e-07
1.0709107e-07
1.0709068e-07
1.0708907e-07
1.0708696e-07
1.0708466e-07
1.070824e-07
1.0708026e-07
1.0707832e-07
1.0707659e-07
1.0707513e-07
1.070739e-07
1.0707296e-07
1.0707223e-07
1.0707175e-07
1.0707204e-07
1.070724e-07
1.0707307e-07
1.0707405e-07
1.0707526e-07
1.0707676e-07
1.070785e-07
1.0708056e-07
1.0708287e-07
1.0708551e-07
1.0708841e-07
1.0709161e-07
1.0709508e-07
1.0709886e-07
1.071029e-07
1.0710725e-07
1.0711188e-07
1.0711683e-07
1.0712206e-07
1.0712764e-07
1.0713353e-07
1.0713978e-07
1.0714639e-07
1.071534e-07
1.0716081e-07
1.0716867e-07
1.0717702e-07
1.0718589e-07
1.0719537e-07
7.4994535e-10
1.1172108e-08
4.0150414e-08
6.9585969e-08
8.8090548e-08
9.7926911e-08
1.0292786e-07
1.0535562e-07
1.0650468e-07
1.0704286e-07
1.0729465e-07
1.0741166e-07
1.0746561e-07
1.0748981e-07
1.0749984e-07
1.075031e-07
1.0750308e-07
1.0750153e-07
1.0749927e-07
1.0749678e-07
1.0749424e-07
1.0749182e-07
1.0748954e-07
1.074875e-07
1.0748568e-07
1.0748413e-07
1.0748282e-07
1.0748179e-07
1.0748097e-07
1.0748037e-07
1.0748041e-07
1.0748073e-07
1.0748128e-07
1.074821e-07
1.0748314e-07
1.0748444e-07
1.07486e-07
1.0748784e-07
1.0748994e-07
1.0749233e-07
1.0749499e-07
1.0749794e-07
1.0750114e-07
1.0750462e-07
1.0750837e-07
1.0751239e-07
1.0751668e-07
1.0752126e-07
1.0752612e-07
1.0753128e-07
1.0753673e-07
1.075425e-07
1.075486e-07
1.0755504e-07
1.0756185e-07
1.0756904e-07
1.0757665e-07
1.0758469e-07
1.0759325e-07
9.8733442e-10
1.4541114e-08
4.731094e-08
7.6338229e-08
9.269221e-08
1.0082895e-07
1.0470704e-07
1.064837e-07
1.0728644e-07
1.0764781e-07
1.0781164e-07
1.0788485e-07
1.0791725e-07
1.079308e-07
1.0793549e-07
1.0793603e-07
1.079346e-07
1.079323e-07
1.0792962e-07
1.0792688e-07
1.0792418e-07
1.0792166e-07
1.079193e-07
1.0791719e-07
1.0791531e-07
1.079137e-07
1.0791233e-07
1.0791122e-07
1.0791032e-07
1.0790964e-07
1.0790941e-07
1.079097e-07
1.0791015e-07
1.0791082e-07
1.079117e-07
1.0791282e-07
1.0791418e-07
1.079158e-07
1.0791769e-07
1.0791985e-07
1.0792227e-07
1.0792495e-07
1.0792789e-07
1.0793108e-07
1.0793453e-07
1.0793822e-07
1.0794217e-07
1.0794638e-07
1.0795086e-07
1.0795559e-07
1.0796061e-07
1.0796589e-07
1.0797149e-07
1.0797736e-07
1.0798358e-07
1.0799009e-07
1.0799698e-07
1.0800419e-07
1.0801187e-07
1.3356698e-09
1.87217e-08
5.4994641e-08
8.2748502e-08
9.6774167e-08
1.0329488e-07
1.0619216e-07
1.0744498e-07
1.0798566e-07
1.0821959e-07
1.083213e-07
1.083652e-07
1.0838346e-07
1.0839006e-07
1.0839136e-07
1.0839015e-07
1.0838786e-07
1.0838507e-07
1.0838217e-07
1.0837926e-07
1.0837651e-07
1.083739e-07
1.0837154e-07
1.0836937e-07
1.0836749e-07
1.0836582e-07
1.0836443e-07
1.0836324e-07
1.0836231e-07
1.0836153e-07
1.0836109e-07
1.0836128e-07
1.083617e-07
1.083622e-07
1.0836295e-07
1.0836387e-07
1.0836507e-07
1.0836647e-07
1.0836816e-07
1.0837007e-07
1.0837226e-07
1.0837467e-07
1.0837735e-07
1.0838023e-07
1.0838338e-07
1.0838674e-07
1.0839035e-07
1.0839418e-07
1.0839827e-07
1.0840258e-07
1.0840716e-07
1.0841196e-07
1.0841704e-07
1.0842236e-07
1.0842797e-07
1.0843382e-07
1.0844e-07
1.0844641e-07
1.0845322e-07
1.8473237e-09
2.3845618e-08
6.3055238e-08
8.8684872e-08
1.0033004e-07
1.0535655e-07
1.0743304e-07
1.0828052e-07
1.0863005e-07
1.0877475e-07
1.0883507e-07
1.088597e-07
1.0886886e-07
1.0887112e-07
1.088703e-07
1.0886807e-07
1.0886526e-07
1.0886223e-07
1.088592e-07
1.0885625e-07
1.0885348e-07
1.0885088e-07
1.0884852e-07
1.0884637e-07
1.0884448e-07
1.0884281e-07
1.0884139e-07
1.0884018e-07
1.088392e-07
1.0883838e-07
1.0883775e-07
1.0883787e-07
1.0883817e-07
1.0883858e-07
1.088392e-07
1.0883995e-07
1.0884096e-07
1.0884216e-07
1.0884363e-07
1.0884532e-07
1.0884727e-07
1.0884942e-07
1.0885182e-07
1.0885441e-07
1.0885724e-07
1.0886027e-07
1.0886353e-07
1.0886699e-07
1.0887068e-07
1.0887456e-07
1.0887869e-07
1.0888301e-07
1.0888758e-07
1.0889233e-07
1.0889735e-07
1.0890254e-07
1.0890802e-07
1.0891364e-07
1.089196e-07
2.5982117e-09
3.0049781e-08
7.1302644e-08
9.4045546e-08
1.0336251e-07
1.0706192e-07
1.0848129e-07
1.0902772e-07
1.092435e-07
1.0932807e-07
1.0936165e-07
1.0937417e-07
1.0937776e-07
1.0937743e-07
1.0937538e-07
1.0937259e-07
1.0936953e-07
1.0936641e-07
1.0936338e-07
1.0936046e-07
1.0935774e-07
1.093552e-07
1.093529e-07
1.093508e-07
1.0934894e-07
1.0934729e-07
1.0934588e-07
1.0934466e-07
1.0934367e-07
1.0934281e-07
1.093421e-07
1.0934207e-07
1.0934227e-07
1.0934257e-07
1.093431e-07
1.0934369e-07
1.0934453e-07
1.0934553e-07
1.093468e-07
1.0934825e-07
1.0934996e-07
1.0935185e-07
1.0935398e-07
1.0935627e-07
1.0935879e-07
1.0936147e-07
1.0936438e-07
1.0936745e-07
1.0937075e-07
1.0937419e-07
1.0937787e-07
1.0938169e-07
1.0938574e-07
1.0938992e-07
1.0939435e-07
1.0939888e-07
1.0940367e-07
1.0940852e-07
1.0941366e-07
3.696432e-09
3.7472068e-08
7.9507902e-08
9.8767719e-08
1.0589115e-07
1.084691e-07
1.0938669e-07
1.097207e-07
1.0984472e-07
1.0989153e-07
1.0990869e-07
1.0991398e-07
1.0991432e-07
1.0991255e-07
1.0990989e-07
1.0990687e-07
1.0990376e-07
1.0990069e-07
1.0989775e-07
1.0989495e-07
1.0989235e-07
1.0988993e-07
1.0988773e-07
1.0988572e-07
1.0988394e-07
1.0988234e-07
1.0988097e-07
1.0987977e-07
1.0987879e-07
1.0987793e-07
1.0987721e-07
1.0987696e-07
1.0987712e-07
1.098773e-07
1.0987774e-07
1.0987818e-07
1.0987891e-07
1.0987969e-07
1.0988076e-07
1.0988198e-07
1.0988346e-07
1.0988507e-07
1.0988693e-07
1.098889e-07
1.0989112e-07
1.0989344e-07
1.0989601e-07
1.0989867e-07
1.0990157e-07
1.0990455e-07
1.0990779e-07
1.0991109e-07
1.0991463e-07
1.0991823e-07
1.0992207e-07
1.0992594e-07
1.0993005e-07
1.0993414e-07
1.0993849e-07
5.2929003e-09
4.62461e-08
8.7413266e-08
1.0282657e-07
1.0796005e-07
1.096409e-07
1.1019487e-07
1.1038556e-07
1.1045202e-07
1.1047552e-07
1.1048302e-07
1.104842e-07
1.1048284e-07
1.1048037e-07
1.1047752e-07
1.104745e-07
1.1047153e-07
1.1046861e-07
1.1046588e-07
1.1046326e-07
1.1046087e-07
1.104586e-07
1.1045658e-07
1.1045469e-07
1.1045305e-07
1.1045152e-07
1.1045025e-07
1.1044909e-07
1.1044817e-07
1.1044732e-07
1.1044665e-07
1.1044624e-07
1.1044633e-07
1.104464e-07
1.1044675e-07
1.1044704e-07
1.1044768e-07
1.1044826e-07
1.1044915e-07
1.1045013e-07
1.1045138e-07
1.1045272e-07
1.104543e-07
1.1045596e-07
1.1045786e-07
1.1045982e-07
1.1046201e-07
1.1046427e-07
1.1046675e-07
1.1046928e-07
1.1047204e-07
1.1047482e-07
1.1047784e-07
1.1048086e-07
1.104841e-07
1.1048732e-07
1.1049075e-07
1.104941e-07
1.1049766e-07
7.5965069e-09
5.6494727e-08
9.4748317e-08
1.0622204e-07
1.0963384e-07
1.1063991e-07
1.1094703e-07
1.1104559e-07
1.1107825e-07
1.1108857e-07
1.1109082e-07
1.1108995e-07
1.1108784e-07
1.1108523e-07
1.1108247e-07
1.1107967e-07
1.1107696e-07
1.1107434e-07
1.1107189e-07
1.1106957e-07
1.1106744e-07
1.1106543e-07
1.1106362e-07
1.1106193e-07
1.1106045e-07
1.1105908e-07
1.1105792e-07
1.1105687e-07
1.1105602e-07
1.1105524e-07
1.1105462e-07
1.1105418e-07
1.1105412e-07
1.1105414e-07
1.1105438e-07
1.1105457e-07
1.1105507e-07
1.110555e-07
1.110562e-07
1.1105697e-07
1.1105798e-07
1.1105906e-07
1.1106034e-07
1.110617e-07
1.1106324e-07
1.1106485e-07
1.1106665e-07
1.110685e-07
1.1107053e-07
1.1107261e-07
1.1107486e-07
1.1107714e-07
1.1107959e-07
1.1108204e-07
1.1108467e-07
1.1108724e-07
1.1108999e-07
1.1109262e-07
1.1109542e-07
1.0898671e-08
6.8325204e-08
1.0125555e-07
1.0897009e-07
1.109901e-07
1.1152533e-07
1.1167631e-07
1.1172163e-07
1.1173538e-07
1.1173879e-07
1.1173853e-07
1.1173686e-07
1.1173467e-07
1.1173227e-07
1.1172985e-07
1.1172744e-07
1.1172516e-07
1.1172295e-07
1.1172092e-07
1.1171896e-07
1.1171719e-07
1.117155e-07
1.1171399e-07
1.1171256e-07
1.1171132e-07
1.1171014e-07
1.1170918e-07
1.1170825e-07
1.1170755e-07
1.1170685e-07
1.1170636e-07
1.117059e-07
1.1170579e-07
1.1170572e-07
1.1170592e-07
1.1170595e-07
1.1170639e-07
1.1170661e-07
1.1170721e-07
1.1170772e-07
1.1170852e-07
1.117093e-07
1.1171033e-07
1.1171132e-07
1.1171255e-07
1.1171375e-07
1.1171518e-07
1.1171656e-07
1.1171818e-07
1.1171973e-07
1.1172152e-07
1.1172321e-07
1.1172514e-07
1.1172696e-07
1.11729e-07
1.117309e-07
1.11733e-07
1.117349e-07
1.1173699e-07
1.5563229e-08
8.1825541e-08
1.0671968e-07
1.1111485e-07
1.1211296e-07
1.1235043e-07
1.1241211e-07
1.1242929e-07
1.1243374e-07
1.1243408e-07
1.1243299e-07
1.1243134e-07
1.1242953e-07
1.1242763e-07
1.1242579e-07
1.1242396e-07
1.1242227e-07
1.1242061e-07
1.1241912e-07
1.1241764e-07
1.1241634e-07
1.1241506e-07
1.1241396e-07
1.1241286e-07
1.1241195e-07
1.1241104e-07
1.1241034e-07
1.124096e-07
1.1240909e-07
1.1240853e-07
1.1240819e-07
1.1240778e-07
1.124077e-07
1.1240754e-07
1.1240769e-07
1.1240764e-07
1.1240798e-07
1.1240804e-07
1.1240848e-07
1.1240879e-07
1.1240936e-07
1.1240986e-07
1.1241059e-07
1.1241123e-07
1.1241211e-07
1.124129e-07
1.1241391e-07
1.1241484e-07
1.1241597e-07
1.1241701e-07
1.1241827e-07
1.124194e-07
1.1242074e-07
1.1242195e-07
1.1242335e-07
1.1242459e-07
1.1242601e-07
1.1242723e-07
1.1242861e-07
2.1967024e-08
9.702985e-08
1.1098387e-07
1.127426e-07
1.1308549e-07
1.1315846e-07
1.1317604e-07
1.1318044e-07
1.1318112e-07
1.1318065e-07
1.1317974e-07
1.1317871e-07
1.1317761e-07
1.1317652e-07
1.1317547e-07
1.1317445e-07
1.1317349e-07
1.1317257e-07
1.1317173e-07
1.131709e-07
1.1317017e-07
1.1316944e-07
1.1316884e-07
1.131682e-07
1.1316771e-07
1.1316716e-07
1.1316679e-07
1.1316633e-07
1.1316608e-07
1.131657e-07
1.1316557e-07
1.1316528e-07
1.1316528e-07
1.1316509e-07
1.1316523e-07
1.1316508e-07
1.1316538e-07
1.1316528e-07
1.1316559e-07
1.1316565e-07
1.1316605e-07
1.1316619e-07
1.1316669e-07
1.131669e-07
1.1316747e-07
1.1316776e-07
1.1316841e-07
1.1316877e-07
1.1316948e-07
1.131699e-07
1.1317066e-07
1.1317113e-07
1.1317193e-07
1.1317244e-07
1.1317324e-07
1.1317377e-07
1.1317456e-07
1.1317508e-07
1.1317581e-07
1.0300114e-07
1.0297507e-07
1.0295701e-07
1.0294652e-07
1.0293689e-07
1.0292823e-07
1.0291976e-07
1.029115e-07
1.0290344e-07
1.0289553e-07
1.0288782e-07
1.028803e-07
1.0287298e-07
1.0286588e-07
1.0285903e-07
1.0285242e-07
1.028461e-07
1.0284008e-07
1.0283438e-07
1.0282903e-07
1.0282406e-07
1.0281948e-07
1.0281534e-07
1.0281164e-07
1.0280841e-07
1.0280566e-07
1.028034e-07
1.0280166e-07
1.0280047e-07
1.0279982e-07
1.0279964e-07
1.0279981e-07
1.0280009e-07
1.028001e-07
1.0279917e-07
1.0279604e-07
1.027884e-07
1.0277199e-07
1.0273918e-07
1.026765e-07
1.0256092e-07
1.0235414e-07
1.0199446e-07
1.0138606e-07
1.0038656e-07
9.8795664e-08
9.6351573e-08
9.2743446e-08
8.7632729e-08
8.0624057e-08
7.1250336e-08
5.9224955e-08
4.4893636e-08
2.9673564e-08
1.6027171e-08
6.4466808e-09
1.8104835e-09
6.9991151e-10
8.1562847e-10
1.0311782e-07
1.030933e-07
1.0307677e-07
1.0306642e-07
1.0305697e-07
1.0304822e-07
1.0303971e-07
1.030314e-07
1.0302329e-07
1.0301535e-07
1.0300761e-07
1.0300006e-07
1.0299273e-07
1.0298562e-07
1.0297876e-07
1.0297216e-07
1.0296584e-07
1.0295982e-07
1.0295413e-07
1.0294879e-07
1.0294383e-07
1.0293927e-07
1.0293514e-07
1.0293145e-07
1.0292824e-07
1.0292551e-07
1.0292327e-07
1.0292154e-07
1.0292036e-07
1.0291972e-07
1.0291957e-07
1.0291979e-07
1.0292018e-07
1.0292039e-07
1.0291983e-07
1.0291741e-07
1.0291112e-07
1.0289725e-07
1.0286912e-07
1.0281491e-07
1.0271425e-07
1.0253298e-07
1.0221556e-07
1.0167474e-07
1.0077887e-07
9.9339185e-08
9.7102675e-08
9.3759291e-08
8.896366e-08
8.2320082e-08
7.334107e-08
6.164797e-08
4.742662e-08
3.1934361e-08
1.7622729e-08
7.2326571e-09
2.0065447e-09
6.6456899e-10
7.3256167e-10
1.0324679e-07
1.0322366e-07
1.0320854e-07
1.0319827e-07
1.0318892e-07
1.031801e-07
1.0317155e-07
1.0316318e-07
1.0315503e-07
1.0314706e-07
1.0313929e-07
1.0313172e-07
1.0312438e-07
1.0311727e-07
1.031104e-07
1.0310381e-07
1.030975e-07
1.0309149e-07
1.0308582e-07
1.030805e-07
1.0307557e-07
1.0307103e-07
1.0306693e-07
1.0306327e-07
1.0306008e-07
1.0305737e-07
1.0305516e-07
1.0305344e-07
1.0305227e-07
1.0305165e-07
1.0305153e-07
1.030518e-07
1.0305228e-07
1.0305267e-07
1.0305246e-07
1.030507e-07
1.0304567e-07
1.0303418e-07
1.0301047e-07
1.0296426e-07
1.0287779e-07
1.0272096e-07
1.0244437e-07
1.0196944e-07
1.0117578e-07
9.9887359e-08
9.7862099e-08
9.4793447e-08
9.0329486e-08
8.4072157e-08
7.5521611e-08
6.4213539e-08
5.0165526e-08
3.444516e-08
1.9452642e-08
8.1704258e-09
2.2597818e-09
6.4103146e-10
6.5624792e-10
1.0338917e-07
1.0336728e-07
1.0335342e-07
1.033432e-07
1.033339e-07
1.03325e-07
1.033164e-07
1.0330799e-07
1.032998e-07
1.0329179e-07
1.03284e-07
1.0327642e-07
1.0326907e-07
1.0326196e-07
1.0325511e-07
1.0324852e-07
1.0324223e-07
1.0323625e-07
1.032306e-07
1.0322531e-07
1.0322041e-07
1.0321591e-07
1.0321183e-07
1.032082e-07
1.0320504e-07
1.0320236e-07
1.0320017e-07
1.0319848e-07
1.0319733e-07
1.0319672e-07
1.0319663e-07
1.0319695e-07
1.0319752e-07
1.0319807e-07
1.0319818e-07
1.0319703e-07
1.0319317e-07
1.0318389e-07
1.0316428e-07
1.0312557e-07
1.0305244e-07
1.0291874e-07
1.0268113e-07
1.022697e-07
1.0157571e-07
1.0043696e-07
9.8624481e-08
9.5838414e-08
9.172186e-08
8.5871413e-08
7.7781789e-08
6.6913474e-08
5.3110887e-08
3.7221776e-08
2.1546213e-08
9.2885077e-09
2.5842034e-09
6.3187222e-10
5.8940861e-10
1.0354628e-07
1.0352563e-07
1.0351278e-07
1.035026e-07
1.0349331e-07
1.0348435e-07
1.034757e-07
1.0346724e-07
1.0345902e-07
1.0345098e-07
1.0344318e-07
1.0343559e-07
1.0342825e-07
1.0342114e-07
1.0341431e-07
1.0340774e-07
1.0340149e-07
1.0339553e-07
1.0338993e-07
1.0338467e-07
1.0337981e-07
1.0337534e-07
1.0337131e-07
1.0336772e-07
1.0336459e-07
1.0336193e-07
1.0335978e-07
1.0335812e-07
1.0335698e-07
1.0335639e-07
1.0335633e-07
1.0335669e-07
1.0335735e-07
1.0335805e-07
1.0335845e-07
1.0335786e-07
1.0335507e-07
1.0334782e-07
1.0333199e-07
1.033002e-07
1.0323947e-07
1.0312743e-07
1.0292659e-07
1.0257569e-07
1.0197788e-07
1.009857e-07
9.9385473e-08
9.6887634e-08
9.3133344e-08
8.771097e-08
8.0113927e-08
6.9742019e-08
5.6265948e-08
4.0284288e-08
2.3939631e-08
1.0623194e-08
2.9983067e-09
6.3954335e-10
5.3027703e-10
1.0371959e-07
1.0370029e-07
1.0368819e-07
1.0367807e-07
1.0366876e-07
1.0365975e-07
1.0365105e-07
1.0364255e-07
1.036343e-07
1.0362624e-07
1.0361844e-07
1.0361085e-07
1.0360353e-07
1.0359644e-07
1.0358964e-07
1.0358311e-07
1.0357689e-07
1.0357098e-07
1.0356542e-07
1.0356021e-07
1.035554e-07
1.0355098e-07
1.03547e-07
1.0354345e-07
1.0354037e-07
1.0353774e-07
1.0353562e-07
1.0353399e-07
1.0353288e-07
1.0353231e-07
1.0353227e-07
1.0353267e-07
1.035334e-07
1.0353424e-07
1.035349e-07
1.0353482e-07
1.03533e-07
1.0352758e-07
1.0351519e-07
1.0348971e-07
1.0344035e-07
1.033483e-07
1.031817e-07
1.0288775e-07
1.0238157e-07
1.0153118e-07
1.0014022e-07
9.7933265e-08
9.4554053e-08
8.9581351e-08
8.2507384e-08
7.2689051e-08
5.9628916e-08
4.3649697e-08
2.6671155e-08
1.2217391e-08
3.5261271e-09
6.6817378e-10
4.786786e-10
1.0391103e-07
1.038931e-07
1.0388153e-07
1.0387145e-07
1.0386211e-07
1.0385305e-07
1.0384431e-07
1.0383577e-07
1.0382751e-07
1.0381945e-07
1.0381166e-07
1.0380408e-07
1.0379679e-07
1.0378974e-07
1.0378298e-07
1.037765e-07
1.0377034e-07
1.0376448e-07
1.0375899e-07
1.0375384e-07
1.0374909e-07
1.0374473e-07
1.0374081e-07
1.0373731e-07
1.0373428e-07
1.037317e-07
1.0372962e-07
1.0372802e-07
1.0372694e-07
1.0372639e-07
1.0372637e-07
1.0372681e-07
1.037276e-07
1.0372856e-07
1.0372945e-07
1.0372982e-07
1.0372886e-07
1.0372507e-07
1.0371575e-07
1.0369594e-07
1.0365683e-07
1.0358296e-07
1.0344776e-07
1.032066e-07
1.0278644e-07
1.0207128e-07
1.0088386e-07
9.8966772e-08
9.5972084e-08
9.147046e-08
8.4949141e-08
7.5740456e-08
6.31927e-08
4.7331077e-08
2.9780622e-08
1.4121602e-08
4.1988398e-09
7.2371381e-10
4.3403568e-10
1.0412275e-07
1.0410619e-07
1.0409494e-07
1.040849e-07
1.0407552e-07
1.0406642e-07
1.0405764e-07
1.0404909e-07
1.0404083e-07
1.0403278e-07
1.0402502e-07
1.0401748e-07
1.0401023e-07
1.0400324e-07
1.0399654e-07
1.0399013e-07
1.0398404e-07
1.0397826e-07
1.0397284e-07
1.0396777e-07
1.039631e-07
1.0395882e-07
1.0395497e-07
1.0395154e-07
1.0394857e-07
1.0394604e-07
1.0394401e-07
1.0394244e-07
1.0394139e-07
1.0394086e-07
1.0394087e-07
1.0394134e-07
1.0394218e-07
1.0394324e-07
1.0394433e-07
1.0394508e-07
1.0394487e-07
1.0394251e-07
1.0393588e-07
1.0392106e-07
1.0389104e-07
1.0383338e-07
1.0372646e-07
1.0353337e-07
1.031926e-07
1.0260432e-07
1.0161173e-07
9.9979151e-08
9.7373554e-08
9.3362609e-08
8.7423227e-08
7.8877438e-08
6.6943353e-08
5.1335248e-08
3.3307614e-08
1.6394217e-08
5.056692e-09
8.1500069e-10
3.9613118e-10
1.0435731e-07
1.0434196e-07
1.0433094e-07
1.0432093e-07
1.0431151e-07
1.0430238e-07
1.042936e-07
1.0428505e-07
1.042768e-07
1.0426879e-07
1.0426107e-07
1.042536e-07
1.0424642e-07
1.042395e-07
1.042329e-07
1.0422657e-07
1.0422058e-07
1.042149e-07
1.0420958e-07
1.0420461e-07
1.0420004e-07
1.0419585e-07
1.0419209e-07
1.0418874e-07
1.0418584e-07
1.0418338e-07
1.041814e-07
1.0417988e-07
1.0417886e-07
1.0417835e-07
1.0417838e-07
1.0417887e-07
1.0417976e-07
1.041809e-07
1.0418215e-07
1.0418322e-07
1.0418364e-07
1.041825e-07
1.0417817e-07
1.0416764e-07
1.041455e-07
1.0410201e-07
1.0402002e-07
1.0386981e-07
1.0360087e-07
1.0312935e-07
1.023198e-07
1.0096151e-07
9.8743211e-08
9.5238137e-08
8.9910171e-08
8.2076441e-08
7.0859049e-08
5.5660525e-08
3.728917e-08
1.9101489e-08
6.1512832e-09
9.5502992e-10
3.649003e-10
1.0461766e-07
1.0460334e-07
1.045925e-07
1.0458251e-07
1.0457306e-07
1.0456392e-07
1.0455514e-07
1.0454661e-07
1.0453841e-07
1.0453046e-07
1.0452282e-07
1.0451543e-07
1.0450836e-07
1.0450155e-07
1.0449506e-07
1.0448885e-07
1.0448299e-07
1.0447743e-07
1.0447225e-07
1.044674e-07
1.0446296e-07
1.0445888e-07
1.0445524e-07
1.0445198e-07
1.0444918e-07
1.044468e-07
1.0444488e-07
1.0444341e-07
1.0444244e-07
1.0444194e-07
1.0444199e-07
1.044425e-07
1.0444342e-07
1.0444461e-07
1.0444599e-07
1.0444731e-07
1.0444825e-07
1.044481e-07
1.0444569e-07
1.0443876e-07
1.0442326e-07
1.0439182e-07
1.0433128e-07
1.0421841e-07
1.0401296e-07
1.0364646e-07
1.0300517e-07
1.0190577e-07
1.0006534e-07
9.7073664e-08
9.2385638e-08
8.5309192e-08
7.4909154e-08
6.0294111e-08
4.1756747e-08
2.2316759e-08
7.54804e-09
1.1629381e-09
3.4064467e-10
1.0490723e-07
1.048938e-07
1.048831e-07
1.0487312e-07
1.0486366e-07
1.0485452e-07
1.0484577e-07
1.0483731e-07
1.0482919e-07
1.0482133e-07
1.0481381e-07
1.0480655e-07
1.0479962e-07
1.0479295e-07
1.0478663e-07
1.0478058e-07
1.0477488e-07
1.0476949e-07
1.0476447e-07
1.0475978e-07
1.047555e-07
1.0475156e-07
1.0474806e-07
1.0474493e-07
1.0474225e-07
1.0473995e-07
1.0473812e-07
1.047367e-07
1.0473578e-07
1.047353e-07
1.0473537e-07
1.0473589e-07
1.0473682e-07
1.0473804e-07
1.047395e-07
1.0474101e-07
1.0474234e-07
1.0474298e-07
1.047421e-07
1.0473807e-07
1.0472801e-07
1.0470651e-07
1.0466387e-07
1.0458259e-07
1.044317e-07
1.0415719e-07
1.0366661e-07
1.0280555e-07
1.0132504e-07
9.8843382e-08
9.4818774e-08
8.8542654e-08
7.9053639e-08
6.5209322e-08
4.673226e-08
2.6118877e-08
9.3286857e-09
1.4668304e-09
3.2416497e-10
1.0523018e-07
1.0521752e-07
1.0520689e-07
1.0519692e-07
1.0518746e-07
1.0517837e-07
1.0516968e-07
1.0516132e-07
1.0515332e-07
1.0514562e-07
1.0513825e-07
1.0513118e-07
1.0512444e-07
1.0511798e-07
1.0511186e-07
1.0510603e-07
1.0510054e-07
1.0509537e-07
1.0509056e-07
1.0508609e-07
1.0508199e-07
1.0507826e-07
1.0507492e-07
1.0507196e-07
1.0506941e-07
1.0506724e-07
1.0506549e-07
1.0506416e-07
1.0506327e-07
1.0506282e-07
1.050629e-07
1.0506342e-07
1.0506433e-07
1.0506556e-07
1.0506705e-07
1.0506868e-07
1.0507027e-07
1.0507149e-07
1.0507177e-07
1.0507e-07
1.0506418e-07
1.0505058e-07
1.0502234e-07
1.0496687e-07
1.0486135e-07
1.0466487e-07
1.0430519e-07
1.0365717e-07
1.0250979e-07
1.005213e-07
9.7171756e-08
9.173791e-08
8.3243057e-08
7.0362838e-08
5.2223271e-08
3.0589714e-08
1.1593398e-08
1.9076524e-09
3.1702827e-10
1.0559148e-07
1.0557943e-07
1.0556885e-07
1.0555889e-07
1.0554946e-07
1.0554046e-07
1.0553188e-07
1.0552368e-07
1.0551586e-07
1.0550837e-07
1.0550123e-07
1.0549442e-07
1.0548793e-07
1.0548176e-07
1.0547591e-07
1.0547037e-07
1.0546516e-07
1.0546028e-07
1.0545574e-07
1.0545153e-07
1.0544769e-07
1.054442e-07
1.0544108e-07
1.0543833e-07
1.0543594e-07
1.0543393e-07
1.0543229e-07
1.0543106e-07
1.0543022e-07
1.054298e-07
1.0542987e-07
1.0543039e-07
1.0543127e-07
1.0543247e-07
1.0543393e-07
1.0543559e-07
1.0543732e-07
1.0543893e-07
1.0544e-07
1.0543987e-07
1.054372e-07
1.0542957e-07
1.054124e-07
1.0537713e-07
1.053078e-07
1.0517499e-07
1.0492489e-07
1.0446066e-07
1.0361132e-07
1.0208426e-07
9.9402412e-08
9.4846789e-08
8.74193e-08
7.5692262e-08
5.821696e-08
3.5811155e-08
1.44626e-08
2.5442089e-09
3.224736e-10
1.0599728e-07
1.0598567e-07
1.059751e-07
1.0596517e-07
1.0595581e-07
1.0594695e-07
1.0593855e-07
1.0593058e-07
1.0592301e-07
1.0591583e-07
1.05909e-07
1.0590254e-07
1.058964e-07
1.058906e-07
1.0588511e-07
1.0587996e-07
1.0587512e-07
1.0587062e-07
1.0586642e-07
1.0586258e-07
1.0585905e-07
1.0585588e-07
1.0585303e-07
1.0585055e-07
1.0584838e-07
1.0584657e-07
1.0584507e-07
1.0584395e-07
1.0584317e-07
1.0584278e-07
1.0584285e-07
1.0584335e-07
1.0584416e-07
1.0584529e-07
1.0584666e-07
1.0584827e-07
1.0585001e-07
1.0585179e-07
1.0585334e-07
1.0585427e-07
1.0585375e-07
1.0585035e-07
1.058412e-07
1.0582089e-07
1.0577899e-07
1.0569569e-07
1.0553327e-07
1.0522095e-07
1.0462754e-07
1.0351551e-07
1.0146988e-07
9.7809284e-08
9.1516514e-08
8.1114923e-08
6.4673137e-08
4.186215e-08
1.8080451e-08
3.4579948e-09
3.4735358e-10
8.9215093e-10
9.3102261e-10
9.7500642e-10
1.0151951e-09
1.0490422e-09
1.0761463e-09
1.0966009e-09
1.1108548e-09
1.1194699e-09
1.1229847e-09
1.1218572e-09
1.116392e-09
1.1067639e-09
1.0929735e-09
1.0748964e-09
1.0522542e-09
1.0246835e-09
9.9173286e-10
9.529419e-10
9.0786528e-10
8.5620106e-10
7.9773124e-10
7.3285895e-10
6.619751e-10
5.8587409e-10
5.0618064e-10
4.2482603e-10
3.4413554e-10
2.6672651e-10
1.9531391e-10
1.3248646e-10
8.0486865e-11
4.1013322e-11
1.5028985e-11
2.9377078e-12
6.275447e-12
2.084613e-11
4.6283377e-11
8.1126072e-11
1.2353815e-10
1.7162376e-10
2.2358433e-10
2.7781165e-10
3.3292938e-10
3.8779778e-10
4.4152131e-10
4.9343055e-10
5.4305174e-10
5.9006926e-10
6.34285e-10
6.7560745e-10
7.1403661e-10
7.4963375e-10
7.825004e-10
8.1276589e-10
8.4057515e-10
8.6608433e-10
8.8946018e-10
9.1086412e-10
9.3044676e-10
9.4835289e-10
9.6472045e-10
9.7967918e-10
9.9334872e-10
1.0058402e-09
1.0172568e-09
1.0276924e-09
1.0372304e-09
1.0459472e-09
1.0539121e-09
1.0611882e-09
1.067824e-09
1.073872e-09
1.0793118e-09
7.6200912e-10
8.1451077e-10
8.6528635e-10
9.1138254e-10
9.5154412e-10
9.8534106e-10
1.012883e-09
1.0342132e-09
1.0496084e-09
1.0594872e-09
1.064308e-09
1.0644648e-09
1.0602456e-09
1.051794e-09
1.0391128e-09
1.0220549e-09
1.0003525e-09
9.7363388e-10
9.41474e-10
9.034346e-10
8.5915327e-10
8.0835603e-10
7.5115303e-10
6.8783198e-10
6.1898511e-10
5.4579238e-10
4.6984998e-10
3.931241e-10
3.178583e-10
2.4638887e-10
1.8089181e-10
1.2377501e-10
7.9703144e-11
4.638985e-11
2.5203128e-11
1.6441565e-11
1.8349032e-11
3.0326929e-11
5.1748569e-11
8.0902325e-11
1.1618548e-10
1.5607823e-10
1.9916673e-10
2.4420023e-10
2.9010762e-10
3.3598608e-10
3.8096301e-10
4.2454034e-10
4.663459e-10
5.0627942e-10
5.4418451e-10
5.7994821e-10
6.1352939e-10
6.4493909e-10
6.7422359e-10
7.0145542e-10
7.267238e-10
7.501295e-10
7.717807e-10
7.9178581e-10
8.1025291e-10
8.2728707e-10
8.4299003e-10
8.5745896e-10
8.7078539e-10
8.8304101e-10
8.9428053e-10
9.045917e-10
9.1405263e-10
9.2273552e-10
9.3070512e-10
9.3802108e-10
9.4473856e-10
9.5090089e-10
1.4656111e-09
1.2565561e-09
1.1322994e-09
1.0607185e-09
1.022044e-09
1.0048324e-09
1.0073909e-09
1.0153353e-09
1.0241875e-09
1.0319784e-09
1.0378262e-09
1.0411385e-09
1.041504e-09
1.0386658e-09
1.0324295e-09
1.0225914e-09
1.0088923e-09
9.9100235e-10
9.6853047e-10
9.4104603e-10
9.081277e-10
8.6939793e-10
8.2466191e-10
7.739166e-10
7.1738297e-10
6.556651e-10
5.8974423e-10
5.2095325e-10
4.5089867e-10
3.8128779e-10
3.1334581e-10
2.4786056e-10
1.9233767e-10
1.464396e-10
1.1034494e-10
8.4068857e-11
6.7022148e-11
5.8701887e-11
5.8377275e-11
6.5089187e-11
7.8220902e-11
9.7149209e-11
1.2030837e-10
1.4668606e-10
1.7536833e-10
2.0554965e-10
2.3650762e-10
2.676525e-10
2.9851519e-10
3.287641e-10
3.5814479e-10
3.8646487e-10
4.1358744e-10
4.3942309e-10
4.6392036e-10
4.8705932e-10
5.0884301e-10
5.2923748e-10
5.4826162e-10
5.6598016e-10
5.8246078e-10
5.9777162e-10
6.1198124e-10
6.2515669e-10
6.3736359e-10
6.4866469e-10
6.591283e-10
6.6881705e-10
6.777831e-10
6.8607579e-10
6.9374261e-10
7.0082948e-10
7.0738017e-10
7.1343059e-10
4.7502109e-09
3.5724355e-09
2.763537e-09
2.2085532e-09
1.8273324e-09
1.5659493e-09
1.390554e-09
1.2728302e-09
1.1936591e-09
1.1402117e-09
1.1083361e-09
1.0884887e-09
1.0742624e-09
1.0628094e-09
1.0524343e-09
1.0419935e-09
1.0304819e-09
1.0170956e-09
1.0011519e-09
9.8204213e-10
9.5921408e-10
9.3217379e-10
9.0052867e-10
8.6402999e-10
8.2258093e-10
7.7631498e-10
7.2561242e-10
6.7109372e-10
6.1353046e-10
5.5363335e-10
4.9167204e-10
4.2946725e-10
3.7196296e-10
3.2022627e-10
2.7487407e-10
2.3620108e-10
2.0418222e-10
1.7868888e-10
1.5939557e-10
1.4578153e-10
1.3737793e-10
1.3369505e-10
1.340554e-10
1.3784236e-10
1.4448256e-10
1.5367974e-10
1.6510604e-10
1.7795419e-10
1.9177809e-10
2.062338e-10
2.2103797e-10
2.3595626e-10
2.5079756e-10
2.6540881e-10
2.7966973e-10
2.9348901e-10
3.0679965e-10
3.1954918e-10
3.31703e-10
3.4324136e-10
3.5415773e-10
3.6445474e-10
3.7414246e-10
3.8323664e-10
3.9175686e-10
3.9972572e-10
4.0716825e-10
4.1411074e-10
4.205793e-10
4.2660074e-10
4.3220082e-10
4.3740554e-10
4.4224033e-10
4.4672594e-10
1.2060256e-08
9.0665584e-09
6.8569831e-09
5.2457175e-09
4.0772369e-09
3.2316647e-09
2.6220338e-09
2.1823716e-09
1.8646486e-09
1.6344744e-09
1.469327e-09
1.35079e-09
1.2648196e-09
1.2015537e-09
1.1563223e-09
1.1234766e-09
1.0969786e-09
1.0743159e-09
1.0536993e-09
1.033738e-09
1.0132971e-09
9.9145509e-10
9.6747506e-10
9.4080509e-10
9.1105336e-10
8.7801282e-10
8.4165563e-10
8.021196e-10
7.5964827e-10
7.1447301e-10
6.6665001e-10
6.1688164e-10
5.6792545e-10
5.2148899e-10
4.7830234e-10
4.3883351e-10
4.0332393e-10
3.7186729e-10
3.4442454e-10
3.2082985e-10
3.0086468e-10
2.8427889e-10
2.707612e-10
2.599859e-10
2.5163379e-10
2.4543488e-10
2.4114114e-10
2.384643e-10
2.3714207e-10
2.3694301e-10
2.376641e-10
2.391283e-10
2.4118212e-10
2.4369316e-10
2.4654905e-10
2.4968059e-10
2.5305366e-10
2.5658916e-10
2.6019954e-10
2.6381706e-10
2.6739316e-10
2.7089279e-10
2.7429053e-10
2.7756836e-10
2.8071355e-10
2.8371797e-10
2.8657678e-10
2.8928802e-10
2.9185173e-10
2.9426974e-10
2.965452e-10
2.9868222e-10
3.0068576e-10
3.0256013e-10
2.330098e-08
1.8104259e-08
1.3991033e-08
1.0806603e-08
8.3783258e-09
6.5440026e-09
5.1670549e-09
4.1364403e-09
3.3653691e-09
2.787896e-09
2.3558215e-09
2.0324062e-09
1.7896527e-09
1.6066465e-09
1.4688499e-09
1.3648937e-09
1.2853098e-09
1.2232768e-09
1.174811e-09
1.1359599e-09
1.103262e-09
1.0743321e-09
1.047458e-09
1.0214068e-09
9.9526968e-10
9.6840629e-10
9.4039398e-10
9.1099562e-10
8.80116e-10
8.4773671e-10
8.1383513e-10
7.7854316e-10
7.4262751e-10
7.0714235e-10
6.7305072e-10
6.4089531e-10
6.1092263e-10
5.8326309e-10
5.5795984e-10
5.349826e-10
5.1425107e-10
4.9565311e-10
4.7905072e-10
4.6429127e-10
4.5121681e-10
4.3967567e-10
4.2952471e-10
4.2062385e-10
4.128393e-10
4.0604643e-10
4.0013094e-10
3.9498914e-10
3.9052746e-10
3.866619e-10
3.8331756e-10
3.8042932e-10
3.7794125e-10
3.7580321e-10
3.739694e-10
3.7239871e-10
3.7105432e-10
3.699048e-10
3.6892261e-10
3.6808378e-10
3.6736755e-10
3.66756e-10
3.6623371e-10
3.6578744e-10
3.6540583e-10
3.6507915e-10
3.6479903e-10
3.645584e-10
3.64351e-10
3.6417185e-10
3.6878474e-08
2.9835619e-08
2.3859015e-08
1.8933777e-08
1.4968896e-08