/*--------------------------------*- C++ -*----------------------------------*\
| =========                 |                                                 |
| \\      /  F ield         | OpenFOAM: The Open Source CFD Toolbox           |
|  \\    /   O peration     | Version:  v2006                                 |
|   \\  /    A nd           | Website:  www.openfoam.com                      |
|    \\/     M anipulation  |                                                 |
\*---------------------------------------------------------------------------*/
FoamFile
{
    version     2.0;
    format      ascii;
    class       volScalarField;
    location    "5000";
    object      Cp;
}
// * * * * * * * * * * * * * * * * * * * * * * * * * * * * * * * * * * * * * //

dimensions      [0 0 0 0 0 0 0];


internalField   nonuniform List<scalar> 
55713
(
0.0061476173
0.0061482683
0.0061481908
0.0061486296
0.0061485946
0.0061488567
0.0061488498
0.0061490102
0.0061490575
0.0061491508
0.0061492054
0.0061492599
0.006149296
0.0061493177
0.0061493323
0.0061493414
0.006149343
0.0061493371
0.0061493212
0.0061492933
0.0061492549
0.0061492098
0.006149162
0.0061491157
0.0061490723
0.0061490296
0.0061489867
0.0061489425
0.0061488975
0.0061488496
0.0061487981
0.0061487414
0.0061486779
0.0061486063
0.0061485309
0.0061484561
0.006148382
0.0061483041
0.006148221
0.0061481327
0.0061480403
0.0061479431
0.0061478405
0.0061477303
0.0061476125
0.0061474859
0.0061473509
0.0061472055
0.0061470504
0.006146884
0.0061467068
0.0061465159
0.0061463113
0.0061460897
0.006145853
0.0061455917
0.0061453118
0.0061450208
0.0061446067
0.0057268064
0.0057280109
0.0057279994
0.0057288353
0.0057289171
0.0057295146
0.0057296353
0.0057301146
0.005730236
0.0057306087
0.0057307208
0.0057310124
0.0057311131
0.0057313294
0.005731409
0.0057315606
0.0057316354
0.0057317636
0.0057318541
0.0057319656
0.0057320406
0.0057320797
0.0057320681
0.0057320225
0.0057319688
0.0057319201
0.0057318861
0.0057318636
0.0057318522
0.0057318573
0.0057318923
0.0057319677
0.0057320614
0.0057321707
0.005732272
0.0057323607
0.0057324389
0.0057325164
0.0057325941
0.0057326745
0.0057327568
0.0057328325
0.0057328995
0.0057329529
0.0057329961
0.0057330279
0.0057330555
0.0057330831
0.0057331102
0.0057331317
0.0057331492
0.00573316
0.0057331652
0.0057331619
0.0057331553
0.0057331415
0.0057331304
0.0057331123
0.0057330885
0.0053776708
0.005379129
0.0053792786
0.0053802527
0.0053805269
0.0053812296
0.0053815114
0.0053820666
0.0053823164
0.0053827596
0.0053829838
0.0053833507
0.0053835634
0.0053838697
0.0053840625
0.0053843062
0.0053844732
0.0053846744
0.0053848415
0.0053850396
0.0053852252
0.0053854192
0.0053855941
0.0053857509
0.0053858872
0.0053860013
0.0053861116
0.0053862055
0.0053863117
0.0053864106
0.0053865449
0.0053866818
0.005386863
0.005387028
0.0053872206
0.0053873672
0.0053875425
0.0053876719
0.0053878565
0.005387992
0.0053881901
0.0053883068
0.0053884883
0.0053885652
0.005388742
0.005388806
0.0053890149
0.0053890819
0.0053893292
0.0053893872
0.00538967
0.0053897094
0.005390032
0.0053900493
0.0053904208
0.0053904126
0.0053908581
0.0053908462
0.0053913433
0.0050688522
0.0050704018
0.0050706593
0.0050716736
0.005072048
0.0050727893
0.0050731485
0.0050737386
0.0050740503
0.0050745336
0.0050748103
0.0050752197
0.0050754834
0.005075847
0.0050761081
0.0050764324
0.005076681
0.0050769635
0.005077199
0.005077457
0.0050776974
0.0050779507
0.0050781987
0.0050784396
0.0050786769
0.0050788916
0.0050791109
0.0050793008
0.005079508
0.0050796809
0.0050798861
0.0050800548
0.0050802705
0.0050804393
0.0050806641
0.0050808249
0.0050810553
0.0050812081
0.0050814483
0.0050815889
0.00508183
0.0050819439
0.0050821853
0.005082283
0.0050825527
0.005082655
0.0050829679
0.0050830679
0.0050834184
0.0050835051
0.005083898
0.0050839702
0.0050844197
0.0050844808
0.0050850033
0.0050850486
0.00508567
0.005085683
0.0050864533
0.0048036113
0.0048051186
0.0048054336
0.0048064072
0.0048068248
0.0048075432
0.0048079342
0.0048085187
0.0048088599
0.0048093483
0.0048096483
0.0048100613
0.0048103357
0.0048107006
0.00481097
0.0048113087
0.0048115799
0.0048118951
0.0048121619
0.0048124524
0.0048127144
0.0048129864
0.0048132458
0.0048134991
0.0048137502
0.0048139815
0.004814224
0.0048144379
0.0048146753
0.0048148729
0.0048151031
0.0048152842
0.0048155107
0.0048156819
0.004815915
0.0048160833
0.0048163277
0.0048164907
0.0048167418
0.0048168915
0.0048171469
0.0048172843
0.0048175569
0.0048176953
0.0048179997
0.0048181397
0.0048184734
0.0048186031
0.0048189661
0.0048190853
0.0048194893
0.0048196028
0.0048200654
0.004820179
0.0048207194
0.0048208247
0.0048214736
0.0048215313
0.0048223647
0.0045745408
0.0045759252
0.0045762613
0.004577149
0.0045775668
0.0045782306
0.0045786177
0.004579171
0.0045795142
0.0045799842
0.0045802889
0.0045806878
0.0045809599
0.0045813038
0.0045815571
0.0045818661
0.0045821143
0.0045824015
0.0045826494
0.0045829189
0.0045831664
0.0045834206
0.0045836669
0.0045839046
0.0045841449
0.0045843632
0.0045845957
0.0045847977
0.0045850261
0.0045852154
0.0045854404
0.0045856175
0.0045858406
0.0045860089
0.0045862376
0.0045864027
0.0045866412
0.0045868015
0.0045870482
0.0045872012
0.0045874597
0.00458761
0.0045878892
0.0045880397
0.0045883416
0.0045884857
0.0045888079
0.0045889417
0.004589292
0.004589419
0.0045898083
0.0045899322
0.0045903768
0.0045905011
0.0045910185
0.0045911299
0.0045917527
0.0045918298
0.004592633
0.0043783663
0.004379566
0.0043798892
0.0043806545
0.0043810377
0.0043816179
0.0043819682
0.004382456
0.0043827691
0.0043831883
0.0043834706
0.004383832
0.0043840871
0.004384399
0.0043846311
0.0043849029
0.0043851185
0.00438536
0.0043855665
0.0043857875
0.0043859924
0.0043862013
0.0043864093
0.0043866095
0.0043868192
0.0043870081
0.0043872152
0.0043873908
0.0043875951
0.0043877601
0.0043879639
0.004388121
0.0043883265
0.0043884772
0.0043886876
0.0043888341
0.0043890519
0.0043891939
0.0043894207
0.0043895589
0.0043897984
0.0043899343
0.0043901898
0.004390322
0.0043905939
0.0043907192
0.0043910109
0.0043911302
0.0043914495
0.0043915639
0.0043919192
0.004392031
0.0043924347
0.0043925426
0.0043930065
0.0043930965
0.0043936579
0.0043936641
0.0043943727
0.00421268
0.0042136485
0.0042139411
0.0042145542
0.0042148782
0.0042153503
0.0042156384
0.0042160322
0.0042162877
0.0042166252
0.0042168573
0.0042171508
0.0042173647
0.0042176221
0.0042178204
0.004218046
0.0042182293
0.0042184259
0.0042185957
0.0042187692
0.004218932
0.0042190913
0.0042192543
0.0042194059
0.0042195722
0.0042197171
0.0042198848
0.0042200214
0.004220189
0.0042203174
0.0042204857
0.0042206078
0.0042207785
0.0042208947
0.0042210695
0.0042211803
0.0042213605
0.0042214662
0.0042216541
0.0042217551
0.004221953
0.0042220493
0.0042222589
0.0042223492
0.0042225729
0.0042226566
0.0042228984
0.0042229753
0.0042232402
0.0042233088
0.0042236031
0.0042236622
0.0042239927
0.0042240365
0.0042244081
0.0042244277
0.0042248545
0.004224831
0.0042253573
0.004080572
0.0040813265
0.0040815487
0.0040820212
0.0040822603
0.0040826354
0.0040828386
0.0040831508
0.0040833286
0.0040835955
0.0040837569
0.0040839904
0.0040841406
0.0040843481
0.0040844893
0.0040846758
0.0040848099
0.0040849774
0.0040851032
0.0040852524
0.0040853711
0.0040855059
0.0040856212
0.0040857462
0.0040858613
0.0040859805
0.0040860973
0.0040862111
0.0040863296
0.0040864383
0.0040865586
0.0040866628
0.0040867857
0.0040868857
0.0040870124
0.0040871083
0.00408724
0.0040873323
0.004087471
0.0040875602
0.0040877074
0.0040877927
0.0040879499
0.0040880313
0.0040882013
0.0040882783
0.0040884643
0.0040885361
0.0040887418
0.0040888072
0.0040890379
0.0040890936
0.0040893544
0.0040893957
0.0040896952
0.0040897164
0.0040900667
0.0040900472
0.0040904815
0.0039632907
0.0039639329
0.0039642628
0.0039646623
0.0039649583
0.0039652664
0.0039655176
0.0039657705
0.0039659881
0.0039662009
0.0039663951
0.0039665784
0.0039667548
0.0039669167
0.0039670838
0.0039672311
0.0039673922
0.0039675289
0.0039676849
0.003967811
0.003967961
0.0039680775
0.0039682225
0.0039683319
0.0039684742
0.0039685747
0.003968713
0.0039688069
0.0039689424
0.0039690305
0.003969164
0.0039692476
0.0039693801
0.0039694591
0.0039695915
0.0039696662
0.0039697993
0.00396987
0.0039700047
0.0039700711
0.0039702086
0.003970272
0.0039704146
0.0039704749
0.0039706236
0.0039706806
0.0039708356
0.0039708886
0.0039710502
0.0039710975
0.0039712661
0.0039713047
0.0039714799
0.0039715061
0.0039716852
0.0039716914
0.0039718649
0.0039718504
0.0039720256
0.0038147707
0.0038149191
0.0038151336
0.0038153131
0.0038154917
0.003815653
0.0038158012
0.0038159354
0.0038160562
0.0038161647
0.0038162618
0.0038163485
0.0038164266
0.0038164941
0.0038165523
0.0038166022
0.0038166452
0.0038166816
0.0038167126
0.003816737
0.0038167569
0.00381677
0.0038167801
0.0038167822
0.0038167819
0.0038167787
0.0038167724
0.0038167633
0.0038167512
0.0038167363
0.0038167187
0.0038166984
0.0038166751
0.0038166486
0.0038166186
0.0038165851
0.0038165474
0.0038165056
0.0038164591
0.003816408
0.0038163508
0.0038162868
0.0038162156
0.0038161367
0.0038160494
0.003815952
0.0038158435
0.0038157227
0.0038155879
0.0038154379
0.0038152712
0.0038150862
0.0038148812
0.0038146543
0.0038144055
0.0038141307
0.0038138442
0.0038135021
0.0038131567
0.0038793929
0.0038784321
0.0038779061
0.0038772109
0.0038766704
0.0038760885
0.0038756019
0.0038750966
0.0038746635
0.0038742194
0.0038738313
0.003873437
0.0038730878
0.0038727339
0.0038724169
0.0038720955
0.0038718055
0.0038715107
0.0038712431
0.0038709698
0.0038707205
0.0038704644
0.0038702296
0.0038699871
0.0038697638
0.0038695317
0.003869317
0.0038690926
0.0038688838
0.0038686644
0.0038684586
0.0038682424
0.0038680389
0.003867825
0.0038676227
0.0038674097
0.0038672076
0.0038669947
0.003866791
0.003866575
0.0038663673
0.003866148
0.0038659363
0.003865712
0.0038654912
0.0038652574
0.0038650357
0.0038647874
0.0038645595
0.0038642887
0.0038640486
0.0038637441
0.0038634772
0.0038631164
0.0038627994
0.0038623392
0.0038619162
0.0038612756
0.0038605803
0.0044217892
0.0044227184
0.0044227075
0.0044233091
0.004423304
0.0044237737
0.0044237755
0.0044241841
0.0044242075
0.0044245766
0.0044246218
0.0044249621
0.004425027
0.0044253451
0.0044254269
0.0044257271
0.0044258237
0.0044261097
0.0044262194
0.0044264942
0.0044266157
0.0044268817
0.0044270149
0.0044272752
0.0044274192
0.0044276759
0.0044278315
0.0044280874
0.0044282549
0.004428513
0.0044286933
0.0044289546
0.0044291478
0.0044294141
0.004429623
0.004429897
0.0044301252
0.00443041
0.0044306612
0.0044309607
0.0044312408
0.0044315607
0.0044318768
0.0044322216
0.0044325846
0.0044329704
0.0044333785
0.0044338122
0.0044342748
0.0044347709
0.0044353051
0.0044358826
0.0044365084
0.0044371932
0.0044379424
0.0044387573
0.0044396541
0.0044405445
0.0044417777
0.0023733589
0.0023758178
0.00237596
0.0023779181
0.0023781341
0.0023797153
0.0023799456
0.0023812446
0.002381469
0.0023825562
0.0023827683
0.0023836936
0.0023838935
0.0023846933
0.002384882
0.0023855841
0.0023857621
0.0023863858
0.0023865549
0.0023871155
0.0023872774
0.0023877869
0.0023879426
0.0023884097
0.0023885601
0.0023889921
0.0023891377
0.0023895404
0.0023896819
0.0023900597
0.0023901977
0.0023905556
0.0023906912
0.0023910306
0.0023911639
0.0023914858
0.0023916167
0.0023919217
0.0023920498
0.0023923376
0.0023924622
0.0023927318
0.0023928515
0.0023931005
0.0023932125
0.0023934382
0.0023935388
0.002393735
0.0023938193
0.0023939785
0.0023940401
0.0023941474
0.0023941766
0.0023942247
0.0023942307
0.0023942322
0.0023942142
0.0023941668
0.0023942224
0.023305196
0.023311077
0.023318517
0.02332513
0.023331992
0.023338617
0.023345203
0.023351674
0.023358055
0.023364337
0.023370519
0.0233766
0.023382578
0.02338845
0.023394215
0.023399869
0.02340541
0.023410836
0.023416143
0.023421328
0.023426389
0.02343132
0.02343612
0.023440785
0.023445311
0.023449696
0.02345394
0.023458044
0.023462
0.023465805
0.023469459
0.02347296
0.023476308
0.023479504
0.023482546
0.023485438
0.023488179
0.023490771
0.023493214
0.023495512
0.023497664
0.023499674
0.023501542
0.023503269
0.023504859
0.023506311
0.023507628
0.023508811
0.023509862
0.023510783
0.023511576
0.023512244
0.023512788
0.023513219
0.023513531
0.023513774
0.023513926
0.023514002
0.023514019
0.02132433
0.021329604
0.021336114
0.021341961
0.021347937
0.021353721
0.021359432
0.021365033
0.021370535
0.021375937
0.021381239
0.021386441
0.021391542
0.021396543
0.021401442
0.021406239
0.021410933
0.021415524
0.021420011
0.021424393
0.021428669
0.021432838
0.0214369
0.021440854
0.021444699
0.021448434
0.021452058
0.021455578
0.021458989
0.021462287
0.021465473
0.021468546
0.021471506
0.021474353
0.021477086
0.021479705
0.02148221
0.021484601
0.021486878
0.021489041
0.02149109
0.021493025
0.021494846
0.021496554
0.021498149
0.02149963
0.021500999
0.021502256
0.0215034
0.021504433
0.021505354
0.021506164
0.021506862
0.021507454
0.021507934
0.02150828
0.021508529
0.021508675
0.02150871
0.019534653
0.019539047
0.019544336
0.019549139
0.019553981
0.01955868
0.019563296
0.019567816
0.019572245
0.019576585
0.019580836
0.019585
0.019589077
0.019593068
0.019596974
0.019600793
0.019604528
0.019608177
0.01961174
0.019615218
0.01961861
0.019621916
0.019625136
0.01962827
0.019631317
0.019634278
0.01963715
0.019639938
0.019642645
0.019645263
0.019647793
0.019650234
0.019652587
0.019654851
0.019657026
0.019659112
0.019661109
0.019663016
0.019664834
0.019666563
0.019668202
0.019669752
0.019671213
0.019672585
0.019673867
0.019675061
0.019676166
0.019677181
0.019678108
0.019678946
0.019679695
0.019680355
0.019680925
0.019681412
0.01968179
0.019682081
0.019682285
0.019682407
0.019682433
0.017836383
0.017840205
0.01784461
0.01784868
0.017852718
0.017856644
0.017860481
0.017864229
0.017867892
0.017871472
0.017874971
0.017878392
0.017881736
0.017885003
0.017888196
0.017891314
0.01789436
0.017897332
0.017900233
0.017903062
0.017905819
0.017908505
0.01791112
0.017913664
0.017916137
0.01791854
0.017920871
0.017923133
0.017925329
0.017927456
0.017929511
0.017931496
0.01793341
0.017935253
0.017937025
0.017938726
0.017940357
0.017941916
0.017943405
0.017944823
0.017946169
0.017947445
0.01794865
0.017949783
0.017950846
0.017951837
0.017952757
0.017953606
0.017954383
0.017955087
0.017955719
0.017956277
0.017956765
0.017957177
0.017957492
0.017957744
0.01795792
0.017958026
0.017958049
0.016261387
0.016264678
0.016268265
0.016271653
0.016274959
0.016278179
0.016281309
0.01628436
0.016287332
0.01629023
0.016293056
0.016295813
0.016298502
0.016301125
0.016303684
0.01630618
0.016308615
0.016310988
0.016313302
0.016315557
0.016317753
0.016319891
0.016321972
0.016323996
0.016325963
0.016327874
0.016329729
0.016331527
0.016333274
0.016334968
0.016336605
0.016338188
0.016339715
0.016341186
0.016342603
0.016343965
0.016345271
0.016346522
0.016347718
0.016348859
0.016349944
0.016350975
0.016351949
0.016352868
0.016353732
0.01635454
0.016355291
0.016355986
0.016356624
0.016357204
0.016357726
0.01635819
0.016358598
0.016358927
0.016359195
0.016359407
0.016359555
0.016359647
0.016359665
0.014793308
0.014796207
0.014799135
0.014801971
0.014804696
0.014807349
0.014809917
0.014812413
0.014814837
0.014817193
0.014819486
0.014821717
0.014823889
0.014826003
0.014828063
0.014830068
0.014832021
0.014833924
0.014835776
0.014837579
0.014839334
0.014841042
0.014842703
0.014844318
0.014845887
0.014847411
0.01484889
0.014850324
0.014851717
0.01485307
0.014854378
0.014855643
0.014856865
0.014858043
0.014859179
0.014860272
0.014861322
0.014862328
0.014863292
0.014864213
0.014865092
0.014865927
0.014866718
0.014867467
0.014868172
0.014868833
0.01486945
0.014870022
0.014870549
0.01487103
0.014871464
0.014871854
0.014872189
0.014872462
0.014872689
0.014872869
0.014872995
0.014873074
0.014873089
0.013433866
0.013436412
0.013438797
0.01344115
0.013443387
0.013445559
0.013447654
0.013449683
0.013451647
0.013453552
0.013455399
0.013457192
0.013458934
0.013460627
0.013462272
0.013463871
0.013465426
0.013466939
0.01346841
0.01346984
0.013471232
0.013472585
0.0134739
0.013475178
0.013476419
0.013477625
0.013478795
0.01347993
0.013481033
0.013482104
0.013483141
0.013484144
0.013485114
0.013486051
0.013486954
0.013487825
0.013488662
0.013489467
0.013490239
0.013490977
0.013491683
0.013492355
0.013492995
0.0134936
0.013494172
0.01349471
0.013495213
0.013495682
0.013496114
0.013496511
0.013496871
0.013497194
0.01349746
0.013497692
0.013497882
0.013498035
0.01349814
0.01349821
0.013498221
0.012177141
0.012179324
0.012181282
0.012183227
0.012185062
0.012186839
0.012188545
0.012190192
0.012191781
0.012193317
0.012194802
0.012196241
0.012197634
0.012198985
0.012200296
0.012201567
0.012202802
0.012204001
0.012205165
0.012206296
0.012207395
0.012208463
0.012209501
0.012210508
0.012211487
0.012212437
0.01221336
0.012214255
0.012215123
0.012215968
0.012216787
0.012217581
0.012218348
0.01221909
0.012219807
0.012220498
0.012221165
0.012221806
0.012222422
0.012223013
0.012223579
0.01222412
0.012224635
0.012225125
0.012225588
0.012226026
0.012226436
0.01222682
0.012227175
0.012227503
0.012227802
0.012228056
0.012228281
0.012228476
0.012228636
0.012228766
0.012228854
0.012228916
0.012228924
0.011019403
0.011021238
0.011022851
0.011024452
0.011025956
0.011027405
0.011028791
0.011030124
0.011031405
0.011032639
0.011033829
0.011034978
0.011036088
0.011037162
0.011038201
0.011039207
0.011040182
0.011041127
0.011042044
0.011042933
0.011043796
0.011044634
0.011045448
0.011046237
0.011047004
0.011047749
0.011048471
0.011049173
0.011049853
0.011050516
0.011051159
0.011051782
0.011052386
0.01105297
0.011053536
0.011054082
0.011054609
0.011055117
0.011055607
0.011056077
0.011056529
0.011056961
0.011057374
0.011057768
0.011058142
0.011058496
0.011058829
0.011059142
0.011059433
0.011059701
0.011059934
0.011060146
0.011060334
0.011060497
0.011060631
0.011060742
0.011060814
0.01106087
0.011060875
0.0099561103
0.0099576459
0.0099589798
0.0099602964
0.0099615306
0.0099627121
0.0099638391
0.0099649175
0.0099659508
0.0099669427
0.0099678959
0.0099688132
0.009969697
0.0099705495
0.0099713725
0.0099721678
0.0099729368
0.009973681
0.0099744017
0.0099751
0.0099757768
0.0099764332
0.0099770699
0.0099776877
0.0099782874
0.0099788695
0.0099794346
0.0099799832
0.0099805157
0.0099810344
0.009981539
0.009982028
0.0099825026
0.0099829626
0.0099834083
0.0099838398
0.0099842571
0.0099846603
0.0099850494
0.0099854245
0.0099857854
0.0099861321
0.0099864643
0.0099867818
0.0099870846
0.0099873722
0.0099876444
0.0099879006
0.0099881364
0.0099883472
0.0099885427
0.0099887198
0.0099888772
0.0099890148
0.0099891282
0.0099892243
0.0099892832
0.0099893358
0.0099893383
0.0089843449
0.0089856228
0.0089867288
0.008987809
0.0089888204
0.0089897823
0.0089906963
0.0089915669
0.0089923978
0.0089931923
0.008993953
0.0089946827
0.0089953834
0.0089960573
0.0089967061
0.0089973315
0.0089979349
0.0089985178
0.0089990811
0.0089996261
0.0090001536
0.0090006647
0.00900116
0.0090016404
0.0090021063
0.0090025587
0.0090029978
0.0090034245
0.0090038385
0.0090042422
0.0090046355
0.0090050172
0.0090053881
0.0090057482
0.0090060976
0.0090064367
0.0090067653
0.0090070836
0.0090073916
0.0090076893
0.0090079766
0.0090082535
0.0090085196
0.0090087751
0.0090090197
0.0090092529
0.0090094718
0.0090096717
0.0090098592
0.0090100346
0.0090101962
0.0090103437
0.0090104752
0.0090105912
0.0090106864
0.0090107698
0.0090108163
0.0090108676
0.0090108691
0.0080928764
0.0080939331
0.0080948546
0.0080957395
0.0080965687
0.0080973527
0.0080980949
0.0080987987
0.0080994679
0.008100105
0.0081007128
0.0081012936
0.0081018495
0.0081023822
0.0081028935
0.0081033849
0.0081038576
0.008104313
0.0081047521
0.0081051759
0.0081055854
0.0081059814
0.0081063646
0.0081067358
0.0081070955
0.0081074445
0.0081077831
0.008108112
0.0081084311
0.0081087424
0.0081090462
0.008109341
0.0081096279
0.0081099066
0.0081101775
0.0081104405
0.0081106959
0.0081109436
0.0081111837
0.0081114162
0.008111641
0.0081118579
0.0081120668
0.0081122677
0.0081124593
0.0081126367
0.0081128056
0.0081129659
0.0081131168
0.0081132582
0.0081133887
0.0081135086
0.0081136156
0.0081137112
0.0081137887
0.0081138602
0.0081138943
0.0081139466
0.0081139348
0.0072712454
0.0072721052
0.007272894
0.0072736362
0.0072743303
0.0072749828
0.0072755984
0.0072761796
0.0072767303
0.0072772528
0.0072777497
0.007278223
0.0072786748
0.0072791067
0.0072795203
0.007279917
0.0072802981
0.0072806646
0.0072810174
0.0072813577
0.007281686
0.0072820033
0.00728231
0.0072826069
0.0072828946
0.0072831737
0.0072834444
0.0072837073
0.0072839623
0.007284211
0.0072844538
0.0072846897
0.0072849194
0.0072851431
0.0072853609
0.0072855731
0.0072857797
0.0072859812
0.0072861774
0.0072863684
0.0072865526
0.0072867292
0.0072868976
0.0072870571
0.0072872078
0.0072873533
0.0072874925
0.0072876256
0.0072877517
0.0072878714
0.0072879826
0.0072880869
0.0072881809
0.0072882674
0.0072883379
0.0072884082
0.0072884388
0.0072885015
0.0072885029
0.0066255435
0.0066261751
0.0066267728
0.006627344
0.0066278802
0.0066283843
0.0066288613
0.0066293115
0.006629738
0.0066301422
0.0066305264
0.0066308916
0.0066312395
0.0066315712
0.006631888
0.006632191
0.0066324814
0.00663276
0.0066330278
0.0066332854
0.0066335334
0.0066337719
0.0066340012
0.0066342216
0.0066344338
0.0066346383
0.0066348343
0.0066350214
0.0066351999
0.0066353715
0.0066355365
0.0066356945
0.0066358463
0.0066359919
0.0066361318
0.0066362664
0.0066363966
0.0066365221
0.0066366417
0.006636754
0.0066368598
0.0066369617
0.0066370587
0.0066371509
0.0066372379
0.00663732
0.0066373972
0.0066374701
0.0066375375
0.0066376015
0.0066376601
0.0066377178
0.0066377698
0.0066378212
0.0066378618
0.0066379128
0.0066379263
0.0066379942
0.0066379648
0.025706279
0.028369567
0.031603792
0.035104359
0.038916043
0.043077516
0.0476042
0.052514847
0.057826796
0.063554717
0.069709715
0.076297517
0.083317103
0.090758301
0.09859984
0.1068068
0.115328
0.12409331
0.13301128
0.14196682
0.15081948
0.15940617
0.167528
0.17501203
0.18158481
0.18704117
0.19115075
0.19369618
0.19448881
0.19337772
0.19025984
0.18508729
0.17787136
0.1686817
0.15763921
0.14490892
0.13069899
0.11523261
0.098748747
0.081484935
0.063674143
0.045537274
0.027274174
0.0090610415
-0.0089486185
-0.026623058
-0.043857984
-0.060567913
-0.076688529
-0.092169914
-0.1069748
-0.12108352
-0.13448674
-0.14718373
-0.15918128
-0.17049189
-0.18113244
-0.1911252
-0.20049557
-0.20926809
-0.21746938
-0.22512743
-0.23227028
-0.23892587
-0.24512149
-0.2508843
-0.25624079
-0.26121541
-0.26583172
-0.27011298
-0.27408031
-0.27775508
-0.28114907
-0.28429331
0.025706223
0.02836952
0.03160378
0.03510435
0.038916037
0.043077511
0.047604195
0.052514842
0.057826791
0.063554714
0.069709758
0.076297614
0.083317226
0.090758466
0.098600053
0.10680707
0.11532834
0.12409373
0.1330118
0.14196745
0.15082017
0.15940687
0.16752886
0.17501287
0.18158579
0.1870423
0.19115179
0.19369718
0.19448974
0.19337856
0.19026067
0.18508842
0.17787264
0.16868176
0.15763744
0.1449089
0.13069684
0.11522816
0.098741421
0.081477353
0.063669012
0.04553434
0.02727194
0.0090591294
-0.0089504617
-0.026625815
-0.043861289
-0.060572059
-0.076692777
-0.092173096
-0.10697799
-0.12108719
-0.13449089
-0.14718834
-0.15918632
-0.17049757
-0.18113834
-0.19113093
-0.20050114
-0.20927364
-0.21747501
-0.22513318
-0.23227619
-0.23893197
-0.24512794
-0.25089179
-0.25624974
-0.26122524
-0.26584199
-0.2701235
-0.27409127
-0.2777679
-0.28116579
-0.28433119
0.025706029
0.028369314
0.0316036
0.035104148
0.038915821
0.043077279
0.047603948
0.052514582
0.05782652
0.063554434
0.069709461
0.076297296
0.083316894
0.090758128
0.098599718
0.10680675
0.11532805
0.12409348
0.13301162
0.14196737
0.15082032
0.15940738
0.16752943
0.17501407
0.18158719
0.18704397
0.19115393
0.19369986
0.19449296
0.19338232
0.1902649
0.18509294
0.17787726
0.16868665
0.1576434
0.14491466
0.13070293
0.11523491
0.098748938
0.081485035
0.063675687
0.045539465
0.027275741
0.0090618912
-0.0089487648
-0.026627051
-0.043865176
-0.060577592
-0.076697077
-0.092175326
-0.10697935
-0.12108804
-0.13449138
-0.14718854
-0.15918624
-0.17049622
-0.18113783
-0.19113037
-0.20050047
-0.20927224
-0.21747299
-0.22513053
-0.23227294
-0.23892815
-0.24512384
-0.2508872
-0.25624387
-0.26121899
-0.26583649
-0.27011941
-0.27408935
-0.27776869
-0.28116999
-0.28434269
0.025705614
0.028368912
0.031603258
0.035103747
0.038915394
0.043076819
0.047603439
0.052514024
0.057825911
0.063553774
0.06970875
0.076296539
0.083316097
0.0907573
0.098598872
0.1068059
0.11532723
0.12409273
0.13301099
0.14196693
0.15082014
0.15940768
0.16753039
0.17501551
0.18158921
0.1870469
0.1911579
0.19370496
0.19449928
0.19338992
0.1902738
0.18510315
0.17788878
0.16869933
0.15765684
0.14492876
0.13071756
0.11524966
0.098763481
0.081499233
0.063689755
0.045553689
0.027290166
0.0090763912
-0.0089342759
-0.026612009
-0.043849768
-0.060561997
-0.076682352
-0.09216202
-0.10696728
-0.12107696
-0.13448115
-0.14717908
-0.15917754
-0.17048992
-0.18113366
-0.19113014
-0.20050119
-0.20927396
-0.21747583
-0.22513452
-0.23227808
-0.23893441
-0.24513102
-0.25089443
-0.25625028
-0.26122463
-0.26584183
-0.27012444
-0.27409459
-0.27777532
-0.28118035
-0.28435691
0.025705011
0.028368334
0.031602719
0.035103111
0.0389147
0.043076053
0.047602599
0.052513109
0.057824918
0.063552698
0.069707592
0.076295301
0.083314786
0.090755927
0.098597459
0.10680448
0.11532585
0.12409145
0.13300984
0.141966
0.15081955
0.15940755
0.16753132
0.17501725
0.18159209
0.18705125
0.19116392
0.19371288
0.19450929
0.19340215
0.19028832
0.18511993
0.17790769
0.16872022
0.15767951
0.14495298
0.13074301
0.11527609
0.098790668
0.081526944
0.063717655
0.045581392
0.027317341
0.0091028325
-0.0089086969
-0.026587516
-0.043826513
-0.060539982
-0.076661297
-0.092141512
-0.10694705
-0.12105699
-0.13446145
-0.14715968
-0.15915843
-0.17047047
-0.18111338
-0.1911085
-0.20047924
-0.20925214
-0.21745416
-0.22511296
-0.23225654
-0.23891279
-0.24510905
-0.25087278
-0.25622994
-0.26120603
-0.26582526
-0.27011128
-0.27408494
-0.27776927
-0.28117832
-0.28435556
0.025704227
0.028367574
0.031601986
0.035102256
0.038913763
0.043075017
0.047601452
0.052511842
0.05782352
0.063551163
0.069705915
0.07629348
0.083312827
0.090753841
0.098595271
0.10680223
0.11532359
0.12408927
0.13300788
0.14196442
0.15081858
0.15940726
0.16753212
0.17501951
0.18159604
0.18705736
0.19117258
0.19372444
0.19452409
0.19342042
0.19031019
0.18514544
0.17793674
0.1687526
0.1577149
0.14499095
0.13078312
0.11531784
0.098833568
0.081570513
0.063761499
0.045625239
0.027360998
0.0091461474
-0.0088658599
-0.026545165
-0.04378464
-0.06049859
-0.076620538
-0.092101619
-0.10690818
-0.12101923
-0.13442481
-0.14712414
-0.15912397
-0.17043724
-0.18108161
-0.19107836
-0.20045082
-0.20922506
-0.2174282
-0.22508806
-0.23223274
-0.23889026
-0.24508844
-0.25085352
-0.25621176
-0.26118866
-0.26580863
-0.27009501
-0.27406968
-0.27775556
-0.28116651
-0.28434578
0.025703286
0.02836663
0.031601052
0.035101166
0.03891256
0.043073678
0.047599961
0.052510186
0.057821688
0.063549141
0.069703694
0.076291057
0.083310204
0.090751032
0.098592307
0.10679916
0.11532049
0.12408625
0.13300509
0.14196207
0.15081692
0.1594067
0.16753289
0.17502238
0.18160127
0.18706565
0.19118451
0.19374058
0.19454493
0.19344636
0.19034149
0.18518217
0.17797881
0.16879973
0.15776665
0.14504678
0.13084239
0.11537988
0.098897715
0.081636139
0.063828024
0.045692151
0.027427818
0.0092124751
-0.0088003705
-0.026480752
-0.043721525
-0.06043692
-0.076560398
-0.092042963
-0.10685084
-0.12096312
-0.13436986
-0.14707029
-0.15907117
-0.17038535
-0.18103036
-0.19102742
-0.20040015
-0.20917463
-0.21737807
-0.22503826
-0.23218327
-0.23884106
-0.24503922
-0.25080464
-0.25616374
-0.261142
-0.26576381
-0.27005261
-0.27403013
-0.27771917
-0.28113317
-0.2843162
0.025702188
0.028365497
0.031599907
0.035099831
0.038911077
0.04307202
0.047598104
0.052508114
0.057819378
0.063546577
0.06970086
0.076287943
0.083306811
0.090747371
0.098588411
0.10679509
0.11531634
0.12408216
0.13300127
0.14195879
0.15081455
0.15940568
0.16753366
0.17502601
0.18160809
0.18707667
0.19120056
0.1937625
0.19457348
0.19348215
0.19038494
0.18523346
0.17803788
0.16886625
0.15784005
0.14512631
0.13092717
0.11546896
0.098990122
0.081730933
0.063924338
0.045789237
0.027525028
0.0093093134
-0.0087042829
-0.026385654
-0.04362765
-0.060344452
-0.076469501
-0.091953761
-0.10676332
-0.12087725
-0.13428562
-0.14698765
-0.15899011
-0.17030584
-0.18095242
-0.19095111
-0.20032564
-0.20910197
-0.21730722
-0.2249692
-0.23211603
-0.23877571
-0.2449759
-0.25074355
-0.2561049
-0.26108532
-0.26570916
-0.26999983
-0.27397911
-0.2776698
-0.28108526
-0.28426975
0.025700927
0.028364168
0.03159854
0.035098237
0.038909297
0.043070017
0.04759585
0.052505584
0.057816544
0.063543411
0.069697339
0.07628405
0.08330254
0.090742732
0.098583441
0.10678986
0.11531096
0.12407681
0.13299621
0.14195438
0.15081129
0.15940415
0.16753455
0.17503047
0.18161688
0.18709108
0.19122178
0.19379173
0.19461181
0.19353051
0.19044399
0.18530353
0.17811896
0.16895795
0.15794166
0.14523683
0.13104542
0.11559363
0.099119894
0.081864508
0.064060506
0.045926961
0.027663389
0.0094475019
-0.0085670459
-0.026249794
-0.043493404
-0.060211989
-0.076338985
-0.091825264
-0.10663714
-0.12075357
-0.13416446
-0.14686896
-0.15887378
-0.17019174
-0.18084037
-0.19084087
-0.20021706
-0.20899486
-0.21720143
-0.22486464
-0.23201261
-0.23867338
-0.24487461
-0.25064334
-0.25600592
-0.2609878
-0.26561338
-0.26990613
-0.2738878
-0.27758122
-0.28099964
-0.28418755
0.025699503
0.028362636
0.031596941
0.03509637
0.038907199
0.043067645
0.047593165
0.052502552
0.057813128
0.063539572
0.069693043
0.076279271
0.083297264
0.090736963
0.098577218
0.10678326
0.11530412
0.12406996
0.13298968
0.14194862
0.15080692
0.15940198
0.16753562
0.17503589
0.18162808
0.18710973
0.19124949
0.19383018
0.19466257
0.1935949
0.19052302
0.18539776
0.17822847
0.16908232
0.15808
0.14538785
0.13120754
0.1157651
0.099298897
0.082049262
0.064249357
0.046118361
0.027855957
0.0096404102
-0.0083744196
-0.02605858
-0.0433046
-0.060026121
-0.076156375
-0.091646204
-0.10646188
-0.12058212