/*--------------------------------*- C++ -*----------------------------------*\
| =========                 |                                                 |
| \\      /  F ield         | OpenFOAM: The Open Source CFD Toolbox           |
|  \\    /   O peration     | Version:  v2006                                 |
|   \\  /    A nd           | Website:  www.openfoam.com                      |
|    \\/     M anipulation  |                                                 |
\*---------------------------------------------------------------------------*/
FoamFile
{
    version     2.0;
    format      ascii;
    class       volScalarField;
    location    "5000";
    object      k;
}
// * * * * * * * * * * * * * * * * * * * * * * * * * * * * * * * * * * * * * //

dimensions      [0 2 -2 0 0 0 0];


internalField   nonuniform List<scalar> 
55713
(
2.2592622e-09
6.1546531e-09
1.3355989e-08
1.8811446e-08
2.2166908e-08
2.4077366e-08
2.512757e-08
2.568998e-08
2.5982293e-08
2.6127893e-08
2.6195114e-08
2.622125e-08
2.6226331e-08
2.6221035e-08
2.6210891e-08
2.61988e-08
2.6186187e-08
2.6173829e-08
2.6162059e-08
2.6151108e-08
2.6141034e-08
2.6131935e-08
2.61238e-08
2.6116701e-08
2.6110606e-08
2.6105581e-08
2.6101575e-08
2.6098638e-08
2.6096702e-08
2.6095908e-08
2.6096658e-08
2.6098675e-08
2.6101789e-08
2.6105965e-08
2.6111111e-08
2.6117304e-08
2.61245e-08
2.6132769e-08
2.6142049e-08
2.6152391e-08
2.6163723e-08
2.6176096e-08
2.6189449e-08
2.6203841e-08
2.6219227e-08
2.6235678e-08
2.6253166e-08
2.6271776e-08
2.6291499e-08
2.6312438e-08
2.633461e-08
2.635814e-08
2.6383081e-08
2.6409588e-08
2.643776e-08
2.6467808e-08
2.6499906e-08
2.6534416e-08
2.6572079e-08
2.4567274e-09
7.6447523e-09
1.5503536e-08
2.092742e-08
2.4042785e-08
2.5723203e-08
2.6604438e-08
2.7055104e-08
2.727806e-08
2.7382265e-08
2.7425502e-08
2.7437948e-08
2.7435261e-08
2.7425477e-08
2.741266e-08
2.7398842e-08
2.7385036e-08
2.7371743e-08
2.7359211e-08
2.7347569e-08
2.7336879e-08
2.7327185e-08
2.7318506e-08
2.7310868e-08
2.7304277e-08
2.7298753e-08
2.7294287e-08
2.729088e-08
2.7288487e-08
2.728714e-08
2.7287546e-08
2.7289149e-08
2.7291889e-08
2.7295657e-08
2.7300411e-08
2.7306192e-08
2.7313e-08
2.732087e-08
2.7329779e-08
2.7339738e-08
2.7350709e-08
2.7362706e-08
2.7375697e-08
2.7389708e-08
2.7404719e-08
2.7420769e-08
2.7437852e-08
2.7456021e-08
2.7475283e-08
2.7495712e-08
2.7517334e-08
2.7540244e-08
2.7564495e-08
2.7590212e-08
2.7617481e-08
2.7646473e-08
2.7677335e-08
2.7710359e-08
2.7746151e-08
2.7737682e-09
9.4346858e-09
1.7859221e-08
2.3149706e-08
2.5983739e-08
2.7429583e-08
2.8150652e-08
2.8501102e-08
2.8664594e-08
2.8734651e-08
2.8758731e-08
2.8760504e-08
2.8751825e-08
2.8738592e-08
2.8723663e-08
2.8708448e-08
2.869361e-08
2.8679492e-08
2.8666242e-08
2.8653955e-08
2.864266e-08
2.8632399e-08
2.8623174e-08
2.8615018e-08
2.8607924e-08
2.8601919e-08
2.8596982e-08
2.8593119e-08
2.8590261e-08
2.858835e-08
2.8588351e-08
2.8589585e-08
2.8591935e-08
2.859529e-08
2.859962e-08
2.8604977e-08
2.8611363e-08
2.8618819e-08
2.8627318e-08
2.8636875e-08
2.8647446e-08
2.8659042e-08
2.867163e-08
2.8685231e-08
2.8699823e-08
2.8715439e-08
2.873207e-08
2.874976e-08
2.8768513e-08
2.8788389e-08
2.880941e-08
2.8831652e-08
2.885516e-08
2.8880033e-08
2.8906344e-08
2.8934226e-08
2.8963798e-08
2.8995284e-08
2.9029183e-08
3.253506e-09
1.1561268e-08
2.0423454e-08
2.5476855e-08
2.7996936e-08
2.9210094e-08
2.9783013e-08
3.0045813e-08
3.0159651e-08
3.0202267e-08
3.0211473e-08
3.0205091e-08
3.0191898e-08
3.0176044e-08
3.0159467e-08
3.0143108e-08
3.0127389e-08
3.0112535e-08
3.0098628e-08
3.0085736e-08
3.0073871e-08
3.0063067e-08
3.005332e-08
3.004466e-08
3.0037079e-08
3.0030601e-08
3.0025205e-08
3.0020892e-08
3.0017593e-08
3.0015234e-08
3.0014462e-08
3.001554e-08
3.0017498e-08
3.0020424e-08
3.0024312e-08
3.0029219e-08
3.0035158e-08
3.0042167e-08
3.0050228e-08
3.0059347e-08
3.0069485e-08
3.0080642e-08
3.0092789e-08
3.0105937e-08
3.0120067e-08
3.0135201e-08
3.0151332e-08
3.016849e-08
3.0186681e-08
3.0205947e-08
3.0226308e-08
3.024782e-08
3.0270522e-08
3.0294485e-08
3.0319771e-08
3.0346473e-08
3.0374687e-08
3.0404571e-08
3.0436528e-08
3.9496659e-09
1.4061826e-08
2.3195458e-08
2.7910415e-08
3.0094006e-08
3.1082599e-08
3.1522128e-08
3.1710355e-08
3.1783934e-08
3.1805131e-08
3.1803143e-08
3.1790701e-08
3.1774186e-08
3.1756378e-08
3.1738528e-08
3.1721248e-08
3.1704785e-08
3.1689289e-08
3.1674794e-08
3.1661355e-08
3.1648966e-08
3.1637661e-08
3.1627427e-08
3.1618296e-08
3.1610254e-08
3.1603325e-08
3.1597487e-08
3.159274e-08
3.1589011e-08
3.1586215e-08
3.1584651e-08
3.1585519e-08
3.1587153e-08
3.1589633e-08
3.1593061e-08
3.1597493e-08
3.1602957e-08
3.1609486e-08
3.1617076e-08
3.1625719e-08
3.1635385e-08
3.1646058e-08
3.1657719e-08
3.1670361e-08
3.1683978e-08
3.1698571e-08
3.1714145e-08
3.1730706e-08
3.1748272e-08
3.1766856e-08
3.1786489e-08
3.1807193e-08
3.1829014e-08
3.1851983e-08
3.1876163e-08
3.1901596e-08
3.192837e-08
3.1956563e-08
3.1986514e-08
4.9418504e-09
1.697325e-08
2.6173687e-08
3.0455961e-08
3.2291922e-08
3.3069927e-08
3.3392945e-08
3.3519676e-08
3.3561731e-08
3.3566901e-08
3.3556506e-08
3.3539823e-08
3.3520983e-08
3.350175e-08
3.3482969e-08
3.3464956e-08
3.3447911e-08
3.3431865e-08
3.3416892e-08
3.3402966e-08
3.339014e-08
3.3378378e-08
3.3367731e-08
3.335816e-08
3.3349717e-08
3.3342358e-08
3.3336126e-08
3.3330955e-08
3.3326836e-08
3.3323607e-08
3.3321322e-08
3.3321845e-08
3.3323179e-08
3.3325258e-08
3.332822e-08
3.3332142e-08
3.3337108e-08
3.3343115e-08
3.3350202e-08
3.3358321e-08
3.3367474e-08
3.3377608e-08
3.3388731e-08
3.3400804e-08
3.3413846e-08
3.3427828e-08
3.3442773e-08
3.3458661e-08
3.347552e-08
3.3493339e-08
3.3512154e-08
3.3531959e-08
3.35528e-08
3.3574678e-08
3.3597647e-08
3.362171e-08
3.3646933e-08
3.3673338e-08
3.3701186e-08
6.339663e-09
2.0330287e-08
2.9356737e-08
3.3124647e-08
3.4614042e-08
3.5200816e-08
3.5425461e-08
3.550335e-08
3.5521684e-08
3.5515206e-08
3.5499087e-08
3.5479514e-08
3.5459095e-08
3.5438926e-08
3.5419492e-08
3.5400984e-08
3.5383503e-08
3.5367072e-08
3.5351721e-08
3.5337443e-08
3.5324259e-08
3.5312156e-08
3.5301155e-08
3.5291243e-08
3.5282443e-08
3.5274736e-08
3.5268139e-08
3.5262611e-08
3.5258119e-08
3.5254509e-08
3.5251632e-08
3.5251667e-08
3.5252619e-08
3.5254366e-08
3.5256896e-08
3.5260299e-08
3.5264723e-08
3.527018e-08
3.5276709e-08
3.5284266e-08
3.5292843e-08
3.5302385e-08
3.5312896e-08
3.5324336e-08
3.5336718e-08
3.535001e-08
3.5364232e-08
3.5379355e-08
3.5395404e-08
3.5412354e-08
3.5430238e-08
3.5449031e-08
3.5468772e-08
3.5489436e-08
3.5511068e-08
3.5533631e-08
3.5557179e-08
3.5581664e-08
3.5607299e-08
8.2928226e-09
2.4163592e-08
3.2744778e-08
3.5935126e-08
3.7091522e-08
3.7510962e-08
3.7655849e-08
3.7696609e-08
3.7698066e-08
3.7683582e-08
3.7663796e-08
3.7642471e-08
3.7621158e-08
3.7600483e-08
3.7580719e-08
3.7561961e-08
3.7544264e-08
3.7527632e-08
3.7512082e-08
3.7497604e-08
3.7484213e-08
3.7471896e-08
3.7460671e-08
3.7450522e-08
3.7441471e-08
3.7433498e-08
3.7426621e-08
3.7420797e-08
3.7416002e-08
3.7412076e-08
3.7408863e-08
3.7408075e-08
3.7408718e-08
3.741008e-08
3.7412246e-08
3.7415159e-08
3.7419013e-08
3.7423872e-08
3.7429798e-08
3.7436733e-08
3.7444674e-08
3.7453549e-08
3.7463371e-08
3.7474084e-08
3.7485714e-08
3.7498209e-08
3.7511599e-08
3.7525835e-08
3.7540951e-08
3.7556898e-08
3.7573716e-08
3.7591349e-08
3.7609847e-08
3.762914e-08
3.7649283e-08
3.7670184e-08
3.7691902e-08
3.7714313e-08
3.7737597e-08
1.1001128e-08
2.8496909e-08
3.6341556e-08
3.8915944e-08
3.9765047e-08
4.0044443e-08
4.012779e-08
4.0142337e-08
4.0131816e-08
4.0112694e-08
4.0090958e-08
4.0068864e-08
4.0047289e-08
4.0026569e-08
4.0006844e-08
3.9988156e-08
3.9970529e-08
3.9953956e-08
3.9938451e-08
3.9923996e-08
3.9910609e-08
3.9898268e-08
3.9886996e-08
3.987677e-08
3.9867617e-08
3.9859506e-08
3.9852468e-08
3.9846447e-08
3.9841442e-08
3.9837282e-08
3.9833838e-08
3.9832313e-08
3.9832581e-08
3.9833524e-08
3.9835266e-08
3.9837754e-08
3.9841056e-08
3.9845261e-08
3.9850535e-08
3.9856776e-08
3.9864014e-08
3.9872126e-08
3.9881168e-08
3.9891036e-08
3.9901802e-08
3.9913358e-08
3.9925786e-08
3.9938975e-08
3.995301e-08
3.9967776e-08
3.9983363e-08
3.9999647e-08
4.0016721e-08
4.0034445e-08
4.0052912e-08
4.0071951e-08
4.0091653e-08
4.0111801e-08
4.0132569e-08
1.4725321e-08
3.3343257e-08
4.0157476e-08
4.2108347e-08
4.2687158e-08
4.2855664e-08
4.2894459e-08
4.2891627e-08
4.2874305e-08
4.2852842e-08
4.2830551e-08
4.2808579e-08
4.2787421e-08
4.2767184e-08
4.2747982e-08
4.2729775e-08
4.2712625e-08
4.2696466e-08
4.268136e-08
4.2667235e-08
4.2654159e-08
4.2642057e-08
4.2631005e-08
4.2620922e-08
4.261189e-08
4.2603821e-08
4.2596802e-08
4.2590724e-08
4.2585651e-08
4.2581368e-08
4.2577822e-08
4.2575788e-08
4.257551e-08
4.2576066e-08
4.2577376e-08
4.2579365e-08
4.2582204e-08
4.2585721e-08
4.2590281e-08
4.2595753e-08
4.2602195e-08
4.2609439e-08
4.2617576e-08
4.2626464e-08
4.2636207e-08
4.2646666e-08
4.2657945e-08
4.2669902e-08
4.2682645e-08
4.2696025e-08
4.2710151e-08
4.2724862e-08
4.2740268e-08
4.275619e-08
4.2772731e-08
4.2789675e-08
4.280712e-08
4.2824789e-08
4.2842836e-08
1.9805234e-08
3.8699748e-08
4.421413e-08
4.5569841e-08
4.5925084e-08
4.6012017e-08
4.6021768e-08
4.6008464e-08
4.598843e-08
4.5966792e-08
4.5945264e-08
4.5924402e-08
4.5904432e-08
4.588539e-08
4.5867327e-08
4.5850208e-08
4.5834068e-08
4.5818857e-08
4.5804617e-08
4.5791293e-08
4.5778936e-08
4.5767484e-08
4.5756998e-08
4.574741e-08
4.5738787e-08
4.5731054e-08
4.5724286e-08
4.5718388e-08
4.5713422e-08
4.5709207e-08
4.570571e-08
4.5703434e-08
4.5702535e-08
4.5702754e-08
4.5703627e-08
4.5705111e-08
4.5707387e-08
4.5710317e-08
4.5714068e-08
4.5718698e-08
4.572422e-08
4.5730476e-08
4.5737538e-08
4.5745283e-08
4.5753796e-08
4.5762954e-08
4.5772841e-08
4.578333e-08
4.5794506e-08
4.5806235e-08
4.5818604e-08
4.5831453e-08
4.5844883e-08
4.58587e-08
4.5873007e-08
4.5887559e-08
4.5902456e-08
4.5917382e-08
4.5932473e-08
2.6694755e-08
4.4540713e-08
4.8551418e-08
4.9379252e-08
4.9564751e-08
4.9597775e-08
4.9591188e-08
4.9574011e-08
4.955431e-08
4.9534409e-08
4.9515053e-08
4.949645e-08
4.9478699e-08
4.9461785e-08
4.9445748e-08
4.9430536e-08
4.9416194e-08
4.9402657e-08
4.9389984e-08
4.9378099e-08
4.9367075e-08
4.9356827e-08
4.9347442e-08
4.9338817e-08
4.9331059e-08
4.932405e-08
4.9317911e-08
4.9312497e-08
4.9307939e-08
4.9304017e-08
4.9300823e-08
4.929847e-08
4.9297261e-08
4.9297043e-08
4.9297558e-08
4.9298515e-08
4.9300229e-08
4.9302456e-08
4.9305436e-08
4.9309089e-08
4.9313586e-08
4.931865e-08
4.9324472e-08
4.9330812e-08
4.9337875e-08
4.9345416e-08
4.9353643e-08
4.9362301e-08
4.9371601e-08
4.9381279e-08
4.9391546e-08
4.9402115e-08
4.9413201e-08
4.9424493e-08
4.9436197e-08
4.9447957e-08
4.9459968e-08
4.9471812e-08
4.9483684e-08
3.5905872e-08
5.0807948e-08
5.3237608e-08
5.3643734e-08
5.3716158e-08
5.3719807e-08
5.3707378e-08
5.3691422e-08
5.3674997e-08
5.3658918e-08
5.3643451e-08
5.3628633e-08
5.3614518e-08
5.3601059e-08
5.3588306e-08
5.3576186e-08
5.3564768e-08
5.3553962e-08
5.3543858e-08
5.3534345e-08
5.3525537e-08
5.3517306e-08
5.3509783e-08
5.350282e-08
5.3496572e-08
5.3490869e-08
5.3485887e-08
5.3481428e-08
5.347769e-08
5.347442e-08
5.3471832e-08
5.3469714e-08
5.3468544e-08
5.3467928e-08
5.3468163e-08
5.3468652e-08
5.3469778e-08
5.347125e-08
5.347337e-08
5.3475961e-08
5.3479237e-08
5.3482905e-08
5.3487198e-08
5.3491847e-08
5.349709e-08
5.3502657e-08
5.3508781e-08
5.3515189e-08
5.3522112e-08
5.3529271e-08
5.3536894e-08
5.354468e-08
5.3552864e-08
5.3561119e-08
5.3569671e-08
5.357816e-08
5.3586791e-08
5.3595162e-08
5.3603454e-08
4.7866655e-08
5.7398642e-08
5.8383366e-08
5.8507694e-08
5.8521306e-08
5.8515408e-08
5.8505711e-08
5.8495459e-08
5.8485364e-08
5.8475642e-08
5.8466308e-08
5.8457398e-08
5.8448891e-08
5.8440794e-08
5.8433101e-08
5.84258e-08
5.8418902e-08
5.8412378e-08
5.8406264e-08
5.8400504e-08
5.8395163e-08
5.8390161e-08
5.8385591e-08
5.8381333e-08
5.8377524e-08
5.8374006e-08
5.8370956e-08
5.8368165e-08
5.836586e-08
5.8363776e-08
5.8362197e-08
5.8360793e-08
5.8360007e-08
5.8359384e-08
5.8359427e-08
5.8359511e-08
5.8360109e-08
5.8360752e-08
5.8361962e-08
5.8363291e-08
5.8365162e-08
5.83671e-08
5.836957e-08
5.8372074e-08
5.8375098e-08
5.8378131e-08
5.8381664e-08
5.8385174e-08
5.8389156e-08
5.8393084e-08
5.8397445e-08
5.840171e-08
5.8406348e-08
5.8410845e-08
5.8415621e-08
5.8420193e-08
5.842491e-08
5.8429319e-08
5.843369e-08
1.7404543e-08
1.7368028e-08
1.7341306e-08
1.7320272e-08
1.7300853e-08
1.7282204e-08
1.7263932e-08
1.7246012e-08
1.7228433e-08
1.7211197e-08
1.7194333e-08
1.7177857e-08
1.7161808e-08
1.7146212e-08
1.7131115e-08
1.7116555e-08
1.7102583e-08
1.7089249e-08
1.7076612e-08
1.7064733e-08
1.7053678e-08
1.7043513e-08
1.7034311e-08
1.7026136e-08
1.7019055e-08
1.7013124e-08
1.7008381e-08
1.7004968e-08
1.7003062e-08
1.7002735e-08
1.7003923e-08
1.7006515e-08
1.7010403e-08
1.7015484e-08
1.7021639e-08
1.7028694e-08
1.7036374e-08
1.704422e-08
1.7051454e-08
1.7056767e-08
1.705799e-08
1.7051617e-08
1.703213e-08
1.6991116e-08
1.6916142e-08
1.6789415e-08
1.6586211e-08
1.6273124e-08
1.5806548e-08
1.513202e-08
1.4184419e-08
1.2892183e-08
1.1192624e-08
9.0659604e-09
6.5982591e-09
4.079413e-09
2.1341547e-09
2.1275999e-09
1.2605232e-08
1.7666698e-08
1.7629969e-08
1.7603338e-08
1.7582153e-08
1.7562358e-08
1.7543252e-08
1.7524564e-08
1.7506244e-08
1.7488293e-08
1.7470709e-08
1.7453521e-08
1.7436744e-08
1.7420415e-08
1.740456e-08
1.7389224e-08
1.7374443e-08
1.7360269e-08
1.7346751e-08
1.7333947e-08
1.7321916e-08
1.7310725e-08
1.730044e-08
1.729113e-08
1.7282862e-08
1.7275699e-08
1.7269699e-08
1.7264914e-08
1.7261424e-08
1.7259449e-08
1.7259074e-08
1.7260233e-08
1.7262809e-08
1.7266697e-08
1.7271797e-08
1.7277997e-08
1.728514e-08
1.7292978e-08
1.7301098e-08
1.7308808e-08
1.7314935e-08
1.731753e-08
1.7313414e-08
1.7297549e-08
1.7262167e-08
1.7195662e-08
1.7081219e-08
1.6895175e-08
1.6605119e-08
1.6168009e-08
1.552903e-08
1.46212e-08
1.3368087e-08
1.1696955e-08
9.5711391e-09
7.0537024e-09
4.4127732e-09
2.2648947e-09
1.923696e-09
1.0733941e-08
1.7957736e-08
1.7920784e-08
1.7894372e-08
1.7872892e-08
1.7852659e-08
1.783307e-08
1.7813934e-08
1.7795188e-08
1.7776842e-08
1.7758888e-08
1.7741359e-08
1.7724264e-08
1.7707642e-08
1.7691516e-08
1.767593e-08
1.7660921e-08
1.764654e-08
1.7632832e-08
1.7619858e-08
1.7607674e-08
1.7596348e-08
1.7585943e-08
1.7576529e-08
1.756817e-08
1.7560929e-08
1.7554862e-08
1.7550029e-08
1.7546482e-08
1.7544438e-08
1.7544015e-08
1.7545144e-08
1.7547705e-08
1.7551592e-08
1.7556708e-08
1.7562951e-08
1.7570177e-08
1.7578165e-08
1.7586549e-08
1.7594716e-08
1.7601629e-08
1.7605552e-08
1.760364e-08
1.7591332e-08
1.756153e-08
1.7503495e-08
1.740146e-08
1.7232937e-08
1.6966671e-08
1.6560419e-08
1.5959256e-08
1.5094567e-08
1.3885285e-08
1.2248509e-08
1.0129654e-08
7.5660781e-09
4.7997439e-09
2.4373982e-09
1.7625484e-09
9.0920672e-09
1.8281712e-08
1.8244521e-08
1.8218452e-08
1.8196512e-08
1.8175782e-08
1.8155678e-08
1.8136062e-08
1.8116864e-08
1.8098098e-08
1.8079755e-08
1.8061865e-08
1.8044437e-08
1.8027508e-08
1.80111e-08
1.7995257e-08
1.7980012e-08
1.7965417e-08
1.7951516e-08
1.793837e-08
1.7926032e-08
1.7914571e-08
1.7904047e-08
1.7894531e-08
1.7886083e-08
1.7878767e-08
1.7872636e-08
1.7867749e-08
1.7864166e-08
1.7862052e-08
1.7861582e-08
1.7862683e-08
1.7865228e-08
1.7869113e-08
1.7874244e-08
1.7880528e-08
1.7887833e-08
1.7895964e-08
1.7904599e-08
1.7913202e-08
1.7920865e-08
1.7926064e-08
1.7926278e-08
1.7917432e-08
1.7893105e-08
1.784346e-08
1.7753851e-08
1.7603073e-08
1.7361198e-08
1.6987043e-08
1.6425868e-08
1.5607716e-08
1.4447208e-08
1.2851348e-08
1.0746723e-08
8.1421815e-09
5.2483014e-09
2.6584713e-09
1.6462939e-09
7.699991e-09
1.8643396e-08
1.8606135e-08
1.8580238e-08
1.8557793e-08
1.8536515e-08
1.8515863e-08
1.8495733e-08
1.8476055e-08
1.8456847e-08
1.8438093e-08
1.8419825e-08
1.8402049e-08
1.8384801e-08
1.8368101e-08
1.8351992e-08
1.8336506e-08
1.8321694e-08
1.8307598e-08
1.8294279e-08
1.8281789e-08
1.8270194e-08
1.8259554e-08
1.824994e-08
1.8241408e-08
1.8234021e-08
1.822783e-08
1.8222894e-08
1.8219274e-08
1.82171e-08
1.8216584e-08
1.8217657e-08
1.8220187e-08
1.8224068e-08
1.8229212e-08
1.8235532e-08
1.824291e-08
1.8251174e-08
1.8260044e-08
1.8269058e-08
1.8277431e-08
1.8283842e-08
1.8286089e-08
1.8280578e-08
1.8261573e-08
1.8220171e-08
1.8142909e-08
1.8009979e-08
1.7792959e-08
1.7452008e-08
1.6932939e-08
1.6164808e-08
1.5058347e-08
1.351071e-08
1.1428924e-08
8.7904218e-09
5.768275e-09
2.9365307e-09
1.575054e-09
6.5137672e-09
1.9048487e-08
1.9011375e-08
1.8985463e-08
1.8962457e-08
1.8940578e-08
1.8919339e-08
1.8898661e-08
1.8878475e-08
1.8858798e-08
1.8839614e-08
1.8820952e-08
1.8802815e-08
1.8785238e-08
1.8768239e-08
1.875186e-08
1.873613e-08
1.8721101e-08
1.8706812e-08
1.8693323e-08
1.8680684e-08
1.8668962e-08
1.8658212e-08
1.8648506e-08
1.8639896e-08
1.8632446e-08
1.86262e-08
1.8621219e-08
1.8617565e-08
1.8615343e-08
1.8614781e-08
1.8615827e-08
1.861834e-08
1.8622216e-08
1.8627367e-08
1.8633718e-08
1.864116e-08
1.8649546e-08
1.8658632e-08
1.8668026e-08
1.867706e-08
1.8684607e-08
1.8688774e-08
1.8686437e-08
1.867255e-08
1.8639161e-08
1.8574049e-08
1.8458918e-08
1.8267037e-08
1.7960205e-08
1.7485222e-08
1.6770612e-08
1.5723739e-08
1.4232382e-08
1.218352e-08
9.5202799e-09
6.3712167e-09
3.282267e-09
1.5516432e-09
5.5129843e-09
1.9503906e-08
1.9467168e-08
1.9441027e-08
1.9417394e-08
1.9394857e-08
1.937299e-08
1.9351729e-08
1.9331007e-08
1.931084e-08
1.9291208e-08
1.9272138e-08
1.925363e-08
1.9235719e-08
1.9218417e-08
1.9201768e-08
1.9185797e-08
1.9170555e-08
1.9156079e-08
1.9142428e-08
1.9129648e-08
1.9117808e-08
1.9106959e-08
1.9097171e-08
1.9088495e-08
1.908099e-08
1.90747e-08
1.906968e-08
1.9065991e-08
1.9063738e-08
1.906313e-08
1.9064148e-08
1.9066643e-08
1.9070509e-08
1.9075662e-08
1.9082034e-08
1.9089529e-08
1.9098019e-08
1.9107298e-08
1.9117035e-08
1.9126673e-08
1.9135267e-08
1.9141217e-08
1.9141861e-08
1.9132829e-08
1.9107134e-08
1.9053845e-08
1.8956285e-08
1.8789601e-08
1.8517548e-08
1.8088413e-08
1.7430755e-08
1.6449216e-08
1.5022918e-08
1.3018669e-08
1.0342539e-08
7.0707348e-09
3.7091221e-09
1.5808241e-09
4.6732965e-09
2.0018051e-08
1.9981928e-08
1.9955312e-08
1.9930976e-08
1.9907722e-08
1.9885184e-08
1.9863304e-08
1.9842019e-08
1.9821341e-08
1.9801248e-08
1.9781762e-08
1.976288e-08
1.9744634e-08
1.9727034e-08
1.9710121e-08
1.9693918e-08
1.9678475e-08
1.9663824e-08
1.9650026e-08
1.9637122e-08
1.9625179e-08
1.9614247e-08
1.9604394e-08
1.9595666e-08
1.9588123e-08
1.95818e-08
1.9576753e-08
1.9573037e-08
1.9570759e-08
1.9570107e-08
1.95711e-08
1.9573573e-08
1.9577423e-08
1.9582568e-08
1.9588949e-08
1.9596479e-08
1.9605053e-08
1.9614493e-08
1.9624529e-08
1.9634702e-08
1.9644238e-08
1.9651815e-08
1.9655206e-08
1.9650706e-08
1.9632289e-08
1.9590347e-08
1.9509919e-08
1.936822e-08
1.913128e-08
1.8749421e-08
1.8151955e-08
1.7241597e-08
1.5889788e-08
1.3943532e-08
1.1269436e-08
7.8828467e-09
4.2340107e-09
1.6705411e-09
3.9757744e-09
2.0601378e-08
2.0565795e-08
2.0538583e-08
2.0513466e-08
2.0489433e-08
2.0466178e-08
2.0443646e-08
2.0421776e-08
2.0400574e-08
2.0380011e-08
2.0360108e-08
2.0340856e-08
2.0322285e-08
2.03044e-08
2.0287242e-08
2.0270827e-08
2.0255205e-08
2.0240404e-08
2.0226483e-08
2.021348e-08
2.0201462e-08
2.0190472e-08
2.0180579e-08
2.0171823e-08
2.0164262e-08
2.0157924e-08
2.0152865e-08
2.0149133e-08
2.0146837e-08
2.0146148e-08
2.0147114e-08
2.0149561e-08
2.0153385e-08
2.0158507e-08
2.0164879e-08
2.0172422e-08
2.0181049e-08
2.019061e-08
2.0200891e-08
2.0211518e-08
2.0221876e-08
2.0230895e-08
2.0236763e-08
2.0236408e-08
2.022475e-08
2.0193519e-08
2.0129546e-08
2.0012295e-08
1.9810399e-08
1.9476789e-08
1.8942401e-08
1.8109015e-08
1.6841654e-08
1.4968496e-08
1.2314886e-08
8.8263927e-09
4.8781897e-09
1.8328695e-09
3.4037901e-09
2.1266675e-08
2.1231502e-08
2.1203572e-08
2.1177581e-08
2.1152706e-08
2.1128688e-08
2.1105476e-08
2.1083003e-08
2.106127e-08
2.1040241e-08
2.1019934e-08
2.100033e-08
2.0981459e-08
2.0963318e-08
2.0945947e-08
2.0929356e-08
2.0913594e-08
2.0898683e-08
2.0884682e-08
2.0871621e-08
2.0859568e-08
2.084856e-08
2.0838664e-08
2.0829914e-08
2.0822366e-08
2.081604e-08
2.0810989e-08
2.0807257e-08
2.0804951e-08
2.080423e-08
2.080517e-08
2.0807583e-08
2.0811367e-08
2.0816446e-08
2.0822782e-08
2.0830304e-08
2.0838943e-08
2.0848575e-08
2.085903e-08
2.0870015e-08
2.0881053e-08
2.0891304e-08
2.0899336e-08
2.0902675e-08
2.0897152e-08
2.0875825e-08
2.0827369e-08
2.0733656e-08
2.0566245e-08
2.0281264e-08
1.9812277e-08
1.9061379e-08
1.7888759e-08
1.610547e-08
1.349477e-08
9.9235519e-09
5.6683837e-09
2.0856635e-09
2.944505e-09
2.2029953e-08
2.1995025e-08
2.1966226e-08
2.1939259e-08
2.1913473e-08
2.1888649e-08
2.1864735e-08
2.1841654e-08
2.1819399e-08
2.1797926e-08
2.1777245e-08
2.175733e-08
2.1738206e-08
2.1719863e-08
2.1702337e-08
2.1685631e-08
2.1669794e-08
2.1654837e-08
2.164082e-08
2.1627765e-08
2.161574e-08
2.1604773e-08
2.159493e-08
2.1586237e-08
2.1578746e-08
2.157247e-08
2.1567458e-08
2.1563746e-08
2.1561446e-08
2.1560699e-08
2.1561612e-08
2.1563979e-08
2.1567702e-08
2.1572707e-08
2.1578969e-08
2.1586422e-08
2.1595017e-08
2.1604647e-08
2.1615188e-08
2.1626411e-08
2.1637963e-08
2.1649205e-08
2.1659047e-08
2.1665562e-08
2.1665443e-08
2.1653038e-08
2.1618884e-08
2.154738e-08
2.1413319e-08
2.1176609e-08
2.0774529e-08
2.0111052e-08
1.9043517e-08
1.7368335e-08
1.4827299e-08
1.1200452e-08
6.6382457e-09
2.4548902e-09
2.5888949e-09
2.2911551e-08
2.287664e-08
2.2846787e-08
2.2818728e-08
2.2791961e-08
2.27663e-08
2.2741671e-08
2.2717999e-08
2.2695252e-08
2.2673386e-08
2.2652391e-08
2.2632241e-08
2.2612943e-08
2.2594491e-08
2.2576903e-08
2.2560185e-08
2.2544368e-08
2.2529472e-08
2.2515536e-08
2.250259e-08
2.2490683e-08
2.247985e-08
2.247014e-08
2.2461583e-08
2.2454213e-08
2.2448046e-08
2.2443113e-08
2.2439456e-08
2.2437174e-08
2.2436413e-08
2.2437295e-08
2.2439604e-08
2.244323e-08
2.2448121e-08
2.2454247e-08
2.2461568e-08
2.2470032e-08
2.2479568e-08
2.2490072e-08
2.2501386e-08
2.2513248e-08
2.2525203e-08
2.2536449e-08
2.2545561e-08
2.255001e-08
2.2545377e-08
2.2524018e-08
2.2472946e-08
2.2370432e-08
2.2180747e-08
2.1845981e-08
2.1273876e-08
2.0321372e-08
1.8773633e-08
1.6333528e-08
1.2687899e-08
7.8302598e-09
2.9779113e-09
2.3323981e-09
2.3937669e-08
2.3902438e-08
2.3871308e-08
2.3842032e-08
2.381422e-08
2.3787699e-08
2.3762372e-08
2.3738152e-08
2.3714984e-08
2.3692816e-08
2.3671617e-08
2.3651357e-08
2.3632024e-08
2.3613608e-08
2.3596111e-08
2.3579538e-08
2.3563903e-08
2.3549224e-08
2.3535526e-08
2.3522839e-08
2.3511195e-08
2.3500631e-08
2.349118e-08
2.3482872e-08
2.3475722e-08
2.3469746e-08
2.3464956e-08
2.34614e-08
2.3459162e-08
2.3458397e-08
2.3459246e-08
2.3461472e-08
2.3464955e-08
2.3469664e-08
2.3475573e-08
2.3482659e-08
2.3490876e-08
2.3500178e-08
2.3510484e-08
2.3521691e-08
2.3533614e-08
2.354595e-08
2.3558144e-08
2.3569196e-08
2.3577277e-08
2.3579096e-08
2.3568753e-08
2.353586e-08
2.3462363e-08
2.3317406e-08
2.3048984e-08
2.2570693e-08
2.1742153e-08
2.0341655e-08
1.8038117e-08
1.4422282e-08
9.2983167e-09
3.7090649e-09
2.1791205e-09
2.5142604e-08
2.5106548e-08
2.5073881e-08
2.5043256e-08
2.5014344e-08
2.498697e-08
2.4960997e-08
2.4936326e-08
2.4912866e-08
2.4890558e-08
2.4869338e-08
2.4849176e-08
2.4830028e-08
2.4811886e-08
2.4794722e-08
2.4778543e-08
2.4763337e-08
2.4749125e-08
2.4735904e-08
2.472371e-08
2.4712548e-08
2.4702463e-08
2.4693459e-08
2.4685573e-08
2.467879e-08
2.4673131e-08
2.4668579e-08
2.466519e-08
2.4663035e-08
2.4662274e-08
2.4663092e-08
2.4665199e-08
2.4668466e-08
2.4672897e-08
2.4678461e-08
2.4685164e-08
2.4692957e-08
2.4701824e-08
2.4711699e-08
2.4722531e-08
2.473419e-08
2.4746504e-08
2.4759107e-08
2.4771364e-08
2.4782034e-08
2.478883e-08
2.4787454e-08
2.4770035e-08
2.4722254e-08
2.4618547e-08
2.4413831e-08
2.4029713e-08
2.33322e-08
2.2098233e-08
1.9970568e-08
1.6446639e-08
1.1111107e-08
4.7280653e-09
2.1497046e-09
1.5196262e-08
1.8349344e-08
2.2205665e-08
2.6680766e-08
3.1768134e-08
3.7491912e-08
4.3879227e-08
5.0961957e-08
5.8772055e-08
6.7336278e-08
7.6671165e-08
8.6773623e-08
9.7614523e-08
1.09125e-07
1.2118769e-07
1.3361895e-07
1.4615986e-07
1.5845967e-07
1.7007162e-07
1.8044609e-07
1.8895058e-07
1.9486374e-07
1.9752674e-07
1.9623864e-07
1.9040261e-07
1.7975234e-07
1.6430328e-07
1.4447484e-07
1.2114861e-07
9.5662641e-08
6.9745278e-08
4.5393516e-08
2.4701821e-08
9.6360858e-09
1.9989602e-09
4.5180584e-09
1.5832977e-08
3.6978177e-08
6.7991514e-08
1.083176e-07
1.5701802e-07
2.129122e-07
2.7469655e-07
3.4103489e-07
4.1062085e-07
4.8224302e-07
5.5482081e-07
6.274195e-07
6.9924776e-07
7.6963949e-07
8.3806289e-07
9.0412093e-07
9.6752483e-07
1.0280757e-06
1.08565e-06
1.1401843e-06
1.1916698e-06
1.2401479e-06
1.2856867e-06
1.3283699e-06
1.3682989e-06
1.4055895e-06
1.4403652e-06
1.4727533e-06
1.5028831e-06
1.530885e-06
1.5568855e-06
1.5810044e-06
1.6033579e-06
1.6240567e-06
1.6432072e-06
1.6608954e-06
1.6772183e-06
1.692159e-06
2.7337033e-09
3.3706935e-09
4.0874976e-09
4.9036277e-09
5.8277401e-09
6.8652862e-09
8.0206581e-09
9.2975272e-09
1.0699158e-08
1.2228267e-08
1.3886444e-08
1.5672877e-08
1.7583029e-08
1.9606648e-08
2.1725889e-08
2.3912771e-08
2.6127115e-08
2.8314108e-08
3.0402969e-08
3.2306097e-08
3.3921055e-08
3.513167e-08
3.5824e-08
3.588305e-08
3.5208894e-08
3.3741461e-08
3.1468931e-08
2.8439754e-08
2.4770742e-08
2.064552e-08
1.6302073e-08
1.2029157e-08
8.2181113e-09
5.0970865e-09
2.9302484e-09
2.0143018e-09
2.3614074e-09
4.0480175e-09
7.1140631e-09
1.1513323e-08
1.71454e-08
2.3873473e-08
3.1537791e-08
3.9968318e-08
4.8993956e-08
5.8444964e-08
6.8118149e-08
7.7884766e-08
8.7630679e-08
9.730959e-08
1.0684607e-07
1.161678e-07
1.2521894e-07
1.3395806e-07
1.4235399e-07
1.5038597e-07
1.5804078e-07
1.6531138e-07
1.7219772e-07
1.7870288e-07
1.8483395e-07
1.9060016e-07
1.960132e-07
2.010864e-07
2.0583359e-07
2.1026408e-07
2.1438149e-07
2.1820706e-07
2.2175859e-07
2.2505504e-07
2.2811269e-07
2.3094906e-07
2.335813e-07
2.3602978e-07
2.0638363e-09
2.074581e-09
2.1600671e-09
2.3164096e-09
2.5402571e-09
2.8289845e-09
3.1829412e-09
3.5989651e-09
4.07406e-09
4.6058421e-09
5.1924891e-09
5.832226e-09
6.5227162e-09
7.2604849e-09
8.0402864e-09
8.8543241e-09
9.6914258e-09
1.053618e-08
1.1368239e-08
1.216181e-08
1.2885722e-08
1.3503791e-08
1.3977608e-08
1.4267383e-08
1.4336218e-08
1.4154929e-08
1.3706805e-08
1.2991531e-08
1.2027894e-08
1.0853944e-08
9.5219925e-09
8.094415e-09
6.6875748e-09
5.3884818e-09
4.2728822e-09
3.4102066e-09
2.8375877e-09
2.5797952e-09
2.649724e-09
3.0454227e-09
3.754767e-09
4.7574361e-09
6.0217487e-09
7.5121278e-09
9.1913383e-09
1.1021974e-08
1.2965441e-08
1.4987161e-08
1.7056489e-08
1.9149241e-08
2.1244235e-08
2.3322932e-08
2.536958e-08
2.7371189e-08
2.93172e-08
3.1199431e-08
3.3011558e-08
3.474264e-08
3.6387434e-08
3.7946155e-08
3.9419854e-08
4.0810101e-08
4.2119055e-08
4.3349175e-08
4.4503284e-08
4.5584389e-08
4.6596684e-08
4.7544099e-08
4.8429695e-08
4.9256471e-08
5.0027571e-08
5.0746349e-08
5.1416218e-08
5.2040321e-08
3.5463849e-09
3.1261946e-09
2.8085621e-09
2.583691e-09
2.4424494e-09
2.376556e-09
2.379472e-09
2.4447998e-09
2.5665185e-09
2.739207e-09
2.9591491e-09
3.2223868e-09
3.5248262e-09
3.8626126e-09
4.2318973e-09
4.6284817e-09
5.047302e-09
5.4819984e-09
5.9245416e-09
6.3649155e-09
6.7909341e-09
7.1882529e-09
7.5409383e-09
7.8317437e-09
8.0437674e-09
8.1615739e-09
8.1730848e-09
8.0712607e-09
7.8551907e-09
7.5303586e-09
7.1071827e-09
6.6027689e-09
6.0499835e-09
5.4815882e-09
4.9277337e-09
4.4151057e-09
3.9640881e-09
3.5894929e-09
3.3010134e-09
3.1034146e-09
2.9975678e-09
2.9812105e-09
3.0490581e-09
3.1938128e-09
3.4069323e-09
3.6795389e-09
4.0025528e-09
4.3665031e-09
4.7624352e-09
5.1822321e-09
5.6186573e-09
6.065323e-09
6.5166752e-09
6.9679545e-09
7.4151277e-09
7.8548556e-09
8.2844079e-09
8.7013983e-09
9.1040039e-09
9.4908618e-09
9.8610741e-09
1.0214071e-08
1.0549575e-08
1.0867554e-08
1.1168158e-08
1.1451694e-08
1.1718616e-08
1.1969476e-08
1.2204858e-08
1.2425429e-08
1.2631847e-08
1.2824833e-08
1.3005128e-08
1.3173343e-08
5.731382e-09
4.9861625e-09
4.3554325e-09
3.831286e-09
3.4054722e-09
3.0695131e-09
2.8152767e-09
2.6348584e-09
2.5206646e-09
2.4655658e-09
2.4634215e-09
2.5086227e-09
2.5959029e-09
2.7203935e-09
2.8779331e-09
3.0644963e-09
3.2756792e-09
3.5069743e-09
3.753536e-09
4.0099599e-09
4.2700911e-09
4.5269481e-09
4.7728368e-09
4.9993046e-09
5.1979096e-09
5.3604652e-09
5.4797918e-09
5.5503975e-09
5.5689762e-09
5.5346528e-09
5.448695e-09
5.3149503e-09
5.1419997e-09
4.9407486e-09
4.7224647e-09
4.4978324e-09
4.2761505e-09
4.0650195e-09
3.8702673e-09
3.69599e-09
3.5447621e-09
3.4178827e-09
3.3155573e-09
3.2371345e-09
3.1813345e-09
3.1464711e-09
3.1306041e-09
3.1316151e-09
3.1473279e-09
3.1755998e-09
3.2143841e-09
3.2617733e-09
3.316023e-09
3.3755609e-09
3.4389921e-09
3.5050993e-09
3.5728404e-09
3.6413082e-09
3.7097364e-09
3.7774747e-09
3.8439962e-09
3.9088751e-09
3.9717748e-09
4.0324458e-09
4.0906994e-09
4.1464148e-09
4.1995164e-09
4.2499742e-09
4.2977878e-09
4.3429872e-09
4.3856252e-09
4.4257706e-09
4.4635085e-09
4.498917e-09
8.0070826e-09
7.0555242e-09
6.2099722e-09
5.4675332e-09
4.824211e-09
4.2748473e-09
3.8134762e-09
3.4335556e-09
3.1282035e-09
2.8904519e-09
2.7136203e-09
2.5913867e-09
2.5177824e-09
2.4872252e-09
2.4946843e-09
2.5355472e-09
2.6053616e-09
2.6998336e-09
2.8148626e-09
2.9462982e-09
3.0897885e-09
3.2407657e-09
3.3944881e-09
3.5459237e-09
3.6901405e-09
3.8223235e-09
3.9380971e-09
4.0338066e-09
4.1067647e-09
4.1553936e-09
4.1792067e-09
4.1788225e-09
4.1563145e-09
4.1149431e-09
4.0586612e-09
3.9915734e-09
3.9175388e-09
3.8399639e-09
3.7616914e-09
3.6849748e-09
3.611513e-09
3.5425112e-09
3.478753e-09
3.4206774e-09
3.3684522e-09
3.3220412e-09
3.2812597e-09
3.2458163e-09
3.2153487e-09
3.1894531e-09
3.167707e-09
3.1496863e-09
3.1349778e-09
3.1231867e-09
3.1139422e-09
3.1069022e-09
3.1017553e-09
3.0982193e-09
3.0960446e-09
3.0950059e-09
3.0949028e-09
3.0955651e-09
3.0968429e-09
3.0986078e-09
3.1007473e-09
3.1031677e-09
3.1057898e-09
3.1085473e-09
3.1113853e-09
3.1142583e-09
3.1171299e-09
3.1199712e-09
3.1227563e-09
3.1254724e-09
1.0069464e-08
9.0247358e-09
8.063341e-09