/*--------------------------------*- C++ -*----------------------------------*\
| =========                 |                                                 |
| \\      /  F ield         | OpenFOAM: The Open Source CFD Toolbox           |
|  \\    /   O peration     | Version:  v2006                                 |
|   \\  /    A nd           | Website:  www.openfoam.com                      |
|    \\/     M anipulation  |                                                 |
\*---------------------------------------------------------------------------*/
FoamFile
{
    version     2.0;
    format      ascii;
    class       volScalarField;
    location    "5000";
    object      nut;
}
// * * * * * * * * * * * * * * * * * * * * * * * * * * * * * * * * * * * * * //

dimensions      [0 2 -1 0 0 0 0];


internalField   nonuniform List<scalar> 
55713
(
3.9992135e-10
4.7531867e-09
2.262351e-08
4.8809729e-08
7.1509863e-08
8.6523936e-08
9.5453732e-08
1.0055478e-07
1.0333867e-07
1.0480548e-07
1.0556166e-07
1.0594604e-07
1.0613931e-07
1.062355e-07
1.0628261e-07
1.0630508e-07
1.0631509e-07
1.0631893e-07
1.0631962e-07
1.0631887e-07
1.0631738e-07
1.0631569e-07
1.0631393e-07
1.0631233e-07
1.0631084e-07
1.0630965e-07
1.0630864e-07
1.0630795e-07
1.0630747e-07
1.0630741e-07
1.0630777e-07
1.063085e-07
1.0630945e-07
1.0631078e-07
1.0631233e-07
1.0631424e-07
1.0631636e-07
1.0631887e-07
1.0632161e-07
1.0632473e-07
1.063281e-07
1.0633185e-07
1.0633584e-07
1.0634021e-07
1.0634483e-07
1.0634984e-07
1.0635512e-07
1.0636081e-07
1.0636679e-07
1.063732e-07
1.0637996e-07
1.0638718e-07
1.063948e-07
1.0640295e-07
1.0641158e-07
1.0642083e-07
1.0643069e-07
1.0644129e-07
1.064527e-07
4.7665626e-10
6.3851763e-09
2.7764222e-08
5.5664336e-08
7.7437794e-08
9.0772831e-08
9.8324204e-08
1.0242811e-07
1.0456356e-07
1.0564507e-07
1.0618472e-07
1.0645139e-07
1.0658208e-07
1.0664542e-07
1.0667544e-07
1.0668897e-07
1.0669433e-07
1.0669565e-07
1.06695e-07
1.0669344e-07
1.066915e-07
1.0668947e-07
1.066875e-07
1.066857e-07
1.0668409e-07
1.0668274e-07
1.0668162e-07
1.0668078e-07
1.0668018e-07
1.0667992e-07
1.0668022e-07
1.0668075e-07
1.0668158e-07
1.0668272e-07
1.0668411e-07
1.0668579e-07
1.0668774e-07
1.0669e-07
1.0669254e-07
1.0669541e-07
1.0669855e-07
1.0670202e-07
1.0670576e-07
1.0670982e-07
1.0671416e-07
1.0671884e-07
1.067238e-07
1.0672911e-07
1.0673472e-07
1.0674071e-07
1.0674704e-07
1.0675377e-07
1.0676088e-07
1.0676846e-07
1.0677648e-07
1.0678503e-07
1.0679412e-07
1.0680385e-07
1.0681427e-07
5.8761795e-10
8.4910079e-09
3.3614352e-08
6.2641212e-08
8.2989084e-08
9.4574105e-08
1.0080946e-07
1.0401611e-07
1.0560697e-07
1.0638173e-07
1.06756e-07
1.0693566e-07
1.0702121e-07
1.0706136e-07
1.0707947e-07
1.0708687e-07
1.07089e-07
1.0708861e-07
1.0708701e-07
1.0708489e-07
1.0708259e-07
1.0708034e-07
1.0707819e-07
1.0707626e-07
1.0707453e-07
1.0707307e-07
1.0707184e-07
1.0707089e-07
1.0707017e-07
1.0706969e-07
1.0706998e-07
1.0707034e-07
1.0707101e-07
1.0707199e-07
1.0707319e-07
1.0707469e-07
1.0707644e-07
1.0707849e-07
1.0708081e-07
1.0708344e-07
1.0708634e-07
1.0708955e-07
1.0709301e-07
1.0709679e-07
1.0710083e-07
1.0710518e-07
1.0710981e-07
1.0711476e-07
1.0711999e-07
1.0712557e-07
1.0713145e-07
1.0713771e-07
1.0714431e-07
1.0715132e-07
1.0715873e-07
1.071666e-07
1.0717494e-07
1.0718381e-07
1.0719329e-07
7.4993029e-10
1.1171897e-08
4.0149672e-08
6.9584695e-08
8.8088941e-08
9.7925127e-08
1.0292599e-07
1.053537e-07
1.0650274e-07
1.0704092e-07
1.072927e-07
1.0740971e-07
1.0746365e-07
1.0748786e-07
1.0749789e-07
1.0750115e-07
1.0750113e-07
1.0749958e-07
1.0749732e-07
1.0749483e-07
1.0749229e-07
1.0748987e-07
1.074876e-07
1.0748555e-07
1.0748373e-07
1.0748218e-07
1.0748087e-07
1.0747984e-07
1.0747902e-07
1.0747842e-07
1.0747846e-07
1.0747879e-07
1.0747933e-07
1.0748015e-07
1.0748119e-07
1.0748249e-07
1.0748405e-07
1.0748588e-07
1.0748799e-07
1.0749038e-07
1.0749304e-07
1.0749598e-07
1.0749919e-07
1.0750267e-07
1.0750641e-07
1.0751044e-07
1.0751473e-07
1.0751931e-07
1.0752416e-07
1.0752932e-07
1.0753477e-07
1.0754054e-07
1.0754664e-07
1.0755308e-07
1.0755989e-07
1.0756708e-07
1.0757468e-07
1.0758272e-07
1.0759128e-07
9.8731578e-10
1.4540855e-08
4.7310115e-08
7.6336908e-08
9.2690611e-08
1.0082721e-07
1.0470523e-07
1.0648187e-07
1.0728459e-07
1.0764596e-07
1.0780978e-07
1.0788299e-07
1.0791539e-07
1.0792894e-07
1.0793363e-07
1.0793418e-07
1.0793274e-07
1.0793044e-07
1.0792776e-07
1.0792503e-07
1.0792233e-07
1.079198e-07
1.0791745e-07
1.0791534e-07
1.0791346e-07
1.0791185e-07
1.0791048e-07
1.0790937e-07
1.0790847e-07
1.0790779e-07
1.0790756e-07
1.0790785e-07
1.079083e-07
1.0790896e-07
1.0790984e-07
1.0791096e-07
1.0791233e-07
1.0791395e-07
1.0791584e-07
1.07918e-07
1.0792042e-07
1.079231e-07
1.0792604e-07
1.0792922e-07
1.0793267e-07
1.0793636e-07
1.0794032e-07
1.0794452e-07
1.07949e-07
1.0795373e-07
1.0795875e-07
1.0796403e-07
1.0796963e-07
1.079755e-07
1.0798171e-07
1.0798822e-07
1.0799512e-07
1.0800232e-07
1.0801e-07
1.335646e-09
1.8721385e-08
5.4993732e-08
8.2747143e-08
9.6772582e-08
1.0329319e-07
1.0619043e-07
1.0744323e-07
1.079839e-07
1.0821782e-07
1.0831953e-07
1.0836343e-07
1.0838169e-07
1.0838829e-07
1.0838959e-07
1.0838838e-07
1.083861e-07
1.083833e-07
1.083804e-07
1.0837749e-07
1.0837475e-07
1.0837213e-07
1.0836977e-07
1.083676e-07
1.0836573e-07
1.0836405e-07
1.0836267e-07
1.0836147e-07
1.0836055e-07
1.0835976e-07
1.0835933e-07
1.0835952e-07
1.0835993e-07
1.0836043e-07
1.0836118e-07
1.083621e-07
1.083633e-07
1.083647e-07
1.0836639e-07
1.083683e-07
1.0837049e-07
1.083729e-07
1.0837558e-07
1.0837846e-07
1.0838161e-07
1.0838496e-07
1.0838858e-07
1.0839241e-07
1.083965e-07
1.084008e-07
1.0840538e-07
1.0841018e-07
1.0841527e-07
1.0842058e-07
1.0842619e-07
1.0843204e-07
1.0843822e-07
1.0844463e-07
1.0845144e-07
1.8472925e-09
2.3845237e-08
6.3054245e-08
8.8683482e-08
1.0032847e-07
1.053549e-07
1.0743136e-07
1.0827883e-07
1.0862835e-07
1.0877305e-07
1.0883337e-07
1.08858e-07
1.0886716e-07
1.0886943e-07
1.088686e-07
1.0886638e-07
1.0886356e-07
1.0886053e-07
1.088575e-07
1.0885456e-07
1.0885178e-07
1.0884918e-07
1.0884682e-07
1.0884468e-07
1.0884279e-07
1.0884111e-07
1.088397e-07
1.0883849e-07
1.0883751e-07
1.0883668e-07
1.0883605e-07
1.0883618e-07
1.0883647e-07
1.0883688e-07
1.088375e-07
1.0883825e-07
1.0883926e-07
1.0884046e-07
1.0884193e-07
1.0884362e-07
1.0884557e-07
1.0884772e-07
1.0885012e-07
1.0885271e-07
1.0885554e-07
1.0885857e-07
1.0886183e-07
1.0886528e-07
1.0886898e-07
1.0887286e-07
1.0887699e-07
1.088813e-07
1.0888587e-07
1.0889062e-07
1.0889564e-07
1.0890083e-07
1.0890631e-07
1.0891193e-07
1.0891789e-07
2.5981699e-09
3.0049321e-08
7.1301567e-08
9.4044131e-08
1.0336096e-07
1.0706031e-07
1.0847966e-07
1.0902609e-07
1.0924186e-07
1.0932643e-07
1.0936001e-07
1.0937253e-07
1.0937612e-07
1.0937579e-07
1.0937374e-07
1.0937095e-07
1.0936789e-07
1.0936477e-07
1.0936174e-07
1.0935882e-07
1.093561e-07
1.0935357e-07
1.0935126e-07
1.0934916e-07
1.0934731e-07
1.0934565e-07
1.0934425e-07
1.0934303e-07
1.0934203e-07
1.0934117e-07
1.0934046e-07
1.0934043e-07
1.0934064e-07
1.0934094e-07
1.0934146e-07
1.0934205e-07
1.093429e-07
1.0934389e-07
1.0934516e-07
1.0934662e-07
1.0934832e-07
1.0935021e-07
1.0935234e-07
1.0935463e-07
1.0935715e-07
1.0935983e-07
1.0936274e-07
1.0936581e-07
1.093691e-07
1.0937255e-07
1.0937623e-07
1.0938004e-07
1.093841e-07
1.0938828e-07
1.093927e-07
1.0939724e-07
1.0940202e-07
1.0940687e-07
1.0941202e-07
3.6963749e-09
3.7471515e-08
7.9506741e-08
9.8766281e-08
1.0588961e-07
1.0846752e-07
1.093851e-07
1.0971911e-07
1.0984312e-07
1.0988993e-07
1.099071e-07
1.0991238e-07
1.0991273e-07
1.0991096e-07
1.099083e-07
1.0990527e-07
1.0990217e-07
1.098991e-07
1.0989615e-07
1.0989335e-07
1.0989075e-07
1.0988834e-07
1.0988614e-07
1.0988413e-07
1.0988235e-07
1.0988074e-07
1.0987938e-07
1.0987818e-07
1.098772e-07
1.0987634e-07
1.0987562e-07
1.0987537e-07
1.0987553e-07
1.0987571e-07
1.0987614e-07
1.0987659e-07
1.0987732e-07
1.098781e-07
1.0987917e-07
1.0988039e-07
1.0988187e-07
1.0988348e-07
1.0988534e-07
1.0988731e-07
1.0988953e-07
1.0989185e-07
1.0989441e-07
1.0989707e-07
1.0989997e-07
1.0990296e-07
1.0990619e-07
1.0990949e-07
1.0991303e-07
1.0991663e-07
1.0992047e-07
1.0992434e-07
1.0992845e-07
1.0993253e-07
1.0993688e-07
5.2928217e-09
4.6245441e-08
8.741203e-08
1.0282512e-07
1.0795852e-07
1.0963935e-07
1.1019332e-07
1.10384e-07
1.1045046e-07
1.1047396e-07
1.1048146e-07
1.1048264e-07
1.1048128e-07
1.1047882e-07
1.1047597e-07
1.1047294e-07
1.1046998e-07
1.1046706e-07
1.1046432e-07
1.104617e-07
1.1045931e-07
1.1045705e-07
1.1045503e-07
1.1045314e-07
1.1045149e-07
1.1044997e-07
1.104487e-07
1.1044754e-07
1.1044662e-07
1.1044577e-07
1.104451e-07
1.1044469e-07
1.1044478e-07
1.1044485e-07
1.104452e-07
1.1044549e-07
1.1044612e-07
1.104467e-07
1.1044759e-07
1.1044858e-07
1.1044983e-07
1.1045117e-07
1.1045275e-07
1.1045441e-07
1.104563e-07
1.1045826e-07
1.1046046e-07
1.1046271e-07
1.1046519e-07
1.1046772e-07
1.1047048e-07
1.1047327e-07
1.1047628e-07
1.104793e-07
1.1048254e-07
1.1048576e-07
1.1048919e-07
1.1049254e-07
1.104961e-07
7.5963998e-09
5.6493959e-08
9.4747036e-08
1.062206e-07
1.0963236e-07
1.1063842e-07
1.1094553e-07
1.110441e-07
1.1107675e-07
1.1108707e-07
1.1108933e-07
1.1108845e-07
1.1108635e-07
1.1108373e-07
1.1108097e-07
1.1107817e-07
1.1107546e-07
1.1107285e-07
1.110704e-07
1.1106807e-07
1.1106594e-07
1.1106393e-07
1.1106212e-07
1.1106044e-07
1.1105895e-07
1.1105758e-07
1.1105643e-07
1.1105537e-07
1.1105452e-07
1.1105375e-07
1.1105313e-07
1.1105269e-07
1.1105263e-07
1.1105265e-07
1.1105289e-07
1.1105308e-07
1.1105358e-07
1.1105401e-07
1.1105471e-07
1.1105548e-07
1.1105648e-07
1.1105757e-07
1.1105885e-07
1.110602e-07
1.1106175e-07
1.1106336e-07
1.1106515e-07
1.11067e-07
1.1106903e-07
1.1107111e-07
1.1107336e-07
1.1107564e-07
1.110781e-07
1.1108054e-07
1.1108317e-07
1.1108574e-07
1.1108849e-07
1.1109112e-07
1.1109392e-07
1.0898514e-08
6.832425e-08
1.0125414e-07
1.0896858e-07
1.1098856e-07
1.1152378e-07
1.1167476e-07
1.1172008e-07
1.1173384e-07
1.1173724e-07
1.1173698e-07
1.1173531e-07
1.1173312e-07
1.1173072e-07
1.117283e-07
1.1172589e-07
1.1172361e-07
1.1172141e-07
1.1171937e-07
1.1171742e-07
1.1171565e-07
1.1171395e-07
1.1171245e-07
1.1171101e-07
1.1170978e-07
1.117086e-07
1.1170764e-07
1.1170671e-07
1.1170601e-07
1.1170531e-07
1.1170482e-07
1.1170436e-07
1.1170425e-07
1.1170418e-07
1.1170438e-07
1.1170441e-07
1.1170485e-07
1.1170507e-07
1.1170567e-07
1.1170618e-07
1.1170698e-07
1.1170776e-07
1.1170878e-07
1.1170978e-07
1.1171101e-07
1.117122e-07
1.1171364e-07
1.1171502e-07
1.1171663e-07
1.1171819e-07
1.1171997e-07
1.1172167e-07
1.117236e-07
1.1172542e-07
1.1172746e-07
1.1172935e-07
1.1173145e-07
1.1173335e-07
1.1173544e-07
1.5562969e-08
8.18242e-08
1.0671793e-07
1.1111304e-07
1.1211113e-07
1.1234859e-07
1.1241027e-07
1.1242746e-07
1.124319e-07
1.1243224e-07
1.1243115e-07
1.1242951e-07
1.1242769e-07
1.124258e-07
1.1242395e-07
1.1242213e-07
1.1242043e-07
1.1241878e-07
1.1241728e-07
1.1241581e-07
1.1241451e-07
1.1241322e-07
1.1241212e-07
1.1241102e-07
1.1241012e-07
1.124092e-07
1.124085e-07
1.1240777e-07
1.1240726e-07
1.124067e-07
1.1240636e-07
1.1240595e-07
1.1240587e-07
1.124057e-07
1.1240586e-07
1.124058e-07
1.1240614e-07
1.1240621e-07
1.1240665e-07
1.1240696e-07
1.1240752e-07
1.1240802e-07
1.1240875e-07
1.124094e-07
1.1241027e-07
1.1241106e-07
1.1241207e-07
1.12413e-07
1.1241413e-07
1.1241517e-07
1.1241642e-07
1.1241756e-07
1.124189e-07
1.124201e-07
1.1242151e-07
1.1242274e-07
1.1242416e-07
1.1242538e-07
1.1242675e-07
2.1966877e-08
9.7029211e-08
1.1098314e-07
1.1274186e-07
1.1308475e-07
1.1315771e-07
1.1317529e-07
1.1317969e-07
1.1318038e-07
1.1317991e-07
1.13179e-07
1.1317796e-07
1.1317687e-07
1.1317578e-07
1.1317472e-07
1.131737e-07
1.1317275e-07
1.1317183e-07
1.1317099e-07
1.1317016e-07
1.1316943e-07
1.131687e-07
1.1316809e-07
1.1316745e-07
1.1316697e-07
1.1316642e-07
1.1316605e-07
1.1316559e-07
1.1316534e-07
1.1316496e-07
1.1316483e-07
1.1316454e-07
1.1316454e-07
1.1316435e-07
1.1316449e-07
1.1316433e-07
1.1316463e-07
1.1316453e-07
1.1316485e-07
1.1316491e-07
1.1316531e-07
1.1316545e-07
1.1316594e-07
1.1316616e-07
1.1316673e-07
1.1316702e-07
1.1316767e-07
1.1316802e-07
1.1316873e-07
1.1316915e-07
1.1316992e-07
1.1317038e-07
1.1317118e-07
1.1317169e-07
1.131725e-07
1.1317302e-07
1.1317381e-07
1.1317433e-07
1.1317506e-07
1.0299215e-07
1.029661e-07
1.0294804e-07
1.0293755e-07
1.0292794e-07
1.0291928e-07
1.0291081e-07
1.0290256e-07
1.0289449e-07
1.0288659e-07
1.0287888e-07
1.0287136e-07
1.0286405e-07
1.0285695e-07
1.028501e-07
1.028435e-07
1.0283718e-07
1.0283115e-07
1.0282545e-07
1.028201e-07
1.0281513e-07
1.0281056e-07
1.0280642e-07
1.0280272e-07
1.0279949e-07
1.0279674e-07
1.0279448e-07
1.0279274e-07
1.0279155e-07
1.027909e-07
1.0279072e-07
1.0279088e-07
1.0279116e-07
1.0279117e-07
1.0279024e-07
1.0278711e-07
1.0277946e-07
1.0276305e-07
1.0273024e-07
1.0266756e-07
1.0255199e-07
1.0234523e-07
1.0198557e-07
1.0137722e-07
1.003778e-07
9.8787042e-08
9.6343159e-08
9.2735341e-08
8.7625065e-08
8.0617e-08
7.1244091e-08
5.9219755e-08
4.4889684e-08
2.9670941e-08
1.6025746e-08
6.4461009e-09
1.8103175e-09
6.9984505e-10
8.1554647e-10
1.0310962e-07
1.0308511e-07
1.0306859e-07
1.0305823e-07
1.0304879e-07
1.0304004e-07
1.0303154e-07
1.0302323e-07
1.0301513e-07
1.0300719e-07
1.0299945e-07
1.0299191e-07
1.0298458e-07
1.0297747e-07
1.0297061e-07
1.0296401e-07
1.0295769e-07
1.0295167e-07
1.0294598e-07
1.0294064e-07
1.0293569e-07
1.0293113e-07
1.02927e-07
1.0292331e-07
1.029201e-07
1.0291737e-07
1.0291513e-07
1.029134e-07
1.0291222e-07
1.0291158e-07
1.0291143e-07
1.0291165e-07
1.0291203e-07
1.0291224e-07
1.0291168e-07
1.0290926e-07
1.0290296e-07
1.028891e-07
1.0286097e-07
1.0280675e-07
1.0270609e-07
1.0252484e-07
1.0220744e-07
1.0166666e-07
1.0077085e-07
9.9331281e-08
9.7094944e-08
9.3751821e-08
8.8956567e-08
8.2313511e-08
7.3335208e-08
6.1643034e-08
4.7422813e-08
3.1931787e-08
1.7621299e-08
7.2320639e-09
2.0063769e-09
6.6451144e-10
7.3249447e-10
1.0323927e-07
1.0321615e-07
1.0320104e-07
1.0319078e-07
1.0318143e-07
1.0317261e-07
1.0316406e-07
1.031557e-07
1.0314755e-07
1.0313958e-07
1.0313182e-07
1.0312425e-07
1.0311691e-07
1.031098e-07
1.0310294e-07
1.0309634e-07
1.0309003e-07
1.0308403e-07
1.0307836e-07
1.0307305e-07
1.0306811e-07
1.0306358e-07
1.0305947e-07
1.0305581e-07
1.0305262e-07
1.0304991e-07
1.030477e-07
1.0304599e-07
1.0304482e-07
1.030442e-07
1.0304408e-07
1.0304435e-07
1.0304482e-07
1.0304521e-07
1.03045e-07
1.0304324e-07
1.030382e-07
1.0302671e-07
1.03003e-07
1.029568e-07
1.0287032e-07
1.027135e-07
1.0243693e-07
1.0196204e-07
1.0116842e-07
9.9880093e-08
9.7854977e-08
9.4786543e-08
9.0322902e-08
8.4066023e-08
7.5516094e-08
6.4208839e-08
5.0161845e-08
3.4442622e-08
1.94512e-08
8.1698134e-09
2.2596091e-09
6.4098073e-10
6.5619288e-10
1.0338231e-07
1.0336043e-07
1.0334658e-07
1.0333636e-07
1.0332706e-07
1.0331817e-07
1.0330957e-07
1.0330116e-07
1.0329297e-07
1.0328497e-07
1.0327718e-07
1.032696e-07
1.0326226e-07
1.0325514e-07
1.032483e-07
1.0324171e-07
1.0323542e-07
1.0322944e-07
1.032238e-07
1.0321851e-07
1.0321361e-07
1.0320911e-07
1.0320504e-07
1.0320141e-07
1.0319824e-07
1.0319556e-07
1.0319337e-07
1.0319168e-07
1.0319053e-07
1.0318992e-07
1.0318983e-07
1.0319015e-07
1.0319072e-07
1.0319127e-07
1.0319138e-07
1.0319023e-07
1.0318637e-07
1.0317708e-07
1.0315747e-07
1.0311876e-07
1.0304563e-07
1.0291194e-07
1.0267433e-07
1.0226293e-07
1.0156899e-07
1.0043031e-07
9.8617944e-08
9.5832058e-08
9.1715772e-08
8.5865708e-08
7.7776615e-08
6.6909015e-08
5.3107339e-08
3.721928e-08
2.1544759e-08
9.2878739e-09
2.5840236e-09
6.3182671e-10
5.8936359e-10
1.0354002e-07
1.0351939e-07
1.0350654e-07
1.0349637e-07
1.0348708e-07
1.0347812e-07
1.0346948e-07
1.0346102e-07
1.034528e-07
1.0344476e-07
1.0343697e-07
1.0342938e-07
1.0342204e-07
1.0341493e-07
1.034081e-07
1.0340154e-07
1.0339528e-07
1.0338933e-07
1.0338373e-07
1.0337848e-07
1.0337362e-07
1.0336915e-07
1.0336512e-07
1.0336152e-07
1.033584e-07
1.0335574e-07
1.0335359e-07
1.0335193e-07
1.0335079e-07
1.033502e-07
1.0335014e-07
1.033505e-07
1.0335115e-07
1.0335186e-07
1.0335225e-07
1.0335166e-07
1.0334887e-07
1.0334162e-07
1.0332579e-07
1.03294e-07
1.0323327e-07
1.0312123e-07
1.029204e-07
1.0256952e-07
1.0197174e-07
1.0097962e-07
9.9379484e-08
9.6881791e-08
9.3127723e-08
8.7705671e-08
8.0109081e-08
6.9737794e-08
5.626253e-08
4.0281832e-08
2.3938162e-08
1.0622535e-08
2.9981171e-09
6.3950149e-10
5.3024021e-10
1.0371391e-07
1.0369461e-07
1.0368252e-07
1.036724e-07
1.0366309e-07
1.0365408e-07
1.0364539e-07
1.0363689e-07
1.0362864e-07
1.0362059e-07
1.0361279e-07
1.036052e-07
1.0359788e-07
1.035908e-07
1.03584e-07
1.0357747e-07
1.0357125e-07
1.0356534e-07
1.0355979e-07
1.0355458e-07
1.0354977e-07
1.0354535e-07
1.0354137e-07
1.0353782e-07
1.0353474e-07
1.0353212e-07
1.0353e-07
1.0352837e-07
1.0352725e-07
1.0352668e-07
1.0352665e-07
1.0352705e-07
1.0352777e-07
1.0352861e-07
1.0352927e-07
1.0352919e-07
1.0352736e-07
1.0352194e-07
1.0350955e-07
1.0348407e-07
1.0343471e-07
1.0334266e-07
1.0317607e-07
1.0288214e-07
1.0237598e-07
1.0152563e-07
1.0013474e-07
9.7927908e-08
9.4548876e-08
8.9576442e-08
8.2502857e-08
7.2685056e-08
5.9625631e-08
4.3647283e-08
2.6669671e-08
1.2216704e-08
3.525925e-09
6.6813413e-10
4.7864845e-10
1.0390587e-07
1.0388794e-07
1.0387638e-07
1.038663e-07
1.0385696e-07
1.0384791e-07
1.0383917e-07
1.0383064e-07
1.0382237e-07
1.0381432e-07
1.0380653e-07
1.0379896e-07
1.0379167e-07
1.0378462e-07
1.0377786e-07
1.0377138e-07
1.0376522e-07
1.0375937e-07
1.0375388e-07
1.0374873e-07
1.0374398e-07
1.0373963e-07
1.037357e-07
1.0373221e-07
1.0372918e-07
1.037266e-07
1.0372452e-07
1.0372292e-07
1.0372183e-07
1.0372128e-07
1.0372127e-07
1.0372171e-07
1.0372249e-07
1.0372345e-07
1.0372435e-07
1.0372471e-07
1.0372374e-07
1.0371996e-07
1.0371063e-07
1.0369082e-07
1.0365172e-07
1.0357785e-07
1.0344265e-07
1.0320149e-07
1.0278135e-07
1.0206623e-07
1.0087886e-07
9.896187e-08
9.5967326e-08
9.1465921e-08
8.4944921e-08
7.5736687e-08
6.3189549e-08
4.7328707e-08
2.9779123e-08
1.4120883e-08
4.1986222e-09
7.2367496e-10
4.3401093e-10
1.0411808e-07
1.0410152e-07
1.0409027e-07
1.0408024e-07
1.0407086e-07
1.0406176e-07
1.0405299e-07
1.0404444e-07
1.0403618e-07
1.0402813e-07
1.0402037e-07
1.0401284e-07
1.0400559e-07
1.039986e-07
1.0399191e-07
1.0398549e-07
1.0397941e-07
1.0397363e-07
1.0396821e-07
1.0396315e-07
1.0395848e-07
1.0395419e-07
1.0395035e-07
1.0394691e-07
1.0394395e-07
1.0394142e-07
1.0393938e-07
1.0393782e-07
1.0393677e-07
1.0393624e-07
1.0393625e-07
1.0393671e-07
1.0393756e-07
1.0393862e-07
1.0393971e-07
1.0394046e-07
1.0394024e-07
1.0393788e-07
1.0393125e-07
1.0391642e-07
1.0388641e-07
1.0382875e-07
1.0372183e-07
1.0352874e-07
1.0318799e-07
1.0259974e-07
1.0160718e-07
9.9974676e-08
9.7369192e-08
9.3358423e-08
8.7419303e-08
7.8873891e-08
6.6940337e-08
5.1332926e-08
3.3306099e-08
1.6393464e-08
5.0564554e-09
8.1496121e-10
3.9611078e-10
1.0435308e-07
1.0433773e-07
1.0432672e-07
1.0431672e-07
1.043073e-07
1.0429817e-07
1.0428939e-07
1.0428084e-07
1.042726e-07
1.0426459e-07
1.0425687e-07
1.042494e-07
1.0424222e-07
1.0423531e-07
1.042287e-07
1.0422238e-07
1.0421639e-07
1.0421071e-07
1.0420539e-07
1.0420042e-07
1.0419585e-07
1.0419166e-07
1.0418791e-07
1.0418456e-07
1.0418166e-07
1.041792e-07
1.0417722e-07
1.041757e-07
1.0417468e-07
1.0417417e-07
1.041742e-07
1.0417469e-07
1.0417558e-07
1.0417672e-07
1.0417797e-07
1.0417904e-07
1.0417946e-07
1.0417831e-07
1.0417398e-07
1.0416345e-07
1.0414131e-07
1.0409782e-07
1.0401583e-07
1.0386562e-07
1.035967e-07
1.0312519e-07
1.0231567e-07
1.0095743e-07
9.8739221e-08
9.5234286e-08
8.9906531e-08
8.2073114e-08
7.085617e-08
5.5658256e-08
3.7287641e-08
1.9100699e-08
6.151024e-09
9.5498826e-10
3.6488337e-10
1.0461385e-07
1.0459953e-07
1.0458869e-07
1.045787e-07
1.0456926e-07
1.0456012e-07
1.0455134e-07
1.0454282e-07
1.0453462e-07
1.0452667e-07
1.0451903e-07
1.0451164e-07
1.0450457e-07
1.0449776e-07
1.0449128e-07
1.0448507e-07
1.0447921e-07
1.0447365e-07
1.0446847e-07
1.0446362e-07
1.0445918e-07
1.044551e-07
1.0445146e-07
1.0444821e-07
1.0444541e-07
1.0444302e-07
1.0444111e-07
1.0443963e-07
1.0443866e-07
1.0443817e-07
1.0443822e-07
1.0443873e-07
1.0443964e-07
1.0444084e-07
1.0444221e-07
1.0444354e-07
1.0444447e-07
1.0444432e-07
1.0444191e-07
1.0443498e-07
1.0441948e-07
1.0438804e-07
1.043275e-07
1.0421463e-07
1.0400918e-07
1.036427e-07
1.0300143e-07
1.0190207e-07
1.000617e-07
9.707013e-08
9.2382271e-08
8.5306078e-08
7.4906415e-08
6.0291899e-08
4.1755208e-08
2.2315928e-08
7.5477541e-09
1.1628925e-09
3.4063045e-10
1.0490379e-07
1.0489036e-07
1.0487966e-07
1.0486968e-07
1.0486022e-07
1.0485109e-07
1.0484235e-07
1.0483388e-07
1.0482576e-07
1.0481791e-07
1.0481039e-07
1.0480313e-07
1.047962e-07
1.0478954e-07
1.0478321e-07
1.0477716e-07
1.0477147e-07
1.0476608e-07
1.0476106e-07
1.0475637e-07
1.0475209e-07
1.0474816e-07
1.0474466e-07
1.0474153e-07
1.0473885e-07
1.0473655e-07
1.0473472e-07
1.047333e-07
1.0473238e-07
1.047319e-07
1.0473197e-07
1.0473248e-07
1.0473341e-07
1.0473463e-07
1.047361e-07
1.047376e-07
1.0473893e-07
1.0473957e-07
1.0473869e-07
1.0473466e-07
1.047246e-07
1.047031e-07
1.0466046e-07
1.0457918e-07
1.044283e-07
1.0415379e-07
1.0366322e-07
1.0280219e-07
1.0132173e-07
9.8840148e-08
9.4815668e-08
8.853975e-08
7.9051042e-08
6.5207173e-08
4.6730712e-08
2.6118004e-08
9.3283687e-09
1.4667789e-09
3.2415283e-10
1.0522708e-07
1.0521442e-07
1.052038e-07
1.0519383e-07
1.0518437e-07
1.0517529e-07
1.051666e-07
1.0515824e-07
1.0515024e-07
1.0514254e-07
1.0513518e-07
1.051281e-07
1.0512136e-07
1.0511491e-07
1.0510878e-07
1.0510296e-07
1.0509747e-07
1.050923e-07
1.0508749e-07
1.0508302e-07
1.0507892e-07
1.0507519e-07
1.0507185e-07
1.050689e-07
1.0506634e-07
1.0506418e-07
1.0506243e-07
1.0506109e-07
1.050602e-07
1.0505976e-07
1.0505983e-07
1.0506036e-07
1.0506127e-07
1.050625e-07
1.0506398e-07
1.0506561e-07
1.050672e-07
1.0506843e-07
1.050687e-07
1.0506693e-07
1.0506111e-07
1.0504751e-07
1.0501927e-07
1.049638e-07
1.0485828e-07
1.046618e-07
1.0430213e-07
1.0365413e-07
1.0250679e-07
1.0051835e-07
9.7168901e-08
9.1735212e-08
8.3240605e-08
7.0360759e-08
5.2221722e-08
3.0588798e-08
1.1593046e-08
1.9075924e-09
3.1701763e-10
1.055887e-07
1.0557666e-07
1.0556608e-07
1.0555612e-07
1.0554669e-07
1.0553769e-07
1.0552911e-07
1.0552092e-07
1.0551309e-07
1.0550561e-07
1.0549847e-07
1.0549166e-07
1.0548517e-07
1.05479e-07
1.0547315e-07
1.0546761e-07
1.0546241e-07
1.0545753e-07
1.0545298e-07
1.0544878e-07
1.0544493e-07
1.0544145e-07
1.0543833e-07
1.0543557e-07
1.0543319e-07
1.0543118e-07
1.0542954e-07
1.0542831e-07
1.0542747e-07
1.0542705e-07
1.0542712e-07
1.0542764e-07
1.0542852e-07
1.0542972e-07
1.0543118e-07
1.0543284e-07
1.0543457e-07
1.0543617e-07
1.0543725e-07
1.0543711e-07
1.0543444e-07
1.0542682e-07
1.0540965e-07
1.0537437e-07
1.0530504e-07
1.0517223e-07
1.0492215e-07
1.0445792e-07
1.036086e-07
1.0208158e-07
9.9399802e-08
9.4844296e-08
8.7416999e-08
7.5690264e-08
5.8215417e-08
3.5810199e-08
1.4462208e-08
2.5441376e-09
3.2246395e-10
1.0599474e-07
1.0598313e-07
1.0597257e-07
1.0596264e-07
1.0595327e-07
1.0594441e-07
1.0593602e-07
1.0592805e-07
1.0592049e-07
1.0591331e-07
1.0590648e-07
1.0590001e-07
1.0589387e-07
1.0588808e-07
1.0588259e-07
1.0587744e-07
1.058726e-07
1.058681e-07
1.058639e-07
1.0586006e-07
1.0585653e-07
1.0585336e-07
1.0585052e-07
1.0584803e-07
1.0584586e-07
1.0584405e-07
1.0584255e-07
1.0584144e-07
1.0584066e-07
1.0584026e-07
1.0584033e-07
1.0584084e-07
1.0584164e-07
1.0584277e-07
1.0584414e-07
1.0584576e-07
1.058475e-07
1.0584928e-07
1.0585082e-07
1.0585175e-07
1.0585123e-07
1.0584783e-07
1.0583867e-07
1.0581837e-07
1.0577647e-07
1.0569317e-07
1.0553075e-07
1.0521844e-07
1.0462505e-07
1.0351304e-07
1.0146745e-07
9.7806945e-08
9.1514322e-08
8.1112976e-08
6.4671579e-08
4.1861135e-08
1.8080006e-08
3.457907e-09
3.4734417e-10
8.9205285e-10
9.3090947e-10
9.7487398e-10
1.0150413e-09
1.0488655e-09
1.0759449e-09
1.0963733e-09
1.1105996e-09
1.1191858e-09
1.1226706e-09
1.1215121e-09
1.1160152e-09
1.106355e-09
1.0925326e-09
1.0744243e-09
1.0517527e-09
1.0241552e-09
9.9118165e-10
9.5237318e-10
9.0728597e-10
8.5561961e-10
7.9715761e-10
7.3230409e-10
6.6145047e-10
5.8539132e-10
5.0575004e-10
4.2445579e-10
3.4383082e-10
2.6648867e-10
1.9514019e-10
1.3237011e-10
8.0417823e-11
4.0979357e-11
1.5017119e-11
2.9355268e-12
6.2711325e-12
2.0833085e-11
4.6257545e-11
8.1086673e-11
1.2348758e-10
1.7156705e-10
2.2352848e-10
2.7776488e-10
3.3290044e-10
3.8779538e-10
4.4155361e-10
4.9350489e-10
5.4317443e-10
5.9024549e-10
6.3451878e-10
6.7590168e-10
7.1439318e-10
7.5005362e-10
7.8298372e-10
8.1331214e-10
8.4118327e-10
8.6675277e-10
8.9018706e-10
9.1164732e-10
9.3128394e-10
9.4924159e-10
9.6565813e-10
9.8066328e-10
9.9437669e-10
1.0069095e-09
1.018365e-09
1.028837e-09
1.0384092e-09
1.047158e-09
1.0551527e-09
1.0624566e-09
1.0691182e-09
1.0751903e-09
1.0806523e-09
7.6192991e-10
8.1441709e-10
8.6517501e-10
9.1125174e-10
9.5139211e-10
9.8516611e-10
1.0126835e-09
1.0339875e-09
1.0493552e-09
1.0592052e-09
1.063996e-09
1.064122e-09
1.0598713e-09
1.0513881e-09
1.0386756e-09
1.0215875e-09
9.9985688e-10
9.7311306e-10
9.409324e-10
9.0287804e-10
8.5858909e-10
8.0779305e-10
7.5060128e-10
6.8730219e-10
6.1848851e-10
5.4533945e-10
4.6944971e-10
3.9278308e-10
3.1757997e-10
2.4617309e-10
1.8073493e-10
1.2366981e-10
7.9637501e-11
4.6353267e-11
2.5184343e-11
1.6430147e-11
1.8337347e-11
3.030954e-11
5.1722432e-11
8.0867296e-11
1.1614387e-10
1.5603431e-10
1.9912616e-10
2.4416949e-10
2.9009351e-10
3.3599532e-10
3.8100185e-10
4.2461438e-10
4.6645991e-10
5.0643734e-10
5.4438944e-10
5.8020242e-10
6.1383438e-10
6.4529567e-10
6.7463194e-10
7.0191523e-10
7.272343e-10
7.5068956e-10
7.723889e-10
7.9244053e-10
8.1095235e-10
8.2802932e-10
8.4377311e-10
8.5828083e-10
8.7164402e-10
8.8393438e-10
8.9520659e-10
9.055485e-10
9.1503824e-10
9.2374812e-10
9.3174294e-10
9.3908247e-10
9.4582187e-10
9.5200478e-10
1.4654639e-09
1.2564164e-09
1.1321585e-09
1.0605713e-09
1.0218861e-09
1.0046599e-09
1.0071991e-09
1.0151212e-09
1.0239488e-09
1.0317131e-09
1.0375325e-09
1.0408148e-09
1.0411491e-09
1.0382789e-09
1.0320102e-09
1.0221399e-09
1.0084095e-09
9.9049023e-10
9.67992e-10
9.4048552e-10
9.0755084e-10
8.6881189e-10
8.2407526e-10
7.7333891e-10
7.1682477e-10
6.5513694e-10
5.892561e-10
5.2051373e-10
4.505142e-10
3.8096219e-10
3.130804e-10
2.4765444e-10
1.9218233e-10
1.4632607e-10
1.1026383e-10
8.4011059e-11
6.6979691e-11
5.8668203e-11
5.8347532e-11
6.506045e-11
7.8191899e-11
9.7120233e-11
1.2028132e-10
1.4666389e-10
1.7535467e-10
2.0554848e-10
2.3652298e-10
2.6768829e-10
2.9857497e-10
3.2885101e-10
3.5826148e-10
3.8661348e-10
4.137696e-10
4.3963996e-10
4.6417264e-10
4.873473e-10
5.0916663e-10
5.2959635e-10
5.4865505e-10
5.6640728e-10
5.8292052e-10
5.9826283e-10
6.1250265e-10
6.2570697e-10
6.3794139e-10
6.4926862e-10
6.5975698e-10
6.6946914e-10
6.7845726e-10
6.8677073e-10
6.9445707e-10
7.0156225e-10
7.0813005e-10
7.1419661e-10
4.7497434e-09
3.5720464e-09
2.7632001e-09
2.2082529e-09
1.8270558e-09
1.5656861e-09
1.3902948e-09
1.2725676e-09
1.193387e-09
1.1399251e-09
1.1080295e-09
1.0881582e-09
1.073905e-09
1.062423e-09
1.0520173e-09
1.0415448e-09
1.0300012e-09
1.0165833e-09
1.0006096e-09
9.8147235e-10
9.5862067e-10
9.3156191e-10
8.9990494e-10
8.634021e-10
8.2195785e-10
7.7570626e-10
7.250278e-10
6.7054257e-10
6.1302119e-10
5.5317308e-10
4.9126655e-10
4.2911944e-10
3.7167034e-10
3.1998433e-10
2.7467707e-10
2.3604263e-10
2.040559e-10
1.7858861e-10
1.5931601e-10
1.4571831e-10
1.3732771e-10
1.336555e-10
1.3402522e-10
1.3782109e-10
1.4447043e-10
1.5367749e-10
1.6511482e-10
1.7797539e-10
1.9181318e-10
2.0628421e-10
2.2110501e-10
2.360411e-10
2.5090117e-10
2.6553196e-10
2.7981295e-10
2.9365264e-10
3.0698384e-10
3.1975389e-10
3.3192804e-10
3.4348639e-10
3.544223e-10
3.647383e-10
3.7444439e-10
3.8355625e-10
3.9209343e-10
4.000785e-10
4.0753646e-10
4.1449361e-10
4.2097606e-10
4.2701063e-10
4.3262308e-10
4.3783946e-10
4.4268519e-10
4.4718113e-10
1.2059083e-08
9.0655829e-09
6.8561576e-09
5.2450131e-09
4.0766279e-09
3.2311286e-09
2.6215515e-09
2.1819274e-09
1.8642295e-09
1.6340695e-09
1.4689267e-09
1.3503861e-09
1.2644056e-09
1.201124e-09
1.1558719e-09
1.1230012e-09
1.096476e-09
1.0737847e-09
1.0531392e-09
1.0331497e-09
1.0126825e-09
9.9081732e-10
9.6681865e-10
9.4013565e-10
9.1037794e-10
8.773393e-10
8.4099255e-10
8.0147578e-10
7.5903237e-10
7.1389318e-10
6.6611368e-10
6.1639467e-10
5.6749031e-10
5.2110564e-10
4.7796919e-10
4.3854779e-10
4.0308212e-10
3.7166546e-10
3.4425865e-10
3.2069602e-10
3.0075932e-10
2.8419882e-10
2.7070372e-10
2.5994876e-10
2.5161519e-10
2.4543339e-10
2.4115568e-10
2.3849405e-10
2.3718645e-10
2.3700156e-10
2.3773648e-10
2.3921426e-10
2.412814e-10
2.4380555e-10
2.4667431e-10
2.4981847e-10
2.5320395e-10
2.567516e-10
2.6037383e-10
2.6400286e-10
2.6759009e-10
2.7110046e-10
2.7450851e-10
2.7779622e-10
2.8095085e-10
2.8396425e-10
2.868316e-10
2.8955093e-10
2.921223e-10
2.9454754e-10
2.968298e-10
2.9897323e-10
3.0098277e-10
3.0286282e-10
2.329873e-08
1.8102326e-08
1.3989362e-08
1.0805164e-08
8.3770849e-09
6.5429264e-09
5.1661131e-09
4.1356064e-09
3.36462e-09
2.7872123e-09
2.3551863e-09
2.0318051e-09
1.7890733e-09
1.6060786e-09
1.4682845e-09
1.3643233e-09
1.2847284e-09
1.22268e-09
1.1741951e-09
1.1353225e-09
1.1026026e-09
1.0736514e-09
1.0467583e-09
1.0206916e-09
9.9454393e-10
9.6767602e-10
9.3966612e-10
9.1027773e-10
8.7941594e-10
8.4706232e-10
8.1319393e-10
7.7794194e-10
7.420716e-10
7.0663525e-10
6.7259423e-10
6.4048987e-10
6.1056769e-10
5.8295735e-10
5.5770142e-10
5.3476924e-10
5.140803e-10
4.9552235e-10
4.7895741e-10
4.642329e-10
4.5119099e-10
4.3968013e-10
4.2955736e-10
4.2068273e-10
4.1292261e-10
4.0615251e-10
4.0025826e-10
3.9513628e-10
3.9069312e-10
3.8684487e-10
3.8351671e-10
3.8064361e-10
3.781697e-10
3.7604491e-10
3.742235e-10
3.7266441e-10
3.7133087e-10
3.7019149e-10
3.6921877e-10
3.683888e-10
3.6768082e-10
3.6707698e-10
3.6656187e-10
3.6612229e-10
3.657469e-10
3.6542601e-10
3.6515127e-10
3.6491565e-10
3.647129e-10
3.6453811e-10
3.6874929e-08
2.9832449e-08
2.385618e-08
1.8931269e-08