/*--------------------------------*- C++ -*----------------------------------*\
| =========                 |                                                 |
| \\      /  F ield         | OpenFOAM: The Open Source CFD Toolbox           |
|  \\    /   O peration     | Version:  v2006                                 |
|   \\  /    A nd           | Website:  www.openfoam.com                      |
|    \\/     M anipulation  |                                                 |
\*---------------------------------------------------------------------------*/
FoamFile
{
    version     2.0;
    format      ascii;
    class       volScalarField;
    location    "5000";
    object      nutMean;
}
// * * * * * * * * * * * * * * * * * * * * * * * * * * * * * * * * * * * * * //

dimensions      [0 2 -1 0 0 0 0];


internalField   nonuniform List<scalar> 
55713
(
5.5200341e-10
4.9431854e-09
2.2813351e-08
4.8945326e-08
7.1586619e-08
8.6561094e-08
9.5469197e-08
1.0055985e-07
1.0333931e-07
1.0480437e-07
1.0555997e-07
1.059442e-07
1.0613751e-07
1.0623374e-07
1.0628093e-07
1.0630341e-07
1.0631347e-07
1.063173e-07
1.0631803e-07
1.0631724e-07
1.0631577e-07
1.0631405e-07
1.063123e-07
1.0631065e-07
1.0630919e-07
1.0630795e-07
1.0630696e-07
1.0630623e-07
1.0630577e-07
1.0630566e-07
1.0630606e-07
1.0630674e-07
1.0630773e-07
1.0630903e-07
1.0631061e-07
1.0631248e-07
1.0631465e-07
1.0631712e-07
1.0631991e-07
1.0632299e-07
1.063264e-07
1.0633011e-07
1.0633413e-07
1.0633846e-07
1.0634311e-07
1.0634808e-07
1.0635338e-07
1.0635902e-07
1.0636501e-07
1.0637138e-07
1.0637814e-07
1.0638531e-07
1.0639294e-07
1.0640105e-07
1.0640968e-07
1.0641889e-07
1.0642874e-07
1.064393e-07
1.0645072e-07
6.489326e-10
6.5988136e-09
2.7961405e-08
5.5792935e-08
7.7504913e-08
9.0802994e-08
9.8335784e-08
1.0243145e-07
1.0456354e-07
1.056438e-07
1.0618303e-07
1.0644964e-07
1.0658034e-07
1.0664372e-07
1.0667378e-07
1.0668734e-07
1.0669272e-07
1.0669405e-07
1.0669341e-07
1.0669184e-07
1.0668989e-07
1.0668785e-07
1.0668588e-07
1.0668406e-07
1.0668245e-07
1.0668108e-07
1.0667996e-07
1.066791e-07
1.066785e-07
1.0667821e-07
1.0667852e-07
1.0667904e-07
1.0667988e-07
1.06681e-07
1.0668241e-07
1.0668408e-07
1.0668605e-07
1.066883e-07
1.0669085e-07
1.0669371e-07
1.0669686e-07
1.0670031e-07
1.0670406e-07
1.0670811e-07
1.0671245e-07
1.067171e-07
1.0672206e-07
1.0672735e-07
1.0673296e-07
1.0673892e-07
1.0674524e-07
1.0675194e-07
1.0675905e-07
1.0676659e-07
1.067746e-07
1.0678312e-07
1.067922e-07
1.0680191e-07
1.0681232e-07
7.846657e-10
8.7293432e-09
3.3814993e-08
6.2759835e-08
8.30459e-08
9.4597637e-08
1.0081772e-07
1.0401805e-07
1.0560647e-07
1.0638037e-07
1.0675435e-07
1.0693398e-07
1.0701955e-07
1.0705972e-07
1.0707787e-07
1.0708527e-07
1.0708743e-07
1.0708704e-07
1.0708545e-07
1.0708332e-07
1.0708103e-07
1.0707876e-07
1.0707662e-07
1.0707466e-07
1.0707293e-07
1.0707144e-07
1.0707022e-07
1.0706925e-07
1.0706853e-07
1.0706803e-07
1.0706832e-07
1.0706867e-07
1.0706936e-07
1.0707032e-07
1.0707154e-07
1.0707303e-07
1.0707479e-07
1.0707682e-07
1.0707916e-07
1.0708177e-07
1.0708468e-07
1.0708787e-07
1.0709135e-07
1.0709511e-07
1.0709915e-07
1.0710348e-07
1.0710811e-07
1.0711303e-07
1.0711826e-07
1.0712381e-07
1.0712969e-07
1.0713592e-07
1.0714251e-07
1.0714949e-07
1.0715689e-07
1.0716474e-07
1.0717306e-07
1.0718193e-07
1.0719138e-07
9.7746779e-10
1.1434789e-08
4.0348797e-08
6.9690592e-08
8.813518e-08
9.7942614e-08
1.0293147e-07
1.0535452e-07
1.0650187e-07
1.0703948e-07
1.0729109e-07
1.0740807e-07
1.0746204e-07
1.0748627e-07
1.0749633e-07
1.0749959e-07
1.0749959e-07
1.0749804e-07
1.074958e-07
1.0749329e-07
1.0749076e-07
1.0748832e-07
1.0748606e-07
1.07484e-07
1.0748217e-07
1.0748061e-07
1.074793e-07
1.0747824e-07
1.0747743e-07
1.0747682e-07
1.0747685e-07
1.0747716e-07
1.0747772e-07
1.0747853e-07
1.0747958e-07
1.0748088e-07
1.0748244e-07
1.0748426e-07
1.0748637e-07
1.0748876e-07
1.0749142e-07
1.0749435e-07
1.0749756e-07
1.0750103e-07
1.0750477e-07
1.0750877e-07
1.0751306e-07
1.0751762e-07
1.0752247e-07
1.075276e-07
1.0753305e-07
1.075388e-07
1.0754488e-07
1.0755131e-07
1.075581e-07
1.0756528e-07
1.0757287e-07
1.0758091e-07
1.0758943e-07
1.251677e-09
1.4826387e-08
4.7502105e-08
7.6428031e-08
9.2726608e-08
1.0083951e-07
1.047085e-07
1.0648185e-07
1.0728347e-07
1.0764449e-07
1.078082e-07
1.0788141e-07
1.0791384e-07
1.079274e-07
1.0793212e-07
1.0793266e-07
1.0793125e-07
1.0792894e-07
1.0792628e-07
1.0792353e-07
1.0792084e-07
1.079183e-07
1.0791596e-07
1.0791383e-07
1.0791195e-07
1.0791032e-07
1.0790895e-07
1.0790783e-07
1.0790693e-07
1.0790623e-07
1.07906e-07
1.0790628e-07
1.0790674e-07
1.079074e-07
1.0790828e-07
1.079094e-07
1.0791076e-07
1.0791238e-07
1.0791427e-07
1.0791642e-07
1.0791884e-07
1.0792152e-07
1.0792445e-07
1.0792763e-07
1.0793106e-07
1.0793475e-07
1.0793869e-07
1.0794289e-07
1.0794735e-07
1.0795207e-07
1.0795707e-07
1.0796235e-07
1.0796792e-07
1.079738e-07
1.0797998e-07
1.079865e-07
1.0799336e-07
1.0800059e-07
1.0800821e-07
1.6435176e-09
1.9025372e-08
5.5172653e-08
8.282228e-08
9.6799147e-08
1.0330125e-07
1.0619201e-07
1.0744264e-07
1.0798261e-07
1.0821635e-07
1.08318e-07
1.0836192e-07
1.0838017e-07
1.0838681e-07
1.083881e-07
1.0838693e-07
1.0838463e-07
1.0838186e-07
1.0837894e-07
1.0837606e-07
1.0837329e-07
1.083707e-07
1.0836831e-07
1.0836616e-07
1.0836425e-07
1.0836259e-07
1.0836118e-07
1.0836e-07
1.0835904e-07
1.0835828e-07
1.0835781e-07
1.0835803e-07
1.0835841e-07
1.0835895e-07
1.0835967e-07
1.0836061e-07
1.0836178e-07
1.083632e-07
1.0836487e-07
1.0836679e-07
1.0836897e-07
1.0837138e-07
1.0837404e-07
1.0837693e-07
1.0838006e-07
1.0838342e-07
1.0838701e-07
1.0839084e-07
1.0839491e-07
1.0839922e-07
1.0840378e-07
1.0840858e-07
1.0841364e-07
1.0841896e-07
1.0842454e-07
1.0843041e-07
1.0843655e-07
1.0844299e-07
1.0844973e-07
2.20491e-09
2.4160824e-08
6.3214425e-08
8.8742408e-08
1.0034691e-07
1.0535967e-07
1.0743178e-07
1.0827788e-07
1.0862702e-07
1.0877161e-07
1.0883192e-07
1.0885656e-07
1.0886572e-07
1.0886801e-07
1.0886719e-07
1.0886498e-07
1.0886216e-07
1.0885914e-07
1.0885611e-07
1.0885317e-07
1.0885039e-07
1.088478e-07
1.0884543e-07
1.0884329e-07
1.0884138e-07
1.0883971e-07
1.0883828e-07
1.0883707e-07
1.0883608e-07
1.0883526e-07
1.088346e-07
1.0883475e-07
1.0883502e-07
1.0883546e-07
1.0883605e-07
1.0883682e-07
1.0883781e-07
1.0883903e-07
1.0884048e-07
1.0884218e-07
1.0884411e-07
1.0884627e-07
1.0884865e-07
1.0885125e-07
1.0885407e-07
1.088571e-07
1.0886034e-07
1.088638e-07
1.0886747e-07
1.0887136e-07
1.0887547e-07
1.0887979e-07
1.0888433e-07
1.088891e-07
1.0889408e-07
1.088993e-07
1.0890473e-07
1.089104e-07
1.0891629e-07
3.0100043e-09
3.0366701e-08
7.1438156e-08
9.4087618e-08
1.0337278e-07
1.0706271e-07
1.0847934e-07
1.0902495e-07
1.0924055e-07
1.0932507e-07
1.0935864e-07
1.0937118e-07
1.0937477e-07
1.0937445e-07
1.0937241e-07
1.0936963e-07
1.0936657e-07
1.0936346e-07
1.0936042e-07
1.0935751e-07
1.0935478e-07
1.0935225e-07
1.0934994e-07
1.0934785e-07
1.0934598e-07
1.0934433e-07
1.0934291e-07
1.0934169e-07
1.0934068e-07
1.0933983e-07
1.093391e-07
1.0933908e-07
1.0933927e-07
1.093396e-07
1.0934008e-07
1.0934072e-07
1.0934153e-07
1.0934255e-07
1.0934379e-07
1.0934526e-07
1.0934695e-07
1.0934885e-07
1.0935096e-07
1.0935326e-07
1.0935576e-07
1.0935845e-07
1.0936134e-07
1.0936442e-07
1.0936769e-07
1.0937115e-07
1.093748e-07
1.0937864e-07
1.0938266e-07
1.0938687e-07
1.0939126e-07
1.0939582e-07
1.0940056e-07
1.0940547e-07
1.0941052e-07
4.1630477e-09
3.7777996e-08
7.9616417e-08
9.8796021e-08
1.0589642e-07
1.0846835e-07
1.0938437e-07
1.0971795e-07
1.0984188e-07
1.0988868e-07
1.0990585e-07
1.0991114e-07
1.0991149e-07
1.0990973e-07
1.0990707e-07
1.0990405e-07
1.0990095e-07
1.0989789e-07
1.0989493e-07
1.0989214e-07
1.0988953e-07
1.0988712e-07
1.0988491e-07
1.0988291e-07
1.0988111e-07
1.0987952e-07
1.0987814e-07
1.0987695e-07
1.0987595e-07
1.098751e-07
1.0987436e-07
1.0987414e-07
1.0987426e-07
1.0987449e-07
1.0987486e-07
1.0987538e-07
1.0987604e-07
1.0987687e-07
1.098779e-07
1.0987915e-07
1.098806e-07
1.0988224e-07
1.0988406e-07
1.0988607e-07
1.0988825e-07
1.098906e-07
1.0989312e-07
1.0989582e-07
1.0989867e-07
1.099017e-07
1.0990488e-07
1.0990822e-07
1.0991172e-07
1.0991536e-07
1.0991915e-07
1.0992307e-07
1.0992711e-07
1.0993127e-07
1.0993552e-07
5.8077272e-09
4.6525959e-08
8.7493519e-08
1.0284351e-07
1.0796185e-07
1.0963927e-07
1.1019243e-07
1.1038292e-07
1.1044934e-07
1.1047286e-07
1.1048035e-07
1.1048155e-07
1.1048018e-07
1.1047773e-07
1.1047486e-07
1.1047186e-07
1.1046888e-07
1.1046598e-07
1.1046322e-07
1.1046063e-07
1.1045821e-07
1.1045598e-07
1.1045392e-07
1.1045206e-07
1.1045038e-07
1.1044889e-07
1.1044758e-07
1.1044645e-07
1.1044549e-07
1.1044467e-07
1.1044396e-07
1.1044361e-07
1.1044363e-07
1.1044378e-07
1.1044404e-07
1.1044444e-07
1.1044497e-07
1.1044562e-07
1.1044646e-07
1.1044749e-07
1.1044869e-07
1.1045007e-07
1.1045161e-07
1.1045331e-07
1.1045516e-07
1.1045716e-07
1.1045931e-07
1.1046161e-07
1.1046404e-07
1.1046662e-07
1.1046932e-07
1.1047216e-07
1.1047512e-07
1.104782e-07
1.1048137e-07
1.1048466e-07
1.1048801e-07
1.1049144e-07
1.104949e-07
8.1416223e-09
5.6732258e-08
9.4801439e-08
1.0623046e-07
1.0963353e-07
1.1063791e-07
1.1094466e-07
1.1104317e-07
1.1107581e-07
1.1108615e-07
1.1108839e-07
1.1108753e-07
1.1108542e-07
1.1108281e-07
1.1108004e-07
1.1107726e-07
1.1107454e-07
1.1107193e-07
1.1106947e-07
1.1106716e-07
1.1106501e-07
1.1106302e-07
1.1106119e-07
1.1105952e-07
1.1105801e-07
1.1105666e-07
1.1105548e-07
1.1105445e-07
1.1105357e-07
1.1105282e-07
1.1105216e-07
1.1105178e-07
1.1105165e-07
1.1105174e-07
1.1105191e-07
1.1105219e-07
1.1105259e-07
1.1105311e-07
1.1105375e-07
1.1105456e-07
1.1105553e-07
1.1105664e-07
1.1105789e-07
1.1105928e-07
1.1106079e-07
1.1106243e-07
1.1106419e-07
1.1106608e-07
1.1106807e-07
1.1107018e-07
1.110724e-07
1.1107472e-07
1.1107712e-07
1.1107962e-07
1.1108219e-07
1.1108483e-07
1.110875e-07
1.1109021e-07
1.1109291e-07
1.1441846e-08
6.8505263e-08
1.0128524e-07
1.0897283e-07
1.1098864e-07
1.1152321e-07
1.1167406e-07
1.1171937e-07
1.1173313e-07
1.1173655e-07
1.1173628e-07
1.1173462e-07
1.1173243e-07
1.1173003e-07
1.117276e-07
1.1172521e-07
1.1172291e-07
1.1172073e-07
1.1171867e-07
1.1171674e-07
1.1171494e-07
1.1171328e-07
1.1171174e-07
1.1171034e-07
1.1170907e-07
1.1170793e-07
1.1170692e-07
1.1170604e-07
1.1170528e-07
1.1170464e-07
1.1170408e-07
1.1170371e-07
1.1170349e-07
1.1170353e-07
1.1170361e-07
1.1170379e-07
1.1170406e-07
1.1170444e-07
1.1170491e-07
1.1170551e-07
1.1170624e-07
1.1170709e-07
1.1170804e-07
1.117091e-07
1.1171026e-07
1.1171153e-07
1.1171289e-07
1.1171434e-07
1.1171588e-07
1.1171751e-07
1.1171921e-07
1.11721e-07
1.1172283e-07
1.1172474e-07
1.1172669e-07
1.1172868e-07
1.1173067e-07
1.1173268e-07
1.1173465e-07
1.6041543e-08
8.1938876e-08
1.0673234e-07
1.1111446e-07
1.1211094e-07
1.1234821e-07
1.1240985e-07
1.1242704e-07
1.1243149e-07
1.1243184e-07
1.1243074e-07
1.1242911e-07
1.1242728e-07
1.124254e-07
1.1242354e-07
1.1242174e-07
1.1242002e-07
1.124184e-07
1.1241686e-07
1.1241543e-07
1.1241409e-07
1.1241285e-07
1.124117e-07
1.1241065e-07
1.1240969e-07
1.1240884e-07
1.1240807e-07
1.124074e-07
1.1240682e-07
1.1240633e-07
1.1240591e-07
1.1240561e-07
1.124054e-07
1.1240535e-07
1.1240538e-07
1.1240548e-07
1.1240563e-07
1.1240587e-07
1.1240618e-07
1.1240658e-07
1.1240707e-07
1.1240764e-07
1.1240829e-07
1.1240902e-07
1.1240981e-07
1.1241068e-07
1.1241161e-07
1.1241261e-07
1.1241367e-07
1.1241479e-07
1.1241595e-07
1.1241717e-07
1.1241842e-07
1.1241972e-07
1.1242102e-07
1.1242236e-07
1.1242368e-07
1.1242499e-07
1.1242626e-07
2.2242658e-08
9.70737e-08
1.1098677e-07
1.1274204e-07
1.1308466e-07
1.1315759e-07
1.1317519e-07
1.1317957e-07
1.1318028e-07
1.131798e-07
1.131789e-07
1.1317786e-07
1.1317678e-07
1.1317569e-07
1.1317463e-07
1.1317362e-07
1.1317266e-07
1.1317175e-07
1.131709e-07
1.1317009e-07
1.1316934e-07
1.1316865e-07
1.13168e-07
1.1316741e-07
1.1316687e-07
1.1316638e-07
1.1316594e-07
1.1316556e-07
1.1316523e-07
1.1316495e-07
1.131647e-07
1.1316453e-07
1.1316439e-07
1.1316434e-07
1.1316432e-07
1.1316436e-07
1.1316442e-07
1.1316453e-07
1.1316467e-07
1.1316489e-07
1.1316512e-07
1.1316542e-07
1.1316574e-07
1.1316613e-07
1.1316653e-07
1.1316699e-07
1.1316746e-07
1.1316798e-07
1.1316852e-07
1.1316911e-07
1.1316969e-07
1.1317033e-07
1.1317096e-07
1.1317163e-07
1.1317228e-07
1.1317296e-07
1.1317361e-07
1.1317425e-07
1.1317486e-07
1.0299387e-07
1.0296678e-07
1.0294803e-07
1.0293755e-07
1.0292781e-07
1.029192e-07
1.029107e-07
1.0290246e-07
1.0289437e-07
1.0288646e-07
1.0287871e-07
1.0287116e-07
1.0286381e-07
1.0285667e-07
1.0284976e-07
1.0284311e-07
1.0283673e-07
1.0283064e-07
1.0282488e-07
1.0281946e-07
1.0281441e-07
1.0280977e-07
1.0280556e-07
1.028018e-07
1.0279853e-07
1.0279576e-07
1.0279349e-07
1.0279178e-07
1.0279062e-07
1.0279e-07
1.0278984e-07
1.0279001e-07
1.0279028e-07
1.0279029e-07
1.0278934e-07
1.0278616e-07
1.0277841e-07
1.0276179e-07
1.0272857e-07
1.0266519e-07
1.0254849e-07
1.0233999e-07
1.0197779e-07
1.0136593e-07
1.0036194e-07
9.8765717e-08
9.631596e-08
9.2702796e-08
8.7588923e-08
8.0580418e-08
7.121242e-08
5.9201441e-08
4.4895685e-08
2.9711022e-08
1.6102158e-08
6.5510847e-09
1.9357133e-09
8.5196575e-10
1.0081165e-09
1.0311066e-07
1.0308523e-07
1.0306814e-07
1.0305777e-07
1.0304826e-07
1.0303955e-07
1.0303104e-07
1.0302275e-07
1.0301463e-07
1.030067e-07
1.0299894e-07
1.0299137e-07
1.0298401e-07
1.0297687e-07
1.0296997e-07
1.0296332e-07
1.0295695e-07
1.0295088e-07
1.0294513e-07
1.0293973e-07
1.0293471e-07
1.0293008e-07
1.0292589e-07
1.0292215e-07
1.0291889e-07
1.0291614e-07
1.0291389e-07
1.0291217e-07
1.0291102e-07
1.0291042e-07
1.0291028e-07
1.0291051e-07
1.0291089e-07
1.029111e-07
1.0291053e-07
1.0290808e-07
1.0290171e-07
1.0288768e-07
1.0285923e-07
1.0280446e-07
1.0270289e-07
1.0252022e-07
1.0220075e-07
1.0165706e-07
1.0075745e-07
9.9313274e-08
9.7071959e-08
9.3724322e-08
8.89262e-08
8.2283261e-08
7.3309963e-08
6.1630466e-08
4.743304e-08
3.1974168e-08
1.7698281e-08
7.3357883e-09
2.1272113e-09
8.0678739e-10
9.1060909e-10
1.032397e-07
1.032158e-07
1.0320022e-07
1.0318995e-07
1.0318057e-07
1.031718e-07
1.0316325e-07
1.0315492e-07
1.0314676e-07
1.031388e-07
1.0313102e-07
1.0312345e-07
1.0311609e-07
1.0310895e-07
1.0310206e-07
1.0309543e-07
1.0308907e-07
1.0308302e-07
1.030773e-07
1.0307193e-07
1.0306693e-07
1.0306234e-07
1.0305817e-07
1.0305447e-07
1.0305124e-07
1.030485e-07
1.0304628e-07
1.0304457e-07
1.0304343e-07
1.0304284e-07
1.0304273e-07
1.0304301e-07
1.0304349e-07
1.0304388e-07
1.0304367e-07
1.0304189e-07
1.0303681e-07
1.0302519e-07
1.0300123e-07
1.029546e-07
1.0286741e-07
1.0270946e-07
1.0243122e-07
1.0195397e-07
1.0115725e-07
9.986513e-08
9.7835895e-08
9.476376e-08
9.029797e-08
8.4041804e-08
7.5497131e-08
6.4202142e-08
5.0176747e-08
3.4488009e-08
1.9529616e-08
8.2732989e-09
2.3771079e-09
7.7499749e-10
8.2112427e-10
1.0338224e-07
1.0335969e-07
1.0334545e-07
1.0333525e-07
1.0332594e-07
1.033171e-07
1.0330851e-07
1.0330013e-07
1.0329195e-07
1.0328396e-07
1.0327617e-07
1.0326859e-07
1.0326123e-07
1.032541e-07
1.0324722e-07
1.0324061e-07
1.0323428e-07
1.0322826e-07
1.0322257e-07
1.0321723e-07
1.0321227e-07
1.0320772e-07
1.0320359e-07
1.0319992e-07
1.0319672e-07
1.0319401e-07
1.0319181e-07
1.0319013e-07
1.0318899e-07
1.0318841e-07
1.0318834e-07
1.0318867e-07
1.0318924e-07
1.031898e-07
1.031899e-07
1.0318875e-07
1.0318485e-07
1.0317549e-07
1.0315569e-07
1.0311665e-07
1.0304296e-07
1.0290839e-07
1.0266946e-07
1.0225618e-07
1.0155974e-07
1.0041799e-07
9.8602269e-08
9.5813398e-08
9.169557e-08
8.584672e-08
7.7763127e-08
6.6907512e-08
5.3126506e-08
3.7267631e-08
2.1624986e-08
9.3919407e-09
2.6993634e-09
7.5900145e-10
7.4297555e-10
1.0353951e-07
1.0351832e-07
1.0350518e-07
1.0349504e-07
1.0348575e-07
1.0347686e-07
1.0346822e-07
1.034598e-07
1.0345159e-07
1.0344358e-07
1.0343578e-07
1.034282e-07
1.0342085e-07
1.0341374e-07
1.0340688e-07
1.034003e-07
1.03394e-07
1.0338802e-07
1.0338237e-07
1.0337707e-07
1.0337216e-07
1.0336765e-07
1.0336356e-07
1.0335993e-07
1.0335677e-07
1.033541e-07
1.0335192e-07
1.0335027e-07
1.0334914e-07
1.0334858e-07
1.0334853e-07
1.0334891e-07
1.0334956e-07
1.0335028e-07
1.0335068e-07
1.0335009e-07
1.0334728e-07
1.0333997e-07
1.0332401e-07
1.0329197e-07
1.0323081e-07
1.031181e-07
1.0291624e-07
1.0256389e-07
1.0196414e-07
1.0096957e-07
9.936675e-08
9.6866703e-08
9.3111596e-08
8.7691146e-08
8.0100263e-08
6.9740769e-08
5.6285482e-08
4.0333026e-08
2.4020529e-08
1.0728026e-08
3.1125367e-09
7.6119625e-10
6.7408149e-10
1.0371303e-07
1.0369327e-07
1.0368099e-07
1.0367091e-07
1.0366161e-07
1.0365267e-07
1.0364398e-07
1.0363553e-07
1.0362729e-07
1.0361927e-07
1.0361146e-07
1.0360389e-07
1.0359656e-07
1.0358947e-07
1.0358265e-07
1.0357611e-07
1.0356986e-07
1.0356392e-07
1.0355832e-07
1.0355308e-07
1.0354822e-07
1.0354377e-07
1.0353974e-07
1.0353615e-07
1.0353304e-07
1.035304e-07
1.0352826e-07
1.0352663e-07
1.0352552e-07
1.0352498e-07
1.0352496e-07
1.0352537e-07
1.035261e-07
1.0352696e-07
1.0352762e-07
1.0352755e-07
1.0352572e-07
1.0352026e-07
1.0350777e-07
1.0348212e-07
1.0343244e-07
1.0333989e-07
1.0317251e-07
1.0287745e-07
1.0236976e-07
1.015175e-07
1.0012452e-07
9.7915866e-08
9.4536206e-08
8.956564e-08
8.2497899e-08
7.269174e-08
5.965179e-08
4.3701087e-08
2.6754433e-08
1.2324477e-08
3.6407629e-09
7.8577679e-10
6.1427966e-10
1.0390468e-07
1.0388639e-07
1.0387472e-07
1.0386469e-07
1.0385537e-07
1.0384637e-07
1.0383765e-07
1.0382917e-07
1.0382091e-07
1.0381289e-07
1.038051e-07
1.0379755e-07
1.0379024e-07
1.037832e-07
1.0377642e-07
1.0376993e-07
1.0376374e-07
1.0375787e-07
1.0375234e-07
1.0374716e-07
1.0374237e-07
1.0373798e-07
1.0373401e-07
1.0373049e-07
1.0372743e-07
1.0372484e-07
1.0372274e-07
1.0372114e-07
1.0372006e-07
1.0371953e-07
1.0371953e-07
1.0371998e-07
1.0372077e-07
1.0372175e-07
1.0372265e-07
1.0372303e-07
1.0372206e-07
1.0371826e-07
1.0370887e-07
1.0368894e-07
1.036496e-07
1.0357536e-07
1.0343958e-07
1.0319758e-07
1.0277627e-07
1.020597e-07
1.0087073e-07
9.8952381e-08
9.595753e-08
9.1458134e-08
8.4943001e-08
7.5746246e-08
6.3218205e-08
4.7384709e-08
2.9866381e-08
1.4231766e-08
4.3153325e-09
8.3878047e-10
5.6291735e-10
1.0411665e-07
1.040998e-07
1.0408851e-07
1.0407854e-07
1.0406917e-07
1.0406014e-07
1.0405138e-07
1.0404288e-07
1.0403463e-07
1.0402662e-07
1.0401885e-07
1.0401134e-07
1.0400409e-07
1.039971e-07
1.0399039e-07
1.0398397e-07
1.0397786e-07
1.0397207e-07
1.0396662e-07
1.0396153e-07
1.0395682e-07
1.0395251e-07
1.0394862e-07
1.0394517e-07
1.0394217e-07
1.0393963e-07
1.0393758e-07
1.0393602e-07
1.0393496e-07
1.0393445e-07
1.0393447e-07
1.0393496e-07
1.0393581e-07
1.0393688e-07
1.0393798e-07
1.0393875e-07
1.0393854e-07
1.0393617e-07
1.039295e-07
1.0391459e-07
1.0388442e-07
1.038265e-07
1.0371915e-07
1.0352544e-07
1.0318383e-07
1.025945e-07
1.0160076e-07
9.996728e-08
9.7361734e-08
9.3353004e-08
8.7419634e-08
7.8885471e-08
6.6970693e-08
5.1390566e-08
3.3395803e-08
1.6508243e-08
5.176634e-09
9.2920694e-10
5.1978909e-10
1.0435147e-07
1.0433592e-07
1.0432489e-07
1.0431495e-07
1.0430555e-07
1.0429648e-07
1.0428771e-07
1.0427921e-07
1.0427097e-07
1.04263e-07
1.0425528e-07
1.0424783e-07
1.0424065e-07
1.0423375e-07
1.0422712e-07
1.042208e-07
1.0421479e-07
1.042091e-07
1.0420376e-07
1.0419877e-07
1.0419416e-07
1.0418995e-07
1.0418616e-07
1.0418279e-07
1.0417987e-07
1.041774e-07
1.041754e-07
1.0417388e-07
1.0417286e-07
1.0417237e-07
1.0417241e-07
1.0417292e-07
1.0417381e-07
1.0417497e-07
1.0417623e-07
1.0417732e-07
1.0417774e-07
1.041766e-07
1.0417225e-07
1.0416167e-07
1.0413942e-07
1.0409574e-07
1.0401346e-07
1.0386281e-07
1.0359327e-07
1.0312098e-07
1.0231061e-07
1.0095171e-07
9.8733605e-08
9.5230642e-08
8.9908354e-08
8.2085823e-08
7.0887291e-08
5.5716729e-08
3.7379452e-08
1.9219999e-08
6.2764035e-09
1.0702939e-09
4.8488021e-10
1.0461208e-07
1.0459764e-07
1.0458681e-07
1.0457688e-07
1.0456745e-07
1.0455837e-07
1.045496e-07
1.0454112e-07
1.0453293e-07
1.0452502e-07
1.0451738e-07
1.0451002e-07
1.0450294e-07
1.0449615e-07
1.0448965e-07
1.0448345e-07
1.0447757e-07
1.0447201e-07
1.044668e-07
1.0446195e-07
1.0445747e-07
1.0445338e-07
1.044497e-07
1.0444644e-07
1.0444361e-07
1.0444122e-07
1.0443929e-07
1.0443782e-07
1.0443684e-07
1.0443636e-07
1.0443642e-07
1.0443695e-07
1.0443787e-07
1.0443909e-07
1.0444047e-07
1.0444182e-07
1.0444275e-07
1.0444262e-07
1.0444019e-07
1.0443323e-07
1.0441767e-07
1.0438611e-07
1.0432536e-07
1.0421219e-07
1.0400631e-07
1.0363929e-07
1.0299743e-07
1.0189764e-07
1.000575e-07
9.7067763e-08
9.2384933e-08
8.5319074e-08
7.4937331e-08
6.0350244e-08
4.1848524e-08
2.2440187e-08
7.6802033e-09
1.2815298e-09
4.5862616e-10
1.0490193e-07
1.0488844e-07
1.0487774e-07
1.0486782e-07
1.0485837e-07
1.048493e-07
1.0484056e-07
1.0483214e-07
1.0482403e-07
1.0481621e-07
1.0480869e-07
1.0480146e-07
1.0479453e-07
1.0478789e-07
1.0478155e-07
1.0477552e-07
1.047698e-07
1.0476442e-07
1.0475937e-07
1.0475468e-07
1.0475036e-07
1.0474643e-07
1.047429e-07
1.0473977e-07
1.0473705e-07
1.0473476e-07
1.0473291e-07
1.047315e-07
1.0473056e-07
1.0473011e-07
1.0473018e-07
1.0473072e-07
1.0473165e-07
1.0473289e-07
1.0473436e-07
1.0473589e-07
1.0473722e-07
1.0473788e-07
1.0473699e-07
1.0473296e-07
1.0472284e-07
1.0470127e-07
1.046585e-07
1.0457703e-07
1.0442584e-07
1.0415099e-07
1.0366002e-07
1.0279874e-07
1.0131855e-07
9.883861e-08
9.4818589e-08
8.8552208e-08
7.9080686e-08
6.5264154e-08
4.6824483e-08
2.6247232e-08
9.4698067e-09
1.5914969e-09
4.4208597e-10
1.0522514e-07
1.0521246e-07
1.0520185e-07
1.0519193e-07
1.0518249e-07
1.0517345e-07
1.0516478e-07
1.0515646e-07
1.0514847e-07
1.051408e-07
1.0513345e-07
1.051264e-07
1.0511966e-07
1.0511322e-07
1.051071e-07
1.0510128e-07
1.0509579e-07
1.0509062e-07
1.050858e-07
1.0508132e-07
1.050772e-07
1.0507346e-07
1.0507011e-07
1.0506714e-07
1.0506457e-07
1.050624e-07
1.0506064e-07
1.0505931e-07
1.0505841e-07
1.0505798e-07
1.0505807e-07
1.0505861e-07
1.0505953e-07
1.0506077e-07
1.0506227e-07
1.0506391e-07
1.0506552e-07
1.0506675e-07
1.0506703e-07
1.0506525e-07
1.0505941e-07
1.0504577e-07
1.0501745e-07
1.0496185e-07
1.0485615e-07
1.0465944e-07
1.0429952e-07
1.0365138e-07
1.0250433e-07
1.0051729e-07
9.7171658e-08
9.174645e-08
8.3267981e-08
7.0415043e-08
5.2314543e-08
3.0722529e-08
1.1745301e-08
2.0417927e-09
4.3725823e-10
1.0558674e-07
1.055747e-07
1.0556413e-07
1.0555421e-07
1.055448e-07
1.0553584e-07
1.0552728e-07
1.0551911e-07
1.0551131e-07
1.0550385e-07
1.0549673e-07
1.0548993e-07
1.0548346e-07
1.054773e-07
1.0547145e-07
1.0546593e-07
1.0546072e-07
1.0545584e-07
1.0545129e-07
1.0544708e-07
1.0544323e-07
1.0543973e-07
1.054366e-07
1.0543384e-07
1.0543145e-07
1.0542943e-07
1.0542779e-07
1.0542654e-07
1.0542571e-07
1.0542529e-07
1.0542539e-07
1.0542592e-07
1.0542681e-07
1.0542802e-07
1.0542949e-07
1.0543116e-07
1.0543291e-07
1.0543452e-07
1.0543561e-07
1.0543547e-07
1.054328e-07
1.0542514e-07
1.0540793e-07
1.0537258e-07
1.0530314e-07
1.0517018e-07
1.0491994e-07
1.0445565e-07
1.036066e-07
1.020807e-07
9.9402045e-08
9.4853766e-08
8.7441115e-08
7.574032e-08
5.8305341e-08
3.5947143e-08
1.4626751e-08
2.6919868e-09
4.4818296e-10
1.0599278e-07
1.0598119e-07
1.0597064e-07
1.0596074e-07
1.059514e-07
1.0594256e-07
1.0593419e-07
1.0592625e-07
1.059187e-07
1.0591154e-07
1.0590473e-07
1.0589828e-07
1.0589216e-07
1.0588637e-07
1.058809e-07
1.0587575e-07
1.0587092e-07
1.0586641e-07
1.0586222e-07
1.0585836e-07
1.0585484e-07
1.0585166e-07
1.0584881e-07
1.0584631e-07
1.0584415e-07
1.0584232e-07
1.0584084e-07
1.058397e-07
1.0583893e-07
1.0583853e-07
1.0583863e-07
1.0583914e-07
1.0583997e-07
1.0584109e-07
1.0584249e-07
1.058441e-07
1.0584587e-07
1.0584765e-07
1.0584922e-07
1.0585014e-07
1.0584963e-07
1.0584621e-07
1.0583703e-07
1.0581667e-07
1.0577472e-07
1.0569132e-07
1.0552882e-07
1.0521647e-07
1.0462329e-07
1.0351214e-07
1.0146899e-07
9.7814335e-08
9.1534438e-08
8.1157372e-08
6.475638e-08
4.1999216e-08
1.8257636e-08
3.624329e-09
4.8328283e-10
1.0958842e-09
1.1370527e-09
1.1846129e-09
1.2278963e-09
1.2639276e-09
1.2923097e-09
1.3132367e-09
1.3273227e-09
1.3353088e-09
1.3378946e-09
1.3357053e-09
1.3291276e-09
1.3184463e-09
1.3036818e-09
1.2847472e-09
1.2613215e-09
1.2330246e-09
1.1993052e-09
1.1596347e-09
1.1134242e-09
1.0602385e-09
9.9971136e-10
9.3192931e-10
8.5718197e-10
7.761485e-10
6.9010097e-10
6.0082246e-10
5.1050728e-10
4.2167978e-10
3.3704278e-10
2.5924033e-10
1.9065187e-10
1.3319051e-10
8.8144624e-11
5.6042769e-11
3.792336e-11
3.2128501e-11
3.7314969e-11
5.2243464e-11
7.5399186e-11
1.0514069e-10
1.3983888e-10
1.7798214e-10
2.1824732e-10
2.5951478e-10
3.0087905e-10
3.4162347e-10
3.8120528e-10
4.1922383e-10
4.5542026e-10
4.8963442e-10
5.2178395e-10
5.5184998e-10
5.7985951e-10
6.0587336e-10
6.2997537e-10
6.5226295e-10
6.7284402e-10
6.9183109e-10
7.0933552e-10
7.2546553e-10
7.4032518e-10
7.5401369e-10
7.6662398e-10
7.7824298e-10
7.8895119e-10
7.9882327e-10
8.0792704e-10
8.1632429e-10
8.2407044e-10
8.312158e-10
8.3779864e-10
8.438612e-10
8.4938218e-10
9.3337234e-10
9.9906237e-10
1.0577483e-09
1.1092983e-09
1.1534339e-09
1.1901529e-09
1.2196126e-09
1.2420383e-09
1.2579009e-09
1.2677993e-09
1.2723645e-09
1.2721174e-09
1.2674639e-09
1.2586143e-09
1.2456205e-09
1.2283319e-09
1.2064636e-09
1.1795749e-09
1.1471616e-09
1.1086608e-09
1.0635677e-09
1.0114505e-09
9.5216437e-10
8.858178e-10
8.128553e-10
7.3420373e-10
6.5128089e-10
5.6593185e-10
4.8033949e-10
3.9687648e-10
3.1787415e-10
2.4555073e-10
1.8326458e-10
1.3230168e-10
9.2680595e-11
6.5028759e-11
4.8630724e-11
4.2483912e-11
4.5769864e-11
5.7327732e-11
7.5763616e-11
9.9657569e-11
1.2767708e-10
1.5862058e-10
1.9144225e-10
2.2526084e-10
2.5930295e-10
2.9296313e-10
3.2579078e-10
3.5748715e-10
3.8786778e-10
4.1679497e-10
4.4418488e-10
4.6999875e-10
4.9423319e-10
5.1691692e-10
5.3809516e-10
5.5782583e-10
5.7617488e-10
5.9321351e-10
6.0901684e-10
6.2366042e-10
6.3721924e-10
6.4976633e-10
6.6137157e-10
6.7210154e-10
6.8201515e-10
6.911702e-10
6.9962119e-10
7.0742085e-10
7.1461759e-10
7.2125709e-10
7.2738222e-10
7.3302746e-10
1.6063451e-09
1.4110891e-09
1.2976721e-09
1.2349682e-09
1.2049353e-09
1.1974972e-09
1.2046351e-09
1.2154813e-09
1.2264344e-09
1.2358106e-09
1.2428472e-09
1.24704e-09
1.248124e-09
1.2459651e-09
1.2404658e-09
1.2314761e-09
1.2187605e-09
1.2019732e-09
1.180675e-09
1.1543485e-09
1.1224503e-09
1.0844528e-09
1.0399512e-09
9.8872321e-10
9.3078585e-10
8.6649778e-10
7.9661367e-10
7.2228097e-10
6.4498694e-10
5.6643063e-10
4.8820681e-10
4.1132109e-10
3.3943771e-10
2.7602434e-10
2.2182018e-10
1.7747234e-10
1.4303131e-10
1.1788609e-10
1.013004e-10
9.2390346e-11
9.0245305e-11
9.4165121e-11
1.0313567e-10
1.1617504e-10
1.3236299e-10
1.508793e-10
1.7101271e-10
1.9215607e-10
2.1380538e-10
2.3556067e-10
2.571134e-10
2.7822624e-10
2.9872054e-10
3.1846626e-10
3.3737261e-10
3.5538223e-10
3.7246312e-10
3.8859696e-10
4.0377177e-10
4.1800052e-10
4.3131041e-10
4.4373629e-10
4.5531832e-10
4.6609896e-10
4.7612217e-10
4.8543195e-10
4.9407175e-10
5.0208489e-10
5.0951293e-10
5.1639461e-10
5.2276699e-10
5.2866585e-10
5.341253e-10
5.3917456e-10
4.8663962e-09
3.7014996e-09
2.9042322e-09
2.3594475e-09
1.9877972e-09
1.7362877e-09
1.5683332e-09
1.456451e-09
1.3827697e-09
1.3351308e-09
1.3075455e-09
1.2900618e-09
1.2777235e-09
1.2680274e-09
1.2594492e-09
1.2508498e-09
1.2413028e-09
1.2300521e-09
1.2164283e-09
1.1997988e-09
1.1795489e-09
1.1550882e-09
1.1258833e-09
1.0915067e-09
1.051672e-09
1.0062945e-09
9.555307e-10
8.997891e-10
8.3968134e-10
7.7587324e-10
7.0879297e-10
6.3918936e-10
5.7050958e-10
5.0556943e-10
4.4602695e-10
3.9283679e-10
3.4636811e-10
3.0663935e-10
2.7345805e-10
2.4644e-10
2.2509314e-10
2.0892447e-10
1.973621e-10
1.8982124e-10
1.8573153e-10
1.8457023e-10
1.8595908e-10
1.8942414e-10
1.9452345e-10
2.0087875e-10
2.0816725e-10
2.1611477e-10
2.2449274e-10
2.3311362e-10
2.418257e-10
2.5050822e-10
2.5906622e-10
2.674252e-10
2.7552779e-10
2.8333127e-10
2.9080604e-10
2.9793278e-10
3.047008e-10
3.111062e-10
3.1715031e-10
3.2283874e-10
3.281804e-10
3.3318685e-10
3.3787113e-10
3.4224785e-10
3.4633179e-10
3.5013862e-10
3.5368411e-10
3.5698186e-10
1.2145734e-08
9.1650667e-09
6.9686789e-09
5.3696042e-09
4.2125206e-09
3.3782486e-09
2.7782361e-09
2.3465571e-09
2.0358866e-09
1.8124638e-09
1.653168e-09
1.5395031e-09
1.4580519e-09
1.3994312e-09
1.3584768e-09
1.3283442e-09
1.3045596e-09
1.2847574e-09
1.2672068e-09
1.2505155e-09
1.2335392e-09
1.2153227e-09
1.1950628e-09
1.1721029e-09
1.1459245e-09
1.1161653e-09
1.0826278e-09
1.0452777e-09
1.0041709e-09
9.5940833e-10
9.1106276e-10
8.5931457e-10
8.0569698e-10
7.5233638e-10
7.0072387e-10
6.5195281e-10
6.0678609e-10
5.6557824e-10
5.2842788e-10
4.9529097e-10
4.6602135e-10
4.4041616e-10
4.1822108e-10
3.99151e-10
3.8290826e-10
3.6919837e-10
3.5775302e-10
3.4830914e-10
3.4061553e-10
3.3443996e-10
3.2957067e-10
3.258073e-10
3.2297489e-10
3.2092433e-10
3.195256e-10
3.1866755e-10
3.1825965e-10
3.1822457e-10
3.1849148e-10
3.189973e-10
3.1968755e-10
3.2051625e-10
3.2144517e-10
3.2244279e-10
3.2348341e-10
3.2454592e-10
3.2561369e-10
3.2667357e-10
3.277153e-10
3.2873131e-10
3.2971629e-10
3.306663e-10
3.3157998e-10
3.3245203e-10
2.334768e-08
1.8163579e-08
1.4064864e-08
1.0895046e-08
8.4808471e-09
6.6602925e-09
5.2957564e-09
4.2758474e-09
3.5141253e-09
2.9451925e-09
2.5207318e-09
2.2039285e-09
1.9670873e-09
1.7896686e-09
1.6571673e-09
1.5578826e-09
1.4827502e-09
1.4253662e-09
1.3815372e-09
1.3468828e-09
1.3183029e-09
1.2935646e-09
1.2710166e-09
1.2494094e-09
1.227777e-09
1.2053878e-09
1.1817097e-09
1.1563052e-09
1.1289304e-09
1.0994946e-09
1.0679372e-09
1.034237e-09
9.9872407e-10
9.6214742e-10
9.2544369e-10
8.8948452e-10
8.5490721e-10
8.22124e-10
7.9139164e-10
7.6285936e-10
7.365919e-10
7.1257594e-10
6.9073058e-10
6.7093486e-10
6.5305105e-10
6.3693645e-10
6.2245034e-10
6.0945587e-10
5.9782156e-10
5.8742314e-10
5.7814447e-10
5.6987834e-10
5.6252189e-10
5.5596296e-10
5.5011295e-10
5.4489692e-10
5.4024626e-10
5.3609953e-10
5.3240118e-10
5.2910342e-10
5.2616227e-10
5.2353738e-10
5.2119503e-10
5.1910395e-10
5.1723544e-10
5.1556583e-10
5.1407396e-10
5.1274029e-10
5.1154885e-10
5.1048606e-10
5.0953994e-10
5.0869912e-10
5.0795926e-10
5.0729094e-10