/*--------------------------------*- C++ -*----------------------------------*\
| =========                 |                                                 |
| \\      /  F ield         | OpenFOAM: The Open Source CFD Toolbox           |
|  \\    /   O peration     | Version:  v2006                                 |
|   \\  /    A nd           | Website:  www.openfoam.com                      |
|    \\/     M anipulation  |                                                 |
\*---------------------------------------------------------------------------*/
FoamFile
{
    version     2.0;
    format      ascii;
    class       volScalarField;
    location    "5000";
    object      omega;
}
// * * * * * * * * * * * * * * * * * * * * * * * * * * * * * * * * * * * * * //

dimensions      [0 0 -1 0 0 0 0];


internalField   nonuniform List<scalar> 
55713
(
5.6492663
1.2948478
0.59035882
0.3854036
0.30998392
0.27827405
0.26324345
0.25548244
0.25142856
0.24929891
0.24814988
0.24749627
0.24709348
0.24681988
0.24661504
0.24644919
0.24630735
0.24618221
0.2460699
0.24596864
0.24587733
0.24579564
0.24572321
0.24566014
0.24560623
0.24556172
0.24552638
0.24550034
0.24548325
0.2454759
0.24548212
0.24549943
0.24552653
0.24556272
0.24560756
0.2456614
0.24572417
0.24579616
0.2458771
0.24596714
0.24606594
0.24617363
0.24628996
0.24641517
0.24654914
0.24669221
0.2468444
0.24700617
0.2471777
0.24735965
0.24755237
0.24775674
0.2479734
0.24820353
0.24844814
0.24870889
0.24898746
0.24928687
0.24961394
5.154086
1.1972657
0.5583998
0.37595742
0.31047869
0.28337998
0.27057873
0.26413749
0.2608754
0.25919114
0.25828107
0.25775095
0.25740969
0.25716508
0.25697255
0.25681045
0.25666815
0.25654039
0.25642449
0.25631912
0.2562236
0.2561376
0.25606097
0.25599371
0.25593578
0.25588725
0.25584807
0.25581815
0.25579715
0.25578516
0.25578825
0.25580199
0.2558257
0.25585828
0.25589951
0.25594965
0.2560088
0.25607713
0.25615453
0.25624099
0.25633627
0.25644038
0.25655314
0.25667466
0.25680489
0.25694404
0.25709216
0.2572496
0.25741654
0.25759349
0.25778078
0.25797913
0.25818909
0.25841163
0.25864761
0.2588984
0.25916535
0.25945094
0.2597607
4.7203599
1.1111385
0.53129748
0.36956032
0.31309827
0.2900327
0.27924614
0.27400661
0.2714271
0.27010888
0.26938748
0.26895149
0.26865538
0.26843103
0.26824622
0.26808561
0.2679417
0.26781085
0.26769114
0.26758168
0.26748194
0.26739175
0.26731095
0.26723961
0.26717767
0.26712524
0.2670822
0.26704848
0.2670236
0.26700694
0.26700623
0.26701686
0.26703712
0.26706603
0.26710345
0.26714975
0.26720503
0.26726954
0.26734312
0.2674258
0.26751728
0.26761755
0.26772642
0.26784398
0.26797012
0.26810503
0.26824873
0.26840149
0.26856344
0.268735
0.26891645
0.26910835
0.26931117
0.26952568
0.26975259
0.26999296
0.27024787
0.27051926
0.27081158
4.3384112
1.0348527
0.50868296
0.36612729
0.31782577
0.29829008
0.28936339
0.28518991
0.28318192
0.28215628
0.28157994
0.28121378
0.28094986
0.28073909
0.28055869
0.28039802
0.28025185
0.2801177
0.27999421
0.27988078
0.27977701
0.2796828
0.27959803
0.27952277
0.27945698
0.27940074
0.27935393
0.2793165
0.27928793
0.27926752
0.27926024
0.27926944
0.27928624
0.27931134
0.27934481
0.27938707
0.27943829
0.27949872
0.27956825
0.27964686
0.27973426
0.27983039
0.27993505
0.28004827
0.28016996
0.28030023
0.28043908
0.28058672
0.28074323
0.28090894
0.28108405
0.28126899
0.28146414
0.28167008
0.28188735
0.28211674
0.28235907
0.28261575
0.28289028
4.0004079
0.96705632
0.49028538
0.3656215
0.32467156
0.3082759
0.3010559
0.29780051
0.29625814
0.29546052
0.29499311
0.29467759
0.29443608
0.29423412
0.29405597
0.29389438
0.29374576
0.29360844
0.29348143
0.29336435
0.29325688
0.29315899
0.29307056
0.29299167
0.29292226
0.29286242
0.29281204
0.29277106
0.29273894
0.29271488
0.292701
0.29270827
0.29272217
0.29274337
0.29277275
0.29281078
0.29285771
0.29291381
0.29297901
0.29305324
0.29313624
0.29322786
0.29332792
0.29343639
0.29355318
0.29367834
0.29381186
0.29395384
0.29410437
0.29426363
0.29443181
0.29460917
0.294796
0.29499269
0.29519965
0.29541737
0.29564642
0.29588774
0.296144
3.69997
0.90662364
0.47593945
0.36806057
0.33368875
0.32015593
0.31446285
0.3119757
0.31080312
0.31017905
0.30979182
0.30951238
0.30928641
0.30909014
0.30891315
0.3087504
0.30859965
0.30845956
0.30832966
0.30820944
0.3080989
0.30799779
0.30790625
0.3078241
0.30775152
0.30768838
0.30763479
0.30759046
0.30755508
0.3075275
0.30750765
0.30751194
0.30752307
0.30754083
0.30756603
0.30759962
0.30764206
0.30769352
0.30775411
0.30782361
0.30790184
0.30798851
0.30808353
0.30818674
0.30829812
0.30841758
0.30854517
0.30868086
0.30882474
0.30897685
0.30913735
0.30930636
0.30948409
0.30967072
0.30986652
0.31007172
0.31028666
0.3105118
0.31074909
3.4318675
0.85259319
0.46557908
0.3735154
0.34500716
0.33411655
0.32974971
0.32788819
0.32700195
0.3265074
0.32617831
0.32592472
0.32570976
0.32551771
0.32534165
0.32517831
0.32502613
0.32488426
0.32475227
0.3246299
0.32451705
0.3244136
0.32431957
0.3242349
0.32415968
0.32409385
0.32403746
0.32399028
0.32395192
0.3239212
0.32389665
0.32389659
0.32390446
0.32391929
0.3239407
0.32396973
0.32400738
0.32405394
0.32410953
0.32417395
0.32424694
0.32432821
0.32441762
0.32451499
0.32462029
0.32473338
0.32485428
0.32498289
0.32511928
0.32526338
0.3254153
0.32557501
0.32574265
0.32591821
0.32610184
0.32629348
0.32649329
0.32670125
0.32691873
3.1917939
0.80413105
0.45924345
0.38210918
0.35885427
0.35037225
0.34712358
0.3457577
0.34508811
0.34468866
0.3444019
0.3441675
0.34396136
0.34377337
0.34359909
0.34343636
0.34328415
0.34314186
0.3430092
0.34288595
0.34277204
0.34266734
0.34257191
0.34248567
0.34240872
0.34234097
0.34228249
0.34223304
0.34219231
0.34215908
0.34213194
0.34212483
0.34213006
0.34214158
0.34215975
0.34218453
0.34221714
0.34225845
0.34230869
0.34236755
0.34243482
0.34251007
0.34259324
0.34268403
0.34278248
0.34288832
0.34300164
0.34312218
0.34325006
0.34338505
0.34352727
0.34367649
0.34383286
0.34399608
0.3441663
0.34434311
0.34452655
0.34471612
0.34491273
2.9761938
0.76049525
0.45708773
0.39402054
0.37553305
0.36918373
0.36684877
0.3658646
0.36535574
0.3650261
0.36477133
0.36455277
0.36435533
0.36417269
0.36400205
0.36384201
0.3636919
0.36355126
0.36341991
0.36329764
0.36318441
0.3630801
0.36298479
0.36289836
0.36282095
0.36275242
0.36269288
0.36264204
0.36259972
0.36256471
0.36253572
0.36252267
0.36252459
0.36253257
0.362547
0.36256817
0.36259583
0.36263151
0.36267597
0.36272876
0.36278973
0.36285824
0.36293439
0.36301768
0.36310831
0.36320582
0.36331043
0.36342165
0.36353976
0.36366425
0.36379538
0.36393261
0.36407622
0.36422555
0.36438082
0.36454121
0.36470679
0.36487652
0.365051
2.7821306
0.72100637
0.45940446
0.40951422
0.39540331
0.39087849
0.38926551
0.38856742
0.38817679
0.38789993
0.38767183
0.38746883
0.38728207
0.38710754
0.38694372
0.3867895
0.38664464
0.38650858
0.3863814
0.38626269
0.38615268
0.38605102
0.38595802
0.38587334
0.38579732
0.38572958
0.38567047
0.3856195
0.38557677
0.38554096
0.38551121
0.3854942
0.38549137
0.38549617
0.38550681
0.38552379
0.3855473
0.38557711
0.38561529
0.38566141
0.38571536
0.38577627
0.38584441
0.38591909
0.38600068
0.38608851
0.38618295
0.38628332
0.38638999
0.38650227
0.38662049
0.3867439
0.38687281
0.38700634
0.3871447
0.3872868
0.38743265
0.38758083
0.38773166
2.6071869
0.68502454
0.46665449
0.42901131
0.41890079
0.41587738
0.41481408
0.41432607
0.41402392
0.41379065
0.41358847
0.41340393
0.41323199
0.4130703
0.41291796
0.41277424
0.41263899
0.41251178
0.41239266
0.41228133
0.41217798
0.41208233
0.41199462
0.41191455
0.41184241
0.41177786
0.4117212
0.41167201
0.41163043
0.41159535
0.41156617
0.41154729
0.41153944
0.41154132
0.4115483
0.41156096
0.41157961
0.41160437
0.41163557
0.4116744
0.41172041
0.41177272
0.41183155
0.41189627
0.4119672
0.41204368
0.41212605
0.41221361
0.4123067
0.41240459
0.41250757
0.4126148
0.41272658
0.41284188
0.41296091
0.41308235
0.41320623
0.41333081
0.41345622
2.4493939
0.65190197
0.47950058
0.45315129
0.44657531
0.44472826
0.44406802
0.44373414
0.44350317
0.44331154
0.44313934
0.44297947
0.44282928
0.44268743
0.44255347
0.44242686
0.44230752
0.44219508
0.4420897
0.44199105
0.44189938
0.44181435
0.44173628
0.44166475
0.44160018
0.44154209
0.44149095
0.44144614
0.44140812
0.44137576
0.44134911
0.44132987
0.44131948
0.44131779
0.44132163
0.44133006
0.44134369
0.44136276
0.44138705
0.44141774
0.44145484
0.44149709
0.44154516
0.44159799
0.44165633
0.44171912
0.44178709
0.44185913
0.44193599
0.44201648
0.44210131
0.44218919
0.44228079
0.44237465
0.44247133
0.44256909
0.44266827
0.44276674
0.44286471
2.307135
0.62094035
0.49886282
0.48278523
0.47913316
0.47815293
0.47778
0.47756503
0.47740005
0.47725561
0.47712266
0.47699785
0.47687999
0.47676832
0.47666272
0.47656265
0.47646825
0.47637915
0.47629561
0.47621723
0.47614438
0.4760766
0.47601434
0.47595707
0.4759053
0.47585844
0.4758171
0.47578055
0.47574944
0.47572273
0.47570113
0.47568403
0.47567395
0.47566918
0.47567062
0.4756752
0.47568379
0.47569659
0.4757136
0.47573534
0.47576208
0.47579261
0.47582772
0.47586634
0.47590928
0.47595544
0.47600564
0.47605874
0.47611552
0.47617479
0.47623731
0.47630176
0.47636888
0.4764372
0.47650732
0.4765776
0.47664835
0.47671764
0.47678557
2.1790377
0.59156043
0.52605619
0.51895272
0.51749954
0.51711375
0.51694773
0.51683706
0.51674473
0.51666098
0.51658264
0.51650866
0.51643847
0.51637192
0.51630876
0.5162489
0.51619229
0.51613886
0.51608866
0.51604156
0.51599767
0.51595681
0.51591918
0.51588448
0.51585305
0.51582446
0.51579918
0.51577662
0.51575739
0.51574068
0.51572734
0.51571627
0.51570931
0.51570469
0.51570443
0.51570587
0.51570979
0.51571593
0.51572518
0.51573664
0.51575136
0.51576784
0.51578743
0.51580858
0.51583269
0.51585817
0.51588643
0.51591583
0.51594778
0.51598059
0.51601563
0.5160512
0.51608853
0.51612596
0.51616447
0.51620247
0.51624056
0.51627714
0.51631245
0.16898902
0.16867715
0.16844716
0.16825999
0.16808704
0.16791998
0.16775626
0.16759557
0.16743785
0.16728319
0.1671318
0.16698386
0.16683971
0.1666996
0.16656392
0.16643303
0.16630739
0.16618747
0.16607378
0.16596689
0.16586739
0.1657759
0.16569307
0.16561951
0.16555583
0.16550256
0.16546005
0.16542966
0.16541303
0.1654109
0.16542275
0.16544771
0.16548508
0.16553449
0.16559587
0.16566955
0.1657566
0.16585941
0.16598281
0.16613589
0.16633505
0.16660882
0.1670053
0.1676029
0.16852474
0.16995565
0.17215764
0.1754792
0.18038844
0.1877026
0.19909607
0.21770071
0.24933622
0.30555014
0.41172868
0.6328497
1.1788842
3.0401013
15.456179
0.17133898
0.17102343
0.17079246
0.17060406
0.1704276
0.17025665
0.17008932
0.16992521
0.16976432
0.16960669
0.16945256
0.16930208
0.16915557
0.16901328
0.1688756
0.16874288
0.16861557
0.16849411
0.16837905
0.16827091
0.1681703
0.16807782
0.16799412
0.1679198
0.16785544
0.1678016
0.16775875
0.16772767
0.1677104
0.1677078
0.1677193
0.16774398
0.16778113
0.16783035
0.16789151
0.16796487
0.16805131
0.16815289
0.16827382
0.16842216
0.16861248
0.16887044
0.16923962
0.16979181
0.17064123
0.17196213
0.17400674
0.17711783
0.18175172
0.18865712
0.1993749
0.2168629
0.24665249
0.29973703
0.40029411
0.61016789
1.128848
2.8949028
14.653955
0.17394289
0.17362383
0.17339333
0.17320242
0.17302201
0.17284695
0.17267577
0.17250805
0.17234381
0.17218306
0.17202605
0.1718729
0.17172393
0.17157939
0.17143964
0.17130503
0.171176
0.17105299
0.17093653
0.17082715
0.17072543
0.17063199
0.17054744
0.17047238
0.17040739
0.170353
0.17030976
0.17027817
0.17026027
0.17025719
0.17026834
0.17029275
0.17032968
0.17037869
0.17043963
0.17051267
0.17059852
0.17069892
0.17081752
0.17096131
0.17114316
0.17138584
0.17172842
0.17223597
0.17301342
0.17422351
0.17610691
0.17899873
0.18334685
0.18984193
0.19988543
0.21625192
0.2441798
0.29410229
0.38897744
0.58749738
1.0786813
2.7497682
13.855784
0.17683598
0.1765136
0.17628501
0.17609012
0.17590534
0.17572591
0.17555064
0.1753791
0.17521132
0.17504731
0.17488728
0.17473135
0.17457984
0.17443296
0.17429108
0.17415453
0.17402376
0.17389919
0.17378133
0.17367071
0.17356791
0.17347352
0.17338816
0.1733124
0.17324681
0.17319191
0.17314822
0.17311633
0.17309778
0.17309425
0.17310506
0.1731292
0.17316589
0.17321469
0.17327541
0.17334813
0.17343341
0.17353271
0.17364909
0.1737886
0.1739624
0.17419046
0.17450741
0.17497156
0.17567823
0.17677783
0.17849767
0.18116273
0.18521397
0.19129718
0.20067363
0.2159232
0.24198818
0.28874077
0.37791936
0.56507027
1.0288108
2.6056099
13.064925
0.1800598
0.17973575
0.17950787
0.17930864
0.17911913
0.17893505
0.17875545
0.17857988
0.17840839
0.17824095
0.17807778
0.17791898
0.17776483
0.17761555
0.17747151
0.17733301
0.17720048
0.17707435
0.17695511
0.17684328
0.17673943
0.17664414
0.17655801
0.17648161
0.17641548
0.1763601
0.17631602
0.17628384
0.17626474
0.17626075
0.17627124
0.1762951
0.17633155
0.17638011
0.17644058
0.17651298
0.17659771
0.17669594
0.17681025
0.17694572
0.17711192
0.17732614
0.17761861
0.17804094
0.17867863
0.17966902
0.18122432
0.18365638
0.18739864
0.1930655
0.20178496
0.21592807
0.24013691
0.28372403
0.36721372
0.54302245
0.9794583
2.4629403
12.284559
0.18366377
0.18334005
0.18311151
0.18290748
0.18271284
0.18252382
0.18233962
0.1821598
0.18198442
0.18181342
0.181647
0.18148524
0.1813284
0.1811767
0.18103047
0.18089002
0.18075577
0.18062811
0.18050755
0.18039457
0.18028974
0.18019362
0.1801068
0.18002983
0.17996323
0.17990746
0.17986303
0.17983057
0.17981104
0.17980661
0.17981677
0.17984035
0.17987653
0.17992483
0.17998502
0.18005705
0.18014122
0.18023843
0.18035076
0.18048245
0.18064156
0.18084277
0.18111212
0.18149458
0.18206576
0.18294936
0.18434079
0.18653556
0.18995683
0.19519889
0.20327311
0.21632698
0.23869571
0.27913582
0.35697028
0.52151683
0.93089529
2.3223529
11.517815
0.18770746
0.1873862
0.18715543
0.18694604
0.18674586
0.18655158
0.18636252
0.18617826
0.18599883
0.18582415
0.18565439
0.18548963
0.18533009
0.18517597
0.18502759
0.18488525
0.18474933
0.18462023
0.18449843
0.18438441
0.18427871
0.18418188
0.18409448
0.18401705
0.18395008
0.183894
0.1838493
0.18381657
0.18379677
0.18379189
0.18380172
0.183825
0.18386088
0.18390886
0.18396871
0.18404033
0.18412389
0.18422007
0.18433053
0.18445868
0.18461119
0.1848003
0.18504805
0.18539295
0.18590079
0.18668118
0.18791136
0.18986708
0.19295679
0.19776123
0.20520067
0.21718954
0.23774372
0.27506919
0.34730838
0.50072893
0.88341412
2.1844394
10.767693
0.19226297
0.19194655
0.1917116
0.19149626
0.19129008
0.19109021
0.19089604
0.19070716
0.19052355
0.19034512
0.190172
0.19000423
0.18984204
0.18968557
0.18953515
0.18939102
0.18925358
0.18912319
0.18900032
0.18888541
0.18877902
0.18868163
0.18859383
0.18851609
0.18844891
0.18839265
0.18834779
0.18831487
0.18829485
0.18828955
0.18829908
0.18832203
0.18835754
0.18840512
0.18846453
0.18853563
0.1886185
0.18871361
0.18882223
0.18894705
0.18909344
0.18927142
0.18949922
0.18980918
0.1902575
0.19093955
0.19201318
0.19373126
0.19648186
0.20083267
0.20764242
0.21859701
0.2373724
0.27162941
0.33835953
0.48085303
0.83734757
2.0498412
10.037026
0.19741992
0.19710793
0.19686791
0.19664601
0.19643337
0.19622758
0.19602807
0.19583441
0.19564655
0.19546436
0.19528793
0.19511725
0.19495253
0.19479389
0.19464161
0.19449592
0.19435719
0.19422576
0.19410207
0.19398655
0.19387971
0.19378203
0.19369407
0.19361625
0.19354905
0.19349279
0.19344791
0.19341491
0.19339475
0.19338909
0.19339831
0.19342088
0.19345594
0.193503
0.19356183
0.19363225
0.19371428
0.19380819
0.19391493
0.19403656
0.19417727
0.19434505
0.19455464
0.19483259
0.19522582
0.19581558
0.19673961
0.19822508
0.20063353
0.20451446
0.21068993
0.22064492
0.23768789
0.26893578
0.33026724
0.4620979
0.79306952
1.9192587
9.3284331
0.20328739
0.20297895
0.20273293
0.20250377
0.20228418
0.20207215
0.20186711
0.2016686
0.20147651
0.20129065
0.20111107
0.20093771
0.20077073
0.20061022
0.20045642
0.20030954
0.20016991
0.20003783
0.19991373
0.19979798
0.1996911
0.1995935
0.19950573
0.19942816
0.19936123
0.19930522
0.19926052
0.19922759
0.19920737
0.19920141
0.19921031
0.19923245
0.19926693
0.19931329
0.19937132
0.19944082
0.19952175
0.19961424
0.19971896
0.19983741
0.19997277
0.20013121
0.20032433
0.20057333
0.20091641
0.20142108
0.20220466
0.20346649
0.20553564
0.20893414
0.21445973
0.2234469
0.23881479
0.26712494
0.32318772
0.4446847
0.75100271
1.7935135
8.6442799
0.2100015
0.20969538
0.20944219
0.20920496
0.20897793
0.20875938
0.2085487
0.20834537
0.20814921
0.20795994
0.20777754
0.20760191
0.20743315
0.20727129
0.20711655
0.20696906
0.20682914
0.20669703
0.20657312
0.20645775
0.2063514
0.20625444
0.20616737
0.20609052
0.20602429
0.20596888
0.20592463
0.20589197
0.20587183
0.20586563
0.20587422
0.20589581
0.20592952
0.20597492
0.20603182
0.20610003
0.20617947
0.20627016
0.20637253
0.20648762
0.20661778
0.20676757
0.20694584
0.20716899
0.20746717
0.20789486
0.20854922
0.20960039
0.21133986
0.21425109
0.21910439
0.22714151
0.24090153
0.26635621
0.31729237
0.42884026
0.71161914
1.6736608
7.9866493
0.21773435
0.21742875
0.21716693
0.21692078
0.21668582
0.21646055
0.21624424
0.21603632
0.21583643
0.21564427
0.21545967
0.2152825
0.21511274
0.21495039
0.21479558
0.21464842
0.21450914
0.21437794
0.21425515
0.21414107
0.2140361
0.2139406
0.21385499
0.21377956
0.21371462
0.21366032
0.21361692
0.21358483
0.21356492
0.21355858
0.21356682
0.21358774
0.21362039
0.21366445
0.21371974
0.21378611
0.21386343
0.21395169
0.21405112
0.2141624
0.21428717
0.21442872
0.21459347
0.21479368
0.21505226
0.2154117
0.21594975
0.21680705
0.21823366
0.22066365
0.22482482
0.23190523
0.24412811
0.26681965
0.31277268
0.41478905
0.67542731
1.5610837
7.3573134
0.22670673
0.2263989
0.22612669
0.22587067
0.22562735
0.22539531
0.22517361
0.22496158
0.22475869
0.22456452
0.22437876
0.22420121
0.22403172
0.22387024
0.22371676
0.22357136
0.22343415
0.2233053
0.22318502
0.2230736
0.22297131
0.2228785
0.22279546
0.22272247
0.22265969
0.22260726
0.22256528
0.22253416
0.22251471
0.22250834
0.22251623
0.22253625
0.22256743
0.22260957
0.22266254
0.22272623
0.22280051
0.22288534
0.22298082
0.22308739
0.22320613
0.22333929
0.22349135
0.22367104
0.22389504
0.22419506
0.22463087
0.22531426
0.22645188
0.22841933
0.23188159
0.23797628
0.24871768
0.26874863
0.30985121
0.40274231
0.64293893
1.4578869
6.7577182
0.23720615
0.23689193
0.23660728
0.23634044
0.23608845
0.23584981
0.23562332
0.23540814
0.23520347
0.23500879
0.23482358
0.23464753
0.23448031
0.23432181
0.23417184
0.23403043
0.2338975
0.23377321
0.23365758
0.23355088
0.23345322
0.23336493
0.23328615
0.23321712
0.23315782
0.23310835
0.23306863
0.23303907
0.23302043
0.23301411
0.23302168
0.23304048
0.23306957
0.23310895
0.23315851
0.23321827
0.23328806
0.23336791
0.2334578
0.23355807
0.23366936
0.2337932
0.23393251
0.23409324
0.23428683
0.23453578
0.23488371
0.23541534
0.23629384
0.2378304
0.24060751
0.24568514
0.25495682
0.27243771
0.30879976
0.39288565
0.61455216
1.36732
6.1889758
17.035159
19.711201
22.777985
26.285399
30.288092
34.845569
40.022158
45.886886
52.513224
59.978658
68.3641
77.753083
88.230743
99.882605
112.79314
127.04408
142.71262
159.86945
178.57666
198.88558
220.83479
244.4482
269.73322
296.67926
325.25697
355.41735
387.09162
420.19164
454.61073
490.22521
526.89598
564.47083
602.78693
641.67338
680.95453
720.45336
759.99199
799.39774
838.50417
877.15379
915.19913
952.50593
988.95349
1024.4351
1058.8596
1092.1505
1124.2458
1155.0976
1184.6728
1212.9499
1239.9183
1265.5789
1289.9409
1313.0231
1334.8504
1355.4529
1374.8671
1393.1318
1410.2896
1426.3854
1441.4654
1455.5768
1468.7664
1481.0819
1492.5702
1503.2774
1513.2479
1522.5254
1531.1519
1539.1676
1546.6112
1553.519
1559.9269
1565.8682
3.5878672
4.1387805
4.7244749
5.3811998
6.125487
6.9686585
7.9202024
8.9919144
10.195936
11.544758
13.051218
14.728459
16.589777
18.648345
20.916915
23.407463
26.130855
29.096422
32.311534
35.781241
39.507903
43.490929
47.72707
52.208549
56.927321
61.8724
67.033657
72.40575
77.998439
83.865866
90.198794
97.268336
103.19399
109.96175
116.35199
122.59792
128.77585
133.55589
137.54309
142.37304
147.62209
153.00143
158.38095
163.69088
168.89022
173.94577
178.78692
183.4247
187.86326
192.14537
196.26771
200.21943
203.99466
207.59175
211.00985
214.2509
217.31755
220.2127
222.94173
225.50951
227.92208
230.18528
232.30558
234.28975
236.1441
237.87295
239.47712
240.96673
242.34899
243.63248
244.82363
245.93054
246.9612
247.9292
1.408316
1.651189
1.9079194
2.1841149
2.4858515
2.815863
3.1601907
3.545355
3.9787733
4.4642665
5.0046521
5.6035198
6.2649202
6.9928078
7.7908983
8.6625365
9.610605
10.637339
11.744145
12.931416
14.198347
15.542824
16.961567
18.449069
19.999613
21.606061
23.261202
24.959055
26.698147
28.49087
30.413889
32.684312
34.798073
36.825165
38.75144
40.592354
42.364896
43.97263
45.412786
46.809124
48.019898
48.985015
50.063871
51.220023
52.415702
53.622262
54.816834
55.987362
57.126318
58.23075
59.298127
60.326227
61.3133
62.258193
63.160121
64.018885
64.834488
65.602115
66.32115
66.994469
67.624749
68.214335
68.765506
69.280314
69.760773
70.208828
70.627042
71.017611
71.382086
71.721855
72.038393
72.333352
72.608439
72.865539
0.74664768
0.87518308
1.0164165
1.1700159
1.3368226
1.5179007
1.7114874
1.9211552
2.1506172
2.4029711
2.6706411
2.9613221
3.2822514
3.6356637
4.0226499
4.4438624
4.9002877
5.3925715
5.9209322
6.4850685
7.0840681
7.7163447
8.3797054
9.0707953
9.786107
10.521475
11.272788
12.03691
12.813897
13.613024
14.46706
15.386786
16.277822
17.130802
17.940098
18.704696
19.426481
20.099227
20.71991
21.297355
21.827844
22.305183
22.749883
23.173614
23.582211
23.943252
24.241027
24.534308
24.828509
25.121807
25.411714
25.696046
25.973076
26.241491
26.500302
26.7488
26.986462
27.212799
27.427643
27.630969
27.82295
28.003834
28.173943
28.333665
28.483409
28.623617
28.754767
28.877348
28.99181
29.098642
29.198272
29.291177
29.377826
29.458629
0.47527513
0.55001013
0.63525851
0.73046261
0.835365
0.94998173
1.0738972
1.207583
1.3521214
1.50885
1.6770214
1.8577077
2.0530619
2.2648731
2.4898375
2.7288451
2.9874608
3.2659938
3.5641403
3.8812961
4.2166138
4.5689029
4.9366412
5.3176417
5.7096172
6.1099111
6.5158624
6.9252217
7.3369416
7.7527744
8.1798275
8.6226416
9.0609471
9.4812802
9.88027
10.256197
10.608634
10.937308
11.242324
11.524901
11.786043
12.026379
12.247919
12.452971
12.643651
12.820061
12.981673
13.130789
13.269426
13.399067
13.520786
13.635363
13.743384
13.8453
13.941428
14.030585
14.110524
14.182222
14.247732
14.308461
14.365241
14.418548
14.468676
14.515841
14.560196
14.60189
14.641052
14.677812
14.712289
14.744606
14.774881
14.803234
14.829781
14.854636
0.34367035
0.38975789
0.44390675
0.5060111
0.57588183
0.65335403
0.73817125
0.83024236
0.92973455
1.0370404
1.1521892
1.2754111
1.4073109
1.5486323
1.699047
1.8584651
2.0279473
2.2081278
2.3972699
2.5951201
2.8022686
3.0184526
3.2428577
3.4740403
3.7103846
3.9500033
4.1909536
4.4314021
4.6698775
4.9056527
5.1392497
5.371638
5.6009616
5.8232916
6.0343384
6.2320633
6.4162235
6.5870409
6.7449916
6.8907755
7.0251924
7.1490441
7.2631781
7.3684511
7.4656904
7.5555862
7.6386997
7.7155921
7.7868072
7.8528459
7.9141578
7.9711391
8.0241439
8.0734861
8.1194433
8.162234
8.2020195
8.2389608
8.2732501
8.3050751
8.334623
8.3620646
8.3875553
8.4112432
8.4332583
8.4537247
8.4727575
8.4904619
8.5069355
8.5222677
8.5365439
8.549842
8.5622317
8.573788
0.27307073
0.30251408
0.33799799
0.37968788
0.42759879
0.48165914
0.54171515
0.6076062
0.67923801
0.75661724
0.83971533
0.92853254
1.0231795
1.1238636
1.2305794
1.3432396
1.4619675
1.586899
1.7176288
1.8537165
1.9948548
2.1406188
2.2903084
2.4426343
2.5962865
2.7500316
2.9026704
3.0529898
3.1998418
3.3422735
3.4796758
3.6117556
3.7381396
3.8582287
3.9712744
4.076656
4.1740661
4.2635557
4.3454801
4.4203661
4.4888023
4.5513774
4.6086574
4.6611706
4.7094004
4.7537748
4.7946712
4.832421
4.8673163
4.8996159
4.9295461
4.9573063
4.9830744
5.0070071
5.0292474
5.0499222
5.0691461
5.0870221
5.1036459
5.1191057
5.1334839
5.1468565
5.1592942
5.1708638
5.1816256
5.1916388
5.2009559
5.2096289
5.2177038
5.2252244
5.2322313
5.2387637
5.2448523
5.2505389
0.23266545
0.251806
0.27547357
0.30392585
0.33730189
0.3756404
0.41889058
0.46694258
0.51966886
0.57695911
0.63870219
0.70479296
0.77515832
0.84976692
0.92855229
1.0113997
1.09821
1.1888854
1.2831874
1.3807695
1.4812316
1.5840994
1.6887949
1.7944832
1.9002582
2.0051216
2.1080661
2.2081068
2.3043291
2.3959448
2.4823503
2.5631575
2.6381579
2.7072783
2.7705538
2.8281259
2.8802403
2.927235
2.9695162
3.007526
3.0417139
3.0725114
3.1003183
3.1254959
3.148363
3.1691968
3.1882357
3.2056835
3.2217153
3.2364802
3.2501041
3.2626954
3.2743487
3.2851463
3.2951606
3.3044557
3.313089
3.3211112
3.3285689
3.3355045
3.3419561
3.3479599
3.3535482
3.3587513
3.3635965
3.3681109
3.3723174
3.3762396
3.3798978
3.383312
3.3864994
3.3894787
3.3922594
3.3948658
0.20846871
0.22094979
0.23684581
0.25641786
0.27985067
0.30724886
0.33863741
0.37397264
0.41316285
0.4560916
0.50262628
0.5526252
0.60594919
0.66247015
0.72205424
0.78454731
0.8497819
0.91757553
0.98769357
1.0598339
1.1336288
1.2086451
1.2843871
1.360216
1.4354607
1.5093703
1.5811797
1.6501471
1.7155975
1.7769645
1.8338259
1.8859253
1.9331729
1.9756293
2.0134814
2.0470132
2.0765757
2.1025598
2.1253691
2.1453993
2.163022
2.1785757
2.1923599
2.2046326
2.2156137
2.2254864
2.2344036
2.2424927
2.2498613
2.256598
2.2625814
2.2678698
2.2725749
2.2767873
2.2805802
2.2840134
2.2871354
2.2899864
2.2925998
2.295003
2.2972197
2.2992696
2.3011698
2.3029348
2.3045774
2.3061091
2.3075396
2.3088779
2.310132
2.3113089
2.3124148
2.3134566
2.3144343
2.3153619
0.1934311
0.20149475
0.21214714
0.22562081
0.24210215
0.26172123
0.28454584
0.31058249
0.33978476
0.37206619
0.40731078
0.44538144
0.48612863
0.52939726
0.57502569
0.62283996
0.6726521
0.72425667
0.77741878
0.8318623
0.88726239
0.94324366
0.99938732
1.0551814
1.1101048
1.1635855
1.2150492
1.2639495
1.309803
1.3522219
1.3909393
1.4258233
1.4568767
1.484224
1.5080891
1.5287669
1.5465943
1.5619235
1.5751008
1.586451
1.5962663
1.6048001
1.6122672
1.6188463
1.6246851
1.6295618
1.6335052
1.6367149
1.6393484
1.6415308
1.6435318
1.6454306
1.6472334
1.6489454
1.6505709
1.6521135
1.6535765
1.654963
1.6562761
1.6575187
1.6586937
1.6598043
1.6608534
1.661844
1.662779
1.6636616
1.6644944
1.6652804
1.6660224
1.6667231
1.6673846
1.668011
1.668599
1.66916
0.18372912
0.18882904
0.19589212
0.20511532
0.2166679
0.23068095
0.24723972
0.26638041
0.28809201
0.3123222
0.33898458
0.3679657
0.39913207
0.43233591
0.4674181
0.50420761
0.54252008
0.58215523
0.62289149
0.66447913
0.70663385
0.74903497
0.79133151
0.83310717
0.87394781
0.91340942
0.95105591
0.98648335
1.0193474
1.0493884
1.0764492
1.1004834
1.1215519
1.1398097
1.155484
1.1688492
1.1802024
1.1898414
1.198047
1.2050712
1.2111318
1.2164101
1.2208466
1.2241865
1.2266866
1.2288528
1.2309051
1.2328605
1.2347307
1.236523
1.2382436
1.2398963
1.2414828
1.2430041
1.2444606
1.2458526
1.2471806
1.2484452
1.2496474
1.2507883
1.2518695
1.2528926
1.2538597
1.2547729
1.2556343
1.2564464
1.2572115
1.2579321
1.2586103
1.2592489
1.2598495
1.2604158
1.2609446
1.2614467
0.17722278
0.18031486
0.18490105
0.19113651
0.19916502
0.209106
0.22104625
0.23503529
0.25108432
0.26916816
0.28922924
0.31118234
0.33491983
0.36031622
0.3872316
0.41551291
0.44499401
0.47549417
0.50681517
0.53873755
0.57101615
0.60337923
0.63553364
0.66713886
0.69786177
0.72735216
0.75527404
0.78132509
0.80525869
0.82690302
0.84617376
0.86307804
0.87770876
0.8902304
0.90085918
0.90984194
0.91743231
0.92387444
0.92938906
0.93416607
0.9382663
0.9412503
0.9435757
0.94579174
0.94792728
0.95000363
0.95203344
0.95402156
0.95596806
0.95787017
0.95972345
0.96152311
0.96326457
0.9649439
0.96655787
0.96810419
0.96958131
0.97098854
0.97232588
0.97359398
0.97479405
0.97592766
0.97699683
0.97800383
0.97895109
0.97984121
0.98067689
0.98146082
0.98219572
0.98288437
0.98352908
0.98413372
0.98469569
0.98522577
0.17275518
0.17443255
0.17727871
0.18139564
0.18689
0.19386002
0.20238389
0.21251317
0.22427008
0.23764744
0.25261032
0.269099
0.28703238
0.30631132
0.32682156
0.34843528
0.37101176
0.3943967
0.41842065
0.44289665
0.46761734
0.49235506
0.51686613
0.54087154
0.56410141
0.58627652
0.6071347
0.62644674
0.64403468
0.65978649
0.67366511
0.68570957
0.69602775
0.7047824
0.71217436
0.71841849
0.72372847
0.72830096
0.73230756
0.73550714
0.73788955
0.74019565
0.7424645
0.744723
0.74698267
0.7492442
0.75150164
0.75374553
0.75596479
0.75814809
0.76028476
0.76236528
0.76438153
0.76632696
0.7681965
0.76998648
0.77169464
0.77331979
0.77486181
0.7763214
0.7777
0.7789996
0.78022261
0.78137179
0.78245015
0.78346086
0.78440714
0.78529231
0.78611961
0.78689237
0.78761342
0.78828712
0.78891148
0.78949884
0.16968432
0.17031174
0.17188824
0.17447253
0.17812888
0.18292377
0.18891742
0.19615498
0.20466133
0.21443916
0.22546922
0.23771172
0.25110847
0.26558512
0.28105323
0.29741151
0.31454658
0.33233254
0.35062995
0.36928431
0.38812409
0.40696117
0.42559464
0.44379643
0.46134739
0.47802353
0.49361845
0.50795702
0.52091033
0.53240764
0.54244266
0.55107279
0.55841125
0.5646152
0.56986412
0.5743443
0.57823415
0.58169236
0.58439982
0.58670904
0.58902006
0.59137222
0.59378302
0.59625389
0.5987761
0.60133483
0.60391215
0.60648898
0.60904661
0.61156768
0.61403681
0.61644087
0.61876915
0.62101319
0.62316681
0.62522568
0.62718715
0.62905008
0.63081457
0.63248171
0.63405346
0.63553236
0.63692147
0.63822422
0.63944427
0.64058544
0.64165165
0.64264682
0.64357484
0.64443966
0.6452447
0.64599482
0.64668876
0.64733903
0.16759246
0.1674231
0.16804257
0.16948338
0.17178046
0.17496973
0.17908646
0.1841611
0.1902138
0.19725047
0.2052612
0.21422038
0.22408773
0.23480964
0.24632043
0.2585432
0.27139025
0.28476268
0.29854957
0.3126268
0.32685547
0.3410827
0.35514455
0.3688557
0.38203848
0.39451311
0.40611661
0.41671496
0.42621552
0.43457688
0.44181324
0.44799255
0.45322972
0.45767022
0.46147402
0.46480333
0.46780689
0.47022162
0.47243876
0.47473644
0.47715042
0.47969242
0.48235762
0.48513018
0.48798723
0.49090209
0.49384713
0.49679512
0.49972107
0.50260291
0.50542177
0.50816212
0.51081158
0.51336075
0.51580285
0.51813341
0.52034997