/*--------------------------------*- C++ -*----------------------------------*\
| =========                 |                                                 |
| \\      /  F ield         | OpenFOAM: The Open Source CFD Toolbox           |
|  \\    /   O peration     | Version:  v2006                                 |
|   \\  /    A nd           | Website:  www.openfoam.com                      |
|    \\/     M anipulation  |                                                 |
\*---------------------------------------------------------------------------*/
FoamFile
{
    version     2.0;
    format      ascii;
    class       volScalarField;
    location    "5000";
    object      p;
}
// * * * * * * * * * * * * * * * * * * * * * * * * * * * * * * * * * * * * * //

dimensions      [1 -1 -2 0 0 0 0];


internalField   nonuniform List<scalar> 
55713
(
1.0000329
1.0000329
1.0000329
1.0000329
1.0000329
1.0000329
1.0000329
1.0000329
1.0000329
1.0000329
1.0000329
1.0000329
1.0000329
1.0000329
1.0000329
1.0000329
1.0000329
1.0000329
1.0000329
1.0000329
1.0000329
1.0000329
1.0000329
1.0000329
1.0000329
1.0000329
1.0000329
1.0000329
1.0000329
1.0000329
1.0000329
1.0000329
1.0000329
1.0000329
1.0000329
1.0000329
1.0000329
1.0000329
1.0000329
1.0000329
1.0000329
1.0000329
1.0000329
1.0000329
1.0000329
1.0000329
1.0000329
1.0000329
1.0000329
1.0000329
1.0000329
1.0000329
1.0000329
1.0000329
1.0000329
1.0000329
1.0000329
1.0000329
1.0000329
1.0000306
1.0000306
1.0000306
1.0000306
1.0000306
1.0000306
1.0000306
1.0000306
1.0000306
1.0000306
1.0000306
1.0000306
1.0000306
1.0000306
1.0000306
1.0000306
1.0000306
1.0000306
1.0000306
1.0000306
1.0000306
1.0000307
1.0000307
1.0000306
1.0000306
1.0000306
1.0000306
1.0000306
1.0000306
1.0000306
1.0000306
1.0000306
1.0000307
1.0000307
1.0000307
1.0000307
1.0000307
1.0000307
1.0000307
1.0000307
1.0000307
1.0000307
1.0000307
1.0000307
1.0000307
1.0000307
1.0000307
1.0000307
1.0000307
1.0000307
1.0000307
1.0000307
1.0000307
1.0000307
1.0000307
1.0000307
1.0000307
1.0000307
1.0000307
1.0000288
1.0000288
1.0000288
1.0000288
1.0000288
1.0000288
1.0000288
1.0000288
1.0000288
1.0000288
1.0000288
1.0000288
1.0000288
1.0000288
1.0000288
1.0000288
1.0000288
1.0000288
1.0000288
1.0000288
1.0000288
1.0000288
1.0000288
1.0000288
1.0000288
1.0000288
1.0000288
1.0000288
1.0000288
1.0000288
1.0000288
1.0000288
1.0000288
1.0000288
1.0000288
1.0000288
1.0000288
1.0000288
1.0000288
1.0000288
1.0000288
1.0000288
1.0000288
1.0000288
1.0000288
1.0000288
1.0000288
1.0000288
1.0000288
1.0000288
1.0000288
1.0000288
1.0000288
1.0000288
1.0000288
1.0000288
1.0000288
1.0000288
1.0000288
1.0000271
1.0000271
1.0000271
1.0000271
1.0000271
1.0000271
1.0000271
1.0000271
1.0000271
1.0000271
1.0000271
1.0000271
1.0000271
1.0000271
1.0000271
1.0000271
1.0000271
1.0000271
1.0000271
1.0000271
1.0000272
1.0000272
1.0000272
1.0000272
1.0000272
1.0000272
1.0000272
1.0000272
1.0000272
1.0000272
1.0000272
1.0000272
1.0000272
1.0000272
1.0000272
1.0000272
1.0000272
1.0000272
1.0000272
1.0000272
1.0000272
1.0000272
1.0000272
1.0000272
1.0000272
1.0000272
1.0000272
1.0000272
1.0000272
1.0000272
1.0000272
1.0000272
1.0000272
1.0000272
1.0000272
1.0000272
1.0000272
1.0000272
1.0000272
1.0000257
1.0000257
1.0000257
1.0000257
1.0000257
1.0000257
1.0000257
1.0000257
1.0000257
1.0000257
1.0000257
1.0000257
1.0000257
1.0000257
1.0000257
1.0000257
1.0000257
1.0000257
1.0000257
1.0000257
1.0000257
1.0000257
1.0000257
1.0000257
1.0000257
1.0000257
1.0000257
1.0000257
1.0000257
1.0000257
1.0000257
1.0000257
1.0000257
1.0000258
1.0000258
1.0000258
1.0000258
1.0000258
1.0000258
1.0000258
1.0000258
1.0000258
1.0000258
1.0000258
1.0000258
1.0000258
1.0000258
1.0000258
1.0000258
1.0000258
1.0000258
1.0000258
1.0000258
1.0000258
1.0000258
1.0000258
1.0000258
1.0000258
1.0000258
1.0000245
1.0000245
1.0000245
1.0000245
1.0000245
1.0000245
1.0000245
1.0000245
1.0000245
1.0000245
1.0000245
1.0000245
1.0000245
1.0000245
1.0000245
1.0000245
1.0000245
1.0000245
1.0000245
1.0000245
1.0000245
1.0000245
1.0000245
1.0000245
1.0000245
1.0000245
1.0000245
1.0000245
1.0000245
1.0000245
1.0000245
1.0000245
1.0000245
1.0000245
1.0000245
1.0000245
1.0000245
1.0000245
1.0000245
1.0000245
1.0000245
1.0000245
1.0000245
1.0000245
1.0000245
1.0000245
1.0000245
1.0000245
1.0000245
1.0000245
1.0000245
1.0000245
1.0000245
1.0000245
1.0000245
1.0000245
1.0000246
1.0000246
1.0000246
1.0000234
1.0000234
1.0000234
1.0000234
1.0000234
1.0000234
1.0000234
1.0000234
1.0000234
1.0000234
1.0000234
1.0000234
1.0000234
1.0000234
1.0000234
1.0000234
1.0000234
1.0000234
1.0000235
1.0000235
1.0000235
1.0000235
1.0000235
1.0000235
1.0000235
1.0000235
1.0000235
1.0000235
1.0000235
1.0000235
1.0000235
1.0000235
1.0000235
1.0000235
1.0000235
1.0000235
1.0000235
1.0000235
1.0000235
1.0000235
1.0000235
1.0000235
1.0000235
1.0000235
1.0000235
1.0000235
1.0000235
1.0000235
1.0000235
1.0000235
1.0000235
1.0000235
1.0000235
1.0000235
1.0000235
1.0000235
1.0000235
1.0000235
1.0000235
1.0000225
1.0000225
1.0000225
1.0000225
1.0000225
1.0000225
1.0000225
1.0000225
1.0000225
1.0000225
1.0000225
1.0000225
1.0000226
1.0000226
1.0000226
1.0000226
1.0000226
1.0000226
1.0000226
1.0000226
1.0000226
1.0000226
1.0000226
1.0000226
1.0000226
1.0000226
1.0000226
1.0000226
1.0000226
1.0000226
1.0000226
1.0000226
1.0000226
1.0000226
1.0000226
1.0000226
1.0000226
1.0000226
1.0000226
1.0000226
1.0000226
1.0000226
1.0000226
1.0000226
1.0000226
1.0000226
1.0000226
1.0000226
1.0000226
1.0000226
1.0000226
1.0000226
1.0000226
1.0000226
1.0000226
1.0000226
1.0000226
1.0000226
1.0000226
1.0000218
1.0000218
1.0000218
1.0000218
1.0000218
1.0000218
1.0000218
1.0000218
1.0000218
1.0000218
1.0000218
1.0000218
1.0000218
1.0000218
1.0000218
1.0000218
1.0000218
1.0000218
1.0000218
1.0000218
1.0000218
1.0000218
1.0000218
1.0000218
1.0000218
1.0000218
1.0000218
1.0000218
1.0000219
1.0000219
1.0000219
1.0000219
1.0000219
1.0000219
1.0000219
1.0000219
1.0000219
1.0000219
1.0000219
1.0000219
1.0000219
1.0000219
1.0000219
1.0000219
1.0000219
1.0000219
1.0000219
1.0000219
1.0000219
1.0000219
1.0000219
1.0000219
1.0000219
1.0000219
1.0000219
1.0000219
1.0000219
1.0000219
1.0000219
1.0000212
1.0000212
1.0000212
1.0000212
1.0000212
1.0000212
1.0000212
1.0000212
1.0000212
1.0000212
1.0000212
1.0000212
1.0000212
1.0000212
1.0000212
1.0000212
1.0000212
1.0000212
1.0000212
1.0000212
1.0000212
1.0000212
1.0000212
1.0000212
1.0000212
1.0000212
1.0000212
1.0000212
1.0000212
1.0000212
1.0000212
1.0000212
1.0000212
1.0000212
1.0000212
1.0000212
1.0000212
1.0000212
1.0000212
1.0000212
1.0000212
1.0000212
1.0000212
1.0000212
1.0000212
1.0000212
1.0000212
1.0000212
1.0000212
1.0000212
1.0000212
1.0000212
1.0000212
1.0000212
1.0000212
1.0000212
1.0000212
1.0000212
1.0000212
1.0000204
1.0000204
1.0000204
1.0000204
1.0000204
1.0000204
1.0000204
1.0000204
1.0000204
1.0000204
1.0000204
1.0000204
1.0000204
1.0000204
1.0000204
1.0000204
1.0000204
1.0000204
1.0000204
1.0000204
1.0000204
1.0000204
1.0000204
1.0000204
1.0000204
1.0000204
1.0000204
1.0000204
1.0000204
1.0000204
1.0000204
1.0000204
1.0000204
1.0000204
1.0000204
1.0000204
1.0000204
1.0000204
1.0000204
1.0000204
1.0000204
1.0000204
1.0000204
1.0000204
1.0000204
1.0000204
1.0000204
1.0000204
1.0000204
1.0000204
1.0000204
1.0000204
1.0000204
1.0000204
1.0000204
1.0000204
1.0000204
1.0000204
1.0000204
1.0000207
1.0000207
1.0000207
1.0000207
1.0000207
1.0000207
1.0000207
1.0000207
1.0000207
1.0000207
1.0000207
1.0000207
1.0000207
1.0000207
1.0000207
1.0000207
1.0000207
1.0000207
1.0000207
1.0000207
1.0000207
1.0000207
1.0000207
1.0000207
1.0000207
1.0000207
1.0000207
1.0000207
1.0000207
1.0000207
1.0000207
1.0000207
1.0000207
1.0000207
1.0000207
1.0000207
1.0000207
1.0000207
1.0000207
1.0000207
1.0000207
1.0000207
1.0000207
1.0000207
1.0000207
1.0000207
1.0000207
1.0000207
1.0000207
1.0000207
1.0000207
1.0000207
1.0000207
1.0000207
1.0000207
1.0000207
1.0000207
1.0000206
1.0000206
1.0000236
1.0000236
1.0000236
1.0000237
1.0000237
1.0000237
1.0000237
1.0000237
1.0000237
1.0000237
1.0000237
1.0000237
1.0000237
1.0000237
1.0000237
1.0000237
1.0000237
1.0000237
1.0000237
1.0000237
1.0000237
1.0000237
1.0000237
1.0000237
1.0000237
1.0000237
1.0000237
1.0000237
1.0000237
1.0000237
1.0000237
1.0000237
1.0000237
1.0000237
1.0000237
1.0000237
1.0000237
1.0000237
1.0000237
1.0000237
1.0000237
1.0000237
1.0000237
1.0000237
1.0000237
1.0000237
1.0000237
1.0000237
1.0000237
1.0000237
1.0000237
1.0000237
1.0000237
1.0000237
1.0000237
1.0000237
1.0000237
1.0000237
1.0000238
1.0000127
1.0000127
1.0000127
1.0000127
1.0000127
1.0000127
1.0000127
1.0000127
1.0000127
1.0000127
1.0000127
1.0000127
1.0000127
1.0000128
1.0000128
1.0000128
1.0000128
1.0000128
1.0000128
1.0000128
1.0000128
1.0000128
1.0000128
1.0000128
1.0000128
1.0000128
1.0000128
1.0000128
1.0000128
1.0000128
1.0000128
1.0000128
1.0000128
1.0000128
1.0000128
1.0000128
1.0000128
1.0000128
1.0000128
1.0000128
1.0000128
1.0000128
1.0000128
1.0000128
1.0000128
1.0000128
1.0000128
1.0000128
1.0000128
1.0000128
1.0000128
1.0000128
1.0000128
1.0000128
1.0000128
1.0000128
1.0000128
1.0000128
1.0000128
1.0001246
1.0001246
1.0001247
1.0001247
1.0001248
1.0001248
1.0001248
1.0001249
1.0001249
1.0001249
1.000125
1.000125
1.000125
1.0001251
1.0001251
1.0001251
1.0001252
1.0001252
1.0001252
1.0001252
1.0001253
1.0001253
1.0001253
1.0001253
1.0001254
1.0001254
1.0001254
1.0001254
1.0001255
1.0001255
1.0001255
1.0001255
1.0001255
1.0001255
1.0001256
1.0001256
1.0001256
1.0001256
1.0001256
1.0001256
1.0001256
1.0001257
1.0001257
1.0001257
1.0001257
1.0001257
1.0001257
1.0001257
1.0001257
1.0001257
1.0001257
1.0001257
1.0001257
1.0001257
1.0001257
1.0001257
1.0001257
1.0001257
1.0001257
1.000114
1.0001141
1.0001141
1.0001141
1.0001142
1.0001142
1.0001142
1.0001142
1.0001143
1.0001143
1.0001143
1.0001144
1.0001144
1.0001144
1.0001144
1.0001145
1.0001145
1.0001145
1.0001145
1.0001146
1.0001146
1.0001146
1.0001146
1.0001146
1.0001147
1.0001147
1.0001147
1.0001147
1.0001147
1.0001148
1.0001148
1.0001148
1.0001148
1.0001148
1.0001148
1.0001149
1.0001149
1.0001149
1.0001149
1.0001149
1.0001149
1.0001149
1.0001149
1.0001149
1.000115
1.000115
1.000115
1.000115
1.000115
1.000115
1.000115
1.000115
1.000115
1.000115
1.000115
1.000115
1.000115
1.000115
1.000115
1.0001045
1.0001045
1.0001045
1.0001045
1.0001046
1.0001046
1.0001046
1.0001046
1.0001047
1.0001047
1.0001047
1.0001047
1.0001047
1.0001048
1.0001048
1.0001048
1.0001048
1.0001048
1.0001049
1.0001049
1.0001049
1.0001049
1.0001049
1.000105
1.000105
1.000105
1.000105
1.000105
1.000105
1.000105
1.0001051
1.0001051
1.0001051
1.0001051
1.0001051
1.0001051
1.0001051
1.0001051
1.0001052
1.0001052
1.0001052
1.0001052
1.0001052
1.0001052
1.0001052
1.0001052
1.0001052
1.0001052
1.0001052
1.0001052
1.0001052
1.0001052
1.0001052
1.0001052
1.0001052
1.0001052
1.0001052
1.0001052
1.0001052
1.0000954
1.0000954
1.0000954
1.0000954
1.0000955
1.0000955
1.0000955
1.0000955
1.0000955
1.0000956
1.0000956
1.0000956
1.0000956
1.0000956
1.0000957
1.0000957
1.0000957
1.0000957
1.0000957
1.0000957
1.0000957
1.0000958
1.0000958
1.0000958
1.0000958
1.0000958
1.0000958
1.0000958
1.0000958
1.0000959
1.0000959
1.0000959
1.0000959
1.0000959
1.0000959
1.0000959
1.0000959
1.0000959
1.0000959
1.000096
1.000096
1.000096
1.000096
1.000096
1.000096
1.000096
1.000096
1.000096
1.000096
1.000096
1.000096
1.000096
1.000096
1.000096
1.000096
1.000096
1.000096
1.000096
1.000096
1.000087
1.000087
1.000087
1.000087
1.000087
1.000087
1.0000871
1.0000871
1.0000871
1.0000871
1.0000871
1.0000871
1.0000872
1.0000872
1.0000872
1.0000872
1.0000872
1.0000872
1.0000872
1.0000872
1.0000873
1.0000873
1.0000873
1.0000873
1.0000873
1.0000873
1.0000873
1.0000873
1.0000873
1.0000873
1.0000874
1.0000874
1.0000874
1.0000874
1.0000874
1.0000874
1.0000874
1.0000874
1.0000874
1.0000874
1.0000874
1.0000874
1.0000874
1.0000874
1.0000874
1.0000874
1.0000875
1.0000875
1.0000875
1.0000875
1.0000875
1.0000875
1.0000875
1.0000875
1.0000875
1.0000875
1.0000875
1.0000875
1.0000875
1.0000791
1.0000791
1.0000791
1.0000791
1.0000792
1.0000792
1.0000792
1.0000792
1.0000792
1.0000792
1.0000792
1.0000793
1.0000793
1.0000793
1.0000793
1.0000793
1.0000793
1.0000793
1.0000793
1.0000793
1.0000793
1.0000794
1.0000794
1.0000794
1.0000794
1.0000794
1.0000794
1.0000794
1.0000794
1.0000794
1.0000794
1.0000794
1.0000794
1.0000794
1.0000795
1.0000795
1.0000795
1.0000795
1.0000795
1.0000795
1.0000795
1.0000795
1.0000795
1.0000795
1.0000795
1.0000795
1.0000795
1.0000795
1.0000795
1.0000795
1.0000795
1.0000795
1.0000795
1.0000795
1.0000795
1.0000795
1.0000795
1.0000795
1.0000795
1.0000718
1.0000718
1.0000719
1.0000719
1.0000719
1.0000719
1.0000719
1.0000719
1.0000719
1.0000719
1.0000719
1.000072
1.000072
1.000072
1.000072
1.000072
1.000072
1.000072
1.000072
1.000072
1.000072
1.000072
1.000072
1.0000721
1.0000721
1.0000721
1.0000721
1.0000721
1.0000721
1.0000721
1.0000721
1.0000721
1.0000721
1.0000721
1.0000721
1.0000721
1.0000721
1.0000721
1.0000721
1.0000721
1.0000721
1.0000721
1.0000721
1.0000722
1.0000722
1.0000722
1.0000722
1.0000722
1.0000722
1.0000722
1.0000722
1.0000722
1.0000722
1.0000722
1.0000722
1.0000722
1.0000722
1.0000722
1.0000722
1.0000651
1.0000651
1.0000651
1.0000651
1.0000652
1.0000652
1.0000652
1.0000652
1.0000652
1.0000652
1.0000652
1.0000652
1.0000652
1.0000652
1.0000652
1.0000652
1.0000652
1.0000653
1.0000653
1.0000653
1.0000653
1.0000653
1.0000653
1.0000653
1.0000653
1.0000653
1.0000653
1.0000653
1.0000653
1.0000653
1.0000653
1.0000653
1.0000653
1.0000653
1.0000653
1.0000653
1.0000653
1.0000654
1.0000654
1.0000654
1.0000654
1.0000654
1.0000654
1.0000654
1.0000654
1.0000654
1.0000654
1.0000654
1.0000654
1.0000654
1.0000654
1.0000654
1.0000654
1.0000654
1.0000654
1.0000654
1.0000654
1.0000654
1.0000654
1.0000589
1.0000589
1.0000589
1.0000589
1.000059
1.000059
1.000059
1.000059
1.000059
1.000059
1.000059
1.000059
1.000059
1.000059
1.000059
1.000059
1.000059
1.000059
1.000059
1.000059
1.0000591
1.0000591
1.0000591
1.0000591
1.0000591
1.0000591
1.0000591
1.0000591
1.0000591
1.0000591
1.0000591
1.0000591
1.0000591
1.0000591
1.0000591
1.0000591
1.0000591
1.0000591
1.0000591
1.0000591
1.0000591
1.0000591
1.0000591
1.0000591
1.0000591
1.0000591
1.0000591
1.0000591
1.0000591
1.0000591
1.0000591
1.0000591
1.0000591
1.0000591
1.0000591
1.0000591
1.0000591
1.0000591
1.0000591
1.0000532
1.0000532
1.0000533
1.0000533
1.0000533
1.0000533
1.0000533
1.0000533
1.0000533
1.0000533
1.0000533
1.0000533
1.0000533
1.0000533
1.0000533
1.0000533
1.0000533
1.0000533
1.0000533
1.0000533
1.0000533
1.0000533
1.0000533
1.0000534
1.0000534
1.0000534
1.0000534
1.0000534
1.0000534
1.0000534
1.0000534
1.0000534
1.0000534
1.0000534
1.0000534
1.0000534
1.0000534
1.0000534
1.0000534
1.0000534
1.0000534
1.0000534
1.0000534
1.0000534
1.0000534
1.0000534
1.0000534
1.0000534
1.0000534
1.0000534
1.0000534
1.0000534
1.0000534
1.0000534
1.0000534
1.0000534
1.0000534
1.0000534
1.0000534
1.000048
1.000048
1.0000481
1.0000481
1.0000481
1.0000481
1.0000481
1.0000481
1.0000481
1.0000481
1.0000481
1.0000481
1.0000481
1.0000481
1.0000481
1.0000481
1.0000481
1.0000481
1.0000481
1.0000481
1.0000481
1.0000481
1.0000481
1.0000481
1.0000481
1.0000481
1.0000481
1.0000481
1.0000481
1.0000481
1.0000481
1.0000482
1.0000482
1.0000482
1.0000482
1.0000482
1.0000482
1.0000482
1.0000482
1.0000482
1.0000482
1.0000482
1.0000482
1.0000482
1.0000482
1.0000482
1.0000482
1.0000482
1.0000482
1.0000482
1.0000482
1.0000482
1.0000482
1.0000482
1.0000482
1.0000482
1.0000482
1.0000482
1.0000482
1.0000433
1.0000433
1.0000433
1.0000433
1.0000433
1.0000433
1.0000433
1.0000433
1.0000433
1.0000433
1.0000433
1.0000433
1.0000433
1.0000433
1.0000433
1.0000433
1.0000433
1.0000433
1.0000433
1.0000433
1.0000433
1.0000433
1.0000433
1.0000433
1.0000433
1.0000434
1.0000434
1.0000434
1.0000434
1.0000434
1.0000434
1.0000434
1.0000434
1.0000434
1.0000434
1.0000434
1.0000434
1.0000434
1.0000434
1.0000434
1.0000434
1.0000434
1.0000434
1.0000434
1.0000434
1.0000434
1.0000434
1.0000434
1.0000434
1.0000434
1.0000434
1.0000434
1.0000434
1.0000434
1.0000434
1.0000434
1.0000434
1.0000434
1.0000434
1.0000389
1.0000389
1.0000389
1.0000389
1.0000389
1.0000389
1.0000389
1.0000389
1.0000389
1.0000389
1.0000389
1.0000389
1.0000389
1.0000389
1.0000389
1.0000389
1.0000389
1.0000389
1.0000389
1.0000389
1.0000389
1.0000389
1.0000389
1.0000389
1.0000389
1.0000389
1.0000389
1.0000389
1.0000389
1.0000389
1.000039
1.000039
1.000039
1.000039
1.000039
1.000039
1.000039
1.000039
1.000039
1.000039
1.000039
1.000039
1.000039
1.000039
1.000039
1.000039
1.000039
1.000039
1.000039
1.000039
1.000039
1.000039
1.000039
1.000039
1.000039
1.000039
1.000039
1.000039
1.000039
1.0000354
1.0000354
1.0000354
1.0000354
1.0000354
1.0000354
1.0000354
1.0000354
1.0000355
1.0000355
1.0000355
1.0000355
1.0000355
1.0000355
1.0000355
1.0000355
1.0000355
1.0000355
1.0000355
1.0000355
1.0000355
1.0000355
1.0000355
1.0000355
1.0000355
1.0000355
1.0000355
1.0000355
1.0000355
1.0000355
1.0000355
1.0000355
1.0000355
1.0000355
1.0000355
1.0000355
1.0000355
1.0000355
1.0000355
1.0000355
1.0000355
1.0000355
1.0000355
1.0000355
1.0000355
1.0000355
1.0000355
1.0000355
1.0000355
1.0000355
1.0000355
1.0000355
1.0000355
1.0000355
1.0000355
1.0000355
1.0000355
1.0000355
1.0000355
1.0001375
1.0001517
1.000169
1.0001877
1.0002081
1.0002303
1.0002545
1.0002808
1.0003092
1.0003398
1.0003727
1.000408
1.0004455
1.0004853
1.0005272
1.0005711
1.0006167
1.0006635
1.0007112
1.0007591
1.0008065
1.0008524
1.0008958
1.0009358
1.000971
1.0010001
1.0010221
1.0010357
1.00104
1.001034
1.0010173
1.0009897
1.0009511
1.000902
1.0008429
1.0007748
1.0006989
1.0006162
1.000528
1.0004357
1.0003405
1.0002435
1.0001458
1.0000485
0.99995215
0.99985764
0.99976549
0.99967614
0.99958994
0.99950716
0.99942799
0.99935255
0.99928088
0.99921299
0.99914884
0.99908836
0.99903146
0.99897803
0.99892792
0.99888102
0.99883716
0.99879621
0.99875802
0.99872243
0.9986893
0.99865849
0.99862985
0.99860325
0.99857856
0.99855567
0.99853446
0.99851481
0.99849666
0.99847985
1.0001375
1.0001517
1.000169
1.0001877
1.0002081
1.0002303
1.0002545
1.0002808
1.0003092
1.0003398
1.0003727
1.000408
1.0004455
1.0004853
1.0005272
1.0005711
1.0006167
1.0006635
1.0007112
1.0007591
1.0008065
1.0008524
1.0008958
1.0009358
1.000971
1.0010001
1.0010221
1.0010357
1.00104
1.001034
1.0010173
1.0009897
1.0009511
1.000902
1.0008429
1.0007748
1.0006989
1.0006161
1.000528
1.0004357
1.0003404
1.0002435
1.0001458
1.0000484
0.99995214
0.99985763
0.99976547
0.99967611
0.99958991
0.99950714
0.99942797
0.99935253
0.99928086
0.99921296
0.99914881
0.99908833
0.99903143
0.998978
0.99892789
0.99888099
0.99883713
0.99879618
0.99875799
0.9987224
0.99868927
0.99865845
0.9986298
0.99860319
0.99857851
0.99855561
0.9985344
0.99851474
0.99849657
0.99847964
1.0001375
1.0001517
1.000169
1.0001877
1.0002081
1.0002303
1.0002545
1.0002808
1.0003092
1.0003398
1.0003727
1.000408
1.0004455
1.0004853
1.0005272
1.0005711
1.0006167
1.0006635
1.0007112
1.0007591
1.0008065
1.0008524
1.0008958
1.0009358
1.000971
1.0010001
1.0010221
1.0010357
1.00104
1.001034
1.0010174
1.0009897
1.0009511
1.000902
1.0008429
1.0007749
1.0006989
1.0006162
1.000528
1.0004357
1.0003405
1.0002435
1.0001458
1.0000485
0.99995215
0.99985762
0.99976545
0.99967608
0.99958989
0.99950713
0.99942797
0.99935253
0.99928086
0.99921296
0.99914881
0.99908833
0.99903143
0.998978
0.9989279
0.99888099
0.99883714
0.9987962
0.99875801
0.99872242
0.99868929
0.99865847
0.99862983
0.99860323
0.99857854
0.99855564
0.99853441
0.99851473
0.99849655
0.99847958
1.0001375
1.0001517
1.000169
1.0001877
1.0002081
1.0002303
1.0002545
1.0002808
1.0003092
1.0003398
1.0003727
1.000408
1.0004455
1.0004853
1.0005272
1.0005711
1.0006167
1.0006635
1.0007112
1.0007591
1.0008065
1.0008524
1.0008958
1.0009358
1.000971
1.0010002
1.0010221
1.0010358
1.00104
1.0010341
1.0010174
1.0009898
1.0009512
1.0009021
1.000843
1.000775
1.000699
1.0006163
1.0005281
1.0004358
1.0003406
1.0002436
1.0001459
1.0000485
0.99995223
0.9998577
0.99976553
0.99967617
0.99958997
0.9995072
0.99942803
0.99935259
0.99928091
0.99921301
0.99914886
0.99908837
0.99903145
0.998978
0.99892789
0.99888098
0.99883713
0.99879618
0.99875798
0.99872239
0.99868925
0.99865843
0.9986298
0.9986032
0.99857851
0.99855561
0.99853438
0.9985147
0.99849649
0.99847951
1.0001374
1.0001517
1.000169
1.0001877
1.0002081
1.0002303
1.0002545
1.0002808
1.0003092
1.0003398
1.0003727
1.000408
1.0004455
1.0004853
1.0005272
1.0005711
1.0006167
1.0006635
1.0007112
1.0007591
1.0008065
1.0008524
1.0008958
1.0009358
1.000971
1.0010002
1.0010222
1.0010358
1.0010401
1.0010341
1.0010175
1.0009899
1.0009513
1.0009022
1.0008431
1.0007751
1.0006991
1.0006164
1.0005282
1.0004359
1.0003407
1.0002437
1.0001461
1.0000487
0.99995236
0.99985783
0.99976565
0.99967628
0.99959008
0.99950731
0.99942814
0.99935269
0.99928102
0.99921312
0.99914896
0.99908847
0.99903156
0.99897812
0.99892801
0.9988811
0.99883724
0.99879629
0.99875809
0.9987225
0.99868937
0.99865855
0.9986299
0.9986033
0.9985786
0.99855568
0.99853443
0.99851473
0.9984965
0.99847951
1.0001374
1.0001517
1.000169
1.0001877
1.0002081
1.0002303
1.0002545
1.0002808
1.0003092
1.0003398
1.0003727
1.000408
1.0004455
1.0004853
1.0005272
1.0005711
1.0006167
1.0006635
1.0007112
1.0007591
1.0008064
1.0008524
1.0008958
1.0009359
1.000971
1.0010002
1.0010222
1.0010359
1.0010401
1.0010342
1.0010176
1.00099
1.0009515
1.0009023
1.0008433
1.0007753
1.0006993
1.0006166
1.0005285
1.0004362
1.0003409
1.000244
1.0001463
1.0000489
0.99995259
0.99985806
0.99976588
0.99967651
0.9995903
0.99950752
0.99942835
0.99935289
0.99928121
0.99921331
0.99914914
0.99908865
0.99903173
0.99897828
0.99892816
0.99888125
0.99883738
0.99879642
0.99875822
0.99872262
0.99868948
0.99865865
0.99863
0.99860339
0.99857869
0.99855577
0.99853451
0.9985148
0.99849657
0.99847957
1.0001374
1.0001517
1.000169
1.0001877
1.0002081
1.0002303
1.0002545
1.0002808
1.0003092
1.0003398
1.0003727
1.0004079
1.0004455
1.0004853
1.0005272
1.0005711
1.0006166
1.0006635
1.0007112
1.0007591
1.0008064
1.0008524
1.0008958
1.0009359
1.000971
1.0010003
1.0010223
1.001036
1.0010403
1.0010344
1.0010178
1.0009902
1.0009517
1.0009026
1.0008436
1.0007756
1.0006996
1.000617
1.0005288
1.0004365
1.0003413
1.0002443
1.0001467
1.0000493
0.99995294
0.9998584
0.99976622
0.99967684
0.99959062
0.99950783
0.99942865
0.99935319
0.99928151
0.9992136
0.99914943
0.99908893
0.99903201
0.99897855
0.99892843
0.99888152
0.99883765
0.99879669
0.99875849
0.99872289
0.99868974
0.99865891
0.99863026
0.99860364
0.99857893
0.99855599
0.99853472
0.998515
0.99849674
0.99847972
1.0001374
1.0001517
1.000169
1.0001877
1.0002081
1.0002303
1.0002545
1.0002808
1.0003092
1.0003398
1.0003727
1.0004079
1.0004455
1.0004852
1.0005272
1.000571
1.0006166
1.0006635
1.0007112
1.0007591
1.0008064
1.0008524
1.0008958
1.0009359
1.0009711
1.0010003
1.0010224
1.0010361
1.0010404
1.0010346
1.001018
1.0009905
1.000952
1.000903
1.000844
1.000776
1.0007001
1.0006174
1.0005293
1.000437
1.0003418
1.0002448
1.0001472
1.0000498
0.99995346
0.99985891
0.99976672
0.99967733
0.99959111
0.99950831
0.99942912
0.99935365
0.99928196
0.99921404
0.99914986
0.99908935
0.99903242
0.99897896
0.99892883
0.9988819
0.99883803
0.99879706
0.99875884
0.99872323
0.99869008
0.99865924
0.99863057
0.99860394
0.99857922
0.99855628
0.998535
0.99851526
0.998497
0.99847997
1.0001374
1.0001517
1.000169
1.0001877
1.0002081
1.0002303
1.0002545
1.0002808
1.0003092
1.0003398
1.0003727
1.0004079
1.0004454
1.0004852
1.0005271
1.000571
1.0006166
1.0006635
1.0007111
1.000759
1.0008064
1.0008524
1.0008958
1.0009359
1.0009711
1.0010004
1.0010225
1.0010362
1.0010406
1.0010348
1.0010183
1.0009908
1.0009524
1.0009034
1.0008445
1.0007766
1.0007007
1.0006181
1.00053
1.0004377
1.0003425
1.0002456
1.0001479
1.0000505
0.99995419
0.99985964
0.99976744
0.99967804
0.99959181
0.999509
0.9994298
0.99935431
0.9992826
0.99921467
0.99915048
0.99908996
0.99903302
0.99897955
0.99892941
0.99888248
0.9988386
0.99879762
0.9987594
0.99872378
0.99869062
0.99865978
0.9986311
0.99860446
0.99857973
0.99855678
0.99853549
0.99851574
0.99849746
0.99848041
1.0001374
1.0001517
1.000169
1.0001877
1.000208
1.0002303
1.0002545
1.0002807
1.0003091
1.0003398
1.0003727
1.0004079
1.0004454
1.0004852
1.0005271
1.000571
1.0006165
1.0006634
1.0007111
1.000759
1.0008064
1.0008523
1.0008958
1.0009359
1.0009712
1.0010005
1.0010226
1.0010364
1.0010409
1.0010352
1.0010188
1.0009913
1.000953
1.0009041
1.0008453
1.0007774
1.0007016
1.000619
1.000531
1.0004387
1.0003435
1.0002466
1.0001489
1.0000515
0.99995522
0.99986066
0.99976844
0.99967903
0.99959278
0.99950996
0.99943073
0.99935523
0.9992835
0.99921555
0.99915134
0.9990908
0.99903384
0.99898035
0.9989302
0.99888325
0.99883935
0.99879835
0.99876012
0.99872448
0.99869131
0.99866044
0.99863175
0.9986051
0.99858035
0.99855738
0.99853608
0.99851632
0.99849804
0.99848099
1.0001374
1.0001516
1.0001689
1.0001877
1.000208
1.0002303
1.0002545
1.0002807
1.0003091
1.0003397
1.0003726
1.0004078
1.0004454
1.0004851
1.0005271
1.0005709
1.0006165
1.0006634
1.0007111
1.000759
1.0008064
1.0008523
1.0008958
1.000936
1.0009713
1.0010006
1.0010228
1.0010367
1.0010412
1.0010356
1.0010193
1.000992
1.0009538
1.000905
1.0008463
1.0007785
1.0007028
1.0006203
1.0005323
1.0004401
1.0003449
1.000248
1.0001504
1.000053
0.99995663
0.99986205
0.99976981
0.99968037
0.99959409
0.99951124
0.99943199
0.99935646
0.99928471
0.99921673
0.9991525
0.99909194
0.99903497
0.99898146
0.99893128
0.99888431
0.9988404
0.99879939
0.99876114
0.9987255
0.99869231
0.99866143
0.99863273
0.99860607
0.99858131
0.99855833
0.99853702
0.99851725
0.99849896
0.9984819
1.0001374
1.0001516
1.0001689
1.0001876
1.000208
1.0002303
1.0002545
1.0002807
1.0003091
1.0003397
1.0003726
1.0004078
1.0004453
1.0004851
1.000527
1.0005709
1.0006164
1.0006633
1.000711
1.0007589
1.0008063
1.0008523
1.0008958
1.000936
1.0009714
1.0010008
1.0010231
1.001037
1.0010417
1.0010362
1.00102
1.0009929
1.0009548
1.0009062
1.0008476
1.0007799
1.0007043
1.0006219
1.000534
1.0004419
1.0003468
1.0002499
1.0001523
1.0000549
0.9999585
0.9998639
0.99977164
0.99968218
0.99959588
0.999513
0.99943372
0.99935817
0.99928638
0.99921838
0.99915412
0.99909353
0.99903652
0.99898299
0.99893279
0.99888579
0.99884185
0.99880082
0.99876254
0.99872687
0.99869366
0.99866276
0.99863403
0.99860735
0.99858257
0.99855958
0.99853825
0.99851848
0.99850017
0.99848312
1.0001374
1.0001516
1.0001689
1.0001876
1.000208
1.0002302
1.0002544
1.0002807
1.0003091
1.0003397
1.0003726
1.0004078
1.0004453
1.000485
1.000527
1.0005708
1.0006164
1.0006632
1.0007109
1.0007589
1.0008063
1.0008523
1.0008959
1.0009361
1.0009715
1.001001
1.0010234
1.0010375
1.0010423
1.001037
1.001021
1.000994
1.0009562
1.0009077
1.0008493
1.0007819
1.0007064
1.0006241
1.0005363
1.0004443
1.0003493
1.0002524
1.0001548
1.0000574
0.99996101
0.9998664
0.99977412
0.99968463
0.99959829
0.99951537
0.99943605
0.99936045
0.99928862
0.99922058
0.99915627
0.99909565
0.9990386
0.99898503
0.9989348
0.99888777
0.9988438
0.99880274
0.99876444
0.99872874
0.99869551
0.99866459
0.99863584
0.99860914
0.99858434
0.99856133
0.99853999
0.9985202
0.99850188
0.99848481
1.0001374
1.0001516
1.0001689
1.0001876
1.000208
1.0002302
1.0002544
1.0002806
1.000309
1.0003396
1.0003725
1.0004077
1.0004452
1.000485
1.0005269
1.0005707
1.0006163
1.0006632
1.0007109
1.0007588
1.0008062
1.0008522
1.0008959
1.0009361
1.0009716
1.0010013
1.0010238
1.0010381
1.0010431
1.001038
1.0010222
1.0009955
1.0009579
1.0009097
1.0008516
1.0007844
1.0007091
1.000627
1.0005394
1.0004475
1.0003525
1.0002557
1.0001581
1.0000607
0.99996435
0.99986972
0.99977741
0.99968788
0.99960149
0.99951853
0.99943916
0.99936351
0.99929163
0.99922353
0.99915918
0.9990985
0.99904141
0.99898779
0.99893752
0.99889045
0.99884643
0.99880533
0.99876699
0.99873126
0.99869799
0.99866704
0.99863827
0.99861153
0.99858671
0.99856368
0.99854232
0.99852251
0.99850418
0.9984871
1.0001374
1.0001516
1.0001689
1.0001876
1.000208
1.0002302
1.0002544
1.0002806
1.000309
1.0003396
1.0003725
1.0004076
1.0004451
1.0004849
1.0005268
1.0005706
1.0006162
1.000663
1.0007107
1.0007587
1.0008061
1.0008522
1.0008959
1.0009362
1.0009718
1.0010016
1.0010243
1.0010388
1.001044
1.0010392
1.0010238
1.0009974
1.0009602
1.0009124
1.0008545
1.0007876
1.0007127
1.0006308
1.0005434
1.0004516
1.0003567
1.00026
1.0001625
1.0000651
0.99996874
0.99987409
0.99978174
0.99969217
0.99960573
0.9995227
0.99944327
0.99936755
0.9992956
0.99922743
0.99916301
0.99910227
0.99904512
0.99899144
0.9989411
0.99889397
0.99884991
0.99880876
0.99877037
0.9987346
0.99870129
0.9986703
0.99864149
0.99861472
0.99858987
0.99856681
0.99854542
0.99852558
0.99850722
0.99849012
1.0001374
1.0001516
1.0001689
1.0001876
1.0002079
1.0002302
1.0002543
1.0002806
1.0003089
1.0003395
1.0003724
1.0004076
1.0004451
1.0004848
1.0005267
1.0005705
1.0006161
1.0006629
1.0007106
1.0007586
1.000806
1.0008521
1.0008959
1.0009363
1.000972
1.001002
1.0010249
1.0010397
1.0010452
1.0010408
1.0010258
1.0009999
1.0009631
1.0009157
1.0008583
1.0007918
1.0007172
1.0006357
1.0005485
1.0004569
1.0003622
1.0002656
1.0001682
1.0000708
0.99997447
0.9998798
0.99978741
0.99969777
0.99961127
0.99952816
0.99944864
0.99937284
0.99930081
0.99923256
0.99916805
0.99910723
0.99905
0.99899624
0.99894583
0.99889863
0.9988545
0.99881329
0.99877484
0.99873901
0.99870565
0.99867462
0.99864576
0.99861895
0.99859406
0.99857097
0.99854955
0.99852968
0.99851129
0.99849417
1.0001373
1.0001516
1.0001689
1.0001875
1.0002079
1.0002301
1.0002543
1.0002805
1.0003089
1.0003395
1.0003723
1.0004075
1.000445
1.0004847
1.0005266
1.0005704
1.0006159
1.0006628
1.0007105
1.0007584
1.0008059
1.0008521
1.0008959
1.0009364
1.0009723
1.0010025
1.0010257
1.0010408
1.0010468
1.0010428
1.0010283
1.001003
1.0009667
1.00092
1.0008632
1.0007972
1.0007231
1.0006419
1.0005551
1.0004638
1.0003693
1.0002729
1.0001755
1.0000782
0.99998188
0.99988718
0.99979474
0.99970504
0.99961845
0.99953525
0.99945563
0.99937972
0.99930758
0.99923921
0.9991746
0.99911367
0.99905633