/*--------------------------------*- C++ -*----------------------------------*\
| =========                 |                                                 |
| \\      /  F ield         | OpenFOAM: The Open Source CFD Toolbox           |
|  \\    /   O peration     | Version:  v2006                                 |
|   \\  /    A nd           | Website:  www.openfoam.com                      |
|    \\/     M anipulation  |                                                 |
\*---------------------------------------------------------------------------*/
FoamFile
{
    version     2.0;
    format      ascii;
    class       surfaceScalarField;
    location    "5000";
    object      phi;
}
// * * * * * * * * * * * * * * * * * * * * * * * * * * * * * * * * * * * * * //

dimensions      [1 0 -1 0 0 0 0];
oriented        oriented;


internalField   nonuniform List<scalar> 
110670
(
1.7250298e-05
-0.00037593133
0.00035868115
3.0318388e-05
-0.0003538209
0.00034075287
4.0142246e-05
-0.00033457224
0.00032474851
4.7419483e-05
-0.00031759397
0.00031031677
5.2676307e-05
-0.00030250855
0.00029725184
5.6315097e-05
-0.00028903449
0.00028539571
5.8647636e-05
-0.00027695109
0.00027461866
5.9917745e-05
-0.00026607987
0.00026480975
6.031853e-05
-0.00025627467
0.00025587398
6.0003747e-05
-0.00024741329
0.00024772805
5.9097359e-05
-0.00023939476
0.00024030125
5.7699501e-05
-0.00023213084
0.00023352866
5.5892207e-05
-0.00022554919
0.00022735658
5.3742323e-05
-0.00021958651
0.00022173635
5.1305539e-05
-0.00021418811
0.00021662498
4.8627544e-05
-0.00020930756
0.00021198551
4.5746949e-05
-0.00020490416
0.00020778484
4.2695595e-05
-0.00020094286
0.00020399417
3.9500835e-05
-0.00019739316
0.00020058801
3.6185303e-05
-0.00019422866
0.00019754413
3.2768819e-05
-0.00019142656
0.00019484314
2.9267815e-05
-0.00018896715
0.00019246809
2.5697059e-05
-0.00018683362
0.00019040448
2.2068834e-05
-0.00018501166
0.00018863982
1.8394561e-05
-0.0001834893
0.00018716367
1.4683815e-05
-0.00018225667
0.00018596734
1.09459e-05
-0.00018130591
0.00018504393
7.1887551e-06
-0.000180631
0.00018438807
3.4205198e-06
-0.00018022773
0.00018399607
-3.5164677e-07
-0.00018009357
0.00018386566
-4.1199525e-06
-0.0001802277
0.00018399611
-7.8772364e-06
-0.00018063095
0.00018438816
-1.1615341e-05
-0.00018130585
0.00018504405
-1.5326357e-05
-0.00018225658
0.00018596751
-1.900095e-05
-0.00018348919
0.00018716388
-2.2629592e-05
-0.00018501152
0.00018864007
-2.6200816e-05
-0.00018683346
0.00019040478
-2.9702392e-05
-0.00018896695
0.00019246845
-3.3119498e-05
-0.00019142635
0.00019484355
-3.6435762e-05
-0.00019422841
0.00019754459
-3.9631308e-05
-0.00019739289
0.00020058853
-4.268357e-05
-0.00020094256
0.00020399474
-4.5565139e-05
-0.00020490382
0.00020778548
-4.824425e-05
-0.00020930719
0.00021198622
-5.0682234e-05
-0.00021418769
0.00021662576
-5.2833481e-05
-0.00021958603
0.0002217372
-5.4642252e-05
-0.00022554866
0.00022735752
-5.604176e-05
-0.00023213024
0.00023352967
-5.6949935e-05
-0.00023939408
0.00024030233
-5.7266713e-05
-0.00024741247
0.00024772917
-5.6868062e-05
-0.00025627366
0.00025587508
-5.5600284e-05
-0.0002660785
0.00026481065
-5.3270114e-05
-0.00027694907
0.00027461897
-4.9633641e-05
-0.00028903098
0.00028539444
-4.4378588e-05
-0.00030250172
0.00029724673
-3.7101841e-05
-0.00031757864
0.00031030183
-2.7275037e-05
-0.00033453414
0.0003247074
-1.4196491e-05
-0.00035371253
0.00034063392
-0.00037556171
0.00035828241
3.0828689e-06
1.7294173e-05
-0.00039322558
3.039097e-05
-0.00036691775
4.0234116e-05
-0.00034441546
4.7523615e-05
-0.0003248835
5.2786984e-05
-0.00030777198
5.6427983e-05
-0.0002926755
5.8759068e-05
-0.00027928222
6.002501e-05
-0.00026734582
6.041921e-05
-0.0002566689
6.0096146e-05
-0.00024709023
5.9179813e-05
-0.00023847845
5.7770942e-05
-0.00023072196
5.5951451e-05
-0.00022372972
5.3788702e-05
-0.00021742375
5.1338212e-05
-0.00021173763
4.8646097e-05
-0.00020661544
4.5750763e-05
-0.00020200883
4.2684433e-05
-0.00019787653
3.947423e-05
-0.00019418296
3.6143151e-05
-0.00019089757
3.2710757e-05
-0.00018799417
2.9193838e-05
-0.00018545023
2.5606883e-05
-0.00018324666
2.196252e-05
-0.0001813673
1.8271881e-05
-0.00017979865
1.4544876e-05
-0.00017852966
1.0790514e-05
-0.00017755154
7.017067e-06
-0.00017685756
3.2323777e-06
-0.00017644303
-5.5606383e-07
-0.00017630514
-4.3407872e-06
-0.00017644296
-8.1143177e-06
-0.00017685743
-1.1868791e-05
-0.00017755135
-1.5595972e-05
-0.00017852941
-1.9286806e-05
-0.00017979833
-2.2931439e-05
-0.0001813669
-2.6518671e-05
-0.0001832462
-3.0035953e-05
-0.00018544969
-3.3468711e-05
-0.00018799356
-3.6800256e-05
-0.00019089688
-4.0010922e-05
-0.00019418219
-4.3077839e-05
-0.00019787566
-4.5973758e-05
-0.00020200787
-4.86666e-05
-0.00020661437
-5.1117813e-05
-0.00021173644
-5.3281452e-05
-0.00021742242
-5.510183e-05
-0.00022372825
-5.6511793e-05
-0.0002307203
-5.7429216e-05
-0.00023847661
-5.7753599e-05
-0.00024708811
-5.7360712e-05
-0.0002566665
-5.6096294e-05
-0.00026734295
-5.3766661e-05
-0.00027927865
-5.0127107e-05
-0.00029267057
-4.4864569e-05
-0.00030776421
-3.7574709e-05
-0.00032486854
-2.7727741e-05
-0.00034438106
-1.4619894e-05
-0.00036682042
-0.00039288199
2.7004418e-06
1.7333856e-05
-0.00041055943
3.0459064e-05
-0.00038004296
4.0321706e-05
-0.0003542781
4.7623613e-05
-0.00033218541
5.2893938e-05
-0.0003130423
5.6537547e-05
-0.00029631912
5.8867872e-05
-0.00028161254
6.0130305e-05
-0.00026860826
6.0518863e-05
-0.00025705745
6.018832e-05
-0.00024675969
5.9263134e-05
-0.00023755326
5.7844154e-05
-0.00022930299
5.6013642e-05
-0.00022189919
5.383903e-05
-0.00021524915
5.1376062e-05
-0.00020927465
4.8670889e-05
-0.00020391028
4.5762085e-05
-0.00019910001
4.2681878e-05
-0.00019479633
3.9457518e-05
-0.00019095858
3.6111984e-05
-0.00018755205
3.2664957e-05
-0.00018454712
2.9133197e-05
-0.00018191848
2.5531298e-05
-0.00017964474
2.1871847e-05
-0.00017770786
1.8166063e-05
-0.00017609284
1.4423814e-05
-0.00017478743
1.0654187e-05
-0.00017378189
6.8654121e-06
-0.0001730688
3.0654003e-06
-0.00017264299
-7.3840055e-07
-0.00017250136
-4.5384442e-06
-0.00017264289
-8.3272883e-06
-0.00017306861
-1.2097003e-05
-0.0001737816
-1.5839381e-05
-0.00017478706
-1.9545298e-05
-0.00017609238
-2.320492e-05
-0.0001777073
-2.6806989e-05
-0.0001796441
-3.0338968e-05
-0.00018191774
-3.3786214e-05
-0.00018454628
-3.7132033e-05
-0.00018755109
-4.0356683e-05
-0.00019095751
-4.3437255e-05
-0.00019479512
-4.6346424e-05
-0.00019909866
-4.9052041e-05
-0.00020390878
-5.1515453e-05
-0.00020927299
-5.3690598e-05
-0.00021524731
-5.5521654e-05
-0.00022189715
-5.6941279e-05
-0.00022930071
-5.786715e-05
-0.00023755071
-5.8198479e-05
-0.00024675682
-5.7810732e-05
-0.00025705421
-5.6549206e-05
-0.00026860451
-5.4219735e-05
-0.00028160809
-5.0576904e-05
-0.00029631343
-4.5306866e-05
-0.00031303421
-3.8004113e-05
-0.00033217133
-2.8137508e-05
-0.00035424763
-1.5001242e-05
-0.00037995672
-0.00041024196
2.3587602e-06
1.7374276e-05
-0.00042793371
3.0528739e-05
-0.00039319742
4.0411744e-05
-0.0003641611
4.7726895e-05
-0.00033950057
5.3005013e-05
-0.00031832041
5.6652104e-05
-0.00029996621
5.8982528e-05
-0.00028394296
6.0242309e-05
-0.00026986805
6.0626022e-05
-0.00025744116
6.028885e-05
-0.00024642252
5.9355553e-05
-0.00023661995
5.7927293e-05
-0.00022787474
5.608651e-05
-0.0002200584
5.3900806e-05
-0.00021306345
5.1426078e-05
-0.00020679991
4.8708588e-05
-0.0002011928
4.5787012e-05
-0.00019617842
4.2693654e-05
-0.00019170299
3.9455836e-05
-0.00018772075
3.609659e-05
-0.00018419282
3.2635635e-05
-0.00018108615
2.9089769e-05
-0.00017837263
2.5473613e-05
-0.00017602857
2.1799794e-05
-0.00017403406
1.8079551e-05
-0.00017237258
1.4322785e-05
-0.00017103068
1.0538593e-05
-0.00016999768
6.7352318e-06
-0.00016926546
2.9206181e-06
-0.00016882835
-8.9776919e-07
-0.00016868299
-4.7123884e-06
-0.00016882825
-8.5157672e-06
-0.00016926525
-1.2299978e-05
-0.00016999737
-1.6056777e-05
-0.00017103028
-1.977705e-05
-0.00017237208
-2.3450918e-05
-0.00017403346
-2.7067122e-05
-0.00017602787
-3.0613068e-05
-0.00017837181
-3.4074101e-05
-0.00018108522
-3.7433461e-05
-0.00018419176
-4.0671385e-05
-0.00018771955
-4.3764885e-05
-0.00019170165
-4.6686593e-05
-0.00019617693
-4.9404261e-05
-0.00020119114
-5.1879163e-05
-0.00020679806
-5.4065099e-05
-0.0002130614
-5.5906114e-05
-0.00022005611
-5.7334677e-05
-0.00022787218
-5.8268262e-05
-0.00023661709
-5.8605802e-05
-0.00024641931
-5.8222444e-05
-0.00025743754
-5.696307e-05
-0.00026986391
-5.4632994e-05
-0.00028393814
-5.0986146e-05
-0.00029996031
-4.5707829e-05
-0.0003183125
-3.8391448e-05
-0.00033948774
-2.8504413e-05
-0.00036413463
-1.5339004e-05
-0.00039312216
-0.00042764235
2.0614224e-06
1.7414384e-05
-0.00044534802
3.0598049e-05
-0.00040638109
4.0501625e-05
-0.00037406458
4.7830298e-05
-0.00034682926
5.3116695e-05
-0.00032360671
5.6767697e-05
-0.00030361725
5.9098784e-05
-0.00028627395
6.0356433e-05
-0.00027112574
6.0735959e-05
-0.0002578206
6.039271e-05
-0.00024607933
5.9452021e-05
-0.00023567918
5.801505e-05
-0.00022643783
5.61647e-05
-0.00021820798
5.396851e-05
-0.00021086732
5.1482734e-05
-0.00020431406
4.8753529e-05
-0.00019846366
4.5819881e-05
-0.00019324471
4.271397e-05
-0.00018859714
3.9463382e-05
-0.0001844701
3.6091014e-05
-0.00018082051
3.2616815e-05
-0.0001776119
2.9057448e-05
-0.00017481332
2.5427733e-05
-0.0001723988
2.1740161e-05
-0.00017034654
1.8006145e-05
-0.00016863852
1.4235466e-05
-0.00016726005
1.0437371e-05
-0.00016619954
6.6200116e-06
-0.00016544815
2.7914373e-06
-0.00016499974
-1.040964e-06
-0.00016485064
-4.8695331e-06
-0.00016499964
-8.6868722e-06
-0.00016544796
-1.248496e-05
-0.00016619925
-1.6255607e-05
-0.00016725967
-1.9989621e-05
-0.00016863804
-2.3677152e-05
-0.00017034596
-2.7306875e-05
-0.00017239812
-3.0866196e-05
-0.00017481253
-3.4340407e-05
-0.00017761099
-3.7712718e-05
-0.00018081948
-4.0963324e-05
-0.00018446893
-4.4069172e-05
-0.00018859583
-4.7002848e-05
-0.00019324324
-4.9731994e-05
-0.00019846202
-5.2217823e-05
-0.00020431223
-5.4413965e-05
-0.00021086527
-5.6264385e-05
-0.00021820569
-5.770131e-05
-0.00022643526
-5.8642082e-05
-0.00023567632
-5.8985288e-05
-0.00024607611
-5.8605847e-05
-0.00025781698
-5.7348129e-05
-0.00027112164
-5.5017058e-05
-0.00028626922
-5.1365798e-05
-0.00030361157
-4.6078938e-05
-0.00032359937
-3.8748685e-05
-0.00034681799
-2.8841155e-05
-0.00037404217
-1.5646656e-05
-0.00040631666
-0.00044508298
1.7939642e-06
1.7454302e-05
-0.00046280238
3.0667529e-05
-0.00041959431
4.0591763e-05
-0.0003839889
4.7934431e-05
-0.00035417191
5.3229282e-05
-0.00032890165
5.6884816e-05
-0.00030727275
5.9216872e-05
-0.00028860609
6.0473062e-05
-0.00027238189
6.0848714e-05
-0.00025819632
6.0500093e-05
-0.00024573066
5.9552342e-05
-0.0002347315
5.8107385e-05
-0.00022499281
5.6247823e-05
-0.00021634848
5.4041868e-05
-0.00020866131
5.1545414e-05
-0.00020181766
4.8805225e-05
-0.00019572341
4.585989e-05
-0.00019029943
4.2742144e-05
-0.00018547933
3.947917e-05
-0.00018120718
3.6094381e-05
-0.00017743566
3.260732e-05
-0.00017412488
2.9035131e-05
-0.00017124107
2.5392236e-05
-0.00016875595
2.1691575e-05
-0.00016664583
1.7944176e-05
-0.00016489116
1.4160237e-05
-0.00016347606
1.034864e-05
-0.00016238798
6.5179286e-06
-0.00016161739
2.6758006e-06
-0.00016115764
-1.1699852e-06
-0.0001610048
-5.0120999e-06
-0.00016115756
-8.8427934e-06
-0.00016161722
-1.2654351e-05
-0.00016238772
-1.6438258e-05
-0.00016347572
-2.0185596e-05
-0.00016489073
-2.3886213e-05
-0.0001666453
-2.7529023e-05
-0.00016875534
-3.1101156e-05
-0.00017124036
-3.4588108e-05
-0.00017412406
-3.7972827e-05
-0.00017743472
-4.1235668e-05
-0.00018120611
-4.4353332e-05
-0.00018547813
-4.7298517e-05
-0.00019029807
-5.0038612e-05
-0.00019572189
-5.2534889e-05
-0.00020181597
-5.4740727e-05
-0.00020865941
-5.6600074e-05
-0.00021634635
-5.8044876e-05
-0.00022499044
-5.8992366e-05
-0.00023472884
-5.9340783e-05
-0.00024572767
-5.8964807e-05
-0.00025819297
-5.7708339e-05
-0.00027237809
-5.5375843e-05
-0.00028860171
-5.1719817e-05
-0.00030726759
-4.642404e-05
-0.00032889515
-3.9079671e-05
-0.00035416235
-2.9151382e-05
-0.00038397045
-1.5927714e-05
-0.00041954032
-0.00046256386
1.5531816e-06
1.749425e-05
-0.00048029664
3.073716e-05
-0.00043283722
4.0682513e-05
-0.00039393426
4.8039411e-05
-0.0003615288
5.3343312e-05
-0.00033420555
5.7003634e-05
-0.00031093307
5.9337265e-05
-0.00029093973
6.0592282e-05
-0.0002736369
6.0964712e-05
-0.00025856876
6.0611001e-05
-0.00024537694
5.9656817e-05
-0.00023377732
5.8204147e-05
-0.00022354014
5.6335991e-05
-0.00021448033
5.4120539e-05
-0.00020644585
5.1614012e-05
-0.00019931115
4.8863103e-05
-0.00019297249
4.5906678e-05
-0.00018734301
4.2777369e-05
-0.00018235001
3.9502597e-05
-0.00017793242
3.6105661e-05
-0.00017403872
3.260631e-05
-0.00017062555
2.9021573e-05
-0.00016765632
2.5366051e-05
-0.00016510044
2.1652571e-05
-0.00016293233
1.7892323e-05
-0.00016113092
1.4095392e-05
-0.00015967912
1.0270813e-05
-0.00015856341
6.4270179e-06
-0.00015777358
2.5718442e-06
-0.00015730248
-1.2870506e-06
-0.00015714589
-5.1422117e-06
-0.00015730241
-8.9859815e-06
-0.00015777343
-1.2810522e-05
-0.0001585632
-1.6607401e-05
-0.00015967883
-2.0367585e-05
-0.00016113056
-2.4080989e-05
-0.00016293189
-2.7736421e-05
-0.00016509992
-3.1321057e-05
-0.00016765571
-3.4820292e-05
-0.00017062484
-3.82171e-05
-0.0001740379
-4.1491727e-05
-0.0001779315
-4.4620876e-05
-0.00018234897
-4.7577121e-05
-0.00018734184
-5.0327827e-05
-0.00019297117
-5.2834126e-05
-0.00019930968
-5.5049322e-05
-0.0002064442
-5.6917194e-05
-0.00021447849
-5.8369543e-05
-0.00022353807
-5.9323374e-05
-0.00023377502
-5.9676688e-05
-0.00024537434
-5.9303825e-05
-0.00025856584
-5.8048314e-05
-0.00027363358
-5.5714106e-05
-0.00029093593
-5.2053072e-05
-0.00031092861
-4.6748172e-05
-0.00033420005
-3.9389527e-05
-0.00036152099
-2.9440412e-05
-0.00039391956
-1.618753e-05
-0.0004327932
-0.00048008484
1.3334607e-06
1.7534121e-05
-0.00049783077
3.0806989e-05
-0.00044611009
4.0773616e-05
-0.00040390089
4.8145023e-05
-0.00036890021
5.3458181e-05
-0.00033951872
5.7123633e-05
-0.00031459852
5.9459123e-05
-0.00029327523
6.0713352e-05
-0.00027489113
6.1082836e-05
-0.00025893826
6.0724423e-05
-0.00024501853
5.9764122e-05
-0.00023281704
5.830413e-05
-0.00022208014
5.6427678e-05
-0.0002126039
5.420311e-05
-0.00020422128
5.1686799e-05
-0.00019679486
4.8925539e-05
-0.00019021123
4.5958302e-05
-0.00018437579
4.2817792e-05
-0.0001792095
3.95315e-05
-0.00017464615
3.6122772e-05
-0.00017062999
3.2611415e-05
-0.00016711421
2.901448e-05
-0.00016405939
2.5346616e-05
-0.0001614326
2.1620667e-05
-0.00015920638
1.7847858e-05
-0.00015735814
1.4038286e-05
-0.00015586954
1.020101e-05
-0.00015472616
6.3444793e-06
-0.00015391704
2.4765496e-06
-0.00015343458
-1.3951092e-06
-0.00015327423
-5.2630239e-06
-0.00015343452
-9.1195256e-06
-0.00015391693
-1.2956757e-05
-0.00015472598
-1.676627e-05
-0.00015586931
-2.0539005e-05
-0.00015735784
-2.4264865e-05
-0.00015920602
-2.7932624e-05
-0.00016143218
-3.1529439e-05
-0.00016405889
-3.5040659e-05
-0.00016711364
-3.8449228e-05
-0.00017062933
-4.1735341e-05
-0.0001746454
-4.4875649e-05
-0.00017920866
-4.7842656e-05
-0.00018437485
-5.0603657e-05
-0.00019021017
-5.3119679e-05
-0.00019679367
-5.5343925e-05
-0.00020421995
-5.7220019e-05
-0.00021260241
-5.8679613e-05
-0.00022207848
-5.9639483e-05
-0.00023281517
-5.9997395e-05
-0.00024501643
-5.9627365e-05
-0.00025893589
-5.8372523e-05
-0.00027488842
-5.6036332e-05
-0.00029327214
-5.2370018e-05
-0.00031459492
-4.7055763e-05
-0.00033951433
-3.9682594e-05
-0.00036889415
-2.9712463e-05
-0.00040388971
-1.6430193e-05
-0.00044607546
-0.00049764601
1.130959e-06
1.7573789e-05
-0.00051540452
3.0876685e-05
-0.00045941299
4.086474e-05
-0.0004138889
4.825082e-05
-0.00037628631
5.3573501e-05
-0.00034484137
5.7244339e-05
-0.00031826938
5.9581995e-05
-0.00029561286
6.0835691e-05
-0.00027614485
6.1202581e-05
-0.00025930513
6.0839767e-05
-0.00024465575
5.9873673e-05
-0.00023185093
5.8406653e-05
-0.00022061316
5.6522249e-05
-0.00021071948
5.428886e-05
-0.00020198792
5.1763108e-05
-0.0001942691
4.899179e-05
-0.00018743994
4.6014074e-05
-0.00018139808
4.2862645e-05
-0.0001760581
3.9565154e-05
-0.00017134866
3.6144914e-05
-0.00016720977
3.2621855e-05
-0.00016359116
2.9013003e-05
-0.00016045056
2.5333101e-05
-0.00015775271
2.1594963e-05
-0.00015546826
1.7809885e-05
-0.00015357308
1.3987953e-05
-0.00015204762
1.013827e-05
-0.0001508765
6.2692829e-06
-0.00015004806
2.3888747e-06
-0.0001495542
-1.4952661e-06
-0.00014939009
-5.3756641e-06
-0.00014955416
-9.2446103e-06
-0.00015004798
-1.3094271e-05
-0.00015087637
-1.6916123e-05
-0.00015204745
-2.070116e-05
-0.00015357286
-2.4439177e-05
-0.00015546799
-2.8119021e-05
-0.00015775239
-3.1727708e-05
-0.00016045018
-3.5250679e-05
-0.00016359073
-3.8670706e-05
-0.00016720927
-4.1968081e-05
-0.0001713481
-4.511924e-05
-0.00017605746
-4.8096799e-05
-0.00018139737
-5.0867786e-05
-0.00018743913
-5.3393337e-05
-0.0001942682
-5.5626326e-05
-0.00020198691
-5.7510466e-05
-0.00021071836
-5.8977002e-05
-0.00022061188
-5.994276e-05
-0.0002318495
-6.0304989e-05
-0.00024465414
-5.9937659e-05
-0.00025930331
-5.8683237e-05
-0.00027614277
-5.634497e-05
-0.0002956105
-5.267319e-05
-0.00031826662
-4.7349548e-05
-0.00034483806
-3.9961774e-05
-0.00037628185
-2.9970745e-05
-0.00041388083
-1.6659198e-05
-0.00045938693
-0.00051524708
9.4179816e-07
1.7611673e-05
-0.00053301626
3.0943532e-05
-0.00047274487
4.0952079e-05
-0.00042389754
4.8352422e-05
-0.00038368666
5.3684244e-05
-0.00035017327
5.7360492e-05
-0.00032194562
5.9700294e-05
-0.00029795274
6.0953772e-05
-0.00027739831
6.1318242e-05
-0.00025966968
6.0951489e-05
-0.00024428897
5.9979918e-05
-0.00023087943
5.850644e-05
-0.00021913965
5.6614483e-05
-0.0002088276
5.4372907e-05
-0.00019974631
5.1838161e-05
-0.00019173443
4.9057448e-05
-0.00018465919
4.6069733e-05
-0.00017841044
4.2908063e-05
-0.00017289639
3.9599865e-05
-0.00016804054
3.6168786e-05
-0.00016377865
3.2634528e-05
-0.00016005698
2.9014417e-05
-0.0001568304
2.5322967e-05
-0.00015406134
2.1573281e-05
-0.00015171853
1.7776422e-05
-0.00014977631
1.3942747e-05
-0.0001482139
1.0081132e-05
-0.00014701497
6.2002817e-06
-0.00014616716
2.3078518e-06
-0.00014566187
-1.5882066e-06
-0.00014549398
-5.4806276e-06
-0.00014566183
-9.3614423e-06
-0.0001461671
-1.3223031e-05
-0.00014701488
-1.7056633e-05
-0.00014821378
-2.0853438e-05
-0.00014977615
-2.4603013e-05
-0.00015171834
-2.8294386e-05
-0.00015406113
-3.1914346e-05
-0.00015683014
-3.5448496e-05
-0.00016005668
-3.8879382e-05
-0.0001637783
-4.2187439e-05
-0.00016804015
-4.5348868e-05
-0.00017289595
-4.8336402e-05
-0.00017840995
-5.1116821e-05
-0.00018465863
-5.365134e-05
-0.0001917338
-5.5892558e-05
-0.0001997456
-5.7784224e-05
-0.00020882681
-5.9257263e-05
-0.00021913875
-6.0228455e-05
-0.00023087843
-6.0594666e-05
-0.00024428783
-6.02297e-05
-0.0002596684
-5.8975538e-05
-0.00027739683
-5.6635071e-05
-0.00029795108
-5.2957931e-05
-0.00032194366
-4.7625118e-05
-0.00035017098
-4.0223269e-05
-0.00038368359
-3.0212083e-05
-0.00042389213
-1.6872479e-05
-0.00047272644
-0.00053288639
7.6672824e-07
1.7651757e-05
-0.00055066803
3.1014287e-05
-0.00048610741
4.1044585e-05
-0.00043392786
4.845982e-05
-0.0003911019
5.3801425e-05
-0.0003555149
5.7483234e-05
-0.00032562744
5.9825411e-05
-0.00030029495
6.107854e-05
-0.00027865145
6.1440579e-05
-0.00026003175
6.106957e-05
-0.00024391796
6.0092382e-05
-0.00022990229
5.8612031e-05
-0.0002176593
5.6712292e-05
-0.00020692791
5.446206e-05
-0.00019749608
5.1918052e-05
-0.00018919047
4.9127463e-05
-0.0001818686
4.6129471e-05
-0.0001754125
4.2957082e-05
-0.000169724
3.9637907e-05
-0.00016472142
3.6195532e-05
-0.00016033627
3.2649818e-05
-0.00015651133
2.901802e-05
-0.0001531986
2.5314798e-05
-0.00015035818
2.155317e-05
-0.00014795689
1.7744342e-05
-0.00014596754
1.3898572e-05
-0.00014436812
1.0024881e-05
-0.00014314134
6.1318633e-06
-0.00014227413
2.2273302e-06
-0.0001417574
-1.680903e-06
-0.00014158573
-5.5854097e-06
-0.00014175739
-9.478373e-06
-0.00014227412
-1.3351988e-05
-0.00014314133
-1.7197649e-05
-0.0001443681
-2.1006345e-05
-0.00014596752
-2.4767806e-05
-0.00014795686
-2.8470837e-05
-0.00015035815
-3.2102405e-05
-0.00015319856
-3.5647862e-05
-0.00015651128
-3.9089937e-05
-0.00016033621
-4.2408781e-05
-0.00016472136
-4.558079e-05
-0.00016972392
-4.8578367e-05
-0.00017541242
-5.1368483e-05
-0.0001818685
-5.3911976e-05
-0.00018919036
-5.6161622e-05
-0.00019749594
-5.8060724e-05
-0.00020692775
-5.9540349e-05
-0.0002176591
-6.0516748e-05
-0.00022990207
-6.0886856e-05
-0.0002439177
-6.0523855e-05
-0.00026003145
-5.9269608e-05
-0.00027865105
-5.692624e-05
-0.00030029451
-5.3242997e-05
-0.00032562687
-4.7899846e-05
-0.00035551421
-4.0482577e-05
-0.00039110081
-3.0449328e-05
-0.00043392546
-1.7079328e-05
-0.00048609638
-0.000550567
6.0118336e-07
1.7704499e-05
-0.00056837254
3.1107645e-05
-0.00049951056
4.1166232e-05
-0.00044398646
4.8600693e-05
-0.00039853637
5.395446e-05
-0.00036086869
5.764295e-05
-0.00032931593
5.9987385e-05
-0.00030263941
6.1239245e-05
-0.00027990331
6.159719e-05
-0.00026038972
6.1219782e-05
-0.00024354056
6.0234314e-05
-0.00022891685
5.8744155e-05
-0.00021616914
5.6833361e-05
-0.00020501715
5.4571053e-05
-0.00019523377
5.2014134e-05
-0.00018663359
4.9209956e-05
-0.00017906441
4.619782e-05
-0.00017240041
4.3010847e-05
-0.00016653701
3.9676718e-05
-0.00016138734
3.6219124e-05
-0.00015687865
3.2657954e-05
-0.00015295021
2.9010562e-05
-0.00014955118
2.5291597e-05
-0.00014663929
2.1514192e-05
-0.00014417945
1.7689509e-05
-0.00014214293
1.3827936e-05
-0.00014050651
9.938416e-06
-0.00013925191
6.0297104e-06
-0.00013836537
2.1095124e-06
-0.0001378373
-1.8142329e-06
-0.00013766192
-5.7344188e-06
-0.00013783732
-9.6430627e-06
-0.0001383654
-1.3532558e-05
-0.00013925196
-1.739402e-05
-0.00014050655
-2.1218671e-05
-0.000142143
-2.4995914e-05
-0.00014417952
-2.8714825e-05
-0.00014663938
-3.2362001e-05
-0.00014955127
-3.5923096e-05
-0.00015295034
-3.9380411e-05
-0.00015687878
-4.2714423e-05
-0.0001613875
-4.5901043e-05
-0.00016653718
-4.8913012e-05
-0.00017240061
-5.1716747e-05
-0.00017906463
-5.4273417e-05
-0.00018663385
-5.6535171e-05
-0.00019523404
-5.8445616e-05
-0.00020501748
-5.9935074e-05
-0.0002161695
-6.0920039e-05
-0.00022891729
-6.1296549e-05
-0.00024354103
-6.0937887e-05
-0.0002603903
-5.9684824e-05
-0.00027990395
-5.7339319e-05
-0.00030264021
-5.3649202e-05
-0.00032931681
-4.8293825e-05
-0.0003608698
-4.0856935e-05
-0.00039853751
-3.0795265e-05
-0.00044398735
-1.738485e-05
-0.0004995066
-0.00056830302
3.5094817e-07
1.7719078e-05
-0.00058609163
3.1135703e-05
-0.00051292718
4.120511e-05
-0.00045405589
4.8648207e-05
-0.00040597946
5.4008949e-05
-0.00036622946
5.7702942e-05
-0.00033300992
6.0051665e-05
-0.00030498817
6.1306778e-05
-0.00028115841
6.1667023e-05
-0.00026075002
6.1291153e-05
-0.00024316466
6.0306477e-05
-0.00022793223
5.8816545e-05
-0.00021467918
5.690536e-05
-0.00020310603
5.4642234e-05
-0.0001929706
5.2083974e-05
-0.00018407541
4.9278129e-05
-0.00017625852
4.6263866e-05
-0.00016938624
4.307451e-05
-0.0001633476
3.9737588e-05
-0.00015805052
3.6276989e-05
-0.00015341799
3.2712433e-05
-0.00014938577
2.9061473e-05
-0.00014590014
2.533858e-05
-0.00014291651
2.155707e-05
-0.00014039786
1.7727931e-05
-0.00013831391
1.3861722e-05
-0.00013664021
9.9672102e-06
-0.00013535753
6.0533061e-06
-0.00013445138
2.1275418e-06
-0.00013391166
-1.8018808e-06
-0.0001337324
-5.7276915e-06
-0.00013391164
-9.6416674e-06
-0.00013445133
-1.3536299e-05
-0.00013535745
-1.7402646e-05
-0.00013664011
-2.123198e-05
-0.00013831379
-2.5013701e-05
-0.0001403977
-2.8736875e-05
-0.00014291633
-3.2388131e-05
-0.00014589992
-3.5953065e-05
-0.00014938552
-3.9414058e-05
-0.0001534177
-4.2751475e-05
-0.00015805019
-4.5941345e-05
-0.00016334722
-4.8956244e-05
-0.00016938582
-5.1762754e-05
-0.00017625803
-5.4321826e-05
-0.00018407488
-5.658581e-05
-0.00019296998
-5.8498036e-05
-0.00020310535
-5.9989076e-05
-0.00021467838
-6.0975091e-05
-0.00022793135
-6.1352406e-05
-0.00024316364
-6.099394e-05
-0.00026074887
-5.9740734e-05
-0.00028115708
-5.7394394e-05
-0.00030498666
-5.3702981e-05
-0.00033300813
-4.8345512e-05
-0.00036622741
-4.0905914e-05
-0.000405977
-3.0840592e-05
-0.00045405283
-1.7425741e-05
-0.00051292132
-0.00058604464
3.1568785e-07
1.7763751e-05
3.1205398e-05
4.1292991e-05
4.8749422e-05
5.4120104e-05
5.7821043e-05
6.0174581e-05
6.1432459e-05
6.1794052e-05
6.1418061e-05
6.0432328e-05
5.894025e-05
5.702629e-05
5.4759564e-05
5.2197266e-05
4.9386759e-05
4.636753e-05
4.3172733e-05
3.983014e-05
3.6363519e-05
3.2792763e-05
2.9135347e-05
2.540583e-05
2.1617543e-05
1.7781459e-05
1.3908231e-05
1.0006506e-05
6.0854024e-06
2.1522175e-06
-1.7845012e-06
-5.7177699e-06
-9.6388507e-06
-1.3540736e-05
-1.7413902e-05
-2.125026e-05
-2.5038452e-05
-2.8768322e-05
-3.242562e-05
-3.5996845e-05
-3.9463336e-05
-4.2806486e-05
-4.6001155e-05
-4.9021072e-05
-5.1831474e-05
-5.4394579e-05
-5.6661251e-05
-5.8576183e-05
-6.00683e-05
-6.1055189e-05
-6.1431377e-05
-6.1071203e-05
-5.9813789e-05
-5.7462033e-05
-5.3761962e-05
-4.8393562e-05
-4.0938622e-05
-3.0853961e-05
-1.7413247e-05
3.6118698e-07
-8.3827455e-06
-0.000222836
0.00021690449
1.4314309e-05
-3.2341088e-06
-0.00022352409
0.00021837552
1.2041546e-06
-0.00022424796
0.00021980972
4.9963017e-06
-0.00022499655
0.00022120446
8.1992755e-06
-0.00022576077
0.00022255782
1.0864154e-05
-0.00022653339
0.00022386857
1.3036771e-05
-0.00022730803
0.00022513545
1.4758632e-05
-0.00022807905
0.00022635724
1.6067319e-05
-0.00022884164
0.00022753299
1.6997134e-05
-0.00022959128
0.00022866152
1.7579469e-05
-0.00023032414
0.00022974183
1.7843155e-05
-0.00023103658
0.00023077294
1.7814817e-05
-0.0002317255
0.00023175387
1.7519163e-05
-0.00023238809
0.00023268379
1.6979151e-05
-0.00023302166
0.0002335617
1.6216284e-05
-0.00023362395
0.00023438686
1.5250717e-05
-0.00023419287
0.00023515846
1.4101476e-05
-0.00023472653
0.0002358758
1.2786552e-05
-0.00023522322
0.00023653817
1.1323059e-05
-0.00023568143
0.00023714495
9.7273255e-06
-0.00023609982
0.00023769558
8.0149985e-06
-0.00023647717
0.00023818953
6.2011362e-06
-0.00023681247
0.00023862635
4.3002874e-06
-0.00023710476
0.00023900562
2.3265676e-06
-0.0002373533
0.00023932704
2.9373101e-07
-0.00023755742
0.00023959028
-1.7847613e-06
-0.00023771661
0.00023979511
-3.8956726e-06
-0.00023783047
0.00023994139
-6.0259133e-06
-0.00023789875
0.000240029
-8.1624974e-06
-0.00023792127
0.00024005786
-1.0292472e-05
-0.00023789795
0.00024002793
-1.2402845e-05
-0.00023782885
0.00023993923
-1.4480529e-05
-0.00023771413
0.00023979182
-1.6512275e-05
-0.00023755407
0.00023958582
-1.8484611e-05
-0.00023734907
0.00023932141
-2.0383775e-05
-0.00023709965
0.00023899882
-2.2195651e-05
-0.00023680649
0.00023861838
-2.3905697e-05
-0.00023647033
0.00023818038
-2.5498864e-05
-0.0002360921
0.00023768528
-2.6959522e-05
-0.00023567286
0.00023713352
-2.8271361e-05
-0.0002352138
0.00023652565
-2.9417301e-05
-0.00023471628
0.00023586222
-3.0379371e-05
-0.0002341818
0.00023514388
-3.1138593e-05
-0.00023361211
0.00023437134
-3.1674827e-05
-0.00023300908
0.00023354532
-3.1966659e-05
-0.00023237486
0.0002326667
-3.1991155e-05
-0.00023171174
0.00023173624
-3.172373e-05
-0.00023102251
0.00023075509
-3.1137842e-05
-0.00023031008
0.0002297242
-3.0204833e-05
-0.00022957788
0.00022864487
-2.8893552e-05
-0.00022882988
0.0002275186
-2.7170096e-05
-0.0002280707
0.00022634725
-2.4997445e-05
-0.00022730631
0.00022513366
-2.2335077e-05
-0.00022654427
0.00022388192
-1.9138776e-05
-0.00022579601
0.00022259971
-1.5360314e-05
-0.00022508084
0.00022130241
-1.0947891e-05
-0.00022443766
0.00022002526
-5.8468395e-06
-0.00022396564
0.00021886462
-0.00022399714
0.0002181503
-7.1152933e-06
-0.00022922139
1.3500674e-05
-1.5758354e-06
-0.00022906352
3.1953878e-06
-0.00022901919
7.2675062e-06
-0.00022906863
1.0702025e-05
-0.00022919528
1.3554181e-05
-0.00022938552
1.5873556e-05
-0.0002296274
1.770504e-05
-0.00022991051
1.9089279e-05
-0.00023022587
2.0063377e-05
-0.00023056535
2.066127e-05
-0.00023092202
2.0914131e-05
-0.00023128942
2.0850739e-05
-0.0002316621
2.0497797e-05
-0.00023203513
1.9880106e-05
-0.00023240396
1.9020897e-05
-0.00023276473
1.7941939e-05
-0.0002331139
1.6663774e-05
-0.00023344836
1.5205833e-05
-0.00023376527
1.3586601e-05
-0.00023406219
1.1823715e-05
-0.00023433693
9.9340961e-06
-0.00023458755
7.9340339e-06
-0.00023481241
5.8392907e-06
-0.00023501001
3.6651745e-06
-0.00023517918
1.4266269e-06
-0.00023531887
-8.6171653e-07
-0.00023542826
-3.1854712e-06
-0.00023550671
-5.5303972e-06
-0.00023555382
-7.8823339e-06
-0.00023556933
-1.0227149e-05
-0.00023555313
-1.2550682e-05
-0.00023550531
-1.4838679e-05
-0.00023542613
-1.7076722e-05
-0.00023531602
-1.9250169e-05
-0.00023517562
-2.134408e-05
-0.00023500574
-2.3343149e-05
-0.00023480742
-2.5231615e-05
-0.00023458186
-2.6993192e-05
-0.00023433052
-2.8610964e-05
-0.00023405509
-3.0067297e-05
-0.00023375747
-3.1343713e-05
-0.00023343986
-3.2420784e-05
-0.00023310473
-3.3277987e-05
-0.0002327549
-3.389354e-05
-0.00023239352
-3.4244253e-05
-0.00023202414
-3.4305325e-05
-0.00023165067
-3.4050101e-05
-0.00023127773
-3.3449806e-05
-0.00023091038
-3.2473391e-05
-0.00023055429
-3.1086973e-05
-0.00023021629
-2.9253647e-05
-0.00022990403
-2.6933002e-05
-0.00022962695
-2.4080718e-05
-0.00022939656
-2.0648022e-05
-0.0002292287
-1.6581557e-05
-0.00022914733
-1.1823371e-05
-0.00022919586
-6.31342e-06
-0.00022947561
-0.00023031056
-5.7354152e-06
-0.00023609756
1.2611581e-05
2.2526963e-07
-0.00023502416
5.3546582e-06
-0.00023414859
9.7275386e-06
-0.00023344148
1.341051e-05
-0.00023287827
1.6463328e-05
-0.00023243831
1.8939618e-05
-0.0002321037
2.0887948e-05
-0.00023185881
2.2352276e-05
-0.0002316902
2.3372748e-05
-0.00023158581
2.3986075e-05
-0.00023153535
2.422598e-05
-0.00023152931
2.4123599e-05
-0.00023155972
2.3707823e-05
-0.00023161935
2.3005492e-05
-0.00023170162
2.2041735e-05
-0.00023180097
2.0840112e-05
-0.00023191228
1.9422853e-05
-0.0002320311
1.7810988e-05
-0.00023215341
1.6024518e-05
-0.00023227572
1.4082532e-05
-0.00023239494
1.2003341e-05
-0.00023250836
9.8045776e-06
-0.00023261364
7.5032947e-06
-0.00023270873