/*--------------------------------*- C++ -*----------------------------------*\
| =========                 |                                                 |
| \\      /  F ield         | OpenFOAM: The Open Source CFD Toolbox           |
|  \\    /   O peration     | Version:  v2006                                 |
|   \\  /    A nd           | Website:  www.openfoam.com                      |
|    \\/     M anipulation  |                                                 |
\*---------------------------------------------------------------------------*/
FoamFile
{
    version     2.0;
    format      ascii;
    class       volScalarField;
    location    "5000";
    object      pMean;
}
// * * * * * * * * * * * * * * * * * * * * * * * * * * * * * * * * * * * * * //

dimensions      [1 -1 -2 0 0 0 0];


internalField   nonuniform List<scalar> 
55713
(
1.0000398
1.0000398
1.0000398
1.0000398
1.0000398
1.0000398
1.0000398
1.0000398
1.0000398
1.0000398
1.0000398
1.0000398
1.0000398
1.0000398
1.0000398
1.0000398
1.0000398
1.0000398
1.0000398
1.0000398
1.0000398
1.0000398
1.0000398
1.0000398
1.0000398
1.0000398
1.0000398
1.0000398
1.0000398
1.0000398
1.0000398
1.0000398
1.0000398
1.0000398
1.0000398
1.0000398
1.0000398
1.0000398
1.0000398
1.0000398
1.0000398
1.0000398
1.0000398
1.0000398
1.0000398
1.0000398
1.0000398
1.0000398
1.0000398
1.0000398
1.0000398
1.0000398
1.0000398
1.0000398
1.0000398
1.0000398
1.0000398
1.0000398
1.0000398
1.0000374
1.0000374
1.0000374
1.0000374
1.0000374
1.0000374
1.0000374
1.0000374
1.0000374
1.0000374
1.0000374
1.0000374
1.0000374
1.0000374
1.0000374
1.0000374
1.0000374
1.0000374
1.0000374
1.0000374
1.0000374
1.0000374
1.0000374
1.0000374
1.0000374
1.0000374
1.0000374
1.0000374
1.0000374
1.0000374
1.0000374
1.0000374
1.0000374
1.0000374
1.0000374
1.0000374
1.0000374
1.0000374
1.0000374
1.0000374
1.0000374
1.0000374
1.0000374
1.0000374
1.0000374
1.0000374
1.0000374
1.0000374
1.0000374
1.0000374
1.0000374
1.0000374
1.0000374
1.0000374
1.0000374
1.0000374
1.0000374
1.0000374
1.0000374
1.0000354
1.0000354
1.0000354
1.0000354
1.0000354
1.0000354
1.0000354
1.0000354
1.0000354
1.0000354
1.0000354
1.0000354
1.0000354
1.0000354
1.0000354
1.0000354
1.0000354
1.0000354
1.0000354
1.0000354
1.0000354
1.0000354
1.0000354
1.0000354
1.0000354
1.0000354
1.0000354
1.0000354
1.0000354
1.0000354
1.0000354
1.0000354
1.0000354
1.0000354
1.0000354
1.0000354
1.0000354
1.0000354
1.0000354
1.0000354
1.0000354
1.0000354
1.0000354
1.0000354
1.0000354
1.0000354
1.0000354
1.0000354
1.0000354
1.0000354
1.0000354
1.0000354
1.0000354
1.0000354
1.0000355
1.0000355
1.0000355
1.0000355
1.0000355
1.0000336
1.0000336
1.0000336
1.0000336
1.0000336
1.0000336
1.0000336
1.0000336
1.0000336
1.0000336
1.0000336
1.0000336
1.0000336
1.0000336
1.0000336
1.0000336
1.0000336
1.0000337
1.0000337
1.0000337
1.0000337
1.0000337
1.0000337
1.0000337
1.0000337
1.0000337
1.0000337
1.0000337
1.0000337
1.0000337
1.0000337
1.0000337
1.0000337
1.0000337
1.0000337
1.0000337
1.0000337
1.0000337
1.0000337
1.0000337
1.0000337
1.0000337
1.0000337
1.0000337
1.0000337
1.0000337
1.0000337
1.0000337
1.0000337
1.0000337
1.0000337
1.0000337
1.0000337
1.0000337
1.0000337
1.0000337
1.0000337
1.0000337
1.0000337
1.0000321
1.0000321
1.0000321
1.0000321
1.0000321
1.0000321
1.0000321
1.0000321
1.0000321
1.0000321
1.0000321
1.0000321
1.0000321
1.0000321
1.0000321
1.0000321
1.0000321
1.0000321
1.0000321
1.0000321
1.0000321
1.0000321
1.0000321
1.0000321
1.0000321
1.0000321
1.0000321
1.0000321
1.0000321
1.0000321
1.0000322
1.0000322
1.0000322
1.0000322
1.0000322
1.0000322
1.0000322
1.0000322
1.0000322
1.0000322
1.0000322
1.0000322
1.0000322
1.0000322
1.0000322
1.0000322
1.0000322
1.0000322
1.0000322
1.0000322
1.0000322
1.0000322
1.0000322
1.0000322
1.0000322
1.0000322
1.0000322
1.0000322
1.0000322
1.0000308
1.0000308
1.0000308
1.0000308
1.0000308
1.0000308
1.0000308
1.0000308
1.0000308
1.0000308
1.0000308
1.0000308
1.0000308
1.0000308
1.0000308
1.0000308
1.0000308
1.0000308
1.0000308
1.0000308
1.0000308
1.0000308
1.0000308
1.0000308
1.0000308
1.0000308
1.0000308
1.0000308
1.0000308
1.0000308
1.0000308
1.0000308
1.0000308
1.0000308
1.0000308
1.0000308
1.0000308
1.0000308
1.0000308
1.0000308
1.0000309
1.0000309
1.0000309
1.0000309
1.0000309
1.0000309
1.0000309
1.0000309
1.0000309
1.0000309
1.0000309
1.0000309
1.0000309
1.0000309
1.0000309
1.0000309
1.0000309
1.0000309
1.0000309
1.0000297
1.0000297
1.0000297
1.0000297
1.0000297
1.0000297
1.0000297
1.0000297
1.0000297
1.0000297
1.0000297
1.0000297
1.0000297
1.0000297
1.0000297
1.0000297
1.0000297
1.0000297
1.0000297
1.0000297
1.0000297
1.0000297
1.0000297
1.0000297
1.0000297
1.0000297
1.0000297
1.0000297
1.0000297
1.0000297
1.0000297
1.0000297
1.0000297
1.0000297
1.0000297
1.0000297
1.0000297
1.0000297
1.0000297
1.0000297
1.0000297
1.0000297
1.0000297
1.0000297
1.0000297
1.0000297
1.0000297
1.0000297
1.0000297
1.0000297
1.0000297
1.0000297
1.0000297
1.0000297
1.0000297
1.0000297
1.0000297
1.0000297
1.0000297
1.0000287
1.0000287
1.0000287
1.0000287
1.0000287
1.0000287
1.0000287
1.0000287
1.0000287
1.0000287
1.0000287
1.0000287
1.0000287
1.0000287
1.0000287
1.0000288
1.0000288
1.0000288
1.0000288
1.0000288
1.0000288
1.0000288
1.0000288
1.0000288
1.0000288
1.0000288
1.0000288
1.0000288
1.0000288
1.0000288
1.0000288
1.0000288
1.0000288
1.0000288
1.0000288
1.0000288
1.0000288
1.0000288
1.0000288
1.0000288
1.0000288
1.0000288
1.0000288
1.0000288
1.0000288
1.0000288
1.0000288
1.0000288
1.0000288
1.0000288
1.0000288
1.0000288
1.0000288
1.0000288
1.0000288
1.0000288
1.0000288
1.0000288
1.0000288
1.000028
1.000028
1.000028
1.000028
1.000028
1.000028
1.000028
1.000028
1.000028
1.000028
1.000028
1.000028
1.000028
1.000028
1.000028
1.000028
1.000028
1.000028
1.000028
1.000028
1.000028
1.000028
1.000028
1.000028
1.000028
1.000028
1.000028
1.000028
1.000028
1.000028
1.000028
1.000028
1.000028
1.000028
1.000028
1.000028
1.000028
1.000028
1.000028
1.000028
1.000028
1.000028
1.000028
1.000028
1.000028
1.000028
1.000028
1.000028
1.000028
1.000028
1.000028
1.000028
1.000028
1.000028
1.000028
1.000028
1.000028
1.000028
1.000028
1.0000273
1.0000273
1.0000273
1.0000273
1.0000273
1.0000273
1.0000273
1.0000273
1.0000273
1.0000273
1.0000273
1.0000273
1.0000273
1.0000273
1.0000273
1.0000273
1.0000273
1.0000273
1.0000273
1.0000273
1.0000273
1.0000273
1.0000273
1.0000274
1.0000274
1.0000274
1.0000274
1.0000274
1.0000274
1.0000274
1.0000274
1.0000274
1.0000274
1.0000274
1.0000274
1.0000274
1.0000274
1.0000274
1.0000274
1.0000274
1.0000274
1.0000274
1.0000274
1.0000274
1.0000274
1.0000274
1.0000274
1.0000274
1.0000274
1.0000274
1.0000274
1.0000274
1.0000274
1.0000274
1.0000274
1.0000274
1.0000274
1.0000274
1.0000274
1.0000264
1.0000264
1.0000264
1.0000264
1.0000264
1.0000264
1.0000264
1.0000264
1.0000264
1.0000264
1.0000264
1.0000264
1.0000264
1.0000264
1.0000264
1.0000264
1.0000264
1.0000264
1.0000264
1.0000264
1.0000264
1.0000264
1.0000264
1.0000264
1.0000264
1.0000264
1.0000264
1.0000264
1.0000264
1.0000264
1.0000264
1.0000264
1.0000264
1.0000264
1.0000264
1.0000264
1.0000264
1.0000264
1.0000264
1.0000264
1.0000264
1.0000264
1.0000264
1.0000264
1.0000264
1.0000264
1.0000264
1.0000264
1.0000264
1.0000264
1.0000264
1.0000264
1.0000264
1.0000264
1.0000264
1.0000264
1.0000264
1.0000264
1.0000264
1.000027
1.000027
1.000027
1.0000269
1.0000269
1.0000269
1.0000269
1.0000269
1.0000269
1.0000269
1.0000269
1.0000269
1.0000269
1.0000269
1.0000269
1.0000269
1.0000269
1.0000269
1.0000269
1.0000269
1.0000269
1.0000269
1.0000269
1.0000269
1.0000269
1.0000269
1.0000269
1.0000269
1.0000269
1.0000269
1.0000269
1.0000269
1.0000269
1.0000269
1.0000269
1.0000269
1.0000269
1.0000269
1.0000269
1.0000269
1.0000269
1.0000269
1.0000269
1.0000269
1.0000269
1.0000269
1.0000269
1.0000269
1.0000269
1.0000269
1.0000269
1.0000269
1.0000269
1.0000268
1.0000268
1.0000268
1.0000268
1.0000268
1.0000268
1.0000308
1.0000308
1.0000308
1.0000308
1.0000308
1.0000308
1.0000308
1.0000309
1.0000309
1.0000309
1.0000309
1.0000309
1.0000309
1.0000309
1.0000309
1.0000309
1.0000309
1.0000309
1.0000309
1.0000309
1.0000309
1.0000309
1.0000309
1.0000309
1.0000309
1.0000309
1.0000309
1.0000309
1.0000309
1.0000309
1.0000309
1.0000309
1.0000309
1.0000309
1.0000309
1.0000309
1.0000309
1.0000309
1.0000309
1.0000309
1.0000309
1.0000309
1.0000309
1.0000309
1.0000309
1.0000309
1.0000309
1.0000309
1.0000309
1.0000309
1.0000309
1.0000309
1.0000309
1.0000309
1.000031
1.000031
1.000031
1.000031
1.000031
1.0000166
1.0000166
1.0000166
1.0000166
1.0000166
1.0000166
1.0000166
1.0000166
1.0000166
1.0000166
1.0000166
1.0000166
1.0000166
1.0000166
1.0000166
1.0000166
1.0000166
1.0000166
1.0000167
1.0000167
1.0000167
1.0000167
1.0000167
1.0000167
1.0000167
1.0000167
1.0000167
1.0000167
1.0000167
1.0000167
1.0000167
1.0000167
1.0000167
1.0000167
1.0000167
1.0000167
1.0000167
1.0000167
1.0000167
1.0000167
1.0000167
1.0000167
1.0000167
1.0000167
1.0000167
1.0000167
1.0000167
1.0000167
1.0000167
1.0000167
1.0000167
1.0000167
1.0000167
1.0000167
1.0000167
1.0000167
1.0000167
1.0000167
1.0000167
1.000139
1.000139
1.000139
1.0001391
1.0001391
1.0001391
1.0001392
1.0001392
1.0001393
1.0001393
1.0001393
1.0001394
1.0001394
1.0001394
1.0001395
1.0001395
1.0001395
1.0001396
1.0001396
1.0001396
1.0001397
1.0001397
1.0001397
1.0001397
1.0001398
1.0001398
1.0001398
1.0001398
1.0001399
1.0001399
1.0001399
1.0001399
1.0001399
1.00014
1.00014
1.00014
1.00014
1.00014
1.00014
1.00014
1.0001401
1.0001401
1.0001401
1.0001401
1.0001401
1.0001401
1.0001401
1.0001401
1.0001401
1.0001401
1.0001401
1.0001401
1.0001401
1.0001401
1.0001402
1.0001402
1.0001402
1.0001402
1.0001402
1.0001275
1.0001276
1.0001276
1.0001276
1.0001277
1.0001277
1.0001277
1.0001278
1.0001278
1.0001278
1.0001278
1.0001279
1.0001279
1.0001279
1.000128
1.000128
1.000128
1.000128
1.0001281
1.0001281
1.0001281
1.0001281
1.0001282
1.0001282
1.0001282
1.0001282
1.0001283
1.0001283
1.0001283
1.0001283
1.0001283
1.0001284
1.0001284
1.0001284
1.0001284
1.0001284
1.0001284
1.0001284
1.0001285
1.0001285
1.0001285
1.0001285
1.0001285
1.0001285
1.0001285
1.0001285
1.0001285
1.0001285
1.0001286
1.0001286
1.0001286
1.0001286
1.0001286
1.0001286
1.0001286
1.0001286
1.0001286
1.0001286
1.0001286
1.0001172
1.0001172
1.0001172
1.0001173
1.0001173
1.0001173
1.0001174
1.0001174
1.0001174
1.0001174
1.0001175
1.0001175
1.0001175
1.0001175
1.0001176
1.0001176
1.0001176
1.0001176
1.0001176
1.0001177
1.0001177
1.0001177
1.0001177
1.0001177
1.0001178
1.0001178
1.0001178
1.0001178
1.0001178
1.0001178
1.0001178
1.0001179
1.0001179
1.0001179
1.0001179
1.0001179
1.0001179
1.0001179
1.0001179
1.000118
1.000118
1.000118
1.000118
1.000118
1.000118
1.000118
1.000118
1.000118
1.000118
1.000118
1.000118
1.000118
1.000118
1.000118
1.000118
1.000118
1.000118
1.000118
1.000118
1.0001074
1.0001074
1.0001074
1.0001075
1.0001075
1.0001075
1.0001075
1.0001075
1.0001076
1.0001076
1.0001076
1.0001076
1.0001077
1.0001077
1.0001077
1.0001077
1.0001077
1.0001077
1.0001078
1.0001078
1.0001078
1.0001078
1.0001078
1.0001078
1.0001078
1.0001079
1.0001079
1.0001079
1.0001079
1.0001079
1.0001079
1.0001079
1.0001079
1.000108
1.000108
1.000108
1.000108
1.000108
1.000108
1.000108
1.000108
1.000108
1.000108
1.000108
1.000108
1.0001081
1.0001081
1.0001081
1.0001081
1.0001081
1.0001081
1.0001081
1.0001081
1.0001081
1.0001081
1.0001081
1.0001081
1.0001081
1.0001081
1.0000983
1.0000983
1.0000983
1.0000984
1.0000984
1.0000984
1.0000984
1.0000984
1.0000984
1.0000985
1.0000985
1.0000985
1.0000985
1.0000985
1.0000985
1.0000986
1.0000986
1.0000986
1.0000986
1.0000986
1.0000986
1.0000986
1.0000986
1.0000987
1.0000987
1.0000987
1.0000987
1.0000987
1.0000987
1.0000987
1.0000987
1.0000987
1.0000987
1.0000988
1.0000988
1.0000988
1.0000988
1.0000988
1.0000988
1.0000988
1.0000988
1.0000988
1.0000988
1.0000988
1.0000988
1.0000988
1.0000988
1.0000988
1.0000988
1.0000988
1.0000988
1.0000989
1.0000989
1.0000989
1.0000989
1.0000989
1.0000989
1.0000989
1.0000989
1.0000898
1.0000898
1.0000898
1.0000899
1.0000899
1.0000899
1.0000899
1.0000899
1.0000899
1.0000899
1.00009
1.00009
1.00009
1.00009
1.00009
1.00009
1.00009
1.00009
1.0000901
1.0000901
1.0000901
1.0000901
1.0000901
1.0000901
1.0000901
1.0000901
1.0000901
1.0000901
1.0000901
1.0000902
1.0000902
1.0000902
1.0000902
1.0000902
1.0000902
1.0000902
1.0000902
1.0000902
1.0000902
1.0000902
1.0000902
1.0000902
1.0000902
1.0000902
1.0000902
1.0000902
1.0000903
1.0000903
1.0000903
1.0000903
1.0000903
1.0000903
1.0000903
1.0000903
1.0000903
1.0000903
1.0000903
1.0000903
1.0000903
1.000082
1.000082
1.000082
1.000082
1.000082
1.000082
1.000082
1.000082
1.0000821
1.0000821
1.0000821
1.0000821
1.0000821
1.0000821
1.0000821
1.0000821
1.0000821
1.0000821
1.0000822
1.0000822
1.0000822
1.0000822
1.0000822
1.0000822
1.0000822
1.0000822
1.0000822
1.0000822
1.0000822
1.0000822
1.0000822
1.0000822
1.0000822
1.0000823
1.0000823
1.0000823
1.0000823
1.0000823
1.0000823
1.0000823
1.0000823
1.0000823
1.0000823
1.0000823
1.0000823
1.0000823
1.0000823
1.0000823
1.0000823
1.0000823
1.0000823
1.0000823
1.0000823
1.0000823
1.0000823
1.0000823
1.0000823
1.0000823
1.0000823
1.0000747
1.0000747
1.0000747
1.0000747
1.0000747
1.0000747
1.0000748
1.0000748
1.0000748
1.0000748
1.0000748
1.0000748
1.0000748
1.0000748
1.0000748
1.0000748
1.0000748
1.0000748
1.0000748
1.0000749
1.0000749
1.0000749
1.0000749
1.0000749
1.0000749
1.0000749
1.0000749
1.0000749
1.0000749
1.0000749
1.0000749
1.0000749
1.0000749
1.0000749
1.0000749
1.0000749
1.0000749
1.0000749
1.0000749
1.000075
1.000075
1.000075
1.000075
1.000075
1.000075
1.000075
1.000075
1.000075
1.000075
1.000075
1.000075
1.000075
1.000075
1.000075
1.000075
1.000075
1.000075
1.000075
1.000075
1.000068
1.000068
1.000068
1.000068
1.000068
1.000068
1.000068
1.0000681
1.0000681
1.0000681
1.0000681
1.0000681
1.0000681
1.0000681
1.0000681
1.0000681
1.0000681
1.0000681
1.0000681
1.0000681
1.0000681
1.0000681
1.0000681
1.0000681
1.0000681
1.0000682
1.0000682
1.0000682
1.0000682
1.0000682
1.0000682
1.0000682
1.0000682
1.0000682
1.0000682
1.0000682
1.0000682
1.0000682
1.0000682
1.0000682
1.0000682
1.0000682
1.0000682
1.0000682
1.0000682
1.0000682
1.0000682
1.0000682
1.0000682
1.0000682
1.0000682
1.0000682
1.0000682
1.0000682
1.0000682
1.0000682
1.0000682
1.0000682
1.0000682
1.0000618
1.0000618
1.0000619
1.0000619
1.0000619
1.0000619
1.0000619
1.0000619
1.0000619
1.0000619
1.0000619
1.0000619
1.0000619
1.0000619
1.0000619
1.0000619
1.0000619
1.0000619
1.0000619
1.0000619
1.000062
1.000062
1.000062
1.000062
1.000062
1.000062
1.000062
1.000062
1.000062
1.000062
1.000062
1.000062
1.000062
1.000062
1.000062
1.000062
1.000062
1.000062
1.000062
1.000062
1.000062
1.000062
1.000062
1.000062
1.000062
1.000062
1.000062
1.000062
1.000062
1.000062
1.000062
1.000062
1.000062
1.000062
1.000062
1.000062
1.000062
1.000062
1.000062
1.0000562
1.0000562
1.0000562
1.0000562
1.0000562
1.0000562
1.0000563
1.0000563
1.0000563
1.0000563
1.0000563
1.0000563
1.0000563
1.0000563
1.0000563
1.0000563
1.0000563
1.0000563
1.0000563
1.0000563
1.0000563
1.0000563
1.0000563
1.0000563
1.0000563
1.0000563
1.0000563
1.0000563
1.0000563
1.0000563
1.0000563
1.0000563
1.0000563
1.0000563
1.0000563
1.0000563
1.0000563
1.0000563
1.0000563
1.0000563
1.0000564
1.0000564
1.0000564
1.0000564
1.0000564
1.0000564
1.0000564
1.0000564
1.0000564
1.0000564
1.0000564
1.0000564
1.0000564
1.0000564
1.0000564
1.0000564
1.0000564
1.0000564
1.0000564
1.0000511
1.0000511
1.0000511
1.0000511
1.0000511
1.0000511
1.0000511
1.0000511
1.0000511
1.0000511
1.0000511
1.0000511
1.0000511
1.0000511
1.0000511
1.0000511
1.0000511
1.0000511
1.0000511
1.0000511
1.0000511
1.0000511
1.0000511
1.0000511
1.0000511
1.0000511
1.0000511
1.0000511
1.0000511
1.0000511
1.0000511
1.0000511
1.0000512
1.0000512
1.0000512
1.0000512
1.0000512
1.0000512
1.0000512
1.0000512
1.0000512
1.0000512
1.0000512
1.0000512
1.0000512
1.0000512
1.0000512
1.0000512
1.0000512
1.0000512
1.0000512
1.0000512
1.0000512
1.0000512
1.0000512
1.0000512
1.0000512
1.0000512
1.0000512
1.0000463
1.0000463
1.0000463
1.0000463
1.0000463
1.0000463
1.0000463
1.0000463
1.0000463
1.0000463
1.0000463
1.0000463
1.0000463
1.0000463
1.0000463
1.0000463
1.0000464
1.0000464
1.0000464
1.0000464
1.0000464
1.0000464
1.0000464
1.0000464
1.0000464
1.0000464
1.0000464
1.0000464
1.0000464
1.0000464
1.0000464
1.0000464
1.0000464
1.0000464
1.0000464
1.0000464
1.0000464
1.0000464
1.0000464
1.0000464
1.0000464
1.0000464
1.0000464
1.0000464
1.0000464
1.0000464
1.0000464
1.0000464
1.0000464
1.0000464
1.0000464
1.0000464
1.0000464
1.0000464
1.0000464
1.0000464
1.0000464
1.0000464
1.0000464
1.0000426
1.0000426
1.0000426
1.0000426
1.0000426
1.0000426
1.0000426
1.0000426
1.0000426
1.0000426
1.0000426
1.0000426
1.0000426
1.0000426
1.0000426
1.0000426
1.0000426
1.0000426
1.0000426
1.0000426
1.0000426
1.0000426
1.0000426
1.0000426
1.0000426
1.0000426
1.0000426
1.0000426
1.0000426
1.0000426
1.0000426
1.0000426
1.0000426
1.0000426
1.0000426
1.0000426
1.0000426
1.0000426
1.0000426
1.0000426
1.0000426
1.0000426
1.0000426
1.0000426
1.0000426
1.0000426
1.0000426
1.0000426
1.0000426
1.0000426
1.0000426
1.0000426
1.0000426
1.0000426
1.0000426
1.0000426
1.0000426
1.0000426
1.0000426
1.0001528
1.0001681
1.0001868
1.0002069
1.0002289
1.0002528
1.0002789
1.0003072
1.0003378
1.0003709
1.0004064
1.0004445
1.0004852
1.0005284
1.000574
1.0006219
1.0006719
1.0007235
1.0007764
1.0008299
1.0008834
1.0009359
1.0009864
1.001034
1.0010774
1.0011153
1.0011466
1.0011702
1.0011848
1.0011899
1.0011846
1.0011688
1.0011425
1.0011059
1.0010596
1.0010043
1.0009412
1.0008713
1.0007958
1.0007159
1.0006327
1.0005475
1.0004611
1.0003745
1.0002885
1.0002038
1.0001209
1.0000403
0.99996229
0.99988717
0.99981514
0.99974633
0.99968081
0.99961859
0.99955967
0.999504
0.9994515
0.99940208
0.99935565
0.99931207
0.99927123
0.999233
0.99919725
0.99916384
0.99913265
0.99910356
0.99907644
0.99905116
0.99902763
0.99900572
0.99898535
0.9989664
0.99894883
0.99893248
1.0001528
1.0001681
1.0001868
1.0002069
1.0002289
1.0002528
1.0002789
1.0003072
1.0003378
1.0003709
1.0004064
1.0004445
1.0004852
1.0005284
1.000574
1.0006219
1.0006719
1.0007235
1.0007764
1.0008299
1.0008834
1.0009359
1.0009864
1.001034
1.0010774
1.0011154
1.0011467
1.0011702
1.0011848
1.0011899
1.0011846
1.0011689
1.0011425
1.0011059
1.0010596
1.0010043
1.0009412
1.0008713
1.0007958
1.0007159
1.0006327
1.0005475
1.0004611
1.0003745
1.0002885
1.0002038
1.0001209
1.0000403
0.99996226
0.99988715
0.99981512
0.99974631
0.99968079
0.99961857
0.99955965
0.99950397
0.99945147
0.99940206
0.99935562
0.99931204
0.9992712
0.99923297
0.99919722
0.99916382
0.99913263
0.99910354
0.99907642
0.99905114
0.99902761
0.9990057
0.99898532
0.99896636
0.99894877
0.99893232
1.0001528
1.0001681
1.0001868
1.0002069
1.0002289
1.0002528
1.0002789
1.0003072
1.0003378
1.0003709
1.0004064
1.0004445
1.0004852
1.0005284
1.000574
1.0006219
1.0006719
1.0007235
1.0007764
1.0008299
1.0008834
1.0009359
1.0009864
1.001034
1.0010774
1.0011154
1.0011467
1.0011702
1.0011849
1.0011899
1.0011847
1.0011689
1.0011425
1.0011059
1.0010596
1.0010044
1.0009412
1.0008713
1.0007958
1.0007159
1.0006328
1.0005475
1.0004611
1.0003745
1.0002885
1.0002038
1.0001209
1.0000403
0.99996225
0.99988713
0.99981511
0.9997463
0.99968078
0.99961856
0.99955964
0.99950397
0.99945147
0.99940206
0.99935562
0.99931205
0.99927121
0.99923298
0.99919723
0.99916383
0.99913265
0.99910356
0.99907644
0.99905117
0.99902764
0.99900573
0.99898535
0.99896638
0.99894878
0.99893229
1.0001528
1.0001681
1.0001868
1.0002069
1.0002289
1.0002528
1.0002789
1.0003072
1.0003378
1.0003709
1.0004064
1.0004445
1.0004852
1.0005284
1.000574
1.0006219
1.0006719
1.0007235
1.0007764
1.0008299
1.0008834
1.0009359
1.0009864
1.001034
1.0010774
1.0011154
1.0011467
1.0011702
1.0011849
1.0011899
1.0011847
1.0011689
1.0011426
1.001106
1.0010597
1.0010044
1.0009413
1.0008714
1.0007959
1.000716
1.0006328
1.0005476
1.0004612
1.0003746
1.0002886
1.0002039
1.000121
1.0000403
0.99996232
0.99988721
0.99981518
0.99974637
0.99968084
0.99961862
0.9995597
0.99950402
0.99945152
0.9994021
0.99935565
0.99931207
0.99927123
0.999233
0.99919725
0.99916384
0.99913266
0.99910357
0.99907645
0.99905118
0.99902764
0.99900573
0.99898535
0.99896637
0.99894875
0.99893223
1.0001528
1.0001681
1.0001868
1.0002069
1.0002289
1.0002528
1.0002789
1.0003072
1.0003378
1.0003709
1.0004064
1.0004445
1.0004852
1.0005284
1.000574
1.0006219
1.0006719
1.0007235
1.0007764
1.0008299
1.0008834
1.0009359
1.0009864
1.001034
1.0010774
1.0011154
1.0011467
1.0011702
1.0011849
1.00119
1.0011848
1.001169
1.0011427
1.0011061
1.0010598
1.0010046
1.0009414
1.0008715
1.000796
1.0007161
1.000633
1.0005477
1.0004613
1.0003747
1.0002888
1.000204
1.0001211
1.0000405
0.99996244
0.99988732
0.99981529
0.99974647
0.99968095
0.99961873
0.9995598
0.99950413
0.99945162
0.99940221
0.99935577
0.99931219
0.99927135
0.99923312
0.99919737
0.99916397
0.99913279
0.9991037
0.99907658
0.99905131
0.99902778
0.99900586
0.99898546
0.99896647
0.99894882
0.99893229
1.0001528
1.0001681
1.0001868
1.0002069
1.0002289
1.0002528
1.0002789
1.0003072
1.0003378
1.0003709
1.0004064
1.0004445
1.0004851
1.0005283
1.000574
1.0006219
1.0006719
1.0007235
1.0007764
1.0008299
1.0008833
1.0009359
1.0009864
1.0010341
1.0010774
1.0011154
1.0011467
1.0011703
1.001185
1.0011901
1.0011849
1.0011691
1.0011428
1.0011062
1.0010599
1.0010047
1.0009416
1.0008717
1.0007962
1.0007163
1.0006332
1.0005479
1.0004615
1.000375
1.000289
1.0002042
1.0001213
1.0000407
0.99996265
0.99988753
0.9998155
0.99974668
0.99968115
0.99961892
0.99956
0.99950431
0.99945181
0.99940239
0.99935594
0.99931236
0.99927152
0.99923329
0.99919753
0.99916413
0.99913294
0.99910385
0.99907673
0.99905145
0.99902791
0.99900598
0.99898558
0.99896657
0.99894891
0.99893236
1.0001528
1.0001681
1.0001867
1.0002069
1.0002289
1.0002528
1.0002789
1.0003072
1.0003378
1.0003708
1.0004064
1.0004445
1.0004851
1.0005283
1.000574
1.0006219
1.0006718
1.0007235
1.0007764
1.0008299
1.0008833
1.0009359
1.0009864
1.0010341
1.0010775
1.0011154
1.0011468
1.0011704
1.0011851
1.0011902
1.001185
1.0011693
1.001143
1.0011065
1.0010602
1.001005
1.0009419
1.0008721
1.0007966
1.0007167
1.0006335
1.0005483
1.0004619
1.0003753
1.0002893
1.0002046
1.0001216
1.000041
0.99996297
0.99988784
0.9998158
0.99974698
0.99968144
0.99961921
0.99956028
0.9995046
0.99945209
0.99940267
0.99935622
0.99931264
0.9992718
0.99923357
0.99919782
0.99916441
0.99913323
0.99910414
0.99907701
0.99905174
0.99902819
0.99900626
0.99898584
0.99896683
0.99894915
0.99893258
1.0001528
1.0001681
1.0001867
1.0002069
1.0002288
1.0002528
1.0002789
1.0003072
1.0003378
1.0003708
1.0004064
1.0004445
1.0004851
1.0005283
1.0005739
1.0006219
1.0006718
1.0007235
1.0007763
1.0008299
1.0008833
1.0009358
1.0009864
1.0010341
1.0010775
1.0011155
1.0011469
1.0011705
1.0011852
1.0011904
1.0011852
1.0011696
1.0011433
1.0011068
1.0010606
1.0010054
1.0009424
1.0008725
1.000797
1.0007171
1.000634
1.0005488
1.0004624
1.0003758
1.0002898
1.0002051
1.0001221
1.0000415
0.99996344
0.99988831
0.99981626
0.99974743
0.99968189
0.99961966
0.99956072
0.99950503
0.99945252
0.99940309
0.99935664
0.99931306
0.99927221
0.99923397
0.99919822
0.99916481
0.99913362
0.99910452
0.99907739
0.9990521
0.99902854
0.9990066
0.99898617
0.99896714
0.99894945
0.99893287
1.0001528
1.0001681
1.0001867
1.0002069
1.0002288
1.0002528
1.0002789
1.0003072
1.0003378
1.0003708
1.0004063
1.0004444
1.0004851
1.0005283
1.0005739
1.0006218
1.0006718
1.0007234
1.0007763
1.0008298
1.0008833
1.0009358
1.0009864
1.0010341
1.0010775
1.0011156
1.001147
1.0011706
1.0011854
1.0011906
1.0011855
1.0011699
1.0011437
1.0011072
1.0010611
1.001006
1.000943
1.0008731
1.0007977
1.0007178
1.0006347
1.0005495
1.0004631
1.0003765
1.0002905
1.0002058
1.0001228
1.0000422
0.99996413
0.99988898
0.99981693
0.99974809
0.99968254
0.9996203
0.99956135
0.99950565
0.99945313
0.9994037
0.99935724
0.99931365
0.9992728
0.99923456
0.9991988
0.99916539
0.9991342
0.99910509
0.99907796
0.99905267
0.9990291
0.99900715
0.99898671
0.99896767
0.99894996
0.99893337
1.0001528
1.0001681
1.0001867
1.0002069
1.0002288
1.0002528
1.0002789
1.0003071
1.0003378
1.0003708
1.0004063
1.0004444
1.0004851
1.0005282
1.0005739
1.0006218
1.0006717
1.0007234
1.0007763
1.0008298
1.0008833
1.0009358
1.0009864
1.0010341
1.0010776
1.0011156
1.0011471
1.0011708
1.0011856
1.0011909
1.0011859
1.0011704
1.0011442
1.0011079
1.0010617
1.0010067
1.0009438
1.000874
1.0007986
1.0007188
1.0006357
1.0005504
1.0004641
1.0003775
1.0002915
1.0002068
1.0001238
1.0000431
0.99996509
0.99988993
0.99981786
0.99974901
0.99968344
0.99962119
0.99956223
0.99950652
0.99945398
0.99940454
0.99935807
0.99931447
0.9992736
0.99923535
0.99919958
0.99916616
0.99913495
0.99910584
0.99907869
0.99905338
0.9990298
0.99900784
0.99898738
0.99896833
0.99895062
0.99893401
1.0001527
1.0001681
1.0001867
1.0002069
1.0002288
1.0002528
1.0002788
1.0003071
1.0003377
1.0003708
1.0004063
1.0004444
1.000485
1.0005282
1.0005738
1.0006217
1.0006717
1.0007233
1.0007762
1.0008297
1.0008832
1.0009358
1.0009864
1.0010341
1.0010776
1.0011157
1.0011472
1.001171
1.001186
1.0011913
1.0011864
1.001171
1.001145
1.0011087
1.0010627
1.0010077
1.0009449
1.0008752
1.0007998
1.00072
1.000637
1.0005518
1.0004654
1.0003789
1.0002929
1.0002081
1.0001252
1.0000445
0.99996639
0.99989121
0.99981912
0.99975024
0.99968466
0.99962238
0.9995634
0.99950768
0.99945513
0.99940567
0.99935919
0.99931557
0.9992747
0.99923644
0.99920066
0.99916723
0.99913601
0.99910689
0.99907973
0.99905442
0.99903083
0.99900885
0.99898839
0.99896933
0.9989516
0.99893499
1.0001527
1.0001681
1.0001867
1.0002069
1.0002288
1.0002528
1.0002788
1.0003071
1.0003377
1.0003707
1.0004063
1.0004443
1.000485
1.0005281
1.0005738
1.0006217
1.0006716
1.0007233
1.0007761
1.0008297
1.0008831
1.0009357
1.0009864
1.0010341
1.0010777
1.0011158
1.0011474
1.0011713
1.0011863
1.0011918
1.001187
1.0011718
1.0011459
1.0011098
1.0010639
1.0010091
1.0009463
1.0008767
1.0008015
1.0007217
1.0006388
1.0005536
1.0004673
1.0003807
1.0002947
1.0002099
1.0001269
1.0000462
0.99996815
0.99989295
0.99982084
0.99975194
0.99968633
0.99962404
0.99956504
0.99950929
0.99945672
0.99940724
0.99936074
0.99931711
0.99927622
0.99923794
0.99920214
0.99916869
0.99913746
0.99910831
0.99908114
0.9990558
0.9990322
0.99901021
0.99898973
0.99897066
0.99895292
0.9989363
1.0001527
1.0001681
1.0001867
1.0002068
1.0002288
1.0002527
1.0002788
1.0003071
1.0003377
1.0003707
1.0004062
1.0004443
1.0004849
1.0005281
1.0005737
1.0006216
1.0006715
1.0007232
1.0007761
1.0008296
1.0008831
1.0009357
1.0009863
1.0010341
1.0010777
1.001116
1.0011477
1.0011716
1.0011869
1.0011925
1.0011879
1.0011728
1.0011471
1.0011112
1.0010655
1.0010109
1.0009483
1.0008788
1.0008037
1.000724
1.0006411
1.000556
1.0004697
1.0003831
1.0002971
1.0002124
1.0001294
1.0000486
0.99997052
0.9998953
0.99982315
0.99975422
0.99968858
0.99962625
0.99956722
0.99951144
0.99945884
0.99940933
0.99936281
0.99931915
0.99927823
0.99923993
0.99920411
0.99917064
0.99913939
0.99911023
0.99908304
0.99905769
0.99903407
0.99901207
0.99899157
0.99897248
0.99895473
0.9989381
1.0001527
1.000168
1.0001867
1.0002068
1.0002288
1.0002527
1.0002788
1.000307
1.0003376
1.0003706
1.0004062
1.0004442
1.0004849
1.000528
1.0005736
1.0006215
1.0006714
1.0007231
1.0007759
1.0008295
1.000883
1.0009356
1.0009863
1.0010341
1.0010778
1.0011162
1.001148
1.0011721
1.0011875
1.0011933
1.001189
1.0011741
1.0011487
1.001113
1.0010676
1.0010132
1.0009508
1.0008815
1.0008066
1.0007271
1.0006442
1.0005591
1.0004729
1.0003864
1.0003004
1.0002156
1.0001326
1.0000518
0.99997368
0.99989842
0.99982624
0.99975727
0.99969159
0.99962922
0.99957015
0.99951433
0.9994617
0.99941215
0.9993656
0.9993219
0.99928096
0.99924263
0.99920678
0.99917328
0.999142
0.99911281
0.99908559
0.99906022
0.99903658
0.99901455
0.99899404
0.99897493
0.99895716
0.99894051
1.0001527
1.000168
1.0001867
1.0002068
1.0002287
1.0002527
1.0002787
1.000307
1.0003376
1.0003706
1.0004061
1.0004442
1.0004848
1.0005279
1.0005735
1.0006214
1.0006713
1.0007229
1.0007758
1.0008294
1.0008829
1.0009355
1.0009863
1.0010341
1.0010779
1.0011164
1.0011484
1.0011727
1.0011883
1.0011944
1.0011904
1.0011759
1.0011508
1.0011154
1.0010703
1.0010162
1.0009541
1.0008851
1.0008103
1.000731
1.0006483
1.0005633
1.0004771
1.0003906
1.0003046
1.0002198
1.0001368
1.000056
0.99997785
0.99990255
0.99983032
0.9997613
0.99969556
0.99963314
0.99957402
0.99951815
0.99946546
0.99941587
0.99936926
0.99932553
0.99928454
0.99924617
0.99921028
0.99917674
0.99914543
0.99911621
0.99908896
0.99906356
0.99903988
0.99901783
0.99899729
0.99897816
0.99896036
0.9989437
1.0001527
1.000168
1.0001866
1.0002068
1.0002287
1.0002526
1.0002787
1.000307
1.0003375
1.0003705
1.000406
1.0004441
1.0004847
1.0005278
1.0005734
1.0006213
1.0006712
1.0007228
1.0007757
1.0008292
1.0008827
1.0009354
1.0009862
1.0010342
1.0010781
1.0011167
1.0011489
1.0011734
1.0011894
1.0011958
1.0011922
1.0011781
1.0011534
1.0011185
1.0010738
1.0010202
1.0009584
1.0008897
1.0008152
1.0007361
1.0006535
1.0005687
1.0004826
1.0003962
1.0003102
1.0002254
1.0001424
1.0000615
0.99998331
0.99990795
0.99983566
0.99976657
0.99970077
0.99963828
0.99957909
0.99952316
0.99947041
0.99942076
0.99937409
0.9993303
0.99928926
0.99925083
0.99921489
0.99918131
0.99914995
0.99912069
0.9990934
0.99906796
0.99904425
0.99902216
0.99900159
0.99898243
0.99896461
0.99894792
1.0001527
1.000168
1.0001866
1.0002068
1.0002287
1.0002526
1.0002787
1.0003069
1.0003375
1.0003705
1.000406
1.000444
1.0004846
1.0005277
1.0005732
1.0006211
1.000671
1.0007226
1.0007755
1.000829
1.0008825
1.0009352
1.0009861
1.0010342
1.0010782
1.0011171
1.0011495
1.0011744
1.0011907
1.0011976
1.0011944
1.0011808
1.0011568
1.0011224
1.0010783
1.0010252
1.0009639
1.0008956
1.0008214
1.0007426
1.0006603
1.0005756
1.0004897
1.0004033
1.0003174
1.0002326
1.0001495
1.0000687
0.99999039
0.99991496
0.99984259
0.99977342
0.99970754
0.99964496
0.99958569
0.99952967
0.99947683
0.9994271
0.99938036
0.99933649
0.99929537
0.99925688
0.99922088
0.99918723
0.99915581
0.9991265