/*--------------------------------*- C++ -*----------------------------------*\
| =========                 |                                                 |
| \\      /  F ield         | OpenFOAM: The Open Source CFD Toolbox           |
|  \\    /   O peration     | Version:  v2006                                 |
|   \\  /    A nd           | Website:  www.openfoam.com                      |
|    \\/     M anipulation  |                                                 |
\*---------------------------------------------------------------------------*/
FoamFile
{
    version     2.0;
    format      ascii;
    class       volScalarField;
    location    "5000";
    object      rho;
}
// * * * * * * * * * * * * * * * * * * * * * * * * * * * * * * * * * * * * * //

dimensions      [1 -3 0 0 0 0 0];


internalField   nonuniform List<scalar> 
55713
(
1.000025
1.0000234
1.0000228
1.0000225
1.0000224
1.0000223
1.0000223
1.0000222
1.0000222
1.0000222
1.0000222
1.0000222
1.0000222
1.0000222
1.0000222
1.0000222
1.0000222
1.0000221
1.0000221
1.0000221
1.0000221
1.0000221
1.0000221
1.0000221
1.0000221
1.0000221
1.0000221
1.0000221
1.0000221
1.0000221
1.0000221
1.0000221
1.0000221
1.0000221
1.0000221
1.0000221
1.0000221
1.0000221
1.0000221
1.0000221
1.0000221
1.0000221
1.0000221
1.0000222
1.0000222
1.0000222
1.0000222
1.0000222
1.0000222
1.0000222
1.0000222
1.0000222
1.0000222
1.0000222
1.0000222
1.0000223
1.0000223
1.0000223
1.0000223
1.000023
1.0000216
1.0000211
1.0000208
1.0000207
1.0000207
1.0000206
1.0000206
1.0000206
1.0000206
1.0000206
1.0000206
1.0000206
1.0000206
1.0000206
1.0000206
1.0000206
1.0000206
1.0000206
1.0000205
1.0000205
1.0000205
1.0000205
1.0000205
1.0000205
1.0000205
1.0000205
1.0000205
1.0000205
1.0000205
1.0000205
1.0000205
1.0000205
1.0000205
1.0000205
1.0000205
1.0000205
1.0000205
1.0000205
1.0000206
1.0000206
1.0000206
1.0000206
1.0000206
1.0000206
1.0000206
1.0000206
1.0000206
1.0000206
1.0000206
1.0000206
1.0000206
1.0000206
1.0000206
1.0000207
1.0000207
1.0000207
1.0000207
1.0000207
1.0000215
1.0000202
1.0000197
1.0000195
1.0000194
1.0000194
1.0000194
1.0000193
1.0000193
1.0000193
1.0000193
1.0000193
1.0000193
1.0000193
1.0000193
1.0000193
1.0000193
1.0000193
1.0000193
1.0000193
1.0000193
1.0000193
1.0000193
1.0000193
1.0000193
1.0000193
1.0000193
1.0000193
1.0000193
1.0000193
1.0000193
1.0000193
1.0000193
1.0000193
1.0000193
1.0000193
1.0000193
1.0000193
1.0000193
1.0000193
1.0000193
1.0000193
1.0000193
1.0000193
1.0000193
1.0000193
1.0000193
1.0000193
1.0000193
1.0000194
1.0000194
1.0000194
1.0000194
1.0000194
1.0000194
1.0000194
1.0000194
1.0000194
1.0000194
1.0000201
1.0000189
1.0000185
1.0000183
1.0000182
1.0000182
1.0000182
1.0000182
1.0000182
1.0000182
1.0000182
1.0000182
1.0000182
1.0000182
1.0000182
1.0000182
1.0000181
1.0000181
1.0000181
1.0000181
1.0000181
1.0000181
1.0000181
1.0000181
1.0000181
1.0000181
1.0000181
1.0000181
1.0000181
1.0000181
1.0000181
1.0000181
1.0000181
1.0000181
1.0000181
1.0000181
1.0000181
1.0000181
1.0000182
1.0000182
1.0000182
1.0000182
1.0000182
1.0000182
1.0000182
1.0000182
1.0000182
1.0000182
1.0000182
1.0000182
1.0000182
1.0000182
1.0000182
1.0000182
1.0000183
1.0000183
1.0000183
1.0000183
1.0000183
1.0000189
1.0000178
1.0000174
1.0000173
1.0000172
1.0000172
1.0000172
1.0000172
1.0000172
1.0000172
1.0000172
1.0000172
1.0000172
1.0000172
1.0000172
1.0000172
1.0000172
1.0000172
1.0000172
1.0000172
1.0000172
1.0000172
1.0000172
1.0000172
1.0000172
1.0000172
1.0000172
1.0000172
1.0000172
1.0000172
1.0000172
1.0000172
1.0000172
1.0000172
1.0000172
1.0000172
1.0000172
1.0000172
1.0000172
1.0000172
1.0000172
1.0000172
1.0000172
1.0000172
1.0000172
1.0000172
1.0000172
1.0000172
1.0000172
1.0000172
1.0000172
1.0000172
1.0000173
1.0000173
1.0000173
1.0000173
1.0000173
1.0000173
1.0000173
1.0000178
1.0000168
1.0000165
1.0000164
1.0000164
1.0000164
1.0000164
1.0000164
1.0000163
1.0000163
1.0000163
1.0000163
1.0000163
1.0000163
1.0000163
1.0000163
1.0000163
1.0000163
1.0000163
1.0000163
1.0000163
1.0000163
1.0000163
1.0000163
1.0000163
1.0000163
1.0000163
1.0000163
1.0000163
1.0000163
1.0000163
1.0000163
1.0000163
1.0000163
1.0000163
1.0000163
1.0000163
1.0000163
1.0000163
1.0000163
1.0000163
1.0000163
1.0000163
1.0000163
1.0000164
1.0000164
1.0000164
1.0000164
1.0000164
1.0000164
1.0000164
1.0000164
1.0000164
1.0000164
1.0000164
1.0000164
1.0000164
1.0000164
1.0000164
1.0000169
1.000016
1.0000158
1.0000157
1.0000156
1.0000156
1.0000156
1.0000156
1.0000156
1.0000156
1.0000156
1.0000156
1.0000156
1.0000156
1.0000156
1.0000156
1.0000156
1.0000156
1.0000156
1.0000156
1.0000156
1.0000156
1.0000156
1.0000156
1.0000156
1.0000156
1.0000156
1.0000156
1.0000156
1.0000156
1.0000156
1.0000156
1.0000156
1.0000156
1.0000156
1.0000156
1.0000156
1.0000156
1.0000156
1.0000156
1.0000156
1.0000156
1.0000156
1.0000156
1.0000156
1.0000156
1.0000156
1.0000156
1.0000156
1.0000156
1.0000157
1.0000157
1.0000157
1.0000157
1.0000157
1.0000157
1.0000157
1.0000157
1.0000157
1.0000161
1.0000153
1.0000151
1.000015
1.000015
1.000015
1.000015
1.000015
1.000015
1.000015
1.000015
1.000015
1.000015
1.000015
1.000015
1.000015
1.000015
1.000015
1.000015
1.000015
1.000015
1.000015
1.000015
1.000015
1.000015
1.000015
1.000015
1.000015
1.000015
1.000015
1.000015
1.000015
1.000015
1.000015
1.000015
1.000015
1.000015
1.000015
1.000015
1.000015
1.000015
1.000015
1.000015
1.000015
1.000015
1.000015
1.000015
1.000015
1.000015
1.000015
1.000015
1.000015
1.000015
1.000015
1.0000151
1.0000151
1.0000151
1.0000151
1.0000151
1.0000155
1.0000148
1.0000146
1.0000146
1.0000145
1.0000145
1.0000145
1.0000145
1.0000145
1.0000145
1.0000145
1.0000145
1.0000145
1.0000145
1.0000145
1.0000145
1.0000145
1.0000145
1.0000145
1.0000145
1.0000145
1.0000145
1.0000145
1.0000145
1.0000145
1.0000145
1.0000145
1.0000145
1.0000145
1.0000145
1.0000145
1.0000145
1.0000145
1.0000145
1.0000145
1.0000145
1.0000145
1.0000145
1.0000145
1.0000145
1.0000145
1.0000145
1.0000145
1.0000145
1.0000145
1.0000145
1.0000145
1.0000145
1.0000145
1.0000145
1.0000145
1.0000145
1.0000145
1.0000146
1.0000146
1.0000146
1.0000146
1.0000146
1.0000146
1.0000149
1.0000143
1.0000141
1.0000141
1.0000141
1.0000141
1.0000141
1.0000141
1.0000141
1.0000141
1.0000141
1.0000141
1.0000141
1.0000141
1.0000141
1.0000141
1.0000141
1.0000141
1.0000141
1.0000141
1.0000141
1.0000141
1.0000141
1.0000141
1.0000141
1.0000141
1.0000141
1.0000141
1.0000141
1.0000141
1.0000141
1.0000141
1.0000141
1.0000141
1.0000141
1.0000141
1.0000141
1.0000141
1.0000141
1.0000141
1.0000141
1.0000141
1.0000141
1.0000141
1.0000141
1.0000141
1.0000141
1.0000141
1.0000141
1.0000141
1.0000141
1.0000141
1.0000141
1.0000141
1.0000141
1.0000141
1.0000141
1.0000141
1.0000141
1.0000141
1.0000136
1.0000135
1.0000135
1.0000135
1.0000135
1.0000135
1.0000135
1.0000135
1.0000135
1.0000135
1.0000135
1.0000135
1.0000135
1.0000135
1.0000135
1.0000135
1.0000135
1.0000135
1.0000135
1.0000135
1.0000135
1.0000135
1.0000134
1.0000134
1.0000134
1.0000134
1.0000134
1.0000134
1.0000134
1.0000134
1.0000134
1.0000134
1.0000134
1.0000134
1.0000134
1.0000134
1.0000135
1.0000135
1.0000135
1.0000135
1.0000135
1.0000135
1.0000135
1.0000135
1.0000135
1.0000135
1.0000135
1.0000135
1.0000135
1.0000135
1.0000135
1.0000135
1.0000135
1.0000135
1.0000135
1.0000135
1.0000135
1.0000135
1.0000144
1.000014
1.0000139
1.0000139
1.0000139
1.0000139
1.0000139
1.0000139
1.0000139
1.0000139
1.0000139
1.0000139
1.0000138
1.0000138
1.0000138
1.0000138
1.0000138
1.0000138
1.0000138
1.0000138
1.0000138
1.0000138
1.0000138
1.0000138
1.0000138
1.0000138
1.0000138
1.0000138
1.0000138
1.0000138
1.0000138
1.0000138
1.0000138
1.0000138
1.0000138
1.0000138
1.0000138
1.0000138
1.0000138
1.0000138
1.0000138
1.0000138
1.0000138
1.0000138
1.0000138
1.0000138
1.0000138
1.0000138
1.0000138
1.0000138
1.0000138
1.0000138
1.0000138
1.0000138
1.0000138
1.0000138
1.0000138
1.0000138
1.0000138
1.0000166
1.0000164
1.0000164
1.0000164
1.0000163
1.0000163
1.0000163
1.0000163
1.0000163
1.0000163
1.0000163
1.0000163
1.0000163
1.0000163
1.0000163
1.0000163
1.0000163
1.0000163
1.0000163
1.0000163
1.0000163
1.0000163
1.0000163
1.0000163
1.0000163
1.0000163
1.0000163
1.0000163
1.0000163
1.0000163
1.0000163
1.0000163
1.0000163
1.0000163
1.0000163
1.0000163
1.0000163
1.0000163
1.0000163
1.0000163
1.0000163
1.0000164
1.0000164
1.0000164
1.0000164
1.0000164
1.0000164
1.0000164
1.0000164
1.0000164
1.0000164
1.0000164
1.0000164
1.0000164
1.0000164
1.0000164
1.0000164
1.0000165
1.0000165
1.0000067
1.0000066
1.0000066
1.0000066
1.0000066
1.0000066
1.0000066
1.0000066
1.0000066
1.0000066
1.0000066
1.0000066
1.0000066
1.0000066
1.0000066
1.0000066
1.0000066
1.0000066
1.0000066
1.0000066
1.0000066
1.0000066
1.0000066
1.0000066
1.0000066
1.0000066
1.0000066
1.0000066
1.0000066
1.0000066
1.0000066
1.0000066
1.0000066
1.0000066
1.0000066
1.0000066
1.0000066
1.0000066
1.0000066
1.0000066
1.0000066
1.0000066
1.0000066
1.0000066
1.0000066
1.0000066
1.0000066
1.0000066
1.0000066
1.0000066
1.0000066
1.0000066
1.0000066
1.0000066
1.0000066
1.0000066
1.0000066
1.0000066
1.0000066
1.0000873
1.0000872
1.0000871
1.0000871
1.000087
1.000087
1.000087
1.000087
1.0000869
1.0000869
1.0000869
1.0000869
1.0000869
1.0000868
1.0000868
1.0000868
1.0000868
1.0000868
1.0000868
1.0000868
1.0000868
1.0000868
1.0000868
1.0000868
1.0000868
1.0000868
1.0000868
1.0000868
1.0000868
1.0000868
1.0000868
1.0000868
1.0000869
1.0000869
1.0000869
1.0000869
1.000087
1.000087
1.000087
1.0000871
1.0000871
1.0000871
1.0000872
1.0000872
1.0000872
1.0000873
1.0000873
1.0000874
1.0000875
1.0000875
1.0000877
1.0000878
1.000088
1.0000884
1.000089
1.00009
1.0000917
1.000095
1.0001005
1.0000796
1.0000795
1.0000794
1.0000794
1.0000794
1.0000793
1.0000793
1.0000793
1.0000793
1.0000792
1.0000792
1.0000792
1.0000792
1.0000792
1.0000792
1.0000791
1.0000791
1.0000791
1.0000791
1.0000791
1.0000791
1.0000791
1.0000791
1.0000791
1.0000791
1.0000791
1.0000791
1.0000791
1.0000791
1.0000791
1.0000791
1.0000791
1.0000792
1.0000792
1.0000792
1.0000792
1.0000793
1.0000793
1.0000793
1.0000793
1.0000794
1.0000794
1.0000795
1.0000795
1.0000795
1.0000796
1.0000796
1.0000797
1.0000797
1.0000798
1.0000799
1.0000801
1.0000803
1.0000806
1.0000811
1.000082
1.0000836
1.0000866
1.0000917
1.0000728
1.0000727
1.0000727
1.0000727
1.0000726
1.0000726
1.0000726
1.0000726
1.0000725
1.0000725
1.0000725
1.0000725
1.0000724
1.0000724
1.0000724
1.0000724
1.0000724
1.0000724
1.0000724
1.0000723
1.0000723
1.0000723
1.0000723
1.0000723
1.0000723
1.0000723
1.0000723
1.0000723
1.0000723
1.0000723
1.0000723
1.0000724
1.0000724
1.0000724
1.0000724
1.0000724
1.0000725
1.0000725
1.0000725
1.0000725
1.0000726
1.0000726
1.0000726
1.0000727
1.0000727
1.0000727
1.0000728
1.0000728
1.0000729
1.000073
1.0000731
1.0000732
1.0000734
1.0000737
1.0000741
1.000075
1.0000764
1.0000791
1.0000839
1.0000664
1.0000663
1.0000662
1.0000662
1.0000662
1.0000661
1.0000661
1.0000661
1.0000661
1.0000661
1.000066
1.000066
1.000066
1.000066
1.000066
1.0000659
1.0000659
1.0000659
1.0000659
1.0000659
1.0000659
1.0000659
1.0000659
1.0000659
1.0000659
1.0000659
1.0000659
1.0000659
1.0000659
1.0000659
1.0000659
1.0000659
1.0000659
1.0000659
1.0000659
1.000066
1.000066
1.000066
1.000066
1.000066
1.0000661
1.0000661
1.0000661
1.0000662
1.0000662
1.0000662
1.0000663
1.0000663
1.0000664
1.0000664
1.0000665
1.0000666
1.0000668
1.0000671
1.0000675
1.0000682
1.0000696
1.000072
1.0000764
1.0000604
1.0000603
1.0000603
1.0000602
1.0000602
1.0000602
1.0000602
1.0000601
1.0000601
1.0000601
1.0000601
1.0000601
1.00006
1.00006
1.00006
1.00006
1.00006
1.00006
1.0000599
1.0000599
1.0000599
1.0000599
1.0000599
1.0000599
1.0000599
1.0000599
1.0000599
1.0000599
1.0000599
1.0000599
1.0000599
1.0000599
1.0000599
1.0000599
1.00006
1.00006
1.00006
1.00006
1.00006
1.0000601
1.0000601
1.0000601
1.0000601
1.0000602
1.0000602
1.0000602
1.0000603
1.0000603
1.0000604
1.0000604
1.0000605
1.0000606
1.0000607
1.000061
1.0000614
1.000062
1.0000632
1.0000655
1.0000694
1.0000548
1.0000548
1.0000547
1.0000547
1.0000547
1.0000546
1.0000546
1.0000546
1.0000546
1.0000546
1.0000545
1.0000545
1.0000545
1.0000545
1.0000545
1.0000544
1.0000544
1.0000544
1.0000544
1.0000544
1.0000544
1.0000544
1.0000544
1.0000543
1.0000543
1.0000543
1.0000543
1.0000543
1.0000543
1.0000543
1.0000544
1.0000544
1.0000544
1.0000544
1.0000544
1.0000544
1.0000544
1.0000544
1.0000545
1.0000545
1.0000545
1.0000545
1.0000546
1.0000546
1.0000546
1.0000546
1.0000547
1.0000547
1.0000548
1.0000548
1.0000549
1.000055
1.0000551
1.0000553
1.0000556
1.0000562
1.0000573
1.0000593
1.000063
1.0000497
1.0000496
1.0000496
1.0000495
1.0000495
1.0000495
1.0000495
1.0000495
1.0000494
1.0000494
1.0000494
1.0000494
1.0000494
1.0000493
1.0000493
1.0000493
1.0000493
1.0000493
1.0000493
1.0000493
1.0000492
1.0000492
1.0000492
1.0000492
1.0000492
1.0000492
1.0000492
1.0000492
1.0000492
1.0000492
1.0000492
1.0000492
1.0000492
1.0000492
1.0000493
1.0000493
1.0000493
1.0000493
1.0000493
1.0000493
1.0000494
1.0000494
1.0000494
1.0000494
1.0000494
1.0000495
1.0000495
1.0000495
1.0000496
1.0000496
1.0000497
1.0000498
1.0000499
1.0000501
1.0000504
1.0000509
1.0000518
1.0000537
1.000057
1.0000449
1.0000448
1.0000448
1.0000448
1.0000448
1.0000448
1.0000447
1.0000447
1.0000447
1.0000447
1.0000447
1.0000446
1.0000446
1.0000446
1.0000446
1.0000446
1.0000446
1.0000445
1.0000445
1.0000445
1.0000445
1.0000445
1.0000445
1.0000445
1.0000445
1.0000445
1.0000445
1.0000445
1.0000445
1.0000445
1.0000445
1.0000445
1.0000445
1.0000445
1.0000445
1.0000445
1.0000445
1.0000446
1.0000446
1.0000446
1.0000446
1.0000446
1.0000446
1.0000447
1.0000447
1.0000447
1.0000447
1.0000448
1.0000448
1.0000448
1.0000449
1.000045
1.0000451
1.0000452
1.0000455
1.0000459
1.0000468
1.0000484
1.0000515
1.0000405
1.0000405
1.0000404
1.0000404
1.0000404
1.0000404
1.0000404
1.0000403
1.0000403
1.0000403
1.0000403
1.0000403
1.0000403
1.0000402
1.0000402
1.0000402
1.0000402
1.0000402
1.0000402
1.0000402
1.0000402
1.0000401
1.0000401
1.0000401
1.0000401
1.0000401
1.0000401
1.0000401
1.0000401
1.0000401
1.0000401
1.0000401
1.0000401
1.0000401
1.0000402
1.0000402
1.0000402
1.0000402
1.0000402
1.0000402
1.0000402
1.0000402
1.0000403
1.0000403
1.0000403
1.0000403
1.0000404
1.0000404
1.0000404
1.0000404
1.0000405
1.0000405
1.0000406
1.0000408
1.000041
1.0000414
1.0000421
1.0000436
1.0000464
1.0000365
1.0000364
1.0000364
1.0000364
1.0000364
1.0000364
1.0000364
1.0000363
1.0000363
1.0000363
1.0000363
1.0000363
1.0000363
1.0000362
1.0000362
1.0000362
1.0000362
1.0000362
1.0000362
1.0000362
1.0000362
1.0000362
1.0000361
1.0000361
1.0000361
1.0000361
1.0000361
1.0000361
1.0000361
1.0000361
1.0000361
1.0000361
1.0000361
1.0000361
1.0000362
1.0000362
1.0000362
1.0000362
1.0000362
1.0000362
1.0000362
1.0000362
1.0000363
1.0000363
1.0000363
1.0000363
1.0000363
1.0000364
1.0000364
1.0000364
1.0000364
1.0000365
1.0000366
1.0000367
1.0000369
1.0000372
1.0000379
1.0000392
1.0000417
1.0000328
1.0000328
1.0000328
1.0000327
1.0000327
1.0000327
1.0000327
1.0000327
1.0000327
1.0000326
1.0000326
1.0000326
1.0000326
1.0000326
1.0000326
1.0000326
1.0000326
1.0000325
1.0000325
1.0000325
1.0000325
1.0000325
1.0000325
1.0000325
1.0000325
1.0000325
1.0000325
1.0000325
1.0000325
1.0000325
1.0000325
1.0000325
1.0000325
1.0000325
1.0000325
1.0000325
1.0000325
1.0000325
1.0000325
1.0000326
1.0000326
1.0000326
1.0000326
1.0000326
1.0000326
1.0000326
1.0000327
1.0000327
1.0000327
1.0000327
1.0000328
1.0000328
1.0000329
1.000033
1.0000331
1.0000334
1.000034
1.0000352
1.0000375
1.0000294
1.0000294
1.0000294
1.0000294
1.0000294
1.0000293
1.0000293
1.0000293
1.0000293
1.0000293
1.0000293
1.0000293
1.0000293
1.0000292
1.0000292
1.0000292
1.0000292
1.0000292
1.0000292
1.0000292
1.0000292
1.0000292
1.0000292
1.0000292
1.0000292
1.0000292
1.0000292
1.0000292
1.0000292
1.0000292
1.0000292
1.0000292
1.0000292
1.0000292
1.0000292
1.0000292
1.0000292
1.0000292
1.0000292
1.0000292
1.0000292
1.0000292
1.0000292
1.0000293
1.0000293
1.0000293
1.0000293
1.0000293
1.0000293
1.0000294
1.0000294
1.0000294
1.0000295
1.0000295
1.0000297
1.0000299
1.0000304
1.0000314
1.0000336
1.0000263
1.0000263
1.0000263
1.0000263
1.0000263
1.0000262
1.0000262
1.0000262
1.0000262
1.0000262
1.0000262
1.0000262
1.0000262
1.0000262
1.0000261
1.0000261
1.0000261
1.0000261
1.0000261
1.0000261
1.0000261
1.0000261
1.0000261
1.0000261
1.0000261
1.0000261
1.0000261
1.0000261
1.0000261
1.0000261
1.0000261
1.0000261
1.0000261
1.0000261
1.0000261
1.0000261
1.0000261
1.0000261
1.0000261
1.0000261
1.0000261
1.0000261
1.0000262
1.0000262
1.0000262
1.0000262
1.0000262
1.0000262
1.0000262
1.0000262
1.0000263
1.0000263
1.0000263
1.0000264
1.0000265
1.0000267
1.0000271
1.000028
1.0000299
1.000024
1.0000239
1.0000239
1.0000239
1.0000239
1.0000239
1.0000239
1.0000239
1.0000239
1.0000239
1.0000238
1.0000238
1.0000238
1.0000238
1.0000238
1.0000238
1.0000238
1.0000238
1.0000238
1.0000238
1.0000238
1.0000238
1.0000238
1.0000238
1.0000238
1.0000238
1.0000238
1.0000238
1.0000238
1.0000238
1.0000238
1.0000238
1.0000238
1.0000238
1.0000238
1.0000238
1.0000238
1.0000238
1.0000238
1.0000238
1.0000238
1.0000238
1.0000238
1.0000238
1.0000238
1.0000238
1.0000239
1.0000239
1.0000239
1.0000239
1.0000239
1.0000239
1.000024
1.000024
1.0000241
1.0000243
1.0000246
1.0000254
1.0000271
1.0001099
1.0001215
1.0001359
1.0001514
1.0001685
1.0001872
1.0002076
1.0002298
1.0002538
1.0002798
1.0003077
1.0003377
1.0003696
1.0004035
1.0004393
1.0004768
1.0005159
1.0005561
1.0005972
1.0006385
1.0006796
1.0007196
1.0007577
1.0007931
1.0008247
1.0008514
1.0008723
1.0008862
1.0008925
1.0008902
1.000879
1.0008585
1.0008288
1.0007901
1.000743
1.000688
1.0006262
1.0005584
1.0004859
1.0004096
1.0003306
1.0002499
1.0001684
1.0000869
1.0000062
0.99992685
0.99984936
0.99977412
0.99970144
0.99963157
0.99956468
0.99950088
0.99944022
0.99938272
0.99932836
0.99927707
0.9992288
0.99918345
0.9991409
0.99910105
0.99906378
0.99902897
0.99899649
0.99896622
0.99893803
0.99891181
0.99888743
0.99886478
0.99884376
0.99882426
0.99880618
0.99878942
0.99877395
0.99875956
1.000104
1.000115
1.0001287
1.0001435
1.0001598
1.0001776
1.0001971
1.0002183
1.0002413
1.0002663
1.0002932
1.0003222
1.0003531
1.0003861
1.0004209
1.0004575
1.0004957
1.0005352
1.0005756
1.0006164
1.0006571
1.0006969
1.0007351
1.0007708
1.0008029
1.0008305
1.0008526
1.0008682
1.0008764
1.0008765
1.000868
1.0008506
1.0008243
1.0007892
1.0007459
1.000695
1.0006373
1.0005737
1.0005053
1.0004332
1.0003582
1.0002815
1.0002038
1.0001259
1.0000486
0.99997251
0.99989804
0.99982563
0.9997556
0.99968818
0.99962357
0.99956186
0.99950314
0.99944742
0.9993947
0.99934492
0.99929803
0.99925395
0.99921257
0.99917379
0.9991375
0.99910359
0.99907194
0.99904242
0.99901493
0.99898934
0.99896553
0.99894341
0.99892287
0.99890382
0.99888615
0.99886977
0.99885463
0.99884046
1.0001004
1.0001112
1.0001244
1.0001388
1.0001545
1.0001717
1.0001905
1.0002109
1.0002331
1.0002572
1.0002831
1.000311
1.0003409
1.0003727
1.0004063
1.0004418
1.0004788
1.000517
1.0005563
1.000596
1.0006356
1.0006745
1.0007119
1.000747
1.0007787
1.0008062
1.0008284
1.0008444
1.0008534
1.0008547
1.0008477
1.0008323
1.0008083
1.0007759
1.0007356
1.000688
1.0006339
1.0005741
1.0005098
1.0004417
1.0003709
1.0002984
1.0002248
1.0001511
1.0000779
1.0000057
0.99993504
0.9998663
0.99979978
0.99973573
0.99967431
0.99961562
0.99955975
0.99950671
0.9994565
0.99940908
0.9993644
0.99932237
0.99928291
0.99924593
0.99921131
0.99917894
0.99914873
0.99912054
0.99909428
0.99906984
0.99904709
0.99902596
0.99900632
0.9989881
0.9989712
0.99895552
0.99894103
0.99892744
1.0000984
1.0001089
1.0001219
1.000136
1.0001514
1.0001682
1.0001865
1.0002064
1.000228
1.0002514
1.0002767
1.0003038
1.0003328
1.0003637
1.0003964
1.0004308
1.0004667
1.0005039
1.000542
1.0005805
1.000619
1.0006568
1.0006931
1.0007272
1.000758
1.0007847
1.0008063
1.000822
1.0008307
1.0008321
1.0008254
1.0008105
1.0007873
1.0007561
1.0007172
1.0006713
1.0006191
1.0005615
1.0004994
1.0004338
1.0003657
1.0002959
1.0002252
1.0001543
1.000084
1.0000146
0.99994682
0.99988086
0.99981707
0.99975565
0.99969678
0.99964055
0.99958703
0.99953624
0.99948817
0.99944277
0.9994
0.99935978
0.99932202
0.99928664
0.99925352
0.99922257
0.99919367
0.99916671
0.9991416
0.99911823
0.99909649
0.99907628
0.99905752
0.9990401
0.99902394
0.99900895
0.9989951
0.99898209
1.0000973
1.0001076
1.0001204
1.0001343
1.0001494
1.0001659
1.000184
1.0002036
1.0002248
1.0002478
1.0002725
1.0002991
1.0003275
1.0003577
1.0003897
1.0004233
1.0004584
1.0004947
1.0005318
1.0005694
1.0006069
1.0006437
1.0006789
1.0007121
1.0007419
1.0007677
1.0007884
1.0008033
1.0008114
1.0008122
1.0008052
1.00079
1.0007668
1.0007356
1.000697
1.0006515
1.0005999
1.000543
1.0004819
1.0004173
1.0003503
1.0002817
1.0002123
1.0001429
1.0000739
1.0000061
0.99993972
0.99987524
0.99981292
0.99975296
0.99969552
0.99964069
0.99958853
0.99953905
0.99949224
0.99944805
0.99940645
0.99936733
0.99933063
0.99929624
0.99926406
0.99923399
0.99920592
0.99917976
0.99915538
0.9991327
0.9991116
0.99909199
0.99907378
0.99905687
0.99904119
0.99902664
0.99901318
0.99900057
1.0000966
1.0001068
1.0001195
1.0001332
1.0001481
1.0001645
1.0001823
1.0002017
1.0002226
1.0002453
1.0002697
1.0002959
1.0003239
1.0003536
1.0003851
1.0004181
1.0004525
1.0004881
1.0005246
1.0005614
1.0005981
1.0006341
1.0006685
1.0007007
1.0007297
1.0007547
1.0007746
1.0007887
1.0007961
1.0007962
1.0007885
1.0007728
1.0007491
1.0007176
1.0006787
1.000633
1.0005813
1.0005245
1.0004634
1.000399
1.0003322
1.0002639
1.0001948
1.0001257
1.0000572
0.99998984
0.99992399
0.99986003
0.99979824
0.99973882
0.99968192
0.99962762
0.99957599
0.99952703
0.99948073
0.99943705
0.99939591
0.99935726
0.99932099
0.99928702
0.99925525
0.99922556
0.99919786
0.99917203
0.99914797
0.99912559
0.99910477
0.99908543
0.99906747
0.9990508
0.99903534
0.99902099
0.99900772
0.99899528
1.0000962
1.0001063
1.0001188
1.0001324
1.0001473
1.0001635
1.0001811
1.0002003
1.0002211
1.0002436
1.0002677
1.0002936
1.0003213
1.0003507
1.0003818
1.0004144
1.0004484
1.0004835
1.0005194
1.0005556
1.0005917
1.000627
1.0006608
1.0006924
1.0007206
1.0007449
1.0007641
1.0007775
1.0007842
1.0007837
1.0007755
1.0007592
1.000735
1.000703
1.0006637
1.0006176
1.0005656
1.0005084
1.0004471
1.0003825
1.0003156
1.0002471
1.000178
1.0001088
1.0000403
0.99997288
0.99990704
0.99984311
0.99978136
0.99972199
0.99966516
0.99961094
0.99955939
0.99951053
0.99946432
0.99942073
0.99937969
0.99934114
0.99930497
0.9992711
0.99923941
0.99920982
0.9991822
0.99915646
0.99913248
0.99911017
0.99908943
0.99907016
0.99905225
0.99903564
0.99902022
0.99900592
0.99899269
0.99898028
1.0000959
1.0001059
1.0001184
1.0001319
1.0001467
1.0001628
1.0001803
1.0001994
1.00022
1.0002423
1.0002663
1.000292
1.0003194
1.0003486
1.0003794
1.0004117
1.0004453
1.00048
1.0005155
1.0005514
1.000587
1.0006218
1.000655
1.0006861
1.0007139
1.0007376
1.0007563
1.0007691
1.0007753
1.0007743
1.0007655
1.0007488
1.0007242
1.0006918
1.0006521
1.0006056
1.0005533
1.0004958
1.0004342
1.0003693
1.0003021
1.0002334
1.0001641
1.0000947
1.000026
0.99995848
0.99989249
0.99982843
0.99976657
0.9997071
0.99965017
0.99959587
0.99954425
0.99949531
0.99944904
0.9994054
0.99936431
0.99932571
0.9992895
0.99925559
0.99922388
0.99919425
0.99916661
0.99914084
0.99911684
0.9990945
0.99907374
0.99905444
0.99903652
0.99901989
0.99900446
0.99899014
0.9989769
0.99896448
1.0000957
1.0001057
1.0001181
1.0001316
1.0001462
1.0001623
1.0001797
1.0001987
1.0002192
1.0002414
1.0002652
1.0002908
1.000318
1.000347
1.0003776
1.0004096
1.000443
1.0004775
1.0005126
1.0005481
1.0005834
1.0006179
1.0006507
1.0006814
1.0007088
1.0007321
1.0007504
1.0007628
1.0007686
1.0007672
1.0007581
1.0007411
1.0007161
1.0006834
1.0006434
1.0005967
1.0005441
1.0004863
1.0004245
1.0003594
1.000292
1.0002231
1.0001536
1.0000841
1.0000152
0.99994752
0.99988139
0.9998172
0.99975521
0.99969562
0.99963858
0.99958417
0.99953244
0.99948341
0.99943704
0.99939331
0.99935214
0.99931347
0.99927719
0.99924321
0.99921143
0.99918175
0.99915405
0.99912823
0.99910419
0.99908181
0.99906101
0.99904167
0.99902372
0.99900705
0.99899158
0.99897723
0.99896395
0.9989515
1.0000955
1.0001055
1.0001179
1.0001313
1.0001459
1.0001619
1.0001793
1.0001981
1.0002186
1.0002406
1.0002644
1.0002898
1.0003169
1.0003457
1.0003761
1.000408
1.0004412
1.0004755
1.0005104
1.0005457
1.0005807
1.0006149
1.0006474
1.0006778
1.0007049
1.0007279
1.0007459
1.0007581
1.0007636
1.000762
1.0007526
1.0007354
1.0007102
1.0006773
1.0006371
1.0005902
1.0005374
1.0004796
1.0004176
1.0003524
1.0002848
1.0002158
1.0001462
1.0000766
1.0000076
0.99993975
0.99987351
0.9998092
0.9997471
0.9996874
0.99963026
0.99957576
0.99952395
0.99947484
0.9994284
0.99938461
0.99934338
0.99930465
0.99926832
0.9992343
0.99920248
0.99917275
0.99914502
0.99911916
0.99909508
0.99907268
0.99905184
0.99903248
0.99901449
0.9989978
0.99898231
0.99896794
0.99895465
0.99894218
1.0000954
1.0001053
1.0001177
1.0001311
1.0001457
1.0001616
1.0001789
1.0001977
1.0002181
1.0002401
1.0002637
1.000289
1.0003161
1.0003447
1.000375
1.0004068
1.0004398
1.0004739
1.0005086
1.0005437
1.0005785
1.0006125
1.0006449
1.0006751
1.0007019
1.0007247
1.0007425
1.0007545
1.0007599
1.0007581
1.0007486
1.0007313
1.000706
1.000673
1.0006327
1.0005858
1.0005329
1.000475
1.0004129
1.0003476
1.00028
1.000211
1.0001412
1.0000715
1.0000025
0.99993454
0.99986822
0.99980385
0.99974168
0.99968193
0.99962474
0.9995702
0.99951834
0.99946919
0.99942272
0.99937889
0.99933763
0.99929887
0.99926251
0.99922846
0.99919662
0.99916687
0.99913911
0.99911324
0.99908914
0.99906672
0.99904586
0.99902649
0.99900849
0.99899178
0.99897628
0.99896189
0.99894859
0.99893611
1.0000953
1.0001052
1.0001176
1.0001309
1.0001454
1.0001613
1.0001786
1.0001974
1.0002177
1.0002396
1.0002631
1.0002884
1.0003153
1.0003439
1.0003741
1.0004057
1.0004386
1.0004726
1.0005072
1.0005421
1.0005768
1.0006106
1.0006429
1.0006729
1.0006996
1.0007223
1.00074
1.0007519
1.0007572
1.0007553
1.0007458
1.0007284
1.0007031
1.0006701
1.0006298
1.0005828
1.00053
1.0004721
1.00041
1.0003447
1.0002771
1.000208
1.0001382
1.0000685
0.99999934
0.9999314
0.99986505
0.99980064
0.99973844
0.99967866
0.99962144
0.99956686
0.99951497
0.99946579
0.99941929
0.99937543
0.99933415
0.99929536
0.99925898
0.9992249
0.99919303
0.99916326
0.99913548
0.99910958
0.99908546
0.99906302
0.99904215
0.99902275
0.99900473
0.99898801
0.9989725
0.9989581
0.99894479
0.99893231
1.0000953
1.0001051
1.0001175
1.0001308
1.0001453
1.0001611
1.0001783
1.0001971
1.0002173
1.0002392
1.0002627
1.0002879
1.0003147
1.0003432
1.0003733
1.0004048
1.0004376
1.0004715
1.000506
1.0005408
1.0005754
1.0006091
1.0006412
1.0006712
1.0006978
1.0007204
1.0007381
1.0007499
1.0007552
1.0007534
1.0007439
1.0007265
1.0007012
1.0006683
1.0006281
1.0005812
1.0005284
1.0004706
1.0004085
1.0003433
1.0002756
1.0002066
1.0001368
1.000067
0.9999979
0.99992993
0.99986356
0.99979912
0.9997369
0.99967708
0.99961982
0.99956521
0.99951329
0.99946408
0.99941755
0.99937366
0.99933234
0.99929353
0.99925712
0.99922302
0.99919112
0.99916133
0.99913353
0.99910761
0.99908348
0.99906102
0.99904013
0.99902072
0.99900269
0.99898595
0.99897043
0.99895602
0.99894269
0.99893021
1.0000952
1.000105
1.0001173
1.0001306
1.0001451
1.0001609
1.0001781
1.0001968
1.000217
1.0002388
1.0002623
1.0002874
1.0003142
1.0003426
1.0003726
1.0004041
1.0004368
1.0004705
1.000505
1.0005397
1.0005742
1.0006078
1.0006399
1.0006698
1.0006964
1.0007189
1.0007366
1.0007485
1.0007538
1.0007521
1.0007427
1.0007254
1.0007003
1.0006675
1.0006274
1.0005807
1.000528
1.0004703
1.0004083
1.0003431
1.0002755
1.0002065
1.0001367
1.000067
0.99999786
0.99992989
0.99986349
0.99979903
0.99973677
0.99967692
0.99961962
0.99956498
0.99951302
0.99946377
0.9994172
0.99937328
0.99933193
0.99929308
0.99925663
0.9992225
0.99919058
0.99916076
0.99913293
0.99910699
0.99908283
0.99906034
0.99903943
0.99902
0.99900195
0.9989852
0.99896966
0.99895524
0.9989419
0.99892941
1.0000951
1.000105
1.0001172
1.0001305
1.000145
1.0001607
1.0001779
1.0001965
1.0002167
1.0002385
1.0002619
1.0002869
1.0003137
1.000342
1.000372
1.0004034
1.000436
1.0004697
1.0005041
1.0005387
1.0005732
1.0006068
1.0006388
1.0006686
1.0006952
1.0007178
1.0007355
1.0007475
1.000753
1.0007513
1.0007421
1.0007251
1.0007001
1.0006676
1.0006277
1.0005812
1.0005287
1.0004711
1.0004093
1.0003442
1.0002767
1.0002077
1.000138
1.0000683
0.99999914
0.99993115
0.99986473
0.99980024
0.99973794
0.99967805
0.99962071
0.99956601
0.99951401
0.9994647
0.99941809
0.99937412
0.99933272
0.99929383
0.99925734
0.99922317
0.99919121
0.99916135
0.99913349
0.99910751
0.99908332
0.99906081
0.99903988
0.99902042
0.99900235
0.99898557
0.99897001
0.99895557
0.99894221
0.99892971
1.0000951
1.0001049
1.0001172
1.0001304
1.0001448
1.0001606
1.0001777
1.0001963
1.0002164
1.0002382
1.0002615
1.0002865
1.0003132
1.0003415
1.0003714
1.0004027
1.0004353
1.000469
1.0005033
1.0005379
1.0005722
1.0006058
1.0006378
1.0006676
1.0006943
1.0007169
1.0007348
1.0007469
1.0007525
1.0007511
1.0007421
1.0007254
1.0007008
1.0006685
1.0006289
1.0005827
1.0005305
1.0004731
1.0004115
1.0003465
1.0002792
1.0002102
1.0001406
1.0000709
1.0000018
0.99993375
0.99986731
0.99980277
0.99974042
0.99968048
0.99962308
0.99956832
0.99951625
0.99946689
0.99942021
0.99937618
0.99933473
0.99929578
0.99925924
0.99922502
0.99919301
0.9991631
0.9991352
0.99910918
0.99908495
0.9990624
0.99904144
0.99902195
0.99900385
0.99898705
0.99897146
0.998957
0.99894363
0.9989311
1.000095
1.0001048
1.0001171
1.0001303
1.0001447
1.0001604
1.0001775
1.0001961
1.0002162
1.0002379
1.0002612
1.0002862
1.0003128
1.0003411
1.0003709
1.0004022
1.0004347
1.0004683
1.0005025
1.0005371
1.0005714
1.000605
1.000637
1.0006668
1.0006935
1.0007163
1.0007343
1.0007466
1.0007525
1.0007514
1.0007427
1.0007264
1.0007022
1.0006703
1.0006312
1.0005853
1.0005334
1.0004763
1.0004149
1.0003502
1.000283
1.0002142
1.0001446
1.0000749
1.0000058
0.99993781
0.99987133
0.99980674
0.99974433
0.99968432
0.99962684
0.999572
0.99951986
0.99947041
0.99942366