/*--------------------------------*- C++ -*----------------------------------*\
| =========                 |                                                 |
| \\      /  F ield         | OpenFOAM: The Open Source CFD Toolbox           |
|  \\    /   O peration     | Version:  v2006                                 |
|   \\  /    A nd           | Website:  www.openfoam.com                      |
|    \\/     M anipulation  |                                                 |
\*---------------------------------------------------------------------------*/
FoamFile
{
    version     2.0;
    format      ascii;
    class       volScalarField;
    location    "5000";
    object      T;
}
// * * * * * * * * * * * * * * * * * * * * * * * * * * * * * * * * * * * * * //

dimensions      [0 0 0 1 0 0 0];


internalField   nonuniform List<scalar> 
55713
(
1.0000069
1.0000085
1.0000091
1.0000094
1.0000095
1.0000096
1.0000096
1.0000097
1.0000097
1.0000097
1.0000097
1.0000097
1.0000097
1.0000097
1.0000097
1.0000097
1.0000097
1.0000097
1.0000098
1.0000098
1.0000098
1.0000098
1.0000098
1.0000098
1.0000098
1.0000098
1.0000098
1.0000098
1.0000098
1.0000098
1.0000098
1.0000098
1.0000098
1.0000098
1.0000098
1.0000098
1.0000098
1.0000098
1.0000098
1.0000098
1.0000097
1.0000097
1.0000097
1.0000097
1.0000097
1.0000097
1.0000097
1.0000097
1.0000097
1.0000097
1.0000097
1.0000097
1.0000097
1.0000096
1.0000096
1.0000096
1.0000096
1.0000096
1.0000096
1.0000066
1.000008
1.0000086
1.0000088
1.0000089
1.000009
1.000009
1.000009
1.000009
1.0000091
1.0000091
1.0000091
1.0000091
1.0000091
1.0000091
1.0000091
1.0000091
1.0000091
1.0000091
1.0000091
1.0000091
1.0000091
1.0000091
1.0000091
1.0000091
1.0000091
1.0000091
1.0000091
1.0000091
1.0000091
1.0000091
1.0000091
1.0000091
1.0000091
1.0000091
1.0000091
1.0000091
1.0000091
1.0000091
1.0000091
1.0000091
1.0000091
1.0000091
1.0000091
1.0000091
1.0000091
1.0000091
1.0000091
1.0000091
1.0000091
1.000009
1.000009
1.000009
1.000009
1.000009
1.000009
1.000009
1.000009
1.000009
1.0000063
1.0000076
1.0000081
1.0000083
1.0000084
1.0000084
1.0000084
1.0000084
1.0000085
1.0000085
1.0000085
1.0000085
1.0000085
1.0000085
1.0000085
1.0000085
1.0000085
1.0000085
1.0000085
1.0000085
1.0000085
1.0000085
1.0000085
1.0000085
1.0000085
1.0000085
1.0000085
1.0000085
1.0000085
1.0000085
1.0000085
1.0000085
1.0000085
1.0000085
1.0000085
1.0000085
1.0000085
1.0000085
1.0000085
1.0000085
1.0000085
1.0000085
1.0000085
1.0000085
1.0000085
1.0000085
1.0000085
1.0000085
1.0000085
1.0000085
1.0000085
1.0000085
1.0000085
1.0000085
1.0000084
1.0000084
1.0000084
1.0000084
1.0000084
1.000006
1.0000072
1.0000077
1.0000078
1.0000079
1.0000079
1.0000079
1.000008
1.000008
1.000008
1.000008
1.000008
1.000008
1.000008
1.000008
1.000008
1.000008
1.000008
1.000008
1.000008
1.000008
1.000008
1.000008
1.000008
1.000008
1.000008
1.000008
1.000008
1.000008
1.000008
1.000008
1.000008
1.000008
1.000008
1.000008
1.000008
1.000008
1.000008
1.000008
1.000008
1.000008
1.000008
1.000008
1.000008
1.000008
1.000008
1.000008
1.000008
1.000008
1.000008
1.000008
1.000008
1.000008
1.000008
1.000008
1.0000079
1.0000079
1.0000079
1.0000079
1.0000058
1.0000069
1.0000073
1.0000074
1.0000075
1.0000075
1.0000075
1.0000075
1.0000075
1.0000075
1.0000075
1.0000075
1.0000076
1.0000076
1.0000076
1.0000076
1.0000076
1.0000076
1.0000076
1.0000076
1.0000076
1.0000076
1.0000076
1.0000076
1.0000076
1.0000076
1.0000076
1.0000076
1.0000076
1.0000076
1.0000076
1.0000076
1.0000076
1.0000076
1.0000076
1.0000076
1.0000076
1.0000076
1.0000076
1.0000076
1.0000076
1.0000076
1.0000076
1.0000076
1.0000076
1.0000076
1.0000076
1.0000076
1.0000076
1.0000075
1.0000075
1.0000075
1.0000075
1.0000075
1.0000075
1.0000075
1.0000075
1.0000075
1.0000075
1.0000057
1.0000066
1.000007
1.0000071
1.0000071
1.0000071
1.0000071
1.0000071
1.0000072
1.0000072
1.0000072
1.0000072
1.0000072
1.0000072
1.0000072
1.0000072
1.0000072
1.0000072
1.0000072
1.0000072
1.0000072
1.0000072
1.0000072
1.0000072
1.0000072
1.0000072
1.0000072
1.0000072
1.0000072
1.0000072
1.0000072
1.0000072
1.0000072
1.0000072
1.0000072
1.0000072
1.0000072
1.0000072
1.0000072
1.0000072
1.0000072
1.0000072
1.0000072
1.0000072
1.0000072
1.0000072
1.0000072
1.0000072
1.0000072
1.0000072
1.0000072
1.0000072
1.0000072
1.0000072
1.0000071
1.0000071
1.0000071
1.0000071
1.0000071
1.0000055
1.0000064
1.0000067
1.0000068
1.0000068
1.0000068
1.0000068
1.0000068
1.0000068
1.0000068
1.0000068
1.0000068
1.0000068
1.0000069
1.0000069
1.0000069
1.0000069
1.0000069
1.0000069
1.0000069
1.0000069
1.0000069
1.0000069
1.0000069
1.0000069
1.0000069
1.0000069
1.0000069
1.0000069
1.0000069
1.0000069
1.0000069
1.0000069
1.0000069
1.0000069
1.0000069
1.0000069
1.0000069
1.0000069
1.0000069
1.0000069
1.0000069
1.0000069
1.0000069
1.0000069
1.0000069
1.0000069
1.0000069
1.0000069
1.0000068
1.0000068
1.0000068
1.0000068
1.0000068
1.0000068
1.0000068
1.0000068
1.0000068
1.0000068
1.0000054
1.0000062
1.0000064
1.0000065
1.0000065
1.0000065
1.0000065
1.0000065
1.0000066
1.0000066
1.0000066
1.0000066
1.0000066
1.0000066
1.0000066
1.0000066
1.0000066
1.0000066
1.0000066
1.0000066
1.0000066
1.0000066
1.0000066
1.0000066
1.0000066
1.0000066
1.0000066
1.0000066
1.0000066
1.0000066
1.0000066
1.0000066
1.0000066
1.0000066
1.0000066
1.0000066
1.0000066
1.0000066
1.0000066
1.0000066
1.0000066
1.0000066
1.0000066
1.0000066
1.0000066
1.0000066
1.0000066
1.0000066
1.0000066
1.0000066
1.0000066
1.0000066
1.0000066
1.0000066
1.0000065
1.0000065
1.0000065
1.0000065
1.0000065
1.0000054
1.0000061
1.0000062
1.0000063
1.0000063
1.0000063
1.0000063
1.0000063
1.0000063
1.0000063
1.0000063
1.0000063
1.0000063
1.0000063
1.0000063
1.0000064
1.0000064
1.0000064
1.0000064
1.0000064
1.0000064
1.0000064
1.0000064
1.0000064
1.0000064
1.0000064
1.0000064
1.0000064
1.0000064
1.0000064
1.0000064
1.0000064
1.0000064
1.0000064
1.0000064
1.0000064
1.0000064
1.0000064
1.0000064
1.0000064
1.0000064
1.0000064
1.0000064
1.0000064
1.0000064
1.0000064
1.0000063
1.0000063
1.0000063
1.0000063
1.0000063
1.0000063
1.0000063
1.0000063
1.0000063
1.0000063
1.0000063
1.0000063
1.0000063
1.0000054
1.000006
1.0000061
1.0000061
1.0000061
1.0000061
1.0000061
1.0000061
1.0000061
1.0000061
1.0000061
1.0000061
1.0000062
1.0000062
1.0000062
1.0000062
1.0000062
1.0000062
1.0000062
1.0000062
1.0000062
1.0000062
1.0000062
1.0000062
1.0000062
1.0000062
1.0000062
1.0000062
1.0000062
1.0000062
1.0000062
1.0000062
1.0000062
1.0000062
1.0000062
1.0000062
1.0000062
1.0000062
1.0000062
1.0000062
1.0000062
1.0000062
1.0000062
1.0000062
1.0000062
1.0000062
1.0000062
1.0000062
1.0000062
1.0000061
1.0000061
1.0000061
1.0000061
1.0000061
1.0000061
1.0000061
1.0000061
1.0000061
1.0000061
1.0000053
1.0000058
1.0000059
1.0000059
1.0000059
1.0000059
1.0000059
1.0000059
1.0000059
1.0000059
1.0000059
1.0000059
1.0000059
1.000006
1.000006
1.000006
1.000006
1.000006
1.000006
1.000006
1.000006
1.000006
1.000006
1.000006
1.000006
1.000006
1.000006
1.000006
1.000006
1.000006
1.000006
1.000006
1.000006
1.000006
1.000006
1.000006
1.000006
1.000006
1.000006
1.000006
1.000006
1.000006
1.000006
1.000006
1.000006
1.000006
1.000006
1.0000059
1.0000059
1.0000059
1.0000059
1.0000059
1.0000059
1.0000059
1.0000059
1.0000059
1.0000059
1.0000059
1.0000059
1.0000054
1.0000058
1.0000058
1.0000059
1.0000059
1.0000059
1.0000059
1.0000059
1.0000059
1.0000059
1.0000059
1.0000059
1.0000059
1.0000059
1.0000059
1.0000059
1.0000059
1.0000059
1.0000059
1.0000059
1.0000059
1.0000059
1.0000059
1.0000059
1.0000059
1.0000059
1.0000059
1.0000059
1.0000059
1.0000059
1.0000059
1.0000059
1.0000059
1.0000059
1.0000059
1.0000059
1.0000059
1.0000059
1.0000059
1.0000059
1.0000059
1.0000059
1.0000059
1.0000059
1.0000059
1.0000059
1.0000059
1.0000059
1.0000059
1.0000059
1.0000059
1.0000059
1.0000059
1.0000058
1.0000058
1.0000058
1.0000058
1.0000058
1.0000058
1.000006
1.0000063
1.0000063
1.0000063
1.0000063
1.0000063
1.0000063
1.0000063
1.0000063
1.0000063
1.0000063
1.0000063
1.0000063
1.0000063
1.0000063
1.0000064
1.0000064
1.0000064
1.0000064
1.0000064
1.0000064
1.0000064
1.0000064
1.0000064
1.0000064
1.0000064
1.0000064
1.0000064
1.0000064
1.0000064
1.0000064
1.0000064
1.0000064
1.0000064
1.0000064
1.0000064
1.0000064
1.0000064
1.0000064
1.0000064
1.0000064
1.0000064
1.0000064
1.0000064
1.0000063
1.0000063
1.0000063
1.0000063
1.0000063
1.0000063
1.0000063
1.0000063
1.0000063
1.0000063
1.0000063
1.0000063
1.0000063
1.0000063
1.0000063
1.000005
1.0000051
1.0000052
1.0000052
1.0000052
1.0000052
1.0000052
1.0000052
1.0000052
1.0000052
1.0000052
1.0000052
1.0000052
1.0000052
1.0000052
1.0000052
1.0000052
1.0000052
1.0000052
1.0000052
1.0000052
1.0000052
1.0000052
1.0000052
1.0000052
1.0000052
1.0000052
1.0000052
1.0000052
1.0000052
1.0000052
1.0000052
1.0000052
1.0000052
1.0000052
1.0000052
1.0000052
1.0000052
1.0000052
1.0000052
1.0000052
1.0000052
1.0000052
1.0000052
1.0000052
1.0000052
1.0000052
1.0000052
1.0000052
1.0000052
1.0000052
1.0000052
1.0000052
1.0000052
1.0000052
1.0000052
1.0000052
1.0000052
1.0000052
1.0000364
1.0000365
1.0000366
1.0000367
1.0000368
1.0000369
1.0000369
1.000037
1.000037
1.0000371
1.0000371
1.0000372
1.0000372
1.0000373
1.0000373
1.0000374
1.0000374
1.0000374
1.0000375
1.0000375
1.0000375
1.0000376
1.0000376
1.0000376
1.0000376
1.0000377
1.0000377
1.0000377
1.0000377
1.0000377
1.0000377
1.0000377
1.0000377
1.0000377
1.0000377
1.0000377
1.0000377
1.0000377
1.0000377
1.0000376
1.0000376
1.0000376
1.0000376
1.0000375
1.0000375
1.0000375
1.0000374
1.0000374
1.0000373
1.0000372
1.0000371
1.000037
1.0000367
1.0000364
1.0000358
1.0000348
1.0000331
1.0000298
1.0000243
1.0000335
1.0000336
1.0000337
1.0000338
1.0000338
1.0000339
1.000034
1.000034
1.0000341
1.0000341
1.0000342
1.0000342
1.0000342
1.0000343
1.0000343
1.0000344
1.0000344
1.0000344
1.0000345
1.0000345
1.0000345
1.0000346
1.0000346
1.0000346
1.0000346
1.0000346
1.0000347
1.0000347
1.0000347
1.0000347
1.0000347
1.0000347
1.0000347
1.0000347
1.0000347
1.0000347
1.0000347
1.0000346
1.0000346
1.0000346
1.0000346
1.0000346
1.0000345
1.0000345
1.0000345
1.0000344
1.0000344
1.0000343
1.0000343
1.0000342
1.0000341
1.000034
1.0000338
1.0000334
1.0000329
1.000032
1.0000304
1.0000275
1.0000223
1.0000307
1.0000308
1.0000309
1.0000309
1.000031
1.000031
1.0000311
1.0000311
1.0000312
1.0000312
1.0000313
1.0000313
1.0000313
1.0000314
1.0000314
1.0000315
1.0000315
1.0000315
1.0000316
1.0000316
1.0000316
1.0000316
1.0000317
1.0000317
1.0000317
1.0000317
1.0000317
1.0000317
1.0000317
1.0000318
1.0000318
1.0000318
1.0000317
1.0000317
1.0000317
1.0000317
1.0000317
1.0000317
1.0000317
1.0000317
1.0000316
1.0000316
1.0000316
1.0000316
1.0000315
1.0000315
1.0000315
1.0000314
1.0000314
1.0000313
1.0000312
1.0000311
1.0000309
1.0000306
1.0000301
1.0000293
1.0000279
1.0000251
1.0000204
1.0000281
1.0000282
1.0000282
1.0000283
1.0000283
1.0000284
1.0000284
1.0000285
1.0000285
1.0000285
1.0000286
1.0000286
1.0000287
1.0000287
1.0000287
1.0000288
1.0000288
1.0000288
1.0000289
1.0000289
1.0000289
1.0000289
1.0000289
1.000029
1.000029
1.000029
1.000029
1.000029
1.000029
1.000029
1.000029
1.000029
1.000029
1.000029
1.000029
1.000029
1.000029
1.000029
1.000029
1.0000289
1.0000289
1.0000289
1.0000289
1.0000289
1.0000288
1.0000288
1.0000288
1.0000287
1.0000287
1.0000286
1.0000285
1.0000284
1.0000282
1.000028
1.0000276
1.0000268
1.0000255
1.000023
1.0000187
1.0000256
1.0000257
1.0000257
1.0000258
1.0000258
1.0000259
1.0000259
1.000026
1.000026
1.000026
1.0000261
1.0000261
1.0000261
1.0000262
1.0000262
1.0000262
1.0000263
1.0000263
1.0000263
1.0000263
1.0000264
1.0000264
1.0000264
1.0000264
1.0000264
1.0000264
1.0000265
1.0000265
1.0000265
1.0000265
1.0000265
1.0000265
1.0000265
1.0000265
1.0000265
1.0000265
1.0000264
1.0000264
1.0000264
1.0000264
1.0000264
1.0000264
1.0000263
1.0000263
1.0000263
1.0000263
1.0000262
1.0000262
1.0000261
1.0000261
1.000026
1.0000259
1.0000258
1.0000255
1.0000252
1.0000245
1.0000233
1.000021
1.0000171
1.0000233
1.0000234
1.0000234
1.0000235
1.0000235
1.0000236
1.0000236
1.0000236
1.0000237
1.0000237
1.0000237
1.0000238
1.0000238
1.0000238
1.0000239
1.0000239
1.0000239
1.0000239
1.000024
1.000024
1.000024
1.000024
1.000024
1.0000241
1.0000241
1.0000241
1.0000241
1.0000241
1.0000241
1.0000241
1.0000241
1.0000241
1.0000241
1.0000241
1.0000241
1.0000241
1.0000241
1.0000241
1.000024
1.000024
1.000024
1.000024
1.000024
1.0000239
1.0000239
1.0000239
1.0000239
1.0000238
1.0000238
1.0000237
1.0000237
1.0000236
1.0000235
1.0000233
1.0000229
1.0000223
1.0000213
1.0000192
1.0000156
1.0000212
1.0000213
1.0000213
1.0000214
1.0000214
1.0000214
1.0000215
1.0000215
1.0000215
1.0000215
1.0000216
1.0000216
1.0000216
1.0000217
1.0000217
1.0000217
1.0000217
1.0000218
1.0000218
1.0000218
1.0000218
1.0000218
1.0000218
1.0000219
1.0000219
1.0000219
1.0000219
1.0000219
1.0000219
1.0000219
1.0000219
1.0000219
1.0000219
1.0000219
1.0000219
1.0000219
1.0000219
1.0000219
1.0000218
1.0000218
1.0000218
1.0000218
1.0000218
1.0000218
1.0000217
1.0000217
1.0000217
1.0000217
1.0000216
1.0000216
1.0000215
1.0000214
1.0000213
1.0000211
1.0000208
1.0000203
1.0000194
1.0000175
1.0000142
1.0000192
1.0000193
1.0000193
1.0000194
1.0000194
1.0000194
1.0000195
1.0000195
1.0000195
1.0000195
1.0000196
1.0000196
1.0000196
1.0000196
1.0000197
1.0000197
1.0000197
1.0000197
1.0000198
1.0000198
1.0000198
1.0000198
1.0000198
1.0000198
1.0000198
1.0000198
1.0000199
1.0000199
1.0000199
1.0000199
1.0000199
1.0000199
1.0000199
1.0000199
1.0000199
1.0000198
1.0000198
1.0000198
1.0000198
1.0000198
1.0000198
1.0000198
1.0000197
1.0000197
1.0000197
1.0000197
1.0000197
1.0000196
1.0000196
1.0000196
1.0000195
1.0000195
1.0000194
1.0000192
1.0000189
1.0000185
1.0000176
1.000016
1.0000129
1.0000174
1.0000175
1.0000175
1.0000176
1.0000176
1.0000176
1.0000176
1.0000177
1.0000177
1.0000177
1.0000177
1.0000178
1.0000178
1.0000178
1.0000178
1.0000178
1.0000179
1.0000179
1.0000179
1.0000179
1.0000179
1.0000179
1.0000179
1.000018
1.000018
1.000018
1.000018
1.000018
1.000018
1.000018
1.000018
1.000018
1.000018
1.000018
1.000018
1.000018
1.000018
1.0000179
1.0000179
1.0000179
1.0000179
1.0000179
1.0000179
1.0000179
1.0000178
1.0000178
1.0000178
1.0000178
1.0000178
1.0000177
1.0000177
1.0000176
1.0000175
1.0000174
1.0000172
1.0000168
1.000016
1.0000145
1.0000118
1.0000158
1.0000158
1.0000158
1.0000159
1.0000159
1.0000159
1.0000159
1.000016
1.000016
1.000016
1.000016
1.0000161
1.0000161
1.0000161
1.0000161
1.0000161
1.0000161
1.0000162
1.0000162
1.0000162
1.0000162
1.0000162
1.0000162
1.0000162
1.0000162
1.0000162
1.0000163
1.0000163
1.0000163
1.0000163
1.0000163
1.0000163
1.0000163
1.0000163
1.0000162
1.0000162
1.0000162
1.0000162
1.0000162
1.0000162
1.0000162
1.0000162
1.0000162
1.0000161
1.0000161
1.0000161
1.0000161
1.0000161
1.0000161
1.000016
1.000016
1.0000159
1.0000159
1.0000158
1.0000156
1.0000152
1.0000146
1.0000132
1.0000107
1.0000143
1.0000143
1.0000143
1.0000143
1.0000144
1.0000144
1.0000144
1.0000144
1.0000144
1.0000145
1.0000145
1.0000145
1.0000145
1.0000145
1.0000145
1.0000146
1.0000146
1.0000146
1.0000146
1.0000146
1.0000146
1.0000146
1.0000146
1.0000146
1.0000147
1.0000147
1.0000147
1.0000147
1.0000147
1.0000147
1.0000147
1.0000147
1.0000147
1.0000147
1.0000147
1.0000147
1.0000146
1.0000146
1.0000146
1.0000146
1.0000146
1.0000146
1.0000146
1.0000146
1.0000146
1.0000145
1.0000145
1.0000145
1.0000145
1.0000145
1.0000144
1.0000144
1.0000143
1.0000142
1.0000141
1.0000138
1.0000132
1.000012
1.0000097
1.0000129
1.0000129
1.0000129
1.0000129
1.000013
1.000013
1.000013
1.000013
1.000013
1.000013
1.0000131
1.0000131
1.0000131
1.0000131
1.0000131
1.0000131
1.0000131
1.0000131
1.0000132
1.0000132
1.0000132
1.0000132
1.0000132
1.0000132
1.0000132
1.0000132
1.0000132
1.0000132
1.0000132
1.0000132
1.0000132
1.0000132
1.0000132
1.0000132
1.0000132
1.0000132
1.0000132
1.0000132
1.0000132
1.0000132
1.0000132
1.0000132
1.0000131
1.0000131
1.0000131
1.0000131
1.0000131
1.0000131
1.0000131
1.000013
1.000013
1.000013
1.0000129
1.0000129
1.0000127
1.0000125
1.000012
1.000011
1.0000088
1.0000116
1.0000116
1.0000116
1.0000116
1.0000117
1.0000117
1.0000117
1.0000117
1.0000117
1.0000117
1.0000117
1.0000118
1.0000118
1.0000118
1.0000118
1.0000118
1.0000118
1.0000118
1.0000118
1.0000118
1.0000118
1.0000119
1.0000119
1.0000119
1.0000119
1.0000119
1.0000119
1.0000119
1.0000119
1.0000119
1.0000119
1.0000119
1.0000119
1.0000119
1.0000119
1.0000119
1.0000119
1.0000119
1.0000119
1.0000118
1.0000118
1.0000118
1.0000118
1.0000118
1.0000118
1.0000118
1.0000118
1.0000118
1.0000118
1.0000117
1.0000117
1.0000117
1.0000117
1.0000116
1.0000115
1.0000113
1.0000109
1.00001
1.0000081
1.0000105
1.0000105
1.0000105
1.0000105
1.0000106
1.0000106
1.0000106
1.0000106
1.0000106
1.0000106
1.0000106
1.0000106
1.0000106
1.0000107
1.0000107
1.0000107
1.0000107
1.0000107
1.0000107
1.0000107
1.0000107
1.0000107
1.0000107
1.0000107
1.0000107
1.0000107
1.0000107
1.0000107
1.0000107
1.0000107
1.0000107
1.0000107
1.0000107
1.0000107
1.0000107
1.0000107
1.0000107
1.0000107
1.0000107
1.0000107
1.0000107
1.0000107
1.0000107
1.0000107
1.0000107
1.0000107
1.0000107
1.0000106
1.0000106
1.0000106
1.0000106
1.0000106
1.0000106
1.0000105
1.0000104
1.0000102
1.0000099
1.0000091
1.0000074
1.0000266
1.0000292
1.0000322
1.0000354
1.0000387
1.0000423
1.0000461
1.0000502
1.0000546
1.0000593
1.0000642
1.0000695
1.0000752
1.000081
1.0000872
1.0000936
1.0001002
1.0001069
1.0001135
1.0001201
1.0001265
1.0001324
1.0001378
1.0001424
1.0001461
1.0001486
1.0001498
1.0001496
1.0001477
1.0001441
1.0001388
1.0001317
1.000123
1.0001127
1.0001009
1.000088
1.000074
1.0000591
1.0000437
1.0000278
1.0000117
0.99999556
0.99997951
0.99996369
0.9999482
0.99993314
0.99991857
0.99990454
0.99989109
0.99987825
0.99986603
0.99985445
0.99984348
0.99983314
0.99982339
0.99981423
0.99980564
0.99979759
0.99979006
0.99978302
0.99977646
0.99977034
0.99976464
0.99975933
0.9997544
0.99974982
0.99974557
0.99974162
0.99973797
0.99973458
0.99973145
0.99972856
0.99972588
0.99972346
1.0000326
1.0000357
1.0000394
1.0000433
1.0000474
1.0000519
1.0000566
1.0000617
1.000067
1.0000727
1.0000787
1.000085
1.0000916
1.0000985
1.0001056
1.0001129
1.0001203
1.0001277
1.0001351
1.0001422
1.0001489
1.000155
1.0001604
1.0001647
1.0001678
1.0001695
1.0001694
1.0001676
1.0001637
1.0001578
1.0001497
1.0001396
1.0001275
1.0001135
1.0000979
1.0000809
1.0000628
1.0000438
1.0000241
1.0000041
0.99998395
0.99996386
0.99994403
0.99992459
0.99990567
0.99988737
0.99986976
0.99985289
0.99983679
0.9998215
0.99980701
0.99979331
0.99978041
0.99976827
0.99975688
0.99974621
0.99973623
0.9997269
0.9997182
0.99971009
0.99970254
0.99969552
0.99968899
0.99968292
0.9996773
0.99967208
0.99966724
0.99966276
0.99965861
0.99965477
0.99965123
0.99964795
0.99964492
0.99964217
1.0000361
1.0000396
1.0000436
1.000048
1.0000527
1.0000577
1.0000632
1.000069
1.0000752
1.0000818
1.0000888
1.0000962
1.0001039
1.0001119
1.0001202
1.0001286
1.0001373
1.0001459
1.0001544
1.0001626
1.0001703
1.0001774
1.0001835
1.0001885
1.000192
1.0001938
1.0001936
1.0001913
1.0001867
1.0001796
1.00017
1.0001579
1.0001434
1.0001268
1.0001082
1.0000879
1.0000661
1.0000433
1.0000196
0.99999553
0.99997119
0.9999469
0.99992287
0.99989929
0.99987631
0.99985406
0.99983262
0.99981207
0.99979246
0.9997738
0.99975612
0.99973941
0.99972365
0.99970883
0.99969492
0.99968188
0.99966969
0.9996583
0.99964768
0.99963778
0.99962856
0.99961998
0.99961202
0.99960462
0.99959776
0.99959139
0.99958549
0.99958003
0.99957497
0.99957029
0.99956597
0.99956197
0.99955827
0.99955489
1.0000381
1.0000418
1.0000461
1.0000508
1.0000558
1.0000613
1.0000672
1.0000735
1.0000803
1.0000875
1.0000952
1.0001034
1.0001119
1.0001208
1.0001301
1.0001396
1.0001493
1.000159
1.0001687
1.000178
1.0001869
1.0001951
1.0002023
1.0002082
1.0002126
1.0002152
1.0002157
1.0002138
1.0002093
1.0002022
1.0001923
1.0001797
1.0001644
1.0001466
1.0001266
1.0001046
1.000081
1.000056
1.00003
1.0000034
0.99997642
0.99994939
0.99992254
0.9998961
0.99987024
0.99984511
0.99982083
0.99979749
0.99977515
0.99975384
0.9997336
0.99971442
0.9996963
0.99967922
0.99966317
0.9996481
0.99963397
0.99962076
0.99960842
0.99959691
0.99958618
0.99957619
0.99956689
0.99955826
0.99955024
0.9995428
0.9995359
0.9995295
0.99952358
0.99951809
0.99951302
0.99950832
0.99950397
0.99949998
1.0000392
1.0000432
1.0000476
1.0000525
1.0000578
1.0000635
1.0000697
1.0000764
1.0000835
1.0000912
1.0000994
1.0001081
1.0001172
1.0001268
1.0001368
1.0001471
1.0001576
1.0001682
1.0001788
1.0001891
1.000199
1.0002082
1.0002164
1.0002234
1.0002288
1.0002322
1.0002336
1.0002324
1.0002286
1.000222
1.0002125
1.0002002
1.000185
1.0001671
1.0001469
1.0001244
1.0001002
1.0000745
1.0000476
1.00002
0.99999188
0.99996361
0.99993545
0.99990762
0.99988033
0.99985374
0.99982798
0.99980315
0.99977933
0.99975656
0.99973489
0.99971431
0.99969483
0.99967644
0.99965911
0.99964283
0.99962754
0.99961323
0.99959984
0.99958733
0.99957565
0.99956478
0.99955465
0.99954522
0.99953647
0.99952833
0.99952079
0.99951378
0.99950729
0.99950128
0.99949571
0.99949056
0.99948578
0.99948139
1.0000399
1.000044
1.0000486
1.0000536
1.000059
1.0000649
1.0000713
1.0000783
1.0000857
1.0000937
1.0001022
1.0001113
1.0001208
1.0001309
1.0001414
1.0001523
1.0001634
1.0001747
1.000186
1.0001971
1.0002078
1.0002178
1.0002269
1.0002347
1.0002409
1.0002453
1.0002474
1.0002471
1.0002441
1.0002382
1.0002293
1.0002175
1.0002027
1.0001853
1.0001653
1.0001431
1.0001189
1.0000932
1.0000663
1.0000385
1.0000102
0.99998165
0.99995315
0.99992493
0.9998972
0.99987014
0.99984388
0.99981853
0.99979417
0.99977087
0.99974864
0.99972752
0.9997075
0.99968858
0.99967074
0.99965395
0.99963819
0.9996234
0.99960956
0.99959662
0.99958454
0.99957328
0.99956278
0.99955301
0.99954392
0.99953548
0.99952764
0.99952037
0.99951362
0.99950737
0.99950157
0.99949621
0.99949123
0.99948666
1.0000403
1.0000445
1.0000492
1.0000543
1.0000599
1.0000659
1.0000725
1.0000796
1.0000872
1.0000954
1.0001042
1.0001135
1.0001234
1.0001338
1.0001447
1.000156
1.0001676
1.0001794
1.0001912
1.0002029
1.0002142
1.0002248
1.0002346
1.0002431
1.00025
1.0002551
1.000258
1.0002583
1.000256
1.0002507
1.0002425
1.0002312
1.0002171
1.0002001
1.0001806
1.0001587
1.000135
1.0001096
1.0000829
1.0000553
1.0000272
0.99999873
0.99997032
0.99994216
0.99991447
0.99988741
0.99986114
0.99983575
0.99981135
0.99978797
0.99976567
0.99974446
0.99972436
0.99970534
0.9996874
0.99967051
0.99965465
0.99963976
0.99962582
0.99961278
0.99960061
0.99958925
0.99957866
0.99956881
0.99955964
0.99955112
0.9995432
0.99953586
0.99952904
0.99952272
0.99951686
0.99951144
0.9995064
0.99950179
1.0000406
1.0000448
1.0000496
1.0000548
1.0000605
1.0000666
1.0000733
1.0000805
1.0000883
1.0000966
1.0001056
1.0001151
1.0001252
1.0001359
1.000147
1.0001587
1.0001706
1.0001828
1.000195
1.0002071
1.0002189
1.00023
1.0002403
1.0002494
1.0002568
1.0002625
1.0002659
1.0002668
1.000265
1.0002603
1.0002526
1.0002419
1.0002282
1.0002117
1.0001926
1.0001711
1.0001477
1.0001227
1.0000963
1.000069
1.0000411
1.0000129
0.9999847
0.99995673
0.9999292
0.9999023
0.99987616
0.9998509
0.9998266
0.99980332
0.9997811
0.99975997
0.99973993
0.99972097
0.99970309
0.99968625
0.99967042
0.99965557
0.99964166
0.99962865
0.9996165
0.99960516
0.9995946
0.99958476
0.9995756
0.99956709
0.99955919
0.99955185
0.99954504
0.99953873
0.99953288
0.99952746
0.99952243
0.99951782
1.0000408
1.0000451
1.0000499
1.0000552
1.0000609
1.0000671
1.0000739
1.0000812
1.0000891
1.0000976
1.0001066
1.0001163
1.0001266
1.0001375
1.0001488
1.0001607
1.0001729
1.0001853
1.0001979
1.0002103
1.0002224
1.0002339
1.0002446
1.0002541
1.000262
1.000268
1.0002719
1.0002733
1.0002719
1.0002676
1.0002603
1.00025
1.0002367
1.0002205
1.0002018
1.0001807
1.0001575
1.0001328
1.0001067
1.0000796
1.0000519
1.0000239
0.9999959
0.9999681
0.99994073
0.99991397
0.99988797
0.99986283
0.99983864
0.99981547
0.99979335
0.99977232
0.99975237
0.9997335
0.99971569
0.99969893
0.99968317
0.99966839
0.99965455
0.9996416
0.9996295
0.99961821
0.99960769
0.99959789
0.99958878
0.99958031
0.99957244
0.99956513
0.99955835
0.99955206
0.99954623
0.99954083
0.99953582
0.99953122
1.0000409
1.0000452
1.0000501
1.0000554
1.0000612
1.0000675
1.0000743
1.0000817
1.0000897
1.0000983
1.0001075
1.0001173
1.0001277
1.0001387
1.0001502
1.0001622
1.0001746
1.0001873
1.0002001
1.0002128
1.0002251
1.0002369
1.0002479
1.0002577
1.0002659
1.0002723
1.0002765
1.0002782
1.0002772
1.0002732
1.0002662
1.0002562
1.0002432
1.0002273
1.0002088
1.0001879
1.000165
1.0001404
1.0001145
1.0000876
1.0000601
1.0000322
1.0000043
0.99997666
0.9999494
0.99992275
0.99989684
0.9998718
0.99984771
0.99982463
0.9998026
0.99978164
0.99976175
0.99974294
0.99972518
0.99970846
0.99969274
0.999678
0.99966419
0.99965126
0.99963919
0.99962793
0.99961743
0.99960765
0.99959856
0.9995901
0.99958224
0.99957495
0.99956818
0.9995619
0.99955608
0.9995507
0.99954569
0.99954111
1.0000411
1.0000454
1.0000503
1.0000556
1.0000615
1.0000678
1.0000747
1.0000821
1.0000902
1.0000988
1.0001081
1.000118
1.0001285
1.0001396
1.0001513
1.0001635
1.000176
1.0001888
1.0002018
1.0002147
1.0002273
1.0002393
1.0002505
1.0002605
1.000269
1.0002756
1.00028
1.000282
1.0002812
1.0002775
1.0002708
1.000261
1.0002482
1.0002325
1.0002142
1.0001935
1.0001707
1.0001463
1.0001205
1.0000937
1.0000663
1.0000385
1.0000107
0.9999831
0.99995592
0.99992934
0.99990349
0.99987849
0.99985443
0.99983137
0.99980936
0.99978842
0.99976855
0.99974976
0.99973202
0.99971531
0.99969961
0.99968488
0.99967107
0.99965816
0.9996461
0.99963485
0.99962435
0.99961459
0.99960549
0.99959704
0.99958919
0.9995819
0.99957514
0.99956887
0.99956305
0.99955767
0.99955267
0.99954808
1.0000411
1.0000455
1.0000504
1.0000558
1.0000617
1.000068
1.000075
1.0000825
1.0000906
1.0000993
1.0001086
1.0001186
1.0001292
1.0001404
1.0001522
1.0001644
1.0001771
1.0001901
1.0002032
1.0002162
1.0002289
1.0002411
1.0002525
1.0002627
1.0002714
1.0002782
1.0002828
1.000285
1.0002844
1.0002809
1.0002743
1.0002647
1.0002521
1.0002366
1.0002184
1.0001978
1.0001752
1.0001508
1.0001251
1.0000984
1.0000711
1.0000434
1.0000156
0.99998805
0.9999609
0.99993433
0.99990849
0.9998835
0.99985945
0.9998364
0.9998144
0.99979346
0.99977359
0.9997548
0.99973706
0.99972035
0.99970465
0.99968991
0.99967611
0.9996632
0.99965113
0.99963988
0.99962938
0.99961961
0.99961052
0.99960206
0.99959421
0.99958692
0.99958015
0.99957388
0.99956806
0.99956268
0.99955768
0.9995531
1.0000412
1.0000456
1.0000505
1.0000559
1.0000618
1.0000682
1.0000752
1.0000827
1.0000909
1.0000996
1.0001091
1.0001191
1.0001298
1.0001411
1.0001529
1.0001653
1.000178
1.0001911
1.0002043
1.0002174
1.0002303
1.0002426
1.0002541
1.0002645
1.0002733
1.0002803
1.0002851
1.0002874
1.000287
1.0002836
1.0002772
1.0002678
1.0002553
1.0002399
1.0002218
1.0002014
1.0001788
1.0001546
1.0001289
1.0001023
1.000075
1.0000473
1.0000196
0.999992
0.99996485
0.99993829
0.99991245
0.99988746
0.9998634
0.99984035
0.99981833
0.99979738
0.99977751
0.99975871
0.99974096
0.99972424
0.99970853
0.99969379
0.99967998
0.99966706
0.99965499
0.99964373
0.99963323
0.99962345
0.99961435
0.99960589
0.99959803
0.99959074
0.99958397
0.99957769
0.99957187
0.99956648
0.99956148
0.99955689
1.0000413
1.0000456
1.0000506
1.0000561
1.000062
1.0000684
1.0000754
1.000083
1.0000912
1.0001
1.0001094
1.0001195
1.0001303
1.0001416
1.0001535
1.0001659
1.0001788
1.0001919
1.0002052
1.0002185
1.0002314
1.0002439
1.0002555
1.0002659
1.0002749
1.000282
1.0002869
1.0002894
1.0002891
1.0002859
1.0002797
1.0002703
1.000258
1.0002427
1.0002248
1.0002044
1.0001819
1.0001577
1.0001322
1.0001056
1.0000783
1.0000506
1.0000229
0.99999537
0.99996822
0.99994165
0.9999158
0.9998908
0.99986673
0.99984367
0.99982164
0.99980067
0.99978079
0.99976197
0.99974421
0.99972748
0.99971175
0.999697
0.99968318
0.99967024
0.99965816
0.99964689
0.99963638
0.99962659
0.99961749
0.99960902
0.99960115
0.99959385
0.99958707
0.99958079
0.99957497
0.99956957
0.99956457
0.99955997
1.0000413
1.0000457
1.0000507
1.0000562
1.0000621
1.0000686
1.0000756
1.0000832
1.0000914
1.0001003
1.0001097
1.0001199
1.0001307
1.0001421
1.000154
1.0001665
1.0001794
1.0001927
1.000206
1.0002193
1.0002324
1.0002449
1.0002566
1.0002672
1.0002762
1.0002834
1.0002885
1.0002911
1.000291
1.0002879
1.0002818
1.0002726
1.0002604
1.0002452
1.0002274
1.0002071
1.0001848
1.0001607
1.0001352
1.0001086
1.0000814
1.0000537
1.000026
0.99999848
0.99997133
0.99994475
0.99991889
0.99989388
0.99986979
0.99984671
0.99982466
0.99980368
0.99978377
0.99976493
0.99974715
0.99973041
0.99971466
0.99969989
0.99968605
0.99967311
0.99966101
0.99964972
0.9996392
0.9996294
0.99962029
0.99961181
0.99960393
0.99959662
0.99958984
0.99958355
0.99957771
0.99957231
0.9995673
0.9995627
1.0000414
1.0000458
1.0000508
1.0000563
1.0000622
1.0000687
1.0000757
1.0000834
1.0000916
1.0001005
1.00011
1.0001202
1.000131
1.0001425
1.0001545
1.000167
1.00018
1.0001933
1.0002067
1.0002201
1.0002332
1.0002458
1.0002576
1.0002682
1.0002774
1.0002847
1.0002899
1.0002926
1.0002926
1.0002897
1.0002837
1.0002747
1.0002626
1.0002477
1.00023
1.0002098
1.0001876
1.0001636
1.0001381
1.0001116
1.0000844
1.0000568
1.0000291
1.0000016
0.99997444
0.99994785
0.99992198
0.99989695
0.99987284
0.99984974
0.99982767
0.99980666
0.99978673
0.99976787
0.99975007
0.9997333
0.99971754
0.99970274
0.99968889
0.99967592
0.99966381
0.9996525
0.99964197
0.99963215
0.99962302
0.99961453
0.99960665
0.99959932
0.99959253
0.99958623
0.99958039
0.99957498
0.99956996
0.99956536
1.0000414
1.0000458
1.0000509
1.0000563
1.0000623
1.0000688
1.0000759
1.0000836
1.0000918
1.0001007
1.0001103
1.0001205
1.0001314
1.0001429
1.0001549
1.0001675
1.0001805
1.0001938
1.0002073
1.0002207
1.0002339
1.0002465
1.0002584
1.0002691
1.0002784
1.0002858
1.0002911
1.000294
1.0002942
1.0002914
1.0002857
1.0002768
1.0002649
1.0002501
1.0002326
1.0002126
1.0001905
1.0001666
1.0001412
1.0001148
1.0000877
1.0000601
1.0000324
1.0000049
0.99997777
0.99995117
0.99992529
0.99990024
0.99987612
0.99985298
0.99983088
0.99980985
0.99978989
0.999771
0.99975317
0.99973638
0.99972059