/*--------------------------------*- C++ -*----------------------------------*\
| =========                 |                                                 |
| \\      /  F ield         | OpenFOAM: The Open Source CFD Toolbox           |
|  \\    /   O peration     | Version:  v2006                                 |
|   \\  /    A nd           | Website:  www.openfoam.com                      |
|    \\/     M anipulation  |                                                 |
\*---------------------------------------------------------------------------*/
FoamFile
{
    version     2.0;
    format      ascii;
    class       volScalarField;
    location    "5000";
    object      TMean;
}
// * * * * * * * * * * * * * * * * * * * * * * * * * * * * * * * * * * * * * //

dimensions      [0 0 0 1 0 0 0];


internalField   nonuniform List<scalar> 
55713
(
1.0000085
1.0000104
1.0000113
1.0000116
1.0000118
1.0000119
1.000012
1.000012
1.000012
1.000012
1.0000121
1.0000121
1.0000121
1.0000121
1.0000121
1.0000121
1.0000121
1.0000121
1.0000121
1.0000122
1.0000122
1.0000122
1.0000122
1.0000122
1.0000122
1.0000122
1.0000122
1.0000122
1.0000122
1.0000122
1.0000122
1.0000122
1.0000122
1.0000122
1.0000122
1.0000122
1.0000122
1.0000122
1.0000122
1.0000121
1.0000121
1.0000121
1.0000121
1.0000121
1.0000121
1.0000121
1.0000121
1.0000121
1.000012
1.000012
1.000012
1.000012
1.000012
1.000012
1.000012
1.0000119
1.0000119
1.0000119
1.0000119
1.0000082
1.00001
1.0000107
1.000011
1.0000112
1.0000112
1.0000113
1.0000113
1.0000113
1.0000113
1.0000114
1.0000114
1.0000114
1.0000114
1.0000114
1.0000114
1.0000114
1.0000114
1.0000114
1.0000114
1.0000114
1.0000115
1.0000115
1.0000115
1.0000115
1.0000115
1.0000115
1.0000115
1.0000115
1.0000115
1.0000115
1.0000115
1.0000115
1.0000115
1.0000115
1.0000115
1.0000115
1.0000115
1.0000114
1.0000114
1.0000114
1.0000114
1.0000114
1.0000114
1.0000114
1.0000114
1.0000114
1.0000114
1.0000114
1.0000113
1.0000113
1.0000113
1.0000113
1.0000113
1.0000113
1.0000113
1.0000112
1.0000112
1.0000112
1.0000079
1.0000095
1.0000102
1.0000104
1.0000105
1.0000106
1.0000106
1.0000107
1.0000107
1.0000107
1.0000107
1.0000107
1.0000107
1.0000107
1.0000107
1.0000108
1.0000108
1.0000108
1.0000108
1.0000108
1.0000108
1.0000108
1.0000108
1.0000108
1.0000108
1.0000108
1.0000108
1.0000108
1.0000108
1.0000108
1.0000108
1.0000108
1.0000108
1.0000108
1.0000108
1.0000108
1.0000108
1.0000108
1.0000108
1.0000108
1.0000108
1.0000108
1.0000108
1.0000108
1.0000108
1.0000107
1.0000107
1.0000107
1.0000107
1.0000107
1.0000107
1.0000107
1.0000107
1.0000106
1.0000106
1.0000106
1.0000106
1.0000106
1.0000106
1.0000076
1.0000092
1.0000097
1.0000099
1.00001
1.0000101
1.0000101
1.0000101
1.0000101
1.0000101
1.0000101
1.0000102
1.0000102
1.0000102
1.0000102
1.0000102
1.0000102
1.0000102
1.0000102
1.0000102
1.0000102
1.0000102
1.0000102
1.0000102
1.0000103
1.0000103
1.0000103
1.0000103
1.0000103
1.0000103
1.0000103
1.0000103
1.0000103
1.0000103
1.0000103
1.0000102
1.0000102
1.0000102
1.0000102
1.0000102
1.0000102
1.0000102
1.0000102
1.0000102
1.0000102
1.0000102
1.0000102
1.0000102
1.0000102
1.0000101
1.0000101
1.0000101
1.0000101
1.0000101
1.0000101
1.0000101
1.0000101
1.0000101
1.00001
1.0000074
1.0000088
1.0000093
1.0000095
1.0000096
1.0000096
1.0000096
1.0000096
1.0000096
1.0000097
1.0000097
1.0000097
1.0000097
1.0000097
1.0000097
1.0000097
1.0000097
1.0000097
1.0000097
1.0000097
1.0000097
1.0000097
1.0000098
1.0000098
1.0000098
1.0000098
1.0000098
1.0000098
1.0000098
1.0000098
1.0000098
1.0000098
1.0000098
1.0000098
1.0000098
1.0000098
1.0000098
1.0000098
1.0000097
1.0000097
1.0000097
1.0000097
1.0000097
1.0000097
1.0000097
1.0000097
1.0000097
1.0000097
1.0000097
1.0000097
1.0000097
1.0000096
1.0000096
1.0000096
1.0000096
1.0000096
1.0000096
1.0000096
1.0000096
1.0000073
1.0000086
1.000009
1.0000091
1.0000092
1.0000092
1.0000092
1.0000092
1.0000092
1.0000092
1.0000092
1.0000093
1.0000093
1.0000093
1.0000093
1.0000093
1.0000093
1.0000093
1.0000093
1.0000093
1.0000093
1.0000093
1.0000093
1.0000093
1.0000093
1.0000093
1.0000093
1.0000093
1.0000093
1.0000093
1.0000093
1.0000093
1.0000093
1.0000093
1.0000093
1.0000093
1.0000093
1.0000093
1.0000093
1.0000093
1.0000093
1.0000093
1.0000093
1.0000093
1.0000093
1.0000093
1.0000093
1.0000093
1.0000093
1.0000092
1.0000092
1.0000092
1.0000092
1.0000092
1.0000092
1.0000092
1.0000092
1.0000092
1.0000092
1.0000072
1.0000083
1.0000087
1.0000088
1.0000088
1.0000088
1.0000088
1.0000089
1.0000089
1.0000089
1.0000089
1.0000089
1.0000089
1.0000089
1.0000089
1.0000089
1.0000089
1.0000089
1.0000089
1.0000089
1.0000089
1.000009
1.000009
1.000009
1.000009
1.000009
1.000009
1.000009
1.000009
1.000009
1.000009
1.000009
1.000009
1.000009
1.000009
1.000009
1.000009
1.000009
1.000009
1.0000089
1.0000089
1.0000089
1.0000089
1.0000089
1.0000089
1.0000089
1.0000089
1.0000089
1.0000089
1.0000089
1.0000089
1.0000089
1.0000089
1.0000089
1.0000088
1.0000088
1.0000088
1.0000088
1.0000088
1.0000071
1.0000081
1.0000084
1.0000085
1.0000085
1.0000085
1.0000085
1.0000085
1.0000086
1.0000086
1.0000086
1.0000086
1.0000086
1.0000086
1.0000086
1.0000086
1.0000086
1.0000086
1.0000086
1.0000086
1.0000086
1.0000086
1.0000086
1.0000086
1.0000086
1.0000086
1.0000086
1.0000086
1.0000086
1.0000086
1.0000086
1.0000086
1.0000086
1.0000086
1.0000086
1.0000086
1.0000086
1.0000086
1.0000086
1.0000086
1.0000086
1.0000086
1.0000086
1.0000086
1.0000086
1.0000086
1.0000086
1.0000086
1.0000086
1.0000086
1.0000086
1.0000086
1.0000086
1.0000085
1.0000085
1.0000085
1.0000085
1.0000085
1.0000085
1.0000071
1.000008
1.0000082
1.0000082
1.0000083
1.0000083
1.0000083
1.0000083
1.0000083
1.0000083
1.0000083
1.0000083
1.0000083
1.0000083
1.0000083
1.0000083
1.0000084
1.0000084
1.0000084
1.0000084
1.0000084
1.0000084
1.0000084
1.0000084
1.0000084
1.0000084
1.0000084
1.0000084
1.0000084
1.0000084
1.0000084
1.0000084
1.0000084
1.0000084
1.0000084
1.0000084
1.0000084
1.0000084
1.0000084
1.0000084
1.0000084
1.0000084
1.0000084
1.0000084
1.0000083
1.0000083
1.0000083
1.0000083
1.0000083
1.0000083
1.0000083
1.0000083
1.0000083
1.0000083
1.0000083
1.0000083
1.0000083
1.0000083
1.0000083
1.0000071
1.0000078
1.000008
1.000008
1.0000081
1.0000081
1.0000081
1.0000081
1.0000081
1.0000081
1.0000081
1.0000081
1.0000081
1.0000081
1.0000081
1.0000081
1.0000081
1.0000081
1.0000081
1.0000081
1.0000081
1.0000082
1.0000082
1.0000082
1.0000082
1.0000082
1.0000082
1.0000082
1.0000082
1.0000082
1.0000082
1.0000082
1.0000082
1.0000082
1.0000082
1.0000082
1.0000082
1.0000082
1.0000082
1.0000081
1.0000081
1.0000081
1.0000081
1.0000081
1.0000081
1.0000081
1.0000081
1.0000081
1.0000081
1.0000081
1.0000081
1.0000081
1.0000081
1.0000081
1.0000081
1.0000081
1.0000081
1.000008
1.000008
1.000007
1.0000077
1.0000078
1.0000078
1.0000078
1.0000078
1.0000078
1.0000078
1.0000078
1.0000079
1.0000079
1.0000079
1.0000079
1.0000079
1.0000079
1.0000079
1.0000079
1.0000079
1.0000079
1.0000079
1.0000079
1.0000079
1.0000079
1.0000079
1.0000079
1.0000079
1.0000079
1.0000079
1.0000079
1.0000079
1.0000079
1.0000079
1.0000079
1.0000079
1.0000079
1.0000079
1.0000079
1.0000079
1.0000079
1.0000079
1.0000079
1.0000079
1.0000079
1.0000079
1.0000079
1.0000079
1.0000079
1.0000079
1.0000079
1.0000079
1.0000078
1.0000078
1.0000078
1.0000078
1.0000078
1.0000078
1.0000078
1.0000078
1.0000078
1.0000072
1.0000077
1.0000077
1.0000077
1.0000078
1.0000078
1.0000078
1.0000078
1.0000078
1.0000078
1.0000078
1.0000078
1.0000078
1.0000078
1.0000078
1.0000078
1.0000078
1.0000078
1.0000078
1.0000078
1.0000078
1.0000078
1.0000078
1.0000078
1.0000078
1.0000078
1.0000078
1.0000078
1.0000078
1.0000078
1.0000078
1.0000078
1.0000078
1.0000078
1.0000078
1.0000078
1.0000078
1.0000078
1.0000078
1.0000078
1.0000078
1.0000078
1.0000078
1.0000078
1.0000078
1.0000078
1.0000078
1.0000078
1.0000078
1.0000078
1.0000078
1.0000078
1.0000078
1.0000077
1.0000077
1.0000077
1.0000077
1.0000077
1.0000077
1.000008
1.0000083
1.0000084
1.0000084
1.0000084
1.0000084
1.0000084
1.0000084
1.0000084
1.0000084
1.0000084
1.0000084
1.0000084
1.0000084
1.0000084
1.0000084
1.0000085
1.0000085
1.0000085
1.0000085
1.0000085
1.0000085
1.0000085
1.0000085
1.0000085
1.0000085
1.0000085
1.0000085
1.0000085
1.0000085
1.0000085
1.0000085
1.0000085
1.0000085
1.0000085
1.0000085
1.0000085
1.0000085
1.0000085
1.0000085
1.0000085
1.0000085
1.0000085
1.0000084
1.0000084
1.0000084
1.0000084
1.0000084
1.0000084
1.0000084
1.0000084
1.0000084
1.0000084
1.0000084
1.0000084
1.0000084
1.0000084
1.0000084
1.0000084
1.0000066
1.0000068
1.0000068
1.0000068
1.0000068
1.0000068
1.0000068
1.0000069
1.0000069
1.0000069
1.0000069
1.0000069
1.0000069
1.0000069
1.0000069
1.0000069
1.0000069
1.0000069
1.0000069
1.0000069
1.0000069
1.0000069
1.0000069
1.0000069
1.0000069
1.0000069
1.0000069
1.0000069
1.0000069
1.0000069
1.0000069
1.0000069
1.0000069
1.0000069
1.0000069
1.0000069
1.0000069
1.0000069
1.0000069
1.0000069
1.0000069
1.0000069
1.0000069
1.0000069
1.0000069
1.0000069
1.0000069
1.0000069
1.0000069
1.0000069
1.0000069
1.0000069
1.0000069
1.0000069
1.0000069
1.0000069
1.0000069
1.0000068
1.0000068
1.0000413
1.0000415
1.0000416
1.0000417
1.0000417
1.0000418
1.0000419
1.000042
1.000042
1.0000421
1.0000422
1.0000422
1.0000423
1.0000423
1.0000424
1.0000424
1.0000425
1.0000425
1.0000426
1.0000426
1.0000427
1.0000427
1.0000427
1.0000427
1.0000428
1.0000428
1.0000428
1.0000428
1.0000428
1.0000428
1.0000428
1.0000428
1.0000428
1.0000428
1.0000428
1.0000428
1.0000428
1.0000428
1.0000428
1.0000428
1.0000427
1.0000427
1.0000427
1.0000426
1.0000426
1.0000425
1.0000425
1.0000424
1.0000423
1.0000422
1.0000421
1.0000419
1.0000416
1.0000412
1.0000405
1.0000393
1.0000373
1.0000336
1.0000274
1.0000381
1.0000383
1.0000384
1.0000384
1.0000385
1.0000386
1.0000387
1.0000387
1.0000388
1.0000389
1.0000389
1.000039
1.000039
1.0000391
1.0000391
1.0000392
1.0000392
1.0000393
1.0000393
1.0000393
1.0000394
1.0000394
1.0000394
1.0000395
1.0000395
1.0000395
1.0000395
1.0000395
1.0000395
1.0000395
1.0000395
1.0000395
1.0000395
1.0000395
1.0000395
1.0000395
1.0000395
1.0000395
1.0000395
1.0000394
1.0000394
1.0000394
1.0000394
1.0000393
1.0000393
1.0000392
1.0000392
1.0000391
1.000039
1.0000389
1.0000388
1.0000386
1.0000384
1.000038
1.0000373
1.0000363
1.0000344
1.000031
1.0000253
1.000035
1.0000352
1.0000352
1.0000353
1.0000354
1.0000355
1.0000355
1.0000356
1.0000356
1.0000357
1.0000357
1.0000358
1.0000359
1.0000359
1.0000359
1.000036
1.000036
1.0000361
1.0000361
1.0000361
1.0000362
1.0000362
1.0000362
1.0000362
1.0000363
1.0000363
1.0000363
1.0000363
1.0000363
1.0000363
1.0000363
1.0000363
1.0000363
1.0000363
1.0000363
1.0000363
1.0000363
1.0000363
1.0000363
1.0000362
1.0000362
1.0000362
1.0000361
1.0000361
1.0000361
1.000036
1.000036
1.0000359
1.0000358
1.0000358
1.0000356
1.0000355
1.0000352
1.0000349
1.0000343
1.0000333
1.0000316
1.0000285
1.0000232
1.0000322
1.0000323
1.0000324
1.0000324
1.0000325
1.0000325
1.0000326
1.0000327
1.0000327
1.0000328
1.0000328
1.0000329
1.0000329
1.000033
1.000033
1.000033
1.0000331
1.0000331
1.0000331
1.0000332
1.0000332
1.0000332
1.0000333
1.0000333
1.0000333
1.0000333
1.0000333
1.0000333
1.0000333
1.0000333
1.0000333
1.0000333
1.0000333
1.0000333
1.0000333
1.0000333
1.0000333
1.0000333
1.0000333
1.0000333
1.0000332
1.0000332
1.0000332
1.0000331
1.0000331
1.0000331
1.000033
1.000033
1.0000329
1.0000328
1.0000327
1.0000326
1.0000323
1.000032
1.0000315
1.0000306
1.0000291
1.0000262
1.0000213
1.0000295
1.0000296
1.0000296
1.0000297
1.0000298
1.0000298
1.0000299
1.0000299
1.00003
1.00003
1.0000301
1.0000301
1.0000302
1.0000302
1.0000302
1.0000303
1.0000303
1.0000303
1.0000304
1.0000304
1.0000304
1.0000305
1.0000305
1.0000305
1.0000305
1.0000305
1.0000305
1.0000305
1.0000305
1.0000305
1.0000306
1.0000306
1.0000306
1.0000305
1.0000305
1.0000305
1.0000305
1.0000305
1.0000305
1.0000305
1.0000304
1.0000304
1.0000304
1.0000304
1.0000303
1.0000303
1.0000302
1.0000302
1.0000301
1.0000301
1.00003
1.0000298
1.0000296
1.0000293
1.0000289
1.0000281
1.0000267
1.0000241
1.0000196
1.000027
1.0000271
1.0000271
1.0000272
1.0000272
1.0000273
1.0000273
1.0000274
1.0000274
1.0000275
1.0000275
1.0000276
1.0000276
1.0000276
1.0000277
1.0000277
1.0000277
1.0000278
1.0000278
1.0000278
1.0000278
1.0000279
1.0000279
1.0000279
1.0000279
1.0000279
1.0000279
1.0000279
1.0000279
1.000028
1.000028
1.000028
1.000028
1.0000279
1.0000279
1.0000279
1.0000279
1.0000279
1.0000279
1.0000279
1.0000278
1.0000278
1.0000278
1.0000278
1.0000277
1.0000277
1.0000277
1.0000276
1.0000276
1.0000275
1.0000274
1.0000273
1.0000271
1.0000269
1.0000264
1.0000257
1.0000244
1.0000221
1.0000179
1.0000247
1.0000247
1.0000248
1.0000248
1.0000249
1.0000249
1.000025
1.000025
1.0000251
1.0000251
1.0000251
1.0000252
1.0000252
1.0000252
1.0000253
1.0000253
1.0000253
1.0000254
1.0000254
1.0000254
1.0000254
1.0000255
1.0000255
1.0000255
1.0000255
1.0000255
1.0000255
1.0000255
1.0000255
1.0000255
1.0000255
1.0000255
1.0000255
1.0000255
1.0000255
1.0000255
1.0000255
1.0000255
1.0000255
1.0000255
1.0000254
1.0000254
1.0000254
1.0000254
1.0000253
1.0000253
1.0000253
1.0000252
1.0000252
1.0000251
1.000025
1.0000249
1.0000248
1.0000246
1.0000242
1.0000235
1.0000224
1.0000202
1.0000164
1.0000225
1.0000226
1.0000226
1.0000227
1.0000227
1.0000227
1.0000228
1.0000228
1.0000229
1.0000229
1.0000229
1.000023
1.000023
1.000023
1.0000231
1.0000231
1.0000231
1.0000231
1.0000232
1.0000232
1.0000232
1.0000232
1.0000232
1.0000233
1.0000233
1.0000233
1.0000233
1.0000233
1.0000233
1.0000233
1.0000233
1.0000233
1.0000233
1.0000233
1.0000233
1.0000233
1.0000233
1.0000233
1.0000232
1.0000232
1.0000232
1.0000232
1.0000232
1.0000231
1.0000231
1.0000231
1.000023
1.000023
1.000023
1.0000229
1.0000228
1.0000228
1.0000226
1.0000224
1.0000221
1.0000215
1.0000205
1.0000185
1.000015
1.0000205
1.0000206
1.0000206
1.0000207
1.0000207
1.0000207
1.0000208
1.0000208
1.0000208
1.0000209
1.0000209
1.0000209
1.000021
1.000021
1.000021
1.000021
1.0000211
1.0000211
1.0000211
1.0000211
1.0000212
1.0000212
1.0000212
1.0000212
1.0000212
1.0000212
1.0000212
1.0000212
1.0000212
1.0000212
1.0000212
1.0000212
1.0000212
1.0000212
1.0000212
1.0000212
1.0000212
1.0000212
1.0000212
1.0000212
1.0000211
1.0000211
1.0000211
1.0000211
1.0000211
1.000021
1.000021
1.000021
1.0000209
1.0000209
1.0000208
1.0000207
1.0000206
1.0000205
1.0000202
1.0000197
1.0000188
1.000017
1.0000138
1.0000187
1.0000187
1.0000188
1.0000188
1.0000189
1.0000189
1.0000189
1.0000189
1.000019
1.000019
1.000019
1.0000191
1.0000191
1.0000191
1.0000191
1.0000192
1.0000192
1.0000192
1.0000192
1.0000192
1.0000193
1.0000193
1.0000193
1.0000193
1.0000193
1.0000193
1.0000193
1.0000193
1.0000193
1.0000193
1.0000193
1.0000193
1.0000193
1.0000193
1.0000193
1.0000193
1.0000193
1.0000193
1.0000193
1.0000193
1.0000193
1.0000192
1.0000192
1.0000192
1.0000192
1.0000191
1.0000191
1.0000191
1.0000191
1.000019
1.000019
1.0000189
1.0000188
1.0000187
1.0000184
1.000018
1.0000172
1.0000156
1.0000126
1.000017
1.0000171
1.0000171
1.0000171
1.0000172
1.0000172
1.0000172
1.0000172
1.0000173
1.0000173
1.0000173
1.0000174
1.0000174
1.0000174
1.0000174
1.0000174
1.0000175
1.0000175
1.0000175
1.0000175
1.0000175
1.0000175
1.0000176
1.0000176
1.0000176
1.0000176
1.0000176
1.0000176
1.0000176
1.0000176
1.0000176
1.0000176
1.0000176
1.0000176
1.0000176
1.0000176
1.0000176
1.0000176
1.0000175
1.0000175
1.0000175
1.0000175
1.0000175
1.0000175
1.0000174
1.0000174
1.0000174
1.0000174
1.0000173
1.0000173
1.0000173
1.0000172
1.0000171
1.000017
1.0000168
1.0000164
1.0000157
1.0000143
1.0000116
1.0000155
1.0000155
1.0000156
1.0000156
1.0000156
1.0000156
1.0000157
1.0000157
1.0000157
1.0000157
1.0000158
1.0000158
1.0000158
1.0000158
1.0000158
1.0000159
1.0000159
1.0000159
1.0000159
1.0000159
1.0000159
1.0000159
1.000016
1.000016
1.000016
1.000016
1.000016
1.000016
1.000016
1.000016
1.000016
1.000016
1.000016
1.000016
1.000016
1.000016
1.000016
1.000016
1.0000159
1.0000159
1.0000159
1.0000159
1.0000159
1.0000159
1.0000159
1.0000158
1.0000158
1.0000158
1.0000158
1.0000157
1.0000157
1.0000157
1.0000156
1.0000155
1.0000153
1.000015
1.0000144
1.0000131
1.0000106
1.0000141
1.0000141
1.0000141
1.0000142
1.0000142
1.0000142
1.0000142
1.0000143
1.0000143
1.0000143
1.0000143
1.0000143
1.0000144
1.0000144
1.0000144
1.0000144
1.0000144
1.0000144
1.0000144
1.0000145
1.0000145
1.0000145
1.0000145
1.0000145
1.0000145
1.0000145
1.0000145
1.0000145
1.0000145
1.0000145
1.0000145
1.0000145
1.0000145
1.0000145
1.0000145
1.0000145
1.0000145
1.0000145
1.0000145
1.0000145
1.0000145
1.0000144
1.0000144
1.0000144
1.0000144
1.0000144
1.0000144
1.0000144
1.0000143
1.0000143
1.0000143
1.0000142
1.0000142
1.0000141
1.000014
1.0000137
1.0000132
1.0000121
1.0000097
1.0000129
1.0000129
1.0000129
1.0000129
1.000013
1.000013
1.000013
1.000013
1.000013
1.0000131
1.0000131
1.0000131
1.0000131
1.0000131
1.0000131
1.0000132
1.0000132
1.0000132
1.0000132
1.0000132
1.0000132
1.0000132
1.0000132
1.0000132
1.0000132
1.0000132
1.0000132
1.0000132
1.0000132
1.0000132
1.0000132
1.0000132
1.0000132
1.0000132
1.0000132
1.0000132
1.0000132
1.0000132
1.0000132
1.0000132
1.0000132
1.0000132
1.0000132
1.0000132
1.0000132
1.0000131
1.0000131
1.0000131
1.0000131
1.0000131
1.000013
1.000013
1.000013
1.0000129
1.0000128
1.0000126
1.0000121
1.0000112
1.0000091
1.0000299
1.0000328
1.0000361
1.0000395
1.0000432
1.0000471
1.0000513
1.0000558
1.0000606
1.0000657
1.0000712
1.0000771
1.0000833
1.0000899
1.0000968
1.000104
1.0001114
1.000119
1.0001267
1.0001344
1.000142
1.0001492
1.000156
1.0001621
1.0001674
1.0001717
1.0001747
1.0001764
1.0001765
1.0001751
1.0001719
1.0001672
1.0001608
1.0001529
1.0001436
1.0001331
1.0001216
1.0001092
1.0000961
1.0000826
1.0000688
1.0000549
1.000041
1.0000273
1.0000137
1.0000005
0.99998774
0.9999754
0.99996354
0.99995219
0.99994138
0.9999311
0.99992137
0.99991217
0.99990349
0.99989533
0.99988767
0.99988048
0.99987375
0.99986746
0.99986158
0.99985609
0.99985098
0.99984621
0.99984178
0.99983766
0.99983383
0.99983027
0.99982697
0.99982391
0.99982107
0.99981845
0.99981602
0.99981382
1.0000366
1.00004
1.000044
1.0000482
1.0000527
1.0000576
1.0000627
1.0000683
1.0000741
1.0000803
1.0000869
1.0000939
1.0001012
1.0001088
1.0001167
1.0001249
1.0001333
1.0001418
1.0001502
1.0001586
1.0001666
1.0001742
1.0001811
1.0001872
1.0001921
1.0001956
1.0001976
1.0001979
1.0001963
1.0001928
1.0001872
1.0001797
1.0001702
1.000159
1.0001461
1.0001319
1.0001165
1.0001002
1.0000832
1.0000659
1.0000483
1.0000307
1.0000132
0.99999603
0.99997928
0.99996303
0.99994736
0.99993233
0.99991796
0.99990428
0.9998913
0.99987902
0.99986743
0.99985652
0.99984628
0.99983667
0.99982767
0.99981926
0.9998114
0.99980408
0.99979725
0.9997909
0.99978499
0.99977951
0.99977441
0.99976968
0.9997653
0.99976124
0.99975748
0.999754
0.99975079
0.99974783
0.99974508
0.99974259
1.0000405
1.0000443
1.0000487
1.0000534
1.0000585
1.000064
1.00007
1.0000763
1.0000831
1.0000903
1.0000979
1.000106
1.0001145
1.0001233
1.0001325
1.000142
1.0001517
1.0001615
1.0001713
1.0001809
1.0001901
1.0001988
1.0002066
1.0002135
1.000219
1.0002229
1.000225
1.0002251
1.000223
1.0002186
1.0002118
1.0002026
1.0001911
1.0001776
1.0001621
1.0001449
1.0001263
1.0001065
1.000086
1.0000649
1.0000435
1.000022
1.0000007
0.99997978
0.9999593
0.99993943
0.99992024
0.99990182
0.9998842
0.99986743
0.9998515
0.99983644
0.99982222
0.99980884
0.99979626
0.99978447
0.99977343
0.99976312
0.99975349
0.99974452
0.99973616
0.99972839
0.99972117
0.99971446
0.99970825
0.99970248
0.99969714
0.9996922
0.99968763
0.99968341
0.99967951
0.99967592
0.9996726
0.99966958
1.0000428
1.0000469
1.0000515
1.0000566
1.000062
1.000068
1.0000744
1.0000813
1.0000887
1.0000966
1.000105
1.0001139
1.0001232
1.0001331
1.0001433
1.0001539
1.0001648
1.0001758
1.0001868
1.0001977
1.0002082
1.0002181
1.0002272
1.0002352
1.0002418
1.0002467
1.0002496
1.0002503
1.0002486
1.0002444
1.0002376
1.0002281
1.0002161
1.0002017
1.0001851
1.0001665
1.0001463
1.0001248
1.0001022
1.000079
1.0000553
1.0000314
1.0000076
0.99998413
0.99996109
0.99993865
0.99991693
0.999896
0.99987594
0.99985678
0.99983856
0.99982128
0.99980493
0.99978952
0.99977501
0.99976139
0.99974862
0.99973667
0.9997255
0.99971508
0.99970537
0.99969633
0.99968793
0.99968012
0.99967288
0.99966616
0.99965993
0.99965417
0.99964884
0.99964391
0.99963936
0.99963517
0.99963128
0.99962774
1.0000442
1.0000484
1.0000533
1.0000586
1.0000643
1.0000705
1.0000772
1.0000845
1.0000923
1.0001006
1.0001096
1.000119
1.0001291
1.0001396
1.0001507
1.0001621
1.0001739
1.0001859
1.0001979
1.0002098
1.0002214
1.0002325
1.0002427
1.0002518
1.0002595
1.0002655
1.0002694
1.0002711
1.0002702
1.0002667
1.0002604
1.0002514
1.0002397
1.0002254
1.0002088
1.00019
1.0001695
1.0001475
1.0001243
1.0001002
1.0000756
1.0000508
1.0000259
1.0000013
0.99997704
0.99995337
0.99993038
0.99990819
0.99988686
0.99986645
0.99984698
0.99982849
0.99981097
0.99979442
0.99977881
0.99976414
0.99975036
0.99973745
0.99972537
0.99971409
0.99970357
0.99969376
0.99968463
0.99967615
0.99966827
0.99966095
0.99965417
0.99964789
0.99964208
0.9996367
0.99963173
0.99962714
0.99962289
0.999619
1.000045
1.0000494
1.0000544
1.0000598
1.0000657
1.0000721
1.0000791
1.0000866
1.0000947
1.0001034
1.0001127
1.0001226
1.0001331
1.0001442
1.0001558
1.0001678
1.0001803
1.000193
1.0002058
1.0002186
1.000231
1.000243
1.0002542
1.0002642
1.0002729
1.0002798
1.0002847
1.0002873
1.0002873
1.0002847
1.0002792
1.0002708
1.0002597
1.000246
1.0002298
1.0002114
1.0001912
1.0001693
1.0001462
1.0001222
1.0000975
1.0000725
1.0000475
1.0000226
0.99999811
0.99997411
0.99995078
0.99992821
0.99990648
0.99988566
0.99986578
0.99984687
0.99982893
0.99981196
0.99979595
0.99978088
0.99976672
0.99975344
0.999741
0.99972938
0.99971853
0.99970841
0.99969899
0.99969022
0.99968207
0.99967451
0.9996675
0.99966099
0.99965497
0.9996494
0.99964424
0.99963948
0.99963506
0.99963103
1.0000455
1.00005
1.0000551
1.0000607
1.0000667
1.0000733
1.0000804
1.0000881
1.0000964
1.0001053
1.0001149
1.0001251
1.0001359
1.0001474
1.0001594
1.0001719
1.0001849
1.0001981
1.0002115
1.0002249
1.0002381
1.0002507
1.0002627
1.0002735
1.0002829
1.0002907
1.0002963
1.0002997
1.0003005
1.0002986
1.0002939
1.0002862
1.0002758
1.0002627
1.000247
1.0002292
1.0002094
1.0001879
1.0001652
1.0001415
1.0001171
1.0000924
1.0000675
1.0000428
1.0000184
0.99999452
0.99997126
0.99994875
0.99992706
0.99990625
0.99988638
0.99986746
0.9998495
0.9998325
0.99981646
0.99980135
0.99978714
0.99977382
0.99976134
0.99974966
0.99973876
0.9997286
0.99971912
0.99971031
0.99970212
0.99969451
0.99968745
0.9996809
0.99967484
0.99966922
0.99966403
0.99965923
0.99965478
0.99965071
1.0000459
1.0000504
1.0000557
1.0000613
1.0000674
1.0000741
1.0000814
1.0000892
1.0000977
1.0001068
1.0001165
1.0001269
1.000138
1.0001497
1.0001621
1.0001749
1.0001882
1.0002019
1.0002158
1.0002296
1.0002433
1.0002565
1.000269
1.0002804
1.0002905
1.0002988
1.0003052
1.0003092
1.0003106
1.0003093
1.0003052
1.0002981
1.0002883
1.0002757
1.0002605
1.0002432
1.0002238
1.0002028
1.0001804
1.0001571
1.000133
1.0001086
1.000084
1.0000596
1.0000354
1.0000117
0.99998865
0.99996631
0.99994478
0.99992412
0.99990438
0.99988558
0.99986773
0.99985083
0.99983488
0.99981985
0.99980572
0.99979246
0.99978004
0.99976842
0.99975757
0.99974745
0.99973802
0.99972924
0.99972108
0.9997135
0.99970647
0.99969995
0.99969391
0.99968831
0.99968313
0.99967834
0.99967391
0.99966985
1.0000461
1.0000507
1.000056
1.0000617
1.0000679
1.0000747
1.0000821
1.00009
1.0000986
1.0001078
1.0001177
1.0001283
1.0001396
1.0001515
1.0001641
1.0001772
1.0001908
1.0002048
1.000219
1.0002332
1.0002473
1.0002609
1.0002738
1.0002857
1.0002962
1.000305
1.0003118
1.0003164
1.0003183
1.0003175
1.0003138
1.0003072
1.0002978
1.0002856
1.0002709
1.0002539
1.0002349
1.0002142
1.0001922
1.0001691
1.0001453
1.0001211
1.0000968
1.0000726
1.0000486
1.0000251
1.0000022
0.99998003
0.99995865
0.99993812
0.99991851
0.99989983
0.99988209
0.9998653
0.99984945
0.99983451
0.99982047
0.99980729
0.99979495
0.9997834
0.99977262
0.99976256
0.99975319
0.99974446
0.99973635
0.99972882
0.99972183
0.99971535
0.99970934
0.99970378
0.99969863
0.99969387
0.99968946
0.99968543
1.0000463
1.000051
1.0000563
1.000062
1.0000683
1.0000752
1.0000826
1.0000906
1.0000993
1.0001087
1.0001187
1.0001294
1.0001408
1.0001529
1.0001657
1.000179
1.0001928
1.000207
1.0002214
1.000236
1.0002503
1.0002642
1.0002775
1.0002897
1.0003006
1.0003098
1.000317
1.0003219
1.0003242
1.0003237
1.0003204
1.0003142
1.0003051
1.0002933
1.0002788
1.0002621
1.0002434
1.0002229
1.0002011
1.0001782
1.0001547
1.0001306
1.0001065
1.0000824
1.0000585
1.0000352
1.0000124
0.99999033
0.99996906
0.99994864
0.99992912
0.99991053
0.99989288
0.99987616
0.99986038
0.9998455
0.99983152
0.99981839
0.99980609
0.99979459
0.99978384
0.99977382
0.99976448
0.99975579
0.99974771
0.9997402
0.99973323
0.99972677
0.99972078
0.99971524
0.9997101
0.99970536
0.99970097
0.99969695
1.0000464
1.0000511
1.0000565
1.0000623
1.0000686
1.0000755
1.000083
1.0000911
1.0000999
1.0001093
1.0001194
1.0001303
1.0001418
1.000154
1.0001669
1.0001804
1.0001944
1.0002088
1.0002234
1.0002381
1.0002527
1.0002669
1.0002804
1.0002929
1.000304
1.0003135
1.000321
1.0003261
1.0003288
1.0003286
1.0003256
1.0003196
1.0003108
1.0002991
1.0002849
1.0002684
1.0002499
1.0002296
1.0002079
1.0001852
1.0001617
1.0001378
1.0001138
1.0000897
1.000066
1.0000427
1.00002
0.99999802
0.99997679
0.99995642
0.99993694
0.99991838
0.99990076
0.99988407
0.99986831
0.99985346
0.99983949
0.99982638
0.9998141
0.99980262
0.99979189
0.99978188
0.99977256
0.99976388
0.99975581
0.99974831
0.99974136
0.99973491
0.99972893
0.99972339
0.99971827
0.99971354
0.99970915
0.99970515
1.0000465
1.0000513
1.0000566
1.0000625
1.0000689
1.0000758
1.0000834
1.0000915
1.0001003
1.0001099
1.0001201
1.000131
1.0001426
1.0001549
1.0001679
1.0001815
1.0001957
1.0002102
1.000225
1.0002399
1.0002546
1.000269
1.0002827
1.0002954
1.0003067
1.0003164
1.0003241
1.0003295
1.0003324
1.0003324
1.0003296
1.0003238
1.0003152
1.0003038
1.0002897
1.0002734
1.0002549
1.0002348
1.0002132
1.0001906
1.0001672
1.0001434
1.0001194
1.0000954
1.0000717
1.0000485
1.0000258
1.0000038
0.99998259
0.99996223
0.99994277
0.99992422
0.9999066
0.99988992
0.99987417
0.99985932
0.99984536
0.99983226
0.99981999
0.9998085
0.99979778
0.99978777
0.99977845
0.99976978
0.99976171
0.99975422
0.99974727
0.99974082
0.99973484
0.99972931
0.9997242
0.99971947
0.99971509
0.99971109
1.0000466
1.0000514
1.0000568
1.0000627
1.0000691
1.0000761
1.0000836
1.0000919
1.0001007
1.0001103
1.0001206
1.0001316
1.0001433
1.0001557
1.0001688
1.0001825
1.0001967
1.0002114
1.0002263
1.0002413
1.0002562
1.0002707
1.0002846
1.0002974
1.0003089
1.0003188
1.0003267
1.0003323
1.0003353
1.0003355
1.0003329
1.0003273
1.0003188
1.0003075
1.0002936
1.0002773
1.000259
1.000239
1.0002175
1.0001949
1.0001716
1.0001478
1.0001238
1.0000999
1.0000762
1.000053
1.0000303
1.0000083
0.99998712
0.99996677
0.9999473
0.99992875
0.99991113
0.99989444
0.99987869
0.99986384
0.99984987
0.99983677
0.99982449
0.99981301
0.99980228
0.99979228
0.99978296
0.99977428
0.99976621
0.99975872
0.99975177
0.99974532
0.99973935
0.99973382
0.99972871
0.99972398
0.9997196
0.9997156
1.0000467
1.0000515
1.0000569
1.0000628
1.0000692
1.0000763
1.0000839
1.0000921
1.0001011
1.0001107
1.000121
1.0001321
1.0001439
1.0001563
1.0001695
1.0001833
1.0001976
1.0002123
1.0002274
1.0002425
1.0002575
1.0002721
1.0002861
1.0002991
1.0003108
1.0003208
1.0003288
1.0003345
1.0003377
1.0003381
1.0003356
1.0003301
1.0003218
1.0003106
1.0002969
1.0002807
1.0002625
1.0002425
1.0002211
1.0001986
1.0001753
1.0001515
1.0001276
1.0001037
1.00008
1.0000568
1.0000341
1.0000121
0.99999089
0.99997053
0.99995105
0.99993249
0.99991487
0.99989817
0.99988241
0.99986755
0.99985358
0.99984047
0.99982819
0.9998167
0.99980597
0.99979596
0.99978663
0.99977795
0.99976989
0.99976239
0.99975544
0.99974899
0.99974302
0.99973749
0.99973237
0.99972764
0.99972326
0.99971926
1.0000467
1.0000515
1.000057
1.0000629
1.0000694
1.0000764
1.0000841
1.0000924
1.0001014
1.000111
1.0001214
1.0001325
1.0001443
1.0001569
1.0001701
1.000184
1.0001984
1.0002132
1.0002283
1.0002435
1.0002586
1.0002733
1.0002874
1.0003005
1.0003123
1.0003224
1.0003306
1.0003364
1.0003397
1.0003403
1.0003379
1.0003326
1.0003244
1.0003134
1.0002997
1.0002837
1.0002656
1.0002457
1.0002243
1.0002019
1.0001786
1.0001549
1.000131
1.0001071
1.0000834
1.0000602
1.0000375
1.0000155
0.99999428
0.9999739
0.99995441
0.99993584
0.9999182
0.9999015
0.99988572
0.99987085
0.99985687
0.99984375
0.99983146
0.99981996
0.99980923
0.99979921
0.99978988
0.99978119
0.99977312
0.99976562
0.99975866
0.99975221
0.99974623
0.9997407
0.99973558
0.99973085
0.99972647
0.99972247
1.0000468
1.0000516
1.0000571
1.0000631
1.0000695
1.0000766
1.0000843
1.0000926
1.0001016
1.0001113
1.0001217
1.0001329
1.0001448
1.0001574
1.0001707
1.0001846
1.000199
1.0002139
1.0002291
1.0002443
1.0002595
1.0002743
1.0002885
1.0003017
1.0003136
1.0003238
1.0003321
1.0003381
1.0003415
1.0003422
1.00034
1.0003349
1.0003268
1.000316
1.0003025
1.0002865
1.0002685
1.0002487
1.0002274
1.0002051
1.0001819
1.0001582
1.0001343
1.0001104
1.0000867
1.0000635
1.0000408
1.0000188
0.99999757
0.99997718
0.99995767
0.99993909
0.99992144
0.99990472
0.99988892
0.99987404
0.99986005
0.99984692
0.99983461
0.99982311
0.99981236
0.99980233
0.99979299
0.9997843
0.99977622
0.99976871
0.99976175
0.99975529
0.99974931
0.99974377
0.99973865
0.99973392
0.99972953
0.99972553
1.0000468
1.0000517
1.0000572
1.0000632
1.0000697
1.0000768
1.0000845
1.0000928
1.0001019
1.0001116
1.0001221
1.0001332
1.0001452
1.0001578
1.0001711
1.0001851
1.0001996
1.0002145
1.0002297
1.0002451
1.0002603
1.0002752
1.0002894
1.0003027
1.0003147
1.000325
1.0003334
1.0003396
1.0003432
1.0003441
1.000342
1.0003371
1.0003292
1.0003185
1.0003052
1.0002894
1.0002715
1.0002518
1.0002307
1.0002083
1.0001852
1.0001616
1.0001377
1.0001138
1.0000902
1.0000669
1.0000443
1.0000223
1.000001
0.9999806
0.99996108
0.99994248
0.99992481
0.99990807
0.99989226
0.99987736
0.99986335