/*--------------------------------*- C++ -*----------------------------------*\
| =========                 |                                                 |
| \\      /  F ield         | OpenFOAM: The Open Source CFD Toolbox           |
|  \\    /   O peration     | Version:  v2006                                 |
|   \\  /    A nd           | Website:  www.openfoam.com                      |
|    \\/     M anipulation  |                                                 |
\*---------------------------------------------------------------------------*/
FoamFile
{
    version     2.0;
    format      ascii;
    class       volVectorField;
    location    "5000";
    object      U;
}
// * * * * * * * * * * * * * * * * * * * * * * * * * * * * * * * * * * * * * //

dimensions      [0 1 -1 0 0 0 0];


internalField   nonuniform List<vector> 
55713
(
(0.10319454 6.7463046e-07 0)
(0.10312063 -2.8166278e-07 0)
(0.103099 9.0813158e-07 2.5730246e-18)
(0.1030912 7.7469284e-07 -2.56767e-18)
(0.10308794 1.4147283e-06 2.5866096e-18)
(0.10308639 1.5774864e-06 1.742167e-27)
(0.10308553 2.0324949e-06 -2.6475544e-18)
(0.10308498 2.2337964e-06 0)
(0.10308458 2.6217185e-06 1.0669983e-20)
(0.10308424 2.8510608e-06 0)
(0.10308395 3.1720535e-06 -1.1044934e-20)
(0.10308368 3.4024051e-06 -1.1242313e-20)
(0.10308343 3.6825732e-06 0)
(0.1030832 3.9072678e-06 2.9821794e-18)
(0.10308298 4.1622981e-06 -3.0353822e-18)
(0.10308277 4.3773218e-06 -6.0335228e-21)
(0.10308257 4.6195349e-06 3.1495981e-18)
(0.10308238 4.8271e-06 -3.1981993e-18)
(0.10308221 5.0493198e-06 6.3541907e-21)
(0.10308205 5.2458435e-06 -3.308875e-18)
(0.10308191 5.4577709e-06 3.3581756e-18)
(0.10308177 5.6556683e-06 0)
(0.10308165 5.8656109e-06 0)
(0.10308154 6.0751316e-06 -1.7739665e-18)
(0.10308145 6.2865063e-06 1.7955179e-18)
(0.10308137 6.4907818e-06 0)
(0.10308132 6.696931e-06 0)
(0.10308127 6.899923e-06 0)
(0.10308125 7.1074081e-06 2.3868269e-19)
(0.10308124 7.3077728e-06 -6.4241623e-29)
(0.10308126 7.5155044e-06 -2.4151867e-19)
(0.1030813 7.7141836e-06 0)
(0.10308136 7.9146427e-06 0)
(0.10308143 8.1076448e-06 0)
(0.10308152 8.3175602e-06 0)
(0.10308163 8.5242282e-06 1.7882492e-18)
(0.10308175 8.7353413e-06 -1.7526698e-18)
(0.10308189 8.9425526e-06 -3.4618894e-18)
(0.10308204 9.1631167e-06 1.558486e-27)
(0.1030822 9.3794454e-06 3.3417666e-18)
(0.10308238 9.6079959e-06 0)
(0.10308256 9.8319126e-06 6.3203357e-21)
(0.10308277 1.0068038e-05 -3.1804314e-18)
(0.10308298 1.0298698e-05 3.1252691e-18)
(0.10308321 1.0545414e-05 3.0705779e-18)
(0.10308344 1.0785888e-05 -3.0223086e-18)
(0.1030837 1.1045246e-05 0)
(0.10308396 1.1296656e-05 0)
(0.10308424 1.1572953e-05 -2.8469031e-18)
(0.10308453 1.1839895e-05 2.8071334e-18)
(0.10308484 1.2136492e-05 0)
(0.10308516 1.2420721e-05 0)
(0.10308551 1.2743012e-05 0)
(0.10308587 1.3048362e-05 0)
(0.10308627 1.3407287e-05 2.5790369e-18)
(0.10308668 1.3732968e-05 -3.673066e-27)
(0.10308713 1.4137958e-05 -3.767353e-18)
(0.1030876 1.4553685e-05 1.2244026e-18)
(0.10308816 1.4739853e-05 -1.9204766e-20)
(0.10320304 1.0913376e-06 0)
(0.10313654 -2.0388369e-07 2.4234684e-18)
(0.10311803 1.0623723e-06 -2.5125039e-18)
(0.1031116 7.8148219e-07 3.9384221e-20)
(0.10310899 1.3639289e-06 -2.5510311e-18)
(0.10310776 1.4674633e-06 5.1552749e-18)
(0.10310707 1.843626e-06 4.2710399e-27)
(0.10310661 2.041841e-06 -2.676893e-18)
(0.10310625 2.3811236e-06 -1.0650115e-20)
(0.10310595 2.5801394e-06 2.1702261e-20)
(0.10310568 2.8839895e-06 -2.8195893e-18)
(0.10310543 3.0680533e-06 2.8955645e-18)
(0.1031052 3.3438938e-06 2.9385863e-18)
(0.10310497 3.5230056e-06 2.3517095e-27)
(0.10310476 3.7804777e-06 1.8911427e-27)
(0.10310456 3.9509182e-06 -3.0979743e-18)
(0.10310437 4.1742541e-06 -6.1715868e-21)
(0.10310419 4.3200212e-06 0)
(0.10310403 4.4960239e-06 3.265933e-18)
(0.10310387 4.6234979e-06 -6.6579465e-18)
(0.10310373 4.8140878e-06 3.3925027e-18)
(0.10310359 5.0062724e-06 1.3449462e-20)
(0.10310347 5.2395011e-06 0)
(0.10310337 5.4603934e-06 6.9494766e-21)
(0.10310328 5.6703624e-06 0)
(0.1031032 5.8531834e-06 9.0412602e-19)
(0.10310313 6.0369937e-06 -1.8659591e-18)
(0.10310309 6.2153592e-06 9.3266597e-19)
(0.10310306 6.3999917e-06 2.40479e-19)
(0.10310305 6.5562771e-06 -2.5876993e-19)
(0.10310305 6.7017563e-06 0)
(0.10310308 6.8334835e-06 9.4241074e-19)
(0.10310313 6.9791194e-06 -1.8854921e-18)
(0.10310319 7.1284764e-06 9.2810335e-19)
(0.10310326 7.3350992e-06 0)
(0.10310335 7.5389989e-06 1.7977146e-18)
(0.10310346 7.7377996e-06 -1.7754826e-18)
(0.10310358 7.9109978e-06 1.3590086e-20)
(0.10310371 8.1038806e-06 0)
(0.10310385 8.286323e-06 6.5695035e-21)
(0.10310401 8.494681e-06 3.3062055e-18)
(0.10310417 8.6903043e-06 -6.5045066e-18)
(0.10310435 8.9052218e-06 -1.0286125e-27)
(0.10310453 9.100882e-06 3.1356048e-18)
(0.10310473 9.32424e-06 -3.0792742e-18)
(0.10310494 9.5275547e-06 6.0523821e-18)
(0.10310516 9.7595547e-06 -5.9350693e-18)
(0.10310539 9.9669435e-06 2.9122076e-18)
(0.10310563 1.02197e-05 -1.1161435e-20)
(0.10310588 1.0446296e-05 0)
(0.10310615 1.0720409e-05 0)
(0.10310642 1.096106e-05 0)
(0.10310672 1.1260612e-05 -2.6653525e-18)
(0.10310702 1.1520655e-05 2.6145066e-18)
(0.10310736 1.1852987e-05 0)
(0.1031077 1.2121282e-05 3.9045661e-20)
(0.10310808 1.2524728e-05 0)
(0.10310846 1.2801292e-05 1.8867913e-20)
(0.10310892 1.3244094e-05 1.8496388e-20)
(0.10321105 1.3126961e-06 0)
(0.10315129 -2.3580718e-07 3.7339168e-20)
(0.10313553 1.0265767e-06 -3.8049497e-20)
(0.1031303 6.8506801e-07 -3.867291e-20)
(0.10312824 1.2149003e-06 -2.5559992e-18)
(0.10312727 1.3078204e-06 2.5830986e-18)
(0.10312671 1.6361953e-06 0)
(0.10312633 1.815232e-06 2.0834032e-20)
(0.10312603 2.0999459e-06 -5.4432741e-18)
(0.10312576 2.2735918e-06 5.5115998e-18)
(0.10312551 2.5292471e-06 0)
(0.10312528 2.6857877e-06 -2.2582999e-20)
(0.10312507 2.9118094e-06 0)
(0.10312486 3.056816e-06 2.9810492e-18)
(0.10312466 3.2662568e-06 -6.1232285e-18)
(0.10312448 3.4146032e-06 3.1187909e-18)
(0.1031243 3.6155465e-06 -3.1636594e-18)
(0.10312413 3.7591033e-06 -3.1788986e-27)
(0.10312397 3.9301551e-06 3.2909911e-18)
(0.10312382 4.0486488e-06 -3.3486882e-18)
(0.10312369 4.1883272e-06 -3.4558797e-27)
(0.10312356 4.2993769e-06 3.4646501e-18)
(0.10312345 4.448605e-06 0)
(0.10312334 4.5941476e-06 1.7767209e-18)
(0.10312325 4.7784312e-06 1.2171118e-27)
(0.10312318 4.9479828e-06 -1.8205475e-18)
(0.10312312 5.1372422e-06 -1.4678777e-20)
(0.10312307 5.3036516e-06 4.9198812e-19)
(0.10312304 5.4888102e-06 -4.8442002e-19)
(0.10312302 5.6439516e-06 2.4516051e-19)
(0.10312302 5.8117877e-06 -2.4441498e-19)
(0.10312304 5.9469412e-06 3.0089271e-20)
(0.10312308 6.1058832e-06 0)
(0.10312313 6.2426193e-06 1.4580585e-20)
(0.10312319 6.4106529e-06 -1.4348706e-20)
(0.10312327 6.5531242e-06 -1.4117294e-20)
(0.10312336 6.7234586e-06 -1.3886507e-20)
(0.10312346 6.8662749e-06 -1.3656451e-20)
(0.10312358 7.0475365e-06 3.4239079e-18)
(0.1031237 7.2065138e-06 -3.3788035e-18)
(0.10312383 7.4090143e-06 0)
(0.10312398 7.5726055e-06 3.2622195e-18)
(0.10312413 7.7704023e-06 -3.1916067e-18)
(0.10312429 7.9138969e-06 3.170702e-18)
(0.10312447 8.1048243e-06 -3.0881971e-18)
(0.10312465 8.2474138e-06 -3.0066491e-18)
(0.10312484 8.4602174e-06 -2.2081309e-27)
(0.10312504 8.6209502e-06 2.8919174e-18)
(0.10312525 8.8590746e-06 2.2319652e-20)
(0.10312546 9.0323723e-06 0)
(0.10312569 9.2910562e-06 0)
(0.10312592 9.4762578e-06 0)
(0.10312618 9.7578774e-06 2.0521086e-20)
(0.10312643 9.9606979e-06 -2.0075178e-20)
(0.10312671 1.0278287e-05 0)
(0.10312699 1.0483059e-05 2.4566801e-18)
(0.1031273 1.0881918e-05 -2.4010701e-18)
(0.10312762 1.1079003e-05 0)
(0.10312798 1.1558401e-05 0)
(0.10321749 1.3491684e-06 6.8437279e-20)
(0.10316386 -2.3434028e-07 -7.2527651e-20)
(0.10315056 9.3533003e-07 -2.3422377e-18)
(0.10314634 6.2106388e-07 2.4310516e-18)
(0.10314473 1.0812638e-06 3.8804477e-20)
(0.10314397 1.172984e-06 0)
(0.10314352 1.4488541e-06 -2.5974344e-18)
(0.1031432 1.6090193e-06 7.9501276e-18)
(0.10314294 1.8472599e-06 -1.0868143e-17)
(0.1031427 2.0013087e-06 5.5760817e-18)
(0.10314248 2.2205679e-06 -2.8371852e-18)
(0.10314227 2.3615067e-06 2.2632234e-20)
(0.10314206 2.555315e-06 5.9127572e-18)
(0.10314187 2.6772838e-06 -2.9920083e-18)
(0.10314169 2.8482514e-06 0)
(0.10314151 2.963771e-06 0)
(0.10314135 3.12976e-06 -1.2468758e-20)
(0.10314119 3.2518006e-06 0)
(0.10314104 3.4141385e-06 0)
(0.1031409 3.5317548e-06 2.6311595e-20)
(0.10314077 3.6766103e-06 -1.3385323e-20)
(0.10314065 3.7826596e-06 -2.7230784e-20)
(0.10314054 3.9186829e-06 -1.7723001e-18)
(0.10314044 4.0300105e-06 1.8159974e-18)
(0.10314036 4.1752614e-06 1.4309584e-20)
(0.10314028 4.297791e-06 -1.45423e-20)
(0.10314022 4.4501278e-06 9.6040031e-19)
(0.10314017 4.5771798e-06 -9.6054954e-19)
(0.10314014 4.735918e-06 1.5241418e-20)
(0.10314012 4.8698356e-06 -2.3128996e-19)
(0.10314012 5.0327295e-06 -2.4579955e-19)
(0.10314013 5.1613362e-06 4.6895828e-19)
(0.10314016 5.3140224e-06 0)
(0.1031402 5.4267453e-06 -1.8907933e-18)
(0.10314026 5.5669861e-06 1.4422507e-20)
(0.10314032 5.6737299e-06 3.6605629e-18)
(0.1031404 5.8206716e-06 -1.7722343e-18)
(0.10314049 5.9409716e-06 0)
(0.10314059 6.1061953e-06 1.3489258e-20)
(0.1031407 6.2371268e-06 0)
(0.10314082 6.4064504e-06 0)
(0.10314095 6.5275627e-06 2.5588712e-20)
(0.10314108 6.6889071e-06 -1.2562886e-20)
(0.10314123 6.8036102e-06 -3.1814216e-18)
(0.10314138 6.9764923e-06 3.097287e-18)
(0.10314154 7.106857e-06 -3.6206595e-26)
(0.10314171 7.3045451e-06 2.3263157e-20)
(0.10314188 7.4485808e-06 3.4764318e-26)
(0.10314206 7.6610627e-06 -2.2318748e-20)
(0.10314225 7.8117991e-06 -5.5696033e-18)
(0.10314245 8.0390293e-06 5.4682728e-18)
(0.10314265 8.1998246e-06 4.1749655e-20)
(0.10314286 8.4473147e-06 -2.6499431e-18)
(0.10314308 8.6241393e-06 5.0912639e-18)
(0.10314332 8.9162327e-06 -5.0012333e-18)
(0.10314355 9.0972309e-06 2.4158122e-18)
(0.10314381 9.5015031e-06 -7.3410317e-20)
(0.10314407 9.5959795e-06 0)
(0.10314437 1.0230257e-05 0)
(0.10322283 1.2553624e-06 -6.6140472e-20)
(0.10317488 -2.0448351e-07 7.0477757e-20)
(0.10316376 8.1530222e-07 -2.3257323e-18)
(0.10316041 5.594827e-07 2.3139315e-18)
(0.10315917 9.4504257e-07 -2.4514518e-18)
(0.10315858 1.037978e-06 2.555499e-18)
(0.10315822 1.2651909e-06 2.5414848e-18)
(0.10315795 1.4068776e-06 -2.6474771e-18)
(0.10315772 1.606711e-06 5.3828309e-18)
(0.1031575 1.7419452e-06 -1.1064495e-17)
(0.1031573 1.9294477e-06 5.6809859e-18)
(0.10315711 2.0581651e-06 -2.2681312e-20)
(0.10315692 2.2303278e-06 -2.9651872e-18)
(0.10315674 2.3453499e-06 6.053038e-18)
(0.10315658 2.4967914e-06 -3.0873085e-18)
(0.10315641 2.5977317e-06 -3.1476544e-18)
(0.10315626 2.7364269e-06 2.5059811e-20)
(0.10315611 2.8350543e-06 3.2418894e-18)
(0.10315597 2.9718807e-06 -2.5992322e-20)
(0.10315584 3.0723752e-06 -5.2914878e-20)
(0.10315572 3.2052716e-06 1.34613e-20)
(0.10315561 3.3018168e-06 1.369415e-20)
(0.10315551 3.428682e-06 0)
(0.10315542 3.5240903e-06 -1.8126634e-18)
(0.10315534 3.6512021e-06 -1.43961e-20)
(0.10315526 3.7492702e-06 1.8874526e-18)
(0.10315521 3.8768692e-06 0)
(0.10315516 3.9756882e-06 0)
(0.10315513 4.1051346e-06 -3.0678975e-20)
(0.10315511 4.2091574e-06 2.326718e-19)
(0.1031551 4.3427908e-06 -2.4712186e-19)
(0.10315511 4.4470863e-06 0)
(0.10315514 4.576683e-06 0)
(0.10315517 4.6718208e-06 -1.8855452e-18)
(0.10315522 4.7931776e-06 3.7103027e-18)
(0.10315528 4.8850653e-06 -1.8390976e-18)
(0.10315535 5.0124176e-06 -1.7665763e-18)
(0.10315543 5.113568e-06 1.7644709e-18)
(0.10315552 5.2503478e-06 0)
(0.10315561 5.3534419e-06 0)
(0.10315572 5.4889077e-06 -3.374708e-18)
(0.10315583 5.5869873e-06 3.2626688e-18)
(0.10315595 5.7259618e-06 2.5218795e-20)
(0.10315608 5.8321542e-06 -3.1674001e-18)
(0.10315622 5.9894804e-06 6.1886079e-18)
(0.10315636 6.1103452e-06 -3.068806e-18)
(0.1031565 6.2830406e-06 -3.006334e-18)
(0.10315666 6.4089753e-06 5.840714e-18)
(0.10315682 6.5905064e-06 -2.8568772e-18)
(0.10315698 6.7228464e-06 -6.544839e-20)
(0.10315716 6.9178851e-06 0)
(0.10315733 7.0611269e-06 -4.1565988e-20)
(0.10315752 7.2775253e-06 2.5920368e-18)
(0.10315771 7.4346707e-06 -5.0443603e-18)
(0.10315791 7.6957535e-06 2.5269328e-18)
(0.10315811 7.8504542e-06 3.7127998e-20)
(0.10315833 8.2282306e-06 1.4369921e-19)
(0.10315855 8.2869538e-06 6.9332601e-20)
(0.1031588 8.9477519e-06 6.6482564e-20)
(0.10322699 1.0828614e-06 -1.0235551e-18)
(0.10318436 -1.5615523e-07 -1.096356e-18)
(0.10317519 6.8353053e-07 2.3451325e-18)
(0.10317258 5.0422126e-07 -2.2742515e-18)
(0.10317164 8.1582492e-07 -7.0437127e-27)
(0.10317118 9.1191712e-07 2.4549032e-18)
(0.10317089 1.1014665e-06 4.0104098e-20)
(0.10317066 1.2262272e-06 5.2764724e-18)
(0.10317046 1.3949903e-06 4.2317161e-20)
(0.10317026 1.5102869e-06 -5.5969678e-18)
(0.10317008 1.6670735e-06 5.6431515e-18)
(0.10316991 1.7772365e-06 -5.7961694e-18)
(0.10316974 1.925713e-06 -2.9739118e-18)
(0.10316958 2.0303848e-06 3.0373416e-18)
(0.10316942 2.1685139e-06 2.4217947e-20)
(0.10316927 2.2641561e-06 0)
(0.10316913 2.3905505e-06 -2.5179606e-20)
(0.10316899 2.4783796e-06 3.3094548e-18)
(0.10316887 2.5966095e-06 -6.662467e-18)
(0.10316875 2.6800659e-06 2.5634613e-26)
(0.10316864 2.7923537e-06 2.7068768e-20)
(0.10316853 2.8713918e-06 3.5250161e-18)
(0.10316844 2.9779296e-06 -1.7926544e-18)
(0.10316835 3.055133e-06 1.8228722e-18)
(0.10316828 3.16157e-06 1.8531813e-18)
(0.10316821 3.2424055e-06 -1.8983048e-18)
(0.10316816 3.3512344e-06 9.5704423e-19)
(0.10316811 3.4336747e-06 -9.7232699e-19)
(0.10316809 3.5415765e-06 -2.314734e-19)
(0.10316806 3.6234746e-06 1.5598126e-20)
(0.10316806 3.7297385e-06 2.4836928e-19)
(0.10316807 3.8105336e-06 0)
(0.10316809 3.9168545e-06 -1.5040909e-20)
(0.10316812 3.9966453e-06 0)
(0.10316817 4.102388e-06 -1.4560697e-20)
(0.10316822 4.1823752e-06 -1.8331838e-18)
(0.10316828 4.2914376e-06 -2.8167058e-20)
(0.10316835 4.3744179e-06 5.3168103e-18)
(0.10316843 4.4868791e-06 -6.9675666e-18)
(0.10316851 4.5703166e-06 -2.6742421e-20)
(0.10316861 4.684967e-06 6.7769114e-18)
(0.10316871 4.7713492e-06 -3.3011481e-18)
(0.10316882 4.895345e-06 3.1891689e-18)
(0.10316893 4.9913191e-06 -3.2028157e-18)
(0.10316906 5.1278331e-06 2.434065e-20)
(0.10316918 5.2308444e-06 0)
(0.10316932 5.375279e-06 0)
(0.10316945 5.4816263e-06 4.567843e-20)
(0.1031696 5.636137e-06 5.7142433e-18)
(0.10316974 5.7512016e-06 -5.5352055e-18)
(0.1031699 5.9195236e-06 -4.250014e-20)
(0.10317005 6.0462113e-06 2.6487241e-18)
(0.10317022 6.2371135e-06 -5.110248e-18)
(0.10317038 6.3775744e-06 -4.1992068e-27)
(0.10317056 6.6093427e-06 2.382422e-18)
(0.10317074 6.7479504e-06 -8.3578536e-26)
(0.10317092 7.0729951e-06 -2.2511233e-18)
(0.10317111 7.1333843e-06 2.0919616e-18)
(0.10317132 7.7322575e-06 -6.4273452e-20)
(0.10323012 8.6564986e-07 0)
(0.10319253 -1.0033409e-07 6.6655852e-20)
(0.1031851 5.4997608e-07 -6.736218e-26)
(0.10318311 4.5084132e-07 0)
(0.10318241 6.9390126e-07 -2.4653824e-18)
(0.10318206 7.9338991e-07 2.5108591e-18)
(0.10318182 9.5574379e-07 0)
(0.10318162 1.06647e-06 4.1081205e-20)
(0.10318143 1.2089932e-06 0)
(0.10318126 1.3073792e-06 5.596661e-18)
(0.1031811 1.4365816e-06 -5.6496776e-18)
(0.10318093 1.5271412e-06 2.9156451e-18)
(0.10318078 1.648545e-06 4.5262923e-27)
(0.10318063 1.7355444e-06 -3.048035e-18)
(0.10318049 1.8520531e-06 -3.1366149e-18)
(0.10318036 1.936079e-06 3.1755479e-18)
(0.10318023 2.0473247e-06 0)
(0.1031801 2.1271396e-06 2.5779177e-20)
(0.10317999 2.231901e-06 -2.6257942e-20)
(0.10317988 2.3059348e-06 2.6023147e-26)
(0.10317978 2.4032515e-06 -2.7208782e-20)
(0.10317968 2.4706689e-06 0)
(0.10317959 2.5605222e-06 0)
(0.10317952 2.6230965e-06 0)
(0.10317945 2.710212e-06 0)
(0.10317939 2.7742381e-06 0)
(0.10317934 2.8638932e-06 -9.4716777e-19)
(0.1031793 2.9308326e-06 5.0409036e-19)
(0.10317927 3.0210085e-06 4.9654449e-19)
(0.10317925 3.0874538e-06 2.3517716e-19)
(0.10317925 3.1749789e-06 -7.4857597e-19)
(0.10317926 3.2397381e-06 5.0659456e-19)
(0.10317928 3.3279643e-06 1.5107915e-20)
(0.1031793 3.3943471e-06 0)
(0.10317934 3.4845876e-06 1.4623688e-20)
(0.10317939 3.5524745e-06 0)
(0.10317945 3.6445648e-06 0)
(0.10317951 3.7135595e-06 3.5871771e-18)
(0.10317958 3.807986e-06 -6.9689702e-18)
(0.10317966 3.878966e-06 6.9005948e-18)
(0.10317975 3.9780138e-06 -6.8035608e-18)
(0.10317984 4.0537445e-06 6.6272464e-18)
(0.10317994 4.1601739e-06 -3.2259557e-18)
(0.10318004 4.2411775e-06 2.4909739e-20)
(0.10318016 4.3543329e-06 3.1491199e-18)
(0.10318027 4.4391519e-06 -3.0599549e-18)
(0.10318039 4.5591376e-06 2.3390483e-20)
(0.10318051 4.6495867e-06 -2.2863858e-20)
(0.10318065 4.7808876e-06 5.7149688e-18)
(0.10318078 4.8799667e-06 -1.1102329e-17)
(0.10318092 5.0243948e-06 5.4688459e-18)
(0.10318106 5.1355477e-06 4.121004e-20)
(0.10318121 5.3014997e-06 0)
(0.10318135 5.4278412e-06 -2.5154092e-18)
(0.10318151 5.6248637e-06 2.3908147e-18)
(0.10318167 5.7549717e-06 -7.1888814e-20)
(0.10318183 6.0453179e-06 2.1359247e-18)
(0.103182 6.1187283e-06 -2.0373053e-18)
(0.10318218 6.5929295e-06 1.2438366e-19)
(0.10323222 6.3094054e-07 0)
(0.10319947 -5.1551699e-08 -2.2056961e-18)
(0.10319359 4.1729047e-07 -6.8019466e-20)
(0.10319212 3.9481733e-07 4.6112646e-18)
(0.1031916 5.7826156e-07 7.3806905e-20)
(0.10319132 6.7936553e-07 -4.9789835e-18)
(0.10319112 8.1775604e-07 2.5374349e-18)
(0.10319095 9.1553785e-07 5.1587363e-18)
(0.10319079 1.0362216e-06 -5.3576343e-18)
(0.10319063 1.1212458e-06 -3.4749187e-26)
(0.10319048 1.2286667e-06 4.4536499e-20)
(0.10319033 1.3046349e-06 -2.2826362e-20)
(0.10319019 1.4028509e-06 0)
(0.10319006 1.4731103e-06 2.3895097e-20)
(0.10318993 1.5654642e-06 3.1488902e-18)
(0.10318981 1.6324902e-06 -3.1890601e-18)
(0.10318969 1.721428e-06 3.2271368e-18)
(0.10318958 1.7871016e-06 -3.3151612e-18)
(0.10318947 1.8739379e-06 2.1189235e-26)
(0.10318937 1.9378997e-06 -3.4117097e-18)
(0.10318928 2.021228e-06 6.9721337e-18)
(0.10318919 2.0813815e-06 -3.5607577e-18)
(0.10318912 2.1594172e-06 0)
(0.10318904 2.2146942e-06 1.4386319e-20)
(0.10318898 2.288445e-06 -1.8867413e-18)
(0.10318893 2.3417249e-06 1.8880489e-18)
(0.10318889 2.4148634e-06 -1.510832e-20)
(0.10318885 2.4690462e-06 4.7588779e-19)
(0.10318883 2.5430064e-06 -4.9904044e-19)
(0.10318881 2.5976998e-06 1.5751607e-20)
(0.10318881 2.670391e-06 5.0114819e-19)
(0.10318881 2.7237604e-06 -5.0867467e-19)
(0.10318884 2.7970423e-06 -1.5168858e-20)
(0.10318886 2.851729e-06 0)
(0.1031889 2.9269454e-06 0)
(0.10318894 2.9830681e-06 -1.8627087e-18)
(0.10318899 3.0599164e-06 1.8174195e-18)
(0.10318905 3.117294e-06 -2.7916228e-20)
(0.10318912 3.1967178e-06 -2.743539e-20)
(0.10318919 3.2566628e-06 0)
(0.10318927 3.3402423e-06 2.6469577e-20)
(0.10318935 3.4036854e-06 -3.2997092e-18)
(0.10318945 3.4920614e-06 3.2371364e-18)
(0.10318954 3.5588229e-06 -3.1987022e-18)
(0.10318965 3.6525612e-06 3.1092168e-18)
(0.10318975 3.7236701e-06 2.3963894e-20)
(0.10318987 3.8248315e-06 -2.3433561e-20)
(0.10318998 3.9025348e-06 0)
(0.1031901 4.0139236e-06 0)
(0.10319022 4.0995183e-06 -4.3494449e-20)
(0.10319035 4.2238758e-06 0)
(0.10319048 4.3214867e-06 -4.1036632e-20)
(0.10319062 4.4635074e-06 0)
(0.10319075 4.5769047e-06 2.531312e-18)
(0.1031909 4.7388414e-06 -2.2882289e-18)
(0.10319104 4.8700029e-06 7.0755169e-20)
(0.10319119 5.0646166e-06 -2.1601933e-18)
(0.10319134 5.1394702e-06 3.0738013e-18)
(0.10319151 5.5453731e-06 -1.0841082e-18)
(0.10323319 4.1178014e-07 1.1629977e-19)
(0.10320513 1.935215e-09 -2.0214435e-18)
(0.10320062 3.0775093e-07 -4.0183909e-27)
(0.10319956 3.4321946e-07 2.1637873e-18)
(0.10319918 4.7992446e-07 0)
(0.10319896 5.7604944e-07 3.7979522e-20)
(0.10319879 6.8927803e-07 -3.9425817e-20)
(0.10319863 7.733e-07 5.2638794e-18)
(0.10319849 8.7240402e-07 -1.0783107e-17)
(0.10319835 9.4535481e-07 -4.3380078e-20)
(0.10319821 1.0331356e-06 5.6625146e-18)
(0.10319808 1.0981431e-06 2.9507071e-18)
(0.10319795 1.1778682e-06 -2.9995195e-18)
(0.10319783 1.2373969e-06 -2.3976121e-20)
(0.10319771 1.3105358e-06 -2.4503265e-20)
(0.1031976 1.3646348e-06 0)
(0.10319749 1.4324644e-06 2.5520965e-20)
(0.10319739 1.4837044e-06 -2.6015768e-20)
(0.1031973 1.5502663e-06 2.6503817e-20)
(0.1031972 1.6020595e-06 0)
(0.10319712 1.6682185e-06 3.543209e-18)
(0.10319704 1.7191958e-06 -5.3654035e-18)
(0.10319698 1.7833501e-06 1.8048279e-18)
(0.10319691 1.831966e-06 1.83521e-18)
(0.10319686 1.8925911e-06 -1.8510123e-18)
(0.10319681 1.9382935e-06 -9.4071024e-19)
(0.10319677 1.9971052e-06 9.711803e-19)
(0.10319674 2.0420532e-06 0)
(0.10319672 2.1006836e-06 -2.5063383e-19)
(0.10319671 2.1456014e-06 2.5306347e-19)
(0.10319671 2.2033199e-06 4.8727887e-19)
(0.10319671 2.247099e-06 -1.5005915e-18)
(0.10319673 2.3052592e-06 9.8948481e-19)
(0.10319676 2.3498766e-06 1.4977308e-20)
(0.10319679 2.4094272e-06 -1.900605e-18)
(0.10319683 2.4549738e-06 1.8693141e-18)
(0.10319688 2.5160012e-06 0)
(0.10319693 2.5629275e-06 -3.5861055e-18)
(0.103197 2.626489e-06 3.5243849e-18)
(0.10319706 2.6757699e-06 0)
(0.10319714 2.7427565e-06 0)
(0.10319722 2.7948021e-06 -2.6072417e-20)
(0.10319731 2.8654429e-06 2.5574443e-20)
(0.10319739 2.9205838e-06 0)
(0.10319749 2.996148e-06 0)
(0.10319759 3.0556426e-06 -2.4021253e-20)
(0.1031977 3.1377879e-06 0)
(0.1031978 3.203234e-06 0)
(0.10319792 3.2936094e-06 5.7168436e-18)
(0.10319803 3.3664442e-06 -5.5618025e-18)
(0.10319815 3.4681232e-06 0)
(0.10319827 3.5506856e-06 4.0865603e-20)
(0.1031984 3.6658667e-06 -3.9476885e-20)
(0.10319852 3.7607728e-06 -2.4708934e-18)
(0.10319866 3.8927068e-06 2.2609535e-18)
(0.10319879 4.0059812e-06 -6.9652766e-20)
(0.10319893 4.1678911e-06 2.0509758e-18)
(0.10319907 4.2325062e-06 -2.1226663e-18)
(0.10319922 4.5851927e-06 0)
(0.10323332 2.0613657e-07 -1.1281982e-19)
(0.10320987 6.5881972e-09 2.0308785e-18)
(0.10320655 1.6619439e-07 -2.0866962e-18)
(0.10320581 2.4829135e-07 -6.8699769e-20)
(0.10320553 3.6026083e-07 3.6044731e-20)
(0.10320535 4.4063797e-07 0)
(0.1032052 5.3338486e-07 3.9208121e-20)
(0.10320506 6.0372905e-07 0)
(0.10320493 6.8518962e-07 5.3413143e-18)
(0.10320479 7.4729289e-07 6.0263975e-27)
(0.10320467 8.201079e-07 -5.735809e-18)
(0.10320455 8.7636933e-07 2.2920627e-20)
(0.10320443 9.4192545e-07 0)
(0.10320432 9.9131418e-07 0)
(0.10320421 1.0510611e-06 3.148112e-18)
(0.1032041 1.0968094e-06 -3.2401856e-18)
(0.10320401 1.1510128e-06 0)
(0.10320391 1.1928276e-06 -1.3063514e-20)
(0.10320383 1.2445442e-06 0)
(0.10320374 1.2862165e-06 0)
(0.10320367 1.3371551e-06 0)
(0.10320359 1.3787047e-06 -1.7959071e-18)
(0.10320353 1.4282132e-06 1.8407191e-18)
(0.10320347 1.4689277e-06 0)
(0.10320343 1.5192266e-06 -1.4748046e-20)
(0.10320338 1.5607811e-06 0)
(0.10320335 1.6092896e-06 -1.5232596e-20)
(0.10320332 1.6503141e-06 -5.1076481e-19)
(0.1032033 1.6985025e-06 5.0319141e-19)
(0.10320329 1.739208e-06 -1.5871952e-20)
(0.10320329 1.7855162e-06 5.3609899e-19)
(0.1032033 1.8249167e-06 -1.4896532e-18)
(0.10320332 1.8714576e-06 9.6194053e-19)
(0.10320334 1.9118989e-06 -3.0045414e-20)
(0.10320337 1.9594623e-06 1.068788e-26)
(0.10320341 2.0010878e-06 0)
(0.10320345 2.0500825e-06 0)
(0.1032035 2.0937592e-06 0)
(0.10320356 2.1451307e-06 1.3812541e-20)
(0.10320362 2.1908961e-06 -3.4740313e-18)
(0.1032037 2.2437597e-06 6.8364241e-18)
(0.10320377 2.2913387e-06 1.8322886e-27)
(0.10320385 2.3473745e-06 -6.5680703e-18)
(0.10320393 2.3987117e-06 3.2435781e-18)
(0.10320403 2.4586617e-06 0)
(0.10320411 2.51489e-06 0)
(0.10320422 2.5800723e-06 0)
(0.10320431 2.6424539e-06 5.8725244e-18)
(0.10320442 2.714538e-06 -5.740331e-18)
(0.10320453 2.7844004e-06 2.1705197e-20)
(0.10320465 2.8651512e-06 -4.208797e-20)
(0.10320476 2.9442146e-06 -2.9801767e-26)
(0.10320488 3.035899e-06 2.877432e-26)
(0.103205 3.1282662e-06 -3.7680418e-20)
(0.10320513 3.2350929e-06 3.6036763e-20)
(0.10320525 3.3427372e-06 0)
(0.10320539 3.4743839e-06 4.7858469e-26)
(0.10320552 3.5350402e-06 6.0896895e-20)
(0.10320567 3.8333148e-06 0)
(0.10323423 -9.7069662e-08 9.3088859e-19)
(0.10321535 7.1312184e-08 -9.597357e-19)
(0.10321304 8.0840636e-08 0)
(0.10321256 1.8264205e-07 6.7639781e-20)
(0.10321235 2.4975763e-07 -3.563398e-20)
(0.1032122 3.1376713e-07 2.4283965e-18)
(0.10321206 3.7971898e-07 -2.5345159e-18)
(0.10321193 4.3288051e-07 5.1884605e-18)
(0.10321181 4.9086549e-07 3.2841105e-27)
(0.10321169 5.3840532e-07 -5.5518682e-18)
(0.10321157 5.9037145e-07 -5.674992e-18)
(0.10321146 6.324872e-07 5.8564676e-18)
(0.10321135 6.8243458e-07 0)
(0.10321125 7.2967776e-07 0)
(0.10321115 7.8064737e-07 3.1594763e-18)
(0.10321106 8.2467446e-07 -3.1896359e-18)
(0.10321097 8.718135e-07 -1.2865001e-20)
(0.10321088 9.1204481e-07 3.3512558e-27)
(0.10321081 9.562744e-07 0)
(0.10321073 9.9454521e-07 1.3605e-20)
(0.10321067 1.0375442e-06 -3.5442589e-18)
(0.1032106 1.0745234e-06 3.5911555e-18)
(0.10321055 1.1171731e-06 1.833036e-18)
(0.1032105 1.1539099e-06 -1.8634939e-18)
(0.10321046 1.1843285e-06 0)
(0.10321042 1.2108418e-06 0)
(0.10321039 1.2410168e-06 -9.4743851e-19)
(0.10321037 1.2675805e-06 1.0092328e-18)
(0.10321036 1.2976722e-06 0)
(0.10321035 1.3240429e-06 1.5916839e-20)
(0.10321035 1.3533738e-06 -1.5806048e-20)
(0.10321036 1.3787037e-06 1.5554371e-20)
(0.10321038 1.4076745e-06 9.7954774e-19)
(0.1032104 1.433489e-06 9.7884807e-19)
(0.10321044 1.4630313e-06 1.4815394e-20)
(0.10321047 1.4895288e-06 -1.8799858e-18)
(0.10321052 1.5200735e-06 -1.8202914e-18)
(0.10321056 1.5476319e-06 -1.8039082e-18)
(0.10321063 1.5792114e-06 3.5324453e-18)
(0.10321068 1.6099706e-06 1.3611094e-20)
(0.10321076 1.648221e-06 -2.6734062e-20)
(0.10321082 1.6840397e-06 1.311936e-20)
(0.10321091 1.7251096e-06 -1.2866819e-20)
(0.10321098 1.7632064e-06 -2.5216164e-20)
(0.10321108 1.8078584e-06 -1.2341728e-20)
(0.10321116 1.8476834e-06 -2.4132595e-20)
(0.10321127 1.897039e-06 0)
(0.10321136 1.9402282e-06 0)
(0.10321147 1.9947286e-06 -5.6966174e-18)
(0.10321157 2.042277e-06 -4.3368339e-20)
(0.1032117 2.103548e-06 5.4164027e-18)
(0.1032118 2.1567268e-06 -4.0529798e-20)
(0.10321193 2.2267686e-06 3.8987043e-20)
(0.10321205 2.2866757e-06 2.4278378e-18)
(0.10321219 2.3711705e-06 -2.314941e-18)
(0.10321231 2.432101e-06 -2.1611573e-18)
(0.10321245 2.5625453e-06 4.1345068e-18)
(0.10321258 2.576448e-06 -8.9142724e-19)
(0.10321274 2.835461e-06 -8.244005e-19)
(0.10323076 -2.9043493e-07 -1.0637449e-19)
(0.10321643 1.5155444e-07 5.8489117e-20)
(0.10321499 2.2483299e-07 3.1307543e-20)
(0.10321471 3.3800786e-07 0)
(0.10321456 4.16667e-07 0)
(0.10321445 4.6978525e-07 2.3344828e-18)
(0.10321434 5.2534913e-07 -2.4622589e-18)
(0.10321424 5.5378912e-07 5.1909678e-18)
(0.10321414 5.9002486e-07 -5.34535e-18)
(0.10321404 6.0581907e-07 5.5508295e-18)
(0.10321395 6.305359e-07 -5.7699832e-18)
(0.10321386 6.3731299e-07 -5.8905332e-18)
(0.10321377 6.5412959e-07 3.0237963e-18)
(0.10321369 6.5570547e-07 6.2094557e-18)
(0.10321361 6.6776145e-07 -3.1703534e-18)
(0.10321354 6.6606651e-07 2.0636394e-26)
(0.10321347 6.7477072e-07 1.2913419e-20)
(0.1032134 6.7084963e-07 -3.3441408e-18)
(0.10321334 6.7738776e-07 6.8671301e-18)
(0.10321328 6.7235858e-07 -3.5227951e-18)
(0.10321323 6.7772386e-07 0)
(0.10321318 6.7243692e-07 1.4129658e-20)
(0.10321314 6.7739007e-07 0)
(0.10321311 6.7222907e-07 7.3009901e-21)
(0.10321308 6.77193e-07 -7.4197649e-21)
(0.10321305 6.7277966e-07 0)
(0.10321304 6.7824773e-07 -2.2981988e-20)
(0.10321302 6.750013e-07 0)
(0.10321303 6.8168971e-07 0)
(0.10321302 6.8030297e-07 0)
(0.10321304 6.8744898e-07 0)
(0.10321305 6.8500634e-07 0)
(0.10321308 6.9080888e-07 2.2992837e-20)
(0.1032131 6.8741613e-07 7.541442e-21)
(0.10321315 6.9242005e-07 0)
(0.10321318 6.8817337e-07 2.189951e-20)
(0.10321324 6.9336607e-07 -1.4360765e-20)
(0.10321328 6.9003115e-07 7.0612483e-21)
(0.10321335 6.9646046e-07 -6.9418693e-21)
(0.10321341 6.9281191e-07 -1.3643326e-20)
(0.10321348 6.9869088e-07 3.4438029e-18)
(0.10321355 6.9606258e-07 -6.7471852e-18)
(0.10321364 7.0585269e-07 1.289905e-20)
(0.10321372 7.0699791e-07 3.2480725e-18)
(0.10321382 7.2017733e-07 1.236889e-20)
(0.1032139 7.1799404e-07 2.417765e-20)
(0.10321401 7.362656e-07 0)
(0.1032141 7.3914518e-07 -5.8714565e-18)
(0.10321422 7.6509537e-07 2.2335874e-20)
(0.10321432 7.7598685e-07 5.5872593e-18)
(0.10321445 8.1474873e-07 2.0937147e-20)
(0.10321455 8.3982026e-07 0)
(0.10321469 8.9741959e-07 -2.4789544e-18)
(0.1032148 9.4380149e-07 2.3875326e-18)
(0.10321495 1.0337342e-06 0)
(0.10321507 1.1105415e-06 3.3250479e-20)
(0.10321523 1.2625661e-06 -2.0273556e-18)
(0.10321536 1.2776369e-06 1.7983195e-18)
(0.10321553 1.5345597e-06 -1.067704e-19)
(0.10320975 -4.2696744e-09 5.1694525e-20)
(0.1032 -1.2365064e-07 1.7689498e-18)
(0.10319919 4.2309394e-08 -1.9955878e-18)
(0.10319898 1.699773e-08 2.1003383e-18)
(0.10319884 1.0297888e-07 -4.4602974e-18)
(0.10319872 1.1348872e-07 4.7057702e-18)
(0.10319859 1.6900043e-07 -2.4588363e-18)
(0.10319847 1.7712794e-07 5.1342283e-18)
(0.10319836 2.2639179e-07 -1.0466292e-20)
(0.10319825 2.3474708e-07 -5.5400804e-18)
(0.10319814 2.8141937e-07 -5.7094626e-18)
(0.10319804 2.9048302e-07 5.9082457e-18)
(0.10319794 3.3489083e-07 0)
(0.10319785 3.4449011e-07 -1.214204e-20)
(0.10319776 3.8724717e-07 6.2131683e-21)
(0.10319767 3.9702307e-07 -1.2698234e-20)
(0.10319759 4.3808335e-07 -3.3111403e-18)
(0.10319752 4.4792609e-07 3.3690138e-18)
(0.10319745 4.873755e-07 -6.7285041e-21)
(0.10319739 4.9695891e-07 3.5201083e-18)
(0.10319733 5.3500646e-07 -7.1336493e-18)
(0.10319728 5.4363942e-07 5.4399542e-18)
(0.10319723 5.7976038e-07 -1.8430986e-18)
(0.10319719 5.8795661e-07 -3.6580484e-21)
(0.10319716 6.2257044e-07 -1.8954799e-18)
(0.10319713 6.2935688e-07 1.9369899e-18)
(0.10319711 6.6191916e-07 7.6715442e-21)
(0.10319709 6.6737221e-07 0)
(0.10319708 6.9763235e-07 0)
(0.10319707 7.0160864e-07 0)
(0.10319709 7.3254802e-07 0)
(0.10319709 7.3886769e-07 -9.9827296e-19)
(0.10319711 7.7148304e-07 9.7471768e-19)
(0.10319713 7.7786361e-07 -1.9373228e-18)
(0.10319717 8.1106286e-07 1.8990386e-18)
(0.10319719 8.1731234e-07 -3.6568699e-21)
(0.10319725 8.5116375e-07 0)
(0.10319728 8.5707596e-07 3.6239203e-18)
(0.10319735 8.9103541e-07 -3.5565302e-18)
(0.1031974 8.9521551e-07 0)
(0.10319747 9.2909198e-07 -3.4474331e-18)
(0.10319753 9.3292865e-07 3.3841748e-18)
(0.10319762 9.6851522e-07 -3.3062422e-18)
(0.10319768 9.6745207e-07 3.2266551e-18)
(0.10319778 1.0009416e-06 -3.1759907e-18)
(0.10319786 1.0233289e-06 3.1031916e-18)