/*--------------------------------*- C++ -*----------------------------------*\
| =========                 |                                                 |
| \\      /  F ield         | OpenFOAM: The Open Source CFD Toolbox           |
|  \\    /   O peration     | Version:  v2006                                 |
|   \\  /    A nd           | Website:  www.openfoam.com                      |
|    \\/     M anipulation  |                                                 |
\*---------------------------------------------------------------------------*/
FoamFile
{
    version     2.0;
    format      ascii;
    class       volVectorField;
    location    "5000";
    object      UMean;
}
// * * * * * * * * * * * * * * * * * * * * * * * * * * * * * * * * * * * * * //

dimensions      [0 1 -1 0 0 0 0];


internalField   nonuniform List<vector> 
55713
(
(0.10315083 7.0477807e-07 0)
(0.10305875 -3.1881064e-07 0)
(0.10303122 9.5391089e-07 2.5743892e-18)
(0.10302113 8.172183e-07 -2.5690545e-18)
(0.10301685 1.5099653e-06 2.588008e-18)
(0.10301477 1.6919512e-06 1.8607069e-27)
(0.10301358 2.1762375e-06 -2.6489386e-18)
(0.1030128 2.4041937e-06 0)
(0.1030122 2.8072776e-06 1.067518e-20)
(0.1030117 3.0444642e-06 0)
(0.10301125 3.3918903e-06 -1.1049851e-20)
(0.10301084 3.6387759e-06 -1.1247073e-20)
(0.10301045 3.9503416e-06 0)
(0.10301008 4.1965493e-06 2.9833089e-18)
(0.10300973 4.4820131e-06 -3.0364625e-18)
(0.10300941 4.7224924e-06 -6.0355309e-21)
(0.1030091 4.9875326e-06 3.1505731e-18)
(0.10300882 5.2235138e-06 -3.199114e-18)
(0.10300855 5.475468e-06 6.3558557e-21)
(0.10300831 5.7060014e-06 -3.3096627e-18)
(0.10300809 5.945372e-06 3.3588932e-18)
(0.10300791 6.1695573e-06 0)
(0.10300774 6.4013679e-06 0)
(0.10300761 6.6221248e-06 -1.7742134e-18)
(0.10300751 6.8498079e-06 1.7957222e-18)
(0.10300744 7.0681905e-06 0)
(0.1030074 7.2938746e-06 0)
(0.10300739 7.5103638e-06 0)
(0.10300739 7.7352864e-06 2.3868519e-19)
(0.10300742 7.9506544e-06 -7.3269904e-29)
(0.10300743 8.1754663e-06 -2.4174607e-19)
(0.10300745 8.3889863e-06 0)
(0.10300748 8.6133406e-06 0)
(0.10300754 8.8306193e-06 0)
(0.10300762 9.059355e-06 0)
(0.10300774 9.2823908e-06 1.7902156e-18)
(0.10300788 9.5173712e-06 -1.7546145e-18)
(0.10300806 9.7470147e-06 -3.4657645e-18)
(0.10300827 9.9885522e-06 1.7683194e-27)
(0.1030085 1.0224724e-05 3.3455705e-18)
(0.10300875 1.0473484e-05 0)
(0.10300904 1.071677e-05 6.3276438e-21)
(0.10300934 1.0974718e-05 -3.1841369e-18)
(0.10300967 1.122677e-05 3.1289372e-18)
(0.10301001 1.1496265e-05 3.0742074e-18)
(0.10301038 1.1759049e-05 -3.025906e-18)
(0.10301076 1.2042811e-05 0)
(0.10301116 1.2318796e-05 0)
(0.10301158 1.2620022e-05 -2.8503596e-18)
(0.10301202 1.291217e-05 2.8105635e-18)
(0.10301248 1.3235221e-05 0)
(0.10301296 1.3546918e-05 0)
(0.10301346 1.3897855e-05 0)
(0.10301399 1.4232054e-05 0)
(0.10301455 1.4623073e-05 2.5822955e-18)
(0.10301513 1.4979092e-05 -3.9942055e-27)
(0.10301575 1.5420593e-05 -3.7721929e-18)
(0.1030164 1.5872806e-05 1.2259916e-18)
(0.10301711 1.6076623e-05 -1.9216726e-20)
(0.1031587 1.1524406e-06 0)
(0.10307521 -2.3361905e-07 2.4246642e-18)
(0.10305151 1.1202389e-06 -2.5138178e-18)
(0.10304316 8.2952163e-07 3.9405182e-20)
(0.10303971 1.4574848e-06 -2.5523935e-18)
(0.10303803 1.5761116e-06 5.1579973e-18)
(0.10303707 1.9766916e-06 4.309985e-27)
(0.1030364 2.1834034e-06 -2.6782303e-18)
(0.10303588 2.5340805e-06 -1.0655241e-20)
(0.10303542 2.7359097e-06 2.1712283e-20)
(0.10303501 3.0585008e-06 -2.820835e-18)
(0.10303462 3.2524737e-06 2.8967849e-18)
(0.10303425 3.5501175e-06 2.9397643e-18)
(0.1030339 3.7396282e-06 2.8815208e-27)
(0.10303357 4.0125633e-06 2.5576742e-27)
(0.10303326 4.2022945e-06 -3.0990212e-18)
(0.10303296 4.4511602e-06 -6.1735408e-21)
(0.10303269 4.642628e-06 0)
(0.10303243 4.873326e-06 3.2668252e-18)
(0.1030322 5.0652567e-06 -6.6596196e-18)
(0.10303199 5.2837819e-06 3.3932801e-18)
(0.1030318 5.4750682e-06 1.3452244e-20)
(0.10303164 5.6859491e-06 0)
(0.10303151 5.8762353e-06 6.9506018e-21)
(0.10303141 6.0839609e-06 0)
(0.10303133 6.2751413e-06 9.0423097e-19)
(0.10303129 6.4834186e-06 -1.8661327e-18)
(0.10303127 6.6747161e-06 9.3273114e-19)
(0.10303126 6.8837881e-06 2.4049023e-19)
(0.10303127 7.0743275e-06 -2.5889678e-19)
(0.10303128 7.277897e-06 0)
(0.10303128 7.4602786e-06 9.4332639e-19)
(0.1030313 7.6603576e-06 -1.8873423e-18)
(0.10303135 7.844107e-06 9.2902301e-19)
(0.10303142 8.0487228e-06 0)
(0.10303152 8.2373872e-06 1.7995297e-18)
(0.10303165 8.4444329e-06 -1.7772916e-18)
(0.10303181 8.6346567e-06 1.3604054e-20)
(0.10303199 8.8457114e-06 0)
(0.1030322 9.0424125e-06 6.5763725e-21)
(0.10303243 9.2624895e-06 3.3096905e-18)
(0.10303268 9.4668924e-06 -6.5114177e-18)
(0.10303295 9.6977326e-06 -4.2067912e-28)
(0.10303325 9.9105324e-06 3.1389877e-18)
(0.10303356 1.0154008e-05 -3.0826207e-18)
(0.10303388 1.0376376e-05 6.0590069e-18)
(0.10303423 1.0634804e-05 -5.9416108e-18)
(0.10303459 1.0868857e-05 2.9154392e-18)
(0.10303496 1.1144864e-05 -1.1173904e-20)
(0.10303535 1.1393405e-05 0)
(0.10303576 1.1691272e-05 0)
(0.10303619 1.1956387e-05 0)
(0.10303663 1.2280017e-05 -2.6684061e-18)
(0.10303709 1.2563478e-05 2.6175208e-18)
(0.10303757 1.2925446e-05 0)
(0.10303807 1.3220091e-05 3.9091267e-20)
(0.1030386 1.3658672e-05 0)
(0.10303915 1.3958121e-05 1.8890283e-20)
(0.10303975 1.445004e-05 1.8507699e-20)
(0.10316604 1.3869023e-06 0)
(0.10309048 -2.699474e-07 3.7357538e-20)
(0.1030702 1.0775163e-06 -3.8069278e-20)
(0.10306336 7.2013655e-07 -3.8693427e-20)
(0.10306061 1.2893729e-06 -2.5573609e-18)
(0.10305928 1.3922531e-06 2.584459e-18)
(0.1030585 1.7372594e-06 0)
(0.10305793 1.9241676e-06 2.084443e-20)
(0.10305747 2.2237951e-06 -5.4458977e-18)
(0.10305706 2.4053604e-06 5.5141571e-18)
(0.10305668 2.6792627e-06 0)
(0.10305632 2.8530374e-06 -2.2592637e-20)
(0.10305598 3.1052677e-06 0)
(0.10305565 3.2741978e-06 2.9822084e-18)
(0.10305534 3.5073863e-06 -6.1254919e-18)
(0.10305505 3.6744513e-06 3.1198833e-18)
(0.10305477 3.8909845e-06 -3.1647057e-18)
(0.10305451 4.0569031e-06 -4.0378984e-27)
(0.10305427 4.2598024e-06 3.2919496e-18)
(0.10305404 4.4244585e-06 -3.3495966e-18)
(0.10305384 4.6171686e-06 -3.6923737e-27)
(0.10305367 4.779562e-06 3.46545e-18)
(0.10305351 4.965779e-06 0)
(0.10305339 5.1249466e-06 1.7770583e-18)
(0.10305328 5.3070759e-06 1.7230919e-27)
(0.10305321 5.4621015e-06 -1.8208178e-18)
(0.10305316 5.6430978e-06 -1.468065e-20)
(0.10305314 5.7948381e-06 4.9204065e-19)
(0.10305313 5.9776853e-06 -4.8446164e-19)
(0.10305313 6.1295895e-06 2.4527641e-19)
(0.10305313 6.3101492e-06 -2.4462986e-19)
(0.10305313 6.4579046e-06 3.0115997e-20)
(0.10305314 6.638394e-06 0)
(0.10305318 6.787305e-06 1.4593798e-20)
(0.10305324 6.9705568e-06 -1.4361839e-20)
(0.10305333 7.1218388e-06 -1.413034e-20)
(0.10305344 7.3091919e-06 -1.3899461e-20)
(0.10305358 7.4641125e-06 -1.3669311e-20)
(0.10305374 7.6568357e-06 3.4271613e-18)
(0.10305393 7.8160887e-06 -3.3820425e-18)
(0.10305413 8.0162324e-06 0)
(0.10305436 8.1793568e-06 3.2654007e-18)
(0.1030546 8.3916861e-06 -3.1947449e-18)
(0.10305487 8.5594321e-06 3.1738448e-18)
(0.10305514 8.7854392e-06 -3.0912821e-18)
(0.10305544 8.9593642e-06 -3.0096754e-18)
(0.10305575 9.2014467e-06 -2.3256286e-27)
(0.10305607 9.3843049e-06 2.8948707e-18)
(0.1030564 9.6443266e-06 2.2342602e-20)
(0.10305675 9.8394819e-06 0)
(0.10305711 1.0122224e-05 0)
(0.10305748 1.033222e-05 0)
(0.10305787 1.0642538e-05 2.0542738e-20)
(0.10305827 1.0870763e-05 -2.0096487e-20)
(0.10305869 1.1215843e-05 0)
(0.10305912 1.1442394e-05 2.4593179e-18)
(0.10305957 1.1875197e-05 -2.4036631e-18)
(0.10306004 1.2089122e-05 0)
(0.10306054 1.262036e-05 0)
(0.10317168 1.4216437e-06 6.8463242e-20)
(0.10310344 -2.6885343e-07 -7.2563241e-20)
(0.10308624 9.7650333e-07 -2.3434503e-18)
(0.1030807 6.4865416e-07 2.4323378e-18)
(0.10307853 1.1420067e-06 3.882509e-20)
(0.10307748 1.2436628e-06 0)
(0.10307684 1.5384749e-06 -2.5987653e-18)
(0.10307636 1.7087257e-06 7.9540819e-18)
(0.10307595 1.9652378e-06 -1.0873372e-17)
(0.10307558 2.1270968e-06 5.57867e-18)
(0.10307523 2.3611655e-06 -2.8384532e-18)
(0.1030749 2.5138593e-06 2.2641955e-20)
(0.10307458 2.7299194e-06 5.9151925e-18)
(0.10307427 2.8756378e-06 -2.9931876e-18)
(0.10307398 3.0766672e-06 0)
(0.1030737 3.2179568e-06 0)
(0.10307344 3.4057852e-06 -1.2473001e-20)
(0.1030732 3.5449806e-06 0)
(0.10307297 3.7213346e-06 0)
(0.10307276 3.8589565e-06 2.6319103e-20)
(0.10307257 4.0265827e-06 -1.3388895e-20)
(0.1030724 4.1618078e-06 -2.7237548e-20)
(0.10307225 4.3239115e-06 -1.7727073e-18)
(0.10307213 4.4560231e-06 1.8163805e-18)
(0.10307203 4.6153192e-06 1.4312334e-20)
(0.10307196 4.7431559e-06 -1.4544822e-20)
(0.10307191 4.9023579e-06 9.6054869e-19)
(0.10307189 5.0277052e-06 -9.6067985e-19)
(0.10307188 5.1885675e-06 1.5243199e-20)
(0.10307187 5.3135715e-06 -2.3139497e-19)
(0.10307187 5.4716906e-06 -2.4599819e-19)
(0.10307186 5.5931763e-06 4.6934116e-19)
(0.10307187 5.7515521e-06 0)
(0.1030719 5.874219e-06 -1.8923687e-18)
(0.10307195 6.0352587e-06 1.4434645e-20)
(0.10307202 6.159897e-06 3.6636742e-18)
(0.10307212 6.3246363e-06 -1.7737554e-18)
(0.10307225 6.4521424e-06 0)
(0.10307239 6.6219655e-06 1.3501059e-20)
(0.10307256 6.7532498e-06 0)
(0.10307275 6.9302195e-06 0)
(0.10307295 7.0654231e-06 2.5611715e-20)
(0.10307317 7.2523282e-06 -1.257428e-20)
(0.10307341 7.392036e-06 -3.1843315e-18)
(0.10307366 7.5908725e-06 3.1001436e-18)
(0.10307393 7.7370531e-06 -3.8882021e-26)
(0.1030742 7.9499235e-06 2.3284955e-20)
(0.10307449 8.1049504e-06 3.7333338e-26)
(0.10307479 8.3346965e-06 -2.2339978e-20)
(0.1030751 8.5008568e-06 -5.5749383e-18)
(0.10307542 8.7516136e-06 5.4735462e-18)
(0.10307576 8.9319874e-06 4.1790175e-20)
(0.1030761 9.2088098e-06 -2.652531e-18)
(0.10307645 9.4072312e-06 5.0962649e-18)
(0.10307682 9.729281e-06 -5.0061729e-18)
(0.10307719 9.9272342e-06 2.4182104e-18)
(0.10307758 1.0360835e-05 -7.3483538e-20)
(0.10307799 1.0473207e-05 0)
(0.1030784 1.1148883e-05 0)
(0.10317614 1.3163701e-06 -6.6166187e-20)
(0.10311478 -2.366771e-07 7.051233e-20)
(0.10310033 8.4540944e-07 -2.3269348e-18)
(0.10309592 5.8104014e-07 2.3151553e-18)
(0.10309423 9.9380527e-07 -2.4527518e-18)
(0.1030934 1.0986706e-06 2.5568352e-18)
(0.10309288 1.3485115e-06 2.5427826e-18)
(0.10309246 1.5028015e-06 -2.6487905e-18)
(0.1030921 1.7218835e-06 5.3854176e-18)
(0.10309176 1.8652288e-06 -1.1069635e-17)
(0.10309144 2.0649301e-06 5.6835329e-18)
(0.10309113 2.1984461e-06 -2.2691109e-20)
(0.10309084 2.3829809e-06 -2.9664192e-18)
(0.10309056 2.5087135e-06 6.0554528e-18)
(0.10309028 2.6810208e-06 -3.0884887e-18)
(0.10309003 2.8011151e-06 -3.1488051e-18)
(0.10308978 2.9629522e-06 2.506855e-20)
(0.10308955 3.0797712e-06 3.2429655e-18)
(0.10308934 3.2322559e-06 -2.6000509e-20)
(0.10308914 3.3471393e-06 -5.2930651e-20)
(0.10308897 3.4920992e-06 1.3465084e-20)
(0.10308881 3.6047982e-06 1.3697767e-20)
(0.10308867 3.7449058e-06 0)
(0.10308856 3.8546414e-06 -1.8130803e-18)
(0.10308846 3.9926244e-06 -1.4399166e-20)
(0.1030884 4.099277e-06 1.8878223e-18)
(0.10308835 4.2368477e-06 0)
(0.10308832 4.3425044e-06 0)
(0.10308831 4.4799856e-06 -3.0683427e-20)
(0.1030883 4.5854046e-06 2.327734e-19)
(0.10308829 4.7202153e-06 -2.4730549e-19)
(0.10308829 4.8227082e-06 0)
(0.10308829 4.9577625e-06 0)
(0.10308831 5.0614281e-06 -1.8869905e-18)
(0.10308836 5.1988525e-06 3.7131764e-18)
(0.10308843 5.3043232e-06 -1.8405368e-18)
(0.10308852 5.4451342e-06 -1.7679729e-18)
(0.10308863 5.5532751e-06 1.76588e-18)
(0.10308876 5.6985978e-06 0)
(0.10308891 5.8103559e-06 0)
(0.10308908 5.9617259e-06 -3.377484e-18)
(0.10308927 6.0777995e-06 3.2653785e-18)
(0.10308947 6.2372896e-06 2.5239936e-20)
(0.10308968 6.3583237e-06 -3.1700801e-18)
(0.10308991 6.5280274e-06 6.1938913e-18)
(0.10309015 6.6554587e-06 -3.071449e-18)
(0.1030904 6.8374637e-06 -3.0089451e-18)
(0.10309066 6.9734544e-06 5.8458284e-18)
(0.10309093 7.1705753e-06 -2.8593986e-18)
(0.10309122 7.317171e-06 -6.5506586e-20)
(0.1030915 7.5336723e-06 0)
(0.1030918 7.6930185e-06 -4.1603466e-20)
(0.10309211 7.9353436e-06 2.5943886e-18)
(0.10309242 8.1090006e-06 -5.0489638e-18)
(0.10309274 8.3967487e-06 2.5292512e-18)
(0.10309308 8.5663828e-06 3.7162216e-20)
(0.10309341 8.9722245e-06 1.4383221e-19)
(0.10309377 9.0472756e-06 6.939697e-20)
(0.10309412 9.7432639e-06 6.6521391e-20)
(0.10317934 1.1270548e-06 -1.0239636e-18)
(0.10312451 -1.8535758e-07 -1.096895e-18)
(0.10311256 7.0189194e-07 2.3463484e-18)
(0.10310909 5.203694e-07 -2.2754583e-18)
(0.10310781 8.5401936e-07 -7.5008017e-27)
(0.10310715 9.6378591e-07 2.4561874e-18)
(0.10310672 1.1741083e-06 4.0124593e-20)
(0.10310636 1.313859e-06 5.2790949e-18)
(0.10310603 1.4987211e-06 4.2337576e-20)
(0.10310572 1.6264006e-06 -5.5995832e-18)
(0.10310543 1.7947505e-06 5.6457026e-18)
(0.10310515 1.9121823e-06 -5.7987005e-18)
(0.10310488 2.0678016e-06 -2.9751647e-18)
(0.10310461 2.17713e-06 3.038574e-18)
(0.10310436 2.322612e-06 2.4227396e-20)
(0.10310412 2.425873e-06 0)
(0.1031039 2.5629438e-06 -2.5188647e-20)
(0.10310369 2.662082e-06 3.3105912e-18)
(0.10310349 2.7918889e-06 -6.6646504e-18)
(0.10310331 2.88823e-06 2.7568633e-26)
(0.10310314 3.0121942e-06 2.707679e-20)
(0.10310299 3.1059829e-06 3.5260056e-18)
(0.10310287 3.2262149e-06 -1.7931297e-18)
(0.10310276 3.3174282e-06 1.823327e-18)
(0.10310267 3.4357859e-06 1.8536149e-18)
(0.10310261 3.5250726e-06 -1.8987195e-18)
(0.10310256 3.6424269e-06 9.5723859e-19)
(0.10310254 3.7311366e-06 -9.7250956e-19)
(0.10310253 3.8479838e-06 -2.3151337e-19)
(0.10310252 3.9363866e-06 1.5604689e-20)
(0.10310251 4.0509123e-06 2.4853862e-19)
(0.1031025 4.1367301e-06 0)
(0.1031025 4.2516307e-06 -1.5051387e-20)
(0.10310252 4.3384144e-06 0)
(0.10310256 4.4554739e-06 -1.4571065e-20)
(0.10310262 4.5438846e-06 -1.8345036e-18)
(0.10310271 4.6640329e-06 -2.8187562e-20)
(0.10310281 4.7548273e-06 5.3207227e-18)
(0.10310293 4.8791058e-06 -6.9727497e-18)
(0.10310307 4.9731308e-06 -2.6762528e-20)
(0.10310322 5.102806e-06 6.7820615e-18)
(0.10310339 5.2008879e-06 -3.3036831e-18)
(0.10310358 5.3375356e-06 3.1916435e-18)
(0.10310377 5.4405783e-06 -3.205326e-18)
(0.10310398 5.5860057e-06 2.4359918e-20)
(0.1031042 5.6953165e-06 0)
(0.10310443 5.8515316e-06 0)
(0.10310467 5.9689771e-06 4.5715607e-20)
(0.10310492 6.1386389e-06 5.7189343e-18)
(0.10310517 6.2662127e-06 -5.5397867e-18)
(0.10310543 6.4534945e-06 -4.2535589e-20)
(0.1031057 6.5929455e-06 2.6509494e-18)
(0.10310598 6.804549e-06 -5.1145703e-18)
(0.10310626 6.9567731e-06 -4.4305291e-27)
(0.10310655 7.2100619e-06 2.3844603e-18)
(0.10310685 7.3622399e-06 -8.9275535e-26)
(0.10310715 7.7132005e-06 -2.2530652e-18)
(0.10310746 7.7878162e-06 2.0937708e-18)
(0.10310777 8.4168914e-06 -6.4310541e-20)
(0.10318143 8.8972239e-07 0)
(0.10313287 -1.2594197e-07 6.6688763e-20)
(0.10312315 5.5712658e-07 -7.1628109e-26)
(0.1031205 4.6105837e-07 0)
(0.10311952 7.2145207e-07 -2.4666932e-18)
(0.10311901 8.3364342e-07 2.5121722e-18)
(0.10311864 1.0110234e-06 0)
(0.10311833 1.1343351e-06 4.1101638e-20)
(0.10311804 1.2910456e-06 0)
(0.10311776 1.4021036e-06 5.5992867e-18)
(0.10311749 1.5444196e-06 -5.6522468e-18)
(0.10311723 1.6458109e-06 2.9169286e-18)
(0.10311698 1.7769262e-06 4.8451484e-27)
(0.10311674 1.8708037e-06 -3.0492878e-18)
(0.10311651 1.9931428e-06 -3.1378583e-18)
(0.10311629 2.0811974e-06 3.1767601e-18)
(0.10311608 2.1965079e-06 0)
(0.10311589 2.2803252e-06 2.5788261e-20)
(0.1031157 2.3897918e-06 -2.6266813e-20)
(0.10311554 2.4705263e-06 2.7673939e-26)
(0.10311539 2.5753852e-06 -2.7217184e-20)
(0.10311525 2.6534863e-06 0)
(0.10311513 2.7553181e-06 0)
(0.10311503 2.8313722e-06 0)
(0.10311495 2.931284e-06 0)
(0.10311489 3.0061398e-06 0)
(0.10311485 3.1047877e-06 -9.473792e-19)
(0.10311483 3.1791622e-06 5.0419589e-19)
(0.10311482 3.2773569e-06 4.966417e-19)
(0.10311481 3.3513765e-06 2.3527256e-19)
(0.1031148 3.4474902e-06 -7.4904545e-19)
(0.10311479 3.5192862e-06 5.069158e-19)
(0.10311479 3.6157688e-06 1.5117605e-20)
(0.10311481 3.6884683e-06 0)
(0.10311485 3.7868788e-06 1.4633287e-20)
(0.10311491 3.8610681e-06 0)
(0.10311498 3.9622339e-06 0)
(0.10311508 4.0385967e-06 3.5896157e-18)
(0.10311519 4.1434278e-06 -6.9737638e-18)
(0.10311532 4.2227228e-06 6.9053968e-18)
(0.10311546 4.3322748e-06 -6.8083505e-18)
(0.10311561 4.4153348e-06 6.6319653e-18)
(0.10311578 4.530906e-06 -3.2282788e-18)
(0.10311596 4.6186525e-06 2.4927877e-20)
(0.10311616 4.7417966e-06 3.1514378e-18)
(0.10311636 4.8354696e-06 -3.0622309e-18)
(0.10311657 4.9680113e-06 2.340806e-20)
(0.10311679 5.0692548e-06 -2.288121e-20)
(0.10311701 5.2135694e-06 5.7193472e-18)
(0.10311725 5.3243689e-06 -1.1110912e-17)
(0.10311749 5.4840177e-06 5.4731094e-18)
(0.10311773 5.6063434e-06 4.1242419e-20)
(0.10311798 5.7870327e-06 0)
(0.10311824 5.922457e-06 -2.5174129e-18)
(0.1031185 6.1358783e-06 2.39273e-18)
(0.10311877 6.2788153e-06 -7.1946674e-20)
(0.10311904 6.5848066e-06 2.13765e-18)
(0.10311932 6.670296e-06 -2.0389545e-18)
(0.10311959 7.1769779e-06 1.2445468e-19)
(0.10318242 6.3396205e-07 0)
(0.10313994 -7.6596485e-08 -2.2067927e-18)
(0.10313223 4.1261696e-07 -6.8055137e-20)
(0.10313025 3.9818752e-07 4.6137318e-18)
(0.10312952 5.954256e-07 7.3846214e-20)
(0.10312912 7.0724981e-07 -4.981589e-18)
(0.10312881 8.5595687e-07 2.5387325e-18)
(0.10312853 9.6389894e-07 5.1613081e-18)
(0.10312827 1.0951547e-06 -5.3602342e-18)
(0.10312801 1.1913431e-06 -3.6586912e-26)
(0.10312777 1.3099835e-06 4.4556902e-20)
(0.10312753 1.3971241e-06 -2.2836506e-20)
(0.10312731 1.5059961e-06 0)
(0.10312709 1.5861191e-06 2.3905056e-20)
(0.10312688 1.6872517e-06 3.1501591e-18)
(0.10312667 1.7619961e-06 -3.1903011e-18)
(0.10312648 1.857148e-06 3.2283481e-18)
(0.10312631 1.9278432e-06 -3.31636e-18)
(0.10312614 2.0182364e-06 2.2313896e-26)
(0.10312599 2.08591e-06 -3.4128502e-18)
(0.10312585 2.1726066e-06 6.9743702e-18)
(0.10312573 2.2379138e-06 -3.561852e-18)
(0.10312562 2.3220515e-06 0)
(0.10312553 2.385804e-06 1.4390359e-20)
(0.10312546 2.4682021e-06 -1.8872465e-18)
(0.1031254 2.5309679e-06 1.8885301e-18)
(0.10312536 2.6123287e-06 -1.511198e-20)
(0.10312534 2.6746853e-06 4.7599708e-19)
(0.10312533 2.7557884e-06 -4.9914895e-19)
(0.10312532 2.8177792e-06 1.5757773e-20)
(0.10312532 2.8969905e-06 5.0143681e-19)
(0.10312531 2.9568931e-06 -5.0897101e-19)
(0.10312531 3.0364585e-06 -1.5177801e-20)
(0.10312533 3.0971683e-06 0)
(0.10312537 3.1784858e-06 0)
(0.10312542 3.240505e-06 -1.8638484e-18)
(0.10312549 3.3243045e-06 1.8185457e-18)
(0.10312558 3.3882393e-06 -2.7933747e-20)
(0.10312568 3.4753288e-06 -2.745283e-20)
(0.1031258 3.5418648e-06 0)
(0.10312593 3.6331683e-06 2.6486834e-20)
(0.10312608 3.703111e-06 -3.3018874e-18)
(0.10312623 3.7997171e-06 3.2393001e-18)
(0.1031264 3.8740575e-06 -3.2008662e-18)
(0.10312658 3.9772836e-06 3.1113457e-18)
(0.10312676 4.0572305e-06 2.3980494e-20)
(0.10312696 4.1687253e-06 -2.344998e-20)
(0.10312716 4.2558479e-06 0)
(0.10312737 4.3777306e-06 0)
(0.10312759 4.4740995e-06 -4.3525894e-20)
(0.10312781 4.6092429e-06 0)
(0.10312804 4.7175362e-06 -4.1066841e-20)
(0.10312827 4.8699402e-06 0)
(0.1031285 4.9940249e-06 2.5332037e-18)
(0.10312874 5.1692926e-06 -2.2899497e-18)
(0.10312899 5.3146353e-06 7.0808645e-20)
(0.10312923 5.5242196e-06 -2.1618324e-18)
(0.10312949 5.6108679e-06 3.0761392e-18)
(0.10312974 6.0434843e-06 -1.0847218e-18)
(0.10318215 3.9750143e-07 1.1635032e-19)
(0.10314564 -1.7671952e-08 -2.0224584e-18)
(0.10313971 3.0041787e-07 -4.1749768e-27)
(0.10313828 3.4318153e-07 2.1649514e-18)
(0.10313774 4.9181499e-07 0)
(0.10313741 5.9558633e-07 3.7999436e-20)
(0.10313715 7.1919486e-07 -3.9446032e-20)
(0.1031369 8.0971354e-07 5.2665139e-18)
(0.10313666 9.183518e-07 -1.0788368e-17)
(0.10313643 9.9848963e-07 -4.3400687e-20)
(0.10313621 1.0957152e-06 5.6651313e-18)
(0.103136 1.1681159e-06 2.9520322e-18)
(0.10313579 1.256585e-06 -3.0008273e-18)
(0.10313559 1.3233394e-06 -2.3986259e-20)
(0.1031354 1.4054008e-06 -2.4513304e-20)
(0.10313521 1.4677349e-06 0)
(0.10313504 1.5444596e-06 2.5530754e-20)
(0.10313488 1.6032867e-06 -2.6025408e-20)
(0.10313473 1.6758105e-06 2.6513296e-20)
(0.10313459 1.7320083e-06 0)
(0.10313446 1.8013563e-06 3.5443859e-18)
(0.10313435 1.8556043e-06 -5.3671183e-18)
(0.10313426 1.922527e-06 1.8053824e-18)
(0.10313417 1.9751382e-06 1.8357514e-18)
(0.10313411 2.0402501e-06 -1.8515362e-18)
(0.10313406 2.0920271e-06 -9.4096535e-19)
(0.10313402 2.1562127e-06 9.7143247e-19)
(0.103134 2.2077056e-06 0)
(0.103134 2.2715855e-06 -2.5069332e-19)
(0.10313399 2.3227997e-06 2.5315916e-19)
(0.10313398 2.3851266e-06 4.8753626e-19)
(0.10313398 2.4348591e-06 -1.5013938e-18)
(0.10313399 2.4973702e-06 9.9002057e-19)
(0.103134 2.5479119e-06 1.4985523e-20)
(0.10313404 2.6117808e-06 -1.9016615e-18)
(0.10313409 2.6636024e-06 1.8703673e-18)
(0.10313416 2.7294745e-06 0)
(0.10313424 2.7830901e-06 -3.5881824e-18)
(0.10313434 2.8516493e-06 3.5264549e-18)
(0.10313444 2.9076229e-06 0)
(0.10313457 2.9796431e-06 0)
(0.1031347 3.0386323e-06 -2.6088382e-20)
(0.10313485 3.1150266e-06 2.559032e-20)
(0.103135 3.1777824e-06 0)
(0.10313517 3.2597232e-06 0)
(0.10313534 3.3272461e-06 -2.4036769e-20)
(0.10313552 3.4161637e-06 0)
(0.10313571 3.489815e-06 0)
(0.1031359 3.5875777e-06 5.7206735e-18)
(0.1031361 3.6690348e-06 -5.5655697e-18)
(0.10313631 3.7783202e-06 0)
(0.10313651 3.8697248e-06 4.0893846e-20)
(0.10313673 3.9943212e-06 -3.9504416e-20)
(0.10313695 4.0987126e-06 -2.4726302e-18)
(0.10313717 4.2439239e-06 2.262554e-18)
(0.10313739 4.3667412e-06 -6.9702351e-20)
(0.10313762 4.5424128e-06 2.0524425e-18)
(0.10313785 4.6194452e-06 -2.1241885e-18)
(0.10313809 4.9875832e-06 0)
(0.10318103 1.7061125e-07 -1.1287058e-19)
(0.10315044 -3.2627083e-08 2.0319148e-18)
(0.10314605 1.4121191e-07 -2.0878165e-18)
(0.10314505 2.3652779e-07 -6.873713e-20)
(0.10314465 3.5092017e-07 3.6064152e-20)
(0.10314438 4.446242e-07 0)
(0.10314414 5.4019403e-07 3.9228454e-20)
(0.10314391 6.2334115e-07 0)
(0.1031437 7.0724667e-07 5.3439591e-18)
(0.10314349 7.810369e-07 6.6607036e-27)
(0.10314328 8.565839e-07 -5.7385081e-18)
(0.10314309 9.2314839e-07 2.2931124e-20)
(0.1031429 9.9226704e-07 0)
(0.10314271 1.0522698e-06 0)
(0.10314254 1.1148668e-06 3.1494339e-18)
(0.10314237 1.169902e-06 -3.2415048e-18)
(0.10314221 1.2288136e-06 0)
(0.10314206 1.2807017e-06 -1.3068501e-20)
(0.10314193 1.3370337e-06 0)
(0.1031418 1.3865412e-06 0)
(0.10314169 1.440843e-06 0)
(0.10314158 1.4886361e-06 -1.7965041e-18)
(0.1031415 1.5420121e-06 1.8413092e-18)
(0.10314142 1.5898323e-06 0)
(0.10314136 1.6432486e-06 -1.4752432e-20)
(0.10314131 1.6904502e-06 0)
(0.10314128 1.7432537e-06 -1.5236786e-20)
(0.10314126 1.7899707e-06 -5.1089986e-19)
(0.10314125 1.842768e-06 5.0331931e-19)
(0.10314125 1.8888632e-06 -1.5877752e-20)
(0.10314124 1.9396494e-06 5.3635924e-19)
(0.10314124 1.9837172e-06 -1.4903862e-18)
(0.10314125 2.0349714e-06 9.6242065e-19)
(0.10314127 2.0798657e-06 -3.0060629e-20)
(0.1031413 2.1325742e-06 1.1839474e-26)
(0.10314135 2.1784817e-06 0)
(0.10314141 2.2330013e-06 0)
(0.10314148 2.2803316e-06 0)
(0.10314158 2.3371941e-06 1.38201e-20)
(0.10314167 2.3865245e-06 -3.475963e-18)
(0.10314179 2.4464002e-06 6.8402866e-18)
(0.10314191 2.4984525e-06 1.9637764e-27)
(0.10314204 2.5621843e-06 -6.5718992e-18)
(0.10314219 2.6180339e-06 3.2454979e-18)
(0.10314234 2.68639e-06 0)
(0.1031425 2.7471432e-06 0)
(0.10314267 2.821269e-06 0)
(0.10314284 2.8880437e-06 5.8762058e-18)
(0.10314302 2.9695591e-06 -5.7439772e-18)
(0.1031432 3.0440267e-06 2.1719152e-20)
(0.10314339 3.1348914e-06 -4.2115347e-20)
(0.10314359 3.2194219e-06 -3.3055925e-26)
(0.10314379 3.322302e-06 3.1919412e-26)
(0.10314399 3.4202791e-06 -3.7705638e-20)
(0.10314419 3.5387733e-06 3.6061063e-20)
(0.1031444 3.6532427e-06 0)
(0.10314462 3.7956943e-06 5.312404e-26)
(0.10314483 3.8696408e-06 6.0938479e-20)
(0.10314505 4.1696363e-06 0)
(0.10318113 -1.9288845e-07 9.3132273e-19)
(0.10315646 8.6363918e-08 -9.6023336e-19)
(0.1031534 4.773576e-08 0)
(0.10315274 1.7336802e-07 6.7676754e-20)
(0.10315243 2.3940504e-07 -3.5653237e-20)
(0.10315221 3.1136597e-07 2.4296861e-18)
(0.10315199 3.8149131e-07 -2.5358358e-18)
(0.10315179 4.4023604e-07 5.1911065e-18)
(0.1031516 5.030921e-07 3.3799694e-27)
(0.10315141 5.5531012e-07 -5.5545744e-18)
(0.10315122 6.1177816e-07 -5.6776922e-18)
(0.10315104 6.5912523e-07 5.8591853e-18)
(0.10315087 7.111283e-07 0)
(0.10315071 7.5877153e-07 0)
(0.10315055 8.140088e-07 3.1608294e-18)
(0.1031504 8.6229973e-07 -3.1909638e-18)
(0.10315026 9.1489063e-07 -1.2870206e-20)
(0.10315013 9.6017544e-07 2.8468747e-27)
(0.10315001 1.0091529e-06 0)
(0.10314989 1.0516125e-06 1.3610028e-20)
(0.10314979 1.0979444e-06 -3.5455283e-18)
(0.1031497 1.1376379e-06 3.5924016e-18)
(0.10314962 1.1791082e-06 1.8336521e-18)
(0.10314956 1.2110124e-06 -1.8641002e-18)
(0.10314951 1.2459787e-06 0)
(0.10314946 1.2753938e-06 0)
(0.10314944 1.3098687e-06 -9.477181e-19)
(0.10314942 1.3391244e-06 1.009521e-18)
(0.10314942 1.3735607e-06 0)
(0.10314941 1.4026998e-06 1.5922456e-20)
(0.10314941 1.4368598e-06 -1.5812955e-20)
(0.10314941 1.4652759e-06 1.5561268e-20)
(0.10314943 1.4994593e-06 9.7998888e-19)
(0.10314945 1.5286761e-06 9.7929601e-19)
(0.10314948 1.5643015e-06 1.482229e-20)
(0.10314953 1.5954276e-06 -1.8808757e-18)
(0.10314959 1.6335829e-06 -1.8211682e-18)
(0.10314967 1.6671847e-06 -1.8047925e-18)
(0.10314975 1.7083843e-06 3.5342084e-18)
(0.10314985 1.7445167e-06 1.361801e-20)
(0.10314995 1.7890095e-06 -2.6747895e-20)
(0.10315007 1.8275035e-06 1.312627e-20)
(0.1031502 1.8752931e-06 -1.2873717e-20)
(0.10315033 1.9153698e-06 -2.522992e-20)
(0.10315048 1.967627e-06 -1.2348579e-20)
(0.10315063 2.0093985e-06 -2.4146216e-20)
(0.10315079 2.0670917e-06 0)
(0.10315095 2.1118921e-06 0)
(0.10315112 2.1756847e-06 -5.6999891e-18)
(0.1031513 2.2246509e-06 -4.339438e-20)
(0.10315149 2.2961452e-06 5.4197002e-18)
(0.10315167 2.3504921e-06 -4.0554787e-20)
(0.10315187 2.4320737e-06 3.9011371e-20)
(0.10315206 2.4932346e-06 2.4293685e-18)
(0.10315227 2.5894204e-06 -2.3164147e-18)
(0.10315247 2.6552399e-06 -2.1625439e-18)
(0.10315268 2.7889079e-06 4.1371775e-18)
(0.10315289 2.8259676e-06 -8.920058e-19)
(0.10315311 3.0721693e-06 -8.2486011e-19)
(0.10317572 -4.1107845e-07 -1.0642532e-19)
(0.10315698 1.7119089e-07 5.8519289e-20)
(0.10315505 2.4259264e-07 3.1324162e-20)
(0.10315466 3.8487472e-07 0)
(0.10315444 4.6673873e-07 0)
(0.10315428 5.2943865e-07 2.3356647e-18)
(0.10315411 5.8751097e-07 -2.4634791e-18)
(0.10315395 6.1921605e-07 5.1934862e-18)
(0.10315379 6.5571733e-07 -5.3478899e-18)
(0.10315364 6.7011703e-07 5.5534132e-18)
(0.10315349 6.9244729e-07 -5.7726154e-18)
(0.10315335 6.9611361e-07 -5.8931673e-18)
(0.10315321 7.0965668e-07 3.0251226e-18)
(0.10315308 7.0652912e-07 6.2121274e-18)
(0.10315296 7.1467813e-07 -3.1716924e-18)
(0.10315284 7.0731995e-07 2.8164146e-26)
(0.10315272 7.1218266e-07 1.2918679e-20)
(0.10315262 7.0221097e-07 -3.34548e-18)
(0.10315252 7.0517174e-07 6.8698355e-18)
(0.10315244 6.9380898e-07 -3.5241607e-18)
(0.10315236 6.9580966e-07 0)
(0.10315229 6.8392814e-07 1.4134974e-20)
(0.10315223 6.8570254e-07 0)
(0.10315218 6.7394847e-07 7.3036696e-21)
(0.10315215 6.760311e-07 -7.4224568e-21)
(0.10315212 6.6502407e-07 0)
(0.10315211 6.6803663e-07 -2.2990148e-20)
(0.1031521 6.5831709e-07 0)
(0.10315211 6.6287664e-07 0)
(0.10315211 6.5529495e-07 0)
(0.10315213 6.6110541e-07 0)
(0.10315214 6.5227085e-07 0)
(0.10315216 6.5662582e-07 2.3000682e-20)
(0.10315219 6.4634552e-07 7.5440446e-21)
(0.10315224 6.5014109e-07 0)
(0.10315229 6.3890738e-07 2.1907247e-20)
(0.10315236 6.4287465e-07 -1.4365908e-20)
(0.10315243 6.3116878e-07 7.063818e-21)
(0.10315252 6.3614297e-07 -6.9444362e-21)
(0.10315261 6.2454136e-07 -1.3648444e-20)
(0.10315272 6.3141727e-07 3.4451179e-18)
(0.10315283 6.2061107e-07 -6.7498069e-18)
(0.10315296 6.3052364e-07 1.2904158e-20)
(0.10315309 6.1817559e-07 3.2493828e-18)
(0.10315323 6.3237571e-07 1.2373979e-20)
(0.10315337 6.1817347e-07 2.4187795e-20)
(0.10315353 6.3972266e-07 0)
(0.10315369 6.3049886e-07 -5.8740253e-18)
(0.10315386 6.6165661e-07 2.2345875e-20)
(0.10315403 6.6147813e-07 5.5898118e-18)
(0.10315421 7.0728087e-07 2.0946941e-20)
(0.10315439 7.225544e-07 0)
(0.10315458 7.9162711e-07 -2.480167e-18)
(0.10315477 8.330759e-07 2.3887278e-18)
(0.10315497 9.4021892e-07 0)
(0.10315517 1.0231412e-06 3.3267963e-20)
(0.10315538 1.1943402e-06 -2.0284477e-18)
(0.10315559 1.267437e-06 1.7993124e-18)
(0.10315582 1.5362954e-06 -1.0682895e-19)
(0.10314761 -1.027001e-08 5.172052e-20)
(0.10313482 -1.8460363e-07 1.7699158e-18)
(0.10313374 2.1770742e-08 -1.9967151e-18)
(0.10313345 -2.604741e-08 2.1015275e-18)
(0.10313325 7.8341602e-08 -4.4628019e-18)
(0.10313307 8.0184323e-08 4.7083798e-18)
(0.10313289 1.4395461e-07 -2.4601794e-18)
(0.10313271 1.5021989e-07 5.1369833e-18)
(0.10313254 2.078766e-07 -1.0471802e-20)
(0.10313238 2.1414145e-07 -5.5429297e-18)
(0.10313222 2.7021155e-07 -5.7123286e-18)
(0.10313207 2.7705446e-07 5.9111345e-18)
(0.10313193 3.3184664e-07 0)
(0.10313179 3.3933523e-07 -1.2147639e-20)
(0.10313165 3.9286343e-07 6.2159381e-21)
(0.10313153 4.0061051e-07 -1.2703726e-20)
(0.10313141 4.5240626e-07 -3.3125265e-18)
(0.1031313 4.6042647e-07 3.3703752e-18)
(0.1031312 5.1038378e-07 -6.7311152e-21)
(0.10313111 5.1825993e-07 3.5214294e-18)
(0.10313102 5.6601094e-07 -7.1362262e-18)
(0.10313095 5.734563e-07 5.4418429e-18)
(0.10313088 6.1879891e-07 -1.8437134e-18)
(0.10313083 6.2543962e-07 -3.6592217e-21)
(0.10313078 6.683701e-07 -1.8960621e-18)
(0.10313075 6.7356596e-07 1.9375601e-18)
(0.10313072 7.1365948e-07 7.6737059e-21)
(0.10313071 7.1696286e-07 0)
(0.1031307 7.5399623e-07 0)
(0.1031307 7.5530288e-07 0)
(0.10313071 7.9362965e-07 0)
(0.10313071 7.9853061e-07 -9.9870058e-19)
(0.10313073 8.3916592e-07 9.7514425e-19)
(0.10313075 8.439518e-07 -1.9381887e-18)
(0.10313079 8.8549434e-07 1.8999067e-18)
(0.10313084 8.8982062e-07 -3.658581e-21)
(0.1031309 9.3201947e-07 0)
(0.10313096 9.3531625e-07 3.6256919e-18)
(0.10313104 9.7792651e-07 -3.5583091e-18)
(0.10313112 9.7953659e-07 0)
(0.10313122 1.0222585e-06 -3.4492354e-18)
(0.10313132 1.02232e-06 3.3859817e-18)
(0.10313143 1.065895e-06 -3.3080456e-18)
(0.10313154 1.0783167e-06 3.2284502e-18)
(0.10313167 1.1244713e-06 -3.1777928e-18)
(0.1031318 1.1540877e-06 3.1049842e-18)