/*--------------------------------*- C++ -*----------------------------------*\
| =========                 |                                                 |
| \\      /  F ield         | OpenFOAM: The Open Source CFD Toolbox           |
|  \\    /   O peration     | Version:  v2006                                 |
|   \\  /    A nd           | Website:  www.openfoam.com                      |
|    \\/     M anipulation  |                                                 |
\*---------------------------------------------------------------------------*/
FoamFile
{
    version     2.0;
    format      ascii;
    class       volVectorField;
    location    "5000";
    object      wallShearStress;
}
// * * * * * * * * * * * * * * * * * * * * * * * * * * * * * * * * * * * * * //

dimensions      [1 -1 -2 0 0 0 0];


internalField   uniform (0 0 0);

boundaryField
{
    Side
    {
        type            empty;
    }
    Ground
    {
        type            calculated;
        value           uniform (0 0 0);
    }
    Inlet
    {
        type            calculated;
        value           uniform (0 0 0);
    }
    Airfoil
    {
        type            calculated;
        value           nonuniform List<vector> 
527
(
(1.2208003e-06 -2.8117607e-07 -2.2129375e-20)
(6.0698719e-06 2.0655825e-06 3.0471229e-20)
(7.230212e-06 1.7920455e-06 1.6443903e-20)
(6.4791084e-06 1.7735915e-06 -1.7428723e-20)
(6.7993651e-06 1.9260279e-06 -1.8119736e-20)
(6.4935977e-06 1.8127405e-06 1.8772384e-20)
(5.9875749e-06 1.6407372e-06 9.4572464e-24)
(5.5353253e-06 1.5101187e-06 -9.7597148e-24)
(5.261188e-06 1.4290704e-06 -8.695916e-28)
(5.1071947e-06 1.3786792e-06 2.7963909e-37)
(4.9933229e-06 1.3184713e-06 5.8774718e-39)
(4.8949164e-06 1.2727061e-06 1.0809836e-20)
(4.8663811e-06 1.2431708e-06 -1.0968141e-20)
(4.8441677e-06 1.2189268e-06 -1.1140788e-20)
(4.8649854e-06 1.2132507e-06 1.1283155e-20)
(4.889369e-06 1.2018179e-06 0)
(4.9185492e-06 1.1989829e-06 1.1754944e-38)
(4.9441084e-06 1.1869697e-06 -1.1635983e-20)
(4.971527e-06 1.1825307e-06 -2.3020977e-23)
(4.9801042e-06 1.1638014e-06 1.1910964e-20)
(5.0043514e-06 1.1596179e-06 1.2013488e-20)
(4.9991472e-06 1.1320491e-06 -1.2131346e-20)
(5.0108755e-06 1.1282133e-06 -1.226218e-20)
(5.0166607e-06 1.1022433e-06 -2.4259698e-23)
(5.0095892e-06 1.0930584e-06 1.8026332e-27)
(5.0271184e-06 1.0783879e-06 -2.471808e-23)
(5.0073994e-06 1.06034e-06 2.4941614e-23)
(5.0205675e-06 1.0538681e-06 1.2872249e-20)
(5.0062392e-06 1.0294261e-06 5.0907133e-23)
(4.9983897e-06 1.0203651e-06 1.3118276e-20)
(5.006589e-06 1.0053147e-06 -1.3252193e-20)
(4.9748249e-06 9.8293711e-07 -1.3371606e-20)
(4.972997e-06 9.7246783e-07 -1.3511971e-20)
(4.9510787e-06 9.428601e-07 -1.3615738e-20)
(4.9129285e-06 9.2029306e-07 -1.371963e-20)
(4.9252507e-06 9.0941324e-07 5.4117089e-23)
(4.8885984e-06 8.6790153e-07 -1.3876717e-27)
(4.8442809e-06 8.4480908e-07 1.4017423e-20)
(4.8420894e-06 8.2951451e-07 -5.8774718e-39)
(4.7936357e-06 7.8409923e-07 -7.1063253e-21)
(4.7532057e-06 7.5913951e-07 -5.6331178e-23)
(4.7352589e-06 7.3984634e-07 7.2579259e-21)
(4.6797164e-06 6.9799697e-07 7.2780564e-21)
(4.6286847e-06 6.6764528e-07 1.1535726e-22)
(4.5880226e-06 6.4304344e-07 7.3713606e-21)
(4.5387508e-06 6.049888e-07 9.8006841e-37)
(4.4718763e-06 5.6536598e-07 5.9014706e-23)
(4.4200924e-06 5.346684e-07 -7.5995763e-21)
(4.3489631e-06 4.9742798e-07 -7.7959341e-21)
(4.2445088e-06 4.3524267e-07 -7.6651579e-21)
(4.1970577e-06 3.9507531e-07 1.4693679e-39)
(4.0945432e-06 3.5309019e-07 -1.3100907e-39)
(3.9883734e-06 2.8957012e-07 4.6032542e-39)
(3.8484868e-06 2.314132e-07 -6.2019e-23)
(3.7983784e-06 1.7915302e-07 8.1479096e-21)
(3.6173636e-06 1.2543101e-07 -8.0646102e-21)
(3.39841e-06 3.9301158e-08 -6.3425159e-23)
(3.3170212e-06 -2.1463934e-08 -5.3809861e-43)
(3.1799294e-06 -8.3864033e-08 -6.4335577e-23)
(2.9341047e-06 -1.4818445e-07 8.3622216e-21)
(2.6758513e-06 -2.304955e-07 -6.5369759e-23)
(2.5538968e-06 -2.8987891e-07 6.5690531e-23)
(2.3396443e-06 -3.6342936e-07 -3.7939539e-38)
(2.0129848e-06 -4.5665351e-07 1.5382446e-39)
(1.7086124e-06 -5.5324935e-07 6.706522e-23)
(1.5172038e-06 -6.3248225e-07 -6.7767984e-23)
(1.2246761e-06 -7.2022104e-07 -6.8100671e-23)
(7.3012027e-07 -8.1805838e-07 8.844176e-21)
(3.2131888e-07 -9.2852363e-07 8.522334e-38)
(3.9276847e-08 -1.0433263e-06 -1.7632415e-38)
(-3.2845623e-07 -1.1828164e-06 -4.4170378e-21)
(-1.09952e-06 -1.3106114e-06 -7.0041305e-27)
(-1.7502362e-06 -1.4449143e-06 -7.1500509e-27)
(-2.0880038e-06 -1.5734297e-06 -9.2033837e-21)
(-2.4473069e-06 -1.7361977e-06 -7.1556442e-23)
(-3.5169964e-06 -1.8434256e-06 1.433798e-22)
(-4.535976e-06 -1.9436314e-06 -4.7630666e-21)
(-4.8301052e-06 -2.0862851e-06 -4.4864003e-21)
(-5.3270578e-06 -2.2417213e-06 -8.8736074e-27)
(-6.1929326e-06 -2.3726002e-06 -1.461246e-22)
(-7.3944704e-06 -2.4490224e-06 7.315059e-23)
(-8.0608875e-06 -2.5669793e-06 7.3763382e-23)
(-8.5301727e-06 -2.7157007e-06 4.6601638e-21)
(-9.0607496e-06 -2.9030139e-06 9.5119566e-21)
(-1.0398868e-05 -2.9742247e-06 -4.7737462e-21)
(-1.154922e-05 -3.0268317e-06 8.317321e-27)
(-1.1891535e-05 -3.2012706e-06 3.7643868e-23)
(-1.2521358e-05 -3.3662618e-06 -3.7811536e-23)
(-1.3418804e-05 -3.5188616e-06 4.8492079e-21)
(-1.4853751e-05 -3.5584165e-06 -4.8781611e-21)
(-1.5797802e-05 -3.6378213e-06 -3.8200886e-23)
(-1.6262781e-05 -3.8186523e-06 -4.8788862e-21)
(-1.6895429e-05 -4.0210239e-06 4.9464643e-21)
(-1.8198944e-05 -4.1213483e-06 -1.4693679e-38)
(-1.9835136e-05 -4.0909975e-06 -4.9371135e-21)
(-2.0589689e-05 -4.1875368e-06 9.912359e-21)
(-2.1051248e-05 -4.373998e-06 -4.9766004e-21)
(-2.1653536e-05 -4.6022187e-06 3.9486699e-23)
(-2.3266308e-05 -4.6418035e-06 -5.0928494e-21)
(-2.5101516e-05 -4.5226544e-06 -1.2930438e-37)
(-2.5713884e-05 -4.6259568e-06 2.5508772e-21)
(-2.6121275e-05 -4.815409e-06 2.5998612e-21)
(-2.6696711e-05 -5.0438269e-06 2.579625e-21)
(-2.8315438e-05 -5.0671372e-06 2.5418464e-21)
(-3.0266122e-05 -4.8909458e-06 -2.5453923e-21)
(-3.0929652e-05 -4.9602563e-06 -1.0842173e-26)
(-3.1241671e-05 -5.1546222e-06 2.5753289e-21)
(-3.1793307e-05 -5.3648836e-06 -2.5713939e-39)
(-3.3138268e-05 -5.4386434e-06 -8.522334e-38)
(-3.5243978e-05 -5.2294162e-06 -2.3399684e-37)
(-3.6217105e-05 -5.1960586e-06 -2.6598772e-21)
(-3.6383346e-05 -5.4053084e-06 2.6747534e-21)
(-3.6899265e-05 -5.5828329e-06 -2.6853922e-21)
(-3.770176e-05 -5.7794576e-06 4.2281411e-23)
(-3.9992858e-05 -5.564987e-06 -5.614384e-27)
(-4.1509456e-05 -5.3614541e-06 -2.7564179e-21)
(-4.1474508e-05 -5.6055345e-06 5.4729206e-21)
(-4.197288e-05 -5.7517814e-06 2.7053649e-21)
(-4.2552947e-05 -5.959262e-06 4.3189849e-23)
(-4.4266276e-05 -5.9020781e-06 4.3341733e-23)
(-4.6084826e-05 -5.6779896e-06 -8.6831142e-23)
(-4.6611056e-05 -5.763912e-06 -2.7533346e-21)
(-4.6952155e-05 -5.9302883e-06 -1.2856969e-37)
(-4.7500624e-05 -6.096196e-06 -5.6527505e-21)
(-4.8328158e-05 -6.2745708e-06 2.8011739e-21)
(-5.0459017e-05 -6.0868821e-06 8.9043839e-23)
(-5.1895533e-05 -5.9143358e-06 -4.4656983e-23)
(-5.193649e-05 -6.1526946e-06 2.8826502e-21)
(-5.2456693e-05 -6.3043532e-06 -4.5269663e-23)
(-5.3048568e-05 -6.5248387e-06 9.0902745e-23)
(-5.4625275e-05 -6.5560066e-06 -2.9719716e-21)
(-5.7211515e-05 -6.1944486e-06 1.4631486e-21)
(-5.8326334e-05 -6.0789264e-06 1.4220348e-21)
(-5.8203617e-05 -6.3361309e-06 1.5281412e-21)
(-5.8561198e-05 -6.5256093e-06 1.5359369e-21)
(-5.9062729e-05 -6.8112701e-06 1.4490403e-21)
(-6.1612019e-05 -6.6258863e-06 1.5010829e-21)
(-6.4934964e-05 -5.9703051e-06 -4.6865987e-23)
(-6.5629883e-05 -5.8874121e-06 4.70195e-23)
(-6.5118936e-05 -6.168349e-06 -4.7486561e-23)
(-6.5195345e-05 -6.3656058e-06 1.5288493e-21)
(-6.5488903e-05 -6.6532654e-06 9.6019518e-23)
(-6.8346823e-05 -6.3590541e-06 1.5396153e-21)
(-7.20292e-05 -5.5290832e-06 -1.5866209e-21)
(-7.2561474e-05 -5.4127859e-06 1.5435136e-21)
(-7.1725096e-05 -5.6918818e-06 3.1568452e-41)
(-7.1633818e-05 -5.8239586e-06 1.569633e-21)
(-7.1712826e-05 -6.0114647e-06 -6.2815479e-38)
(-7.3273434e-05 -5.9112385e-06 -1.5348298e-21)
(-7.5918824e-05 -5.380943e-06 -4.9640223e-23)
(-7.6685303e-05 -5.2186689e-06 4.9819506e-23)
(-7.6021344e-05 -5.4447292e-06 -4.8767318e-27)
(-7.6025399e-05 -5.5184036e-06 -5.0631463e-23)
(-7.6112147e-05 -5.6230592e-06 2.895688e-38)
(-7.6494719e-05 -5.6990039e-06 2.5586269e-23)
(-7.7642616e-05 -5.5785707e-06 -2.5746527e-23)
(-7.8319221e-05 -5.5220135e-06 -8.0237712e-22)
(-7.8126424e-05 -5.6899399e-06 -2.6035871e-23)
(-7.8241373e-05 -5.8022805e-06 8.3869775e-22)
(-7.8270469e-05 -5.9911834e-06 1.102026e-39)
(-7.8464913e-05 -6.2207194e-06 -8.7673606e-22)
(-8.1183936e-05 -5.8690625e-06 8.7637521e-22)
(-8.3477777e-05 -5.3546171e-06 -1.6813417e-21)
(-8.2866756e-05 -5.5812544e-06 -5.3686978e-23)
(-8.1947532e-05 -5.8769336e-06 -8.3854118e-22)
(-8.1290614e-05 -6.2211782e-06 -8.4512449e-22)
(-8.084151e-05 -6.7204104e-06 8.8101098e-22)
(-8.4250807e-05 -6.7850422e-06 8.4991204e-22)
(-9.6840325e-05 -4.4768027e-06 -2.687544e-23)
(-0.00010131699 -2.5055866e-06 -4.0206869e-22)
(-9.3916339e-05 -3.8855536e-06 2.7228837e-23)
(-9.1417206e-05 -4.138093e-06 -2.7613592e-23)
(-8.9190937e-05 -4.7424698e-06 2.7928632e-23)
(-8.8651927e-05 -5.5266101e-06 -2.8067292e-23)
(-0.00010035802 -4.1433307e-06 4.3919475e-22)
(-0.00011836963 7.6028468e-07 2.6402705e-40)
(-0.00011944891 2.5183576e-06 -2.3930929e-22)
(-0.00010840375 6.1729763e-07 -8.1324802e-23)
(-0.00010340191 1.7779346e-07 -2.9846536e-40)
(-9.9205445e-05 -6.2896099e-07 0)
(-9.7598351e-05 -1.644691e-06 -6.431741e-47)
(-0.00011558746 1.2707044e-06 1.9728727e-28)
(-0.00013413784 7.7829212e-06 8.4518196e-40)
(-0.00013050851 8.5280484e-06 1.0561082e-38)
(-0.00011873647 6.5392455e-06 -8.6702519e-22)
(-0.00011292317 5.852034e-06 1.2856969e-38)
(-0.00010739192 4.9263022e-06 9.0312327e-22)
(-0.00010485668 4.1812405e-06 -2.1122164e-39)
(-0.00011848417 6.8476652e-06 2.7524637e-23)
(-0.00013406127 1.2263758e-05 -2.688479e-23)
(-0.00013129048 1.3126414e-05 -8.866312e-22)
(-0.00011963428 1.0907006e-05 5.5070647e-23)
(-0.00011376747 1.009179e-05 -2.818383e-23)
(-0.00010855323 9.068397e-06 9.4853358e-22)
(-0.00010613181 8.3682764e-06 9.268732e-22)
(-0.00011773349 9.8008508e-06 -2.7868596e-23)
(-0.00014444456 1.8063121e-05 -8.1505378e-22)
(-0.00014816311 2.232026e-05 1.6508622e-26)
(-0.00012903707 1.8043572e-05 -2.6973911e-23)
(-0.00012157027 1.7047114e-05 -7.3468397e-40)
(-0.00011506693 1.5816727e-05 1.8557102e-21)
(-0.00011005541 1.4808292e-05 -2.9103533e-23)
(-0.00011094365 1.4916892e-05 -1.8400521e-21)
(-0.00013269272 2.0473438e-05 -1.3547367e-23)
(-0.00014234443 2.6166391e-05 1.3472281e-23)
(-0.00013068279 2.3997392e-05 -1.0010069e-38)
(-0.00012133902 2.2091906e-05 0)
(-0.00011471568 2.0769352e-05 -1.4693679e-39)
(-0.00010958549 1.9677285e-05 -1.8843775e-21)
(-0.00010594352 1.9002988e-05 1.4010653e-38)
(-0.00010924203 2.0026182e-05 -1.8594028e-21)
(-0.00012666922 2.4873222e-05 1.7816952e-21)
(-0.00013060095 2.81171e-05 1.7646446e-21)
(-0.00011545772 2.4317894e-05 0)
(-0.00010980098 2.327003e-05 4.7426794e-27)
(-0.00010437793 2.2016288e-05 1.9514433e-21)
(-0.00010063992 2.1194204e-05 1.9724939e-21)
(-9.9322131e-05 2.1044591e-05 -1.5453305e-23)
(-0.00010457756 2.2758118e-05 -1.9321802e-21)
(-0.0001239454 2.8283189e-05 1.8172589e-21)
(-0.00012802766 3.178193e-05 0)
(-0.00011184486 2.7503852e-05 1.8575202e-21)
(-0.00010620905 2.6324708e-05 1.5121247e-23)
(-0.00010061647 2.4909204e-05 4.0010482e-27)
(-9.6714772e-05 2.3940296e-05 1.5813963e-23)
(-9.4189811e-05 2.347711e-05 2.0321523e-21)
(-9.6470614e-05 2.4554483e-05 0)
(-0.00010930704 2.831622e-05 -1.4932317e-23)
(-0.00011459597 3.1394296e-05 1.4948706e-23)
(-0.00010663128 2.980683e-05 -1.9274419e-21)
(-9.9788724e-05 2.7952984e-05 -1.5644019e-23)
(-9.487293e-05 2.6614594e-05 1.6053371e-23)
(-9.0933565e-05 2.5515457e-05 2.0824777e-21)
(-8.8091813e-05 2.4749967e-05 -4.4081038e-38)
(-8.7565192e-05 2.4905789e-05 3.938415e-44)
(-9.1459243e-05 2.6531709e-05 7.2387716e-40)
(-0.00010194985 2.9750206e-05 0)
(-0.00010351276 3.1492243e-05 -2.0168233e-21)
(-9.277584e-05 2.8422225e-05 -2.6534549e-27)
(-8.8778923e-05 2.7337247e-05 -2.7403316e-27)
(-8.4778972e-05 2.6164382e-05 3.4175173e-23)
(-8.2024326e-05 2.5368161e-05 -3.4808198e-23)
(-8.0516412e-05 2.5073071e-05 1.7577847e-23)
(-8.1456676e-05 2.5680361e-05 -4.4509415e-21)
(-8.6232217e-05 2.7738918e-05 2.1533558e-21)
(-9.8071429e-05 3.1037641e-05 -1.9193619e-38)
(-0.00010012684 3.3409748e-05 2.0452708e-21)
(-8.8574278e-05 2.9972579e-05 2.9387359e-39)
(-8.4701172e-05 2.8828091e-05 4.4194948e-21)
(-8.0629653e-05 2.7520336e-05 -3.5264831e-38)
(-7.7649121e-05 2.6565017e-05 -2.9387359e-39)
(-7.5361247e-05 2.5877614e-05 -1.1758561e-21)
(-7.427602e-05 2.5701129e-05 1.1845491e-21)
(-7.53945e-05 2.6421863e-05 -1.4693679e-39)
(-8.0020483e-05 2.8041025e-05 8.8871919e-24)
(-8.2845345e-05 2.9412163e-05 1.1307268e-21)
(-8.0736436e-05 2.922693e-05 1.1458864e-21)
(-7.5919262e-05 2.7659408e-05 -5.8774718e-39)
(-7.3159455e-05 2.6722794e-05 -1.2036993e-21)
(-7.0602366e-05 2.5844474e-05 -2.9387359e-38)
(-6.8637714e-05 2.5181382e-05 -5.8774718e-39)
(-6.7250231e-05 2.4783464e-05 1.2632842e-21)
(-6.6975121e-05 2.4891274e-05 -9.8704421e-24)
(-6.8053806e-05 2.5547563e-05 1.2673507e-21)
(-7.156425e-05 2.6828098e-05 -1.9028225e-23)
(-7.3783041e-05 2.7858246e-05 9.5280839e-24)
(-7.2320196e-05 2.7728364e-05 -4.7925085e-24)
(-6.8429104e-05 2.6426052e-05 1.2683758e-21)
(-6.6351171e-05 2.5690709e-05 7.1683406e-28)
(-6.4474704e-05 2.502738e-05 -5.0997295e-24)
(-6.3181776e-05 2.4620441e-05 -1.3225837e-21)
(-6.2658541e-05 2.4587555e-05 2.6592262e-21)
(-6.3085707e-05 2.4961713e-05 -5.8774718e-39)
(-6.4356729e-05 2.5733575e-05 -1.1754944e-38)
(-6.73802e-05 2.7288868e-05 2.5216146e-21)
(-7.3363139e-05 2.9376893e-05 4.7190568e-24)
(-7.5155976e-05 3.0414624e-05 1.2098503e-21)
(-6.9180885e-05 2.8585076e-05 4.9343094e-24)
(-6.658104e-05 2.7639292e-05 -8.8162076e-39)
(-6.4083355e-05 2.6691754e-05 -1.3280286e-21)
(-6.2124256e-05 2.5940417e-05 2.0881603e-28)
(-6.0482922e-05 2.5318203e-05 -2.6922483e-24)
(-5.9228563e-05 2.4862832e-05 4.017803e-41)
(-5.8402583e-05 2.4640499e-05 1.876888e-39)
(-5.8352837e-05 2.4804657e-05 -2.2420775e-44)
(-5.890616e-05 2.5231108e-05 2.1279817e-27)
(-6.0586479e-05 2.5942973e-05 6.0693039e-41)
(-6.1759886e-05 2.6425949e-05 2.9387359e-39)
(-6.1088003e-05 2.6335868e-05 -6.9310045e-22)
(-5.8561538e-05 2.5427976e-05 7.0701205e-22)
(-5.7263488e-05 2.4915442e-05 1.406267e-24)
(-5.5972626e-05 2.4409472e-05 7.3205308e-22)
(-5.4985799e-05 2.4031227e-05 -1.4441793e-24)
(-5.4247573e-05 2.3781035e-05 -7.4709354e-22)
(-5.3870663e-05 2.3737415e-05 -3.5305908e-29)
(-5.3926588e-05 2.3905728e-05 -1.4958356e-21)
(-5.4324203e-05 2.4235961e-05 7.4349681e-22)
(-5.516315e-05 2.4792267e-05 0)
(-5.6790388e-05 2.5676975e-05 -1.7218351e-25)
(-5.9230639e-05 2.6590205e-05 1.7200664e-25)
(-5.9920289e-05 2.6801039e-05 -2.9387359e-39)
(-5.6445951e-05 2.5647958e-05 7.3206474e-22)
(-5.5344173e-05 2.5223448e-05 -7.4641802e-22)
(-5.4017499e-05 2.4691116e-05 3.701009e-25)
(-5.3070165e-05 2.4308993e-05 1.4349296e-42)
(-5.230614e-05 2.4013541e-05 7.5745235e-25)
(-5.1756327e-05 2.3859533e-05 2.9418935e-29)
(-5.1555411e-05 2.3906335e-05 -7.6480849e-25)
(-5.1642268e-05 2.4077685e-05 7.8112643e-22)
(-5.1994312e-05 2.4365741e-05 -7.760553e-22)
(-5.2637535e-05 2.4799459e-05 1.5375681e-21)
(-5.3675182e-05 2.5444673e-05 -1.4768264e-24)
(-5.5363694e-05 2.6264707e-05 1.4477945e-24)
(-5.7062861e-05 2.6930496e-05 -3.6773663e-22)
(-5.7388466e-05 2.7082616e-05 -5.8774718e-39)
(-5.509854e-05 2.6298685e-05 7.535639e-22)
(-5.4328479e-05 2.6019216e-05 1.4954805e-24)
(-5.3500406e-05 2.5717369e-05 -3.8854197e-22)
(-5.2983861e-05 2.5609838e-05 1.5230134e-24)
(-5.2783067e-05 2.5683109e-05 3.9047985e-22)
(-5.2836571e-05 2.5839589e-05 -3.9111346e-22)
(-5.3066967e-05 2.606598e-05 1.5143837e-24)
(-5.3489667e-05 2.638732e-05 1.5026654e-24)
(-5.4117525e-05 2.6807712e-05 -1.4870494e-24)
(-5.4962872e-05 2.7346467e-05 -6.0209647e-39)
(-5.6045615e-05 2.801813e-05 5.6051939e-45)
(-5.738625e-05 2.8845514e-05 -2.4820377e-27)
(-5.9073835e-05 2.9858443e-05 -3.5470273e-22)
(-6.1249082e-05 3.0997786e-05 1.3423085e-24)
(-6.3458819e-05 3.209186e-05 3.3698893e-22)
(-6.4814638e-05 3.3163122e-05 0)
(-6.5861396e-05 3.424407e-05 -1.2828202e-24)
(-6.7522549e-05 3.5376984e-05 -3.2009894e-22)
(-6.9403202e-05 3.6626431e-05 1.5553393e-22)
(-7.1581731e-05 3.8024826e-05 2.3835901e-24)
(-7.4019324e-05 3.9567378e-05 -2.3144122e-24)
(-7.6712987e-05 4.1254357e-05 1.121432e-24)
(-7.9651788e-05 4.3081838e-05 -5.8774718e-39)
(-8.2825321e-05 4.5045599e-05 2.6889677e-22)
(-8.6221325e-05 4.714238e-05 -2.5953566e-22)
(-8.9828601e-05 4.9368771e-05 1.249208e-22)
(-9.3641346e-05 5.1721789e-05 -1.2089273e-22)
(-9.7647422e-05 5.4157018e-05 4.5335573e-25)
(-0.0001018476 5.6523238e-05 1.1189278e-22)
(-0.0001061743 5.8812675e-05 2.1578716e-22)
(-0.00011065666 6.1010828e-05 2.0402775e-25)
(-0.00011504607 6.2851039e-05 -8.4917632e-27)
(-0.00011749039 6.4395038e-05 -9.8528607e-23)
(-0.0001192634 6.7067887e-05 4.7022981e-26)
(-2.8885797e-05 -2.9883654e-06 0)
(-2.7044982e-05 -2.5206882e-06 -3.0947064e-24)
(-2.791605e-05 -2.4038775e-06 3.0967427e-24)
(-2.7407763e-05 -1.9620094e-06 -6.3456441e-21)
(-2.6246974e-05 -1.6024747e-06 5.546864e-37)
(-2.5660064e-05 -1.3269637e-06 -3.1052082e-24)
(-2.436538e-05 -1.0046516e-06 -6.3626023e-21)
(-2.3392858e-05 -8.7626757e-07 3.1831414e-21)
(-2.3407835e-05 -8.5427368e-07 3.1909488e-21)
(-2.3382858e-05 -8.2690391e-07 -3.1886398e-21)
(-2.3345427e-05 -8.0716142e-07 -3.1146916e-24)
(-2.3347563e-05 -8.0074794e-07 -3.1898715e-21)
(-2.3526091e-05 -8.1880403e-07 1.557491e-24)
(-2.382175e-05 -8.2947886e-07 3.191393e-21)
(-2.3987574e-05 -8.1127136e-07 3.189854e-21)
(-2.4182975e-05 -7.8084845e-07 -6.3800066e-21)
(-2.4104189e-05 -6.8589171e-07 -7.1410225e-30)
(-2.37447e-05 -5.9479758e-07 -3.1909919e-21)
(-2.3582674e-05 -5.3082824e-07 3.1916982e-21)
(-2.3480276e-05 -4.598944e-07 -3.1921845e-21)
(-2.3182677e-05 -3.7749339e-07 -1.5963977e-21)
(-2.292972e-05 -3.3066905e-07 -1.5967739e-21)
(-2.2948367e-05 -2.8995273e-07 3.1947142e-21)
(-2.2792533e-05 -2.2452339e-07 -1.5596941e-24)
(-2.2583369e-05 -1.8749231e-07 -7.9752408e-22)
(-2.2717715e-05 -1.5337248e-07 -7.9913558e-22)
(-2.2555257e-05 -6.9705036e-08 3.9939085e-22)
(-2.2168849e-05 -1.3974296e-08 -9.987006e-23)
(-2.2140816e-05 3.36443e-08 -2.8698593e-42)
(-2.1834847e-05 1.101619e-07 7.9917786e-22)
(-2.1474144e-05 1.4288219e-07 -1.5987504e-21)
(-2.1513848e-05 1.7463258e-07 -7.9946236e-22)
(-2.138584e-05 2.3122285e-07 -1.5990094e-21)
(-2.1092009e-05 2.7156305e-07 -5.0962961e-38)
(-2.1087741e-05 3.1402335e-07 1.1479437e-41)
(-2.0764375e-05 3.92271e-07 1.5988178e-21)
(-2.0261394e-05 4.2454606e-07 -3.2001202e-21)
(-2.0125266e-05 4.6060113e-07 3.2015092e-21)
(-1.9851311e-05 5.0402356e-07 -3.2011732e-21)
(-1.9529639e-05 5.2812299e-07 -3.2018249e-21)
(-1.94064e-05 5.5816576e-07 -2.1917649e-37)
(-1.9168789e-05 6.0818377e-07 -3.2011291e-21)
(-1.8685115e-05 6.4953602e-07 -3.2034553e-21)
(-1.8210405e-05 6.7984348e-07 -3.2059913e-21)
(-1.7796765e-05 7.2507422e-07 1.5651905e-24)
(-1.6985546e-05 7.6511505e-07 -3.13144e-24)
(-1.6051316e-05 7.5981955e-07 -1.283213e-20)
(-1.5256317e-05 7.5149323e-07 -6.420396e-21)
(-1.4317422e-05 7.0487298e-07 -4.0895494e-41)
(-1.3620049e-05 6.3139645e-07 -6.4311697e-21)
(-1.3121914e-05 5.5289524e-07 -2.6823403e-28)
(-1.2744703e-05 4.6280655e-07 3.2199841e-21)
(-1.231039e-05 3.4456841e-07 -3.2179816e-21)
(-1.2386094e-05 1.9217516e-07 -3.2185427e-21)
(-1.2882218e-05 5.7734293e-08 3.1430707e-24)
(-1.3272624e-05 -1.1569315e-07 -6.2856269e-24)
(-1.3842392e-05 -3.1750433e-07 3.1422535e-24)
(-1.4712084e-05 -5.5976617e-07 3.2135251e-21)
(-1.5873187e-05 -8.4618574e-07 3.1400034e-24)
(-1.7149511e-05 -1.1755542e-06 -6.430795e-21)
(-1.8585619e-05 -1.5482266e-06 3.136904e-24)
(-2.0240122e-05 -1.971914e-06 -1.2843533e-20)
(-2.2072912e-05 -2.4634751e-06 3.1326256e-24)
(-2.4635699e-05 -3.0700727e-06 1.2812139e-20)
(-2.7145941e-05 -3.8441915e-06 -1.2796551e-20)
(-3.4371942e-05 -4.7282375e-06 6.2412495e-24)
(-2.9575443e-05 -5.1845451e-06 1.2723796e-20)
(-7.1215294e-05 -1.173559e-05 -5.3962538e-37)
(-6.5034269e-05 8.2304629e-06 6.0555622e-21)
(-0.00013161427 -9.3590457e-05 -8.9891639e-22)
(-0.00010532478 -6.9395675e-05 3.1449745e-23)
(-9.7027128e-05 -6.1056079e-05 -3.0296118e-27)
(-0.00010641116 -6.3323106e-05 -3.7028917e-21)
(-0.00015613887 -9.5559569e-05 1.513627e-21)
(-0.00016400391 -7.4694184e-05 -1.4683741e-21)
(-8.024272e-05 -1.7590492e-05 2.9387359e-39)
(-3.6901411e-05 -5.6399425e-06 4.0911535e-21)
(-3.724662e-05 -5.177307e-06 1.0359044e-37)
(-8.9010735e-06 1.8840766e-06 3.7206026e-21)
(9.580236e-07 3.189483e-06 1.5696965e-26)
(-1.9117674e-06 1.5279683e-06 1.0431744e-26)
(-4.1701279e-06 1.0213404e-06 -2.1320783e-23)
(-1.2134802e-05 -8.8995499e-07 -4.8529297e-21)
(-1.8509368e-05 -2.3249882e-06 -4.3860348e-21)
(-2.024367e-05 -2.5604536e-06 -3.9996499e-21)
(-2.1464176e-05 -2.7434467e-06 -1.4399936e-23)
(-2.7069652e-05 -3.8840901e-06 -6.6153596e-24)
(-2.7054831e-05 -3.3672886e-06 -6.142798e-21)
(-2.4485132e-05 -2.848602e-06 5.6341912e-24)
(-2.8306279e-05 -3.5248897e-06 5.4626316e-21)
(-2.9172104e-06 -2.1075776e-05 5.3161758e-22)
(-3.5276999e-06 -2.4994979e-05 7.3468397e-40)
(-4.8845168e-06 -3.3001049e-05 9.9784123e-22)
(-7.2122493e-06 -4.3351313e-05 -9.4885343e-22)
(-1.056379e-05 -4.5541964e-05 -9.0610978e-22)
(-1.1313866e-05 -4.8783127e-05 8.7060065e-22)
(-1.3891116e-05 -5.8186467e-05 -1.4693679e-39)
(-1.6980369e-05 -6.8972208e-05 2.3640289e-23)
(-2.420486e-05 -9.5090182e-05 -6.9846353e-22)
(-3.5521001e-05 -9.7704753e-05 -4.1869673e-23)
(-3.559499e-05 -8.0811294e-05 7.7608011e-27)
(-3.4295134e-05 -7.3234336e-05 -1.4152267e-21)
(-4.0376209e-05 -8.3011259e-05 1.3627821e-21)
(-4.8968873e-05 -9.7976923e-05 1.2471346e-21)
(-5.2433285e-05 -9.4351213e-05 -2.9387359e-39)
(-5.256019e-05 -9.0882737e-05 2.4029248e-21)
(-6.1565145e-05 -0.00010339954 -1.8671645e-26)
(-7.2753378e-05 -0.00011876566 3.0646124e-23)
(-0.00010349452 -0.00016923095 -3.320149e-21)
(-0.00011872541 -0.00014968616 -2.6015881e-23)
(-8.6708976e-05 -9.881956e-05 4.00304e-21)
(-7.9527509e-05 -8.4674892e-05 0)
(-9.128841e-05 -9.3470672e-05 0)
(-0.00011421621 -0.00011530802 0)
(-0.00011432836 -0.00010107795 -2.8406321e-23)
(-8.711504e-05 -7.0763739e-05 3.2967479e-23)
(-8.7041776e-05 -6.7695362e-05 2.1223657e-21)
(-9.8595164e-05 -7.4322125e-05 -1.8886387e-21)
(-0.00012951284 -9.9946883e-05 0)
(-9.3869592e-08 -1.458465e-05 3.4375249e-23)
(-3.460396e-07 -2.9774174e-06 -6.3352345e-22)
(-5.6976256e-07 3.6611199e-06 0)
(-1.3750686e-06 9.4378954e-06 1.1754944e-38)
(-2.850423e-06 1.4691402e-05 -1.100724e-21)
(-3.9223781e-06 2.0089778e-05 -1.0133575e-21)
(-5.091778e-06 2.5845647e-05 -9.1756344e-22)
(-6.551129e-06 3.2499354e-05 -1.102026e-39)
(-8.6530693e-06 3.9662921e-05 -6.8088253e-22)
(-1.0304979e-05 5.3565112e-05 3.782153e-27)
(-1.5936643e-05 5.7133529e-05 1.2429806e-21)
(-1.8172819e-05 5.0351437e-05 1.4693679e-38)
(-2.0461997e-05 5.076808e-05 1.9496489e-23)
(-2.2941628e-05 5.5361978e-05 -1.7700863e-23)
(-2.5985589e-05 6.1147915e-05 5.2000413e-22)
(-2.9051811e-05 7.1219126e-05 -4.8056924e-22)
(-3.2652955e-05 7.4770871e-05 -9.1625746e-22)
(-3.3967525e-05 6.9313508e-05 -4.8120706e-22)
(-3.6202021e-05 6.8800635e-05 -4.5540638e-22)
(-3.9199568e-05 7.2383509e-05 -4.0733102e-22)
(-4.2914115e-05 7.7908393e-05 3.7067953e-22)
(-4.7696441e-05 8.5224103e-05 -1.0738594e-23)
(-5.4440965e-05 9.4026575e-05 -5.9091847e-22)
(-6.2905381e-05 0.0001170094 2.6885242e-22)
(-8.1556981e-05 0.00012853914 -9.7013917e-24)
(-7.8205431e-05 9.4825952e-05 1.210539e-23)
(-7.1616324e-05 8.1979876e-05 -4.2920139e-22)
(-6.711977e-05 7.6995184e-05 -7.0513881e-24)
(-6.5366266e-05 7.489657e-05 4.5949165e-22)
(-6.7339085e-05 7.5553528e-05 -5.8774718e-39)
(-7.2331541e-05 7.9241657e-05 0)
(-7.8609204e-05 8.868303e-05 0)
(-8.5495245e-05 9.8407219e-05 3.8355922e-22)
(-9.2281568e-05 9.4075204e-05 6.9346344e-24)
(-8.5340924e-05 7.1841087e-05 -5.3170594e-22)
(-7.7232626e-05 6.2863011e-05 5.8842732e-22)
(-7.106941e-05 5.8556363e-05 6.2341322e-22)
(-6.7340628e-05 5.5928574e-05 6.3128746e-22)
(-6.6938509e-05 5.5111794e-05 1.9900505e-23)
(-6.906185e-05 5.6123241e-05 2.9781743e-22)
(-7.3116495e-05 5.8591944e-05 5.82918e-22)
(-7.8961587e-05 6.2831297e-05 -5.8774718e-39)
(-8.5850113e-05 7.0966789e-05 -7.8157337e-24)
(-9.0640462e-05 8.0388469e-05 -2.5389636e-22)
(-9.9447634e-05 8.0594005e-05 6.06767e-22)
(-9.006727e-05 5.7386683e-05 -1.161506e-23)
(-7.8701752e-05 4.6381726e-05 -4.3058097e-22)
(-6.9113141e-05 4.0590079e-05 5.0313379e-22)
(-6.2195223e-05 3.6657503e-05 -5.2106653e-22)
(-5.7600573e-05 3.3970464e-05 1.6522648e-23)
(-5.4956257e-05 3.2077255e-05 1.0719373e-21)
(-5.4972273e-05 3.1345023e-05 5.4700304e-22)
(-5.7431296e-05 3.198982e-05 1.0641178e-21)
(-6.0666995e-05 3.3820288e-05 -1.5967823e-23)
(-6.4238222e-05 3.640395e-05 1.5210818e-23)
(-6.823577e-05 3.9473996e-05 2.3048149e-22)
(-7.2569923e-05 4.2947031e-05 1.360981e-23)
(-7.8745132e-05 4.545439e-05 -1.2853e-23)
(-0.00010162344 3.8748247e-05 1.7602535e-22)
)
;
    }
    Outlet
    {
        type            calculated;
        value           uniform (0 0 0);
    }
}


// ************************************************************************* //
