/*--------------------------------*- C++ -*----------------------------------*\
| =========                 |                                                 |
| \\      /  F ield         | OpenFOAM: The Open Source CFD Toolbox           |
|  \\    /   O peration     | Version:  v2006                                 |
|   \\  /    A nd           | Website:  www.openfoam.com                      |
|    \\/     M anipulation  |                                                 |
\*---------------------------------------------------------------------------*/
FoamFile
{
    version     2.0;
    format      ascii;
    class       volScalarField;
    location    "5000";
    object      yPlus;
}
// * * * * * * * * * * * * * * * * * * * * * * * * * * * * * * * * * * * * * //

dimensions      [0 0 0 0 0 0 0];


internalField   uniform 0;

boundaryField
{
    Side
    {
        type            empty;
    }
    Ground
    {
        type            calculated;
        value           nonuniform List<scalar> 
519
(
1.3190508
1.3231616
1.3265404
1.3330888
1.3417576
1.3532061
1.367359
1.3844962
1.4053808
1.4290584
1.4492655
1.4869883
1.5950824
1.4808242
1.8195774
1.7716879
1.7216915
1.6746983
1.6290357
1.5854527
1.543778
1.5042242
1.4668629
1.4318743
1.3995587
1.369882
1.3422983
1.3242179
1.8537054
1.8688719
1.8864571
1.8985771
1.9071212
1.9128903
1.9161794
1.9173206
1.916579
1.9141496
1.910164
1.9046709
1.8976584
1.8890278
1.8786232
1.866195
1.8514348
1.8339472
1.8132708
1.7888587
1.76012
1.7263122
1.6869142
1.6409988
1.5876008
1.5260242
1.4552765
1.3742643
1.2816864
1.1758058
1.0540057
0.91178103
0.73989855
0.51281217
0.13704773
0.54194638
0.74806936
0.90219318
1.0271089
1.1319794
1.2216645
1.2991998
1.3667022
1.4257482
1.47756
1.5231417
1.5633345
1.5988458
1.6302726
1.6581109
1.6827996
1.7047318
1.7242449
1.7416298
1.7571398
1.7709936
1.7833861
1.7944949
1.8044673
1.8134269
1.8214866
1.8287466
1.8352945
1.8412065
1.8465502
1.8513871
1.8557687
1.8597372
1.8633328
1.8665897
1.8695394
1.8721881
1.8745774
1.8765471
1.6938874
1.636471
1.5795633
1.5460851
1.5148206
1.4865571
1.4622349
1.4420738
1.4252013
1.410942
1.3987466
1.3885812
1.3801601
1.3731299
1.3673438
1.3624811
1.358495
1.3551998
1.3525396
1.3503624
1.3486843
1.3472905
1.3463189
1.3454907
1.3449554
1.3445432
1.3441581
1.343855
1.3433946
1.3429884
1.3424113
1.3415916
1.3406314
1.3392964
1.3377556
1.3358961
1.333427
1.3307569
1.3276286
1.3236688
1.3193815
1.3144984
1.3086252
1.3021795
1.2950192
1.2867959
1.2777184
1.2678424
1.2568484
1.244726
1.2317945
1.2177614
1.2024248
1.1861124
1.1688201
1.1502873
1.1303448
1.1094769
1.087635
1.0643251
1.0396741
1.0138002
0.98630322
0.95682824
0.92542804
0.89281752
0.85947454
0.82510291
0.78946257
0.75129503
0.70975117
0.66410882
0.61425832
0.56220692
0.50966613
0.45834107
0.41114145
0.3754651
0.36746189
0.39389283
0.44197872
0.49551604
0.5468744
0.59338455
0.63569772
0.67572516
0.71437068
0.75194935
0.78856714
0.82329663
0.85583428
0.88546498
0.9123968
0.93794605
0.96296712
0.98828819
1.0132031
1.0367327
1.0584659
1.0784663
1.0976814
1.1164887
1.1350888
1.1532741
1.1705913
1.1869455
1.2021241
1.2164412
1.2302943
1.2436967
1.2566116
1.2686508
1.2794451
1.2892869
1.2983911
1.3070394
1.3154019
1.3228115
1.3294261
1.3353179
1.3407866
1.3462152
1.3514151
1.3563564
1.3611471
1.365971
1.3711341
1.376956
1.3831431
1.389881
1.3972285
1.4053947
1.4146397
1.4249236
1.4358834
1.4474905
1.4596545
1.4725221
1.4863483
1.5007421
1.5152879
1.5298755
1.5443589
1.5588641
1.5736864
1.5883776
1.6024694
1.6159438
1.6290398
1.6423548
1.6559894
1.6693155
1.681978
1.6940806
1.705533
1.7163353
1.7265477
1.7361856
1.7450909
1.7532901
1.7607599
1.7674863
1.7736332
1.7794844
1.7846977
1.7892031
1.792986
1.7960072
1.7984074
1.8010645
1.804569
1.807221
1.8094088
1.810987
1.8119663
1.8130223
1.8158202
1.8186817
1.8209414
1.8229642
1.8246395
1.8260256
1.8280904
1.8311509
1.8340282
1.8364813
1.8387239
1.8406897
1.842394
1.8445353
1.8475123
1.8504284
1.8529728
1.8553604
1.857538
1.859513
1.8617037
1.8651489
1.8689844
1.8722652
1.8754515
1.8784299
1.8812314
1.8838324
1.8872389
1.8913357
1.8950781
1.8986305
1.9019954
1.9051904
1.9082072
1.9110813
1.914615
1.9184475
1.9218426
1.9251414
1.92826
1.9312336
1.9340473
1.9367421
1.9401333
1.943848
1.9471346
1.9503308
1.9533487
1.9562275
1.9589569
1.9615186
1.9644335
1.9676742
1.9706919
1.9735418
1.9762374
1.9787846
1.9811947
1.9834576
1.9856109
1.9880794
1.9906582
1.9929584
1.9951478
1.9971877
1.9990989
2.000888
2.0025448
2.0040839
2.0059524
2.0079624
2.0096967
2.0113249
2.0128081
2.014164
2.0153918
2.0164946
2.0174671
2.0184643
2.0195597
2.0205635
2.0214187
2.0221596
2.022777
2.0232768
2.0236683
2.0239523
2.024126
2.0243007
2.0245327
2.0246839
2.024709
2.0246366
2.0244644
2.0241929
2.0238276
2.0233776
2.0228383
2.0222007
2.0216661
2.0212033
2.0206096
2.0199257
2.0191478
2.0182876
2.0173436
2.0163151
2.0152101
2.0140328
2.0127739
2.0114825
2.0102008
2.0088653
2.0074477
2.0059625
2.0044105
2.0027982
2.001123
1.9993934
1.9976095
1.9957735
1.993885
1.9919534
1.9900637
1.9881856
1.9862258
1.9842211
1.9821722
1.9800836
1.9779555
1.9757906
1.9735911
1.9713596
1.9690962
1.9668053
1.9644842
1.9621526
1.9598557
1.9575674
1.9552439
1.9528965
1.9505264
1.9481395
1.9457344
1.9433141
1.9408827
1.9384403
1.9359871
1.9335278
1.9310646
1.9285956
1.926124
1.9236638
1.9212317
1.9188119
1.9163876
1.9139652
1.9115462
1.9091328
1.9067264
1.9043284
1.9019407
1.8995643
1.897199
1.894846
1.8925054
1.8901734
1.8878533
1.8855462
1.8832403
1.8809252
1.8785872
1.0256605
1.041019
1.0538263
1.0631933
1.0681432
1.067605
1.0603245
1.0449646
1.0205609
0.98723114
0.94806857
0.91122281
0.88953121
0.89257596
0.91693876
0.95170545
0.99011269
1.0304558
1.0725354
1.1163622
1.1620739
1.2106596
1.2626486
1.3188682
1.3798226
1.4457608
1.5161962
1.5900413
1.6657838
1.741589
1.8152928
1.8840968
1.944685
1.9934396
2.0269914
2.0426889
2.0392744
2.0173426
1.9796983
1.9308209
1.8756198
1.8184429
1.7601983
1.7119724
1.0084945
0.99207911
0.97702501
0.96334314
0.95075456
0.93918224
0.92850673
0.91863001
0.90947035
0.90096236
0.89303312
0.88562213
0.87870282
0.87222856
0.86617728
0.86050477
0.85521703
0.85021305
0.84565919
0.84113321
0.83756839
0.83290372
0.831877
0.82424363
)
;
    }
    Inlet
    {
        type            calculated;
        value           uniform 0;
    }
    Airfoil
    {
        type            calculated;
        value           nonuniform List<scalar> 
527
(
0.74172338
1.9951046
2.2001469
2.0453422
2.05547
1.9807889
1.8768459
1.777902
1.7066647
1.6552664
1.6135627
1.5744571
1.5472308
1.5216109
1.5020881
1.4843585
1.4667961
1.450019
1.4329061
1.4148355
1.3976437
1.3792877
1.3606428
1.344521
1.3244755
1.309137
1.289198
1.2724459
1.2548417
1.2359711
1.2206012
1.2011485
1.1838725
1.1674289
1.1478737
1.1331756
1.1176972
1.0982257
1.0828907
1.0674086
1.0494427
1.0334032
1.0170877
0.99943467
0.98193635
0.96579792
0.94821695
0.93044938
0.9114866
0.89278133
0.87634854
0.85448473
0.83605192
0.81301503
0.79752151
0.76852661
0.74150535
0.72368897
0.69998699
0.66550553
0.63152937
0.6100739
0.57761508
0.53180184
0.48854116
0.45839078
0.41470335
0.34585428
0.31101833
0.31634269
0.34945283
0.43435401
0.50932538
0.5437094
0.57845839
0.66630723
0.74612163
0.76346879
0.79321124
0.84326686
0.91198949
0.94637815
0.96499215
0.98617274
1.043618
1.0964385
1.1040932
1.1235981
1.1528984
1.2040062
1.2370631
1.2458279
1.2603744
1.2966849
1.3484095
1.3688317
1.3745284
1.3845945
1.4234653
1.4762455
1.4893993
1.4916467
1.498579
1.532105
1.5818313
1.5954732
1.5942472
1.5989974
1.6222174
1.6683058
1.6903439
1.6853459
1.6882196
1.6974306
1.739032
1.7747491
1.7655876
1.7674575
1.7710956
1.7967844
1.8319592
1.8379216
1.8363765
1.8388041
1.8464992
1.8783611
1.9059248
1.8989308
1.90051
1.9034513
1.9232217
1.9648546
1.9852864
1.9760115
1.9748017
1.9761941
2.0101881
2.06659
2.0808256
2.0663186
2.0610783
2.0594678
2.096541
2.1575075
2.1702589
2.1521677
2.1451653
2.1408252
2.1580659
2.1962808
2.2102317
2.1956569
2.1906662
2.186913
2.1874109
2.1991495
2.2073149
2.1999001
2.1968225
2.1926385
2.1909099
2.2233446
2.2592181
2.2504318
2.2339968
2.2211871
2.2114435
2.25356
2.4177577
2.5128406
2.4170996
2.3826058
2.3513348
2.3425463
2.4893702
2.7394854
2.8003205
2.6677998
2.6062569
2.5532633
2.5332163
2.7582451
3.027354
3.0283193
2.8914392
2.8236165
2.7568976
2.7276831
2.9051433
3.1326865
3.1382788
3.0007103
2.932344
2.8697435
2.8429474
3.0017673
3.3587806
3.4692354
3.2440755
3.1587326
3.0816098
3.0219893
3.0432156
3.3427102
3.5180056
3.3904246
3.2780915
3.1983248
3.136393
3.0943113
3.1539322
3.4132596
3.5054114
3.3059269
3.2365739
3.1668932
3.1208382
3.1118315
3.2063602
3.5082751
3.598763
3.3750314
3.3027207
3.2268966
3.1757809
3.1464986
3.1981271
3.419025
3.5208343
3.410778
3.3126637
3.2429163
3.1871808
3.1491398
3.1530055
3.2366533
3.4304216
3.4672094
3.2955183
3.2369213
3.1755364
3.1355675
3.1191056
3.150495
3.2559114
3.4818956
3.5206642
3.3253682
3.2650808
3.1980842
3.1504107
3.1156045
3.1055234
3.1419516
3.2485082
3.3091595
3.2728658
3.1858948
3.1389941
3.0948687
3.0624755
3.0425767
3.0481461
3.0845428
3.1734444
3.2235295
3.1949387
3.1191889
3.0820345
3.0485642
3.0283508
3.0268008
3.0483271
3.0906088
3.1744829
3.3206381
3.3414931
3.2166781
3.1661305
3.1165986
3.0785154
3.0472998
3.0251666
3.0140386
3.0232382
3.0478614
3.0997796
3.129477
3.1120669
3.0569421
3.0316592
3.0061351
2.9881434
2.9767747
2.9755857
2.9864248
3.0067561
3.0394379
3.0930301
3.1641747
3.1638046
3.082076
3.0598399
3.0313045
3.0124908
2.9986292
2.9911468
2.9939868
3.0049467
3.0234897
3.050536
3.0889744
3.1443711
3.1912278
3.1843991
3.1297586
3.1152935
3.0995017
3.0929069
3.0956411
3.1052106
3.1197739
3.1399477
3.1660472
3.1985207
3.2378709
3.2846137
3.3407249
3.4088519
3.4684883
3.5010991
3.5410834
3.5946745
3.6540719
3.7204854
3.7928569
3.8708321
3.9538975
4.0415631
4.1333355
4.2287626
4.3274805
4.4286524
4.5305789
4.6320894
4.7337817
4.8306221
4.8926544
4.936067
1.5732691
1.515138
1.5320461
1.5086867
1.4697365
1.4472361
1.4047719
1.3739132
1.3724806
1.3700424
1.3674763
1.3662921
1.3704914
1.3778961
1.3813075
1.3854799
1.3813779
1.3695326
1.3636134
1.3594821
1.3497577
1.3416384
1.3415445
1.3363409
1.3297792
1.3333944
1.328257
1.3166885
1.3158322
1.306786
1.2961517
1.2976243
1.2941671
1.2857333
1.2861838
1.2771613
1.2624264
1.2590657
1.2515323
1.2423866
1.2395616
1.2333787
1.2193081
1.2053174
1.1934219
1.1681857
1.13754
1.1108747
1.0776268
1.0516784
1.0323568
1.016847
0.9979592
0.99755729
1.0134051
1.0236207
1.0390143
1.0633043
1.0951229
1.1277846
1.1624547
1.2003521
1.2393761
1.2932763
1.3385177
1.4919726
1.3688663
2.0475337
2.339087
4.3542398
3.8190704
3.6137077
3.7276074
4.509324
4.2200896
2.7602835
1.8528764
1.8108072
0.86440631
0.47638853
0.42150242
0.59115766
1.0150657
1.2592904
1.3156561
1.3586249
1.5317023
1.5238438
1.4530903
1.5682194
1.3786849
1.4961403
1.71696
1.9807323
2.0736178
2.1425716
2.3400408
2.5481014
2.9979302
3.1692605
2.940972
2.8191096
3.0207104
3.3068778
3.3049247
3.2715668
3.5180134
3.8015372
4.5687199
4.4839259
3.7438039
3.5489744
3.7981903
4.271421
4.1062743
3.5615378
3.5715301
3.8246085
4.4639468
1.1047743
0.53143061
0.62721235
1.0546527
1.3473884
1.6474393
1.9476391
2.2695701
2.5992029
3.1219886
3.0850782
2.9666437
3.0796449
3.3047345
3.5629131
3.9262698
3.9054031
3.8328588
3.9168902
4.101133
4.3353413
4.6167585
4.9401567
5.5323845
4.9187098
4.4978589
4.2720321
4.1840062
4.1754206
4.2593218
4.4271456
4.7014361
4.6294991
4.2055253
3.9039885
3.7060033
3.5888492
3.5256351
3.5344218
3.6047038
3.7214799
3.8818994
4.1004318
4.0418021
3.5994962
3.3103967
3.0643769
2.8800225
2.7454439
2.6540335
2.600222
2.6035662
2.6626113
2.7448793
2.8385696
2.9416281
3.0528918
3.1988407
3.4992329
)
;
    }
    Outlet
    {
        type            calculated;
        value           uniform 0;
    }
}


// ************************************************************************* //
